{
	 "smiles": "CC1(C)C2CCC1(C)C(=O)C=C2OC(=O)C1=CC=C(C=C1)[N+]([O-])=O", 
	 "Tm": 394.15, 
	 "num_atms": 43, 
	 "gaussian": { 
		 "optdone": 1, 
		 "sigma_profile": "yes", 
		 "theory": "DFT", 
		 "functional": "B3LYP", 
		 "basiset": "6-31G**", 
		 "properties": { 
			 "R2extent": 14102.9531, 
			 "electric_dipole_moment_norm": 3.86441957091, 
			 "electric_quadrupole_moment_norm": 35.4845423299, 
			 "total_energy": -1128.14263389, 
			 "HOMO_LUMO_gap": 0.1246, 
			 "cosmo_polarized_energy": -16.3, 
			 "cosmo_cavitation_energy": 44.9, 
			 "cosmo_dispersion_energy": -31.36, 
			 "cosmo_repulsion_energy": 2.32, 
			 "cosmo_total_nonelectrostatic_energy": 15.86, 
			 "SMD_solvation_energy": 11.14 
		},
		"coords": [
			{
				"x": 3.3054882005,
				"y": -1.1235017039,
				"z": -0.9934281031,
				"element": "C" 
			},
			{
				"x": 2.2322167977,
				"y": -0.69901296,
				"z": 0.0317450591,
				"element": "C" 
			},
			{
				"x": 2.9497636856,
				"y": 0.1128728328,
				"z": 1.125617292,
				"element": "C" 
			},
			{
				"x": 1.0835817738,
				"y": 0.0710056775,
				"z": -0.6880313034,
				"element": "C" 
			},
			{
				"x": 0.3915045458,
				"y": -1.0339835713,
				"z": -1.5414600265,
				"element": "C" 
			},
			{
				"x": 0.5351110018,
				"y": -2.3187785664,
				"z": -0.6824058656,
				"element": "C" 
			},
			{
				"x": 1.4050241757,
				"y": -1.9242651221,
				"z": 0.5649430778,
				"element": "C" 
			},
			{
				"x": 2.2199415178,
				"y": -3.0947680168,
				"z": 1.1125758184,
				"element": "C" 
			},
			{
				"x": 0.4175724952,
				"y": -1.4250538795,
				"z": 1.6439788695,
				"element": "C" 
			},
			{
				"x": 0.1695454472,
				"y": -2.0804428073,
				"z": 2.6469122977,
				"element": "O" 
			},
			{
				"x": -0.266809107,
				"y": -0.1359523255,
				"z": 1.4003734936,
				"element": "C" 
			},
			{
				"x": 0.0784674667,
				"y": 0.5805536464,
				"z": 0.3140354301,
				"element": "C" 
			},
			{
				"x": -0.4342070911,
				"y": 1.8018833455,
				"z": -0.0893639283,
				"element": "O" 
			},
			{
				"x": -1.4361378145,
				"y": 2.4835746308,
				"z": 0.5502928153,
				"element": "C" 
			},
			{
				"x": -1.997709852,
				"y": 2.1114855771,
				"z": 1.553733861,
				"element": "O" 
			},
			{
				"x": -1.7492353678,
				"y": 3.7606411129,
				"z": -0.1587936725,
				"element": "C" 
			},
			{
				"x": -2.7565779266,
				"y": 4.5670047082,
				"z": 0.3921320897,
				"element": "C" 
			},
			{
				"x": -3.1026724079,
				"y": 5.7692803905,
				"z": -0.2138829096,
				"element": "C" 
			},
			{
				"x": -2.4274630282,
				"y": 6.1473489232,
				"z": -1.3731636836,
				"element": "C" 
			},
			{
				"x": -1.423680935,
				"y": 5.3659078398,
				"z": -1.941345393,
				"element": "C" 
			},
			{
				"x": -1.0849278414,
				"y": 4.1643156653,
				"z": -1.3265576465,
				"element": "C" 
			},
			{
				"x": -2.7885676361,
				"y": 7.4224926819,
				"z": -2.0236703873,
				"element": "N" 
			},
			{
				"x": -2.1776523057,
				"y": 7.7313284394,
				"z": -3.0450300653,
				"element": "O" 
			},
			{
				"x": -3.6768552456,
				"y": 8.0933816067,
				"z": -1.5023502665,
				"element": "O" 
			},
			{
				"x": 3.7217157069,
				"y": -0.2377235251,
				"z": -1.4869940826,
				"element": "H" 
			},
			{
				"x": 4.1327090976,
				"y": -1.6364125443,
				"z": -0.4946402379,
				"element": "H" 
			},
			{
				"x": 2.9274195817,
				"y": -1.7903299873,
				"z": -1.7716912355,
				"element": "H" 
			},
			{
				"x": 2.2756223318,
				"y": 0.4938084622,
				"z": 1.8945366371,
				"element": "H" 
			},
			{
				"x": 3.4708568477,
				"y": 0.969222389,
				"z": 0.6825202618,
				"element": "H" 
			},
			{
				"x": 3.7058083622,
				"y": -0.5041921993,
				"z": 1.6215057686,
				"element": "H" 
			},
			{
				"x": 1.4473833605,
				"y": 0.9074981149,
				"z": -1.2925526515,
				"element": "H" 
			},
			{
				"x": -0.6500365647,
				"y": -0.7819056701,
				"z": -1.7579162519,
				"element": "H" 
			},
			{
				"x": 0.9003491863,
				"y": -1.138396205,
				"z": -2.503835743,
				"element": "H" 
			},
			{
				"x": -0.4316754617,
				"y": -2.7283981161,
				"z": -0.3759935495,
				"element": "H" 
			},
			{
				"x": 1.0434652038,
				"y": -3.1097142856,
				"z": -1.2422189476,
				"element": "H" 
			},
			{
				"x": 2.8615927503,
				"y": -3.5242574255,
				"z": 0.3381053848,
				"element": "H" 
			},
			{
				"x": 2.8476554612,
				"y": -2.7869414043,
				"z": 1.9542857688,
				"element": "H" 
			},
			{
				"x": 1.5527880893,
				"y": -3.8752122408,
				"z": 1.4853104785,
				"element": "H" 
			},
			{
				"x": -1.0016518026,
				"y": 0.1832027346,
				"z": 2.1230991735,
				"element": "H" 
			},
			{
				"x": -3.2560349079,
				"y": 4.2343175871,
				"z": 1.2949999248,
				"element": "H" 
			},
			{
				"x": -3.8753763354,
				"y": 6.4120116136,
				"z": 0.1883361935,
				"element": "H" 
			},
			{
				"x": -0.9302596797,
				"y": 5.7054019238,
				"z": -2.8431235784,
				"element": "H" 
			},
			{
				"x": -0.3082517765,
				"y": 3.5390026534,
				"z": -1.7487901668,
				"element": "H" 
			}
		],
		 "valence_orbital": [ 
			{
				"type": "occ",
				"energy": -0.30068,
				"method": "rhf"
			},
			{
				"type": "occ",
				"energy": -0.29931,
				"method": "rhf"
			},
			{
				"type": "occ",
				"energy": -0.29437,
				"method": "rhf"
			},
			{
				"type": "occ",
				"energy": -0.25954,
				"method": "rhf"
			},
			{
				"type": "occ",
				"energy": -0.23785,
				"method": "rhf"
			},
			{
				"type": "unocc",
				"energy": -0.11325,
				"method": "rhf"
			},
			{
				"type": "unocc",
				"energy": -0.06147,
				"method": "rhf"
			},
			{
				"type": "unocc",
				"energy": -0.0432,
				"method": "rhf"
			},
			{
				"type": "unocc",
				"energy": -0.03336,
				"method": "rhf"
			},
			{
				"type": "unocc",
				"energy": 0.03362,
				"method": "rhf"
			}
		],
		"cosmo_sigma_profile": { 
			"-0.025": 0.0,
			"-0.024": 0.0,
			"-0.023": 0.0,
			"-0.022": 0.0,
			"-0.021": 0.0,
			"-0.02": 0.0,
			"-0.019": 0.0,
			"-0.018": 0.0,
			"-0.017": 0.0,
			"-0.016": 0.0,
			"-0.015": 0.0,
			"-0.014": 0.0,
			"-0.013": 0.0,
			"-0.012": 0.0,
			"-0.011": 0.0,
			"-0.01": 0.0,
			"-0.009": 0.287146850995,
			"-0.008": 4.14618340034,
			"-0.007": 8.71501489185,
			"-0.006": 6.86287456165,
			"-0.005": 12.8713842638,
			"-0.004": 27.0923414456,
			"-0.003": 43.1869732221,
			"-0.002": 47.8398443887,
			"-0.001": 49.4053572372,
			"0.0": 46.2872111627,
			"0.001": 24.985069239,
			"0.002": 10.8946945628,
			"0.003": 6.03816642164,
			"0.004": 6.96657390785,
			"0.005": 6.20252522622,
			"0.006": 7.62844660783,
			"0.007": 12.8792135342,
			"0.008": 9.20056313243,
			"0.009": 7.59347144191,
			"0.01": 4.33912970891,
			"0.011": 2.40893515725,
			"0.012": 3.07732288096,
			"0.013": 4.67385141944,
			"0.014": 1.21384826661,
			"0.015": 0.0,
			"0.016": 0.0,
			"0.017": 0.0,
			"0.018": 0.0,
			"0.019": 0.0,
			"0.02": 0.0,
			"0.021": 0.0,
			"0.022": 0.0,
			"0.023": 0.0,
			"0.024": 0.0,
			"0.025": 0.0
		}
	}
}
