{
	 "smiles": "CC1=CC(O)=CC(C)=C1", 
	 "Tm": 337.15, 
	 "num_atms": 19, 
	 "gaussian": { 
		 "optdone": 1, 
		 "sigma_profile": "yes", 
		 "theory": "DFT", 
		 "functional": "B3LYP", 
		 "basiset": "6-31G**", 
		 "properties": { 
			 "R2extent": 1799.2997, 
			 "electric_dipole_moment_norm": 1.35202988872, 
			 "electric_quadrupole_moment_norm": 7.92905132219, 
			 "total_energy": -386.11232331, 
			 "HOMO_LUMO_gap": 0.21758, 
			 "cosmo_polarized_energy": -7.61, 
			 "cosmo_cavitation_energy": 22.19, 
			 "cosmo_dispersion_energy": -16.42, 
			 "cosmo_repulsion_energy": 1.35, 
			 "cosmo_total_nonelectrostatic_energy": 7.12, 
			 "SMD_solvation_energy": 4.3 
		},
		"coords": [
			{
				"x": -2.5357592594,
				"y": 0.2807349705,
				"z": 0.9108315602,
				"element": "C" 
			},
			{
				"x": -1.5769715159,
				"y": -0.2040570395,
				"z": -0.1521819831,
				"element": "C" 
			},
			{
				"x": -1.2565788468,
				"y": -1.557940449,
				"z": -0.2526293329,
				"element": "C" 
			},
			{
				"x": -0.3462360783,
				"y": -1.9937126875,
				"z": -1.2221272992,
				"element": "C" 
			},
			{
				"x": -0.0781613351,
				"y": -3.3348393218,
				"z": -1.268587947,
				"element": "O" 
			},
			{
				"x": 0.2455962269,
				"y": -1.0802745092,
				"z": -2.0954054347,
				"element": "C" 
			},
			{
				"x": -0.0672435706,
				"y": 0.2834620523,
				"z": -2.0084050284,
				"element": "C" 
			},
			{
				"x": 0.5820262155,
				"y": 1.2707960806,
				"z": -2.9506555374,
				"element": "C" 
			},
			{
				"x": -0.978305091,
				"y": 0.7061996034,
				"z": -1.03767371,
				"element": "C" 
			},
			{
				"x": -3.1587870803,
				"y": 1.1017868743,
				"z": 0.5422223365,
				"element": "H" 
			},
			{
				"x": -3.1969055028,
				"y": -0.5214922004,
				"z": 1.2507971975,
				"element": "H" 
			},
			{
				"x": -1.9950399193,
				"y": 0.654448569,
				"z": 1.7894437897,
				"element": "H" 
			},
			{
				"x": -1.7041479212,
				"y": -2.2926122847,
				"z": 0.4097222659,
				"element": "H" 
			},
			{
				"x": 0.5569328762,
				"y": -3.5024527227,
				"z": -1.9767448616,
				"element": "H" 
			},
			{
				"x": 0.9492724868,
				"y": -1.4294588118,
				"z": -2.8501147879,
				"element": "H" 
			},
			{
				"x": 0.464767863,
				"y": 0.9639082108,
				"z": -3.9960843063,
				"element": "H" 
			},
			{
				"x": 0.147844459,
				"y": 2.268414108,
				"z": -2.8432016071,
				"element": "H" 
			},
			{
				"x": 1.6587144645,
				"y": 1.3548146234,
				"z": -2.759451481,
				"element": "H" 
			},
			{
				"x": -1.2301184711,
				"y": 1.7617749342,
				"z": -0.9678538334,
				"element": "H" 
			}
		],
		 "valence_orbital": [ 
			{
				"type": "occ",
				"energy": -0.34472,
				"method": "rhf"
			},
			{
				"type": "occ",
				"energy": -0.32806,
				"method": "rhf"
			},
			{
				"type": "occ",
				"energy": -0.31062,
				"method": "rhf"
			},
			{
				"type": "occ",
				"energy": -0.23163,
				"method": "rhf"
			},
			{
				"type": "occ",
				"energy": -0.21244,
				"method": "rhf"
			},
			{
				"type": "unocc",
				"energy": 0.00514,
				"method": "rhf"
			},
			{
				"type": "unocc",
				"energy": 0.02145,
				"method": "rhf"
			},
			{
				"type": "unocc",
				"energy": 0.07556,
				"method": "rhf"
			},
			{
				"type": "unocc",
				"energy": 0.10198,
				"method": "rhf"
			},
			{
				"type": "unocc",
				"energy": 0.12302,
				"method": "rhf"
			}
		],
		"cosmo_sigma_profile": { 
			"-0.025": 0.0,
			"-0.024": 0.0,
			"-0.023": 0.0,
			"-0.022": 0.0,
			"-0.021": 0.0,
			"-0.02": 0.0,
			"-0.019": 0.0,
			"-0.018": 0.0656966253572,
			"-0.017": 0.819427308899,
			"-0.016": 1.32596664315,
			"-0.015": 0.94088949542,
			"-0.014": 0.388047348128,
			"-0.013": 1.3616600839,
			"-0.012": 0.933098254794,
			"-0.011": 0.942867430567,
			"-0.01": 1.01262233085,
			"-0.009": 1.08651448676,
			"-0.008": 0.831492913298,
			"-0.007": 0.98921445905,
			"-0.006": 1.82304435535,
			"-0.005": 3.76900083383,
			"-0.004": 14.6727823577,
			"-0.003": 17.4033488881,
			"-0.002": 17.9635928803,
			"-0.001": 16.1840786194,
			"0.0": 21.501252407,
			"0.001": 13.000482392,
			"0.002": 6.89246658935,
			"0.003": 8.13678695809,
			"0.004": 8.76826650918,
			"0.005": 9.97909272661,
			"0.006": 9.83446147621,
			"0.007": 5.91199547778,
			"0.008": 1.76522197948,
			"0.009": 1.18538679696,
			"0.01": 1.73379697802,
			"0.011": 1.80439061494,
			"0.012": 1.61868635183,
			"0.013": 0.0430527697786,
			"0.014": 0.0,
			"0.015": 0.0,
			"0.016": 0.0,
			"0.017": 0.0,
			"0.018": 0.0,
			"0.019": 0.0,
			"0.02": 0.0,
			"0.021": 0.0,
			"0.022": 0.0,
			"0.023": 0.0,
			"0.024": 0.0,
			"0.025": 0.0
		}
	}
}
