{
	 "smiles": "CC1=C(C)C(C)=C(C(=O)CCl)C(C)=C1C", 
	 "Tm": 344.15, 
	 "num_atms": 32, 
	 "gaussian": { 
		 "optdone": 1, 
		 "sigma_profile": "yes", 
		 "theory": "DFT", 
		 "functional": "B3LYP", 
		 "basiset": "6-31G**", 
		 "properties": { 
			 "R2extent": 4658.6508, 
			 "electric_dipole_moment_norm": 4.9221411408, 
			 "electric_quadrupole_moment_norm": 16.2157680558, 
			 "total_energy": -1041.05983975, 
			 "HOMO_LUMO_gap": 0.20512, 
			 "cosmo_polarized_energy": -11.06, 
			 "cosmo_cavitation_energy": 34.64, 
			 "cosmo_dispersion_energy": -24.34, 
			 "cosmo_repulsion_energy": 1.9, 
			 "cosmo_total_nonelectrostatic_energy": 12.2, 
			 "SMD_solvation_energy": 5.85 
		},
		"coords": [
			{
				"x": 1.3865387566,
				"y": -0.9974710486,
				"z": 2.7533296062,
				"element": "C" 
			},
			{
				"x": 0.8316199806,
				"y": -0.5859323502,
				"z": 1.4042033572,
				"element": "C" 
			},
			{
				"x": 0.8035436525,
				"y": 0.7772295957,
				"z": 1.0466735757,
				"element": "C" 
			},
			{
				"x": 1.3703073769,
				"y": 1.8150992993,
				"z": 1.9950562313,
				"element": "C" 
			},
			{
				"x": 0.248435817,
				"y": 1.1671197412,
				"z": -0.1867638748,
				"element": "C" 
			},
			{
				"x": 0.1672422574,
				"y": 2.632474298,
				"z": -0.5724300176,
				"element": "C" 
			},
			{
				"x": -0.247057448,
				"y": 0.1755140266,
				"z": -1.0513794251,
				"element": "C" 
			},
			{
				"x": -0.8306747826,
				"y": 0.5891192671,
				"z": -2.3867756029,
				"element": "C" 
			},
			{
				"x": -1.9997574942,
				"y": 0.8526164007,
				"z": -2.5582553887,
				"element": "O" 
			},
			{
				"x": 0.2148041262,
				"y": 0.6397645715,
				"z": -3.5037144218,
				"element": "C" 
			},
			{
				"x": -0.4406808523,
				"y": 1.127451386,
				"z": -5.1006679669,
				"element": "Cl" 
			},
			{
				"x": -0.2075257524,
				"y": -1.189449333,
				"z": -0.7173190944,
				"element": "C" 
			},
			{
				"x": -0.7728958088,
				"y": -2.2291582185,
				"z": -1.6670073562,
				"element": "C" 
			},
			{
				"x": 0.3489023426,
				"y": -1.5703384312,
				"z": 0.5183489091,
				"element": "C" 
			},
			{
				"x": 0.4307478858,
				"y": -3.0338954711,
				"z": 0.9044079021,
				"element": "C" 
			},
			{
				"x": 1.2407664518,
				"y": -0.2204556806,
				"z": 3.5060878252,
				"element": "H" 
			},
			{
				"x": 2.4655482101,
				"y": -1.199943709,
				"z": 2.7047261306,
				"element": "H" 
			},
			{
				"x": 0.9080728938,
				"y": -1.9039770632,
				"z": 3.1289685638,
				"element": "H" 
			},
			{
				"x": 2.3326683705,
				"y": 1.4972565533,
				"z": 2.4073405472,
				"element": "H" 
			},
			{
				"x": 1.5314482351,
				"y": 2.7754695156,
				"z": 1.5051539097,
				"element": "H" 
			},
			{
				"x": 0.7017573117,
				"y": 1.9955280105,
				"z": 2.8472883884,
				"element": "H" 
			},
			{
				"x": -0.4172279221,
				"y": 2.7868276388,
				"z": -1.481114293,
				"element": "H" 
			},
			{
				"x": 1.159888456,
				"y": 3.0702879222,
				"z": -0.7352214378,
				"element": "H" 
			},
			{
				"x": -0.3171349227,
				"y": 3.2228999149,
				"z": 0.2118460137,
				"element": "H" 
			},
			{
				"x": 1.0034810164,
				"y": 1.3448347598,
				"z": -3.2267382468,
				"element": "H" 
			},
			{
				"x": 0.6766808763,
				"y": -0.3458749122,
				"z": -3.6089231058,
				"element": "H" 
			},
			{
				"x": 0.0085911379,
				"y": -2.8838468935,
				"z": -2.0721501299,
				"element": "H" 
			},
			{
				"x": -1.4994197728,
				"y": -2.8740305984,
				"z": -1.1623664736,
				"element": "H" 
			},
			{
				"x": -1.2960331732,
				"y": -1.7748553362,
				"z": -2.510244509,
				"element": "H" 
			},
			{
				"x": -0.3229988147,
				"y": -3.2983973226,
				"z": 1.6578749734,
				"element": "H" 
			},
			{
				"x": 1.4074560256,
				"y": -3.2812038452,
				"z": 1.3311132988,
				"element": "H" 
			},
			{
				"x": 0.2759055628,
				"y": -3.6938626872,
				"z": 0.0507521117,
				"element": "H" 
			}
		],
		 "valence_orbital": [ 
			{
				"type": "occ",
				"energy": -0.29909,
				"method": "rhf"
			},
			{
				"type": "occ",
				"energy": -0.29567,
				"method": "rhf"
			},
			{
				"type": "occ",
				"energy": -0.25653,
				"method": "rhf"
			},
			{
				"type": "occ",
				"energy": -0.23564,
				"method": "rhf"
			},
			{
				"type": "occ",
				"energy": -0.23133,
				"method": "rhf"
			},
			{
				"type": "unocc",
				"energy": -0.02621,
				"method": "rhf"
			},
			{
				"type": "unocc",
				"energy": -0.01119,
				"method": "rhf"
			},
			{
				"type": "unocc",
				"energy": -0.00375,
				"method": "rhf"
			},
			{
				"type": "unocc",
				"energy": 0.03916,
				"method": "rhf"
			},
			{
				"type": "unocc",
				"energy": 0.07373,
				"method": "rhf"
			}
		],
		"cosmo_sigma_profile": { 
			"-0.025": 0.0,
			"-0.024": 0.0,
			"-0.023": 0.0,
			"-0.022": 0.0,
			"-0.021": 0.0,
			"-0.02": 0.0,
			"-0.019": 0.0,
			"-0.018": 0.0,
			"-0.017": 0.0,
			"-0.016": 0.0,
			"-0.015": 0.0,
			"-0.014": 0.0,
			"-0.013": 0.0,
			"-0.012": 0.0,
			"-0.011": 0.0,
			"-0.01": 0.0,
			"-0.009": 1.02834009749,
			"-0.008": 3.40949095632,
			"-0.007": 5.22947713562,
			"-0.006": 6.93689098285,
			"-0.005": 6.60135075569,
			"-0.004": 25.8490361786,
			"-0.003": 34.2708942474,
			"-0.002": 33.2671349415,
			"-0.001": 31.6239593822,
			"0.0": 30.1499489014,
			"0.001": 19.0185714528,
			"0.002": 10.509826001,
			"0.003": 9.87183581011,
			"0.004": 10.1418971292,
			"0.005": 12.063545871,
			"0.006": 14.3436221672,
			"0.007": 3.40368957909,
			"0.008": 2.9130593287,
			"0.009": 2.08002839144,
			"0.01": 4.06140984057,
			"0.011": 4.3267209087,
			"0.012": 2.75283408394,
			"0.013": 0.40648502117,
			"0.014": 0.0,
			"0.015": 0.0,
			"0.016": 0.0,
			"0.017": 0.0,
			"0.018": 0.0,
			"0.019": 0.0,
			"0.02": 0.0,
			"0.021": 0.0,
			"0.022": 0.0,
			"0.023": 0.0,
			"0.024": 0.0,
			"0.025": 0.0
		}
	}
}
