{
	 "smiles": "N#CC1=C2C=CN=CC2=CC=C1", 
	 "Tm": 400.15, 
	 "num_atms": 18, 
	 "gaussian": { 
		 "optdone": 1, 
		 "sigma_profile": "yes", 
		 "theory": "DFT", 
		 "functional": "B3LYP", 
		 "basiset": "6-31G**", 
		 "properties": { 
			 "R2extent": 1952.9999, 
			 "electric_dipole_moment_norm": 3.86202031455, 
			 "electric_quadrupole_moment_norm": 16.1026403732, 
			 "total_energy": -494.168890601, 
			 "HOMO_LUMO_gap": 0.16417, 
			 "cosmo_polarized_energy": -10.95, 
			 "cosmo_cavitation_energy": 23.35, 
			 "cosmo_dispersion_energy": -16.86, 
			 "cosmo_repulsion_energy": 1.3, 
			 "cosmo_total_nonelectrostatic_energy": 7.79, 
			 "SMD_solvation_energy": 3.68 
		},
		"coords": [
			{
				"x": -0.89150661,
				"y": 3.524964856,
				"z": 0.5261463348,
				"element": "N" 
			},
			{
				"x": -0.3673962996,
				"y": 2.5553789759,
				"z": 0.1527545745,
				"element": "C" 
			},
			{
				"x": 0.2646694368,
				"y": 1.3549049719,
				"z": -0.3069880435,
				"element": "C" 
			},
			{
				"x": -0.5226313927,
				"y": 0.1797848203,
				"z": -0.5395075291,
				"element": "C" 
			},
			{
				"x": -1.9235085576,
				"y": 0.1060507888,
				"z": -0.3448989957,
				"element": "C" 
			},
			{
				"x": -2.5728796259,
				"y": -1.080531238,
				"z": -0.6022632744,
				"element": "C" 
			},
			{
				"x": -1.9538080346,
				"y": -2.2118592397,
				"z": -1.0392869662,
				"element": "N" 
			},
			{
				"x": -0.6523279182,
				"y": -2.1552545612,
				"z": -1.2236607409,
				"element": "C" 
			},
			{
				"x": 0.1423773599,
				"y": -0.9962556207,
				"z": -0.9971197846,
				"element": "C" 
			},
			{
				"x": 1.5440530869,
				"y": -0.9835666811,
				"z": -1.2102224376,
				"element": "C" 
			},
			{
				"x": 2.2759903819,
				"y": 0.1605643686,
				"z": -0.9784265002,
				"element": "C" 
			},
			{
				"x": 1.6347168719,
				"y": 1.333726235,
				"z": -0.5253919441,
				"element": "C" 
			},
			{
				"x": -2.4735564207,
				"y": 0.974721682,
				"z": 0.0022417838,
				"element": "H" 
			},
			{
				"x": -3.6477757955,
				"y": -1.1601562315,
				"z": -0.4599144718,
				"element": "H" 
			},
			{
				"x": -0.1637796351,
				"y": -3.0653814947,
				"z": -1.5737565851,
				"element": "H" 
			},
			{
				"x": 2.0309160278,
				"y": -1.890371077,
				"z": -1.5590556962,
				"element": "H" 
			},
			{
				"x": 3.3487524202,
				"y": 0.1705648727,
				"z": -1.1414125953,
				"element": "H" 
			},
			{
				"x": 2.2148947045,
				"y": 2.2325145728,
				"z": -0.3441371286,
				"element": "H" 
			}
		],
		 "valence_orbital": [ 
			{
				"type": "occ",
				"energy": -0.33841,
				"method": "rhf"
			},
			{
				"type": "occ",
				"energy": -0.30823,
				"method": "rhf"
			},
			{
				"type": "occ",
				"energy": -0.28543,
				"method": "rhf"
			},
			{
				"type": "occ",
				"energy": -0.26856,
				"method": "rhf"
			},
			{
				"type": "occ",
				"energy": -0.24784,
				"method": "rhf"
			},
			{
				"type": "unocc",
				"energy": -0.08367,
				"method": "rhf"
			},
			{
				"type": "unocc",
				"energy": -0.04367,
				"method": "rhf"
			},
			{
				"type": "unocc",
				"energy": -0.01614,
				"method": "rhf"
			},
			{
				"type": "unocc",
				"energy": 0.02701,
				"method": "rhf"
			},
			{
				"type": "unocc",
				"energy": 0.05414,
				"method": "rhf"
			}
		],
		"cosmo_sigma_profile": { 
			"-0.025": 0.0,
			"-0.024": 0.0,
			"-0.023": 0.0,
			"-0.022": 0.0,
			"-0.021": 0.0,
			"-0.02": 0.0,
			"-0.019": 0.0,
			"-0.018": 0.0,
			"-0.017": 0.0,
			"-0.016": 0.0,
			"-0.015": 0.0,
			"-0.014": 0.0,
			"-0.013": 0.0,
			"-0.012": 0.0,
			"-0.011": 0.0,
			"-0.01": 0.0,
			"-0.009": 1.38139586918,
			"-0.008": 7.18878379521,
			"-0.007": 12.5754502024,
			"-0.006": 11.6326843399,
			"-0.005": 10.5918097443,
			"-0.004": 9.13485628139,
			"-0.003": 11.3466193005,
			"-0.002": 12.7059958755,
			"-0.001": 17.4888699658,
			"0.0": 23.3281752378,
			"0.001": 17.177526604,
			"0.002": 12.0971014415,
			"0.003": 4.6880096646,
			"0.004": 3.55850335127,
			"0.005": 4.53880410126,
			"0.006": 2.70158867792,
			"0.007": 3.59997353982,
			"0.008": 4.71290041732,
			"0.009": 4.23674109182,
			"0.01": 4.09872573422,
			"0.011": 3.39103194141,
			"0.012": 3.28879091748,
			"0.013": 2.1712991439,
			"0.014": 1.06424651922,
			"0.015": 0.70230170615,
			"0.016": 0.594344609679,
			"0.017": 0.0650810644407,
			"0.018": 0.0,
			"0.019": 0.0,
			"0.02": 0.0,
			"0.021": 0.0,
			"0.022": 0.0,
			"0.023": 0.0,
			"0.024": 0.0,
			"0.025": 0.0
		}
	}
}
