{
	 "smiles": "CC1=C(NC(=O)C=NO)C=CC(F)=C1", 
	 "Tm": 406.15, 
	 "num_atms": 23, 
	 "gaussian": { 
		 "optdone": 1, 
		 "sigma_profile": "yes", 
		 "theory": "DFT", 
		 "functional": "B3LYP", 
		 "basiset": "6-31G**", 
		 "properties": { 
			 "R2extent": 3492.3039, 
			 "electric_dipole_moment_norm": 2.10838959635, 
			 "electric_quadrupole_moment_norm": 21.5048161813, 
			 "total_energy": -708.110627137, 
			 "HOMO_LUMO_gap": 0.17861, 
			 "cosmo_polarized_energy": -16.64, 
			 "cosmo_cavitation_energy": 28.93, 
			 "cosmo_dispersion_energy": -20.24, 
			 "cosmo_repulsion_energy": 1.61, 
			 "cosmo_total_nonelectrostatic_energy": 10.29, 
			 "SMD_solvation_energy": 6.82 
		},
		"coords": [
			{
				"x": -2.3637323125,
				"y": -0.5653694968,
				"z": 2.2046447273,
				"element": "C" 
			},
			{
				"x": -1.7713664047,
				"y": 0.5962831075,
				"z": 1.4460926677,
				"element": "C" 
			},
			{
				"x": -1.0897262995,
				"y": 0.3921651525,
				"z": 0.2259748341,
				"element": "C" 
			},
			{
				"x": -0.9903760915,
				"y": -0.9245874342,
				"z": -0.2928091029,
				"element": "N" 
			},
			{
				"x": 0.077204791,
				"y": -1.5596822359,
				"z": -0.9071833738,
				"element": "C" 
			},
			{
				"x": -0.0834419195,
				"y": -2.6085498886,
				"z": -1.5118021869,
				"element": "O" 
			},
			{
				"x": 1.4132386692,
				"y": -0.9189133386,
				"z": -0.703309781,
				"element": "C" 
			},
			{
				"x": 2.3764009873,
				"y": -1.2992071176,
				"z": -1.455837556,
				"element": "N" 
			},
			{
				"x": 3.5569139564,
				"y": -0.6536278277,
				"z": -1.1180108411,
				"element": "O" 
			},
			{
				"x": -0.5577993285,
				"y": 1.4831336752,
				"z": -0.4749878936,
				"element": "C" 
			},
			{
				"x": -0.6526249788,
				"y": 2.7763943434,
				"z": 0.0355166578,
				"element": "C" 
			},
			{
				"x": -1.3231405643,
				"y": 2.9620198171,
				"z": 1.2367521661,
				"element": "C" 
			},
			{
				"x": -1.4390498031,
				"y": 4.2076231223,
				"z": 1.7412765708,
				"element": "F" 
			},
			{
				"x": -1.8861659632,
				"y": 1.900369673,
				"z": 1.9355703834,
				"element": "C" 
			},
			{
				"x": -2.7011303379,
				"y": -0.2544297722,
				"z": 3.1960013919,
				"element": "H" 
			},
			{
				"x": -1.6350711621,
				"y": -1.3737849997,
				"z": 2.3240327726,
				"element": "H" 
			},
			{
				"x": -3.2315882335,
				"y": -0.9914360569,
				"z": 1.6840693597,
				"element": "H" 
			},
			{
				"x": -1.8391030087,
				"y": -1.4748426588,
				"z": -0.3533178968,
				"element": "H" 
			},
			{
				"x": 1.5624801265,
				"y": -0.1737293808,
				"z": 0.0777567218,
				"element": "H" 
			},
			{
				"x": 4.190346572,
				"y": -1.0256651143,
				"z": -1.7477529508,
				"element": "H" 
			},
			{
				"x": -0.0766778618,
				"y": 1.3165649416,
				"z": -1.4330652803,
				"element": "H" 
			},
			{
				"x": -0.2383822215,
				"y": 3.6276783235,
				"z": -0.4927836138,
				"element": "H" 
			},
			{
				"x": -2.4012086112,
				"y": 2.0983931661,
				"z": 2.8699722238,
				"element": "H" 
			}
		],
		 "valence_orbital": [ 
			{
				"type": "occ",
				"energy": -0.29006,
				"method": "rhf"
			},
			{
				"type": "occ",
				"energy": -0.27421,
				"method": "rhf"
			},
			{
				"type": "occ",
				"energy": -0.2659,
				"method": "rhf"
			},
			{
				"type": "occ",
				"energy": -0.25793,
				"method": "rhf"
			},
			{
				"type": "occ",
				"energy": -0.23197,
				"method": "rhf"
			},
			{
				"type": "unocc",
				"energy": -0.05336,
				"method": "rhf"
			},
			{
				"type": "unocc",
				"energy": -0.02085,
				"method": "rhf"
			},
			{
				"type": "unocc",
				"energy": -0.00942,
				"method": "rhf"
			},
			{
				"type": "unocc",
				"energy": 0.06706,
				"method": "rhf"
			},
			{
				"type": "unocc",
				"energy": 0.07483,
				"method": "rhf"
			}
		],
		"cosmo_sigma_profile": { 
			"-0.025": 0.0,
			"-0.024": 0.0,
			"-0.023": 0.0,
			"-0.022": 0.0,
			"-0.021": 0.0,
			"-0.02": 0.0,
			"-0.019": 0.119452735085,
			"-0.018": 1.03808131416,
			"-0.017": 1.24566553286,
			"-0.016": 0.718212422451,
			"-0.015": 0.853812667609,
			"-0.014": 1.18455842808,
			"-0.013": 2.12517956747,
			"-0.012": 1.66236652583,
			"-0.011": 1.96370308776,
			"-0.01": 1.45970360219,
			"-0.009": 1.98559810573,
			"-0.008": 3.39823993713,
			"-0.007": 7.74302817367,
			"-0.006": 10.9418952218,
			"-0.005": 12.9935626044,
			"-0.004": 14.1830100742,
			"-0.003": 14.1262583383,
			"-0.002": 15.3824311011,
			"-0.001": 16.4956901336,
			"0.0": 17.0930034853,
			"0.001": 16.8057850457,
			"0.002": 14.6425004488,
			"0.003": 16.8718088357,
			"0.004": 15.6583400444,
			"0.005": 6.58057004186,
			"0.006": 3.08208800673,
			"0.007": 3.02539256526,
			"0.008": 3.05163144593,
			"0.009": 4.10230047464,
			"0.01": 3.00045182747,
			"0.011": 2.50037550712,
			"0.012": 4.00545962287,
			"0.013": 6.07752812928,
			"0.014": 2.81149980535,
			"0.015": 1.37994906465,
			"0.016": 0.0716292635406,
			"0.017": 0.0,
			"0.018": 0.0,
			"0.019": 0.0,
			"0.02": 0.0,
			"0.021": 0.0,
			"0.022": 0.0,
			"0.023": 0.0,
			"0.024": 0.0,
			"0.025": 0.0
		}
	}
}
