{
	 "smiles": "COC(=O)C1=CC2=C(C=CC=C2)C=C1O", 
	 "Tm": 347.35, 
	 "num_atms": 25, 
	 "gaussian": { 
		 "optdone": 1, 
		 "sigma_profile": "yes", 
		 "theory": "DFT", 
		 "functional": "B3LYP", 
		 "basiset": "6-31G**", 
		 "properties": { 
			 "R2extent": 3885.2779, 
			 "electric_dipole_moment_norm": 0.942138763665, 
			 "electric_quadrupole_moment_norm": 17.9246242, 
			 "total_energy": -688.999427404, 
			 "HOMO_LUMO_gap": 0.14639, 
			 "cosmo_polarized_energy": -9.58, 
			 "cosmo_cavitation_energy": 29.08, 
			 "cosmo_dispersion_energy": -21.72, 
			 "cosmo_repulsion_energy": 1.66, 
			 "cosmo_total_nonelectrostatic_energy": 9.02, 
			 "SMD_solvation_energy": 6.48 
		},
		"coords": [
			{
				"x": 3.446150748,
				"y": -1.7098058828,
				"z": 1.0825216183,
				"element": "C" 
			},
			{
				"x": 2.5313067118,
				"y": -0.6793535314,
				"z": 0.6633518781,
				"element": "O" 
			},
			{
				"x": 1.1995113155,
				"y": -0.9647315914,
				"z": 0.8291310141,
				"element": "C" 
			},
			{
				"x": 0.8359105018,
				"y": -2.0219003544,
				"z": 1.2999185496,
				"element": "O" 
			},
			{
				"x": 0.307040194,
				"y": 0.1323938003,
				"z": 0.380509922,
				"element": "C" 
			},
			{
				"x": -1.0550967568,
				"y": -0.0971974112,
				"z": 0.5232278122,
				"element": "C" 
			},
			{
				"x": -2.0221873564,
				"y": 0.8530143441,
				"z": 0.1409015095,
				"element": "C" 
			},
			{
				"x": -1.5713522517,
				"y": 2.0978023263,
				"z": -0.414188434,
				"element": "C" 
			},
			{
				"x": -2.5470904682,
				"y": 3.0596606228,
				"z": -0.801296018,
				"element": "C" 
			},
			{
				"x": -3.8889439677,
				"y": 2.8000566805,
				"z": -0.6460687411,
				"element": "C" 
			},
			{
				"x": -4.3335363806,
				"y": 1.5682572224,
				"z": -0.0967737462,
				"element": "C" 
			},
			{
				"x": -3.4184727325,
				"y": 0.6175654975,
				"z": 0.2873547192,
				"element": "C" 
			},
			{
				"x": -0.1851242724,
				"y": 2.3261420144,
				"z": -0.5571479125,
				"element": "C" 
			},
			{
				"x": 0.7517387422,
				"y": 1.3813485241,
				"z": -0.1761599423,
				"element": "C" 
			},
			{
				"x": 2.0560134914,
				"y": 1.6951679621,
				"z": -0.3536194442,
				"element": "O" 
			},
			{
				"x": 3.32054941,
				"y": -1.9172045738,
				"z": 2.1471464618,
				"element": "H" 
			},
			{
				"x": 3.2688498859,
				"y": -2.6264577466,
				"z": 0.5163791006,
				"element": "H" 
			},
			{
				"x": 4.4424056022,
				"y": -1.3175462126,
				"z": 0.8803541162,
				"element": "H" 
			},
			{
				"x": -1.3656950322,
				"y": -1.0476071168,
				"z": 0.9459958853,
				"element": "H" 
			},
			{
				"x": -2.2132128948,
				"y": 4.0041577731,
				"z": -1.2222738875,
				"element": "H" 
			},
			{
				"x": -4.6211834333,
				"y": 3.5443859334,
				"z": -0.9463490056,
				"element": "H" 
			},
			{
				"x": -5.3973693832,
				"y": 1.3834398821,
				"z": 0.0171961925,
				"element": "H" 
			},
			{
				"x": -3.7460198897,
				"y": -0.3291622363,
				"z": 0.7091040719,
				"element": "H" 
			},
			{
				"x": 0.1741621897,
				"y": 3.2613663846,
				"z": -0.9748654969,
				"element": "H" 
			},
			{
				"x": 2.597046027,
				"y": 0.9472076898,
				"z": -0.0454502228,
				"element": "H" 
			}
		],
		 "valence_orbital": [ 
			{
				"type": "occ",
				"energy": -0.30687,
				"method": "rhf"
			},
			{
				"type": "occ",
				"energy": -0.28732,
				"method": "rhf"
			},
			{
				"type": "occ",
				"energy": -0.28247,
				"method": "rhf"
			},
			{
				"type": "occ",
				"energy": -0.2401,
				"method": "rhf"
			},
			{
				"type": "occ",
				"energy": -0.20688,
				"method": "rhf"
			},
			{
				"type": "unocc",
				"energy": -0.06049,
				"method": "rhf"
			},
			{
				"type": "unocc",
				"energy": -0.01754,
				"method": "rhf"
			},
			{
				"type": "unocc",
				"energy": 0.023,
				"method": "rhf"
			},
			{
				"type": "unocc",
				"energy": 0.04294,
				"method": "rhf"
			},
			{
				"type": "unocc",
				"energy": 0.09167,
				"method": "rhf"
			}
		],
		"cosmo_sigma_profile": { 
			"-0.025": 0.0,
			"-0.024": 0.0,
			"-0.023": 0.0,
			"-0.022": 0.0,
			"-0.021": 0.0,
			"-0.02": 0.0,
			"-0.019": 0.0,
			"-0.018": 0.0,
			"-0.017": 0.0,
			"-0.016": 0.0,
			"-0.015": 0.0,
			"-0.014": 0.0,
			"-0.013": 0.0,
			"-0.012": 0.0,
			"-0.011": 0.0432964490824,
			"-0.01": 0.416720977705,
			"-0.009": 0.72284013537,
			"-0.008": 0.719995960549,
			"-0.007": 4.89821834617,
			"-0.006": 18.7477791191,
			"-0.005": 19.1519875328,
			"-0.004": 23.7696329015,
			"-0.003": 20.2893663633,
			"-0.002": 14.4412409861,
			"-0.001": 12.5737033178,
			"0.0": 11.9989880163,
			"0.001": 13.8099662526,
			"0.002": 17.983558431,
			"0.003": 22.0339847892,
			"0.004": 17.7295116195,
			"0.005": 10.0354766995,
			"0.006": 2.93669737138,
			"0.007": 2.95396284936,
			"0.008": 2.74975737577,
			"0.009": 2.97310902967,
			"0.01": 3.75070098401,
			"0.011": 6.06584049963,
			"0.012": 2.29335502878,
			"0.013": 0.0,
			"0.014": 0.0,
			"0.015": 0.0,
			"0.016": 0.0,
			"0.017": 0.0,
			"0.018": 0.0,
			"0.019": 0.0,
			"0.02": 0.0,
			"0.021": 0.0,
			"0.022": 0.0,
			"0.023": 0.0,
			"0.024": 0.0,
			"0.025": 0.0
		}
	}
}
