{
	 "smiles": "CCCCOCCCN", 
	 "Tm": 208.15, 
	 "num_atms": 26, 
	 "gaussian": { 
		 "optdone": 1, 
		 "sigma_profile": "yes", 
		 "theory": "DFT", 
		 "functional": "B3LYP", 
		 "basiset": "6-31G**", 
		 "properties": { 
			 "R2extent": 2420.6991, 
			 "electric_dipole_moment_norm": 1.13274656036, 
			 "electric_quadrupole_moment_norm": 5.67637368573, 
			 "total_energy": -406.964579848, 
			 "HOMO_LUMO_gap": 0.31079, 
			 "cosmo_polarized_energy": -6.73, 
			 "cosmo_cavitation_energy": 27.59, 
			 "cosmo_dispersion_energy": -19.73, 
			 "cosmo_repulsion_energy": 1.71, 
			 "cosmo_total_nonelectrostatic_energy": 9.58, 
			 "SMD_solvation_energy": 3.62 
		},
		"coords": [
			{
				"x": 2.0971304227,
				"y": -0.4709067318,
				"z": -3.6101461682,
				"element": "C" 
			},
			{
				"x": 1.466248786,
				"y": 0.2845155989,
				"z": -2.4367769833,
				"element": "C" 
			},
			{
				"x": 2.3737787297,
				"y": 0.3408606401,
				"z": -1.201577756,
				"element": "C" 
			},
			{
				"x": 1.7458790382,
				"y": 1.0635226434,
				"z": -0.0151422787,
				"element": "C" 
			},
			{
				"x": 0.5937168678,
				"y": 0.3517088475,
				"z": 0.3987659549,
				"element": "O" 
			},
			{
				"x": -0.0838029533,
				"y": 0.9587101682,
				"z": 1.4887625217,
				"element": "C" 
			},
			{
				"x": -1.227780828,
				"y": 0.0444354672,
				"z": 1.9104912981,
				"element": "C" 
			},
			{
				"x": -0.7488237255,
				"y": -1.2869197532,
				"z": 2.5016803535,
				"element": "C" 
			},
			{
				"x": -0.0309841102,
				"y": -1.0675121567,
				"z": 3.7635805289,
				"element": "N" 
			},
			{
				"x": 1.4287690858,
				"y": -0.4936931941,
				"z": -4.4772980151,
				"element": "H" 
			},
			{
				"x": 3.0366661534,
				"y": -0.0031806027,
				"z": -3.9275112141,
				"element": "H" 
			},
			{
				"x": 2.3223561112,
				"y": -1.5085487706,
				"z": -3.3378849691,
				"element": "H" 
			},
			{
				"x": 1.2205937397,
				"y": 1.3092956118,
				"z": -2.748690601,
				"element": "H" 
			},
			{
				"x": 0.51818927,
				"y": -0.1854448384,
				"z": -2.1536712349,
				"element": "H" 
			},
			{
				"x": 3.3166835288,
				"y": 0.8460442012,
				"z": -1.4518776248,
				"element": "H" 
			},
			{
				"x": 2.6366205689,
				"y": -0.6779936207,
				"z": -0.8881836298,
				"element": "H" 
			},
			{
				"x": 1.4742105884,
				"y": 2.0964459867,
				"z": -0.298837642,
				"element": "H" 
			},
			{
				"x": 2.4674046028,
				"y": 1.1365277468,
				"z": 0.8161612103,
				"element": "H" 
			},
			{
				"x": 0.6048552995,
				"y": 1.1038064748,
				"z": 2.3345373441,
				"element": "H" 
			},
			{
				"x": -0.4715573021,
				"y": 1.9477344782,
				"z": 1.1903706446,
				"element": "H" 
			},
			{
				"x": -1.8495230385,
				"y": 0.574229045,
				"z": 2.6454515109,
				"element": "H" 
			},
			{
				"x": -1.8640700923,
				"y": -0.1532296602,
				"z": 1.0394601308,
				"element": "H" 
			},
			{
				"x": -0.0519564663,
				"y": -1.74578554,
				"z": 1.7928459179,
				"element": "H" 
			},
			{
				"x": -1.6119646012,
				"y": -1.9692842861,
				"z": 2.5925237455,
				"element": "H" 
			},
			{
				"x": 0.4190358204,
				"y": -1.9274848482,
				"z": 4.0652678088,
				"element": "H" 
			},
			{
				"x": -0.690275496,
				"y": -0.817452907,
				"z": 4.4975991469,
				"element": "H" 
			}
		],
		 "valence_orbital": [ 
			{
				"type": "occ",
				"energy": -0.32152,
				"method": "rhf"
			},
			{
				"type": "occ",
				"energy": -0.31558,
				"method": "rhf"
			},
			{
				"type": "occ",
				"energy": -0.29962,
				"method": "rhf"
			},
			{
				"type": "occ",
				"energy": -0.24324,
				"method": "rhf"
			},
			{
				"type": "occ",
				"energy": -0.22799,
				"method": "rhf"
			},
			{
				"type": "unocc",
				"energy": 0.0828,
				"method": "rhf"
			},
			{
				"type": "unocc",
				"energy": 0.10205,
				"method": "rhf"
			},
			{
				"type": "unocc",
				"energy": 0.1134,
				"method": "rhf"
			},
			{
				"type": "unocc",
				"energy": 0.12794,
				"method": "rhf"
			},
			{
				"type": "unocc",
				"energy": 0.14023,
				"method": "rhf"
			}
		],
		"cosmo_sigma_profile": { 
			"-0.025": 0.0,
			"-0.024": 0.0,
			"-0.023": 0.0,
			"-0.022": 0.0,
			"-0.021": 0.0,
			"-0.02": 0.0,
			"-0.019": 0.0,
			"-0.018": 0.0,
			"-0.017": 0.0,
			"-0.016": 0.0,
			"-0.015": 0.0,
			"-0.014": 0.0,
			"-0.013": 0.0,
			"-0.012": 0.0,
			"-0.011": 0.0,
			"-0.01": 0.39800207556,
			"-0.009": 2.56055603591,
			"-0.008": 2.57188958998,
			"-0.007": 2.91706479246,
			"-0.006": 2.97702823863,
			"-0.005": 2.89380768532,
			"-0.004": 3.50489420195,
			"-0.003": 15.3095571884,
			"-0.002": 40.2043233079,
			"-0.001": 40.1511737355,
			"0.0": 32.2238533383,
			"0.001": 23.5496866433,
			"0.002": 10.4202178599,
			"0.003": 4.20923525371,
			"0.004": 3.82434986016,
			"0.005": 2.29693981201,
			"0.006": 3.2492347605,
			"0.007": 2.87550222801,
			"0.008": 4.05637106796,
			"0.009": 2.97194193725,
			"0.01": 2.20419849217,
			"0.011": 1.60349333078,
			"0.012": 1.14325074176,
			"0.013": 0.517470057696,
			"0.014": 0.835255860896,
			"0.015": 0.813992039894,
			"0.016": 0.37581223198,
			"0.017": 0.527419034196,
			"0.018": 0.180919421015,
			"0.019": 0.0,
			"0.02": 0.0,
			"0.021": 0.0,
			"0.022": 0.0,
			"0.023": 0.0,
			"0.024": 0.0,
			"0.025": 0.0
		}
	}
}
