{
	 "smiles": "COC1=CC=C(NS(=O)(=O)C2=CC(N)=C(C=C2)N2CCCCC2)C=C1", 
	 "Tm": 385.15, 
	 "num_atms": 48, 
	 "gaussian": { 
		 "optdone": 1, 
		 "sigma_profile": "yes", 
		 "theory": "DFT", 
		 "functional": "B3LYP", 
		 "basiset": "6-31G**", 
		 "properties": { 
			 "R2extent": 13754.4918, 
			 "electric_dipole_moment_norm": 8.18088355375, 
			 "electric_quadrupole_moment_norm": 41.9472707324, 
			 "total_energy": -1487.80911687, 
			 "HOMO_LUMO_gap": 0.17452, 
			 "cosmo_polarized_energy": -21.91, 
			 "cosmo_cavitation_energy": 50.52, 
			 "cosmo_dispersion_energy": -34.98, 
			 "cosmo_repulsion_energy": 2.65, 
			 "cosmo_total_nonelectrostatic_energy": 18.2, 
			 "SMD_solvation_energy": 7.19 
		},
		"coords": [
			{
				"x": -0.9340869571,
				"y": 4.8723494077,
				"z": -4.4854605458,
				"element": "C" 
			},
			{
				"x": 0.120422706,
				"y": 5.2698945342,
				"z": -3.6252821542,
				"element": "O" 
			},
			{
				"x": 1.0617940886,
				"y": 4.3401340084,
				"z": -3.2869554081,
				"element": "C" 
			},
			{
				"x": 2.0867205916,
				"y": 4.7899501167,
				"z": -2.4395729573,
				"element": "C" 
			},
			{
				"x": 3.1063360553,
				"y": 3.935065722,
				"z": -2.0468968982,
				"element": "C" 
			},
			{
				"x": 3.1042496699,
				"y": 2.5949818767,
				"z": -2.4689407862,
				"element": "C" 
			},
			{
				"x": 4.1703578065,
				"y": 1.7245671755,
				"z": -2.0966547914,
				"element": "N" 
			},
			{
				"x": 4.4558118737,
				"y": 1.2881121785,
				"z": -0.4731791527,
				"element": "S" 
			},
			{
				"x": 5.5507093552,
				"y": 0.3196351526,
				"z": -0.5583586488,
				"element": "O" 
			},
			{
				"x": 4.5697184974,
				"y": 2.53748761,
				"z": 0.280775719,
				"element": "O" 
			},
			{
				"x": 2.9941249665,
				"y": 0.4291802372,
				"z": 0.1032165935,
				"element": "C" 
			},
			{
				"x": 1.9265351537,
				"y": 1.1712167992,
				"z": 0.609670035,
				"element": "C" 
			},
			{
				"x": 0.7668212055,
				"y": 0.5175778975,
				"z": 1.0422381956,
				"element": "C" 
			},
			{
				"x": -0.3197921448,
				"y": 1.2222327854,
				"z": 1.5521140638,
				"element": "N" 
			},
			{
				"x": 0.6868517236,
				"y": -0.8995466888,
				"z": 0.947335168,
				"element": "C" 
			},
			{
				"x": 1.7805074106,
				"y": -1.6087968174,
				"z": 0.4363007635,
				"element": "C" 
			},
			{
				"x": 2.9426250201,
				"y": -0.9620454909,
				"z": 0.0157844001,
				"element": "C" 
			},
			{
				"x": -0.5144999184,
				"y": -1.5145664416,
				"z": 1.3979069897,
				"element": "N" 
			},
			{
				"x": -0.4146108578,
				"y": -2.8309298853,
				"z": 2.0641607949,
				"element": "C" 
			},
			{
				"x": -1.0070147797,
				"y": -3.9725638639,
				"z": 1.228644069,
				"element": "C" 
			},
			{
				"x": -2.510616145,
				"y": -3.7267020411,
				"z": 0.9598585966,
				"element": "C" 
			},
			{
				"x": -2.8340398229,
				"y": -2.2139590496,
				"z": 0.9154704562,
				"element": "C" 
			},
			{
				"x": -1.6322206796,
				"y": -1.4034808845,
				"z": 0.4293137842,
				"element": "C" 
			},
			{
				"x": 2.0760036477,
				"y": 2.1464212834,
				"z": -3.3004862006,
				"element": "C" 
			},
			{
				"x": 1.0650381155,
				"y": 3.0121475796,
				"z": -3.7263231514,
				"element": "C" 
			},
			{
				"x": -1.5389480504,
				"y": 4.070058762,
				"z": -4.0426673804,
				"element": "H" 
			},
			{
				"x": -1.5591547923,
				"y": 5.7556270699,
				"z": -4.6258555266,
				"element": "H" 
			},
			{
				"x": -0.5580517451,
				"y": 4.5388331533,
				"z": -5.4616331329,
				"element": "H" 
			},
			{
				"x": 2.0736090618,
				"y": 5.8263868724,
				"z": -2.1186132998,
				"element": "H" 
			},
			{
				"x": 3.9091781659,
				"y": 4.2868445843,
				"z": -1.4102071242,
				"element": "H" 
			},
			{
				"x": 4.2681005055,
				"y": 0.8987711629,
				"z": -2.6794697769,
				"element": "H" 
			},
			{
				"x": 2.0149176405,
				"y": 2.2482876962,
				"z": 0.7053569002,
				"element": "H" 
			},
			{
				"x": -0.8720764866,
				"y": 0.6561091346,
				"z": 2.1880392793,
				"element": "H" 
			},
			{
				"x": -0.0972553661,
				"y": 2.1361167186,
				"z": 1.9232831371,
				"element": "H" 
			},
			{
				"x": 1.7251148276,
				"y": -2.6908490623,
				"z": 0.3675403372,
				"element": "H" 
			},
			{
				"x": 3.7941098467,
				"y": -1.5185479569,
				"z": -0.3580100013,
				"element": "H" 
			},
			{
				"x": -0.9497792074,
				"y": -2.7805184919,
				"z": 3.0236618072,
				"element": "H" 
			},
			{
				"x": 0.6329414257,
				"y": -3.020338334,
				"z": 2.3094854916,
				"element": "H" 
			},
			{
				"x": -0.4615937942,
				"y": -4.0433382156,
				"z": 0.2798091621,
				"element": "H" 
			},
			{
				"x": -0.8566861072,
				"y": -4.9267434798,
				"z": 1.7457735887,
				"element": "H" 
			},
			{
				"x": -3.1153153577,
				"y": -4.205767713,
				"z": 1.7381522113,
				"element": "H" 
			},
			{
				"x": -2.7944672945,
				"y": -4.2001683137,
				"z": 0.0132350109,
				"element": "H" 
			},
			{
				"x": -3.6919260924,
				"y": -2.02097921,
				"z": 0.2629094003,
				"element": "H" 
			},
			{
				"x": -3.1144499339,
				"y": -1.8551174149,
				"z": 1.913330759,
				"element": "H" 
			},
			{
				"x": -1.8891659898,
				"y": -0.3456176256,
				"z": 0.3152433379,
				"element": "H" 
			},
			{
				"x": -1.3248273533,
				"y": -1.7657219234,
				"z": -0.5669306121,
				"element": "H" 
			},
			{
				"x": 2.0604243587,
				"y": 1.1095567041,
				"z": -3.6268423391,
				"element": "H" 
			},
			{
				"x": 0.2887551565,
				"y": 2.6357526812,
				"z": -4.3815701638,
				"element": "H" 
			}
		],
		 "valence_orbital": [ 
			{
				"type": "occ",
				"energy": -0.26358,
				"method": "rhf"
			},
			{
				"type": "occ",
				"energy": -0.2531,
				"method": "rhf"
			},
			{
				"type": "occ",
				"energy": -0.2251,
				"method": "rhf"
			},
			{
				"type": "occ",
				"energy": -0.21132,
				"method": "rhf"
			},
			{
				"type": "occ",
				"energy": -0.20072,
				"method": "rhf"
			},
			{
				"type": "unocc",
				"energy": -0.0262,
				"method": "rhf"
			},
			{
				"type": "unocc",
				"energy": -0.00488,
				"method": "rhf"
			},
			{
				"type": "unocc",
				"energy": 0.00163,
				"method": "rhf"
			},
			{
				"type": "unocc",
				"energy": 0.00839,
				"method": "rhf"
			},
			{
				"type": "unocc",
				"energy": 0.06558,
				"method": "rhf"
			}
		],
		"cosmo_sigma_profile": { 
			"-0.025": 0.0,
			"-0.024": 0.0,
			"-0.023": 0.0,
			"-0.022": 0.0,
			"-0.021": 0.0,
			"-0.02": 0.0,
			"-0.019": 0.0,
			"-0.018": 0.0,
			"-0.017": 0.0,
			"-0.016": 0.0,
			"-0.015": 0.883318188075,
			"-0.014": 0.874622275295,
			"-0.013": 1.59990835037,
			"-0.012": 2.80975667394,
			"-0.011": 2.98044982344,
			"-0.01": 3.31582064041,
			"-0.009": 4.56685473753,
			"-0.008": 3.29314638427,
			"-0.007": 5.0068683818,
			"-0.006": 14.4402342959,
			"-0.005": 23.3385483344,
			"-0.004": 25.0079148028,
			"-0.003": 32.1772007879,
			"-0.002": 43.2381528176,
			"-0.001": 41.6342542102,
			"0.0": 30.8302605155,
			"0.001": 23.9231383482,
			"0.002": 19.1616921336,
			"0.003": 24.6913451122,
			"0.004": 29.8339194229,
			"0.005": 15.1986788401,
			"0.006": 7.20135281984,
			"0.007": 7.02355050401,
			"0.008": 6.47462120533,
			"0.009": 6.47339310684,
			"0.01": 7.42836713935,
			"0.011": 9.77123269219,
			"0.012": 4.56743938018,
			"0.013": 0.341156815769,
			"0.014": 0.0,
			"0.015": 0.0,
			"0.016": 0.0,
			"0.017": 0.0,
			"0.018": 0.0,
			"0.019": 0.0,
			"0.02": 0.0,
			"0.021": 0.0,
			"0.022": 0.0,
			"0.023": 0.0,
			"0.024": 0.0,
			"0.025": 0.0
		}
	}
}
