{
	 "smiles": "CC(C)(C)C1=NC2=C(S1)C=C(C=C2)S(Cl)(=O)=O", 
	 "Tm": 396.15, 
	 "num_atms": 29, 
	 "gaussian": { 
		 "optdone": 1, 
		 "sigma_profile": "yes", 
		 "theory": "DFT", 
		 "functional": "B3LYP", 
		 "basiset": "6-31G**", 
		 "properties": { 
			 "R2extent": 9062.2596, 
			 "electric_dipole_moment_norm": 6.58248025443, 
			 "electric_quadrupole_moment_norm": 24.4201661217, 
			 "total_energy": -1888.12559701, 
			 "HOMO_LUMO_gap": 0.1718, 
			 "cosmo_polarized_energy": -10.03, 
			 "cosmo_cavitation_energy": 37.06, 
			 "cosmo_dispersion_energy": -27.34, 
			 "cosmo_repulsion_energy": 2.03, 
			 "cosmo_total_nonelectrostatic_energy": 11.75, 
			 "SMD_solvation_energy": 3.28 
		},
		"coords": [
			{
				"x": -3.1522671818,
				"y": -2.2764115125,
				"z": -0.8142717252,
				"element": "C" 
			},
			{
				"x": -2.6252533258,
				"y": -0.8218237452,
				"z": -0.8251471326,
				"element": "C" 
			},
			{
				"x": -3.3354285547,
				"y": -0.0053214263,
				"z": 0.2806105859,
				"element": "C" 
			},
			{
				"x": -2.9026569433,
				"y": -0.1821131314,
				"z": -2.1981832173,
				"element": "C" 
			},
			{
				"x": -1.1276943584,
				"y": -0.824878178,
				"z": -0.5687133374,
				"element": "C" 
			},
			{
				"x": -0.2363570794,
				"y": -0.3585712892,
				"z": -1.3837725966,
				"element": "N" 
			},
			{
				"x": 1.0450353679,
				"y": -0.4940926259,
				"z": -0.8841624315,
				"element": "C" 
			},
			{
				"x": 1.134022965,
				"y": -1.1018338905,
				"z": 0.3948181568,
				"element": "C" 
			},
			{
				"x": -0.4703236554,
				"y": -1.5060522366,
				"z": 0.9557286605,
				"element": "S" 
			},
			{
				"x": 2.3623801352,
				"y": -1.3042530795,
				"z": 1.0205366191,
				"element": "C" 
			},
			{
				"x": 3.4936641507,
				"y": -0.8821516586,
				"z": 0.324984475,
				"element": "C" 
			},
			{
				"x": 3.4428317533,
				"y": -0.2780222831,
				"z": -0.9425676692,
				"element": "C" 
			},
			{
				"x": 2.2108474596,
				"y": -0.0844264896,
				"z": -1.5499103037,
				"element": "C" 
			},
			{
				"x": 5.0861718479,
				"y": -1.135710469,
				"z": 1.0863385158,
				"element": "S" 
			},
			{
				"x": 5.3757258647,
				"y": 0.7238172466,
				"z": 2.0999741754,
				"element": "Cl" 
			},
			{
				"x": 6.1144696672,
				"y": -1.1933666426,
				"z": 0.0550450926,
				"element": "O" 
			},
			{
				"x": 4.9701759735,
				"y": -2.1474872584,
				"z": 2.1296573825,
				"element": "O" 
			},
			{
				"x": -4.2273698671,
				"y": -2.2794039043,
				"z": -1.0205687154,
				"element": "H" 
			},
			{
				"x": -2.6567270194,
				"y": -2.8816465632,
				"z": -1.5795587978,
				"element": "H" 
			},
			{
				"x": -2.9962055895,
				"y": -2.7597717943,
				"z": 0.1553196336,
				"element": "H" 
			},
			{
				"x": -2.9721931284,
				"y": 1.0266780757,
				"z": 0.3043134195,
				"element": "H" 
			},
			{
				"x": -3.1829224818,
				"y": -0.4424162775,
				"z": 1.2724650378,
				"element": "H" 
			},
			{
				"x": -4.4125890768,
				"y": 0.0168299032,
				"z": 0.086556794,
				"element": "H" 
			},
			{
				"x": -2.5390721988,
				"y": 0.8476143635,
				"z": -2.2367091879,
				"element": "H" 
			},
			{
				"x": -2.411232121,
				"y": -0.7371340475,
				"z": -3.0009736996,
				"element": "H" 
			},
			{
				"x": -3.9811708634,
				"y": -0.178705657,
				"z": -2.3856774987,
				"element": "H" 
			},
			{
				"x": 2.4535328053,
				"y": -1.7734013901,
				"z": 1.9931859443,
				"element": "H" 
			},
			{
				"x": 4.3620108151,
				"y": 0.0180107296,
				"z": -1.4344653669,
				"element": "H" 
			},
			{
				"x": 2.1308946396,
				"y": 0.3725452318,
				"z": -2.5300528133,
				"element": "H" 
			}
		],
		 "valence_orbital": [ 
			{
				"type": "occ",
				"energy": -0.32642,
				"method": "rhf"
			},
			{
				"type": "occ",
				"energy": -0.311,
				"method": "rhf"
			},
			{
				"type": "occ",
				"energy": -0.29445,
				"method": "rhf"
			},
			{
				"type": "occ",
				"energy": -0.26877,
				"method": "rhf"
			},
			{
				"type": "occ",
				"energy": -0.26305,
				"method": "rhf"
			},
			{
				"type": "unocc",
				"energy": -0.09125,
				"method": "rhf"
			},
			{
				"type": "unocc",
				"energy": -0.05704,
				"method": "rhf"
			},
			{
				"type": "unocc",
				"energy": -0.03699,
				"method": "rhf"
			},
			{
				"type": "unocc",
				"energy": -0.00979,
				"method": "rhf"
			},
			{
				"type": "unocc",
				"energy": -0.00097,
				"method": "rhf"
			}
		],
		"cosmo_sigma_profile": { 
			"-0.025": 0.0,
			"-0.024": 0.0,
			"-0.023": 0.0,
			"-0.022": 0.0,
			"-0.021": 0.0,
			"-0.02": 0.0,
			"-0.019": 0.0,
			"-0.018": 0.0,
			"-0.017": 0.0,
			"-0.016": 0.0,
			"-0.015": 0.0,
			"-0.014": 0.0,
			"-0.013": 0.0,
			"-0.012": 0.0,
			"-0.011": 0.0,
			"-0.01": 0.760496210115,
			"-0.009": 2.1286757878,
			"-0.008": 4.53924208814,
			"-0.007": 5.39514404919,
			"-0.006": 7.09205307943,
			"-0.005": 8.55555430556,
			"-0.004": 19.3329710386,
			"-0.003": 27.1205837148,
			"-0.002": 29.4352411878,
			"-0.001": 34.6636845148,
			"0.0": 46.5792436733,
			"0.001": 30.3261351091,
			"0.002": 16.5489577018,
			"0.003": 18.3322763195,
			"0.004": 13.2106812278,
			"0.005": 3.95246842782,
			"0.006": 5.05747580812,
			"0.007": 6.94679887988,
			"0.008": 11.2790809878,
			"0.009": 5.28352826654,
			"0.01": 1.1748870714,
			"0.011": 0.571838125748,
			"0.012": 0.739303484182,
			"0.013": 0.155220212877,
			"0.014": 0.0,
			"0.015": 0.0,
			"0.016": 0.0,
			"0.017": 0.0,
			"0.018": 0.0,
			"0.019": 0.0,
			"0.02": 0.0,
			"0.021": 0.0,
			"0.022": 0.0,
			"0.023": 0.0,
			"0.024": 0.0,
			"0.025": 0.0
		}
	}
}
