{
	 "smiles": "OCCC#N", 
	 "Tm": 227.15, 
	 "num_atms": 10, 
	 "gaussian": { 
		 "optdone": 1, 
		 "sigma_profile": "yes", 
		 "theory": "DFT", 
		 "functional": "B3LYP", 
		 "basiset": "6-31G**", 
		 "properties": { 
			 "R2extent": 1806.6491, 
			 "electric_dipole_moment_norm": 4.82199535151, 
			 "electric_quadrupole_moment_norm": 17.0866795028, 
			 "total_energy": -247.275469025, 
			 "HOMO_LUMO_gap": 0.3152, 
			 "cosmo_polarized_energy": -14.79, 
			 "cosmo_cavitation_energy": 14.58, 
			 "cosmo_dispersion_energy": -10.28, 
			 "cosmo_repulsion_energy": 0.95, 
			 "cosmo_total_nonelectrostatic_energy": 5.25, 
			 "SMD_solvation_energy": 4.24 
		},
		"coords": [
			{
				"x": 3.431145275,
				"y": 1.0751524119,
				"z": 1.2924962926,
				"element": "O" 
			},
			{
				"x": 2.7960487814,
				"y": 0.1782248476,
				"z": 2.1764218234,
				"element": "C" 
			},
			{
				"x": 1.2719043415,
				"y": 0.3988079811,
				"z": 2.2788347289,
				"element": "C" 
			},
			{
				"x": 0.9141385045,
				"y": 1.7500224105,
				"z": 2.7171940825,
				"element": "C" 
			},
			{
				"x": 0.6278833625,
				"y": 2.8160764748,
				"z": 3.0748060709,
				"element": "N" 
			},
			{
				"x": 3.1276810326,
				"y": 0.8924360972,
				"z": 0.3936749524,
				"element": "H" 
			},
			{
				"x": 3.2545399217,
				"y": 0.3423462998,
				"z": 3.1554705326,
				"element": "H" 
			},
			{
				"x": 2.9675021993,
				"y": -0.8735101884,
				"z": 1.9002552374,
				"element": "H" 
			},
			{
				"x": 0.8423948842,
				"y": -0.3252515231,
				"z": 2.9822117388,
				"element": "H" 
			},
			{
				"x": 0.7987616973,
				"y": 0.2114951886,
				"z": 1.3063345404,
				"element": "H" 
			}
		],
		 "valence_orbital": [ 
			{
				"type": "occ",
				"energy": -0.35748,
				"method": "rhf"
			},
			{
				"type": "occ",
				"energy": -0.35073,
				"method": "rhf"
			},
			{
				"type": "occ",
				"energy": -0.32668,
				"method": "rhf"
			},
			{
				"type": "occ",
				"energy": -0.32266,
				"method": "rhf"
			},
			{
				"type": "occ",
				"energy": -0.29004,
				"method": "rhf"
			},
			{
				"type": "unocc",
				"energy": 0.02516,
				"method": "rhf"
			},
			{
				"type": "unocc",
				"energy": 0.0383,
				"method": "rhf"
			},
			{
				"type": "unocc",
				"energy": 0.07053,
				"method": "rhf"
			},
			{
				"type": "unocc",
				"energy": 0.10231,
				"method": "rhf"
			},
			{
				"type": "unocc",
				"energy": 0.12114,
				"method": "rhf"
			}
		],
		"cosmo_sigma_profile": { 
			"-0.025": 0.0,
			"-0.024": 0.0,
			"-0.023": 0.0,
			"-0.022": 0.0,
			"-0.021": 0.0,
			"-0.02": 0.0,
			"-0.019": 0.0,
			"-0.018": 0.0,
			"-0.017": 0.0757317403345,
			"-0.016": 1.27708388477,
			"-0.015": 0.939462307803,
			"-0.014": 1.31491719713,
			"-0.013": 1.35650903925,
			"-0.012": 1.2326441076,
			"-0.011": 1.08422464514,
			"-0.01": 1.06483595682,
			"-0.009": 2.73569334786,
			"-0.008": 6.51334263934,
			"-0.007": 6.90656428687,
			"-0.006": 11.7470825703,
			"-0.005": 10.2267429244,
			"-0.004": 5.8923006591,
			"-0.003": 4.02843770261,
			"-0.002": 3.7364037546,
			"-0.001": 3.15615298707,
			"0.0": 1.92483565296,
			"0.001": 2.68037845564,
			"0.002": 1.82761010199,
			"0.003": 1.9647127696,
			"0.004": 3.48858434388,
			"0.005": 2.84646139595,
			"0.006": 4.31521531313,
			"0.007": 4.17313237729,
			"0.008": 5.18016563025,
			"0.009": 4.86275630881,
			"0.01": 5.02444899534,
			"0.011": 4.49686705371,
			"0.012": 3.59583430473,
			"0.013": 4.32971555914,
			"0.014": 1.49229863747,
			"0.015": 0.0,
			"0.016": 0.0,
			"0.017": 0.0,
			"0.018": 0.0,
			"0.019": 0.0,
			"0.02": 0.0,
			"0.021": 0.0,
			"0.022": 0.0,
			"0.023": 0.0,
			"0.024": 0.0,
			"0.025": 0.0
		}
	}
}
