{
	 "smiles": "BrC1=CC=CC(=C1)C1=CN=CO1", 
	 "Tm": 333.15, 
	 "num_atms": 18, 
	 "gaussian": { 
		 "optdone": 1, 
		 "sigma_profile": "yes", 
		 "theory": "DFT", 
		 "functional": "B3LYP", 
		 "basiset": "6-31G**", 
		 "properties": { 
			 "R2extent": 5713.87, 
			 "electric_dipole_moment_norm": 1.16912309018, 
			 "electric_quadrupole_moment_norm": 11.3604056261, 
			 "total_energy": -3047.93664733, 
			 "HOMO_LUMO_gap": 0.17789, 
			 "cosmo_polarized_energy": -7.82, 
			 "cosmo_cavitation_energy": 25.33, 
			 "cosmo_dispersion_energy": -19.18, 
			 "cosmo_repulsion_energy": 1.5, 
			 "cosmo_total_nonelectrostatic_energy": 7.65, 
			 "SMD_solvation_energy": 2.51 
		},
		"coords": [
			{
				"x": 3.9470318278,
				"y": -3.5358415541,
				"z": -0.020930744,
				"element": "Br" 
			},
			{
				"x": 3.0137358646,
				"y": -1.8927395787,
				"z": 0.2699362483,
				"element": "C" 
			},
			{
				"x": 3.7282014897,
				"y": -0.6961768213,
				"z": 0.2761116437,
				"element": "C" 
			},
			{
				"x": 3.0311410013,
				"y": 0.4953850583,
				"z": 0.4898853674,
				"element": "C" 
			},
			{
				"x": 1.6548677421,
				"y": 0.4897909116,
				"z": 0.6922204125,
				"element": "C" 
			},
			{
				"x": 0.9420245646,
				"y": -0.7224855525,
				"z": 0.6843343456,
				"element": "C" 
			},
			{
				"x": 1.6375908264,
				"y": -1.9246047787,
				"z": 0.4698263671,
				"element": "C" 
			},
			{
				"x": -0.4988000721,
				"y": -0.7315228498,
				"z": 0.8957859456,
				"element": "C" 
			},
			{
				"x": -1.4517211211,
				"y": 0.2226027752,
				"z": 1.125160398,
				"element": "C" 
			},
			{
				"x": -2.695526585,
				"y": -0.373653917,
				"z": 1.2526364113,
				"element": "N" 
			},
			{
				"x": -2.4562745531,
				"y": -1.6374435908,
				"z": 1.0995549358,
				"element": "C" 
			},
			{
				"x": -1.1541981429,
				"y": -1.9434304174,
				"z": 0.8792281198,
				"element": "O" 
			},
			{
				"x": 4.8002198659,
				"y": -0.6960291446,
				"z": 0.1180753212,
				"element": "H" 
			},
			{
				"x": 3.5733018281,
				"y": 1.4361786116,
				"z": 0.4976149249,
				"element": "H" 
			},
			{
				"x": 1.1306149892,
				"y": 1.4254879466,
				"z": 0.8566613217,
				"element": "H" 
			},
			{
				"x": 1.1045429892,
				"y": -2.8668220592,
				"z": 0.4606409685,
				"element": "H" 
			},
			{
				"x": -1.3297157975,
				"y": 1.2925511496,
				"z": 1.2070068161,
				"element": "H" 
			},
			{
				"x": -3.1527367172,
				"y": -2.4624461887,
				"z": 1.1251511966,
				"element": "H" 
			}
		],
		 "valence_orbital": [ 
			{
				"type": "occ",
				"energy": -0.29683,
				"method": "rhf"
			},
			{
				"type": "occ",
				"energy": -0.29404,
				"method": "rhf"
			},
			{
				"type": "occ",
				"energy": -0.29031,
				"method": "rhf"
			},
			{
				"type": "occ",
				"energy": -0.25353,
				"method": "rhf"
			},
			{
				"type": "occ",
				"energy": -0.22891,
				"method": "rhf"
			},
			{
				"type": "unocc",
				"energy": -0.05102,
				"method": "rhf"
			},
			{
				"type": "unocc",
				"energy": -0.02152,
				"method": "rhf"
			},
			{
				"type": "unocc",
				"energy": 0.00311,
				"method": "rhf"
			},
			{
				"type": "unocc",
				"energy": 0.01612,
				"method": "rhf"
			},
			{
				"type": "unocc",
				"energy": 0.06364,
				"method": "rhf"
			}
		],
		"cosmo_sigma_profile": { 
			"-0.025": 0.0,
			"-0.024": 0.0,
			"-0.023": 0.0,
			"-0.022": 0.0,
			"-0.021": 0.0,
			"-0.02": 0.0,
			"-0.019": 0.0,
			"-0.018": 0.0,
			"-0.017": 0.0,
			"-0.016": 0.0,
			"-0.015": 0.0,
			"-0.014": 0.0,
			"-0.013": 0.0,
			"-0.012": 0.00111262457636,
			"-0.011": 1.3921293029,
			"-0.01": 2.0196360209,
			"-0.009": 3.31403223068,
			"-0.008": 4.72329704321,
			"-0.007": 7.35270266608,
			"-0.006": 10.7301972509,
			"-0.005": 8.98747151478,
			"-0.004": 9.3054994663,
			"-0.003": 11.2808011746,
			"-0.002": 10.6288764102,
			"-0.001": 15.2115060685,
			"0.0": 18.633327989,
			"0.001": 21.184660731,
			"0.002": 25.2042274634,
			"0.003": 21.6671531594,
			"0.004": 17.439887705,
			"0.005": 6.64039269477,
			"0.006": 1.68926613525,
			"0.007": 1.62357162206,
			"0.008": 1.02065109003,
			"0.009": 1.3441301971,
			"0.01": 1.28197956696,
			"0.011": 0.884840587693,
			"0.012": 1.22635169044,
			"0.013": 0.91251932939,
			"0.014": 1.24995715248,
			"0.015": 1.00181047016,
			"0.016": 0.348739703266,
			"0.017": 0.0,
			"0.018": 0.0,
			"0.019": 0.0,
			"0.02": 0.0,
			"0.021": 0.0,
			"0.022": 0.0,
			"0.023": 0.0,
			"0.024": 0.0,
			"0.025": 0.0
		}
	}
}
