{
	 "smiles": "CC1=C(F)C=C(C(F)=C1)S(N)(=O)=O", 
	 "Tm": 406.15, 
	 "num_atms": 20, 
	 "gaussian": { 
		 "optdone": 1, 
		 "sigma_profile": "yes", 
		 "theory": "DFT", 
		 "functional": "B3LYP", 
		 "basiset": "6-31G**", 
		 "properties": { 
			 "R2extent": 4586.8759, 
			 "electric_dipole_moment_norm": 6.23587499313, 
			 "electric_quadrupole_moment_norm": 24.7350198257, 
			 "total_energy": -1073.95134695, 
			 "HOMO_LUMO_gap": 0.21082, 
			 "cosmo_polarized_energy": -16.73, 
			 "cosmo_cavitation_energy": 26.43, 
			 "cosmo_dispersion_energy": -19.74, 
			 "cosmo_repulsion_energy": 1.47, 
			 "cosmo_total_nonelectrostatic_energy": 8.16, 
			 "SMD_solvation_energy": 5.02 
		},
		"coords": [
			{
				"x": 0.1716240746,
				"y": -0.4719433785,
				"z": -2.2810210964,
				"element": "C" 
			},
			{
				"x": -0.093237005,
				"y": 0.4448329464,
				"z": -1.1167243007,
				"element": "C" 
			},
			{
				"x": 0.067289083,
				"y": -0.0170978325,
				"z": 0.1946393419,
				"element": "C" 
			},
			{
				"x": 0.4592101195,
				"y": -1.2965935011,
				"z": 0.3723130762,
				"element": "F" 
			},
			{
				"x": -0.1576507116,
				"y": 0.7730210639,
				"z": 1.3116876394,
				"element": "C" 
			},
			{
				"x": -0.563554539,
				"y": 2.096133371,
				"z": 1.12601446,
				"element": "C" 
			},
			{
				"x": -0.7299989979,
				"y": 2.5749164781,
				"z": -0.1715291056,
				"element": "C" 
			},
			{
				"x": -1.1465400053,
				"y": 3.8488156347,
				"z": -0.3602437304,
				"element": "F" 
			},
			{
				"x": -0.5065245666,
				"y": 1.7715460773,
				"z": -1.2813004599,
				"element": "C" 
			},
			{
				"x": -0.7902448224,
				"y": 3.1615081765,
				"z": 2.561093763,
				"element": "S" 
			},
			{
				"x": -2.318681028,
				"y": 3.824729511,
				"z": 2.40985549,
				"element": "N" 
			},
			{
				"x": 0.1559796394,
				"y": 4.2653317838,
				"z": 2.4484443738,
				"element": "O" 
			},
			{
				"x": -0.8361457123,
				"y": 2.2791543945,
				"z": 3.7251085291,
				"element": "O" 
			},
			{
				"x": 1.2072369532,
				"y": -0.8275255876,
				"z": -2.2706246041,
				"element": "H" 
			},
			{
				"x": -0.0087465313,
				"y": 0.0359156845,
				"z": -3.2307453789,
				"element": "H" 
			},
			{
				"x": -0.468160587,
				"y": -1.3593623643,
				"z": -2.2353604764,
				"element": "H" 
			},
			{
				"x": -0.0245395873,
				"y": 0.3773801136,
				"z": 2.3118279873,
				"element": "H" 
			},
			{
				"x": -0.6549888585,
				"y": 2.1893951686,
				"z": -2.2715239127,
				"element": "H" 
			},
			{
				"x": -2.4121625141,
				"y": 4.3833478342,
				"z": 1.5667424145,
				"element": "H" 
			},
			{
				"x": -3.0553644033,
				"y": 3.1355944258,
				"z": 2.5238459899,
				"element": "H" 
			}
		],
		 "valence_orbital": [ 
			{
				"type": "occ",
				"energy": -0.32223,
				"method": "rhf"
			},
			{
				"type": "occ",
				"energy": -0.31129,
				"method": "rhf"
			},
			{
				"type": "occ",
				"energy": -0.30713,
				"method": "rhf"
			},
			{
				"type": "occ",
				"energy": -0.28199,
				"method": "rhf"
			},
			{
				"type": "occ",
				"energy": -0.26047,
				"method": "rhf"
			},
			{
				"type": "unocc",
				"energy": -0.04965,
				"method": "rhf"
			},
			{
				"type": "unocc",
				"energy": -0.02456,
				"method": "rhf"
			},
			{
				"type": "unocc",
				"energy": 0.04322,
				"method": "rhf"
			},
			{
				"type": "unocc",
				"energy": 0.05744,
				"method": "rhf"
			},
			{
				"type": "unocc",
				"energy": 0.07827,
				"method": "rhf"
			}
		],
		"cosmo_sigma_profile": { 
			"-0.025": 0.0,
			"-0.024": 0.0,
			"-0.023": 0.0,
			"-0.022": 0.0,
			"-0.021": 0.0,
			"-0.02": 0.0,
			"-0.019": 0.0,
			"-0.018": 0.0,
			"-0.017": 0.0,
			"-0.016": 0.665510076819,
			"-0.015": 1.2988592419,
			"-0.014": 2.08453191264,
			"-0.013": 2.94369498741,
			"-0.012": 2.50347934492,
			"-0.011": 1.54811070604,
			"-0.01": 1.84828838958,
			"-0.009": 2.22563940583,
			"-0.008": 5.69093032101,
			"-0.007": 5.43622049996,
			"-0.006": 7.20888997175,
			"-0.005": 9.02642395576,
			"-0.004": 10.4466984927,
			"-0.003": 12.7032706826,
			"-0.002": 15.8662040115,
			"-0.001": 24.5261237875,
			"0.0": 19.7062609101,
			"0.001": 10.8764999401,
			"0.002": 8.20603205948,
			"0.003": 12.6237606999,
			"0.004": 11.1674101101,
			"0.005": 3.39847963839,
			"0.006": 4.10078251598,
			"0.007": 4.93925127149,
			"0.008": 3.58327160151,
			"0.009": 5.39577430354,
			"0.01": 10.6617043696,
			"0.011": 9.30059518136,
			"0.012": 1.23056267172,
			"0.013": 0.0458483238262,
			"0.014": 0.0,
			"0.015": 0.0,
			"0.016": 0.0,
			"0.017": 0.0,
			"0.018": 0.0,
			"0.019": 0.0,
			"0.02": 0.0,
			"0.021": 0.0,
			"0.022": 0.0,
			"0.023": 0.0,
			"0.024": 0.0,
			"0.025": 0.0
		}
	}
}
