{
	 "smiles": "OP1(=O)OC2=CC=C3C=CC=CC3=C2C2=C(O1)C=CC1=C2C=CC=C1", 
	 "Tm": 593.15, 
	 "num_atms": 38, 
	 "gaussian": { 
		 "optdone": 1, 
		 "sigma_profile": "yes", 
		 "theory": "DFT", 
		 "functional": "B3LYP", 
		 "basiset": "6-31G**", 
		 "properties": { 
			 "R2extent": 8583.725, 
			 "electric_dipole_moment_norm": 6.25476357107, 
			 "electric_quadrupole_moment_norm": 32.4619613412, 
			 "total_energy": -1412.30774824, 
			 "HOMO_LUMO_gap": 0.15805, 
			 "cosmo_polarized_energy": -18.35, 
			 "cosmo_cavitation_energy": 42.35, 
			 "cosmo_dispersion_energy": -30.28, 
			 "cosmo_repulsion_energy": 2.22, 
			 "cosmo_total_nonelectrostatic_energy": 14.29, 
			 "SMD_solvation_energy": 8.69 
		},
		"coords": [
			{
				"x": 4.4916933507,
				"y": -1.7157588267,
				"z": 0.3042190828,
				"element": "O" 
			},
			{
				"x": 3.537322803,
				"y": -1.9915204966,
				"z": -0.9577371965,
				"element": "P" 
			},
			{
				"x": 4.1563420121,
				"y": -2.7638386186,
				"z": -2.040121392,
				"element": "O" 
			},
			{
				"x": 2.1812891461,
				"y": -2.6955502437,
				"z": -0.3936765648,
				"element": "O" 
			},
			{
				"x": 1.4041402793,
				"y": -2.004987966,
				"z": 0.536852748,
				"element": "C" 
			},
			{
				"x": 1.4226845583,
				"y": -2.4883188094,
				"z": 1.863066967,
				"element": "C" 
			},
			{
				"x": 0.6774868916,
				"y": -1.8509449576,
				"z": 2.82376525,
				"element": "C" 
			},
			{
				"x": -0.071301201,
				"y": -0.6867791005,
				"z": 2.5054164654,
				"element": "C" 
			},
			{
				"x": -0.7876503913,
				"y": 0.0201822107,
				"z": 3.5088424293,
				"element": "C" 
			},
			{
				"x": -1.4642703843,
				"y": 1.1802531258,
				"z": 3.2122063601,
				"element": "C" 
			},
			{
				"x": -1.4419643941,
				"y": 1.687173393,
				"z": 1.89174007,
				"element": "C" 
			},
			{
				"x": -0.7709698508,
				"y": 1.0180562721,
				"z": 0.8921185122,
				"element": "C" 
			},
			{
				"x": -0.0810801489,
				"y": -0.198489731,
				"z": 1.1552419523,
				"element": "C" 
			},
			{
				"x": 0.6373320232,
				"y": -0.9202647576,
				"z": 0.1363416768,
				"element": "C" 
			},
			{
				"x": 0.6297942254,
				"y": -0.5173844712,
				"z": -1.2983236912,
				"element": "C" 
			},
			{
				"x": 1.8330186362,
				"y": -0.2937084213,
				"z": -1.9486819563,
				"element": "C" 
			},
			{
				"x": 3.0361511157,
				"y": -0.4642861532,
				"z": -1.25507475,
				"element": "O" 
			},
			{
				"x": 1.9216156352,
				"y": 0.1427560751,
				"z": -3.2860668661,
				"element": "C" 
			},
			{
				"x": 0.7690056567,
				"y": 0.3344939628,
				"z": -4.0058177402,
				"element": "C" 
			},
			{
				"x": -0.4998284657,
				"y": 0.0540111655,
				"z": -3.4323822817,
				"element": "C" 
			},
			{
				"x": -0.578891859,
				"y": -0.3973107746,
				"z": -2.0719759238,
				"element": "C" 
			},
			{
				"x": -1.8582510845,
				"y": -0.7527786437,
				"z": -1.5609218235,
				"element": "C" 
			},
			{
				"x": -2.992611491,
				"y": -0.6307772709,
				"z": -2.3327248269,
				"element": "C" 
			},
			{
				"x": -2.9153407467,
				"y": -0.1461832231,
				"z": -3.6593094086,
				"element": "C" 
			},
			{
				"x": -1.6920169112,
				"y": 0.1829836143,
				"z": -4.1948568959,
				"element": "C" 
			},
			{
				"x": 4.1878986302,
				"y": -0.9742485478,
				"z": 0.8473832964,
				"element": "H" 
			},
			{
				"x": 2.0239757389,
				"y": -3.3631408434,
				"z": 2.0852811677,
				"element": "H" 
			},
			{
				"x": 0.6715528571,
				"y": -2.218119914,
				"z": 3.8462190075,
				"element": "H" 
			},
			{
				"x": -0.7792432427,
				"y": -0.3706295243,
				"z": 4.5229941231,
				"element": "H" 
			},
			{
				"x": -2.0033913623,
				"y": 1.7146454348,
				"z": 3.9886723054,
				"element": "H" 
			},
			{
				"x": -1.9549038058,
				"y": 2.6170772445,
				"z": 1.6642954696,
				"element": "H" 
			},
			{
				"x": -0.7569623962,
				"y": 1.4259284796,
				"z": -0.1112576465,
				"element": "H" 
			},
			{
				"x": 2.9038090068,
				"y": 0.3140401862,
				"z": -3.7119552656,
				"element": "H" 
			},
			{
				"x": 0.8170738295,
				"y": 0.6768999606,
				"z": -5.0356090478,
				"element": "H" 
			},
			{
				"x": -1.9356211108,
				"y": -1.1377870674,
				"z": -0.5513110686,
				"element": "H" 
			},
			{
				"x": -3.9557004655,
				"y": -0.9168024864,
				"z": -1.9200975515,
				"element": "H" 
			},
			{
				"x": -3.8185031526,
				"y": -0.0499021834,
				"z": -4.2544361607,
				"element": "H" 
			},
			{
				"x": -1.6145839315,
				"y": 0.5355119076,
				"z": -5.2200188256,
				"element": "H" 
			}
		],
		 "valence_orbital": [ 
			{
				"type": "occ",
				"energy": -0.28888,
				"method": "rhf"
			},
			{
				"type": "occ",
				"energy": -0.25611,
				"method": "rhf"
			},
			{
				"type": "occ",
				"energy": -0.25034,
				"method": "rhf"
			},
			{
				"type": "occ",
				"energy": -0.2318,
				"method": "rhf"
			},
			{
				"type": "occ",
				"energy": -0.22044,
				"method": "rhf"
			},
			{
				"type": "unocc",
				"energy": -0.06239,
				"method": "rhf"
			},
			{
				"type": "unocc",
				"energy": -0.04808,
				"method": "rhf"
			},
			{
				"type": "unocc",
				"energy": -0.02552,
				"method": "rhf"
			},
			{
				"type": "unocc",
				"energy": -0.01821,
				"method": "rhf"
			},
			{
				"type": "unocc",
				"energy": 0.01161,
				"method": "rhf"
			}
		],
		"cosmo_sigma_profile": { 
			"-0.025": 0.0,
			"-0.024": 0.0,
			"-0.023": 0.0,
			"-0.022": 0.0,
			"-0.021": 0.0,
			"-0.02": 0.279024509742,
			"-0.019": 0.930069361678,
			"-0.018": 0.375836056803,
			"-0.017": 0.708158140091,
			"-0.016": 0.665388327675,
			"-0.015": 0.730703248549,
			"-0.014": 1.0253559971,
			"-0.013": 0.599924414433,
			"-0.012": 0.829813602452,
			"-0.011": 0.871335998363,
			"-0.01": 1.12216597494,
			"-0.009": 0.611911363901,
			"-0.008": 1.49291544748,
			"-0.007": 10.5641729449,
			"-0.006": 21.5616921732,
			"-0.005": 23.9986784835,
			"-0.004": 22.8980814061,
			"-0.003": 20.4460772184,
			"-0.002": 20.1358488866,
			"-0.001": 19.8361797615,
			"0.0": 23.2263440627,
			"0.001": 31.6367374096,
			"0.002": 29.9598386598,
			"0.003": 35.6713747609,
			"0.004": 24.1349610691,
			"0.005": 12.0274354439,
			"0.006": 4.56099917689,
			"0.007": 4.34181697545,
			"0.008": 4.25974269284,
			"0.009": 3.5521856338,
			"0.01": 1.74715491197,
			"0.011": 2.22879757104,
			"0.012": 4.0991909489,
			"0.013": 7.37780938535,
			"0.014": 0.0390255324268,
			"0.015": 0.0,
			"0.016": 0.0,
			"0.017": 0.0,
			"0.018": 0.0,
			"0.019": 0.0,
			"0.02": 0.0,
			"0.021": 0.0,
			"0.022": 0.0,
			"0.023": 0.0,
			"0.024": 0.0,
			"0.025": 0.0
		}
	}
}
