{
	 "smiles": "OC(=O)C1CN(C(=O)C1)C1=CC2=C(OCO2)C=C1", 
	 "Tm": 446.15, 
	 "num_atms": 29, 
	 "gaussian": { 
		 "optdone": 1, 
		 "sigma_profile": "yes", 
		 "theory": "DFT", 
		 "functional": "B3LYP", 
		 "basiset": "6-31G**", 
		 "properties": { 
			 "R2extent": 6208.4027, 
			 "electric_dipole_moment_norm": 1.98329633187, 
			 "electric_quadrupole_moment_norm": 27.9891377843, 
			 "total_energy": -894.769438266, 
			 "HOMO_LUMO_gap": 0.18419, 
			 "cosmo_polarized_energy": -22.85, 
			 "cosmo_cavitation_energy": 32.95, 
			 "cosmo_dispersion_energy": -24.67, 
			 "cosmo_repulsion_energy": 1.88, 
			 "cosmo_total_nonelectrostatic_energy": 10.16, 
			 "SMD_solvation_energy": 7.3 
		},
		"coords": [
			{
				"x": 1.9746701332,
				"y": 4.444004286,
				"z": -2.5108200473,
				"element": "O" 
			},
			{
				"x": 1.7812421654,
				"y": 3.6746482419,
				"z": -1.4085013894,
				"element": "C" 
			},
			{
				"x": 2.2859696212,
				"y": 3.9817121139,
				"z": -0.3576781708,
				"element": "O" 
			},
			{
				"x": 0.9006433688,
				"y": 2.4501416557,
				"z": -1.6218721928,
				"element": "C" 
			},
			{
				"x": 0.73742282,
				"y": 1.6038815093,
				"z": -0.349273324,
				"element": "C" 
			},
			{
				"x": -0.5770064963,
				"y": 0.9709555461,
				"z": -0.5069676982,
				"element": "N" 
			},
			{
				"x": -1.3610559903,
				"y": 1.6033238536,
				"z": -1.4565663433,
				"element": "C" 
			},
			{
				"x": -2.5001890862,
				"y": 1.3200679298,
				"z": -1.7852905267,
				"element": "O" 
			},
			{
				"x": -0.5513346375,
				"y": 2.7684476225,
				"z": -2.029947749,
				"element": "C" 
			},
			{
				"x": -0.987700805,
				"y": -0.0876174615,
				"z": 0.3474292797,
				"element": "C" 
			},
			{
				"x": -0.2140317451,
				"y": -0.3557170458,
				"z": 1.5035346536,
				"element": "C" 
			},
			{
				"x": -0.6271643709,
				"y": -1.3965601501,
				"z": 2.3087513626,
				"element": "C" 
			},
			{
				"x": -1.750821937,
				"y": -2.1630449053,
				"z": 2.0218386514,
				"element": "C" 
			},
			{
				"x": -1.9021007504,
				"y": -3.1405135807,
				"z": 2.9796136079,
				"element": "O" 
			},
			{
				"x": -0.9338154214,
				"y": -2.8375701935,
				"z": 3.9886061966,
				"element": "C" 
			},
			{
				"x": -0.031617161,
				"y": -1.8568280663,
				"z": 3.4582688552,
				"element": "O" 
			},
			{
				"x": -2.5168479663,
				"y": -1.9139077129,
				"z": 0.9014406564,
				"element": "C" 
			},
			{
				"x": -2.1225541804,
				"y": -0.86230809,
				"z": 0.0579440172,
				"element": "C" 
			},
			{
				"x": 1.5058007515,
				"y": 4.0727141907,
				"z": -3.2719911009,
				"element": "H" 
			},
			{
				"x": 1.360574564,
				"y": 1.8356386969,
				"z": -2.4072203248,
				"element": "H" 
			},
			{
				"x": 1.5198499321,
				"y": 0.8457873721,
				"z": -0.2582425938,
				"element": "H" 
			},
			{
				"x": 0.7798682411,
				"y": 2.2433388882,
				"z": 0.5398477939,
				"element": "H" 
			},
			{
				"x": -0.725292379,
				"y": 2.8456137852,
				"z": -3.1058195273,
				"element": "H" 
			},
			{
				"x": -0.9126111976,
				"y": 3.6943399248,
				"z": -1.5654069414,
				"element": "H" 
			},
			{
				"x": 0.6580962775,
				"y": 0.2256614779,
				"z": 1.7713530124,
				"element": "H" 
			},
			{
				"x": -0.3760332351,
				"y": -3.743456373,
				"z": 4.2437192986,
				"element": "H" 
			},
			{
				"x": -1.4395507576,
				"y": -2.4264415122,
				"z": 4.8745984117,
				"element": "H" 
			},
			{
				"x": -3.3929175152,
				"y": -2.510122897,
				"z": 0.6728890188,
				"element": "H" 
			},
			{
				"x": -2.7077922424,
				"y": -0.629789106,
				"z": -0.8189368865,
				"element": "H" 
			}
		],
		 "valence_orbital": [ 
			{
				"type": "occ",
				"energy": -0.2916,
				"method": "rhf"
			},
			{
				"type": "occ",
				"energy": -0.2758,
				"method": "rhf"
			},
			{
				"type": "occ",
				"energy": -0.25991,
				"method": "rhf"
			},
			{
				"type": "occ",
				"energy": -0.24354,
				"method": "rhf"
			},
			{
				"type": "occ",
				"energy": -0.19956,
				"method": "rhf"
			},
			{
				"type": "unocc",
				"energy": -0.01537,
				"method": "rhf"
			},
			{
				"type": "unocc",
				"energy": -0.0078,
				"method": "rhf"
			},
			{
				"type": "unocc",
				"energy": -0.001,
				"method": "rhf"
			},
			{
				"type": "unocc",
				"energy": 0.03472,
				"method": "rhf"
			},
			{
				"type": "unocc",
				"energy": 0.04079,
				"method": "rhf"
			}
		],
		"cosmo_sigma_profile": { 
			"-0.025": 0.0,
			"-0.024": 0.0,
			"-0.023": 0.0,
			"-0.022": 0.0,
			"-0.021": 0.0,
			"-0.02": 0.0320001837569,
			"-0.019": 0.748568543007,
			"-0.018": 1.06851924711,
			"-0.017": 1.20747681403,
			"-0.016": 0.802888233598,
			"-0.015": 1.28883232147,
			"-0.014": 1.26907832645,
			"-0.013": 1.24609676797,
			"-0.012": 0.881338851497,
			"-0.011": 1.52185064258,
			"-0.01": 1.36871600264,
			"-0.009": 2.27188749845,
			"-0.008": 10.8413971811,
			"-0.007": 21.5855570433,
			"-0.006": 20.4321934598,
			"-0.005": 15.8229646549,
			"-0.004": 13.5875082914,
			"-0.003": 9.90661806656,
			"-0.002": 9.38872822285,
			"-0.001": 11.2557162566,
			"0.0": 11.0792997048,
			"0.001": 11.5048052481,
			"0.002": 15.9545465537,
			"0.003": 16.1461665524,
			"0.004": 13.2615729859,
			"0.005": 11.503804869,
			"0.006": 7.57172447603,
			"0.007": 5.11727597282,
			"0.008": 7.64042850367,
			"0.009": 9.24818165908,
			"0.01": 8.34781534044,
			"0.011": 7.6742093786,
			"0.012": 6.58644226414,
			"0.013": 3.31159765391,
			"0.014": 0.991430483385,
			"0.015": 0.0,
			"0.016": 0.0,
			"0.017": 0.0,
			"0.018": 0.0,
			"0.019": 0.0,
			"0.02": 0.0,
			"0.021": 0.0,
			"0.022": 0.0,
			"0.023": 0.0,
			"0.024": 0.0,
			"0.025": 0.0
		}
	}
}
