{
	 "smiles": "NC(=O)C1=C(F)C=CC(N)=C1", 
	 "Tm": 411.15, 
	 "num_atms": 18, 
	 "gaussian": { 
		 "optdone": 1, 
		 "sigma_profile": "yes", 
		 "theory": "DFT", 
		 "functional": "B3LYP", 
		 "basiset": "6-31G**", 
		 "properties": { 
			 "R2extent": 2032.538, 
			 "electric_dipole_moment_norm": 2.96617097956, 
			 "electric_quadrupole_moment_norm": 15.62201869, 
			 "total_energy": -555.547902625, 
			 "HOMO_LUMO_gap": 0.17344, 
			 "cosmo_polarized_energy": -14.71, 
			 "cosmo_cavitation_energy": 22.57, 
			 "cosmo_dispersion_energy": -17.01, 
			 "cosmo_repulsion_energy": 1.35, 
			 "cosmo_total_nonelectrostatic_energy": 6.91, 
			 "SMD_solvation_energy": 4.96 
		},
		"coords": [
			{
				"x": 2.8338725975,
				"y": 2.0686040614,
				"z": -0.6252006568,
				"element": "N" 
			},
			{
				"x": 2.0187275276,
				"y": 1.3196070947,
				"z": -1.417318406,
				"element": "C" 
			},
			{
				"x": 2.0387275195,
				"y": 1.4100434631,
				"z": -2.6410970818,
				"element": "O" 
			},
			{
				"x": 1.0762361474,
				"y": 0.3593666014,
				"z": -0.728397451,
				"element": "C" 
			},
			{
				"x": 0.9359527374,
				"y": 0.1735008639,
				"z": 0.6501181946,
				"element": "C" 
			},
			{
				"x": 1.6932995507,
				"y": 0.8895602169,
				"z": 1.5366394571,
				"element": "F" 
			},
			{
				"x": 0.0292161586,
				"y": -0.7329412775,
				"z": 1.1806553325,
				"element": "C" 
			},
			{
				"x": -0.7683475474,
				"y": -1.4879064241,
				"z": 0.3262947874,
				"element": "C" 
			},
			{
				"x": -0.66171774,
				"y": -1.336143853,
				"z": -1.0681224687,
				"element": "C" 
			},
			{
				"x": -1.4153318169,
				"y": -2.131932557,
				"z": -1.9336259116,
				"element": "N" 
			},
			{
				"x": 0.2625648661,
				"y": -0.4100579394,
				"z": -1.5678908867,
				"element": "C" 
			},
			{
				"x": 2.8195415266,
				"y": 1.9987566728,
				"z": 0.3785155422,
				"element": "H" 
			},
			{
				"x": 3.4617739315,
				"y": 2.7066828183,
				"z": -1.0882366449,
				"element": "H" 
			},
			{
				"x": -0.0428730939,
				"y": -0.8374374337,
				"z": 2.2578937227,
				"element": "H" 
			},
			{
				"x": -1.4738737177,
				"y": -2.202750347,
				"z": 0.7413167144,
				"element": "H" 
			},
			{
				"x": -1.5253336207,
				"y": -1.7600187051,
				"z": -2.8669282394,
				"element": "H" 
			},
			{
				"x": -2.2906367511,
				"y": -2.4691704145,
				"z": -1.5574917207,
				"element": "H" 
			},
			{
				"x": 0.3825017245,
				"y": -0.2559628414,
				"z": -2.6358242834,
				"element": "H" 
			}
		],
		 "valence_orbital": [ 
			{
				"type": "occ",
				"energy": -0.30897,
				"method": "rhf"
			},
			{
				"type": "occ",
				"energy": -0.2632,
				"method": "rhf"
			},
			{
				"type": "occ",
				"energy": -0.25656,
				"method": "rhf"
			},
			{
				"type": "occ",
				"energy": -0.24935,
				"method": "rhf"
			},
			{
				"type": "occ",
				"energy": -0.20856,
				"method": "rhf"
			},
			{
				"type": "unocc",
				"energy": -0.03512,
				"method": "rhf"
			},
			{
				"type": "unocc",
				"energy": 0.00781,
				"method": "rhf"
			},
			{
				"type": "unocc",
				"energy": 0.06733,
				"method": "rhf"
			},
			{
				"type": "unocc",
				"energy": 0.07923,
				"method": "rhf"
			},
			{
				"type": "unocc",
				"energy": 0.09533,
				"method": "rhf"
			}
		],
		"cosmo_sigma_profile": { 
			"-0.025": 0.0,
			"-0.024": 0.0,
			"-0.023": 0.0,
			"-0.022": 0.0,
			"-0.021": 0.0,
			"-0.02": 0.0,
			"-0.019": 0.0,
			"-0.018": 0.0,
			"-0.017": 0.0,
			"-0.016": 0.0,
			"-0.015": 0.0,
			"-0.014": 0.502015381549,
			"-0.013": 2.41042339476,
			"-0.012": 3.80644221706,
			"-0.011": 4.14874920404,
			"-0.01": 5.68940051508,
			"-0.009": 5.15600077815,
			"-0.008": 5.18862776721,
			"-0.007": 8.10046995964,
			"-0.006": 5.85021601374,
			"-0.005": 7.04990280169,
			"-0.004": 6.89119523506,
			"-0.003": 5.38806067345,
			"-0.002": 8.07257729531,
			"-0.001": 9.81527862532,
			"0.0": 10.3120738978,
			"0.001": 12.626539244,
			"0.002": 12.9391087191,
			"0.003": 17.3243257965,
			"0.004": 18.0627989363,
			"0.005": 4.40601899776,
			"0.006": 2.68661605979,
			"0.007": 2.01723029196,
			"0.008": 2.77959509085,
			"0.009": 1.53889488026,
			"0.01": 1.85687541071,
			"0.011": 2.2227904773,
			"0.012": 2.73807253796,
			"0.013": 4.55528382986,
			"0.014": 4.82515854168,
			"0.015": 0.885828057273,
			"0.016": 0.0,
			"0.017": 0.0,
			"0.018": 0.0,
			"0.019": 0.0,
			"0.02": 0.0,
			"0.021": 0.0,
			"0.022": 0.0,
			"0.023": 0.0,
			"0.024": 0.0,
			"0.025": 0.0
		}
	}
}
