{
	 "smiles": "OC1=CC(Cl)=CN=C1", 
	 "Tm": 434.15, 
	 "num_atms": 12, 
	 "gaussian": { 
		 "optdone": 1, 
		 "sigma_profile": "yes", 
		 "theory": "DFT", 
		 "functional": "B3LYP", 
		 "basiset": "6-31G**", 
		 "properties": { 
			 "R2extent": 1952.2078, 
			 "electric_dipole_moment_norm": 2.86566995134, 
			 "electric_quadrupole_moment_norm": 5.17176745804, 
			 "total_energy": -783.094669196, 
			 "HOMO_LUMO_gap": 0.20714, 
			 "cosmo_polarized_energy": -10.33, 
			 "cosmo_cavitation_energy": 18.34, 
			 "cosmo_dispersion_energy": -14.02, 
			 "cosmo_repulsion_energy": 1.16, 
			 "cosmo_total_nonelectrostatic_energy": 5.48, 
			 "SMD_solvation_energy": 2.04 
		},
		"coords": [
			{
				"x": -0.2453891693,
				"y": -1.7725298761,
				"z": 0.6260068483,
				"element": "O" 
			},
			{
				"x": -0.6905040697,
				"y": -0.7195164057,
				"z": -0.1108580373,
				"element": "C" 
			},
			{
				"x": -1.9542084761,
				"y": -0.1464426794,
				"z": 0.0458769358,
				"element": "C" 
			},
			{
				"x": -2.2829431632,
				"y": 0.9292946801,
				"z": -0.7756215078,
				"element": "C" 
			},
			{
				"x": -3.8543631682,
				"y": 1.6917172691,
				"z": -0.6269665262,
				"element": "Cl" 
			},
			{
				"x": -1.3648921093,
				"y": 1.4000967472,
				"z": -1.7149930154,
				"element": "C" 
			},
			{
				"x": -0.1576379397,
				"y": 0.8429900094,
				"z": -1.8557832766,
				"element": "N" 
			},
			{
				"x": 0.1746996045,
				"y": -0.1867393507,
				"z": -1.0790459415,
				"element": "C" 
			},
			{
				"x": -0.9277378131,
				"y": -2.0458613087,
				"z": 1.2531808271,
				"element": "H" 
			},
			{
				"x": -2.6617026067,
				"y": -0.520513837,
				"z": 0.7802480038,
				"element": "H" 
			},
			{
				"x": -1.6133862695,
				"y": 2.2385278706,
				"z": -2.3594943695,
				"element": "H" 
			},
			{
				"x": 1.1610651802,
				"y": -0.6250231187,
				"z": -1.2097499407,
				"element": "H" 
			}
		],
		 "valence_orbital": [ 
			{
				"type": "occ",
				"energy": -0.35096,
				"method": "rhf"
			},
			{
				"type": "occ",
				"energy": -0.32653,
				"method": "rhf"
			},
			{
				"type": "occ",
				"energy": -0.28046,
				"method": "rhf"
			},
			{
				"type": "occ",
				"energy": -0.26604,
				"method": "rhf"
			},
			{
				"type": "occ",
				"energy": -0.24405,
				"method": "rhf"
			},
			{
				"type": "unocc",
				"energy": -0.03691,
				"method": "rhf"
			},
			{
				"type": "unocc",
				"energy": -0.01309,
				"method": "rhf"
			},
			{
				"type": "unocc",
				"energy": 0.02076,
				"method": "rhf"
			},
			{
				"type": "unocc",
				"energy": 0.05198,
				"method": "rhf"
			},
			{
				"type": "unocc",
				"energy": 0.11917,
				"method": "rhf"
			}
		],
		"cosmo_sigma_profile": { 
			"-0.025": 0.0,
			"-0.024": 0.0,
			"-0.023": 0.0,
			"-0.022": 0.0,
			"-0.021": 0.0,
			"-0.02": 0.0,
			"-0.019": 0.555094247684,
			"-0.018": 1.56367381845,
			"-0.017": 1.30006117284,
			"-0.016": 0.725438373808,
			"-0.015": 1.27955222132,
			"-0.014": 1.1586160122,
			"-0.013": 1.43036684195,
			"-0.012": 0.923579336721,
			"-0.011": 0.884863698014,
			"-0.01": 1.35094967622,
			"-0.009": 1.89201681888,
			"-0.008": 1.59444688508,
			"-0.007": 4.29406666396,
			"-0.006": 4.8260376795,
			"-0.005": 4.76425208893,
			"-0.004": 4.85234343077,
			"-0.003": 5.0264195297,
			"-0.002": 6.88863059139,
			"-0.001": 7.96111158976,
			"0.0": 18.191454896,
			"0.001": 20.0966756785,
			"0.002": 10.610262407,
			"0.003": 10.7480157377,
			"0.004": 13.4998049592,
			"0.005": 4.57482130237,
			"0.006": 2.68868927547,
			"0.007": 2.23385077636,
			"0.008": 2.907218902,
			"0.009": 3.25280369584,
			"0.01": 2.19075937322,
			"0.011": 1.14898774323,
			"0.012": 1.37787572279,
			"0.013": 1.00237841562,
			"0.014": 0.318829291472,
			"0.015": 1.22980531922,
			"0.016": 0.250778633864,
			"0.017": 0.0,
			"0.018": 0.0,
			"0.019": 0.0,
			"0.02": 0.0,
			"0.021": 0.0,
			"0.022": 0.0,
			"0.023": 0.0,
			"0.024": 0.0,
			"0.025": 0.0
		}
	}
}
