{
	 "smiles": "ON=CC1=CN=CC=C1", 
	 "Tm": 422.65, 
	 "num_atms": 15, 
	 "gaussian": { 
		 "optdone": 1, 
		 "sigma_profile": "yes", 
		 "theory": "DFT", 
		 "functional": "B3LYP", 
		 "basiset": "6-31G**", 
		 "properties": { 
			 "R2extent": 1405.7894, 
			 "electric_dipole_moment_norm": 1.7736217917, 
			 "electric_quadrupole_moment_norm": 13.3643739027, 
			 "total_energy": -416.908565301, 
			 "HOMO_LUMO_gap": 0.18959, 
			 "cosmo_polarized_energy": -10.26, 
			 "cosmo_cavitation_energy": 19.53, 
			 "cosmo_dispersion_energy": -14.73, 
			 "cosmo_repulsion_energy": 1.2, 
			 "cosmo_total_nonelectrostatic_energy": 6.0, 
			 "SMD_solvation_energy": 2.25 
		},
		"coords": [
			{
				"x": -1.5902442682,
				"y": 1.3950328485,
				"z": 0.0758555344,
				"element": "O" 
			},
			{
				"x": -2.203132318,
				"y": 0.2512584212,
				"z": 0.5946407092,
				"element": "N" 
			},
			{
				"x": -1.5187223377,
				"y": -0.8240157781,
				"z": 0.4290452183,
				"element": "C" 
			},
			{
				"x": -0.2195790217,
				"y": -1.1032961279,
				"z": -0.1950872663,
				"element": "C" 
			},
			{
				"x": 0.629748139,
				"y": -0.1523762744,
				"z": -0.8028754677,
				"element": "C" 
			},
			{
				"x": 1.8064853538,
				"y": -0.4588881349,
				"z": -1.3584330227,
				"element": "N" 
			},
			{
				"x": 2.1992715066,
				"y": -1.7384275423,
				"z": -1.3363937957,
				"element": "C" 
			},
			{
				"x": 1.4450299211,
				"y": -2.7642093951,
				"z": -0.7645991375,
				"element": "C" 
			},
			{
				"x": 0.2233773849,
				"y": -2.4378550405,
				"z": -0.1892966205,
				"element": "C" 
			},
			{
				"x": -2.2319187849,
				"y": 2.086010647,
				"z": 0.2874480517,
				"element": "H" 
			},
			{
				"x": -2.0300240397,
				"y": -1.6910824354,
				"z": 0.8473435059,
				"element": "H" 
			},
			{
				"x": 0.3392666605,
				"y": 0.8897110007,
				"z": -0.8357821539,
				"element": "H" 
			},
			{
				"x": 3.162067247,
				"y": -1.9529474972,
				"z": -1.7971831318,
				"element": "H" 
			},
			{
				"x": 1.8080501965,
				"y": -3.7870974523,
				"z": -0.7721796057,
				"element": "H" 
			},
			{
				"x": -0.3937756392,
				"y": -3.2084172391,
				"z": 0.2663971824,
				"element": "H" 
			}
		],
		 "valence_orbital": [ 
			{
				"type": "occ",
				"energy": -0.31106,
				"method": "rhf"
			},
			{
				"type": "occ",
				"energy": -0.28108,
				"method": "rhf"
			},
			{
				"type": "occ",
				"energy": -0.27921,
				"method": "rhf"
			},
			{
				"type": "occ",
				"energy": -0.25457,
				"method": "rhf"
			},
			{
				"type": "occ",
				"energy": -0.24235,
				"method": "rhf"
			},
			{
				"type": "unocc",
				"energy": -0.05276,
				"method": "rhf"
			},
			{
				"type": "unocc",
				"energy": -0.02432,
				"method": "rhf"
			},
			{
				"type": "unocc",
				"energy": 0.04422,
				"method": "rhf"
			},
			{
				"type": "unocc",
				"energy": 0.06383,
				"method": "rhf"
			},
			{
				"type": "unocc",
				"energy": 0.09753,
				"method": "rhf"
			}
		],
		"cosmo_sigma_profile": { 
			"-0.025": 0.0,
			"-0.024": 0.0,
			"-0.023": 0.0,
			"-0.022": 0.0,
			"-0.021": 0.0,
			"-0.02": 0.0,
			"-0.019": 0.0,
			"-0.018": 0.347489675082,
			"-0.017": 1.21850918367,
			"-0.016": 0.788925550774,
			"-0.015": 0.98161849931,
			"-0.014": 0.722413467523,
			"-0.013": 0.609351315058,
			"-0.012": 1.03108632431,
			"-0.011": 0.443447471227,
			"-0.01": 0.204962579584,
			"-0.009": 2.25718745121,
			"-0.008": 4.66581961759,
			"-0.007": 7.49072673417,
			"-0.006": 9.20640280095,
			"-0.005": 8.05787913097,
			"-0.004": 6.53862168395,
			"-0.003": 6.89320974256,
			"-0.002": 6.68804881476,
			"-0.001": 8.13005919739,
			"0.0": 9.58595521463,
			"0.001": 19.7598193381,
			"0.002": 15.7058705088,
			"0.003": 8.03129284506,
			"0.004": 6.45437810169,
			"0.005": 6.33460619257,
			"0.006": 4.6692599966,
			"0.007": 4.09442153929,
			"0.008": 3.48562301011,
			"0.009": 2.42276588702,
			"0.01": 1.74528478592,
			"0.011": 1.54839225166,
			"0.012": 2.24259119057,
			"0.013": 1.71282503775,
			"0.014": 0.659862065686,
			"0.015": 1.08608861303,
			"0.016": 0.757326441642,
			"0.017": 0.194336142778,
			"0.018": 0.0,
			"0.019": 0.0,
			"0.02": 0.0,
			"0.021": 0.0,
			"0.022": 0.0,
			"0.023": 0.0,
			"0.024": 0.0,
			"0.025": 0.0
		}
	}
}
