{
	 "smiles": "CCOC(=O)C(=O)C1=CC(C(=O)C(=O)OCC)=C(C=C1[N+]([O-])=O)[N+]([O-])=O", 
	 "Tm": 391.15, 
	 "num_atms": 38, 
	 "gaussian": { 
		 "optdone": 1, 
		 "sigma_profile": "yes", 
		 "theory": "DFT", 
		 "functional": "B3LYP", 
		 "basiset": "6-31G**", 
		 "properties": { 
			 "R2extent": 10205.3692, 
			 "electric_dipole_moment_norm": 2.89192910874, 
			 "electric_quadrupole_moment_norm": 41.0892222131, 
			 "total_energy": -1402.23289166, 
			 "HOMO_LUMO_gap": 0.14166, 
			 "cosmo_polarized_energy": -22.76, 
			 "cosmo_cavitation_energy": 46.54, 
			 "cosmo_dispersion_energy": -29.95, 
			 "cosmo_repulsion_energy": 2.29, 
			 "cosmo_total_nonelectrostatic_energy": 18.89, 
			 "SMD_solvation_energy": 15.28 
		},
		"coords": [
			{
				"x": 3.4128016739,
				"y": 3.6453073536,
				"z": -2.1776718568,
				"element": "C" 
			},
			{
				"x": 2.1870425212,
				"y": 3.1107862762,
				"z": -2.9009896524,
				"element": "C" 
			},
			{
				"x": 1.7044769376,
				"y": 1.8865050722,
				"z": -2.2725442806,
				"element": "O" 
			},
			{
				"x": 2.2895769132,
				"y": 0.7404696651,
				"z": -2.6586724497,
				"element": "C" 
			},
			{
				"x": 3.1262465641,
				"y": 0.613262059,
				"z": -3.5152115342,
				"element": "O" 
			},
			{
				"x": 1.697427067,
				"y": -0.4633033277,
				"z": -1.8902907623,
				"element": "C" 
			},
			{
				"x": 1.8771213957,
				"y": -1.5844417368,
				"z": -2.3028505543,
				"element": "O" 
			},
			{
				"x": 0.7750269261,
				"y": -0.2203385495,
				"z": -0.7138072092,
				"element": "C" 
			},
			{
				"x": -0.4702409182,
				"y": -0.8554036648,
				"z": -0.7499975425,
				"element": "C" 
			},
			{
				"x": -1.4171537261,
				"y": -0.6900048328,
				"z": 0.2655046742,
				"element": "C" 
			},
			{
				"x": -2.7141041913,
				"y": -1.4579128317,
				"z": 0.1176327906,
				"element": "C" 
			},
			{
				"x": -3.3082987904,
				"y": -1.4553186793,
				"z": -0.9341702734,
				"element": "O" 
			},
			{
				"x": -3.1966918813,
				"y": -2.3721957092,
				"z": 1.2673621219,
				"element": "C" 
			},
			{
				"x": -4.2636520767,
				"y": -2.9295967976,
				"z": 1.250349881,
				"element": "O" 
			},
			{
				"x": -2.2605762402,
				"y": -2.478243007,
				"z": 2.2235735291,
				"element": "O" 
			},
			{
				"x": -2.616229752,
				"y": -3.2867404575,
				"z": 3.381026138,
				"element": "C" 
			},
			{
				"x": -1.5128029623,
				"y": -3.1212818274,
				"z": 4.4064296747,
				"element": "C" 
			},
			{
				"x": -1.0897420227,
				"y": 0.1633670363,
				"z": 1.3266379216,
				"element": "C" 
			},
			{
				"x": 0.1443990242,
				"y": 0.7918952661,
				"z": 1.4170282293,
				"element": "C" 
			},
			{
				"x": 1.0641886135,
				"y": 0.5788831955,
				"z": 0.3993465484,
				"element": "C" 
			},
			{
				"x": 2.3926119852,
				"y": 1.1921243688,
				"z": 0.5418782163,
				"element": "N" 
			},
			{
				"x": 2.5088041124,
				"y": 2.1363200487,
				"z": 1.3151284387,
				"element": "O" 
			},
			{
				"x": 3.3068757808,
				"y": 0.6979081446,
				"z": -0.120138501,
				"element": "O" 
			},
			{
				"x": -2.0814599824,
				"y": 0.4556550776,
				"z": 2.3722967384,
				"element": "N" 
			},
			{
				"x": -1.6734081939,
				"y": 0.8937947269,
				"z": 3.442176842,
				"element": "O" 
			},
			{
				"x": -3.2632700293,
				"y": 0.2555336889,
				"z": 2.0884013875,
				"element": "O" 
			},
			{
				"x": 3.709845188,
				"y": 4.6002766671,
				"z": -2.62313515,
				"element": "H" 
			},
			{
				"x": 4.2502895021,
				"y": 2.9496086681,
				"z": -2.2666213746,
				"element": "H" 
			},
			{
				"x": 3.2034194756,
				"y": 3.810232977,
				"z": -1.1169786218,
				"element": "H" 
			},
			{
				"x": 1.3398615398,
				"y": 3.7958622327,
				"z": -2.8317341948,
				"element": "H" 
			},
			{
				"x": 2.3995163757,
				"y": 2.895211241,
				"z": -3.9503335341,
				"element": "H" 
			},
			{
				"x": -0.7091390467,
				"y": -1.4960548232,
				"z": -1.5918182483,
				"element": "H" 
			},
			{
				"x": -3.5859504482,
				"y": -2.9424737335,
				"z": 3.7506905833,
				"element": "H" 
			},
			{
				"x": -2.7296765702,
				"y": -4.3235020028,
				"z": 3.0502846572,
				"element": "H" 
			},
			{
				"x": -1.7490402017,
				"y": -3.7106777529,
				"z": 5.2974200898,
				"element": "H" 
			},
			{
				"x": -0.5528904435,
				"y": -3.4665614131,
				"z": 4.0120122382,
				"element": "H" 
			},
			{
				"x": -1.4123381179,
				"y": -2.0736662521,
				"z": 4.7044817049,
				"element": "H" 
			},
			{
				"x": 0.3830339988,
				"y": 1.4303136335,
				"z": 2.2574033346,
				"element": "H" 
			}
		],
		 "valence_orbital": [ 
			{
				"type": "occ",
				"energy": -0.32595,
				"method": "rhf"
			},
			{
				"type": "occ",
				"energy": -0.31226,
				"method": "rhf"
			},
			{
				"type": "occ",
				"energy": -0.30943,
				"method": "rhf"
			},
			{
				"type": "occ",
				"energy": -0.28906,
				"method": "rhf"
			},
			{
				"type": "occ",
				"energy": -0.28334,
				"method": "rhf"
			},
			{
				"type": "unocc",
				"energy": -0.14168,
				"method": "rhf"
			},
			{
				"type": "unocc",
				"energy": -0.12398,
				"method": "rhf"
			},
			{
				"type": "unocc",
				"energy": -0.09527,
				"method": "rhf"
			},
			{
				"type": "unocc",
				"energy": -0.09088,
				"method": "rhf"
			},
			{
				"type": "unocc",
				"energy": -0.05864,
				"method": "rhf"
			}
		],
		"cosmo_sigma_profile": { 
			"-0.025": 0.0,
			"-0.024": 0.0,
			"-0.023": 0.0,
			"-0.022": 0.0,
			"-0.021": 0.0,
			"-0.02": 0.0,
			"-0.019": 0.0,
			"-0.018": 0.0,
			"-0.017": 0.0,
			"-0.016": 0.0,
			"-0.015": 0.0,
			"-0.014": 0.0,
			"-0.013": 0.0,
			"-0.012": 0.0,
			"-0.011": 0.621375440002,
			"-0.01": 4.87119489092,
			"-0.009": 7.08388959717,
			"-0.008": 6.67665256761,
			"-0.007": 9.89003222675,
			"-0.006": 20.1813459798,
			"-0.005": 28.582955988,
			"-0.004": 36.466257038,
			"-0.003": 33.024047938,
			"-0.002": 26.5602607651,
			"-0.001": 26.6912861659,
			"0.0": 23.3377174324,
			"0.001": 16.0611465786,
			"0.002": 13.1559529961,
			"0.003": 14.3817353182,
			"0.004": 12.3335320558,
			"0.005": 14.7938546367,
			"0.006": 18.9743680614,
			"0.007": 12.7238480127,
			"0.008": 15.2650345491,
			"0.009": 11.7435636413,
			"0.01": 11.2015922734,
			"0.011": 5.74666050392,
			"0.012": 1.16592278929,
			"0.013": 0.0,
			"0.014": 0.0,
			"0.015": 0.0,
			"0.016": 0.0,
			"0.017": 0.0,
			"0.018": 0.0,
			"0.019": 0.0,
			"0.02": 0.0,
			"0.021": 0.0,
			"0.022": 0.0,
			"0.023": 0.0,
			"0.024": 0.0,
			"0.025": 0.0
		}
	}
}
