{
	 "smiles": "NC1=CC=C(CNC(=O)C2=CC=C(Br)C=C2)C=C1", 
	 "Tm": 447.15, 
	 "num_atms": 31, 
	 "gaussian": { 
		 "optdone": 1, 
		 "sigma_profile": "yes", 
		 "theory": "DFT", 
		 "functional": "B3LYP", 
		 "basiset": "6-31G**", 
		 "properties": { 
			 "R2extent": 13177.8875, 
			 "electric_dipole_moment_norm": 4.88740317244, 
			 "electric_quadrupole_moment_norm": 14.5231861756, 
			 "total_energy": -3297.47366534, 
			 "HOMO_LUMO_gap": 0.16906, 
			 "cosmo_polarized_energy": -17.02, 
			 "cosmo_cavitation_energy": 38.16, 
			 "cosmo_dispersion_energy": -27.47, 
			 "cosmo_repulsion_energy": 2.14, 
			 "cosmo_total_nonelectrostatic_energy": 12.83, 
			 "SMD_solvation_energy": 5.11 
		},
		"coords": [
			{
				"x": 0.4003451453,
				"y": 5.106281655,
				"z": -1.5884737275,
				"element": "N" 
			},
			{
				"x": 0.0976176178,
				"y": 3.812314832,
				"z": -1.1689736947,
				"element": "C" 
			},
			{
				"x": 0.8652491452,
				"y": 3.1824172337,
				"z": -0.1707300994,
				"element": "C" 
			},
			{
				"x": 0.5279516734,
				"y": 1.9147232042,
				"z": 0.2868791123,
				"element": "C" 
			},
			{
				"x": -0.5802529387,
				"y": 1.2248879818,
				"z": -0.227064249,
				"element": "C" 
			},
			{
				"x": -0.943276983,
				"y": -0.1563196948,
				"z": 0.2766095285,
				"element": "C" 
			},
			{
				"x": 0.1106907385,
				"y": -1.1385363316,
				"z": -0.0078988195,
				"element": "N" 
			},
			{
				"x": 0.7719150127,
				"y": -1.9759802728,
				"z": 0.8573456165,
				"element": "C" 
			},
			{
				"x": 1.8837380903,
				"y": -2.4198908089,
				"z": 0.5806111345,
				"element": "O" 
			},
			{
				"x": 0.093008767,
				"y": -2.3756930621,
				"z": 2.1388735261,
				"element": "C" 
			},
			{
				"x": 0.9112495195,
				"y": -2.6246022606,
				"z": 3.2494716441,
				"element": "C" 
			},
			{
				"x": 0.3672146977,
				"y": -3.0542968862,
				"z": 4.4563962012,
				"element": "C" 
			},
			{
				"x": -1.0097763193,
				"y": -3.264692655,
				"z": 4.5420494039,
				"element": "C" 
			},
			{
				"x": -1.7670269932,
				"y": -3.8617141857,
				"z": 6.1912893675,
				"element": "Br" 
			},
			{
				"x": -1.8418447058,
				"y": -3.0567490282,
				"z": 3.4439020689,
				"element": "C" 
			},
			{
				"x": -1.2846483153,
				"y": -2.6079681236,
				"z": 2.2459148464,
				"element": "C" 
			},
			{
				"x": -1.3367734808,
				"y": 1.853298723,
				"z": -1.2215814699,
				"element": "C" 
			},
			{
				"x": -1.011667249,
				"y": 3.1249525431,
				"z": -1.6882739642,
				"element": "C" 
			},
			{
				"x": 1.3591080176,
				"y": 5.3947604391,
				"z": -1.4525373488,
				"element": "H" 
			},
			{
				"x": 0.0514394979,
				"y": 5.360761838,
				"z": -2.5019369221,
				"element": "H" 
			},
			{
				"x": 1.7256259444,
				"y": 3.6990116195,
				"z": 0.24771749,
				"element": "H" 
			},
			{
				"x": 1.1413282979,
				"y": 1.4485792418,
				"z": 1.0540914023,
				"element": "H" 
			},
			{
				"x": -1.8912571439,
				"y": -0.4677469261,
				"z": -0.1826061169,
				"element": "H" 
			},
			{
				"x": -1.105381927,
				"y": -0.138680927,
				"z": 1.3577504144,
				"element": "H" 
			},
			{
				"x": 0.6589219248,
				"y": -0.9595451101,
				"z": -0.8410553816,
				"element": "H" 
			},
			{
				"x": 1.9821008331,
				"y": -2.484880131,
				"z": 3.1466607326,
				"element": "H" 
			},
			{
				"x": 1.0006837683,
				"y": -3.2330320083,
				"z": 5.3176880903,
				"element": "H" 
			},
			{
				"x": -2.9061357327,
				"y": -3.247204237,
				"z": 3.5213574578,
				"element": "H" 
			},
			{
				"x": -1.9305980801,
				"y": -2.468165267,
				"z": 1.3852482082,
				"element": "H" 
			},
			{
				"x": -2.1985547583,
				"y": 1.3405239618,
				"z": -1.6428194845,
				"element": "H" 
			},
			{
				"x": -1.619494064,
				"y": 3.591684643,
				"z": -2.4595049673,
				"element": "H" 
			}
		],
		 "valence_orbital": [ 
			{
				"type": "occ",
				"energy": -0.25837,
				"method": "rhf"
			},
			{
				"type": "occ",
				"energy": -0.25521,
				"method": "rhf"
			},
			{
				"type": "occ",
				"energy": -0.2486,
				"method": "rhf"
			},
			{
				"type": "occ",
				"energy": -0.23761,
				"method": "rhf"
			},
			{
				"type": "occ",
				"energy": -0.20758,
				"method": "rhf"
			},
			{
				"type": "unocc",
				"energy": -0.03852,
				"method": "rhf"
			},
			{
				"type": "unocc",
				"energy": -0.01799,
				"method": "rhf"
			},
			{
				"type": "unocc",
				"energy": -0.00614,
				"method": "rhf"
			},
			{
				"type": "unocc",
				"energy": 0.00436,
				"method": "rhf"
			},
			{
				"type": "unocc",
				"energy": 0.00611,
				"method": "rhf"
			}
		],
		"cosmo_sigma_profile": { 
			"-0.025": 0.0,
			"-0.024": 0.0,
			"-0.023": 0.0,
			"-0.022": 0.0,
			"-0.021": 0.0,
			"-0.02": 0.0,
			"-0.019": 0.0,
			"-0.018": 0.0,
			"-0.017": 0.0,
			"-0.016": 0.0,
			"-0.015": 0.0,
			"-0.014": 0.0,
			"-0.013": 0.601759694819,
			"-0.012": 2.82017998257,
			"-0.011": 3.36964354611,
			"-0.01": 4.12620751189,
			"-0.009": 3.40613203081,
			"-0.008": 4.82203025088,
			"-0.007": 9.20281755062,
			"-0.006": 14.813366985,
			"-0.005": 22.4019025136,
			"-0.004": 21.9134939508,
			"-0.003": 22.3938050536,
			"-0.002": 18.4620580401,
			"-0.001": 18.3771278973,
			"0.0": 16.698532823,
			"0.001": 22.2336137194,
			"0.002": 25.7043161675,
			"0.003": 23.1284447138,
			"0.004": 20.7867852262,
			"0.005": 13.0972250406,
			"0.006": 11.1552634679,
			"0.007": 5.9134881293,
			"0.008": 2.3593745324,
			"0.009": 1.89844236722,
			"0.01": 2.0984367482,
			"0.011": 2.47599394512,
			"0.012": 2.47731735135,
			"0.013": 4.51036372558,
			"0.014": 5.43777983997,
			"0.015": 0.698209089389,
			"0.016": 0.0,
			"0.017": 0.0,
			"0.018": 0.0,
			"0.019": 0.0,
			"0.02": 0.0,
			"0.021": 0.0,
			"0.022": 0.0,
			"0.023": 0.0,
			"0.024": 0.0,
			"0.025": 0.0
		}
	}
}
