{
	 "smiles": "CS(=O)(=O)N1CCN(CC1)C(=O)C1=CC=C(O)C=C1", 
	 "Tm": 485.15, 
	 "num_atms": 35, 
	 "gaussian": { 
		 "optdone": 1, 
		 "sigma_profile": "yes", 
		 "theory": "DFT", 
		 "functional": "B3LYP", 
		 "basiset": "6-31G**", 
		 "properties": { 
			 "R2extent": 8119.1416, 
			 "electric_dipole_moment_norm": 1.47323803236, 
			 "electric_quadrupole_moment_norm": 40.984023533, 
			 "total_energy": -1275.43903248, 
			 "HOMO_LUMO_gap": 0.20358, 
			 "cosmo_polarized_energy": -25.22, 
			 "cosmo_cavitation_energy": 38.71, 
			 "cosmo_dispersion_energy": -28.23, 
			 "cosmo_repulsion_energy": 2.11, 
			 "cosmo_total_nonelectrostatic_energy": 12.59, 
			 "SMD_solvation_energy": 5.2 
		},
		"coords": [
			{
				"x": -3.6671233801,
				"y": -3.6666865703,
				"z": 0.3460643158,
				"element": "C" 
			},
			{
				"x": -3.2499940237,
				"y": -2.0383245857,
				"z": -0.3009419695,
				"element": "S" 
			},
			{
				"x": -3.9372333777,
				"y": -1.040632729,
				"z": 0.5270286812,
				"element": "O" 
			},
			{
				"x": -3.4521651766,
				"y": -2.0815766142,
				"z": -1.7537561327,
				"element": "O" 
			},
			{
				"x": -1.5914216629,
				"y": -1.9339339985,
				"z": 0.0284142675,
				"element": "N" 
			},
			{
				"x": -1.1127576155,
				"y": -0.8106131222,
				"z": 0.8601223165,
				"element": "C" 
			},
			{
				"x": -0.1975279447,
				"y": 0.1205730684,
				"z": 0.0630534561,
				"element": "C" 
			},
			{
				"x": 0.9607459873,
				"y": -0.6243982533,
				"z": -0.4504430264,
				"element": "N" 
			},
			{
				"x": 0.7547030379,
				"y": -2.058385547,
				"z": -0.6904155005,
				"element": "C" 
			},
			{
				"x": -0.6933624287,
				"y": -2.3347980879,
				"z": -1.0790173689,
				"element": "C" 
			},
			{
				"x": 2.2768989748,
				"y": -0.2194165151,
				"z": -0.3443500991,
				"element": "C" 
			},
			{
				"x": 3.1879145697,
				"y": -1.0448822511,
				"z": -0.4083636746,
				"element": "O" 
			},
			{
				"x": 2.5799342236,
				"y": 1.2398694024,
				"z": -0.1846383627,
				"element": "C" 
			},
			{
				"x": 1.8664113503,
				"y": 2.2600848378,
				"z": -0.8273219031,
				"element": "C" 
			},
			{
				"x": 2.2592441473,
				"y": 3.5920046172,
				"z": -0.7081185971,
				"element": "C" 
			},
			{
				"x": 3.3758655933,
				"y": 3.9224844789,
				"z": 0.0679896079,
				"element": "C" 
			},
			{
				"x": 3.8042166712,
				"y": 5.2049196835,
				"z": 0.2343410625,
				"element": "O" 
			},
			{
				"x": 4.1079221059,
				"y": 2.9108303683,
				"z": 0.7050586608,
				"element": "C" 
			},
			{
				"x": 3.7177203229,
				"y": 1.586983699,
				"z": 0.5634231354,
				"element": "C" 
			},
			{
				"x": -3.4788861597,
				"y": -3.6734425745,
				"z": 1.4196826792,
				"element": "H" 
			},
			{
				"x": -3.0617239905,
				"y": -4.4181967744,
				"z": -0.1625686881,
				"element": "H" 
			},
			{
				"x": -4.7256793774,
				"y": -3.8325945973,
				"z": 0.1375819538,
				"element": "H" 
			},
			{
				"x": -0.5682834235,
				"y": -1.211150526,
				"z": 1.7241452999,
				"element": "H" 
			},
			{
				"x": -1.9761105236,
				"y": -0.2570823217,
				"z": 1.231318218,
				"element": "H" 
			},
			{
				"x": 0.1485143131,
				"y": 0.9274313839,
				"z": 0.7118375674,
				"element": "H" 
			},
			{
				"x": -0.7731822568,
				"y": 0.5757371693,
				"z": -0.7545316718,
				"element": "H" 
			},
			{
				"x": 1.0360857299,
				"y": -2.6468424556,
				"z": 0.1933965233,
				"element": "H" 
			},
			{
				"x": 1.4190956866,
				"y": -2.3733185399,
				"z": -1.4979149249,
				"element": "H" 
			},
			{
				"x": -0.8091883463,
				"y": -3.4064907577,
				"z": -1.2712084821,
				"element": "H" 
			},
			{
				"x": -0.9464634727,
				"y": -1.8065241355,
				"z": -2.005264076,
				"element": "H" 
			},
			{
				"x": 1.0129912252,
				"y": 2.0193094155,
				"z": -1.4529777203,
				"element": "H" 
			},
			{
				"x": 1.7041407446,
				"y": 4.3722230539,
				"z": -1.2246116963,
				"element": "H" 
			},
			{
				"x": 3.227949686,
				"y": 5.8022556085,
				"z": -0.2603076546,
				"element": "H" 
			},
			{
				"x": 4.9782001637,
				"y": 3.1848730787,
				"z": 1.291962412,
				"element": "H" 
			},
			{
				"x": 4.2948486273,
				"y": 0.7921110916,
				"z": 1.0238313913,
				"element": "H" 
			}
		],
		 "valence_orbital": [ 
			{
				"type": "occ",
				"energy": -0.26484,
				"method": "rhf"
			},
			{
				"type": "occ",
				"energy": -0.2589,
				"method": "rhf"
			},
			{
				"type": "occ",
				"energy": -0.25302,
				"method": "rhf"
			},
			{
				"type": "occ",
				"energy": -0.24027,
				"method": "rhf"
			},
			{
				"type": "occ",
				"energy": -0.22887,
				"method": "rhf"
			},
			{
				"type": "unocc",
				"energy": -0.02529,
				"method": "rhf"
			},
			{
				"type": "unocc",
				"energy": -0.01198,
				"method": "rhf"
			},
			{
				"type": "unocc",
				"energy": 0.05293,
				"method": "rhf"
			},
			{
				"type": "unocc",
				"energy": 0.05807,
				"method": "rhf"
			},
			{
				"type": "unocc",
				"energy": 0.06159,
				"method": "rhf"
			}
		],
		"cosmo_sigma_profile": { 
			"-0.025": 0.0,
			"-0.024": 0.0,
			"-0.023": 0.0,
			"-0.022": 0.0,
			"-0.021": 0.0,
			"-0.02": 0.0,
			"-0.019": 0.0249435321747,
			"-0.018": 0.820709739569,
			"-0.017": 1.26451436441,
			"-0.016": 1.31325599447,
			"-0.015": 0.999782391661,
			"-0.014": 0.682311186028,
			"-0.013": 0.458246401474,
			"-0.012": 0.837675116344,
			"-0.011": 1.40653141574,
			"-0.01": 1.8419320864,
			"-0.009": 2.73707564967,
			"-0.008": 7.63973435697,
			"-0.007": 9.18016997784,
			"-0.006": 21.1302429839,
			"-0.005": 33.9933681121,
			"-0.004": 30.8785094709,
			"-0.003": 22.546437395,
			"-0.002": 14.5933761259,
			"-0.001": 13.7071184338,
			"0.0": 12.1097203243,
			"0.001": 12.5296257938,
			"0.002": 13.2712824999,
			"0.003": 15.8203228379,
			"0.004": 15.8057600222,
			"0.005": 8.51125959183,
			"0.006": 6.02730558007,
			"0.007": 5.47984279386,
			"0.008": 5.4041130948,
			"0.009": 6.59243629389,
			"0.01": 8.89222145212,
			"0.011": 12.6114567429,
			"0.012": 8.07537411975,
			"0.013": 2.6693253802,
			"0.014": 4.97175815,
			"0.015": 0.75086760013,
			"0.016": 0.0,
			"0.017": 0.0,
			"0.018": 0.0,
			"0.019": 0.0,
			"0.02": 0.0,
			"0.021": 0.0,
			"0.022": 0.0,
			"0.023": 0.0,
			"0.024": 0.0,
			"0.025": 0.0
		}
	}
}
