{
	 "smiles": "CNC(=O)C1=CC=CN=C1", 
	 "Tm": 377.15, 
	 "num_atms": 18, 
	 "gaussian": { 
		 "optdone": 1, 
		 "sigma_profile": "yes", 
		 "theory": "DFT", 
		 "functional": "B3LYP", 
		 "basiset": "6-31G**", 
		 "properties": { 
			 "R2extent": 1694.3968, 
			 "electric_dipole_moment_norm": 1.82479317184, 
			 "electric_quadrupole_moment_norm": 14.3368172116, 
			 "total_energy": -456.301815167, 
			 "HOMO_LUMO_gap": 0.20476, 
			 "cosmo_polarized_energy": -12.68, 
			 "cosmo_cavitation_energy": 22.16, 
			 "cosmo_dispersion_energy": -16.58, 
			 "cosmo_repulsion_energy": 1.34, 
			 "cosmo_total_nonelectrostatic_energy": 6.92, 
			 "SMD_solvation_energy": 2.91 
		},
		"coords": [
			{
				"x": 0.2547803338,
				"y": -2.1409183511,
				"z": -2.7563943316,
				"element": "C" 
			},
			{
				"x": -0.0475748161,
				"y": -1.7215089146,
				"z": -1.3988038073,
				"element": "N" 
			},
			{
				"x": 0.3098925604,
				"y": -0.4875537993,
				"z": -0.9291164363,
				"element": "C" 
			},
			{
				"x": 0.9347464629,
				"y": 0.3271365665,
				"z": -1.6030701751,
				"element": "O" 
			},
			{
				"x": -0.1036162397,
				"y": -0.1714841326,
				"z": 0.4822430658,
				"element": "C" 
			},
			{
				"x": -0.1344541552,
				"y": 1.1728697293,
				"z": 0.8704414967,
				"element": "C" 
			},
			{
				"x": -0.5113786344,
				"y": 1.490665777,
				"z": 2.1704145429,
				"element": "C" 
			},
			{
				"x": -0.834243837,
				"y": 0.4490824484,
				"z": 3.0441017632,
				"element": "C" 
			},
			{
				"x": -0.7853756825,
				"y": -0.8446674972,
				"z": 2.7037529212,
				"element": "N" 
			},
			{
				"x": -0.4232904528,
				"y": -1.1339892441,
				"z": 1.4490862507,
				"element": "C" 
			},
			{
				"x": 1.0313297321,
				"y": -1.4799541358,
				"z": -3.1412467341,
				"element": "H" 
			},
			{
				"x": 0.6163857221,
				"y": -3.1737594179,
				"z": -2.7652379913,
				"element": "H" 
			},
			{
				"x": -0.6216872949,
				"y": -2.0674892993,
				"z": -3.4120523432,
				"element": "H" 
			},
			{
				"x": -0.7045905491,
				"y": -2.2689598565,
				"z": -0.8650699541,
				"element": "H" 
			},
			{
				"x": 0.1409224779,
				"y": 1.93060835,
				"z": 0.1443372639,
				"element": "H" 
			},
			{
				"x": -0.5547376885,
				"y": 2.5216536575,
				"z": 2.5071542297,
				"element": "H" 
			},
			{
				"x": -1.1393337385,
				"y": 0.6628441842,
				"z": 4.0669872627,
				"element": "H" 
			},
			{
				"x": -0.3578742004,
				"y": -2.1967760642,
				"z": 1.2183729761,
				"element": "H" 
			}
		],
		 "valence_orbital": [ 
			{
				"type": "occ",
				"energy": -0.29188,
				"method": "rhf"
			},
			{
				"type": "occ",
				"energy": -0.27447,
				"method": "rhf"
			},
			{
				"type": "occ",
				"energy": -0.26678,
				"method": "rhf"
			},
			{
				"type": "occ",
				"energy": -0.25749,
				"method": "rhf"
			},
			{
				"type": "occ",
				"energy": -0.24981,
				"method": "rhf"
			},
			{
				"type": "unocc",
				"energy": -0.04505,
				"method": "rhf"
			},
			{
				"type": "unocc",
				"energy": -0.02892,
				"method": "rhf"
			},
			{
				"type": "unocc",
				"energy": 0.05269,
				"method": "rhf"
			},
			{
				"type": "unocc",
				"energy": 0.07711,
				"method": "rhf"
			},
			{
				"type": "unocc",
				"energy": 0.1055,
				"method": "rhf"
			}
		],
		"cosmo_sigma_profile": { 
			"-0.025": 0.0,
			"-0.024": 0.0,
			"-0.023": 0.0,
			"-0.022": 0.0,
			"-0.021": 0.0,
			"-0.02": 0.0,
			"-0.019": 0.0,
			"-0.018": 0.0,
			"-0.017": 0.0,
			"-0.016": 0.0,
			"-0.015": 0.271135154862,
			"-0.014": 1.28908533308,
			"-0.013": 1.70392736751,
			"-0.012": 0.904812573043,
			"-0.011": 1.19496749478,
			"-0.01": 1.50035586263,
			"-0.009": 1.96218953461,
			"-0.008": 1.39228874313,
			"-0.007": 6.06328523284,
			"-0.006": 9.41981496235,
			"-0.005": 12.8510035348,
			"-0.004": 13.2553802422,
			"-0.003": 12.5488784057,
			"-0.002": 14.7474458672,
			"-0.001": 14.2102502607,
			"0.0": 10.974518832,
			"0.001": 16.7727102843,
			"0.002": 13.4086458292,
			"0.003": 5.46379412274,
			"0.004": 4.90623607329,
			"0.005": 2.68539090309,
			"0.006": 2.65691011151,
			"0.007": 3.14567911847,
			"0.008": 3.50669677316,
			"0.009": 2.44265295395,
			"0.01": 1.71927672983,
			"0.011": 2.46480710182,
			"0.012": 3.1801971084,
			"0.013": 4.63437866766,
			"0.014": 4.24616450452,
			"0.015": 0.825363899251,
			"0.016": 0.654889456063,
			"0.017": 0.121574429313,
			"0.018": 0.0,
			"0.019": 0.0,
			"0.02": 0.0,
			"0.021": 0.0,
			"0.022": 0.0,
			"0.023": 0.0,
			"0.024": 0.0,
			"0.025": 0.0
		}
	}
}
