{
	 "smiles": "COC(=O)C1(CC2=C(C)C=CC=C2C(=O)O1)C(=O)OC", 
	 "Tm": 373.15, 
	 "num_atms": 34, 
	 "gaussian": { 
		 "optdone": 1, 
		 "sigma_profile": "yes", 
		 "theory": "DFT", 
		 "functional": "B3LYP", 
		 "basiset": "6-31G**", 
		 "properties": { 
			 "R2extent": 5577.4368, 
			 "electric_dipole_moment_norm": 3.27025911512, 
			 "electric_quadrupole_moment_norm": 22.6913882123, 
			 "total_energy": -993.290902646, 
			 "HOMO_LUMO_gap": 0.20149, 
			 "cosmo_polarized_energy": -17.29, 
			 "cosmo_cavitation_energy": 38.39, 
			 "cosmo_dispersion_energy": -25.91, 
			 "cosmo_repulsion_energy": 2.02, 
			 "cosmo_total_nonelectrostatic_energy": 14.49, 
			 "SMD_solvation_energy": 10.27 
		},
		"coords": [
			{
				"x": 0.9502892232,
				"y": 3.9632752178,
				"z": -3.2624608683,
				"element": "C" 
			},
			{
				"x": 0.4913748824,
				"y": 2.711778973,
				"z": -2.7147403147,
				"element": "O" 
			},
			{
				"x": 1.2172359263,
				"y": 2.2315669546,
				"z": -1.6961596047,
				"element": "C" 
			},
			{
				"x": 2.1716202041,
				"y": 2.7885426144,
				"z": -1.204193446,
				"element": "O" 
			},
			{
				"x": 0.6826306331,
				"y": 0.8579315907,
				"z": -1.2362564291,
				"element": "C" 
			},
			{
				"x": -0.8123619173,
				"y": 0.8921151698,
				"z": -0.9020142349,
				"element": "C" 
			},
			{
				"x": -1.3129701156,
				"y": -0.5151017504,
				"z": -0.6786554881,
				"element": "C" 
			},
			{
				"x": -2.3712299854,
				"y": -0.8099097257,
				"z": 0.2013149311,
				"element": "C" 
			},
			{
				"x": -3.0532607419,
				"y": 0.2765694723,
				"z": 0.999544013,
				"element": "C" 
			},
			{
				"x": -2.7758736073,
				"y": -2.1437308081,
				"z": 0.3304560073,
				"element": "C" 
			},
			{
				"x": -2.1628529528,
				"y": -3.1726637347,
				"z": -0.3900434116,
				"element": "C" 
			},
			{
				"x": -1.1232734812,
				"y": -2.8786769476,
				"z": -1.2624752229,
				"element": "C" 
			},
			{
				"x": -0.6970199881,
				"y": -1.5513800137,
				"z": -1.4005341863,
				"element": "C" 
			},
			{
				"x": 0.3935877998,
				"y": -1.2667743426,
				"z": -2.3727934963,
				"element": "C" 
			},
			{
				"x": 0.7925466453,
				"y": -2.0528294495,
				"z": -3.1988571957,
				"element": "O" 
			},
			{
				"x": 0.9544481284,
				"y": -0.0142264281,
				"z": -2.3418978142,
				"element": "O" 
			},
			{
				"x": 1.4841755341,
				"y": 0.4673788443,
				"z": 0.0291660962,
				"element": "C" 
			},
			{
				"x": 1.176652446,
				"y": 0.8533225906,
				"z": 1.1350531197,
				"element": "O" 
			},
			{
				"x": 2.5263760047,
				"y": -0.3165686976,
				"z": -0.251896165,
				"element": "O" 
			},
			{
				"x": 3.348826205,
				"y": -0.6730041032,
				"z": 0.87578734,
				"element": "C" 
			},
			{
				"x": 0.2571268428,
				"y": 4.2000203122,
				"z": -4.0686098882,
				"element": "H" 
			},
			{
				"x": 0.9366818301,
				"y": 4.7422078432,
				"z": -2.4966450294,
				"element": "H" 
			},
			{
				"x": 1.9672030176,
				"y": 3.8566813412,
				"z": -3.6464284455,
				"element": "H" 
			},
			{
				"x": -0.9490117801,
				"y": 1.5108056406,
				"z": -0.0137155488,
				"element": "H" 
			},
			{
				"x": -1.3445281283,
				"y": 1.3688035234,
				"z": -1.7327665752,
				"element": "H" 
			},
			{
				"x": -2.3530334127,
				"y": 0.7673401545,
				"z": 1.6857427753,
				"element": "H" 
			},
			{
				"x": -3.8709107955,
				"y": -0.134264762,
				"z": 1.597001374,
				"element": "H" 
			},
			{
				"x": -3.473115544,
				"y": 1.0559681255,
				"z": 0.3534242276,
				"element": "H" 
			},
			{
				"x": -3.5885975005,
				"y": -2.3802390419,
				"z": 1.0125841536,
				"element": "H" 
			},
			{
				"x": -2.5031634993,
				"y": -4.1965884855,
				"z": -0.2687707397,
				"element": "H" 
			},
			{
				"x": -0.630561549,
				"y": -3.6470445599,
				"z": -1.8479037535,
				"element": "H" 
			},
			{
				"x": 4.1315125566,
				"y": -1.3142952136,
				"z": 0.4729438652,
				"element": "H" 
			},
			{
				"x": 3.776385513,
				"y": 0.2249548017,
				"z": 1.3273229727,
				"element": "H" 
			},
			{
				"x": 2.7578916068,
				"y": -1.2051651058,
				"z": 1.6247769822,
				"element": "H" 
			}
		],
		 "valence_orbital": [ 
			{
				"type": "occ",
				"energy": -0.29367,
				"method": "rhf"
			},
			{
				"type": "occ",
				"energy": -0.27396,
				"method": "rhf"
			},
			{
				"type": "occ",
				"energy": -0.27047,
				"method": "rhf"
			},
			{
				"type": "occ",
				"energy": -0.25985,
				"method": "rhf"
			},
			{
				"type": "occ",
				"energy": -0.25247,
				"method": "rhf"
			},
			{
				"type": "unocc",
				"energy": -0.05098,
				"method": "rhf"
			},
			{
				"type": "unocc",
				"energy": -0.02232,
				"method": "rhf"
			},
			{
				"type": "unocc",
				"energy": -0.00894,
				"method": "rhf"
			},
			{
				"type": "unocc",
				"energy": 0.00175,
				"method": "rhf"
			},
			{
				"type": "unocc",
				"energy": 0.05358,
				"method": "rhf"
			}
		],
		"cosmo_sigma_profile": { 
			"-0.025": 0.0,
			"-0.024": 0.0,
			"-0.023": 0.0,
			"-0.022": 0.0,
			"-0.021": 0.0,
			"-0.02": 0.0,
			"-0.019": 0.0,
			"-0.018": 0.0,
			"-0.017": 0.0,
			"-0.016": 0.0,
			"-0.015": 0.0,
			"-0.014": 0.0,
			"-0.013": 0.0,
			"-0.012": 0.0,
			"-0.011": 0.0,
			"-0.01": 0.0,
			"-0.009": 0.0,
			"-0.008": 0.441930380507,
			"-0.007": 10.1708689211,
			"-0.006": 25.170068574,
			"-0.005": 31.4589973423,
			"-0.004": 35.0980960203,
			"-0.003": 24.2326882051,
			"-0.002": 19.1574057484,
			"-0.001": 20.2994570171,
			"0.0": 19.2535951223,
			"0.001": 14.564180923,
			"0.002": 16.6769244562,
			"0.003": 16.4728480839,
			"0.004": 10.7173840419,
			"0.005": 7.37826015171,
			"0.006": 6.86360019267,
			"0.007": 7.43530783148,
			"0.008": 8.24385078011,
			"0.009": 7.31540376869,
			"0.01": 10.9127014198,
			"0.011": 9.39503507644,
			"0.012": 3.00677429918,
			"0.013": 0.454067305761,
			"0.014": 0.0,
			"0.015": 0.0,
			"0.016": 0.0,
			"0.017": 0.0,
			"0.018": 0.0,
			"0.019": 0.0,
			"0.02": 0.0,
			"0.021": 0.0,
			"0.022": 0.0,
			"0.023": 0.0,
			"0.024": 0.0,
			"0.025": 0.0
		}
	}
}
