{
	 "smiles": "COC1=CC=C(C=C1)C1=CC=C(C=C1)S(Cl)(=O)=O", 
	 "Tm": 377.15, 
	 "num_atms": 29, 
	 "gaussian": { 
		 "optdone": 1, 
		 "sigma_profile": "yes", 
		 "theory": "DFT", 
		 "functional": "B3LYP", 
		 "basiset": "6-31G**", 
		 "properties": { 
			 "R2extent": 10944.1653, 
			 "electric_dipole_moment_norm": 7.95746274261, 
			 "electric_quadrupole_moment_norm": 25.6499243324, 
			 "total_energy": -1585.99319654, 
			 "HOMO_LUMO_gap": 0.14158, 
			 "cosmo_polarized_energy": -12.42, 
			 "cosmo_cavitation_energy": 36.99, 
			 "cosmo_dispersion_energy": -27.43, 
			 "cosmo_repulsion_energy": 2.05, 
			 "cosmo_total_nonelectrostatic_energy": 11.62, 
			 "SMD_solvation_energy": 5.53 
		},
		"coords": [
			{
				"x": 3.8012192065,
				"y": 1.8010965246,
				"z": -3.1416717306,
				"element": "C" 
			},
			{
				"x": 2.8666698702,
				"y": 0.7452995104,
				"z": -3.3167890185,
				"element": "O" 
			},
			{
				"x": 2.0898307397,
				"y": 0.3856590871,
				"z": -2.2600740972,
				"element": "C" 
			},
			{
				"x": 1.192542677,
				"y": -0.6691738163,
				"z": -2.4925228538,
				"element": "C" 
			},
			{
				"x": 0.3546862229,
				"y": -1.108995373,
				"z": -1.4798128223,
				"element": "C" 
			},
			{
				"x": 0.3815619347,
				"y": -0.5213074581,
				"z": -0.1991350126,
				"element": "C" 
			},
			{
				"x": 1.285958269,
				"y": 0.5289084636,
				"z": 0.014656382,
				"element": "C" 
			},
			{
				"x": 2.1319415598,
				"y": 0.9865603954,
				"z": -0.995406843,
				"element": "C" 
			},
			{
				"x": -0.5140990616,
				"y": -0.9940726127,
				"z": 0.8802776725,
				"element": "C" 
			},
			{
				"x": -0.0830098435,
				"y": -1.0154100115,
				"z": 2.221313474,
				"element": "C" 
			},
			{
				"x": -0.9188717166,
				"y": -1.4515988262,
				"z": 3.2429717507,
				"element": "C" 
			},
			{
				"x": -2.2054360504,
				"y": -1.8841180355,
				"z": 2.9161575153,
				"element": "C" 
			},
			{
				"x": -2.6698759674,
				"y": -1.8828480056,
				"z": 1.5997005185,
				"element": "C" 
			},
			{
				"x": -1.8200383144,
				"y": -1.4373176789,
				"z": 0.5934916041,
				"element": "C" 
			},
			{
				"x": -3.2787148784,
				"y": -2.4638859659,
				"z": 4.2120299335,
				"element": "S" 
			},
			{
				"x": -4.2676230445,
				"y": -0.6548898471,
				"z": 4.7943006105,
				"element": "Cl" 
			},
			{
				"x": -2.4802953807,
				"y": -2.8685544934,
				"z": 5.3629425105,
				"element": "O" 
			},
			{
				"x": -4.3145561394,
				"y": -3.3178241189,
				"z": 3.6432501355,
				"element": "O" 
			},
			{
				"x": 3.3016454934,
				"y": 2.7439934597,
				"z": -2.8860713498,
				"element": "H" 
			},
			{
				"x": 4.3104844337,
				"y": 1.9128659704,
				"z": -4.0996838088,
				"element": "H" 
			},
			{
				"x": 4.5391611911,
				"y": 1.5620351078,
				"z": -2.3656396092,
				"element": "H" 
			},
			{
				"x": 1.1806446123,
				"y": -1.1317218805,
				"z": -3.4738173682,
				"element": "H" 
			},
			{
				"x": -0.3118331296,
				"y": -1.9437961195,
				"z": -1.6744062868,
				"element": "H" 
			},
			{
				"x": 1.3132725638,
				"y": 1.0255027155,
				"z": 0.9800299576,
				"element": "H" 
			},
			{
				"x": 2.8052303815,
				"y": 1.8100825869,
				"z": -0.7901917455,
				"element": "H" 
			},
			{
				"x": 0.9313077528,
				"y": -0.7143724503,
				"z": 2.4616057416,
				"element": "H" 
			},
			{
				"x": -0.5780174383,
				"y": -1.4809002678,
				"z": 4.2717986866,
				"element": "H" 
			},
			{
				"x": -3.674527384,
				"y": -2.2226643441,
				"z": 1.3744820632,
				"element": "H" 
			},
			{
				"x": -2.1822585596,
				"y": -1.4094525162,
				"z": -0.4288860097,
				"element": "H" 
			}
		],
		 "valence_orbital": [ 
			{
				"type": "occ",
				"energy": -0.30651,
				"method": "rhf"
			},
			{
				"type": "occ",
				"energy": -0.28702,
				"method": "rhf"
			},
			{
				"type": "occ",
				"energy": -0.28266,
				"method": "rhf"
			},
			{
				"type": "occ",
				"energy": -0.26937,
				"method": "rhf"
			},
			{
				"type": "occ",
				"energy": -0.22819,
				"method": "rhf"
			},
			{
				"type": "unocc",
				"energy": -0.08661,
				"method": "rhf"
			},
			{
				"type": "unocc",
				"energy": -0.0478,
				"method": "rhf"
			},
			{
				"type": "unocc",
				"energy": -0.03294,
				"method": "rhf"
			},
			{
				"type": "unocc",
				"energy": -0.01946,
				"method": "rhf"
			},
			{
				"type": "unocc",
				"energy": 0.00748,
				"method": "rhf"
			}
		],
		"cosmo_sigma_profile": { 
			"-0.025": 0.0,
			"-0.024": 0.0,
			"-0.023": 0.0,
			"-0.022": 0.0,
			"-0.021": 0.0,
			"-0.02": 0.0,
			"-0.019": 0.0,
			"-0.018": 0.0,
			"-0.017": 0.0,
			"-0.016": 0.0,
			"-0.015": 0.0,
			"-0.014": 0.0,
			"-0.013": 0.0,
			"-0.012": 0.0,
			"-0.011": 0.0,
			"-0.01": 0.0,
			"-0.009": 0.215566782166,
			"-0.008": 3.14495687587,
			"-0.007": 11.8765822373,
			"-0.006": 21.3187617021,
			"-0.005": 23.5201673029,
			"-0.004": 21.1984732002,
			"-0.003": 20.6292645051,
			"-0.002": 15.107357445,
			"-0.001": 17.8146887719,
			"0.0": 20.5909080252,
			"0.001": 27.708240131,
			"0.002": 25.6826821106,
			"0.003": 23.6807922138,
			"0.004": 25.5852402283,
			"0.005": 10.245047238,
			"0.006": 4.75924844979,
			"0.007": 6.1158788868,
			"0.008": 11.5490568909,
			"0.009": 7.290042305,
			"0.01": 1.33706618023,
			"0.011": 0.0518090219555,
			"0.012": 0.0,
			"0.013": 0.0,
			"0.014": 0.0,
			"0.015": 0.0,
			"0.016": 0.0,
			"0.017": 0.0,
			"0.018": 0.0,
			"0.019": 0.0,
			"0.02": 0.0,
			"0.021": 0.0,
			"0.022": 0.0,
			"0.023": 0.0,
			"0.024": 0.0,
			"0.025": 0.0
		}
	}
}
