{
	 "smiles": "COC1=C2C(=O)C=C(COC3OC(CO)C(O)C(O)C3O)OC2=CC2=C1C=CO2", 
	 "Tm": 452.15, 
	 "num_atms": 49, 
	 "gaussian": { 
		 "optdone": 1, 
		 "sigma_profile": "yes", 
		 "theory": "DFT", 
		 "functional": "B3LYP", 
		 "basiset": "6-31G**", 
		 "properties": { 
			 "R2extent": 15690.557, 
			 "electric_dipole_moment_norm": 2.77060764093, 
			 "electric_quadrupole_moment_norm": 27.6125736166, 
			 "total_energy": -1488.21863589, 
			 "HOMO_LUMO_gap": 0.16386, 
			 "cosmo_polarized_energy": -29.37, 
			 "cosmo_cavitation_energy": 51.27, 
			 "cosmo_dispersion_energy": -35.81, 
			 "cosmo_repulsion_energy": 2.65, 
			 "cosmo_total_nonelectrostatic_energy": 18.11, 
			 "SMD_solvation_energy": 10.33 
		},
		"coords": [
			{
				"x": 3.3983461755,
				"y": -0.1002204143,
				"z": -3.311816117,
				"element": "C" 
			},
			{
				"x": 3.3813241583,
				"y": 0.8872693299,
				"z": -2.2698902999,
				"element": "O" 
			},
			{
				"x": 2.1994682528,
				"y": 1.5101289058,
				"z": -2.0112360122,
				"element": "C" 
			},
			{
				"x": 1.0786709154,
				"y": 0.8995034803,
				"z": -1.3853415597,
				"element": "C" 
			},
			{
				"x": 1.0695012001,
				"y": -0.5067024916,
				"z": -0.8960931999,
				"element": "C" 
			},
			{
				"x": 2.0137486641,
				"y": -1.2867785832,
				"z": -1.0265414265,
				"element": "O" 
			},
			{
				"x": -0.1624259059,
				"y": -0.9192175305,
				"z": -0.2220525566,
				"element": "C" 
			},
			{
				"x": -1.2053240185,
				"y": -0.0808254812,
				"z": -0.0881236051,
				"element": "C" 
			},
			{
				"x": -2.5189998539,
				"y": -0.3832306654,
				"z": 0.5804687586,
				"element": "C" 
			},
			{
				"x": -2.6712355472,
				"y": -1.7839569508,
				"z": 0.7130255494,
				"element": "O" 
			},
			{
				"x": -3.4913308769,
				"y": -2.1956342538,
				"z": 1.7926464888,
				"element": "C" 
			},
			{
				"x": -2.8625128191,
				"y": -1.9862045515,
				"z": 3.0409719498,
				"element": "O" 
			},
			{
				"x": -2.2584286014,
				"y": -3.1260197833,
				"z": 3.6859953369,
				"element": "C" 
			},
			{
				"x": -1.2997758201,
				"y": -2.5341995315,
				"z": 4.7168131356,
				"element": "C" 
			},
			{
				"x": -0.2674945726,
				"y": -1.7622112373,
				"z": 4.102693679,
				"element": "O" 
			},
			{
				"x": -1.6006122256,
				"y": -4.0972413908,
				"z": 2.6949870417,
				"element": "C" 
			},
			{
				"x": -0.5083029263,
				"y": -3.5387226658,
				"z": 1.991201466,
				"element": "O" 
			},
			{
				"x": -2.6376115846,
				"y": -4.6017138082,
				"z": 1.6575564779,
				"element": "C" 
			},
			{
				"x": -3.1820277019,
				"y": -5.8616091957,
				"z": 2.0325722188,
				"element": "O" 
			},
			{
				"x": -3.8499609666,
				"y": -3.6600172396,
				"z": 1.5209545437,
				"element": "C" 
			},
			{
				"x": -4.4985904403,
				"y": -3.7683797456,
				"z": 0.2714371198,
				"element": "O" 
			},
			{
				"x": -1.1941729717,
				"y": 1.200820493,
				"z": -0.5348667218,
				"element": "O" 
			},
			{
				"x": -0.0669157177,
				"y": 1.7095761232,
				"z": -1.1396149765,
				"element": "C" 
			},
			{
				"x": -0.1638288914,
				"y": 3.0596506796,
				"z": -1.4712568916,
				"element": "C" 
			},
			{
				"x": 0.9627897627,
				"y": 3.6050958937,
				"z": -2.0607604798,
				"element": "C" 
			},
			{
				"x": 2.1310222449,
				"y": 2.870369742,
				"z": -2.3368784869,
				"element": "C" 
			},
			{
				"x": 3.0448506911,
				"y": 3.8058862977,
				"z": -2.9484961726,
				"element": "C" 
			},
			{
				"x": 2.3862717122,
				"y": 4.986688485,
				"z": -2.9963706888,
				"element": "C" 
			},
			{
				"x": 1.1130462943,
				"y": 4.8973610211,
				"z": -2.4656673151,
				"element": "O" 
			},
			{
				"x": 2.8179158938,
				"y": -0.9775588457,
				"z": -3.0245578174,
				"element": "H" 
			},
			{
				"x": 4.4466571364,
				"y": -0.3790532813,
				"z": -3.4324940262,
				"element": "H" 
			},
			{
				"x": 3.0264648607,
				"y": 0.3294325801,
				"z": -4.2503752376,
				"element": "H" 
			},
			{
				"x": -0.2280599025,
				"y": -1.9262304437,
				"z": 0.1728283677,
				"element": "H" 
			},
			{
				"x": -3.3352018094,
				"y": 0.0495814867,
				"z": -0.0180354485,
				"element": "H" 
			},
			{
				"x": -2.5396760131,
				"y": 0.1074733603,
				"z": 1.5640679053,
				"element": "H" 
			},
			{
				"x": -4.40429937,
				"y": -1.5850286704,
				"z": 1.8041863425,
				"element": "H" 
			},
			{
				"x": -3.0352610253,
				"y": -3.6912058375,
				"z": 4.2244300415,
				"element": "H" 
			},
			{
				"x": -0.8044178185,
				"y": -3.3369584808,
				"z": 5.2708733198,
				"element": "H" 
			},
			{
				"x": -1.8674894175,
				"y": -1.9234348743,
				"z": 5.4318758569,
				"element": "H" 
			},
			{
				"x": -0.7197893899,
				"y": -1.0778410149,
				"z": 3.587059506,
				"element": "H" 
			},
			{
				"x": -1.2823019029,
				"y": -4.9749134112,
				"z": 3.2853383886,
				"element": "H" 
			},
			{
				"x": -0.0310930741,
				"y": -2.9527257572,
				"z": 2.6048134619,
				"element": "H" 
			},
			{
				"x": -2.1174337929,
				"y": -4.6543157619,
				"z": 0.6925411037,
				"element": "H" 
			},
			{
				"x": -2.5107589767,
				"y": -6.5379774064,
				"z": 1.8750542027,
				"element": "H" 
			},
			{
				"x": -4.5797686295,
				"y": -3.9732606114,
				"z": 2.2757212741,
				"element": "H" 
			},
			{
				"x": -3.9249287944,
				"y": -3.3154569628,
				"z": -0.364683771,
				"element": "H" 
			},
			{
				"x": -1.0633097746,
				"y": 3.6242921167,
				"z": -1.2620836408,
				"element": "H" 
			},
			{
				"x": 4.0490629704,
				"y": 3.6058075438,
				"z": -3.2891919358,
				"element": "H" 
			},
			{
				"x": 2.6581002005,
				"y": 5.9656093409,
				"z": -3.3601851494,
				"element": "H" 
			}
		],
		 "valence_orbital": [ 
			{
				"type": "occ",
				"energy": -0.26116,
				"method": "rhf"
			},
			{
				"type": "occ",
				"energy": -0.25618,
				"method": "rhf"
			},
			{
				"type": "occ",
				"energy": -0.24582,
				"method": "rhf"
			},
			{
				"type": "occ",
				"energy": -0.23294,
				"method": "rhf"
			},
			{
				"type": "occ",
				"energy": -0.21425,
				"method": "rhf"
			},
			{
				"type": "unocc",
				"energy": -0.05039,
				"method": "rhf"
			},
			{
				"type": "unocc",
				"energy": -0.01729,
				"method": "rhf"
			},
			{
				"type": "unocc",
				"energy": -0.00212,
				"method": "rhf"
			},
			{
				"type": "unocc",
				"energy": 0.04314,
				"method": "rhf"
			},
			{
				"type": "unocc",
				"energy": 0.05358,
				"method": "rhf"
			}
		],
		"cosmo_sigma_profile": { 
			"-0.025": 0.0,
			"-0.024": 0.0,
			"-0.023": 0.0,
			"-0.022": 0.0,
			"-0.021": 0.0,
			"-0.02": 0.0,
			"-0.019": 0.0,
			"-0.018": 0.0,
			"-0.017": 0.0254147460413,
			"-0.016": 0.716914445547,
			"-0.015": 1.42912898599,
			"-0.014": 0.878943334429,
			"-0.013": 1.56866032668,
			"-0.012": 2.25100932451,
			"-0.011": 2.1815864713,
			"-0.01": 2.67732119798,
			"-0.009": 4.43524265244,
			"-0.008": 9.37878541963,
			"-0.007": 13.2285652489,
			"-0.006": 29.8645617048,
			"-0.005": 30.9535450433,
			"-0.004": 27.1759692986,
			"-0.003": 28.1995593239,
			"-0.002": 26.7151171041,
			"-0.001": 27.0910714228,
			"0.0": 27.5599383697,
			"0.001": 33.3847377078,
			"0.002": 22.9050849666,
			"0.003": 16.4426307786,
			"0.004": 14.4705217625,
			"0.005": 9.96614298324,
			"0.006": 7.87104657164,
			"0.007": 8.70716956546,
			"0.008": 8.51264145197,
			"0.009": 7.45774310773,
			"0.01": 6.53431505304,
			"0.011": 8.79165529354,
			"0.012": 6.97754003674,
			"0.013": 10.4250527822,
			"0.014": 5.81961324523,
			"0.015": 0.510717687033,
			"0.016": 0.0,
			"0.017": 0.0,
			"0.018": 0.0,
			"0.019": 0.0,
			"0.02": 0.0,
			"0.021": 0.0,
			"0.022": 0.0,
			"0.023": 0.0,
			"0.024": 0.0,
			"0.025": 0.0
		}
	}
}
