{
	 "smiles": "ClCC(=O)NC1=NC2=C(CCCC2)S1", 
	 "Tm": 418.15, 
	 "num_atms": 25, 
	 "gaussian": { 
		 "optdone": 1, 
		 "sigma_profile": "yes", 
		 "theory": "DFT", 
		 "functional": "B3LYP", 
		 "basiset": "6-31G**", 
		 "properties": { 
			 "R2extent": 5738.5385, 
			 "electric_dipole_moment_norm": 4.4011957148, 
			 "electric_quadrupole_moment_norm": 13.4117143274, 
			 "total_energy": -1392.70944374, 
			 "HOMO_LUMO_gap": 0.17255, 
			 "cosmo_polarized_energy": -11.09, 
			 "cosmo_cavitation_energy": 30.8, 
			 "cosmo_dispersion_energy": -23.56, 
			 "cosmo_repulsion_energy": 1.84, 
			 "cosmo_total_nonelectrostatic_energy": 9.08, 
			 "SMD_solvation_energy": 3.07 
		},
		"coords": [
			{
				"x": 2.8278696576,
				"y": -0.920322324,
				"z": 4.5130050649,
				"element": "Cl" 
			},
			{
				"x": 1.0676294363,
				"y": -1.2710876546,
				"z": 4.2564964394,
				"element": "C" 
			},
			{
				"x": 0.2970079345,
				"y": 0.002666345,
				"z": 3.9407068098,
				"element": "C" 
			},
			{
				"x": -0.2911644303,
				"y": 0.6099677955,
				"z": 4.8193523698,
				"element": "O" 
			},
			{
				"x": 0.2594658382,
				"y": 0.4710196749,
				"z": 2.6382231924,
				"element": "N" 
			},
			{
				"x": 0.6712467814,
				"y": -0.017047278,
				"z": 1.3998274633,
				"element": "C" 
			},
			{
				"x": 0.1096913446,
				"y": 0.4359515217,
				"z": 0.3155352318,
				"element": "N" 
			},
			{
				"x": 0.6814742015,
				"y": -0.1244219815,
				"z": -0.8089494799,
				"element": "C" 
			},
			{
				"x": 1.6952212731,
				"y": -1.013851048,
				"z": -0.5926385363,
				"element": "C" 
			},
			{
				"x": 2.4467215272,
				"y": -1.7656022084,
				"z": -1.6548499909,
				"element": "C" 
			},
			{
				"x": 2.1873224342,
				"y": -1.1107825161,
				"z": -3.0271711494,
				"element": "C" 
			},
			{
				"x": 0.6992903935,
				"y": -0.7821015131,
				"z": -3.228429968,
				"element": "C" 
			},
			{
				"x": 0.1958492612,
				"y": 0.2341025699,
				"z": -2.1876732747,
				"element": "C" 
			},
			{
				"x": 1.9897378428,
				"y": -1.1568010248,
				"z": 1.12894642,
				"element": "S" 
			},
			{
				"x": 0.9973442455,
				"y": -2.0278202093,
				"z": 3.474322098,
				"element": "H" 
			},
			{
				"x": 0.678496589,
				"y": -1.653311964,
				"z": 5.1978023453,
				"element": "H" 
			},
			{
				"x": -0.3460743456,
				"y": 1.2806241243,
				"z": 2.5433918487,
				"element": "H" 
			},
			{
				"x": 3.5223829175,
				"y": -1.7798345363,
				"z": -1.442280684,
				"element": "H" 
			},
			{
				"x": 2.1233212314,
				"y": -2.8163771207,
				"z": -1.6744461125,
				"element": "H" 
			},
			{
				"x": 2.5426334028,
				"y": -1.7774422191,
				"z": -3.8204004157,
				"element": "H" 
			},
			{
				"x": 2.7751175215,
				"y": -0.1868654823,
				"z": -3.1005980454,
				"element": "H" 
			},
			{
				"x": 0.1129284058,
				"y": -1.706737928,
				"z": -3.1451181865,
				"element": "H" 
			},
			{
				"x": 0.5313116693,
				"y": -0.3934852407,
				"z": -4.238578509,
				"element": "H" 
			},
			{
				"x": -0.8987376037,
				"y": 0.2840295884,
				"z": -2.1864930088,
				"element": "H" 
			},
			{
				"x": 0.5460124706,
				"y": 1.2444306292,
				"z": -2.4425819222,
				"element": "H" 
			}
		],
		 "valence_orbital": [ 
			{
				"type": "occ",
				"energy": -0.30924,
				"method": "rhf"
			},
			{
				"type": "occ",
				"energy": -0.28661,
				"method": "rhf"
			},
			{
				"type": "occ",
				"energy": -0.27997,
				"method": "rhf"
			},
			{
				"type": "occ",
				"energy": -0.27301,
				"method": "rhf"
			},
			{
				"type": "occ",
				"energy": -0.22042,
				"method": "rhf"
			},
			{
				"type": "unocc",
				"energy": -0.04787,
				"method": "rhf"
			},
			{
				"type": "unocc",
				"energy": -0.01016,
				"method": "rhf"
			},
			{
				"type": "unocc",
				"energy": 0.00592,
				"method": "rhf"
			},
			{
				"type": "unocc",
				"energy": 0.03945,
				"method": "rhf"
			},
			{
				"type": "unocc",
				"energy": 0.06588,
				"method": "rhf"
			}
		],
		"cosmo_sigma_profile": { 
			"-0.025": 0.0,
			"-0.024": 0.0,
			"-0.023": 0.0,
			"-0.022": 0.0,
			"-0.021": 0.0,
			"-0.02": 0.0,
			"-0.019": 0.0,
			"-0.018": 0.0,
			"-0.017": 0.0,
			"-0.016": 0.0254585468872,
			"-0.015": 0.523085773591,
			"-0.014": 0.706748762841,
			"-0.013": 0.721518832368,
			"-0.012": 0.434226423209,
			"-0.011": 0.831775503941,
			"-0.01": 1.29262277968,
			"-0.009": 3.72230849371,
			"-0.008": 4.57623816197,
			"-0.007": 6.22900318642,
			"-0.006": 5.20288680939,
			"-0.005": 6.09757222968,
			"-0.004": 13.3415753628,
			"-0.003": 24.2522804844,
			"-0.002": 30.5498390236,
			"-0.001": 29.3108392009,
			"0.0": 24.879108957,
			"0.001": 17.0231139635,
			"0.002": 14.7724908904,
			"0.003": 13.3997563042,
			"0.004": 12.8662394206,
			"0.005": 10.5594472267,
			"0.006": 2.80844936587,
			"0.007": 2.8982962453,
			"0.008": 2.41187547806,
			"0.009": 2.69222248365,
			"0.01": 2.88049742431,
			"0.011": 4.72035496933,
			"0.012": 5.48514884455,
			"0.013": 1.32340012772,
			"0.014": 0.585255408294,
			"0.015": 0.058592058014,
			"0.016": 0.0,
			"0.017": 0.0,
			"0.018": 0.0,
			"0.019": 0.0,
			"0.02": 0.0,
			"0.021": 0.0,
			"0.022": 0.0,
			"0.023": 0.0,
			"0.024": 0.0,
			"0.025": 0.0
		}
	}
}
