{
	 "smiles": "CCCC1OC1(CC)C(N)=O", 
	 "Tm": 363.15, 
	 "num_atms": 26, 
	 "gaussian": { 
		 "optdone": 1, 
		 "sigma_profile": "yes", 
		 "theory": "DFT", 
		 "functional": "B3LYP", 
		 "basiset": "6-31G**", 
		 "properties": { 
			 "R2extent": 2546.6414, 
			 "electric_dipole_moment_norm": 2.49524661306, 
			 "electric_quadrupole_moment_norm": 11.9003039171, 
			 "total_energy": -519.091523531, 
			 "HOMO_LUMO_gap": 0.26111, 
			 "cosmo_polarized_energy": -11.17, 
			 "cosmo_cavitation_energy": 28.36, 
			 "cosmo_dispersion_energy": -20.13, 
			 "cosmo_repulsion_energy": 1.69, 
			 "cosmo_total_nonelectrostatic_energy": 9.91, 
			 "SMD_solvation_energy": 5.32 
		},
		"coords": [
			{
				"x": -0.3474515612,
				"y": 0.73105376,
				"z": -3.8245006523,
				"element": "C" 
			},
			{
				"x": -0.6883920958,
				"y": 0.0598185257,
				"z": -2.4910655872,
				"element": "C" 
			},
			{
				"x": 0.2111358656,
				"y": 0.5337308038,
				"z": -1.3376380722,
				"element": "C" 
			},
			{
				"x": -0.1308458643,
				"y": -0.1526056876,
				"z": -0.0371815894,
				"element": "C" 
			},
			{
				"x": -1.316820796,
				"y": 0.2894845175,
				"z": 0.653900032,
				"element": "O" 
			},
			{
				"x": -0.0387117359,
				"y": 0.4556903513,
				"z": 1.3143257319,
				"element": "C" 
			},
			{
				"x": 0.4315066041,
				"y": 1.8708350197,
				"z": 1.5841578224,
				"element": "C" 
			},
			{
				"x": -0.4430496061,
				"y": 2.5849104821,
				"z": 2.6234002453,
				"element": "C" 
			},
			{
				"x": 0.1910104814,
				"y": -0.5080364134,
				"z": 2.475032709,
				"element": "C" 
			},
			{
				"x": -0.7836216861,
				"y": -1.4470200672,
				"z": 2.6158860461,
				"element": "N" 
			},
			{
				"x": 1.1884140343,
				"y": -0.4338613696,
				"z": 3.1812132204,
				"element": "O" 
			},
			{
				"x": -0.4586576009,
				"y": 1.8193617116,
				"z": -3.7603772536,
				"element": "H" 
			},
			{
				"x": -1.0032363156,
				"y": 0.3771346459,
				"z": -4.6262750591,
				"element": "H" 
			},
			{
				"x": 0.6861734722,
				"y": 0.5213998979,
				"z": -4.1227294428,
				"element": "H" 
			},
			{
				"x": -0.6020837016,
				"y": -1.0301942388,
				"z": -2.5949238205,
				"element": "H" 
			},
			{
				"x": -1.7333961736,
				"y": 0.2627809695,
				"z": -2.2272001031,
				"element": "H" 
			},
			{
				"x": 0.1207126157,
				"y": 1.618729146,
				"z": -1.2281794995,
				"element": "H" 
			},
			{
				"x": 1.2627966166,
				"y": 0.320533561,
				"z": -1.5749716246,
				"element": "H" 
			},
			{
				"x": -0.0441603866,
				"y": -1.2421458599,
				"z": -0.0744760999,
				"element": "H" 
			},
			{
				"x": 0.4413701164,
				"y": 2.4431137242,
				"z": 0.6533018253,
				"element": "H" 
			},
			{
				"x": 1.462383876,
				"y": 1.8022431688,
				"z": 1.9453444806,
				"element": "H" 
			},
			{
				"x": -0.4107014233,
				"y": 2.0673947065,
				"z": 3.5871482249,
				"element": "H" 
			},
			{
				"x": -1.4846681834,
				"y": 2.6294319717,
				"z": 2.2902286529,
				"element": "H" 
			},
			{
				"x": -0.0931410449,
				"y": 3.6090763714,
				"z": 2.7841444485,
				"element": "H" 
			},
			{
				"x": -0.7277047676,
				"y": -2.0851778728,
				"z": 3.3940944617,
				"element": "H" 
			},
			{
				"x": -1.6412607392,
				"y": -1.3429818251,
				"z": 2.0941409031,
				"element": "H" 
			}
		],
		 "valence_orbital": [ 
			{
				"type": "occ",
				"energy": -0.33246,
				"method": "rhf"
			},
			{
				"type": "occ",
				"energy": -0.29456,
				"method": "rhf"
			},
			{
				"type": "occ",
				"energy": -0.28916,
				"method": "rhf"
			},
			{
				"type": "occ",
				"energy": -0.26598,
				"method": "rhf"
			},
			{
				"type": "occ",
				"energy": -0.2411,
				"method": "rhf"
			},
			{
				"type": "unocc",
				"energy": 0.02001,
				"method": "rhf"
			},
			{
				"type": "unocc",
				"energy": 0.08445,
				"method": "rhf"
			},
			{
				"type": "unocc",
				"energy": 0.09197,
				"method": "rhf"
			},
			{
				"type": "unocc",
				"energy": 0.10314,
				"method": "rhf"
			},
			{
				"type": "unocc",
				"energy": 0.11214,
				"method": "rhf"
			}
		],
		"cosmo_sigma_profile": { 
			"-0.025": 0.0,
			"-0.024": 0.0,
			"-0.023": 0.0,
			"-0.022": 0.0,
			"-0.021": 0.0,
			"-0.02": 0.0,
			"-0.019": 0.0,
			"-0.018": 0.0,
			"-0.017": 0.0,
			"-0.016": 0.0,
			"-0.015": 0.0,
			"-0.014": 1.0398132659,
			"-0.013": 1.18750218375,
			"-0.012": 1.87703258425,
			"-0.011": 1.42583861277,
			"-0.01": 1.91009487406,
			"-0.009": 2.5718132545,
			"-0.008": 1.32949975392,
			"-0.007": 1.45857069255,
			"-0.006": 2.61639320657,
			"-0.005": 5.95903030975,
			"-0.004": 11.0467970263,
			"-0.003": 22.9381093581,
			"-0.002": 29.863179199,
			"-0.001": 32.2618350688,
			"0.0": 29.3847751779,
			"0.001": 22.4348603469,
			"0.002": 9.47000781094,
			"0.003": 5.85581463502,
			"0.004": 4.23704587793,
			"0.005": 3.85274984534,
			"0.006": 2.60010363502,
			"0.007": 2.61514415784,
			"0.008": 2.927868164,
			"0.009": 2.19726308613,
			"0.01": 3.10272048337,
			"0.011": 2.83561630797,
			"0.012": 1.75466940468,
			"0.013": 3.88409770616,
			"0.014": 4.89774709496,
			"0.015": 0.475806288702,
			"0.016": 0.0,
			"0.017": 0.0,
			"0.018": 0.0,
			"0.019": 0.0,
			"0.02": 0.0,
			"0.021": 0.0,
			"0.022": 0.0,
			"0.023": 0.0,
			"0.024": 0.0,
			"0.025": 0.0
		}
	}
}
