{
	 "smiles": "OC1(C#C)C2=CC=CC=C2C2=C1C=CC=C2", 
	 "Tm": 382.65, 
	 "num_atms": 26, 
	 "gaussian": { 
		 "optdone": 1, 
		 "sigma_profile": "yes", 
		 "theory": "DFT", 
		 "functional": "B3LYP", 
		 "basiset": "6-31G**", 
		 "properties": { 
			 "R2extent": 3345.7407, 
			 "electric_dipole_moment_norm": 1.74474653173, 
			 "electric_quadrupole_moment_norm": 6.95718331295, 
			 "total_energy": -652.767322803, 
			 "HOMO_LUMO_gap": 0.17907, 
			 "cosmo_polarized_energy": -10.93, 
			 "cosmo_cavitation_energy": 30.96, 
			 "cosmo_dispersion_energy": -21.33, 
			 "cosmo_repulsion_energy": 1.63, 
			 "cosmo_total_nonelectrostatic_energy": 11.26, 
			 "SMD_solvation_energy": 6.28 
		},
		"coords": [
			{
				"x": 2.5150368181,
				"y": 0.6459692786,
				"z": 0.0800429282,
				"element": "O" 
			},
			{
				"x": 1.4353333737,
				"y": 0.3032826589,
				"z": 0.9572659754,
				"element": "C" 
			},
			{
				"x": 2.0005996684,
				"y": 0.2352194265,
				"z": 2.3114187899,
				"element": "C" 
			},
			{
				"x": 2.4468374943,
				"y": 0.1747262892,
				"z": 3.4312447219,
				"element": "C" 
			},
			{
				"x": 0.742027277,
				"y": -1.0103248534,
				"z": 0.5657233443,
				"element": "C" 
			},
			{
				"x": 1.3095120202,
				"y": -2.2691741744,
				"z": 0.4303114609,
				"element": "C" 
			},
			{
				"x": 0.4899765916,
				"y": -3.3329747497,
				"z": 0.0328020563,
				"element": "C" 
			},
			{
				"x": -0.8705278659,
				"y": -3.1252676404,
				"z": -0.2181005892,
				"element": "C" 
			},
			{
				"x": -1.4389375076,
				"y": -1.854341055,
				"z": -0.0848492406,
				"element": "C" 
			},
			{
				"x": -0.6228970903,
				"y": -0.7921730319,
				"z": 0.305540198,
				"element": "C" 
			},
			{
				"x": -0.9184237588,
				"y": 0.6386573835,
				"z": 0.5007434751,
				"element": "C" 
			},
			{
				"x": 0.2656755749,
				"y": 1.2959807098,
				"z": 0.8803942948,
				"element": "C" 
			},
			{
				"x": 0.290431311,
				"y": 2.6651886973,
				"z": 1.1034200641,
				"element": "C" 
			},
			{
				"x": -0.8983328124,
				"y": 3.3894310135,
				"z": 0.949646643,
				"element": "C" 
			},
			{
				"x": -2.081931681,
				"y": 2.7406916057,
				"z": 0.5818263818,
				"element": "C" 
			},
			{
				"x": -2.1029586557,
				"y": 1.3609911167,
				"z": 0.3536018797,
				"element": "C" 
			},
			{
				"x": 2.1412529112,
				"y": 0.6904352537,
				"z": -0.812044027,
				"element": "H" 
			},
			{
				"x": 2.8401644303,
				"y": 0.1211278797,
				"z": 4.4198249707,
				"element": "H" 
			},
			{
				"x": 2.3659135049,
				"y": -2.4217190402,
				"z": 0.6308298737,
				"element": "H" 
			},
			{
				"x": 0.9125887341,
				"y": -4.3271031263,
				"z": -0.0798345504,
				"element": "H" 
			},
			{
				"x": -1.4935845238,
				"y": -3.9615913534,
				"z": -0.522165905,
				"element": "H" 
			},
			{
				"x": -2.4959490884,
				"y": -1.7027830475,
				"z": -0.2850793279,
				"element": "H" 
			},
			{
				"x": 1.2131925164,
				"y": 3.1596939368,
				"z": 1.3922749264,
				"element": "H" 
			},
			{
				"x": -0.9025976099,
				"y": 4.4622354744,
				"z": 1.1189084056,
				"element": "H" 
			},
			{
				"x": -2.9965271257,
				"y": 3.3161445626,
				"z": 0.4701853959,
				"element": "H" 
			},
			{
				"x": -3.0266745066,
				"y": 0.8670767852,
				"z": 0.0652678542,
				"element": "H" 
			}
		],
		 "valence_orbital": [ 
			{
				"type": "occ",
				"energy": -0.27612,
				"method": "rhf"
			},
			{
				"type": "occ",
				"energy": -0.26119,
				"method": "rhf"
			},
			{
				"type": "occ",
				"energy": -0.25265,
				"method": "rhf"
			},
			{
				"type": "occ",
				"energy": -0.24719,
				"method": "rhf"
			},
			{
				"type": "occ",
				"energy": -0.21924,
				"method": "rhf"
			},
			{
				"type": "unocc",
				"energy": -0.04017,
				"method": "rhf"
			},
			{
				"type": "unocc",
				"energy": -0.02565,
				"method": "rhf"
			},
			{
				"type": "unocc",
				"energy": 0.00283,
				"method": "rhf"
			},
			{
				"type": "unocc",
				"energy": 0.03414,
				"method": "rhf"
			},
			{
				"type": "unocc",
				"energy": 0.05379,
				"method": "rhf"
			}
		],
		"cosmo_sigma_profile": { 
			"-0.025": 0.0,
			"-0.024": 0.0,
			"-0.023": 0.0,
			"-0.022": 0.0,
			"-0.021": 0.0,
			"-0.02": 0.0,
			"-0.019": 0.0,
			"-0.018": 0.0,
			"-0.017": 0.171441014168,
			"-0.016": 0.66427041414,
			"-0.015": 0.657151857699,
			"-0.014": 1.02416116656,
			"-0.013": 0.696104932475,
			"-0.012": 1.57276627991,
			"-0.011": 1.73996389636,
			"-0.01": 2.05542445078,
			"-0.009": 1.54310598131,
			"-0.008": 2.3733749679,
			"-0.007": 2.63385979375,
			"-0.006": 16.5821389016,
			"-0.005": 18.8149890233,
			"-0.004": 18.6971587586,
			"-0.003": 14.7464039834,
			"-0.002": 13.1322779366,
			"-0.001": 13.0041356944,
			"0.0": 13.5461177128,
			"0.001": 16.0511276695,
			"0.002": 19.4138878234,
			"0.003": 21.4882102604,
			"0.004": 24.049091251,
			"0.005": 23.9548778994,
			"0.006": 8.08325439927,
			"0.007": 2.87165871732,
			"0.008": 2.02116734065,
			"0.009": 1.7610568002,
			"0.01": 1.57034543048,
			"0.011": 1.38491246468,
			"0.012": 2.05860588217,
			"0.013": 1.26619268588,
			"0.014": 0.0,
			"0.015": 0.0,
			"0.016": 0.0,
			"0.017": 0.0,
			"0.018": 0.0,
			"0.019": 0.0,
			"0.02": 0.0,
			"0.021": 0.0,
			"0.022": 0.0,
			"0.023": 0.0,
			"0.024": 0.0,
			"0.025": 0.0
		}
	}
}
