{
	 "smiles": "CC1=C(C)C(=N)N(N1)C1=CC(Cl)=C(Cl)C=C1", 
	 "Tm": 430.15, 
	 "num_atms": 27, 
	 "gaussian": { 
		 "optdone": 1, 
		 "sigma_profile": "yes", 
		 "theory": "DFT", 
		 "functional": "B3LYP", 
		 "basiset": "6-31G**", 
		 "properties": { 
			 "R2extent": 7005.8286, 
			 "electric_dipole_moment_norm": 6.42413933068, 
			 "electric_quadrupole_moment_norm": 13.6021691002, 
			 "total_energy": -1510.40380083, 
			 "HOMO_LUMO_gap": 0.17093, 
			 "cosmo_polarized_energy": -13.39, 
			 "cosmo_cavitation_energy": 34.08, 
			 "cosmo_dispersion_energy": -25.13, 
			 "cosmo_repulsion_energy": 1.95, 
			 "cosmo_total_nonelectrostatic_energy": 10.91, 
			 "SMD_solvation_energy": 4.72 
		},
		"coords": [
			{
				"x": -0.4671622153,
				"y": 2.4909121604,
				"z": 3.1891518555,
				"element": "C" 
			},
			{
				"x": 0.0212433156,
				"y": 1.3433227201,
				"z": 2.3670338341,
				"element": "C" 
			},
			{
				"x": 1.207437668,
				"y": 0.6922742925,
				"z": 2.3541735148,
				"element": "C" 
			},
			{
				"x": 2.4091944359,
				"y": 0.8775997739,
				"z": 3.2232782586,
				"element": "C" 
			},
			{
				"x": 1.1537329902,
				"y": -0.3262286897,
				"z": 1.2964621588,
				"element": "C" 
			},
			{
				"x": 2.0117939069,
				"y": -1.1991781025,
				"z": 0.9005047366,
				"element": "N" 
			},
			{
				"x": -0.1273978832,
				"y": -0.1938590212,
				"z": 0.7227366436,
				"element": "N" 
			},
			{
				"x": -0.8710716315,
				"y": 0.77131035,
				"z": 1.4439179248,
				"element": "N" 
			},
			{
				"x": -0.8290877656,
				"y": -1.1033865139,
				"z": -0.0847387212,
				"element": "C" 
			},
			{
				"x": -2.2317627198,
				"y": -1.0772866328,
				"z": -0.1039195607,
				"element": "C" 
			},
			{
				"x": -2.9403743217,
				"y": -1.9370215656,
				"z": -0.9419164908,
				"element": "C" 
			},
			{
				"x": -4.6888300044,
				"y": -1.8540232574,
				"z": -0.9180178484,
				"element": "Cl" 
			},
			{
				"x": -2.2640742361,
				"y": -2.8418729694,
				"z": -1.7664077423,
				"element": "C" 
			},
			{
				"x": -3.1144409636,
				"y": -3.9330420024,
				"z": -2.8357797261,
				"element": "Cl" 
			},
			{
				"x": -0.8675862401,
				"y": -2.8704128248,
				"z": -1.7305209352,
				"element": "C" 
			},
			{
				"x": -0.1445513553,
				"y": -2.0138664592,
				"z": -0.9098957957,
				"element": "C" 
			},
			{
				"x": -0.7920468552,
				"y": 3.3254478142,
				"z": 2.5551556476,
				"element": "H" 
			},
			{
				"x": 0.319971563,
				"y": 2.8602925844,
				"z": 3.8482148981,
				"element": "H" 
			},
			{
				"x": -1.3242232382,
				"y": 2.1945458158,
				"z": 3.8035422948,
				"element": "H" 
			},
			{
				"x": 2.6425510623,
				"y": -0.0393391791,
				"z": 3.7790546241,
				"element": "H" 
			},
			{
				"x": 3.2946765507,
				"y": 1.1257629383,
				"z": 2.625440738,
				"element": "H" 
			},
			{
				"x": 2.2642958172,
				"y": 1.678152725,
				"z": 3.9524340906,
				"element": "H" 
			},
			{
				"x": 2.8494203392,
				"y": -1.1418392243,
				"z": 1.4786084951,
				"element": "H" 
			},
			{
				"x": -1.2883677536,
				"y": 1.4482410233,
				"z": 0.8030470774,
				"element": "H" 
			},
			{
				"x": -2.7799303831,
				"y": -0.4145266959,
				"z": 0.5521081696,
				"element": "H" 
			},
			{
				"x": -0.3428571033,
				"y": -3.5756740858,
				"z": -2.3657367619,
				"element": "H" 
			},
			{
				"x": 0.9354470209,
				"y": -2.0499049738,
				"z": -0.8754313798,
				"element": "H" 
			}
		],
		 "valence_orbital": [ 
			{
				"type": "occ",
				"energy": -0.28418,
				"method": "rhf"
			},
			{
				"type": "occ",
				"energy": -0.26113,
				"method": "rhf"
			},
			{
				"type": "occ",
				"energy": -0.25049,
				"method": "rhf"
			},
			{
				"type": "occ",
				"energy": -0.2326,
				"method": "rhf"
			},
			{
				"type": "occ",
				"energy": -0.20034,
				"method": "rhf"
			},
			{
				"type": "unocc",
				"energy": -0.02941,
				"method": "rhf"
			},
			{
				"type": "unocc",
				"energy": -0.01292,
				"method": "rhf"
			},
			{
				"type": "unocc",
				"energy": 0.00517,
				"method": "rhf"
			},
			{
				"type": "unocc",
				"energy": 0.01111,
				"method": "rhf"
			},
			{
				"type": "unocc",
				"energy": 0.06315,
				"method": "rhf"
			}
		],
		"cosmo_sigma_profile": { 
			"-0.025": 0.0,
			"-0.024": 0.0,
			"-0.023": 0.0,
			"-0.022": 0.0,
			"-0.021": 0.0,
			"-0.02": 0.0,
			"-0.019": 0.0,
			"-0.018": 0.0,
			"-0.017": 0.0,
			"-0.016": 0.0,
			"-0.015": 0.563014443538,
			"-0.014": 1.59289184676,
			"-0.013": 1.25798397484,
			"-0.012": 1.39554858935,
			"-0.011": 1.71684372046,
			"-0.01": 1.88167181923,
			"-0.009": 1.65371574572,
			"-0.008": 2.98318911209,
			"-0.007": 5.95421019578,
			"-0.006": 9.62620347764,
			"-0.005": 14.2553003755,
			"-0.004": 16.1091218222,
			"-0.003": 17.2852680149,
			"-0.002": 21.9435416385,
			"-0.001": 19.8751737344,
			"0.0": 22.8068346925,
			"0.001": 26.6609785541,
			"0.002": 32.0447890369,
			"0.003": 24.6595948141,
			"0.004": 21.8191716533,
			"0.005": 10.8263802135,
			"0.006": 4.08298561467,
			"0.007": 2.80838728807,
			"0.008": 2.13716628117,
			"0.009": 1.36472738639,
			"0.01": 1.7579866621,
			"0.011": 1.70321836175,
			"0.012": 1.93379685752,
			"0.013": 1.92190919737,
			"0.014": 1.55145386076,
			"0.015": 0.119015946828,
			"0.016": 0.0,
			"0.017": 0.0,
			"0.018": 0.0,
			"0.019": 0.0,
			"0.02": 0.0,
			"0.021": 0.0,
			"0.022": 0.0,
			"0.023": 0.0,
			"0.024": 0.0,
			"0.025": 0.0
		}
	}
}
