{
	 "smiles": "NC1=CN=C(N=C1)C1=CC=CC=C1", 
	 "Tm": 355.15, 
	 "num_atms": 22, 
	 "gaussian": { 
		 "optdone": 1, 
		 "sigma_profile": "yes", 
		 "theory": "DFT", 
		 "functional": "B3LYP", 
		 "basiset": "6-31G**", 
		 "properties": { 
			 "R2extent": 2998.3626, 
			 "electric_dipole_moment_norm": 3.80086382813, 
			 "electric_quadrupole_moment_norm": 17.4438149185, 
			 "total_energy": -550.746973965, 
			 "HOMO_LUMO_gap": 0.1732, 
			 "cosmo_polarized_energy": -13.42, 
			 "cosmo_cavitation_energy": 26.35, 
			 "cosmo_dispersion_energy": -19.86, 
			 "cosmo_repulsion_energy": 1.56, 
			 "cosmo_total_nonelectrostatic_energy": 8.05, 
			 "SMD_solvation_energy": 2.45 
		},
		"coords": [
			{
				"x": -2.25566161,
				"y": -0.8985696151,
				"z": -3.0638583904,
				"element": "N" 
			},
			{
				"x": -1.3764543763,
				"y": -0.5672175127,
				"z": -2.0420561074,
				"element": "C" 
			},
			{
				"x": 0.0034163118,
				"y": -0.4092314895,
				"z": -2.251309783,
				"element": "C" 
			},
			{
				"x": 0.8573187921,
				"y": -0.1471620237,
				"z": -1.2681033734,
				"element": "N" 
			},
			{
				"x": 0.3627507769,
				"y": -0.0315603207,
				"z": -0.0219457606,
				"element": "C" 
			},
			{
				"x": -0.9413049457,
				"y": -0.1608438442,
				"z": 0.2840326897,
				"element": "N" 
			},
			{
				"x": -1.7866898801,
				"y": -0.4228407002,
				"z": -0.7065272183,
				"element": "C" 
			},
			{
				"x": 1.3119551642,
				"y": 0.2595335222,
				"z": 1.0805755157,
				"element": "C" 
			},
			{
				"x": 2.6838254921,
				"y": 0.4066934371,
				"z": 0.8197925195,
				"element": "C" 
			},
			{
				"x": 3.5734631936,
				"y": 0.6799074098,
				"z": 1.8566035499,
				"element": "C" 
			},
			{
				"x": 3.1087776739,
				"y": 0.8103011477,
				"z": 3.1676463843,
				"element": "C" 
			},
			{
				"x": 1.745165191,
				"y": 0.6650303807,
				"z": 3.4345646404,
				"element": "C" 
			},
			{
				"x": 0.8521103434,
				"y": 0.3918081521,
				"z": 2.400697968,
				"element": "C" 
			},
			{
				"x": -1.9546908219,
				"y": -0.6565530234,
				"z": -3.9979397388,
				"element": "H" 
			},
			{
				"x": -3.2258342053,
				"y": -0.6663746533,
				"z": -2.9010355679,
				"element": "H" 
			},
			{
				"x": 0.4205275041,
				"y": -0.5004207885,
				"z": -3.2554492907,
				"element": "H" 
			},
			{
				"x": -2.8402140235,
				"y": -0.5252056495,
				"z": -0.4415707695,
				"element": "H" 
			},
			{
				"x": 3.0342783575,
				"y": 0.3033929429,
				"z": -0.2009432757,
				"element": "H" 
			},
			{
				"x": 4.632640762,
				"y": 0.7913461907,
				"z": 1.6414530046,
				"element": "H" 
			},
			{
				"x": 3.8039165824,
				"y": 1.0232259765,
				"z": 3.975073957,
				"element": "H" 
			},
			{
				"x": 1.3764860851,
				"y": 0.7648093192,
				"z": 4.4517601218,
				"element": "H" 
			},
			{
				"x": -0.2078823673,
				"y": 0.277031142,
				"z": 2.5972389248,
				"element": "H" 
			}
		],
		 "valence_orbital": [ 
			{
				"type": "occ",
				"energy": -0.30377,
				"method": "rhf"
			},
			{
				"type": "occ",
				"energy": -0.25836,
				"method": "rhf"
			},
			{
				"type": "occ",
				"energy": -0.2407,
				"method": "rhf"
			},
			{
				"type": "occ",
				"energy": -0.23906,
				"method": "rhf"
			},
			{
				"type": "occ",
				"energy": -0.20791,
				"method": "rhf"
			},
			{
				"type": "unocc",
				"energy": -0.03471,
				"method": "rhf"
			},
			{
				"type": "unocc",
				"energy": -0.03421,
				"method": "rhf"
			},
			{
				"type": "unocc",
				"energy": 0.01327,
				"method": "rhf"
			},
			{
				"type": "unocc",
				"energy": 0.04261,
				"method": "rhf"
			},
			{
				"type": "unocc",
				"energy": 0.066,
				"method": "rhf"
			}
		],
		"cosmo_sigma_profile": { 
			"-0.025": 0.0,
			"-0.024": 0.0,
			"-0.023": 0.0,
			"-0.022": 0.0,
			"-0.021": 0.0,
			"-0.02": 0.0,
			"-0.019": 0.0,
			"-0.018": 0.0,
			"-0.017": 0.0,
			"-0.016": 0.0,
			"-0.015": 0.0,
			"-0.014": 0.608556863199,
			"-0.013": 3.05089011211,
			"-0.012": 3.40115576596,
			"-0.011": 3.47302023187,
			"-0.01": 3.82245418791,
			"-0.009": 2.57206412598,
			"-0.008": 3.81485412351,
			"-0.007": 5.58590878521,
			"-0.006": 6.7599483477,
			"-0.005": 9.89738575578,
			"-0.004": 12.4593181553,
			"-0.003": 13.3223572814,
			"-0.002": 9.49647342954,
			"-0.001": 11.5242521022,
			"0.0": 15.8645753875,
			"0.001": 15.4618605056,
			"0.002": 13.2880438714,
			"0.003": 15.2929661316,
			"0.004": 17.4010431593,
			"0.005": 13.9354657164,
			"0.006": 11.475838135,
			"0.007": 4.69269012245,
			"0.008": 3.33018921919,
			"0.009": 2.90028030233,
			"0.01": 3.05143754112,
			"0.011": 2.96439509532,
			"0.012": 1.67084090032,
			"0.013": 0.281059812932,
			"0.014": 0.0,
			"0.015": 0.0,
			"0.016": 0.0,
			"0.017": 0.0,
			"0.018": 0.0,
			"0.019": 0.0,
			"0.02": 0.0,
			"0.021": 0.0,
			"0.022": 0.0,
			"0.023": 0.0,
			"0.024": 0.0,
			"0.025": 0.0
		}
	}
}
