{
	 "smiles": "BrC(Br)Br", 
	 "Tm": 281.65, 
	 "num_atms": 5, 
	 "gaussian": { 
		 "optdone": 1, 
		 "sigma_profile": "yes", 
		 "theory": "DFT", 
		 "functional": "B3LYP", 
		 "basiset": "6-31G**", 
		 "properties": { 
			 "R2extent": 2529.911, 
			 "electric_dipole_moment_norm": 0.971108279236, 
			 "electric_quadrupole_moment_norm": 2.5719500209, 
			 "total_energy": -7752.90026204, 
			 "HOMO_LUMO_gap": 0.20773, 
			 "cosmo_polarized_energy": -3.72, 
			 "cosmo_cavitation_energy": 15.82, 
			 "cosmo_dispersion_energy": -13.16, 
			 "cosmo_repulsion_energy": 1.17, 
			 "cosmo_total_nonelectrostatic_energy": 3.83, 
			 "SMD_solvation_energy": -0.7 
		},
		"coords": [
			{
				"x": 2.3648897271,
				"y": 0.6466232263,
				"z": 1.4900695452,
				"element": "Br" 
			},
			{
				"x": 0.791903893,
				"y": 1.6726617495,
				"z": 0.9619440127,
				"element": "C" 
			},
			{
				"x": 0.9893600089,
				"y": 2.4328315651,
				"z": -0.8238653215,
				"element": "Br" 
			},
			{
				"x": -0.8451466578,
				"y": 0.6241539814,
				"z": 1.1256503957,
				"element": "Br" 
			},
			{
				"x": 0.7076930288,
				"y": 2.5024294777,
				"z": 1.6525013679,
				"element": "H" 
			}
		],
		 "valence_orbital": [ 
			{
				"type": "occ",
				"energy": -0.32289,
				"method": "rhf"
			},
			{
				"type": "occ",
				"energy": -0.30257,
				"method": "rhf"
			},
			{
				"type": "occ",
				"energy": -0.29895,
				"method": "rhf"
			},
			{
				"type": "occ",
				"energy": -0.29895,
				"method": "rhf"
			},
			{
				"type": "occ",
				"energy": -0.28274,
				"method": "rhf"
			},
			{
				"type": "unocc",
				"energy": -0.07501,
				"method": "rhf"
			},
			{
				"type": "unocc",
				"energy": -0.01257,
				"method": "rhf"
			},
			{
				"type": "unocc",
				"energy": -0.01256,
				"method": "rhf"
			},
			{
				"type": "unocc",
				"energy": 0.093,
				"method": "rhf"
			},
			{
				"type": "unocc",
				"energy": 0.33842,
				"method": "rhf"
			}
		],
		"cosmo_sigma_profile": { 
			"-0.025": 0.0,
			"-0.024": 0.0,
			"-0.023": 0.0,
			"-0.022": 0.0,
			"-0.021": 0.0,
			"-0.02": 0.0,
			"-0.019": 0.0,
			"-0.018": 0.0,
			"-0.017": 0.0,
			"-0.016": 0.0,
			"-0.015": 0.0,
			"-0.014": 0.0,
			"-0.013": 0.50502142173,
			"-0.012": 2.42887708444,
			"-0.011": 1.6527968726,
			"-0.01": 1.48134756599,
			"-0.009": 1.05515141633,
			"-0.008": 1.34092005021,
			"-0.007": 1.21309466338,
			"-0.006": 4.57149399389,
			"-0.005": 4.87022493331,
			"-0.004": 5.80003729991,
			"-0.003": 6.52761847235,
			"-0.002": 7.31242748807,
			"-0.001": 8.66583113146,
			"0.0": 9.01886175495,
			"0.001": 12.4904263879,
			"0.002": 17.157338104,
			"0.003": 35.8314340896,
			"0.004": 14.7082903988,
			"0.005": 0.0,
			"0.006": 0.0,
			"0.007": 0.0,
			"0.008": 0.0,
			"0.009": 0.0,
			"0.01": 0.0,
			"0.011": 0.0,
			"0.012": 0.0,
			"0.013": 0.0,
			"0.014": 0.0,
			"0.015": 0.0,
			"0.016": 0.0,
			"0.017": 0.0,
			"0.018": 0.0,
			"0.019": 0.0,
			"0.02": 0.0,
			"0.021": 0.0,
			"0.022": 0.0,
			"0.023": 0.0,
			"0.024": 0.0,
			"0.025": 0.0
		}
	}
}
