{
	 "smiles": "CC(C)(C)C1=CC=C(C=C1)C(=O)C1=CC=CC=C1", 
	 "Tm": 313.15, 
	 "num_atms": 36, 
	 "gaussian": { 
		 "optdone": 1, 
		 "sigma_profile": "yes", 
		 "theory": "DFT", 
		 "functional": "B3LYP", 
		 "basiset": "6-31G**", 
		 "properties": { 
			 "R2extent": 6981.3872, 
			 "electric_dipole_moment_norm": 3.25408773084, 
			 "electric_quadrupole_moment_norm": 14.3979390827, 
			 "total_energy": -733.89972666, 
			 "HOMO_LUMO_gap": 0.17856, 
			 "cosmo_polarized_energy": -9.23, 
			 "cosmo_cavitation_energy": 38.08, 
			 "cosmo_dispersion_energy": -26.92, 
			 "cosmo_repulsion_energy": 2.06, 
			 "cosmo_total_nonelectrostatic_energy": 13.21, 
			 "SMD_solvation_energy": 6.94 
		},
		"coords": [
			{
				"x": 3.9623230661,
				"y": 0.6393531811,
				"z": 1.0981822738,
				"element": "C" 
			},
			{
				"x": 2.6935598004,
				"y": 1.5201415698,
				"z": 1.1983635776,
				"element": "C" 
			},
			{
				"x": 2.7992127831,
				"y": 2.3713992324,
				"z": 2.4779504409,
				"element": "C" 
			},
			{
				"x": 2.6370382569,
				"y": 2.4781377869,
				"z": -0.0158460846,
				"element": "C" 
			},
			{
				"x": 1.4459740738,
				"y": 0.6192399922,
				"z": 1.1951746612,
				"element": "C" 
			},
			{
				"x": 1.1932225388,
				"y": -0.2239638717,
				"z": 0.0991763368,
				"element": "C" 
			},
			{
				"x": 0.0704830535,
				"y": -1.0452725864,
				"z": 0.0505777929,
				"element": "C" 
			},
			{
				"x": -0.8459695087,
				"y": -1.0636538943,
				"z": 1.1138595103,
				"element": "C" 
			},
			{
				"x": -0.588886052,
				"y": -0.2469266192,
				"z": 2.2229399096,
				"element": "C" 
			},
			{
				"x": 0.5261659615,
				"y": 0.5861343996,
				"z": 2.2557262264,
				"element": "C" 
			},
			{
				"x": -2.0363359513,
				"y": -1.971909279,
				"z": 1.1676423219,
				"element": "C" 
			},
			{
				"x": -2.4762992981,
				"y": -2.3376003487,
				"z": 2.2532742087,
				"element": "O" 
			},
			{
				"x": -2.6990971415,
				"y": -2.4413482859,
				"z": -0.0956345486,
				"element": "C" 
			},
			{
				"x": -3.3903802783,
				"y": -3.6630544121,
				"z": -0.0542896455,
				"element": "C" 
			},
			{
				"x": -4.0650924889,
				"y": -4.1316451556,
				"z": -1.1775189985,
				"element": "C" 
			},
			{
				"x": -4.0810574529,
				"y": -3.3718173454,
				"z": -2.3514835952,
				"element": "C" 
			},
			{
				"x": -3.4201488054,
				"y": -2.1433293432,
				"z": -2.3948969594,
				"element": "C" 
			},
			{
				"x": -2.7267642853,
				"y": -1.6812567181,
				"z": -1.2752007914,
				"element": "C" 
			},
			{
				"x": 4.0306312159,
				"y": -0.0475667827,
				"z": 1.9479882886,
				"element": "H" 
			},
			{
				"x": 3.9725325127,
				"y": 0.040346146,
				"z": 0.1828732182,
				"element": "H" 
			},
			{
				"x": 4.8604311802,
				"y": 1.2671260269,
				"z": 1.0954208407,
				"element": "H" 
			},
			{
				"x": 3.6982151139,
				"y": 2.9943327804,
				"z": 2.43151751,
				"element": "H" 
			},
			{
				"x": 2.8752127918,
				"y": 1.7504018363,
				"z": 3.3764621063,
				"element": "H" 
			},
			{
				"x": 1.9405499628,
				"y": 3.0405801505,
				"z": 2.5952971357,
				"element": "H" 
			},
			{
				"x": 1.7508122866,
				"y": 3.1194551421,
				"z": 0.0315375557,
				"element": "H" 
			},
			{
				"x": 2.605219529,
				"y": 1.9336509712,
				"z": -0.9641600809,
				"element": "H" 
			},
			{
				"x": 3.5226093043,
				"y": 3.1232643859,
				"z": -0.0317532971,
				"element": "H" 
			},
			{
				"x": 1.8873129942,
				"y": -0.2463639412,
				"z": -0.7356702668,
				"element": "H" 
			},
			{
				"x": -0.0778054355,
				"y": -1.6942062099,
				"z": -0.806206685,
				"element": "H" 
			},
			{
				"x": -1.2799483017,
				"y": -0.2792538545,
				"z": 3.0589431214,
				"element": "H" 
			},
			{
				"x": 0.6771260762,
				"y": 1.2122063349,
				"z": 3.127416657,
				"element": "H" 
			},
			{
				"x": -3.3857651303,
				"y": -4.2258647793,
				"z": 0.8732482177,
				"element": "H" 
			},
			{
				"x": -4.5848137777,
				"y": -5.0846919233,
				"z": -1.1394283089,
				"element": "H" 
			},
			{
				"x": -4.6131250829,
				"y": -3.7339771252,
				"z": -3.2266897585,
				"element": "H" 
			},
			{
				"x": -3.4466283974,
				"y": -1.54198998,
				"z": -3.2990543699,
				"element": "H" 
			},
			{
				"x": -2.2294151135,
				"y": -0.7177774806,
				"z": -1.3100385214,
				"element": "H" 
			}
		],
		 "valence_orbital": [ 
			{
				"type": "occ",
				"energy": -0.2584,
				"method": "rhf"
			},
			{
				"type": "occ",
				"energy": -0.25763,
				"method": "rhf"
			},
			{
				"type": "occ",
				"energy": -0.25426,
				"method": "rhf"
			},
			{
				"type": "occ",
				"energy": -0.2494,
				"method": "rhf"
			},
			{
				"type": "occ",
				"energy": -0.23832,
				"method": "rhf"
			},
			{
				"type": "unocc",
				"energy": -0.05976,
				"method": "rhf"
			},
			{
				"type": "unocc",
				"energy": -0.01168,
				"method": "rhf"
			},
			{
				"type": "unocc",
				"energy": -0.00768,
				"method": "rhf"
			},
			{
				"type": "unocc",
				"energy": -0.00216,
				"method": "rhf"
			},
			{
				"type": "unocc",
				"energy": 0.05867,
				"method": "rhf"
			}
		],
		"cosmo_sigma_profile": { 
			"-0.025": 0.0,
			"-0.024": 0.0,
			"-0.023": 0.0,
			"-0.022": 0.0,
			"-0.021": 0.0,
			"-0.02": 0.0,
			"-0.019": 0.0,
			"-0.018": 0.0,
			"-0.017": 0.0,
			"-0.016": 0.0,
			"-0.015": 0.0,
			"-0.014": 0.0,
			"-0.013": 0.0,
			"-0.012": 0.0,
			"-0.011": 0.0,
			"-0.01": 0.0,
			"-0.009": 0.0,
			"-0.008": 0.0,
			"-0.007": 0.7371303908,
			"-0.006": 9.62097368522,
			"-0.005": 19.2071342274,
			"-0.004": 21.7106841188,
			"-0.003": 33.3684971059,
			"-0.002": 35.9694801697,
			"-0.001": 28.3869160951,
			"0.0": 29.6467190254,
			"0.001": 33.2575807477,
			"0.002": 20.4611728682,
			"0.003": 18.0942174679,
			"0.004": 23.256157508,
			"0.005": 9.88163959577,
			"0.006": 1.93615236436,
			"0.007": 1.50927758365,
			"0.008": 1.98756681618,
			"0.009": 1.76764631097,
			"0.01": 2.02587958473,
			"0.011": 2.53321815838,
			"0.012": 4.24425282383,
			"0.013": 1.66601730407,
			"0.014": 0.0,
			"0.015": 0.0,
			"0.016": 0.0,
			"0.017": 0.0,
			"0.018": 0.0,
			"0.019": 0.0,
			"0.02": 0.0,
			"0.021": 0.0,
			"0.022": 0.0,
			"0.023": 0.0,
			"0.024": 0.0,
			"0.025": 0.0
		}
	}
}
