{
	 "smiles": "O=NN(CC(C1=CC=CC=C1)C1=CC=CC=C1)CC(C1=CC=CC=C1)C1=CC=CC=C1", 
	 "Tm": 452.15, 
	 "num_atms": 57, 
	 "gaussian": { 
		 "optdone": 1, 
		 "sigma_profile": "yes", 
		 "theory": "DFT", 
		 "functional": "B3LYP", 
		 "basiset": "6-31G**", 
		 "properties": { 
			 "R2extent": 13624.7155, 
			 "electric_dipole_moment_norm": 3.89008020868, 
			 "electric_quadrupole_moment_norm": 10.2604960109, 
			 "total_energy": -1267.30955449, 
			 "HOMO_LUMO_gap": 0.18863, 
			 "cosmo_polarized_energy": -15.17, 
			 "cosmo_cavitation_energy": 59.54, 
			 "cosmo_dispersion_energy": -36.95, 
			 "cosmo_repulsion_energy": 2.83, 
			 "cosmo_total_nonelectrostatic_energy": 25.41, 
			 "SMD_solvation_energy": 9.74 
		},
		"coords": [
			{
				"x": 0.3823304357,
				"y": 3.1387314904,
				"z": -1.3490749779,
				"element": "O" 
			},
			{
				"x": -0.0769805775,
				"y": 2.0807648219,
				"z": -1.7831712325,
				"element": "N" 
			},
			{
				"x": -0.1521649398,
				"y": 1.0851500783,
				"z": -0.894318496,
				"element": "N" 
			},
			{
				"x": 0.2827868232,
				"y": 1.2819927716,
				"z": 0.490049838,
				"element": "C" 
			},
			{
				"x": 1.828055138,
				"y": 1.1905156405,
				"z": 0.6523943007,
				"element": "C" 
			},
			{
				"x": 2.2394127374,
				"y": 1.8334956429,
				"z": 1.9817178527,
				"element": "C" 
			},
			{
				"x": 2.1668801332,
				"y": 3.233075569,
				"z": 2.0835070019,
				"element": "C" 
			},
			{
				"x": 2.5036914287,
				"y": 3.8846453501,
				"z": 3.2682790196,
				"element": "C" 
			},
			{
				"x": 2.9246306108,
				"y": 3.1478332925,
				"z": 4.3783652176,
				"element": "C" 
			},
			{
				"x": 3.0064919566,
				"y": 1.7592091202,
				"z": 4.2869849158,
				"element": "C" 
			},
			{
				"x": 2.6674531541,
				"y": 1.1067912191,
				"z": 3.0981002924,
				"element": "C" 
			},
			{
				"x": 2.3657119052,
				"y": -0.215191804,
				"z": 0.4210494868,
				"element": "C" 
			},
			{
				"x": 3.4591607816,
				"y": -0.4043307929,
				"z": -0.4350764291,
				"element": "C" 
			},
			{
				"x": 3.9843250154,
				"y": -1.6762525616,
				"z": -0.6686629694,
				"element": "C" 
			},
			{
				"x": 3.4216019455,
				"y": -2.7916038919,
				"z": -0.0468764588,
				"element": "C" 
			},
			{
				"x": 2.3315667894,
				"y": -2.6220894623,
				"z": 0.8087004283,
				"element": "C" 
			},
			{
				"x": 1.8094863995,
				"y": -1.3473567525,
				"z": 1.0391315172,
				"element": "C" 
			},
			{
				"x": -0.6979631455,
				"y": -0.1670421048,
				"z": -1.4138997972,
				"element": "C" 
			},
			{
				"x": -2.2442773483,
				"y": -0.2486572571,
				"z": -1.328696608,
				"element": "C" 
			},
			{
				"x": -2.8021750185,
				"y": -1.4437667551,
				"z": -2.0983966825,
				"element": "C" 
			},
			{
				"x": -2.0974258963,
				"y": -2.6442077458,
				"z": -2.263085566,
				"element": "C" 
			},
			{
				"x": -2.661454939,
				"y": -3.7164640597,
				"z": -2.960277244,
				"element": "C" 
			},
			{
				"x": -3.9398666941,
				"y": -3.6074339012,
				"z": -3.5049530955,
				"element": "C" 
			},
			{
				"x": -4.652509116,
				"y": -2.4159256575,
				"z": -3.3492210481,
				"element": "C" 
			},
			{
				"x": -4.0869229627,
				"y": -1.348773279,
				"z": -2.6544806767,
				"element": "C" 
			},
			{
				"x": -2.7458519782,
				"y": -0.1987610864,
				"z": 0.1141273937,
				"element": "C" 
			},
			{
				"x": -2.6386106243,
				"y": -1.3099907707,
				"z": 0.964192011,
				"element": "C" 
			},
			{
				"x": -3.0620538171,
				"y": -1.2370206125,
				"z": 2.2912490347,
				"element": "C" 
			},
			{
				"x": -3.6071697956,
				"y": -0.0518753666,
				"z": 2.7921506118,
				"element": "C" 
			},
			{
				"x": -3.7271918207,
				"y": 1.056783201,
				"z": 1.9544182011,
				"element": "C" 
			},
			{
				"x": -3.2997892994,
				"y": 0.9812959613,
				"z": 0.6265976457,
				"element": "C" 
			},
			{
				"x": -0.0433940441,
				"y": 2.2808610693,
				"z": 0.7853277239,
				"element": "H" 
			},
			{
				"x": -0.2340058051,
				"y": 0.553993505,
				"z": 1.1155384529,
				"element": "H" 
			},
			{
				"x": 2.2392961442,
				"y": 1.8277558867,
				"z": -0.1367223885,
				"element": "H" 
			},
			{
				"x": 1.8445413306,
				"y": 3.8099778931,
				"z": 1.2197633399,
				"element": "H" 
			},
			{
				"x": 2.4437111,
				"y": 4.9681318202,
				"z": 3.3229558601,
				"element": "H" 
			},
			{
				"x": 3.1913432115,
				"y": 3.6532065371,
				"z": 5.3022199805,
				"element": "H" 
			},
			{
				"x": 3.3399658023,
				"y": 1.1759719948,
				"z": 5.1410371847,
				"element": "H" 
			},
			{
				"x": 2.7529557319,
				"y": 0.0269795685,
				"z": 3.0412027135,
				"element": "H" 
			},
			{
				"x": 3.9027414051,
				"y": 0.4584134211,
				"z": -0.9256240975,
				"element": "H" 
			},
			{
				"x": 4.8307278511,
				"y": -1.7947074711,
				"z": -1.3393150384,
				"element": "H" 
			},
			{
				"x": 3.8265983872,
				"y": -3.7830626238,
				"z": -0.2277582713,
				"element": "H" 
			},
			{
				"x": 1.8858097006,
				"y": -3.4826826511,
				"z": 1.3000182822,
				"element": "H" 
			},
			{
				"x": 0.9606786847,
				"y": -1.2390542178,
				"z": 1.7091036296,
				"element": "H" 
			},
			{
				"x": -0.2222871148,
				"y": -0.9836910238,
				"z": -0.867516575,
				"element": "H" 
			},
			{
				"x": -0.3963666368,
				"y": -0.2384692503,
				"z": -2.4618740038,
				"element": "H" 
			},
			{
				"x": -2.6102512698,
				"y": 0.6557937754,
				"z": -1.8287474298,
				"element": "H" 
			},
			{
				"x": -1.0971930711,
				"y": -2.7556231236,
				"z": -1.8555441887,
				"element": "H" 
			},
			{
				"x": -2.095157174,
				"y": -4.6360917139,
				"z": -3.0783765574,
				"element": "H" 
			},
			{
				"x": -4.3766881629,
				"y": -4.4400184791,
				"z": -4.0486602417,
				"element": "H" 
			},
			{
				"x": -5.647898532,
				"y": -2.3163514638,
				"z": -3.7729166836,
				"element": "H" 
			},
			{
				"x": -4.6481553402,
				"y": -0.4249940905,
				"z": -2.5372474691,
				"element": "H" 
			},
			{
				"x": -2.2368408224,
				"y": -2.2435186333,
				"z": 0.5798398248,
				"element": "H" 
			},
			{
				"x": -2.974001352,
				"y": -2.1090860891,
				"z": 2.933364441,
				"element": "H" 
			},
			{
				"x": -3.9393174381,
				"y": 0.0034879818,
				"z": 3.8247234475,
				"element": "H" 
			},
			{
				"x": -4.1538606404,
				"y": 1.9820704584,
				"z": 2.3311212138,
				"element": "H" 
			},
			{
				"x": -3.393629227,
				"y": 1.8508666226,
				"z": -0.0191366364,
				"element": "H" 
			}
		],
		 "valence_orbital": [ 
			{
				"type": "occ",
				"energy": -0.24516,
				"method": "rhf"
			},
			{
				"type": "occ",
				"energy": -0.24436,
				"method": "rhf"
			},
			{
				"type": "occ",
				"energy": -0.24036,
				"method": "rhf"
			},
			{
				"type": "occ",
				"energy": -0.2349,
				"method": "rhf"
			},
			{
				"type": "occ",
				"energy": -0.2187,
				"method": "rhf"
			},
			{
				"type": "unocc",
				"energy": -0.03007,
				"method": "rhf"
			},
			{
				"type": "unocc",
				"energy": -0.01508,
				"method": "rhf"
			},
			{
				"type": "unocc",
				"energy": -0.01327,
				"method": "rhf"
			},
			{
				"type": "unocc",
				"energy": -0.00916,
				"method": "rhf"
			},
			{
				"type": "unocc",
				"energy": -0.00697,
				"method": "rhf"
			}
		],
		"cosmo_sigma_profile": { 
			"-0.025": 0.0,
			"-0.024": 0.0,
			"-0.023": 0.0,
			"-0.022": 0.0,
			"-0.021": 0.0,
			"-0.02": 0.0,
			"-0.019": 0.0,
			"-0.018": 0.0,
			"-0.017": 0.0,
			"-0.016": 0.0,
			"-0.015": 0.0,
			"-0.014": 0.0,
			"-0.013": 0.0,
			"-0.012": 0.0,
			"-0.011": 0.0,
			"-0.01": 0.0,
			"-0.009": 0.0,
			"-0.008": 0.141395113111,
			"-0.007": 1.46018480512,
			"-0.006": 18.1151524436,
			"-0.005": 44.5359122108,
			"-0.004": 52.9940857738,
			"-0.003": 48.4129544246,
			"-0.002": 39.5329830748,
			"-0.001": 37.5809797881,
			"0.0": 28.9496652049,
			"0.001": 30.6323671734,
			"0.002": 31.8744617496,
			"0.003": 31.6508557684,
			"0.004": 31.9173480606,
			"0.005": 31.4430204421,
			"0.006": 25.2164052806,
			"0.007": 3.41702019232,
			"0.008": 2.82595684875,
			"0.009": 3.25033743601,
			"0.01": 4.39504558565,
			"0.011": 2.72903849767,
			"0.012": 1.98622079936,
			"0.013": 1.27453396511,
			"0.014": 0.13287223766,
			"0.015": 0.0,
			"0.016": 0.0,
			"0.017": 0.0,
			"0.018": 0.0,
			"0.019": 0.0,
			"0.02": 0.0,
			"0.021": 0.0,
			"0.022": 0.0,
			"0.023": 0.0,
			"0.024": 0.0,
			"0.025": 0.0
		}
	}
}
