{
	 "smiles": "OC(=O)C1=CC(=C(Cl)C=C1)S(=O)(=O)N1CCCCC1", 
	 "Tm": 492.15, 
	 "num_atms": 33, 
	 "gaussian": { 
		 "optdone": 1, 
		 "sigma_profile": "yes", 
		 "theory": "DFT", 
		 "functional": "B3LYP", 
		 "basiset": "6-31G**", 
		 "properties": { 
			 "R2extent": 7363.8144, 
			 "electric_dipole_moment_norm": 2.52916588226, 
			 "electric_quadrupole_moment_norm": 37.6743658229, 
			 "total_energy": -1679.66775815, 
			 "HOMO_LUMO_gap": 0.18, 
			 "cosmo_polarized_energy": -23.45, 
			 "cosmo_cavitation_energy": 38.53, 
			 "cosmo_dispersion_energy": -27.32, 
			 "cosmo_repulsion_energy": 2.05, 
			 "cosmo_total_nonelectrostatic_energy": 13.25, 
			 "SMD_solvation_energy": 6.09 
		},
		"coords": [
			{
				"x": -1.7272639255,
				"y": -2.8057648464,
				"z": -4.394826657,
				"element": "O" 
			},
			{
				"x": -1.0476118456,
				"y": -2.0784164265,
				"z": -3.4714496833,
				"element": "C" 
			},
			{
				"x": -0.0344630243,
				"y": -2.5178230977,
				"z": -2.9803406311,
				"element": "O" 
			},
			{
				"x": -1.6141722139,
				"y": -0.7377125184,
				"z": -3.1084362569,
				"element": "C" 
			},
			{
				"x": -1.1543074768,
				"y": -0.1522222179,
				"z": -1.9230380666,
				"element": "C" 
			},
			{
				"x": -1.6181752639,
				"y": 1.089481908,
				"z": -1.5019234153,
				"element": "C" 
			},
			{
				"x": -2.5568348732,
				"y": 1.7727779274,
				"z": -2.2955633248,
				"element": "C" 
			},
			{
				"x": -3.1937065614,
				"y": 3.3289711182,
				"z": -1.8426777411,
				"element": "Cl" 
			},
			{
				"x": -3.0024018033,
				"y": 1.2091056436,
				"z": -3.4929076379,
				"element": "C" 
			},
			{
				"x": -2.5344402515,
				"y": -0.0383882338,
				"z": -3.8971587969,
				"element": "C" 
			},
			{
				"x": -0.9964884427,
				"y": 1.7957745168,
				"z": 0.0574958275,
				"element": "S" 
			},
			{
				"x": -0.2472029075,
				"y": 3.0016036638,
				"z": -0.3033488191,
				"element": "O" 
			},
			{
				"x": -2.133399143,
				"y": 1.8422994543,
				"z": 0.9788314098,
				"element": "O" 
			},
			{
				"x": 0.0661269211,
				"y": 0.6519305508,
				"z": 0.6203039546,
				"element": "N" 
			},
			{
				"x": 1.5246128836,
				"y": 0.8305474216,
				"z": 0.4352603251,
				"element": "C" 
			},
			{
				"x": 2.245939035,
				"y": 0.6451562597,
				"z": 1.7725406859,
				"element": "C" 
			},
			{
				"x": 2.0027410615,
				"y": -0.763266788,
				"z": 2.3655678041,
				"element": "C" 
			},
			{
				"x": 0.6574395649,
				"y": -1.3576926618,
				"z": 1.8922346383,
				"element": "C" 
			},
			{
				"x": -0.4040143347,
				"y": -0.2767394663,
				"z": 1.6771244178,
				"element": "C" 
			},
			{
				"x": -2.5933219357,
				"y": -2.4130606959,
				"z": -4.5701515518,
				"element": "H" 
			},
			{
				"x": -0.42140723,
				"y": -0.6855647354,
				"z": -1.3305795832,
				"element": "H" 
			},
			{
				"x": -3.7101140152,
				"y": 1.7579732396,
				"z": -4.1037656306,
				"element": "H" 
			},
			{
				"x": -2.8742366398,
				"y": -0.4320109971,
				"z": -4.8517723996,
				"element": "H" 
			},
			{
				"x": 1.8943121384,
				"y": 0.1062145262,
				"z": -0.3037671838,
				"element": "H" 
			},
			{
				"x": 1.6941862341,
				"y": 1.8312578653,
				"z": 0.0370764434,
				"element": "H" 
			},
			{
				"x": 1.8856841679,
				"y": 1.4161245663,
				"z": 2.4630057428,
				"element": "H" 
			},
			{
				"x": 3.316406815,
				"y": 0.8273324746,
				"z": 1.6299444469,
				"element": "H" 
			},
			{
				"x": 2.0219365327,
				"y": -0.7031871816,
				"z": 3.4592962542,
				"element": "H" 
			},
			{
				"x": 2.8135545978,
				"y": -1.4416580411,
				"z": 2.0788793229,
				"element": "H" 
			},
			{
				"x": 0.2775918807,
				"y": -2.0821431179,
				"z": 2.6200537314,
				"element": "H" 
			},
			{
				"x": 0.7956133932,
				"y": -1.9055539494,
				"z": 0.952424216,
				"element": "H" 
			},
			{
				"x": -1.3508094404,
				"y": -0.7234471351,
				"z": 1.362690531,
				"element": "H" 
			},
			{
				"x": -0.5982738974,
				"y": 0.2672009736,
				"z": 2.6096776274,
				"element": "H" 
			}
		],
		 "valence_orbital": [ 
			{
				"type": "occ",
				"energy": -0.30319,
				"method": "rhf"
			},
			{
				"type": "occ",
				"energy": -0.29029,
				"method": "rhf"
			},
			{
				"type": "occ",
				"energy": -0.28524,
				"method": "rhf"
			},
			{
				"type": "occ",
				"energy": -0.27087,
				"method": "rhf"
			},
			{
				"type": "occ",
				"energy": -0.25415,
				"method": "rhf"
			},
			{
				"type": "unocc",
				"energy": -0.07415,
				"method": "rhf"
			},
			{
				"type": "unocc",
				"energy": -0.04953,
				"method": "rhf"
			},
			{
				"type": "unocc",
				"energy": 0.00651,
				"method": "rhf"
			},
			{
				"type": "unocc",
				"energy": 0.02201,
				"method": "rhf"
			},
			{
				"type": "unocc",
				"energy": 0.05034,
				"method": "rhf"
			}
		],
		"cosmo_sigma_profile": { 
			"-0.025": 0.0,
			"-0.024": 0.0,
			"-0.023": 0.0,
			"-0.022": 0.0,
			"-0.021": 0.0,
			"-0.02": 0.410612544094,
			"-0.019": 0.846315431812,
			"-0.018": 0.823210189622,
			"-0.017": 1.41051897584,
			"-0.016": 0.50428373597,
			"-0.015": 1.06890513619,
			"-0.014": 1.17648947736,
			"-0.013": 1.27892047279,
			"-0.012": 1.32592128955,
			"-0.011": 1.49161748766,
			"-0.01": 1.64474744291,
			"-0.009": 3.21183849699,
			"-0.008": 5.39126390183,
			"-0.007": 3.2110214348,
			"-0.006": 4.26209978038,
			"-0.005": 13.8099029437,
			"-0.004": 27.0662452971,
			"-0.003": 39.3559277822,
			"-0.002": 35.5127943653,
			"-0.001": 30.1824369889,
			"0.0": 27.2033522157,
			"0.001": 12.0240389349,
			"0.002": 10.5561321692,
			"0.003": 10.1911338977,
			"0.004": 6.33808280383,
			"0.005": 6.79621896619,
			"0.006": 5.58201326598,
			"0.007": 5.955585415,
			"0.008": 7.78357837588,
			"0.009": 8.49843110661,
			"0.01": 13.6245667318,
			"0.011": 13.3013495524,
			"0.012": 4.64404638056,
			"0.013": 0.586866162468,
			"0.014": 0.0,
			"0.015": 0.0,
			"0.016": 0.0,
			"0.017": 0.0,
			"0.018": 0.0,
			"0.019": 0.0,
			"0.02": 0.0,
			"0.021": 0.0,
			"0.022": 0.0,
			"0.023": 0.0,
			"0.024": 0.0,
			"0.0": 0.0
		}
	}
}
