{
	 "smiles": "[O-][N+](=O)C=CC1=CC=CC=C1C(F)(F)F", 
	 "Tm": 334.15, 
	 "num_atms": 21, 
	 "gaussian": { 
		 "optdone": 1, 
		 "sigma_profile": "yes", 
		 "theory": "DFT", 
		 "functional": "B3LYP", 
		 "basiset": "6-31G**", 
		 "properties": { 
			 "R2extent": 4288.9838, 
			 "electric_dipole_moment_norm": 6.42273374273, 
			 "electric_quadrupole_moment_norm": 11.5228697628, 
			 "total_energy": -851.179675806, 
			 "HOMO_LUMO_gap": 0.16464, 
			 "cosmo_polarized_energy": -10.54, 
			 "cosmo_cavitation_energy": 27.87, 
			 "cosmo_dispersion_energy": -19.51, 
			 "cosmo_repulsion_energy": 1.46, 
			 "cosmo_total_nonelectrostatic_energy": 9.83, 
			 "SMD_solvation_energy": 8.59 
		},
		"coords": [
			{
				"x": 1.7061702248,
				"y": -2.8730944611,
				"z": 3.4605666744,
				"element": "O" 
			},
			{
				"x": 1.8113756226,
				"y": -1.7670080673,
				"z": 2.9246731328,
				"element": "N" 
			},
			{
				"x": 2.7981377234,
				"y": -1.0341615746,
				"z": 2.9953316788,
				"element": "O" 
			},
			{
				"x": 0.6549027633,
				"y": -1.3300949851,
				"z": 2.1565057188,
				"element": "C" 
			},
			{
				"x": 0.658452084,
				"y": -0.1419370576,
				"z": 1.5408543534,
				"element": "C" 
			},
			{
				"x": -0.4424295916,
				"y": 0.3764434281,
				"z": 0.7192276778,
				"element": "C" 
			},
			{
				"x": -1.3569806679,
				"y": -0.4983723884,
				"z": 0.1073429194,
				"element": "C" 
			},
			{
				"x": -2.4056486038,
				"y": -0.0209358218,
				"z": -0.6735187505,
				"element": "C" 
			},
			{
				"x": -2.5614243641,
				"y": 1.3513301024,
				"z": -0.8671881733,
				"element": "C" 
			},
			{
				"x": -1.6609728225,
				"y": 2.2392045202,
				"z": -0.2785987216,
				"element": "C" 
			},
			{
				"x": -0.6075048495,
				"y": 1.7657922889,
				"z": 0.502805077,
				"element": "C" 
			},
			{
				"x": 0.3365205002,
				"y": 2.762166545,
				"z": 1.1354600298,
				"element": "C" 
			},
			{
				"x": 1.6070892738,
				"y": 2.5966489007,
				"z": 0.6917553969,
				"element": "F" 
			},
			{
				"x": 0.3727674978,
				"y": 2.6304404645,
				"z": 2.4797778597,
				"element": "F" 
			},
			{
				"x": -0.0128400396,
				"y": 4.0352280598,
				"z": 0.8651805656,
				"element": "F" 
			},
			{
				"x": -0.1419248933,
				"y": -2.0597282339,
				"z": 2.1817659689,
				"element": "H" 
			},
			{
				"x": 1.5434465853,
				"y": 0.4700194295,
				"z": 1.6765981773,
				"element": "H" 
			},
			{
				"x": -1.2252017443,
				"y": -1.5687357403,
				"z": 0.2258123944,
				"element": "H" 
			},
			{
				"x": -3.0933654539,
				"y": -0.7211519913,
				"z": -1.1375451029,
				"element": "H" 
			},
			{
				"x": -3.3742021931,
				"y": 1.7316914833,
				"z": -1.4777067034,
				"element": "H" 
			},
			{
				"x": -1.7740670519,
				"y": 3.3068550989,
				"z": -0.4230001732,
				"element": "H" 
			}
		],
		 "valence_orbital": [ 
			{
				"type": "occ",
				"energy": -0.30644,
				"method": "rhf"
			},
			{
				"type": "occ",
				"energy": -0.30555,
				"method": "rhf"
			},
			{
				"type": "occ",
				"energy": -0.29063,
				"method": "rhf"
			},
			{
				"type": "occ",
				"energy": -0.28885,
				"method": "rhf"
			},
			{
				"type": "occ",
				"energy": -0.26891,
				"method": "rhf"
			},
			{
				"type": "unocc",
				"energy": -0.10427,
				"method": "rhf"
			},
			{
				"type": "unocc",
				"energy": -0.04476,
				"method": "rhf"
			},
			{
				"type": "unocc",
				"energy": -0.03587,
				"method": "rhf"
			},
			{
				"type": "unocc",
				"energy": 0.03063,
				"method": "rhf"
			},
			{
				"type": "unocc",
				"energy": 0.07234,
				"method": "rhf"
			}
		],
		"cosmo_sigma_profile": { 
			"-0.025": 0.0,
			"-0.024": 0.0,
			"-0.023": 0.0,
			"-0.022": 0.0,
			"-0.021": 0.0,
			"-0.02": 0.0,
			"-0.019": 0.0,
			"-0.018": 0.0,
			"-0.017": 0.0,
			"-0.016": 0.0,
			"-0.015": 0.0,
			"-0.014": 0.0,
			"-0.013": 0.0,
			"-0.012": 0.0,
			"-0.011": 0.300311598238,
			"-0.01": 1.89984149936,
			"-0.009": 2.60553426978,
			"-0.008": 3.7123887171,
			"-0.007": 8.87796272859,
			"-0.006": 10.7607305634,
			"-0.005": 10.2980388854,
			"-0.004": 12.057674813,
			"-0.003": 15.257690384,
			"-0.002": 15.5026766506,
			"-0.001": 18.4559619065,
			"0.0": 20.2071147114,
			"0.001": 21.0954934283,
			"0.002": 35.159948277,
			"0.003": 14.3592335911,
			"0.004": 2.25511963567,
			"0.005": 2.51403269022,
			"0.006": 3.52177047222,
			"0.007": 5.87704649653,
			"0.008": 10.245614808,
			"0.009": 5.71551101177,
			"0.01": 3.44588993737,
			"0.011": 0.549197788339,
			"0.012": 0.0,
			"0.013": 0.0,
			"0.014": 0.0,
			"0.015": 0.0,
			"0.016": 0.0,
			"0.017": 0.0,
			"0.018": 0.0,
			"0.019": 0.0,
			"0.02": 0.0,
			"0.021": 0.0,
			"0.022": 0.0,
			"0.023": 0.0,
			"0.024": 0.0,
			"0.025": 0.0
		}
	}
}
