{
	 "smiles": "COCCOC1=CC=C(C=C1)N1N=C(C)C(=N1)C(O)=O", 
	 "Tm": 431.15, 
	 "num_atms": 35, 
	 "gaussian": { 
		 "optdone": 1, 
		 "sigma_profile": "yes", 
		 "theory": "DFT", 
		 "functional": "B3LYP", 
		 "basiset": "6-31G**", 
		 "properties": { 
			 "R2extent": 9944.9291, 
			 "electric_dipole_moment_norm": 7.90704710622, 
			 "electric_quadrupole_moment_norm": 21.0340021558, 
			 "total_energy": -969.537925239, 
			 "HOMO_LUMO_gap": 0.16366, 
			 "cosmo_polarized_energy": -14.95, 
			 "cosmo_cavitation_energy": 39.99, 
			 "cosmo_dispersion_energy": -28.89, 
			 "cosmo_repulsion_energy": 2.25, 
			 "cosmo_total_nonelectrostatic_energy": 13.34, 
			 "SMD_solvation_energy": 7.63 
		},
		"coords": [
			{
				"x": 4.6917004832,
				"y": 0.7745252012,
				"z": -2.37287196,
				"element": "C" 
			},
			{
				"x": 3.694696242,
				"y": -0.2238724464,
				"z": -2.2816178327,
				"element": "O" 
			},
			{
				"x": 4.2081647345,
				"y": -1.4886040167,
				"z": -1.9197364406,
				"element": "C" 
			},
			{
				"x": 3.0729844957,
				"y": -2.4859985563,
				"z": -1.7560750919,
				"element": "C" 
			},
			{
				"x": 2.3612938591,
				"y": -2.3350848905,
				"z": -0.526895204,
				"element": "O" 
			},
			{
				"x": 1.1686609812,
				"y": -1.6706988785,
				"z": -0.4838018039,
				"element": "C" 
			},
			{
				"x": 0.731166945,
				"y": -0.7407027407,
				"z": -1.435383678,
				"element": "C" 
			},
			{
				"x": -0.5116579493,
				"y": -0.1278656884,
				"z": -1.2858019198,
				"element": "C" 
			},
			{
				"x": -1.3131026119,
				"y": -0.4321272419,
				"z": -0.1848205945,
				"element": "C" 
			},
			{
				"x": -0.87610245,
				"y": -1.3476650635,
				"z": 0.7785891766,
				"element": "C" 
			},
			{
				"x": 0.3572528932,
				"y": -1.964353597,
				"z": 0.6228977964,
				"element": "C" 
			},
			{
				"x": -2.5808955627,
				"y": 0.2006740537,
				"z": -0.0393047506,
				"element": "N" 
			},
			{
				"x": -3.0577916679,
				"y": 1.0653059076,
				"z": -0.9500668889,
				"element": "N" 
			},
			{
				"x": -4.2473809954,
				"y": 1.4376734123,
				"z": -0.4732227473,
				"element": "C" 
			},
			{
				"x": -5.1327215396,
				"y": 2.4065504786,
				"z": -1.1834909887,
				"element": "C" 
			},
			{
				"x": -4.4470545703,
				"y": 0.7573226642,
				"z": 0.7496515742,
				"element": "C" 
			},
			{
				"x": -3.3795293439,
				"y": -0.0144480648,
				"z": 0.9966487131,
				"element": "N" 
			},
			{
				"x": -5.5935379328,
				"y": 0.8095140903,
				"z": 1.6807879758,
				"element": "C" 
			},
			{
				"x": -5.4713606747,
				"y": 0.0291454123,
				"z": 2.7783456195,
				"element": "O" 
			},
			{
				"x": -6.5731650891,
				"y": 1.4944960428,
				"z": 1.4873518218,
				"element": "O" 
			},
			{
				"x": 5.2089615008,
				"y": 0.9200667523,
				"z": -1.412476469,
				"element": "H" 
			},
			{
				"x": 4.1933852618,
				"y": 1.7054109094,
				"z": -2.6517604912,
				"element": "H" 
			},
			{
				"x": 5.4440305539,
				"y": 0.528926636,
				"z": -3.1385699323,
				"element": "H" 
			},
			{
				"x": 4.7748142545,
				"y": -1.4299300734,
				"z": -0.9763792057,
				"element": "H" 
			},
			{
				"x": 4.89533752,
				"y": -1.8654829839,
				"z": -2.6980820771,
				"element": "H" 
			},
			{
				"x": 2.3924199514,
				"y": -2.4358030379,
				"z": -2.6134896485,
				"element": "H" 
			},
			{
				"x": 3.5034238703,
				"y": -3.4925739454,
				"z": -1.7183631234,
				"element": "H" 
			},
			{
				"x": 1.3724547421,
				"y": -0.4579541064,
				"z": -2.2600674538,
				"element": "H" 
			},
			{
				"x": -0.8586774821,
				"y": 0.5958064133,
				"z": -2.0129372343,
				"element": "H" 
			},
			{
				"x": -1.5044661347,
				"y": -1.575940399,
				"z": 1.6305593838,
				"element": "H" 
			},
			{
				"x": 0.7123709953,
				"y": -2.6865528434,
				"z": 1.3500917928,
				"element": "H" 
			},
			{
				"x": -4.6604186233,
				"y": 2.7328488921,
				"z": -2.1119549087,
				"element": "H" 
			},
			{
				"x": -6.1015119025,
				"y": 1.9518940173,
				"z": -1.4092651097,
				"element": "H" 
			},
			{
				"x": -5.3362039551,
				"y": 3.2779648127,
				"z": -0.5544982229,
				"element": "H" 
			},
			{
				"x": -4.6160407988,
				"y": -0.4316671221,
				"z": 2.7367099235,
				"element": "H" 
			}
		],
		 "valence_orbital": [ 
			{
				"type": "occ",
				"energy": -0.28175,
				"method": "rhf"
			},
			{
				"type": "occ",
				"energy": -0.27381,
				"method": "rhf"
			},
			{
				"type": "occ",
				"energy": -0.27187,
				"method": "rhf"
			},
			{
				"type": "occ",
				"energy": -0.26297,
				"method": "rhf"
			},
			{
				"type": "occ",
				"energy": -0.21789,
				"method": "rhf"
			},
			{
				"type": "unocc",
				"energy": -0.05423,
				"method": "rhf"
			},
			{
				"type": "unocc",
				"energy": -0.01611,
				"method": "rhf"
			},
			{
				"type": "unocc",
				"energy": -0.00579,
				"method": "rhf"
			},
			{
				"type": "unocc",
				"energy": 0.03216,
				"method": "rhf"
			},
			{
				"type": "unocc",
				"energy": 0.07676,
				"method": "rhf"
			}
		],
		"cosmo_sigma_profile": { 
			"-0.025": 0.0,
			"-0.024": 0.0,
			"-0.023": 0.0,
			"-0.022": 0.0,
			"-0.021": 0.0,
			"-0.02": 0.0,
			"-0.019": 0.0,
			"-0.018": 0.0,
			"-0.017": 0.0,
			"-0.016": 0.0762524044683,
			"-0.015": 0.728181428374,
			"-0.014": 0.398914194113,
			"-0.013": 0.432872221557,
			"-0.012": 0.864345503616,
			"-0.011": 0.928313586641,
			"-0.01": 0.934376719867,
			"-0.009": 0.388230919389,
			"-0.008": 0.879030643372,
			"-0.007": 3.51824820486,
			"-0.006": 11.6336550045,
			"-0.005": 22.3997337032,
			"-0.004": 36.2998588115,
			"-0.003": 32.4423160341,
			"-0.002": 34.5501856708,
			"-0.001": 25.2094268917,
			"0.0": 19.9611396443,
			"0.001": 17.9959023297,
			"0.002": 18.4982736007,
			"0.003": 21.7021270255,
			"0.004": 14.8932730231,
			"0.005": 8.97446231966,
			"0.006": 8.05873644102,
			"0.007": 6.3414755534,
			"0.008": 7.34228088794,
			"0.009": 6.55667760449,
			"0.01": 7.06536224216,
			"0.011": 4.67059300859,
			"0.012": 3.07712113927,
			"0.013": 1.25372875031,
			"0.014": 0.00419220388973,
			"0.015": 0.0,
			"0.016": 0.0,
			"0.017": 0.0,
			"0.018": 0.0,
			"0.019": 0.0,
			"0.02": 0.0,
			"0.021": 0.0,
			"0.022": 0.0,
			"0.023": 0.0,
			"0.024": 0.0,
			"0.025": 0.0
		}
	}
}
