{
	 "smiles": "NS(=O)(=O)C1=CC(=CC(F)=C1)[N+]([O-])=O", 
	 "Tm": 458.15, 
	 "num_atms": 19, 
	 "gaussian": { 
		 "optdone": 1, 
		 "sigma_profile": "yes", 
		 "theory": "DFT", 
		 "functional": "B3LYP", 
		 "basiset": "6-31G**", 
		 "properties": { 
			 "R2extent": 3961.2049, 
			 "electric_dipole_moment_norm": 4.51265190991, 
			 "electric_quadrupole_moment_norm": 18.4902385853, 
			 "total_energy": -1139.8914631, 
			 "HOMO_LUMO_gap": 0.17978, 
			 "cosmo_polarized_energy": -20.86, 
			 "cosmo_cavitation_energy": 26.97, 
			 "cosmo_dispersion_energy": -19.92, 
			 "cosmo_repulsion_energy": 1.5, 
			 "cosmo_total_nonelectrostatic_energy": 8.55, 
			 "SMD_solvation_energy": 7.18 
		},
		"coords": [
			{
				"x": -1.2645603226,
				"y": 1.3421335365,
				"z": 1.556048229,
				"element": "N" 
			},
			{
				"x": -2.0458831645,
				"y": 0.9846561781,
				"z": 0.1236102212,
				"element": "S" 
			},
			{
				"x": -2.9230146699,
				"y": -0.1442903818,
				"z": 0.4147377361,
				"element": "O" 
			},
			{
				"x": -2.5146600445,
				"y": 2.2605521558,
				"z": -0.4091848,
				"element": "O" 
			},
			{
				"x": -0.7823376932,
				"y": 0.3813889621,
				"z": -1.0222697299,
				"element": "C" 
			},
			{
				"x": -0.4316089273,
				"y": -0.9680453173,
				"z": -1.0004940532,
				"element": "C" 
			},
			{
				"x": 0.556210968,
				"y": -1.3886931467,
				"z": -1.885611083,
				"element": "C" 
			},
			{
				"x": 1.1856107569,
				"y": -0.528313196,
				"z": -2.7816710482,
				"element": "C" 
			},
			{
				"x": 0.7914082003,
				"y": 0.8039142304,
				"z": -2.7726933077,
				"element": "C" 
			},
			{
				"x": 1.3712772992,
				"y": 1.6563446246,
				"z": -3.6301366253,
				"element": "F" 
			},
			{
				"x": -0.1877329991,
				"y": 1.282739592,
				"z": -1.9064700396,
				"element": "C" 
			},
			{
				"x": 0.9544116333,
				"y": -2.8120675868,
				"z": -1.8816759549,
				"element": "N" 
			},
			{
				"x": 1.8123003303,
				"y": -3.1597220424,
				"z": -2.6892375504,
				"element": "O" 
			},
			{
				"x": 0.4039817635,
				"y": -3.5486536549,
				"z": -1.0677240379,
				"element": "O" 
			},
			{
				"x": -0.9040215121,
				"y": 0.5333402495,
				"z": 2.050155731,
				"element": "H" 
			},
			{
				"x": -0.6243675345,
				"y": 2.1265048035,
				"z": 1.5008378373,
				"element": "H" 
			},
			{
				"x": -0.9187444496,
				"y": -1.6761430228,
				"z": -0.3422970519,
				"element": "H" 
			},
			{
				"x": 1.9454094489,
				"y": -0.8905985543,
				"z": -3.461677415,
				"element": "H" 
			},
			{
				"x": -0.4951790829,
				"y": 2.3217525705,
				"z": -1.9386470577,
				"element": "H" 
			}
		],
		 "valence_orbital": [ 
			{
				"type": "occ",
				"energy": -0.32562,
				"method": "rhf"
			},
			{
				"type": "occ",
				"energy": -0.32132,
				"method": "rhf"
			},
			{
				"type": "occ",
				"energy": -0.31333,
				"method": "rhf"
			},
			{
				"type": "occ",
				"energy": -0.30705,
				"method": "rhf"
			},
			{
				"type": "occ",
				"energy": -0.29354,
				"method": "rhf"
			},
			{
				"type": "unocc",
				"energy": -0.11376,
				"method": "rhf"
			},
			{
				"type": "unocc",
				"energy": -0.06729,
				"method": "rhf"
			},
			{
				"type": "unocc",
				"energy": -0.02615,
				"method": "rhf"
			},
			{
				"type": "unocc",
				"energy": 0.02757,
				"method": "rhf"
			},
			{
				"type": "unocc",
				"energy": 0.05243,
				"method": "rhf"
			}
		],
		"cosmo_sigma_profile": { 
			"-0.025": 0.0,
			"-0.024": 0.0,
			"-0.023": 0.0,
			"-0.022": 0.0,
			"-0.021": 0.0,
			"-0.02": 0.0,
			"-0.019": 0.0,
			"-0.018": 0.0,
			"-0.017": 0.0,
			"-0.016": 1.52166721148,
			"-0.015": 3.06819120825,
			"-0.014": 2.8628520355,
			"-0.013": 3.47239239609,
			"-0.012": 2.63638856559,
			"-0.011": 2.29045877943,
			"-0.01": 2.66571835452,
			"-0.009": 4.34569782355,
			"-0.008": 5.79451765403,
			"-0.007": 7.88700142784,
			"-0.006": 5.71509177203,
			"-0.005": 8.10811507951,
			"-0.004": 9.93650047928,
			"-0.003": 22.0618708612,
			"-0.002": 19.5209260311,
			"-0.001": 8.46706996984,
			"0.0": 6.93966555935,
			"0.001": 6.78917640473,
			"0.002": 7.88183233947,
			"0.003": 13.6425317312,
			"0.004": 5.90327726997,
			"0.005": 7.14622725222,
			"0.006": 10.4745787586,
			"0.007": 13.0941731417,
			"0.008": 8.4561633705,
			"0.009": 8.14181268886,
			"0.01": 9.53272785974,
			"0.011": 8.16844537329,
			"0.012": 0.229226447161,
			"0.013": 0.0,
			"0.014": 0.0,
			"0.015": 0.0,
			"0.016": 0.0,
			"0.017": 0.0,
			"0.018": 0.0,
			"0.019": 0.0,
			"0.02": 0.0,
			"0.021": 0.0,
			"0.022": 0.0,
			"0.023": 0.0,
			"0.024": 0.0,
			"0.025": 0.0
		}
	}
}
