{
	 "smiles": "CC1=NC2=C(O1)C=CC(NC(=O)CCC(O)=O)=C2", 
	 "Tm": 458.15, 
	 "num_atms": 30, 
	 "gaussian": { 
		 "optdone": 1, 
		 "sigma_profile": "yes", 
		 "theory": "DFT", 
		 "functional": "B3LYP", 
		 "basiset": "6-31G**", 
		 "properties": { 
			 "R2extent": 8088.3637, 
			 "electric_dipole_moment_norm": 1.46461173695, 
			 "electric_quadrupole_moment_norm": 18.5112269693, 
			 "total_energy": -874.953577921, 
			 "HOMO_LUMO_gap": 0.19161, 
			 "cosmo_polarized_energy": -20.04, 
			 "cosmo_cavitation_energy": 35.48, 
			 "cosmo_dispersion_energy": -25.8, 
			 "cosmo_repulsion_energy": 2.01, 
			 "cosmo_total_nonelectrostatic_energy": 11.68, 
			 "SMD_solvation_energy": 5.88 
		},
		"coords": [
			{
				"x": -2.506961327,
				"y": 2.7144507293,
				"z": -6.3985372697,
				"element": "C" 
			},
			{
				"x": -1.8388665323,
				"y": 2.1667846715,
				"z": -5.1888350937,
				"element": "C" 
			},
			{
				"x": -0.7247748639,
				"y": 2.549219057,
				"z": -4.6494370189,
				"element": "N" 
			},
			{
				"x": -0.5670509568,
				"y": 1.7049098698,
				"z": -3.5467737285,
				"element": "C" 
			},
			{
				"x": -1.653261896,
				"y": 0.8243999419,
				"z": -3.4937888386,
				"element": "C" 
			},
			{
				"x": -2.4763892541,
				"y": 1.1226192692,
				"z": -4.5554321657,
				"element": "O" 
			},
			{
				"x": -1.7971593881,
				"y": -0.1436376525,
				"z": -2.5140171675,
				"element": "C" 
			},
			{
				"x": -0.791949792,
				"y": -0.2177094324,
				"z": -1.5477999065,
				"element": "C" 
			},
			{
				"x": 0.3155632432,
				"y": 0.6611742143,
				"z": -1.5811873168,
				"element": "C" 
			},
			{
				"x": 1.3533607766,
				"y": 0.6036970431,
				"z": -0.6213946372,
				"element": "N" 
			},
			{
				"x": 1.4793940943,
				"y": -0.2078046225,
				"z": 0.4766258914,
				"element": "C" 
			},
			{
				"x": 0.6614169468,
				"y": -1.05576158,
				"z": 0.8143734558,
				"element": "O" 
			},
			{
				"x": 2.7850366144,
				"y": -0.0206049506,
				"z": 1.2557263195,
				"element": "C" 
			},
			{
				"x": 2.5447647143,
				"y": -0.1359741621,
				"z": 2.7596130146,
				"element": "C" 
			},
			{
				"x": 1.8306649415,
				"y": 1.0797034831,
				"z": 3.3081972528,
				"element": "C" 
			},
			{
				"x": 1.5877827189,
				"y": 0.963925185,
				"z": 4.6332072065,
				"element": "O" 
			},
			{
				"x": 1.5083408347,
				"y": 2.0560963692,
				"z": 2.665011357,
				"element": "O" 
			},
			{
				"x": 0.4376176237,
				"y": 1.6333220377,
				"z": -2.5848258771,
				"element": "C" 
			},
			{
				"x": -2.6247336401,
				"y": 1.9384862611,
				"z": -7.1621518497,
				"element": "H" 
			},
			{
				"x": -3.5059043698,
				"y": 3.0903172041,
				"z": -6.1537129709,
				"element": "H" 
			},
			{
				"x": -1.9039855222,
				"y": 3.5283927208,
				"z": -6.8010765215,
				"element": "H" 
			},
			{
				"x": -2.6475216191,
				"y": -0.8158916635,
				"z": -2.4888313816,
				"element": "H" 
			},
			{
				"x": -0.8474864324,
				"y": -0.9473945241,
				"z": -0.7532083362,
				"element": "H" 
			},
			{
				"x": 2.0656921779,
				"y": 1.311172329,
				"z": -0.7269889326,
				"element": "H" 
			},
			{
				"x": 3.2642383861,
				"y": 0.9340290737,
				"z": 1.0195205664,
				"element": "H" 
			},
			{
				"x": 3.4637021107,
				"y": -0.8213521043,
				"z": 0.938279406,
				"element": "H" 
			},
			{
				"x": 3.4838317511,
				"y": -0.2608690665,
				"z": 3.3098680682,
				"element": "H" 
			},
			{
				"x": 1.9315304763,
				"y": -1.0183619915,
				"z": 2.9687766281,
				"element": "H" 
			},
			{
				"x": 1.1250361071,
				"y": 1.7769897962,
				"z": 4.8971449058,
				"element": "H" 
			},
			{
				"x": 1.2839720763,
				"y": 2.3131724939,
				"z": -2.6187450595,
				"element": "H" 
			}
		],
		 "valence_orbital": [ 
			{
				"type": "occ",
				"energy": -0.28622,
				"method": "rhf"
			},
			{
				"type": "occ",
				"energy": -0.28105,
				"method": "rhf"
			},
			{
				"type": "occ",
				"energy": -0.25531,
				"method": "rhf"
			},
			{
				"type": "occ",
				"energy": -0.23533,
				"method": "rhf"
			},
			{
				"type": "occ",
				"energy": -0.21464,
				"method": "rhf"
			},
			{
				"type": "unocc",
				"energy": -0.02303,
				"method": "rhf"
			},
			{
				"type": "unocc",
				"energy": -0.00624,
				"method": "rhf"
			},
			{
				"type": "unocc",
				"energy": 0.00749,
				"method": "rhf"
			},
			{
				"type": "unocc",
				"energy": 0.03533,
				"method": "rhf"
			},
			{
				"type": "unocc",
				"energy": 0.05773,
				"method": "rhf"
			}
		],
		"cosmo_sigma_profile": { 
			"-0.025": 0.0,
			"-0.024": 0.0,
			"-0.023": 0.0,
			"-0.022": 0.0,
			"-0.021": 0.0,
			"-0.02": 0.0,
			"-0.019": 0.0,
			"-0.018": 0.85161119894,
			"-0.017": 0.91379201414,
			"-0.016": 0.952434059849,
			"-0.015": 2.18455580274,
			"-0.014": 1.58664742715,
			"-0.013": 2.10195044034,
			"-0.012": 2.20633890967,
			"-0.011": 1.88449432954,
			"-0.01": 2.16626448237,
			"-0.009": 2.27832270122,
			"-0.008": 2.12504715123,
			"-0.007": 9.39570917557,
			"-0.006": 17.6854626689,
			"-0.005": 18.2428811209,
			"-0.004": 20.1801175056,
			"-0.003": 21.6080371426,
			"-0.002": 20.2442804743,
			"-0.001": 13.3650914365,
			"0.0": 12.4453486322,
			"0.001": 15.9066110908,
			"0.002": 17.7729223465,
			"0.003": 22.5459123729,
			"0.004": 15.5242178914,
			"0.005": 8.92072102573,
			"0.006": 6.9388376499,
			"0.007": 7.51197616558,
			"0.008": 5.89412475738,
			"0.009": 5.07274119988,
			"0.01": 5.7876303144,
			"0.011": 6.10426715318,
			"0.012": 6.03912212166,
			"0.013": 3.69462777809,
			"0.014": 0.892137068222,
			"0.015": 0.921224991528,
			"0.016": 0.556691689175,
			"0.017": 0.0,
			"0.018": 0.0,
			"0.019": 0.0,
			"0.02": 0.0,
			"0.021": 0.0,
			"0.022": 0.0,
			"0.023": 0.0,
			"0.024": 0.0,
			"0.025": 0.0
		}
	}
}
