{
	 "smiles": "NCCCCCCCCN", 
	 "Tm": 325.15, 
	 "num_atms": 30, 
	 "gaussian": { 
		 "optdone": 1, 
		 "sigma_profile": "yes", 
		 "theory": "DFT", 
		 "functional": "B3LYP", 
		 "basiset": "6-31G**", 
		 "properties": { 
			 "R2extent": 3273.6569, 
			 "electric_dipole_moment_norm": 2.04877868253, 
			 "electric_quadrupole_moment_norm": 9.84127560431, 
			 "total_energy": -426.41269564, 
			 "HOMO_LUMO_gap": 0.29856, 
			 "cosmo_polarized_energy": -9.32, 
			 "cosmo_cavitation_energy": 30.15, 
			 "cosmo_dispersion_energy": -21.48, 
			 "cosmo_repulsion_energy": 1.8, 
			 "cosmo_total_nonelectrostatic_energy": 10.48, 
			 "SMD_solvation_energy": 1.46 
		},
		"coords": [
			{
				"x": -2.3787832721,
				"y": 2.4354704637,
				"z": -0.7905328166,
				"element": "N" 
			},
			{
				"x": -2.3573943261,
				"y": 1.3217076927,
				"z": 0.16170133,
				"element": "C" 
			},
			{
				"x": -1.4782062165,
				"y": 1.4929327621,
				"z": 1.4157340576,
				"element": "C" 
			},
			{
				"x": 0.0255085218,
				"y": 1.7334325056,
				"z": 1.1849705545,
				"element": "C" 
			},
			{
				"x": 0.8182304465,
				"y": 0.56246864,
				"z": 0.5617537367,
				"element": "C" 
			},
			{
				"x": 0.8856498997,
				"y": 0.5604834567,
				"z": -0.9751035184,
				"element": "C" 
			},
			{
				"x": 1.6593747948,
				"y": -0.6246619526,
				"z": -1.5790430566,
				"element": "C" 
			},
			{
				"x": 3.1639965259,
				"y": -0.6402698712,
				"z": -1.2753518237,
				"element": "C" 
			},
			{
				"x": 3.9255270811,
				"y": -1.792313188,
				"z": -1.959055597,
				"element": "C" 
			},
			{
				"x": 3.5657378688,
				"y": -3.1561984824,
				"z": -1.5605511307,
				"element": "N" 
			},
			{
				"x": -2.6481678959,
				"y": 3.2930770872,
				"z": -0.3123466413,
				"element": "H" 
			},
			{
				"x": -1.445680541,
				"y": 2.5993922073,
				"z": -1.1606021497,
				"element": "H" 
			},
			{
				"x": -3.3906104028,
				"y": 1.1443847114,
				"z": 0.4858808044,
				"element": "H" 
			},
			{
				"x": -2.060872153,
				"y": 0.4194721415,
				"z": -0.3859645742,
				"element": "H" 
			},
			{
				"x": -1.8750830124,
				"y": 2.3373142825,
				"z": 1.9981051,
				"element": "H" 
			},
			{
				"x": -1.6018009033,
				"y": 0.6042913424,
				"z": 2.0515091711,
				"element": "H" 
			},
			{
				"x": 0.4669208135,
				"y": 1.9745487379,
				"z": 2.1596231695,
				"element": "H" 
			},
			{
				"x": 0.165196636,
				"y": 2.6359249726,
				"z": 0.5729432455,
				"element": "H" 
			},
			{
				"x": 0.3940150374,
				"y": -0.3909688516,
				"z": 0.9090680654,
				"element": "H" 
			},
			{
				"x": 1.8421078222,
				"y": 0.5923138573,
				"z": 0.9528629162,
				"element": "H" 
			},
			{
				"x": -0.1282734356,
				"y": 0.5546912702,
				"z": -1.3922389788,
				"element": "H" 
			},
			{
				"x": 1.3485214787,
				"y": 1.4996987233,
				"z": -1.3118492453,
				"element": "H" 
			},
			{
				"x": 1.2036833413,
				"y": -1.561441925,
				"z": -1.2280956547,
				"element": "H" 
			},
			{
				"x": 1.5243955949,
				"y": -0.6117527688,
				"z": -2.6696741208,
				"element": "H" 
			},
			{
				"x": 3.3327628931,
				"y": -0.7031190364,
				"z": -0.1914354241,
				"element": "H" 
			},
			{
				"x": 3.6060722551,
				"y": 0.3132312914,
				"z": -1.5992861097,
				"element": "H" 
			},
			{
				"x": 3.7919158833,
				"y": -1.7199074323,
				"z": -3.0466091308,
				"element": "H" 
			},
			{
				"x": 4.999748106,
				"y": -1.6665397548,
				"z": -1.7752561725,
				"element": "H" 
			},
			{
				"x": 3.6569674413,
				"y": -3.2578143636,
				"z": -0.5516201321,
				"element": "H" 
			},
			{
				"x": 2.5899397173,
				"y": -3.3416485191,
				"z": -1.7783358741,
				"element": "H" 
			}
		],
		 "valence_orbital": [ 
			{
				"type": "occ",
				"energy": -0.32173,
				"method": "rhf"
			},
			{
				"type": "occ",
				"energy": -0.3098,
				"method": "rhf"
			},
			{
				"type": "occ",
				"energy": -0.30414,
				"method": "rhf"
			},
			{
				"type": "occ",
				"energy": -0.22922,
				"method": "rhf"
			},
			{
				"type": "occ",
				"energy": -0.22844,
				"method": "rhf"
			},
			{
				"type": "unocc",
				"energy": 0.07012,
				"method": "rhf"
			},
			{
				"type": "unocc",
				"energy": 0.0781,
				"method": "rhf"
			},
			{
				"type": "unocc",
				"energy": 0.10073,
				"method": "rhf"
			},
			{
				"type": "unocc",
				"energy": 0.10385,
				"method": "rhf"
			},
			{
				"type": "unocc",
				"energy": 0.10806,
				"method": "rhf"
			}
		],
		"cosmo_sigma_profile": { 
			"-0.025": 0.0,
			"-0.024": 0.0,
			"-0.023": 0.0,
			"-0.022": 0.0,
			"-0.021": 0.0,
			"-0.02": 0.0,
			"-0.019": 0.0,
			"-0.018": 0.0,
			"-0.017": 0.0,
			"-0.016": 0.0,
			"-0.015": 0.0,
			"-0.014": 0.0,
			"-0.013": 0.0,
			"-0.012": 0.0,
			"-0.011": 0.0,
			"-0.01": 0.0291208192209,
			"-0.009": 2.20794736648,
			"-0.008": 3.42604555757,
			"-0.007": 5.34879292369,
			"-0.006": 6.05409436004,
			"-0.005": 7.17547691517,
			"-0.004": 7.34191444499,
			"-0.003": 11.8233297726,
			"-0.002": 35.8453594882,
			"-0.001": 45.0158340687,
			"0.0": 41.4208552671,
			"0.001": 28.0925538706,
			"0.002": 8.42564276425,
			"0.003": 2.68605264883,
			"0.004": 2.08428508475,
			"0.005": 2.2374677278,
			"0.006": 1.45390843199,
			"0.007": 1.56865621758,
			"0.008": 1.51532869679,
			"0.009": 1.16656020382,
			"0.01": 1.39130674924,
			"0.011": 1.88420840992,
			"0.012": 1.65001533302,
			"0.013": 1.24765057241,
			"0.014": 1.25464813838,
			"0.015": 1.16263801801,
			"0.016": 1.11492334555,
			"0.017": 1.53477030324,
			"0.018": 1.16032063586,
			"0.019": 1.45506360743,
			"0.02": 1.02422198315,
			"0.021": 0.176862620551,
			"0.022": 0.0,
			"0.023": 0.0,
			"0.024": 0.0,
			"0.025": 0.0
		}
	}
}
