{
	 "smiles": "CC(C)NC(=O)NC1=CC(C(O)=O)=C(O)C=C1", 
	 "Tm": 466.15, 
	 "num_atms": 31, 
	 "gaussian": { 
		 "optdone": 1, 
		 "sigma_profile": "yes", 
		 "theory": "DFT", 
		 "functional": "B3LYP", 
		 "basiset": "6-31G**", 
		 "properties": { 
			 "R2extent": 5973.904, 
			 "electric_dipole_moment_norm": 1.73560336771, 
			 "electric_quadrupole_moment_norm": 25.7929491929, 
			 "total_energy": -838.058804319, 
			 "HOMO_LUMO_gap": 0.1541, 
			 "cosmo_polarized_energy": -21.67, 
			 "cosmo_cavitation_energy": 34.79, 
			 "cosmo_dispersion_energy": -24.57, 
			 "cosmo_repulsion_energy": 1.92, 
			 "cosmo_total_nonelectrostatic_energy": 12.14, 
			 "SMD_solvation_energy": 7.86 
		},
		"coords": [
			{
				"x": -0.7649515018,
				"y": 2.0180889865,
				"z": -3.4385907274,
				"element": "C" 
			},
			{
				"x": -0.7109843722,
				"y": 0.4894207042,
				"z": -3.4388014782,
				"element": "C" 
			},
			{
				"x": 0.6966935751,
				"y": -0.0395407347,
				"z": -3.7334413947,
				"element": "C" 
			},
			{
				"x": -1.1850850904,
				"y": -0.0007571609,
				"z": -2.1320664884,
				"element": "N" 
			},
			{
				"x": -1.6851366046,
				"y": -1.2792075092,
				"z": -2.0310543572,
				"element": "C" 
			},
			{
				"x": -1.6233065943,
				"y": -2.1042784442,
				"z": -2.9356126755,
				"element": "O" 
			},
			{
				"x": -2.2819627949,
				"y": -1.6174298614,
				"z": -0.8158615816,
				"element": "N" 
			},
			{
				"x": -2.3541297903,
				"y": -0.908284099,
				"z": 0.4026482872,
				"element": "C" 
			},
			{
				"x": -1.276689308,
				"y": -0.1918969062,
				"z": 0.9182684649,
				"element": "C" 
			},
			{
				"x": -1.3666941914,
				"y": 0.4999652182,
				"z": 2.1428344994,
				"element": "C" 
			},
			{
				"x": -0.2388552258,
				"y": 1.2679503466,
				"z": 2.7155313799,
				"element": "C" 
			},
			{
				"x": 0.9673898043,
				"y": 1.2176012786,
				"z": 2.1173117645,
				"element": "O" 
			},
			{
				"x": -0.3520185887,
				"y": 1.9552758098,
				"z": 3.7258330656,
				"element": "O" 
			},
			{
				"x": -2.5797395303,
				"y": 0.4537158782,
				"z": 2.8785157836,
				"element": "C" 
			},
			{
				"x": -2.7576292305,
				"y": 1.0977856828,
				"z": 4.0378400964,
				"element": "O" 
			},
			{
				"x": -3.6511476264,
				"y": -0.3055168533,
				"z": 2.3728041849,
				"element": "C" 
			},
			{
				"x": -3.5443183156,
				"y": -0.9590190955,
				"z": 1.1593044905,
				"element": "C" 
			},
			{
				"x": -0.1089081352,
				"y": 2.4355615429,
				"z": -2.6654349155,
				"element": "H" 
			},
			{
				"x": -1.7826124167,
				"y": 2.3845755079,
				"z": -3.2635353417,
				"element": "H" 
			},
			{
				"x": -0.430481411,
				"y": 2.4082484605,
				"z": -4.40366114,
				"element": "H" 
			},
			{
				"x": -1.3885455913,
				"y": 0.102619257,
				"z": -4.2099829461,
				"element": "H" 
			},
			{
				"x": 0.6976695311,
				"y": -1.1312243547,
				"z": -3.71241238,
				"element": "H" 
			},
			{
				"x": 1.0270765679,
				"y": 0.2867569108,
				"z": -4.7252989874,
				"element": "H" 
			},
			{
				"x": 1.4134894341,
				"y": 0.3310350453,
				"z": -2.9919844071,
				"element": "H" 
			},
			{
				"x": -1.5689718176,
				"y": 0.6901363,
				"z": -1.5014139401,
				"element": "H" 
			},
			{
				"x": -2.7238291637,
				"y": -2.5247465322,
				"z": -0.8621829103,
				"element": "H" 
			},
			{
				"x": -0.3643544872,
				"y": -0.170306015,
				"z": 0.3293483478,
				"element": "H" 
			},
			{
				"x": 0.9746019693,
				"y": 0.5673381634,
				"z": 1.4020619611,
				"element": "H" 
			},
			{
				"x": -1.9204972482,
				"y": 1.5970923342,
				"z": 4.2164089613,
				"element": "H" 
			},
			{
				"x": -4.5676553951,
				"y": -0.3413349419,
				"z": 2.9516087253,
				"element": "H" 
			},
			{
				"x": -4.3917164505,
				"y": -1.5169249185,
				"z": 0.7703156589,
				"element": "H" 
			}
		],
		 "valence_orbital": [ 
			{
				"type": "occ",
				"energy": -0.28995,
				"method": "rhf"
			},
			{
				"type": "occ",
				"energy": -0.28385,
				"method": "rhf"
			},
			{
				"type": "occ",
				"energy": -0.26649,
				"method": "rhf"
			},
			{
				"type": "occ",
				"energy": -0.25925,
				"method": "rhf"
			},
			{
				"type": "occ",
				"energy": -0.22183,
				"method": "rhf"
			},
			{
				"type": "unocc",
				"energy": -0.06773,
				"method": "rhf"
			},
			{
				"type": "unocc",
				"energy": -0.01766,
				"method": "rhf"
			},
			{
				"type": "unocc",
				"energy": 0.02904,
				"method": "rhf"
			},
			{
				"type": "unocc",
				"energy": 0.03828,
				"method": "rhf"
			},
			{
				"type": "unocc",
				"energy": 0.06116,
				"method": "rhf"
			}
		],
		"cosmo_sigma_profile": { 
			"-0.025": 0.0,
			"-0.024": 0.0,
			"-0.023": 0.0,
			"-0.022": 0.0,
			"-0.021": 0.0,
			"-0.02": 0.196093203346,
			"-0.019": 0.86975017906,
			"-0.018": 1.18045853196,
			"-0.017": 0.872158568522,
			"-0.016": 0.612643679537,
			"-0.015": 0.583196045257,
			"-0.014": 1.93074184247,
			"-0.013": 2.86910364846,
			"-0.012": 1.88019003946,
			"-0.011": 2.43503236356,
			"-0.01": 2.41782406425,
			"-0.009": 3.80060341672,
			"-0.008": 5.46009405636,
			"-0.007": 8.04870998739,
			"-0.006": 8.86127227347,
			"-0.005": 7.62572771661,
			"-0.004": 14.132849999,
			"-0.003": 22.9541589053,
			"-0.002": 23.915770194,
			"-0.001": 22.7605836173,
			"0.0": 24.0091922031,
			"0.001": 26.1796917111,
			"0.002": 19.7520603854,
			"0.003": 12.3374070696,
			"0.004": 6.04745003385,
			"0.005": 5.38384125175,
			"0.006": 5.18555145935,
			"0.007": 5.02271442203,
			"0.008": 5.62287821078,
			"0.009": 7.23972043997,
			"0.01": 6.96088607677,
			"0.011": 5.04041602114,
			"0.012": 3.50275731956,
			"0.013": 2.31254421788,
			"0.014": 5.23311884829,
			"0.015": 1.96876748153,
			"0.016": 0.0,
			"0.017": 0.0,
			"0.018": 0.0,
			"0.019": 0.0,
			"0.02": 0.0,
			"0.021": 0.0,
			"0.022": 0.0,
			"0.023": 0.0,
			"0.024": 0.0,
			"0.025": 0.0
		}
	}
}
