{
	 "smiles": "O(C1=CC=CC=C1)C1=CC(OC2=CC=CC=C2)=CC=C1", 
	 "Tm": 333.15, 
	 "num_atms": 34, 
	 "gaussian": { 
		 "optdone": 1, 
		 "sigma_profile": "yes", 
		 "theory": "DFT", 
		 "functional": "B3LYP", 
		 "basiset": "6-31G**", 
		 "properties": { 
			 "R2extent": 7885.4507, 
			 "electric_dipole_moment_norm": 1.20189011977, 
			 "electric_quadrupole_moment_norm": 8.30795643826, 
			 "total_energy": -844.78206609, 
			 "HOMO_LUMO_gap": 0.20196, 
			 "cosmo_polarized_energy": -7.96, 
			 "cosmo_cavitation_energy": 38.82, 
			 "cosmo_dispersion_energy": -27.65, 
			 "cosmo_repulsion_energy": 2.13, 
			 "cosmo_total_nonelectrostatic_energy": 13.3, 
			 "SMD_solvation_energy": 6.94 
		},
		"coords": [
			{
				"x": -2.2190942985,
				"y": 0.0656089661,
				"z": 0.6574252833,
				"element": "O" 
			},
			{
				"x": -2.3630246143,
				"y": -1.0081709592,
				"z": -0.2028602231,
				"element": "C" 
			},
			{
				"x": -1.4676720043,
				"y": -2.0819808547,
				"z": -0.2104328655,
				"element": "C" 
			},
			{
				"x": -1.7187326494,
				"y": -3.1715031717,
				"z": -1.0448389505,
				"element": "C" 
			},
			{
				"x": -2.8550350232,
				"y": -3.1987066936,
				"z": -1.8568703481,
				"element": "C" 
			},
			{
				"x": -3.7460853274,
				"y": -2.1239258816,
				"z": -1.8318559357,
				"element": "C" 
			},
			{
				"x": -3.5023451339,
				"y": -1.0239635599,
				"z": -1.0089576072,
				"element": "C" 
			},
			{
				"x": -1.0053671146,
				"y": 0.7008248352,
				"z": 0.8087628351,
				"element": "C" 
			},
			{
				"x": -0.0642228747,
				"y": 0.7913688155,
				"z": -0.2186617634,
				"element": "C" 
			},
			{
				"x": 1.111254226,
				"y": 1.5127998079,
				"z": 0.0023402017,
				"element": "C" 
			},
			{
				"x": 1.9573469134,
				"y": 1.6232835075,
				"z": -1.0823055336,
				"element": "O" 
			},
			{
				"x": 3.3268023885,
				"y": 1.7029834064,
				"z": -0.912373335,
				"element": "C" 
			},
			{
				"x": 4.0210798402,
				"y": 0.8894992203,
				"z": -0.0114944573,
				"element": "C" 
			},
			{
				"x": 5.4127348959,
				"y": 0.9714102782,
				"z": 0.0466507512,
				"element": "C" 
			},
			{
				"x": 6.11041877,
				"y": 1.8460717143,
				"z": -0.7894224323,
				"element": "C" 
			},
			{
				"x": 5.4050983371,
				"y": 2.6455295834,
				"z": -1.6914564495,
				"element": "C" 
			},
			{
				"x": 4.0132041199,
				"y": 2.580380676,
				"z": -1.7541965293,
				"element": "C" 
			},
			{
				"x": 1.3534618288,
				"y": 2.1467455137,
				"z": 1.2247521616,
				"element": "C" 
			},
			{
				"x": 0.3953193598,
				"y": 2.0401038702,
				"z": 2.2342710164,
				"element": "C" 
			},
			{
				"x": -0.7821445189,
				"y": 1.320742821,
				"z": 2.0420484016,
				"element": "C" 
			},
			{
				"x": -0.5923182169,
				"y": -2.061053034,
				"z": 0.4298328838,
				"element": "H" 
			},
			{
				"x": -1.0242773573,
				"y": -4.0067618964,
				"z": -1.0523483047,
				"element": "H" 
			},
			{
				"x": -3.0448908316,
				"y": -4.0514194877,
				"z": -2.5014781981,
				"element": "H" 
			},
			{
				"x": -4.6334333713,
				"y": -2.1363269505,
				"z": -2.4581450765,
				"element": "H" 
			},
			{
				"x": -4.18074388,
				"y": -0.1779471936,
				"z": -0.9745442591,
				"element": "H" 
			},
			{
				"x": -0.227591742,
				"y": 0.3240588071,
				"z": -1.1819813881,
				"element": "H" 
			},
			{
				"x": 3.4773433777,
				"y": 0.2040833224,
				"z": 0.6295674196,
				"element": "H" 
			},
			{
				"x": 5.9532328448,
				"y": 0.33972062,
				"z": 0.7459042538,
				"element": "H" 
			},
			{
				"x": 7.1935033568,
				"y": 1.9019213119,
				"z": -0.739738059,
				"element": "H" 
			},
			{
				"x": 5.9377231941,
				"y": 3.3278773652,
				"z": -2.3476262258,
				"element": "H" 
			},
			{
				"x": 3.4457283472,
				"y": 3.1931008848,
				"z": -2.4468187643,
				"element": "H" 
			},
			{
				"x": 2.2647422614,
				"y": 2.712751298,
				"z": 1.3774268013,
				"element": "H" 
			},
			{
				"x": 0.5712582422,
				"y": 2.5302654433,
				"z": 3.1873556953,
				"element": "H" 
			},
			{
				"x": -1.5323733452,
				"y": 1.2331276145,
				"z": 2.8198690014,
				"element": "H" 
			}
		],
		 "valence_orbital": [ 
			{
				"type": "occ",
				"energy": -0.25507,
				"method": "rhf"
			},
			{
				"type": "occ",
				"energy": -0.25086,
				"method": "rhf"
			},
			{
				"type": "occ",
				"energy": -0.24914,
				"method": "rhf"
			},
			{
				"type": "occ",
				"energy": -0.22487,
				"method": "rhf"
			},
			{
				"type": "occ",
				"energy": -0.21353,
				"method": "rhf"
			},
			{
				"type": "unocc",
				"energy": -0.01157,
				"method": "rhf"
			},
			{
				"type": "unocc",
				"energy": -0.00822,
				"method": "rhf"
			},
			{
				"type": "unocc",
				"energy": -0.00259,
				"method": "rhf"
			},
			{
				"type": "unocc",
				"energy": -0.00058,
				"method": "rhf"
			},
			{
				"type": "unocc",
				"energy": 0.00886,
				"method": "rhf"
			}
		],
		"cosmo_sigma_profile": { 
			"-0.025": 0.0,
			"-0.024": 0.0,
			"-0.023": 0.0,
			"-0.022": 0.0,
			"-0.021": 0.0,
			"-0.02": 0.0,
			"-0.019": 0.0,
			"-0.018": 0.0,
			"-0.017": 0.0,
			"-0.016": 0.0,
			"-0.015": 0.0,
			"-0.014": 0.0,
			"-0.013": 0.0,
			"-0.012": 0.0,
			"-0.011": 0.0,
			"-0.01": 0.0,
			"-0.009": 0.0,
			"-0.008": 0.0,
			"-0.007": 1.47227925328,
			"-0.006": 20.5127306737,
			"-0.005": 25.3078328631,
			"-0.004": 29.6418111929,
			"-0.003": 24.8361488171,
			"-0.002": 22.2386468801,
			"-0.001": 18.6655340334,
			"0.0": 18.9007326208,
			"0.001": 24.7681949798,
			"0.002": 23.0653625022,
			"0.003": 32.9586252214,
			"0.004": 30.2261939588,
			"0.005": 25.6649438793,
			"0.006": 7.15604176348,
			"0.007": 2.31193768297,
			"0.008": 2.23286501378,
			"0.009": 1.87613784077,
			"0.01": 0.146675284178,
			"0.011": 0.0,
			"0.012": 0.0,
			"0.013": 0.0,
			"0.014": 0.0,
			"0.015": 0.0,
			"0.016": 0.0,
			"0.017": 0.0,
			"0.018": 0.0,
			"0.019": 0.0,
			"0.02": 0.0,
			"0.021": 0.0,
			"0.022": 0.0,
			"0.023": 0.0,
			"0.024": 0.0,
			"0.025": 0.0
		}
	}
}
