{
	 "smiles": "CC1=NS(=O)(=O)C2=CC(Cl)=CC=C2N1", 
	 "Tm": 602.15, 
	 "num_atms": 21, 
	 "gaussian": { 
		 "optdone": 1, 
		 "sigma_profile": "yes", 
		 "theory": "DFT", 
		 "functional": "B3LYP", 
		 "basiset": "6-31G**", 
		 "properties": { 
			 "R2extent": 4395.0327, 
			 "electric_dipole_moment_norm": 8.77219008971, 
			 "electric_quadrupole_moment_norm": 16.6504182863, 
			 "total_energy": -1427.3337145, 
			 "HOMO_LUMO_gap": 0.19292, 
			 "cosmo_polarized_energy": -27.03, 
			 "cosmo_cavitation_energy": 28.5, 
			 "cosmo_dispersion_energy": -21.85, 
			 "cosmo_repulsion_energy": 1.67, 
			 "cosmo_total_nonelectrostatic_energy": 8.31, 
			 "SMD_solvation_energy": 2.92 
		},
		"coords": [
			{
				"x": 0.4721097001,
				"y": -3.2067893683,
				"z": -0.3644364706,
				"element": "C" 
			},
			{
				"x": 0.5532369319,
				"y": -1.7408695163,
				"z": -0.7034451102,
				"element": "C" 
			},
			{
				"x": 1.3331721849,
				"y": -1.3696481044,
				"z": -1.6643436225,
				"element": "N" 
			},
			{
				"x": 1.5149234919,
				"y": 0.221996622,
				"z": -2.1402696901,
				"element": "S" 
			},
			{
				"x": 2.8930265634,
				"y": 0.6204373657,
				"z": -1.8539323595,
				"element": "O" 
			},
			{
				"x": 0.9942397726,
				"y": 0.3444911762,
				"z": -3.5018176759,
				"element": "O" 
			},
			{
				"x": 0.4320345677,
				"y": 1.1362869505,
				"z": -1.045590646,
				"element": "C" 
			},
			{
				"x": 0.3492919702,
				"y": 2.5238148744,
				"z": -1.1826951972,
				"element": "C" 
			},
			{
				"x": -0.4884542574,
				"y": 3.2406496465,
				"z": -0.3375373891,
				"element": "C" 
			},
			{
				"x": -0.6032249053,
				"y": 4.9821867639,
				"z": -0.4970909889,
				"element": "Cl" 
			},
			{
				"x": -1.2446491731,
				"y": 2.588694501,
				"z": 0.6429485286,
				"element": "C" 
			},
			{
				"x": -1.1586697964,
				"y": 1.2095133739,
				"z": 0.7749261025,
				"element": "C" 
			},
			{
				"x": -0.3181296984,
				"y": 0.4680064729,
				"z": -0.0693161756,
				"element": "C" 
			},
			{
				"x": -0.2330050282,
				"y": -0.918996356,
				"z": 0.0649308762,
				"element": "N" 
			},
			{
				"x": -0.5525287131,
				"y": -3.5763255306,
				"z": -0.483675685,
				"element": "H" 
			},
			{
				"x": 1.1308778628,
				"y": -3.7609486423,
				"z": -1.0309336934,
				"element": "H" 
			},
			{
				"x": 0.7799402375,
				"y": -3.382721241,
				"z": 0.6723612697,
				"element": "H" 
			},
			{
				"x": 0.9345159867,
				"y": 3.0304567126,
				"z": -1.9419023975,
				"element": "H" 
			},
			{
				"x": -1.8940098199,
				"y": 3.1614579908,
				"z": 1.2951971637,
				"element": "H" 
			},
			{
				"x": -1.7447399725,
				"y": 0.7004441189,
				"z": 1.5354616637,
				"element": "H" 
			},
			{
				"x": -0.7947579053,
				"y": -1.3502378104,
				"z": 0.7843614972,
				"element": "H" 
			}
		],
		 "valence_orbital": [ 
			{
				"type": "occ",
				"energy": -0.31773,
				"method": "rhf"
			},
			{
				"type": "occ",
				"energy": -0.28954,
				"method": "rhf"
			},
			{
				"type": "occ",
				"energy": -0.28677,
				"method": "rhf"
			},
			{
				"type": "occ",
				"energy": -0.27867,
				"method": "rhf"
			},
			{
				"type": "occ",
				"energy": -0.24376,
				"method": "rhf"
			},
			{
				"type": "unocc",
				"energy": -0.05084,
				"method": "rhf"
			},
			{
				"type": "unocc",
				"energy": -0.04932,
				"method": "rhf"
			},
			{
				"type": "unocc",
				"energy": -0.00257,
				"method": "rhf"
			},
			{
				"type": "unocc",
				"energy": 0.0104,
				"method": "rhf"
			},
			{
				"type": "unocc",
				"energy": 0.03755,
				"method": "rhf"
			}
		],
		"cosmo_sigma_profile": { 
			"-0.025": 0.0,
			"-0.024": 0.0,
			"-0.023": 0.0,
			"-0.022": 0.0,
			"-0.021": 0.0,
			"-0.02": 0.0,
			"-0.019": 0.0,
			"-0.018": 0.38454414496,
			"-0.017": 1.83821527064,
			"-0.016": 1.39734912761,
			"-0.015": 0.918265416491,
			"-0.014": 2.11522690698,
			"-0.013": 1.68818006339,
			"-0.012": 1.50781097582,
			"-0.011": 1.24334261909,
			"-0.01": 2.28581979697,
			"-0.009": 4.62325210354,
			"-0.008": 8.64862895698,
			"-0.007": 10.5137204894,
			"-0.006": 10.9688421004,
			"-0.005": 11.3095758979,
			"-0.004": 11.6183374816,
			"-0.003": 13.7278059211,
			"-0.002": 14.893795588,
			"-0.001": 12.9444669058,
			"0.0": 17.2552882054,
			"0.001": 17.785097447,
			"0.002": 9.15758605278,
			"0.003": 10.1460194087,
			"0.004": 12.2250157507,
			"0.005": 4.55392920477,
			"0.006": 2.75072923305,
			"0.007": 2.7133591514,
			"0.008": 3.7013835435,
			"0.009": 5.5564244876,
			"0.01": 9.23873068519,
			"0.011": 14.2096193697,
			"0.012": 9.02115566587,
			"0.013": 0.150677190764,
			"0.014": 0.0,
			"0.015": 0.0,
			"0.016": 0.0,
			"0.017": 0.0,
			"0.018": 0.0,
			"0.019": 0.0,
			"0.02": 0.0,
			"0.021": 0.0,
			"0.022": 0.0,
			"0.023": 0.0,
			"0.024": 0.0,
			"0.025": 0.0
		}
	}
}
