{
	 "smiles": "CCC(C1CCC2=CC(O)=CC=C2C1)C(C)(C)C(O)=O", 
	 "Tm": 436.15, 
	 "num_atms": 44, 
	 "gaussian": { 
		 "optdone": 1, 
		 "sigma_profile": "yes", 
		 "theory": "DFT", 
		 "functional": "B3LYP", 
		 "basiset": "6-31G**", 
		 "properties": { 
			 "R2extent": 7274.2363, 
			 "electric_dipole_moment_norm": 5.28282006792, 
			 "electric_quadrupole_moment_norm": 15.433917689, 
			 "total_energy": -887.969675104, 
			 "HOMO_LUMO_gap": 0.20951, 
			 "cosmo_polarized_energy": -19.03, 
			 "cosmo_cavitation_energy": 41.77, 
			 "cosmo_dispersion_energy": -28.86, 
			 "cosmo_repulsion_energy": 2.18, 
			 "cosmo_total_nonelectrostatic_energy": 15.09, 
			 "SMD_solvation_energy": 7.39 
		},
		"coords": [
			{
				"x": -2.3403236786,
				"y": 1.3145751942,
				"z": -0.8426999174,
				"element": "C" 
			},
			{
				"x": -1.9048082796,
				"y": -0.0547889716,
				"z": -1.3844534724,
				"element": "C" 
			},
			{
				"x": -0.3761132294,
				"y": -0.278394834,
				"z": -1.46469846,
				"element": "C" 
			},
			{
				"x": 0.3631598061,
				"y": -0.2631529912,
				"z": -0.0809228801,
				"element": "C" 
			},
			{
				"x": 0.8667248473,
				"y": 1.1356574016,
				"z": 0.3289775484,
				"element": "C" 
			},
			{
				"x": 1.8575171699,
				"y": 1.0347281366,
				"z": 1.4953915855,
				"element": "C" 
			},
			{
				"x": 1.3774446361,
				"y": 0.1322440848,
				"z": 2.6179952684,
				"element": "C" 
			},
			{
				"x": 2.0128407589,
				"y": 0.1967701069,
				"z": 3.8665762409,
				"element": "C" 
			},
			{
				"x": 1.630376981,
				"y": -0.6408554873,
				"z": 4.9133355278,
				"element": "C" 
			},
			{
				"x": 2.2249772397,
				"y": -0.6066571653,
				"z": 6.1458044638,
				"element": "O" 
			},
			{
				"x": 0.5975099964,
				"y": -1.5650543483,
				"z": 4.7178202033,
				"element": "C" 
			},
			{
				"x": -0.0302729984,
				"y": -1.6262315032,
				"z": 3.4804038105,
				"element": "C" 
			},
			{
				"x": 0.3368865108,
				"y": -0.7877919087,
				"z": 2.4155202723,
				"element": "C" 
			},
			{
				"x": -0.4184131778,
				"y": -0.8746152934,
				"z": 1.0990275385,
				"element": "C" 
			},
			{
				"x": 0.0212112604,
				"y": -1.540344947,
				"z": -2.3456975106,
				"element": "C" 
			},
			{
				"x": -0.7988832002,
				"y": -1.6113064722,
				"z": -3.654024818,
				"element": "C" 
			},
			{
				"x": 1.5089171021,
				"y": -1.4397393593,
				"z": -2.7566612471,
				"element": "C" 
			},
			{
				"x": -0.2964847038,
				"y": -2.8241767011,
				"z": -1.5501662348,
				"element": "C" 
			},
			{
				"x": 0.737027198,
				"y": -3.4845689078,
				"z": -0.9633897366,
				"element": "O" 
			},
			{
				"x": -1.4196179753,
				"y": -3.2471874282,
				"z": -1.404425403,
				"element": "O" 
			},
			{
				"x": -2.1099847333,
				"y": 1.4500913236,
				"z": 0.2172867034,
				"element": "H" 
			},
			{
				"x": -3.4229616932,
				"y": 1.4351014143,
				"z": -0.9550723415,
				"element": "H" 
			},
			{
				"x": -1.8596379748,
				"y": 2.1320864964,
				"z": -1.3928843958,
				"element": "H" 
			},
			{
				"x": -2.3734704486,
				"y": -0.8584407181,
				"z": -0.8084405987,
				"element": "H" 
			},
			{
				"x": -2.3156746583,
				"y": -0.1404367901,
				"z": -2.3933903658,
				"element": "H" 
			},
			{
				"x": 0.0284048855,
				"y": 0.5680219829,
				"z": -2.0410257975,
				"element": "H" 
			},
			{
				"x": 1.2700093709,
				"y": -0.8740059302,
				"z": -0.1851345035,
				"element": "H" 
			},
			{
				"x": 1.3529374533,
				"y": 1.630930211,
				"z": -0.5204182183,
				"element": "H" 
			},
			{
				"x": 0.021016487,
				"y": 1.7696655843,
				"z": 0.6178735131,
				"element": "H" 
			},
			{
				"x": 2.0791128789,
				"y": 2.0336049435,
				"z": 1.8910459906,
				"element": "H" 
			},
			{
				"x": 2.8152352929,
				"y": 0.645940517,
				"z": 1.1171095416,
				"element": "H" 
			},
			{
				"x": 2.8191569921,
				"y": 0.9143294331,
				"z": 4.0179732364,
				"element": "H" 
			},
			{
				"x": 2.9139615787,
				"y": 0.0701916046,
				"z": 6.142331285,
				"element": "H" 
			},
			{
				"x": 0.3083319723,
				"y": -2.2172492941,
				"z": 5.5351843242,
				"element": "H" 
			},
			{
				"x": -0.8313217661,
				"y": -2.3463206788,
				"z": 3.3297806766,
				"element": "H" 
			},
			{
				"x": -1.3782821186,
				"y": -0.3549040954,
				"z": 1.2117234497,
				"element": "H" 
			},
			{
				"x": -0.6705173874,
				"y": -1.9206212948,
				"z": 0.8990962986,
				"element": "H" 
			},
			{
				"x": -1.8333662549,
				"y": -1.8939651618,
				"z": -3.4634793506,
				"element": "H" 
			},
			{
				"x": -0.7763943135,
				"y": -0.6475320655,
				"z": -4.1736527932,
				"element": "H" 
			},
			{
				"x": -0.3698570398,
				"y": -2.3625330396,
				"z": -4.3258312054,
				"element": "H" 
			},
			{
				"x": 1.6443326807,
				"y": -0.5845315074,
				"z": -3.4259263016,
				"element": "H" 
			},
			{
				"x": 1.8306471631,
				"y": -2.3316903053,
				"z": -3.3058000952,
				"element": "H" 
			},
			{
				"x": 2.1967009841,
				"y": -1.282798004,
				"z": -1.9179819651,
				"element": "H" 
			},
			{
				"x": 1.5758443855,
				"y": -3.0488432311,
				"z": -1.1651798663,
				"element": "H" 
			}
		],
		 "valence_orbital": [ 
			{
				"type": "occ",
				"energy": -0.30139,
				"method": "rhf"
			},
			{
				"type": "occ",
				"energy": -0.29631,
				"method": "rhf"
			},
			{
				"type": "occ",
				"energy": -0.26217,
				"method": "rhf"
			},
			{
				"type": "occ",
				"energy": -0.23777,
				"method": "rhf"
			},
			{
				"type": "occ",
				"energy": -0.20804,
				"method": "rhf"
			},
			{
				"type": "unocc",
				"energy": 0.00147,
				"method": "rhf"
			},
			{
				"type": "unocc",
				"energy": 0.00979,
				"method": "rhf"
			},
			{
				"type": "unocc",
				"energy": 0.02077,
				"method": "rhf"
			},
			{
				"type": "unocc",
				"energy": 0.04943,
				"method": "rhf"
			},
			{
				"type": "unocc",
				"energy": 0.0748,
				"method": "rhf"
			}
		],
		"cosmo_sigma_profile": { 
			"-0.025": 0.0,
			"-0.024": 0.0,
			"-0.023": 0.0,
			"-0.022": 0.0,
			"-0.021": 0.0,
			"-0.02": 0.0,
			"-0.019": 0.0,
			"-0.018": 0.099698661492,
			"-0.017": 1.31914472355,
			"-0.016": 1.55549310658,
			"-0.015": 1.91710256426,
			"-0.014": 2.16091950048,
			"-0.013": 1.44854041019,
			"-0.012": 1.63595630595,
			"-0.011": 1.8171786426,
			"-0.01": 2.58350997873,
			"-0.009": 2.24362416497,
			"-0.008": 2.29116188615,
			"-0.007": 2.71821938961,
			"-0.006": 5.3018654009,
			"-0.005": 9.19230507015,
			"-0.004": 17.8059750266,
			"-0.003": 35.8248874049,
			"-0.002": 39.8096236502,
			"-0.001": 38.6415443995,
			"0.0": 35.6412313512,
			"0.001": 25.0822060657,
			"0.002": 12.7503396745,
			"0.003": 10.0135734194,
			"0.004": 10.7946504394,
			"0.005": 13.1204176739,
			"0.006": 11.5796963224,
			"0.007": 8.50153421782,
			"0.008": 4.60807965514,
			"0.009": 3.50880818935,
			"0.01": 5.44896363619,
			"0.011": 6.37118342129,
			"0.012": 5.98700340172,
			"0.013": 2.42803559138,
			"0.014": 0.427423443677,
			"0.015": 0.0,
			"0.016": 0.0,
			"0.017": 0.0,
			"0.018": 0.0,
			"0.019": 0.0,
			"0.02": 0.0,
			"0.021": 0.0,
			"0.022": 0.0,
			"0.023": 0.0,
			"0.024": 0.0,
			"0.025": 0.0
		}
	}
}
