{
	 "smiles": "CCCCOC1=CC=C(C=C1)C1=NN=C2SC(NN12)C1=CC=C(O)C(OC)=C1", 
	 "Tm": 417.15, 
	 "num_atms": 50, 
	 "gaussian": { 
		 "optdone": 1, 
		 "sigma_profile": "yes", 
		 "theory": "DFT", 
		 "functional": "B3LYP", 
		 "basiset": "6-31G**", 
		 "properties": { 
			 "R2extent": 21832.4957, 
			 "electric_dipole_moment_norm": 7.36089876238, 
			 "electric_quadrupole_moment_norm": 46.8988228353, 
			 "total_energy": -1618.17769593, 
			 "HOMO_LUMO_gap": 0.16811, 
			 "cosmo_polarized_energy": -24.86, 
			 "cosmo_cavitation_energy": 55.38, 
			 "cosmo_dispersion_energy": -40.03, 
			 "cosmo_repulsion_energy": 2.99, 
			 "cosmo_total_nonelectrostatic_energy": 18.34, 
			 "SMD_solvation_energy": 7.15 
		},
		"coords": [
			{
				"x": 7.7934800888,
				"y": -1.8556691674,
				"z": -0.9058572854,
				"element": "C" 
			},
			{
				"x": 6.3212494116,
				"y": -2.1813991191,
				"z": -0.6376497541,
				"element": "C" 
			},
			{
				"x": 6.0224308834,
				"y": -2.4049618748,
				"z": 0.8502170569,
				"element": "C" 
			},
			{
				"x": 4.5623051514,
				"y": -2.7216470681,
				"z": 1.1449081231,
				"element": "C" 
			},
			{
				"x": 3.781013348,
				"y": -1.582273231,
				"z": 0.7789813518,
				"element": "O" 
			},
			{
				"x": 2.4294296897,
				"y": -1.6299274562,
				"z": 0.9368802044,
				"element": "C" 
			},
			{
				"x": 1.7227353913,
				"y": -2.7294243379,
				"z": 1.4462288244,
				"element": "C" 
			},
			{
				"x": 0.336987646,
				"y": -2.6672123905,
				"z": 1.5625017661,
				"element": "C" 
			},
			{
				"x": -0.3741067276,
				"y": -1.5198099493,
				"z": 1.1798163816,
				"element": "C" 
			},
			{
				"x": 0.3456723255,
				"y": -0.4217010825,
				"z": 0.6734806933,
				"element": "C" 
			},
			{
				"x": 1.727276057,
				"y": -0.4772095346,
				"z": 0.5538570224,
				"element": "C" 
			},
			{
				"x": -1.8284523171,
				"y": -1.5148143244,
				"z": 1.3367585679,
				"element": "C" 
			},
			{
				"x": -2.5368399098,
				"y": -2.4647291998,
				"z": 1.9262008298,
				"element": "N" 
			},
			{
				"x": -3.8830031456,
				"y": -2.1201305445,
				"z": 1.9078174708,
				"element": "N" 
			},
			{
				"x": -3.9549088514,
				"y": -0.9749178397,
				"z": 1.2847139416,
				"element": "C" 
			},
			{
				"x": -5.2137636907,
				"y": 0.1674330509,
				"z": 0.8253786927,
				"element": "S" 
			},
			{
				"x": -3.800880479,
				"y": 1.4386934987,
				"z": 0.5638395592,
				"element": "C" 
			},
			{
				"x": -2.6101838385,
				"y": 0.6649833236,
				"z": 0.1862240013,
				"element": "N" 
			},
			{
				"x": -2.7073508152,
				"y": -0.5422392412,
				"z": 0.9065607176,
				"element": "N" 
			},
			{
				"x": -4.1270925701,
				"y": 2.5133379877,
				"z": -0.4330301243,
				"element": "C" 
			},
			{
				"x": -4.6317124943,
				"y": 2.2123830644,
				"z": -1.7018908441,
				"element": "C" 
			},
			{
				"x": -4.8749696343,
				"y": 3.2272588196,
				"z": -2.6289824357,
				"element": "C" 
			},
			{
				"x": -4.6206849347,
				"y": 4.5537798649,
				"z": -2.2947615564,
				"element": "C" 
			},
			{
				"x": -4.8609485623,
				"y": 5.5429022983,
				"z": -3.1908710386,
				"element": "O" 
			},
			{
				"x": -4.117681503,
				"y": 4.8655822811,
				"z": -1.0125580277,
				"element": "C" 
			},
			{
				"x": -3.9183463364,
				"y": 6.2074137611,
				"z": -0.8132099557,
				"element": "O" 
			},
			{
				"x": -3.422899846,
				"y": 6.6368872089,
				"z": 0.4481925258,
				"element": "C" 
			},
			{
				"x": -3.8725947793,
				"y": 3.8539829339,
				"z": -0.0919266548,
				"element": "C" 
			},
			{
				"x": 8.4497897301,
				"y": -2.6659059004,
				"z": -0.5674690295,
				"element": "H" 
			},
			{
				"x": 7.9791388709,
				"y": -1.7023960308,
				"z": -1.9737682335,
				"element": "H" 
			},
			{
				"x": 8.0992562399,
				"y": -0.9431117684,
				"z": -0.381513692,
				"element": "H" 
			},
			{
				"x": 5.685697088,
				"y": -1.3699912621,
				"z": -1.0089811953,
				"element": "H" 
			},
			{
				"x": 6.0342663003,
				"y": -3.0801320833,
				"z": -1.2008465419,
				"element": "H" 
			},
			{
				"x": 6.3108898029,
				"y": -1.5171522279,
				"z": 1.4272736322,
				"element": "H" 
			},
			{
				"x": 6.6279481511,
				"y": -3.2378011537,
				"z": 1.2322857911,
				"element": "H" 
			},
			{
				"x": 4.420155189,
				"y": -2.9419068829,
				"z": 2.2121027615,
				"element": "H" 
			},
			{
				"x": 4.2317612439,
				"y": -3.5995541033,
				"z": 0.5705724137,
				"element": "H" 
			},
			{
				"x": 2.2388349157,
				"y": -3.631608654,
				"z": 1.7514543157,
				"element": "H" 
			},
			{
				"x": -0.2159111238,
				"y": -3.5128439704,
				"z": 1.956962298,
				"element": "H" 
			},
			{
				"x": -0.1797094107,
				"y": 0.4813157093,
				"z": 0.3819856394,
				"element": "H" 
			},
			{
				"x": 2.2900648429,
				"y": 0.3655535731,
				"z": 0.1658998316,
				"element": "H" 
			},
			{
				"x": -3.6184810891,
				"y": 1.860393848,
				"z": 1.5544772917,
				"element": "H" 
			},
			{
				"x": -2.6657879168,
				"y": 0.4380309123,
				"z": -0.8103954893,
				"element": "H" 
			},
			{
				"x": -4.8610343772,
				"y": 1.1839914688,
				"z": -1.9637197052,
				"element": "H" 
			},
			{
				"x": -5.2723527279,
				"y": 3.0074497737,
				"z": -3.6140163411,
				"element": "H" 
			},
			{
				"x": -4.6283018295,
				"y": 6.3821256172,
				"z": -2.7635652411,
				"element": "H" 
			},
			{
				"x": -2.4322099736,
				"y": 6.2124007513,
				"z": 0.6514937717,
				"element": "H" 
			},
			{
				"x": -3.3459614695,
				"y": 7.7231749339,
				"z": 0.390454131,
				"element": "H" 
			},
			{
				"x": -4.1092494115,
				"y": 6.3631910696,
				"z": 1.2587043392,
				"element": "H" 
			},
			{
				"x": -3.4798626025,
				"y": 4.0892046479,
				"z": 0.8909891983,
				"element": "H" 
			}
		],
		 "valence_orbital": [ 
			{
				"type": "occ",
				"energy": -0.25279,
				"method": "rhf"
			},
			{
				"type": "occ",
				"energy": -0.2448,
				"method": "rhf"
			},
			{
				"type": "occ",
				"energy": -0.23918,
				"method": "rhf"
			},
			{
				"type": "occ",
				"energy": -0.22682,
				"method": "rhf"
			},
			{
				"type": "occ",
				"energy": -0.19964,
				"method": "rhf"
			},
			{
				"type": "unocc",
				"energy": -0.03153,
				"method": "rhf"
			},
			{
				"type": "unocc",
				"energy": -0.01996,
				"method": "rhf"
			},
			{
				"type": "unocc",
				"energy": -0.01444,
				"method": "rhf"
			},
			{
				"type": "unocc",
				"energy": -0.00231,
				"method": "rhf"
			},
			{
				"type": "unocc",
				"energy": 0.00643,
				"method": "rhf"
			}
		],
		"cosmo_sigma_profile": { 
			"-0.025": 0.0,
			"-0.024": 0.0,
			"-0.023": 0.0,
			"-0.022": 0.0,
			"-0.021": 0.0,
			"-0.02": 0.0,
			"-0.019": 0.0,
			"-0.018": 0.0,
			"-0.017": 0.0,
			"-0.016": 0.0,
			"-0.015": 0.271638729902,
			"-0.014": 1.72382085123,
			"-0.013": 1.70236100664,
			"-0.012": 1.90637531134,
			"-0.011": 1.94525770223,
			"-0.01": 2.50390519031,
			"-0.009": 3.62517377851,
			"-0.008": 5.8060978962,
			"-0.007": 8.96104335876,
			"-0.006": 19.6063859755,
			"-0.005": 26.4461652923,
			"-0.004": 30.0490841884,
			"-0.003": 35.6966299106,
			"-0.002": 35.1869747064,
			"-0.001": 35.0698699705,
			"0.0": 36.1362954308,
			"0.001": 39.0667251198,
			"0.002": 33.8534031452,
			"0.003": 32.8498191673,
			"0.004": 29.8587502149,
			"0.005": 15.0318928696,
			"0.006": 7.85290722676,
			"0.007": 6.05678060827,
			"0.008": 4.07966471841,
			"0.009": 3.84528588354,
			"0.01": 4.23811631034,
			"0.011": 3.99607387217,
			"0.012": 3.02526656843,
			"0.013": 2.86146683365,
			"0.014": 3.63523676765,
			"0.015": 2.85069596603,
			"0.016": 1.71355961605,
			"0.017": 0.236432367339,
			"0.018": 0.0,
			"0.019": 0.0,
			"0.02": 0.0,
			"0.021": 0.0,
			"0.022": 0.0,
			"0.023": 0.0,
			"0.024": 0.0,
			"0.025": 0.0
		}
	}
}
