{
	 "smiles": "COC(=O)C1=C(N)C=CC(=C1)N1CCOCC1", 
	 "Tm": 380.15, 
	 "num_atms": 33, 
	 "gaussian": { 
		 "optdone": 1, 
		 "sigma_profile": "yes", 
		 "theory": "DFT", 
		 "functional": "B3LYP", 
		 "basiset": "6-31G**", 
		 "properties": { 
			 "R2extent": 5548.1892, 
			 "electric_dipole_moment_norm": 2.04156962409, 
			 "electric_quadrupole_moment_norm": 12.5544838711, 
			 "total_energy": -802.081331646, 
			 "HOMO_LUMO_gap": 0.13444, 
			 "cosmo_polarized_energy": -13.19, 
			 "cosmo_cavitation_energy": 34.65, 
			 "cosmo_dispersion_energy": -25.68, 
			 "cosmo_repulsion_energy": 1.99, 
			 "cosmo_total_nonelectrostatic_energy": 10.97, 
			 "SMD_solvation_energy": 5.87 
		},
		"coords": [
			{
				"x": -3.3047246892,
				"y": -0.5560014019,
				"z": -4.3198281319,
				"element": "C" 
			},
			{
				"x": -2.3395482796,
				"y": -0.5654127862,
				"z": -3.260170963,
				"element": "O" 
			},
			{
				"x": -1.2113818372,
				"y": 0.1501882345,
				"z": -3.4965582434,
				"element": "C" 
			},
			{
				"x": -1.0545204828,
				"y": 0.7521556981,
				"z": -4.5547527329,
				"element": "O" 
			},
			{
				"x": -0.2459350192,
				"y": 0.1030257678,
				"z": -2.383633306,
				"element": "C" 
			},
			{
				"x": 0.9710956397,
				"y": 0.8311138094,
				"z": -2.4702581768,
				"element": "C" 
			},
			{
				"x": 1.2727149794,
				"y": 1.6640591446,
				"z": -3.5239837993,
				"element": "N" 
			},
			{
				"x": 1.8683221157,
				"y": 0.7057401798,
				"z": -1.388551701,
				"element": "C" 
			},
			{
				"x": 1.5862560613,
				"y": -0.0851186309,
				"z": -0.2898804461,
				"element": "C" 
			},
			{
				"x": 0.3670111558,
				"y": -0.7961919719,
				"z": -0.1782268619,
				"element": "C" 
			},
			{
				"x": -0.5295136375,
				"y": -0.6742940251,
				"z": -1.2406018507,
				"element": "C" 
			},
			{
				"x": 0.1319104352,
				"y": -1.5968892373,
				"z": 0.9516894931,
				"element": "N" 
			},
			{
				"x": 0.6580082279,
				"y": -1.1680682706,
				"z": 2.2518904738,
				"element": "C" 
			},
			{
				"x": -0.3308217167,
				"y": -1.5314777394,
				"z": 3.3708130255,
				"element": "C" 
			},
			{
				"x": -1.6488212289,
				"y": -1.152499458,
				"z": 3.0169626949,
				"element": "O" 
			},
			{
				"x": -2.1519290083,
				"y": -1.8489265453,
				"z": 1.8722529158,
				"element": "C" 
			},
			{
				"x": -1.0190587256,
				"y": -2.4779277983,
				"z": 1.0448972488,
				"element": "C" 
			},
			{
				"x": -4.1365355869,
				"y": -1.164619896,
				"z": -3.964053794,
				"element": "H" 
			},
			{
				"x": -2.8827613324,
				"y": -0.9820314714,
				"z": -5.2338441469,
				"element": "H" 
			},
			{
				"x": -3.6391970754,
				"y": 0.462831481,
				"z": -4.5315375827,
				"element": "H" 
			},
			{
				"x": 0.6880165397,
				"y": 1.5676020694,
				"z": -4.3447318219,
				"element": "H" 
			},
			{
				"x": 2.2445046584,
				"y": 1.8910583485,
				"z": -3.6654173855,
				"element": "H" 
			},
			{
				"x": 2.8122873388,
				"y": 1.2438182255,
				"z": -1.4290491682,
				"element": "H" 
			},
			{
				"x": 2.3309811966,
				"y": -0.1694020345,
				"z": 0.4947987013,
				"element": "H" 
			},
			{
				"x": -1.4872206112,
				"y": -1.175545302,
				"z": -1.2183070307,
				"element": "H" 
			},
			{
				"x": 0.7872110846,
				"y": -0.0790988534,
				"z": 2.2439752576,
				"element": "H" 
			},
			{
				"x": 1.6414177291,
				"y": -1.6161886534,
				"z": 2.4736723529,
				"element": "H" 
			},
			{
				"x": -0.0790139519,
				"y": -0.9754881164,
				"z": 4.278284818,
				"element": "H" 
			},
			{
				"x": -0.2718240593,
				"y": -2.6028876815,
				"z": 3.6191860899,
				"element": "H" 
			},
			{
				"x": -2.8619835963,
				"y": -2.6304552868,
				"z": 2.1876288229,
				"element": "H" 
			},
			{
				"x": -2.7014115092,
				"y": -1.1102391207,
				"z": 1.2778937574,
				"element": "H" 
			},
			{
				"x": -1.3749200758,
				"y": -2.7436558157,
				"z": 0.0486349688,
				"element": "H" 
			},
			{
				"x": -0.7036147389,
				"y": -3.421772862,
				"z": 1.5099065222,
				"element": "H" 
			}
		],
		 "valence_orbital": [ 
			{
				"type": "occ",
				"energy": -0.26822,
				"method": "rhf"
			},
			{
				"type": "occ",
				"energy": -0.25266,
				"method": "rhf"
			},
			{
				"type": "occ",
				"energy": -0.24722,
				"method": "rhf"
			},
			{
				"type": "occ",
				"energy": -0.23711,
				"method": "rhf"
			},
			{
				"type": "occ",
				"energy": -0.16787,
				"method": "rhf"
			},
			{
				"type": "unocc",
				"energy": -0.03343,
				"method": "rhf"
			},
			{
				"type": "unocc",
				"energy": 0.0265,
				"method": "rhf"
			},
			{
				"type": "unocc",
				"energy": 0.06985,
				"method": "rhf"
			},
			{
				"type": "unocc",
				"energy": 0.0836,
				"method": "rhf"
			},
			{
				"type": "unocc",
				"energy": 0.09961,
				"method": "rhf"
			}
		],
		"cosmo_sigma_profile": { 
			"-0.025": 0.0,
			"-0.024": 0.0,
			"-0.023": 0.0,
			"-0.022": 0.0,
			"-0.021": 0.0,
			"-0.02": 0.0,
			"-0.019": 0.0,
			"-0.018": 0.0,
			"-0.017": 0.0,
			"-0.016": 0.0,
			"-0.015": 0.0,
			"-0.014": 0.0,
			"-0.013": 0.356207158608,
			"-0.012": 1.31276266202,
			"-0.011": 1.15662512854,
			"-0.01": 1.46137081817,
			"-0.009": 1.4221272483,
			"-0.008": 1.92317056299,
			"-0.007": 4.59115660919,
			"-0.006": 10.0855116197,
			"-0.005": 20.8963780443,
			"-0.004": 34.1911881123,
			"-0.003": 34.8283690651,
			"-0.002": 21.8089195594,
			"-0.001": 15.8430714398,
			"0.0": 12.2376873967,
			"0.001": 11.4565310962,
			"0.002": 13.5952414261,
			"0.003": 13.7759662344,
			"0.004": 14.9148105257,
			"0.005": 17.076435286,
			"0.006": 12.4474572561,
			"0.007": 5.13380257754,
			"0.008": 3.83993791963,
			"0.009": 4.51362888926,
			"0.01": 3.53808143305,
			"0.011": 3.1851950534,
			"0.012": 4.20974303577,
			"0.013": 2.43232561507,
			"0.014": 0.744422302776,
			"0.015": 0.0,
			"0.016": 0.0,
			"0.017": 0.0,
			"0.018": 0.0,
			"0.019": 0.0,
			"0.02": 0.0,
			"0.021": 0.0,
			"0.022": 0.0,
			"0.023": 0.0,
			"0.024": 0.0,
			"0.025": 0.0
		}
	}
}
