{
	 "smiles": "CC1=C(O)C=CC=C1O", 
	 "Tm": 392.15, 
	 "num_atms": 17, 
	 "gaussian": { 
		 "optdone": 1, 
		 "sigma_profile": "yes", 
		 "theory": "DFT", 
		 "functional": "B3LYP", 
		 "basiset": "6-31G**", 
		 "properties": { 
			 "R2extent": 1611.7379, 
			 "electric_dipole_moment_norm": 2.72251769324, 
			 "electric_quadrupole_moment_norm": 4.21277697012, 
			 "total_energy": -422.008316601, 
			 "HOMO_LUMO_gap": 0.21543, 
			 "cosmo_polarized_energy": -11.9, 
			 "cosmo_cavitation_energy": 20.07, 
			 "cosmo_dispersion_energy": -15.42, 
			 "cosmo_repulsion_energy": 1.26, 
			 "cosmo_total_nonelectrostatic_energy": 5.9, 
			 "SMD_solvation_energy": 3.93 
		},
		"coords": [
			{
				"x": 0.447017757,
				"y": 0.244050205,
				"z": 0.8291845537,
				"element": "C" 
			},
			{
				"x": -0.3711594199,
				"y": -0.6965720542,
				"z": -0.0276874503,
				"element": "C" 
			},
			{
				"x": -1.7746119483,
				"y": -0.7457604809,
				"z": 0.0761845284,
				"element": "C" 
			},
			{
				"x": -2.4711127105,
				"y": 0.0762834072,
				"z": 0.9223768777,
				"element": "O" 
			},
			{
				"x": -2.5316499874,
				"y": -1.6523669446,
				"z": -0.6701178237,
				"element": "C" 
			},
			{
				"x": -1.8854247032,
				"y": -2.5166439797,
				"z": -1.5499782446,
				"element": "C" 
			},
			{
				"x": -0.5019164979,
				"y": -2.4779182875,
				"z": -1.7021014294,
				"element": "C" 
			},
			{
				"x": 0.2426972597,
				"y": -1.566250117,
				"z": -0.9494847919,
				"element": "C" 
			},
			{
				"x": 1.5983687375,
				"y": -1.5789102248,
				"z": -1.1467506382,
				"element": "O" 
			},
			{
				"x": 1.4313161674,
				"y": -0.1771075373,
				"z": 1.0652070366,
				"element": "H" 
			},
			{
				"x": -0.0229336205,
				"y": 0.413864923,
				"z": 1.8050140774,
				"element": "H" 
			},
			{
				"x": 0.6110741493,
				"y": 1.2268483627,
				"z": 0.3665587783,
				"element": "H" 
			},
			{
				"x": -1.8809157201,
				"y": 0.747265469,
				"z": 1.2849916674,
				"element": "H" 
			},
			{
				"x": -3.6090478854,
				"y": -1.6559027424,
				"z": -0.5492302344,
				"element": "H" 
			},
			{
				"x": -2.4693398834,
				"y": -3.2217277713,
				"z": -2.1343769697,
				"element": "H" 
			},
			{
				"x": 0.0182534249,
				"y": -3.1312227938,
				"z": -2.3934966881,
				"element": "H" 
			},
			{
				"x": 2.0018848807,
				"y": -0.8318294333,
				"z": -0.6894932494,
				"element": "H" 
			}
		],
		 "valence_orbital": [ 
			{
				"type": "occ",
				"energy": -0.34523,
				"method": "rhf"
			},
			{
				"type": "occ",
				"energy": -0.34413,
				"method": "rhf"
			},
			{
				"type": "occ",
				"energy": -0.30629,
				"method": "rhf"
			},
			{
				"type": "occ",
				"energy": -0.22705,
				"method": "rhf"
			},
			{
				"type": "occ",
				"energy": -0.20757,
				"method": "rhf"
			},
			{
				"type": "unocc",
				"energy": 0.00786,
				"method": "rhf"
			},
			{
				"type": "unocc",
				"energy": 0.02497,
				"method": "rhf"
			},
			{
				"type": "unocc",
				"energy": 0.04694,
				"method": "rhf"
			},
			{
				"type": "unocc",
				"energy": 0.09697,
				"method": "rhf"
			},
			{
				"type": "unocc",
				"energy": 0.11242,
				"method": "rhf"
			}
		],
		"cosmo_sigma_profile": { 
			"-0.025": 0.0,
			"-0.024": 0.0,
			"-0.023": 0.0,
			"-0.022": 0.0,
			"-0.021": 0.0,
			"-0.02": 0.0,
			"-0.019": 0.0,
			"-0.018": 0.0,
			"-0.017": 0.237571768105,
			"-0.016": 1.06933824236,
			"-0.015": 2.23295960209,
			"-0.014": 1.51248371022,
			"-0.013": 1.971939323,
			"-0.012": 1.84551125093,
			"-0.011": 2.28007399469,
			"-0.01": 1.65758794271,
			"-0.009": 2.52642337322,
			"-0.008": 2.00886964048,
			"-0.007": 2.6697121188,
			"-0.006": 4.17605619876,
			"-0.005": 11.6402935427,
			"-0.004": 10.8075505099,
			"-0.003": 10.296366503,
			"-0.002": 10.8180387238,
			"-0.001": 8.60277354324,
			"0.0": 7.2459648031,
			"0.001": 6.1328758583,
			"0.002": 6.70361558609,
			"0.003": 7.25828362597,
			"0.004": 10.379183378,
			"0.005": 12.9756807767,
			"0.006": 11.382225019,
			"0.007": 5.43427668956,
			"0.008": 3.55281019266,
			"0.009": 2.29959238349,
			"0.01": 3.10788960887,
			"0.011": 4.36656681263,
			"0.012": 1.96687156056,
			"0.013": 0.0,
			"0.014": 0.0,
			"0.015": 0.0,
			"0.016": 0.0,
			"0.017": 0.0,
			"0.018": 0.0,
			"0.019": 0.0,
			"0.02": 0.0,
			"0.021": 0.0,
			"0.022": 0.0,
			"0.023": 0.0,
			"0.024": 0.0,
			"0.025": 0.0
		}
	}
}
