{
	 "smiles": "NC1=CC=C(C=C1)C(=O)C1=CC=CC=C1", 
	 "Tm": 396.15, 
	 "num_atms": 26, 
	 "gaussian": { 
		 "optdone": 1, 
		 "sigma_profile": "yes", 
		 "theory": "DFT", 
		 "functional": "B3LYP", 
		 "basiset": "6-31G**", 
		 "properties": { 
			 "R2extent": 4056.3533, 
			 "electric_dipole_moment_norm": 4.75451021873, 
			 "electric_quadrupole_moment_norm": 18.877234401, 
			 "total_energy": -631.996636204, 
			 "HOMO_LUMO_gap": 0.16086, 
			 "cosmo_polarized_energy": -14.96, 
			 "cosmo_cavitation_energy": 30.21, 
			 "cosmo_dispersion_energy": -22.12, 
			 "cosmo_repulsion_energy": 1.72, 
			 "cosmo_total_nonelectrostatic_energy": 9.82, 
			 "SMD_solvation_energy": 5.49 
		},
		"coords": [
			{
				"x": 0.423356647,
				"y": 0.995978859,
				"z": 4.222118696,
				"element": "N" 
			},
			{
				"x": 0.4463679696,
				"y": 0.8940098559,
				"z": 2.8410909682,
				"element": "C" 
			},
			{
				"x": 0.3832933679,
				"y": -0.3624001149,
				"z": 2.2095680798,
				"element": "C" 
			},
			{
				"x": 0.4443619751,
				"y": -0.4613398655,
				"z": 0.8252103181,
				"element": "C" 
			},
			{
				"x": 0.5781901957,
				"y": 0.6825796713,
				"z": 0.0191784764,
				"element": "C" 
			},
			{
				"x": 0.6693979642,
				"y": 1.9325027989,
				"z": 0.6598931546,
				"element": "C" 
			},
			{
				"x": 0.5925190551,
				"y": 2.0442813539,
				"z": 2.0374901623,
				"element": "C" 
			},
			{
				"x": 0.7162269036,
				"y": 0.6469902466,
				"z": -1.4630095893,
				"element": "C" 
			},
			{
				"x": 1.2498495686,
				"y": 1.5801800128,
				"z": -2.0597128304,
				"element": "O" 
			},
			{
				"x": 0.2080055138,
				"y": -0.5276632641,
				"z": -2.253940806,
				"element": "C" 
			},
			{
				"x": 0.8729413109,
				"y": -0.8462162647,
				"z": -3.4486861644,
				"element": "C" 
			},
			{
				"x": 0.4229170886,
				"y": -1.8893651859,
				"z": -4.2528956406,
				"element": "C" 
			},
			{
				"x": -0.7174504796,
				"y": -2.6120593999,
				"z": -3.8886681557,
				"element": "C" 
			},
			{
				"x": -1.4033196086,
				"y": -2.2846857046,
				"z": -2.718203917,
				"element": "C" 
			},
			{
				"x": -0.9407761844,
				"y": -1.2518902273,
				"z": -1.9007307345,
				"element": "C" 
			},
			{
				"x": 0.1772296598,
				"y": 1.8964026714,
				"z": 4.6062131521,
				"element": "H" 
			},
			{
				"x": 0.0241514315,
				"y": 0.2197284535,
				"z": 4.7289689768,
				"element": "H" 
			},
			{
				"x": 0.2972789744,
				"y": -1.2613586051,
				"z": 2.8148958849,
				"element": "H" 
			},
			{
				"x": 0.4133342702,
				"y": -1.4447699838,
				"z": 0.3685783041,
				"element": "H" 
			},
			{
				"x": 0.8000674867,
				"y": 2.8143191828,
				"z": 0.0413266341,
				"element": "H" 
			},
			{
				"x": 0.6536459186,
				"y": 3.0214273551,
				"z": 2.5105574667,
				"element": "H" 
			},
			{
				"x": 1.7400522721,
				"y": -0.2569086121,
				"z": -3.7280979461,
				"element": "H" 
			},
			{
				"x": 0.9540956274,
				"y": -2.1364382151,
				"z": -5.1677067728,
				"element": "H" 
			},
			{
				"x": -1.0735891597,
				"y": -3.4216125518,
				"z": -4.5196365081,
				"element": "H" 
			},
			{
				"x": -2.3015557117,
				"y": -2.8298606673,
				"z": -2.4424121903,
				"element": "H" 
			},
			{
				"x": -1.4893920568,
				"y": -0.990031799,
				"z": -1.0019890188,
				"element": "H" 
			}
		],
		 "valence_orbital": [ 
			{
				"type": "occ",
				"energy": -0.25514,
				"method": "rhf"
			},
			{
				"type": "occ",
				"energy": -0.25282,
				"method": "rhf"
			},
			{
				"type": "occ",
				"energy": -0.2517,
				"method": "rhf"
			},
			{
				"type": "occ",
				"energy": -0.23421,
				"method": "rhf"
			},
			{
				"type": "occ",
				"energy": -0.21054,
				"method": "rhf"
			},
			{
				"type": "unocc",
				"energy": -0.04968,
				"method": "rhf"
			},
			{
				"type": "unocc",
				"energy": -0.00687,
				"method": "rhf"
			},
			{
				"type": "unocc",
				"energy": 0.00105,
				"method": "rhf"
			},
			{
				"type": "unocc",
				"energy": 0.00191,
				"method": "rhf"
			},
			{
				"type": "unocc",
				"energy": 0.0643,
				"method": "rhf"
			}
		],
		"cosmo_sigma_profile": { 
			"-0.025": 0.0,
			"-0.024": 0.0,
			"-0.023": 0.0,
			"-0.022": 0.0,
			"-0.021": 0.0,
			"-0.02": 0.0,
			"-0.019": 0.0,
			"-0.018": 0.0,
			"-0.017": 0.0,
			"-0.016": 0.0,
			"-0.015": 0.0,
			"-0.014": 0.0966504832885,
			"-0.013": 2.55729919765,
			"-0.012": 2.64605576593,
			"-0.011": 3.19973599388,
			"-0.01": 2.95669517791,
			"-0.009": 3.59359885357,
			"-0.008": 2.41890201766,
			"-0.007": 3.67119127524,
			"-0.006": 11.5851837315,
			"-0.005": 16.5249299542,
			"-0.004": 19.3019328603,
			"-0.003": 15.9827570081,
			"-0.002": 14.8027511267,
			"-0.001": 15.5601369403,
			"0.0": 13.4438811111,
			"0.001": 14.4723320492,
			"0.002": 15.218310261,
			"0.003": 15.7714135822,
			"0.004": 23.1517521335,
			"0.005": 19.8303656878,
			"0.006": 3.5414807347,
			"0.007": 2.2408131068,
			"0.008": 2.67659267988,
			"0.009": 3.02773564972,
			"0.01": 2.53350752363,
			"0.011": 2.39536141754,
			"0.012": 4.16623236451,
			"0.013": 3.90985207159,
			"0.014": 0.486165394671,
			"0.015": 0.0,
			"0.016": 0.0,
			"0.017": 0.0,
			"0.018": 0.0,
			"0.019": 0.0,
			"0.02": 0.0,
			"0.021": 0.0,
			"0.022": 0.0,
			"0.023": 0.0,
			"0.024": 0.0,
			"0.025": 0.0
		}
	}
}
