{
	 "smiles": "COC1=C(O)C=C2[C@H](C)N(C)CCC2=C1", 
	 "Tm": 455.15, 
	 "num_atms": 32, 
	 "gaussian": { 
		 "optdone": 1, 
		 "sigma_profile": "yes", 
		 "theory": "DFT", 
		 "functional": "B3LYP", 
		 "basiset": "6-31G**", 
		 "properties": { 
			 "R2extent": 3896.6751, 
			 "electric_dipole_moment_norm": 3.10279093237, 
			 "electric_quadrupole_moment_norm": 9.10744461855, 
			 "total_energy": -672.706710101, 
			 "HOMO_LUMO_gap": 0.2042, 
			 "cosmo_polarized_energy": -8.94, 
			 "cosmo_cavitation_energy": 32.52, 
			 "cosmo_dispersion_energy": -23.75, 
			 "cosmo_repulsion_energy": 1.85, 
			 "cosmo_total_nonelectrostatic_energy": 10.63, 
			 "SMD_solvation_energy": 4.0 
		},
		"coords": [
			{
				"x": -2.9862271285,
				"y": -1.4974598505,
				"z": 2.7212992343,
				"element": "C" 
			},
			{
				"x": -1.9567459006,
				"y": -2.188268925,
				"z": 2.0329844585,
				"element": "O" 
			},
			{
				"x": -1.3168172777,
				"y": -1.5379304433,
				"z": 1.0019667336,
				"element": "C" 
			},
			{
				"x": -0.3192459819,
				"y": -2.3129533996,
				"z": 0.3743445172,
				"element": "C" 
			},
			{
				"x": -0.0703055367,
				"y": -3.5846933721,
				"z": 0.7991563011,
				"element": "O" 
			},
			{
				"x": 0.4002532945,
				"y": -1.7680483106,
				"z": -0.6778677217,
				"element": "C" 
			},
			{
				"x": 0.1531605706,
				"y": -0.4608155195,
				"z": -1.1298827995,
				"element": "C" 
			},
			{
				"x": 1.0004883188,
				"y": 0.1096471174,
				"z": -2.2709111301,
				"element": "C" 
			},
			{
				"x": 2.441412045,
				"y": 0.4053650984,
				"z": -1.8107954249,
				"element": "C" 
			},
			{
				"x": 0.4088813196,
				"y": 1.2973564507,
				"z": -2.9091905258,
				"element": "N" 
			},
			{
				"x": -0.6030322808,
				"y": 0.9622416418,
				"z": -3.9062720428,
				"element": "C" 
			},
			{
				"x": -0.0675701505,
				"y": 2.2604175103,
				"z": -1.9143642083,
				"element": "C" 
			},
			{
				"x": -1.1713680676,
				"y": 1.7029330506,
				"z": -0.9994230381,
				"element": "C" 
			},
			{
				"x": -0.841824989,
				"y": 0.3055514794,
				"z": -0.5091834444,
				"element": "C" 
			},
			{
				"x": -1.5720641208,
				"y": -0.2474893934,
				"z": 0.5596616954,
				"element": "C" 
			},
			{
				"x": -2.6050810691,
				"y": -0.5880867345,
				"z": 3.2030298459,
				"element": "H" 
			},
			{
				"x": -3.3570387017,
				"y": -2.1822411783,
				"z": 3.4856341738,
				"element": "H" 
			},
			{
				"x": -3.8080526036,
				"y": -1.2276859785,
				"z": 2.0458722835,
				"element": "H" 
			},
			{
				"x": -0.6811057393,
				"y": -3.7608340912,
				"z": 1.5309737434,
				"element": "H" 
			},
			{
				"x": 1.1611791555,
				"y": -2.3842751843,
				"z": -1.1492135294,
				"element": "H" 
			},
			{
				"x": 1.0683906078,
				"y": -0.6576198352,
				"z": -3.0528694143,
				"element": "H" 
			},
			{
				"x": 2.9155983873,
				"y": -0.4998866016,
				"z": -1.4200091546,
				"element": "H" 
			},
			{
				"x": 2.4631620603,
				"y": 1.1537911247,
				"z": -1.0128304408,
				"element": "H" 
			},
			{
				"x": 3.030559416,
				"y": 0.7794651124,
				"z": -2.6528550828,
				"element": "H" 
			},
			{
				"x": -0.1451412095,
				"y": 0.3631146092,
				"z": -4.7005158371,
				"element": "H" 
			},
			{
				"x": -0.9807730768,
				"y": 1.8844063927,
				"z": -4.3611667215,
				"element": "H" 
			},
			{
				"x": -1.4678307545,
				"y": 0.3955795139,
				"z": -3.5180659445,
				"element": "H" 
			},
			{
				"x": -0.4212777442,
				"y": 3.1563615992,
				"z": -2.4373518515,
				"element": "H" 
			},
			{
				"x": 0.7884004548,
				"y": 2.5704471946,
				"z": -1.3045529048,
				"element": "H" 
			},
			{
				"x": -1.325133617,
				"y": 2.3796719056,
				"z": -0.1489919855,
				"element": "H" 
			},
			{
				"x": -2.1274161505,
				"y": 1.6828565492,
				"z": -1.542040409,
				"element": "H" 
			},
			{
				"x": -2.3415335301,
				"y": 0.3523824674,
				"z": 1.0354306247,
				"element": "H" 
			}
		],
		 "valence_orbital": [ 
			{
				"type": "occ",
				"energy": -0.31697,
				"method": "rhf"
			},
			{
				"type": "occ",
				"energy": -0.29725,
				"method": "rhf"
			},
			{
				"type": "occ",
				"energy": -0.2272,
				"method": "rhf"
			},
			{
				"type": "occ",
				"energy": -0.20098,
				"method": "rhf"
			},
			{
				"type": "occ",
				"energy": -0.19539,
				"method": "rhf"
			},
			{
				"type": "unocc",
				"energy": 0.00881,
				"method": "rhf"
			},
			{
				"type": "unocc",
				"energy": 0.02377,
				"method": "rhf"
			},
			{
				"type": "unocc",
				"energy": 0.08068,
				"method": "rhf"
			},
			{
				"type": "unocc",
				"energy": 0.09163,
				"method": "rhf"
			},
			{
				"type": "unocc",
				"energy": 0.09621,
				"method": "rhf"
			}
		],
		"cosmo_sigma_profile": { 
			"-0.025": 0.0,
			"-0.024": 0.0,
			"-0.023": 0.0,
			"-0.022": 0.0,
			"-0.021": 0.0,
			"-0.02": 0.0,
			"-0.019": 0.0,
			"-0.018": 0.0,
			"-0.017": 0.0,
			"-0.016": 0.0,
			"-0.015": 0.0,
			"-0.014": 0.213530603553,
			"-0.013": 0.403538583472,
			"-0.012": 1.09602154711,
			"-0.011": 0.489412788624,
			"-0.01": 0.262191007289,
			"-0.009": 0.356069597309,
			"-0.008": 0.90611883339,
			"-0.007": 1.05929913276,
			"-0.006": 4.38693962201,
			"-0.005": 13.2626139045,
			"-0.004": 20.8750038809,
			"-0.003": 34.264146603,
			"-0.002": 30.0933651216,
			"-0.001": 27.0562311767,
			"0.0": 27.3384060943,
			"0.001": 17.3878620148,
			"0.002": 13.1792015208,
			"0.003": 12.147217115,
			"0.004": 11.1346026762,
			"0.005": 11.0169692352,
			"0.006": 9.60872730684,
			"0.007": 3.68764824343,
			"0.008": 2.17501858948,
			"0.009": 3.00598868163,
			"0.01": 1.43200375074,
			"0.011": 2.89606453192,
			"0.012": 2.33152667475,
			"0.013": 0.386917182404,
			"0.014": 0.978428091956,
			"0.015": 0.165072011323,
			"0.016": 0.445338146005,
			"0.017": 0.0,
			"0.018": 0.0,
			"0.019": 0.0,
			"0.02": 0.0,
			"0.021": 0.0,
			"0.022": 0.0,
			"0.023": 0.0,
			"0.024": 0.0,
			"0.025": 0.0
		}
	}
}
