{
	 "smiles": "CC12CCC3C(CCC4CC(O)CCC34C)C1CCC2O", 
	 "Tm": 440.15, 
	 "num_atms": 53, 
	 "gaussian": { 
		 "optdone": 1, 
		 "sigma_profile": "yes", 
		 "theory": "DFT", 
		 "functional": "B3LYP", 
		 "basiset": "6-31G**", 
		 "properties": { 
			 "R2extent": 6933.3712, 
			 "electric_dipole_moment_norm": 2.52952294514, 
			 "electric_quadrupole_moment_norm": 7.55987310806, 
			 "total_energy": -893.749231879, 
			 "HOMO_LUMO_gap": 0.30576, 
			 "cosmo_polarized_energy": -11.32, 
			 "cosmo_cavitation_energy": 43.53, 
			 "cosmo_dispersion_energy": -31.3, 
			 "cosmo_repulsion_energy": 2.31, 
			 "cosmo_total_nonelectrostatic_energy": 14.53, 
			 "SMD_solvation_energy": 5.54 
		},
		"coords": [
			{
				"x": 3.085068908,
				"y": -1.0598583087,
				"z": 0.6390691218,
				"element": "C" 
			},
			{
				"x": 2.027681645,
				"y": -0.2631071889,
				"z": 1.4349119708,
				"element": "C" 
			},
			{
				"x": 0.8263307296,
				"y": -1.1916005456,
				"z": 1.767073863,
				"element": "C" 
			},
			{
				"x": -0.5479384616,
				"y": -0.5419806367,
				"z": 1.50332735,
				"element": "C" 
			},
			{
				"x": -0.7519910101,
				"y": 0.153237914,
				"z": 0.1163196979,
				"element": "C" 
			},
			{
				"x": 0.5441625596,
				"y": 0.8984717349,
				"z": -0.4046496489,
				"element": "C" 
			},
			{
				"x": 1.1227767773,
				"y": 0.2975833931,
				"z": -1.6929428717,
				"element": "C" 
			},
			{
				"x": 0.081600228,
				"y": 0.2490809275,
				"z": -2.8283949079,
				"element": "C" 
			},
			{
				"x": -1.3785208194,
				"y": -0.0313071424,
				"z": -2.363452849,
				"element": "C" 
			},
			{
				"x": -2.2334048077,
				"y": 1.2533863818,
				"z": -2.4308254976,
				"element": "C" 
			},
			{
				"x": -3.6991001817,
				"y": 1.0019814764,
				"z": -2.09237361,
				"element": "C" 
			},
			{
				"x": -4.3726131276,
				"y": 2.2572002887,
				"z": -2.1671469142,
				"element": "O" 
			},
			{
				"x": -3.8258353583,
				"y": 0.3574181858,
				"z": -0.7107540593,
				"element": "C" 
			},
			{
				"x": -2.9700352425,
				"y": -0.9130070556,
				"z": -0.6102691093,
				"element": "C" 
			},
			{
				"x": -1.4643450903,
				"y": -0.7323993801,
				"z": -0.9689885027,
				"element": "C" 
			},
			{
				"x": -0.880246903,
				"y": -2.1603103212,
				"z": -1.0735851026,
				"element": "C" 
			},
			{
				"x": 1.5165888495,
				"y": 1.0452618331,
				"z": 0.7740471166,
				"element": "C" 
			},
			{
				"x": 2.7644756361,
				"y": 1.9432047291,
				"z": 0.7074113978,
				"element": "C" 
			},
			{
				"x": 3.5019529615,
				"y": 1.6012031636,
				"z": 2.0390882381,
				"element": "C" 
			},
			{
				"x": 2.7480186954,
				"y": 0.3930152864,
				"z": 2.6533241853,
				"element": "C" 
			},
			{
				"x": 3.6714349702,
				"y": -0.4258144616,
				"z": 3.356632977,
				"element": "O" 
			},
			{
				"x": 2.644455559,
				"y": -1.6115268559,
				"z": -0.1930680507,
				"element": "H" 
			},
			{
				"x": 3.5577543144,
				"y": -1.7853139501,
				"z": 1.3080446902,
				"element": "H" 
			},
			{
				"x": 3.8857620076,
				"y": -0.4323293484,
				"z": 0.2388784015,
				"element": "H" 
			},
			{
				"x": 0.8624285581,
				"y": -1.5193545402,
				"z": 2.8169220597,
				"element": "H" 
			},
			{
				"x": 0.9101778271,
				"y": -2.109025353,
				"z": 1.1756757748,
				"element": "H" 
			},
			{
				"x": -1.3280604845,
				"y": -1.2955616928,
				"z": 1.6573208909,
				"element": "H" 
			},
			{
				"x": -0.7265488538,
				"y": 0.2078820847,
				"z": 2.2831319653,
				"element": "H" 
			},
			{
				"x": -1.4621285696,
				"y": 0.958531844,
				"z": 0.3281386757,
				"element": "H" 
			},
			{
				"x": 0.2315593873,
				"y": 1.9188631077,
				"z": -0.6714714226,
				"element": "H" 
			},
			{
				"x": 1.5082019914,
				"y": -0.7051414277,
				"z": -1.5069572677,
				"element": "H" 
			},
			{
				"x": 1.9866647219,
				"y": 0.889430655,
				"z": -2.0184777781,
				"element": "H" 
			},
			{
				"x": 0.0919523592,
				"y": 1.204650364,
				"z": -3.3666145784,
				"element": "H" 
			},
			{
				"x": 0.3920480974,
				"y": -0.5056089872,
				"z": -3.5597655939,
				"element": "H" 
			},
			{
				"x": -1.8260891469,
				"y": -0.7329382683,
				"z": -3.0826603061,
				"element": "H" 
			},
			{
				"x": -2.1706658279,
				"y": 1.6791432168,
				"z": -3.4390720595,
				"element": "H" 
			},
			{
				"x": -1.8494166747,
				"y": 2.0220109682,
				"z": -1.74833789,
				"element": "H" 
			},
			{
				"x": -4.1142723495,
				"y": 0.3055677807,
				"z": -2.8437761017,
				"element": "H" 
			},
			{
				"x": -5.3000139249,
				"y": 2.1077955527,
				"z": -1.9412203145,
				"element": "H" 
			},
			{
				"x": -4.8763147126,
				"y": 0.1079903608,
				"z": -0.5046743159,
				"element": "H" 
			},
			{
				"x": -3.5311375006,
				"y": 1.1007800788,
				"z": 0.0399130341,
				"element": "H" 
			},
			{
				"x": -3.0643816759,
				"y": -1.3438725838,
				"z": 0.3936043974,
				"element": "H" 
			},
			{
				"x": -3.387280477,
				"y": -1.6647323197,
				"z": -1.2950530024,
				"element": "H" 
			},
			{
				"x": -1.0351755285,
				"y": -2.7210999753,
				"z": -0.14622813,
				"element": "H" 
			},
			{
				"x": -1.3892912938,
				"y": -2.7131643069,
				"z": -1.8717623917,
				"element": "H" 
			},
			{
				"x": 0.1878633251,
				"y": -2.1792832535,
				"z": -1.2955007031,
				"element": "H" 
			},
			{
				"x": 0.9013693039,
				"y": 1.5168764982,
				"z": 1.5564314515,
				"element": "H" 
			},
			{
				"x": 3.3916042523,
				"y": 1.7147112998,
				"z": -0.160478416,
				"element": "H" 
			},
			{
				"x": 2.4989621852,
				"y": 3.0029976031,
				"z": 0.6358725241,
				"element": "H" 
			},
			{
				"x": 3.522877104,
				"y": 2.4473674346,
				"z": 2.7317082798,
				"element": "H" 
			},
			{
				"x": 4.541017195,
				"y": 1.3051425021,
				"z": 1.867522293,
				"element": "H" 
			},
			{
				"x": 1.9736972263,
				"y": 0.7527370526,
				"z": 3.3513721321,
				"element": "H" 
			},
			{
				"x": 3.1697206469,
				"y": -1.1140858148,
				"z": 3.8131589069,
				"element": "H" 
			}
		],
		 "valence_orbital": [ 
			{
				"type": "occ",
				"energy": -0.27947,
				"method": "rhf"
			},
			{
				"type": "occ",
				"energy": -0.27351,
				"method": "rhf"
			},
			{
				"type": "occ",
				"energy": -0.26939,
				"method": "rhf"
			},
			{
				"type": "occ",
				"energy": -0.25726,
				"method": "rhf"
			},
			{
				"type": "occ",
				"energy": -0.24916,
				"method": "rhf"
			},
			{
				"type": "unocc",
				"energy": 0.0566,
				"method": "rhf"
			},
			{
				"type": "unocc",
				"energy": 0.07575,
				"method": "rhf"
			},
			{
				"type": "unocc",
				"energy": 0.07846,
				"method": "rhf"
			},
			{
				"type": "unocc",
				"energy": 0.07907,
				"method": "rhf"
			},
			{
				"type": "unocc",
				"energy": 0.09238,
				"method": "rhf"
			}
		],
		"cosmo_sigma_profile": { 
			"-0.025": 0.0,
			"-0.024": 0.0,
			"-0.023": 0.0,
			"-0.022": 0.0,
			"-0.021": 0.0,
			"-0.02": 0.0,
			"-0.019": 0.0,
			"-0.018": 0.0,
			"-0.017": 0.0,
			"-0.016": 0.0,
			"-0.015": 0.538152794857,
			"-0.014": 1.5042318362,
			"-0.013": 1.76012952946,
			"-0.012": 2.21801125675,
			"-0.011": 1.47418647274,
			"-0.01": 1.90119772204,
			"-0.009": 2.18020093778,
			"-0.008": 1.2652613343,
			"-0.007": 2.05312326279,
			"-0.006": 2.9925415358,
			"-0.005": 3.00619032795,
			"-0.004": 4.43145343331,
			"-0.003": 16.719870967,
			"-0.002": 56.3659465574,
			"-0.001": 66.5086065806,
			"0.0": 54.9660075625,
			"0.001": 43.6586653275,
			"0.002": 26.9571656175,
			"0.003": 6.27037562938,
			"0.004": 3.65735157562,
			"0.005": 2.519329419,
			"0.006": 3.12841000593,
			"0.007": 3.23774326303,
			"0.008": 1.95780042275,
			"0.009": 2.41382079811,
			"0.01": 3.06034428792,
			"0.011": 2.35904766275,
			"0.012": 2.86572635818,
			"0.013": 2.15726019528,
			"0.014": 4.10601119093,
			"0.015": 2.48976088722,
			"0.016": 0.0385549803341,
			"0.017": 0.0,
			"0.018": 0.0,
			"0.019": 0.0,
			"0.02": 0.0,
			"0.021": 0.0,
			"0.022": 0.0,
			"0.023": 0.0,
			"0.024": 0.0,
			"0.025": 0.0
		}
	}
}
