{
	 "smiles": "CCCSC1=NN=C(S)S1", 
	 "Tm": 419.15, 
	 "num_atms": 18, 
	 "gaussian": { 
		 "optdone": 1, 
		 "sigma_profile": "yes", 
		 "theory": "DFT", 
		 "functional": "B3LYP", 
		 "basiset": "6-31G**", 
		 "properties": { 
			 "R2extent": 5755.0792, 
			 "electric_dipole_moment_norm": 2.09808260562, 
			 "electric_quadrupole_moment_norm": 14.4229173724, 
			 "total_energy": -1499.38128398, 
			 "HOMO_LUMO_gap": 0.18778, 
			 "cosmo_polarized_energy": -10.12, 
			 "cosmo_cavitation_energy": 26.87, 
			 "cosmo_dispersion_energy": -21.14, 
			 "cosmo_repulsion_energy": 1.6, 
			 "cosmo_total_nonelectrostatic_energy": 7.33, 
			 "SMD_solvation_energy": 1.82 
		},
		"coords": [
			{
				"x": -2.7106993584,
				"y": -1.0540980174,
				"z": 1.1652035757,
				"element": "C" 
			},
			{
				"x": -2.6803194424,
				"y": -0.7436158716,
				"z": -0.3363465292,
				"element": "C" 
			},
			{
				"x": -1.7516235848,
				"y": -1.7015926319,
				"z": -1.0840862389,
				"element": "C" 
			},
			{
				"x": -1.6876080716,
				"y": -1.4383828266,
				"z": -2.9083204793,
				"element": "S" 
			},
			{
				"x": -0.6274006158,
				"y": -0.0379787632,
				"z": -2.9914071292,
				"element": "C" 
			},
			{
				"x": -0.0597383569,
				"y": 0.5477802476,
				"z": -1.9755553085,
				"element": "N" 
			},
			{
				"x": 0.7314159381,
				"y": 1.6099563854,
				"z": -2.3322376014,
				"element": "N" 
			},
			{
				"x": 0.7559940558,
				"y": 1.8207698432,
				"z": -3.6118450379,
				"element": "C" 
			},
			{
				"x": 1.7163523999,
				"y": 3.1392619108,
				"z": -4.2945305894,
				"element": "S" 
			},
			{
				"x": -0.2290999674,
				"y": 0.6942574677,
				"z": -4.5493501976,
				"element": "S" 
			},
			{
				"x": -3.3797133107,
				"y": -0.3650777714,
				"z": 1.689938804,
				"element": "H" 
			},
			{
				"x": -1.7151650347,
				"y": -0.954605934,
				"z": 1.6109559772,
				"element": "H" 
			},
			{
				"x": -3.0645845151,
				"y": -2.0733538662,
				"z": 1.3584777262,
				"element": "H" 
			},
			{
				"x": -3.6902536193,
				"y": -0.8143905344,
				"z": -0.7562873212,
				"element": "H" 
			},
			{
				"x": -2.3329323206,
				"y": 0.2811860671,
				"z": -0.4964221147,
				"element": "H" 
			},
			{
				"x": -2.0871232522,
				"y": -2.7398009074,
				"z": -0.9903423359,
				"element": "H" 
			},
			{
				"x": -0.7262395701,
				"y": -1.6361254166,
				"z": -0.7130857913,
				"element": "H" 
			},
			{
				"x": 1.3807386264,
				"y": 2.9091106189,
				"z": -5.5784594086,
				"element": "H" 
			}
		],
		 "valence_orbital": [ 
			{
				"type": "occ",
				"energy": -0.31024,
				"method": "rhf"
			},
			{
				"type": "occ",
				"energy": -0.30808,
				"method": "rhf"
			},
			{
				"type": "occ",
				"energy": -0.27386,
				"method": "rhf"
			},
			{
				"type": "occ",
				"energy": -0.27206,
				"method": "rhf"
			},
			{
				"type": "occ",
				"energy": -0.22791,
				"method": "rhf"
			},
			{
				"type": "unocc",
				"energy": -0.04013,
				"method": "rhf"
			},
			{
				"type": "unocc",
				"energy": -0.03386,
				"method": "rhf"
			},
			{
				"type": "unocc",
				"energy": 0.01069,
				"method": "rhf"
			},
			{
				"type": "unocc",
				"energy": 0.01358,
				"method": "rhf"
			},
			{
				"type": "unocc",
				"energy": 0.02224,
				"method": "rhf"
			}
		],
		"cosmo_sigma_profile": { 
			"-0.025": 0.0,
			"-0.024": 0.0,
			"-0.023": 0.0,
			"-0.022": 0.0,
			"-0.021": 0.0,
			"-0.02": 0.0,
			"-0.019": 0.0,
			"-0.018": 0.0,
			"-0.017": 0.0,
			"-0.016": 0.0,
			"-0.015": 0.0,
			"-0.014": 0.0,
			"-0.013": 2.18991508551,
			"-0.012": 2.6776819369,
			"-0.011": 1.70073499209,
			"-0.01": 1.66094703031,
			"-0.009": 1.19568674252,
			"-0.008": 1.74331324966,
			"-0.007": 3.74833830973,
			"-0.006": 4.50708960502,
			"-0.005": 7.13009890819,
			"-0.004": 10.2656647259,
			"-0.003": 18.1798971252,
			"-0.002": 22.4901988951,
			"-0.001": 26.3847018425,
			"0.0": 26.8185166807,
			"0.001": 22.7249975761,
			"0.002": 14.1986958671,
			"0.003": 11.726380624,
			"0.004": 9.04176953592,
			"0.005": 7.61389484162,
			"0.006": 7.38016712518,
			"0.007": 3.0836867357,
			"0.008": 2.28864378044,
			"0.009": 1.91647956677,
			"0.01": 2.37723312375,
			"0.011": 3.54406977703,
			"0.012": 1.99992537491,
			"0.013": 1.18628590911,
			"0.014": 0.521420005998,
			"0.015": 0.0,
			"0.016": 0.0,
			"0.017": 0.0,
			"0.018": 0.0,
			"0.019": 0.0,
			"0.02": 0.0,
			"0.021": 0.0,
			"0.022": 0.0,
			"0.023": 0.0,
			"0.024": 0.0,
			"0.025": 0.0
		}
	}
}
