{
	 "smiles": "NC(CCC1=CC=CC=C1)CC(O)=O", 
	 "Tm": 498.15, 
	 "num_atms": 29, 
	 "gaussian": { 
		 "optdone": 1, 
		 "sigma_profile": "yes", 
		 "theory": "DFT", 
		 "functional": "B3LYP", 
		 "basiset": "6-31G**", 
		 "properties": { 
			 "R2extent": 3475.1175, 
			 "electric_dipole_moment_norm": 6.17722610643, 
			 "electric_quadrupole_moment_norm": 20.0442788468, 
			 "total_energy": -633.43379054, 
			 "HOMO_LUMO_gap": 0.23575, 
			 "cosmo_polarized_energy": -16.66, 
			 "cosmo_cavitation_energy": 30.06, 
			 "cosmo_dispersion_energy": -21.62, 
			 "cosmo_repulsion_energy": 1.71, 
			 "cosmo_total_nonelectrostatic_energy": 10.15, 
			 "SMD_solvation_energy": 5.52 
		},
		"coords": [
			{
				"x": 2.4289350491,
				"y": -1.0482062242,
				"z": 0.9272381398,
				"element": "N" 
			},
			{
				"x": 1.9516616457,
				"y": -2.4530726488,
				"z": 0.8574620556,
				"element": "C" 
			},
			{
				"x": 0.4284385109,
				"y": -2.5616741099,
				"z": 1.0772887775,
				"element": "C" 
			},
			{
				"x": -0.529651757,
				"y": -1.7311108155,
				"z": 0.1891925489,
				"element": "C" 
			},
			{
				"x": -0.6196176862,
				"y": -0.251492865,
				"z": 0.5253662153,
				"element": "C" 
			},
			{
				"x": -1.0813251844,
				"y": 0.1665295275,
				"z": 1.7840371518,
				"element": "C" 
			},
			{
				"x": -1.1874412581,
				"y": 1.5223835478,
				"z": 2.0978376009,
				"element": "C" 
			},
			{
				"x": -0.8384555187,
				"y": 2.4891323868,
				"z": 1.1522440242,
				"element": "C" 
			},
			{
				"x": -0.384586166,
				"y": 2.087171738,
				"z": -0.1047798309,
				"element": "C" 
			},
			{
				"x": -0.2748976757,
				"y": 0.7298292473,
				"z": -0.4147663721,
				"element": "C" 
			},
			{
				"x": 2.4512026393,
				"y": -3.085406268,
				"z": -0.4631095631,
				"element": "C" 
			},
			{
				"x": 2.0902605147,
				"y": -2.3617604201,
				"z": -1.7663155549,
				"element": "C" 
			},
			{
				"x": 2.2003013445,
				"y": -1.023522869,
				"z": -1.7285352173,
				"element": "O" 
			},
			{
				"x": 1.771697428,
				"y": -2.9545042399,
				"z": -2.7725353779,
				"element": "O" 
			},
			{
				"x": 3.3784133369,
				"y": -1.0072020894,
				"z": 1.2886000073,
				"element": "H" 
			},
			{
				"x": 1.8396745819,
				"y": -0.4818944045,
				"z": 1.5309637514,
				"element": "H" 
			},
			{
				"x": 2.4009859222,
				"y": -3.0464782039,
				"z": 1.6678698191,
				"element": "H" 
			},
			{
				"x": 0.2255274632,
				"y": -2.3210905292,
				"z": 2.1291679458,
				"element": "H" 
			},
			{
				"x": 0.1740256342,
				"y": -3.6217368327,
				"z": 0.9600294147,
				"element": "H" 
			},
			{
				"x": -0.2834083949,
				"y": -1.8574812783,
				"z": -0.8682950743,
				"element": "H" 
			},
			{
				"x": -1.5276700009,
				"y": -2.1707170938,
				"z": 0.3150416846,
				"element": "H" 
			},
			{
				"x": -1.377281755,
				"y": -0.5758104718,
				"z": 2.5224216169,
				"element": "H" 
			},
			{
				"x": -1.5518060285,
				"y": 1.8230947956,
				"z": 3.0764096227,
				"element": "H" 
			},
			{
				"x": -0.9240093397,
				"y": 3.544998108,
				"z": 1.3926011337,
				"element": "H" 
			},
			{
				"x": -0.1127739526,
				"y": 2.8306480087,
				"z": -0.8489434516,
				"element": "H" 
			},
			{
				"x": 0.0958039544,
				"y": 0.4248677125,
				"z": -1.3887825332,
				"element": "H" 
			},
			{
				"x": 2.0964717328,
				"y": -4.1146767795,
				"z": -0.5509170321,
				"element": "H" 
			},
			{
				"x": 3.5489396152,
				"y": -3.131136818,
				"z": -0.4271244294,
				"element": "H" 
			},
			{
				"x": 2.3612853444,
				"y": -0.7549801105,
				"z": -0.7756670734,
				"element": "H" 
			}
		],
		 "valence_orbital": [ 
			{
				"type": "occ",
				"energy": -0.2878,
				"method": "rhf"
			},
			{
				"type": "occ",
				"energy": -0.27498,
				"method": "rhf"
			},
			{
				"type": "occ",
				"energy": -0.25118,
				"method": "rhf"
			},
			{
				"type": "occ",
				"energy": -0.24671,
				"method": "rhf"
			},
			{
				"type": "occ",
				"energy": -0.24185,
				"method": "rhf"
			},
			{
				"type": "unocc",
				"energy": -0.0061,
				"method": "rhf"
			},
			{
				"type": "unocc",
				"energy": -0.00202,
				"method": "rhf"
			},
			{
				"type": "unocc",
				"energy": 0.02611,
				"method": "rhf"
			},
			{
				"type": "unocc",
				"energy": 0.05592,
				"method": "rhf"
			},
			{
				"type": "unocc",
				"energy": 0.09055,
				"method": "rhf"
			}
		],
		"cosmo_sigma_profile": { 
			"-0.025": 0.0,
			"-0.024": 0.0,
			"-0.023": 0.0,
			"-0.022": 0.0,
			"-0.021": 0.0,
			"-0.02": 0.0,
			"-0.019": 0.0,
			"-0.018": 0.0,
			"-0.017": 0.0,
			"-0.016": 0.0,
			"-0.015": 0.0,
			"-0.014": 0.0,
			"-0.013": 0.0,
			"-0.012": 0.661756595481,
			"-0.011": 1.93784887072,
			"-0.01": 1.67672921244,
			"-0.009": 2.75754232707,
			"-0.008": 3.61062854585,
			"-0.007": 4.02919986176,
			"-0.006": 7.97937088146,
			"-0.005": 17.9273206436,
			"-0.004": 26.0063730473,
			"-0.003": 28.7086631626,
			"-0.002": 22.3215235132,
			"-0.001": 18.8449593852,
			"0.0": 12.0451843158,
			"0.001": 11.2242500045,
			"0.002": 10.0471385395,
			"0.003": 9.7656724666,
			"0.004": 10.2242144424,
			"0.005": 9.56854222783,
			"0.006": 7.5641298895,
			"0.007": 3.21567583414,
			"0.008": 2.12983800236,
			"0.009": 2.31929900675,
			"0.01": 2.19667477312,
			"0.011": 3.53239193595,
			"0.012": 5.03817413991,
			"0.013": 6.76748938374,
			"0.014": 3.3743916023,
			"0.015": 0.380668193986,
			"0.016": 0.0,
			"0.017": 0.0,
			"0.018": 0.0,
			"0.019": 0.0,
			"0.02": 0.0,
			"0.021": 0.0,
			"0.022": 0.0,
			"0.023": 0.0,
			"0.024": 0.0,
			"0.025": 0.0
		}
	}
}
