{
	 "smiles": "NC(=O)C1=C(NC(=O)CCl)SC=C1", 
	 "Tm": 422.15, 
	 "num_atms": 20, 
	 "gaussian": { 
		 "optdone": 1, 
		 "sigma_profile": "yes", 
		 "theory": "DFT", 
		 "functional": "B3LYP", 
		 "basiset": "6-31G**", 
		 "properties": { 
			 "R2extent": 4056.9449, 
			 "electric_dipole_moment_norm": 7.78575456716, 
			 "electric_quadrupole_moment_norm": 13.4533031037, 
			 "total_energy": -1389.30557793, 
			 "HOMO_LUMO_gap": 0.17454, 
			 "cosmo_polarized_energy": -20.65, 
			 "cosmo_cavitation_energy": 27.7, 
			 "cosmo_dispersion_energy": -21.35, 
			 "cosmo_repulsion_energy": 1.65, 
			 "cosmo_total_nonelectrostatic_energy": 8.0, 
			 "SMD_solvation_energy": 5.8 
		},
		"coords": [
			{
				"x": -0.0457301516,
				"y": -2.8934037309,
				"z": -1.5612919182,
				"element": "N" 
			},
			{
				"x": 0.1628530244,
				"y": -1.9423470686,
				"z": -0.5999027637,
				"element": "C" 
			},
			{
				"x": 0.7722196379,
				"y": -2.2278160312,
				"z": 0.44034061,
				"element": "O" 
			},
			{
				"x": -0.3420480299,
				"y": -0.5811995737,
				"z": -0.8759076574,
				"element": "C" 
			},
			{
				"x": -0.2688794825,
				"y": 0.4297458444,
				"z": 0.0831049952,
				"element": "C" 
			},
			{
				"x": 0.2937165605,
				"y": 0.2518854561,
				"z": 1.3278020565,
				"element": "N" 
			},
			{
				"x": 0.4421303508,
				"y": 1.0404805319,
				"z": 2.4646246141,
				"element": "C" 
			},
			{
				"x": 0.9988862272,
				"y": 0.5846154273,
				"z": 3.441766864,
				"element": "O" 
			},
			{
				"x": -0.1194811061,
				"y": 2.4616974109,
				"z": 2.3971847733,
				"element": "C" 
			},
			{
				"x": 0.0947188778,
				"y": 3.3499491333,
				"z": 3.933591174,
				"element": "Cl" 
			},
			{
				"x": -0.9599800316,
				"y": 1.9199698243,
				"z": -0.5287387272,
				"element": "S" 
			},
			{
				"x": -1.3295844631,
				"y": 1.1788602679,
				"z": -2.0641760001,
				"element": "C" 
			},
			{
				"x": -0.9455681471,
				"y": -0.1231844127,
				"z": -2.0955986188,
				"element": "C" 
			},
			{
				"x": -0.7464140739,
				"y": -2.7774027909,
				"z": -2.2748617378,
				"element": "H" 
			},
			{
				"x": 0.2069622817,
				"y": -3.8364865497,
				"z": -1.3045876135,
				"element": "H" 
			},
			{
				"x": 0.6806838662,
				"y": -0.7000724594,
				"z": 1.4186888838,
				"element": "H" 
			},
			{
				"x": -1.1887213931,
				"y": 2.4408108351,
				"z": 2.1735668142,
				"element": "H" 
			},
			{
				"x": 0.3854279581,
				"y": 3.0324721757,
				"z": 1.6138645771,
				"element": "H" 
			},
			{
				"x": -1.7994156345,
				"y": 1.7698565792,
				"z": -2.8367368,
				"element": "H" 
			},
			{
				"x": -1.0685762713,
				"y": -0.7388308691,
				"z": -2.9793335254,
				"element": "H" 
			}
		],
		 "valence_orbital": [ 
			{
				"type": "occ",
				"energy": -0.2879,
				"method": "rhf"
			},
			{
				"type": "occ",
				"energy": -0.278,
				"method": "rhf"
			},
			{
				"type": "occ",
				"energy": -0.2767,
				"method": "rhf"
			},
			{
				"type": "occ",
				"energy": -0.27064,
				"method": "rhf"
			},
			{
				"type": "occ",
				"energy": -0.22557,
				"method": "rhf"
			},
			{
				"type": "unocc",
				"energy": -0.05103,
				"method": "rhf"
			},
			{
				"type": "unocc",
				"energy": -0.01115,
				"method": "rhf"
			},
			{
				"type": "unocc",
				"energy": -0.01008,
				"method": "rhf"
			},
			{
				"type": "unocc",
				"energy": 0.01866,
				"method": "rhf"
			},
			{
				"type": "unocc",
				"energy": 0.03761,
				"method": "rhf"
			}
		],
		"cosmo_sigma_profile": { 
			"-0.025": 0.0,
			"-0.024": 0.0,
			"-0.023": 0.0,
			"-0.022": 0.0,
			"-0.021": 0.0,
			"-0.02": 0.0,
			"-0.019": 0.0,
			"-0.018": 0.0,
			"-0.017": 0.0,
			"-0.016": 0.0,
			"-0.015": 0.878746810922,
			"-0.014": 2.446299514,
			"-0.013": 2.79239061728,
			"-0.012": 1.81062782936,
			"-0.011": 2.8832736689,
			"-0.01": 5.79628665376,
			"-0.009": 9.46411246574,
			"-0.008": 6.84250230478,
			"-0.007": 8.21920335696,
			"-0.006": 8.3212999428,
			"-0.005": 7.86532215238,
			"-0.004": 7.48389181838,
			"-0.003": 8.5462062108,
			"-0.002": 11.2948241401,
			"-0.001": 16.1012263906,
			"0.0": 17.5793890918,
			"0.001": 16.5509453327,
			"0.002": 15.7109537462,
			"0.003": 12.7157797057,
			"0.004": 11.9596408447,
			"0.005": 10.9208434233,
			"0.006": 7.36846682711,
			"0.007": 4.0687101579,
			"0.008": 3.26914693852,
			"0.009": 3.18368401153,
			"0.01": 3.80655254402,
			"0.011": 5.5387925921,
			"0.012": 6.99047910256,
			"0.013": 4.29212102283,
			"0.014": 1.14995262737,
			"0.015": 0.0,
			"0.016": 0.0,
			"0.017": 0.0,
			"0.018": 0.0,
			"0.019": 0.0,
			"0.02": 0.0,
			"0.021": 0.0,
			"0.022": 0.0,
			"0.023": 0.0,
			"0.024": 0.0,
			"0.025": 0.0
		}
	}
}
