{
	 "smiles": "CCC(Br)(CC)C(N)=O", 
	 "Tm": 340.15, 
	 "num_atms": 21, 
	 "gaussian": { 
		 "optdone": 1, 
		 "sigma_profile": "yes", 
		 "theory": "DFT", 
		 "functional": "B3LYP", 
		 "basiset": "6-31G**", 
		 "properties": { 
			 "R2extent": 2305.523, 
			 "electric_dipole_moment_norm": 2.19743402404, 
			 "electric_quadrupole_moment_norm": 8.70773357884, 
			 "total_energy": -2937.28358477, 
			 "HOMO_LUMO_gap": 0.21999, 
			 "cosmo_polarized_energy": -9.52, 
			 "cosmo_cavitation_energy": 24.41, 
			 "cosmo_dispersion_energy": -18.03, 
			 "cosmo_repulsion_energy": 1.47, 
			 "cosmo_total_nonelectrostatic_energy": 7.86, 
			 "SMD_solvation_energy": 3.99 
		},
		"coords": [
			{
				"x": -0.2091314287,
				"y": -1.3433889913,
				"z": 2.5589377429,
				"element": "C" 
			},
			{
				"x": -0.8812271052,
				"y": -1.2453929213,
				"z": 1.1870513677,
				"element": "C" 
			},
			{
				"x": 0.04886791,
				"y": -0.9552599612,
				"z": -0.0051350035,
				"element": "C" 
			},
			{
				"x": 1.3072816401,
				"y": -2.5583063214,
				"z": -0.220251547,
				"element": "Br" 
			},
			{
				"x": 0.953513038,
				"y": 0.2749753544,
				"z": 0.1646587674,
				"element": "C" 
			},
			{
				"x": 0.2151207785,
				"y": 1.574986058,
				"z": 0.5244509663,
				"element": "C" 
			},
			{
				"x": -0.7593801915,
				"y": -0.8896659358,
				"z": -1.3248537915,
				"element": "C" 
			},
			{
				"x": -1.4667576304,
				"y": -2.0120406676,
				"z": -1.6586017586,
				"element": "N" 
			},
			{
				"x": -0.8256747011,
				"y": 0.1430275013,
				"z": -1.9754507344,
				"element": "O" 
			},
			{
				"x": 0.5411201139,
				"y": -2.1384882518,
				"z": 2.5719266279,
				"element": "H" 
			},
			{
				"x": 0.2808491396,
				"y": -0.4087220399,
				"z": 2.8458720768,
				"element": "H" 
			},
			{
				"x": -0.9586752014,
				"y": -1.571853632,
				"z": 3.3228188139,
				"element": "H" 
			},
			{
				"x": -1.4423511722,
				"y": -2.1619386188,
				"z": 0.985091037,
				"element": "H" 
			},
			{
				"x": -1.6242328131,
				"y": -0.4361338751,
				"z": 1.1966766701,
				"element": "H" 
			},
			{
				"x": 1.6923293375,
				"y": 0.0482774,
				"z": 0.9384267442,
				"element": "H" 
			},
			{
				"x": 1.5030853272,
				"y": 0.4194911796,
				"z": -0.7688833451,
				"element": "H" 
			},
			{
				"x": -0.5173574119,
				"y": 1.831771912,
				"z": -0.2416814295,
				"element": "H" 
			},
			{
				"x": 0.9404831573,
				"y": 2.3921000898,
				"z": 0.5922339656,
				"element": "H" 
			},
			{
				"x": -0.291848559,
				"y": 1.5097017297,
				"z": 1.4924859382,
				"element": "H" 
			},
			{
				"x": -1.1474021667,
				"y": -2.910628504,
				"z": -1.3265991853,
				"element": "H" 
			},
			{
				"x": -1.9070120607,
				"y": -1.9882115046,
				"z": -2.5676739233,
				"element": "H" 
			}
		],
		 "valence_orbital": [ 
			{
				"type": "occ",
				"energy": -0.32871,
				"method": "rhf"
			},
			{
				"type": "occ",
				"energy": -0.29292,
				"method": "rhf"
			},
			{
				"type": "occ",
				"energy": -0.27992,
				"method": "rhf"
			},
			{
				"type": "occ",
				"energy": -0.27212,
				"method": "rhf"
			},
			{
				"type": "occ",
				"energy": -0.25488,
				"method": "rhf"
			},
			{
				"type": "unocc",
				"energy": -0.03489,
				"method": "rhf"
			},
			{
				"type": "unocc",
				"energy": 0.03362,
				"method": "rhf"
			},
			{
				"type": "unocc",
				"energy": 0.07581,
				"method": "rhf"
			},
			{
				"type": "unocc",
				"energy": 0.08972,
				"method": "rhf"
			},
			{
				"type": "unocc",
				"energy": 0.12943,
				"method": "rhf"
			}
		],
		"cosmo_sigma_profile": { 
			"-0.025": 0.0,
			"-0.024": 0.0,
			"-0.023": 0.0,
			"-0.022": 0.0,
			"-0.021": 0.0,
			"-0.02": 0.0,
			"-0.019": 0.0,
			"-0.018": 0.0,
			"-0.017": 0.0,
			"-0.016": 0.0,
			"-0.015": 0.029087490871,
			"-0.014": 0.806437923112,
			"-0.013": 1.73147091888,
			"-0.012": 1.92557655233,
			"-0.011": 2.13601053073,
			"-0.01": 1.99306390666,
			"-0.009": 2.01920870209,
			"-0.008": 2.76239146089,
			"-0.007": 1.68958784614,
			"-0.006": 1.76572489298,
			"-0.005": 3.08009643721,
			"-0.004": 11.9567718662,
			"-0.003": 19.0593747063,
			"-0.002": 20.1597335578,
			"-0.001": 22.3029439919,
			"0.0": 22.024073173,
			"0.001": 19.2967602838,
			"0.002": 10.9188888868,
			"0.003": 8.92022573043,
			"0.004": 8.11705558285,
			"0.005": 8.40072435961,
			"0.006": 5.51470845536,
			"0.007": 2.42632088512,
			"0.008": 1.46429978666,
			"0.009": 1.52862474727,
			"0.01": 1.62251300101,
			"0.011": 2.23535392668,
			"0.012": 2.81977067976,
			"0.013": 3.63037150009,
			"0.014": 0.421628399419,
			"0.015": 0.0,
			"0.016": 0.0,
			"0.017": 0.0,
			"0.018": 0.0,
			"0.019": 0.0,
			"0.02": 0.0,
			"0.021": 0.0,
			"0.022": 0.0,
			"0.023": 0.0,
			"0.024": 0.0,
			"0.025": 0.0
		}
	}
}
