{
	 "smiles": "FC(F)OC1=CC(=CC=C1)C1=NN=C(Cl)C=C1", 
	 "Tm": 360.15, 
	 "num_atms": 24, 
	 "gaussian": { 
		 "optdone": 1, 
		 "sigma_profile": "yes", 
		 "theory": "DFT", 
		 "functional": "B3LYP", 
		 "basiset": "6-31G**", 
		 "properties": { 
			 "R2extent": 7371.5522, 
			 "electric_dipole_moment_norm": 2.94795043038, 
			 "electric_quadrupole_moment_norm": 23.9565651378, 
			 "total_energy": -1267.94190977, 
			 "HOMO_LUMO_gap": 0.17594, 
			 "cosmo_polarized_energy": -13.59, 
			 "cosmo_cavitation_energy": 32.17, 
			 "cosmo_dispersion_energy": -23.44, 
			 "cosmo_repulsion_energy": 1.76, 
			 "cosmo_total_nonelectrostatic_energy": 10.49, 
			 "SMD_solvation_energy": 4.78 
		},
		"coords": [
			{
				"x": -3.8666014717,
				"y": 0.9368162082,
				"z": 2.1603804892,
				"element": "F" 
			},
			{
				"x": -2.8829289569,
				"y": 0.8637694004,
				"z": 1.2488110837,
				"element": "C" 
			},
			{
				"x": -2.4577640063,
				"y": 2.1414734277,
				"z": 1.0050723339,
				"element": "F" 
			},
			{
				"x": -1.878993415,
				"y": 0.1118088194,
				"z": 1.8036627817,
				"element": "O" 
			},
			{
				"x": -0.9244884512,
				"y": -0.4327323879,
				"z": 0.9550460481,
				"element": "C" 
			},
			{
				"x": -0.4673458112,
				"y": 0.2252418319,
				"z": -0.186144748,
				"element": "C" 
			},
			{
				"x": 0.5153719251,
				"y": -0.3777116362,
				"z": -0.9900042249,
				"element": "C" 
			},
			{
				"x": 1.0392759362,
				"y": -1.6238096538,
				"z": -0.6139113215,
				"element": "C" 
			},
			{
				"x": 0.5819241891,
				"y": -2.2571058335,
				"z": 0.5403570965,
				"element": "C" 
			},
			{
				"x": -0.4059549244,
				"y": -1.6726314522,
				"z": 1.3301498756,
				"element": "C" 
			},
			{
				"x": 1.0164475425,
				"y": 0.2943194784,
				"z": -2.216538586,
				"element": "C" 
			},
			{
				"x": 2.1640980417,
				"y": -0.187035392,
				"z": -2.7239229191,
				"element": "N" 
			},
			{
				"x": 2.7006906891,
				"y": 0.3382831634,
				"z": -3.8220041363,
				"element": "N" 
			},
			{
				"x": 2.0959113322,
				"y": 1.3566893703,
				"z": -4.4136911973,
				"element": "C" 
			},
			{
				"x": 2.8735773906,
				"y": 1.9957770347,
				"z": -5.8438591095,
				"element": "Cl" 
			},
			{
				"x": 0.8955377067,
				"y": 1.9228686818,
				"z": -3.9682361412,
				"element": "C" 
			},
			{
				"x": 0.3396041801,
				"y": 1.3649428463,
				"z": -2.8362040686,
				"element": "C" 
			},
			{
				"x": -3.2604771057,
				"y": 0.444479267,
				"z": 0.3081327581,
				"element": "H" 
			},
			{
				"x": -0.8420719981,
				"y": 1.2160401374,
				"z": -0.4083287866,
				"element": "H" 
			},
			{
				"x": 1.8056795066,
				"y": -2.075559874,
				"z": -1.2315225867,
				"element": "H" 
			},
			{
				"x": 0.9926655861,
				"y": -3.2212963666,
				"z": 0.8237778589,
				"element": "H" 
			},
			{
				"x": -0.7817239465,
				"y": -2.1525929503,
				"z": 2.22723032,
				"element": "H" 
			},
			{
				"x": 0.4328624966,
				"y": 2.7468248926,
				"z": -4.498989154,
				"element": "H" 
			},
			{
				"x": -0.6026964358,
				"y": 1.736040987,
				"z": -2.4494636658,
				"element": "H" 
			}
		],
		 "valence_orbital": [ 
			{
				"type": "occ",
				"energy": -0.32498,
				"method": "rhf"
			},
			{
				"type": "occ",
				"energy": -0.29993,
				"method": "rhf"
			},
			{
				"type": "occ",
				"energy": -0.26489,
				"method": "rhf"
			},
			{
				"type": "occ",
				"energy": -0.25087,
				"method": "rhf"
			},
			{
				"type": "occ",
				"energy": -0.24757,
				"method": "rhf"
			},
			{
				"type": "unocc",
				"energy": -0.07163,
				"method": "rhf"
			},
			{
				"type": "unocc",
				"energy": -0.06596,
				"method": "rhf"
			},
			{
				"type": "unocc",
				"energy": -0.01662,
				"method": "rhf"
			},
			{
				"type": "unocc",
				"energy": 0.00445,
				"method": "rhf"
			},
			{
				"type": "unocc",
				"energy": 0.02039,
				"method": "rhf"
			}
		],
		"cosmo_sigma_profile": { 
			"-0.025": 0.0,
			"-0.024": 0.0,
			"-0.023": 0.0,
			"-0.022": 0.0,
			"-0.021": 0.0,
			"-0.02": 0.0,
			"-0.019": 0.0,
			"-0.018": 0.0,
			"-0.017": 0.0,
			"-0.016": 0.0,
			"-0.015": 0.0,
			"-0.014": 0.0,
			"-0.013": 0.0,
			"-0.012": 0.0,
			"-0.011": 0.231523454184,
			"-0.01": 6.62725054742,
			"-0.009": 7.26398521089,
			"-0.008": 7.54632271729,
			"-0.007": 8.03745978604,
			"-0.006": 8.9627713146,
			"-0.005": 10.1557409339,
			"-0.004": 13.1865325364,
			"-0.003": 15.4518472144,
			"-0.002": 19.9697409074,
			"-0.001": 18.1683858474,
			"0.0": 15.1193861208,
			"0.001": 18.2157629199,
			"0.002": 23.2470010766,
			"0.003": 37.7863358726,
			"0.004": 23.8178204579,
			"0.005": 5.9080441128,
			"0.006": 4.44776355828,
			"0.007": 3.69682990153,
			"0.008": 2.71901829483,
			"0.009": 2.52892132246,
			"0.01": 2.06204699812,
			"0.011": 1.54375139095,
			"0.012": 2.81021922718,
			"0.013": 1.99939036327,
			"0.014": 0.7746466426,
			"0.015": 0.119967602166,
			"0.016": 0.0,
			"0.017": 0.0,
			"0.018": 0.0,
			"0.019": 0.0,
			"0.02": 0.0,
			"0.021": 0.0,
			"0.022": 0.0,
			"0.023": 0.0,
			"0.024": 0.0,
			"0.025": 0.0
		}
	}
}
