{
	 "smiles": "CC1NC(=O)NC1CCCCCC(O)=O", 
	 "Tm": 430.15, 
	 "num_atms": 33, 
	 "gaussian": { 
		 "optdone": 1, 
		 "sigma_profile": "yes", 
		 "theory": "DFT", 
		 "functional": "B3LYP", 
		 "basiset": "6-31G**", 
		 "properties": { 
			 "R2extent": 5806.0678, 
			 "electric_dipole_moment_norm": 3.84480193898, 
			 "electric_quadrupole_moment_norm": 28.7669146529, 
			 "total_energy": -727.145295446, 
			 "HOMO_LUMO_gap": 0.24611, 
			 "cosmo_polarized_energy": -20.74, 
			 "cosmo_cavitation_energy": 35.18, 
			 "cosmo_dispersion_energy": -24.77, 
			 "cosmo_repulsion_energy": 2.0, 
			 "cosmo_total_nonelectrostatic_energy": 12.4, 
			 "SMD_solvation_energy": 5.96 
		},
		"coords": [
			{
				"x": 2.2310590962,
				"y": 2.0800620701,
				"z": 0.4930364537,
				"element": "C" 
			},
			{
				"x": 0.8306252872,
				"y": 2.6555649781,
				"z": 0.6994758739,
				"element": "C" 
			},
			{
				"x": 0.7949058477,
				"y": 3.5920130917,
				"z": 1.8213701004,
				"element": "N" 
			},
			{
				"x": -0.3999171517,
				"y": 3.5239301431,
				"z": 2.5245049833,
				"element": "C" 
			},
			{
				"x": -0.7763766256,
				"y": 4.2795755109,
				"z": 3.4030867621,
				"element": "O" 
			},
			{
				"x": -1.080495656,
				"y": 2.4209513356,
				"z": 2.0262998593,
				"element": "N" 
			},
			{
				"x": -0.2529952025,
				"y": 1.6173771818,
				"z": 1.1283388786,
				"element": "C" 
			},
			{
				"x": -1.091386849,
				"y": 1.0171556678,
				"z": -0.008473196,
				"element": "C" 
			},
			{
				"x": -0.3223196068,
				"y": 0.1161856096,
				"z": -0.9848728691,
				"element": "C" 
			},
			{
				"x": -1.2051654085,
				"y": -0.5411347503,
				"z": -2.0623346502,
				"element": "C" 
			},
			{
				"x": -2.2382851738,
				"y": -1.5677662875,
				"z": -1.5630491436,
				"element": "C" 
			},
			{
				"x": -1.6421071735,
				"y": -2.8255692491,
				"z": -0.9199158289,
				"element": "C" 
			},
			{
				"x": -0.9202838125,
				"y": -3.7234225839,
				"z": -1.9037332836,
				"element": "C" 
			},
			{
				"x": -0.2150284862,
				"y": -4.6909668688,
				"z": -1.2674146072,
				"element": "O" 
			},
			{
				"x": -0.9589112638,
				"y": -3.6383713217,
				"z": -3.1122439063,
				"element": "O" 
			},
			{
				"x": 2.5766396896,
				"y": 1.5838704627,
				"z": 1.4048834205,
				"element": "H" 
			},
			{
				"x": 2.2517880626,
				"y": 1.3594636015,
				"z": -0.3291170793,
				"element": "H" 
			},
			{
				"x": 2.9421944175,
				"y": 2.8776344939,
				"z": 0.252584316,
				"element": "H" 
			},
			{
				"x": 0.4953455815,
				"y": 3.1452295618,
				"z": -0.2303923174,
				"element": "H" 
			},
			{
				"x": 1.2421856444,
				"y": 4.4955355316,
				"z": 1.7634375038,
				"element": "H" 
			},
			{
				"x": -1.7619750928,
				"y": 1.991018402,
				"z": 2.6349250956,
				"element": "H" 
			},
			{
				"x": 0.2458996851,
				"y": 0.8007279901,
				"z": 1.6784480893,
				"element": "H" 
			},
			{
				"x": -1.9052693851,
				"y": 0.4443397231,
				"z": 0.4552261829,
				"element": "H" 
			},
			{
				"x": -1.572726875,
				"y": 1.8388374604,
				"z": -0.5541633288,
				"element": "H" 
			},
			{
				"x": 0.4435791632,
				"y": 0.7090625474,
				"z": -1.499181593,
				"element": "H" 
			},
			{
				"x": 0.2254999091,
				"y": -0.6529696188,
				"z": -0.4227074097,
				"element": "H" 
			},
			{
				"x": -0.5623230298,
				"y": -1.0307897765,
				"z": -2.8017860796,
				"element": "H" 
			},
			{
				"x": -1.7420472988,
				"y": 0.2486415259,
				"z": -2.6040297159,
				"element": "H" 
			},
			{
				"x": -2.8529859998,
				"y": -1.8779354275,
				"z": -2.414376368,
				"element": "H" 
			},
			{
				"x": -2.919701258,
				"y": -1.1018319474,
				"z": -0.8418442648,
				"element": "H" 
			},
			{
				"x": -0.9533417545,
				"y": -2.5932197146,
				"z": -0.1003555816,
				"element": "H" 
			},
			{
				"x": -2.4347042669,
				"y": -3.4356547856,
				"z": -0.4667219225,
				"element": "H" 
			},
			{
				"x": 0.1880249864,
				"y": -5.2341445575,
				"z": -1.9657043739,
				"element": "H" 
			}
		],
		 "valence_orbital": [ 
			{
				"type": "occ",
				"energy": -0.3213,
				"method": "rhf"
			},
			{
				"type": "occ",
				"energy": -0.28008,
				"method": "rhf"
			},
			{
				"type": "occ",
				"energy": -0.25325,
				"method": "rhf"
			},
			{
				"type": "occ",
				"energy": -0.24328,
				"method": "rhf"
			},
			{
				"type": "occ",
				"energy": -0.24227,
				"method": "rhf"
			},
			{
				"type": "unocc",
				"energy": 0.00384,
				"method": "rhf"
			},
			{
				"type": "unocc",
				"energy": 0.06191,
				"method": "rhf"
			},
			{
				"type": "unocc",
				"energy": 0.06725,
				"method": "rhf"
			},
			{
				"type": "unocc",
				"energy": 0.07569,
				"method": "rhf"
			},
			{
				"type": "unocc",
				"energy": 0.08409,
				"method": "rhf"
			}
		],
		"cosmo_sigma_profile": { 
			"-0.025": 0.0,
			"-0.024": 0.0,
			"-0.023": 0.0,
			"-0.022": 0.0,
			"-0.021": 0.0,
			"-0.02": 0.0,
			"-0.019": 0.0,
			"-0.018": 0.436668028916,
			"-0.017": 0.988252613248,
			"-0.016": 0.885324627362,
			"-0.015": 0.645172099562,
			"-0.014": 1.09694694441,
			"-0.013": 2.50356308261,
			"-0.012": 3.10771170999,
			"-0.011": 3.04378218864,
			"-0.01": 3.1184005784,
			"-0.009": 2.39452981999,
			"-0.008": 1.85664144515,
			"-0.007": 3.17993248667,
			"-0.006": 6.78823607693,
			"-0.005": 9.58734782572,
			"-0.004": 20.6647575227,
			"-0.003": 35.1058750366,
			"-0.002": 33.6459788756,
			"-0.001": 30.0398970645,
			"0.0": 24.2015574195,
			"0.001": 14.2223726397,
			"0.002": 6.72655296922,
			"0.003": 6.98935759123,
			"0.004": 5.33333755794,
			"0.005": 4.58315361618,
			"0.006": 5.22050556086,
			"0.007": 5.84439953787,
			"0.008": 5.54043706465,
			"0.009": 6.29541772664,
			"0.01": 4.22159727036,
			"0.011": 4.12969031291,
			"0.012": 5.80731951711,
			"0.013": 2.72861928489,
			"0.014": 6.00117264104,
			"0.015": 5.16590134605,
			"0.016": 0.50217989102,
			"0.017": 0.0,
			"0.018": 0.0,
			"0.019": 0.0,
			"0.02": 0.0,
			"0.021": 0.0,
			"0.022": 0.0,
			"0.023": 0.0,
			"0.024": 0.0,
			"0.025": 0.0
		}
	}
}
