{
	 "smiles": "CC(=O)C1=C(C)C=CC(=C1)[N+]([O-])=O", 
	 "Tm": 324.15, 
	 "num_atms": 22, 
	 "gaussian": { 
		 "optdone": 1, 
		 "sigma_profile": "yes", 
		 "theory": "DFT", 
		 "functional": "B3LYP", 
		 "basiset": "6-31G**", 
		 "properties": { 
			 "R2extent": 3461.9063, 
			 "electric_dipole_moment_norm": 6.64582252246, 
			 "electric_quadrupole_moment_norm": 13.6438192783, 
			 "total_energy": -628.70685479, 
			 "HOMO_LUMO_gap": 0.17139, 
			 "cosmo_polarized_energy": -13.24, 
			 "cosmo_cavitation_energy": 26.55, 
			 "cosmo_dispersion_energy": -19.24, 
			 "cosmo_repulsion_energy": 1.5, 
			 "cosmo_total_nonelectrostatic_energy": 8.8, 
			 "SMD_solvation_energy": 7.58 
		},
		"coords": [
			{
				"x": 2.5030620586,
				"y": 0.1078259554,
				"z": -0.9285768507,
				"element": "C" 
			},
			{
				"x": 1.0091722003,
				"y": -0.1540626805,
				"z": -1.0008903297,
				"element": "C" 
			},
			{
				"x": 0.3946193151,
				"y": 0.143518176,
				"z": -2.0120775611,
				"element": "O" 
			},
			{
				"x": 0.2726282757,
				"y": -0.846483462,
				"z": 0.1281988232,
				"element": "C" 
			},
			{
				"x": 0.6380784015,
				"y": -0.8530892902,
				"z": 1.4978109151,
				"element": "C" 
			},
			{
				"x": 1.8268807375,
				"y": -0.1116071114,
				"z": 2.0675469377,
				"element": "C" 
			},
			{
				"x": -0.1769062405,
				"y": -1.5584173749,
				"z": 2.4002607701,
				"element": "C" 
			},
			{
				"x": -1.3119572801,
				"y": -2.2487321604,
				"z": 1.994599369,
				"element": "C" 
			},
			{
				"x": -1.6536314564,
				"y": -2.2145911496,
				"z": 0.6452272503,
				"element": "C" 
			},
			{
				"x": -0.8896924169,
				"y": -1.5184662124,
				"z": -0.2784915766,
				"element": "C" 
			},
			{
				"x": -2.8569259651,
				"y": -2.9315359541,
				"z": 0.1921552567,
				"element": "N" 
			},
			{
				"x": -3.5165658352,
				"y": -3.5253257392,
				"z": 1.0454319735,
				"element": "O" 
			},
			{
				"x": -3.1277593447,
				"y": -2.8943674034,
				"z": -1.0061789888,
				"element": "O" 
			},
			{
				"x": 2.8539318269,
				"y": 0.3078577857,
				"z": -1.9418691731,
				"element": "H" 
			},
			{
				"x": 2.7202847396,
				"y": 0.9840263349,
				"z": -0.309678007,
				"element": "H" 
			},
			{
				"x": 3.0484104833,
				"y": -0.7411658705,
				"z": -0.5061080931,
				"element": "H" 
			},
			{
				"x": 1.8035636683,
				"y": -0.1464397578,
				"z": 3.1590627014,
				"element": "H" 
			},
			{
				"x": 2.7785919171,
				"y": -0.545849918,
				"z": 1.7462414276,
				"element": "H" 
			},
			{
				"x": 1.8317385017,
				"y": 0.9415168097,
				"z": 1.7715134542,
				"element": "H" 
			},
			{
				"x": 0.0896115938,
				"y": -1.5589596212,
				"z": 3.4530155648,
				"element": "H" 
			},
			{
				"x": -1.9303772281,
				"y": -2.79775132,
				"z": 2.6936109682,
				"element": "H" 
			},
			{
				"x": -1.1832579525,
				"y": -1.4891000362,
				"z": -1.3199048317,
				"element": "H" 
			}
		],
		 "valence_orbital": [ 
			{
				"type": "occ",
				"energy": -0.3078,
				"method": "rhf"
			},
			{
				"type": "occ",
				"energy": -0.29173,
				"method": "rhf"
			},
			{
				"type": "occ",
				"energy": -0.28282,
				"method": "rhf"
			},
			{
				"type": "occ",
				"energy": -0.28045,
				"method": "rhf"
			},
			{
				"type": "occ",
				"energy": -0.26283,
				"method": "rhf"
			},
			{
				"type": "unocc",
				"energy": -0.09144,
				"method": "rhf"
			},
			{
				"type": "unocc",
				"energy": -0.06782,
				"method": "rhf"
			},
			{
				"type": "unocc",
				"energy": -0.01234,
				"method": "rhf"
			},
			{
				"type": "unocc",
				"energy": 0.01857,
				"method": "rhf"
			},
			{
				"type": "unocc",
				"energy": 0.07191,
				"method": "rhf"
			}
		],
		"cosmo_sigma_profile": { 
			"-0.025": 0.0,
			"-0.024": 0.0,
			"-0.023": 0.0,
			"-0.022": 0.0,
			"-0.021": 0.0,
			"-0.02": 0.0,
			"-0.019": 0.0,
			"-0.018": 0.0,
			"-0.017": 0.0,
			"-0.016": 0.0,
			"-0.015": 0.0,
			"-0.014": 0.0,
			"-0.013": 0.0,
			"-0.012": 0.0,
			"-0.011": 0.0,
			"-0.01": 0.0,
			"-0.009": 0.142141851132,
			"-0.008": 2.91113977021,
			"-0.007": 10.8093176798,
			"-0.006": 13.9208999764,
			"-0.005": 14.0511133489,
			"-0.004": 16.2515704977,
			"-0.003": 16.8062097769,
			"-0.002": 23.3049132108,
			"-0.001": 21.3441103152,
			"0.0": 16.9567747435,
			"0.001": 13.0961903247,
			"0.002": 7.28231835199,
			"0.003": 3.57782314201,
			"0.004": 5.02977042972,
			"0.005": 4.30982780752,
			"0.006": 5.50224687039,
			"0.007": 9.24810516461,
			"0.008": 9.47544664096,
			"0.009": 5.57327902957,
			"0.01": 5.4648650409,
			"0.011": 3.54047698079,
			"0.012": 2.53608784752,
			"0.013": 0.580384073704,
			"0.014": 0.0,
			"0.015": 0.0,
			"0.016": 0.0,
			"0.017": 0.0,
			"0.018": 0.0,
			"0.019": 0.0,
			"0.02": 0.0,
			"0.021": 0.0,
			"0.022": 0.0,
			"0.023": 0.0,
			"0.024": 0.0,
			"0.025": 0.0
		}
	}
}
