{
	 "smiles": "CCN1C(C)=NN=C1S", 
	 "Tm": 403.15, 
	 "num_atms": 18, 
	 "gaussian": { 
		 "optdone": 1, 
		 "sigma_profile": "yes", 
		 "theory": "DFT", 
		 "functional": "B3LYP", 
		 "basiset": "6-31G**", 
		 "properties": { 
			 "R2extent": 1878.4357, 
			 "electric_dipole_moment_norm": 6.02059399146, 
			 "electric_quadrupole_moment_norm": 14.4561736227, 
			 "total_energy": -758.379767651, 
			 "HOMO_LUMO_gap": 0.24061, 
			 "cosmo_polarized_energy": -17.29, 
			 "cosmo_cavitation_energy": 23.21, 
			 "cosmo_dispersion_energy": -17.06, 
			 "cosmo_repulsion_energy": 1.35, 
			 "cosmo_total_nonelectrostatic_energy": 7.51, 
			 "SMD_solvation_energy": 1.69 
		},
		"coords": [
			{
				"x": -1.6756587602,
				"y": 0.3954714854,
				"z": 0.5203937294,
				"element": "C" 
			},
			{
				"x": -0.878331527,
				"y": 0.171883324,
				"z": -0.7664538419,
				"element": "C" 
			},
			{
				"x": 0.2465606847,
				"y": -0.7459456843,
				"z": -0.5888133173,
				"element": "N" 
			},
			{
				"x": 1.5220417522,
				"y": -0.4410564756,
				"z": -0.1866637961,
				"element": "C" 
			},
			{
				"x": 2.0242450931,
				"y": 0.9345795272,
				"z": 0.0979484661,
				"element": "C" 
			},
			{
				"x": 2.2486991714,
				"y": -1.5382052044,
				"z": -0.1043990271,
				"element": "N" 
			},
			{
				"x": 1.4507197045,
				"y": -2.6005195133,
				"z": -0.4563517937,
				"element": "N" 
			},
			{
				"x": 0.2592428302,
				"y": -2.1212858216,
				"z": -0.733144663,
				"element": "C" 
			},
			{
				"x": -1.1151084825,
				"y": -3.0723975917,
				"z": -1.3158622418,
				"element": "S" 
			},
			{
				"x": -1.0459066168,
				"y": 0.8072835846,
				"z": 1.3144119619,
				"element": "H" 
			},
			{
				"x": -2.4942694899,
				"y": 1.0975757222,
				"z": 0.3343455192,
				"element": "H" 
			},
			{
				"x": -2.1069305061,
				"y": -0.5433949,
				"z": 0.8788195786,
				"element": "H" 
			},
			{
				"x": -0.4767667186,
				"y": 1.116984109,
				"z": -1.14290932,
				"element": "H" 
			},
			{
				"x": -1.5201288295,
				"y": -0.2476441701,
				"z": -1.54445291,
				"element": "H" 
			},
			{
				"x": 1.9437380004,
				"y": 1.588865573,
				"z": -0.7777386709,
				"element": "H" 
			},
			{
				"x": 3.0768670547,
				"y": 0.8569520128,
				"z": 0.3740795471,
				"element": "H" 
			},
			{
				"x": 1.4829368588,
				"y": 1.4107732061,
				"z": 0.9229606001,
				"element": "H" 
			},
			{
				"x": -1.6532502194,
				"y": -3.3567191833,
				"z": -0.1096698203,
				"element": "H" 
			}
		],
		 "valence_orbital": [ 
			{
				"type": "occ",
				"energy": -0.30694,
				"method": "rhf"
			},
			{
				"type": "occ",
				"energy": -0.28863,
				"method": "rhf"
			},
			{
				"type": "occ",
				"energy": -0.26805,
				"method": "rhf"
			},
			{
				"type": "occ",
				"energy": -0.25229,
				"method": "rhf"
			},
			{
				"type": "occ",
				"energy": -0.24811,
				"method": "rhf"
			},
			{
				"type": "unocc",
				"energy": -0.0075,
				"method": "rhf"
			},
			{
				"type": "unocc",
				"energy": 0.03129,
				"method": "rhf"
			},
			{
				"type": "unocc",
				"energy": 0.04719,
				"method": "rhf"
			},
			{
				"type": "unocc",
				"energy": 0.06201,
				"method": "rhf"
			},
			{
				"type": "unocc",
				"energy": 0.06831,
				"method": "rhf"
			}
		],
		"cosmo_sigma_profile": { 
			"-0.025": 0.0,
			"-0.024": 0.0,
			"-0.023": 0.0,
			"-0.022": 0.0,
			"-0.021": 0.0,
			"-0.02": 0.0,
			"-0.019": 0.0,
			"-0.018": 0.0,
			"-0.017": 0.0,
			"-0.016": 0.0,
			"-0.015": 0.0,
			"-0.014": 0.0,
			"-0.013": 0.0,
			"-0.012": 0.149048193493,
			"-0.011": 2.13384552318,
			"-0.01": 1.9421553039,
			"-0.009": 1.62519349496,
			"-0.008": 2.12641889914,
			"-0.007": 4.90051409661,
			"-0.006": 10.7256232748,
			"-0.005": 17.945501311,
			"-0.004": 20.9185882322,
			"-0.003": 17.2334449895,
			"-0.002": 18.122303695,
			"-0.001": 17.7780433028,
			"0.0": 10.9453585398,
			"0.001": 5.54113299812,
			"0.002": 5.26951976214,
			"0.003": 6.51601687254,
			"0.004": 4.4087354323,
			"0.005": 3.97137748378,
			"0.006": 3.44250612158,
			"0.007": 3.11553971514,
			"0.008": 2.97196832617,
			"0.009": 2.86075125444,
			"0.01": 2.03568597201,
			"0.011": 2.48375733245,
			"0.012": 2.74731871933,
			"0.013": 3.11393335176,
			"0.014": 3.9681926971,
			"0.015": 2.70658046465,
			"0.016": 2.55504023039,
			"0.017": 1.57894008039,
			"0.018": 0.0990586483317,
			"0.019": 0.0,
			"0.02": 0.0,
			"0.021": 0.0,
			"0.022": 0.0,
			"0.023": 0.0,
			"0.024": 0.0,
			"0.025": 0.0
		}
	}
}
