{
	 "smiles": "CCCCOC1=CC=C(C=C1)C1=NN=C(N)O1", 
	 "Tm": 503.15, 
	 "num_atms": 32, 
	 "gaussian": { 
		 "optdone": 1, 
		 "sigma_profile": "yes", 
		 "theory": "DFT", 
		 "functional": "B3LYP", 
		 "basiset": "6-31G**", 
		 "properties": { 
			 "R2extent": 7853.9483, 
			 "electric_dipole_moment_norm": 5.43845907864, 
			 "electric_quadrupole_moment_norm": 33.0382629052, 
			 "total_energy": -780.998861902, 
			 "HOMO_LUMO_gap": 0.17354, 
			 "cosmo_polarized_energy": -18.07, 
			 "cosmo_cavitation_energy": 36.16, 
			 "cosmo_dispersion_energy": -26.27, 
			 "cosmo_repulsion_energy": 2.06, 
			 "cosmo_total_nonelectrostatic_energy": 11.96, 
			 "SMD_solvation_energy": 4.65 
		},
		"coords": [
			{
				"x": -0.4178121688,
				"y": -4.2194690421,
				"z": 1.105905146,
				"element": "C" 
			},
			{
				"x": 0.0406624122,
				"y": -3.791632553,
				"z": 2.5063030263,
				"element": "C" 
			},
			{
				"x": 0.3393893111,
				"y": -2.2899329025,
				"z": 2.651085082,
				"element": "C" 
			},
			{
				"x": -0.9065411592,
				"y": -1.4083448601,
				"z": 2.5423796556,
				"element": "C" 
			},
			{
				"x": -0.6263312713,
				"y": -0.0335349675,
				"z": 2.8255222786,
				"element": "O" 
			},
			{
				"x": -0.1201815728,
				"y": 0.7776568586,
				"z": 1.8562139977,
				"element": "C" 
			},
			{
				"x": 0.1498554787,
				"y": 0.39364228,
				"z": 0.5356489323,
				"element": "C" 
			},
			{
				"x": 0.6514405199,
				"y": 1.3288857178,
				"z": -0.3694766217,
				"element": "C" 
			},
			{
				"x": 0.8944728994,
				"y": 2.6516630761,
				"z": 0.0194730071,
				"element": "C" 
			},
			{
				"x": 0.6236872031,
				"y": 3.0276337577,
				"z": 1.3496926261,
				"element": "C" 
			},
			{
				"x": 0.1250233069,
				"y": 2.1050111945,
				"z": 2.2524781562,
				"element": "C" 
			},
			{
				"x": 1.4196483349,
				"y": 3.6385794241,
				"z": -0.9101120619,
				"element": "C" 
			},
			{
				"x": 1.7126751065,
				"y": 4.8846010198,
				"z": -0.7055178431,
				"element": "N" 
			},
			{
				"x": 2.1642097536,
				"y": 5.4120016175,
				"z": -1.921220893,
				"element": "N" 
			},
			{
				"x": 2.1188155035,
				"y": 4.4239918657,
				"z": -2.7637608042,
				"element": "C" 
			},
			{
				"x": 2.5291866293,
				"y": 4.3958334252,
				"z": -4.0707129297,
				"element": "N" 
			},
			{
				"x": 1.6607830189,
				"y": 3.2661461153,
				"z": -2.2221308391,
				"element": "O" 
			},
			{
				"x": -0.5573563857,
				"y": -5.3039549963,
				"z": 1.0538855977,
				"element": "H" 
			},
			{
				"x": 0.3245848838,
				"y": -3.9451316614,
				"z": 0.3474008546,
				"element": "H" 
			},
			{
				"x": -1.3690640962,
				"y": -3.75669725,
				"z": 0.8221939452,
				"element": "H" 
			},
			{
				"x": 0.9478876313,
				"y": -4.3484264432,
				"z": 2.7692081881,
				"element": "H" 
			},
			{
				"x": -0.7166616081,
				"y": -4.0846867134,
				"z": 3.2463940339,
				"element": "H" 
			},
			{
				"x": 1.0776319066,
				"y": -1.9843097776,
				"z": 1.8995380034,
				"element": "H" 
			},
			{
				"x": 0.7938903552,
				"y": -2.0970718843,
				"z": 3.6298166694,
				"element": "H" 
			},
			{
				"x": -1.3975556304,
				"y": -1.4997228904,
				"z": 1.5663883076,
				"element": "H" 
			},
			{
				"x": -1.6364700007,
				"y": -1.7009493016,
				"z": 3.3039803568,
				"element": "H" 
			},
			{
				"x": -0.0184140454,
				"y": -0.6228809071,
				"z": 0.2018934853,
				"element": "H" 
			},
			{
				"x": 0.8597860466,
				"y": 1.0220748241,
				"z": -1.389108977,
				"element": "H" 
			},
			{
				"x": 0.8111573506,
				"y": 4.0515004971,
				"z": 1.6551473844,
				"element": "H" 
			},
			{
				"x": -0.0902795455,
				"y": 2.3835904913,
				"z": 3.2786596035,
				"element": "H" 
			},
			{
				"x": 2.6710931871,
				"y": 5.3203592078,
				"z": -4.4542640964,
				"element": "H" 
			},
			{
				"x": 2.0021866449,
				"y": 3.7797747782,
				"z": -4.6748032716,
				"element": "H" 
			}
		],
		 "valence_orbital": [ 
			{
				"type": "occ",
				"energy": -0.30602,
				"method": "rhf"
			},
			{
				"type": "occ",
				"energy": -0.26291,
				"method": "rhf"
			},
			{
				"type": "occ",
				"energy": -0.25764,
				"method": "rhf"
			},
			{
				"type": "occ",
				"energy": -0.24987,
				"method": "rhf"
			},
			{
				"type": "occ",
				"energy": -0.20225,
				"method": "rhf"
			},
			{
				"type": "unocc",
				"energy": -0.02871,
				"method": "rhf"
			},
			{
				"type": "unocc",
				"energy": -0.00608,
				"method": "rhf"
			},
			{
				"type": "unocc",
				"energy": 0.04453,
				"method": "rhf"
			},
			{
				"type": "unocc",
				"energy": 0.06564,
				"method": "rhf"
			},
			{
				"type": "unocc",
				"energy": 0.07045,
				"method": "rhf"
			}
		],
		"cosmo_sigma_profile": { 
			"-0.025": 0.0,
			"-0.024": 0.0,
			"-0.023": 0.0,
			"-0.022": 0.0,
			"-0.021": 0.0,
			"-0.02": 0.0,
			"-0.019": 0.0,
			"-0.018": 0.0,
			"-0.017": 0.0,
			"-0.016": 0.0,
			"-0.015": 1.58041562165,
			"-0.014": 2.74143637237,
			"-0.013": 3.21206947541,
			"-0.012": 2.57076313145,
			"-0.011": 2.36552427359,
			"-0.01": 1.40322858168,
			"-0.009": 2.04224359165,
			"-0.008": 2.15653146427,
			"-0.007": 2.17473402833,
			"-0.006": 8.46875614395,
			"-0.005": 14.3605810647,
			"-0.004": 16.1973374641,
			"-0.003": 25.7960670545,
			"-0.002": 26.0420524874,
			"-0.001": 29.4665740707,
			"0.0": 28.0781422801,
			"0.001": 23.5332076994,
			"0.002": 18.7080055997,
			"0.003": 18.7445665442,
			"0.004": 16.2766353656,
			"0.005": 5.22327524414,
			"0.006": 3.80966006214,
			"0.007": 4.33852913011,
			"0.008": 3.75808905234,
			"0.009": 3.16843977215,
			"0.01": 3.82343423033,
			"0.011": 3.45475266447,
			"0.012": 2.96734274845,
			"0.013": 3.55256571961,
			"0.014": 2.78686007303,
			"0.015": 2.10925171569,
			"0.016": 1.22648350787,
			"0.017": 0.0289176499137,
			"0.018": 0.0,
			"0.019": 0.0,
			"0.02": 0.0,
			"0.021": 0.0,
			"0.022": 0.0,
			"0.023": 0.0,
			"0.024": 0.0,
			"0.025": 0.0
		}
	}
}
