{
	 "smiles": "O=C1OC(=O)C2=C1CC1=CC3=C(CC3)C=C1C2", 
	 "Tm": 527.15, 
	 "num_atms": 27, 
	 "gaussian": { 
		 "optdone": 1, 
		 "sigma_profile": "yes", 
		 "theory": "DFT", 
		 "functional": "B3LYP", 
		 "basiset": "6-31G**", 
		 "properties": { 
			 "R2extent": 6031.2371, 
			 "electric_dipole_moment_norm": 5.92880795017, 
			 "electric_quadrupole_moment_norm": 28.0712724703, 
			 "total_energy": -765.166233113, 
			 "HOMO_LUMO_gap": 0.14461, 
			 "cosmo_polarized_energy": -11.21, 
			 "cosmo_cavitation_energy": 31.18, 
			 "cosmo_dispersion_energy": -23.12, 
			 "cosmo_repulsion_energy": 1.78, 
			 "cosmo_total_nonelectrostatic_energy": 9.84, 
			 "SMD_solvation_energy": 6.02 
		},
		"coords": [
			{
				"x": 1.8233075824,
				"y": -5.352938576,
				"z": -1.1496370922,
				"element": "O" 
			},
			{
				"x": 0.9221933152,
				"y": -4.8364968635,
				"z": -0.5483221024,
				"element": "C" 
			},
			{
				"x": -0.1631049641,
				"y": -5.5633778157,
				"z": -0.0541348638,
				"element": "O" 
			},
			{
				"x": -1.0297105904,
				"y": -4.6777170339,
				"z": 0.5901677761,
				"element": "C" 
			},
			{
				"x": -2.0496747454,
				"y": -5.0379766134,
				"z": 1.1099517154,
				"element": "O" 
			},
			{
				"x": -0.4412332274,
				"y": -3.3164247514,
				"z": 0.4873490942,
				"element": "C" 
			},
			{
				"x": 0.7121466387,
				"y": -3.4102490153,
				"z": -0.1854516969,
				"element": "C" 
			},
			{
				"x": 1.6133634294,
				"y": -2.2736937139,
				"z": -0.5048819572,
				"element": "C" 
			},
			{
				"x": 1.0793620355,
				"y": -0.9469234746,
				"z": 0.0256128762,
				"element": "C" 
			},
			{
				"x": 1.8620865835,
				"y": 0.200765979,
				"z": -0.2243301644,
				"element": "C" 
			},
			{
				"x": 1.3913896803,
				"y": 1.4102537199,
				"z": 0.2501202026,
				"element": "C" 
			},
			{
				"x": 0.1891899864,
				"y": 1.508044661,
				"z": 0.9515265285,
				"element": "C" 
			},
			{
				"x": 0.3120251473,
				"y": 3.0138382915,
				"z": 1.1385647068,
				"element": "C" 
			},
			{
				"x": 1.6757079183,
				"y": 2.9029142135,
				"z": 0.3428470856,
				"element": "C" 
			},
			{
				"x": -0.5961004555,
				"y": 0.4007348839,
				"z": 1.2097989848,
				"element": "C" 
			},
			{
				"x": -0.1387847215,
				"y": -0.8478379179,
				"z": 0.7362355894,
				"element": "C" 
			},
			{
				"x": -1.0175638847,
				"y": -2.059636117,
				"z": 1.0298521421,
				"element": "C" 
			},
			{
				"x": 1.7616346665,
				"y": -2.2190877134,
				"z": -1.592853085,
				"element": "H" 
			},
			{
				"x": 2.6140475897,
				"y": -2.4743883613,
				"z": -0.0962352405,
				"element": "H" 
			},
			{
				"x": 2.7967636886,
				"y": 0.1059932007,
				"z": -0.7728409958,
				"element": "H" 
			},
			{
				"x": 0.4132857425,
				"y": 3.3571157716,
				"z": 2.173337655,
				"element": "H" 
			},
			{
				"x": -0.4568638587,
				"y": 3.617846617,
				"z": 0.6457861048,
				"element": "H" 
			},
			{
				"x": 1.6943534217,
				"y": 3.4428035097,
				"z": -0.6095273847,
				"element": "H" 
			},
			{
				"x": 2.5645425605,
				"y": 3.1821970731,
				"z": 0.9180189301,
				"element": "H" 
			},
			{
				"x": -1.5357991008,
				"y": 0.4584479875,
				"z": 1.7548739425,
				"element": "H" 
			},
			{
				"x": -2.0252139498,
				"y": -1.9109040426,
				"z": 0.6161293703,
				"element": "H" 
			},
			{
				"x": -1.1731504884,
				"y": -2.1662038985,
				"z": 2.1129418786,
				"element": "H" 
			}
		],
		 "valence_orbital": [ 
			{
				"type": "occ",
				"energy": -0.31116,
				"method": "rhf"
			},
			{
				"type": "occ",
				"energy": -0.2942,
				"method": "rhf"
			},
			{
				"type": "occ",
				"energy": -0.28656,
				"method": "rhf"
			},
			{
				"type": "occ",
				"energy": -0.25678,
				"method": "rhf"
			},
			{
				"type": "occ",
				"energy": -0.24194,
				"method": "rhf"
			},
			{
				"type": "unocc",
				"energy": -0.09733,
				"method": "rhf"
			},
			{
				"type": "unocc",
				"energy": -0.02388,
				"method": "rhf"
			},
			{
				"type": "unocc",
				"energy": -0.00507,
				"method": "rhf"
			},
			{
				"type": "unocc",
				"energy": 0.03317,
				"method": "rhf"
			},
			{
				"type": "unocc",
				"energy": 0.06293,
				"method": "rhf"
			}
		],
		"cosmo_sigma_profile": { 
			"-0.025": 0.0,
			"-0.024": 0.0,
			"-0.023": 0.0,
			"-0.022": 0.0,
			"-0.021": 0.0,
			"-0.02": 0.0,
			"-0.019": 0.0,
			"-0.018": 0.0,
			"-0.017": 0.0,
			"-0.016": 0.0,
			"-0.015": 0.0,
			"-0.014": 0.0,
			"-0.013": 0.0,
			"-0.012": 0.0,
			"-0.011": 0.0,
			"-0.01": 0.0,
			"-0.009": 0.149378546417,
			"-0.008": 1.62172702024,
			"-0.007": 6.37957462098,
			"-0.006": 18.6946422321,
			"-0.005": 21.1164655377,
			"-0.004": 23.370166913,
			"-0.003": 21.576109168,
			"-0.002": 21.9379479933,
			"-0.001": 17.8292847221,
			"0.0": 20.6768375315,
			"0.001": 12.7692622833,
			"0.002": 10.8177162353,
			"0.003": 10.2286905647,
			"0.004": 8.61661341024,
			"0.005": 11.7439954849,
			"0.006": 9.68447264113,
			"0.007": 6.71612093962,
			"0.008": 6.8365902322,
			"0.009": 9.46593746884,
			"0.01": 8.07377849788,
			"0.011": 1.1106943305,
			"0.012": 0.0,
			"0.013": 0.0,
			"0.014": 0.0,
			"0.015": 0.0,
			"0.016": 0.0,
			"0.017": 0.0,
			"0.018": 0.0,
			"0.019": 0.0,
			"0.02": 0.0,
			"0.021": 0.0,
			"0.022": 0.0,
			"0.023": 0.0,
			"0.024": 0.0,
			"0.025": 0.0
		}
	}
}
