{
	 "smiles": "CC(=O)C1=CC=C(OC2=CC=C(C=C2)C(O)=O)C=C1", 
	 "Tm": 435.15, 
	 "num_atms": 31, 
	 "gaussian": { 
		 "optdone": 1, 
		 "sigma_profile": "yes", 
		 "theory": "DFT", 
		 "functional": "B3LYP", 
		 "basiset": "6-31G**", 
		 "properties": { 
			 "R2extent": 8462.6638, 
			 "electric_dipole_moment_norm": 2.48536267374, 
			 "electric_quadrupole_moment_norm": 23.5682652618, 
			 "total_energy": -879.740723072, 
			 "HOMO_LUMO_gap": 0.17591, 
			 "cosmo_polarized_energy": -15.48, 
			 "cosmo_cavitation_energy": 36.78, 
			 "cosmo_dispersion_energy": -26.4, 
			 "cosmo_repulsion_energy": 2.02, 
			 "cosmo_total_nonelectrostatic_energy": 12.4, 
			 "SMD_solvation_energy": 8.41 
		},
		"coords": [
			{
				"x": -2.2995313255,
				"y": -3.0365074083,
				"z": 5.3666603795,
				"element": "C" 
			},
			{
				"x": -2.4096961269,
				"y": -2.838339137,
				"z": 3.8636735242,
				"element": "C" 
			},
			{
				"x": -3.3415280325,
				"y": -3.3254737541,
				"z": 3.2400059611,
				"element": "O" 
			},
			{
				"x": -1.3580919419,
				"y": -2.0378672957,
				"z": 3.1612727669,
				"element": "C" 
			},
			{
				"x": -1.4653759997,
				"y": -1.8764033566,
				"z": 1.7699884666,
				"element": "C" 
			},
			{
				"x": -0.5241109341,
				"y": -1.1471395518,
				"z": 1.0551913634,
				"element": "C" 
			},
			{
				"x": 0.5456375038,
				"y": -0.5569665027,
				"z": 1.7411813455,
				"element": "C" 
			},
			{
				"x": 1.5610524353,
				"y": 0.11920269,
				"z": 1.1011052874,
				"element": "O" 
			},
			{
				"x": 1.3191417,
				"y": 0.9358067433,
				"z": 0.0191074693,
				"element": "C" 
			},
			{
				"x": 0.1715016193,
				"y": 1.7295156822,
				"z": -0.0929591798,
				"element": "C" 
			},
			{
				"x": 0.0385491535,
				"y": 2.5829239603,
				"z": -1.1841853101,
				"element": "C" 
			},
			{
				"x": 1.0440259938,
				"y": 2.6555522877,
				"z": -2.1587291385,
				"element": "C" 
			},
			{
				"x": 2.1923948167,
				"y": 1.8613979316,
				"z": -2.0251273763,
				"element": "C" 
			},
			{
				"x": 2.3326920553,
				"y": 1.0026047136,
				"z": -0.9430943345,
				"element": "C" 
			},
			{
				"x": 0.9462318215,
				"y": 3.5501235577,
				"z": -3.3376553605,
				"element": "C" 
			},
			{
				"x": -0.2056369555,
				"y": 4.2688588845,
				"z": -3.3668911023,
				"element": "O" 
			},
			{
				"x": 1.7913030332,
				"y": 3.6530122258,
				"z": -4.2058031334,
				"element": "O" 
			},
			{
				"x": 0.6762648999,
				"y": -0.7087621164,
				"z": 3.1238205162,
				"element": "C" 
			},
			{
				"x": -0.2714544464,
				"y": -1.4480233376,
				"z": 3.8254557071,
				"element": "C" 
			},
			{
				"x": -1.3650350927,
				"y": -3.5443848371,
				"z": 5.6297742924,
				"element": "H" 
			},
			{
				"x": -2.3085595373,
				"y": -2.0754540015,
				"z": 5.8928081355,
				"element": "H" 
			},
			{
				"x": -3.1445310075,
				"y": -3.6388960786,
				"z": 5.7008866803,
				"element": "H" 
			},
			{
				"x": -2.3028274059,
				"y": -2.3468821667,
				"z": 1.2657233075,
				"element": "H" 
			},
			{
				"x": -0.6071712146,
				"y": -1.0386348961,
				"z": -0.0206215046,
				"element": "H" 
			},
			{
				"x": -0.6005374676,
				"y": 1.6822487595,
				"z": 0.6666579107,
				"element": "H" 
			},
			{
				"x": -0.8450184988,
				"y": 3.2036408086,
				"z": -1.2793603581,
				"element": "H" 
			},
			{
				"x": 2.9624767217,
				"y": 1.929644878,
				"z": -2.7858655571,
				"element": "H" 
			},
			{
				"x": 3.212359917,
				"y": 0.3796917289,
				"z": -0.8223776404,
				"element": "H" 
			},
			{
				"x": -0.1560402826,
				"y": 4.8104122131,
				"z": -4.1714746391,
				"element": "H" 
			},
			{
				"x": 1.5200152215,
				"y": -0.2467145299,
				"z": 3.6249703048,
				"element": "H" 
			},
			{
				"x": -0.1591006229,
				"y": -1.5570880944,
				"z": 4.8991612162,
				"element": "H" 
			}
		],
		 "valence_orbital": [ 
			{
				"type": "occ",
				"energy": -0.27445,
				"method": "rhf"
			},
			{
				"type": "occ",
				"energy": -0.26936,
				"method": "rhf"
			},
			{
				"type": "occ",
				"energy": -0.26544,
				"method": "rhf"
			},
			{
				"type": "occ",
				"energy": -0.25038,
				"method": "rhf"
			},
			{
				"type": "occ",
				"energy": -0.23617,
				"method": "rhf"
			},
			{
				"type": "unocc",
				"energy": -0.06026,
				"method": "rhf"
			},
			{
				"type": "unocc",
				"energy": -0.04586,
				"method": "rhf"
			},
			{
				"type": "unocc",
				"energy": -0.02528,
				"method": "rhf"
			},
			{
				"type": "unocc",
				"energy": -0.01388,
				"method": "rhf"
			},
			{
				"type": "unocc",
				"energy": 0.03555,
				"method": "rhf"
			}
		],
		"cosmo_sigma_profile": { 
			"-0.025": 0.0,
			"-0.024": 0.0,
			"-0.023": 0.0,
			"-0.022": 0.0,
			"-0.021": 0.0,
			"-0.02": 0.0,
			"-0.019": 0.00370737605955,
			"-0.018": 0.550771921073,
			"-0.017": 1.18712023149,
			"-0.016": 0.804231640556,
			"-0.015": 0.80453115983,
			"-0.014": 0.254792158891,
			"-0.013": 0.669224677579,
			"-0.012": 0.840230295142,
			"-0.011": 1.02793118155,
			"-0.01": 0.745835568227,
			"-0.009": 0.556275325056,
			"-0.008": 1.04842575122,
			"-0.007": 9.90802776707,
			"-0.006": 20.6584468102,
			"-0.005": 20.5330991495,
			"-0.004": 18.355117885,
			"-0.003": 18.0926670572,
			"-0.002": 20.5298474678,
			"-0.001": 21.7169071656,
			"0.0": 22.6951847662,
			"0.001": 26.1616696767,
			"0.002": 29.5770896148,
			"0.003": 25.6129509926,
			"0.004": 6.64041818898,
			"0.005": 6.3290341293,
			"0.006": 4.75219992768,
			"0.007": 6.28612727357,
			"0.008": 3.88180307568,
			"0.009": 3.25677352517,
			"0.01": 4.42722222044,
			"0.011": 5.73029501592,
			"0.012": 8.74916464811,
			"0.013": 2.01914667256,
			"0.014": 0.223324602371,
			"0.015": 0.0,
			"0.016": 0.0,
			"0.017": 0.0,
			"0.018": 0.0,
			"0.019": 0.0,
			"0.02": 0.0,
			"0.021": 0.0,
			"0.022": 0.0,
			"0.023": 0.0,
			"0.024": 0.0,
			"0.025": 0.0
		}
	}
}
