{
	 "smiles": "CCC1C(C#N)=C(N)OC2=C1C(=O)OC1=CC=CC=C21", 
	 "Tm": 508.15, 
	 "num_atms": 32, 
	 "gaussian": { 
		 "optdone": 1, 
		 "sigma_profile": "yes", 
		 "theory": "DFT", 
		 "functional": "B3LYP", 
		 "basiset": "6-31G**", 
		 "properties": { 
			 "R2extent": 5795.5801, 
			 "electric_dipole_moment_norm": 7.42937505178, 
			 "electric_quadrupole_moment_norm": 18.1957302071, 
			 "total_energy": -913.99507391, 
			 "HOMO_LUMO_gap": 0.15011, 
			 "cosmo_polarized_energy": -19.55, 
			 "cosmo_cavitation_energy": 36.44, 
			 "cosmo_dispersion_energy": -25.42, 
			 "cosmo_repulsion_energy": 1.93, 
			 "cosmo_total_nonelectrostatic_energy": 12.95, 
			 "SMD_solvation_energy": 8.5 
		},
		"coords": [
			{
				"x": 0.9645207149,
				"y": -2.402395931,
				"z": 1.8428943818,
				"element": "C" 
			},
			{
				"x": 0.6022204992,
				"y": -3.1420883967,
				"z": 0.5535582889,
				"element": "C" 
			},
			{
				"x": -0.6042036544,
				"y": -2.5466887556,
				"z": -0.2279629884,
				"element": "C" 
			},
			{
				"x": -1.8974622243,
				"y": -2.5971444096,
				"z": 0.5742505454,
				"element": "C" 
			},
			{
				"x": -2.4562802668,
				"y": -3.8492440898,
				"z": 0.9366103928,
				"element": "C" 
			},
			{
				"x": -2.9361583249,
				"y": -4.8644079488,
				"z": 1.2565072598,
				"element": "N" 
			},
			{
				"x": -2.5372570954,
				"y": -1.4768219593,
				"z": 1.0078981503,
				"element": "C" 
			},
			{
				"x": -3.7050237937,
				"y": -1.4159450524,
				"z": 1.7133412343,
				"element": "N" 
			},
			{
				"x": -2.0911566595,
				"y": -0.2127604411,
				"z": 0.7224032281,
				"element": "O" 
			},
			{
				"x": -1.072760425,
				"y": -0.0687458386,
				"z": -0.1852014254,
				"element": "C" 
			},
			{
				"x": -0.3690389244,
				"y": -1.1208126067,
				"z": -0.674647778,
				"element": "C" 
			},
			{
				"x": 0.652399359,
				"y": -0.884981674,
				"z": -1.6931758989,
				"element": "C" 
			},
			{
				"x": 1.3040033123,
				"y": -1.7449380112,
				"z": -2.2413615184,
				"element": "O" 
			},
			{
				"x": 0.891665825,
				"y": 0.4367483278,
				"z": -2.0633858721,
				"element": "O" 
			},
			{
				"x": 0.1978231179,
				"y": 1.4861088637,
				"z": -1.539383271,
				"element": "C" 
			},
			{
				"x": 0.5291878242,
				"y": 2.765570547,
				"z": -1.9907650945,
				"element": "C" 
			},
			{
				"x": -0.1630202115,
				"y": 3.8609442696,
				"z": -1.4872183032,
				"element": "C" 
			},
			{
				"x": -1.1834260544,
				"y": 3.6888026311,
				"z": -0.5393376861,
				"element": "C" 
			},
			{
				"x": -1.5101756435,
				"y": 2.4160215482,
				"z": -0.0933246506,
				"element": "C" 
			},
			{
				"x": -0.8190926933,
				"y": 1.2948651498,
				"z": -0.5877358528,
				"element": "C" 
			},
			{
				"x": 1.2567504386,
				"y": -1.3649383125,
				"z": 1.6464093638,
				"element": "H" 
			},
			{
				"x": 1.8072698654,
				"y": -2.8917073669,
				"z": 2.340628505,
				"element": "H" 
			},
			{
				"x": 0.1271383668,
				"y": -2.387860223,
				"z": 2.548706902,
				"element": "H" 
			},
			{
				"x": 0.3567061203,
				"y": -4.1860188574,
				"z": 0.7834131268,
				"element": "H" 
			},
			{
				"x": 1.4579941031,
				"y": -3.1617803123,
				"z": -0.1274252616,
				"element": "H" 
			},
			{
				"x": -0.717488939,
				"y": -3.1598595843,
				"z": -1.1312742686,
				"element": "H" 
			},
			{
				"x": -4.0100119884,
				"y": -2.2708903754,
				"z": 2.1566443014,
				"element": "H" 
			},
			{
				"x": -3.8773629206,
				"y": -0.5626520852,
				"z": 2.2238190486,
				"element": "H" 
			},
			{
				"x": 1.3187544332,
				"y": 2.8725497003,
				"z": -2.7262369577,
				"element": "H" 
			},
			{
				"x": 0.0902578184,
				"y": 4.8577757831,
				"z": -1.8349024109,
				"element": "H" 
			},
			{
				"x": -1.718525758,
				"y": 4.5510338148,
				"z": -0.1549272542,
				"element": "H" 
			},
			{
				"x": -2.2970462215,
				"y": 2.2683615965,
				"z": 0.6372817634,
				"element": "H" 
			}
		],
		 "valence_orbital": [ 
			{
				"type": "occ",
				"energy": -0.30277,
				"method": "rhf"
			},
			{
				"type": "occ",
				"energy": -0.28319,
				"method": "rhf"
			},
			{
				"type": "occ",
				"energy": -0.26392,
				"method": "rhf"
			},
			{
				"type": "occ",
				"energy": -0.24456,
				"method": "rhf"
			},
			{
				"type": "occ",
				"energy": -0.22419,
				"method": "rhf"
			},
			{
				"type": "unocc",
				"energy": -0.07408,
				"method": "rhf"
			},
			{
				"type": "unocc",
				"energy": -0.02322,
				"method": "rhf"
			},
			{
				"type": "unocc",
				"energy": -0.01671,
				"method": "rhf"
			},
			{
				"type": "unocc",
				"energy": 0.00203,
				"method": "rhf"
			},
			{
				"type": "unocc",
				"energy": 0.0276,
				"method": "rhf"
			}
		],
		"cosmo_sigma_profile": { 
			"-0.025": 0.0,
			"-0.024": 0.0,
			"-0.023": 0.0,
			"-0.022": 0.0,
			"-0.021": 0.0,
			"-0.02": 0.0,
			"-0.019": 0.0,
			"-0.018": 0.0,
			"-0.017": 0.0,
			"-0.016": 0.0994254817581,
			"-0.015": 1.31853815081,
			"-0.014": 2.25557475702,
			"-0.013": 2.00535102178,
			"-0.012": 2.46032164473,
			"-0.011": 1.26692595388,
			"-0.01": 2.66586021488,
			"-0.009": 1.37453827118,
			"-0.008": 2.74704905841,
			"-0.007": 8.12732989756,
			"-0.006": 10.2435371628,
			"-0.005": 15.2259170936,
			"-0.004": 15.2489757701,
			"-0.003": 24.321385404,
			"-0.002": 29.5481816874,
			"-0.001": 29.5885294417,
			"0.0": 29.8437772829,
			"0.001": 26.2896319454,
			"0.002": 16.4979385868,
			"0.003": 13.8102050521,
			"0.004": 5.86154906446,
			"0.005": 5.10186343597,
			"0.006": 4.28108873128,
			"0.007": 5.59559442091,
			"0.008": 4.93492280404,
			"0.009": 5.10114047218,
			"0.01": 6.10951884974,
			"0.011": 7.19522152705,
			"0.012": 7.0890517699,
			"0.013": 3.95386285032,
			"0.014": 1.55668244372,
			"0.015": 0.0346838454376,
			"0.016": 0.0,
			"0.017": 0.0,
			"0.018": 0.0,
			"0.019": 0.0,
			"0.02": 0.0,
			"0.021": 0.0,
			"0.022": 0.0,
			"0.023": 0.0,
			"0.024": 0.0,
			"0.025": 0.0
		}
	}
}
