{
	 "smiles": "CC1=CC=C(C=C1)N1NC(=CC1=O)C(O)=O", 
	 "Tm": 533.15, 
	 "num_atms": 26, 
	 "gaussian": { 
		 "optdone": 1, 
		 "sigma_profile": "yes", 
		 "theory": "DFT", 
		 "functional": "B3LYP", 
		 "basiset": "6-31G**", 
		 "properties": { 
			 "R2extent": 5070.2253, 
			 "electric_dipole_moment_norm": 5.06354133981, 
			 "electric_quadrupole_moment_norm": 11.4495882188, 
			 "total_energy": -760.350425099, 
			 "HOMO_LUMO_gap": 0.14411, 
			 "cosmo_polarized_energy": -22.15, 
			 "cosmo_cavitation_energy": 31.17, 
			 "cosmo_dispersion_energy": -22.64, 
			 "cosmo_repulsion_energy": 1.74, 
			 "cosmo_total_nonelectrostatic_energy": 10.27, 
			 "SMD_solvation_energy": 7.6 
		},
		"coords": [
			{
				"x": -4.5980196473,
				"y": 2.5978324302,
				"z": -0.404709643,
				"element": "C" 
			},
			{
				"x": -3.2970594761,
				"y": 1.8442029166,
				"z": -0.5450197647,
				"element": "C" 
			},
			{
				"x": -3.2717916528,
				"y": 0.4779477258,
				"z": -0.8412739578,
				"element": "C" 
			},
			{
				"x": -2.0705023701,
				"y": -0.2160041942,
				"z": -0.9840670851,
				"element": "C" 
			},
			{
				"x": -0.8529328187,
				"y": 0.4558298333,
				"z": -0.8183009385,
				"element": "C" 
			},
			{
				"x": -0.8526379647,
				"y": 1.8283387945,
				"z": -0.5184354635,
				"element": "C" 
			},
			{
				"x": -2.0649597181,
				"y": 2.497993383,
				"z": -0.3930925106,
				"element": "C" 
			},
			{
				"x": 0.3690017929,
				"y": -0.2470227958,
				"z": -0.9234462447,
				"element": "N" 
			},
			{
				"x": 0.3556706643,
				"y": -1.651775086,
				"z": -0.9602702789,
				"element": "N" 
			},
			{
				"x": 1.6939728389,
				"y": -2.0360559205,
				"z": -1.1719000878,
				"element": "C" 
			},
			{
				"x": 2.4820862555,
				"y": -0.9597314357,
				"z": -1.3703699048,
				"element": "C" 
			},
			{
				"x": 1.6613626735,
				"y": 0.2480479701,
				"z": -1.2188057692,
				"element": "C" 
			},
			{
				"x": 1.9610587107,
				"y": 1.4266870162,
				"z": -1.3299789029,
				"element": "O" 
			},
			{
				"x": 2.0390815644,
				"y": -3.482091227,
				"z": -1.2385146029,
				"element": "C" 
			},
			{
				"x": 0.982691181,
				"y": -4.3030017791,
				"z": -1.4717922363,
				"element": "O" 
			},
			{
				"x": 3.1575538466,
				"y": -3.9054860551,
				"z": -1.0932403094,
				"element": "O" 
			},
			{
				"x": -5.4579252728,
				"y": 1.9245944889,
				"z": -0.4595046102,
				"element": "H" 
			},
			{
				"x": -4.7119539469,
				"y": 3.3473434658,
				"z": -1.1968400648,
				"element": "H" 
			},
			{
				"x": -4.6501499628,
				"y": 3.131280992,
				"z": 0.551011799,
				"element": "H" 
			},
			{
				"x": -4.2072562857,
				"y": -0.0593831641,
				"z": -0.9739522007,
				"element": "H" 
			},
			{
				"x": -2.083871596,
				"y": -1.2679698457,
				"z": -1.2462693896,
				"element": "H" 
			},
			{
				"x": 0.0880845887,
				"y": 2.3494954993,
				"z": -0.4057098664,
				"element": "H" 
			},
			{
				"x": -2.0499529215,
				"y": 3.5607734261,
				"z": -0.1641557221,
				"element": "H" 
			},
			{
				"x": -0.0560370873,
				"y": -2.0295236375,
				"z": -0.104251235,
				"element": "H" 
			},
			{
				"x": 3.5273764698,
				"y": -0.958051347,
				"z": -1.637836901,
				"element": "H" 
			},
			{
				"x": 0.2156101346,
				"y": -3.7738714539,
				"z": -1.745874109,
				"element": "H" 
			}
		],
		 "valence_orbital": [ 
			{
				"type": "occ",
				"energy": -0.29728,
				"method": "rhf"
			},
			{
				"type": "occ",
				"energy": -0.27101,
				"method": "rhf"
			},
			{
				"type": "occ",
				"energy": -0.2646,
				"method": "rhf"
			},
			{
				"type": "occ",
				"energy": -0.26058,
				"method": "rhf"
			},
			{
				"type": "occ",
				"energy": -0.22412,
				"method": "rhf"
			},
			{
				"type": "unocc",
				"energy": -0.08001,
				"method": "rhf"
			},
			{
				"type": "unocc",
				"energy": -0.0143,
				"method": "rhf"
			},
			{
				"type": "unocc",
				"energy": -0.00809,
				"method": "rhf"
			},
			{
				"type": "unocc",
				"energy": 0.02402,
				"method": "rhf"
			},
			{
				"type": "unocc",
				"energy": 0.04309,
				"method": "rhf"
			}
		],
		"cosmo_sigma_profile": { 
			"-0.025": 0.0,
			"-0.024": 0.0,
			"-0.023": 0.0,
			"-0.022": 0.0,
			"-0.021": 0.0,
			"-0.02": 0.0,
			"-0.019": 0.0,
			"-0.018": 0.139075523008,
			"-0.017": 2.0768689677,
			"-0.016": 4.03679469731,
			"-0.015": 2.77220293061,
			"-0.014": 1.63783614335,
			"-0.013": 1.92633502578,
			"-0.012": 2.45063366775,
			"-0.011": 2.18708956534,
			"-0.01": 2.09991261954,
			"-0.009": 3.10014931583,
			"-0.008": 3.39604811472,
			"-0.007": 4.25674160958,
			"-0.006": 6.14725181154,
			"-0.005": 10.7235687579,
			"-0.004": 16.7731637639,
			"-0.003": 18.9129863388,
			"-0.002": 18.028001998,
			"-0.001": 18.9864054897,
			"0.0": 21.3061322078,
			"0.001": 15.4872340386,
			"0.002": 11.5405532062,
			"0.003": 11.0191437913,
			"0.004": 11.8592880966,
			"0.005": 14.157086392,
			"0.006": 4.82685863678,
			"0.007": 4.35393790842,
			"0.008": 5.13104758135,
			"0.009": 6.01704994069,
			"0.01": 7.12815927347,
			"0.011": 6.8153163434,
			"0.012": 4.18046321702,
			"0.013": 4.07701828549,
			"0.014": 1.71387883783,
			"0.015": 0.0481869336499,
			"0.016": 0.0,
			"0.017": 0.0,
			"0.018": 0.0,
			"0.019": 0.0,
			"0.02": 0.0,
			"0.021": 0.0,
			"0.022": 0.0,
			"0.023": 0.0,
			"0.024": 0.0,
			"0.025": 0.0
		}
	}
}
