{
	 "smiles": "ClC1=CC=C(C=CS(Cl)(=O)=O)C=C1", 
	 "Tm": 405.15, 
	 "num_atms": 19, 
	 "gaussian": { 
		 "optdone": 1, 
		 "sigma_profile": "yes", 
		 "theory": "DFT", 
		 "functional": "B3LYP", 
		 "basiset": "6-31G**", 
		 "properties": { 
			 "R2extent": 5924.3, 
			 "electric_dipole_moment_norm": 4.95683404705, 
			 "electric_quadrupole_moment_norm": 19.0408084427, 
			 "total_energy": -1777.39461517, 
			 "HOMO_LUMO_gap": 0.15551, 
			 "cosmo_polarized_energy": -11.08, 
			 "cosmo_cavitation_energy": 28.82, 
			 "cosmo_dispersion_energy": -21.69, 
			 "cosmo_repulsion_energy": 1.67, 
			 "cosmo_total_nonelectrostatic_energy": 8.81, 
			 "SMD_solvation_energy": 3.64 
		},
		"coords": [
			{
				"x": 0.5643484547,
				"y": -2.752966757,
				"z": 3.5081552223,
				"element": "Cl" 
			},
			{
				"x": -0.0464627128,
				"y": -2.1311941881,
				"z": 1.9912672431,
				"element": "C" 
			},
			{
				"x": 0.1696104966,
				"y": -2.852840349,
				"z": 0.8165643772,
				"element": "C" 
			},
			{
				"x": -0.3205631283,
				"y": -2.3450910585,
				"z": -0.3799286665,
				"element": "C" 
			},
			{
				"x": -1.031391298,
				"y": -1.1268487367,
				"z": -0.4344010108,
				"element": "C" 
			},
			{
				"x": -1.5093052997,
				"y": -0.7224887641,
				"z": -1.753407208,
				"element": "C" 
			},
			{
				"x": -2.2702656208,
				"y": 0.2702412205,
				"z": -2.2564099629,
				"element": "C" 
			},
			{
				"x": -3.0403230194,
				"y": 1.6575328702,
				"z": -1.4685425968,
				"element": "S" 
			},
			{
				"x": -4.6346228343,
				"y": 0.7293903718,
				"z": -0.3764144838,
				"element": "Cl" 
			},
			{
				"x": -3.6667434704,
				"y": 2.4463426205,
				"z": -2.5207340581,
				"element": "O" 
			},
			{
				"x": -2.1851707163,
				"y": 2.2767064817,
				"z": -0.4591231653,
				"element": "O" 
			},
			{
				"x": -1.2263555107,
				"y": -0.4197461866,
				"z": 0.7702824073,
				"element": "C" 
			},
			{
				"x": -0.7382756969,
				"y": -0.9179931112,
				"z": 1.9726946735,
				"element": "C" 
			},
			{
				"x": 0.7112203194,
				"y": -3.7914238101,
				"z": 0.8429475505,
				"element": "H" 
			},
			{
				"x": -0.155065713,
				"y": -2.9066926574,
				"z": -1.2952292324,
				"element": "H" 
			},
			{
				"x": -1.1887833702,
				"y": -1.409596235,
				"z": -2.5373080141,
				"element": "H" 
			},
			{
				"x": -2.5219265042,
				"y": 0.296323887,
				"z": -3.3108113115,
				"element": "H" 
			},
			{
				"x": -1.7372792694,
				"y": 0.5327363397,
				"z": 0.7741621928,
				"element": "H" 
			},
			{
				"x": -0.8895451062,
				"y": -0.3665919375,
				"z": 2.8937360434,
				"element": "H" 
			}
		],
		 "valence_orbital": [ 
			{
				"type": "occ",
				"energy": -0.3293,
				"method": "rhf"
			},
			{
				"type": "occ",
				"energy": -0.31791,
				"method": "rhf"
			},
			{
				"type": "occ",
				"energy": -0.31474,
				"method": "rhf"
			},
			{
				"type": "occ",
				"energy": -0.28654,
				"method": "rhf"
			},
			{
				"type": "occ",
				"energy": -0.26068,
				"method": "rhf"
			},
			{
				"type": "unocc",
				"energy": -0.10517,
				"method": "rhf"
			},
			{
				"type": "unocc",
				"energy": -0.06731,
				"method": "rhf"
			},
			{
				"type": "unocc",
				"energy": -0.03485,
				"method": "rhf"
			},
			{
				"type": "unocc",
				"energy": 0.00421,
				"method": "rhf"
			},
			{
				"type": "unocc",
				"energy": 0.01254,
				"method": "rhf"
			}
		],
		"cosmo_sigma_profile": { 
			"-0.025": 0.0,
			"-0.024": 0.0,
			"-0.023": 0.0,
			"-0.022": 0.0,
			"-0.021": 0.0,
			"-0.02": 0.0,
			"-0.019": 0.0,
			"-0.018": 0.0,
			"-0.017": 0.0,
			"-0.016": 0.0,
			"-0.015": 0.0,
			"-0.014": 0.0,
			"-0.013": 0.0,
			"-0.012": 0.0,
			"-0.011": 1.32218576351,
			"-0.01": 5.35932550666,
			"-0.009": 4.36257726527,
			"-0.008": 7.47923746799,
			"-0.007": 8.43082257291,
			"-0.006": 8.30393141927,
			"-0.005": 8.27402793994,
			"-0.004": 8.20375429289,
			"-0.003": 9.83584489908,
			"-0.002": 12.413158748,
			"-0.001": 18.2221230236,
			"0.0": 24.3609668067,
			"0.001": 26.9413559091,
			"0.002": 26.8395639383,
			"0.003": 19.8595392021,
			"0.004": 20.4089924655,
			"0.005": 3.09941004894,
			"0.006": 2.63656497071,
			"0.007": 5.93917660542,
			"0.008": 9.08862147348,
			"0.009": 5.55109913618,
			"0.01": 0.281755421561,
			"0.011": 0.0,
			"0.012": 0.0,
			"0.013": 0.0,
			"0.014": 0.0,
			"0.015": 0.0,
			"0.016": 0.0,
			"0.017": 0.0,
			"0.018": 0.0,
			"0.019": 0.0,
			"0.02": 0.0,
			"0.021": 0.0,
			"0.022": 0.0,
			"0.023": 0.0,
			"0.024": 0.0,
			"0.025": 0.0
		}
	}
}
