{
	 "smiles": "COC(=O)CS", 
	 "Tm": 270.15, 
	 "num_atms": 12, 
	 "gaussian": { 
		 "optdone": 1, 
		 "sigma_profile": "yes", 
		 "theory": "DFT", 
		 "functional": "B3LYP", 
		 "basiset": "6-31G**", 
		 "properties": { 
			 "R2extent": 1156.5954, 
			 "electric_dipole_moment_norm": 2.72701310228, 
			 "electric_quadrupole_moment_norm": 2.94513714791, 
			 "total_energy": -666.570759925, 
			 "HOMO_LUMO_gap": 0.23469, 
			 "cosmo_polarized_energy": -7.68, 
			 "cosmo_cavitation_energy": 17.65, 
			 "cosmo_dispersion_energy": -13.7, 
			 "cosmo_repulsion_energy": 1.15, 
			 "cosmo_total_nonelectrostatic_energy": 5.1, 
			 "SMD_solvation_energy": 4.27 
		},
		"coords": [
			{
				"x": 0.0669055409,
				"y": -1.8419455179,
				"z": -1.1571033078,
				"element": "C" 
			},
			{
				"x": 0.4129827564,
				"y": -0.943541964,
				"z": -0.0857671784,
				"element": "O" 
			},
			{
				"x": -0.6223803552,
				"y": -0.5035353675,
				"z": 0.6539712974,
				"element": "C" 
			},
			{
				"x": -1.7775325267,
				"y": -0.80818864,
				"z": 0.4548090044,
				"element": "O" 
			},
			{
				"x": -0.1269681643,
				"y": 0.3699207109,
				"z": 1.7953523115,
				"element": "C" 
			},
			{
				"x": -1.3403703058,
				"y": 1.6445357937,
				"z": 2.3055725105,
				"element": "S" 
			},
			{
				"x": 1.0088481162,
				"y": -2.0935344283,
				"z": -1.6435302888,
				"element": "H" 
			},
			{
				"x": -0.4156128218,
				"y": -2.7397540899,
				"z": -0.7634377892,
				"element": "H" 
			},
			{
				"x": -0.6118637702,
				"y": -1.3534107177,
				"z": -1.8599284836,
				"element": "H" 
			},
			{
				"x": 0.791527714,
				"y": 0.8805155415,
				"z": 1.5029082181,
				"element": "H" 
			},
			{
				"x": 0.1122752613,
				"y": -0.287257005,
				"z": 2.6386834038,
				"element": "H" 
			},
			{
				"x": -2.4168114447,
				"y": 0.8526956843,
				"z": 2.1260703021,
				"element": "H" 
			}
		],
		 "valence_orbital": [ 
			{
				"type": "occ",
				"energy": -0.37019,
				"method": "rhf"
			},
			{
				"type": "occ",
				"energy": -0.33853,
				"method": "rhf"
			},
			{
				"type": "occ",
				"energy": -0.31446,
				"method": "rhf"
			},
			{
				"type": "occ",
				"energy": -0.28845,
				"method": "rhf"
			},
			{
				"type": "occ",
				"energy": -0.24073,
				"method": "rhf"
			},
			{
				"type": "unocc",
				"energy": -0.00604,
				"method": "rhf"
			},
			{
				"type": "unocc",
				"energy": 0.03185,
				"method": "rhf"
			},
			{
				"type": "unocc",
				"energy": 0.0735,
				"method": "rhf"
			},
			{
				"type": "unocc",
				"energy": 0.1048,
				"method": "rhf"
			},
			{
				"type": "unocc",
				"energy": 0.11617,
				"method": "rhf"
			}
		],
		"cosmo_sigma_profile": { 
			"-0.025": 0.0,
			"-0.024": 0.0,
			"-0.023": 0.0,
			"-0.022": 0.0,
			"-0.021": 0.0,
			"-0.02": 0.0,
			"-0.019": 0.0,
			"-0.018": 0.0,
			"-0.017": 0.0,
			"-0.016": 0.0,
			"-0.015": 0.0,
			"-0.014": 0.0,
			"-0.013": 0.0,
			"-0.012": 0.0,
			"-0.011": 0.0,
			"-0.01": 0.0,
			"-0.009": 0.879216580834,
			"-0.008": 5.00608891586,
			"-0.007": 6.40934637894,
			"-0.006": 10.276922777,
			"-0.005": 12.3796550378,
			"-0.004": 14.5610067996,
			"-0.003": 12.8815490201,
			"-0.002": 7.19158191898,
			"-0.001": 7.8847876519,
			"0.0": 5.71543989221,
			"0.001": 6.10613910678,
			"0.002": 5.36768271132,
			"0.003": 5.19694433592,
			"0.004": 6.88642615504,
			"0.005": 6.54210088053,
			"0.006": 5.84253583441,
			"0.007": 4.61537800836,
			"0.008": 5.30433356683,
			"0.009": 3.67216345222,
			"0.01": 4.06520441415,
			"0.011": 3.87430132748,
			"0.012": 1.30183911886,
			"0.013": 0.0,
			"0.014": 0.0,
			"0.015": 0.0,
			"0.016": 0.0,
			"0.017": 0.0,
			"0.018": 0.0,
			"0.019": 0.0,
			"0.02": 0.0,
			"0.021": 0.0,
			"0.022": 0.0,
			"0.023": 0.0,
			"0.024": 0.0,
			"0.025": 0.0
		}
	}
}
