{
	 "smiles": "ClC1=C(Br)C2=C(OC3=C(O2)C(Br)=C(Br)C(Cl)=C3Br)C(Br)=C1Br", 
	 "Tm": 658.15, 
	 "num_atms": 22, 
	 "gaussian": { 
		 "optdone": 1, 
		 "sigma_profile": "yes", 
		 "theory": "DFT", 
		 "functional": "B3LYP", 
		 "basiset": "6-31G**", 
		 "properties": { 
			 "R2extent": 21999.2526, 
			 "electric_dipole_moment_norm": 0.0, 
			 "electric_quadrupole_moment_norm": 5.99615855694, 
			 "total_energy": -16956.461163, 
			 "HOMO_LUMO_gap": 0.16885, 
			 "cosmo_polarized_energy": -6.31, 
			 "cosmo_cavitation_energy": 44.13, 
			 "cosmo_dispersion_energy": -33.9, 
			 "cosmo_repulsion_energy": 2.53, 
			 "cosmo_total_nonelectrostatic_energy": 12.76, 
			 "SMD_solvation_energy": 1.28 
		},
		"coords": [
			{
				"x": 2.3559004252,
				"y": -0.6601123081,
				"z": -5.365279296,
				"element": "Cl" 
			},
			{
				"x": 1.5824831277,
				"y": -0.1188707335,
				"z": -3.9098127987,
				"element": "C" 
			},
			{
				"x": 1.6239495701,
				"y": -0.9296995117,
				"z": -2.7620683532,
				"element": "C" 
			},
			{
				"x": 2.4996775142,
				"y": -2.6035065164,
				"z": -2.7451574047,
				"element": "Br" 
			},
			{
				"x": 1.0028743796,
				"y": -0.4969009314,
				"z": -1.5910066048,
				"element": "C" 
			},
			{
				"x": 0.3440457499,
				"y": 0.7311909607,
				"z": -1.5536182409,
				"element": "C" 
			},
			{
				"x": -0.2726950545,
				"y": 1.1724458394,
				"z": -0.4085194043,
				"element": "O" 
			},
			{
				"x": -0.2163316411,
				"y": 0.3601453617,
				"z": 0.6967000513,
				"element": "C" 
			},
			{
				"x": 0.4424946441,
				"y": -0.8679415004,
				"z": 0.6593105068,
				"element": "C" 
			},
			{
				"x": 1.0592449147,
				"y": -1.3091927154,
				"z": -0.4857848402,
				"element": "O" 
			},
			{
				"x": 0.4890165551,
				"y": -1.6796620914,
				"z": 1.7926658151,
				"element": "C" 
			},
			{
				"x": 1.4007676464,
				"y": -3.3296265331,
				"z": 1.6615255605,
				"element": "Br" 
			},
			{
				"x": -0.1323691417,
				"y": -1.25572383,
				"z": 2.9794090246,
				"element": "C" 
			},
			{
				"x": -0.0742562819,
				"y": -2.3487807707,
				"z": 4.5213084994,
				"element": "Br" 
			},
			{
				"x": -0.7959517418,
				"y": -0.0178831144,
				"z": 3.0155017206,
				"element": "C" 
			},
			{
				"x": -1.5693732614,
				"y": 0.5233515503,
				"z": 4.4709670169,
				"element": "Cl" 
			},
			{
				"x": -0.8374126821,
				"y": 0.7929459652,
				"z": 1.8677620845,
				"element": "C" 
			},
			{
				"x": -1.7131430088,
				"y": 2.4667507738,
				"z": 1.8508460084,
				"element": "Br" 
			},
			{
				"x": 0.2975169507,
				"y": 1.5429048804,
				"z": -2.6869733731,
				"element": "C" 
			},
			{
				"x": -0.6142255481,
				"y": 3.1928749169,
				"z": -2.555834646,
				"element": "Br" 
			},
			{
				"x": 0.9189022665,
				"y": 1.1189663489,
				"z": -3.8737217967,
				"element": "C" 
			},
			{
				"x": 0.8607846173,
				"y": 2.2120239593,
				"z": -5.4156195294,
				"element": "Br" 
			}
		],
		 "valence_orbital": [ 
			{
				"type": "occ",
				"energy": -0.28403,
				"method": "rhf"
			},
			{
				"type": "occ",
				"energy": -0.27529,
				"method": "rhf"
			},
			{
				"type": "occ",
				"energy": -0.26456,
				"method": "rhf"
			},
			{
				"type": "occ",
				"energy": -0.25217,
				"method": "rhf"
			},
			{
				"type": "occ",
				"energy": -0.23418,
				"method": "rhf"
			},
			{
				"type": "unocc",
				"energy": -0.06533,
				"method": "rhf"
			},
			{
				"type": "unocc",
				"energy": -0.06493,
				"method": "rhf"
			},
			{
				"type": "unocc",
				"energy": -0.0595,
				"method": "rhf"
			},
			{
				"type": "unocc",
				"energy": -0.05526,
				"method": "rhf"
			},
			{
				"type": "unocc",
				"energy": -0.052,
				"method": "rhf"
			}
		],
		"cosmo_sigma_profile": { 
			"-0.025": 0.0,
			"-0.024": 0.0,
			"-0.023": 0.0,
			"-0.022": 0.0,
			"-0.021": 0.0,
			"-0.02": 0.0,
			"-0.019": 0.0,
			"-0.018": 0.0,
			"-0.017": 0.0,
			"-0.016": 0.0,
			"-0.015": 0.0,
			"-0.014": 0.0,
			"-0.013": 0.0,
			"-0.012": 0.0,
			"-0.011": 0.0,
			"-0.01": 0.212396536944,
			"-0.009": 0.985977757848,
			"-0.008": 1.22730308031,
			"-0.007": 4.74410486347,
			"-0.006": 9.0280184955,
			"-0.005": 13.6407802765,
			"-0.004": 22.9146324705,
			"-0.003": 28.7128029113,
			"-0.002": 48.2650287356,
			"-0.001": 33.7142156922,
			"0.0": 29.5662495803,
			"0.001": 35.3747744748,
			"0.002": 47.0058181879,
			"0.003": 71.5088297444,
			"0.004": 24.8311247652,
			"0.005": 5.43519833683,
			"0.006": 4.09994192027,
			"0.007": 0.21432346029,
			"0.008": 0.0,
			"0.009": 0.0,
			"0.01": 0.0,
			"0.011": 0.0,
			"0.012": 0.0,
			"0.013": 0.0,
			"0.014": 0.0,
			"0.015": 0.0,
			"0.016": 0.0,
			"0.017": 0.0,
			"0.018": 0.0,
			"0.019": 0.0,
			"0.02": 0.0,
			"0.021": 0.0,
			"0.022": 0.0,
			"0.023": 0.0,
			"0.024": 0.0,
			"0.025": 0.0
		}
	}
}
