{
	 "smiles": "OC(=O)CCC1=CC2=C(NC1=O)C=CC=C2", 
	 "Tm": 501.15, 
	 "num_atms": 27, 
	 "gaussian": { 
		 "optdone": 1, 
		 "sigma_profile": "yes", 
		 "theory": "DFT", 
		 "functional": "B3LYP", 
		 "basiset": "6-31G**", 
		 "properties": { 
			 "R2extent": 4431.4988, 
			 "electric_dipole_moment_norm": 4.0700164754, 
			 "electric_quadrupole_moment_norm": 18.99425816, 
			 "total_energy": -744.379628859, 
			 "HOMO_LUMO_gap": 0.16641, 
			 "cosmo_polarized_energy": -18.07, 
			 "cosmo_cavitation_energy": 31.49, 
			 "cosmo_dispersion_energy": -22.41, 
			 "cosmo_repulsion_energy": 1.75, 
			 "cosmo_total_nonelectrostatic_energy": 10.83, 
			 "SMD_solvation_energy": 6.59 
		},
		"coords": [
			{
				"x": -1.3926481885,
				"y": -0.7859608659,
				"z": 4.1759732041,
				"element": "O" 
			},
			{
				"x": -2.1298796298,
				"y": -1.6152521285,
				"z": 3.3868883046,
				"element": "C" 
			},
			{
				"x": -2.0590540988,
				"y": -2.8196562418,
				"z": 3.4843359666,
				"element": "O" 
			},
			{
				"x": -3.034449832,
				"y": -0.8552878746,
				"z": 2.4416535021,
				"element": "C" 
			},
			{
				"x": -2.3689538355,
				"y": 0.351788748,
				"z": 1.745116563,
				"element": "C" 
			},
			{
				"x": -1.2352228322,
				"y": -0.0418844002,
				"z": 0.8342731552,
				"element": "C" 
			},
			{
				"x": 0.0762798274,
				"y": 0.1550034104,
				"z": 1.1340395151,
				"element": "C" 
			},
			{
				"x": 1.14390004,
				"y": -0.2372144992,
				"z": 0.2505122618,
				"element": "C" 
			},
			{
				"x": 0.799153593,
				"y": -0.8545899525,
				"z": -0.9764545479,
				"element": "C" 
			},
			{
				"x": -0.5410353257,
				"y": -1.0415600178,
				"z": -1.254364814,
				"element": "N" 
			},
			{
				"x": -1.6103753717,
				"y": -0.6839480728,
				"z": -0.4369644027,
				"element": "C" 
			},
			{
				"x": -2.7673391162,
				"y": -0.9044799717,
				"z": -0.7918452737,
				"element": "O" 
			},
			{
				"x": 1.8009954666,
				"y": -1.2582857497,
				"z": -1.874094821,
				"element": "C" 
			},
			{
				"x": 3.1351055978,
				"y": -1.0485853548,
				"z": -1.5530482433,
				"element": "C" 
			},
			{
				"x": 3.4943854774,
				"y": -0.4370336172,
				"z": -0.3405890575,
				"element": "C" 
			},
			{
				"x": 2.5061449071,
				"y": -0.0382898339,
				"z": 0.5466816645,
				"element": "C" 
			},
			{
				"x": -0.8717323398,
				"y": -1.3698826986,
				"z": 4.7525590255,
				"element": "H" 
			},
			{
				"x": -3.88933633,
				"y": -0.4985803366,
				"z": 3.0309387426,
				"element": "H" 
			},
			{
				"x": -3.4133818037,
				"y": -1.56240394,
				"z": 1.7026797711,
				"element": "H" 
			},
			{
				"x": -3.1399386829,
				"y": 0.8497409709,
				"z": 1.148389194,
				"element": "H" 
			},
			{
				"x": -2.0103511818,
				"y": 1.0583101353,
				"z": 2.4980720499,
				"element": "H" 
			},
			{
				"x": 0.3427897315,
				"y": 0.6233802032,
				"z": 2.0791504775,
				"element": "H" 
			},
			{
				"x": -0.8140054849,
				"y": -1.4853455024,
				"z": -2.1229271138,
				"element": "H" 
			},
			{
				"x": 1.5241883115,
				"y": -1.731728348,
				"z": -2.8122456761,
				"element": "H" 
			},
			{
				"x": 3.9064492668,
				"y": -1.3624320428,
				"z": -2.2499899549,
				"element": "H" 
			},
			{
				"x": 4.5408601856,
				"y": -0.2784894431,
				"z": -0.100884608,
				"element": "H" 
			},
			{
				"x": 2.7707516487,
				"y": 0.4355674243,
				"z": 1.4882451154,
				"element": "H" 
			}
		],
		 "valence_orbital": [ 
			{
				"type": "occ",
				"energy": -0.30815,
				"method": "rhf"
			},
			{
				"type": "occ",
				"energy": -0.26899,
				"method": "rhf"
			},
			{
				"type": "occ",
				"energy": -0.25506,
				"method": "rhf"
			},
			{
				"type": "occ",
				"energy": -0.24543,
				"method": "rhf"
			},
			{
				"type": "occ",
				"energy": -0.22117,
				"method": "rhf"
			},
			{
				"type": "unocc",
				"energy": -0.05476,
				"method": "rhf"
			},
			{
				"type": "unocc",
				"energy": -0.00935,
				"method": "rhf"
			},
			{
				"type": "unocc",
				"energy": 0.00986,
				"method": "rhf"
			},
			{
				"type": "unocc",
				"energy": 0.01201,
				"method": "rhf"
			},
			{
				"type": "unocc",
				"energy": 0.0755,
				"method": "rhf"
			}
		],
		"cosmo_sigma_profile": { 
			"-0.025": 0.0,
			"-0.024": 0.0,
			"-0.023": 0.0,
			"-0.022": 0.0,
			"-0.021": 0.0,
			"-0.02": 0.0,
			"-0.019": 0.0,
			"-0.018": 0.346709717234,
			"-0.017": 1.02236594822,
			"-0.016": 1.24385455661,
			"-0.015": 1.64867171119,
			"-0.014": 1.75420055672,
			"-0.013": 1.43991306523,
			"-0.012": 1.8216135229,
			"-0.011": 2.09839487181,
			"-0.01": 2.355596178,
			"-0.009": 1.75767436434,
			"-0.008": 2.16455081362,
			"-0.007": 6.90097820183,
			"-0.006": 13.5422629497,
			"-0.005": 14.2554548006,
			"-0.004": 19.201625088,
			"-0.003": 15.0188680103,
			"-0.002": 17.8452865515,
			"-0.001": 18.7777938651,
			"0.0": 19.2285532754,
			"0.001": 16.9341313762,
			"0.002": 16.2154463419,
			"0.003": 14.637698205,
			"0.004": 12.5441681291,
			"0.005": 9.16957408861,
			"0.006": 3.8288299911,
			"0.007": 3.48332951241,
			"0.008": 3.34403292351,
			"0.009": 3.3946654296,
			"0.01": 3.14468807182,
			"0.011": 5.31006278417,
			"0.012": 6.52477599963,
			"0.013": 3.97862913298,
			"0.014": 4.74155139782,
			"0.015": 0.549080468896,
			"0.016": 0.0,
			"0.017": 0.0,
			"0.018": 0.0,
			"0.019": 0.0,
			"0.02": 0.0,
			"0.021": 0.0,
			"0.022": 0.0,
			"0.023": 0.0,
			"0.024": 0.0,
			"0.025": 0.0
		}
	}
}
