{
	 "smiles": "CC1CCC(C)(C(=O)COC(=O)C2=CC=CC=C2)C1(C)C", 
	 "Tm": 355.15, 
	 "num_atms": 45, 
	 "gaussian": { 
		 "optdone": 1, 
		 "sigma_profile": "yes", 
		 "theory": "DFT", 
		 "functional": "B3LYP", 
		 "basiset": "6-31G**", 
		 "properties": { 
			 "R2extent": 8225.521, 
			 "electric_dipole_moment_norm": 2.44861357711, 
			 "electric_quadrupole_moment_norm": 13.0353741312, 
			 "total_energy": -926.066174391, 
			 "HOMO_LUMO_gap": 0.19264, 
			 "cosmo_polarized_energy": -9.24, 
			 "cosmo_cavitation_energy": 43.74, 
			 "cosmo_dispersion_energy": -29.92, 
			 "cosmo_repulsion_energy": 2.25, 
			 "cosmo_total_nonelectrostatic_energy": 16.08, 
			 "SMD_solvation_energy": 8.28 
		},
		"coords": [
			{
				"x": 3.1519696531,
				"y": 2.6887400516,
				"z": -2.3277369059,
				"element": "C" 
			},
			{
				"x": 3.122175735,
				"y": 2.1850243337,
				"z": -0.8802158978,
				"element": "C" 
			},
			{
				"x": 2.7332014052,
				"y": 3.3062878207,
				"z": 0.1183008821,
				"element": "C" 
			},
			{
				"x": 1.9152465237,
				"y": 2.6228262735,
				"z": 1.2184759215,
				"element": "C" 
			},
			{
				"x": 1.1130557357,
				"y": 1.4952187781,
				"z": 0.4914072194,
				"element": "C" 
			},
			{
				"x": 0.6198566329,
				"y": 0.4362023189,
				"z": 1.4929273501,
				"element": "C" 
			},
			{
				"x": -0.0551324876,
				"y": 2.2346373785,
				"z": -0.1886451533,
				"element": "C" 
			},
			{
				"x": 0.0905385314,
				"y": 2.8945856223,
				"z": -1.2038486743,
				"element": "O" 
			},
			{
				"x": -1.4421420094,
				"y": 2.2792432768,
				"z": 0.4742668271,
				"element": "C" 
			},
			{
				"x": -2.0770289378,
				"y": 0.9951706496,
				"z": 0.3316810095,
				"element": "O" 
			},
			{
				"x": -2.7932604973,
				"y": 0.537586158,
				"z": 1.3937631878,
				"element": "C" 
			},
			{
				"x": -2.8826889076,
				"y": 1.1373462767,
				"z": 2.4469807769,
				"element": "O" 
			},
			{
				"x": -3.4370801234,
				"y": -0.7742882934,
				"z": 1.1124494812,
				"element": "C" 
			},
			{
				"x": -4.1813401445,
				"y": -1.3687471378,
				"z": 2.1414524495,
				"element": "C" 
			},
			{
				"x": -4.8046932074,
				"y": -2.5958671695,
				"z": 1.9314860441,
				"element": "C" 
			},
			{
				"x": -4.6894951986,
				"y": -3.2346454335,
				"z": 0.6936045524,
				"element": "C" 
			},
			{
				"x": -3.9503902445,
				"y": -2.6440584853,
				"z": -0.3344480956,
				"element": "C" 
			},
			{
				"x": -3.3240817714,
				"y": -1.4158295616,
				"z": -0.1295697888,
				"element": "C" 
			},
			{
				"x": 2.1729321544,
				"y": 0.9504122638,
				"z": -0.5654412037,
				"element": "C" 
			},
			{
				"x": 3.0539842668,
				"y": -0.1479714373,
				"z": 0.0768744385,
				"element": "C" 
			},
			{
				"x": 1.5054303266,
				"y": 0.3120383083,
				"z": -1.7986741817,
				"element": "C" 
			},
			{
				"x": 3.861264805,
				"y": 3.5199912154,
				"z": -2.4155343937,
				"element": "H" 
			},
			{
				"x": 3.4759590897,
				"y": 1.911070871,
				"z": -3.0274384093,
				"element": "H" 
			},
			{
				"x": 2.1692791148,
				"y": 3.0500375544,
				"z": -2.6392455036,
				"element": "H" 
			},
			{
				"x": 4.1422504095,
				"y": 1.8600516693,
				"z": -0.6389726661,
				"element": "H" 
			},
			{
				"x": 3.609797795,
				"y": 3.8245803512,
				"z": 0.5216817169,
				"element": "H" 
			},
			{
				"x": 2.1210764446,
				"y": 4.0563318992,
				"z": -0.3911699162,
				"element": "H" 
			},
			{
				"x": 1.2725725806,
				"y": 3.3151052181,
				"z": 1.7758344199,
				"element": "H" 
			},
			{
				"x": 2.5701154569,
				"y": 2.1440772159,
				"z": 1.9564329321,
				"element": "H" 
			},
			{
				"x": 1.4561752561,
				"y": 0.0473839337,
				"z": 2.0768198599,
				"element": "H" 
			},
			{
				"x": 0.1344175478,
				"y": -0.4082634227,
				"z": 0.9953748573,
				"element": "H" 
			},
			{
				"x": -0.0925431829,
				"y": 0.8550940763,
				"z": 2.2085315924,
				"element": "H" 
			},
			{
				"x": -1.3975065652,
				"y": 2.5491301331,
				"z": 1.5326628677,
				"element": "H" 
			},
			{
				"x": -2.0355649977,
				"y": 3.0175296569,
				"z": -0.0700674462,
				"element": "H" 
			},
			{
				"x": -4.2567924118,
				"y": -0.852821664,
				"z": 3.0925819149,
				"element": "H" 
			},
			{
				"x": -5.3800784436,
				"y": -3.0548493328,
				"z": 2.7298986211,
				"element": "H" 
			},
			{
				"x": -5.1764431795,
				"y": -4.1918316361,
				"z": 0.5298916883,
				"element": "H" 
			},
			{
				"x": -3.8633099491,
				"y": -3.1402886566,
				"z": -1.2964346437,
				"element": "H" 
			},
			{
				"x": -2.7518810429,
				"y": -0.9493684504,
				"z": -0.9230153417,
				"element": "H" 
			},
			{
				"x": 3.8491099134,
				"y": -0.4214321115,
				"z": -0.6250471251,
				"element": "H" 
			},
			{
				"x": 3.5396601378,
				"y": 0.1884628284,
				"z": 0.9991711612,
				"element": "H" 
			},
			{
				"x": 2.4900542924,
				"y": -1.0584879673,
				"z": 0.3012209667,
				"element": "H" 
			},
			{
				"x": 2.2592768295,
				"y": -0.1480870642,
				"z": -2.4462139185,
				"element": "H" 
			},
			{
				"x": 0.820880682,
				"y": -0.4865955324,
				"z": -1.4873896772,
				"element": "H" 
			},
			{
				"x": 0.9406719822,
				"y": 1.028167223,
				"z": -2.3940637961,
				"element": "H" 
			}
		],
		 "valence_orbital": [ 
			{
				"type": "occ",
				"energy": -0.29334,
				"method": "rhf"
			},
			{
				"type": "occ",
				"energy": -0.28407,
				"method": "rhf"
			},
			{
				"type": "occ",
				"energy": -0.26537,
				"method": "rhf"
			},
			{
				"type": "occ",
				"energy": -0.26335,
				"method": "rhf"
			},
			{
				"type": "occ",
				"energy": -0.24559,
				"method": "rhf"
			},
			{
				"type": "unocc",
				"energy": -0.05295,
				"method": "rhf"
			},
			{
				"type": "unocc",
				"energy": -0.03253,
				"method": "rhf"
			},
			{
				"type": "unocc",
				"energy": -0.01285,
				"method": "rhf"
			},
			{
				"type": "unocc",
				"energy": 0.052,
				"method": "rhf"
			},
			{
				"type": "unocc",
				"energy": 0.07563,
				"method": "rhf"
			}
		],
		"cosmo_sigma_profile": { 
			"-0.025": 0.0,
			"-0.024": 0.0,
			"-0.023": 0.0,
			"-0.022": 0.0,
			"-0.021": 0.0,
			"-0.02": 0.0,
			"-0.019": 0.0,
			"-0.018": 0.0,
			"-0.017": 0.0,
			"-0.016": 0.0,
			"-0.015": 0.0,
			"-0.014": 0.0,
			"-0.013": 0.0,
			"-0.012": 0.0,
			"-0.011": 0.0,
			"-0.01": 0.0,
			"-0.009": 0.0,
			"-0.008": 0.171528529951,
			"-0.007": 4.60091590663,
			"-0.006": 13.5473748639,
			"-0.005": 16.5720262289,
			"-0.004": 17.3354998878,
			"-0.003": 23.4514791504,
			"-0.002": 38.8990141268,
			"-0.001": 43.5409248441,
			"0.0": 46.1417601383,
			"0.001": 43.9626617769,
			"0.002": 33.2390743844,
			"0.003": 18.5077416542,
			"0.004": 14.2346162394,
			"0.005": 4.28465222357,
			"0.006": 2.94168986161,
			"0.007": 3.38813323606,
			"0.008": 2.30142378873,
			"0.009": 2.99407357903,
			"0.01": 3.35884494161,
			"0.011": 5.44403856096,
			"0.012": 2.75340233656,
			"0.013": 0.231475985106,
			"0.014": 0.0,
			"0.015": 0.0,
			"0.016": 0.0,
			"0.017": 0.0,
			"0.018": 0.0,
			"0.019": 0.0,
			"0.02": 0.0,
			"0.021": 0.0,
			"0.022": 0.0,
			"0.023": 0.0,
			"0.024": 0.0,
			"0.025": 0.0
		}
	}
}
