{
	 "smiles": "S(SC1=NC=CC=N1)C1=NC=CC=N1", 
	 "Tm": 413.15, 
	 "num_atms": 20, 
	 "gaussian": { 
		 "optdone": 1, 
		 "sigma_profile": "yes", 
		 "theory": "DFT", 
		 "functional": "B3LYP", 
		 "basiset": "6-31G**", 
		 "properties": { 
			 "R2extent": 4908.9465, 
			 "electric_dipole_moment_norm": 4.74676254515, 
			 "electric_quadrupole_moment_norm": 18.6512082694, 
			 "total_energy": -1323.82481554, 
			 "HOMO_LUMO_gap": 0.18577, 
			 "cosmo_polarized_energy": -14.43, 
			 "cosmo_cavitation_energy": 28.95, 
			 "cosmo_dispersion_energy": -21.91, 
			 "cosmo_repulsion_energy": 1.65, 
			 "cosmo_total_nonelectrostatic_energy": 8.69, 
			 "SMD_solvation_energy": -0.47 
		},
		"coords": [
			{
				"x": -2.4937156736,
				"y": -1.9712274169,
				"z": 0.1316265537,
				"element": "S" 
			},
			{
				"x": -2.2864628807,
				"y": -1.8587369601,
				"z": 2.184609742,
				"element": "S" 
			},
			{
				"x": -1.5766464882,
				"y": -0.2377514575,
				"z": 2.4895686686,
				"element": "C" 
			},
			{
				"x": -1.1769322409,
				"y": 0.5326788314,
				"z": 1.4815782992,
				"element": "N" 
			},
			{
				"x": -0.657454998,
				"y": 1.7160959729,
				"z": 1.8302755512,
				"element": "C" 
			},
			{
				"x": -0.5308155076,
				"y": 2.1175586026,
				"z": 3.1580307868,
				"element": "C" 
			},
			{
				"x": -0.978445811,
				"y": 1.2127770313,
				"z": 4.1211598096,
				"element": "C" 
			},
			{
				"x": -1.5069553087,
				"y": 0.0293076182,
				"z": 3.7987555236,
				"element": "N" 
			},
			{
				"x": -0.8599020958,
				"y": -2.4038641192,
				"z": -0.4749171168,
				"element": "C" 
			},
			{
				"x": -0.8720466421,
				"y": -2.6419204796,
				"z": -1.7914779217,
				"element": "N" 
			},
			{
				"x": 0.3065591071,
				"y": -2.9595984017,
				"z": -2.3335435252,
				"element": "C" 
			},
			{
				"x": 1.4768997289,
				"y": -3.0435940666,
				"z": -1.5786455155,
				"element": "C" 
			},
			{
				"x": 1.3533241413,
				"y": -2.7687266784,
				"z": -0.2187496533,
				"element": "C" 
			},
			{
				"x": 0.1852260761,
				"y": -2.4411739954,
				"z": 0.3470918475,
				"element": "N" 
			},
			{
				"x": -0.3309863872,
				"y": 2.356796242,
				"z": 1.0129253082,
				"element": "H" 
			},
			{
				"x": -0.1063540674,
				"y": 3.0776527264,
				"z": 3.4280358119,
				"element": "H" 
			},
			{
				"x": -0.9155801049,
				"y": 1.439727796,
				"z": 5.1839245194,
				"element": "H" 
			},
			{
				"x": 0.308364881,
				"y": -3.1539583147,
				"z": -3.4045933454,
				"element": "H" 
			},
			{
				"x": 2.4288849547,
				"y": -3.3056434465,
				"z": -2.0257528749,
				"element": "H" 
			},
			{
				"x": 2.2148393171,
				"y": -2.8066994843,
				"z": 0.4456975313,
				"element": "H" 
			}
		],
		 "valence_orbital": [ 
			{
				"type": "occ",
				"energy": -0.30855,
				"method": "rhf"
			},
			{
				"type": "occ",
				"energy": -0.26184,
				"method": "rhf"
			},
			{
				"type": "occ",
				"energy": -0.26085,
				"method": "rhf"
			},
			{
				"type": "occ",
				"energy": -0.24526,
				"method": "rhf"
			},
			{
				"type": "occ",
				"energy": -0.23521,
				"method": "rhf"
			},
			{
				"type": "unocc",
				"energy": -0.04944,
				"method": "rhf"
			},
			{
				"type": "unocc",
				"energy": -0.04604,
				"method": "rhf"
			},
			{
				"type": "unocc",
				"energy": -0.03279,
				"method": "rhf"
			},
			{
				"type": "unocc",
				"energy": -0.03066,
				"method": "rhf"
			},
			{
				"type": "unocc",
				"energy": -0.01999,
				"method": "rhf"
			}
		],
		"cosmo_sigma_profile": { 
			"-0.025": 0.0,
			"-0.024": 0.0,
			"-0.023": 0.0,
			"-0.022": 0.0,
			"-0.021": 0.0,
			"-0.02": 0.0,
			"-0.019": 0.0,
			"-0.018": 0.0,
			"-0.017": 0.0,
			"-0.016": 0.0,
			"-0.015": 0.0,
			"-0.014": 0.0,
			"-0.013": 0.0,
			"-0.012": 0.0,
			"-0.011": 0.0,
			"-0.01": 0.0,
			"-0.009": 2.23218531681,
			"-0.008": 15.2045389566,
			"-0.007": 14.9571047569,
			"-0.006": 12.686215079,
			"-0.005": 9.35832582442,
			"-0.004": 7.85733407863,
			"-0.003": 11.9618781624,
			"-0.002": 14.671377482,
			"-0.001": 25.9873657099,
			"0.0": 24.3588569753,
			"0.001": 12.1250225522,
			"0.002": 15.0854864043,
			"0.003": 14.8257434696,
			"0.004": 11.2317286898,
			"0.005": 10.677694979,
			"0.006": 6.96242699182,
			"0.007": 5.16453722664,
			"0.008": 6.75074416695,
			"0.009": 3.70325738101,
			"0.01": 4.14085094069,
			"0.011": 3.87333436846,
			"0.012": 3.21011469762,
			"0.013": 1.56102209322,
			"0.014": 0.135802249751,
			"0.015": 0.0,
			"0.016": 0.0,
			"0.017": 0.0,
			"0.018": 0.0,
			"0.019": 0.0,
			"0.02": 0.0,
			"0.021": 0.0,
			"0.022": 0.0,
			"0.023": 0.0,
			"0.024": 0.0,
			"0.025": 0.0
		}
	}
}
