{
	 "smiles": "CS(=O)(=O)N1CCNC(=O)C1", 
	 "Tm": 438.15, 
	 "num_atms": 21, 
	 "gaussian": { 
		 "optdone": 1, 
		 "sigma_profile": "yes", 
		 "theory": "DFT", 
		 "functional": "B3LYP", 
		 "basiset": "6-31G**", 
		 "properties": { 
			 "R2extent": 2537.6418, 
			 "electric_dipole_moment_norm": 5.06534707399, 
			 "electric_quadrupole_moment_norm": 18.3744542953, 
			 "total_energy": -929.860141836, 
			 "HOMO_LUMO_gap": 0.26188, 
			 "cosmo_polarized_energy": -20.23, 
			 "cosmo_cavitation_energy": 24.82, 
			 "cosmo_dispersion_energy": -18.84, 
			 "cosmo_repulsion_energy": 1.47, 
			 "cosmo_total_nonelectrostatic_energy": 7.46, 
			 "SMD_solvation_energy": 3.26 
		},
		"coords": [
			{
				"x": -1.7365574413,
				"y": 1.7682159838,
				"z": 1.0947215805,
				"element": "C" 
			},
			{
				"x": -1.7973157505,
				"y": 0.0873094768,
				"z": 0.4489845124,
				"element": "S" 
			},
			{
				"x": -2.7482545183,
				"y": -0.6656888301,
				"z": 1.2713336525,
				"element": "O" 
			},
			{
				"x": -1.9540370385,
				"y": 0.1833555025,
				"z": -1.0073141213,
				"element": "O" 
			},
			{
				"x": -0.2339615321,
				"y": -0.4867352552,
				"z": 0.7708806848,
				"element": "N" 
			},
			{
				"x": 0.6807181719,
				"y": -0.6435065857,
				"z": -0.3680442036,
				"element": "C" 
			},
			{
				"x": 0.514971461,
				"y": -2.0137269307,
				"z": -1.0206239902,
				"element": "C" 
			},
			{
				"x": 0.5866114112,
				"y": -3.0547995562,
				"z": 0.0010626129,
				"element": "N" 
			},
			{
				"x": 0.2869304015,
				"y": -2.9135321068,
				"z": 1.3254744227,
				"element": "C" 
			},
			{
				"x": 0.3286549643,
				"y": -3.843519942,
				"z": 2.1182979086,
				"element": "O" 
			},
			{
				"x": -0.0556092323,
				"y": -1.5036768717,
				"z": 1.8182475665,
				"element": "C" 
			},
			{
				"x": -0.9614885909,
				"y": 2.322052542,
				"z": 0.5640578889,
				"element": "H" 
			},
			{
				"x": -1.5239044238,
				"y": 1.7247174751,
				"z": 2.1633168447,
				"element": "H" 
			},
			{
				"x": -2.7158949264,
				"y": 2.2167005001,
				"z": 0.9173998258,
				"element": "H" 
			},
			{
				"x": 1.7005583224,
				"y": -0.5255650875,
				"z": 0.018126917,
				"element": "H" 
			},
			{
				"x": 0.496077976,
				"y": 0.1426104071,
				"z": -1.1001327399,
				"element": "H" 
			},
			{
				"x": 1.3172289675,
				"y": -2.1756184278,
				"z": -1.7501496715,
				"element": "H" 
			},
			{
				"x": -0.4418443745,
				"y": -2.0435215334,
				"z": -1.5569465955,
				"element": "H" 
			},
			{
				"x": 0.7509491586,
				"y": -4.0120972163,
				"z": -0.2827704167,
				"element": "H" 
			},
			{
				"x": 0.7521980081,
				"y": -1.1940803902,
				"z": 2.4939125086,
				"element": "H" 
			},
			{
				"x": -0.9681310138,
				"y": -1.587793154,
				"z": 2.4084648129,
				"element": "H" 
			}
		],
		 "valence_orbital": [ 
			{
				"type": "occ",
				"energy": -0.31475,
				"method": "rhf"
			},
			{
				"type": "occ",
				"energy": -0.30763,
				"method": "rhf"
			},
			{
				"type": "occ",
				"energy": -0.28165,
				"method": "rhf"
			},
			{
				"type": "occ",
				"energy": -0.25516,
				"method": "rhf"
			},
			{
				"type": "occ",
				"energy": -0.23973,
				"method": "rhf"
			},
			{
				"type": "unocc",
				"energy": 0.02215,
				"method": "rhf"
			},
			{
				"type": "unocc",
				"energy": 0.05292,
				"method": "rhf"
			},
			{
				"type": "unocc",
				"energy": 0.06294,
				"method": "rhf"
			},
			{
				"type": "unocc",
				"energy": 0.07914,
				"method": "rhf"
			},
			{
				"type": "unocc",
				"energy": 0.08458,
				"method": "rhf"
			}
		],
		"cosmo_sigma_profile": { 
			"-0.025": 0.0,
			"-0.024": 0.0,
			"-0.023": 0.0,
			"-0.022": 0.0,
			"-0.021": 0.0,
			"-0.02": 0.0,
			"-0.019": 0.0,
			"-0.018": 0.0,
			"-0.017": 0.0,
			"-0.016": 0.0,
			"-0.015": 0.0210476081865,
			"-0.014": 0.822794669049,
			"-0.013": 1.45532291911,
			"-0.012": 0.85271517984,
			"-0.011": 1.07081745536,
			"-0.01": 1.14161664672,
			"-0.009": 2.92399764489,
			"-0.008": 7.7669078481,
			"-0.007": 11.5381489329,
			"-0.006": 19.5600972389,
			"-0.005": 17.0070831783,
			"-0.004": 19.932931315,
			"-0.003": 16.252606125,
			"-0.002": 8.19565254465,
			"-0.001": 6.3672930408,
			"0.0": 6.08556619174,
			"0.001": 6.72991998608,
			"0.002": 5.21679419196,
			"0.003": 4.69133543918,
			"0.004": 4.50932000223,
			"0.005": 3.7025795454,
			"0.006": 3.30583059,
			"0.007": 3.4456494518,
			"0.008": 4.37357007681,
			"0.009": 5.26605831169,
			"0.01": 6.503181506,
			"0.011": 10.4359256381,
			"0.012": 5.06976617088,
			"0.013": 3.86751809779,
			"0.014": 5.77904177512,
			"0.015": 1.31757774544,
			"0.016": 0.0,
			"0.017": 0.0,
			"0.018": 0.0,
			"0.019": 0.0,
			"0.02": 0.0,
			"0.021": 0.0,
			"0.022": 0.0,
			"0.023": 0.0,
			"0.024": 0.0,
			"0.025": 0.0
		}
	}
}
