{
	 "smiles": "CC1=NN=NN1C(=CC1=CC=CC=C1)C(O)=O", 
	 "Tm": 475.15, 
	 "num_atms": 27, 
	 "gaussian": { 
		 "optdone": 1, 
		 "sigma_profile": "yes", 
		 "theory": "DFT", 
		 "functional": "B3LYP", 
		 "basiset": "6-31G**", 
		 "properties": { 
			 "R2extent": 4221.8063, 
			 "electric_dipole_moment_norm": 5.09533717138, 
			 "electric_quadrupole_moment_norm": 20.8671252737, 
			 "total_energy": -794.599772343, 
			 "HOMO_LUMO_gap": 0.16346, 
			 "cosmo_polarized_energy": -19.04, 
			 "cosmo_cavitation_energy": 32.73, 
			 "cosmo_dispersion_energy": -22.41, 
			 "cosmo_repulsion_energy": 1.74, 
			 "cosmo_total_nonelectrostatic_energy": 12.06, 
			 "SMD_solvation_energy": 5.53 
		},
		"coords": [
			{
				"x": 2.4287468964,
				"y": -0.7496935522,
				"z": 2.4436296453,
				"element": "C" 
			},
			{
				"x": 2.4909629959,
				"y": -1.0460750328,
				"z": 0.9863408,
				"element": "C" 
			},
			{
				"x": 3.0925603172,
				"y": -2.0742381113,
				"z": 0.417761746,
				"element": "N" 
			},
			{
				"x": 2.912067379,
				"y": -1.9292789829,
				"z": -0.9228267924,
				"element": "N" 
			},
			{
				"x": 2.2347825306,
				"y": -0.8675368695,
				"z": -1.1972300921,
				"element": "N" 
			},
			{
				"x": 1.9379635797,
				"y": -0.2862334211,
				"z": 0.0056762928,
				"element": "N" 
			},
			{
				"x": 1.2208633766,
				"y": 0.9401879281,
				"z": 0.0985349569,
				"element": "C" 
			},
			{
				"x": -0.1258478382,
				"y": 1.042954318,
				"z": 0.0209003559,
				"element": "C" 
			},
			{
				"x": -1.1773544215,
				"y": 0.0460834751,
				"z": -0.1423644976,
				"element": "C" 
			},
			{
				"x": -0.9743496591,
				"y": -1.2827588731,
				"z": -0.5720389068,
				"element": "C" 
			},
			{
				"x": -2.0506852032,
				"y": -2.1594241203,
				"z": -0.6703137294,
				"element": "C" 
			},
			{
				"x": -3.3435914358,
				"y": -1.7384994487,
				"z": -0.3462333953,
				"element": "C" 
			},
			{
				"x": -3.5632873341,
				"y": -0.4223695481,
				"z": 0.0659630407,
				"element": "C" 
			},
			{
				"x": -2.4925214607,
				"y": 0.4608967941,
				"z": 0.1576541811,
				"element": "C" 
			},
			{
				"x": 2.0143523843,
				"y": 2.1830883141,
				"z": 0.3073082734,
				"element": "C" 
			},
			{
				"x": 3.3377549576,
				"y": 1.9331107555,
				"z": 0.4384285753,
				"element": "O" 
			},
			{
				"x": 1.5439737102,
				"y": 3.3010339209,
				"z": 0.3721815231,
				"element": "O" 
			},
			{
				"x": 1.3958139582,
				"y": -0.6211615083,
				"z": 2.7813378982,
				"element": "H" 
			},
			{
				"x": 2.9778774498,
				"y": 0.1691864463,
				"z": 2.6726818052,
				"element": "H" 
			},
			{
				"x": 2.8823248544,
				"y": -1.5775825257,
				"z": 2.989472237,
				"element": "H" 
			},
			{
				"x": -0.4736625704,
				"y": 2.0675124432,
				"z": 0.1364462347,
				"element": "H" 
			},
			{
				"x": 0.0108755288,
				"y": -1.61782431,
				"z": -0.8670903696,
				"element": "H" 
			},
			{
				"x": -1.87964737,
				"y": -3.1761203674,
				"z": -1.0107259129,
				"element": "H" 
			},
			{
				"x": -4.1769216419,
				"y": -2.4304081541,
				"z": -0.4260814307,
				"element": "H" 
			},
			{
				"x": -4.5662360467,
				"y": -0.0845004604,
				"z": 0.3083901565,
				"element": "H" 
			},
			{
				"x": -2.6639869497,
				"y": 1.4863282114,
				"z": 0.473859315,
				"element": "H" 
			},
			{
				"x": 3.7640720126,
				"y": 2.7978226791,
				"z": 0.5583380896,
				"element": "H" 
			}
		],
		 "valence_orbital": [ 
			{
				"type": "occ",
				"energy": -0.29081,
				"method": "rhf"
			},
			{
				"type": "occ",
				"energy": -0.28741,
				"method": "rhf"
			},
			{
				"type": "occ",
				"energy": -0.28273,
				"method": "rhf"
			},
			{
				"type": "occ",
				"energy": -0.27198,
				"method": "rhf"
			},
			{
				"type": "occ",
				"energy": -0.25279,
				"method": "rhf"
			},
			{
				"type": "unocc",
				"energy": -0.08933,
				"method": "rhf"
			},
			{
				"type": "unocc",
				"energy": -0.02299,
				"method": "rhf"
			},
			{
				"type": "unocc",
				"energy": -0.0154,
				"method": "rhf"
			},
			{
				"type": "unocc",
				"energy": 0.00182,
				"method": "rhf"
			},
			{
				"type": "unocc",
				"energy": 0.02859,
				"method": "rhf"
			}
		],
		"cosmo_sigma_profile": { 
			"-0.025": 0.0,
			"-0.024": 0.0,
			"-0.023": 0.0,
			"-0.022": 0.0,
			"-0.021": 0.0,
			"-0.02": 0.0,
			"-0.019": 0.446180163465,
			"-0.018": 1.23682476279,
			"-0.017": 0.495236642279,
			"-0.016": 1.30032251522,
			"-0.015": 0.716143773302,
			"-0.014": 0.323386718949,
			"-0.013": 0.172114421443,
			"-0.012": 1.39578476788,
			"-0.011": 1.01637990289,
			"-0.01": 0.380371361853,
			"-0.009": 1.53245674285,
			"-0.008": 2.75730644798,
			"-0.007": 9.04473769835,
			"-0.006": 18.4632264545,
			"-0.005": 22.0367930792,
			"-0.004": 20.9808813641,
			"-0.003": 19.7000489273,
			"-0.002": 18.9146359417,
			"-0.001": 15.4013714151,
			"0.0": 14.388602693,
			"0.001": 15.8028839127,
			"0.002": 14.6946494786,
			"0.003": 17.616248764,
			"0.004": 12.0772419515,
			"0.005": 4.93959114391,
			"0.006": 4.98153872729,
			"0.007": 4.77992333715,
			"0.008": 6.5543611603,
			"0.009": 5.81714520436,
			"0.01": 6.81370934526,
			"0.011": 9.56051810828,
			"0.012": 4.15782825424,
			"0.013": 1.88288684444,
			"0.014": 1.92559578492,
			"0.015": 0.646800218635,
			"0.016": 0.00685912516472,
			"0.017": 0.0,
			"0.018": 0.0,
			"0.019": 0.0,
			"0.02": 0.0,
			"0.021": 0.0,
			"0.022": 0.0,
			"0.023": 0.0,
			"0.024": 0.0,
			"0.025": 0.0
		}
	}
}
