{
	 "smiles": "OC(=O)C=CC1=C(OCC2=C(Cl)C=CC=C2)C=CC(Cl)=C1", 
	 "Tm": 469.15, 
	 "num_atms": 33, 
	 "gaussian": { 
		 "optdone": 1, 
		 "sigma_profile": "yes", 
		 "theory": "DFT", 
		 "functional": "B3LYP", 
		 "basiset": "6-31G**", 
		 "properties": { 
			 "R2extent": 9480.5105, 
			 "electric_dipole_moment_norm": 1.563168964, 
			 "electric_quadrupole_moment_norm": 8.82555865427, 
			 "total_energy": -1762.98178954, 
			 "HOMO_LUMO_gap": 0.16524, 
			 "cosmo_polarized_energy": -13.5, 
			 "cosmo_cavitation_energy": 42.24, 
			 "cosmo_dispersion_energy": -28.96, 
			 "cosmo_repulsion_energy": 2.19, 
			 "cosmo_total_nonelectrostatic_energy": 15.47, 
			 "SMD_solvation_energy": 7.75 
		},
		"coords": [
			{
				"x": 0.9500102932,
				"y": 4.071908154,
				"z": 2.0446223936,
				"element": "O" 
			},
			{
				"x": 0.0477777101,
				"y": 3.5533214241,
				"z": 1.1706160807,
				"element": "C" 
			},
			{
				"x": -0.4836996059,
				"y": 4.23487555,
				"z": 0.3117506246,
				"element": "O" 
			},
			{
				"x": -0.2049260076,
				"y": 2.1131686039,
				"z": 1.3386060216,
				"element": "C" 
			},
			{
				"x": 0.5265724609,
				"y": 1.3173202096,
				"z": 2.1434375095,
				"element": "C" 
			},
			{
				"x": 0.4158401191,
				"y": -0.13198817,
				"z": 2.3264165441,
				"element": "C" 
			},
			{
				"x": -0.3419544502,
				"y": -1.0012626256,
				"z": 1.5045432351,
				"element": "C" 
			},
			{
				"x": -1.0845579541,
				"y": -0.521185846,
				"z": 0.4492004721,
				"element": "O" 
			},
			{
				"x": -0.39308515,
				"y": -0.5041724601,
				"z": -0.8244742057,
				"element": "C" 
			},
			{
				"x": -1.3741542473,
				"y": -0.0870323316,
				"z": -1.8860735898,
				"element": "C" 
			},
			{
				"x": -2.2282141695,
				"y": -0.9987292347,
				"z": -2.5247793146,
				"element": "C" 
			},
			{
				"x": -2.172643878,
				"y": -2.7142256116,
				"z": -2.1180794457,
				"element": "Cl" 
			},
			{
				"x": -3.1411814549,
				"y": -0.5927569316,
				"z": -3.4968587426,
				"element": "C" 
			},
			{
				"x": -3.2197585247,
				"y": 0.7565407821,
				"z": -3.8412538741,
				"element": "C" 
			},
			{
				"x": -2.3912089159,
				"y": 1.68782009,
				"z": -3.2152915661,
				"element": "C" 
			},
			{
				"x": -1.4801439693,
				"y": 1.2634807636,
				"z": -2.2496118447,
				"element": "C" 
			},
			{
				"x": -0.3813888096,
				"y": -2.370726177,
				"z": 1.7698310997,
				"element": "C" 
			},
			{
				"x": 0.3197178083,
				"y": -2.9160868695,
				"z": 2.8436020075,
				"element": "C" 
			},
			{
				"x": 1.076633922,
				"y": -2.0673947316,
				"z": 3.651177151,
				"element": "C" 
			},
			{
				"x": 1.9764062393,
				"y": -2.7319872581,
				"z": 5.0061532402,
				"element": "Cl" 
			},
			{
				"x": 1.1295914271,
				"y": -0.7019276534,
				"z": 3.3992685706,
				"element": "C" 
			},
			{
				"x": 1.0379198736,
				"y": 5.0087986198,
				"z": 1.8051372805,
				"element": "H" 
			},
			{
				"x": -1.0119320987,
				"y": 1.7267563737,
				"z": 0.7326466476,
				"element": "H" 
			},
			{
				"x": 1.3018953554,
				"y": 1.7903672496,
				"z": 2.7427247458,
				"element": "H" 
			},
			{
				"x": 0.4379752771,
				"y": 0.2090541378,
				"z": -0.7773359501,
				"element": "H" 
			},
			{
				"x": 0.0126926367,
				"y": -1.5007653178,
				"z": -1.0255021315,
				"element": "H" 
			},
			{
				"x": -3.780764859,
				"y": -1.3278344679,
				"z": -3.9725007577,
				"element": "H" 
			},
			{
				"x": -3.9315451649,
				"y": 1.0740536103,
				"z": -4.5973863577,
				"element": "H" 
			},
			{
				"x": -2.4528080323,
				"y": 2.7399862831,
				"z": -3.4741246776,
				"element": "H" 
			},
			{
				"x": -0.8466496663,
				"y": 1.9944789271,
				"z": -1.7543500799,
				"element": "H" 
			},
			{
				"x": -0.9832152597,
				"y": -3.0008214852,
				"z": 1.1229954977,
				"element": "H" 
			},
			{
				"x": 0.2813881093,
				"y": -3.9796991531,
				"z": 3.0503508711,
				"element": "H" 
			},
			{
				"x": 1.7234109856,
				"y": -0.0609344538,
				"z": 4.0425425446,
				"element": "H" 
			}
		],
		 "valence_orbital": [ 
			{
				"type": "occ",
				"energy": -0.27605,
				"method": "rhf"
			},
			{
				"type": "occ",
				"energy": -0.26747,
				"method": "rhf"
			},
			{
				"type": "occ",
				"energy": -0.25865,
				"method": "rhf"
			},
			{
				"type": "occ",
				"energy": -0.25229,
				"method": "rhf"
			},
			{
				"type": "occ",
				"energy": -0.24017,
				"method": "rhf"
			},
			{
				"type": "unocc",
				"energy": -0.07493,
				"method": "rhf"
			},
			{
				"type": "unocc",
				"energy": -0.02926,
				"method": "rhf"
			},
			{
				"type": "unocc",
				"energy": -0.0181,
				"method": "rhf"
			},
			{
				"type": "unocc",
				"energy": -0.01781,
				"method": "rhf"
			},
			{
				"type": "unocc",
				"energy": 0.0071,
				"method": "rhf"
			}
		],
		"cosmo_sigma_profile": { 
			"-0.025": 0.0,
			"-0.024": 0.0,
			"-0.023": 0.0,
			"-0.022": 0.0,
			"-0.021": 0.0,
			"-0.02": 0.0,
			"-0.019": 0.0216218274623,
			"-0.018": 0.613563080726,
			"-0.017": 0.779724406816,
			"-0.016": 0.966347512604,
			"-0.015": 0.808222103835,
			"-0.014": 0.840057041486,
			"-0.013": 0.607008172675,
			"-0.012": 0.46598498771,
			"-0.011": 0.431603028445,
			"-0.01": 0.750013480269,
			"-0.009": 1.63488564043,
			"-0.008": 4.55439293226,
			"-0.007": 10.1916273274,
			"-0.006": 16.181349576,
			"-0.005": 17.5105781177,
			"-0.004": 19.4058693529,
			"-0.003": 20.1955769432,
			"-0.002": 22.5451801158,
			"-0.001": 26.2623277251,
			"0.0": 27.4459130344,
			"0.001": 37.9719465866,
			"0.002": 39.2868044689,
			"0.003": 28.1953848617,
			"0.004": 27.8230466633,
			"0.005": 12.1667036923,
			"0.006": 4.88279330031,
			"0.007": 3.65279725542,
			"0.008": 4.14071791064,
			"0.009": 1.81968072316,
			"0.01": 2.79129174189,
			"0.011": 2.74693905568,
			"0.012": 4.88386565977,
			"0.013": 0.753539731102,
			"0.014": 0.0,
			"0.015": 0.0,
			"0.016": 0.0,
			"0.017": 0.0,
			"0.018": 0.0,
			"0.019": 0.0,
			"0.02": 0.0,
			"0.021": 0.0,
			"0.022": 0.0,
			"0.023": 0.0,
			"0.024": 0.0,
			"0.025": 0.0
		}
	}
}
