{
	 "smiles": "ClC(=O)CCC1=CC=CC=C1", 
	 "Tm": 268.65, 
	 "num_atms": 20, 
	 "gaussian": { 
		 "optdone": 1, 
		 "sigma_profile": "yes", 
		 "theory": "DFT", 
		 "functional": "B3LYP", 
		 "basiset": "6-31G**", 
		 "properties": { 
			 "R2extent": 4307.3674, 
			 "electric_dipole_moment_norm": 3.34480675077, 
			 "electric_quadrupole_moment_norm": 13.607693439, 
			 "total_energy": -883.810485842, 
			 "HOMO_LUMO_gap": 0.20868, 
			 "cosmo_polarized_energy": -7.06, 
			 "cosmo_cavitation_energy": 26.27, 
			 "cosmo_dispersion_energy": -18.69, 
			 "cosmo_repulsion_energy": 1.53, 
			 "cosmo_total_nonelectrostatic_energy": 9.11, 
			 "SMD_solvation_energy": 4.86 
		},
		"coords": [
			{
				"x": 0.7860952525,
				"y": -2.5883451453,
				"z": 3.9565360248,
				"element": "Cl" 
			},
			{
				"x": 1.6932022393,
				"y": -3.3492451825,
				"z": 2.5450441568,
				"element": "C" 
			},
			{
				"x": 2.0886896059,
				"y": -4.4657907044,
				"z": 2.6301452049,
				"element": "O" 
			},
			{
				"x": 1.8080158599,
				"y": -2.4106493855,
				"z": 1.3689788121,
				"element": "C" 
			},
			{
				"x": 0.4605219096,
				"y": -2.2343461309,
				"z": 0.6212463891,
				"element": "C" 
			},
			{
				"x": 0.6075170125,
				"y": -1.3145702679,
				"z": -0.572530169,
				"element": "C" 
			},
			{
				"x": 0.4365692789,
				"y": 0.0692564088,
				"z": -0.4324496851,
				"element": "C" 
			},
			{
				"x": 0.6005762034,
				"y": 0.9228443637,
				"z": -1.5240700513,
				"element": "C" 
			},
			{
				"x": 0.9390926455,
				"y": 0.4030043854,
				"z": -2.7748990313,
				"element": "C" 
			},
			{
				"x": 1.1105682622,
				"y": -0.9741150733,
				"z": -2.9268732835,
				"element": "C" 
			},
			{
				"x": 0.9459948959,
				"y": -1.8246858911,
				"z": -1.8328188042,
				"element": "C" 
			},
			{
				"x": 2.1611384498,
				"y": -1.4379889645,
				"z": 1.7229078929,
				"element": "H" 
			},
			{
				"x": 2.558927578,
				"y": -2.8378398891,
				"z": 0.6982318757,
				"element": "H" 
			},
			{
				"x": 0.1053875273,
				"y": -3.2184732952,
				"z": 0.2967956032,
				"element": "H" 
			},
			{
				"x": -0.2820514477,
				"y": -1.8350899776,
				"z": 1.3184895219,
				"element": "H" 
			},
			{
				"x": 0.1661137421,
				"y": 0.4797238216,
				"z": 0.5377623181,
				"element": "H" 
			},
			{
				"x": 0.4588918709,
				"y": 1.9925434282,
				"z": -1.3986597363,
				"element": "H" 
			},
			{
				"x": 1.0637389798,
				"y": 1.0659662844,
				"z": -3.6261039653,
				"element": "H" 
			},
			{
				"x": 1.368066314,
				"y": -1.3874572381,
				"z": -3.8979026888,
				"element": "H" 
			},
			{
				"x": 1.0749438203,
				"y": -2.8972415467,
				"z": -1.9592303848,
				"element": "H" 
			}
		],
		 "valence_orbital": [ 
			{
				"type": "occ",
				"energy": -0.32016,
				"method": "rhf"
			},
			{
				"type": "occ",
				"energy": -0.31769,
				"method": "rhf"
			},
			{
				"type": "occ",
				"energy": -0.29617,
				"method": "rhf"
			},
			{
				"type": "occ",
				"energy": -0.25852,
				"method": "rhf"
			},
			{
				"type": "occ",
				"energy": -0.25236,
				"method": "rhf"
			},
			{
				"type": "unocc",
				"energy": -0.04368,
				"method": "rhf"
			},
			{
				"type": "unocc",
				"energy": -0.01035,
				"method": "rhf"
			},
			{
				"type": "unocc",
				"energy": -0.00939,
				"method": "rhf"
			},
			{
				"type": "unocc",
				"energy": 0.01747,
				"method": "rhf"
			},
			{
				"type": "unocc",
				"energy": 0.08117,
				"method": "rhf"
			}
		],
		"cosmo_sigma_profile": { 
			"-0.025": 0.0,
			"-0.024": 0.0,
			"-0.023": 0.0,
			"-0.022": 0.0,
			"-0.021": 0.0,
			"-0.02": 0.0,
			"-0.019": 0.0,
			"-0.018": 0.0,
			"-0.017": 0.0,
			"-0.016": 0.0,
			"-0.015": 0.0,
			"-0.014": 0.0,
			"-0.013": 0.0,
			"-0.012": 0.0,
			"-0.011": 0.0,
			"-0.01": 0.0,
			"-0.009": 0.0,
			"-0.008": 0.0224646979975,
			"-0.007": 3.07838882018,
			"-0.006": 11.4442637253,
			"-0.005": 24.876014949,
			"-0.004": 19.984814,
			"-0.003": 18.7806152375,
			"-0.002": 13.4933235148,
			"-0.001": 13.215713849,
			"0.0": 9.99756361525,
			"0.001": 13.6561464366,
			"0.002": 11.9641602057,
			"0.003": 13.5715337238,
			"0.004": 17.6858795621,
			"0.005": 16.8222463235,
			"0.006": 11.7439251126,
			"0.007": 3.91356365329,
			"0.008": 5.18444676501,
			"0.009": 1.89725732346,
			"0.01": 0.0053490018391,
			"0.011": 0.0,
			"0.012": 0.0,
			"0.013": 0.0,
			"0.014": 0.0,
			"0.015": 0.0,
			"0.016": 0.0,
			"0.017": 0.0,
			"0.018": 0.0,
			"0.019": 0.0,
			"0.02": 0.0,
			"0.021": 0.0,
			"0.022": 0.0,
			"0.023": 0.0,
			"0.024": 0.0,
			"0.025": 0.0
		}
	}
}
