{
	 "smiles": "OC(=O)C1(CC(=O)NC2CC2)CCCC1", 
	 "Tm": 290.15, 
	 "num_atms": 32, 
	 "gaussian": { 
		 "optdone": 1, 
		 "sigma_profile": "yes", 
		 "theory": "DFT", 
		 "functional": "B3LYP", 
		 "basiset": "6-31G**", 
		 "properties": { 
			 "R2extent": 4492.2789, 
			 "electric_dipole_moment_norm": 8.05689971267, 
			 "electric_quadrupole_moment_norm": 21.6699678747, 
			 "total_energy": -709.848506871, 
			 "HOMO_LUMO_gap": 0.23554, 
			 "cosmo_polarized_energy": -19.89, 
			 "cosmo_cavitation_energy": 33.01, 
			 "cosmo_dispersion_energy": -23.64, 
			 "cosmo_repulsion_energy": 1.87, 
			 "cosmo_total_nonelectrostatic_energy": 11.24, 
			 "SMD_solvation_energy": 5.46 
		},
		"coords": [
			{
				"x": -3.4150776673,
				"y": -0.6938925809,
				"z": -0.3958812887,
				"element": "O" 
			},
			{
				"x": -2.7999792442,
				"y": 0.2692276,
				"z": -1.0850627073,
				"element": "C" 
			},
			{
				"x": -3.3930592971,
				"y": 0.8883710663,
				"z": -1.9448695002,
				"element": "O" 
			},
			{
				"x": -1.3246107469,
				"y": 0.5854844821,
				"z": -0.6937974972,
				"element": "C" 
			},
			{
				"x": -0.4541596362,
				"y": -0.7010027063,
				"z": -0.5786790257,
				"element": "C" 
			},
			{
				"x": -0.5874427348,
				"y": -1.4968147548,
				"z": 0.7146524133,
				"element": "C" 
			},
			{
				"x": -1.6789131936,
				"y": -1.7409556343,
				"z": 1.246035889,
				"element": "O" 
			},
			{
				"x": 0.5711548532,
				"y": -1.9587100474,
				"z": 1.2498716282,
				"element": "N" 
			},
			{
				"x": 0.613717687,
				"y": -2.7228043538,
				"z": 2.4691036212,
				"element": "C" 
			},
			{
				"x": 1.6553188608,
				"y": -3.8048903429,
				"z": 2.5816839155,
				"element": "C" 
			},
			{
				"x": 0.1979128913,
				"y": -4.1693250388,
				"z": 2.4426016347,
				"element": "C" 
			},
			{
				"x": -0.7084372366,
				"y": 1.5647510734,
				"z": -1.7497994341,
				"element": "C" 
			},
			{
				"x": -0.3613086334,
				"y": 2.8671256601,
				"z": -0.9960943469,
				"element": "C" 
			},
			{
				"x": -1.3436230603,
				"y": 2.8782607968,
				"z": 0.1835652788,
				"element": "C" 
			},
			{
				"x": -1.3366982002,
				"y": 1.4134707031,
				"z": 0.6375633892,
				"element": "C" 
			},
			{
				"x": -2.8230278905,
				"y": -1.1104556933,
				"z": 0.2906596444,
				"element": "H" 
			},
			{
				"x": 0.5940265712,
				"y": -0.4105873684,
				"z": -0.7082987133,
				"element": "H" 
			},
			{
				"x": -0.685365293,
				"y": -1.3850058421,
				"z": -1.4062017096,
				"element": "H" 
			},
			{
				"x": 1.4446763366,
				"y": -1.6521146629,
				"z": 0.8469626243,
				"element": "H" 
			},
			{
				"x": 0.3710901057,
				"y": -2.1532686449,
				"z": 3.3634227476,
				"element": "H" 
			},
			{
				"x": 2.2988615112,
				"y": -3.9756940334,
				"z": 1.723056535,
				"element": "H" 
			},
			{
				"x": 2.14433273,
				"y": -3.9382741095,
				"z": 3.5411756993,
				"element": "H" 
			},
			{
				"x": -0.134811099,
				"y": -4.5706931853,
				"z": 1.4915725219,
				"element": "H" 
			},
			{
				"x": -0.3328530596,
				"y": -4.55305848,
				"z": 3.3073739209,
				"element": "H" 
			},
			{
				"x": 0.1629667057,
				"y": 1.1291992583,
				"z": -2.2497289421,
				"element": "H" 
			},
			{
				"x": -1.4654341717,
				"y": 1.7586483973,
				"z": -2.5111774566,
				"element": "H" 
			},
			{
				"x": 0.6682590265,
				"y": 2.8344009074,
				"z": -0.6151078192,
				"element": "H" 
			},
			{
				"x": -0.4406125916,
				"y": 3.7515918892,
				"z": -1.6355317212,
				"element": "H" 
			},
			{
				"x": -1.0626967743,
				"y": 3.5717105125,
				"z": 0.9827486154,
				"element": "H" 
			},
			{
				"x": -2.345076486,
				"y": 3.155894397,
				"z": -0.1650712641,
				"element": "H" 
			},
			{
				"x": -2.1701202568,
				"y": 1.1449164466,
				"z": 1.2916737372,
				"element": "H" 
			},
			{
				"x": -0.411810006,
				"y": 1.2107942883,
				"z": 1.1951776102,
				"element": "H" 
			}
		],
		 "valence_orbital": [ 
			{
				"type": "occ",
				"energy": -0.31261,
				"method": "rhf"
			},
			{
				"type": "occ",
				"energy": -0.28381,
				"method": "rhf"
			},
			{
				"type": "occ",
				"energy": -0.28016,
				"method": "rhf"
			},
			{
				"type": "occ",
				"energy": -0.27486,
				"method": "rhf"
			},
			{
				"type": "occ",
				"energy": -0.2421,
				"method": "rhf"
			},
			{
				"type": "unocc",
				"energy": -0.00656,
				"method": "rhf"
			},
			{
				"type": "unocc",
				"energy": 0.03266,
				"method": "rhf"
			},
			{
				"type": "unocc",
				"energy": 0.04833,
				"method": "rhf"
			},
			{
				"type": "unocc",
				"energy": 0.08524,
				"method": "rhf"
			},
			{
				"type": "unocc",
				"energy": 0.08776,
				"method": "rhf"
			}
		],
		"cosmo_sigma_profile": { 
			"-0.025": 0.0,
			"-0.024": 0.0,
			"-0.023": 0.0,
			"-0.022": 0.0,
			"-0.021": 0.0,
			"-0.02": 0.0,
			"-0.019": 0.0,
			"-0.018": 0.0,
			"-0.017": 0.0,
			"-0.016": 0.0,
			"-0.015": 0.702071104286,
			"-0.014": 1.35627325814,
			"-0.013": 1.57049243685,
			"-0.012": 1.01049262533,
			"-0.011": 1.03399547469,
			"-0.01": 1.90197281078,
			"-0.009": 1.85626309857,
			"-0.008": 1.43239184623,
			"-0.007": 4.90906635435,
			"-0.006": 8.89212046384,
			"-0.005": 17.1806292728,
			"-0.004": 18.9521918165,
			"-0.003": 24.7766740995,
			"-0.002": 27.6935434437,
			"-0.001": 28.338041876,
			"0.0": 26.492088484,
			"0.001": 22.8559487974,
			"0.002": 9.07291104692,
			"0.003": 6.75274381711,
			"0.004": 5.2148781691,
			"0.005": 4.34875400225,
			"0.006": 3.19385082008,
			"0.007": 4.37383217077,
			"0.008": 3.4759924475,
			"0.009": 4.6777383941,
			"0.01": 3.84343265998,
			"0.011": 5.21469481525,
			"0.012": 7.32652174194,
			"0.013": 6.64301869868,
			"0.014": 2.16523826555,
			"0.015": 0.276257340911,
			"0.016": 0.0,
			"0.017": 0.0,
			"0.018": 0.0,
			"0.019": 0.0,
			"0.02": 0.0,
			"0.021": 0.0,
			"0.022": 0.0,
			"0.023": 0.0,
			"0.024": 0.0,
			"0.025": 0.0
		}
	}
}
