{
	 "smiles": "CC1=C(Br)C(Cl)=NC(N)=N1", 
	 "Tm": 463.15, 
	 "num_atms": 15, 
	 "gaussian": { 
		 "optdone": 1, 
		 "sigma_profile": "yes", 
		 "theory": "DFT", 
		 "functional": "B3LYP", 
		 "basiset": "6-31G**", 
		 "properties": { 
			 "R2extent": 3266.7684, 
			 "electric_dipole_moment_norm": 2.86620821644, 
			 "electric_quadrupole_moment_norm": 7.48064422226, 
			 "total_energy": -3389.41279805, 
			 "HOMO_LUMO_gap": 0.18794, 
			 "cosmo_polarized_energy": -8.66, 
			 "cosmo_cavitation_energy": 23.33, 
			 "cosmo_dispersion_energy": -18.1, 
			 "cosmo_repulsion_energy": 1.49, 
			 "cosmo_total_nonelectrostatic_energy": 6.71, 
			 "SMD_solvation_energy": 0.11 
		},
		"coords": [
			{
				"x": -0.4583215868,
				"y": -1.0540311561,
				"z": 3.3600494031,
				"element": "C" 
			},
			{
				"x": -0.0860763921,
				"y": -0.7320201449,
				"z": 1.9397760219,
				"element": "C" 
			},
			{
				"x": 0.7097844407,
				"y": 0.3815848343,
				"z": 1.6061644876,
				"element": "C" 
			},
			{
				"x": 1.3593712701,
				"y": 1.5512266511,
				"z": 2.9521252763,
				"element": "Br" 
			},
			{
				"x": 0.9904135436,
				"y": 0.5619920994,
				"z": 0.2467561596,
				"element": "C" 
			},
			{
				"x": 1.979341431,
				"y": 1.8980590568,
				"z": -0.3007040006,
				"element": "Cl" 
			},
			{
				"x": 0.5420852662,
				"y": -0.2451034841,
				"z": -0.693951702,
				"element": "N" 
			},
			{
				"x": -0.2188362452,
				"y": -1.2764034887,
				"z": -0.2792386696,
				"element": "C" 
			},
			{
				"x": -0.7166302231,
				"y": -2.0957367021,
				"z": -1.2424132069,
				"element": "N" 
			},
			{
				"x": -0.5460575231,
				"y": -1.5573328828,
				"z": 0.9947996117,
				"element": "N" 
			},
			{
				"x": 0.4358489973,
				"y": -1.2055903495,
				"z": 3.9733791637,
				"element": "H" 
			},
			{
				"x": -1.0690278559,
				"y": -1.9569207352,
				"z": 3.374133286,
				"element": "H" 
			},
			{
				"x": -1.0157300446,
				"y": -0.2277180768,
				"z": 3.8131868377,
				"element": "H" 
			},
			{
				"x": -1.1515595216,
				"y": -2.9564183526,
				"z": -0.9541847177,
				"element": "H" 
			},
			{
				"x": -0.3613055565,
				"y": -2.0032872688,
				"z": -2.1796779507,
				"element": "H" 
			}
		],
		 "valence_orbital": [ 
			{
				"type": "occ",
				"energy": -0.30317,
				"method": "rhf"
			},
			{
				"type": "occ",
				"energy": -0.29696,
				"method": "rhf"
			},
			{
				"type": "occ",
				"energy": -0.29593,
				"method": "rhf"
			},
			{
				"type": "occ",
				"energy": -0.26029,
				"method": "rhf"
			},
			{
				"type": "occ",
				"energy": -0.23071,
				"method": "rhf"
			},
			{
				"type": "unocc",
				"energy": -0.04277,
				"method": "rhf"
			},
			{
				"type": "unocc",
				"energy": -0.01679,
				"method": "rhf"
			},
			{
				"type": "unocc",
				"energy": -0.00627,
				"method": "rhf"
			},
			{
				"type": "unocc",
				"energy": 0.0481,
				"method": "rhf"
			},
			{
				"type": "unocc",
				"energy": 0.08366,
				"method": "rhf"
			}
		],
		"cosmo_sigma_profile": { 
			"-0.025": 0.0,
			"-0.024": 0.0,
			"-0.023": 0.0,
			"-0.022": 0.0,
			"-0.021": 0.0,
			"-0.02": 0.0,
			"-0.019": 0.0,
			"-0.018": 0.0,
			"-0.017": 0.0,
			"-0.016": 0.0,
			"-0.015": 0.433394401892,
			"-0.014": 1.83551929995,
			"-0.013": 2.04789990761,
			"-0.012": 2.60730445305,
			"-0.011": 1.67616293153,
			"-0.01": 2.080321751,
			"-0.009": 1.57904809202,
			"-0.008": 1.92999075098,
			"-0.007": 1.41666488647,
			"-0.006": 2.28196511928,
			"-0.005": 7.89866604616,
			"-0.004": 8.7299409273,
			"-0.003": 12.9422963389,
			"-0.002": 18.6560953694,
			"-0.001": 21.0026164729,
			"0.0": 16.0834658954,
			"0.001": 13.6723890293,
			"0.002": 13.9339920549,
			"0.003": 17.7219421383,
			"0.004": 17.3377904997,
			"0.005": 8.54701174679,
			"0.006": 3.85082313733,
			"0.007": 3.48721861947,
			"0.008": 2.33065805917,
			"0.009": 1.7944394259,
			"0.01": 2.37562643185,
			"0.011": 1.49081434429,
			"0.012": 1.44672443247,
			"0.013": 0.529174764629,
			"0.014": 0.0,
			"0.015": 0.0,
			"0.016": 0.0,
			"0.017": 0.0,
			"0.018": 0.0,
			"0.019": 0.0,
			"0.02": 0.0,
			"0.021": 0.0,
			"0.022": 0.0,
			"0.023": 0.0,
			"0.024": 0.0,
			"0.025": 0.0
		}
	}
}
