{
	 "smiles": "FC1=CC=C(C=C1)C1=CN=C(S)O1", 
	 "Tm": 526.15, 
	 "num_atms": 19, 
	 "gaussian": { 
		 "optdone": 1, 
		 "sigma_profile": "yes", 
		 "theory": "DFT", 
		 "functional": "B3LYP", 
		 "basiset": "6-31G**", 
		 "properties": { 
			 "R2extent": 3810.0836, 
			 "electric_dipole_moment_norm": 1.56156751055, 
			 "electric_quadrupole_moment_norm": 16.5607828275, 
			 "total_energy": -974.549980699, 
			 "HOMO_LUMO_gap": 0.17001, 
			 "cosmo_polarized_energy": -8.98, 
			 "cosmo_cavitation_energy": 26.59, 
			 "cosmo_dispersion_energy": -20.02, 
			 "cosmo_repulsion_energy": 1.49, 
			 "cosmo_total_nonelectrostatic_energy": 8.07, 
			 "SMD_solvation_energy": 3.19 
		},
		"coords": [
			{
				"x": -2.1105677227,
				"y": 4.2031439484,
				"z": -1.3581752049,
				"element": "F" 
			},
			{
				"x": -1.5417423021,
				"y": 3.0601521889,
				"z": -0.9248097694,
				"element": "C" 
			},
			{
				"x": -0.5991969196,
				"y": 3.1162915132,
				"z": 0.0950840777,
				"element": "C" 
			},
			{
				"x": -0.0151137924,
				"y": 1.9324603258,
				"z": 0.5385093111,
				"element": "C" 
			},
			{
				"x": -0.3682442711,
				"y": 0.6963387472,
				"z": -0.0316576369,
				"element": "C" 
			},
			{
				"x": -1.3266062502,
				"y": 0.6778927065,
				"z": -1.0626644126,
				"element": "C" 
			},
			{
				"x": -1.9152318757,
				"y": 1.854791695,
				"z": -1.5120301098,
				"element": "C" 
			},
			{
				"x": 0.237996084,
				"y": -0.5436000979,
				"z": 0.4266534863,
				"element": "C" 
			},
			{
				"x": 0.1255422184,
				"y": -1.8644279242,
				"z": 0.1008242761,
				"element": "C" 
			},
			{
				"x": 0.9715710026,
				"y": -2.6296971046,
				"z": 0.8901555385,
				"element": "N" 
			},
			{
				"x": 1.556392928,
				"y": -1.7605999611,
				"z": 1.6528623234,
				"element": "C" 
			},
			{
				"x": 2.758939176,
				"y": -2.1112531958,
				"z": 2.8889388626,
				"element": "S" 
			},
			{
				"x": 1.1779307254,
				"y": -0.4725312204,
				"z": 1.4466347588,
				"element": "O" 
			},
			{
				"x": -0.3341461163,
				"y": 4.0748165406,
				"z": 0.5277349497,
				"element": "H" 
			},
			{
				"x": 0.7215333792,
				"y": 1.9626719925,
				"z": 1.3334156474,
				"element": "H" 
			},
			{
				"x": -1.6148682804,
				"y": -0.2644609121,
				"z": -1.5177233733,
				"element": "H" 
			},
			{
				"x": -2.6544275025,
				"y": 1.8514988415,
				"z": -2.3055293344,
				"element": "H" 
			},
			{
				"x": -0.5046130243,
				"y": -2.3229769665,
				"z": -0.6468293081,
				"element": "H" 
			},
			{
				"x": 2.9166525436,
				"y": -0.8262111172,
				"z": 3.2598059179,
				"element": "H" 
			}
		],
		 "valence_orbital": [ 
			{
				"type": "occ",
				"energy": -0.31159,
				"method": "rhf"
			},
			{
				"type": "occ",
				"energy": -0.29753,
				"method": "rhf"
			},
			{
				"type": "occ",
				"energy": -0.27211,
				"method": "rhf"
			},
			{
				"type": "occ",
				"energy": -0.27109,
				"method": "rhf"
			},
			{
				"type": "occ",
				"energy": -0.21189,
				"method": "rhf"
			},
			{
				"type": "unocc",
				"energy": -0.04188,
				"method": "rhf"
			},
			{
				"type": "unocc",
				"energy": -0.02067,
				"method": "rhf"
			},
			{
				"type": "unocc",
				"energy": 0.00162,
				"method": "rhf"
			},
			{
				"type": "unocc",
				"energy": 0.02093,
				"method": "rhf"
			},
			{
				"type": "unocc",
				"energy": 0.05774,
				"method": "rhf"
			}
		],
		"cosmo_sigma_profile": { 
			"-0.025": 0.0,
			"-0.024": 0.0,
			"-0.023": 0.0,
			"-0.022": 0.0,
			"-0.021": 0.0,
			"-0.02": 0.0,
			"-0.019": 0.0,
			"-0.018": 0.0,
			"-0.017": 0.0,
			"-0.016": 0.0,
			"-0.015": 0.0,
			"-0.014": 0.0,
			"-0.013": 0.63121208074,
			"-0.012": 1.90136798175,
			"-0.011": 1.26160272059,
			"-0.01": 1.4864745385,
			"-0.009": 3.13777670948,
			"-0.008": 5.62963292015,
			"-0.007": 7.73162110136,
			"-0.006": 9.97046704416,
			"-0.005": 10.495297306,
			"-0.004": 8.15427124952,
			"-0.003": 7.70440255309,
			"-0.002": 11.6041565176,
			"-0.001": 12.585889805,
			"0.0": 20.5505178145,
			"0.001": 25.7978642537,
			"0.002": 25.2428785191,
			"0.003": 24.5686260543,
			"0.004": 18.2109480609,
			"0.005": 6.78083171602,
			"0.006": 3.67911209497,
			"0.007": 1.63008495507,
			"0.008": 1.66691206438,
			"0.009": 1.44986762959,
			"0.01": 0.828839286068,
			"0.011": 0.778567834195,
			"0.012": 1.06890715337,
			"0.013": 1.43250561661,
			"0.014": 0.7872404809,
			"0.015": 0.74646216501,
			"0.016": 0.0349817203917,
			"0.017": 0.0,
			"0.018": 0.0,
			"0.019": 0.0,
			"0.02": 0.0,
			"0.021": 0.0,
			"0.022": 0.0,
			"0.023": 0.0,
			"0.024": 0.0,
			"0.025": 0.0
		}
	}
}
