{
	 "smiles": "O=N(=O)C1=C2C=CC3=CC=CC4=CC=C(C=C1)C2=C34", 
	 "Tm": 428.15, 
	 "num_atms": 28, 
	 "gaussian": { 
		 "optdone": 1, 
		 "sigma_profile": "yes", 
		 "theory": "DFT", 
		 "functional": "B3LYP", 
		 "basiset": "6-31G**", 
		 "properties": { 
			 "R2extent": 5106.9735, 
			 "electric_dipole_moment_norm": 5.657542934, 
			 "electric_quadrupole_moment_norm": 23.0297987073, 
			 "total_energy": -820.266700246, 
			 "HOMO_LUMO_gap": 0.12217, 
			 "cosmo_polarized_energy": -10.17, 
			 "cosmo_cavitation_energy": 31.69, 
			 "cosmo_dispersion_energy": -23.91, 
			 "cosmo_repulsion_energy": 1.73, 
			 "cosmo_total_nonelectrostatic_energy": 9.51, 
			 "SMD_solvation_energy": 6.54 
		},
		"coords": [
			{
				"x": 1.7665864288,
				"y": 0.2390864296,
				"z": -4.5359356991,
				"element": "O" 
			},
			{
				"x": 2.2286201595,
				"y": -0.539690404,
				"z": -3.6976522199,
				"element": "N" 
			},
			{
				"x": 3.2040272652,
				"y": -1.2648160297,
				"z": -3.9056410182,
				"element": "O" 
			},
			{
				"x": 1.5778576251,
				"y": -0.6464728288,
				"z": -2.3840492921,
				"element": "C" 
			},
			{
				"x": 0.7767546247,
				"y": 0.3878767744,
				"z": -1.837743407,
				"element": "C" 
			},
			{
				"x": 0.5411364302,
				"y": 1.6693951023,
				"z": -2.4499314731,
				"element": "C" 
			},
			{
				"x": -0.2254889208,
				"y": 2.6143656629,
				"z": -1.8370317702,
				"element": "C" 
			},
			{
				"x": -0.8415663533,
				"y": 2.3878048973,
				"z": -0.5646326302,
				"element": "C" 
			},
			{
				"x": -1.6426642145,
				"y": 3.3550202034,
				"z": 0.0649917759,
				"element": "C" 
			},
			{
				"x": -2.221576271,
				"y": 3.1020467634,
				"z": 1.306455704,
				"element": "C" 
			},
			{
				"x": -2.0111734075,
				"y": 1.8808617685,
				"z": 1.9442604531,
				"element": "C" 
			},
			{
				"x": -1.2158389682,
				"y": 0.8859857973,
				"z": 1.3522904249,
				"element": "C" 
			},
			{
				"x": -0.9816748267,
				"y": -0.3768931498,
				"z": 1.9917698496,
				"element": "C" 
			},
			{
				"x": -0.2035904087,
				"y": -1.3273774935,
				"z": 1.4052788899,
				"element": "C" 
			},
			{
				"x": 0.4087131571,
				"y": -1.1041031239,
				"z": 0.1266387807,
				"element": "C" 
			},
			{
				"x": 1.2218045796,
				"y": -2.0795114165,
				"z": -0.4743139895,
				"element": "C" 
			},
			{
				"x": 1.805932773,
				"y": -1.8475701514,
				"z": -1.7064510181,
				"element": "C" 
			},
			{
				"x": 0.1918516667,
				"y": 0.137854297,
				"z": -0.5485024721,
				"element": "C" 
			},
			{
				"x": -0.6201094508,
				"y": 1.1343061788,
				"z": 0.0771974998,
				"element": "C" 
			},
			{
				"x": 0.9811971556,
				"y": 1.8713904779,
				"z": -3.4142327594,
				"element": "H" 
			},
			{
				"x": -0.381933033,
				"y": 3.5739912755,
				"z": -2.3227411591,
				"element": "H" 
			},
			{
				"x": -1.8062509054,
				"y": 4.3081767909,
				"z": -0.4304433112,
				"element": "H" 
			},
			{
				"x": -2.8389852651,
				"y": 3.8595133527,
				"z": 1.7798616362,
				"element": "H" 
			},
			{
				"x": -2.4638185104,
				"y": 1.6865356727,
				"z": 2.9128691343,
				"element": "H" 
			},
			{
				"x": -1.4383692537,
				"y": -0.5597033697,
				"z": 2.9607914688,
				"element": "H" 
			},
			{
				"x": -0.0284610647,
				"y": -2.2794661786,
				"z": 1.8983350958,
				"element": "H" 
			},
			{
				"x": 1.3903079156,
				"y": -3.0230902658,
				"z": 0.0359455731,
				"element": "H" 
			},
			{
				"x": 2.4415110726,
				"y": -2.5878170328,
				"z": -2.1746840669,
				"element": "H" 
			}
		],
		 "valence_orbital": [ 
			{
				"type": "occ",
				"energy": -0.29364,
				"method": "rhf"
			},
			{
				"type": "occ",
				"energy": -0.27915,
				"method": "rhf"
			},
			{
				"type": "occ",
				"energy": -0.2688,
				"method": "rhf"
			},
			{
				"type": "occ",
				"energy": -0.24858,
				"method": "rhf"
			},
			{
				"type": "occ",
				"energy": -0.21755,
				"method": "rhf"
			},
			{
				"type": "unocc",
				"energy": -0.09538,
				"method": "rhf"
			},
			{
				"type": "unocc",
				"energy": -0.05177,
				"method": "rhf"
			},
			{
				"type": "unocc",
				"energy": -0.03733,
				"method": "rhf"
			},
			{
				"type": "unocc",
				"energy": -0.01891,
				"method": "rhf"
			},
			{
				"type": "unocc",
				"energy": 0.00855,
				"method": "rhf"
			}
		],
		"cosmo_sigma_profile": { 
			"-0.025": 0.0,
			"-0.024": 0.0,
			"-0.023": 0.0,
			"-0.022": 0.0,
			"-0.021": 0.0,
			"-0.02": 0.0,
			"-0.019": 0.0,
			"-0.018": 0.0,
			"-0.017": 0.0,
			"-0.016": 0.0,
			"-0.015": 0.0,
			"-0.014": 0.0,
			"-0.013": 0.0,
			"-0.012": 0.0,
			"-0.011": 0.0,
			"-0.01": 0.0,
			"-0.009": 0.0,
			"-0.008": 0.732070638305,
			"-0.007": 13.7868236962,
			"-0.006": 17.9441834046,
			"-0.005": 18.2448560079,
			"-0.004": 16.9746911099,
			"-0.003": 13.6678012689,
			"-0.002": 13.3197580394,
			"-0.001": 11.4626662185,
			"0.0": 18.3921223223,
			"0.001": 33.0532639555,
			"0.002": 34.6551907354,
			"0.003": 25.4523376613,
			"0.004": 9.10834551881,
			"0.005": 3.51394922033,
			"0.006": 2.76667639959,
			"0.007": 5.14294185346,
			"0.008": 8.74028140037,
			"0.009": 4.30988284629,
			"0.01": 4.03292844877,
			"0.011": 1.13521494019,
			"0.012": 0.0,
			"0.013": 0.0,
			"0.014": 0.0,
			"0.015": 0.0,
			"0.016": 0.0,
			"0.017": 0.0,
			"0.018": 0.0,
			"0.019": 0.0,
			"0.02": 0.0,
			"0.021": 0.0,
			"0.022": 0.0,
			"0.023": 0.0,
			"0.024": 0.0,
			"0.025": 0.0
		}
	}
}
