{
	 "smiles": "OC(=O)C1=CC(=CN=C1)C1=CC=CC=C1", 
	 "Tm": 533.15, 
	 "num_atms": 24, 
	 "gaussian": { 
		 "optdone": 1, 
		 "sigma_profile": "yes", 
		 "theory": "DFT", 
		 "functional": "B3LYP", 
		 "basiset": "6-31G**", 
		 "properties": { 
			 "R2extent": 4223.4814, 
			 "electric_dipole_moment_norm": 3.45129573494, 
			 "electric_quadrupole_moment_norm": 17.3765178131, 
			 "total_energy": -667.90727441, 
			 "HOMO_LUMO_gap": 0.18196, 
			 "cosmo_polarized_energy": -15.58, 
			 "cosmo_cavitation_energy": 29.01, 
			 "cosmo_dispersion_energy": -21.26, 
			 "cosmo_repulsion_energy": 1.63, 
			 "cosmo_total_nonelectrostatic_energy": 9.39, 
			 "SMD_solvation_energy": 4.48 
		},
		"coords": [
			{
				"x": 0.780865038,
				"y": 4.9971201029,
				"z": 1.1555685376,
				"element": "O" 
			},
			{
				"x": 1.0405171382,
				"y": 3.6799742585,
				"z": 1.3602608834,
				"element": "C" 
			},
			{
				"x": 1.8851067077,
				"y": 3.3445058691,
				"z": 2.1564277354,
				"element": "O" 
			},
			{
				"x": 0.2370878674,
				"y": 2.6977905131,
				"z": 0.5612788541,
				"element": "C" 
			},
			{
				"x": 0.2059110594,
				"y": 1.3672581385,
				"z": 0.9891956939,
				"element": "C" 
			},
			{
				"x": -0.5254200814,
				"y": 0.4196516563,
				"z": 0.2669982736,
				"element": "C" 
			},
			{
				"x": -1.1956096429,
				"y": 0.8840522063,
				"z": -0.8819864884,
				"element": "C" 
			},
			{
				"x": -1.1499012189,
				"y": 2.1412207965,
				"z": -1.329179381,
				"element": "N" 
			},
			{
				"x": -0.4414481028,
				"y": 3.0240813083,
				"z": -0.6193156063,
				"element": "C" 
			},
			{
				"x": -0.6032341263,
				"y": -1.0008719817,
				"z": 0.6836637993,
				"element": "C" 
			},
			{
				"x": -0.6672472943,
				"y": -1.3473706468,
				"z": 2.0438313623,
				"element": "C" 
			},
			{
				"x": -0.7412993751,
				"y": -2.6827034719,
				"z": 2.436030192,
				"element": "C" 
			},
			{
				"x": -0.7541699199,
				"y": -3.6971632164,
				"z": 1.4766183319,
				"element": "C" 
			},
			{
				"x": -0.6905007513,
				"y": -3.3663986752,
				"z": 0.1218119033,
				"element": "C" 
			},
			{
				"x": -0.6149178348,
				"y": -2.0311742524,
				"z": -0.2717692921,
				"element": "C" 
			},
			{
				"x": -0.009193927,
				"y": 5.1090661002,
				"z": 0.6088515955,
				"element": "H" 
			},
			{
				"x": 0.7727300658,
				"y": 1.0940367821,
				"z": 1.8731652119,
				"element": "H" 
			},
			{
				"x": -1.8112466686,
				"y": 0.1976843622,
				"z": -1.4599812103,
				"element": "H" 
			},
			{
				"x": -0.3953685163,
				"y": 4.0292811446,
				"z": -1.0396236243,
				"element": "H" 
			},
			{
				"x": -0.6818661972,
				"y": -0.5648653358,
				"z": 2.7968583868,
				"element": "H" 
			},
			{
				"x": -0.7962031711,
				"y": -2.9302910576,
				"z": 3.4920869313,
				"element": "H" 
			},
			{
				"x": -0.8118782788,
				"y": -4.7375055814,
				"z": 1.7826701888,
				"element": "H" 
			},
			{
				"x": -0.6898939596,
				"y": -4.1492249667,
				"z": -0.6310543874,
				"element": "H" 
			},
			{
				"x": -0.5361188104,
				"y": -1.7865540527,
				"z": -1.3269078912,
				"element": "H" 
			}
		],
		 "valence_orbital": [ 
			{
				"type": "occ",
				"energy": -0.2954,
				"method": "rhf"
			},
			{
				"type": "occ",
				"energy": -0.28554,
				"method": "rhf"
			},
			{
				"type": "occ",
				"energy": -0.26882,
				"method": "rhf"
			},
			{
				"type": "occ",
				"energy": -0.26345,
				"method": "rhf"
			},
			{
				"type": "occ",
				"energy": -0.24626,
				"method": "rhf"
			},
			{
				"type": "unocc",
				"energy": -0.0643,
				"method": "rhf"
			},
			{
				"type": "unocc",
				"energy": -0.05317,
				"method": "rhf"
			},
			{
				"type": "unocc",
				"energy": -0.01479,
				"method": "rhf"
			},
			{
				"type": "unocc",
				"energy": -0.00438,
				"method": "rhf"
			},
			{
				"type": "unocc",
				"energy": 0.04284,
				"method": "rhf"
			}
		],
		"cosmo_sigma_profile": { 
			"-0.025": 0.0,
			"-0.024": 0.0,
			"-0.023": 0.0,
			"-0.022": 0.0,
			"-0.021": 0.0,
			"-0.02": 0.0,
			"-0.019": 0.716635497439,
			"-0.018": 1.15139024027,
			"-0.017": 0.993535018936,
			"-0.016": 0.698194409463,
			"-0.015": 1.30159951692,
			"-0.014": 0.772236294951,
			"-0.013": 1.56186752448,
			"-0.012": 1.42532430372,
			"-0.011": 0.938695529796,
			"-0.01": 0.762729976837,
			"-0.009": 1.49463453635,
			"-0.008": 2.24720125295,
			"-0.007": 6.44605228121,
			"-0.006": 14.0925734999,
			"-0.005": 16.6547890648,
			"-0.004": 16.9002645578,
			"-0.003": 13.9657341105,
			"-0.002": 13.56981847,
			"-0.001": 17.3209833113,
			"0.0": 21.7970439568,
			"0.001": 13.5782562989,
			"0.002": 11.7343603842,
			"0.003": 10.9367888715,
			"0.004": 12.2205363791,
			"0.005": 13.4530602449,
			"0.006": 4.57207696115,
			"0.007": 3.85181684509,
			"0.008": 4.14630161695,
			"0.009": 4.50154474442,
			"0.01": 5.54430367681,
			"0.011": 6.53071508065,
			"0.012": 4.144630253,
			"0.013": 1.73411269803,
			"0.014": 0.838261371975,
			"0.015": 0.781148570215,
			"0.016": 0.238149479538,
			"0.017": 0.0,
			"0.018": 0.0,
			"0.019": 0.0,
			"0.02": 0.0,
			"0.021": 0.0,
			"0.022": 0.0,
			"0.023": 0.0,
			"0.024": 0.0,
			"0.025": 0.0
		}
	}
}
