{
	 "smiles": "CNS(=O)(=O)C1=CC2=C(NCC2)C=C1", 
	 "Tm": 398.15, 
	 "num_atms": 26, 
	 "gaussian": { 
		 "optdone": 1, 
		 "sigma_profile": "yes", 
		 "theory": "DFT", 
		 "functional": "B3LYP", 
		 "basiset": "6-31G**", 
		 "properties": { 
			 "R2extent": 3718.7417, 
			 "electric_dipole_moment_norm": 6.54212951874, 
			 "electric_quadrupole_moment_norm": 11.7733444934, 
			 "total_energy": -1008.2605294, 
			 "HOMO_LUMO_gap": 0.19282, 
			 "cosmo_polarized_energy": -17.96, 
			 "cosmo_cavitation_energy": 30.27, 
			 "cosmo_dispersion_energy": -22.69, 
			 "cosmo_repulsion_energy": 1.76, 
			 "cosmo_total_nonelectrostatic_energy": 9.34, 
			 "SMD_solvation_energy": 2.51 
		},
		"coords": [
			{
				"x": -1.4887073898,
				"y": -2.7752097582,
				"z": 0.7722744678,
				"element": "C" 
			},
			{
				"x": -0.4475189905,
				"y": -1.9196746614,
				"z": 1.3533001978,
				"element": "N" 
			},
			{
				"x": -0.7102003423,
				"y": -0.2418806798,
				"z": 1.2758479959,
				"element": "S" 
			},
			{
				"x": -2.1490483967,
				"y": 0.0591491248,
				"z": 1.3161303871,
				"element": "O" 
			},
			{
				"x": 0.2014708805,
				"y": 0.3067079447,
				"z": 2.2869013228,
				"element": "O" 
			},
			{
				"x": -0.1186316407,
				"y": 0.1642938922,
				"z": -0.3524704159,
				"element": "C" 
			},
			{
				"x": 1.2649983211,
				"y": 0.1244186812,
				"z": -0.6066982538,
				"element": "C" 
			},
			{
				"x": 1.7082710283,
				"y": 0.4490928091,
				"z": -1.8725825443,
				"element": "C" 
			},
			{
				"x": 0.789638386,
				"y": 0.824413832,
				"z": -2.878309969,
				"element": "C" 
			},
			{
				"x": 1.4619874626,
				"y": 1.1415537517,
				"z": -4.0493639063,
				"element": "N" 
			},
			{
				"x": 2.8344582328,
				"y": 0.6089595829,
				"z": -3.9726642101,
				"element": "C" 
			},
			{
				"x": 3.1067176086,
				"y": 0.5447253751,
				"z": -2.4484652452,
				"element": "C" 
			},
			{
				"x": -0.5831794397,
				"y": 0.8727447451,
				"z": -2.6223580032,
				"element": "C" 
			},
			{
				"x": -1.03033163,
				"y": 0.5382932588,
				"z": -1.3418851886,
				"element": "C" 
			},
			{
				"x": -1.1838200325,
				"y": -3.8158273891,
				"z": 0.9088054816,
				"element": "H" 
			},
			{
				"x": -2.4800720875,
				"y": -2.6210266101,
				"z": 1.2132863608,
				"element": "H" 
			},
			{
				"x": -1.5493806888,
				"y": -2.5817596095,
				"z": -0.3021994097,
				"element": "H" 
			},
			{
				"x": -0.2470307126,
				"y": -2.1280862513,
				"z": 2.3295411138,
				"element": "H" 
			},
			{
				"x": 1.9542416513,
				"y": -0.1563742654,
				"z": 0.1831516512,
				"element": "H" 
			},
			{
				"x": 0.9669442493,
				"y": 1.0449970866,
				"z": -4.9254741981,
				"element": "H" 
			},
			{
				"x": 2.8959704115,
				"y": -0.3968364456,
				"z": -4.4158103392,
				"element": "H" 
			},
			{
				"x": 3.5358473464,
				"y": 1.258659604,
				"z": -4.5031560181,
				"element": "H" 
			},
			{
				"x": 3.5975967497,
				"y": 1.464790198,
				"z": -2.106104969,
				"element": "H" 
			},
			{
				"x": 3.7546873857,
				"y": -0.293523543,
				"z": -2.1786481726,
				"element": "H" 
			},
			{
				"x": -1.2891829336,
				"y": 1.1654787543,
				"z": -3.39357942,
				"element": "H" 
			},
			{
				"x": -2.086525429,
				"y": 0.5719205728,
				"z": -1.0984687158,
				"element": "H" 
			}
		],
		 "valence_orbital": [ 
			{
				"type": "occ",
				"energy": -0.2959,
				"method": "rhf"
			},
			{
				"type": "occ",
				"energy": -0.28639,
				"method": "rhf"
			},
			{
				"type": "occ",
				"energy": -0.26245,
				"method": "rhf"
			},
			{
				"type": "occ",
				"energy": -0.2553,
				"method": "rhf"
			},
			{
				"type": "occ",
				"energy": -0.20983,
				"method": "rhf"
			},
			{
				"type": "unocc",
				"energy": -0.01701,
				"method": "rhf"
			},
			{
				"type": "unocc",
				"energy": -0.01154,
				"method": "rhf"
			},
			{
				"type": "unocc",
				"energy": 0.07078,
				"method": "rhf"
			},
			{
				"type": "unocc",
				"energy": 0.07769,
				"method": "rhf"
			},
			{
				"type": "unocc",
				"energy": 0.09276,
				"method": "rhf"
			}
		],
		"cosmo_sigma_profile": { 
			"-0.025": 0.0,
			"-0.024": 0.0,
			"-0.023": 0.0,
			"-0.022": 0.0,
			"-0.021": 0.0,
			"-0.02": 0.0,
			"-0.019": 0.0,
			"-0.018": 0.0,
			"-0.017": 0.0,
			"-0.016": 0.0,
			"-0.015": 0.0267571209172,
			"-0.014": 0.942037836665,
			"-0.013": 2.47904757115,
			"-0.012": 2.83617495995,
			"-0.011": 2.0202145732,
			"-0.01": 2.60987967099,
			"-0.009": 2.65839654343,
			"-0.008": 2.31981327495,
			"-0.007": 4.72264217151,
			"-0.006": 8.89827396825,
			"-0.005": 13.6264196307,
			"-0.004": 25.6153377224,
			"-0.003": 26.254086612,
			"-0.002": 24.3799617928,
			"-0.001": 14.9282476504,
			"0.0": 8.49999089368,
			"0.001": 9.78481892951,
			"0.002": 10.9170954651,
			"0.003": 12.003557021,
			"0.004": 14.2691615523,
			"0.005": 6.80975338088,
			"0.006": 5.07438805922,
			"0.007": 4.55057307953,
			"0.008": 3.22228941028,
			"0.009": 4.95006462055,
			"0.01": 6.04567363778,
			"0.011": 10.0011957233,
			"0.012": 7.83929179094,
			"0.013": 1.04955518153,
			"0.014": 0.0,
			"0.015": 0.0,
			"0.016": 0.0,
			"0.017": 0.0,
			"0.018": 0.0,
			"0.019": 0.0,
			"0.02": 0.0,
			"0.021": 0.0,
			"0.022": 0.0,
			"0.023": 0.0,
			"0.024": 0.0,
			"0.025": 0.0
		}
	}
}
