{
	 "smiles": "CCOC(=O)C1=C(N)SC=C1CC(C)C", 
	 "Tm": 332.15, 
	 "num_atms": 32, 
	 "gaussian": { 
		 "optdone": 1, 
		 "sigma_profile": "yes", 
		 "theory": "DFT", 
		 "functional": "B3LYP", 
		 "basiset": "6-31G**", 
		 "properties": { 
			 "R2extent": 4300.9048, 
			 "electric_dipole_moment_norm": 0.419957450226, 
			 "electric_quadrupole_moment_norm": 7.8185022677, 
			 "total_energy": -1032.83234268, 
			 "HOMO_LUMO_gap": 0.17843, 
			 "cosmo_polarized_energy": -8.41, 
			 "cosmo_cavitation_energy": 35.24, 
			 "cosmo_dispersion_energy": -24.82, 
			 "cosmo_repulsion_energy": 1.92, 
			 "cosmo_total_nonelectrostatic_energy": 12.34, 
			 "SMD_solvation_energy": 6.59 
		},
		"coords": [
			{
				"x": -1.6040555807,
				"y": 3.3203799549,
				"z": -1.9220194759,
				"element": "C" 
			},
			{
				"x": -0.5030831243,
				"y": 2.3740784204,
				"z": -2.3778309649,
				"element": "C" 
			},
			{
				"x": -0.5626724157,
				"y": 1.1125453356,
				"z": -1.6726917041,
				"element": "O" 
			},
			{
				"x": 0.0506759189,
				"y": 1.0609293213,
				"z": -0.4641681781,
				"element": "C" 
			},
			{
				"x": 0.6354531669,
				"y": 2.0411635486,
				"z": 0.0023283288,
				"element": "O" 
			},
			{
				"x": -0.0488963667,
				"y": -0.2313056426,
				"z": 0.203970468,
				"element": "C" 
			},
			{
				"x": 0.5057057978,
				"y": -0.365160714,
				"z": 1.4835092478,
				"element": "C" 
			},
			{
				"x": 1.108618918,
				"y": 0.599604821,
				"z": 2.2227909856,
				"element": "N" 
			},
			{
				"x": 0.2690339248,
				"y": -1.9732360204,
				"z": 2.1218484413,
				"element": "S" 
			},
			{
				"x": -0.5705847268,
				"y": -2.4635486713,
				"z": 0.6607610464,
				"element": "C" 
			},
			{
				"x": -0.6701704691,
				"y": -1.4669141526,
				"z": -0.2594387721,
				"element": "C" 
			},
			{
				"x": -1.33666707,
				"y": -1.6896532424,
				"z": -1.5970244025,
				"element": "C" 
			},
			{
				"x": -0.3666416226,
				"y": -1.8764838937,
				"z": -2.7919691606,
				"element": "C" 
			},
			{
				"x": -1.1552487115,
				"y": -1.878689314,
				"z": -4.1091824908,
				"element": "C" 
			},
			{
				"x": 0.4769454903,
				"y": -3.1507276888,
				"z": -2.6557978342,
				"element": "C" 
			},
			{
				"x": -1.5835228827,
				"y": 4.2332024501,
				"z": -2.5270759304,
				"element": "H" 
			},
			{
				"x": -1.460440993,
				"y": 3.5982215493,
				"z": -0.87535531,
				"element": "H" 
			},
			{
				"x": -2.5884579696,
				"y": 2.856275939,
				"z": -2.0344068039,
				"element": "H" 
			},
			{
				"x": 0.4836058097,
				"y": 2.8179862256,
				"z": -2.2285202673,
				"element": "H" 
			},
			{
				"x": -0.6225450833,
				"y": 2.099854951,
				"z": -3.4289206324,
				"element": "H" 
			},
			{
				"x": 1.2955232366,
				"y": 1.4595731386,
				"z": 1.7141832845,
				"element": "H" 
			},
			{
				"x": 1.6886793905,
				"y": 0.3434717588,
				"z": 3.0051223994,
				"element": "H" 
			},
			{
				"x": -0.9365654853,
				"y": -3.4771655181,
				"z": 0.5817777936,
				"element": "H" 
			},
			{
				"x": -1.9681281701,
				"y": -2.5845955292,
				"z": -1.5218943711,
				"element": "H" 
			},
			{
				"x": -1.999842806,
				"y": -0.8479087029,
				"z": -1.814948228,
				"element": "H" 
			},
			{
				"x": 0.3104266313,
				"y": -1.0140439349,
				"z": -2.8047497915,
				"element": "H" 
			},
			{
				"x": -1.7174693895,
				"y": -0.9473927943,
				"z": -4.2391507383,
				"element": "H" 
			},
			{
				"x": -1.8733419694,
				"y": -2.7079688356,
				"z": -4.1368284181,
				"element": "H" 
			},
			{
				"x": -0.4878531997,
				"y": -1.9919362202,
				"z": -4.9705334688,
				"element": "H" 
			},
			{
				"x": 1.0471958405,
				"y": -3.1586807201,
				"z": -1.7223353542,
				"element": "H" 
			},
			{
				"x": 1.1857793492,
				"y": -3.2414108463,
				"z": -3.4862007835,
				"element": "H" 
			},
			{
				"x": -0.1596554383,
				"y": -4.0449649731,
				"z": -2.6660489147,
				"element": "H" 
			}
		],
		 "valence_orbital": [ 
			{
				"type": "occ",
				"energy": -0.30371,
				"method": "rhf"
			},
			{
				"type": "occ",
				"energy": -0.29073,
				"method": "rhf"
			},
			{
				"type": "occ",
				"energy": -0.2701,
				"method": "rhf"
			},
			{
				"type": "occ",
				"energy": -0.24455,
				"method": "rhf"
			},
			{
				"type": "occ",
				"energy": -0.1945,
				"method": "rhf"
			},
			{
				"type": "unocc",
				"energy": -0.01607,
				"method": "rhf"
			},
			{
				"type": "unocc",
				"energy": 0.01516,
				"method": "rhf"
			},
			{
				"type": "unocc",
				"energy": 0.01961,
				"method": "rhf"
			},
			{
				"type": "unocc",
				"energy": 0.08509,
				"method": "rhf"
			},
			{
				"type": "unocc",
				"energy": 0.09272,
				"method": "rhf"
			}
		],
		"cosmo_sigma_profile": { 
			"-0.025": 0.0,
			"-0.024": 0.0,
			"-0.023": 0.0,
			"-0.022": 0.0,
			"-0.021": 0.0,
			"-0.02": 0.0,
			"-0.019": 0.0,
			"-0.018": 0.0,
			"-0.017": 0.0,
			"-0.016": 0.0,
			"-0.015": 0.408966382516,
			"-0.014": 1.53576038161,
			"-0.013": 1.27550809707,
			"-0.012": 1.0871487061,
			"-0.011": 1.36385554184,
			"-0.01": 1.66992735744,
			"-0.009": 2.1043594648,
			"-0.008": 1.80910690554,
			"-0.007": 3.33337716656,
			"-0.006": 4.29972078787,
			"-0.005": 6.43715755882,
			"-0.004": 11.6696369206,
			"-0.003": 19.2296536907,
			"-0.002": 27.6175254954,
			"-0.001": 33.1280789793,
			"0.0": 34.9247795987,
			"0.001": 35.0412600168,
			"0.002": 32.3238010042,
			"0.003": 18.153824463,
			"0.004": 16.2202654461,
			"0.005": 8.67364352119,
			"0.006": 4.13411695543,
			"0.007": 2.9662992009,
			"0.008": 2.02754463411,
			"0.009": 1.55572878676,
			"0.01": 1.84662390331,
			"0.011": 1.55040367867,
			"0.012": 1.57842708523,
			"0.013": 0.247030737303,
			"0.014": 0.0,
			"0.015": 0.0,
			"0.016": 0.0,
			"0.017": 0.0,
			"0.018": 0.0,
			"0.019": 0.0,
			"0.02": 0.0,
			"0.021": 0.0,
			"0.022": 0.0,
			"0.023": 0.0,
			"0.024": 0.0,
			"0.025": 0.0
		}
	}
}
