{
	 "smiles": "CCOC1=C(NN(C)C)C(=O)C1=O", 
	 "Tm": 404.15, 
	 "num_atms": 25, 
	 "gaussian": { 
		 "optdone": 1, 
		 "sigma_profile": "yes", 
		 "theory": "DFT", 
		 "functional": "B3LYP", 
		 "basiset": "6-31G**", 
		 "properties": { 
			 "R2extent": 3104.6579, 
			 "electric_dipole_moment_norm": 6.91087587358, 
			 "electric_quadrupole_moment_norm": 18.7415515441, 
			 "total_energy": -647.166056092, 
			 "HOMO_LUMO_gap": 0.18872, 
			 "cosmo_polarized_energy": -18.3, 
			 "cosmo_cavitation_energy": 30.5, 
			 "cosmo_dispersion_energy": -20.64, 
			 "cosmo_repulsion_energy": 1.72, 
			 "cosmo_total_nonelectrostatic_energy": 11.58, 
			 "SMD_solvation_energy": 7.2 
		},
		"coords": [
			{
				"x": -3.3576053577,
				"y": 0.4717565405,
				"z": -1.0526300793,
				"element": "C" 
			},
			{
				"x": -2.0025514863,
				"y": 1.0315457804,
				"z": -1.4340637711,
				"element": "C" 
			},
			{
				"x": -1.0458499794,
				"y": 0.5463303798,
				"z": -0.4511406653,
				"element": "O" 
			},
			{
				"x": 0.2094946773,
				"y": 0.9387088751,
				"z": -0.6235878076,
				"element": "C" 
			},
			{
				"x": 1.3650275013,
				"y": 0.6753739498,
				"z": 0.1052022233,
				"element": "C" 
			},
			{
				"x": 1.7263174822,
				"y": -0.0131577407,
				"z": 1.1943883427,
				"element": "N" 
			},
			{
				"x": 0.8083777056,
				"y": -0.7504741753,
				"z": 1.9592195312,
				"element": "N" 
			},
			{
				"x": 0.7177802682,
				"y": -0.2086831785,
				"z": 3.3149836899,
				"element": "C" 
			},
			{
				"x": 1.1464761851,
				"y": -2.1734436073,
				"z": 1.9350314084,
				"element": "C" 
			},
			{
				"x": 2.2040245103,
				"y": 1.5015141255,
				"z": -0.8104070006,
				"element": "C" 
			},
			{
				"x": 3.3833812493,
				"y": 1.7774076717,
				"z": -0.8398239025,
				"element": "O" 
			},
			{
				"x": 0.9155880426,
				"y": 1.791105583,
				"z": -1.6177933674,
				"element": "C" 
			},
			{
				"x": 0.6002308605,
				"y": 2.4190743894,
				"z": -2.6066864693,
				"element": "O" 
			},
			{
				"x": -4.1126819005,
				"y": 0.8120007026,
				"z": -1.7677242894,
				"element": "H" 
			},
			{
				"x": -3.6504491342,
				"y": 0.8078747288,
				"z": -0.0539120435,
				"element": "H" 
			},
			{
				"x": -3.3427625095,
				"y": -0.6218181492,
				"z": -1.0590370928,
				"element": "H" 
			},
			{
				"x": -1.6879084504,
				"y": 0.6999774252,
				"z": -2.428253938,
				"element": "H" 
			},
			{
				"x": -1.9947074783,
				"y": 2.1257170154,
				"z": -1.4258643024,
				"element": "H" 
			},
			{
				"x": 2.707784837,
				"y": 0.0069948142,
				"z": 1.4683076985,
				"element": "H" 
			},
			{
				"x": 1.667890998,
				"y": -0.2844288602,
				"z": 3.8739276178,
				"element": "H" 
			},
			{
				"x": 0.4217524145,
				"y": 0.8411375023,
				"z": 3.2644621071,
				"element": "H" 
			},
			{
				"x": -0.0487746364,
				"y": -0.7622234198,
				"z": 3.8641112386,
				"element": "H" 
			},
			{
				"x": 1.1562486373,
				"y": -2.5239916893,
				"z": 0.9009458394,
				"element": "H" 
			},
			{
				"x": 2.1275179669,
				"y": -2.3912521949,
				"z": 2.3943629902,
				"element": "H" 
			},
			{
				"x": 0.3796975964,
				"y": -2.7262464686,
				"z": 2.484582042,
				"element": "H" 
			}
		],
		 "valence_orbital": [ 
			{
				"type": "occ",
				"energy": -0.32663,
				"method": "rhf"
			},
			{
				"type": "occ",
				"energy": -0.28984,
				"method": "rhf"
			},
			{
				"type": "occ",
				"energy": -0.25874,
				"method": "rhf"
			},
			{
				"type": "occ",
				"energy": -0.21725,
				"method": "rhf"
			},
			{
				"type": "occ",
				"energy": -0.2157,
				"method": "rhf"
			},
			{
				"type": "unocc",
				"energy": -0.02698,
				"method": "rhf"
			},
			{
				"type": "unocc",
				"energy": -0.0201,
				"method": "rhf"
			},
			{
				"type": "unocc",
				"energy": 0.0585,
				"method": "rhf"
			},
			{
				"type": "unocc",
				"energy": 0.08977,
				"method": "rhf"
			},
			{
				"type": "unocc",
				"energy": 0.09837,
				"method": "rhf"
			}
		],
		"cosmo_sigma_profile": { 
			"-0.025": 0.0,
			"-0.024": 0.0,
			"-0.023": 0.0,
			"-0.022": 0.0,
			"-0.021": 0.0,
			"-0.02": 0.0,
			"-0.019": 0.0,
			"-0.018": 0.0,
			"-0.017": 0.0,
			"-0.016": 0.0,
			"-0.015": 0.261190270759,
			"-0.014": 1.10844451174,
			"-0.013": 1.11523119992,
			"-0.012": 1.3059806043,
			"-0.011": 1.01263630829,
			"-0.01": 1.15596463972,
			"-0.009": 1.99576798814,
			"-0.008": 0.844541386907,
			"-0.007": 1.78771261827,
			"-0.006": 7.77212240708,
			"-0.005": 18.7469705453,
			"-0.004": 29.6235410988,
			"-0.003": 29.5382762402,
			"-0.002": 34.8753492873,
			"-0.001": 24.5618591571,
			"0.0": 11.5606739909,
			"0.001": 6.13068543561,
			"0.002": 4.46363895229,
			"0.003": 5.91612243455,
			"0.004": 4.37308034931,
			"0.005": 4.56900860062,
			"0.006": 3.75506977898,
			"0.007": 5.03096356339,
			"0.008": 4.60142802994,
			"0.009": 5.39734495615,
			"0.01": 4.87686527914,
			"0.011": 7.49711371664,
			"0.012": 11.2942748578,
			"0.013": 4.90865665865,
			"0.014": 0.428064529216,
			"0.015": 0.0,
			"0.016": 0.0,
			"0.017": 0.0,
			"0.018": 0.0,
			"0.019": 0.0,
			"0.02": 0.0,
			"0.021": 0.0,
			"0.022": 0.0,
			"0.023": 0.0,
			"0.024": 0.0,
			"0.025": 0.0
		}
	}
}
