{
	 "smiles": "CN1C(=O)N(C)C2=C1C=CC(=C2)S(Cl)(=O)=O", 
	 "Tm": 450.15, 
	 "num_atms": 25, 
	 "gaussian": { 
		 "optdone": 1, 
		 "sigma_profile": "yes", 
		 "theory": "DFT", 
		 "functional": "B3LYP", 
		 "basiset": "6-31G**", 
		 "properties": { 
			 "R2extent": 5725.2931, 
			 "electric_dipole_moment_norm": 4.82144604242, 
			 "electric_quadrupole_moment_norm": 35.2735198904, 
			 "total_energy": -1541.90890326, 
			 "HOMO_LUMO_gap": 0.14927, 
			 "cosmo_polarized_energy": -15.46, 
			 "cosmo_cavitation_energy": 32.73, 
			 "cosmo_dispersion_energy": -24.05, 
			 "cosmo_repulsion_energy": 1.82, 
			 "cosmo_total_nonelectrostatic_energy": 10.5, 
			 "SMD_solvation_energy": 5.07 
		},
		"coords": [
			{
				"x": -2.299796257,
				"y": 0.9726785131,
				"z": 2.1554810609,
				"element": "C" 
			},
			{
				"x": -1.0631436575,
				"y": 0.4976376351,
				"z": 1.5656704381,
				"element": "N" 
			},
			{
				"x": 0.0855844995,
				"y": 0.2347990903,
				"z": 2.3300389642,
				"element": "C" 
			},
			{
				"x": 0.207601271,
				"y": 0.3626387521,
				"z": 3.5349966931,
				"element": "O" 
			},
			{
				"x": 1.0509789741,
				"y": -0.2005867851,
				"z": 1.4191546621,
				"element": "N" 
			},
			{
				"x": 2.3944616601,
				"y": -0.5754584656,
				"z": 1.815879628,
				"element": "C" 
			},
			{
				"x": 0.5254792914,
				"y": -0.207613034,
				"z": 0.1376323905,
				"element": "C" 
			},
			{
				"x": -0.8186193315,
				"y": 0.2349389847,
				"z": 0.2344620045,
				"element": "C" 
			},
			{
				"x": -1.634476405,
				"y": 0.3326247351,
				"z": -0.8882727276,
				"element": "C" 
			},
			{
				"x": -1.0873640417,
				"y": -0.0158067136,
				"z": -2.126757171,
				"element": "C" 
			},
			{
				"x": 0.2382621043,
				"y": -0.4525559975,
				"z": -2.1982439904,
				"element": "C" 
			},
			{
				"x": 1.0809392298,
				"y": -0.5598630799,
				"z": -1.0793573689,
				"element": "C" 
			},
			{
				"x": 0.9041650694,
				"y": -0.8893210255,
				"z": -3.7854012344,
				"element": "S" 
			},
			{
				"x": 1.7373684349,
				"y": 0.9740262963,
				"z": -4.4430692187,
				"element": "Cl" 
			},
			{
				"x": -0.1821710013,
				"y": -1.1855124559,
				"z": -4.7115771676,
				"element": "O" 
			},
			{
				"x": 2.0413640522,
				"y": -1.7850909455,
				"z": -3.6061418749,
				"element": "O" 
			},
			{
				"x": -2.5786601012,
				"y": 1.9473110832,
				"z": 1.7423721947,
				"element": "H" 
			},
			{
				"x": -2.1275876087,
				"y": 1.0699398832,
				"z": 3.2279664519,
				"element": "H" 
			},
			{
				"x": -3.1130818542,
				"y": 0.2607961313,
				"z": 1.9813836799,
				"element": "H" 
			},
			{
				"x": 3.1368465995,
				"y": 0.0628768424,
				"z": 1.3261369849,
				"element": "H" 
			},
			{
				"x": 2.5967742506,
				"y": -1.6215301068,
				"z": 1.5642325253,
				"element": "H" 
			},
			{
				"x": 2.4602935296,
				"y": -0.4438762214,
				"z": 2.8964273081,
				"element": "H" 
			},
			{
				"x": -2.663977721,
				"y": 0.664166019,
				"z": -0.8117913175,
				"element": "H" 
			},
			{
				"x": -1.6847478631,
				"y": 0.0388744844,
				"z": -3.0290593861,
				"element": "H" 
			},
			{
				"x": 2.1002068759,
				"y": -0.9124936192,
				"z": -1.1799635292,
				"element": "H" 
			}
		],
		 "valence_orbital": [ 
			{
				"type": "occ",
				"energy": -0.31803,
				"method": "rhf"
			},
			{
				"type": "occ",
				"energy": -0.30819,
				"method": "rhf"
			},
			{
				"type": "occ",
				"energy": -0.29498,
				"method": "rhf"
			},
			{
				"type": "occ",
				"energy": -0.26622,
				"method": "rhf"
			},
			{
				"type": "occ",
				"energy": -0.23527,
				"method": "rhf"
			},
			{
				"type": "unocc",
				"energy": -0.086,
				"method": "rhf"
			},
			{
				"type": "unocc",
				"energy": -0.03912,
				"method": "rhf"
			},
			{
				"type": "unocc",
				"energy": -0.02836,
				"method": "rhf"
			},
			{
				"type": "unocc",
				"energy": 0.04279,
				"method": "rhf"
			},
			{
				"type": "unocc",
				"energy": 0.05667,
				"method": "rhf"
			}
		],
		"cosmo_sigma_profile": { 
			"-0.025": 0.0,
			"-0.024": 0.0,
			"-0.023": 0.0,
			"-0.022": 0.0,
			"-0.021": 0.0,
			"-0.02": 0.0,
			"-0.019": 0.0,
			"-0.018": 0.0,
			"-0.017": 0.0,
			"-0.016": 0.0,
			"-0.015": 0.0,
			"-0.014": 0.0,
			"-0.013": 0.0,
			"-0.012": 0.0,
			"-0.011": 0.0,
			"-0.01": 0.0,
			"-0.009": 0.233022050109,
			"-0.008": 4.54020136257,
			"-0.007": 11.340353489,
			"-0.006": 20.7264182802,
			"-0.005": 18.958825266,
			"-0.004": 19.0220360079,
			"-0.003": 26.2077480716,
			"-0.002": 21.3415676287,
			"-0.001": 15.4402029627,
			"0.0": 17.1756537515,
			"0.001": 18.4870700749,
			"0.002": 13.718935574,
			"0.003": 13.8954213327,
			"0.004": 16.8929327703,
			"0.005": 5.20379809806,
			"0.006": 5.16905096988,
			"0.007": 5.68135489871,
			"0.008": 11.2653620753,
			"0.009": 8.0455951001,
			"0.01": 1.34028515965,
			"0.011": 2.30515991386,
			"0.012": 4.11079948598,
			"0.013": 3.5851396173,
			"0.014": 0.0,
			"0.015": 0.0,
			"0.016": 0.0,
			"0.017": 0.0,
			"0.018": 0.0,
			"0.019": 0.0,
			"0.02": 0.0,
			"0.021": 0.0,
			"0.022": 0.0,
			"0.023": 0.0,
			"0.024": 0.0,
			"0.025": 0.0
		}
	}
}
