{
	 "smiles": "ClS(=O)(=O)C1=CC=C(C=C1)C(=O)N1CCCCC1", 
	 "Tm": 371.15, 
	 "num_atms": 32, 
	 "gaussian": { 
		 "optdone": 1, 
		 "sigma_profile": "yes", 
		 "theory": "DFT", 
		 "functional": "B3LYP", 
		 "basiset": "6-31G**", 
		 "properties": { 
			 "R2extent": 9446.8129, 
			 "electric_dipole_moment_norm": 6.68102846125, 
			 "electric_quadrupole_moment_norm": 22.1117266976, 
			 "total_energy": -1604.47119948, 
			 "HOMO_LUMO_gap": 0.15722, 
			 "cosmo_polarized_energy": -14.56, 
			 "cosmo_cavitation_energy": 37.92, 
			 "cosmo_dispersion_energy": -27.63, 
			 "cosmo_repulsion_energy": 2.11, 
			 "cosmo_total_nonelectrostatic_energy": 12.4, 
			 "SMD_solvation_energy": 4.6 
		},
		"coords": [
			{
				"x": -1.8823951383,
				"y": 4.5149361795,
				"z": 2.9691625792,
				"element": "Cl" 
			},
			{
				"x": -1.8537340503,
				"y": 5.0027402131,
				"z": 0.8876835142,
				"element": "S" 
			},
			{
				"x": -3.1828931407,
				"y": 5.510669217,
				"z": 0.5738014428,
				"element": "O" 
			},
			{
				"x": -0.6455111365,
				"y": 5.7896414491,
				"z": 0.6750246322,
				"element": "O" 
			},
			{
				"x": -1.6458234709,
				"y": 3.3850977048,
				"z": 0.1577282441,
				"element": "C" 
			},
			{
				"x": -0.3533353751,
				"y": 2.9188101495,
				"z": -0.0809332199,
				"element": "C" 
			},
			{
				"x": -0.1995306817,
				"y": 1.655512318,
				"z": -0.648702808,
				"element": "C" 
			},
			{
				"x": -1.3207161212,
				"y": 0.8793852778,
				"z": -0.9759091241,
				"element": "C" 
			},
			{
				"x": -2.6069999261,
				"y": 1.3929522037,
				"z": -0.7585330533,
				"element": "C" 
			},
			{
				"x": -2.7813975689,
				"y": 2.6435801046,
				"z": -0.1741074549,
				"element": "C" 
			},
			{
				"x": -1.2098559937,
				"y": -0.4424217492,
				"z": -1.7010919524,
				"element": "C" 
			},
			{
				"x": -1.9089950664,
				"y": -0.6232661762,
				"z": -2.6956345572,
				"element": "O" 
			},
			{
				"x": -0.2948724206,
				"y": -1.3634933464,
				"z": -1.2546113876,
				"element": "N" 
			},
			{
				"x": -0.1145616784,
				"y": -2.5941498511,
				"z": -2.0360582936,
				"element": "C" 
			},
			{
				"x": 1.369462363,
				"y": -2.9751223383,
				"z": -2.0928868411,
				"element": "C" 
			},
			{
				"x": 1.975906659,
				"y": -3.0797986693,
				"z": -0.6856559628,
				"element": "C" 
			},
			{
				"x": 1.7157859531,
				"y": -1.7956747559,
				"z": 0.1161306848,
				"element": "C" 
			},
			{
				"x": 0.2226734105,
				"y": -1.4463268372,
				"z": 0.1166224201,
				"element": "C" 
			},
			{
				"x": 0.5045896183,
				"y": 3.5358669038,
				"z": 0.160977828,
				"element": "H" 
			},
			{
				"x": 0.7973461567,
				"y": 1.2813947673,
				"z": -0.8588356159,
				"element": "H" 
			},
			{
				"x": -3.4652949174,
				"y": 0.8057936716,
				"z": -1.0663058117,
				"element": "H" 
			},
			{
				"x": -3.7709204128,
				"y": 3.048494785,
				"z": 0.0053639908,
				"element": "H" 
			},
			{
				"x": -0.532407748,
				"y": -2.4199305912,
				"z": -3.0271032264,
				"element": "H" 
			},
			{
				"x": -0.6945664439,
				"y": -3.40622437,
				"z": -1.5701573474,
				"element": "H" 
			},
			{
				"x": 1.907991321,
				"y": -2.2150075348,
				"z": -2.6729825677,
				"element": "H" 
			},
			{
				"x": 1.4749679485,
				"y": -3.9241922016,
				"z": -2.6306256178,
				"element": "H" 
			},
			{
				"x": 1.5228934891,
				"y": -3.9307840874,
				"z": -0.1576691037,
				"element": "H" 
			},
			{
				"x": 3.0507505189,
				"y": -3.2833560846,
				"z": -0.743734538,
				"element": "H" 
			},
			{
				"x": 2.058863895,
				"y": -1.9072007595,
				"z": 1.151059115,
				"element": "H" 
			},
			{
				"x": 2.2795962942,
				"y": -0.9627338035,
				"z": -0.3240039877,
				"element": "H" 
			},
			{
				"x": 0.0345204548,
				"y": -0.509558267,
				"z": 0.6397197447,
				"element": "H" 
			},
			{
				"x": -0.3329367914,
				"y": -2.2329335216,
				"z": 0.6523682752,
				"element": "H" 
			}
		],
		 "valence_orbital": [ 
			{
				"type": "occ",
				"energy": -0.31405,
				"method": "rhf"
			},
			{
				"type": "occ",
				"energy": -0.29486,
				"method": "rhf"
			},
			{
				"type": "occ",
				"energy": -0.29058,
				"method": "rhf"
			},
			{
				"type": "occ",
				"energy": -0.26425,
				"method": "rhf"
			},
			{
				"type": "occ",
				"energy": -0.25129,
				"method": "rhf"
			},
			{
				"type": "unocc",
				"energy": -0.09407,
				"method": "rhf"
			},
			{
				"type": "unocc",
				"energy": -0.05499,
				"method": "rhf"
			},
			{
				"type": "unocc",
				"energy": -0.04061,
				"method": "rhf"
			},
			{
				"type": "unocc",
				"energy": 0.01491,
				"method": "rhf"
			},
			{
				"type": "unocc",
				"energy": 0.05224,
				"method": "rhf"
			}
		],
		"cosmo_sigma_profile": { 
			"-0.025": 0.0,
			"-0.024": 0.0,
			"-0.023": 0.0,
			"-0.022": 0.0,
			"-0.021": 0.0,
			"-0.02": 0.0,
			"-0.019": 0.0,
			"-0.018": 0.0,
			"-0.017": 0.0,
			"-0.016": 0.0,
			"-0.015": 0.0,
			"-0.014": 0.0,
			"-0.013": 0.0,
			"-0.012": 0.0,
			"-0.011": 0.0,
			"-0.01": 0.0,
			"-0.009": 1.14098055765,
			"-0.008": 4.37950972635,
			"-0.007": 7.71685413345,
			"-0.006": 9.26054311812,
			"-0.005": 11.912124473,
			"-0.004": 25.1270212779,
			"-0.003": 36.2087091278,
			"-0.002": 36.8812366708,
			"-0.001": 33.1861882453,
			"0.0": 33.4404285007,
			"0.001": 19.4971759981,
			"0.002": 10.5365022525,
			"0.003": 16.163402014,
			"0.004": 10.8835450135,
			"0.005": 4.91461472723,
			"0.006": 5.18730971953,
			"0.007": 7.61047844952,
			"0.008": 11.8648150859,
			"0.009": 4.79497576404,
			"0.01": 1.50951252653,
			"0.011": 1.61058484455,
			"0.012": 2.46770399203,
			"0.013": 4.67005782055,
			"0.014": 1.93663699053,
			"0.015": 0.027236810507,
			"0.016": 0.0,
			"0.017": 0.0,
			"0.018": 0.0,
			"0.019": 0.0,
			"0.02": 0.0,
			"0.021": 0.0,
			"0.022": 0.0,
			"0.023": 0.0,
			"0.024": 0.0,
			"0.025": 0.0
		}
	}
}
