{
	 "smiles": "OC1(CCCCC1)C1=CC=CC=C1", 
	 "Tm": 334.95, 
	 "num_atms": 29, 
	 "gaussian": { 
		 "optdone": 1, 
		 "sigma_profile": "yes", 
		 "theory": "DFT", 
		 "functional": "B3LYP", 
		 "basiset": "6-31G**", 
		 "properties": { 
			 "R2extent": 2768.3267, 
			 "electric_dipole_moment_norm": 1.16093293949, 
			 "electric_quadrupole_moment_norm": 3.38782254701, 
			 "total_energy": -542.14920524, 
			 "HOMO_LUMO_gap": 0.23707, 
			 "cosmo_polarized_energy": -6.71, 
			 "cosmo_cavitation_energy": 29.08, 
			 "cosmo_dispersion_energy": -21.42, 
			 "cosmo_repulsion_energy": 1.68, 
			 "cosmo_total_nonelectrostatic_energy": 9.35, 
			 "SMD_solvation_energy": 4.23 
		},
		"coords": [
			{
				"x": -1.7696087439,
				"y": -1.1343191279,
				"z": -0.9995323091,
				"element": "O" 
			},
			{
				"x": -0.6777533315,
				"y": -0.321091145,
				"z": -0.5313957017,
				"element": "C" 
			},
			{
				"x": -1.0460568458,
				"y": 1.1641836836,
				"z": -0.7402764847,
				"element": "C" 
			},
			{
				"x": -1.4918777758,
				"y": 1.4540387189,
				"z": -2.1928578162,
				"element": "C" 
			},
			{
				"x": -0.7391853529,
				"y": 0.5922897861,
				"z": -3.2349427922,
				"element": "C" 
			},
			{
				"x": 0.6398726786,
				"y": 0.1766804781,
				"z": -2.7096656668,
				"element": "C" 
			},
			{
				"x": 0.5264171189,
				"y": -0.6954434502,
				"z": -1.4406876527,
				"element": "C" 
			},
			{
				"x": -0.3708230678,
				"y": -0.6446629478,
				"z": 0.9368451934,
				"element": "C" 
			},
			{
				"x": 0.4683461196,
				"y": 0.1760262423,
				"z": 1.7073264257,
				"element": "C" 
			},
			{
				"x": 0.7532861508,
				"y": -0.1348331955,
				"z": 3.0366625671,
				"element": "C" 
			},
			{
				"x": 0.207674725,
				"y": -1.2779389256,
				"z": 3.624976234,
				"element": "C" 
			},
			{
				"x": -0.6186520429,
				"y": -2.1070639424,
				"z": 2.8673314136,
				"element": "C" 
			},
			{
				"x": -0.9028777549,
				"y": -1.7934802753,
				"z": 1.5361908667,
				"element": "C" 
			},
			{
				"x": -2.5610928703,
				"y": -0.8657968267,
				"z": -0.511531434,
				"element": "H" 
			},
			{
				"x": -1.8316020943,
				"y": 1.4546309062,
				"z": -0.030930898,
				"element": "H" 
			},
			{
				"x": -0.1759400768,
				"y": 1.7814007418,
				"z": -0.4911920327,
				"element": "H" 
			},
			{
				"x": -2.568841902,
				"y": 1.2848999899,
				"z": -2.2922479907,
				"element": "H" 
			},
			{
				"x": -1.3288702404,
				"y": 2.5194104451,
				"z": -2.3950090821,
				"element": "H" 
			},
			{
				"x": -0.6413276681,
				"y": 1.1410287427,
				"z": -4.178460768,
				"element": "H" 
			},
			{
				"x": -1.3201013093,
				"y": -0.3111040615,
				"z": -3.4457034801,
				"element": "H" 
			},
			{
				"x": 1.227617174,
				"y": 1.0783027714,
				"z": -2.4884586627,
				"element": "H" 
			},
			{
				"x": 1.1997927831,
				"y": -0.367865886,
				"z": -3.4783839317,
				"element": "H" 
			},
			{
				"x": 0.394436063,
				"y": -1.7498135454,
				"z": -1.7060588573,
				"element": "H" 
			},
			{
				"x": 1.4524703668,
				"y": -0.627822457,
				"z": -0.8616507548,
				"element": "H" 
			},
			{
				"x": 0.9102986496,
				"y": 1.0665153676,
				"z": 1.2697282262,
				"element": "H" 
			},
			{
				"x": 1.402645538,
				"y": 0.5179198233,
				"z": 3.6137541309,
				"element": "H" 
			},
			{
				"x": 0.428474255,
				"y": -1.5197163227,
				"z": 4.6607245676,
				"element": "H" 
			},
			{
				"x": -1.0432389422,
				"y": -3.0043394303,
				"z": 3.3096136051,
				"element": "H" 
			},
			{
				"x": -1.5351816033,
				"y": -2.4465361577,
				"z": 0.9449330853,
				"element": "H" 
			}
		],
		 "valence_orbital": [ 
			{
				"type": "occ",
				"energy": -0.307,
				"method": "rhf"
			},
			{
				"type": "occ",
				"energy": -0.29577,
				"method": "rhf"
			},
			{
				"type": "occ",
				"energy": -0.26616,
				"method": "rhf"
			},
			{
				"type": "occ",
				"energy": -0.24566,
				"method": "rhf"
			},
			{
				"type": "occ",
				"energy": -0.23736,
				"method": "rhf"
			},
			{
				"type": "unocc",
				"energy": -0.00029,
				"method": "rhf"
			},
			{
				"type": "unocc",
				"energy": 0.00425,
				"method": "rhf"
			},
			{
				"type": "unocc",
				"energy": 0.06943,
				"method": "rhf"
			},
			{
				"type": "unocc",
				"energy": 0.09632,
				"method": "rhf"
			},
			{
				"type": "unocc",
				"energy": 0.10633,
				"method": "rhf"
			}
		],
		"cosmo_sigma_profile": { 
			"-0.025": 0.0,
			"-0.024": 0.0,
			"-0.023": 0.0,
			"-0.022": 0.0,
			"-0.021": 0.0,
			"-0.02": 0.0,
			"-0.019": 0.0,
			"-0.018": 0.0,
			"-0.017": 0.0,
			"-0.016": 0.0,
			"-0.015": 0.142254960819,
			"-0.014": 0.81033756205,
			"-0.013": 0.745466891497,
			"-0.012": 0.857492057553,
			"-0.011": 0.462584241873,
			"-0.01": 1.25861649784,
			"-0.009": 1.28936494715,
			"-0.008": 0.613671493788,
			"-0.007": 0.795358605715,
			"-0.006": 3.12287280063,
			"-0.005": 10.4623713856,
			"-0.004": 12.1060250807,
			"-0.003": 18.7522252175,
			"-0.002": 27.0050442944,
			"-0.001": 29.2171221929,
			"0.0": 28.2194190693,
			"0.001": 27.3236522363,
			"0.002": 13.6037842904,
			"0.003": 9.66587334284,
			"0.004": 9.50621042399,
			"0.005": 9.34759614142,
			"0.006": 9.6859546031,
			"0.007": 4.78428955883,
			"0.008": 1.46589159727,
			"0.009": 0.818484061413,
			"0.01": 0.932220110512,
			"0.011": 1.28819557412,
			"0.012": 0.929988168448,
			"0.013": 0.693217324392,
			"0.014": 0.743396282291,
			"0.015": 0.0324016935198,
			"0.016": 0.0,
			"0.017": 0.0,
			"0.018": 0.0,
			"0.019": 0.0,
			"0.02": 0.0,
			"0.021": 0.0,
			"0.022": 0.0,
			"0.023": 0.0,
			"0.024": 0.0,
			"0.025": 0.0
		}
	}
}
