{
	 "smiles": "CCCC(=O)NC1=CC=C(OCC(O)CNC(C)C)C(=C1)C(C)=O", 
	 "Tm": 392.15, 
	 "num_atms": 52, 
	 "gaussian": { 
		 "optdone": 1, 
		 "sigma_profile": "yes", 
		 "theory": "DFT", 
		 "functional": "B3LYP", 
		 "basiset": "6-31G**", 
		 "properties": { 
			 "R2extent": 15130.6264, 
			 "electric_dipole_moment_norm": 4.36081916158, 
			 "electric_quadrupole_moment_norm": 22.1434263559, 
			 "total_energy": -1113.20164027, 
			 "HOMO_LUMO_gap": 0.15831, 
			 "cosmo_polarized_energy": -21.46, 
			 "cosmo_cavitation_energy": 53.5, 
			 "cosmo_dispersion_energy": -36.52, 
			 "cosmo_repulsion_energy": 2.84, 
			 "cosmo_total_nonelectrostatic_energy": 19.82, 
			 "SMD_solvation_energy": 8.05 
		},
		"coords": [
			{
				"x": -6.8669617383,
				"y": 1.5645606318,
				"z": 1.3242178743,
				"element": "C" 
			},
			{
				"x": -6.5089456773,
				"y": 0.0883539526,
				"z": 1.5220022246,
				"element": "C" 
			},
			{
				"x": -5.0176679024,
				"y": -0.1482182787,
				"z": 1.798452844,
				"element": "C" 
			},
			{
				"x": -4.5962712819,
				"y": 0.3746291613,
				"z": 3.1674699364,
				"element": "C" 
			},
			{
				"x": -5.3951290298,
				"y": 0.533682097,
				"z": 4.0802888658,
				"element": "O" 
			},
			{
				"x": -3.2620505573,
				"y": 0.6874304683,
				"z": 3.385058252,
				"element": "N" 
			},
			{
				"x": -2.1335336077,
				"y": 0.6664556333,
				"z": 2.5361651272,
				"element": "C" 
			},
			{
				"x": -1.8646518456,
				"y": -0.390676858,
				"z": 1.6512068781,
				"element": "C" 
			},
			{
				"x": -0.7206636164,
				"y": -0.3622070064,
				"z": 0.8622786915,
				"element": "C" 
			},
			{
				"x": 0.1964824733,
				"y": 0.6899427913,
				"z": 0.9519351456,
				"element": "C" 
			},
			{
				"x": 1.3138435134,
				"y": 0.6684023447,
				"z": 0.1425135357,
				"element": "O" 
			},
			{
				"x": 2.3145321391,
				"y": -0.3081840735,
				"z": 0.4892386655,
				"element": "C" 
			},
			{
				"x": 3.3922358174,
				"y": -0.2687269139,
				"z": -0.5887164703,
				"element": "C" 
			},
			{
				"x": 3.9386440164,
				"y": 1.0461003788,
				"z": -0.6988552341,
				"element": "O" 
			},
			{
				"x": 2.9080228194,
				"y": -0.7776999457,
				"z": -1.9510913204,
				"element": "C" 
			},
			{
				"x": 4.0234867218,
				"y": -0.7869826309,
				"z": -2.8873762161,
				"element": "N" 
			},
			{
				"x": 3.6614009837,
				"y": -0.9853985278,
				"z": -4.2956385808,
				"element": "C" 
			},
			{
				"x": 4.87135036,
				"y": -0.635305802,
				"z": -5.1662510917,
				"element": "C" 
			},
			{
				"x": 3.2112362427,
				"y": -2.4308817471,
				"z": -4.5400437147,
				"element": "C" 
			},
			{
				"x": -0.0431190522,
				"y": 1.7506808153,
				"z": 1.8474880098,
				"element": "C" 
			},
			{
				"x": -1.2129927244,
				"y": 1.7125807358,
				"z": 2.6211003551,
				"element": "C" 
			},
			{
				"x": 0.8361689338,
				"y": 2.962175067,
				"z": 2.0552065333,
				"element": "C" 
			},
			{
				"x": 1.9190284324,
				"y": 3.3248798969,
				"z": 1.0594519356,
				"element": "C" 
			},
			{
				"x": 0.636664825,
				"y": 3.6782917238,
				"z": 3.0249520436,
				"element": "O" 
			},
			{
				"x": -6.3049023327,
				"y": 2.0042428752,
				"z": 0.4915891269,
				"element": "H" 
			},
			{
				"x": -6.649289833,
				"y": 2.1420146962,
				"z": 2.2272016983,
				"element": "H" 
			},
			{
				"x": -7.9326242827,
				"y": 1.6818107545,
				"z": 1.1031369525,
				"element": "H" 
			},
			{
				"x": -6.7848938105,
				"y": -0.482738037,
				"z": 0.6274370198,
				"element": "H" 
			},
			{
				"x": -7.0847027321,
				"y": -0.3202514712,
				"z": 2.3577930266,
				"element": "H" 
			},
			{
				"x": -4.3986674728,
				"y": 0.2998863814,
				"z": 1.0129532032,
				"element": "H" 
			},
			{
				"x": -4.809875787,
				"y": -1.2266691877,
				"z": 1.7780949608,
				"element": "H" 
			},
			{
				"x": -3.1352511569,
				"y": 1.1337461053,
				"z": 4.2859000037,
				"element": "H" 
			},
			{
				"x": -2.5362085746,
				"y": -1.2383338074,
				"z": 1.5882129691,
				"element": "H" 
			},
			{
				"x": -0.5212906726,
				"y": -1.1714796558,
				"z": 0.1668802167,
				"element": "H" 
			},
			{
				"x": 1.868493396,
				"y": -1.3084953295,
				"z": 0.5581230815,
				"element": "H" 
			},
			{
				"x": 2.7472053729,
				"y": -0.0514490977,
				"z": 1.4649448466,
				"element": "H" 
			},
			{
				"x": 4.2233480132,
				"y": -0.9034202919,
				"z": -0.260852518,
				"element": "H" 
			},
			{
				"x": 3.1932928954,
				"y": 1.6331325858,
				"z": -0.8929042223,
				"element": "H" 
			},
			{
				"x": 2.0584158698,
				"y": -0.1501142571,
				"z": -2.2859459062,
				"element": "H" 
			},
			{
				"x": 2.5161815327,
				"y": -1.7954919514,
				"z": -1.8263554488,
				"element": "H" 
			},
			{
				"x": 4.5026669442,
				"y": 0.1057883527,
				"z": -2.7881092411,
				"element": "H" 
			},
			{
				"x": 2.8238699504,
				"y": -0.3186425619,
				"z": -4.5861545028,
				"element": "H" 
			},
			{
				"x": 4.6401059108,
				"y": -0.7666765946,
				"z": -6.2276644707,
				"element": "H" 
			},
			{
				"x": 5.720934437,
				"y": -1.2781733673,
				"z": -4.9133220124,
				"element": "H" 
			},
			{
				"x": 5.1786033523,
				"y": 0.4065228822,
				"z": -5.0177486407,
				"element": "H" 
			},
			{
				"x": 4.0102485627,
				"y": -3.1263239686,
				"z": -4.2621537316,
				"element": "H" 
			},
			{
				"x": 2.3208356217,
				"y": -2.686341743,
				"z": -3.9568576684,
				"element": "H" 
			},
			{
				"x": 2.9658855617,
				"y": -2.5835804108,
				"z": -5.5961161893,
				"element": "H" 
			},
			{
				"x": -1.3832767003,
				"y": 2.5416434269,
				"z": 3.3007173247,
				"element": "H" 
			},
			{
				"x": 1.5268011842,
				"y": 3.3182314725,
				"z": 0.0375561384,
				"element": "H" 
			},
			{
				"x": 2.2893620057,
				"y": 4.3190109355,
				"z": 1.313953524,
				"element": "H" 
			},
			{
				"x": 2.7472224994,
				"y": 2.6109673508,
				"z": 1.0924361689,
				"element": "H" 
			}
		],
		 "valence_orbital": [ 
			{
				"type": "occ",
				"energy": -0.2743,
				"method": "rhf"
			},
			{
				"type": "occ",
				"energy": -0.25916,
				"method": "rhf"
			},
			{
				"type": "occ",
				"energy": -0.25531,
				"method": "rhf"
			},
			{
				"type": "occ",
				"energy": -0.2319,
				"method": "rhf"
			},
			{
				"type": "occ",
				"energy": -0.22247,
				"method": "rhf"
			},
			{
				"type": "unocc",
				"energy": -0.06416,
				"method": "rhf"
			},
			{
				"type": "unocc",
				"energy": -0.02606,
				"method": "rhf"
			},
			{
				"type": "unocc",
				"energy": 0.01422,
				"method": "rhf"
			},
			{
				"type": "unocc",
				"energy": 0.03543,
				"method": "rhf"
			},
			{
				"type": "unocc",
				"energy": 0.06112,
				"method": "rhf"
			}
		],
		"cosmo_sigma_profile": { 
			"-0.025": 0.0,
			"-0.024": 0.0,
			"-0.023": 0.0,
			"-0.022": 0.0,
			"-0.021": 0.0,
			"-0.02": 0.0,
			"-0.019": 0.0,
			"-0.018": 0.0,
			"-0.017": 0.0,
			"-0.016": 0.0,
			"-0.015": 0.0,
			"-0.014": 0.826246419182,
			"-0.013": 1.02412723132,
			"-0.012": 1.2848140106,
			"-0.011": 1.90674572477,
			"-0.01": 2.09715459958,
			"-0.009": 2.05390996186,
			"-0.008": 4.29435772279,
			"-0.007": 8.15294289053,
			"-0.006": 16.8128723831,
			"-0.005": 24.6355774594,
			"-0.004": 23.2832380702,
			"-0.003": 36.864344177,
			"-0.002": 43.0194548106,
			"-0.001": 51.3737672839,
			"0.0": 44.6446153445,
			"0.001": 41.4509963642,
			"0.002": 30.2490822237,
			"0.003": 16.7708059294,
			"0.004": 7.87825450992,
			"0.005": 6.01429016808,
			"0.006": 6.42950723471,
			"0.007": 5.20017141045,
			"0.008": 4.44386032156,
			"0.009": 4.85069565799,
			"0.01": 4.95647158582,
			"0.011": 5.84560217678,
			"0.012": 8.282982765,
			"0.013": 6.95569134342,
			"0.014": 4.23196216629,
			"0.015": 0.290635274307,
			"0.016": 0.454915700117,
			"0.017": 0.370281392702,
			"0.018": 0.305764893298,
			"0.019": 0.0,
			"0.02": 0.0,
			"0.021": 0.0,
			"0.022": 0.0,
			"0.023": 0.0,
			"0.024": 0.0,
			"0.025": 0.0
		}
	}
}
