{
	 "smiles": "O=C1NN=C2C=CC=CN12", 
	 "Tm": 507.15, 
	 "num_atms": 15, 
	 "gaussian": { 
		 "optdone": 1, 
		 "sigma_profile": "yes", 
		 "theory": "DFT", 
		 "functional": "B3LYP", 
		 "basiset": "6-31G**", 
		 "properties": { 
			 "R2extent": 1542.7975, 
			 "electric_dipole_moment_norm": 2.92342171094, 
			 "electric_quadrupole_moment_norm": 7.67270375683, 
			 "total_energy": -471.114823403, 
			 "HOMO_LUMO_gap": 0.14963, 
			 "cosmo_polarized_energy": -12.64, 
			 "cosmo_cavitation_energy": 19.55, 
			 "cosmo_dispersion_energy": -15.01, 
			 "cosmo_repulsion_energy": 1.2, 
			 "cosmo_total_nonelectrostatic_energy": 5.74, 
			 "SMD_solvation_energy": 3.74 
		},
		"coords": [
			{
				"x": 3.1015989065,
				"y": -0.634039831,
				"z": 0.4910898375,
				"element": "O" 
			},
			{
				"x": 2.2564856874,
				"y": 0.241696964,
				"z": 0.5746521957,
				"element": "C" 
			},
			{
				"x": 2.3372649024,
				"y": 1.6038325814,
				"z": 0.4211665775,
				"element": "N" 
			},
			{
				"x": 1.1540066495,
				"y": 2.2994621399,
				"z": 0.5915773038,
				"element": "N" 
			},
			{
				"x": 0.2835048179,
				"y": 1.3549123195,
				"z": 0.8635630672,
				"element": "C" 
			},
			{
				"x": -1.1159980441,
				"y": 1.4286073093,
				"z": 1.1405954704,
				"element": "C" 
			},
			{
				"x": -1.7941320291,
				"y": 0.271172836,
				"z": 1.3950056612,
				"element": "C" 
			},
			{
				"x": -1.1313269233,
				"y": -1.0070382091,
				"z": 1.3889927938,
				"element": "C" 
			},
			{
				"x": 0.199794635,
				"y": -1.0770806906,
				"z": 1.125465574,
				"element": "C" 
			},
			{
				"x": 0.8800888766,
				"y": 0.089353076,
				"z": 0.869708387,
				"element": "N" 
			},
			{
				"x": 3.1836290687,
				"y": 2.1029191486,
				"z": 0.1989968567,
				"element": "H" 
			},
			{
				"x": -1.5942550471,
				"y": 2.4009185206,
				"z": 1.1398995913,
				"element": "H" 
			},
			{
				"x": -2.8578575727,
				"y": 0.3076882273,
				"z": 1.6075419043,
				"element": "H" 
			},
			{
				"x": -1.687247487,
				"y": -1.9140555372,
				"z": 1.5933212716,
				"element": "H" 
			},
			{
				"x": 0.8000435594,
				"y": -1.9784488545,
				"z": 1.0942235081,
				"element": "H" 
			}
		],
		 "valence_orbital": [ 
			{
				"type": "occ",
				"energy": -0.32546,
				"method": "rhf"
			},
			{
				"type": "occ",
				"energy": -0.31054,
				"method": "rhf"
			},
			{
				"type": "occ",
				"energy": -0.28209,
				"method": "rhf"
			},
			{
				"type": "occ",
				"energy": -0.26852,
				"method": "rhf"
			},
			{
				"type": "occ",
				"energy": -0.20263,
				"method": "rhf"
			},
			{
				"type": "unocc",
				"energy": -0.053,
				"method": "rhf"
			},
			{
				"type": "unocc",
				"energy": 0.00282,
				"method": "rhf"
			},
			{
				"type": "unocc",
				"energy": 0.05992,
				"method": "rhf"
			},
			{
				"type": "unocc",
				"energy": 0.08063,
				"method": "rhf"
			},
			{
				"type": "unocc",
				"energy": 0.09352,
				"method": "rhf"
			}
		],
		"cosmo_sigma_profile": { 
			"-0.025": 0.0,
			"-0.024": 0.0,
			"-0.023": 0.0,
			"-0.022": 0.0,
			"-0.021": 0.0,
			"-0.02": 0.0,
			"-0.019": 0.0,
			"-0.018": 0.0012791002636,
			"-0.017": 0.795390443633,
			"-0.016": 1.74649622681,
			"-0.015": 0.702392576906,
			"-0.014": 0.977786333255,
			"-0.013": 0.951937357542,
			"-0.012": 0.248095522507,
			"-0.011": 1.42152557431,
			"-0.01": 1.0726756194,
			"-0.009": 1.52582816433,
			"-0.008": 4.59866898711,
			"-0.007": 9.88572026918,
			"-0.006": 8.49478434066,
			"-0.005": 8.14952648629,
			"-0.004": 6.54896959713,
			"-0.003": 10.6456068455,
			"-0.002": 11.7104056222,
			"-0.001": 10.7243102878,
			"0.0": 11.1428017221,
			"0.001": 11.9919002036,
			"0.002": 12.2745422631,
			"0.003": 6.67811072561,
			"0.004": 2.03232211028,
			"0.005": 3.66626374488,
			"0.006": 2.38067135365,
			"0.007": 1.6953741042,
			"0.008": 2.15488535492,
			"0.009": 2.88951093074,
			"0.01": 2.40301651584,
			"0.011": 2.55620250701,
			"0.012": 3.21207334786,
			"0.013": 8.23965817121,
			"0.014": 3.36082885303,
			"0.015": 0.779887091593,
			"0.016": 0.0163089765293,
			"0.017": 0.0,
			"0.018": 0.0,
			"0.019": 0.0,
			"0.02": 0.0,
			"0.021": 0.0,
			"0.022": 0.0,
			"0.023": 0.0,
			"0.024": 0.0,
			"0.025": 0.0
		}
	}
}
