{
	 "smiles": "FC1=NC(F)=C(Cl)C(F)=C1Cl", 
	 "Tm": 298.15, 
	 "num_atms": 11, 
	 "gaussian": { 
		 "optdone": 1, 
		 "sigma_profile": "yes", 
		 "theory": "DFT", 
		 "functional": "B3LYP", 
		 "basiset": "6-31G**", 
		 "properties": { 
			 "R2extent": 3468.8772, 
			 "electric_dipole_moment_norm": 1.032839397, 
			 "electric_quadrupole_moment_norm": 2.83312021453, 
			 "total_energy": -1465.15510911, 
			 "HOMO_LUMO_gap": 0.21428, 
			 "cosmo_polarized_energy": -3.61, 
			 "cosmo_cavitation_energy": 21.4, 
			 "cosmo_dispersion_energy": -15.9, 
			 "cosmo_repulsion_energy": 1.22, 
			 "cosmo_total_nonelectrostatic_energy": 6.72, 
			 "SMD_solvation_energy": 3.12 
		},
		"coords": [
			{
				"x": -1.1962164204,
				"y": -0.1268927998,
				"z": -2.0030596896,
				"element": "F" 
			},
			{
				"x": -0.7035299574,
				"y": 0.6881759271,
				"z": -1.077190162,
				"element": "C" 
			},
			{
				"x": 0.579714047,
				"y": 0.5714756816,
				"z": -0.8065287182,
				"element": "N" 
			},
			{
				"x": 1.0969754632,
				"y": 1.3660636734,
				"z": 0.1070647738,
				"element": "C" 
			},
			{
				"x": 2.3936047799,
				"y": 1.2246097988,
				"z": 0.3581752141,
				"element": "F" 
			},
			{
				"x": 0.3742754583,
				"y": 2.3306799729,
				"z": 0.8139487702,
				"element": "C" 
			},
			{
				"x": 1.1054894893,
				"y": 3.3485899689,
				"z": 2.0049172149,
				"element": "Cl" 
			},
			{
				"x": -0.9854960952,
				"y": 2.4335697751,
				"z": 0.5072655629,
				"element": "C" 
			},
			{
				"x": -1.7355958528,
				"y": 3.3259223351,
				"z": 1.1368939822,
				"element": "F" 
			},
			{
				"x": -1.5601360317,
				"y": 1.6024098349,
				"z": -0.4584403025,
				"element": "C" 
			},
			{
				"x": -3.2397848802,
				"y": 1.7126958321,
				"z": -0.8532466458,
				"element": "Cl" 
			}
		],
		 "valence_orbital": [ 
			{
				"type": "occ",
				"energy": -0.36411,
				"method": "rhf"
			},
			{
				"type": "occ",
				"energy": -0.34429,
				"method": "rhf"
			},
			{
				"type": "occ",
				"energy": -0.32641,
				"method": "rhf"
			},
			{
				"type": "occ",
				"energy": -0.3018,
				"method": "rhf"
			},
			{
				"type": "occ",
				"energy": -0.27222,
				"method": "rhf"
			},
			{
				"type": "unocc",
				"energy": -0.05794,
				"method": "rhf"
			},
			{
				"type": "unocc",
				"energy": -0.0475,
				"method": "rhf"
			},
			{
				"type": "unocc",
				"energy": -0.0232,
				"method": "rhf"
			},
			{
				"type": "unocc",
				"energy": 0.01998,
				"method": "rhf"
			},
			{
				"type": "unocc",
				"energy": 0.10557,
				"method": "rhf"
			}
		],
		"cosmo_sigma_profile": { 
			"-0.025": 0.0,
			"-0.024": 0.0,
			"-0.023": 0.0,
			"-0.022": 0.0,
			"-0.021": 0.0,
			"-0.02": 0.0,
			"-0.019": 0.0,
			"-0.018": 0.0,
			"-0.017": 0.0,
			"-0.016": 0.0,
			"-0.015": 0.0,
			"-0.014": 0.0,
			"-0.013": 0.0,
			"-0.012": 0.0,
			"-0.011": 0.0,
			"-0.01": 0.0,
			"-0.009": 0.00423282927003,
			"-0.008": 0.765174821048,
			"-0.007": 2.18108696199,
			"-0.006": 4.79950688486,
			"-0.005": 14.419930036,
			"-0.004": 12.8322277228,
			"-0.003": 10.9072393942,
			"-0.002": 11.3317233027,
			"-0.001": 10.6815753682,
			"0.0": 13.6710719579,
			"0.001": 21.6605276718,
			"0.002": 44.9818118208,
			"0.003": 20.4784278832,
			"0.004": 2.56564618665,
			"0.005": 1.52263993325,
			"0.006": 1.69479847119,
			"0.007": 0.98489523172,
			"0.008": 1.16258355131,
			"0.009": 1.23727656779,
			"0.01": 0.801662306055,
			"0.011": 0.273275191302,
			"0.012": 0.0,
			"0.013": 0.0,
			"0.014": 0.0,
			"0.015": 0.0,
			"0.016": 0.0,
			"0.017": 0.0,
			"0.018": 0.0,
			"0.019": 0.0,
			"0.02": 0.0,
			"0.021": 0.0,
			"0.022": 0.0,
			"0.023": 0.0,
			"0.024": 0.0,
			"0.025": 0.0
		}
	}
}
