{
	 "smiles": "FC(F)(F)SC1=CC=C(C=O)C=C1", 
	 "Tm": 303.15, 
	 "num_atms": 18, 
	 "gaussian": { 
		 "optdone": 1, 
		 "sigma_profile": "yes", 
		 "theory": "DFT", 
		 "functional": "B3LYP", 
		 "basiset": "6-31G**", 
		 "properties": { 
			 "R2extent": 5421.5407, 
			 "electric_dipole_moment_norm": 1.54413472534, 
			 "electric_quadrupole_moment_norm": 13.4598570472, 
			 "total_energy": -1080.77726639, 
			 "HOMO_LUMO_gap": 0.18055, 
			 "cosmo_polarized_energy": -7.31, 
			 "cosmo_cavitation_energy": 26.34, 
			 "cosmo_dispersion_energy": -18.82, 
			 "cosmo_repulsion_energy": 1.38, 
			 "cosmo_total_nonelectrostatic_energy": 8.9, 
			 "SMD_solvation_energy": 6.35 
		},
		"coords": [
			{
				"x": 4.089456714,
				"y": 0.4222669095,
				"z": 3.6196996313,
				"element": "F" 
			},
			{
				"x": 3.3620995995,
				"y": 0.2465293569,
				"z": 2.5062463859,
				"element": "C" 
			},
			{
				"x": 3.7014146225,
				"y": -0.9408537872,
				"z": 1.9680679438,
				"element": "F" 
			},
			{
				"x": 2.0676881716,
				"y": 0.1687074632,
				"z": 2.8475758858,
				"element": "F" 
			},
			{
				"x": 3.7201695973,
				"y": 1.6562617683,
				"z": 1.4027224531,
				"element": "S" 
			},
			{
				"x": 2.6175915501,
				"y": 1.2774004226,
				"z": 0.0369179501,
				"element": "C" 
			},
			{
				"x": 1.5587829727,
				"y": 2.1577953811,
				"z": -0.2346859411,
				"element": "C" 
			},
			{
				"x": 0.7301353596,
				"y": 1.9263336135,
				"z": -1.326793757,
				"element": "C" 
			},
			{
				"x": 0.9437069519,
				"y": 0.8084588085,
				"z": -2.1456197777,
				"element": "C" 
			},
			{
				"x": 0.0556854542,
				"y": 0.554924543,
				"z": -3.3064093693,
				"element": "C" 
			},
			{
				"x": -0.8795949564,
				"y": 1.2640627344,
				"z": -3.6216755964,
				"element": "O" 
			},
			{
				"x": 1.9996477964,
				"y": -0.0688068027,
				"z": -1.8674835402,
				"element": "C" 
			},
			{
				"x": 2.846369302,
				"y": 0.1671031167,
				"z": -0.7872973527,
				"element": "C" 
			},
			{
				"x": 1.3913836406,
				"y": 3.0111475444,
				"z": 0.414036665,
				"element": "H" 
			},
			{
				"x": -0.0952352936,
				"y": 2.5915101589,
				"z": -1.5598138119,
				"element": "H" 
			},
			{
				"x": 0.3067762333,
				"y": -0.3568388541,
				"z": -3.8922659935,
				"element": "H" 
			},
			{
				"x": 2.1649615769,
				"y": -0.9321651827,
				"z": -2.5077023742,
				"element": "H" 
			},
			{
				"x": 3.6743607074,
				"y": -0.5003371944,
				"z": -0.5790194011,
				"element": "H" 
			}
		],
		 "valence_orbital": [ 
			{
				"type": "occ",
				"energy": -0.35587,
				"method": "rhf"
			},
			{
				"type": "occ",
				"energy": -0.29265,
				"method": "rhf"
			},
			{
				"type": "occ",
				"energy": -0.28258,
				"method": "rhf"
			},
			{
				"type": "occ",
				"energy": -0.26727,
				"method": "rhf"
			},
			{
				"type": "occ",
				"energy": -0.26394,
				"method": "rhf"
			},
			{
				"type": "unocc",
				"energy": -0.08339,
				"method": "rhf"
			},
			{
				"type": "unocc",
				"energy": -0.03211,
				"method": "rhf"
			},
			{
				"type": "unocc",
				"energy": -0.00416,
				"method": "rhf"
			},
			{
				"type": "unocc",
				"energy": 0.02211,
				"method": "rhf"
			},
			{
				"type": "unocc",
				"energy": 0.05224,
				"method": "rhf"
			}
		],
		"cosmo_sigma_profile": { 
			"-0.025": 0.0,
			"-0.024": 0.0,
			"-0.023": 0.0,
			"-0.022": 0.0,
			"-0.021": 0.0,
			"-0.02": 0.0,
			"-0.019": 0.0,
			"-0.018": 0.0,
			"-0.017": 0.0,
			"-0.016": 0.0,
			"-0.015": 0.0,
			"-0.014": 0.0,
			"-0.013": 0.0,
			"-0.012": 0.0,
			"-0.011": 0.0,
			"-0.01": 0.0,
			"-0.009": 0.499246290418,
			"-0.008": 4.69646697825,
			"-0.007": 9.53180151108,
			"-0.006": 10.3501577027,
			"-0.005": 8.90668808128,
			"-0.004": 9.39197280684,
			"-0.003": 11.3703878089,
			"-0.002": 13.3218188279,
			"-0.001": 16.0621363187,
			"0.0": 22.962242223,
			"0.001": 36.060422398,
			"0.002": 39.8893591127,
			"0.003": 6.88846746387,
			"0.004": 4.29819724539,
			"0.005": 3.58147860455,
			"0.006": 1.39663055673,
			"0.007": 1.43471329338,
			"0.008": 2.37861465083,
			"0.009": 1.80826924649,
			"0.01": 3.21610911145,
			"0.011": 4.19719720545,
			"0.012": 1.80995709246,
			"0.013": 0.21135365265,
			"0.014": 0.0,
			"0.015": 0.0,
			"0.016": 0.0,
			"0.017": 0.0,
			"0.018": 0.0,
			"0.019": 0.0,
			"0.02": 0.0,
			"0.021": 0.0,
			"0.022": 0.0,
			"0.023": 0.0,
			"0.024": 0.0,
			"0.025": 0.0
		}
	}
}
