{
	 "smiles": "CC12CCC3C(CCC4CC(C[N+]([O-])=O)=CCC34C)C1CCC2O", 
	 "Tm": 402.15, 
	 "num_atms": 55, 
	 "gaussian": { 
		 "optdone": 1, 
		 "sigma_profile": "yes", 
		 "theory": "DFT", 
		 "functional": "B3LYP", 
		 "basiset": "6-31G**", 
		 "properties": { 
			 "R2extent": 8649.5758, 
			 "electric_dipole_moment_norm": 4.56263893049, 
			 "electric_quadrupole_moment_norm": 11.7980919979, 
			 "total_energy": -1061.12573946, 
			 "HOMO_LUMO_gap": 0.18568, 
			 "cosmo_polarized_energy": -13.35, 
			 "cosmo_cavitation_energy": 47.71, 
			 "cosmo_dispersion_energy": -32.56, 
			 "cosmo_repulsion_energy": 2.4, 
			 "cosmo_total_nonelectrostatic_energy": 17.55, 
			 "SMD_solvation_energy": 8.39 
		},
		"coords": [
			{
				"x": 4.4194418601,
				"y": 1.1068275553,
				"z": -0.97199217,
				"element": "C" 
			},
			{
				"x": 3.3323537555,
				"y": 0.2644468788,
				"z": -0.2718544595,
				"element": "C" 
			},
			{
				"x": 2.7898228714,
				"y": 1.0790019154,
				"z": 0.915805954,
				"element": "C" 
			},
			{
				"x": 1.5142744083,
				"y": 0.5097839355,
				"z": 1.5380694595,
				"element": "C" 
			},
			{
				"x": 0.3778407951,
				"y": 0.3350918565,
				"z": 0.5099174156,
				"element": "C" 
			},
			{
				"x": 0.8332763793,
				"y": -0.5595241994,
				"z": -0.6801017085,
				"element": "C" 
			},
			{
				"x": 0.6027910449,
				"y": -2.0381175362,
				"z": -0.3136465786,
				"element": "C" 
			},
			{
				"x": -0.9186956063,
				"y": -2.32599375,
				"z": -0.1962706106,
				"element": "C" 
			},
			{
				"x": -1.7700205941,
				"y": -1.0941139386,
				"z": 0.2272330981,
				"element": "C" 
			},
			{
				"x": -2.3956776402,
				"y": -0.3810063112,
				"z": -0.9983483709,
				"element": "C" 
			},
			{
				"x": -2.8558230337,
				"y": 1.0315367414,
				"z": -0.7388213405,
				"element": "C" 
			},
			{
				"x": -3.6378019985,
				"y": 1.7227969903,
				"z": -1.827246221,
				"element": "C" 
			},
			{
				"x": -2.7196333713,
				"y": 2.138386741,
				"z": -2.9673263464,
				"element": "N" 
			},
			{
				"x": -2.3307064346,
				"y": 1.2496314622,
				"z": -3.7221023153,
				"element": "O" 
			},
			{
				"x": -2.4114794287,
				"y": 3.3223245262,
				"z": -3.0398603096,
				"element": "O" 
			},
			{
				"x": -2.5917779736,
				"y": 1.6786069083,
				"z": 0.4038094747,
				"element": "C" 
			},
			{
				"x": -1.8367884459,
				"y": 1.0718732062,
				"z": 1.551856974,
				"element": "C" 
			},
			{
				"x": -0.9718091265,
				"y": -0.1607393909,
				"z": 1.1841861637,
				"element": "C" 
			},
			{
				"x": -0.7454696653,
				"y": -0.9421151763,
				"z": 2.5035058409,
				"element": "C" 
			},
			{
				"x": 2.2144180402,
				"y": -0.1223425749,
				"z": -1.2784058298,
				"element": "C" 
			},
			{
				"x": 2.8911622681,
				"y": -1.2139331825,
				"z": -2.1484558953,
				"element": "C" 
			},
			{
				"x": 3.8958875628,
				"y": -1.9375708859,
				"z": -1.20941858,
				"element": "C" 
			},
			{
				"x": 3.9195882469,
				"y": -1.1265027917,
				"z": 0.1052396489,
				"element": "C" 
			},
			{
				"x": 5.2474232752,
				"y": -1.1039777655,
				"z": 0.6205582602,
				"element": "O" 
			},
			{
				"x": 3.9882115405,
				"y": 2.0356246681,
				"z": -1.3611819966,
				"element": "H" 
			},
			{
				"x": 5.2152780895,
				"y": 1.3683274021,
				"z": -0.2687797262,
				"element": "H" 
			},
			{
				"x": 4.892607724,
				"y": 0.5794891347,
				"z": -1.8040984806,
				"element": "H" 
			},
			{
				"x": 3.5703012365,
				"y": 1.1761630689,
				"z": 1.6855481547,
				"element": "H" 
			},
			{
				"x": 2.5910141813,
				"y": 2.1028983861,
				"z": 0.5697200325,
				"element": "H" 
			},
			{
				"x": 1.7400291763,
				"y": -0.4500181118,
				"z": 2.0154055316,
				"element": "H" 
			},
			{
				"x": 1.1852439281,
				"y": 1.1751715133,
				"z": 2.3459815565,
				"element": "H" 
			},
			{
				"x": 0.1761689994,
				"y": 1.3315544576,
				"z": 0.0915459169,
				"element": "H" 
			},
			{
				"x": 0.1490990131,
				"y": -0.3669973624,
				"z": -1.5118151397,
				"element": "H" 
			},
			{
				"x": 1.0296730018,
				"y": -2.7097646763,
				"z": -1.0631986053,
				"element": "H" 
			},
			{
				"x": 1.1074970869,
				"y": -2.2829435248,
				"z": 0.6280882039,
				"element": "H" 
			},
			{
				"x": -1.2938813654,
				"y": -2.68978269,
				"z": -1.1606858657,
				"element": "H" 
			},
			{
				"x": -1.0767502047,
				"y": -3.1461675274,
				"z": 0.5120980013,
				"element": "H" 
			},
			{
				"x": -2.6203526503,
				"y": -1.4646485476,
				"z": 0.8150771351,
				"element": "H" 
			},
			{
				"x": -1.7194199914,
				"y": -0.3758900427,
				"z": -1.8594225468,
				"element": "H" 
			},
			{
				"x": -3.2561053483,
				"y": -0.9766059972,
				"z": -1.3385656758,
				"element": "H" 
			},
			{
				"x": -4.1032678916,
				"y": 2.6439858647,
				"z": -1.4802599797,
				"element": "H" 
			},
			{
				"x": -4.3757230422,
				"y": 1.0613000889,
				"z": -2.288788575,
				"element": "H" 
			},
			{
				"x": -2.9580407304,
				"y": 2.6959063985,
				"z": 0.5366436625,
				"element": "H" 
			},
			{
				"x": -2.562354359,
				"y": 0.7963149453,
				"z": 2.3329758764,
				"element": "H" 
			},
			{
				"x": -1.2000726197,
				"y": 1.8381724807,
				"z": 2.014773467,
				"element": "H" 
			},
			{
				"x": -1.7069950065,
				"y": -1.3110567778,
				"z": 2.8775171746,
				"element": "H" 
			},
			{
				"x": -0.0887834554,
				"y": -1.8068211467,
				"z": 2.3860731891,
				"element": "H" 
			},
			{
				"x": -0.3189370407,
				"y": -0.3059839717,
				"z": 3.2840279162,
				"element": "H" 
			},
			{
				"x": 1.9904076975,
				"y": 0.7602532105,
				"z": -1.8914020271,
				"element": "H" 
			},
			{
				"x": 3.423215,
				"y": -0.7424836266,
				"z": -2.9797395135,
				"element": "H" 
			},
			{
				"x": 2.167476464,
				"y": -1.8960693179,
				"z": -2.6032291576,
				"element": "H" 
			},
			{
				"x": 3.6198208617,
				"y": -2.9797490364,
				"z": -1.0241332635,
				"element": "H" 
			},
			{
				"x": 4.9070418061,
				"y": -1.9470212613,
				"z": -1.6271867054,
				"element": "H" 
			},
			{
				"x": 3.2574840538,
				"y": -1.6067510091,
				"z": 0.841059844,
				"element": "H" 
			},
			{
				"x": 5.224516656,
				"y": -0.6705782054,
				"z": 1.4836200427,
				"element": "H" 
			}
		],
		 "valence_orbital": [ 
			{
				"type": "occ",
				"energy": -0.28673,
				"method": "rhf"
			},
			{
				"type": "occ",
				"energy": -0.27591,
				"method": "rhf"
			},
			{
				"type": "occ",
				"energy": -0.27313,
				"method": "rhf"
			},
			{
				"type": "occ",
				"energy": -0.25323,
				"method": "rhf"
			},
			{
				"type": "occ",
				"energy": -0.2499,
				"method": "rhf"
			},
			{
				"type": "unocc",
				"energy": -0.06422,
				"method": "rhf"
			},
			{
				"type": "unocc",
				"energy": 0.00136,
				"method": "rhf"
			},
			{
				"type": "unocc",
				"energy": 0.05685,
				"method": "rhf"
			},
			{
				"type": "unocc",
				"energy": 0.0702,
				"method": "rhf"
			},
			{
				"type": "unocc",
				"energy": 0.07726,
				"method": "rhf"
			}
		],
		"cosmo_sigma_profile": { 
			"-0.025": 0.0,
			"-0.024": 0.0,
			"-0.023": 0.0,
			"-0.022": 0.0,
			"-0.021": 0.0,
			"-0.02": 0.0,
			"-0.019": 0.0,
			"-0.018": 0.0,
			"-0.017": 0.0,
			"-0.016": 0.0,
			"-0.015": 0.0288926947702,
			"-0.014": 0.528744015273,
			"-0.013": 1.01984056158,
			"-0.012": 0.956435420727,
			"-0.011": 0.624771708119,
			"-0.01": 1.06437270263,
			"-0.009": 1.27042213478,
			"-0.008": 4.24096728284,
			"-0.007": 7.79332648824,
			"-0.006": 7.66717453741,
			"-0.005": 8.80375817595,
			"-0.004": 9.09483451697,
			"-0.003": 27.3111641156,
			"-0.002": 56.673802758,
			"-0.001": 63.6939422399,
			"0.0": 50.3975163232,
			"0.001": 39.4608729244,
			"0.002": 26.3252472694,
			"0.003": 5.53116165159,
			"0.004": 5.79644981575,
			"0.005": 4.57399517648,
			"0.006": 5.82416771117,
			"0.007": 6.06360128159,
			"0.008": 12.3103514186,
			"0.009": 7.5721067339,
			"0.01": 4.68827431036,
			"0.011": 1.42047165012,
			"0.012": 0.952596766142,
			"0.013": 1.57209395428,
			"0.014": 1.88462567699,
			"0.015": 1.01706214611,
			"0.016": 0.0,
			"0.017": 0.0,
			"0.018": 0.0,
			"0.019": 0.0,
			"0.02": 0.0,
			"0.021": 0.0,
			"0.022": 0.0,
			"0.023": 0.0,
			"0.024": 0.0,
			"0.025": 0.0
		}
	}
}
