{
	 "smiles": "OC1=CC=NC2=CC=C(C=C12)C(F)(F)F", 
	 "Tm": 539.15, 
	 "num_atms": 21, 
	 "gaussian": { 
		 "optdone": 1, 
		 "sigma_profile": "yes", 
		 "theory": "DFT", 
		 "functional": "B3LYP", 
		 "basiset": "6-31G**", 
		 "properties": { 
			 "R2extent": 3726.1567, 
			 "electric_dipole_moment_norm": 1.50770987262, 
			 "electric_quadrupole_moment_norm": 7.39737317634, 
			 "total_energy": -814.186270488, 
			 "HOMO_LUMO_gap": 0.17668, 
			 "cosmo_polarized_energy": -10.95, 
			 "cosmo_cavitation_energy": 26.84, 
			 "cosmo_dispersion_energy": -19.61, 
			 "cosmo_repulsion_energy": 1.44, 
			 "cosmo_total_nonelectrostatic_energy": 8.67, 
			 "SMD_solvation_energy": 4.44 
		},
		"coords": [
			{
				"x": 2.6348639308,
				"y": -0.7767200561,
				"z": 3.1573774051,
				"element": "O" 
			},
			{
				"x": 1.4642757726,
				"y": -1.3174729266,
				"z": 2.7445127511,
				"element": "C" 
			},
			{
				"x": 1.0467822417,
				"y": -2.4942866414,
				"z": 3.334672844,
				"element": "C" 
			},
			{
				"x": -0.1693027656,
				"y": -3.069621316,
				"z": 2.9161099862,
				"element": "C" 
			},
			{
				"x": -0.9642733421,
				"y": -2.5696475315,
				"z": 1.9862286804,
				"element": "N" 
			},
			{
				"x": -0.5668627723,
				"y": -1.4098197044,
				"z": 1.3947056048,
				"element": "C" 
			},
			{
				"x": -1.4045755362,
				"y": -0.8500085625,
				"z": 0.3901442838,
				"element": "C" 
			},
			{
				"x": -1.0656178847,
				"y": 0.3170837008,
				"z": -0.2479891603,
				"element": "C" 
			},
			{
				"x": 0.138240117,
				"y": 0.987253732,
				"z": 0.0900627563,
				"element": "C" 
			},
			{
				"x": 0.9745783253,
				"y": 0.4766724255,
				"z": 1.0568965482,
				"element": "C" 
			},
			{
				"x": 0.6475593626,
				"y": -0.7267790863,
				"z": 1.7309540116,
				"element": "C" 
			},
			{
				"x": 0.4756638919,
				"y": 2.2629547162,
				"z": -0.6302243641,
				"element": "C" 
			},
			{
				"x": 1.6469979668,
				"y": 2.7949657814,
				"z": -0.2150083479,
				"element": "F" 
			},
			{
				"x": -0.4809083923,
				"y": 3.2011242611,
				"z": -0.446934344,
				"element": "F" 
			},
			{
				"x": 0.5727768659,
				"y": 2.0654900841,
				"z": -1.9645235324,
				"element": "F" 
			},
			{
				"x": 2.8206425197,
				"y": 0.0398776684,
				"z": 2.6769195044,
				"element": "H" 
			},
			{
				"x": 1.6525679609,
				"y": -2.9572589097,
				"z": 4.1051864834,
				"element": "H" 
			},
			{
				"x": -0.4982453305,
				"y": -3.997787768,
				"z": 3.381815885,
				"element": "H" 
			},
			{
				"x": -2.3180102096,
				"y": -1.3846270583,
				"z": 0.1529219936,
				"element": "H" 
			},
			{
				"x": -1.711666188,
				"y": 0.7356090535,
				"z": -1.0129348625,
				"element": "H" 
			},
			{
				"x": 1.8857134661,
				"y": 1.0229981379,
				"z": 1.2827058733,
				"element": "H" 
			}
		],
		 "valence_orbital": [ 
			{
				"type": "occ",
				"energy": -0.35597,
				"method": "rhf"
			},
			{
				"type": "occ",
				"energy": -0.29416,
				"method": "rhf"
			},
			{
				"type": "occ",
				"energy": -0.26829,
				"method": "rhf"
			},
			{
				"type": "occ",
				"energy": -0.2645,
				"method": "rhf"
			},
			{
				"type": "occ",
				"energy": -0.23861,
				"method": "rhf"
			},
			{
				"type": "unocc",
				"energy": -0.06193,
				"method": "rhf"
			},
			{
				"type": "unocc",
				"energy": -0.03681,
				"method": "rhf"
			},
			{
				"type": "unocc",
				"energy": 0.01196,
				"method": "rhf"
			},
			{
				"type": "unocc",
				"energy": 0.04017,
				"method": "rhf"
			},
			{
				"type": "unocc",
				"energy": 0.06808,
				"method": "rhf"
			}
		],
		"cosmo_sigma_profile": { 
			"-0.025": 0.0,
			"-0.024": 0.0,
			"-0.023": 0.0,
			"-0.022": 0.0,
			"-0.021": 0.0,
			"-0.02": 0.0747529860786,
			"-0.019": 1.09021517353,
			"-0.018": 0.843627048367,
			"-0.017": 0.814021840433,
			"-0.016": 1.0813459181,
			"-0.015": 0.84566141239,
			"-0.014": 0.698552563196,
			"-0.013": 0.899300696884,
			"-0.012": 1.45380415185,
			"-0.011": 1.1741812747,
			"-0.01": 0.68387055479,
			"-0.009": 1.1144015699,
			"-0.008": 2.22495392259,
			"-0.007": 7.02050757684,
			"-0.006": 8.68964923687,
			"-0.005": 9.25067822411,
			"-0.004": 7.96784652575,
			"-0.003": 9.18501500978,
			"-0.002": 9.91185947001,
			"-0.001": 11.3628914507,
			"0.0": 18.4880904824,
			"0.001": 28.6775198422,
			"0.002": 34.5730088311,
			"0.003": 32.3514148575,
			"0.004": 4.18279246515,
			"0.005": 3.75664313485,
			"0.006": 2.25691022561,
			"0.007": 3.25859680458,
			"0.008": 2.64774319479,
			"0.009": 2.56745046829,
			"0.01": 1.87836433318,
			"0.011": 1.42284679785,
			"0.012": 0.886427455031,
			"0.013": 0.654833583972,
			"0.014": 0.835628550339,
			"0.015": 1.10530780309,
			"0.016": 0.366330613276,
			"0.017": 0.172763423927,
			"0.018": 0.0,
			"0.019": 0.0,
			"0.02": 0.0,
			"0.021": 0.0,
			"0.022": 0.0,
			"0.023": 0.0,
			"0.024": 0.0,
			"0.025": 0.0
		}
	}
}
