{
	 "smiles": "FC(F)(F)C1=CC=C(Cl)N=C1Cl", 
	 "Tm": 468.15, 
	 "num_atms": 14, 
	 "gaussian": { 
		 "optdone": 1, 
		 "sigma_profile": "yes", 
		 "theory": "DFT", 
		 "functional": "B3LYP", 
		 "basiset": "6-31G**", 
		 "properties": { 
			 "R2extent": 3425.001, 
			 "electric_dipole_moment_norm": 3.01146203197, 
			 "electric_quadrupole_moment_norm": 7.62098863534, 
			 "total_energy": -1504.49649603, 
			 "HOMO_LUMO_gap": 0.21324, 
			 "cosmo_polarized_energy": -6.35, 
			 "cosmo_cavitation_energy": 23.81, 
			 "cosmo_dispersion_energy": -17.57, 
			 "cosmo_repulsion_energy": 1.35, 
			 "cosmo_total_nonelectrostatic_energy": 7.59, 
			 "SMD_solvation_energy": 3.38 
		},
		"coords": [
			{
				"x": -0.9243509844,
				"y": 2.2511101819,
				"z": 0.4586740656,
				"element": "F" 
			},
			{
				"x": -1.6637937394,
				"y": 1.1404371567,
				"z": 0.2389863009,
				"element": "C" 
			},
			{
				"x": -2.1176122056,
				"y": 1.2064336352,
				"z": -1.0266084071,
				"element": "F" 
			},
			{
				"x": -2.7286581314,
				"y": 1.200453385,
				"z": 1.0602604457,
				"element": "F" 
			},
			{
				"x": -0.8405241343,
				"y": -0.1049013345,
				"z": 0.4765858957,
				"element": "C" 
			},
			{
				"x": 0.4963846166,
				"y": 0.006127404,
				"z": 0.8676593318,
				"element": "C" 
			},
			{
				"x": 1.2611452836,
				"y": -1.1337211481,
				"z": 1.088728244,
				"element": "C" 
			},
			{
				"x": 0.6296158778,
				"y": -2.3632719276,
				"z": 0.9014892894,
				"element": "C" 
			},
			{
				"x": 1.5350488318,
				"y": -3.8384200103,
				"z": 1.1630992822,
				"element": "Cl" 
			},
			{
				"x": -0.6335376478,
				"y": -2.4994557532,
				"z": 0.5318749504,
				"element": "N" 
			},
			{
				"x": -1.349099919,
				"y": -1.4057995617,
				"z": 0.3249982047,
				"element": "C" 
			},
			{
				"x": -3.0072229116,
				"y": -1.6738445815,
				"z": -0.1604602996,
				"element": "Cl" 
			},
			{
				"x": 0.9303095825,
				"y": 0.9906742499,
				"z": 0.9967230073,
				"element": "H" 
			},
			{
				"x": 2.2987954814,
				"y": -1.0773216958,
				"z": 1.392189689,
				"element": "H" 
			}
		],
		 "valence_orbital": [ 
			{
				"type": "occ",
				"energy": -0.33673,
				"method": "rhf"
			},
			{
				"type": "occ",
				"energy": -0.33057,
				"method": "rhf"
			},
			{
				"type": "occ",
				"energy": -0.31721,
				"method": "rhf"
			},
			{
				"type": "occ",
				"energy": -0.30898,
				"method": "rhf"
			},
			{
				"type": "occ",
				"energy": -0.27896,
				"method": "rhf"
			},
			{
				"type": "unocc",
				"energy": -0.06572,
				"method": "rhf"
			},
			{
				"type": "unocc",
				"energy": -0.06033,
				"method": "rhf"
			},
			{
				"type": "unocc",
				"energy": 0.00432,
				"method": "rhf"
			},
			{
				"type": "unocc",
				"energy": 0.03071,
				"method": "rhf"
			},
			{
				"type": "unocc",
				"energy": 0.08568,
				"method": "rhf"
			}
		],
		"cosmo_sigma_profile": { 
			"-0.025": 0.0,
			"-0.024": 0.0,
			"-0.023": 0.0,
			"-0.022": 0.0,
			"-0.021": 0.0,
			"-0.02": 0.0,
			"-0.019": 0.0,
			"-0.018": 0.0,
			"-0.017": 0.0,
			"-0.016": 0.0,
			"-0.015": 0.0,
			"-0.014": 0.0,
			"-0.013": 0.0,
			"-0.012": 0.0,
			"-0.011": 0.0,
			"-0.01": 1.45042505598,
			"-0.009": 4.32332052663,
			"-0.008": 3.27888077712,
			"-0.007": 3.69591607221,
			"-0.006": 3.04902177627,
			"-0.005": 6.36954281415,
			"-0.004": 10.3608613899,
			"-0.003": 16.342910592,
			"-0.002": 17.7783070905,
			"-0.001": 14.5129113763,
			"0.0": 12.8291120541,
			"0.001": 17.0858811979,
			"0.002": 36.0981708219,
			"0.003": 30.7930176453,
			"0.004": 7.99921176806,
			"0.005": 3.2324355809,
			"0.006": 1.92372858312,
			"0.007": 2.15957482283,
			"0.008": 0.965762329593,
			"0.009": 0.704731719385,
			"0.01": 1.33294483844,
			"0.011": 0.757593651341,
			"0.012": 0.22833882109,
			"0.013": 0.0,
			"0.014": 0.0,
			"0.015": 0.0,
			"0.016": 0.0,
			"0.017": 0.0,
			"0.018": 0.0,
			"0.019": 0.0,
			"0.02": 0.0,
			"0.021": 0.0,
			"0.022": 0.0,
			"0.023": 0.0,
			"0.024": 0.0,
			"0.025": 0.0
		}
	}
}
