{
	 "smiles": "OC(=O)C1=C(OC2=C(Br)C=CC=C2)N=CC=C1", 
	 "Tm": 440.15, 
	 "num_atms": 25, 
	 "gaussian": { 
		 "optdone": 1, 
		 "sigma_profile": "yes", 
		 "theory": "DFT", 
		 "functional": "B3LYP", 
		 "basiset": "6-31G**", 
		 "properties": { 
			 "R2extent": 6155.221, 
			 "electric_dipole_moment_norm": 5.69537187372, 
			 "electric_quadrupole_moment_norm": 23.9170933727, 
			 "total_energy": -3313.92786016, 
			 "HOMO_LUMO_gap": 0.19418, 
			 "cosmo_polarized_energy": -13.79, 
			 "cosmo_cavitation_energy": 32.79, 
			 "cosmo_dispersion_energy": -23.34, 
			 "cosmo_repulsion_energy": 1.81, 
			 "cosmo_total_nonelectrostatic_energy": 11.27, 
			 "SMD_solvation_energy": 4.93 
		},
		"coords": [
			{
				"x": -2.621170492,
				"y": 2.6544209813,
				"z": 0.2147743068,
				"element": "O" 
			},
			{
				"x": -2.6207682177,
				"y": 2.4848026971,
				"z": -1.1178836438,
				"element": "C" 
			},
			{
				"x": -3.5085712002,
				"y": 2.9422906574,
				"z": -1.8040766104,
				"element": "O" 
			},
			{
				"x": -1.4785523157,
				"y": 1.7155524032,
				"z": -1.7328470313,
				"element": "C" 
			},
			{
				"x": -0.4219638335,
				"y": 1.0768124247,
				"z": -1.0512721722,
				"element": "C" 
			},
			{
				"x": -0.4380697587,
				"y": 1.1260368629,
				"z": 0.3284525372,
				"element": "O" 
			},
			{
				"x": 0.6395812943,
				"y": 0.6183916992,
				"z": 1.0525325467,
				"element": "C" 
			},
			{
				"x": 1.6847252509,
				"y": 1.4591677654,
				"z": 1.4405521699,
				"element": "C" 
			},
			{
				"x": 1.705712542,
				"y": 3.27847396,
				"z": 0.8853866186,
				"element": "Br" 
			},
			{
				"x": 2.7107521586,
				"y": 0.9651000225,
				"z": 2.2457637,
				"element": "C" 
			},
			{
				"x": 2.6860249213,
				"y": -0.3668284291,
				"z": 2.6590956976,
				"element": "C" 
			},
			{
				"x": 1.637904387,
				"y": -1.2042885708,
				"z": 2.2728834472,
				"element": "C" 
			},
			{
				"x": 0.6123609507,
				"y": -0.7095409859,
				"z": 1.4692875711,
				"element": "C" 
			},
			{
				"x": 0.5672033743,
				"y": 0.4238018937,
				"z": -1.6309975691,
				"element": "N" 
			},
			{
				"x": 0.5715701505,
				"y": 0.359611604,
				"z": -2.9698191797,
				"element": "C" 
			},
			{
				"x": -0.4147470636,
				"y": 0.9380431944,
				"z": -3.764030224,
				"element": "C" 
			},
			{
				"x": -1.4479229496,
				"y": 1.6212346871,
				"z": -3.12670567,
				"element": "C" 
			},
			{
				"x": -1.8371916669,
				"y": 2.2312791686,
				"z": 0.6095380089,
				"element": "H" 
			},
			{
				"x": 3.5173915463,
				"y": 1.6245956858,
				"z": 2.544780723,
				"element": "H" 
			},
			{
				"x": 3.4866503502,
				"y": -0.7453483586,
				"z": 3.2867831098,
				"element": "H" 
			},
			{
				"x": 1.6160398085,
				"y": -2.2399184237,
				"z": 2.5965279401,
				"element": "H" 
			},
			{
				"x": -0.2153503756,
				"y": -1.3372120964,
				"z": 1.1571171503,
				"element": "H" 
			},
			{
				"x": 1.403669396,
				"y": -0.181508732,
				"z": -3.4148534234,
				"element": "H" 
			},
			{
				"x": -0.3728337053,
				"y": 0.8577102728,
				"z": -4.8445577458,
				"element": "H" 
			},
			{
				"x": -2.2507445519,
				"y": 2.0998196161,
				"z": -3.6774322574,
				"element": "H" 
			}
		],
		 "valence_orbital": [ 
			{
				"type": "occ",
				"energy": -0.29689,
				"method": "rhf"
			},
			{
				"type": "occ",
				"energy": -0.2723,
				"method": "rhf"
			},
			{
				"type": "occ",
				"energy": -0.266,
				"method": "rhf"
			},
			{
				"type": "occ",
				"energy": -0.26329,
				"method": "rhf"
			},
			{
				"type": "occ",
				"energy": -0.25556,
				"method": "rhf"
			},
			{
				"type": "unocc",
				"energy": -0.06138,
				"method": "rhf"
			},
			{
				"type": "unocc",
				"energy": -0.02871,
				"method": "rhf"
			},
			{
				"type": "unocc",
				"energy": -0.02637,
				"method": "rhf"
			},
			{
				"type": "unocc",
				"energy": -0.02591,
				"method": "rhf"
			},
			{
				"type": "unocc",
				"energy": -0.00656,
				"method": "rhf"
			}
		],
		"cosmo_sigma_profile": { 
			"-0.025": 0.0,
			"-0.024": 0.0,
			"-0.023": 0.0,
			"-0.022": 0.0,
			"-0.021": 0.0,
			"-0.02": 0.0,
			"-0.019": 0.0,
			"-0.018": 0.0,
			"-0.017": 0.0,
			"-0.016": 0.0,
			"-0.015": 0.0,
			"-0.014": 0.0,
			"-0.013": 0.0,
			"-0.012": 0.0230231666863,
			"-0.011": 0.216683297264,
			"-0.01": 0.802634784935,
			"-0.009": 0.491836946502,
			"-0.008": 5.49324836181,
			"-0.007": 14.39868784,
			"-0.006": 18.4408610111,
			"-0.005": 18.7329157033,
			"-0.004": 14.9064301188,
			"-0.003": 15.4924816081,
			"-0.002": 17.7314885111,
			"-0.001": 21.7124844505,
			"0.0": 22.9886758034,
			"0.001": 23.5237046163,
			"0.002": 21.0750483424,
			"0.003": 19.847543889,
			"0.004": 12.9885053842,
			"0.005": 4.82455794105,
			"0.006": 4.16923374528,
			"0.007": 3.39209860546,
			"0.008": 3.51831002563,
			"0.009": 4.54779976738,
			"0.01": 5.4369814429,
			"0.011": 6.8363573337,
			"0.012": 4.48121143104,
			"0.013": 1.84402452038,
			"0.014": 0.116013932847,
			"0.015": 0.0,
			"0.016": 0.0,
			"0.017": 0.0,
			"0.018": 0.0,
			"0.019": 0.0,
			"0.02": 0.0,
			"0.021": 0.0,
			"0.022": 0.0,
			"0.023": 0.0,
			"0.024": 0.0,
			"0.025": 0.0
		}
	}
}
