{
	 "smiles": "CN1C(CO)=NN=C1C1CCC1", 
	 "Tm": 407.15, 
	 "num_atms": 25, 
	 "gaussian": { 
		 "optdone": 1, 
		 "sigma_profile": "yes", 
		 "theory": "DFT", 
		 "functional": "B3LYP", 
		 "basiset": "6-31G**", 
		 "properties": { 
			 "R2extent": 2698.1651, 
			 "electric_dipole_moment_norm": 4.18924135495, 
			 "electric_quadrupole_moment_norm": 9.70933356467, 
			 "total_energy": -552.112569992, 
			 "HOMO_LUMO_gap": 0.25087, 
			 "cosmo_polarized_energy": -17.35, 
			 "cosmo_cavitation_energy": 27.35, 
			 "cosmo_dispersion_energy": -19.8, 
			 "cosmo_repulsion_energy": 1.6, 
			 "cosmo_total_nonelectrostatic_energy": 9.15, 
			 "SMD_solvation_energy": 2.41 
		},
		"coords": [
			{
				"x": -1.1307770863,
				"y": 1.6018440475,
				"z": -0.1410895355,
				"element": "C" 
			},
			{
				"x": -1.041383857,
				"y": 0.2952112598,
				"z": -0.7794044642,
				"element": "N" 
			},
			{
				"x": -1.9175684059,
				"y": -0.2409858088,
				"z": -1.6942599643,
				"element": "C" 
			},
			{
				"x": -3.1573438928,
				"y": 0.4357042533,
				"z": -2.1875315087,
				"element": "C" 
			},
			{
				"x": -4.0723014477,
				"y": 0.7638023753,
				"z": -1.1398659646,
				"element": "O" 
			},
			{
				"x": -1.5222116838,
				"y": -1.4421821558,
				"z": -2.0518771064,
				"element": "N" 
			},
			{
				"x": -0.3536347113,
				"y": -1.7134649216,
				"z": -1.3737442178,
				"element": "N" 
			},
			{
				"x": -0.0755554372,
				"y": -0.6722994434,
				"z": -0.6159052265,
				"element": "C" 
			},
			{
				"x": 1.1140940049,
				"y": -0.5223618498,
				"z": 0.2748052818,
				"element": "C" 
			},
			{
				"x": 2.0485928807,
				"y": -1.7681337908,
				"z": 0.2769359722,
				"element": "C" 
			},
			{
				"x": 3.000894213,
				"y": -1.0331098598,
				"z": -0.7035401256,
				"element": "C" 
			},
			{
				"x": 2.2935030791,
				"y": 0.3021012784,
				"z": -0.3538693342,
				"element": "C" 
			},
			{
				"x": -0.5687680071,
				"y": 2.3569412308,
				"z": -0.7007177887,
				"element": "H" 
			},
			{
				"x": -0.7248523303,
				"y": 1.5447644014,
				"z": 0.8710493282,
				"element": "H" 
			},
			{
				"x": -2.1811545379,
				"y": 1.8899785319,
				"z": -0.0860427512,
				"element": "H" 
			},
			{
				"x": -2.9219154191,
				"y": 1.389951133,
				"z": -2.6713382927,
				"element": "H" 
			},
			{
				"x": -3.6042834819,
				"y": -0.2222558858,
				"z": -2.9425376144,
				"element": "H" 
			},
			{
				"x": -4.33851165,
				"y": -0.0660745324,
				"z": -0.7209851998,
				"element": "H" 
			},
			{
				"x": 0.7914180718,
				"y": -0.1736251336,
				"z": 1.2634766825,
				"element": "H" 
			},
			{
				"x": 1.5974775434,
				"y": -2.6980756148,
				"z": -0.0707050191,
				"element": "H" 
			},
			{
				"x": 2.4984509766,
				"y": -1.9218500786,
				"z": 1.2618844918,
				"element": "H" 
			},
			{
				"x": 4.0743641333,
				"y": -1.0927256989,
				"z": -0.5044259359,
				"element": "H" 
			},
			{
				"x": 2.8171825704,
				"y": -1.3332023476,
				"z": -1.7383018588,
				"element": "H" 
			},
			{
				"x": 2.8292064686,
				"y": 0.8708156583,
				"z": 0.4122716365,
				"element": "H" 
			},
			{
				"x": 2.0455780065,
				"y": 0.9754329519,
				"z": -1.1799814848,
				"element": "H" 
			}
		],
		 "valence_orbital": [ 
			{
				"type": "occ",
				"energy": -0.29943,
				"method": "rhf"
			},
			{
				"type": "occ",
				"energy": -0.28753,
				"method": "rhf"
			},
			{
				"type": "occ",
				"energy": -0.28021,
				"method": "rhf"
			},
			{
				"type": "occ",
				"energy": -0.24286,
				"method": "rhf"
			},
			{
				"type": "occ",
				"energy": -0.24151,
				"method": "rhf"
			},
			{
				"type": "unocc",
				"energy": 0.00936,
				"method": "rhf"
			},
			{
				"type": "unocc",
				"energy": 0.04454,
				"method": "rhf"
			},
			{
				"type": "unocc",
				"energy": 0.07266,
				"method": "rhf"
			},
			{
				"type": "unocc",
				"energy": 0.08449,
				"method": "rhf"
			},
			{
				"type": "unocc",
				"energy": 0.09815,
				"method": "rhf"
			}
		],
		"cosmo_sigma_profile": { 
			"-0.025": 0.0,
			"-0.024": 0.0,
			"-0.023": 0.0,
			"-0.022": 0.0,
			"-0.021": 0.0,
			"-0.02": 0.0,
			"-0.019": 0.0,
			"-0.018": 0.0,
			"-0.017": 0.104925648006,
			"-0.016": 1.08638836842,
			"-0.015": 0.698942294571,
			"-0.014": 0.735585608396,
			"-0.013": 0.933749621232,
			"-0.012": 0.932019142122,
			"-0.011": 1.00685720368,
			"-0.01": 0.847817505349,
			"-0.009": 0.738765712893,
			"-0.008": 1.12353915135,
			"-0.007": 5.74137752017,
			"-0.006": 11.419854347,
			"-0.005": 13.0602544652,
			"-0.004": 19.1700684003,
			"-0.003": 26.7748134446,
			"-0.002": 20.5298323403,
			"-0.001": 20.206880953,
			"0.0": 17.7268990024,
			"0.001": 16.4884512352,
			"0.002": 7.33626504917,
			"0.003": 3.72647498643,
			"0.004": 3.8693321452,
			"0.005": 4.44994142582,
			"0.006": 2.41307334646,
			"0.007": 2.21248405341,
			"0.008": 3.04831050915,
			"0.009": 3.42691118703,
			"0.01": 2.99568744696,
			"0.011": 3.2988253477,
			"0.012": 3.12489678125,
			"0.013": 4.24271481914,
			"0.014": 3.28686476228,
			"0.015": 3.1904117648,
			"0.016": 2.4471960333,
			"0.017": 1.61442341068,
			"0.018": 0.350241097073,
			"0.019": 0.0,
			"0.02": 0.0,
			"0.021": 0.0,
			"0.022": 0.0,
			"0.023": 0.0,
			"0.024": 0.0,
			"0.025": 0.0
		}
	}
}
