{
	 "smiles": "CC1(C)CCC(C)(C)C1", 
	 "Tm": 184.75, 
	 "num_atms": 27, 
	 "gaussian": { 
		 "optdone": 1, 
		 "sigma_profile": "yes", 
		 "theory": "DFT", 
		 "functional": "B3LYP", 
		 "basiset": "6-31G**", 
		 "properties": { 
			 "R2extent": 1678.9509, 
			 "electric_dipole_moment_norm": 0.0238216288276, 
			 "electric_quadrupole_moment_norm": 0.434686151148, 
			 "total_energy": -353.831773754, 
			 "HOMO_LUMO_gap": 0.36547, 
			 "cosmo_polarized_energy": -0.77, 
			 "cosmo_cavitation_energy": 25.92, 
			 "cosmo_dispersion_energy": -18.39, 
			 "cosmo_repulsion_energy": 1.48, 
			 "cosmo_total_nonelectrostatic_energy": 9.01, 
			 "SMD_solvation_energy": 4.22 
		},
		"coords": [
			{
				"x": 0.5337329324,
				"y": 0.7458915791,
				"z": 1.4206472862,
				"element": "C" 
			},
			{
				"x": 1.0942174444,
				"y": 0.6100674076,
				"z": -0.0086610107,
				"element": "C" 
			},
			{
				"x": 2.3230438563,
				"y": 1.5219160566,
				"z": -0.155775928,
				"element": "C" 
			},
			{
				"x": -0.0084286784,
				"y": 0.9671828904,
				"z": -1.0503863862,
				"element": "C" 
			},
			{
				"x": -0.6566803108,
				"y": -0.3720289524,
				"z": -1.4234955096,
				"element": "C" 
			},
			{
				"x": 0.5241668756,
				"y": -1.3736051139,
				"z": -1.4839130899,
				"element": "C" 
			},
			{
				"x": 1.2642334948,
				"y": -1.2535897361,
				"z": -2.8316310433,
				"element": "C" 
			},
			{
				"x": 0.0602016885,
				"y": -2.8255159268,
				"z": -1.2963342333,
				"element": "C" 
			},
			{
				"x": 1.4346818117,
				"y": -0.8912353069,
				"z": -0.3136965996,
				"element": "C" 
			},
			{
				"x": 1.2641139481,
				"y": 0.4053957236,
				"z": 2.1639060711,
				"element": "H" 
			},
			{
				"x": 0.2842016388,
				"y": 1.7885120669,
				"z": 1.6498925355,
				"element": "H" 
			},
			{
				"x": -0.3750721523,
				"y": 0.1479521746,
				"z": 1.5532814219,
				"element": "H" 
			},
			{
				"x": 2.7695815413,
				"y": 1.4294201416,
				"z": -1.1522013875,
				"element": "H" 
			},
			{
				"x": 3.0956318374,
				"y": 1.2707580838,
				"z": 0.58048166,
				"element": "H" 
			},
			{
				"x": 2.054093893,
				"y": 2.5745757539,
				"z": -0.0071940067,
				"element": "H" 
			},
			{
				"x": 0.4463013655,
				"y": 1.4237273148,
				"z": -1.9377694621,
				"element": "H" 
			},
			{
				"x": -0.7259795927,
				"y": 1.6957658182,
				"z": -0.656602344,
				"element": "H" 
			},
			{
				"x": -1.2257216364,
				"y": -0.3333915271,
				"z": -2.3597263133,
				"element": "H" 
			},
			{
				"x": -1.3570079543,
				"y": -0.6814765896,
				"z": -0.6363205522,
				"element": "H" 
			},
			{
				"x": 2.1336756945,
				"y": -1.9204900982,
				"z": -2.8573778808,
				"element": "H" 
			},
			{
				"x": 0.6078999163,
				"y": -1.5284330498,
				"z": -3.6656767849,
				"element": "H" 
			},
			{
				"x": 1.6262648019,
				"y": -0.2368070853,
				"z": -3.0149463112,
				"element": "H" 
			},
			{
				"x": -0.6097533357,
				"y": -3.1352894801,
				"z": -2.1071983647,
				"element": "H" 
			},
			{
				"x": 0.9104397242,
				"y": -3.5176813775,
				"z": -1.2892570872,
				"element": "H" 
			},
			{
				"x": -0.4794354262,
				"y": -2.9494762426,
				"z": -0.3505506668,
				"element": "H" 
			},
			{
				"x": 2.4949102264,
				"y": -1.0228293614,
				"z": -0.5591585836,
				"element": "H" 
			},
			{
				"x": 1.2486863957,
				"y": -1.5022151633,
				"z": 0.577564571,
				"element": "H" 
			}
		],
		 "valence_orbital": [ 
			{
				"type": "occ",
				"energy": -0.30855,
				"method": "rhf"
			},
			{
				"type": "occ",
				"energy": -0.30569,
				"method": "rhf"
			},
			{
				"type": "occ",
				"energy": -0.30186,
				"method": "rhf"
			},
			{
				"type": "occ",
				"energy": -0.30005,
				"method": "rhf"
			},
			{
				"type": "occ",
				"energy": -0.29335,
				"method": "rhf"
			},
			{
				"type": "unocc",
				"energy": 0.07212,
				"method": "rhf"
			},
			{
				"type": "unocc",
				"energy": 0.10491,
				"method": "rhf"
			},
			{
				"type": "unocc",
				"energy": 0.1119,
				"method": "rhf"
			},
			{
				"type": "unocc",
				"energy": 0.1302,
				"method": "rhf"
			},
			{
				"type": "unocc",
				"energy": 0.13684,
				"method": "rhf"
			}
		],
		"cosmo_sigma_profile": { 
			"-0.025": 0.0,
			"-0.024": 0.0,
			"-0.023": 0.0,
			"-0.022": 0.0,
			"-0.021": 0.0,
			"-0.02": 0.0,
			"-0.019": 0.0,
			"-0.018": 0.0,
			"-0.017": 0.0,
			"-0.016": 0.0,
			"-0.015": 0.0,
			"-0.014": 0.0,
			"-0.013": 0.0,
			"-0.012": 0.0,
			"-0.011": 0.0,
			"-0.01": 0.0,
			"-0.009": 0.0,
			"-0.008": 0.0,
			"-0.007": 0.0,
			"-0.006": 0.0,
			"-0.005": 0.0,
			"-0.004": 0.0,
			"-0.003": 2.64710737237,
			"-0.002": 31.3015735796,
			"-0.001": 44.1417206769,
			"0.0": 43.8738951186,
			"0.001": 38.9513865578,
			"0.002": 33.8858900251,
			"0.003": 3.02916770861,
			"0.004": 0.0,
			"0.005": 0.0,
			"0.006": 0.0,
			"0.007": 0.0,
			"0.008": 0.0,
			"0.009": 0.0,
			"0.01": 0.0,
			"0.011": 0.0,
			"0.012": 0.0,
			"0.013": 0.0,
			"0.014": 0.0,
			"0.015": 0.0,
			"0.016": 0.0,
			"0.017": 0.0,
			"0.018": 0.0,
			"0.019": 0.0,
			"0.02": 0.0,
			"0.021": 0.0,
			"0.022": 0.0,
			"0.023": 0.0,
			"0.024": 0.0,
			"0.025": 0.0
		}
	}
}
