{
	 "smiles": "CC1=CC(C=CC(O)=O)=CC(C)=C1", 
	 "Tm": 409.15, 
	 "num_atms": 25, 
	 "gaussian": { 
		 "optdone": 1, 
		 "sigma_profile": "yes", 
		 "theory": "DFT", 
		 "functional": "B3LYP", 
		 "basiset": "6-31G**", 
		 "properties": { 
			 "R2extent": 3608.2838, 
			 "electric_dipole_moment_norm": 1.41834958667, 
			 "electric_quadrupole_moment_norm": 9.41459023006, 
			 "total_energy": -576.863929312, 
			 "HOMO_LUMO_gap": 0.16439, 
			 "cosmo_polarized_energy": -9.09, 
			 "cosmo_cavitation_energy": 29.05, 
			 "cosmo_dispersion_energy": -20.97, 
			 "cosmo_repulsion_energy": 1.66, 
			 "cosmo_total_nonelectrostatic_energy": 9.75, 
			 "SMD_solvation_energy": 6.32 
		},
		"coords": [
			{
				"x": 1.590731934,
				"y": 2.1659539088,
				"z": 0.6670791838,
				"element": "C" 
			},
			{
				"x": 1.7225155453,
				"y": 0.8649016561,
				"z": -0.0917283328,
				"element": "C" 
			},
			{
				"x": 0.5848883295,
				"y": 0.1919121954,
				"z": -0.5458206511,
				"element": "C" 
			},
			{
				"x": 0.6976971303,
				"y": -1.0332259736,
				"z": -1.2296801122,
				"element": "C" 
			},
			{
				"x": -0.4170840495,
				"y": -1.8274774242,
				"z": -1.7498898671,
				"element": "C" 
			},
			{
				"x": -1.7683354573,
				"y": -1.7175124876,
				"z": -1.7826156892,
				"element": "C" 
			},
			{
				"x": -2.668365311,
				"y": -0.6752107886,
				"z": -1.2659780957,
				"element": "C" 
			},
			{
				"x": -3.961345484,
				"y": -1.0047003266,
				"z": -1.5423568321,
				"element": "O" 
			},
			{
				"x": -2.4040875361,
				"y": 0.3570433333,
				"z": -0.6716282128,
				"element": "O" 
			},
			{
				"x": 1.9878119109,
				"y": -1.5635409483,
				"z": -1.4471687629,
				"element": "C" 
			},
			{
				"x": 3.1373723409,
				"y": -0.9085792351,
				"z": -1.0083420428,
				"element": "C" 
			},
			{
				"x": 4.5124390977,
				"y": -1.4820521915,
				"z": -1.2624752394,
				"element": "C" 
			},
			{
				"x": 2.9849432767,
				"y": 0.3080113139,
				"z": -0.3305856685,
				"element": "C" 
			},
			{
				"x": 0.6215473879,
				"y": 2.6366047297,
				"z": 0.482570404,
				"element": "H" 
			},
			{
				"x": 1.675935874,
				"y": 2.0027428912,
				"z": 1.7486814111,
				"element": "H" 
			},
			{
				"x": 2.3750293555,
				"y": 2.8760052873,
				"z": 0.3850377806,
				"element": "H" 
			},
			{
				"x": -0.3983322485,
				"y": 0.6102851747,
				"z": -0.3742141039,
				"element": "H" 
			},
			{
				"x": -0.0632801445,
				"y": -2.7384702408,
				"z": -2.2333163079,
				"element": "H" 
			},
			{
				"x": -2.3048288982,
				"y": -2.5254213452,
				"z": -2.270333318,
				"element": "H" 
			},
			{
				"x": -4.4973783779,
				"y": -0.2816274227,
				"z": -1.1776964479,
				"element": "H" 
			},
			{
				"x": 2.0875235148,
				"y": -2.5091596999,
				"z": -1.9756026323,
				"element": "H" 
			},
			{
				"x": 5.0876508307,
				"y": -1.5669235977,
				"z": -0.3338194831,
				"element": "H" 
			},
			{
				"x": 4.4537193993,
				"y": -2.4771426146,
				"z": -1.7119907555,
				"element": "H" 
			},
			{
				"x": 5.0906157928,
				"y": -0.8442560041,
				"z": -1.9415247484,
				"element": "H" 
			},
			{
				"x": 3.8719157866,
				"y": 0.8344398104,
				"z": 0.0183985239,
				"element": "H" 
			}
		],
		 "valence_orbital": [ 
			{
				"type": "occ",
				"energy": -0.31365,
				"method": "rhf"
			},
			{
				"type": "occ",
				"energy": -0.29403,
				"method": "rhf"
			},
			{
				"type": "occ",
				"energy": -0.26764,
				"method": "rhf"
			},
			{
				"type": "occ",
				"energy": -0.23726,
				"method": "rhf"
			},
			{
				"type": "occ",
				"energy": -0.229,
				"method": "rhf"
			},
			{
				"type": "unocc",
				"energy": -0.06461,
				"method": "rhf"
			},
			{
				"type": "unocc",
				"energy": 0.00561,
				"method": "rhf"
			},
			{
				"type": "unocc",
				"energy": 0.01833,
				"method": "rhf"
			},
			{
				"type": "unocc",
				"energy": 0.08847,
				"method": "rhf"
			},
			{
				"type": "unocc",
				"energy": 0.09084,
				"method": "rhf"
			}
		],
		"cosmo_sigma_profile": { 
			"-0.025": 0.0,
			"-0.024": 0.0,
			"-0.023": 0.0,
			"-0.022": 0.0,
			"-0.021": 0.0,
			"-0.02": 0.0,
			"-0.019": 0.0,
			"-0.018": 0.276866259105,
			"-0.017": 1.0899124455,
			"-0.016": 0.7126200432,
			"-0.015": 0.59460510213,
			"-0.014": 0.74120988082,
			"-0.013": 1.05471743474,
			"-0.012": 0.561121908302,
			"-0.011": 0.446393014831,
			"-0.01": 0.665720357249,
			"-0.009": 0.459121504801,
			"-0.008": 0.365195520145,
			"-0.007": 4.06833927511,
			"-0.006": 7.10258967726,
			"-0.005": 9.87942943189,
			"-0.004": 16.8207633057,
			"-0.003": 19.4652204426,
			"-0.002": 21.5314138233,
			"-0.001": 21.3744429654,
			"0.0": 24.5755773823,
			"0.001": 18.6128591763,
			"0.002": 15.8370523833,
			"0.003": 16.3795573777,
			"0.004": 14.2307261923,
			"0.005": 13.3236513806,
			"0.006": 4.12437807054,
			"0.007": 2.29937745736,
			"0.008": 3.20312022387,
			"0.009": 3.46104414998,
			"0.01": 2.76566953283,
			"0.011": 2.26719007486,
			"0.012": 2.00444917503,
			"0.013": 0.226766466886,
			"0.014": 0.0,
			"0.015": 0.0,
			"0.016": 0.0,
			"0.017": 0.0,
			"0.018": 0.0,
			"0.019": 0.0,
			"0.02": 0.0,
			"0.021": 0.0,
			"0.022": 0.0,
			"0.023": 0.0,
			"0.024": 0.0,
			"0.025": 0.0
		}
	}
}
