{
	 "smiles": "CC(C)C1=CC(OCC(O)=O)=C(C)C=C1", 
	 "Tm": 427.15, 
	 "num_atms": 31, 
	 "gaussian": { 
		 "optdone": 1, 
		 "sigma_profile": "yes", 
		 "theory": "DFT", 
		 "functional": "B3LYP", 
		 "basiset": "6-31G**", 
		 "properties": { 
			 "R2extent": 4226.381, 
			 "electric_dipole_moment_norm": 2.14417677909, 
			 "electric_quadrupole_moment_norm": 9.02470739138, 
			 "total_energy": -692.608128666, 
			 "HOMO_LUMO_gap": 0.22639, 
			 "cosmo_polarized_energy": -11.56, 
			 "cosmo_cavitation_energy": 34.11, 
			 "cosmo_dispersion_energy": -23.33, 
			 "cosmo_repulsion_energy": 1.87, 
			 "cosmo_total_nonelectrostatic_energy": 12.65, 
			 "SMD_solvation_energy": 7.24 
		},
		"coords": [
			{
				"x": -1.5186333866,
				"y": 0.7928981231,
				"z": 2.1508797204,
				"element": "C" 
			},
			{
				"x": -1.6059720952,
				"y": -0.4180592148,
				"z": 1.2027601366,
				"element": "C" 
			},
			{
				"x": -1.1732925855,
				"y": -1.7115329461,
				"z": 1.918713593,
				"element": "C" 
			},
			{
				"x": -0.8159364456,
				"y": -0.1908918694,
				"z": -0.0792412259,
				"element": "C" 
			},
			{
				"x": 0.571425766,
				"y": 0.0118134052,
				"z": -0.0465673142,
				"element": "C" 
			},
			{
				"x": 1.2847799282,
				"y": 0.2208335348,
				"z": -1.2240868994,
				"element": "C" 
			},
			{
				"x": 2.6697650325,
				"y": 0.3720412518,
				"z": -1.1772407497,
				"element": "O" 
			},
			{
				"x": 3.1505872778,
				"y": 1.6718494967,
				"z": -0.9305276588,
				"element": "C" 
			},
			{
				"x": 3.3792707384,
				"y": 1.9648475375,
				"z": 0.5496666512,
				"element": "C" 
			},
			{
				"x": 3.9430252085,
				"y": 3.189049701,
				"z": 0.6884953173,
				"element": "O" 
			},
			{
				"x": 3.1197954235,
				"y": 1.245126754,
				"z": 1.4844214376,
				"element": "O" 
			},
			{
				"x": 0.6591937268,
				"y": 0.2198559734,
				"z": -2.4823010674,
				"element": "C" 
			},
			{
				"x": 1.4569061645,
				"y": 0.4166776797,
				"z": -3.7475814223,
				"element": "C" 
			},
			{
				"x": -0.723329394,
				"y": 0.0117028028,
				"z": -2.5023510879,
				"element": "C" 
			},
			{
				"x": -1.4498380406,
				"y": -0.184244945,
				"z": -1.3261741146,
				"element": "C" 
			},
			{
				"x": -0.4888008417,
				"y": 0.9612830096,
				"z": 2.4841846606,
				"element": "H" 
			},
			{
				"x": -2.1351720038,
				"y": 0.6318486445,
				"z": 3.0421878237,
				"element": "H" 
			},
			{
				"x": -1.8644085392,
				"y": 1.7072564481,
				"z": 1.6581883254,
				"element": "H" 
			},
			{
				"x": -2.6588140458,
				"y": -0.536498567,
				"z": 0.9137895049,
				"element": "H" 
			},
			{
				"x": -1.7900656613,
				"y": -1.8870177022,
				"z": 2.8071740942,
				"element": "H" 
			},
			{
				"x": -0.129029881,
				"y": -1.6532166542,
				"z": 2.2441114152,
				"element": "H" 
			},
			{
				"x": -1.2690478988,
				"y": -2.5799369854,
				"z": 1.259522416,
				"element": "H" 
			},
			{
				"x": 1.1253559336,
				"y": 0.0072410809,
				"z": 0.8856555054,
				"element": "H" 
			},
			{
				"x": 4.1158408435,
				"y": 1.7769063338,
				"z": -1.4390760448,
				"element": "H" 
			},
			{
				"x": 2.4842782283,
				"y": 2.4477738785,
				"z": -1.3315877589,
				"element": "H" 
			},
			{
				"x": 4.0688171955,
				"y": 3.3274675609,
				"z": 1.6422676112,
				"element": "H" 
			},
			{
				"x": 0.8347744208,
				"y": 0.2431364824,
				"z": -4.6296962733,
				"element": "H" 
			},
			{
				"x": 2.312176198,
				"y": -0.2650233394,
				"z": -3.785991663,
				"element": "H" 
			},
			{
				"x": 1.8608004769,
				"y": 1.4338230125,
				"z": -3.823072725,
				"element": "H" 
			},
			{
				"x": -1.2397122101,
				"y": 0.0001101618,
				"z": -3.4592786812,
				"element": "H" 
			},
			{
				"x": -2.5241395335,
				"y": -0.3425206495,
				"z": -1.3816435263,
				"element": "H" 
			}
		],
		 "valence_orbital": [ 
			{
				"type": "occ",
				"energy": -0.31897,
				"method": "rhf"
			},
			{
				"type": "occ",
				"energy": -0.29295,
				"method": "rhf"
			},
			{
				"type": "occ",
				"energy": -0.27121,
				"method": "rhf"
			},
			{
				"type": "occ",
				"energy": -0.23721,
				"method": "rhf"
			},
			{
				"type": "occ",
				"energy": -0.22642,
				"method": "rhf"
			},
			{
				"type": "unocc",
				"energy": -3e-05,
				"method": "rhf"
			},
			{
				"type": "unocc",
				"energy": 0.00706,
				"method": "rhf"
			},
			{
				"type": "unocc",
				"energy": 0.00757,
				"method": "rhf"
			},
			{
				"type": "unocc",
				"energy": 0.0686,
				"method": "rhf"
			},
			{
				"type": "unocc",
				"energy": 0.08882,
				"method": "rhf"
			}
		],
		"cosmo_sigma_profile": { 
			"-0.025": 0.0,
			"-0.024": 0.0,
			"-0.023": 0.0,
			"-0.022": 0.0,
			"-0.021": 0.0,
			"-0.02": 0.0,
			"-0.019": 0.194030537697,
			"-0.018": 0.883118451112,
			"-0.017": 0.923556730713,
			"-0.016": 0.669915716162,
			"-0.015": 1.06052453682,
			"-0.014": 0.855731257234,
			"-0.013": 0.378753074261,
			"-0.012": 0.112869123328,
			"-0.011": 1.49647294574,
			"-0.01": 0.555385329555,
			"-0.009": 0.793329156685,
			"-0.008": 2.89906786157,
			"-0.007": 5.69668817618,
			"-0.006": 5.08369519673,
			"-0.005": 10.6653284485,
			"-0.004": 17.0078770277,
			"-0.003": 23.1705262245,
			"-0.002": 27.5140765228,
			"-0.001": 26.621871934,
			"0.0": 29.6817555977,
			"0.001": 29.2552004738,
			"0.002": 15.053879704,
			"0.003": 10.752236498,
			"0.004": 11.9930113254,
			"0.005": 11.4050352693,
			"0.006": 8.9669331298,
			"0.007": 3.89443191661,
			"0.008": 4.76129271894,
			"0.009": 3.98817175227,
			"0.01": 3.42203125104,
			"0.011": 6.37621855926,
			"0.012": 1.30905105767,
			"0.013": 0.0,
			"0.014": 0.0,
			"0.015": 0.0,
			"0.016": 0.0,
			"0.017": 0.0,
			"0.018": 0.0,
			"0.019": 0.0,
			"0.02": 0.0,
			"0.021": 0.0,
			"0.022": 0.0,
			"0.023": 0.0,
			"0.024": 0.0,
			"0.025": 0.0
		}
	}
}
