{
	 "smiles": "COC1=C(C=CC=C1)C1=NN=CO1", 
	 "Tm": 323.15, 
	 "num_atms": 21, 
	 "gaussian": { 
		 "optdone": 1, 
		 "sigma_profile": "yes", 
		 "theory": "DFT", 
		 "functional": "B3LYP", 
		 "basiset": "6-31G**", 
		 "properties": { 
			 "R2extent": 2715.0252, 
			 "electric_dipole_moment_norm": 5.14961719937, 
			 "electric_quadrupole_moment_norm": 14.4727304176, 
			 "total_energy": -607.678872841, 
			 "HOMO_LUMO_gap": 0.17987, 
			 "cosmo_polarized_energy": -12.82, 
			 "cosmo_cavitation_energy": 25.63, 
			 "cosmo_dispersion_energy": -19.08, 
			 "cosmo_repulsion_energy": 1.48, 
			 "cosmo_total_nonelectrostatic_energy": 8.04, 
			 "SMD_solvation_energy": 4.57 
		},
		"coords": [
			{
				"x": -0.2248196147,
				"y": 1.6017941027,
				"z": -2.071338015,
				"element": "C" 
			},
			{
				"x": -0.6774555038,
				"y": 0.5511649595,
				"z": -1.2299046603,
				"element": "O" 
			},
			{
				"x": 0.1409638292,
				"y": 0.1000040653,
				"z": -0.2441335197,
				"element": "C" 
			},
			{
				"x": -0.3474901756,
				"y": -0.9488005684,
				"z": 0.5738872759,
				"element": "C" 
			},
			{
				"x": 0.4709887878,
				"y": -1.4417969083,
				"z": 1.6043096336,
				"element": "C" 
			},
			{
				"x": 1.739980161,
				"y": -0.9231503902,
				"z": 1.8329870229,
				"element": "C" 
			},
			{
				"x": 2.211678521,
				"y": 0.1094136268,
				"z": 1.0220248336,
				"element": "C" 
			},
			{
				"x": 1.4218106717,
				"y": 0.6183621943,
				"z": -0.0077759939,
				"element": "C" 
			},
			{
				"x": -1.6634803589,
				"y": -1.5661270132,
				"z": 0.421648045,
				"element": "C" 
			},
			{
				"x": -2.1497459149,
				"y": -2.5331890108,
				"z": 1.153359973,
				"element": "N" 
			},
			{
				"x": -3.4228653456,
				"y": -2.8092365688,
				"z": 0.6637279521,
				"element": "N" 
			},
			{
				"x": -3.6058336752,
				"y": -1.9922125765,
				"z": -0.3201282237,
				"element": "C" 
			},
			{
				"x": -2.548161052,
				"y": -1.1725664908,
				"z": -0.5427673869,
				"element": "O" 
			},
			{
				"x": -1.0383169746,
				"y": 1.7896575956,
				"z": -2.7731320463,
				"element": "H" 
			},
			{
				"x": -0.0201097807,
				"y": 2.5166435464,
				"z": -1.5014654052,
				"element": "H" 
			},
			{
				"x": 0.674994186,
				"y": 1.3140597652,
				"z": -2.6291529303,
				"element": "H" 
			},
			{
				"x": 0.0788726979,
				"y": -2.2444109308,
				"z": 2.2191161714,
				"element": "H" 
			},
			{
				"x": 2.3534393628,
				"y": -1.3204115182,
				"z": 2.6348891996,
				"element": "H" 
			},
			{
				"x": 3.2008801865,
				"y": 0.5269560212,
				"z": 1.1861959177,
				"element": "H" 
			},
			{
				"x": 1.806039711,
				"y": 1.4198997659,
				"z": -0.626131721,
				"element": "H" 
			},
			{
				"x": -4.4683697189,
				"y": -1.8899536668,
				"z": -0.9603161226,
				"element": "H" 
			}
		],
		 "valence_orbital": [ 
			{
				"type": "occ",
				"energy": -0.31596,
				"method": "rhf"
			},
			{
				"type": "occ",
				"energy": -0.30476,
				"method": "rhf"
			},
			{
				"type": "occ",
				"energy": -0.27083,
				"method": "rhf"
			},
			{
				"type": "occ",
				"energy": -0.24766,
				"method": "rhf"
			},
			{
				"type": "occ",
				"energy": -0.22576,
				"method": "rhf"
			},
			{
				"type": "unocc",
				"energy": -0.04589,
				"method": "rhf"
			},
			{
				"type": "unocc",
				"energy": -0.0003,
				"method": "rhf"
			},
			{
				"type": "unocc",
				"energy": 0.01836,
				"method": "rhf"
			},
			{
				"type": "unocc",
				"energy": 0.06073,
				"method": "rhf"
			},
			{
				"type": "unocc",
				"energy": 0.08328,
				"method": "rhf"
			}
		],
		"cosmo_sigma_profile": { 
			"-0.025": 0.0,
			"-0.024": 0.0,
			"-0.023": 0.0,
			"-0.022": 0.0,
			"-0.021": 0.0,
			"-0.02": 0.0,
			"-0.019": 0.0,
			"-0.018": 0.0,
			"-0.017": 0.0,
			"-0.016": 0.0,
			"-0.015": 0.0,
			"-0.014": 0.0,
			"-0.013": 0.0316704896297,
			"-0.012": 1.86970864051,
			"-0.011": 2.06900838315,
			"-0.01": 1.63531342033,
			"-0.009": 1.26640993898,
			"-0.008": 1.39988318985,
			"-0.007": 4.65260187241,
			"-0.006": 15.6217098051,
			"-0.005": 16.7654063847,
			"-0.004": 19.409267788,
			"-0.003": 17.4215743082,
			"-0.002": 11.6752300003,
			"-0.001": 10.7879543948,
			"0.0": 12.2480608226,
			"0.001": 13.1529524072,
			"0.002": 14.1943154944,
			"0.003": 12.7990250743,
			"0.004": 13.6984547102,
			"0.005": 5.18434944118,
			"0.006": 3.59605471874,
			"0.007": 2.88724303359,
			"0.008": 4.53651940448,
			"0.009": 3.71116708414,
			"0.01": 3.46599509494,
			"0.011": 3.72352566341,
			"0.012": 3.27681842177,
			"0.013": 2.57203291539,
			"0.014": 2.06072044088,
			"0.015": 0.718568590842,
			"0.016": 0.0,
			"0.017": 0.0,
			"0.018": 0.0,
			"0.019": 0.0,
			"0.02": 0.0,
			"0.021": 0.0,
			"0.022": 0.0,
			"0.023": 0.0,
			"0.024": 0.0,
			"0.025": 0.0
		}
	}
}
