{
	 "smiles": "OC(=O)C1=C(S)C=CC=C1", 
	 "Tm": 439.15, 
	 "num_atms": 16, 
	 "gaussian": { 
		 "optdone": 1, 
		 "sigma_profile": "yes", 
		 "theory": "DFT", 
		 "functional": "B3LYP", 
		 "basiset": "6-31G**", 
		 "properties": { 
			 "R2extent": 2453.1789, 
			 "electric_dipole_moment_norm": 4.64873261976, 
			 "electric_quadrupole_moment_norm": 11.1684725983, 
			 "total_energy": -818.999335841, 
			 "HOMO_LUMO_gap": 0.20611, 
			 "cosmo_polarized_energy": -11.86, 
			 "cosmo_cavitation_energy": 21.7, 
			 "cosmo_dispersion_energy": -16.84, 
			 "cosmo_repulsion_energy": 1.3, 
			 "cosmo_total_nonelectrostatic_energy": 6.16, 
			 "SMD_solvation_energy": 4.64 
		},
		"coords": [
			{
				"x": 2.1759830457,
				"y": 1.3747244677,
				"z": -2.5202949684,
				"element": "O" 
			},
			{
				"x": 1.7543088632,
				"y": 0.5531695044,
				"z": -1.5451298095,
				"element": "C" 
			},
			{
				"x": 2.3569947325,
				"y": -0.4713648617,
				"z": -1.310619807,
				"element": "O" 
			},
			{
				"x": 0.4955653886,
				"y": 0.9099355459,
				"z": -0.7723451215,
				"element": "C" 
			},
			{
				"x": -0.1518902187,
				"y": 2.1630709102,
				"z": -0.6984957974,
				"element": "C" 
			},
			{
				"x": 0.4047460273,
				"y": 3.6502808495,
				"z": -1.576250114,
				"element": "S" 
			},
			{
				"x": -1.3242650802,
				"y": 2.3042214284,
				"z": 0.0530751097,
				"element": "C" 
			},
			{
				"x": -1.8650403155,
				"y": 1.2198546454,
				"z": 0.7423348946,
				"element": "C" 
			},
			{
				"x": -1.2232813137,
				"y": -0.0170124556,
				"z": 0.6938509814,
				"element": "C" 
			},
			{
				"x": -0.0561447595,
				"y": -0.1602309426,
				"z": -0.0492841036,
				"element": "C" 
			},
			{
				"x": 1.5998817278,
				"y": 2.1635914297,
				"z": -2.5905807494,
				"element": "H" 
			},
			{
				"x": 1.4600639875,
				"y": 3.9513861177,
				"z": -0.7889296009,
				"element": "H" 
			},
			{
				"x": -1.805616656,
				"y": 3.2754313803,
				"z": 0.096921903,
				"element": "H" 
			},
			{
				"x": -2.7768447083,
				"y": 1.3478209519,
				"z": 1.3179944715,
				"element": "H" 
			},
			{
				"x": -1.6287832021,
				"y": -0.8679894653,
				"z": 1.232496775,
				"element": "H" 
			},
			{
				"x": 0.4657224813,
				"y": -1.1091895058,
				"z": -0.0960440634,
				"element": "H" 
			}
		],
		 "valence_orbital": [ 
			{
				"type": "occ",
				"energy": -0.31046,
				"method": "rhf"
			},
			{
				"type": "occ",
				"energy": -0.28895,
				"method": "rhf"
			},
			{
				"type": "occ",
				"energy": -0.27793,
				"method": "rhf"
			},
			{
				"type": "occ",
				"energy": -0.27219,
				"method": "rhf"
			},
			{
				"type": "occ",
				"energy": -0.26706,
				"method": "rhf"
			},
			{
				"type": "unocc",
				"energy": -0.06095,
				"method": "rhf"
			},
			{
				"type": "unocc",
				"energy": -0.03153,
				"method": "rhf"
			},
			{
				"type": "unocc",
				"energy": 0.00632,
				"method": "rhf"
			},
			{
				"type": "unocc",
				"energy": 0.03737,
				"method": "rhf"
			},
			{
				"type": "unocc",
				"energy": 0.04925,
				"method": "rhf"
			}
		],
		"cosmo_sigma_profile": { 
			"-0.025": 0.0,
			"-0.024": 0.0,
			"-0.023": 0.0,
			"-0.022": 0.0,
			"-0.021": 0.0,
			"-0.02": 0.0,
			"-0.019": 0.0,
			"-0.018": 0.0,
			"-0.017": 0.0,
			"-0.016": 0.0,
			"-0.015": 0.0,
			"-0.014": 0.0,
			"-0.013": 0.0,
			"-0.012": 0.64821008668,
			"-0.011": 2.70327326547,
			"-0.01": 2.61320592636,
			"-0.009": 2.54254007834,
			"-0.008": 3.5567746878,
			"-0.007": 7.99287067725,
			"-0.006": 11.4146181701,
			"-0.005": 11.7446113239,
			"-0.004": 9.64061206402,
			"-0.003": 9.98471281318,
			"-0.002": 11.6827410608,
			"-0.001": 11.6349125891,
			"0.0": 10.57188946,
			"0.001": 13.4864040487,
			"0.002": 16.7452190341,
			"0.003": 13.3364332067,
			"0.004": 4.00855711449,
			"0.005": 3.63330927445,
			"0.006": 3.56276644756,
			"0.007": 3.02668630051,
			"0.008": 2.30660868995,
			"0.009": 2.99576807341,
			"0.01": 4.12893607596,
			"0.011": 5.40685977952,
			"0.012": 5.15565892251,
			"0.013": 1.90944697322,
			"0.014": 0.220530476921,
			"0.015": 0.0,
			"0.016": 0.0,
			"0.017": 0.0,
			"0.018": 0.0,
			"0.019": 0.0,
			"0.02": 0.0,
			"0.021": 0.0,
			"0.022": 0.0,
			"0.023": 0.0,
			"0.024": 0.0,
			"0.025": 0.0
		}
	}
}
