{
	 "smiles": "BrC1=CC=C(C=C1)N1C=CNC1=S", 
	 "Tm": 518.15, 
	 "num_atms": 20, 
	 "gaussian": { 
		 "optdone": 1, 
		 "sigma_profile": "yes", 
		 "theory": "DFT", 
		 "functional": "B3LYP", 
		 "basiset": "6-31G**", 
		 "properties": { 
			 "R2extent": 5351.8883, 
			 "electric_dipole_moment_norm": 5.75058266352, 
			 "electric_quadrupole_moment_norm": 16.5038483449, 
			 "total_energy": -3426.2711787, 
			 "HOMO_LUMO_gap": 0.16039, 
			 "cosmo_polarized_energy": -18.18, 
			 "cosmo_cavitation_energy": 28.48, 
			 "cosmo_dispersion_energy": -21.71, 
			 "cosmo_repulsion_energy": 1.67, 
			 "cosmo_total_nonelectrostatic_energy": 8.44, 
			 "SMD_solvation_energy": 3.4 
		},
		"coords": [
			{
				"x": 4.552516951,
				"y": -0.2984379174,
				"z": -0.7268831145,
				"element": "Br" 
			},
			{
				"x": 2.684170804,
				"y": 0.0946095933,
				"z": -0.6876331252,
				"element": "C" 
			},
			{
				"x": 1.9097869971,
				"y": -0.3513095781,
				"z": 0.3829041475,
				"element": "C" 
			},
			{
				"x": 0.5478609744,
				"y": -0.0598854459,
				"z": 0.417663215,
				"element": "C" 
			},
			{
				"x": -0.0333748928,
				"y": 0.6684343778,
				"z": -0.6251198643,
				"element": "C" 
			},
			{
				"x": 0.7498480392,
				"y": 1.1010232974,
				"z": -1.7001921735,
				"element": "C" 
			},
			{
				"x": 2.1151059032,
				"y": 0.8214601891,
				"z": -1.7311463535,
				"element": "C" 
			},
			{
				"x": -1.4164180656,
				"y": 1.0106716412,
				"z": -0.5954702934,
				"element": "N" 
			},
			{
				"x": -1.9021118344,
				"y": 2.2792021377,
				"z": -0.9385746113,
				"element": "C" 
			},
			{
				"x": -3.250324027,
				"y": 2.2411288859,
				"z": -0.8502805895,
				"element": "C" 
			},
			{
				"x": -3.5839407673,
				"y": 0.9547997755,
				"z": -0.458594829,
				"element": "N" 
			},
			{
				"x": -2.476275175,
				"y": 0.1606924109,
				"z": -0.2963565413,
				"element": "C" 
			},
			{
				"x": -2.4866012091,
				"y": -1.457955039,
				"z": 0.1363587138,
				"element": "S" 
			},
			{
				"x": 2.3654533076,
				"y": -0.9161667995,
				"z": 1.1877423059,
				"element": "H" 
			},
			{
				"x": -0.0639888742,
				"y": -0.4026933589,
				"z": 1.2420560796,
				"element": "H" 
			},
			{
				"x": 0.29200306,
				"y": 1.6402560724,
				"z": -2.5232255075,
				"element": "H" 
			},
			{
				"x": 2.7241585358,
				"y": 1.1542557769,
				"z": -2.5634613985,
				"element": "H" 
			},
			{
				"x": -1.2347490093,
				"y": 3.0920795032,
				"z": -1.171415097,
				"element": "H" 
			},
			{
				"x": -3.9875194593,
				"y": 3.0102192526,
				"z": -1.0136150435,
				"element": "H" 
			},
			{
				"x": -4.5090012583,
				"y": 0.582015225,
				"z": -0.3123559199,
				"element": "H" 
			}
		],
		 "valence_orbital": [ 
			{
				"type": "occ",
				"energy": -0.29068,
				"method": "rhf"
			},
			{
				"type": "occ",
				"energy": -0.27288,
				"method": "rhf"
			},
			{
				"type": "occ",
				"energy": -0.24701,
				"method": "rhf"
			},
			{
				"type": "occ",
				"energy": -0.20558,
				"method": "rhf"
			},
			{
				"type": "occ",
				"energy": -0.19351,
				"method": "rhf"
			},
			{
				"type": "unocc",
				"energy": -0.03312,
				"method": "rhf"
			},
			{
				"type": "unocc",
				"energy": -0.02245,
				"method": "rhf"
			},
			{
				"type": "unocc",
				"energy": 0.00258,
				"method": "rhf"
			},
			{
				"type": "unocc",
				"energy": 0.0118,
				"method": "rhf"
			},
			{
				"type": "unocc",
				"energy": 0.0196,
				"method": "rhf"
			}
		],
		"cosmo_sigma_profile": { 
			"-0.025": 0.0,
			"-0.024": 0.0,
			"-0.023": 0.0,
			"-0.022": 0.0,
			"-0.021": 0.0,
			"-0.02": 0.0,
			"-0.019": 0.0,
			"-0.018": 0.0157995061701,
			"-0.017": 0.96450766691,
			"-0.016": 1.18013723788,
			"-0.015": 0.806562205918,
			"-0.014": 1.64846364866,
			"-0.013": 0.665568151527,
			"-0.012": 1.04638958495,
			"-0.011": 1.10883203778,
			"-0.01": 4.56796171526,
			"-0.009": 4.85810664479,
			"-0.008": 6.53842087511,
			"-0.007": 11.2015239986,
			"-0.006": 10.0400230449,
			"-0.005": 10.8313320602,
			"-0.004": 10.0056759608,
			"-0.003": 11.0776236384,
			"-0.002": 10.5012499654,
			"-0.001": 15.4807953503,
			"0.0": 15.9748558077,
			"0.001": 19.4797504766,
			"0.002": 23.6702667467,
			"0.003": 16.3314770744,
			"0.004": 15.3489623937,
			"0.005": 7.44309602542,
			"0.006": 3.89785627321,
			"0.007": 3.77889574649,
			"0.008": 3.38015445819,
			"0.009": 4.35512406893,
			"0.01": 5.14984286124,
			"0.011": 6.13474693287,
			"0.012": 6.33803683385,
			"0.013": 1.51829931706,
			"0.014": 0.0,
			"0.015": 0.0,
			"0.016": 0.0,
			"0.017": 0.0,
			"0.018": 0.0,
			"0.019": 0.0,
			"0.02": 0.0,
			"0.021": 0.0,
			"0.022": 0.0,
			"0.023": 0.0,
			"0.024": 0.0,
			"0.025": 0.0
		}
	}
}
