{
	 "smiles": "CC1=CC(I)=C(C)C=C1I", 
	 "Tm": 377.15, 
	 "num_atms": 18, 
	 "gaussian": { 
		 "optdone": 1, 
		 "sigma_profile": "no", 
		 "theory": "DFT", 
		 "functional": "B3LYP", 
		 "basiset": "6-31G**", 
		 "properties": { 
			 "R2extent": 1912.383, 
			 "electric_dipole_moment_norm": 0.0, 
			 "electric_quadrupole_moment_norm": 6.67382463435, 
			 "total_energy": -332.457426784, 
			 "HOMO_LUMO_gap": 0.19117, 
			 "cosmo_polarized_energy": -158241.33, 
			 "cosmo_cavitation_energy": 27.29, 
			 "cosmo_dispersion_energy": -22.58, 
			 "cosmo_repulsion_energy": 1.75, 
			 "cosmo_total_nonelectrostatic_energy": 6.46, 
			 "SMD_solvation_energy": 3.01 
		},
		"coords": [
			{
				"x": -0.3871949376,
				"y": -2.4592462234,
				"z": 1.3961198079,
				"element": "C" 
			},
			{
				"x": 0.207131491,
				"y": -1.3616908099,
				"z": 0.5509376963,
				"element": "C" 
			},
			{
				"x": -0.6133118975,
				"y": -0.6252500248,
				"z": -0.3159061874,
				"element": "C" 
			},
			{
				"x": -0.1055099485,
				"y": 0.3977811051,
				"z": -1.1148475958,
				"element": "C" 
			},
			{
				"x": -1.4744752639,
				"y": 1.4247415318,
				"z": -2.3787853819,
				"element": "I" 
			},
			{
				"x": 1.2531145386,
				"y": 0.7453574711,
				"z": -1.0946250239,
				"element": "C" 
			},
			{
				"x": 1.8474393676,
				"y": 1.8429113145,
				"z": -1.9398109101,
				"element": "C" 
			},
			{
				"x": 2.0735562578,
				"y": 0.008918241,
				"z": -0.2277823403,
				"element": "C" 
			},
			{
				"x": 1.5657532602,
				"y": -1.0141142916,
				"z": 0.5711610269,
				"element": "C" 
			},
			{
				"x": 2.9347225118,
				"y": -2.0410728154,
				"z": 1.8350956193,
				"element": "I" 
			},
			{
				"x": 0.0800751114,
				"y": -3.4257806585,
				"z": 1.1789032429,
				"element": "H" 
			},
			{
				"x": -0.2359826579,
				"y": -2.2653175646,
				"z": 2.4634742689,
				"element": "H" 
			},
			{
				"x": -1.4606724942,
				"y": -2.5498521486,
				"z": 1.2138468676,
				"element": "H" 
			},
			{
				"x": -1.6701063374,
				"y": -0.8659112923,
				"z": -0.3584977406,
				"element": "H" 
			},
			{
				"x": 2.920917975,
				"y": 1.9335148988,
				"z": -1.7575424373,
				"element": "H" 
			},
			{
				"x": 1.3801728037,
				"y": 2.8094474193,
				"z": -1.7225883416,
				"element": "H" 
			},
			{
				"x": 1.6962195732,
				"y": 1.648985632,
				"z": -3.0071638873,
				"element": "H" 
			},
			{
				"x": 3.1303506468,
				"y": 0.2495782157,
				"z": -0.1851886836,
				"element": "H" 
			}
		],
		 "valence_orbital": [ 
			{
				"type": "occ",
				"energy": -0.27287,
				"method": "rhf"
			},
			{
				"type": "occ",
				"energy": -0.27173,
				"method": "rhf"
			},
			{
				"type": "occ",
				"energy": -0.26965,
				"method": "rhf"
			},
			{
				"type": "occ",
				"energy": -0.25755,
				"method": "rhf"
			},
			{
				"type": "occ",
				"energy": -0.23444,
				"method": "rhf"
			},
			{
				"type": "unocc",
				"energy": -0.04327,
				"method": "rhf"
			},
			{
				"type": "unocc",
				"energy": -0.03858,
				"method": "rhf"
			},
			{
				"type": "unocc",
				"energy": -0.02878,
				"method": "rhf"
			},
			{
				"type": "unocc",
				"energy": -0.01784,
				"method": "rhf"
			},
			{
				"type": "unocc",
				"energy": 0.03406,
				"method": "rhf"
			}
		],
		"cosmo_sigma_profile": { 
			"0.0": 0.0,
			"0.0": 0.0,
			"0.0": 0.0,
			"0.0": 0.0,
			"0.0": 0.0,
			"0.0": 0.0,
			"0.0": 0.0,
			"0.0": 0.0,
			"0.0": 0.0,
			"0.0": 0.0,
			"0.0": 0.0,
			"0.0": 0.0,
			"0.0": 0.0,
			"0.0": 0.0,
			"0.0": 0.0,
			"0.0": 0.0,
			"0.0": 0.0,
			"0.0": 0.0,
			"0.0": 0.0,
			"0.0": 0.0,
			"0.0": 0.0,
			"0.0": 0.0,
			"0.0": 0.0,
			"0.0": 0.0,
			"0.0": 0.0,
			"0.0": 0.0,
			"0.0": 0.0,
			"0.0": 0.0,
			"0.0": 0.0,
			"0.0": 0.0,
			"0.0": 0.0,
			"0.0": 0.0,
			"0.0": 0.0,
			"0.0": 0.0,
			"0.0": 0.0,
			"0.0": 0.0,
			"0.0": 0.0,
			"0.0": 0.0,
			"0.0": 0.0,
			"0.0": 0.0,
			"0.0": 0.0,
			"0.0": 0.0,
			"0.0": 0.0,
			"0.0": 0.0,
			"0.0": 0.0,
			"0.0": 0.0,
			"0.0": 0.0,
			"0.0": 0.0,
			"0.0": 0.0,
			"0.0": 0.0,
			"0.0": 0.0
		}
	}
}
