{
	 "smiles": "CCOC1=CC(=CC=C1C1COC(=N1)C1=C(F)C=CC=C1F)C(C)(C)C", 
	 "Tm": 375.15, 
	 "num_atms": 49, 
	 "gaussian": { 
		 "optdone": 1, 
		 "sigma_profile": "yes", 
		 "theory": "DFT", 
		 "functional": "B3LYP", 
		 "basiset": "6-31G**", 
		 "properties": { 
			 "R2extent": 12703.2883, 
			 "electric_dipole_moment_norm": 1.08729753977, 
			 "electric_quadrupole_moment_norm": 21.6432369259, 
			 "total_energy": -1218.95795756, 
			 "HOMO_LUMO_gap": 0.18458, 
			 "cosmo_polarized_energy": -12.52, 
			 "cosmo_cavitation_energy": 50.82, 
			 "cosmo_dispersion_energy": -33.91, 
			 "cosmo_repulsion_energy": 2.53, 
			 "cosmo_total_nonelectrostatic_energy": 19.44, 
			 "SMD_solvation_energy": 7.57 
		},
		"coords": [
			{
				"x": 1.9276110444,
				"y": 1.7886902948,
				"z": -1.9927673902,
				"element": "C" 
			},
			{
				"x": 0.859789174,
				"y": 0.7605893609,
				"z": -1.6652467475,
				"element": "C" 
			},
			{
				"x": 0.9859142616,
				"y": 0.4228432148,
				"z": -0.2714198462,
				"element": "O" 
			},
			{
				"x": 0.2036173878,
				"y": -0.6241976375,
				"z": 0.1687983251,
				"element": "C" 
			},
			{
				"x": 0.5218329129,
				"y": -1.9321711024,
				"z": -0.2133894915,
				"element": "C" 
			},
			{
				"x": -0.2041937895,
				"y": -3.0328789643,
				"z": 0.2546319111,
				"element": "C" 
			},
			{
				"x": -1.2679771975,
				"y": -2.7711457665,
				"z": 1.1341807942,
				"element": "C" 
			},
			{
				"x": -1.5795799483,
				"y": -1.4706635684,
				"z": 1.5188273155,
				"element": "C" 
			},
			{
				"x": -0.8593875577,
				"y": -0.3665931683,
				"z": 1.0467986695,
				"element": "C" 
			},
			{
				"x": -1.2297275448,
				"y": 1.0326533257,
				"z": 1.489256567,
				"element": "C" 
			},
			{
				"x": -0.1074116034,
				"y": 1.8146904416,
				"z": 2.2311112189,
				"element": "C" 
			},
			{
				"x": -0.1856454857,
				"y": 3.147577494,
				"z": 1.6673559141,
				"element": "O" 
			},
			{
				"x": -1.0165307913,
				"y": 3.0394460307,
				"z": 0.5918484736,
				"element": "C" 
			},
			{
				"x": -1.6141749071,
				"y": 1.9328968798,
				"z": 0.3766004617,
				"element": "N" 
			},
			{
				"x": -1.1648953626,
				"y": 4.2622311172,
				"z": -0.2235985968,
				"element": "C" 
			},
			{
				"x": -0.0767082094,
				"y": 5.0845835289,
				"z": -0.5482635658,
				"element": "C" 
			},
			{
				"x": 1.1544950497,
				"y": 4.7245896738,
				"z": -0.1389992541,
				"element": "F" 
			},
			{
				"x": -0.1998200199,
				"y": 6.2397672719,
				"z": -1.309316343,
				"element": "C" 
			},
			{
				"x": -1.4645801,
				"y": 6.6076872618,
				"z": -1.767883519,
				"element": "C" 
			},
			{
				"x": -2.5807375374,
				"y": 5.8262721085,
				"z": -1.4724449193,
				"element": "C" 
			},
			{
				"x": -2.414613144,
				"y": 4.6748543512,
				"z": -0.7111982314,
				"element": "C" 
			},
			{
				"x": -3.5028763041,
				"y": 3.9502831613,
				"z": -0.4182037834,
				"element": "F" 
			},
			{
				"x": 0.1265563156,
				"y": -4.4813352328,
				"z": -0.1493923429,
				"element": "C" 
			},
			{
				"x": -1.099551484,
				"y": -5.1075934341,
				"z": -0.8557584469,
				"element": "C" 
			},
			{
				"x": 0.4642593903,
				"y": -5.3046202747,
				"z": 1.1163381807,
				"element": "C" 
			},
			{
				"x": 1.3279416834,
				"y": -4.5627180671,
				"z": -1.1099324582,
				"element": "C" 
			},
			{
				"x": 1.8112874173,
				"y": 2.6814226492,
				"z": -1.3734068346,
				"element": "H" 
			},
			{
				"x": 2.9261389506,
				"y": 1.3768203472,
				"z": -1.8179889846,
				"element": "H" 
			},
			{
				"x": 1.8534861489,
				"y": 2.0832258601,
				"z": -3.0447254537,
				"element": "H" 
			},
			{
				"x": -0.1483719842,
				"y": 1.1556918935,
				"z": -1.8422934948,
				"element": "H" 
			},
			{
				"x": 0.98603887,
				"y": -0.1420516457,
				"z": -2.2780460314,
				"element": "H" 
			},
			{
				"x": 1.3698554845,
				"y": -2.0638603586,
				"z": -0.8750522321,
				"element": "H" 
			},
			{
				"x": -1.8633076825,
				"y": -3.5890993804,
				"z": 1.5281844376,
				"element": "H" 
			},
			{
				"x": -2.4112130447,
				"y": -1.3017913769,
				"z": 2.1990007937,
				"element": "H" 
			},
			{
				"x": -2.1111608192,
				"y": 0.9408563139,
				"z": 2.1381038028,
				"element": "H" 
			},
			{
				"x": -0.2697656802,
				"y": 1.8930289679,
				"z": 3.3082733448,
				"element": "H" 
			},
			{
				"x": 0.8887698964,
				"y": 1.4161995828,
				"z": 2.0291213656,
				"element": "H" 
			},
			{
				"x": 0.686612355,
				"y": 6.822644572,
				"z": -1.5307809126,
				"element": "H" 
			},
			{
				"x": -1.5802727032,
				"y": 7.5081656,
				"z": -2.3625850006,
				"element": "H" 
			},
			{
				"x": -3.5751677336,
				"y": 6.0919008386,
				"z": -1.8118130571,
				"element": "H" 
			},
			{
				"x": -1.9809357075,
				"y": -5.1178855599,
				"z": -0.2078853208,
				"element": "H" 
			},
			{
				"x": -1.3577430809,
				"y": -4.5482538822,
				"z": -1.7609465059,
				"element": "H" 
			},
			{
				"x": -0.8856178505,
				"y": -6.1429100963,
				"z": -1.1448473626,
				"element": "H" 
			},
			{
				"x": 0.6949036415,
				"y": -6.3415281285,
				"z": 0.8465535129,
				"element": "H" 
			},
			{
				"x": -0.3692425537,
				"y": -5.322566542,
				"z": 1.8245977513,
				"element": "H" 
			},
			{
				"x": 1.3337285938,
				"y": -4.8868991887,
				"z": 1.6345051145,
				"element": "H" 
			},
			{
				"x": 1.5222325081,
				"y": -5.6084539412,
				"z": -1.3695545723,
				"element": "H" 
			},
			{
				"x": 2.2402257311,
				"y": -4.1607168663,
				"z": -0.6569944439,
				"element": "H" 
			},
			{
				"x": 1.14111301,
				"y": -4.0208779597,
				"z": -2.0429528114,
				"element": "H" 
			}
		],
		 "valence_orbital": [ 
			{
				"type": "occ",
				"energy": -0.26608,
				"method": "rhf"
			},
			{
				"type": "occ",
				"energy": -0.25244,
				"method": "rhf"
			},
			{
				"type": "occ",
				"energy": -0.2414,
				"method": "rhf"
			},
			{
				"type": "occ",
				"energy": -0.23348,
				"method": "rhf"
			},
			{
				"type": "occ",
				"energy": -0.22315,
				"method": "rhf"
			},
			{
				"type": "unocc",
				"energy": -0.03857,
				"method": "rhf"
			},
			{
				"type": "unocc",
				"energy": -0.00635,
				"method": "rhf"
			},
			{
				"type": "unocc",
				"energy": 0.00042,
				"method": "rhf"
			},
			{
				"type": "unocc",
				"energy": 0.00492,
				"method": "rhf"
			},
			{
				"type": "unocc",
				"energy": 0.04305,
				"method": "rhf"
			}
		],
		"cosmo_sigma_profile": { 
			"-0.025": 0.0,
			"-0.024": 0.0,
			"-0.023": 0.0,
			"-0.022": 0.0,
			"-0.021": 0.0,
			"-0.02": 0.0,
			"-0.019": 0.0,
			"-0.018": 0.0,
			"-0.017": 0.0,
			"-0.016": 0.0,
			"-0.015": 0.0,
			"-0.014": 0.0,
			"-0.013": 0.0,
			"-0.012": 0.0,
			"-0.011": 0.0,
			"-0.01": 0.0,
			"-0.009": 0.00214234842613,
			"-0.008": 3.29143324334,
			"-0.007": 6.71143464886,
			"-0.006": 14.607552347,
			"-0.005": 19.3850753085,
			"-0.004": 22.4745123247,
			"-0.003": 37.1907870807,
			"-0.002": 44.3164889222,
			"-0.001": 41.9483649514,
			"0.0": 47.4007989253,
			"0.001": 46.7958755505,
			"0.002": 29.8584069164,
			"0.003": 20.4715499213,
			"0.004": 20.0574598139,
			"0.005": 15.2847512328,
			"0.006": 10.2840405779,
			"0.007": 4.7037050058,
			"0.008": 3.99484672668,
			"0.009": 4.4135944905,
			"0.01": 2.83422593279,
			"0.011": 1.51964872092,
			"0.012": 1.37762636652,
			"0.013": 0.688212706072,
			"0.014": 0.531699548036,
			"0.015": 0.878422261635,
			"0.016": 0.464430158815,
			"0.017": 0.0,
			"0.018": 0.0,
			"0.019": 0.0,
			"0.02": 0.0,
			"0.021": 0.0,
			"0.022": 0.0,
			"0.023": 0.0,
			"0.024": 0.0,
			"0.025": 0.0
		}
	}
}
