{
	 "smiles": "ClC=C", 
	 "Tm": 119.15, 
	 "num_atms": 6, 
	 "gaussian": { 
		 "optdone": 1, 
		 "sigma_profile": "yes", 
		 "theory": "DFT", 
		 "functional": "B3LYP", 
		 "basiset": "6-31G**", 
		 "properties": { 
			 "R2extent": 1094.6061, 
			 "electric_dipole_moment_norm": 1.60432102149, 
			 "electric_quadrupole_moment_norm": 4.8870122928, 
			 "total_energy": -538.184984057, 
			 "HOMO_LUMO_gap": 0.26038, 
			 "cosmo_polarized_energy": -2.81, 
			 "cosmo_cavitation_energy": 11.49, 
			 "cosmo_dispersion_energy": -8.6, 
			 "cosmo_repulsion_energy": 0.82, 
			 "cosmo_total_nonelectrostatic_energy": 3.71, 
			 "SMD_solvation_energy": 3.02 
		},
		"coords": [
			{
				"x": 1.8131005881,
				"y": -2.3054460563,
				"z": -2.0473570643,
				"element": "Cl" 
			},
			{
				"x": 1.0387502486,
				"y": -0.739886115,
				"z": -2.1666053556,
				"element": "C" 
			},
			{
				"x": 1.1677433341,
				"y": 0.2108087422,
				"z": -1.2496230573,
				"element": "C" 
			},
			{
				"x": 0.4467536028,
				"y": -0.6384585496,
				"z": -3.06889753,
				"element": "H" 
			},
			{
				"x": 0.657150415,
				"y": 1.1581266628,
				"z": -1.3911354798,
				"element": "H" 
			},
			{
				"x": 1.7673018113,
				"y": 0.081455316,
				"z": -0.3554815131,
				"element": "H" 
			}
		],
		 "valence_orbital": [ 
			{
				"type": "occ",
				"energy": -0.45027,
				"method": "rhf"
			},
			{
				"type": "occ",
				"energy": -0.38535,
				"method": "rhf"
			},
			{
				"type": "occ",
				"energy": -0.36374,
				"method": "rhf"
			},
			{
				"type": "occ",
				"energy": -0.31233,
				"method": "rhf"
			},
			{
				"type": "occ",
				"energy": -0.26274,
				"method": "rhf"
			},
			{
				"type": "unocc",
				"energy": -0.00236,
				"method": "rhf"
			},
			{
				"type": "unocc",
				"energy": 0.03718,
				"method": "rhf"
			},
			{
				"type": "unocc",
				"energy": 0.1087,
				"method": "rhf"
			},
			{
				"type": "unocc",
				"energy": 0.13434,
				"method": "rhf"
			},
			{
				"type": "unocc",
				"energy": 0.21827,
				"method": "rhf"
			}
		],
		"cosmo_sigma_profile": { 
			"-0.025": 0.0,
			"-0.024": 0.0,
			"-0.023": 0.0,
			"-0.022": 0.0,
			"-0.021": 0.0,
			"-0.02": 0.0,
			"-0.019": 0.0,
			"-0.018": 0.0,
			"-0.017": 0.0,
			"-0.016": 0.0,
			"-0.015": 0.0,
			"-0.014": 0.0,
			"-0.013": 0.0,
			"-0.012": 0.0,
			"-0.011": 0.0,
			"-0.01": 0.0,
			"-0.009": 0.81755686257,
			"-0.008": 2.58833281132,
			"-0.007": 4.3411662531,
			"-0.006": 5.67358039178,
			"-0.005": 4.47188319106,
			"-0.004": 5.14333849112,
			"-0.003": 4.35705057494,
			"-0.002": 5.81982810132,
			"-0.001": 5.91399230541,
			"0.0": 5.93746101675,
			"0.001": 6.97024331464,
			"0.002": 7.87203229499,
			"0.003": 9.76489763012,
			"0.004": 11.1498416927,
			"0.005": 12.6773959726,
			"0.006": 0.828991458598,
			"0.007": 0.0,
			"0.008": 0.0,
			"0.009": 0.0,
			"0.01": 0.0,
			"0.011": 0.0,
			"0.012": 0.0,
			"0.013": 0.0,
			"0.014": 0.0,
			"0.015": 0.0,
			"0.016": 0.0,
			"0.017": 0.0,
			"0.018": 0.0,
			"0.019": 0.0,
			"0.02": 0.0,
			"0.021": 0.0,
			"0.022": 0.0,
			"0.023": 0.0,
			"0.024": 0.0,
			"0.025": 0.0
		}
	}
}
