{
	 "smiles": "OC(=O)C1=C(OC=N1)C1=CC=CS1", 
	 "Tm": 474.15, 
	 "num_atms": 18, 
	 "gaussian": { 
		 "optdone": 1, 
		 "sigma_profile": "yes", 
		 "theory": "DFT", 
		 "functional": "B3LYP", 
		 "basiset": "6-31G**", 
		 "properties": { 
			 "R2extent": 3225.9448, 
			 "electric_dipole_moment_norm": 4.04161614456, 
			 "electric_quadrupole_moment_norm": 20.4897254254, 
			 "total_energy": -986.452838049, 
			 "HOMO_LUMO_gap": 0.15453, 
			 "cosmo_polarized_energy": -14.69, 
			 "cosmo_cavitation_energy": 25.04, 
			 "cosmo_dispersion_energy": -19.31, 
			 "cosmo_repulsion_energy": 1.46, 
			 "cosmo_total_nonelectrostatic_energy": 7.19, 
			 "SMD_solvation_energy": 5.14 
		},
		"coords": [
			{
				"x": -0.2871275134,
				"y": 2.2082979586,
				"z": 2.6342455481,
				"element": "O" 
			},
			{
				"x": 0.3431950903,
				"y": 3.1334693593,
				"z": 1.8583513412,
				"element": "C" 
			},
			{
				"x": 0.4247785632,
				"y": 4.2950497539,
				"z": 2.1906877424,
				"element": "O" 
			},
			{
				"x": 0.8963738281,
				"y": 2.5798471418,
				"z": 0.6108405901,
				"element": "C" 
			},
			{
				"x": 0.9100003517,
				"y": 1.3068200507,
				"z": 0.0562474515,
				"element": "C" 
			},
			{
				"x": 1.584382378,
				"y": 1.4198873319,
				"z": -1.1357350074,
				"element": "O" 
			},
			{
				"x": 1.9356221192,
				"y": 2.731860946,
				"z": -1.2352910301,
				"element": "C" 
			},
			{
				"x": 1.5599495391,
				"y": 3.4575141167,
				"z": -0.2432740618,
				"element": "N" 
			},
			{
				"x": 0.447198637,
				"y": -0.0292272377,
				"z": 0.3501388685,
				"element": "C" 
			},
			{
				"x": -0.2552070323,
				"y": -0.530311134,
				"z": 1.4286828428,
				"element": "C" 
			},
			{
				"x": -0.5147919769,
				"y": -1.922916517,
				"z": 1.3264660178,
				"element": "C" 
			},
			{
				"x": -0.0133887078,
				"y": -2.477381351,
				"z": 0.1783432859,
				"element": "C" 
			},
			{
				"x": 0.7896018159,
				"y": -1.3089128004,
				"z": -0.8078641726,
				"element": "S" 
			},
			{
				"x": -0.5986225094,
				"y": 2.7004584838,
				"z": 3.4120224187,
				"element": "H" 
			},
			{
				"x": 2.4827354871,
				"y": 3.0206568061,
				"z": -2.1202650807,
				"element": "H" 
			},
			{
				"x": -0.5662767541,
				"y": 0.089625158,
				"z": 2.255487996,
				"element": "H" 
			},
			{
				"x": -1.0532164319,
				"y": -2.4886437854,
				"z": 2.0778969045,
				"element": "H" 
			},
			{
				"x": -0.0688068839,
				"y": -3.5071942813,
				"z": -0.1471816551,
				"element": "H" 
			}
		],
		 "valence_orbital": [ 
			{
				"type": "occ",
				"energy": -0.30153,
				"method": "rhf"
			},
			{
				"type": "occ",
				"energy": -0.29901,
				"method": "rhf"
			},
			{
				"type": "occ",
				"energy": -0.27878,
				"method": "rhf"
			},
			{
				"type": "occ",
				"energy": -0.26492,
				"method": "rhf"
			},
			{
				"type": "occ",
				"energy": -0.22536,
				"method": "rhf"
			},
			{
				"type": "unocc",
				"energy": -0.07083,
				"method": "rhf"
			},
			{
				"type": "unocc",
				"energy": -0.00489,
				"method": "rhf"
			},
			{
				"type": "unocc",
				"energy": 0.01126,
				"method": "rhf"
			},
			{
				"type": "unocc",
				"energy": 0.01859,
				"method": "rhf"
			},
			{
				"type": "unocc",
				"energy": 0.05733,
				"method": "rhf"
			}
		],
		"cosmo_sigma_profile": { 
			"-0.025": 0.0,
			"-0.024": 0.0,
			"-0.023": 0.0,
			"-0.022": 0.0,
			"-0.021": 0.0,
			"-0.02": 0.0,
			"-0.019": 0.062958581031,
			"-0.018": 0.83001973731,
			"-0.017": 1.05218818808,
			"-0.016": 0.825026640812,
			"-0.015": 0.796342495708,
			"-0.014": 0.2855757402,
			"-0.013": 0.790178945821,
			"-0.012": 1.9730944258,
			"-0.011": 2.97007664222,
			"-0.01": 2.69970199136,
			"-0.009": 4.0547991259,
			"-0.008": 4.90676890886,
			"-0.007": 5.31473437779,
			"-0.006": 6.55294969428,
			"-0.005": 7.0769464105,
			"-0.004": 9.7413111364,
			"-0.003": 11.9785307455,
			"-0.002": 16.2944225854,
			"-0.001": 16.0274831559,
			"0.0": 13.114797445,
			"0.001": 13.5329312055,
			"0.002": 24.0233904688,
			"0.003": 20.3293634252,
			"0.004": 9.73391677819,
			"0.005": 2.8950759246,
			"0.006": 2.238461865,
			"0.007": 1.60220781307,
			"0.008": 1.93286812376,
			"0.009": 2.21413938945,
			"0.01": 3.22372253918,
			"0.011": 4.83485666524,
			"0.012": 4.39917188262,
			"0.013": 2.29996460141,
			"0.014": 1.70846826784,
			"0.015": 1.66916212477,
			"0.016": 0.963168702565,
			"0.017": 0.0,
			"0.018": 0.0,
			"0.019": 0.0,
			"0.02": 0.0,
			"0.021": 0.0,
			"0.022": 0.0,
			"0.023": 0.0,
			"0.024": 0.0,
			"0.025": 0.0
		}
	}
}
