{
	 "smiles": "OC(=O)CCCOC1=CC=C(Br)C=C1", 
	 "Tm": 404.15, 
	 "num_atms": 25, 
	 "gaussian": { 
		 "optdone": 1, 
		 "sigma_profile": "yes", 
		 "theory": "DFT", 
		 "functional": "B3LYP", 
		 "basiset": "6-31G**", 
		 "properties": { 
			 "R2extent": 7229.418, 
			 "electric_dipole_moment_norm": 3.69236930981, 
			 "electric_quadrupole_moment_norm": 16.0420208244, 
			 "total_energy": -3184.78033462, 
			 "HOMO_LUMO_gap": 0.20632, 
			 "cosmo_polarized_energy": -12.67, 
			 "cosmo_cavitation_energy": 31.91, 
			 "cosmo_dispersion_energy": -23.23, 
			 "cosmo_repulsion_energy": 1.87, 
			 "cosmo_total_nonelectrostatic_energy": 10.55, 
			 "SMD_solvation_energy": 5.47 
		},
		"coords": [
			{
				"x": -2.1949477788,
				"y": 2.5272537423,
				"z": -3.4935221728,
				"element": "O" 
			},
			{
				"x": -1.2056103331,
				"y": 1.6154324752,
				"z": -3.6893342033,
				"element": "C" 
			},
			{
				"x": -0.1349263503,
				"y": 1.9197995367,
				"z": -4.1637430592,
				"element": "O" 
			},
			{
				"x": -1.6150114915,
				"y": 0.2099667908,
				"z": -3.29383418,
				"element": "C" 
			},
			{
				"x": -2.6674941724,
				"y": 0.0951719624,
				"z": -2.1825955841,
				"element": "C" 
			},
			{
				"x": -2.1949972139,
				"y": 0.6072304449,
				"z": -0.827571203,
				"element": "C" 
			},
			{
				"x": -1.0754330176,
				"y": -0.1833638846,
				"z": -0.428692514,
				"element": "O" 
			},
			{
				"x": -0.4600034174,
				"y": 0.0966090083,
				"z": 0.7560512998,
				"element": "C" 
			},
			{
				"x": 0.643127916,
				"y": -0.7095148877,
				"z": 1.0756517451,
				"element": "C" 
			},
			{
				"x": 1.3403303889,
				"y": -0.5117626392,
				"z": 2.261098416,
				"element": "C" 
			},
			{
				"x": 0.9357367221,
				"y": 0.4982362948,
				"z": 3.1370482218,
				"element": "C" 
			},
			{
				"x": 1.8932621612,
				"y": 0.7730534122,
				"z": 4.7702592846,
				"element": "Br" 
			},
			{
				"x": -0.1550930416,
				"y": 1.3042688802,
				"z": 2.8327323703,
				"element": "C" 
			},
			{
				"x": -0.8579037083,
				"y": 1.106368782,
				"z": 1.640356827,
				"element": "C" 
			},
			{
				"x": -1.8379811121,
				"y": 3.3757898726,
				"z": -3.8064317151,
				"element": "H" 
			},
			{
				"x": -0.6994878586,
				"y": -0.3208022889,
				"z": -3.0245152003,
				"element": "H" 
			},
			{
				"x": -1.9970781494,
				"y": -0.2647730233,
				"z": -4.2070655507,
				"element": "H" 
			},
			{
				"x": -3.5689018478,
				"y": 0.6500635382,
				"z": -2.4602049985,
				"element": "H" 
			},
			{
				"x": -2.9516782409,
				"y": -0.9575512428,
				"z": -2.0772448733,
				"element": "H" 
			},
			{
				"x": -1.9079930509,
				"y": 1.6658478638,
				"z": -0.8897479305,
				"element": "H" 
			},
			{
				"x": -3.0015276968,
				"y": 0.5174873321,
				"z": -0.086655597,
				"element": "H" 
			},
			{
				"x": 0.9386873723,
				"y": -1.4866831865,
				"z": 0.378650451,
				"element": "H" 
			},
			{
				"x": 2.192569515,
				"y": -1.1360572815,
				"z": 2.5044141884,
				"element": "H" 
			},
			{
				"x": -0.4628129496,
				"y": 2.0863029509,
				"z": 3.5176850873,
				"element": "H" 
			},
			{
				"x": -1.7056326443,
				"y": 1.7434255473,
				"z": 1.4194108905,
				"element": "H" 
			}
		],
		 "valence_orbital": [ 
			{
				"type": "occ",
				"energy": -0.28875,
				"method": "rhf"
			},
			{
				"type": "occ",
				"energy": -0.28246,
				"method": "rhf"
			},
			{
				"type": "occ",
				"energy": -0.2772,
				"method": "rhf"
			},
			{
				"type": "occ",
				"energy": -0.26293,
				"method": "rhf"
			},
			{
				"type": "occ",
				"energy": -0.21991,
				"method": "rhf"
			},
			{
				"type": "unocc",
				"energy": -0.01359,
				"method": "rhf"
			},
			{
				"type": "unocc",
				"energy": 0.0005,
				"method": "rhf"
			},
			{
				"type": "unocc",
				"energy": 0.00318,
				"method": "rhf"
			},
			{
				"type": "unocc",
				"energy": 0.01175,
				"method": "rhf"
			},
			{
				"type": "unocc",
				"energy": 0.06651,
				"method": "rhf"
			}
		],
		"cosmo_sigma_profile": { 
			"-0.025": 0.0,
			"-0.024": 0.0,
			"-0.023": 0.0,
			"-0.022": 0.0,
			"-0.021": 0.0,
			"-0.02": 0.0,
			"-0.019": 0.0,
			"-0.018": 0.61443561018,
			"-0.017": 0.743306181345,
			"-0.016": 0.761791131148,
			"-0.015": 0.952312531937,
			"-0.014": 0.883100471718,
			"-0.013": 1.0048003489,
			"-0.012": 0.23342460567,
			"-0.011": 0.455942973578,
			"-0.01": 0.779938300539,
			"-0.009": 0.589958433035,
			"-0.008": 0.865561506579,
			"-0.007": 7.93332044804,
			"-0.006": 12.8773547035,
			"-0.005": 18.4317329376,
			"-0.004": 21.6989398742,
			"-0.003": 20.2643313729,
			"-0.002": 18.6834670908,
			"-0.001": 14.307521458,
			"0.0": 13.313720642,
			"0.001": 14.1415741574,
			"0.002": 17.8361500325,
			"0.003": 24.1917901468,
			"0.004": 25.011127872,
			"0.005": 14.6553064997,
			"0.006": 4.68834935647,
			"0.007": 2.94055950458,
			"0.008": 3.37218184897,
			"0.009": 1.91100857058,
			"0.01": 2.68293846975,
			"0.011": 2.69423891749,
			"0.012": 5.32789516836,
			"0.013": 1.37273461079,
			"0.014": 0.0,
			"0.015": 0.0,
			"0.016": 0.0,
			"0.017": 0.0,
			"0.018": 0.0,
			"0.019": 0.0,
			"0.02": 0.0,
			"0.021": 0.0,
			"0.022": 0.0,
			"0.023": 0.0,
			"0.024": 0.0,
			"0.025": 0.0
		}
	}
}
