{
	 "smiles": "OC1=CC(Cl)=CC(O)=C1", 
	 "Tm": 391.15, 
	 "num_atms": 14, 
	 "gaussian": { 
		 "optdone": 1, 
		 "sigma_profile": "yes", 
		 "theory": "DFT", 
		 "functional": "B3LYP", 
		 "basiset": "6-31G**", 
		 "properties": { 
			 "R2extent": 2139.7889, 
			 "electric_dipole_moment_norm": 2.41985563206, 
			 "electric_quadrupole_moment_norm": 9.10429304614, 
			 "total_energy": -842.28303191, 
			 "HOMO_LUMO_gap": 0.21947, 
			 "cosmo_polarized_energy": -12.3, 
			 "cosmo_cavitation_energy": 20.29, 
			 "cosmo_dispersion_energy": -15.48, 
			 "cosmo_repulsion_energy": 1.27, 
			 "cosmo_total_nonelectrostatic_energy": 6.09, 
			 "SMD_solvation_energy": 3.99 
		},
		"coords": [
			{
				"x": 0.3408846432,
				"y": 3.0567328486,
				"z": -1.3840985241,
				"element": "O" 
			},
			{
				"x": 0.2481284644,
				"y": 2.0841750041,
				"z": -0.4339356377,
				"element": "C" 
			},
			{
				"x": -0.1930015873,
				"y": 2.4847842278,
				"z": 0.8350865129,
				"element": "C" 
			},
			{
				"x": -0.2975672965,
				"y": 1.5155604718,
				"z": 1.8241388926,
				"element": "C" 
			},
			{
				"x": -0.8484813821,
				"y": 1.9917630138,
				"z": 3.4250298277,
				"element": "Cl" 
			},
			{
				"x": 0.0172368743,
				"y": 0.1748148923,
				"z": 1.6006250915,
				"element": "C" 
			},
			{
				"x": 0.4546525012,
				"y": -0.1953217942,
				"z": 0.3247699801,
				"element": "C" 
			},
			{
				"x": 0.7847561029,
				"y": -1.4811680373,
				"z": 0.0128741866,
				"element": "O" 
			},
			{
				"x": 0.5725352785,
				"y": 0.7523695831,
				"z": -0.6964107906,
				"element": "C" 
			},
			{
				"x": 0.6524850836,
				"y": 2.6662037269,
				"z": -2.2107781367,
				"element": "H" 
			},
			{
				"x": -0.4403513887,
				"y": 3.5218021056,
				"z": 1.0213348178,
				"element": "H" 
			},
			{
				"x": -0.0766831285,
				"y": -0.5549253493,
				"z": 2.3979445665,
				"element": "H" 
			},
			{
				"x": 0.6642313107,
				"y": -2.0395159376,
				"z": 0.7917647234,
				"element": "H" 
			},
			{
				"x": 0.9150745242,
				"y": 0.4325252444,
				"z": -1.6759455099,
				"element": "H" 
			}
		],
		 "valence_orbital": [ 
			{
				"type": "occ",
				"energy": -0.36508,
				"method": "rhf"
			},
			{
				"type": "occ",
				"energy": -0.31164,
				"method": "rhf"
			},
			{
				"type": "occ",
				"energy": -0.29765,
				"method": "rhf"
			},
			{
				"type": "occ",
				"energy": -0.23752,
				"method": "rhf"
			},
			{
				"type": "occ",
				"energy": -0.22669,
				"method": "rhf"
			},
			{
				"type": "unocc",
				"energy": -0.00722,
				"method": "rhf"
			},
			{
				"type": "unocc",
				"energy": 0.00856,
				"method": "rhf"
			},
			{
				"type": "unocc",
				"energy": 0.02843,
				"method": "rhf"
			},
			{
				"type": "unocc",
				"energy": 0.06277,
				"method": "rhf"
			},
			{
				"type": "unocc",
				"energy": 0.06512,
				"method": "rhf"
			}
		],
		"cosmo_sigma_profile": { 
			"-0.025": 0.0,
			"-0.024": 0.0,
			"-0.023": 0.0,
			"-0.022": 0.0,
			"-0.021": 0.0,
			"-0.02": 0.0,
			"-0.019": 0.0344130252929,
			"-0.018": 1.8293675718,
			"-0.017": 2.26507799302,
			"-0.016": 1.88275648503,
			"-0.015": 2.67849626407,
			"-0.014": 1.92927766814,
			"-0.013": 1.70586433193,
			"-0.012": 1.55199992401,
			"-0.011": 1.5238519789,
			"-0.01": 2.89465486852,
			"-0.009": 2.93870434411,
			"-0.008": 1.94714377938,
			"-0.007": 3.78537426682,
			"-0.006": 4.59027123731,
			"-0.005": 4.57831840416,
			"-0.004": 4.15480360078,
			"-0.003": 4.04972223192,
			"-0.002": 5.02590342337,
			"-0.001": 6.48569300665,
			"0.0": 8.08370520314,
			"0.001": 9.44397717045,
			"0.002": 14.3763588945,
			"0.003": 24.1812342589,
			"0.004": 22.9066693921,
			"0.005": 11.101874563,
			"0.006": 3.06045313398,
			"0.007": 2.88335382102,
			"0.008": 2.52108818554,
			"0.009": 2.94154755347,
			"0.01": 3.59299362014,
			"0.011": 3.17522152155,
			"0.012": 0.052187612089,
			"0.013": 0.0,
			"0.014": 0.0,
			"0.015": 0.0,
			"0.016": 0.0,
			"0.017": 0.0,
			"0.018": 0.0,
			"0.019": 0.0,
			"0.02": 0.0,
			"0.021": 0.0,
			"0.022": 0.0,
			"0.023": 0.0,
			"0.024": 0.0,
			"0.025": 0.0
		}
	}
}
