{
	 "smiles": "ClC1=CC=C(C=C1)S(=O)(=O)C1=CC=C(Cl)C=C1", 
	 "Tm": 421.15, 
	 "num_atms": 25, 
	 "gaussian": { 
		 "optdone": 1, 
		 "sigma_profile": "yes", 
		 "theory": "DFT", 
		 "functional": "B3LYP", 
		 "basiset": "6-31G**", 
		 "properties": { 
			 "R2extent": 7134.4136, 
			 "electric_dipole_moment_norm": 3.32657462414, 
			 "electric_quadrupole_moment_norm": 14.6542802798, 
			 "total_energy": -1931.04942664, 
			 "HOMO_LUMO_gap": 0.19703, 
			 "cosmo_polarized_energy": -13.17, 
			 "cosmo_cavitation_energy": 35.19, 
			 "cosmo_dispersion_energy": -25.68, 
			 "cosmo_repulsion_energy": 1.95, 
			 "cosmo_total_nonelectrostatic_energy": 11.46, 
			 "SMD_solvation_energy": 4.72 
		},
		"coords": [
			{
				"x": -4.0480259666,
				"y": 0.9030843734,
				"z": 3.5997566865,
				"element": "Cl" 
			},
			{
				"x": -3.0178282749,
				"y": 0.3586422412,
				"z": 2.2911498641,
				"element": "C" 
			},
			{
				"x": -2.5192472146,
				"y": -0.9455598243,
				"z": 2.3130411256,
				"element": "C" 
			},
			{
				"x": -1.6984350427,
				"y": -1.3759938014,
				"z": 1.2724348384,
				"element": "C" 
			},
			{
				"x": -1.3891238583,
				"y": -0.4968504794,
				"z": 0.2330471794,
				"element": "C" 
			},
			{
				"x": -1.9009172171,
				"y": 0.8016966754,
				"z": 0.2069699862,
				"element": "C" 
			},
			{
				"x": -2.7221030414,
				"y": 1.2359154719,
				"z": 1.2457292888,
				"element": "C" 
			},
			{
				"x": -0.333957379,
				"y": -1.058020444,
				"z": -1.1144275256,
				"element": "S" 
			},
			{
				"x": -0.6386849846,
				"y": -0.218257826,
				"z": -2.2833310665,
				"element": "O" 
			},
			{
				"x": -0.4275459805,
				"y": -2.5256043844,
				"z": -1.15717275,
				"element": "O" 
			},
			{
				"x": 1.338039158,
				"y": -0.6470103749,
				"z": -0.5858532184,
				"element": "C" 
			},
			{
				"x": 2.0783510912,
				"y": -1.5851019231,
				"z": 0.1357860463,
				"element": "C" 
			},
			{
				"x": 3.374218185,
				"y": -1.271058365,
				"z": 0.5407853894,
				"element": "C" 
			},
			{
				"x": 3.9057652285,
				"y": -0.0222825956,
				"z": 0.2121706236,
				"element": "C" 
			},
			{
				"x": 5.533977123,
				"y": 0.3759657361,
				"z": 0.7225319578,
				"element": "Cl" 
			},
			{
				"x": 3.173169966,
				"y": 0.9128352224,
				"z": -0.5219125979,
				"element": "C" 
			},
			{
				"x": 1.8776821834,
				"y": 0.5949962103,
				"z": -0.9250812198,
				"element": "C" 
			},
			{
				"x": -2.777062493,
				"y": -1.6124872384,
				"z": 3.127903539,
				"element": "H" 
			},
			{
				"x": -1.3192676968,
				"y": -2.3918746675,
				"z": 1.2527238726,
				"element": "H" 
			},
			{
				"x": -1.6769286539,
				"y": 1.4548004953,
				"z": -0.6293622491,
				"element": "H" 
			},
			{
				"x": -3.1351501819,
				"y": 2.2382363135,
				"z": 1.2438840624,
				"element": "H" 
			},
			{
				"x": 1.6516411751,
				"y": -2.5575095895,
				"z": 0.3560396631,
				"element": "H" 
			},
			{
				"x": 3.9695790486,
				"y": -1.9858410726,
				"z": 1.0974655868,
				"element": "H" 
			},
			{
				"x": 3.6146540735,
				"y": 1.8691699327,
				"z": -0.7783902499,
				"element": "H" 
			},
			{
				"x": 1.2972007531,
				"y": 1.2934099142,
				"z": -1.5178888326,
				"element": "H" 
			}
		],
		 "valence_orbital": [ 
			{
				"type": "occ",
				"energy": -0.29872,
				"method": "rhf"
			},
			{
				"type": "occ",
				"energy": -0.28914,
				"method": "rhf"
			},
			{
				"type": "occ",
				"energy": -0.28558,
				"method": "rhf"
			},
			{
				"type": "occ",
				"energy": -0.28101,
				"method": "rhf"
			},
			{
				"type": "occ",
				"energy": -0.26297,
				"method": "rhf"
			},
			{
				"type": "unocc",
				"energy": -0.06594,
				"method": "rhf"
			},
			{
				"type": "unocc",
				"energy": -0.04221,
				"method": "rhf"
			},
			{
				"type": "unocc",
				"energy": -0.0352,
				"method": "rhf"
			},
			{
				"type": "unocc",
				"energy": -0.03226,
				"method": "rhf"
			},
			{
				"type": "unocc",
				"energy": 0.01063,
				"method": "rhf"
			}
		],
		"cosmo_sigma_profile": { 
			"-0.025": 0.0,
			"-0.024": 0.0,
			"-0.023": 0.0,
			"-0.022": 0.0,
			"-0.021": 0.0,
			"-0.02": 0.0,
			"-0.019": 0.0,
			"-0.018": 0.0,
			"-0.017": 0.0,
			"-0.016": 0.0,
			"-0.015": 0.0,
			"-0.014": 0.0,
			"-0.013": 0.0,
			"-0.012": 0.0,
			"-0.011": 0.0,
			"-0.01": 0.0,
			"-0.009": 1.13587788641,
			"-0.008": 11.2974351652,
			"-0.007": 16.62731464,
			"-0.006": 15.2524715199,
			"-0.005": 12.2061600181,
			"-0.004": 11.6453837528,
			"-0.003": 13.4151921219,
			"-0.002": 16.8265301707,
			"-0.001": 21.1131741419,
			"0.0": 34.4200684843,
			"0.001": 44.4731121753,
			"0.002": 19.2766884146,
			"0.003": 18.2579787573,
			"0.004": 20.2163706046,
			"0.005": 3.40649592416,
			"0.006": 2.75906340916,
			"0.007": 2.76155087539,
			"0.008": 2.97125396273,
			"0.009": 3.42259010602,
			"0.01": 6.45902052677,
			"0.011": 7.4939235368,
			"0.012": 3.17104251199,
			"0.013": 0.0,
			"0.014": 0.0,
			"0.015": 0.0,
			"0.016": 0.0,
			"0.017": 0.0,
			"0.018": 0.0,
			"0.019": 0.0,
			"0.02": 0.0,
			"0.021": 0.0,
			"0.022": 0.0,
			"0.023": 0.0,
			"0.024": 0.0,
			"0.025": 0.0
		}
	}
}
