{
	 "smiles": "OC(=O)CCCN1CCOC1=O", 
	 "Tm": 347.15, 
	 "num_atms": 23, 
	 "gaussian": { 
		 "optdone": 1, 
		 "sigma_profile": "yes", 
		 "theory": "DFT", 
		 "functional": "B3LYP", 
		 "basiset": "6-31G**", 
		 "properties": { 
			 "R2extent": 2720.8759, 
			 "electric_dipole_moment_norm": 2.73106842463, 
			 "electric_quadrupole_moment_norm": 27.7964035699, 
			 "total_energy": -629.045610925, 
			 "HOMO_LUMO_gap": 0.25687, 
			 "cosmo_polarized_energy": -21.63, 
			 "cosmo_cavitation_energy": 26.49, 
			 "cosmo_dispersion_energy": -18.9, 
			 "cosmo_repulsion_energy": 1.54, 
			 "cosmo_total_nonelectrostatic_energy": 9.13, 
			 "SMD_solvation_energy": 6.6 
		},
		"coords": [
			{
				"x": 0.7120351805,
				"y": -3.3534055785,
				"z": 0.6135910852,
				"element": "O" 
			},
			{
				"x": -0.0162573215,
				"y": -2.2086272482,
				"z": 0.5051716435,
				"element": "C" 
			},
			{
				"x": -0.9559074854,
				"y": -2.1692129075,
				"z": -0.2518206219,
				"element": "O" 
			},
			{
				"x": 0.4576915927,
				"y": -1.0541737563,
				"z": 1.3780115597,
				"element": "C" 
			},
			{
				"x": -0.4001224178,
				"y": 0.2092545885,
				"z": 1.2708757709,
				"element": "C" 
			},
			{
				"x": -0.3486012872,
				"y": 0.8948270672,
				"z": -0.1014104125,
				"element": "C" 
			},
			{
				"x": 1.0083789433,
				"y": 1.264656339,
				"z": -0.5118705798,
				"element": "N" 
			},
			{
				"x": 1.4404295579,
				"y": 1.1772326006,
				"z": -1.9007652968,
				"element": "C" 
			},
			{
				"x": 2.8285627902,
				"y": 1.8242750026,
				"z": -1.794659731,
				"element": "C" 
			},
			{
				"x": 2.7304823012,
				"y": 2.6947915579,
				"z": -0.6549908116,
				"element": "O" 
			},
			{
				"x": 1.6659574708,
				"y": 2.304562832,
				"z": 0.1169575778,
				"element": "C" 
			},
			{
				"x": 1.3919793542,
				"y": 2.818925009,
				"z": 1.1771259435,
				"element": "O" 
			},
			{
				"x": 1.419418933,
				"y": -3.23773812,
				"z": 1.2641389674,
				"element": "H" 
			},
			{
				"x": 1.497824561,
				"y": -0.8265458351,
				"z": 1.1081553863,
				"element": "H" 
			},
			{
				"x": 0.4815469694,
				"y": -1.4030488263,
				"z": 2.419295139,
				"element": "H" 
			},
			{
				"x": -0.0728866488,
				"y": 0.9227190305,
				"z": 2.0309668986,
				"element": "H" 
			},
			{
				"x": -1.4459766026,
				"y": -0.0426113345,
				"z": 1.4758747288,
				"element": "H" 
			},
			{
				"x": -0.7418213635,
				"y": 0.2137839334,
				"z": -0.8580252252,
				"element": "H" 
			},
			{
				"x": -0.9887188464,
				"y": 1.7868845112,
				"z": -0.0773175924,
				"element": "H" 
			},
			{
				"x": 0.7735613769,
				"y": 1.7430015179,
				"z": -2.569329742,
				"element": "H" 
			},
			{
				"x": 1.4828430085,
				"y": 0.1422764573,
				"z": -2.2526966064,
				"element": "H" 
			},
			{
				"x": 3.1041879586,
				"y": 2.4198741854,
				"z": -2.6667431107,
				"element": "H" 
			},
			{
				"x": 3.608891975,
				"y": 1.0779989739,
				"z": -1.6041349704,
				"element": "H" 
			}
		],
		 "valence_orbital": [ 
			{
				"type": "occ",
				"energy": -0.32161,
				"method": "rhf"
			},
			{
				"type": "occ",
				"energy": -0.29399,
				"method": "rhf"
			},
			{
				"type": "occ",
				"energy": -0.27895,
				"method": "rhf"
			},
			{
				"type": "occ",
				"energy": -0.27323,
				"method": "rhf"
			},
			{
				"type": "occ",
				"energy": -0.25338,
				"method": "rhf"
			},
			{
				"type": "unocc",
				"energy": 0.00349,
				"method": "rhf"
			},
			{
				"type": "unocc",
				"energy": 0.0416,
				"method": "rhf"
			},
			{
				"type": "unocc",
				"energy": 0.04935,
				"method": "rhf"
			},
			{
				"type": "unocc",
				"energy": 0.07488,
				"method": "rhf"
			},
			{
				"type": "unocc",
				"energy": 0.09689,
				"method": "rhf"
			}
		],
		"cosmo_sigma_profile": { 
			"-0.025": 0.0,
			"-0.024": 0.0,
			"-0.023": 0.0,
			"-0.022": 0.0,
			"-0.021": 0.0,
			"-0.02": 0.0,
			"-0.019": 0.607744429298,
			"-0.018": 0.998192546088,
			"-0.017": 0.836164072993,
			"-0.016": 1.30061230677,
			"-0.015": 1.29135634084,
			"-0.014": 0.73603916163,
			"-0.013": 0.98310890164,
			"-0.012": 1.083142685,
			"-0.011": 1.44596618422,
			"-0.01": 1.40819924588,
			"-0.009": 0.821642605849,
			"-0.008": 2.36051030783,
			"-0.007": 6.06279802925,
			"-0.006": 16.5532850723,
			"-0.005": 21.6256782918,
			"-0.004": 22.2786387973,
			"-0.003": 18.2619066727,
			"-0.002": 15.1032532703,
			"-0.001": 9.87066098594,
			"0.0": 7.92756220911,
			"0.001": 5.44966358126,
			"0.002": 3.71139451994,
			"0.003": 4.40241003344,
			"0.004": 4.41121928558,
			"0.005": 4.23552796612,
			"0.006": 4.32057884872,
			"0.007": 4.84846526179,
			"0.008": 5.85777599349,
			"0.009": 5.38236828297,
			"0.01": 8.31591382657,
			"0.011": 8.93446747263,
			"0.012": 7.99234717519,
			"0.013": 6.80748947404,
			"0.014": 1.57377110887,
			"0.015": 0.0163099786315,
			"0.016": 0.0,
			"0.017": 0.0,
			"0.018": 0.0,
			"0.019": 0.0,
			"0.02": 0.0,
			"0.021": 0.0,
			"0.022": 0.0,
			"0.023": 0.0,
			"0.024": 0.0,
			"0.025": 0.0
		}
	}
}
