{
	 "smiles": "O=C(CC#N)NCCN1CCOCC1", 
	 "Tm": 344.65, 
	 "num_atms": 29, 
	 "gaussian": { 
		 "optdone": 1, 
		 "sigma_profile": "yes", 
		 "theory": "DFT", 
		 "functional": "B3LYP", 
		 "basiset": "6-31G**", 
		 "properties": { 
			 "R2extent": 3853.6089, 
			 "electric_dipole_moment_norm": 1.75671457556, 
			 "electric_quadrupole_moment_norm": 17.0129393683, 
			 "total_energy": -666.66535948, 
			 "HOMO_LUMO_gap": 0.24228, 
			 "cosmo_polarized_energy": -16.54, 
			 "cosmo_cavitation_energy": 32.06, 
			 "cosmo_dispersion_energy": -21.94, 
			 "cosmo_repulsion_energy": 1.76, 
			 "cosmo_total_nonelectrostatic_energy": 11.88, 
			 "SMD_solvation_energy": 5.7 
		},
		"coords": [
			{
				"x": 0.1528105066,
				"y": 1.5681929844,
				"z": -3.8334678582,
				"element": "O" 
			},
			{
				"x": -0.0304701857,
				"y": 1.7705881339,
				"z": -2.6411387234,
				"element": "C" 
			},
			{
				"x": -0.1095238249,
				"y": 3.2346073138,
				"z": -2.1398811898,
				"element": "C" 
			},
			{
				"x": -0.3348975275,
				"y": 3.4169649795,
				"z": -0.7086333414,
				"element": "C" 
			},
			{
				"x": -0.5157339219,
				"y": 3.5110362562,
				"z": 0.4348104751,
				"element": "N" 
			},
			{
				"x": -0.1655814184,
				"y": 0.8043608807,
				"z": -1.7065329675,
				"element": "N" 
			},
			{
				"x": -0.103610908,
				"y": -0.6109181304,
				"z": -2.0346335384,
				"element": "C" 
			},
			{
				"x": 0.4208924739,
				"y": -1.3898748043,
				"z": -0.8235610914,
				"element": "C" 
			},
			{
				"x": -0.336439672,
				"y": -1.0651650789,
				"z": 0.384217902,
				"element": "N" 
			},
			{
				"x": -1.7054737164,
				"y": -1.6111472888,
				"z": 0.3590305935,
				"element": "C" 
			},
			{
				"x": -2.2727895994,
				"y": -1.6906315308,
				"z": 1.7715921513,
				"element": "C" 
			},
			{
				"x": -1.5416238492,
				"y": -2.5914478701,
				"z": 2.5991299725,
				"element": "O" 
			},
			{
				"x": -0.1457095377,
				"y": -2.651842222,
				"z": 2.3066346912,
				"element": "C" 
			},
			{
				"x": 0.3545196863,
				"y": -1.3632023388,
				"z": 1.6558700082,
				"element": "C" 
			},
			{
				"x": 0.8249532224,
				"y": 3.7247961261,
				"z": -2.4320724898,
				"element": "H" 
			},
			{
				"x": -0.9098974502,
				"y": 3.7240604759,
				"z": -2.7043429598,
				"element": "H" 
			},
			{
				"x": -0.3280871761,
				"y": 1.0219949132,
				"z": -0.7291372096,
				"element": "H" 
			},
			{
				"x": 0.5585911381,
				"y": -0.742345081,
				"z": -2.8941670924,
				"element": "H" 
			},
			{
				"x": -1.0934828977,
				"y": -0.9787495169,
				"z": -2.3365528941,
				"element": "H" 
			},
			{
				"x": 1.4647587174,
				"y": -1.1052032595,
				"z": -0.6552551288,
				"element": "H" 
			},
			{
				"x": 0.4037553844,
				"y": -2.4692472507,
				"z": -1.0662593765,
				"element": "H" 
			},
			{
				"x": -1.7271871579,
				"y": -2.6233906714,
				"z": -0.085110213,
				"element": "H" 
			},
			{
				"x": -2.3535083082,
				"y": -0.9761433791,
				"z": -0.2577334307,
				"element": "H" 
			},
			{
				"x": -3.3027385945,
				"y": -2.0593756353,
				"z": 1.7404985714,
				"element": "H" 
			},
			{
				"x": -2.2919547897,
				"y": -0.6835205539,
				"z": 2.2162164941,
				"element": "H" 
			},
			{
				"x": 0.3746897815,
				"y": -2.8298482868,
				"z": 3.2546833949,
				"element": "H" 
			},
			{
				"x": 0.0628780859,
				"y": -3.5103445171,
				"z": 1.6479369747,
				"element": "H" 
			},
			{
				"x": 0.2034150298,
				"y": -0.5312617827,
				"z": 2.3553883312,
				"element": "H" 
			},
			{
				"x": 1.4315465089,
				"y": -1.4331428653,
				"z": 1.4750699447,
				"element": "H" 
			}
		],
		 "valence_orbital": [ 
			{
				"type": "occ",
				"energy": -0.31006,
				"method": "rhf"
			},
			{
				"type": "occ",
				"energy": -0.26498,
				"method": "rhf"
			},
			{
				"type": "occ",
				"energy": -0.26012,
				"method": "rhf"
			},
			{
				"type": "occ",
				"energy": -0.25289,
				"method": "rhf"
			},
			{
				"type": "occ",
				"energy": -0.22711,
				"method": "rhf"
			},
			{
				"type": "unocc",
				"energy": 0.01517,
				"method": "rhf"
			},
			{
				"type": "unocc",
				"energy": 0.01981,
				"method": "rhf"
			},
			{
				"type": "unocc",
				"energy": 0.03163,
				"method": "rhf"
			},
			{
				"type": "unocc",
				"energy": 0.06831,
				"method": "rhf"
			},
			{
				"type": "unocc",
				"energy": 0.09166,
				"method": "rhf"
			}
		],
		"cosmo_sigma_profile": { 
			"-0.025": 0.0,
			"-0.024": 0.0,
			"-0.023": 0.0,
			"-0.022": 0.0,
			"-0.021": 0.0,
			"-0.02": 0.0,
			"-0.019": 0.0,
			"-0.018": 0.0,
			"-0.017": 0.0,
			"-0.016": 0.0,
			"-0.015": 0.0,
			"-0.014": 0.0,
			"-0.013": 0.0,
			"-0.012": 0.0,
			"-0.011": 0.00816407017783,
			"-0.01": 3.28851258387,
			"-0.009": 5.36845206789,
			"-0.008": 3.81548065075,
			"-0.007": 4.63944995856,
			"-0.006": 6.81988615246,
			"-0.005": 16.8375677246,
			"-0.004": 31.5614713371,
			"-0.003": 43.3600415731,
			"-0.002": 27.1749073665,
			"-0.001": 16.6302928466,
			"0.0": 10.070231642,
			"0.001": 8.77782028198,
			"0.002": 6.40268026493,
			"0.003": 6.48268532211,
			"0.004": 5.3005707658,
			"0.005": 5.13024893158,
			"0.006": 4.58693965601,
			"0.007": 4.98402433061,
			"0.008": 5.84105931441,
			"0.009": 5.05252090762,
			"0.01": 5.63902991924,
			"0.011": 5.37035946879,
			"0.012": 5.61183052064,
			"0.013": 8.42444747657,
			"0.014": 4.1701233035,
			"0.015": 0.042413609473,
			"0.016": 0.0,
			"0.017": 0.0,
			"0.018": 0.0,
			"0.019": 0.0,
			"0.02": 0.0,
			"0.021": 0.0,
			"0.022": 0.0,
			"0.023": 0.0,
			"0.024": 0.0,
			"0.0": 0.0
		}
	}
}
