{
	 "smiles": "OC(=O)C1=C(F)C=CC(=C1)S(Cl)(=O)=O", 
	 "Tm": 381.15, 
	 "num_atms": 18, 
	 "gaussian": { 
		 "optdone": 1, 
		 "sigma_profile": "yes", 
		 "theory": "DFT", 
		 "functional": "B3LYP", 
		 "basiset": "6-31G**", 
		 "properties": { 
			 "R2extent": 3826.0946, 
			 "electric_dipole_moment_norm": 2.87667473483, 
			 "electric_quadrupole_moment_norm": 26.1688692702, 
			 "total_energy": -1528.19229332, 
			 "HOMO_LUMO_gap": 0.18839, 
			 "cosmo_polarized_energy": -18.97, 
			 "cosmo_cavitation_energy": 27.71, 
			 "cosmo_dispersion_energy": -20.37, 
			 "cosmo_repulsion_energy": 1.55, 
			 "cosmo_total_nonelectrostatic_energy": 8.89, 
			 "SMD_solvation_energy": 5.13 
		},
		"coords": [
			{
				"x": 1.1163799074,
				"y": -3.0131842011,
				"z": -0.7730347913,
				"element": "O" 
			},
			{
				"x": 0.6301799598,
				"y": -2.7319322976,
				"z": 0.4630152313,
				"element": "C" 
			},
			{
				"x": 0.2249417796,
				"y": -3.6069480417,
				"z": 1.1828255978,
				"element": "O" 
			},
			{
				"x": 0.6003659747,
				"y": -1.2728751829,
				"z": 0.8327260378,
				"element": "C" 
			},
			{
				"x": 0.8100731695,
				"y": -0.8638265996,
				"z": 2.1600127658,
				"element": "C" 
			},
			{
				"x": 1.1151592741,
				"y": -1.7686213042,
				"z": 3.0881777435,
				"element": "F" 
			},
			{
				"x": 0.7456333425,
				"y": 0.4733849777,
				"z": 2.5457643658,
				"element": "C" 
			},
			{
				"x": 0.4426998286,
				"y": 1.4452770415,
				"z": 1.5980395556,
				"element": "C" 
			},
			{
				"x": 0.2194496156,
				"y": 1.0466678972,
				"z": 0.2786766042,
				"element": "C" 
			},
			{
				"x": 0.2974032907,
				"y": -0.2880195144,
				"z": -0.113597109,
				"element": "C" 
			},
			{
				"x": -0.1502557491,
				"y": 2.2834858433,
				"z": -0.9549125963,
				"element": "S" 
			},
			{
				"x": -2.2698010047,
				"y": 2.3796776989,
				"z": -0.8399171217,
				"element": "Cl" 
			},
			{
				"x": 0.3457507243,
				"y": 3.5738618409,
				"z": -0.495705618,
				"element": "O" 
			},
			{
				"x": 0.1654536897,
				"y": 1.7433642136,
				"z": -2.2713954884,
				"element": "O" 
			},
			{
				"x": 1.5507554786,
				"y": -2.2395337464,
				"z": -1.1596937241,
				"element": "H" 
			},
			{
				"x": 0.9376467423,
				"y": 0.7305344493,
				"z": 3.5812412093,
				"element": "H" 
			},
			{
				"x": 0.3904603235,
				"y": 2.4935531436,
				"z": 1.869618691,
				"element": "H" 
			},
			{
				"x": 0.1005036529,
				"y": -0.5540662181,
				"z": -1.1471413534,
				"element": "H" 
			}
		],
		 "valence_orbital": [ 
			{
				"type": "occ",
				"energy": -0.34127,
				"method": "rhf"
			},
			{
				"type": "occ",
				"energy": -0.32823,
				"method": "rhf"
			},
			{
				"type": "occ",
				"energy": -0.31787,
				"method": "rhf"
			},
			{
				"type": "occ",
				"energy": -0.3034,
				"method": "rhf"
			},
			{
				"type": "occ",
				"energy": -0.29371,
				"method": "rhf"
			},
			{
				"type": "unocc",
				"energy": -0.10532,
				"method": "rhf"
			},
			{
				"type": "unocc",
				"energy": -0.0836,
				"method": "rhf"
			},
			{
				"type": "unocc",
				"energy": -0.06261,
				"method": "rhf"
			},
			{
				"type": "unocc",
				"energy": -0.00014,
				"method": "rhf"
			},
			{
				"type": "unocc",
				"energy": 0.03282,
				"method": "rhf"
			}
		],
		"cosmo_sigma_profile": { 
			"-0.025": 0.0,
			"-0.024": 0.0,
			"-0.023": 0.0,
			"-0.022": 0.0,
			"-0.021": 0.0,
			"-0.02": 0.334240340083,
			"-0.019": 0.996663272376,
			"-0.018": 1.22985650834,
			"-0.017": 0.839349325047,
			"-0.016": 1.30462591146,
			"-0.015": 1.06091722032,
			"-0.014": 1.58670527424,
			"-0.013": 0.759889141287,
			"-0.012": 0.783108823611,
			"-0.011": 1.14648600045,
			"-0.01": 3.52440180499,
			"-0.009": 6.97442014217,
			"-0.008": 6.20161039095,
			"-0.007": 7.73107037055,
			"-0.006": 6.94837552705,
			"-0.005": 7.66686946297,
			"-0.004": 9.41213456269,
			"-0.003": 17.4151716103,
			"-0.002": 17.0239836905,
			"-0.001": 14.3663889652,
			"0.0": 10.2898627779,
			"0.001": 9.93060955764,
			"0.002": 17.0240200021,
			"0.003": 19.4440146692,
			"0.004": 8.52556538403,
			"0.005": 4.54956336889,
			"0.006": 6.25710634197,
			"0.007": 11.1358940835,
			"0.008": 12.0650779337,
			"0.009": 7.78318682986,
			"0.01": 5.3876876238,
			"0.011": 5.00294349793,
			"0.012": 1.48815974728,
			"0.013": 0.0296287916704,
			"0.014": 0.0,
			"0.015": 0.0,
			"0.016": 0.0,
			"0.017": 0.0,
			"0.018": 0.0,
			"0.019": 0.0,
			"0.02": 0.0,
			"0.021": 0.0,
			"0.022": 0.0,
			"0.023": 0.0,
			"0.024": 0.0,
			"0.025": 0.0
		}
	}
}
