{
	 "smiles": "O=C1C=CC(=O)N1C1=C(SC2=CC=CC=C2)C=CC=C1", 
	 "Tm": 325.15, 
	 "num_atms": 31, 
	 "gaussian": { 
		 "optdone": 1, 
		 "sigma_profile": "yes", 
		 "theory": "DFT", 
		 "functional": "B3LYP", 
		 "basiset": "6-31G**", 
		 "properties": { 
			 "R2extent": 7013.7569, 
			 "electric_dipole_moment_norm": 1.36923003911, 
			 "electric_quadrupole_moment_norm": 19.3229261058, 
			 "total_energy": -1219.71049406, 
			 "HOMO_LUMO_gap": 0.12028, 
			 "cosmo_polarized_energy": -13.52, 
			 "cosmo_cavitation_energy": 37.97, 
			 "cosmo_dispersion_energy": -26.07, 
			 "cosmo_repulsion_energy": 1.96, 
			 "cosmo_total_nonelectrostatic_energy": 13.86, 
			 "SMD_solvation_energy": 7.88 
		},
		"coords": [
			{
				"x": 1.7699010987,
				"y": 3.842403714,
				"z": -3.4517141882,
				"element": "O" 
			},
			{
				"x": 0.6469847219,
				"y": 3.6244311949,
				"z": -3.054165967,
				"element": "C" 
			},
			{
				"x": -0.6517944153,
				"y": 4.0979320225,
				"z": -3.6394183754,
				"element": "C" 
			},
			{
				"x": -1.6582240461,
				"y": 3.6421056915,
				"z": -2.8884929551,
				"element": "C" 
			},
			{
				"x": -1.0950521616,
				"y": 2.8375218558,
				"z": -1.7541351394,
				"element": "C" 
			},
			{
				"x": -1.7023629377,
				"y": 2.2849690401,
				"z": -0.8617526886,
				"element": "O" 
			},
			{
				"x": 0.3015702229,
				"y": 2.8636225252,
				"z": -1.9194263177,
				"element": "N" 
			},
			{
				"x": 1.2320583389,
				"y": 2.2066550518,
				"z": -1.0594723127,
				"element": "C" 
			},
			{
				"x": 1.3899178622,
				"y": 0.8100911244,
				"z": -1.1002536249,
				"element": "C" 
			},
			{
				"x": 0.5198097606,
				"y": -0.1669081073,
				"z": -2.3282893427,
				"element": "S" 
			},
			{
				"x": -0.2364358275,
				"y": -1.4463661134,
				"z": -1.3161131855,
				"element": "C" 
			},
			{
				"x": -1.1260202883,
				"y": -1.1162666826,
				"z": -0.2836288893,
				"element": "C" 
			},
			{
				"x": -1.7342961002,
				"y": -2.1340284944,
				"z": 0.4499924497,
				"element": "C" 
			},
			{
				"x": -1.4828181244,
				"y": -3.4752414198,
				"z": 0.1456993778,
				"element": "C" 
			},
			{
				"x": -0.6109023309,
				"y": -3.7995984217,
				"z": -0.8938684111,
				"element": "C" 
			},
			{
				"x": 0.0210961279,
				"y": -2.7878779569,
				"z": -1.6211671403,
				"element": "C" 
			},
			{
				"x": 2.2891813398,
				"y": 0.2081509116,
				"z": -0.2091886932,
				"element": "C" 
			},
			{
				"x": 3.0182812474,
				"y": 0.9770913028,
				"z": 0.6941454223,
				"element": "C" 
			},
			{
				"x": 2.8745051884,
				"y": 2.3664402364,
				"z": 0.7113310927,
				"element": "C" 
			},
			{
				"x": 1.9798916759,
				"y": 2.976202007,
				"z": -0.1633155045,
				"element": "C" 
			},
			{
				"x": -0.6815652676,
				"y": 4.7091537179,
				"z": -4.5318168786,
				"element": "H" 
			},
			{
				"x": -2.7242695985,
				"y": 3.7849640583,
				"z": -3.0065329627,
				"element": "H" 
			},
			{
				"x": -1.3385539756,
				"y": -0.0735273876,
				"z": -0.0695113545,
				"element": "H" 
			},
			{
				"x": -2.419104202,
				"y": -1.8777261872,
				"z": 1.2534760782,
				"element": "H" 
			},
			{
				"x": -1.9670720117,
				"y": -4.2627883064,
				"z": 0.715846708,
				"element": "H" 
			},
			{
				"x": -0.410300646,
				"y": -4.8397218246,
				"z": -1.1347315692,
				"element": "H" 
			},
			{
				"x": 0.7139357524,
				"y": -3.0348582867,
				"z": -2.4196476781,
				"element": "H" 
			},
			{
				"x": 2.4136270003,
				"y": -0.8693332631,
				"z": -0.2341693694,
				"element": "H" 
			},
			{
				"x": 3.7107434498,
				"y": 0.4914215541,
				"z": 1.3753947047,
				"element": "H" 
			},
			{
				"x": 3.4509870153,
				"y": 2.9705790683,
				"z": 1.4048104984,
				"element": "H" 
			},
			{
				"x": 1.8414811308,
				"y": 4.0524073753,
				"z": -0.1561837838,
				"element": "H" 
			}
		],
		 "valence_orbital": [ 
			{
				"type": "occ",
				"energy": -0.27303,
				"method": "rhf"
			},
			{
				"type": "occ",
				"energy": -0.26131,
				"method": "rhf"
			},
			{
				"type": "occ",
				"energy": -0.25686,
				"method": "rhf"
			},
			{
				"type": "occ",
				"energy": -0.25297,
				"method": "rhf"
			},
			{
				"type": "occ",
				"energy": -0.21621,
				"method": "rhf"
			},
			{
				"type": "unocc",
				"energy": -0.09593,
				"method": "rhf"
			},
			{
				"type": "unocc",
				"energy": -0.02631,
				"method": "rhf"
			},
			{
				"type": "unocc",
				"energy": -0.01899,
				"method": "rhf"
			},
			{
				"type": "unocc",
				"energy": -0.01424,
				"method": "rhf"
			},
			{
				"type": "unocc",
				"energy": -0.00224,
				"method": "rhf"
			}
		],
		"cosmo_sigma_profile": { 
			"-0.025": 0.0,
			"-0.024": 0.0,
			"-0.023": 0.0,
			"-0.022": 0.0,
			"-0.021": 0.0,
			"-0.02": 0.0,
			"-0.019": 0.0,
			"-0.018": 0.0,
			"-0.017": 0.0,
			"-0.016": 0.0,
			"-0.015": 0.0,
			"-0.014": 0.0,
			"-0.013": 0.0,
			"-0.012": 0.0,
			"-0.011": 0.0,
			"-0.01": 2.05544289927,
			"-0.009": 3.97240680481,
			"-0.008": 3.33238955632,
			"-0.007": 8.94192491682,
			"-0.006": 21.3118085902,
			"-0.005": 23.0591257323,
			"-0.004": 23.1547188322,
			"-0.003": 21.8162001555,
			"-0.002": 22.2662312497,
			"-0.001": 18.6478458627,
			"0.0": 19.6046736687,
			"0.001": 17.6949516809,
			"0.002": 20.2220546314,
			"0.003": 28.1182547836,
			"0.004": 26.3984283043,
			"0.005": 15.123827371,
			"0.006": 4.5415267024,
			"0.007": 5.39187902356,
			"0.008": 4.26366596796,
			"0.009": 4.4507724075,
			"0.01": 7.00562619798,
			"0.011": 5.74540731225,
			"0.012": 1.05144754071,
			"0.013": 0.0,
			"0.014": 0.0,
			"0.015": 0.0,
			"0.016": 0.0,
			"0.017": 0.0,
			"0.018": 0.0,
			"0.019": 0.0,
			"0.02": 0.0,
			"0.021": 0.0,
			"0.022": 0.0,
			"0.023": 0.0,
			"0.024": 0.0,
			"0.025": 0.0
		}
	}
}
