{
	 "smiles": "CC(=O)C1=NC=CN=C1", 
	 "Tm": 350.15, 
	 "num_atms": 15, 
	 "gaussian": { 
		 "optdone": 1, 
		 "sigma_profile": "yes", 
		 "theory": "DFT", 
		 "functional": "B3LYP", 
		 "basiset": "6-31G**", 
		 "properties": { 
			 "R2extent": 1791.4795, 
			 "electric_dipole_moment_norm": 2.89534284844, 
			 "electric_quadrupole_moment_norm": 7.62553792725, 
			 "total_energy": -416.96492039, 
			 "HOMO_LUMO_gap": 0.1662, 
			 "cosmo_polarized_energy": -8.44, 
			 "cosmo_cavitation_energy": 19.76, 
			 "cosmo_dispersion_energy": -14.59, 
			 "cosmo_repulsion_energy": 1.19, 
			 "cosmo_total_nonelectrostatic_energy": 6.36, 
			 "SMD_solvation_energy": 1.96 
		},
		"coords": [
			{
				"x": 0.6389561484,
				"y": -1.9204459022,
				"z": 1.7073557546,
				"element": "C" 
			},
			{
				"x": 1.234678793,
				"y": -2.1847513689,
				"z": 0.343933696,
				"element": "C" 
			},
			{
				"x": 1.7544481504,
				"y": -3.2474410722,
				"z": 0.0455767498,
				"element": "O" 
			},
			{
				"x": 1.1721967929,
				"y": -1.0739195674,
				"z": -0.6731171839,
				"element": "C" 
			},
			{
				"x": 0.5956331857,
				"y": 0.0850086465,
				"z": -0.3200536302,
				"element": "N" 
			},
			{
				"x": 0.5632681914,
				"y": 1.039738947,
				"z": -1.2528668088,
				"element": "C" 
			},
			{
				"x": 1.101008643,
				"y": 0.8422517002,
				"z": -2.5281467093,
				"element": "C" 
			},
			{
				"x": 1.6777712306,
				"y": -0.3107610969,
				"z": -2.8882260237,
				"element": "N" 
			},
			{
				"x": 1.7100679409,
				"y": -1.2662052359,
				"z": -1.9544178313,
				"element": "C" 
			},
			{
				"x": 1.1263509811,
				"y": -1.0601479653,
				"z": 2.1769547566,
				"element": "H" 
			},
			{
				"x": 0.7594062463,
				"y": -2.8094165145,
				"z": 2.3270815963,
				"element": "H" 
			},
			{
				"x": -0.4203809259,
				"y": -1.6598423185,
				"z": 1.6174039199,
				"element": "H" 
			},
			{
				"x": 0.0990004574,
				"y": 1.9856618074,
				"z": -0.9821021114,
				"element": "H" 
			},
			{
				"x": 1.0652350527,
				"y": 1.6324290683,
				"z": -3.2752623891,
				"element": "H" 
			},
			{
				"x": 2.1703591121,
				"y": -2.2159591275,
				"z": -2.2101137854,
				"element": "H" 
			}
		],
		 "valence_orbital": [ 
			{
				"type": "occ",
				"energy": -0.34171,
				"method": "rhf"
			},
			{
				"type": "occ",
				"energy": -0.32212,
				"method": "rhf"
			},
			{
				"type": "occ",
				"energy": -0.2853,
				"method": "rhf"
			},
			{
				"type": "occ",
				"energy": -0.2779,
				"method": "rhf"
			},
			{
				"type": "occ",
				"energy": -0.24749,
				"method": "rhf"
			},
			{
				"type": "unocc",
				"energy": -0.08129,
				"method": "rhf"
			},
			{
				"type": "unocc",
				"energy": -0.05271,
				"method": "rhf"
			},
			{
				"type": "unocc",
				"energy": 0.01835,
				"method": "rhf"
			},
			{
				"type": "unocc",
				"energy": 0.10856,
				"method": "rhf"
			},
			{
				"type": "unocc",
				"energy": 0.12211,
				"method": "rhf"
			}
		],
		"cosmo_sigma_profile": { 
			"-0.025": 0.0,
			"-0.024": 0.0,
			"-0.023": 0.0,
			"-0.022": 0.0,
			"-0.021": 0.0,
			"-0.02": 0.0,
			"-0.019": 0.0,
			"-0.018": 0.0,
			"-0.017": 0.0,
			"-0.016": 0.0,
			"-0.015": 0.0,
			"-0.014": 0.0,
			"-0.013": 0.0,
			"-0.012": 0.0,
			"-0.011": 0.0,
			"-0.01": 0.0,
			"-0.009": 0.509922786146,
			"-0.008": 5.43385746165,
			"-0.007": 6.01800983426,
			"-0.006": 8.40237989873,
			"-0.005": 11.0194651383,
			"-0.004": 11.658957338,
			"-0.003": 14.4970041865,
			"-0.002": 20.0691610873,
			"-0.001": 17.9257958593,
			"0.0": 8.74836357669,
			"0.001": 6.20117723058,
			"0.002": 6.26058856661,
			"0.003": 4.72732255395,
			"0.004": 3.25901505594,
			"0.005": 5.13892592685,
			"0.006": 3.52013525803,
			"0.007": 3.32410260837,
			"0.008": 3.78835323287,
			"0.009": 3.03680916883,
			"0.01": 4.24204494433,
			"0.011": 5.32678008142,
			"0.012": 3.32530211286,
			"0.013": 1.15931481041,
			"0.014": 0.762451811787,
			"0.015": 0.28924596525,
			"0.016": 0.0,
			"0.017": 0.0,
			"0.018": 0.0,
			"0.019": 0.0,
			"0.02": 0.0,
			"0.021": 0.0,
			"0.022": 0.0,
			"0.023": 0.0,
			"0.024": 0.0,
			"0.025": 0.0
		}
	}
}
