{
	 "smiles": "CCOC(=O)NC1=CC=C2C=C3C=CC4=C(COC(=O)N4)C3=NC2=C1", 
	 "Tm": 508.15, 
	 "num_atms": 40, 
	 "gaussian": { 
		 "optdone": 1, 
		 "sigma_profile": "yes", 
		 "theory": "DFT", 
		 "functional": "B3LYP", 
		 "basiset": "6-31G**", 
		 "properties": { 
			 "R2extent": 15216.8371, 
			 "electric_dipole_moment_norm": 7.44356563819, 
			 "electric_quadrupole_moment_norm": 30.8692402466, 
			 "total_energy": -1160.16969077, 
			 "HOMO_LUMO_gap": 0.12707, 
			 "cosmo_polarized_energy": -22.75, 
			 "cosmo_cavitation_energy": 44.63, 
			 "cosmo_dispersion_energy": -32.87, 
			 "cosmo_repulsion_energy": 2.44, 
			 "cosmo_total_nonelectrostatic_energy": 14.2, 
			 "SMD_solvation_energy": 8.15 
		},
		"coords": [
			{
				"x": -2.9450290168,
				"y": -3.2376132253,
				"z": 4.7662575007,
				"element": "C" 
			},
			{
				"x": -2.6479771712,
				"y": -1.7474605462,
				"z": 4.8086482617,
				"element": "C" 
			},
			{
				"x": -1.8413293237,
				"y": -1.3345207092,
				"z": 3.674817339,
				"element": "O" 
			},
			{
				"x": -0.5110772896,
				"y": -1.5112257031,
				"z": 3.8116863778,
				"element": "C" 
			},
			{
				"x": 0.0331467038,
				"y": -1.9661852362,
				"z": 4.8012058947,
				"element": "O" 
			},
			{
				"x": 0.2171869711,
				"y": -1.1182396455,
				"z": 2.7057505286,
				"element": "N" 
			},
			{
				"x": -0.1048706782,
				"y": -0.5557739774,
				"z": 1.4594747237,
				"element": "C" 
			},
			{
				"x": -1.4522099062,
				"y": -0.3252918883,
				"z": 1.0257116326,
				"element": "C" 
			},
			{
				"x": -1.6889321986,
				"y": 0.2199405813,
				"z": -0.2069757589,
				"element": "C" 
			},
			{
				"x": -0.6264560291,
				"y": 0.5705643016,
				"z": -1.0903413427,
				"element": "C" 
			},
			{
				"x": -0.8229729107,
				"y": 1.1273110325,
				"z": -2.3563375203,
				"element": "C" 
			},
			{
				"x": 0.2724814206,
				"y": 1.4419182272,
				"z": -3.1638491225,
				"element": "C" 
			},
			{
				"x": 0.1450120529,
				"y": 2.0206294344,
				"z": -4.4630196211,
				"element": "C" 
			},
			{
				"x": 1.2493716358,
				"y": 2.3104444993,
				"z": -5.2168035363,
				"element": "C" 
			},
			{
				"x": 2.5492537343,
				"y": 2.0396845568,
				"z": -4.694125991,
				"element": "C" 
			},
			{
				"x": 2.7237017956,
				"y": 1.4894629317,
				"z": -3.4448406301,
				"element": "C" 
			},
			{
				"x": 4.1330980831,
				"y": 1.2982429609,
				"z": -2.9712017234,
				"element": "C" 
			},
			{
				"x": 5.0423121656,
				"y": 1.0280325245,
				"z": -4.0674851159,
				"element": "O" 
			},
			{
				"x": 4.9248255567,
				"y": 1.7078374832,
				"z": -5.2280258996,
				"element": "C" 
			},
			{
				"x": 5.8182491959,
				"y": 1.7478081648,
				"z": -6.0422281791,
				"element": "O" 
			},
			{
				"x": 3.6940664375,
				"y": 2.3254800585,
				"z": -5.4417213142,
				"element": "N" 
			},
			{
				"x": 1.5926752012,
				"y": 1.1666484117,
				"z": -2.6377780415,
				"element": "C" 
			},
			{
				"x": 1.8005006079,
				"y": 0.6358869712,
				"z": -1.4212848013,
				"element": "N" 
			},
			{
				"x": 0.7315504714,
				"y": 0.3379995729,
				"z": -0.6586287888,
				"element": "C" 
			},
			{
				"x": 0.9479455445,
				"y": -0.2279087998,
				"z": 0.6262439485,
				"element": "C" 
			},
			{
				"x": -2.0233497083,
				"y": -3.8139846989,
				"z": 4.8744722492,
				"element": "H" 
			},
			{
				"x": -3.4311222135,
				"y": -3.5137501406,
				"z": 3.8258429414,
				"element": "H" 
			},
			{
				"x": -3.6154120125,
				"y": -3.503561742,
				"z": 5.5903125555,
				"element": "H" 
			},
			{
				"x": -2.1247540674,
				"y": -1.4726286196,
				"z": 5.7265714178,
				"element": "H" 
			},
			{
				"x": -3.5584985919,
				"y": -1.1511523694,
				"z": 4.7154089797,
				"element": "H" 
			},
			{
				"x": 1.2041266936,
				"y": -1.2591116784,
				"z": 2.8734141143,
				"element": "H" 
			},
			{
				"x": -2.271634826,
				"y": -0.5858881326,
				"z": 1.6780023813,
				"element": "H" 
			},
			{
				"x": -2.7127180375,
				"y": 0.3916295399,
				"z": -0.5295280769,
				"element": "H" 
			},
			{
				"x": -1.8329103757,
				"y": 1.3167620963,
				"z": -2.7147488819,
				"element": "H" 
			},
			{
				"x": -0.8499115767,
				"y": 2.2254094289,
				"z": -4.8490099618,
				"element": "H" 
			},
			{
				"x": 1.1506510536,
				"y": 2.7423353942,
				"z": -6.2087372741,
				"element": "H" 
			},
			{
				"x": 4.2122930336,
				"y": 0.4446163771,
				"z": -2.2988216512,
				"element": "H" 
			},
			{
				"x": 4.4995601467,
				"y": 2.1863201738,
				"z": -2.4368069379,
				"element": "H" 
			},
			{
				"x": 3.6014840441,
				"y": 2.7223166795,
				"z": -6.3659352801,
				"element": "H" 
			},
			{
				"x": 1.9780733843,
				"y": -0.39238429,
				"z": 0.9285146041,
				"element": "H" 
			}
		],
		 "valence_orbital": [ 
			{
				"type": "occ",
				"energy": -0.27046,
				"method": "rhf"
			},
			{
				"type": "occ",
				"energy": -0.26591,
				"method": "rhf"
			},
			{
				"type": "occ",
				"energy": -0.26023,
				"method": "rhf"
			},
			{
				"type": "occ",
				"energy": -0.22536,
				"method": "rhf"
			},
			{
				"type": "occ",
				"energy": -0.20989,
				"method": "rhf"
			},
			{
				"type": "unocc",
				"energy": -0.08282,
				"method": "rhf"
			},
			{
				"type": "unocc",
				"energy": -0.02734,
				"method": "rhf"
			},
			{
				"type": "unocc",
				"energy": -0.01084,
				"method": "rhf"
			},
			{
				"type": "unocc",
				"energy": 0.02023,
				"method": "rhf"
			},
			{
				"type": "unocc",
				"energy": 0.02628,
				"method": "rhf"
			}
		],
		"cosmo_sigma_profile": { 
			"-0.025": 0.0,
			"-0.024": 0.0,
			"-0.023": 0.0,
			"-0.022": 0.0,
			"-0.021": 0.0,
			"-0.02": 0.0,
			"-0.019": 0.0,
			"-0.018": 0.0,
			"-0.017": 0.0,
			"-0.016": 0.558246990812,
			"-0.015": 2.00610209577,
			"-0.014": 2.44238633741,
			"-0.013": 1.90883370659,
			"-0.012": 2.48763255617,
			"-0.011": 2.67267933038,
			"-0.01": 2.32803922937,
			"-0.009": 2.49159399761,
			"-0.008": 4.60452219557,
			"-0.007": 12.8471735317,
			"-0.006": 15.3582886491,
			"-0.005": 18.6861291071,
			"-0.004": 24.4526557629,
			"-0.003": 24.0109284971,
			"-0.002": 24.4105459365,
			"-0.001": 25.6499553826,
			"0.0": 29.9457453575,
			"0.001": 33.0421554403,
			"0.002": 34.8104009191,
			"0.003": 22.9861976903,
			"0.004": 12.6078718915,
			"0.005": 5.71392264072,
			"0.006": 5.32601469999,
			"0.007": 5.46876988968,
			"0.008": 5.19629955456,
			"0.009": 4.89556042806,
			"0.01": 5.91029559729,
			"0.011": 6.59913037109,
			"0.012": 10.193488464,
			"0.013": 6.72938101797,
			"0.014": 0.689685023203,
			"0.015": 0.0,
			"0.016": 0.0,
			"0.017": 0.0,
			"0.018": 0.0,
			"0.019": 0.0,
			"0.02": 0.0,
			"0.021": 0.0,
			"0.022": 0.0,
			"0.023": 0.0,
			"0.024": 0.0,
			"0.025": 0.0
		}
	}
}
