{
	 "smiles": "CC(C)(C)CNC(=O)C1=NC=C(C=C1)C(O)=O", 
	 "Tm": 513.15, 
	 "num_atms": 33, 
	 "gaussian": { 
		 "optdone": 1, 
		 "sigma_profile": "yes", 
		 "theory": "DFT", 
		 "functional": "B3LYP", 
		 "basiset": "6-31G**", 
		 "properties": { 
			 "R2extent": 6255.0692, 
			 "electric_dipole_moment_norm": 4.23038190475, 
			 "electric_quadrupole_moment_norm": 19.7457676113, 
			 "total_energy": -802.124773306, 
			 "HOMO_LUMO_gap": 0.16937, 
			 "cosmo_polarized_energy": -19.15, 
			 "cosmo_cavitation_energy": 36.34, 
			 "cosmo_dispersion_energy": -24.94, 
			 "cosmo_repulsion_energy": 1.93, 
			 "cosmo_total_nonelectrostatic_energy": 13.32, 
			 "SMD_solvation_energy": 7.08 
		},
		"coords": [
			{
				"x": 0.7751258008,
				"y": -2.2510913368,
				"z": -0.9590983676,
				"element": "C" 
			},
			{
				"x": -0.6611106656,
				"y": -1.8689870852,
				"z": -1.3583719175,
				"element": "C" 
			},
			{
				"x": -0.6899736867,
				"y": -1.4383762619,
				"z": -2.8372579558,
				"element": "C" 
			},
			{
				"x": -1.5962184999,
				"y": -3.0765731534,
				"z": -1.1590993123,
				"element": "C" 
			},
			{
				"x": -1.1504963894,
				"y": -0.6550184792,
				"z": -0.5219643509,
				"element": "C" 
			},
			{
				"x": -1.245189986,
				"y": -0.896922987,
				"z": 0.9169173603,
				"element": "N" 
			},
			{
				"x": -0.4269281777,
				"y": -0.6027776601,
				"z": 1.9681705437,
				"element": "C" 
			},
			{
				"x": -0.6378464136,
				"y": -1.0914990795,
				"z": 3.0789304832,
				"element": "O" 
			},
			{
				"x": 0.7466143708,
				"y": 0.350305777,
				"z": 1.8247211175,
				"element": "C" 
			},
			{
				"x": 0.823933519,
				"y": 1.2049038942,
				"z": 0.7946479116,
				"element": "N" 
			},
			{
				"x": 1.8442298774,
				"y": 2.0659937757,
				"z": 0.7666004366,
				"element": "C" 
			},
			{
				"x": 2.8414584522,
				"y": 2.1235765041,
				"z": 1.746669296,
				"element": "C" 
			},
			{
				"x": 2.76904585,
				"y": 1.204585925,
				"z": 2.8018104457,
				"element": "C" 
			},
			{
				"x": 1.7024199984,
				"y": 0.3198843461,
				"z": 2.8524781735,
				"element": "C" 
			},
			{
				"x": 4.0009944414,
				"y": 3.0728678456,
				"z": 1.6980679247,
				"element": "C" 
			},
			{
				"x": 3.8531554403,
				"y": 4.1862059326,
				"z": 0.9345381197,
				"element": "O" 
			},
			{
				"x": 5.0310111852,
				"y": 2.8770246341,
				"z": 2.2970502379,
				"element": "O" 
			},
			{
				"x": 0.8316944906,
				"y": -2.5529643037,
				"z": 0.0917159609,
				"element": "H" 
			},
			{
				"x": 1.1336001756,
				"y": -3.0915585733,
				"z": -1.563327149,
				"element": "H" 
			},
			{
				"x": 1.4649509952,
				"y": -1.4132060099,
				"z": -1.108601034,
				"element": "H" 
			},
			{
				"x": -0.0346993856,
				"y": -0.5778888604,
				"z": -3.0141126883,
				"element": "H" 
			},
			{
				"x": -1.7021366064,
				"y": -1.16014295,
				"z": -3.1531304696,
				"element": "H" 
			},
			{
				"x": -0.3518513549,
				"y": -2.2535035098,
				"z": -3.4858206652,
				"element": "H" 
			},
			{
				"x": -2.6314800862,
				"y": -2.8279001827,
				"z": -1.4222060472,
				"element": "H" 
			},
			{
				"x": -1.2864841875,
				"y": -3.9146689703,
				"z": -1.7925268267,
				"element": "H" 
			},
			{
				"x": -1.5829742044,
				"y": -3.4328845259,
				"z": -0.123207979,
				"element": "H" 
			},
			{
				"x": -0.4951163292,
				"y": 0.1991687461,
				"z": -0.6783325019,
				"element": "H" 
			},
			{
				"x": -2.1523021202,
				"y": -0.3702435663,
				"z": -0.8697168583,
				"element": "H" 
			},
			{
				"x": -1.9725913334,
				"y": -1.5348934272,
				"z": 1.217639067,
				"element": "H" 
			},
			{
				"x": 1.8744017622,
				"y": 2.7201342214,
				"z": -0.1051762671,
				"element": "H" 
			},
			{
				"x": 3.5457802483,
				"y": 1.211123057,
				"z": 3.5593070003,
				"element": "H" 
			},
			{
				"x": 1.5730850863,
				"y": -0.3883747799,
				"z": 3.6612536574,
				"element": "H" 
			},
			{
				"x": 2.9337977328,
				"y": 4.2888010435,
				"z": 0.6519326546,
				"element": "H" 
			}
		],
		 "valence_orbital": [ 
			{
				"type": "occ",
				"energy": -0.29858,
				"method": "rhf"
			},
			{
				"type": "occ",
				"energy": -0.28541,
				"method": "rhf"
			},
			{
				"type": "occ",
				"energy": -0.27986,
				"method": "rhf"
			},
			{
				"type": "occ",
				"energy": -0.25729,
				"method": "rhf"
			},
			{
				"type": "occ",
				"energy": -0.25108,
				"method": "rhf"
			},
			{
				"type": "unocc",
				"energy": -0.08171,
				"method": "rhf"
			},
			{
				"type": "unocc",
				"energy": -0.04906,
				"method": "rhf"
			},
			{
				"type": "unocc",
				"energy": 0.00556,
				"method": "rhf"
			},
			{
				"type": "unocc",
				"energy": 0.05024,
				"method": "rhf"
			},
			{
				"type": "unocc",
				"energy": 0.06264,
				"method": "rhf"
			}
		],
		"cosmo_sigma_profile": { 
			"-0.025": 0.0,
			"-0.024": 0.0,
			"-0.023": 0.0,
			"-0.022": 0.0,
			"-0.021": 0.0,
			"-0.02": 0.127168348905,
			"-0.019": 1.24905562709,
			"-0.018": 0.847496185797,
			"-0.017": 0.812614280772,
			"-0.016": 1.36020660019,
			"-0.015": 1.02083628136,
			"-0.014": 0.99937831423,
			"-0.013": 1.0508688942,
			"-0.012": 1.84828289856,
			"-0.011": 1.88712542595,
			"-0.01": 2.70070784008,
			"-0.009": 2.45452475509,
			"-0.008": 4.21704331188,
			"-0.007": 6.17351481435,
			"-0.006": 6.50921191803,
			"-0.005": 8.26522996055,
			"-0.004": 10.4530516118,
			"-0.003": 24.0292367341,
			"-0.002": 34.6441229023,
			"-0.001": 35.1835093973,
			"0.0": 31.8298270035,
			"0.001": 28.9151424856,
			"0.002": 15.4303262667,
			"0.003": 7.42098100189,
			"0.004": 5.81599560928,
			"0.005": 4.78455528638,
			"0.006": 4.25123340646,
			"0.007": 5.55731089103,
			"0.008": 4.19168307374,
			"0.009": 5.7476816413,
			"0.01": 6.87220617888,
			"0.011": 6.31861500409,
			"0.012": 5.19401428814,
			"0.013": 4.59432327114,
			"0.014": 3.15589900042,
			"0.015": 0.123173047974,
			"0.016": 0.0,
			"0.017": 0.0,
			"0.018": 0.0,
			"0.019": 0.0,
			"0.02": 0.0,
			"0.021": 0.0,
			"0.022": 0.0,
			"0.023": 0.0,
			"0.024": 0.0,
			"0.025": 0.0
		}
	}
}
