{
	 "smiles": "OC1=C2N=C(C=CC2=CC=C1)C#N", 
	 "Tm": 407.15, 
	 "num_atms": 19, 
	 "gaussian": { 
		 "optdone": 1, 
		 "sigma_profile": "yes", 
		 "theory": "DFT", 
		 "functional": "B3LYP", 
		 "basiset": "6-31G**", 
		 "properties": { 
			 "R2extent": 2856.0799, 
			 "electric_dipole_moment_norm": 6.76940340798, 
			 "electric_quadrupole_moment_norm": 26.3875016951, 
			 "total_energy": -569.383589918, 
			 "HOMO_LUMO_gap": 0.15325, 
			 "cosmo_polarized_energy": -17.41, 
			 "cosmo_cavitation_energy": 24.94, 
			 "cosmo_dispersion_energy": -18.09, 
			 "cosmo_repulsion_energy": 1.41, 
			 "cosmo_total_nonelectrostatic_energy": 8.26, 
			 "SMD_solvation_energy": 4.67 
		},
		"coords": [
			{
				"x": 0.532668904,
				"y": 2.7265893006,
				"z": -2.0551405477,
				"element": "O" 
			},
			{
				"x": 0.8835825019,
				"y": 1.7516574269,
				"z": -1.1853369085,
				"element": "C" 
			},
			{
				"x": -0.1288245576,
				"y": 1.3064504594,
				"z": -0.2690009403,
				"element": "C" 
			},
			{
				"x": -1.352930148,
				"y": 1.8822413188,
				"z": -0.33251163,
				"element": "N" 
			},
			{
				"x": -2.2769037713,
				"y": 1.4634957976,
				"z": 0.5168020712,
				"element": "C" 
			},
			{
				"x": -2.0660358917,
				"y": 0.4484355286,
				"z": 1.490693567,
				"element": "C" 
			},
			{
				"x": -0.8261621443,
				"y": -0.1371925903,
				"z": 1.5576003108,
				"element": "C" 
			},
			{
				"x": 0.2017586266,
				"y": 0.2739949678,
				"z": 0.6702493072,
				"element": "C" 
			},
			{
				"x": 1.5035379139,
				"y": -0.2870695506,
				"z": 0.6839233558,
				"element": "C" 
			},
			{
				"x": 2.4477961643,
				"y": 0.1653931949,
				"z": -0.2098674954,
				"element": "C" 
			},
			{
				"x": 2.142791287,
				"y": 1.1816325592,
				"z": -1.1434195289,
				"element": "C" 
			},
			{
				"x": -3.5765876297,
				"y": 2.0898059069,
				"z": 0.4336603369,
				"element": "C" 
			},
			{
				"x": -4.6359101118,
				"y": 2.5670521604,
				"z": 0.4008548525,
				"element": "N" 
			},
			{
				"x": 1.2919147124,
				"y": 2.9387773861,
				"z": -2.6145864975,
				"element": "H" 
			},
			{
				"x": -2.8740321205,
				"y": 0.1585218949,
				"z": 2.1531615279,
				"element": "H" 
			},
			{
				"x": -0.6195853183,
				"y": -0.9167067739,
				"z": 2.2857713755,
				"element": "H" 
			},
			{
				"x": 1.7398449283,
				"y": -1.0679317092,
				"z": 1.4003669929,
				"element": "H" 
			},
			{
				"x": 3.4475694541,
				"y": -0.2584191786,
				"z": -0.2068216676,
				"element": "H" 
			},
			{
				"x": 2.9082072007,
				"y": 1.5200719005,
				"z": -1.8380984817,
				"element": "H" 
			}
		],
		 "valence_orbital": [ 
			{
				"type": "occ",
				"energy": -0.32986,
				"method": "rhf"
			},
			{
				"type": "occ",
				"energy": -0.30903,
				"method": "rhf"
			},
			{
				"type": "occ",
				"energy": -0.27699,
				"method": "rhf"
			},
			{
				"type": "occ",
				"energy": -0.26693,
				"method": "rhf"
			},
			{
				"type": "occ",
				"energy": -0.22869,
				"method": "rhf"
			},
			{
				"type": "unocc",
				"energy": -0.07544,
				"method": "rhf"
			},
			{
				"type": "unocc",
				"energy": -0.04526,
				"method": "rhf"
			},
			{
				"type": "unocc",
				"energy": 0.01029,
				"method": "rhf"
			},
			{
				"type": "unocc",
				"energy": 0.03789,
				"method": "rhf"
			},
			{
				"type": "unocc",
				"energy": 0.04625,
				"method": "rhf"
			}
		],
		"cosmo_sigma_profile": { 
			"-0.025": 0.0,
			"-0.024": 0.0,
			"-0.023": 0.0,
			"-0.022": 0.0,
			"-0.021": 0.0,
			"-0.02": 0.0,
			"-0.019": 0.100469335769,
			"-0.018": 1.10595567727,
			"-0.017": 1.36126536551,
			"-0.016": 0.724687022374,
			"-0.015": 1.24390653419,
			"-0.014": 1.24417812095,
			"-0.013": 0.952151652363,
			"-0.012": 0.534339040149,
			"-0.011": 1.40761910178,
			"-0.01": 1.23351969147,
			"-0.009": 1.67485315349,
			"-0.008": 6.62861479071,
			"-0.007": 9.90738490342,
			"-0.006": 11.5644509977,
			"-0.005": 9.65598279476,
			"-0.004": 8.94039039339,
			"-0.003": 8.92295112009,
			"-0.002": 10.9345361588,
			"-0.001": 12.9667176001,
			"0.0": 17.7682254221,
			"0.001": 18.1684897948,
			"0.002": 12.3552365499,
			"0.003": 11.9733038635,
			"0.004": 9.27090156254,
			"0.005": 5.45713940105,
			"0.006": 3.92220826898,
			"0.007": 5.60310321082,
			"0.008": 4.51850664695,
			"0.009": 4.96754230198,
			"0.01": 4.62702099636,
			"0.011": 4.21231762331,
			"0.012": 3.71789909686,
			"0.013": 1.44069648636,
			"0.014": 1.0735151866,
			"0.015": 1.1869509658,
			"0.016": 0.84054375226,
			"0.017": 0.0506415835326,
			"0.018": 0.0,
			"0.019": 0.0,
			"0.02": 0.0,
			"0.021": 0.0,
			"0.022": 0.0,
			"0.023": 0.0,
			"0.024": 0.0,
			"0.025": 0.0
		}
	}
}
