{
	 "smiles": "CC(C)(C)C1=CC(=C(N)C(=C1)C(C)(C)C)C(C)(C)C", 
	 "Tm": 418.65, 
	 "num_atms": 50, 
	 "gaussian": { 
		 "optdone": 1, 
		 "sigma_profile": "yes", 
		 "theory": "DFT", 
		 "functional": "B3LYP", 
		 "basiset": "6-31G**", 
		 "properties": { 
			 "R2extent": 6037.6667, 
			 "electric_dipole_moment_norm": 1.39652845657, 
			 "electric_quadrupole_moment_norm": 7.20080507929, 
			 "total_energy": -759.380398007, 
			 "HOMO_LUMO_gap": 0.20146, 
			 "cosmo_polarized_energy": -6.83, 
			 "cosmo_cavitation_energy": 45.03, 
			 "cosmo_dispersion_energy": -30.18, 
			 "cosmo_repulsion_energy": 2.31, 
			 "cosmo_total_nonelectrostatic_energy": 17.16, 
			 "SMD_solvation_energy": 7.95 
		},
		"coords": [
			{
				"x": -3.1375404782,
				"y": 1.1099278934,
				"z": -1.1001060543,
				"element": "C" 
			},
			{
				"x": -2.688578218,
				"y": -0.0637594752,
				"z": -0.196939567,
				"element": "C" 
			},
			{
				"x": -3.2194105713,
				"y": 0.1670804998,
				"z": 1.2382571944,
				"element": "C" 
			},
			{
				"x": -3.3324270407,
				"y": -1.3539488905,
				"z": -0.7398454018,
				"element": "C" 
			},
			{
				"x": -1.1501742054,
				"y": -0.1402546112,
				"z": -0.1746942836,
				"element": "C" 
			},
			{
				"x": -0.4017222418,
				"y": 0.9460092142,
				"z": 0.2880544996,
				"element": "C" 
			},
			{
				"x": 0.9944836931,
				"y": 0.9612253498,
				"z": 0.3368204153,
				"element": "C" 
			},
			{
				"x": 1.689738383,
				"y": -0.1974339925,
				"z": -0.1234869173,
				"element": "C" 
			},
			{
				"x": 3.0966228475,
				"y": -0.2386020492,
				"z": -0.0625088041,
				"element": "N" 
			},
			{
				"x": 0.9647329926,
				"y": -1.3340651656,
				"z": -0.5803917803,
				"element": "C" 
			},
			{
				"x": -0.4352225886,
				"y": -1.2608896541,
				"z": -0.5936003635,
				"element": "C" 
			},
			{
				"x": 1.6584702705,
				"y": -2.6398342002,
				"z": -1.0605493964,
				"element": "C" 
			},
			{
				"x": 0.6391268772,
				"y": -3.7493868847,
				"z": -1.4092120343,
				"element": "C" 
			},
			{
				"x": 2.559339002,
				"y": -3.2375905474,
				"z": 0.0532556185,
				"element": "C" 
			},
			{
				"x": 2.4605285051,
				"y": -2.3971998995,
				"z": -2.368881603,
				"element": "C" 
			},
			{
				"x": 1.72258087,
				"y": 2.221499962,
				"z": 0.8825997736,
				"element": "C" 
			},
			{
				"x": 2.5296099009,
				"y": 2.9296993806,
				"z": -0.2402465337,
				"element": "C" 
			},
			{
				"x": 0.7316294667,
				"y": 3.287686878,
				"z": 1.4048286897,
				"element": "C" 
			},
			{
				"x": 2.6272541723,
				"y": 1.8657164812,
				"z": 2.092643994,
				"element": "C" 
			},
			{
				"x": -4.2312243227,
				"y": 1.184502521,
				"z": -1.1207066237,
				"element": "H" 
			},
			{
				"x": -2.7870400989,
				"y": 0.9674882314,
				"z": -2.1278005214,
				"element": "H" 
			},
			{
				"x": -2.7462351236,
				"y": 2.0682695546,
				"z": -0.7454412738,
				"element": "H" 
			},
			{
				"x": -2.8324995907,
				"y": 1.0949043928,
				"z": 1.6704214877,
				"element": "H" 
			},
			{
				"x": -4.3139891037,
				"y": 0.2310353799,
				"z": 1.239088605,
				"element": "H" 
			},
			{
				"x": -2.9261339235,
				"y": -0.655169351,
				"z": 1.8993356921,
				"element": "H" 
			},
			{
				"x": -3.0211558776,
				"y": -1.5631092497,
				"z": -1.7687902441,
				"element": "H" 
			},
			{
				"x": -3.0831602776,
				"y": -2.2244622821,
				"z": -0.1239704421,
				"element": "H" 
			},
			{
				"x": -4.4228005266,
				"y": -1.2518081624,
				"z": -0.739681741,
				"element": "H" 
			},
			{
				"x": -0.9387296265,
				"y": 1.8213083169,
				"z": 0.6273937183,
				"element": "H" 
			},
			{
				"x": 3.5262356912,
				"y": -0.8740862604,
				"z": -0.7147206637,
				"element": "H" 
			},
			{
				"x": 3.5449810911,
				"y": 0.6618677824,
				"z": -0.1063023074,
				"element": "H" 
			},
			{
				"x": -0.9878579462,
				"y": -2.1179904776,
				"z": -0.9464627342,
				"element": "H" 
			},
			{
				"x": 1.1822944649,
				"y": -4.6515482894,
				"z": -1.709122932,
				"element": "H" 
			},
			{
				"x": -0.0134576672,
				"y": -3.4697256086,
				"z": -2.2421225352,
				"element": "H" 
			},
			{
				"x": 0.0120658616,
				"y": -4.0126436625,
				"z": -0.5520438947,
				"element": "H" 
			},
			{
				"x": 3.063611258,
				"y": -4.1384881966,
				"z": -0.3151148204,
				"element": "H" 
			},
			{
				"x": 3.3188740686,
				"y": -2.5483410473,
				"z": 0.4231408838,
				"element": "H" 
			},
			{
				"x": 1.9440537589,
				"y": -3.5260580843,
				"z": 0.9117788204,
				"element": "H" 
			},
			{
				"x": 1.7884557573,
				"y": -2.0588084528,
				"z": -3.1638643248,
				"element": "H" 
			},
			{
				"x": 2.9347430284,
				"y": -3.3282096091,
				"z": -2.6992413725,
				"element": "H" 
			},
			{
				"x": 3.2532111617,
				"y": -1.6474527692,
				"z": -2.2897354309,
				"element": "H" 
			},
			{
				"x": 3.304534152,
				"y": 2.3148606442,
				"z": -0.7072896223,
				"element": "H" 
			},
			{
				"x": 3.0272480878,
				"y": 3.8211710148,
				"z": 0.1576720587,
				"element": "H" 
			},
			{
				"x": 1.8566046101,
				"y": 3.2472304266,
				"z": -1.0430046932,
				"element": "H" 
			},
			{
				"x": 1.297361892,
				"y": 4.1352107078,
				"z": 1.8053543402,
				"element": "H" 
			},
			{
				"x": 0.1029919367,
				"y": 2.900567174,
				"z": 2.2124556201,
				"element": "H" 
			},
			{
				"x": 0.0805788359,
				"y": 3.6747416789,
				"z": 0.6147426196,
				"element": "H" 
			},
			{
				"x": 3.3678391279,
				"y": 1.0949919931,
				"z": 1.8776047106,
				"element": "H" 
			},
			{
				"x": 2.0114524689,
				"y": 1.4959568502,
				"z": 2.9190241229,
				"element": "H" 
			},
			{
				"x": 3.1547051946,
				"y": 2.7607145454,
				"z": 2.4424060525,
				"element": "H" 
			}
		],
		 "valence_orbital": [ 
			{
				"type": "occ",
				"energy": -0.29808,
				"method": "rhf"
			},
			{
				"type": "occ",
				"energy": -0.29412,
				"method": "rhf"
			},
			{
				"type": "occ",
				"energy": -0.28561,
				"method": "rhf"
			},
			{
				"type": "occ",
				"energy": -0.22571,
				"method": "rhf"
			},
			{
				"type": "occ",
				"energy": -0.18718,
				"method": "rhf"
			},
			{
				"type": "unocc",
				"energy": 0.01428,
				"method": "rhf"
			},
			{
				"type": "unocc",
				"energy": 0.02313,
				"method": "rhf"
			},
			{
				"type": "unocc",
				"energy": 0.07315,
				"method": "rhf"
			},
			{
				"type": "unocc",
				"energy": 0.08581,
				"method": "rhf"
			},
			{
				"type": "unocc",
				"energy": 0.09136,
				"method": "rhf"
			}
		],
		"cosmo_sigma_profile": { 
			"-0.025": 0.0,
			"-0.024": 0.0,
			"-0.023": 0.0,
			"-0.022": 0.0,
			"-0.021": 0.0,
			"-0.02": 0.0,
			"-0.019": 0.0,
			"-0.018": 0.0,
			"-0.017": 0.0,
			"-0.016": 0.0,
			"-0.015": 0.0,
			"-0.014": 0.0,
			"-0.013": 0.0,
			"-0.012": 0.0,
			"-0.011": 0.569504280852,
			"-0.01": 1.72330765226,
			"-0.009": 2.89417242193,
			"-0.008": 1.78655920941,
			"-0.007": 2.71918852359,
			"-0.006": 2.33773618922,
			"-0.005": 2.64926816025,
			"-0.004": 4.11650673114,
			"-0.003": 27.3343784953,
			"-0.002": 61.1374720244,
			"-0.001": 49.5903255553,
			"0.0": 51.2704963683,
			"0.001": 59.0276995718,
			"0.002": 37.9745400972,
			"0.003": 7.76143724301,
			"0.004": 6.44803118544,
			"0.005": 5.60921707873,
			"0.006": 5.77487587066,
			"0.007": 7.02261604565,
			"0.008": 5.98790081112,
			"0.009": 1.41354976193,
			"0.01": 0.780324075502,
			"0.011": 0.928345335483,
			"0.012": 0.347696126434,
			"0.013": 0.0,
			"0.014": 0.0,
			"0.015": 0.0,
			"0.016": 0.0,
			"0.017": 0.0,
			"0.018": 0.0,
			"0.019": 0.0,
			"0.02": 0.0,
			"0.021": 0.0,
			"0.022": 0.0,
			"0.023": 0.0,
			"0.024": 0.0,
			"0.025": 0.0
		}
	}
}
