{
	 "smiles": "CC1=C(C(C)=NO1)C1=NC(CCl)=NO1", 
	 "Tm": 362.15, 
	 "num_atms": 22, 
	 "gaussian": { 
		 "optdone": 1, 
		 "sigma_profile": "yes", 
		 "theory": "DFT", 
		 "functional": "B3LYP", 
		 "basiset": "6-31G**", 
		 "properties": { 
			 "R2extent": 4088.7938, 
			 "electric_dipole_moment_norm": 1.92624234457, 
			 "electric_quadrupole_moment_norm": 13.927082007, 
			 "total_energy": -1084.49469625, 
			 "HOMO_LUMO_gap": 0.19968, 
			 "cosmo_polarized_energy": -11.43, 
			 "cosmo_cavitation_energy": 29.33, 
			 "cosmo_dispersion_energy": -21.19, 
			 "cosmo_repulsion_energy": 1.7, 
			 "cosmo_total_nonelectrostatic_energy": 9.84, 
			 "SMD_solvation_energy": 3.04 
		},
		"coords": [
			{
				"x": 2.8208954205,
				"y": -1.0120478465,
				"z": -1.2253419164,
				"element": "C" 
			},
			{
				"x": 1.4403044426,
				"y": -1.4916390372,
				"z": -0.9402675683,
				"element": "C" 
			},
			{
				"x": 0.3904277329,
				"y": -0.9917033097,
				"z": -0.2027429292,
				"element": "C" 
			},
			{
				"x": -0.6518005056,
				"y": -1.9708600931,
				"z": -0.3554176459,
				"element": "C" 
			},
			{
				"x": -2.0292178512,
				"y": -1.9668010684,
				"z": 0.2247749211,
				"element": "C" 
			},
			{
				"x": -0.2557963799,
				"y": -2.9618179638,
				"z": -1.1163754076,
				"element": "N" 
			},
			{
				"x": 1.0708172412,
				"y": -2.6556670371,
				"z": -1.4859714687,
				"element": "O" 
			},
			{
				"x": 0.3401669787,
				"y": 0.2302427433,
				"z": 0.5553773012,
				"element": "C" 
			},
			{
				"x": -0.6556879873,
				"y": 0.7163163223,
				"z": 1.2509840373,
				"element": "N" 
			},
			{
				"x": -0.1239818321,
				"y": 1.8820881634,
				"z": 1.7436868046,
				"element": "C" 
			},
			{
				"x": -0.8751538478,
				"y": 2.8319468786,
				"z": 2.6113610597,
				"element": "C" 
			},
			{
				"x": -1.1228517153,
				"y": 2.1622405698,
				"z": 4.2813909555,
				"element": "Cl" 
			},
			{
				"x": 1.1135079479,
				"y": 2.1280721372,
				"z": 1.3878937727,
				"element": "N" 
			},
			{
				"x": 1.4377000755,
				"y": 1.022098158,
				"z": 0.5858171059,
				"element": "O" 
			},
			{
				"x": 2.7979439448,
				"y": -0.035334981,
				"z": -1.7179699654,
				"element": "H" 
			},
			{
				"x": 3.3347726478,
				"y": -1.7274716622,
				"z": -1.8696379548,
				"element": "H" 
			},
			{
				"x": 3.3878154001,
				"y": -0.8908343161,
				"z": -0.2974235686,
				"element": "H" 
			},
			{
				"x": -1.9874658916,
				"y": -1.9214395728,
				"z": 1.3166442606,
				"element": "H" 
			},
			{
				"x": -2.5607010391,
				"y": -2.8689056493,
				"z": -0.083493897,
				"element": "H" 
			},
			{
				"x": -2.584787269,
				"y": -1.0848558442,
				"z": -0.106430743,
				"element": "H" 
			},
			{
				"x": -1.8685247686,
				"y": 3.0191138701,
				"z": 2.2038036091,
				"element": "H" 
			},
			{
				"x": -0.3232827446,
				"y": 3.7648595387,
				"z": 2.7146392371,
				"element": "H" 
			}
		],
		 "valence_orbital": [ 
			{
				"type": "occ",
				"energy": -0.31185,
				"method": "rhf"
			},
			{
				"type": "occ",
				"energy": -0.30837,
				"method": "rhf"
			},
			{
				"type": "occ",
				"energy": -0.30523,
				"method": "rhf"
			},
			{
				"type": "occ",
				"energy": -0.29506,
				"method": "rhf"
			},
			{
				"type": "occ",
				"energy": -0.26019,
				"method": "rhf"
			},
			{
				"type": "unocc",
				"energy": -0.06051,
				"method": "rhf"
			},
			{
				"type": "unocc",
				"energy": -0.0252,
				"method": "rhf"
			},
			{
				"type": "unocc",
				"energy": -0.00844,
				"method": "rhf"
			},
			{
				"type": "unocc",
				"energy": 0.0463,
				"method": "rhf"
			},
			{
				"type": "unocc",
				"energy": 0.07301,
				"method": "rhf"
			}
		],
		"cosmo_sigma_profile": { 
			"-0.025": 0.0,
			"-0.024": 0.0,
			"-0.023": 0.0,
			"-0.022": 0.0,
			"-0.021": 0.0,
			"-0.02": 0.0,
			"-0.019": 0.0,
			"-0.018": 0.0,
			"-0.017": 0.0,
			"-0.016": 0.0,
			"-0.015": 0.0,
			"-0.014": 0.0,
			"-0.013": 0.0,
			"-0.012": 0.0,
			"-0.011": 0.0,
			"-0.01": 0.588828507946,
			"-0.009": 3.95435980979,
			"-0.008": 3.60845162841,
			"-0.007": 7.51910741988,
			"-0.006": 13.6291028377,
			"-0.005": 16.5772510104,
			"-0.004": 20.5659206209,
			"-0.003": 23.6008102956,
			"-0.002": 22.0446975772,
			"-0.001": 17.1033458469,
			"0.0": 11.4712360849,
			"0.001": 10.0184907388,
			"0.002": 9.14879665383,
			"0.003": 10.4310149153,
			"0.004": 12.697061692,
			"0.005": 14.7451436666,
			"0.006": 12.3642952572,
			"0.007": 7.95548200766,
			"0.008": 5.02174502146,
			"0.009": 3.57862957306,
			"0.01": 3.6530995542,
			"0.011": 2.60117823075,
			"0.012": 2.10880274353,
			"0.013": 1.47373886696,
			"0.014": 0.390702151119,
			"0.015": 0.0,
			"0.016": 0.0,
			"0.017": 0.0,
			"0.018": 0.0,
			"0.019": 0.0,
			"0.02": 0.0,
			"0.021": 0.0,
			"0.022": 0.0,
			"0.023": 0.0,
			"0.024": 0.0,
			"0.025": 0.0
		}
	}
}
