{
	 "smiles": "CCOC1=CC=C(C=C1)C1=NN=C(SC(F)F)N1CCC(O)=O", 
	 "Tm": 472.15, 
	 "num_atms": 38, 
	 "gaussian": { 
		 "optdone": 1, 
		 "sigma_profile": "yes", 
		 "theory": "DFT", 
		 "functional": "B3LYP", 
		 "basiset": "6-31G**", 
		 "properties": { 
			 "R2extent": 11966.044, 
			 "electric_dipole_moment_norm": 6.87384432323, 
			 "electric_quadrupole_moment_norm": 8.58679718754, 
			 "total_energy": -1530.29876865, 
			 "HOMO_LUMO_gap": 0.19048, 
			 "cosmo_polarized_energy": -23.88, 
			 "cosmo_cavitation_energy": 45.84, 
			 "cosmo_dispersion_energy": -31.25, 
			 "cosmo_repulsion_energy": 2.38, 
			 "cosmo_total_nonelectrostatic_energy": 16.97, 
			 "SMD_solvation_energy": 7.39 
		},
		"coords": [
			{
				"x": -1.0180723592,
				"y": 1.625471052,
				"z": 6.028076322,
				"element": "C" 
			},
			{
				"x": -0.4983272047,
				"y": 1.4613399729,
				"z": 4.6109699775,
				"element": "C" 
			},
			{
				"x": -0.9154765921,
				"y": 0.1755415173,
				"z": 4.146062123,
				"element": "O" 
			},
			{
				"x": -0.5733566127,
				"y": -0.2145312527,
				"z": 2.8900223102,
				"element": "C" 
			},
			{
				"x": 0.1676942883,
				"y": 0.5598912001,
				"z": 1.9873948416,
				"element": "C" 
			},
			{
				"x": 0.4564130948,
				"y": 0.0552091651,
				"z": 0.7185600247,
				"element": "C" 
			},
			{
				"x": 0.0090239818,
				"y": -1.2107717623,
				"z": 0.3199018834,
				"element": "C" 
			},
			{
				"x": -0.7162949133,
				"y": -1.9853279923,
				"z": 1.2454655565,
				"element": "C" 
			},
			{
				"x": -1.0060917843,
				"y": -1.4958540845,
				"z": 2.5088904386,
				"element": "C" 
			},
			{
				"x": 0.3251382016,
				"y": -1.7936691094,
				"z": -0.9931365265,
				"element": "C" 
			},
			{
				"x": 0.748978216,
				"y": -3.0384795282,
				"z": -1.1616466963,
				"element": "N" 
			},
			{
				"x": 0.9245705391,
				"y": -3.2504830421,
				"z": -2.5011609599,
				"element": "N" 
			},
			{
				"x": 0.6063955524,
				"y": -2.1345721526,
				"z": -3.1225208321,
				"element": "C" 
			},
			{
				"x": 0.6320817452,
				"y": -1.9182953468,
				"z": -4.8710901009,
				"element": "S" 
			},
			{
				"x": 2.3084377014,
				"y": -1.1816074145,
				"z": -5.0298951356,
				"element": "C" 
			},
			{
				"x": 2.3672992415,
				"y": 0.043680246,
				"z": -4.4363100797,
				"element": "F" 
			},
			{
				"x": 2.5370687841,
				"y": -1.0247471459,
				"z": -6.3531275744,
				"element": "F" 
			},
			{
				"x": 0.2176130716,
				"y": -1.1667576115,
				"z": -2.2136399606,
				"element": "N" 
			},
			{
				"x": -0.3739219243,
				"y": 0.1354271792,
				"z": -2.5304156696,
				"element": "C" 
			},
			{
				"x": -1.8848596993,
				"y": 0.0202309579,
				"z": -2.783806755,
				"element": "C" 
			},
			{
				"x": -2.5617206475,
				"y": 1.3372830946,
				"z": -3.1075387705,
				"element": "C" 
			},
			{
				"x": -1.9962948453,
				"y": 2.3799290949,
				"z": -2.4477247575,
				"element": "O" 
			},
			{
				"x": -3.5124506133,
				"y": 1.4683274641,
				"z": -3.842180254,
				"element": "O" 
			},
			{
				"x": -0.7206102628,
				"y": 2.6003962176,
				"z": 6.4259823117,
				"element": "H" 
			},
			{
				"x": -0.6133573672,
				"y": 0.8462213292,
				"z": 6.679617731,
				"element": "H" 
			},
			{
				"x": -2.1093727005,
				"y": 1.5600561269,
				"z": 6.0486522998,
				"element": "H" 
			},
			{
				"x": -0.9004346757,
				"y": 2.243486802,
				"z": 3.9518286497,
				"element": "H" 
			},
			{
				"x": 0.5982107485,
				"y": 1.5284402164,
				"z": 4.5846938437,
				"element": "H" 
			},
			{
				"x": 0.5358787249,
				"y": 1.5403925774,
				"z": 2.2630871093,
				"element": "H" 
			},
			{
				"x": 1.0726072436,
				"y": 0.6506420429,
				"z": 0.0515656224,
				"element": "H" 
			},
			{
				"x": -1.0419737051,
				"y": -2.9789856557,
				"z": 0.956749306,
				"element": "H" 
			},
			{
				"x": -1.5682719314,
				"y": -2.0856509154,
				"z": 3.22518117,
				"element": "H" 
			},
			{
				"x": 3.071250252,
				"y": -1.8246107972,
				"z": -4.5817996716,
				"element": "H" 
			},
			{
				"x": 0.1450464144,
				"y": 0.5266482353,
				"z": -3.406101096,
				"element": "H" 
			},
			{
				"x": -0.1868133868,
				"y": 0.813333569,
				"z": -1.7011248422,
				"element": "H" 
			},
			{
				"x": -2.3709869144,
				"y": -0.3847916484,
				"z": -1.8870643475,
				"element": "H" 
			},
			{
				"x": -2.0988306876,
				"y": -0.6641596596,
				"z": -3.6074454522,
				"element": "H" 
			},
			{
				"x": -2.5048889734,
				"y": 3.1687470586,
				"z": -2.7019720389,
				"element": "H" 
			}
		],
		 "valence_orbital": [ 
			{
				"type": "occ",
				"energy": -0.27672,
				"method": "rhf"
			},
			{
				"type": "occ",
				"energy": -0.27066,
				"method": "rhf"
			},
			{
				"type": "occ",
				"energy": -0.26614,
				"method": "rhf"
			},
			{
				"type": "occ",
				"energy": -0.25617,
				"method": "rhf"
			},
			{
				"type": "occ",
				"energy": -0.22598,
				"method": "rhf"
			},
			{
				"type": "unocc",
				"energy": -0.0355,
				"method": "rhf"
			},
			{
				"type": "unocc",
				"energy": -0.01741,
				"method": "rhf"
			},
			{
				"type": "unocc",
				"energy": -0.01278,
				"method": "rhf"
			},
			{
				"type": "unocc",
				"energy": -0.00553,
				"method": "rhf"
			},
			{
				"type": "unocc",
				"energy": 0.02633,
				"method": "rhf"
			}
		],
		"cosmo_sigma_profile": { 
			"-0.025": 0.0,
			"-0.024": 0.0,
			"-0.023": 0.0,
			"-0.022": 0.0,
			"-0.021": 0.0,
			"-0.02": 0.0,
			"-0.019": 0.16519014456,
			"-0.018": 0.773552176516,
			"-0.017": 0.921208032827,
			"-0.016": 0.645478948498,
			"-0.015": 1.45991104489,
			"-0.014": 0.663779769901,
			"-0.013": 0.682461517617,
			"-0.012": 0.161267815589,
			"-0.011": 1.78374112163,
			"-0.01": 3.52098418077,
			"-0.009": 3.19978023499,
			"-0.008": 6.17419889352,
			"-0.007": 11.2276147051,
			"-0.006": 18.5537105394,
			"-0.005": 26.6121567713,
			"-0.004": 27.8674769195,
			"-0.003": 28.6599827686,
			"-0.002": 26.5733230961,
			"-0.001": 25.6386880362,
			"0.0": 23.9624729619,
			"0.001": 20.5491123997,
			"0.002": 24.6679411679,
			"0.003": 31.6313787414,
			"0.004": 19.1327168503,
			"0.005": 8.70673922298,
			"0.006": 7.27168739793,
			"0.007": 6.90162564925,
			"0.008": 4.77845392491,
			"0.009": 5.54096962632,
			"0.01": 4.49468602352,
			"0.011": 7.51543468514,
			"0.012": 6.38283806211,
			"0.013": 3.71950524064,
			"0.014": 2.68825252498,
			"0.015": 2.00375173595,
			"0.016": 1.58193002964,
			"0.017": 0.0691111018965,
			"0.018": 0.0,
			"0.019": 0.0,
			"0.02": 0.0,
			"0.021": 0.0,
			"0.022": 0.0,
			"0.023": 0.0,
			"0.024": 0.0,
			"0.025": 0.0
		}
	}
}
