{
	 "smiles": "OC(=O)C1=CC=CC2=NSN=C12", 
	 "Tm": 472.15, 
	 "num_atms": 16, 
	 "gaussian": { 
		 "optdone": 1, 
		 "sigma_profile": "yes", 
		 "theory": "DFT", 
		 "functional": "B3LYP", 
		 "basiset": "6-31G**", 
		 "properties": { 
			 "R2extent": 2476.1249, 
			 "electric_dipole_moment_norm": 3.11003185514, 
			 "electric_quadrupole_moment_norm": 7.83481658624, 
			 "total_energy": -927.278964732, 
			 "HOMO_LUMO_gap": 0.15437, 
			 "cosmo_polarized_energy": -13.19, 
			 "cosmo_cavitation_energy": 22.89, 
			 "cosmo_dispersion_energy": -17.97, 
			 "cosmo_repulsion_energy": 1.36, 
			 "cosmo_total_nonelectrostatic_energy": 6.28, 
			 "SMD_solvation_energy": 2.04 
		},
		"coords": [
			{
				"x": -0.166430522,
				"y": -2.2252577537,
				"z": -3.3312560311,
				"element": "O" 
			},
			{
				"x": 0.7079312363,
				"y": -1.9601719608,
				"z": -2.3207441127,
				"element": "C" 
			},
			{
				"x": 1.8356446362,
				"y": -2.4018900591,
				"z": -2.3176407802,
				"element": "O" 
			},
			{
				"x": 0.1067588864,
				"y": -1.0920280009,
				"z": -1.2726224157,
				"element": "C" 
			},
			{
				"x": -1.1942440908,
				"y": -0.6431409895,
				"z": -1.3767754652,
				"element": "C" 
			},
			{
				"x": -1.8039574269,
				"y": 0.1896274638,
				"z": -0.3926981838,
				"element": "C" 
			},
			{
				"x": -1.1211399623,
				"y": 0.5945317974,
				"z": 0.7248603307,
				"element": "C" 
			},
			{
				"x": 0.2253964,
				"y": 0.1603337165,
				"z": 0.8829955826,
				"element": "C" 
			},
			{
				"x": 1.0213402347,
				"y": 0.4691069931,
				"z": 1.9147760778,
				"element": "N" 
			},
			{
				"x": 2.4545524997,
				"y": -0.2733882551,
				"z": 1.6177161584,
				"element": "S" 
			},
			{
				"x": 2.1224388479,
				"y": -1.004758399,
				"z": 0.1875582355,
				"element": "N" 
			},
			{
				"x": 0.8577131436,
				"y": -0.6893010764,
				"z": -0.1142932234,
				"element": "C" 
			},
			{
				"x": 0.3223099108,
				"y": -2.790946706,
				"z": -3.9509111638,
				"element": "H" 
			},
			{
				"x": -1.7743414408,
				"y": -0.9372975948,
				"z": -2.2434778396,
				"element": "H" 
			},
			{
				"x": -2.8322035687,
				"y": 0.5029659859,
				"z": -0.5437058501,
				"element": "H" 
			},
			{
				"x": -1.5698687841,
				"y": 1.2275148386,
				"z": 1.4825186808,
				"element": "H" 
			}
		],
		 "valence_orbital": [ 
			{
				"type": "occ",
				"energy": -0.31881,
				"method": "rhf"
			},
			{
				"type": "occ",
				"energy": -0.30636,
				"method": "rhf"
			},
			{
				"type": "occ",
				"energy": -0.27362,
				"method": "rhf"
			},
			{
				"type": "occ",
				"energy": -0.27205,
				"method": "rhf"
			},
			{
				"type": "occ",
				"energy": -0.25492,
				"method": "rhf"
			},
			{
				"type": "unocc",
				"energy": -0.10055,
				"method": "rhf"
			},
			{
				"type": "unocc",
				"energy": -0.03316,
				"method": "rhf"
			},
			{
				"type": "unocc",
				"energy": -0.00123,
				"method": "rhf"
			},
			{
				"type": "unocc",
				"energy": 0.00868,
				"method": "rhf"
			},
			{
				"type": "unocc",
				"energy": 0.05537,
				"method": "rhf"
			}
		],
		"cosmo_sigma_profile": { 
			"-0.025": 0.0,
			"-0.024": 0.0,
			"-0.023": 0.0,
			"-0.022": 0.0,
			"-0.021": 0.0,
			"-0.02": 0.0,
			"-0.019": 0.119287324633,
			"-0.018": 0.839937724768,
			"-0.017": 1.12639077017,
			"-0.016": 0.664371760481,
			"-0.015": 0.330313852042,
			"-0.014": 0.742765491358,
			"-0.013": 0.201927062357,
			"-0.012": 1.15385124048,
			"-0.011": 1.44767689187,
			"-0.01": 0.505871910644,
			"-0.009": 0.24864813126,
			"-0.008": 4.14882933092,
			"-0.007": 7.40065437718,
			"-0.006": 6.78397341597,
			"-0.005": 7.86284706487,
			"-0.004": 10.2578528083,
			"-0.003": 15.256639182,
			"-0.002": 22.8951770015,
			"-0.001": 19.5665570039,
			"0.0": 17.6835073335,
			"0.001": 13.5598982657,
			"0.002": 6.97653826786,
			"0.003": 5.3851971924,
			"0.004": 4.86974752627,
			"0.005": 4.46875148982,
			"0.006": 3.97244022393,
			"0.007": 3.70809955343,
			"0.008": 3.27271801561,
			"0.009": 3.80362271757,
			"0.01": 2.94955055991,
			"0.011": 4.88639911146,
			"0.012": 4.42936012955,
			"0.013": 1.95890906568,
			"0.014": 1.72726410609,
			"0.015": 1.08162997952,
			"0.016": 0.993854219286,
			"0.017": 0.39996129766,
			"0.018": 0.0,
			"0.019": 0.0,
			"0.02": 0.0,
			"0.021": 0.0,
			"0.022": 0.0,
			"0.023": 0.0,
			"0.024": 0.0,
			"0.025": 0.0
		}
	}
}
