{
	 "smiles": "COC1=CC(CC(O)=O)=CC(OC)=C1OC", 
	 "Tm": 393.15, 
	 "num_atms": 30, 
	 "gaussian": { 
		 "optdone": 1, 
		 "sigma_profile": "yes", 
		 "theory": "DFT", 
		 "functional": "B3LYP", 
		 "basiset": "6-31G**", 
		 "properties": { 
			 "R2extent": 5280.6826, 
			 "electric_dipole_moment_norm": 0.514858864156, 
			 "electric_quadrupole_moment_norm": 11.1140809849, 
			 "total_energy": -803.691746299, 
			 "HOMO_LUMO_gap": 0.22314, 
			 "cosmo_polarized_energy": -13.62, 
			 "cosmo_cavitation_energy": 34.3, 
			 "cosmo_dispersion_energy": -23.61, 
			 "cosmo_repulsion_energy": 1.9, 
			 "cosmo_total_nonelectrostatic_energy": 12.59, 
			 "SMD_solvation_energy": 9.31 
		},
		"coords": [
			{
				"x": 1.9198846098,
				"y": 1.2845876685,
				"z": 3.1436011336,
				"element": "C" 
			},
			{
				"x": 1.5970725943,
				"y": 0.2832296874,
				"z": 2.1733183029,
				"element": "O" 
			},
			{
				"x": 0.9176374045,
				"y": 0.7219976755,
				"z": 1.0628411004,
				"element": "C" 
			},
			{
				"x": 1.5347103226,
				"y": 0.6003369929,
				"z": -0.1856202016,
				"element": "C" 
			},
			{
				"x": 0.8597135471,
				"y": 0.9515679301,
				"z": -1.3574039641,
				"element": "C" 
			},
			{
				"x": 1.5376986054,
				"y": 0.7864878107,
				"z": -2.6983002267,
				"element": "C" 
			},
			{
				"x": 1.7867787806,
				"y": 2.0884918533,
				"z": -3.4453204172,
				"element": "C" 
			},
			{
				"x": 2.8025933659,
				"y": 1.9463194694,
				"z": -4.3329089078,
				"element": "O" 
			},
			{
				"x": 1.1662633736,
				"y": 3.1201054824,
				"z": -3.3272767589,
				"element": "O" 
			},
			{
				"x": -0.4434820081,
				"y": 1.4544680375,
				"z": -1.2685493169,
				"element": "C" 
			},
			{
				"x": -1.0654185466,
				"y": 1.5866885442,
				"z": -0.0284298326,
				"element": "C" 
			},
			{
				"x": -2.3708150713,
				"y": 2.021016779,
				"z": 0.0197501177,
				"element": "O" 
			},
			{
				"x": -2.5551939697,
				"y": 3.3204371027,
				"z": 0.5933948382,
				"element": "C" 
			},
			{
				"x": -0.3939574045,
				"y": 1.2140724011,
				"z": 1.1500053893,
				"element": "C" 
			},
			{
				"x": -1.0089473004,
				"y": 1.3344489539,
				"z": 2.378297873,
				"element": "O" 
			},
			{
				"x": -1.9168934134,
				"y": 0.265906373,
				"z": 2.6773062798,
				"element": "C" 
			},
			{
				"x": 2.4692196954,
				"y": 0.7718888033,
				"z": 3.9361367268,
				"element": "H" 
			},
			{
				"x": 1.0188485219,
				"y": 1.7456391989,
				"z": 3.5570644829,
				"element": "H" 
			},
			{
				"x": 2.5616013152,
				"y": 2.0594897405,
				"z": 2.7044636764,
				"element": "H" 
			},
			{
				"x": 2.5463631847,
				"y": 0.2071991028,
				"z": -0.2157873601,
				"element": "H" 
			},
			{
				"x": 0.9209530741,
				"y": 0.1722563588,
				"z": -3.3697783281,
				"element": "H" 
			},
			{
				"x": 2.489800165,
				"y": 0.2590897648,
				"z": -2.59830687,
				"element": "H" 
			},
			{
				"x": 2.8726649537,
				"y": 2.7967121851,
				"z": -4.7989532172,
				"element": "H" 
			},
			{
				"x": -0.9916912602,
				"y": 1.7550668507,
				"z": -2.1541734484,
				"element": "H" 
			},
			{
				"x": -2.215369127,
				"y": 3.3479321748,
				"z": 1.6331888501,
				"element": "H" 
			},
			{
				"x": -3.6275328968,
				"y": 3.5227428123,
				"z": 0.5511278431,
				"element": "H" 
			},
			{
				"x": -2.0205227243,
				"y": 4.0809303504,
				"z": 0.0107360134,
				"element": "H" 
			},
			{
				"x": -2.7251529756,
				"y": 0.2241824438,
				"z": 1.9397566381,
				"element": "H" 
			},
			{
				"x": -2.3317526542,
				"y": 0.48156257,
				"z": 3.6643057642,
				"element": "H" 
			},
			{
				"x": -1.3894741619,
				"y": -0.6946551179,
				"z": 2.7055138195,
				"element": "H" 
			}
		],
		 "valence_orbital": [ 
			{
				"type": "occ",
				"energy": -0.27979,
				"method": "rhf"
			},
			{
				"type": "occ",
				"energy": -0.27516,
				"method": "rhf"
			},
			{
				"type": "occ",
				"energy": -0.25764,
				"method": "rhf"
			},
			{
				"type": "occ",
				"energy": -0.22813,
				"method": "rhf"
			},
			{
				"type": "occ",
				"energy": -0.22439,
				"method": "rhf"
			},
			{
				"type": "unocc",
				"energy": -0.00125,
				"method": "rhf"
			},
			{
				"type": "unocc",
				"energy": 0.00515,
				"method": "rhf"
			},
			{
				"type": "unocc",
				"energy": 0.01364,
				"method": "rhf"
			},
			{
				"type": "unocc",
				"energy": 0.07546,
				"method": "rhf"
			},
			{
				"type": "unocc",
				"energy": 0.08,
				"method": "rhf"
			}
		],
		"cosmo_sigma_profile": { 
			"-0.025": 0.0,
			"-0.024": 0.0,
			"-0.023": 0.0,
			"-0.022": 0.0,
			"-0.021": 0.0,
			"-0.02": 0.0,
			"-0.019": 0.0,
			"-0.018": 0.52590023904,
			"-0.017": 1.38894542671,
			"-0.016": 0.592613767901,
			"-0.015": 0.408165761312,
			"-0.014": 1.12918267828,
			"-0.013": 0.774370310319,
			"-0.012": 0.457929506562,
			"-0.011": 0.492505202917,
			"-0.01": 0.743491537649,
			"-0.009": 1.15038769283,
			"-0.008": 1.09728142131,
			"-0.007": 4.94477433866,
			"-0.006": 10.3896120084,
			"-0.005": 18.1706399394,
			"-0.004": 23.205552515,
			"-0.003": 31.4269875079,
			"-0.002": 30.3351091442,
			"-0.001": 17.7785600131,
			"0.0": 15.8030435355,
			"0.001": 15.4762266058,
			"0.002": 14.1778845434,
			"0.003": 14.5949077343,
			"0.004": 15.3340104462,
			"0.005": 8.17323707468,
			"0.006": 7.147872355,
			"0.007": 6.48102965032,
			"0.008": 5.55216249546,
			"0.009": 5.94159458055,
			"0.01": 4.84771832496,
			"0.011": 6.54766352718,
			"0.012": 5.58849997711,
			"0.013": 0.0621132178375,
			"0.014": 0.0,
			"0.015": 0.0,
			"0.016": 0.0,
			"0.017": 0.0,
			"0.018": 0.0,
			"0.019": 0.0,
			"0.02": 0.0,
			"0.021": 0.0,
			"0.022": 0.0,
			"0.023": 0.0,
			"0.024": 0.0,
			"0.025": 0.0
		}
	}
}
