{
	 "smiles": "CNS(=O)(=O)CC(O)=O", 
	 "Tm": 393.15, 
	 "num_atms": 16, 
	 "gaussian": { 
		 "optdone": 1, 
		 "sigma_profile": "yes", 
		 "theory": "DFT", 
		 "functional": "B3LYP", 
		 "basiset": "6-31G**", 
		 "properties": { 
			 "R2extent": 2791.1141, 
			 "electric_dipole_moment_norm": 4.68488436784, 
			 "electric_quadrupole_moment_norm": 24.136626777, 
			 "total_energy": -872.306526897, 
			 "HOMO_LUMO_gap": 0.25758, 
			 "cosmo_polarized_energy": -20.33, 
			 "cosmo_cavitation_energy": 22.13, 
			 "cosmo_dispersion_energy": -16.33, 
			 "cosmo_repulsion_energy": 1.32, 
			 "cosmo_total_nonelectrostatic_energy": 7.12, 
			 "SMD_solvation_energy": 4.16 
		},
		"coords": [
			{
				"x": -0.5891831303,
				"y": 2.1904635309,
				"z": -0.8732302176,
				"element": "C" 
			},
			{
				"x": -0.9123582582,
				"y": 2.3742546398,
				"z": 0.5487444512,
				"element": "N" 
			},
			{
				"x": -1.9238786635,
				"y": 1.2332454458,
				"z": 1.2775355712,
				"element": "S" 
			},
			{
				"x": -2.6706044312,
				"y": 1.960080931,
				"z": 2.3035706077,
				"element": "O" 
			},
			{
				"x": -2.593764391,
				"y": 0.4168503766,
				"z": 0.2624127675,
				"element": "O" 
			},
			{
				"x": -0.6791889955,
				"y": 0.1663952242,
				"z": 2.0883139052,
				"element": "C" 
			},
			{
				"x": -1.3153975598,
				"y": -1.1227502004,
				"z": 2.5736988049,
				"element": "C" 
			},
			{
				"x": -1.0611078618,
				"y": -2.1385666572,
				"z": 1.7234421827,
				"element": "O" 
			},
			{
				"x": -1.9644037406,
				"y": -1.2331523737,
				"z": 3.5857720158,
				"element": "O" 
			},
			{
				"x": -0.0398725603,
				"y": 1.255361266,
				"z": -1.0061113312,
				"element": "H" 
			},
			{
				"x": 0.0678396277,
				"y": 3.0113277624,
				"z": -1.1700774691,
				"element": "H" 
			},
			{
				"x": -1.4703592314,
				"y": 2.169264081,
				"z": -1.5224677427,
				"element": "H" 
			},
			{
				"x": -1.2921263515,
				"y": 3.2898253132,
				"z": 0.7763191239,
				"element": "H" 
			},
			{
				"x": 0.1006943411,
				"y": -0.0292791768,
				"z": 1.3515849536,
				"element": "H" 
			},
			{
				"x": -0.2891190788,
				"y": 0.7352965283,
				"z": 2.9322990913,
				"element": "H" 
			},
			{
				"x": -1.5288697147,
				"y": -2.9159166908,
				"z": 2.0737932853,
				"element": "H" 
			}
		],
		 "valence_orbital": [ 
			{
				"type": "occ",
				"energy": -0.32359,
				"method": "rhf"
			},
			{
				"type": "occ",
				"energy": -0.3178,
				"method": "rhf"
			},
			{
				"type": "occ",
				"energy": -0.30836,
				"method": "rhf"
			},
			{
				"type": "occ",
				"energy": -0.2931,
				"method": "rhf"
			},
			{
				"type": "occ",
				"energy": -0.28226,
				"method": "rhf"
			},
			{
				"type": "unocc",
				"energy": -0.02468,
				"method": "rhf"
			},
			{
				"type": "unocc",
				"energy": 0.05205,
				"method": "rhf"
			},
			{
				"type": "unocc",
				"energy": 0.06558,
				"method": "rhf"
			},
			{
				"type": "unocc",
				"energy": 0.071,
				"method": "rhf"
			},
			{
				"type": "unocc",
				"energy": 0.082,
				"method": "rhf"
			}
		],
		"cosmo_sigma_profile": { 
			"-0.025": 0.0,
			"-0.024": 0.0,
			"-0.023": 0.0,
			"-0.022": 0.0,
			"-0.021": 0.0,
			"-0.02": 0.0116618116889,
			"-0.019": 0.751030299123,
			"-0.018": 0.749800323927,
			"-0.017": 1.29638153944,
			"-0.016": 0.802836721285,
			"-0.015": 1.24546400917,
			"-0.014": 1.68414606382,
			"-0.013": 1.56625940921,
			"-0.012": 2.25338889646,
			"-0.011": 2.42472816942,
			"-0.01": 4.42283070045,
			"-0.009": 5.01710603526,
			"-0.008": 6.93319090307,
			"-0.007": 7.69522431807,
			"-0.006": 9.34673174725,
			"-0.005": 9.17619087621,
			"-0.004": 9.31969478095,
			"-0.003": 11.6764712753,
			"-0.002": 9.20033346963,
			"-0.001": 5.71647235423,
			"0.0": 4.45162881363,
			"0.001": 3.63988050224,
			"0.002": 4.05002954888,
			"0.003": 5.58926605002,
			"0.004": 4.94186205284,
			"0.005": 5.54083026905,
			"0.006": 5.78185800974,
			"0.007": 7.18083023814,
			"0.008": 6.35461742098,
			"0.009": 7.18826009159,
			"0.01": 15.5620832784,
			"0.011": 11.7496720004,
			"0.012": 1.09076322711,
			"0.013": 0.0,
			"0.014": 0.0,
			"0.015": 0.0,
			"0.016": 0.0,
			"0.017": 0.0,
			"0.018": 0.0,
			"0.019": 0.0,
			"0.02": 0.0,
			"0.021": 0.0,
			"0.022": 0.0,
			"0.023": 0.0,
			"0.024": 0.0,
			"0.025": 0.0
		}
	}
}
