{
	 "smiles": "OC(=O)C1=CC=CN2C=C(CN3CCCC3)N=C12", 
	 "Tm": 538.15, 
	 "num_atms": 33, 
	 "gaussian": { 
		 "optdone": 1, 
		 "sigma_profile": "yes", 
		 "theory": "DFT", 
		 "functional": "B3LYP", 
		 "basiset": "6-31G**", 
		 "properties": { 
			 "R2extent": 6777.8182, 
			 "electric_dipole_moment_norm": 3.59332894681, 
			 "electric_quadrupole_moment_norm": 16.0759886439, 
			 "total_energy": -819.126552401, 
			 "HOMO_LUMO_gap": 0.15179, 
			 "cosmo_polarized_energy": -17.01, 
			 "cosmo_cavitation_energy": 36.0, 
			 "cosmo_dispersion_energy": -26.29, 
			 "cosmo_repulsion_energy": 2.04, 
			 "cosmo_total_nonelectrostatic_energy": 11.75, 
			 "SMD_solvation_energy": 3.94 
		},
		"coords": [
			{
				"x": 3.8126238657,
				"y": -3.022344286,
				"z": 0.2409981929,
				"element": "O" 
			},
			{
				"x": 3.4756065623,
				"y": -3.5694105674,
				"z": -0.9411364748,
				"element": "C" 
			},
			{
				"x": 4.1690653382,
				"y": -4.4058687199,
				"z": -1.4923767574,
				"element": "O" 
			},
			{
				"x": 2.1924548826,
				"y": -3.067064176,
				"z": -1.5093408925,
				"element": "C" 
			},
			{
				"x": 1.7983769181,
				"y": -3.604057227,
				"z": -2.721631442,
				"element": "C" 
			},
			{
				"x": 0.5985962431,
				"y": -3.2019963805,
				"z": -3.3533631586,
				"element": "C" 
			},
			{
				"x": -0.2000276031,
				"y": -2.2603100434,
				"z": -2.7625677552,
				"element": "C" 
			},
			{
				"x": 0.1721314428,
				"y": -1.7187511358,
				"z": -1.5637204846,
				"element": "N" 
			},
			{
				"x": -0.4477523508,
				"y": -0.7694528956,
				"z": -0.7779910572,
				"element": "C" 
			},
			{
				"x": 0.3762716903,
				"y": -0.5999477096,
				"z": 0.31598191,
				"element": "C" 
			},
			{
				"x": 0.1403535446,
				"y": 0.2956898943,
				"z": 1.4989053535,
				"element": "C" 
			},
			{
				"x": -0.6997385314,
				"y": 1.4396755237,
				"z": 1.1731932811,
				"element": "N" 
			},
			{
				"x": -1.2341813613,
				"y": 2.1406553289,
				"z": 2.3431862173,
				"element": "C" 
			},
			{
				"x": -1.8296437986,
				"y": 3.433675913,
				"z": 1.7546037661,
				"element": "C" 
			},
			{
				"x": -1.0250877108,
				"y": 3.6637158738,
				"z": 0.4416553427,
				"element": "C" 
			},
			{
				"x": -0.0326820684,
				"y": 2.4871304823,
				"z": 0.3929160253,
				"element": "C" 
			},
			{
				"x": 1.4812575528,
				"y": -1.4023266285,
				"z": 0.2463400396,
				"element": "N" 
			},
			{
				"x": 1.3661706862,
				"y": -2.0843173672,
				"z": -0.8846436842,
				"element": "C" 
			},
			{
				"x": 4.6567075458,
				"y": -3.4378120067,
				"z": 0.485674871,
				"element": "H" 
			},
			{
				"x": 2.4415470275,
				"y": -4.3485626019,
				"z": -3.17656308,
				"element": "H" 
			},
			{
				"x": 0.3014022847,
				"y": -3.6312010597,
				"z": -4.3027950367,
				"element": "H" 
			},
			{
				"x": -1.1319438438,
				"y": -1.9034569778,
				"z": -3.1854279039,
				"element": "H" 
			},
			{
				"x": -1.384906808,
				"y": -0.3117644275,
				"z": -1.0495433671,
				"element": "H" 
			},
			{
				"x": 1.1214781594,
				"y": 0.5884858065,
				"z": 1.9174471319,
				"element": "H" 
			},
			{
				"x": -0.3659185264,
				"y": -0.2846194016,
				"z": 2.2822769475,
				"element": "H" 
			},
			{
				"x": -0.4344451515,
				"y": 2.3856374791,
				"z": 3.0700395025,
				"element": "H" 
			},
			{
				"x": -1.9710688113,
				"y": 1.5182139838,
				"z": 2.8626113794,
				"element": "H" 
			},
			{
				"x": -1.7418086113,
				"y": 4.2696047181,
				"z": 2.4540261487,
				"element": "H" 
			},
			{
				"x": -2.8928233493,
				"y": 3.3017760264,
				"z": 1.5350235799,
				"element": "H" 
			},
			{
				"x": -0.5054042226,
				"y": 4.625764029,
				"z": 0.4295870906,
				"element": "H" 
			},
			{
				"x": -1.6916522741,
				"y": 3.64259465,
				"z": -0.4252745099,
				"element": "H" 
			},
			{
				"x": 0.1849476512,
				"y": 2.1400195652,
				"z": -0.6211983743,
				"element": "H" 
			},
			{
				"x": 0.9305936275,
				"y": 2.7771243383,
				"z": 0.8576071985,
				"element": "H" 
			}
		],
		 "valence_orbital": [ 
			{
				"type": "occ",
				"energy": -0.27301,
				"method": "rhf"
			},
			{
				"type": "occ",
				"energy": -0.26459,
				"method": "rhf"
			},
			{
				"type": "occ",
				"energy": -0.24204,
				"method": "rhf"
			},
			{
				"type": "occ",
				"energy": -0.21542,
				"method": "rhf"
			},
			{
				"type": "occ",
				"energy": -0.21312,
				"method": "rhf"
			},
			{
				"type": "unocc",
				"energy": -0.06133,
				"method": "rhf"
			},
			{
				"type": "unocc",
				"energy": -0.00014,
				"method": "rhf"
			},
			{
				"type": "unocc",
				"energy": 0.0418,
				"method": "rhf"
			},
			{
				"type": "unocc",
				"energy": 0.06339,
				"method": "rhf"
			},
			{
				"type": "unocc",
				"energy": 0.08349,
				"method": "rhf"
			}
		],
		"cosmo_sigma_profile": { 
			"-0.025": 0.0,
			"-0.024": 0.0,
			"-0.023": 0.0,
			"-0.022": 0.0,
			"-0.021": 0.0,
			"-0.02": 0.0,
			"-0.019": 0.0492123204676,
			"-0.018": 0.849692546015,
			"-0.017": 0.770056525356,
			"-0.016": 1.07484722099,
			"-0.015": 0.791361201718,
			"-0.014": 0.389522533934,
			"-0.013": 0.379348634212,
			"-0.012": 0.950743702115,
			"-0.011": 0.911928977597,
			"-0.01": 3.64617606,
			"-0.009": 3.79021681456,
			"-0.008": 4.72100686118,
			"-0.007": 6.87713838417,
			"-0.006": 7.08496967422,
			"-0.005": 7.7059655507,
			"-0.004": 9.6833610178,
			"-0.003": 18.8587262236,
			"-0.002": 32.6347099263,
			"-0.001": 46.7306559237,
			"0.0": 35.9873032147,
			"0.001": 27.1348269133,
			"0.002": 15.0651542185,
			"0.003": 9.42266085021,
			"0.004": 5.03731618151,
			"0.005": 4.72637242816,
			"0.006": 4.18279541513,
			"0.007": 4.79697790323,
			"0.008": 3.47465748089,
			"0.009": 3.59848023592,
			"0.01": 4.33257252244,
			"0.011": 5.32249355456,
			"0.012": 5.62561227827,
			"0.013": 1.45510657816,
			"0.014": 1.73870503271,
			"0.015": 1.26713282736,
			"0.016": 0.641450634173,
			"0.017": 1.11645640996,
			"0.018": 1.16077072258,
			"0.019": 0.446040512604,
			"0.02": 0.0,
			"0.021": 0.0,
			"0.022": 0.0,
			"0.023": 0.0,
			"0.024": 0.0,
			"0.025": 0.0
		}
	}
}
