{
	 "smiles": "OC(=O)CN1CCCC1=O", 
	 "Tm": 403.15, 
	 "num_atms": 19, 
	 "gaussian": { 
		 "optdone": 1, 
		 "sigma_profile": "yes", 
		 "theory": "DFT", 
		 "functional": "B3LYP", 
		 "basiset": "6-31G**", 
		 "properties": { 
			 "R2extent": 1587.0057, 
			 "electric_dipole_moment_norm": 3.2468904401, 
			 "electric_quadrupole_moment_norm": 12.6844938567, 
			 "total_energy": -514.517178519, 
			 "HOMO_LUMO_gap": 0.2448, 
			 "cosmo_polarized_energy": -14.62, 
			 "cosmo_cavitation_energy": 22.56, 
			 "cosmo_dispersion_energy": -16.61, 
			 "cosmo_repulsion_energy": 1.38, 
			 "cosmo_total_nonelectrostatic_energy": 7.33, 
			 "SMD_solvation_energy": 5.36 
		},
		"coords": [
			{
				"x": -1.1111586299,
				"y": 1.5416469614,
				"z": -2.4977553069,
				"element": "O" 
			},
			{
				"x": -0.3560134439,
				"y": 1.2361686869,
				"z": -1.4179904153,
				"element": "C" 
			},
			{
				"x": 0.5534873826,
				"y": 1.9302663709,
				"z": -1.0251758668,
				"element": "O" 
			},
			{
				"x": -0.8285672773,
				"y": -0.068340196,
				"z": -0.7925995151,
				"element": "C" 
			},
			{
				"x": -0.0838356049,
				"y": -0.431860216,
				"z": 0.3790362059,
				"element": "N" 
			},
			{
				"x": -0.1250148554,
				"y": 0.3093589621,
				"z": 1.6353508089,
				"element": "C" 
			},
			{
				"x": 1.0373050661,
				"y": -0.3127587609,
				"z": 2.4408112198,
				"element": "C" 
			},
			{
				"x": 1.1857204358,
				"y": -1.7271088643,
				"z": 1.8564116317,
				"element": "C" 
			},
			{
				"x": 0.6215403285,
				"y": -1.6127935229,
				"z": 0.441174939,
				"element": "C" 
			},
			{
				"x": 0.7325598797,
				"y": -2.4145202804,
				"z": -0.4730050796,
				"element": "O" 
			},
			{
				"x": -0.7588767077,
				"y": 2.374924411,
				"z": -2.8530568931,
				"element": "H" 
			},
			{
				"x": -0.7012072698,
				"y": -0.8771542453,
				"z": -1.5208704609,
				"element": "H" 
			},
			{
				"x": -1.9051929102,
				"y": 0.021314949,
				"z": -0.5886179642,
				"element": "H" 
			},
			{
				"x": -1.0947570099,
				"y": 0.1674628709,
				"z": 2.1376734002,
				"element": "H" 
			},
			{
				"x": 0.0171359468,
				"y": 1.3776272195,
				"z": 1.4548821699,
				"element": "H" 
			},
			{
				"x": 1.949512527,
				"y": 0.2630768999,
				"z": 2.2585509692,
				"element": "H" 
			},
			{
				"x": 0.8427682061,
				"y": -0.3022815756,
				"z": 3.5156792701,
				"element": "H" 
			},
			{
				"x": 2.2117603394,
				"y": -2.0994344155,
				"z": 1.8274720093,
				"element": "H" 
			},
			{
				"x": 0.584433597,
				"y": -2.4673952549,
				"z": 2.398728878,
				"element": "H" 
			}
		],
		 "valence_orbital": [ 
			{
				"type": "occ",
				"energy": -0.33521,
				"method": "rhf"
			},
			{
				"type": "occ",
				"energy": -0.32767,
				"method": "rhf"
			},
			{
				"type": "occ",
				"energy": -0.28791,
				"method": "rhf"
			},
			{
				"type": "occ",
				"energy": -0.2478,
				"method": "rhf"
			},
			{
				"type": "occ",
				"energy": -0.24289,
				"method": "rhf"
			},
			{
				"type": "unocc",
				"energy": 0.00191,
				"method": "rhf"
			},
			{
				"type": "unocc",
				"energy": 0.02907,
				"method": "rhf"
			},
			{
				"type": "unocc",
				"energy": 0.07088,
				"method": "rhf"
			},
			{
				"type": "unocc",
				"energy": 0.0871,
				"method": "rhf"
			},
			{
				"type": "unocc",
				"energy": 0.11207,
				"method": "rhf"
			}
		],
		"cosmo_sigma_profile": { 
			"-0.025": 0.0,
			"-0.024": 0.0,
			"-0.023": 0.0,
			"-0.022": 0.0,
			"-0.021": 0.0,
			"-0.02": 0.0,
			"-0.019": 0.244396260634,
			"-0.018": 0.83154047508,
			"-0.017": 0.990283853148,
			"-0.016": 0.935438438454,
			"-0.015": 0.562159423811,
			"-0.014": 0.748553384605,
			"-0.013": 0.724704377211,
			"-0.012": 0.336037959929,
			"-0.011": 1.26355578184,
			"-0.01": 0.433367042067,
			"-0.009": 0.272702048535,
			"-0.008": 2.13706433256,
			"-0.007": 4.16239549752,
			"-0.006": 7.31171163272,
			"-0.005": 12.919761986,
			"-0.004": 23.160250553,
			"-0.003": 21.6594680129,
			"-0.002": 18.208396817,
			"-0.001": 12.2929027259,
			"0.0": 6.71251989432,
			"0.001": 5.4971059409,
			"0.002": 4.9549686472,
			"0.003": 3.75793200292,
			"0.004": 3.18741726808,
			"0.005": 4.37917576718,
			"0.006": 3.63002261925,
			"0.007": 3.83190985408,
			"0.008": 4.64817190693,
			"0.009": 4.80238927941,
			"0.01": 3.31495280415,
			"0.011": 6.04001916275,
			"0.012": 3.65637612491,
			"0.013": 4.68874441939,
			"0.014": 3.92627966459,
			"0.015": 1.00356492802,
			"0.016": 0.0,
			"0.017": 0.0,
			"0.018": 0.0,
			"0.019": 0.0,
			"0.02": 0.0,
			"0.021": 0.0,
			"0.022": 0.0,
			"0.023": 0.0,
			"0.024": 0.0,
			"0.025": 0.0
		}
	}
}
