{
	 "smiles": "NS(=O)(=O)C1=CC=C(CC(O)=O)C=C1", 
	 "Tm": 443.15, 
	 "num_atms": 23, 
	 "gaussian": { 
		 "optdone": 1, 
		 "sigma_profile": "yes", 
		 "theory": "DFT", 
		 "functional": "B3LYP", 
		 "basiset": "6-31G**", 
		 "properties": { 
			 "R2extent": 4701.0589, 
			 "electric_dipole_moment_norm": 6.67287112269, 
			 "electric_quadrupole_moment_norm": 24.6105935296, 
			 "total_energy": -1064.05648602, 
			 "HOMO_LUMO_gap": 0.22283, 
			 "cosmo_polarized_energy": -24.66, 
			 "cosmo_cavitation_energy": 29.53, 
			 "cosmo_dispersion_energy": -21.85, 
			 "cosmo_repulsion_energy": 1.69, 
			 "cosmo_total_nonelectrostatic_energy": 9.38, 
			 "SMD_solvation_energy": 5.83 
		},
		"coords": [
			{
				"x": -3.3345272784,
				"y": -3.1257286255,
				"z": 0.9645571991,
				"element": "N" 
			},
			{
				"x": -1.881095853,
				"y": -3.4656687147,
				"z": 0.1880072889,
				"element": "S" 
			},
			{
				"x": -1.1039450766,
				"y": -4.2572453294,
				"z": 1.1398183209,
				"element": "O" 
			},
			{
				"x": -2.2498089471,
				"y": -3.9507351681,
				"z": -1.1409262637,
				"element": "O" 
			},
			{
				"x": -1.0310705383,
				"y": -1.895339501,
				"z": -0.0289067063,
				"element": "C" 
			},
			{
				"x": -0.2052933727,
				"y": -1.4126107514,
				"z": 0.9899851425,
				"element": "C" 
			},
			{
				"x": 0.4279947644,
				"y": -0.1832746941,
				"z": 0.8295152554,
				"element": "C" 
			},
			{
				"x": 0.2479997123,
				"y": 0.5673903147,
				"z": -0.3417614628,
				"element": "C" 
			},
			{
				"x": 0.9479896384,
				"y": 1.8932153395,
				"z": -0.5289945225,
				"element": "C" 
			},
			{
				"x": 0.5750370033,
				"y": 2.9504799613,
				"z": 0.5009922129,
				"element": "C" 
			},
			{
				"x": 0.8355841598,
				"y": 4.1912652585,
				"z": 0.0274577731,
				"element": "O" 
			},
			{
				"x": 0.1392030718,
				"y": 2.7497245729,
				"z": 1.6114326142,
				"element": "O" 
			},
			{
				"x": -0.5737441312,
				"y": 0.057727763,
				"z": -1.3540801454,
				"element": "C" 
			},
			{
				"x": -1.2150950687,
				"y": -1.1721765783,
				"z": -1.2073379849,
				"element": "C" 
			},
			{
				"x": -3.9576407309,
				"y": -2.5566402467,
				"z": 0.4002498801,
				"element": "H" 
			},
			{
				"x": -3.2027429867,
				"y": -2.7592177343,
				"z": 1.9021014818,
				"element": "H" 
			},
			{
				"x": -0.0464695434,
				"y": -2.0070444315,
				"z": 1.8835137312,
				"element": "H" 
			},
			{
				"x": 1.0629892721,
				"y": 0.2003074981,
				"z": 1.6206654968,
				"element": "H" 
			},
			{
				"x": 0.7666332131,
				"y": 2.3015324913,
				"z": -1.5265209737,
				"element": "H" 
			},
			{
				"x": 2.0370465969,
				"y": 1.7674776963,
				"z": -0.4485501016,
				"element": "H" 
			},
			{
				"x": 0.617327736,
				"y": 4.8092337835,
				"z": 0.7458206455,
				"element": "H" 
			},
			{
				"x": -0.7088256446,
				"y": 0.6231618917,
				"z": -2.2722650912,
				"element": "H" 
			},
			{
				"x": -1.8324459965,
				"y": -1.5797347956,
				"z": -2.0006737904,
				"element": "H" 
			}
		],
		 "valence_orbital": [ 
			{
				"type": "occ",
				"energy": -0.30242,
				"method": "rhf"
			},
			{
				"type": "occ",
				"energy": -0.30132,
				"method": "rhf"
			},
			{
				"type": "occ",
				"energy": -0.29403,
				"method": "rhf"
			},
			{
				"type": "occ",
				"energy": -0.27265,
				"method": "rhf"
			},
			{
				"type": "occ",
				"energy": -0.26528,
				"method": "rhf"
			},
			{
				"type": "unocc",
				"energy": -0.04245,
				"method": "rhf"
			},
			{
				"type": "unocc",
				"energy": -0.02525,
				"method": "rhf"
			},
			{
				"type": "unocc",
				"energy": -0.00512,
				"method": "rhf"
			},
			{
				"type": "unocc",
				"energy": 0.05177,
				"method": "rhf"
			},
			{
				"type": "unocc",
				"energy": 0.0656,
				"method": "rhf"
			}
		],
		"cosmo_sigma_profile": { 
			"-0.025": 0.0,
			"-0.024": 0.0,
			"-0.023": 0.0,
			"-0.022": 0.0,
			"-0.021": 0.0,
			"-0.02": 0.0,
			"-0.019": 0.0103598510103,
			"-0.018": 0.859437705311,
			"-0.017": 0.957128454492,
			"-0.016": 1.04743678308,
			"-0.015": 2.62155114543,
			"-0.014": 3.5596833254,
			"-0.013": 4.31364771367,
			"-0.012": 3.02089651965,
			"-0.011": 3.22479977023,
			"-0.01": 2.75463577083,
			"-0.009": 2.77828423222,
			"-0.008": 5.3575328739,
			"-0.007": 12.449538332,
			"-0.006": 15.5533551981,
			"-0.005": 13.8536036017,
			"-0.004": 10.1820159895,
			"-0.003": 11.5965446499,
			"-0.002": 9.96036163694,
			"-0.001": 10.0076184688,
			"0.0": 8.26840664009,
			"0.001": 11.7691303251,
			"0.002": 13.2447850362,
			"0.003": 13.5400838694,
			"0.004": 6.29458479137,
			"0.005": 5.24040553149,
			"0.006": 5.87317763169,
			"0.007": 8.24448035797,
			"0.008": 7.40242414381,
			"0.009": 8.07335127344,
			"0.01": 9.33415096799,
			"0.011": 15.1515690945,
			"0.012": 7.86796957865,
			"0.013": 0.269261059119,
			"0.014": 0.0,
			"0.015": 0.0,
			"0.016": 0.0,
			"0.017": 0.0,
			"0.018": 0.0,
			"0.019": 0.0,
			"0.02": 0.0,
			"0.021": 0.0,
			"0.022": 0.0,
			"0.023": 0.0,
			"0.024": 0.0,
			"0.025": 0.0
		}
	}
}
