{
	 "smiles": "CC1=NOC(=C1CO)C1=CC=CC=C1", 
	 "Tm": 383.15, 
	 "num_atms": 25, 
	 "gaussian": { 
		 "optdone": 1, 
		 "sigma_profile": "yes", 
		 "theory": "DFT", 
		 "functional": "B3LYP", 
		 "basiset": "6-31G**", 
		 "properties": { 
			 "R2extent": 3513.7523, 
			 "electric_dipole_moment_norm": 1.70463068434, 
			 "electric_quadrupole_moment_norm": 14.6629830758, 
			 "total_energy": -630.951508731, 
			 "HOMO_LUMO_gap": 0.18487, 
			 "cosmo_polarized_energy": -11.65, 
			 "cosmo_cavitation_energy": 28.77, 
			 "cosmo_dispersion_energy": -20.92, 
			 "cosmo_repulsion_energy": 1.64, 
			 "cosmo_total_nonelectrostatic_energy": 9.49, 
			 "SMD_solvation_energy": 4.73 
		},
		"coords": [
			{
				"x": -0.2403897276,
				"y": -1.5714202616,
				"z": -3.3328505365,
				"element": "C" 
			},
			{
				"x": 0.6506402929,
				"y": -1.0346654921,
				"z": -2.2539110175,
				"element": "C" 
			},
			{
				"x": 1.9549309449,
				"y": -1.0765586317,
				"z": -2.4104726064,
				"element": "N" 
			},
			{
				"x": 2.4899148665,
				"y": -0.5207398366,
				"z": -1.2439540683,
				"element": "O" 
			},
			{
				"x": 1.4901023119,
				"y": -0.159887438,
				"z": -0.4079244115,
				"element": "C" 
			},
			{
				"x": 0.2801794692,
				"y": -0.4624694179,
				"z": -0.9943232583,
				"element": "C" 
			},
			{
				"x": -1.1081850557,
				"y": -0.2842292306,
				"z": -0.457916672,
				"element": "C" 
			},
			{
				"x": -1.547160055,
				"y": 1.0782321607,
				"z": -0.4012149618,
				"element": "O" 
			},
			{
				"x": 1.8834102079,
				"y": 0.4079934403,
				"z": 0.8821620767,
				"element": "C" 
			},
			{
				"x": 0.9962210977,
				"y": 1.2182479106,
				"z": 1.6136009922,
				"element": "C" 
			},
			{
				"x": 1.3829285633,
				"y": 1.7328088425,
				"z": 2.8503277831,
				"element": "C" 
			},
			{
				"x": 2.6505848897,
				"y": 1.4581012848,
				"z": 3.3666818749,
				"element": "C" 
			},
			{
				"x": 3.5402304242,
				"y": 0.6650412541,
				"z": 2.6368101024,
				"element": "C" 
			},
			{
				"x": 3.1630012621,
				"y": 0.1417998203,
				"z": 1.4034326559,
				"element": "C" 
			},
			{
				"x": -0.9253969136,
				"y": -0.8019898593,
				"z": -3.7047755402,
				"element": "H" 
			},
			{
				"x": 0.3663665067,
				"y": -1.9277625488,
				"z": -4.1675181388,
				"element": "H" 
			},
			{
				"x": -0.8487317061,
				"y": -2.4049147384,
				"z": -2.9660205609,
				"element": "H" 
			},
			{
				"x": -1.8065280159,
				"y": -0.8866156261,
				"z": -1.0562096165,
				"element": "H" 
			},
			{
				"x": -1.170833599,
				"y": -0.6447760819,
				"z": 0.5737712138,
				"element": "H" 
			},
			{
				"x": -1.314113522,
				"y": 1.4947194244,
				"z": -1.2416297264,
				"element": "H" 
			},
			{
				"x": 0.0255461465,
				"y": 1.4660691485,
				"z": 1.1953898351,
				"element": "H" 
			},
			{
				"x": 0.6930252725,
				"y": 2.3603779914,
				"z": 3.4070662795,
				"element": "H" 
			},
			{
				"x": 2.9470198023,
				"y": 1.8638691684,
				"z": 4.3296590892,
				"element": "H" 
			},
			{
				"x": 4.5291459623,
				"y": 0.4508354168,
				"z": 3.0314959077,
				"element": "H" 
			},
			{
				"x": 3.8488905743,
				"y": -0.4794667,
				"z": 0.8377233043,
				"element": "H" 
			}
		],
		 "valence_orbital": [ 
			{
				"type": "occ",
				"energy": -0.29173,
				"method": "rhf"
			},
			{
				"type": "occ",
				"energy": -0.28904,
				"method": "rhf"
			},
			{
				"type": "occ",
				"energy": -0.27618,
				"method": "rhf"
			},
			{
				"type": "occ",
				"energy": -0.2564,
				"method": "rhf"
			},
			{
				"type": "occ",
				"energy": -0.23006,
				"method": "rhf"
			},
			{
				"type": "unocc",
				"energy": -0.04519,
				"method": "rhf"
			},
			{
				"type": "unocc",
				"energy": -0.00673,
				"method": "rhf"
			},
			{
				"type": "unocc",
				"energy": 0.02357,
				"method": "rhf"
			},
			{
				"type": "unocc",
				"energy": 0.04502,
				"method": "rhf"
			},
			{
				"type": "unocc",
				"energy": 0.08111,
				"method": "rhf"
			}
		],
		"cosmo_sigma_profile": { 
			"-0.025": 0.0,
			"-0.024": 0.0,
			"-0.023": 0.0,
			"-0.022": 0.0,
			"-0.021": 0.0,
			"-0.02": 0.0,
			"-0.019": 0.0,
			"-0.018": 0.0,
			"-0.017": 0.0,
			"-0.016": 0.267586740777,
			"-0.015": 0.78012811595,
			"-0.014": 0.961130893411,
			"-0.013": 0.946061991611,
			"-0.012": 0.987021535818,
			"-0.011": 0.88676563311,
			"-0.01": 0.730047271294,
			"-0.009": 0.675686213571,
			"-0.008": 1.38235560862,
			"-0.007": 2.07965383117,
			"-0.006": 11.3495906975,
			"-0.005": 21.7028927084,
			"-0.004": 19.0905836262,
			"-0.003": 19.5702751362,
			"-0.002": 16.9714270939,
			"-0.001": 16.5592374837,
			"0.0": 17.2096955355,
			"0.001": 17.1569998951,
			"0.002": 14.0906852152,
			"0.003": 13.4363514294,
			"0.004": 14.8636055698,
			"0.005": 9.04617716949,
			"0.006": 3.68242005714,
			"0.007": 3.58360750532,
			"0.008": 4.98563366446,
			"0.009": 3.70305027008,
			"0.01": 2.80052702037,
			"0.011": 2.18916822534,
			"0.012": 2.20973106389,
			"0.013": 2.80295202138,
			"0.014": 2.06758337164,
			"0.015": 0.55231527582,
			"0.016": 0.0,
			"0.017": 0.0,
			"0.018": 0.0,
			"0.019": 0.0,
			"0.02": 0.0,
			"0.021": 0.0,
			"0.022": 0.0,
			"0.023": 0.0,
			"0.024": 0.0,
			"0.025": 0.0
		}
	}
}
