{
	 "smiles": "OC(=O)C1=C(OCC(F)(F)F)C=CC(Cl)=C1", 
	 "Tm": 395.15, 
	 "num_atms": 22, 
	 "gaussian": { 
		 "optdone": 1, 
		 "sigma_profile": "yes", 
		 "theory": "DFT", 
		 "functional": "B3LYP", 
		 "basiset": "6-31G**", 
		 "properties": { 
			 "R2extent": 5425.9384, 
			 "electric_dipole_moment_norm": 3.18017485997, 
			 "electric_quadrupole_moment_norm": 6.58278271782, 
			 "total_energy": -1331.95085122, 
			 "HOMO_LUMO_gap": 0.18542, 
			 "cosmo_polarized_energy": -15.06, 
			 "cosmo_cavitation_energy": 30.62, 
			 "cosmo_dispersion_energy": -21.44, 
			 "cosmo_repulsion_energy": 1.62, 
			 "cosmo_total_nonelectrostatic_energy": 10.8, 
			 "SMD_solvation_energy": 7.26 
		},
		"coords": [
			{
				"x": 1.6536033967,
				"y": -0.3770387422,
				"z": 1.6716189238,
				"element": "O" 
			},
			{
				"x": 0.6291706177,
				"y": -0.5787388985,
				"z": 0.8003861432,
				"element": "C" 
			},
			{
				"x": -0.3763331112,
				"y": -1.13510385,
				"z": 1.1742831541,
				"element": "O" 
			},
			{
				"x": 0.8584587743,
				"y": -0.1076483798,
				"z": -0.6050203699,
				"element": "C" 
			},
			{
				"x": -0.1988443741,
				"y": 0.3075810229,
				"z": -1.4438224633,
				"element": "C" 
			},
			{
				"x": -1.503589294,
				"y": 0.4119312956,
				"z": -1.0682007592,
				"element": "O" 
			},
			{
				"x": -1.8700757519,
				"y": 1.0608957062,
				"z": 0.1397154911,
				"element": "C" 
			},
			{
				"x": -2.9316005917,
				"y": 2.0942209225,
				"z": -0.1983402877,
				"element": "C" 
			},
			{
				"x": -2.458830236,
				"y": 3.0265592427,
				"z": -1.0498363607,
				"element": "F" 
			},
			{
				"x": -3.3173858123,
				"y": 2.7208514904,
				"z": 0.9338047053,
				"element": "F" 
			},
			{
				"x": -4.0165177103,
				"y": 1.5360032797,
				"z": -0.7595995457,
				"element": "F" 
			},
			{
				"x": 0.0611270279,
				"y": 0.6034184306,
				"z": -2.7883061883,
				"element": "C" 
			},
			{
				"x": 1.3413311954,
				"y": 0.4964122388,
				"z": -3.316071877,
				"element": "C" 
			},
			{
				"x": 2.3892505811,
				"y": 0.0958992867,
				"z": -2.4845233661,
				"element": "C" 
			},
			{
				"x": 4.0124391501,
				"y": -0.0494872473,
				"z": -3.1327146234,
				"element": "Cl" 
			},
			{
				"x": 2.1533022867,
				"y": -0.2018386408,
				"z": -1.1490570247,
				"element": "C" 
			},
			{
				"x": 2.3170169941,
				"y": 0.2093969957,
				"z": 1.281181715,
				"element": "H" 
			},
			{
				"x": -2.2693906546,
				"y": 0.3382831882,
				"z": 0.8534478331,
				"element": "H" 
			},
			{
				"x": -1.0268305373,
				"y": 1.5855598325,
				"z": 0.5982535954,
				"element": "H" 
			},
			{
				"x": -0.770348913,
				"y": 0.9301754766,
				"z": -3.4029260813,
				"element": "H" 
			},
			{
				"x": 1.5298126283,
				"y": 0.7295283673,
				"z": -4.3580541466,
				"element": "H" 
			},
			{
				"x": 2.9732343343,
				"y": -0.5696610178,
				"z": -0.540818467,
				"element": "H" 
			}
		],
		 "valence_orbital": [ 
			{
				"type": "occ",
				"energy": -0.33207,
				"method": "rhf"
			},
			{
				"type": "occ",
				"energy": -0.32127,
				"method": "rhf"
			},
			{
				"type": "occ",
				"energy": -0.29757,
				"method": "rhf"
			},
			{
				"type": "occ",
				"energy": -0.28626,
				"method": "rhf"
			},
			{
				"type": "occ",
				"energy": -0.2533,
				"method": "rhf"
			},
			{
				"type": "unocc",
				"energy": -0.06788,
				"method": "rhf"
			},
			{
				"type": "unocc",
				"energy": -0.03672,
				"method": "rhf"
			},
			{
				"type": "unocc",
				"energy": 0.00792,
				"method": "rhf"
			},
			{
				"type": "unocc",
				"energy": 0.02172,
				"method": "rhf"
			},
			{
				"type": "unocc",
				"energy": 0.05741,
				"method": "rhf"
			}
		],
		"cosmo_sigma_profile": { 
			"-0.025": 0.0,
			"-0.024": 0.0,
			"-0.023": 0.0,
			"-0.022": 0.0,
			"-0.021": 0.0,
			"-0.02": 0.0,
			"-0.019": 0.509087583401,
			"-0.018": 1.04943726539,
			"-0.017": 0.895284164693,
			"-0.016": 0.896285707577,
			"-0.015": 0.96332532875,
			"-0.014": 1.08944284607,
			"-0.013": 1.65642663614,
			"-0.012": 1.17616169902,
			"-0.011": 1.00972264545,
			"-0.01": 3.48290115909,
			"-0.009": 5.51634897733,
			"-0.008": 7.72619311336,
			"-0.007": 8.4316733086,
			"-0.006": 8.75016551399,
			"-0.005": 7.52110744103,
			"-0.004": 8.0983777724,
			"-0.003": 7.71939167969,
			"-0.002": 10.5200094508,
			"-0.001": 12.6310400294,
			"0.0": 20.5763955484,
			"0.001": 26.6810610931,
			"0.002": 32.2544613271,
			"0.003": 31.9220659136,
			"0.004": 13.6143910878,
			"0.005": 5.55062532227,
			"0.006": 4.07189332777,
			"0.007": 3.22892039658,
			"0.008": 4.5424105237,
			"0.009": 4.46112315837,
			"0.01": 4.96416983268,
			"0.011": 4.20394356834,
			"0.012": 1.81936256926,
			"0.013": 0.292892755847,
			"0.014": 0.0,
			"0.015": 0.0,
			"0.016": 0.0,
			"0.017": 0.0,
			"0.018": 0.0,
			"0.019": 0.0,
			"0.02": 0.0,
			"0.021": 0.0,
			"0.022": 0.0,
			"0.023": 0.0,
			"0.024": 0.0,
			"0.025": 0.0
		}
	}
}
