{
	 "smiles": "OC(=O)C(=O)C1=CC=C(Cl)C=C1", 
	 "Tm": 361.15, 
	 "num_atms": 17, 
	 "gaussian": { 
		 "optdone": 1, 
		 "sigma_profile": "yes", 
		 "theory": "DFT", 
		 "functional": "B3LYP", 
		 "basiset": "6-31G**", 
		 "properties": { 
			 "R2extent": 3733.12, 
			 "electric_dipole_moment_norm": 2.40945790169, 
			 "electric_quadrupole_moment_norm": 9.33218407502, 
			 "total_energy": -993.733410296, 
			 "HOMO_LUMO_gap": 0.16146, 
			 "cosmo_polarized_energy": -8.85, 
			 "cosmo_cavitation_energy": 24.17, 
			 "cosmo_dispersion_energy": -18.2, 
			 "cosmo_repulsion_energy": 1.44, 
			 "cosmo_total_nonelectrostatic_energy": 7.41, 
			 "SMD_solvation_energy": 5.8 
		},
		"coords": [
			{
				"x": -0.6229900783,
				"y": -2.9114239035,
				"z": 3.3498089601,
				"element": "O" 
			},
			{
				"x": 0.0519810891,
				"y": -2.381353563,
				"z": 2.3292828736,
				"element": "C" 
			},
			{
				"x": 1.2341246086,
				"y": -2.1302476119,
				"z": 2.3701648963,
				"element": "O" 
			},
			{
				"x": -0.889276773,
				"y": -2.1417043663,
				"z": 1.1101035302,
				"element": "C" 
			},
			{
				"x": -2.0613803312,
				"y": -2.4711306573,
				"z": 1.2866674525,
				"element": "O" 
			},
			{
				"x": -0.4103941149,
				"y": -1.5638617567,
				"z": -0.1584663024,
				"element": "C" 
			},
			{
				"x": -1.3606042639,
				"y": -1.3973467476,
				"z": -1.1860519652,
				"element": "C" 
			},
			{
				"x": -0.9959779503,
				"y": -0.8609746901,
				"z": -2.4119857923,
				"element": "C" 
			},
			{
				"x": 0.3362936363,
				"y": -0.4850218365,
				"z": -2.6160666942,
				"element": "C" 
			},
			{
				"x": 0.8049714432,
				"y": 0.1923724946,
				"z": -4.1592137276,
				"element": "Cl" 
			},
			{
				"x": 1.2967971332,
				"y": -0.6392275968,
				"z": -1.61535358,
				"element": "C" 
			},
			{
				"x": 0.924214857,
				"y": -1.1782686254,
				"z": -0.387157937,
				"element": "C" 
			},
			{
				"x": -1.5485602037,
				"y": -3.003663866,
				"z": 3.0359636593,
				"element": "H" 
			},
			{
				"x": -2.38601976,
				"y": -1.6973925165,
				"z": -0.9999839188,
				"element": "H" 
			},
			{
				"x": -1.7246272806,
				"y": -0.7317206055,
				"z": -3.2041918844,
				"element": "H" 
			},
			{
				"x": 2.3227576688,
				"y": -0.3403916302,
				"z": -1.7975796691,
				"element": "H" 
			},
			{
				"x": 1.6581903198,
				"y": -1.3036425214,
				"z": 0.3978600989,
				"element": "H" 
			}
		],
		 "valence_orbital": [ 
			{
				"type": "occ",
				"energy": -0.33152,
				"method": "rhf"
			},
			{
				"type": "occ",
				"energy": -0.33146,
				"method": "rhf"
			},
			{
				"type": "occ",
				"energy": -0.28647,
				"method": "rhf"
			},
			{
				"type": "occ",
				"energy": -0.27218,
				"method": "rhf"
			},
			{
				"type": "occ",
				"energy": -0.27117,
				"method": "rhf"
			},
			{
				"type": "unocc",
				"energy": -0.10971,
				"method": "rhf"
			},
			{
				"type": "unocc",
				"energy": -0.03397,
				"method": "rhf"
			},
			{
				"type": "unocc",
				"energy": -0.0249,
				"method": "rhf"
			},
			{
				"type": "unocc",
				"energy": 0.01386,
				"method": "rhf"
			},
			{
				"type": "unocc",
				"energy": 0.06162,
				"method": "rhf"
			}
		],
		"cosmo_sigma_profile": { 
			"-0.025": 0.0,
			"-0.024": 0.0,
			"-0.023": 0.0,
			"-0.022": 0.0,
			"-0.021": 0.0,
			"-0.02": 0.0,
			"-0.019": 0.0,
			"-0.018": 0.0,
			"-0.017": 0.0,
			"-0.016": 0.0,
			"-0.015": 0.0924223021879,
			"-0.014": 0.47435519325,
			"-0.013": 0.65829021359,
			"-0.012": 0.907227456623,
			"-0.011": 0.691114041029,
			"-0.01": 0.807093875157,
			"-0.009": 1.96693189125,
			"-0.008": 7.05498464913,
			"-0.007": 8.85259912481,
			"-0.006": 9.80052835453,
			"-0.005": 8.29228954879,
			"-0.004": 8.30154997726,
			"-0.003": 10.3948291765,
			"-0.002": 10.6492395757,
			"-0.001": 17.7834070546,
			"0.0": 20.4705146587,
			"0.001": 23.3936478145,
			"0.002": 12.0750623313,
			"0.003": 12.5606091624,
			"0.004": 10.2225044185,
			"0.005": 4.04376718656,
			"0.006": 3.95277575212,
			"0.007": 4.81526553902,
			"0.008": 6.30340457874,
			"0.009": 6.95666797274,
			"0.01": 3.35386776412,
			"0.011": 2.19168376339,
			"0.012": 0.536422879584,
			"0.013": 0.0,
			"0.014": 0.0,
			"0.015": 0.0,
			"0.016": 0.0,
			"0.017": 0.0,
			"0.018": 0.0,
			"0.019": 0.0,
			"0.02": 0.0,
			"0.021": 0.0,
			"0.022": 0.0,
			"0.023": 0.0,
			"0.024": 0.0,
			"0.025": 0.0
		}
	}
}
