{
	 "smiles": "CC(OC1=CC(Cl)=CC(Cl)=C1)C(O)=O", 
	 "Tm": 416.15, 
	 "num_atms": 22, 
	 "gaussian": { 
		 "optdone": 1, 
		 "sigma_profile": "yes", 
		 "theory": "DFT", 
		 "functional": "B3LYP", 
		 "basiset": "6-31G**", 
		 "properties": { 
			 "R2extent": 4833.3561, 
			 "electric_dipole_moment_norm": 3.04914009845, 
			 "electric_quadrupole_moment_norm": 16.1917289589, 
			 "total_energy": -1493.83381001, 
			 "HOMO_LUMO_gap": 0.21944, 
			 "cosmo_polarized_energy": -12.37, 
			 "cosmo_cavitation_energy": 29.98, 
			 "cosmo_dispersion_energy": -21.63, 
			 "cosmo_repulsion_energy": 1.74, 
			 "cosmo_total_nonelectrostatic_energy": 10.09, 
			 "SMD_solvation_energy": 5.8 
		},
		"coords": [
			{
				"x": -2.5685556182,
				"y": -0.8764367359,
				"z": 0.4418327787,
				"element": "C" 
			},
			{
				"x": -2.5004099019,
				"y": 0.6441187499,
				"z": 0.4639379873,
				"element": "C" 
			},
			{
				"x": -1.2476703682,
				"y": 1.209425635,
				"z": 0.0127396493,
				"element": "O" 
			},
			{
				"x": -0.0440047283,
				"y": 0.7674601285,
				"z": 0.5211020236,
				"element": "C" 
			},
			{
				"x": 1.0377375681,
				"y": 0.8614403364,
				"z": -0.360817741,
				"element": "C" 
			},
			{
				"x": 2.3031597281,
				"y": 0.4988827108,
				"z": 0.0877557172,
				"element": "C" 
			},
			{
				"x": 3.6630993342,
				"y": 0.6170090015,
				"z": -1.0124681202,
				"element": "Cl" 
			},
			{
				"x": 2.5228626748,
				"y": 0.0332425611,
				"z": 1.3847212665,
				"element": "C" 
			},
			{
				"x": 1.4225019545,
				"y": -0.0499636679,
				"z": 2.2345013924,
				"element": "C" 
			},
			{
				"x": 1.6611316582,
				"y": -0.6261915592,
				"z": 3.8729461099,
				"element": "Cl" 
			},
			{
				"x": 0.1366547821,
				"y": 0.315589534,
				"z": 1.8328860129,
				"element": "C" 
			},
			{
				"x": -2.9334760394,
				"y": 1.2644266754,
				"z": 1.80655736,
				"element": "C" 
			},
			{
				"x": -2.426443284,
				"y": 2.4905589865,
				"z": 2.0429633308,
				"element": "O" 
			},
			{
				"x": -3.7069676105,
				"y": 0.7295081455,
				"z": 2.5610088801,
				"element": "O" 
			},
			{
				"x": -2.3508855628,
				"y": -1.2442534879,
				"z": -0.5638212149,
				"element": "H" 
			},
			{
				"x": -3.5780951566,
				"y": -1.1804567979,
				"z": 0.7245747515,
				"element": "H" 
			},
			{
				"x": -1.8718334752,
				"y": -1.3364089855,
				"z": 1.1443639439,
				"element": "H" 
			},
			{
				"x": -3.2091733147,
				"y": 1.0361955298,
				"z": -0.2761151541,
				"element": "H" 
			},
			{
				"x": 0.8742713727,
				"y": 1.2133962401,
				"z": -1.3717323766,
				"element": "H" 
			},
			{
				"x": 3.5117845858,
				"y": -0.252685043,
				"z": 1.7184980789,
				"element": "H" 
			},
			{
				"x": -0.6808225105,
				"y": 0.2495033647,
				"z": 2.538791993,
				"element": "H" 
			},
			{
				"x": -1.8111660881,
				"y": 2.7090386779,
				"z": 1.3216733306,
				"element": "H" 
			}
		],
		 "valence_orbital": [ 
			{
				"type": "occ",
				"energy": -0.32405,
				"method": "rhf"
			},
			{
				"type": "occ",
				"energy": -0.3198,
				"method": "rhf"
			},
			{
				"type": "occ",
				"energy": -0.28187,
				"method": "rhf"
			},
			{
				"type": "occ",
				"energy": -0.26439,
				"method": "rhf"
			},
			{
				"type": "occ",
				"energy": -0.25727,
				"method": "rhf"
			},
			{
				"type": "unocc",
				"energy": -0.03783,
				"method": "rhf"
			},
			{
				"type": "unocc",
				"energy": -0.03008,
				"method": "rhf"
			},
			{
				"type": "unocc",
				"energy": -0.00986,
				"method": "rhf"
			},
			{
				"type": "unocc",
				"energy": -0.00541,
				"method": "rhf"
			},
			{
				"type": "unocc",
				"energy": 0.0417,
				"method": "rhf"
			}
		],
		"cosmo_sigma_profile": { 
			"-0.025": 0.0,
			"-0.024": 0.0,
			"-0.023": 0.0,
			"-0.022": 0.0,
			"-0.021": 0.0,
			"-0.02": 0.0,
			"-0.019": 0.0,
			"-0.018": 0.0,
			"-0.017": 0.0,
			"-0.016": 0.440924173897,
			"-0.015": 0.530659673806,
			"-0.014": 1.23783989677,
			"-0.013": 0.384840003867,
			"-0.012": 0.623864632298,
			"-0.011": 1.61782027043,
			"-0.01": 3.17641893985,
			"-0.009": 3.35760156948,
			"-0.008": 7.19458879588,
			"-0.007": 7.48166605897,
			"-0.006": 7.76143602728,
			"-0.005": 10.8437738453,
			"-0.004": 10.7305088591,
			"-0.003": 14.2219594073,
			"-0.002": 16.4188094773,
			"-0.001": 19.3675921554,
			"0.0": 24.174109499,
			"0.001": 27.1582382125,
			"0.002": 17.8675842464,
			"0.003": 16.2411858838,
			"0.004": 21.9222157635,
			"0.005": 4.01697936221,
			"0.006": 3.17553141752,
			"0.007": 3.23057162452,
			"0.008": 3.37206012307,
			"0.009": 4.62773798497,
			"0.01": 4.26877224948,
			"0.011": 5.43248634552,
			"0.012": 2.68348735248,
			"0.013": 0.347093605105,
			"0.014": 0.0,
			"0.015": 0.0,
			"0.016": 0.0,
			"0.017": 0.0,
			"0.018": 0.0,
			"0.019": 0.0,
			"0.02": 0.0,
			"0.021": 0.0,
			"0.022": 0.0,
			"0.023": 0.0,
			"0.024": 0.0,
			"0.025": 0.0
		}
	}
}
