{
	 "smiles": "CC1=CC(NC(=O)NCC#C)=NO1", 
	 "Tm": 437.15, 
	 "num_atms": 22, 
	 "gaussian": { 
		 "optdone": 1, 
		 "sigma_profile": "yes", 
		 "theory": "DFT", 
		 "functional": "B3LYP", 
		 "basiset": "6-31G**", 
		 "properties": { 
			 "R2extent": 3292.3184, 
			 "electric_dipole_moment_norm": 4.46876925674, 
			 "electric_quadrupole_moment_norm": 8.27539215143, 
			 "total_energy": -624.86547509, 
			 "HOMO_LUMO_gap": 0.22753, 
			 "cosmo_polarized_energy": -16.08, 
			 "cosmo_cavitation_energy": 27.91, 
			 "cosmo_dispersion_energy": -19.25, 
			 "cosmo_repulsion_energy": 1.55, 
			 "cosmo_total_nonelectrostatic_energy": 10.21, 
			 "SMD_solvation_energy": 6.76 
		},
		"coords": [
			{
				"x": 1.6570583069,
				"y": -0.3228073953,
				"z": -2.4988598588,
				"element": "C" 
			},
			{
				"x": 1.4727935065,
				"y": -0.8066403725,
				"z": -1.1024016268,
				"element": "C" 
			},
			{
				"x": 0.7701201217,
				"y": -0.330130966,
				"z": -0.0356752429,
				"element": "C" 
			},
			{
				"x": 1.0298574176,
				"y": -1.292170119,
				"z": 0.9878115654,
				"element": "C" 
			},
			{
				"x": 0.5538245793,
				"y": -1.3574692082,
				"z": 2.297103223,
				"element": "N" 
			},
			{
				"x": -0.3603904128,
				"y": -0.5180030018,
				"z": 2.9369185674,
				"element": "C" 
			},
			{
				"x": -1.174414781,
				"y": -0.9651243423,
				"z": 3.7292127977,
				"element": "O" 
			},
			{
				"x": -0.2927067897,
				"y": 0.8327220439,
				"z": 2.6153810156,
				"element": "N" 
			},
			{
				"x": 0.9791095409,
				"y": 1.5738088983,
				"z": 2.5680651818,
				"element": "C" 
			},
			{
				"x": 0.8312077686,
				"y": 2.8365453116,
				"z": 1.8424486668,
				"element": "C" 
			},
			{
				"x": 0.7044254221,
				"y": 3.88687296,
				"z": 1.2614926894,
				"element": "C" 
			},
			{
				"x": 1.8223795631,
				"y": -2.2620393944,
				"z": 0.5728793232,
				"element": "N" 
			},
			{
				"x": 2.0990471057,
				"y": -1.9519890936,
				"z": -0.7656729161,
				"element": "O" 
			},
			{
				"x": 2.7155836699,
				"y": -0.140064547,
				"z": -2.7113701078,
				"element": "H" 
			},
			{
				"x": 1.1047877686,
				"y": 0.6062730185,
				"z": -2.6513380063,
				"element": "H" 
			},
			{
				"x": 1.2988650754,
				"y": -1.0660528002,
				"z": -3.2187171287,
				"element": "H" 
			},
			{
				"x": 0.1545819989,
				"y": 0.5524649658,
				"z": 0.0193620297,
				"element": "H" 
			},
			{
				"x": 0.5436104585,
				"y": -2.2914318324,
				"z": 2.6878467611,
				"element": "H" 
			},
			{
				"x": -1.0204313558,
				"y": 1.3260292176,
				"z": 3.1199300966,
				"element": "H" 
			},
			{
				"x": 1.35384571,
				"y": 1.7784936134,
				"z": 3.5824273534,
				"element": "H" 
			},
			{
				"x": 1.7322456376,
				"y": 0.9553776367,
				"z": 2.0748741622,
				"element": "H" 
			},
			{
				"x": 0.595499688,
				"y": 4.8132354069,
				"z": 0.7460814544,
				"element": "H" 
			}
		],
		 "valence_orbital": [ 
			{
				"type": "occ",
				"energy": -0.28969,
				"method": "rhf"
			},
			{
				"type": "occ",
				"energy": -0.28068,
				"method": "rhf"
			},
			{
				"type": "occ",
				"energy": -0.26516,
				"method": "rhf"
			},
			{
				"type": "occ",
				"energy": -0.25915,
				"method": "rhf"
			},
			{
				"type": "occ",
				"energy": -0.24181,
				"method": "rhf"
			},
			{
				"type": "unocc",
				"energy": -0.01428,
				"method": "rhf"
			},
			{
				"type": "unocc",
				"energy": 0.01509,
				"method": "rhf"
			},
			{
				"type": "unocc",
				"energy": 0.02639,
				"method": "rhf"
			},
			{
				"type": "unocc",
				"energy": 0.04035,
				"method": "rhf"
			},
			{
				"type": "unocc",
				"energy": 0.07562,
				"method": "rhf"
			}
		],
		"cosmo_sigma_profile": { 
			"-0.025": 0.0,
			"-0.024": 0.0,
			"-0.023": 0.0,
			"-0.022": 0.0,
			"-0.021": 0.0,
			"-0.02": 0.0,
			"-0.019": 0.0,
			"-0.018": 0.0,
			"-0.017": 0.0,
			"-0.016": 0.0256124930379,
			"-0.015": 0.650870827497,
			"-0.014": 1.04352304237,
			"-0.013": 1.82832252527,
			"-0.012": 2.62564564773,
			"-0.011": 3.4951151202,
			"-0.01": 2.166673454,
			"-0.009": 2.95133635696,
			"-0.008": 4.19200455525,
			"-0.007": 9.09402080365,
			"-0.006": 14.9899952289,
			"-0.005": 14.3419723368,
			"-0.004": 12.7048973275,
			"-0.003": 15.0107155056,
			"-0.002": 18.1483078521,
			"-0.001": 13.5475890374,
			"0.0": 11.6979151104,
			"0.001": 12.8828565259,
			"0.002": 9.88994959366,
			"0.003": 9.51585231223,
			"0.004": 7.06483867967,
			"0.005": 10.0272239462,
			"0.006": 10.5535461408,
			"0.007": 4.25825829682,
			"0.008": 6.07064942443,
			"0.009": 4.68564700802,
			"0.01": 2.60801512041,
			"0.011": 3.13614207576,
			"0.012": 5.48850656375,
			"0.013": 6.77871876007,
			"0.014": 1.86066412535,
			"0.015": 0.135263699279,
			"0.016": 0.0,
			"0.017": 0.0,
			"0.018": 0.0,
			"0.019": 0.0,
			"0.02": 0.0,
			"0.021": 0.0,
			"0.022": 0.0,
			"0.023": 0.0,
			"0.024": 0.0,
			"0.025": 0.0
		}
	}
}
