{
	 "smiles": "COC(=O)C1=CC(O)=CC(N)=C1", 
	 "Tm": 398.15, 
	 "num_atms": 21, 
	 "gaussian": { 
		 "optdone": 1, 
		 "sigma_profile": "yes", 
		 "theory": "DFT", 
		 "functional": "B3LYP", 
		 "basiset": "6-31G**", 
		 "properties": { 
			 "R2extent": 2690.2735, 
			 "electric_dipole_moment_norm": 4.4685171019, 
			 "electric_quadrupole_moment_norm": 16.2697989892, 
			 "total_energy": -590.707669161, 
			 "HOMO_LUMO_gap": 0.16854, 
			 "cosmo_polarized_energy": -17.45, 
			 "cosmo_cavitation_energy": 25.73, 
			 "cosmo_dispersion_energy": -19.05, 
			 "cosmo_repulsion_energy": 1.53, 
			 "cosmo_total_nonelectrostatic_energy": 8.21, 
			 "SMD_solvation_energy": 6.33 
		},
		"coords": [
			{
				"x": -0.9526683648,
				"y": 2.6092460499,
				"z": -2.9494150854,
				"element": "C" 
			},
			{
				"x": -0.5966250533,
				"y": 1.7645995064,
				"z": -1.8459625091,
				"element": "O" 
			},
			{
				"x": 0.2296583208,
				"y": 0.7357461166,
				"z": -2.1545498791,
				"element": "C" 
			},
			{
				"x": 0.6389855141,
				"y": 0.537328832,
				"z": -3.2816353852,
				"element": "O" 
			},
			{
				"x": 0.5672026348,
				"y": -0.1043854195,
				"z": -0.9676821612,
				"element": "C" 
			},
			{
				"x": 1.412946948,
				"y": -1.195783206,
				"z": -1.1806931599,
				"element": "C" 
			},
			{
				"x": 1.7492989296,
				"y": -2.0055138577,
				"z": -0.0942372017,
				"element": "C" 
			},
			{
				"x": 2.5770131192,
				"y": -3.065223083,
				"z": -0.3348919187,
				"element": "O" 
			},
			{
				"x": 1.2483280777,
				"y": -1.7310741312,
				"z": 1.1808250477,
				"element": "C" 
			},
			{
				"x": 0.3978220573,
				"y": -0.632594886,
				"z": 1.3912430212,
				"element": "C" 
			},
			{
				"x": -0.0535662648,
				"y": -0.3280855254,
				"z": 2.6765303148,
				"element": "N" 
			},
			{
				"x": 0.0574046954,
				"y": 0.1841474684,
				"z": 0.3030374383,
				"element": "C" 
			},
			{
				"x": -0.062145943,
				"y": 3.0647318267,
				"z": -3.3901598782,
				"element": "H" 
			},
			{
				"x": -1.6088968185,
				"y": 3.3749516861,
				"z": -2.5351358131,
				"element": "H" 
			},
			{
				"x": -1.4713591697,
				"y": 2.0366470675,
				"z": -3.722694953,
				"element": "H" 
			},
			{
				"x": 1.7983639592,
				"y": -1.4074689042,
				"z": -2.1699671682,
				"element": "H" 
			},
			{
				"x": 2.7445480215,
				"y": -3.5330906716,
				"z": 0.4932210495,
				"element": "H" 
			},
			{
				"x": 1.5234387444,
				"y": -2.3671307704,
				"z": 2.0208566477,
				"element": "H" 
			},
			{
				"x": -0.1057626067,
				"y": -1.1102811537,
				"z": 3.3143261913,
				"element": "H" 
			},
			{
				"x": -0.8879117333,
				"y": 0.2411341876,
				"z": 2.7104145805,
				"element": "H" 
			},
			{
				"x": -0.5941750678,
				"y": 1.0387988675,
				"z": 0.4431708219,
				"element": "H" 
			}
		],
		 "valence_orbital": [ 
			{
				"type": "occ",
				"energy": -0.29725,
				"method": "rhf"
			},
			{
				"type": "occ",
				"energy": -0.29291,
				"method": "rhf"
			},
			{
				"type": "occ",
				"energy": -0.26638,
				"method": "rhf"
			},
			{
				"type": "occ",
				"energy": -0.2331,
				"method": "rhf"
			},
			{
				"type": "occ",
				"energy": -0.20404,
				"method": "rhf"
			},
			{
				"type": "unocc",
				"energy": -0.0355,
				"method": "rhf"
			},
			{
				"type": "unocc",
				"energy": 0.02107,
				"method": "rhf"
			},
			{
				"type": "unocc",
				"energy": 0.06804,
				"method": "rhf"
			},
			{
				"type": "unocc",
				"energy": 0.07013,
				"method": "rhf"
			},
			{
				"type": "unocc",
				"energy": 0.08012,
				"method": "rhf"
			}
		],
		"cosmo_sigma_profile": { 
			"-0.025": 0.0,
			"-0.024": 0.0,
			"-0.023": 0.0,
			"-0.022": 0.0,
			"-0.021": 0.0,
			"-0.02": 0.0,
			"-0.019": 0.0,
			"-0.018": 0.325272821454,
			"-0.017": 1.25089643097,
			"-0.016": 1.12447147403,
			"-0.015": 0.988460952047,
			"-0.014": 1.07484272256,
			"-0.013": 1.82354663227,
			"-0.012": 3.793520502,
			"-0.011": 4.34367287297,
			"-0.01": 3.67089446239,
			"-0.009": 4.37962086915,
			"-0.008": 4.48228682574,
			"-0.007": 4.64145718123,
			"-0.006": 7.58633440408,
			"-0.005": 10.5279825373,
			"-0.004": 12.391029015,
			"-0.003": 12.2182246092,
			"-0.002": 10.3475084046,
			"-0.001": 8.64098770654,
			"0.0": 8.69048693893,
			"0.001": 8.23927561752,
			"0.002": 10.0211414592,
			"0.003": 14.2902071607,
			"0.004": 19.255411218,
			"0.005": 14.7126475659,
			"0.006": 6.19056447081,
			"0.007": 4.09778148624,
			"0.008": 3.5565296083,
			"0.009": 3.67312732336,
			"0.01": 4.97011400676,
			"0.011": 4.84718291702,
			"0.012": 5.91833235379,
			"0.013": 1.21199456943,
			"0.014": 0.590174569245,
			"0.015": 0.0131470012768,
			"0.016": 0.0,
			"0.017": 0.0,
			"0.018": 0.0,
			"0.019": 0.0,
			"0.02": 0.0,
			"0.021": 0.0,
			"0.022": 0.0,
			"0.023": 0.0,
			"0.024": 0.0,
			"0.025": 0.0
		}
	}
}
