{
	 "smiles": "CC(C)NC(C)C", 
	 "Tm": 212.15, 
	 "num_atms": 22, 
	 "gaussian": { 
		 "optdone": 1, 
		 "sigma_profile": "yes", 
		 "theory": "DFT", 
		 "functional": "B3LYP", 
		 "basiset": "6-31G**", 
		 "properties": { 
			 "R2extent": 1757.4867, 
			 "electric_dipole_moment_norm": 0.938305579222, 
			 "electric_quadrupole_moment_norm": 3.80266461577, 
			 "total_energy": -292.437040357, 
			 "HOMO_LUMO_gap": 0.28405, 
			 "cosmo_polarized_energy": -3.55, 
			 "cosmo_cavitation_energy": 22.46, 
			 "cosmo_dispersion_energy": -16.2, 
			 "cosmo_repulsion_energy": 1.36, 
			 "cosmo_total_nonelectrostatic_energy": 7.62, 
			 "SMD_solvation_energy": 2.59 
		},
		"coords": [
			{
				"x": 1.888860154,
				"y": -0.7623744988,
				"z": -1.6328129109,
				"element": "C" 
			},
			{
				"x": 2.8157487553,
				"y": 0.0429742801,
				"z": -0.7035974722,
				"element": "C" 
			},
			{
				"x": 3.2342531339,
				"y": -0.7812201645,
				"z": 0.5246160656,
				"element": "C" 
			},
			{
				"x": 2.3276160177,
				"y": 1.389921323,
				"z": -0.3320455457,
				"element": "N" 
			},
			{
				"x": 0.9035553599,
				"y": 1.6107716931,
				"z": -0.0316173353,
				"element": "C" 
			},
			{
				"x": 0.4960244132,
				"y": 1.0000020585,
				"z": 1.3154960646,
				"element": "C" 
			},
			{
				"x": 0.6637290556,
				"y": 3.1257222888,
				"z": -0.0191372952,
				"element": "C" 
			},
			{
				"x": 2.3820700103,
				"y": -1.684639373,
				"z": -1.95850291,
				"element": "H" 
			},
			{
				"x": 1.6259827295,
				"y": -0.1884988944,
				"z": -2.5284731044,
				"element": "H" 
			},
			{
				"x": 0.9583625216,
				"y": -1.0496216038,
				"z": -1.131422392,
				"element": "H" 
			},
			{
				"x": 3.7394776675,
				"y": 0.2398053797,
				"z": -1.2644349219,
				"element": "H" 
			},
			{
				"x": 3.8003140256,
				"y": -1.6663303635,
				"z": 0.2129977917,
				"element": "H" 
			},
			{
				"x": 2.3747890861,
				"y": -1.1305723394,
				"z": 1.103785633,
				"element": "H" 
			},
			{
				"x": 3.8646589842,
				"y": -0.1784279434,
				"z": 1.1836845665,
				"element": "H" 
			},
			{
				"x": 2.5753649665,
				"y": 2.0215019985,
				"z": -1.0883254618,
				"element": "H" 
			},
			{
				"x": 0.2447324368,
				"y": 1.1783180444,
				"z": -0.8067974079,
				"element": "H" 
			},
			{
				"x": 0.5287085074,
				"y": -0.0923094744,
				"z": 1.3006619866,
				"element": "H" 
			},
			{
				"x": 1.1648813553,
				"y": 1.3505534824,
				"z": 2.1083404713,
				"element": "H" 
			},
			{
				"x": -0.529136561,
				"y": 1.2921540609,
				"z": 1.5678629521,
				"element": "H" 
			},
			{
				"x": -0.3848612207,
				"y": 3.3529607677,
				"z": 0.1961019713,
				"element": "H" 
			},
			{
				"x": 0.9085222811,
				"y": 3.5756599954,
				"z": -0.9889552322,
				"element": "H" 
			},
			{
				"x": 1.2879463201,
				"y": 3.6040492827,
				"z": 0.7429744868,
				"element": "H" 
			}
		],
		 "valence_orbital": [ 
			{
				"type": "occ",
				"energy": -0.3414,
				"method": "rhf"
			},
			{
				"type": "occ",
				"energy": -0.33026,
				"method": "rhf"
			},
			{
				"type": "occ",
				"energy": -0.32119,
				"method": "rhf"
			},
			{
				"type": "occ",
				"energy": -0.31173,
				"method": "rhf"
			},
			{
				"type": "occ",
				"energy": -0.2109,
				"method": "rhf"
			},
			{
				"type": "unocc",
				"energy": 0.07315,
				"method": "rhf"
			},
			{
				"type": "unocc",
				"energy": 0.10791,
				"method": "rhf"
			},
			{
				"type": "unocc",
				"energy": 0.1185,
				"method": "rhf"
			},
			{
				"type": "unocc",
				"energy": 0.13464,
				"method": "rhf"
			},
			{
				"type": "unocc",
				"energy": 0.14206,
				"method": "rhf"
			}
		],
		"cosmo_sigma_profile": { 
			"-0.025": 0.0,
			"-0.024": 0.0,
			"-0.023": 0.0,
			"-0.022": 0.0,
			"-0.021": 0.0,
			"-0.02": 0.0,
			"-0.019": 0.0,
			"-0.018": 0.0,
			"-0.017": 0.0,
			"-0.016": 0.0,
			"-0.015": 0.0,
			"-0.014": 0.0,
			"-0.013": 0.0,
			"-0.012": 0.0,
			"-0.011": 0.0,
			"-0.01": 0.0,
			"-0.009": 0.524239301563,
			"-0.008": 1.1680561368,
			"-0.007": 1.4554985687,
			"-0.006": 1.76236619025,
			"-0.005": 1.69632133685,
			"-0.004": 2.97353219404,
			"-0.003": 14.2935882307,
			"-0.002": 25.7896361895,
			"-0.001": 28.7401630847,
			"0.0": 29.6184992452,
			"0.001": 30.3645844986,
			"0.002": 20.4169950953,
			"0.003": 2.692017144,
			"0.004": 1.5784563757,
			"0.005": 0.931961959642,
			"0.006": 0.852234125335,
			"0.007": 0.948426519806,
			"0.008": 0.8026514976,
			"0.009": 0.553187682985,
			"0.01": 1.016984705,
			"0.011": 0.723139371291,
			"0.012": 0.658311783229,
			"0.013": 0.489509523715,
			"0.014": 0.460692764415,
			"0.015": 0.49555984376,
			"0.016": 0.325690075143,
			"0.017": 0.603287810402,
			"0.018": 0.159181111929,
			"0.019": 0.0,
			"0.02": 0.0,
			"0.021": 0.0,
			"0.022": 0.0,
			"0.023": 0.0,
			"0.024": 0.0,
			"0.025": 0.0
		}
	}
}
