{
	 "smiles": "OC1=C(S)C=CC=C1", 
	 "Tm": 293.15, 
	 "num_atms": 14, 
	 "gaussian": { 
		 "optdone": 1, 
		 "sigma_profile": "yes", 
		 "theory": "DFT", 
		 "functional": "B3LYP", 
		 "basiset": "6-31G**", 
		 "properties": { 
			 "R2extent": 1862.853, 
			 "electric_dipole_moment_norm": 2.66556801451, 
			 "electric_quadrupole_moment_norm": 8.84540228989, 
			 "total_energy": -705.657490198, 
			 "HOMO_LUMO_gap": 0.20301, 
			 "cosmo_polarized_energy": -9.06, 
			 "cosmo_cavitation_energy": 19.31, 
			 "cosmo_dispersion_energy": -15.24, 
			 "cosmo_repulsion_energy": 1.21, 
			 "cosmo_total_nonelectrostatic_energy": 5.27, 
			 "SMD_solvation_energy": 3.12 
		},
		"coords": [
			{
				"x": 1.9423096685,
				"y": -0.1683955931,
				"z": 1.7731409675,
				"element": "O" 
			},
			{
				"x": 0.6946145154,
				"y": 0.3238380975,
				"z": 1.4920483659,
				"element": "C" 
			},
			{
				"x": 0.5820332994,
				"y": 1.6993837246,
				"z": 1.2201084119,
				"element": "C" 
			},
			{
				"x": 1.9948185389,
				"y": 2.7887514506,
				"z": 1.2330465558,
				"element": "S" 
			},
			{
				"x": -0.6803106952,
				"y": 2.2274744839,
				"z": 0.9301834562,
				"element": "C" 
			},
			{
				"x": -1.8131130637,
				"y": 1.4139370648,
				"z": 0.9084300883,
				"element": "C" 
			},
			{
				"x": -1.6929394487,
				"y": 0.0511346492,
				"z": 1.179193018,
				"element": "C" 
			},
			{
				"x": -0.4404907962,
				"y": -0.4895061044,
				"z": 1.4699894342,
				"element": "C" 
			},
			{
				"x": 1.8799529743,
				"y": -1.1173771678,
				"z": 1.939565166,
				"element": "H" 
			},
			{
				"x": 2.9019530556,
				"y": 1.8477013111,
				"z": 1.5491676443,
				"element": "H" 
			},
			{
				"x": -0.7714015083,
				"y": 3.2893288688,
				"z": 0.71972156,
				"element": "H" 
			},
			{
				"x": -2.7823716194,
				"y": 1.8461815492,
				"z": 0.6808727343,
				"element": "H" 
			},
			{
				"x": -2.5661787032,
				"y": -0.5936299648,
				"z": 1.1657365416,
				"element": "H" 
			},
			{
				"x": -0.3373762174,
				"y": -1.5520223697,
				"z": 1.6824960561,
				"element": "H" 
			}
		],
		 "valence_orbital": [ 
			{
				"type": "occ",
				"energy": -0.34316,
				"method": "rhf"
			},
			{
				"type": "occ",
				"energy": -0.33445,
				"method": "rhf"
			},
			{
				"type": "occ",
				"energy": -0.29379,
				"method": "rhf"
			},
			{
				"type": "occ",
				"energy": -0.23798,
				"method": "rhf"
			},
			{
				"type": "occ",
				"energy": -0.20795,
				"method": "rhf"
			},
			{
				"type": "unocc",
				"energy": -0.00494,
				"method": "rhf"
			},
			{
				"type": "unocc",
				"energy": 0.00965,
				"method": "rhf"
			},
			{
				"type": "unocc",
				"energy": 0.03125,
				"method": "rhf"
			},
			{
				"type": "unocc",
				"energy": 0.05782,
				"method": "rhf"
			},
			{
				"type": "unocc",
				"energy": 0.08227,
				"method": "rhf"
			}
		],
		"cosmo_sigma_profile": { 
			"-0.025": 0.0,
			"-0.024": 0.0,
			"-0.023": 0.0,
			"-0.022": 0.0,
			"-0.021": 0.0,
			"-0.02": 0.0,
			"-0.019": 0.0728638542609,
			"-0.018": 0.862171106367,
			"-0.017": 1.19892725826,
			"-0.016": 0.733633295269,
			"-0.015": 1.0061466855,
			"-0.014": 1.55077757404,
			"-0.013": 0.3760213173,
			"-0.012": 0.582165831028,
			"-0.011": 1.40026251496,
			"-0.01": 1.58264421217,
			"-0.009": 1.51495070687,
			"-0.008": 2.22979279024,
			"-0.007": 3.25238880557,
			"-0.006": 6.74190398986,
			"-0.005": 9.21418037815,
			"-0.004": 10.3606202386,
			"-0.003": 8.35318255862,
			"-0.002": 7.51699082089,
			"-0.001": 8.09749666115,
			"0.0": 6.01420545749,
			"0.001": 7.67723374283,
			"0.002": 10.5034560613,
			"0.003": 13.4760624057,
			"0.004": 15.2445196352,
			"0.005": 15.9001614759,
			"0.006": 10.7851100566,
			"0.007": 4.4775923346,
			"0.008": 3.82143507266,
			"0.009": 2.00493101623,
			"0.01": 0.186332789421,
			"0.011": 0.0,
			"0.012": 0.0,
			"0.013": 0.0,
			"0.014": 0.0,
			"0.015": 0.0,
			"0.016": 0.0,
			"0.017": 0.0,
			"0.018": 0.0,
			"0.019": 0.0,
			"0.02": 0.0,
			"0.021": 0.0,
			"0.022": 0.0,
			"0.023": 0.0,
			"0.024": 0.0,
			"0.025": 0.0
		}
	}
}
