{
	 "smiles": "OC(=O)C1=CC=C(NC(=O)CC2SC(=NC2=O)N2CCCC2)C=C1", 
	 "Tm": 455.15, 
	 "num_atms": 41, 
	 "gaussian": { 
		 "optdone": 1, 
		 "sigma_profile": "yes", 
		 "theory": "DFT", 
		 "functional": "B3LYP", 
		 "basiset": "6-31G**", 
		 "properties": { 
			 "R2extent": 14332.5341, 
			 "electric_dipole_moment_norm": 7.67383298359, 
			 "electric_quadrupole_moment_norm": 35.3723584217, 
			 "total_energy": -1483.32137459, 
			 "HOMO_LUMO_gap": 0.17602, 
			 "cosmo_polarized_energy": -36.51, 
			 "cosmo_cavitation_energy": 46.45, 
			 "cosmo_dispersion_energy": -33.17, 
			 "cosmo_repulsion_energy": 2.51, 
			 "cosmo_total_nonelectrostatic_energy": 15.79, 
			 "SMD_solvation_energy": 6.9 
		},
		"coords": [
			{
				"x": 4.2716173165,
				"y": 6.5083513697,
				"z": -1.1271808083,
				"element": "O" 
			},
			{
				"x": 4.2131163629,
				"y": 5.8619018409,
				"z": -2.3231697831,
				"element": "C" 
			},
			{
				"x": 4.845745878,
				"y": 6.2792353012,
				"z": -3.2647120001,
				"element": "O" 
			},
			{
				"x": 3.3449708216,
				"y": 4.6436167463,
				"z": -2.3947500595,
				"element": "C" 
			},
			{
				"x": 2.956083855,
				"y": 4.1946663267,
				"z": -3.6652860639,
				"element": "C" 
			},
			{
				"x": 2.1669532611,
				"y": 3.0614229406,
				"z": -3.8053835559,
				"element": "C" 
			},
			{
				"x": 1.7479741951,
				"y": 2.3406595935,
				"z": -2.67440796,
				"element": "C" 
			},
			{
				"x": 0.9117775626,
				"y": 1.2189237663,
				"z": -2.8532274492,
				"element": "N" 
			},
			{
				"x": 0.8897303977,
				"y": -0.024754363,
				"z": -2.2361650168,
				"element": "C" 
			},
			{
				"x": -0.0625913089,
				"y": -0.7663250045,
				"z": -2.4175536444,
				"element": "O" 
			},
			{
				"x": 2.1197895536,
				"y": -0.4750436587,
				"z": -1.4601210209,
				"element": "C" 
			},
			{
				"x": 1.7885438266,
				"y": -1.3473349893,
				"z": -0.2448218774,
				"element": "C" 
			},
			{
				"x": 0.5904963418,
				"y": -0.6315570896,
				"z": 0.9403220677,
				"element": "S" 
			},
			{
				"x": -0.404009099,
				"y": -2.1303860192,
				"z": 0.768264647,
				"element": "C" 
			},
			{
				"x": 0.0312809157,
				"y": -3.0774225696,
				"z": -0.014588733,
				"element": "N" 
			},
			{
				"x": 1.2038303443,
				"y": -2.7407405876,
				"z": -0.6587760287,
				"element": "C" 
			},
			{
				"x": 1.8123847027,
				"y": -3.4266000605,
				"z": -1.4546191385,
				"element": "O" 
			},
			{
				"x": -1.5432094584,
				"y": -2.2260434742,
				"z": 1.4600708453,
				"element": "N" 
			},
			{
				"x": -2.4230856845,
				"y": -3.4049067779,
				"z": 1.3379095754,
				"element": "C" 
			},
			{
				"x": -3.7291005428,
				"y": -2.9328619472,
				"z": 1.9912123779,
				"element": "C" 
			},
			{
				"x": -3.2572664539,
				"y": -1.9160151978,
				"z": 3.0455289834,
				"element": "C" 
			},
			{
				"x": -2.0947727043,
				"y": -1.1926447274,
				"z": 2.3478735075,
				"element": "C" 
			},
			{
				"x": 2.1245246156,
				"y": 2.7916831273,
				"z": -1.3999612611,
				"element": "C" 
			},
			{
				"x": 2.9286850241,
				"y": 3.9207985605,
				"z": -1.2684936538,
				"element": "C" 
			},
			{
				"x": 3.5921950036,
				"y": 6.170412206,
				"z": -0.5280258587,
				"element": "H" 
			},
			{
				"x": 3.2977547311,
				"y": 4.7466176389,
				"z": -4.5341275938,
				"element": "H" 
			},
			{
				"x": 1.8809203256,
				"y": 2.7123030211,
				"z": -4.7932849782,
				"element": "H" 
			},
			{
				"x": 0.1632325624,
				"y": 1.3107093539,
				"z": -3.5303477366,
				"element": "H" 
			},
			{
				"x": 2.6817353318,
				"y": -1.1275503872,
				"z": -2.1429983848,
				"element": "H" 
			},
			{
				"x": 2.7772177009,
				"y": 0.351572987,
				"z": -1.1919179828,
				"element": "H" 
			},
			{
				"x": 2.7184201716,
				"y": -1.5485853977,
				"z": 0.2948403161,
				"element": "H" 
			},
			{
				"x": -1.9772845666,
				"y": -4.2545434729,
				"z": 1.8693182816,
				"element": "H" 
			},
			{
				"x": -2.521745354,
				"y": -3.6863645582,
				"z": 0.2876512658,
				"element": "H" 
			},
			{
				"x": -4.2995764365,
				"y": -3.7603765031,
				"z": 2.4200598987,
				"element": "H" 
			},
			{
				"x": -4.3630969928,
				"y": -2.4383036055,
				"z": 1.2469865216,
				"element": "H" 
			},
			{
				"x": -4.0411405848,
				"y": -1.2235611115,
				"z": 3.3619562414,
				"element": "H" 
			},
			{
				"x": -2.8895440782,
				"y": -2.4376432949,
				"z": 3.9359869236,
				"element": "H" 
			},
			{
				"x": -2.4481379188,
				"y": -0.3345404349,
				"z": 1.7605428424,
				"element": "H" 
			},
			{
				"x": -1.3343722193,
				"y": -0.834114784,
				"z": 3.0492229304,
				"element": "H" 
			},
			{
				"x": 1.7668592189,
				"y": 2.2743590744,
				"z": -0.5163578106,
				"element": "H" 
			},
			{
				"x": 3.2353933819,
				"y": 4.2186861621,
				"z": -0.2686688255,
				"element": "H" 
			}
		],
		 "valence_orbital": [ 
			{
				"type": "occ",
				"energy": -0.26636,
				"method": "rhf"
			},
			{
				"type": "occ",
				"energy": -0.25485,
				"method": "rhf"
			},
			{
				"type": "occ",
				"energy": -0.24777,
				"method": "rhf"
			},
			{
				"type": "occ",
				"energy": -0.24171,
				"method": "rhf"
			},
			{
				"type": "occ",
				"energy": -0.23714,
				"method": "rhf"
			},
			{
				"type": "unocc",
				"energy": -0.06112,
				"method": "rhf"
			},
			{
				"type": "unocc",
				"energy": -0.03483,
				"method": "rhf"
			},
			{
				"type": "unocc",
				"energy": -0.02053,
				"method": "rhf"
			},
			{
				"type": "unocc",
				"energy": -0.00455,
				"method": "rhf"
			},
			{
				"type": "unocc",
				"energy": 0.00831,
				"method": "rhf"
			}
		],
		"cosmo_sigma_profile": { 
			"-0.025": 0.0,
			"-0.024": 0.0,
			"-0.023": 0.0,
			"-0.022": 0.0,
			"-0.021": 0.0,
			"-0.02": 0.0,
			"-0.019": 0.319295372786,
			"-0.018": 1.03584893271,
			"-0.017": 0.84110018419,
			"-0.016": 0.741257092965,
			"-0.015": 1.5726871868,
			"-0.014": 2.28108478302,
			"-0.013": 2.41488936382,
			"-0.012": 2.1884569587,
			"-0.011": 2.17113551381,
			"-0.01": 2.06959282503,
			"-0.009": 2.10677294437,
			"-0.008": 7.93438352157,
			"-0.007": 11.9602275303,
			"-0.006": 17.4297152821,
			"-0.005": 27.8828944181,
			"-0.004": 42.5558970986,
			"-0.003": 35.9544676234,
			"-0.002": 25.9018346067,
			"-0.001": 22.9777028075,
			"0.0": 20.3929604796,
			"0.001": 14.9831424272,
			"0.002": 18.0402123964,
			"0.003": 13.0323180553,
			"0.004": 8.41696218617,
			"0.005": 6.75194771471,
			"0.006": 7.38747593764,
			"0.007": 5.96220651135,
			"0.008": 6.59760302373,
			"0.009": 6.40386276738,
			"0.01": 10.0233170629,
			"0.011": 11.6137280362,
			"0.012": 14.0570109124,
			"0.013": 11.173485736,
			"0.014": 4.11351910222,
			"0.015": 0.864342861296,
			"0.016": 0.0,
			"0.017": 0.0,
			"0.018": 0.0,
			"0.019": 0.0,
			"0.02": 0.0,
			"0.021": 0.0,
			"0.022": 0.0,
			"0.023": 0.0,
			"0.024": 0.0,
			"0.025": 0.0
		}
	}
}
