{
	 "smiles": "OC(=O)C1CCN(CC1)C1=NC=C(C=C1)C#N", 
	 "Tm": 448.15, 
	 "num_atms": 30, 
	 "gaussian": { 
		 "optdone": 1, 
		 "sigma_profile": "yes", 
		 "theory": "DFT", 
		 "functional": "B3LYP", 
		 "basiset": "6-31G**", 
		 "properties": { 
			 "R2extent": 6238.1287, 
			 "electric_dipole_moment_norm": 7.10705990055, 
			 "electric_quadrupole_moment_norm": 35.5959532621, 
			 "total_energy": -779.817888156, 
			 "HOMO_LUMO_gap": 0.1787, 
			 "cosmo_polarized_energy": -18.43, 
			 "cosmo_cavitation_energy": 34.02, 
			 "cosmo_dispersion_energy": -24.33, 
			 "cosmo_repulsion_energy": 1.88, 
			 "cosmo_total_nonelectrostatic_energy": 11.57, 
			 "SMD_solvation_energy": 6.39 
		},
		"coords": [
			{
				"x": 3.2111063191,
				"y": -0.6189967371,
				"z": -3.6849299053,
				"element": "O" 
			},
			{
				"x": 1.8657259458,
				"y": -0.5028211171,
				"z": -3.5602246346,
				"element": "C" 
			},
			{
				"x": 1.1174026659,
				"y": -0.595029843,
				"z": -4.5080305408,
				"element": "O" 
			},
			{
				"x": 1.4662593508,
				"y": -0.2737882072,
				"z": -2.1103566778,
				"element": "C" 
			},
			{
				"x": -0.0158329021,
				"y": 0.1578236039,
				"z": -1.9709449562,
				"element": "C" 
			},
			{
				"x": -0.7647309741,
				"y": -0.6533433053,
				"z": -0.9056494136,
				"element": "C" 
			},
			{
				"x": 0.0281604913,
				"y": -0.7807130995,
				"z": 0.3214979116,
				"element": "N" 
			},
			{
				"x": 1.3840303042,
				"y": -1.3174878012,
				"z": 0.1935568718,
				"element": "C" 
			},
			{
				"x": 1.7583902559,
				"y": -1.5412889273,
				"z": -1.274463825,
				"element": "C" 
			},
			{
				"x": -0.48469764,
				"y": -0.4726717994,
				"z": 1.5521580843,
				"element": "C" 
			},
			{
				"x": -1.7507144665,
				"y": 0.0019479365,
				"z": 1.5961117189,
				"element": "N" 
			},
			{
				"x": -2.2780879845,
				"y": 0.322098718,
				"z": 2.7697269986,
				"element": "C" 
			},
			{
				"x": -1.6038911025,
				"y": 0.1971255443,
				"z": 3.9960181642,
				"element": "C" 
			},
			{
				"x": -0.2872596481,
				"y": -0.3023449221,
				"z": 3.9525465402,
				"element": "C" 
			},
			{
				"x": 0.2799458151,
				"y": -0.6399820112,
				"z": 2.7404821576,
				"element": "C" 
			},
			{
				"x": -2.23438164,
				"y": 0.558841729,
				"z": 5.2232544345,
				"element": "C" 
			},
			{
				"x": -2.7512011848,
				"y": 0.8555850121,
				"z": 6.2239280971,
				"element": "N" 
			},
			{
				"x": 3.3842632791,
				"y": -0.7838439426,
				"z": -4.6271691559,
				"element": "H" 
			},
			{
				"x": 2.1278501593,
				"y": 0.5155284913,
				"z": -1.7324755776,
				"element": "H" 
			},
			{
				"x": -0.5213297031,
				"y": 0.0316450054,
				"z": -2.9326362231,
				"element": "H" 
			},
			{
				"x": -0.0628054829,
				"y": 1.2205757503,
				"z": -1.7139510964,
				"element": "H" 
			},
			{
				"x": -1.7038073022,
				"y": -0.1731541174,
				"z": -0.6388766632,
				"element": "H" 
			},
			{
				"x": -1.0081292902,
				"y": -1.6539775609,
				"z": -1.2886335285,
				"element": "H" 
			},
			{
				"x": 1.4785002308,
				"y": -2.2644519666,
				"z": 0.7453396142,
				"element": "H" 
			},
			{
				"x": 2.1012631234,
				"y": -0.6134222372,
				"z": 0.6406754507,
				"element": "H" 
			},
			{
				"x": 2.8190953779,
				"y": -1.7989345693,
				"z": -1.3318427539,
				"element": "H" 
			},
			{
				"x": 1.2004874667,
				"y": -2.3914229587,
				"z": -1.6827594751,
				"element": "H" 
			},
			{
				"x": -3.2981981701,
				"y": 0.7012105293,
				"z": 2.752719611,
				"element": "H" 
			},
			{
				"x": 0.2763078611,
				"y": -0.4217383582,
				"z": 4.8724033628,
				"element": "H" 
			},
			{
				"x": 1.2897788449,
				"y": -1.0271688386,
				"z": 2.7103254095,
				"element": "H" 
			}
		],
		 "valence_orbital": [ 
			{
				"type": "occ",
				"energy": -0.29704,
				"method": "rhf"
			},
			{
				"type": "occ",
				"energy": -0.29386,
				"method": "rhf"
			},
			{
				"type": "occ",
				"energy": -0.2886,
				"method": "rhf"
			},
			{
				"type": "occ",
				"energy": -0.26916,
				"method": "rhf"
			},
			{
				"type": "occ",
				"energy": -0.21585,
				"method": "rhf"
			},
			{
				"type": "unocc",
				"energy": -0.03715,
				"method": "rhf"
			},
			{
				"type": "unocc",
				"energy": -0.02988,
				"method": "rhf"
			},
			{
				"type": "unocc",
				"energy": -0.00682,
				"method": "rhf"
			},
			{
				"type": "unocc",
				"energy": 0.0423,
				"method": "rhf"
			},
			{
				"type": "unocc",
				"energy": 0.06012,
				"method": "rhf"
			}
		],
		"cosmo_sigma_profile": { 
			"-0.025": 0.0,
			"-0.024": 0.0,
			"-0.023": 0.0,
			"-0.022": 0.0,
			"-0.021": 0.0,
			"-0.02": 0.0,
			"-0.019": 0.0736046601717,
			"-0.018": 0.657303927293,
			"-0.017": 1.17483306343,
			"-0.016": 0.392805186414,
			"-0.015": 1.16380194142,
			"-0.014": 0.682661883092,
			"-0.013": 0.513998532853,
			"-0.012": 0.0918885229143,
			"-0.011": 1.1392637709,
			"-0.01": 0.773692374992,
			"-0.009": 0.58658019428,
			"-0.008": 3.57199696121,
			"-0.007": 7.81781573319,
			"-0.006": 12.7602592961,
			"-0.005": 25.5175942832,
			"-0.004": 26.4184570587,
			"-0.003": 22.0304059813,
			"-0.002": 20.8042033008,
			"-0.001": 16.6644597569,
			"0.0": 19.490773419,
			"0.001": 19.742718379,
			"0.002": 14.1180564477,
			"0.003": 9.06297945394,
			"0.004": 7.23372179503,
			"0.005": 5.53758047293,
			"0.006": 6.52900030034,
			"0.007": 6.86246216176,
			"0.008": 6.97192894765,
			"0.009": 7.53020910789,
			"0.01": 7.34778468015,
			"0.011": 7.72240991316,
			"0.012": 5.96312863534,
			"0.013": 2.41642125254,
			"0.014": 0.797273866482,
			"0.015": 0.0,
			"0.016": 0.0,
			"0.017": 0.0,
			"0.018": 0.0,
			"0.019": 0.0,
			"0.02": 0.0,
			"0.021": 0.0,
			"0.022": 0.0,
			"0.023": 0.0,
			"0.024": 0.0,
			"0.025": 0.0
		}
	}
}
