{
	 "smiles": "CN1C2=C(CNCC2)N=C1C1CC1", 
	 "Tm": 443.15, 
	 "num_atms": 28, 
	 "gaussian": { 
		 "optdone": 1, 
		 "sigma_profile": "yes", 
		 "theory": "DFT", 
		 "functional": "B3LYP", 
		 "basiset": "6-31G**", 
		 "properties": { 
			 "R2extent": 2981.7934, 
			 "electric_dipole_moment_norm": 3.21203961682, 
			 "electric_quadrupole_moment_norm": 10.8423444859, 
			 "total_energy": -554.325504773, 
			 "HOMO_LUMO_gap": 0.22341, 
			 "cosmo_polarized_energy": -12.39, 
			 "cosmo_cavitation_energy": 29.2, 
			 "cosmo_dispersion_energy": -21.68, 
			 "cosmo_repulsion_energy": 1.73, 
			 "cosmo_total_nonelectrostatic_energy": 9.26, 
			 "SMD_solvation_energy": 0.27 
		},
		"coords": [
			{
				"x": 0.9779123398,
				"y": -2.3806786479,
				"z": -0.2591539374,
				"element": "C" 
			},
			{
				"x": 0.8697369553,
				"y": -0.938001959,
				"z": -0.3846718324,
				"element": "N" 
			},
			{
				"x": -0.1566749756,
				"y": -0.239582242,
				"z": -1.0101757468,
				"element": "C" 
			},
			{
				"x": 0.1870584284,
				"y": 1.081061687,
				"z": -0.9094639633,
				"element": "C" 
			},
			{
				"x": -0.6623837206,
				"y": 2.1804338135,
				"z": -1.4696701897,
				"element": "C" 
			},
			{
				"x": -1.6370892892,
				"y": 1.5817923863,
				"z": -2.3964087608,
				"element": "N" 
			},
			{
				"x": -2.3523071708,
				"y": 0.4376145646,
				"z": -1.8254479625,
				"element": "C" 
			},
			{
				"x": -1.393161241,
				"y": -0.7609471036,
				"z": -1.6660997002,
				"element": "C" 
			},
			{
				"x": 1.3819301352,
				"y": 1.2338257621,
				"z": -0.2473856088,
				"element": "N" 
			},
			{
				"x": 1.7741842113,
				"y": 0.0070016376,
				"z": 0.0522600156,
				"element": "C" 
			},
			{
				"x": 3.0077503626,
				"y": -0.3306543487,
				"z": 0.7952393893,
				"element": "C" 
			},
			{
				"x": 4.1084494227,
				"y": 0.7040954918,
				"z": 0.8811852926,
				"element": "C" 
			},
			{
				"x": 3.3063695637,
				"y": 0.3836395559,
				"z": 2.1078488874,
				"element": "C" 
			},
			{
				"x": 1.6907230215,
				"y": -2.7993643467,
				"z": -0.9790201189,
				"element": "H" 
			},
			{
				"x": 1.2934937034,
				"y": -2.6555843816,
				"z": 0.7505093045,
				"element": "H" 
			},
			{
				"x": 0.0005471414,
				"y": -2.8297562854,
				"z": -0.443807037,
				"element": "H" 
			},
			{
				"x": -1.1409634289,
				"y": 2.7423510744,
				"z": -0.6434237862,
				"element": "H" 
			},
			{
				"x": -0.0433581552,
				"y": 2.8976351381,
				"z": -2.0218167912,
				"element": "H" 
			},
			{
				"x": -2.3047020472,
				"y": 2.2889253836,
				"z": -2.6880305369,
				"element": "H" 
			},
			{
				"x": -2.800041274,
				"y": 0.657968195,
				"z": -0.837346823,
				"element": "H" 
			},
			{
				"x": -3.1699608757,
				"y": 0.1698263561,
				"z": -2.5026270937,
				"element": "H" 
			},
			{
				"x": -1.8869299163,
				"y": -1.5414645956,
				"z": -1.0706873525,
				"element": "H" 
			},
			{
				"x": -1.1761730743,
				"y": -1.1942018977,
				"z": -2.6525657533,
				"element": "H" 
			},
			{
				"x": 3.3218462071,
				"y": -1.368438856,
				"z": 0.731677877,
				"element": "H" 
			},
			{
				"x": 3.9063072569,
				"y": 1.6460470467,
				"z": 0.3827819765,
				"element": "H" 
			},
			{
				"x": 5.1348634782,
				"y": 0.3544510871,
				"z": 0.8236964446,
				"element": "H" 
			},
			{
				"x": 3.7718720884,
				"y": -0.1904249434,
				"z": 2.9040470793,
				"element": "H" 
			},
			{
				"x": 2.5732008525,
				"y": 1.1146304276,
				"z": 2.4328567279,
				"element": "H" 
			}
		],
		 "valence_orbital": [ 
			{
				"type": "occ",
				"energy": -0.2943,
				"method": "rhf"
			},
			{
				"type": "occ",
				"energy": -0.25077,
				"method": "rhf"
			},
			{
				"type": "occ",
				"energy": -0.24945,
				"method": "rhf"
			},
			{
				"type": "occ",
				"energy": -0.21285,
				"method": "rhf"
			},
			{
				"type": "occ",
				"energy": -0.18798,
				"method": "rhf"
			},
			{
				"type": "unocc",
				"energy": 0.03543,
				"method": "rhf"
			},
			{
				"type": "unocc",
				"energy": 0.07565,
				"method": "rhf"
			},
			{
				"type": "unocc",
				"energy": 0.08205,
				"method": "rhf"
			},
			{
				"type": "unocc",
				"energy": 0.09465,
				"method": "rhf"
			},
			{
				"type": "unocc",
				"energy": 0.11036,
				"method": "rhf"
			}
		],
		"cosmo_sigma_profile": { 
			"-0.025": 0.0,
			"-0.024": 0.0,
			"-0.023": 0.0,
			"-0.022": 0.0,
			"-0.021": 0.0,
			"-0.02": 0.0,
			"-0.019": 0.0,
			"-0.018": 0.0,
			"-0.017": 0.0,
			"-0.016": 0.0,
			"-0.015": 0.0,
			"-0.014": 0.0,
			"-0.013": 0.0,
			"-0.012": 0.0,
			"-0.011": 0.0657836382734,
			"-0.01": 0.966547414669,
			"-0.009": 1.83157265874,
			"-0.008": 0.573075001033,
			"-0.007": 1.56436068183,
			"-0.006": 8.33507672968,
			"-0.005": 16.4358621952,
			"-0.004": 23.4283849402,
			"-0.003": 27.5814090444,
			"-0.002": 28.9557973143,
			"-0.001": 24.0995283229,
			"0.0": 17.3271308619,
			"0.001": 11.705422416,
			"0.002": 9.75364262916,
			"0.003": 10.2083820728,
			"0.004": 8.69055863522,
			"0.005": 7.57121001181,
			"0.006": 4.91868559154,
			"0.007": 4.38627155289,
			"0.008": 3.0864942103,
			"0.009": 3.00773542909,
			"0.01": 2.25137011653,
			"0.011": 2.23934289342,
			"0.012": 1.83293468174,
			"0.013": 1.35278373751,
			"0.014": 2.16063860764,
			"0.015": 1.54917440588,
			"0.016": 1.17108627294,
			"0.017": 0.93813775185,
			"0.018": 0.565619229416,
			"0.019": 0.0452824001809,
			"0.02": 0.0,
			"0.021": 0.0,
			"0.022": 0.0,
			"0.023": 0.0,
			"0.024": 0.0,
			"0.025": 0.0
		}
	}
}
