{
	 "smiles": "CC(C)(OO)C1=CC=CC=C1", 
	 "Tm": 264.15, 
	 "num_atms": 23, 
	 "gaussian": { 
		 "optdone": 1, 
		 "sigma_profile": "yes", 
		 "theory": "DFT", 
		 "functional": "B3LYP", 
		 "basiset": "6-31G**", 
		 "properties": { 
			 "R2extent": 2022.5937, 
			 "electric_dipole_moment_norm": 2.3211787135, 
			 "electric_quadrupole_moment_norm": 10.1697136307, 
			 "total_energy": -500.547368497, 
			 "HOMO_LUMO_gap": 0.23782, 
			 "cosmo_polarized_energy": -8.08, 
			 "cosmo_cavitation_energy": 25.3, 
			 "cosmo_dispersion_energy": -18.16, 
			 "cosmo_repulsion_energy": 1.45, 
			 "cosmo_total_nonelectrostatic_energy": 8.6, 
			 "SMD_solvation_energy": 4.16 
		},
		"coords": [
			{
				"x": -1.1372172735,
				"y": 1.7097439362,
				"z": 0.2045957846,
				"element": "C" 
			},
			{
				"x": -0.46715594,
				"y": 0.7325957435,
				"z": 1.1752341663,
				"element": "C" 
			},
			{
				"x": -1.5175933186,
				"y": -0.1413463057,
				"z": 1.8815789074,
				"element": "C" 
			},
			{
				"x": 0.1083331273,
				"y": 1.4660637619,
				"z": 2.2828311095,
				"element": "O" 
			},
			{
				"x": 1.0994859973,
				"y": 2.3967925691,
				"z": 1.7733257671,
				"element": "O" 
			},
			{
				"x": 0.614693917,
				"y": -0.1472867789,
				"z": 0.5349084365,
				"element": "C" 
			},
			{
				"x": 0.6726406302,
				"y": -0.3989201773,
				"z": -0.8412915885,
				"element": "C" 
			},
			{
				"x": 1.659281724,
				"y": -1.2312343887,
				"z": -1.3758858089,
				"element": "C" 
			},
			{
				"x": 2.6114850961,
				"y": -1.8205366221,
				"z": -0.5444935768,
				"element": "C" 
			},
			{
				"x": 2.5675185437,
				"y": -1.5750119436,
				"z": 0.8294426626,
				"element": "C" 
			},
			{
				"x": 1.5768251941,
				"y": -0.7502014646,
				"z": 1.3621283869,
				"element": "C" 
			},
			{
				"x": -1.8184250269,
				"y": 2.3531051173,
				"z": 0.7675618563,
				"element": "H" 
			},
			{
				"x": -0.3955271824,
				"y": 2.3407329991,
				"z": -0.2878211488,
				"element": "H" 
			},
			{
				"x": -1.7191326093,
				"y": 1.1811918374,
				"z": -0.5558327245,
				"element": "H" 
			},
			{
				"x": -1.0479321078,
				"y": -0.7918991717,
				"z": 2.6236477214,
				"element": "H" 
			},
			{
				"x": -2.0292438649,
				"y": -0.7699441126,
				"z": 1.1476924921,
				"element": "H" 
			},
			{
				"x": -2.2565374146,
				"y": 0.4893268955,
				"z": 2.3843285743,
				"element": "H" 
			},
			{
				"x": 1.8871042455,
				"y": 1.8256741614,
				"z": 1.7397952568,
				"element": "H" 
			},
			{
				"x": -0.0513767849,
				"y": 0.0550271423,
				"z": -1.5094903419,
				"element": "H" 
			},
			{
				"x": 1.6845551756,
				"y": -1.4129643149,
				"z": -2.4467483966,
				"element": "H" 
			},
			{
				"x": 3.3808486551,
				"y": -2.4634827743,
				"z": -0.962094408,
				"element": "H" 
			},
			{
				"x": 3.3035451246,
				"y": -2.0276523967,
				"z": 1.4882067378,
				"element": "H" 
			},
			{
				"x": 1.5409240922,
				"y": -0.5655737128,
				"z": 2.4322801344,
				"element": "H" 
			}
		],
		 "valence_orbital": [ 
			{
				"type": "occ",
				"energy": -0.33098,
				"method": "rhf"
			},
			{
				"type": "occ",
				"energy": -0.28161,
				"method": "rhf"
			},
			{
				"type": "occ",
				"energy": -0.26882,
				"method": "rhf"
			},
			{
				"type": "occ",
				"energy": -0.25555,
				"method": "rhf"
			},
			{
				"type": "occ",
				"energy": -0.24896,
				"method": "rhf"
			},
			{
				"type": "unocc",
				"energy": -0.01114,
				"method": "rhf"
			},
			{
				"type": "unocc",
				"energy": -0.00745,
				"method": "rhf"
			},
			{
				"type": "unocc",
				"energy": 0.03518,
				"method": "rhf"
			},
			{
				"type": "unocc",
				"energy": 0.0856,
				"method": "rhf"
			},
			{
				"type": "unocc",
				"energy": 0.10661,
				"method": "rhf"
			}
		],
		"cosmo_sigma_profile": { 
			"-0.025": 0.0,
			"-0.024": 0.0,
			"-0.023": 0.0,
			"-0.022": 0.0,
			"-0.021": 0.0,
			"-0.02": 0.0,
			"-0.019": 0.0,
			"-0.018": 0.0,
			"-0.017": 0.0,
			"-0.016": 0.0,
			"-0.015": 0.183852240537,
			"-0.014": 0.763287964748,
			"-0.013": 0.818261056909,
			"-0.012": 0.629568347211,
			"-0.011": 0.187854079191,
			"-0.01": 1.00864792042,
			"-0.009": 0.968693505961,
			"-0.008": 0.769237729188,
			"-0.007": 1.09001134483,
			"-0.006": 4.81427047917,
			"-0.005": 14.3463965754,
			"-0.004": 18.7173914759,
			"-0.003": 23.6478164879,
			"-0.002": 17.7859732237,
			"-0.001": 18.0357616817,
			"0.0": 17.1585876132,
			"0.001": 13.9015757586,
			"0.002": 9.90110653691,
			"0.003": 9.52442765391,
			"0.004": 10.1513440324,
			"0.005": 10.4036619704,
			"0.006": 6.25365054862,
			"0.007": 2.38087342263,
			"0.008": 2.27371367157,
			"0.009": 2.82920736893,
			"0.01": 3.26851444199,
			"0.011": 4.50901732788,
			"0.012": 2.34314028666,
			"0.013": 0.162114901502,
			"0.014": 0.0,
			"0.015": 0.0,
			"0.016": 0.0,
			"0.017": 0.0,
			"0.018": 0.0,
			"0.019": 0.0,
			"0.02": 0.0,
			"0.021": 0.0,
			"0.022": 0.0,
			"0.023": 0.0,
			"0.024": 0.0,
			"0.025": 0.0
		}
	}
}
