{
	 "smiles": "NC1(CCN(CC2=CC=CC=C2)CC1)C#N", 
	 "Tm": 341.15, 
	 "num_atms": 33, 
	 "gaussian": { 
		 "optdone": 1, 
		 "sigma_profile": "yes", 
		 "theory": "DFT", 
		 "functional": "B3LYP", 
		 "basiset": "6-31G**", 
		 "properties": { 
			 "R2extent": 4590.1939, 
			 "electric_dipole_moment_norm": 2.26136019908, 
			 "electric_quadrupole_moment_norm": 20.048275857, 
			 "total_energy": -669.84920421, 
			 "HOMO_LUMO_gap": 0.1981, 
			 "cosmo_polarized_energy": -14.05, 
			 "cosmo_cavitation_energy": 34.65, 
			 "cosmo_dispersion_energy": -23.55, 
			 "cosmo_repulsion_energy": 1.84, 
			 "cosmo_total_nonelectrostatic_energy": 12.95, 
			 "SMD_solvation_energy": 3.58 
		},
		"coords": [
			{
				"x": -0.2425037871,
				"y": 3.3219057727,
				"z": -3.5895421779,
				"element": "N" 
			},
			{
				"x": 0.1398531641,
				"y": 2.049668813,
				"z": -2.9600713271,
				"element": "C" 
			},
			{
				"x": -1.1301362151,
				"y": 1.3805907758,
				"z": -2.3587268259,
				"element": "C" 
			},
			{
				"x": -1.3789052211,
				"y": 1.9105606674,
				"z": -0.9421629105,
				"element": "C" 
			},
			{
				"x": -0.2881792308,
				"y": 1.5826689871,
				"z": -0.0063620303,
				"element": "N" 
			},
			{
				"x": -0.6016484188,
				"y": 0.6045235661,
				"z": 1.0414109312,
				"element": "C" 
			},
			{
				"x": -0.8688979143,
				"y": -0.8291820936,
				"z": 0.5964437257,
				"element": "C" 
			},
			{
				"x": 0.1817292894,
				"y": -1.7467564608,
				"z": 0.443749185,
				"element": "C" 
			},
			{
				"x": -0.0572326661,
				"y": -3.0465177873,
				"z": -0.0058537147,
				"element": "C" 
			},
			{
				"x": -1.3579945494,
				"y": -3.4563146584,
				"z": -0.3035523251,
				"element": "C" 
			},
			{
				"x": -2.4171015862,
				"y": -2.5616747344,
				"z": -0.13865948,
				"element": "C" 
			},
			{
				"x": -2.1721681378,
				"y": -1.2628470301,
				"z": 0.3099610787,
				"element": "C" 
			},
			{
				"x": 1.0082946779,
				"y": 1.3801955731,
				"z": -0.6539474953,
				"element": "C" 
			},
			{
				"x": 1.1630624479,
				"y": 2.3521880982,
				"z": -1.8228431911,
				"element": "C" 
			},
			{
				"x": 0.7551599335,
				"y": 1.1235624838,
				"z": -3.9486300042,
				"element": "C" 
			},
			{
				"x": 1.2272979431,
				"y": 0.436958602,
				"z": -4.7589542146,
				"element": "N" 
			},
			{
				"x": -0.8207806092,
				"y": 3.1467424603,
				"z": -4.408845721,
				"element": "H" 
			},
			{
				"x": 0.5867313498,
				"y": 3.8130621422,
				"z": -3.9176891735,
				"element": "H" 
			},
			{
				"x": -1.0043089945,
				"y": 0.2943842653,
				"z": -2.3308765932,
				"element": "H" 
			},
			{
				"x": -1.9856208755,
				"y": 1.5929575601,
				"z": -3.0094941942,
				"element": "H" 
			},
			{
				"x": -2.3177559654,
				"y": 1.5025373542,
				"z": -0.558910509,
				"element": "H" 
			},
			{
				"x": -1.5060326384,
				"y": 3.0004240923,
				"z": -0.9970108907,
				"element": "H" 
			},
			{
				"x": -1.472646534,
				"y": 0.9795079783,
				"z": 1.5914684702,
				"element": "H" 
			},
			{
				"x": 0.2403641087,
				"y": 0.6108111649,
				"z": 1.7455731982,
				"element": "H" 
			},
			{
				"x": 1.1956123221,
				"y": -1.4446311456,
				"z": 0.6945867453,
				"element": "H" 
			},
			{
				"x": 0.7712092556,
				"y": -3.7404746652,
				"z": -0.117133541,
				"element": "H" 
			},
			{
				"x": -1.546230362,
				"y": -4.4681086462,
				"z": -0.6507850647,
				"element": "H" 
			},
			{
				"x": -3.4348653458,
				"y": -2.8775967483,
				"z": -0.3505791572,
				"element": "H" 
			},
			{
				"x": -3.0071845742,
				"y": -0.5814355972,
				"z": 0.4561720841,
				"element": "H" 
			},
			{
				"x": 1.1531140906,
				"y": 0.3502796471,
				"z": -1.027982769,
				"element": "H" 
			},
			{
				"x": 1.8009449146,
				"y": 1.5571954099,
				"z": 0.0850386873,
				"element": "H" 
			},
			{
				"x": 0.9616839696,
				"y": 3.3705220568,
				"z": -1.4748405339,
				"element": "H" 
			},
			{
				"x": 2.185536159,
				"y": 2.3238920966,
				"z": -2.2108502617,
				"element": "H" 
			}
		],
		 "valence_orbital": [ 
			{
				"type": "occ",
				"energy": -0.31111,
				"method": "rhf"
			},
			{
				"type": "occ",
				"energy": -0.26439,
				"method": "rhf"
			},
			{
				"type": "occ",
				"energy": -0.25153,
				"method": "rhf"
			},
			{
				"type": "occ",
				"energy": -0.24765,
				"method": "rhf"
			},
			{
				"type": "occ",
				"energy": -0.20334,
				"method": "rhf"
			},
			{
				"type": "unocc",
				"energy": -0.00524,
				"method": "rhf"
			},
			{
				"type": "unocc",
				"energy": -0.00443,
				"method": "rhf"
			},
			{
				"type": "unocc",
				"energy": 0.03289,
				"method": "rhf"
			},
			{
				"type": "unocc",
				"energy": 0.04221,
				"method": "rhf"
			},
			{
				"type": "unocc",
				"energy": 0.06702,
				"method": "rhf"
			}
		],
		"cosmo_sigma_profile": { 
			"-0.025": 0.0,
			"-0.024": 0.0,
			"-0.023": 0.0,
			"-0.022": 0.0,
			"-0.021": 0.0,
			"-0.02": 0.0,
			"-0.019": 0.0,
			"-0.018": 0.0,
			"-0.017": 0.0,
			"-0.016": 0.0,
			"-0.015": 0.0,
			"-0.014": 0.0,
			"-0.013": 0.0,
			"-0.012": 0.428198860235,
			"-0.011": 2.92142420401,
			"-0.01": 3.29981732585,
			"-0.009": 4.29256578144,
			"-0.008": 2.72887186758,
			"-0.007": 2.81636041204,
			"-0.006": 7.5859758399,
			"-0.005": 18.1464913809,
			"-0.004": 26.3674522564,
			"-0.003": 31.1699683513,
			"-0.002": 29.2435262722,
			"-0.001": 24.6672744042,
			"0.0": 15.8875984887,
			"0.001": 14.9227438622,
			"0.002": 11.0996840211,
			"0.003": 10.6132634419,
			"0.004": 11.094444217,
			"0.005": 11.3746074504,
			"0.006": 11.2392927142,
			"0.007": 3.93207552028,
			"0.008": 4.64648543468,
			"0.009": 5.41805434568,
			"0.01": 4.3280362755,
			"0.011": 4.05842916502,
			"0.012": 3.70854400503,
			"0.013": 3.35310570094,
			"0.014": 1.54891707784,
			"0.015": 0.954229973919,
			"0.016": 0.205934060611,
			"0.017": 0.0,
			"0.018": 0.0,
			"0.019": 0.0,
			"0.02": 0.0,
			"0.021": 0.0,
			"0.022": 0.0,
			"0.023": 0.0,
			"0.024": 0.0,
			"0.025": 0.0
		}
	}
}
