{
	 "smiles": "CC1CCCC(C)C1O", 
	 "Tm": 305.65, 
	 "num_atms": 25, 
	 "gaussian": { 
		 "optdone": 1, 
		 "sigma_profile": "yes", 
		 "theory": "DFT", 
		 "functional": "B3LYP", 
		 "basiset": "6-31G**", 
		 "properties": { 
			 "R2extent": 1631.5604, 
			 "electric_dipole_moment_norm": 1.34268588657, 
			 "electric_quadrupole_moment_norm": 5.9565016142, 
			 "total_energy": -389.724498892, 
			 "HOMO_LUMO_gap": 0.32347, 
			 "cosmo_polarized_energy": -5.29, 
			 "cosmo_cavitation_energy": 23.95, 
			 "cosmo_dispersion_energy": -17.88, 
			 "cosmo_repulsion_energy": 1.46, 
			 "cosmo_total_nonelectrostatic_energy": 7.52, 
			 "SMD_solvation_energy": 3.62 
		},
		"coords": [
			{
				"x": -1.3504087407,
				"y": 1.9672688874,
				"z": 0.4182314497,
				"element": "C" 
			},
			{
				"x": -0.0618823117,
				"y": 1.9257217024,
				"z": 1.2579639453,
				"element": "C" 
			},
			{
				"x": 1.2058792192,
				"y": 2.2750961389,
				"z": 0.4205293956,
				"element": "C" 
			},
			{
				"x": 2.0795103443,
				"y": 1.0506952503,
				"z": 0.073653556,
				"element": "C" 
			},
			{
				"x": 1.2207314629,
				"y": -0.1949364264,
				"z": -0.1703359542,
				"element": "C" 
			},
			{
				"x": 0.4702150989,
				"y": -0.6220173168,
				"z": 1.1122052893,
				"element": "C" 
			},
			{
				"x": -0.7335664352,
				"y": -1.5207344582,
				"z": 0.7975449846,
				"element": "C" 
			},
			{
				"x": 0.1050554557,
				"y": 0.5886652265,
				"z": 2.011248019,
				"element": "C" 
			},
			{
				"x": 1.1661714353,
				"y": 0.6969273868,
				"z": 2.9721538685,
				"element": "O" 
			},
			{
				"x": -1.5115848609,
				"y": 2.9740985065,
				"z": 0.0187248127,
				"element": "H" 
			},
			{
				"x": -2.2292184362,
				"y": 1.703222231,
				"z": 1.0176987031,
				"element": "H" 
			},
			{
				"x": -1.3099177715,
				"y": 1.2832865588,
				"z": -0.4345223017,
				"element": "H" 
			},
			{
				"x": -0.1819982445,
				"y": 2.6964430035,
				"z": 2.0352003551,
				"element": "H" 
			},
			{
				"x": 0.8840669738,
				"y": 2.7660520309,
				"z": -0.5064390125,
				"element": "H" 
			},
			{
				"x": 1.8164640537,
				"y": 3.0108654333,
				"z": 0.9545676788,
				"element": "H" 
			},
			{
				"x": 2.7646114036,
				"y": 0.8458227887,
				"z": 0.9030135808,
				"element": "H" 
			},
			{
				"x": 2.695262608,
				"y": 1.2741574152,
				"z": -0.8052670817,
				"element": "H" 
			},
			{
				"x": 0.5032902571,
				"y": 0.0082896529,
				"z": -0.9779225977,
				"element": "H" 
			},
			{
				"x": 1.8389183435,
				"y": -1.0298932318,
				"z": -0.5211780447,
				"element": "H" 
			},
			{
				"x": 1.1670694064,
				"y": -1.2060059859,
				"z": 1.7255870374,
				"element": "H" 
			},
			{
				"x": -0.4224338337,
				"y": -2.3869961164,
				"z": 0.203056277,
				"element": "H" 
			},
			{
				"x": -1.5018380404,
				"y": -0.9902931842,
				"z": 0.2246321053,
				"element": "H" 
			},
			{
				"x": -1.200956616,
				"y": -1.8969447165,
				"z": 1.7142468762,
				"element": "H" 
			},
			{
				"x": -0.8384867356,
				"y": 0.3664143567,
				"z": 2.5379367326,
				"element": "H" 
			},
			{
				"x": 0.9922459639,
				"y": 1.4770948664,
				"z": 3.5156703254,
				"element": "H" 
			}
		],
		 "valence_orbital": [ 
			{
				"type": "occ",
				"energy": -0.31771,
				"method": "rhf"
			},
			{
				"type": "occ",
				"energy": -0.30701,
				"method": "rhf"
			},
			{
				"type": "occ",
				"energy": -0.29969,
				"method": "rhf"
			},
			{
				"type": "occ",
				"energy": -0.28318,
				"method": "rhf"
			},
			{
				"type": "occ",
				"energy": -0.25353,
				"method": "rhf"
			},
			{
				"type": "unocc",
				"energy": 0.06994,
				"method": "rhf"
			},
			{
				"type": "unocc",
				"energy": 0.08642,
				"method": "rhf"
			},
			{
				"type": "unocc",
				"energy": 0.11294,
				"method": "rhf"
			},
			{
				"type": "unocc",
				"energy": 0.12527,
				"method": "rhf"
			},
			{
				"type": "unocc",
				"energy": 0.12903,
				"method": "rhf"
			}
		],
		"cosmo_sigma_profile": { 
			"-0.025": 0.0,
			"-0.024": 0.0,
			"-0.023": 0.0,
			"-0.022": 0.0,
			"-0.021": 0.0,
			"-0.02": 0.0,
			"-0.019": 0.0,
			"-0.018": 0.0,
			"-0.017": 0.0,
			"-0.016": 0.0,
			"-0.015": 0.0639175632742,
			"-0.014": 1.02570121865,
			"-0.013": 0.764361267456,
			"-0.012": 1.02799235283,
			"-0.011": 0.771948222523,
			"-0.01": 1.05800781147,
			"-0.009": 1.24685906344,
			"-0.008": 0.88968337185,
			"-0.007": 0.782544319336,
			"-0.006": 0.728879012449,
			"-0.005": 1.35624675297,
			"-0.004": 2.08172415931,
			"-0.003": 8.60910930234,
			"-0.002": 27.6860205929,
			"-0.001": 33.2236811475,
			"0.0": 35.1620693477,
			"0.001": 32.4704971532,
			"0.002": 15.5142392806,
			"0.003": 2.68019029768,
			"0.004": 1.81799495377,
			"0.005": 0.823597405953,
			"0.006": 1.26811194776,
			"0.007": 1.95921102915,
			"0.008": 1.39195268381,
			"0.009": 1.32962475923,
			"0.01": 1.66715136964,
			"0.011": 0.825999941772,
			"0.012": 1.4616664387,
			"0.013": 1.13623297329,
			"0.014": 1.26028664692,
			"0.015": 0.810083101506,
			"0.016": 0.0,
			"0.017": 0.0,
			"0.018": 0.0,
			"0.019": 0.0,
			"0.02": 0.0,
			"0.021": 0.0,
			"0.022": 0.0,
			"0.023": 0.0,
			"0.024": 0.0,
			"0.025": 0.0
		}
	}
}
