{
	 "smiles": "OC(=O)C=CC1=CC(Cl)=C2OCOC2=C1", 
	 "Tm": 533.15, 
	 "num_atms": 22, 
	 "gaussian": { 
		 "optdone": 1, 
		 "sigma_profile": "yes", 
		 "theory": "DFT", 
		 "functional": "B3LYP", 
		 "basiset": "6-31G**", 
		 "properties": { 
			 "R2extent": 5130.7555, 
			 "electric_dipole_moment_norm": 5.30236884986, 
			 "electric_quadrupole_moment_norm": 29.1415492829, 
			 "total_energy": -1146.33083467, 
			 "HOMO_LUMO_gap": 0.15247, 
			 "cosmo_polarized_energy": -18.48, 
			 "cosmo_cavitation_energy": 29.51, 
			 "cosmo_dispersion_energy": -22.06, 
			 "cosmo_repulsion_energy": 1.73, 
			 "cosmo_total_nonelectrostatic_energy": 9.18, 
			 "SMD_solvation_energy": 6.8 
		},
		"coords": [
			{
				"x": 4.4015447277,
				"y": -1.9913861807,
				"z": -1.4068710158,
				"element": "O" 
			},
			{
				"x": 3.7571976565,
				"y": -1.3650066103,
				"z": -2.4332973737,
				"element": "C" 
			},
			{
				"x": 4.2974892398,
				"y": -1.2548164365,
				"z": -3.5097695771,
				"element": "O" 
			},
			{
				"x": 2.4003596867,
				"y": -0.8256860227,
				"z": -2.1648585224,
				"element": "C" 
			},
			{
				"x": 1.9277902909,
				"y": -0.5019977781,
				"z": -0.9456699123,
				"element": "C" 
			},
			{
				"x": 0.628250096,
				"y": 0.0869874027,
				"z": -0.621082329,
				"element": "C" 
			},
			{
				"x": 0.3663790831,
				"y": 0.404034267,
				"z": 0.7214528272,
				"element": "C" 
			},
			{
				"x": -0.8528524142,
				"y": 0.971291094,
				"z": 1.1202839938,
				"element": "C" 
			},
			{
				"x": -1.1693099148,
				"y": 1.3590944853,
				"z": 2.7908108004,
				"element": "Cl" 
			},
			{
				"x": -1.8009362983,
				"y": 1.2133396434,
				"z": 0.1440801436,
				"element": "C" 
			},
			{
				"x": -3.049011019,
				"y": 1.7394405683,
				"z": 0.2725242597,
				"element": "O" 
			},
			{
				"x": -3.5860034375,
				"y": 1.8155467161,
				"z": -1.0591839611,
				"element": "C" 
			},
			{
				"x": -2.6374125719,
				"y": 1.2181326599,
				"z": -1.9504696025,
				"element": "O" 
			},
			{
				"x": -1.5417307022,
				"y": 0.8962960921,
				"z": -1.1928625852,
				"element": "C" 
			},
			{
				"x": -0.3574468906,
				"y": 0.3382333108,
				"z": -1.6110375111,
				"element": "C" 
			},
			{
				"x": 3.7795567822,
				"y": -2.1721473187,
				"z": -0.688804979,
				"element": "H" 
			},
			{
				"x": 1.8372249311,
				"y": -0.6221855487,
				"z": -3.0697353467,
				"element": "H" 
			},
			{
				"x": 2.5721224864,
				"y": -0.6566085578,
				"z": -0.0796527905,
				"element": "H" 
			},
			{
				"x": 1.1200198072,
				"y": 0.2141766631,
				"z": 1.4780699245,
				"element": "H" 
			},
			{
				"x": -3.7349814678,
				"y": 2.8680526573,
				"z": -1.3289929302,
				"element": "H" 
			},
			{
				"x": -4.5291052226,
				"y": 1.2610262236,
				"z": -1.0998881734,
				"element": "H" 
			},
			{
				"x": -0.1966448487,
				"y": 0.10238267,
				"z": -2.6554453392,
				"element": "H" 
			}
		],
		 "valence_orbital": [ 
			{
				"type": "occ",
				"energy": -0.31494,
				"method": "rhf"
			},
			{
				"type": "occ",
				"energy": -0.29167,
				"method": "rhf"
			},
			{
				"type": "occ",
				"energy": -0.26989,
				"method": "rhf"
			},
			{
				"type": "occ",
				"energy": -0.25852,
				"method": "rhf"
			},
			{
				"type": "occ",
				"energy": -0.22804,
				"method": "rhf"
			},
			{
				"type": "unocc",
				"energy": -0.07557,
				"method": "rhf"
			},
			{
				"type": "unocc",
				"energy": -0.02471,
				"method": "rhf"
			},
			{
				"type": "unocc",
				"energy": 0.01089,
				"method": "rhf"
			},
			{
				"type": "unocc",
				"energy": 0.01362,
				"method": "rhf"
			},
			{
				"type": "unocc",
				"energy": 0.0582,
				"method": "rhf"
			}
		],
		"cosmo_sigma_profile": { 
			"-0.025": 0.0,
			"-0.024": 0.0,
			"-0.023": 0.0,
			"-0.022": 0.0,
			"-0.021": 0.0,
			"-0.02": 0.0,
			"-0.019": 0.0,
			"-0.018": 1.13377185426,
			"-0.017": 0.742746947137,
			"-0.016": 0.723708761483,
			"-0.015": 0.988753952729,
			"-0.014": 1.00424526445,
			"-0.013": 1.00962265408,
			"-0.012": 1.88176024127,
			"-0.011": 0.807642761413,
			"-0.01": 2.17409451805,
			"-0.009": 7.0936511949,
			"-0.008": 12.4313528164,
			"-0.007": 11.7135420484,
			"-0.006": 9.37053096331,
			"-0.005": 7.83313353128,
			"-0.004": 6.96932598518,
			"-0.003": 10.0464240831,
			"-0.002": 13.5777103776,
			"-0.001": 13.404338526,
			"0.0": 16.9853049292,
			"0.001": 24.2781947514,
			"0.002": 21.6366976492,
			"0.003": 13.9924208363,
			"0.004": 13.306318156,
			"0.005": 6.19017961464,
			"0.006": 5.81092259544,
			"0.007": 4.89927284909,
			"0.008": 6.01316255871,
			"0.009": 3.73500230443,
			"0.01": 4.32364427106,
			"0.011": 5.59393949201,
			"0.012": 5.75004164108,
			"0.013": 3.72485487392,
			"0.014": 0.42884776247,
			"0.015": 0.0,
			"0.016": 0.0,
			"0.017": 0.0,
			"0.018": 0.0,
			"0.019": 0.0,
			"0.02": 0.0,
			"0.021": 0.0,
			"0.022": 0.0,
			"0.023": 0.0,
			"0.024": 0.0,
			"0.025": 0.0
		}
	}
}
