{
	 "smiles": "CSC1=NC2=C(S1)C(Cl)=NC=N2", 
	 "Tm": 423.15, 
	 "num_atms": 16, 
	 "gaussian": { 
		 "optdone": 1, 
		 "sigma_profile": "yes", 
		 "theory": "DFT", 
		 "functional": "B3LYP", 
		 "basiset": "6-31G**", 
		 "properties": { 
			 "R2extent": 3398.4689, 
			 "electric_dipole_moment_norm": 3.17549483545, 
			 "electric_quadrupole_moment_norm": 3.7175001466, 
			 "total_energy": -1651.86673548, 
			 "HOMO_LUMO_gap": 0.17869, 
			 "cosmo_polarized_energy": -8.58, 
			 "cosmo_cavitation_energy": 26.02, 
			 "cosmo_dispersion_energy": -20.62, 
			 "cosmo_repulsion_energy": 1.54, 
			 "cosmo_total_nonelectrostatic_energy": 6.95, 
			 "SMD_solvation_energy": -0.46 
		},
		"coords": [
			{
				"x": -1.5950182411,
				"y": -1.6561822508,
				"z": -2.977095061,
				"element": "C" 
			},
			{
				"x": -2.2154123154,
				"y": -1.4002949581,
				"z": -1.2769145532,
				"element": "S" 
			},
			{
				"x": -0.7607742923,
				"y": -0.7966167777,
				"z": -0.5132161429,
				"element": "C" 
			},
			{
				"x": 0.3777562896,
				"y": -0.6273981066,
				"z": -1.1123718362,
				"element": "N" 
			},
			{
				"x": 1.3199717454,
				"y": -0.1381110414,
				"z": -0.2304991379,
				"element": "C" 
			},
			{
				"x": 0.8530936245,
				"y": 0.0659518232,
				"z": 1.0936985597,
				"element": "C" 
			},
			{
				"x": -0.828578253,
				"y": -0.3749432266,
				"z": 1.2253255325,
				"element": "S" 
			},
			{
				"x": 1.7764948948,
				"y": 0.5587628996,
				"z": 2.0100419684,
				"element": "C" 
			},
			{
				"x": 1.3022628623,
				"y": 0.8462629111,
				"z": 3.6713233013,
				"element": "Cl" 
			},
			{
				"x": 3.0227346645,
				"y": 0.8225868423,
				"z": 1.664375466,
				"element": "N" 
			},
			{
				"x": 3.3601313085,
				"y": 0.5923453233,
				"z": 0.3812453203,
				"element": "C" 
			},
			{
				"x": 2.5813451856,
				"y": 0.1261489102,
				"z": -0.5912779541,
				"element": "N" 
			},
			{
				"x": -2.4453284981,
				"y": -2.0395548667,
				"z": -3.5440353681,
				"element": "H" 
			},
			{
				"x": -0.7808744453,
				"y": -2.38053917,
				"z": -2.975464074,
				"element": "H" 
			},
			{
				"x": -1.2513536829,
				"y": -0.7117220367,
				"z": -3.3983031556,
				"element": "H" 
			},
			{
				"x": 4.390749153,
				"y": 0.8164037248,
				"z": 0.1183671348,
				"element": "H" 
			}
		],
		 "valence_orbital": [ 
			{
				"type": "occ",
				"energy": -0.31896,
				"method": "rhf"
			},
			{
				"type": "occ",
				"energy": -0.30229,
				"method": "rhf"
			},
			{
				"type": "occ",
				"energy": -0.27777,
				"method": "rhf"
			},
			{
				"type": "occ",
				"energy": -0.27615,
				"method": "rhf"
			},
			{
				"type": "occ",
				"energy": -0.24977,
				"method": "rhf"
			},
			{
				"type": "unocc",
				"energy": -0.07108,
				"method": "rhf"
			},
			{
				"type": "unocc",
				"energy": -0.04348,
				"method": "rhf"
			},
			{
				"type": "unocc",
				"energy": -0.02706,
				"method": "rhf"
			},
			{
				"type": "unocc",
				"energy": 0.00345,
				"method": "rhf"
			},
			{
				"type": "unocc",
				"energy": 0.00839,
				"method": "rhf"
			}
		],
		"cosmo_sigma_profile": { 
			"-0.025": 0.0,
			"-0.024": 0.0,
			"-0.023": 0.0,
			"-0.022": 0.0,
			"-0.021": 0.0,
			"-0.02": 0.0,
			"-0.019": 0.0,
			"-0.018": 0.0,
			"-0.017": 0.0,
			"-0.016": 0.0,
			"-0.015": 0.0,
			"-0.014": 0.0,
			"-0.013": 0.0,
			"-0.012": 0.0,
			"-0.011": 0.0,
			"-0.01": 0.0,
			"-0.009": 1.16546740823,
			"-0.008": 4.20127514842,
			"-0.007": 4.94227972789,
			"-0.006": 7.93554448301,
			"-0.005": 11.7886275801,
			"-0.004": 15.5444045808,
			"-0.003": 23.9843543078,
			"-0.002": 22.6688439071,
			"-0.001": 21.9435713711,
			"0.0": 17.2924054678,
			"0.001": 17.1870656251,
			"0.002": 16.3933628302,
			"0.003": 12.4328100235,
			"0.004": 8.77903762838,
			"0.005": 6.84642170211,
			"0.006": 3.30211370043,
			"0.007": 2.46079236594,
			"0.008": 3.36853242333,
			"0.009": 2.75648267688,
			"0.01": 3.67405888613,
			"0.011": 2.99292535257,
			"0.012": 2.29957311628,
			"0.013": 2.13523827496,
			"0.014": 0.813138897368,
			"0.015": 0.062170463535,
			"0.016": 0.0,
			"0.017": 0.0,
			"0.018": 0.0,
			"0.019": 0.0,
			"0.02": 0.0,
			"0.021": 0.0,
			"0.022": 0.0,
			"0.023": 0.0,
			"0.024": 0.0,
			"0.025": 0.0
		}
	}
}
