{
	 "smiles": "COC1=C(C=CC(CCl)=C1)S(C)(=O)=O", 
	 "Tm": 380.15, 
	 "num_atms": 25, 
	 "gaussian": { 
		 "optdone": 1, 
		 "sigma_profile": "yes", 
		 "theory": "DFT", 
		 "functional": "B3LYP", 
		 "basiset": "6-31G**", 
		 "properties": { 
			 "R2extent": 4393.6836, 
			 "electric_dipole_moment_norm": 3.62266520672, 
			 "electric_quadrupole_moment_norm": 22.3569868784, 
			 "total_energy": -1433.55435907, 
			 "HOMO_LUMO_gap": 0.20082, 
			 "cosmo_polarized_energy": -21.03, 
			 "cosmo_cavitation_energy": 31.74, 
			 "cosmo_dispersion_energy": -23.0, 
			 "cosmo_repulsion_energy": 1.78, 
			 "cosmo_total_nonelectrostatic_energy": 10.51, 
			 "SMD_solvation_energy": 5.53 
		},
		"coords": [
			{
				"x": -0.3263994067,
				"y": -0.9233483861,
				"z": 2.8143127185,
				"element": "C" 
			},
			{
				"x": 0.5062869629,
				"y": -0.4080414444,
				"z": 1.7634415716,
				"element": "O" 
			},
			{
				"x": -0.0712651436,
				"y": -0.2934272968,
				"z": 0.5337667799,
				"element": "C" 
			},
			{
				"x": -0.3645659723,
				"y": 0.9824946256,
				"z": 0.0194391902,
				"element": "C" 
			},
			{
				"x": -0.8599859192,
				"y": 1.1119799995,
				"z": -1.2802041135,
				"element": "C" 
			},
			{
				"x": -1.0904105569,
				"y": -0.0204803446,
				"z": -2.0586315202,
				"element": "C" 
			},
			{
				"x": -0.8177135407,
				"y": -1.2963116654,
				"z": -1.5515298888,
				"element": "C" 
			},
			{
				"x": -1.0566768294,
				"y": -2.5172316291,
				"z": -2.3911005028,
				"element": "C" 
			},
			{
				"x": -2.7375652223,
				"y": -3.2045230847,
				"z": -2.1411303209,
				"element": "Cl" 
			},
			{
				"x": -0.3061797464,
				"y": -1.4205800169,
				"z": -0.2561307622,
				"element": "C" 
			},
			{
				"x": -0.0619818023,
				"y": 2.4001339402,
				"z": 1.1010728665,
				"element": "S" 
			},
			{
				"x": -0.801244406,
				"y": 3.8036770529,
				"z": 0.2304863649,
				"element": "C" 
			},
			{
				"x": -0.8571296147,
				"y": 2.2076050566,
				"z": 2.3255181781,
				"element": "O" 
			},
			{
				"x": 1.3823961383,
				"y": 2.6536248977,
				"z": 1.1799859473,
				"element": "O" 
			},
			{
				"x": -1.1116965205,
				"y": -0.2021487311,
				"z": 3.0569418525,
				"element": "H" 
			},
			{
				"x": -0.7658521215,
				"y": -1.888561118,
				"z": 2.5359211729,
				"element": "H" 
			},
			{
				"x": 0.3294749939,
				"y": -1.0570251506,
				"z": 3.6752818923,
				"element": "H" 
			},
			{
				"x": -1.0748020634,
				"y": 2.0888062983,
				"z": -1.6970957649,
				"element": "H" 
			},
			{
				"x": -1.4826491831,
				"y": 0.0900971431,
				"z": -3.0651450249,
				"element": "H" 
			},
			{
				"x": -0.9847163955,
				"y": -2.2985001526,
				"z": -3.4564511085,
				"element": "H" 
			},
			{
				"x": -0.3696584543,
				"y": -3.3253790942,
				"z": -2.140228635,
				"element": "H" 
			},
			{
				"x": -0.0633773153,
				"y": -2.3980428495,
				"z": 0.1502617077,
				"element": "H" 
			},
			{
				"x": -0.265206822,
				"y": 4.0060498073,
				"z": -0.6971642529,
				"element": "H" 
			},
			{
				"x": -1.8636418772,
				"y": 3.6266340803,
				"z": 0.0599684822,
				"element": "H" 
			},
			{
				"x": -0.6699391817,
				"y": 4.6383980627,
				"z": 0.9217131699,
				"element": "H" 
			}
		],
		 "valence_orbital": [ 
			{
				"type": "occ",
				"energy": -0.30024,
				"method": "rhf"
			},
			{
				"type": "occ",
				"energy": -0.29735,
				"method": "rhf"
			},
			{
				"type": "occ",
				"energy": -0.28107,
				"method": "rhf"
			},
			{
				"type": "occ",
				"energy": -0.27294,
				"method": "rhf"
			},
			{
				"type": "occ",
				"energy": -0.25629,
				"method": "rhf"
			},
			{
				"type": "unocc",
				"energy": -0.05547,
				"method": "rhf"
			},
			{
				"type": "unocc",
				"energy": -0.02822,
				"method": "rhf"
			},
			{
				"type": "unocc",
				"energy": 0.02373,
				"method": "rhf"
			},
			{
				"type": "unocc",
				"energy": 0.04797,
				"method": "rhf"
			},
			{
				"type": "unocc",
				"energy": 0.06304,
				"method": "rhf"
			}
		],
		"cosmo_sigma_profile": { 
			"-0.025": 0.0,
			"-0.024": 0.0,
			"-0.023": 0.0,
			"-0.022": 0.0,
			"-0.021": 0.0,
			"-0.02": 0.0,
			"-0.019": 0.0,
			"-0.018": 0.0,
			"-0.017": 0.0,
			"-0.016": 0.0,
			"-0.015": 0.0,
			"-0.014": 0.0,
			"-0.013": 0.0,
			"-0.012": 0.0,
			"-0.011": 0.0139160332177,
			"-0.01": 1.70853607882,
			"-0.009": 7.25452278664,
			"-0.008": 17.5303883948,
			"-0.007": 14.644960011,
			"-0.006": 16.7792023989,
			"-0.005": 18.0848882997,
			"-0.004": 17.101827946,
			"-0.003": 16.5932214079,
			"-0.002": 11.6188262102,
			"-0.001": 8.1742660995,
			"0.0": 10.4339442096,
			"0.001": 16.2790220132,
			"0.002": 14.4313043443,
			"0.003": 10.0633621842,
			"0.004": 9.17687904585,
			"0.005": 8.59618774039,
			"0.006": 13.3221919546,
			"0.007": 6.78413782426,
			"0.008": 3.17254822324,
			"0.009": 4.99271391328,
			"0.01": 6.45316434949,
			"0.011": 11.0897879544,
			"0.012": 8.95750171608,
			"0.013": 1.22117267643,
			"0.014": 0.0,
			"0.015": 0.0,
			"0.016": 0.0,
			"0.017": 0.0,
			"0.018": 0.0,
			"0.019": 0.0,
			"0.02": 0.0,
			"0.021": 0.0,
			"0.022": 0.0,
			"0.023": 0.0,
			"0.024": 0.0,
			"0.025": 0.0
		}
	}
}
