{
	 "smiles": "CC1=NC2=C(S1)C=C(I)C=C2", 
	 "Tm": 409.15, 
	 "num_atms": 17, 
	 "gaussian": { 
		 "optdone": 1, 
		 "sigma_profile": "no", 
		 "theory": "DFT", 
		 "functional": "B3LYP", 
		 "basiset": "6-31G**", 
		 "properties": { 
			 "R2extent": 2596.9069, 
			 "electric_dipole_moment_norm": 2.03219787914, 
			 "electric_quadrupole_moment_norm": 4.95761432445, 
			 "total_energy": -772.804946118, 
			 "HOMO_LUMO_gap": 0.18931, 
			 "cosmo_polarized_energy": -103191.69, 
			 "cosmo_cavitation_energy": 25.96, 
			 "cosmo_dispersion_energy": -21.32, 
			 "cosmo_repulsion_energy": 1.62, 
			 "cosmo_total_nonelectrostatic_energy": 6.26, 
			 "SMD_solvation_energy": 1.39 
		},
		"coords": [
			{
				"x": 1.6179983573,
				"y": 1.3359443587,
				"z": 2.7815844976,
				"element": "C" 
			},
			{
				"x": 0.5293700617,
				"y": 0.9619945891,
				"z": 1.8253422767,
				"element": "C" 
			},
			{
				"x": -0.1836652011,
				"y": 1.8111567415,
				"z": 1.1608202902,
				"element": "N" 
			},
			{
				"x": -1.1141298002,
				"y": 1.1733558405,
				"z": 0.3546735912,
				"element": "C" 
			},
			{
				"x": -1.1034197816,
				"y": -0.2412202582,
				"z": 0.4136070039,
				"element": "C" 
			},
			{
				"x": 0.1377227316,
				"y": -0.7583351589,
				"z": 1.5367402332,
				"element": "S" 
			},
			{
				"x": -1.9843446146,
				"y": -1.0165075548,
				"z": -0.3438404061,
				"element": "C" 
			},
			{
				"x": -2.8827737546,
				"y": -0.3416942841,
				"z": -1.1674700536,
				"element": "C" 
			},
			{
				"x": -4.2441746014,
				"y": -1.4685369013,
				"z": -2.3409563252,
				"element": "I" 
			},
			{
				"x": -2.9147401442,
				"y": 1.0614253865,
				"z": -1.244830386,
				"element": "C" 
			},
			{
				"x": -2.0314478356,
				"y": 1.8191251246,
				"z": -0.4846697411,
				"element": "C" 
			},
			{
				"x": 2.5809903317,
				"y": 0.9178188738,
				"z": 2.4697024758,
				"element": "H" 
			},
			{
				"x": 1.6963960607,
				"y": 2.423893685,
				"z": 2.8134650853,
				"element": "H" 
			},
			{
				"x": 1.4058301777,
				"y": 0.9638348864,
				"z": 3.7895395103,
				"element": "H" 
			},
			{
				"x": -1.9711620082,
				"y": -2.0987544429,
				"z": -0.2944003473,
				"element": "H" 
			},
			{
				"x": -3.6277327785,
				"y": 1.5522541968,
				"z": -1.8968758433,
				"element": "H" 
			},
			{
				"x": -2.0407172009,
				"y": 2.9030449173,
				"z": -0.5307318617,
				"element": "H" 
			}
		],
		 "valence_orbital": [ 
			{
				"type": "occ",
				"energy": -0.28442,
				"method": "rhf"
			},
			{
				"type": "occ",
				"energy": -0.2827,
				"method": "rhf"
			},
			{
				"type": "occ",
				"energy": -0.27024,
				"method": "rhf"
			},
			{
				"type": "occ",
				"energy": -0.24639,
				"method": "rhf"
			},
			{
				"type": "occ",
				"energy": -0.23327,
				"method": "rhf"
			},
			{
				"type": "unocc",
				"energy": -0.04396,
				"method": "rhf"
			},
			{
				"type": "unocc",
				"energy": -0.04275,
				"method": "rhf"
			},
			{
				"type": "unocc",
				"energy": -0.01853,
				"method": "rhf"
			},
			{
				"type": "unocc",
				"energy": 0.00489,
				"method": "rhf"
			},
			{
				"type": "unocc",
				"energy": 0.02072,
				"method": "rhf"
			}
		],
		"cosmo_sigma_profile": { 
			"0.0": 0.0,
			"0.0": 0.0,
			"0.0": 0.0,
			"0.0": 0.0,
			"0.0": 0.0,
			"0.0": 0.0,
			"0.0": 0.0,
			"0.0": 0.0,
			"0.0": 0.0,
			"0.0": 0.0,
			"0.0": 0.0,
			"0.0": 0.0,
			"0.0": 0.0,
			"0.0": 0.0,
			"0.0": 0.0,
			"0.0": 0.0,
			"0.0": 0.0,
			"0.0": 0.0,
			"0.0": 0.0,
			"0.0": 0.0,
			"0.0": 0.0,
			"0.0": 0.0,
			"0.0": 0.0,
			"0.0": 0.0,
			"0.0": 0.0,
			"0.0": 0.0,
			"0.0": 0.0,
			"0.0": 0.0,
			"0.0": 0.0,
			"0.0": 0.0,
			"0.0": 0.0,
			"0.0": 0.0,
			"0.0": 0.0,
			"0.0": 0.0,
			"0.0": 0.0,
			"0.0": 0.0,
			"0.0": 0.0,
			"0.0": 0.0,
			"0.0": 0.0,
			"0.0": 0.0,
			"0.0": 0.0,
			"0.0": 0.0,
			"0.0": 0.0,
			"0.0": 0.0,
			"0.0": 0.0,
			"0.0": 0.0,
			"0.0": 0.0,
			"0.0": 0.0,
			"0.0": 0.0,
			"0.0": 0.0,
			"0.0": 0.0
		}
	}
}
