{
	 "smiles": "CC(C)(C)CC(C)(C)NC1=NC(=NC(=N1)N1CCOCC1)N1CCOCC1", 
	 "Tm": 432.0, 
	 "num_atms": 61, 
	 "gaussian": { 
		 "optdone": 1, 
		 "sigma_profile": "yes", 
		 "theory": "DFT", 
		 "functional": "B3LYP", 
		 "basiset": "6-31G**", 
		 "properties": { 
			 "R2extent": 14095.0497, 
			 "electric_dipole_moment_norm": 1.65279413721, 
			 "electric_quadrupole_moment_norm": 9.15613337168, 
			 "total_energy": -1223.49384402, 
			 "HOMO_LUMO_gap": 0.23156, 
			 "cosmo_polarized_energy": -13.58, 
			 "cosmo_cavitation_energy": 57.06, 
			 "cosmo_dispersion_energy": -39.17, 
			 "cosmo_repulsion_energy": 2.98, 
			 "cosmo_total_nonelectrostatic_energy": 20.88, 
			 "SMD_solvation_energy": 6.01 
		},
		"coords": [
			{
				"x": -1.0821773489,
				"y": -3.1747462243,
				"z": 5.3620107275,
				"element": "C" 
			},
			{
				"x": -1.5093309967,
				"y": -2.89065775,
				"z": 3.9030075402,
				"element": "C" 
			},
			{
				"x": -2.0666296915,
				"y": -1.4548167035,
				"z": 3.8369505599,
				"element": "C" 
			},
			{
				"x": -2.6313865204,
				"y": -3.890858119,
				"z": 3.549004147,
				"element": "C" 
			},
			{
				"x": -0.2302896718,
				"y": -3.1036317435,
				"z": 3.0319657753,
				"element": "C" 
			},
			{
				"x": -0.1028726927,
				"y": -2.6938267264,
				"z": 1.5333989814,
				"element": "C" 
			},
			{
				"x": 1.2254568695,
				"y": -3.2973512736,
				"z": 1.0196386325,
				"element": "C" 
			},
			{
				"x": -1.2607220269,
				"y": -3.2028495567,
				"z": 0.6540311806,
				"element": "C" 
			},
			{
				"x": -0.0229396141,
				"y": -1.219674955,
				"z": 1.4872303707,
				"element": "N" 
			},
			{
				"x": 0.1646826187,
				"y": -0.3908688529,
				"z": 0.4246381779,
				"element": "C" 
			},
			{
				"x": 0.2721595975,
				"y": 0.9153621531,
				"z": 0.749053385,
				"element": "N" 
			},
			{
				"x": 0.4550207611,
				"y": 1.7322148632,
				"z": -0.300523255,
				"element": "C" 
			},
			{
				"x": 0.5352907296,
				"y": 1.3521388002,
				"z": -1.591354074,
				"element": "N" 
			},
			{
				"x": 0.3995645455,
				"y": 0.0285354574,
				"z": -1.782851774,
				"element": "C" 
			},
			{
				"x": 0.2141361678,
				"y": -0.8972720119,
				"z": -0.8193897837,
				"element": "N" 
			},
			{
				"x": 0.4596042205,
				"y": -0.4213647167,
				"z": -3.0699419509,
				"element": "N" 
			},
			{
				"x": 0.6094567073,
				"y": 0.5009058076,
				"z": -4.1951090244,
				"element": "C" 
			},
			{
				"x": -0.049039478,
				"y": -0.0997863378,
				"z": -5.4329831944,
				"element": "C" 
			},
			{
				"x": 0.4954646481,
				"y": -1.3641987031,
				"z": -5.8064370889,
				"element": "O" 
			},
			{
				"x": 1.0535146347,
				"y": -2.1078743909,
				"z": -4.7266745749,
				"element": "C" 
			},
			{
				"x": 0.3635646097,
				"y": -1.8449753376,
				"z": -3.3915561853,
				"element": "C" 
			},
			{
				"x": 0.5745622333,
				"y": 3.0679354852,
				"z": -0.046266812,
				"element": "N" 
			},
			{
				"x": 0.5771916347,
				"y": 3.5939613183,
				"z": 1.3172046344,
				"element": "C" 
			},
			{
				"x": 1.5233208867,
				"y": 4.7877647973,
				"z": 1.3997247126,
				"element": "C" 
			},
			{
				"x": 1.1896314103,
				"y": 5.838981872,
				"z": 0.4922181345,
				"element": "O" 
			},
			{
				"x": 0.4190246665,
				"y": 5.4272924646,
				"z": -0.6317995921,
				"element": "C" 
			},
			{
				"x": 0.7780923219,
				"y": 4.0305487218,
				"z": -1.1291971151,
				"element": "C" 
			},
			{
				"x": -0.6798361794,
				"y": -4.1886924975,
				"z": 5.4691146556,
				"element": "H" 
			},
			{
				"x": -0.3106649137,
				"y": -2.4721485595,
				"z": 5.6970310396,
				"element": "H" 
			},
			{
				"x": -1.9365600666,
				"y": -3.0821296513,
				"z": 6.041569851,
				"element": "H" 
			},
			{
				"x": -2.3919499865,
				"y": -1.1798871195,
				"z": 2.8303427145,
				"element": "H" 
			},
			{
				"x": -2.9287748284,
				"y": -1.3562756609,
				"z": 4.5064966465,
				"element": "H" 
			},
			{
				"x": -1.323354856,
				"y": -0.7173204935,
				"z": 4.1648239399,
				"element": "H" 
			},
			{
				"x": -3.0692512937,
				"y": -3.7046512698,
				"z": 2.5669392852,
				"element": "H" 
			},
			{
				"x": -2.2589828898,
				"y": -4.9217153084,
				"z": 3.5611556451,
				"element": "H" 
			},
			{
				"x": -3.4399351946,
				"y": -3.8238417289,
				"z": 4.2858739749,
				"element": "H" 
			},
			{
				"x": 0.6042456187,
				"y": -2.6057974358,
				"z": 3.5469916374,
				"element": "H" 
			},
			{
				"x": 0.0039677243,
				"y": -4.1743664433,
				"z": 3.0769605826,
				"element": "H" 
			},
			{
				"x": 1.1705471862,
				"y": -4.3912057219,
				"z": 1.0062536073,
				"element": "H" 
			},
			{
				"x": 2.0598578324,
				"y": -3.0034251581,
				"z": 1.6650014199,
				"element": "H" 
			},
			{
				"x": 1.4300335719,
				"y": -2.9451067416,
				"z": 0.007273288,
				"element": "H" 
			},
			{
				"x": -1.0456843037,
				"y": -2.9941467129,
				"z": -0.3946613297,
				"element": "H" 
			},
			{
				"x": -1.3905754078,
				"y": -4.282132756,
				"z": 0.7824151944,
				"element": "H" 
			},
			{
				"x": -2.2001062507,
				"y": -2.7060468366,
				"z": 0.9059998948,
				"element": "H" 
			},
			{
				"x": 0.0012112883,
				"y": -0.7249773456,
				"z": 2.3653665311,
				"element": "H" 
			},
			{
				"x": 0.1370041877,
				"y": 1.4510731488,
				"z": -3.9395460481,
				"element": "H" 
			},
			{
				"x": 1.6703488039,
				"y": 0.7111028771,
				"z": -4.3947467,
				"element": "H" 
			},
			{
				"x": 0.088791819,
				"y": 0.5714591803,
				"z": -6.2874921281,
				"element": "H" 
			},
			{
				"x": -1.1314095932,
				"y": -0.1965075818,
				"z": -5.2545040453,
				"element": "H" 
			},
			{
				"x": 0.9571370955,
				"y": -3.1664501649,
				"z": -4.9894415059,
				"element": "H" 
			},
			{
				"x": 2.1276286778,
				"y": -1.8847620783,
				"z": -4.6282127724,
				"element": "H" 
			},
			{
				"x": 0.8439737379,
				"y": -2.4263837319,
				"z": -2.6019773236,
				"element": "H" 
			},
			{
				"x": -0.6862789056,
				"y": -2.1692866452,
				"z": -3.4394465431,
				"element": "H" 
			},
			{
				"x": 0.9016356028,
				"y": 2.803481125,
				"z": 1.9956044497,
				"element": "H" 
			},
			{
				"x": -0.4352515785,
				"y": 3.8918807436,
				"z": 1.627130902,
				"element": "H" 
			},
			{
				"x": 2.5516709552,
				"y": 4.4462608668,
				"z": 1.2055635996,
				"element": "H" 
			},
			{
				"x": 1.4970878216,
				"y": 5.2123727674,
				"z": 2.4096941292,
				"element": "H" 
			},
			{
				"x": 0.6065757147,
				"y": 6.1596765163,
				"z": -1.4233516583,
				"element": "H" 
			},
			{
				"x": -0.6560099086,
				"y": 5.46320675,
				"z": -0.39358822,
				"element": "H" 
			},
			{
				"x": 0.146869733,
				"y": 3.7613220089,
				"z": -1.9800137909,
				"element": "H" 
			},
			{
				"x": 1.8191875635,
				"y": 4.0113333215,
				"z": -1.4820134578,
				"element": "H" 
			}
		],
		 "valence_orbital": [ 
			{
				"type": "occ",
				"energy": -0.24387,
				"method": "rhf"
			},
			{
				"type": "occ",
				"energy": -0.24089,
				"method": "rhf"
			},
			{
				"type": "occ",
				"energy": -0.2232,
				"method": "rhf"
			},
			{
				"type": "occ",
				"energy": -0.21595,
				"method": "rhf"
			},
			{
				"type": "occ",
				"energy": -0.21257,
				"method": "rhf"
			},
			{
				"type": "unocc",
				"energy": 0.01899,
				"method": "rhf"
			},
			{
				"type": "unocc",
				"energy": 0.02168,
				"method": "rhf"
			},
			{
				"type": "unocc",
				"energy": 0.06338,
				"method": "rhf"
			},
			{
				"type": "unocc",
				"energy": 0.08346,
				"method": "rhf"
			},
			{
				"type": "unocc",
				"energy": 0.09018,
				"method": "rhf"
			}
		],
		"cosmo_sigma_profile": { 
			"-0.025": 0.0,
			"-0.024": 0.0,
			"-0.023": 0.0,
			"-0.022": 0.0,
			"-0.021": 0.0,
			"-0.02": 0.0,
			"-0.019": 0.0,
			"-0.018": 0.0,
			"-0.017": 0.0,
			"-0.016": 0.0,
			"-0.015": 0.0,
			"-0.014": 0.0,
			"-0.013": 0.0,
			"-0.012": 0.0,
			"-0.011": 0.0,
			"-0.01": 0.315544425774,
			"-0.009": 1.00343312948,
			"-0.008": 0.917578637446,
			"-0.007": 1.42992018227,
			"-0.006": 3.17288546262,
			"-0.005": 18.7007315332,
			"-0.004": 48.8427125401,
			"-0.003": 55.1172996867,
			"-0.002": 60.0093928894,
			"-0.001": 42.0288156674,
			"0.0": 40.2703068575,
			"0.001": 45.7748340222,
			"0.002": 40.4663555029,
			"0.003": 18.2817129173,
			"0.004": 12.8645000283,
			"0.005": 10.5394643625,
			"0.006": 7.39345643401,
			"0.007": 7.56327239589,
			"0.008": 6.22658728625,
			"0.009": 4.66731144903,
			"0.01": 3.65869216725,
			"0.011": 4.29550657841,
			"0.012": 2.60152504331,
			"0.013": 4.45102995988,
			"0.014": 1.2359098868,
			"0.015": 0.0,
			"0.016": 0.0,
			"0.017": 0.0,
			"0.018": 0.0,
			"0.019": 0.0,
			"0.02": 0.0,
			"0.021": 0.0,
			"0.022": 0.0,
			"0.023": 0.0,
			"0.024": 0.0,
			"0.025": 0.0
		}
	}
}
