{
	 "smiles": "CCCCCCCCCCI", 
	 "Tm": 257.05, 
	 "num_atms": 32, 
	 "gaussian": { 
		 "optdone": 1, 
		 "sigma_profile": "no", 
		 "theory": "DFT", 
		 "functional": "B3LYP", 
		 "basiset": "6-31G**", 
		 "properties": { 
			 "R2extent": 3328.0872, 
			 "electric_dipole_moment_norm": 2.64916763343, 
			 "electric_quadrupole_moment_norm": 8.29135596389, 
			 "total_energy": -405.13857798, 
			 "HOMO_LUMO_gap": 0.21528, 
			 "cosmo_polarized_energy": -108936.38, 
			 "cosmo_cavitation_energy": 35.1, 
			 "cosmo_dispersion_energy": -25.4, 
			 "cosmo_repulsion_energy": 2.09, 
			 "cosmo_total_nonelectrostatic_energy": 11.78, 
			 "SMD_solvation_energy": 3.91 
		},
		"coords": [
			{
				"x": -2.8256239713,
				"y": 2.3895348603,
				"z": 0.4959886588,
				"element": "C" 
			},
			{
				"x": -3.1028560129,
				"y": 1.3051167521,
				"z": 1.54343852,
				"element": "C" 
			},
			{
				"x": -3.8336400521,
				"y": 0.0658095073,
				"z": 0.9983122653,
				"element": "C" 
			},
			{
				"x": -3.1139735539,
				"y": -0.7704629777,
				"z": -0.0780151599,
				"element": "C" 
			},
			{
				"x": -1.8262468187,
				"y": -1.4957416393,
				"z": 0.370548074,
				"element": "C" 
			},
			{
				"x": -0.5197404497,
				"y": -0.7041965547,
				"z": 0.1950572541,
				"element": "C" 
			},
			{
				"x": 0.7180053128,
				"y": -1.5135994028,
				"z": 0.6071906471,
				"element": "C" 
			},
			{
				"x": 2.0634936827,
				"y": -0.7682670932,
				"z": 0.5662009162,
				"element": "C" 
			},
			{
				"x": 2.5293317339,
				"y": -0.2891713071,
				"z": -0.8325664759,
				"element": "C" 
			},
			{
				"x": 2.078986672,
				"y": 1.1333338614,
				"z": -1.1450994406,
				"element": "C" 
			},
			{
				"x": 2.7343366284,
				"y": 1.8038158512,
				"z": -3.1280598802,
				"element": "I" 
			},
			{
				"x": -2.3612537657,
				"y": 3.2701896508,
				"z": 0.9520481792,
				"element": "H" 
			},
			{
				"x": -2.1539696866,
				"y": 2.0360270049,
				"z": -0.2932559655,
				"element": "H" 
			},
			{
				"x": -3.754057066,
				"y": 2.7168255743,
				"z": 0.0136322488,
				"element": "H" 
			},
			{
				"x": -3.7184693787,
				"y": 1.736358946,
				"z": 2.3436007033,
				"element": "H" 
			},
			{
				"x": -2.163441911,
				"y": 1.0056402623,
				"z": 2.0250094727,
				"element": "H" 
			},
			{
				"x": -4.7992373905,
				"y": 0.3911624022,
				"z": 0.5863370429,
				"element": "H" 
			},
			{
				"x": -4.0755115282,
				"y": -0.5959988202,
				"z": 1.8414620511,
				"element": "H" 
			},
			{
				"x": -2.8968523519,
				"y": -0.1506145509,
				"z": -0.9582398914,
				"element": "H" 
			},
			{
				"x": -3.8307220279,
				"y": -1.5255384528,
				"z": -0.4241804149,
				"element": "H" 
			},
			{
				"x": -1.7291325992,
				"y": -2.4269846297,
				"z": -0.2035437444,
				"element": "H" 
			},
			{
				"x": -1.9279380625,
				"y": -1.8048669322,
				"z": 1.4208432855,
				"element": "H" 
			},
			{
				"x": -0.5549732404,
				"y": 0.2253863178,
				"z": 0.776848476,
				"element": "H" 
			},
			{
				"x": -0.4367203376,
				"y": -0.4069189602,
				"z": -0.8591715019,
				"element": "H" 
			},
			{
				"x": 0.5680690234,
				"y": -1.8848335628,
				"z": 1.6303327826,
				"element": "H" 
			},
			{
				"x": 0.7886946414,
				"y": -2.4076196287,
				"z": -0.0285676481,
				"element": "H" 
			},
			{
				"x": 2.8316727472,
				"y": -1.4425208583,
				"z": 0.9635564097,
				"element": "H" 
			},
			{
				"x": 2.0340461039,
				"y": 0.0857291643,
				"z": 1.2577337131,
				"element": "H" 
			},
			{
				"x": 2.1618878293,
				"y": -0.9766281687,
				"z": -1.6031078034,
				"element": "H" 
			},
			{
				"x": 3.6223941182,
				"y": -0.3236023353,
				"z": -0.8847882734,
				"element": "H" 
			},
			{
				"x": 0.9979488798,
				"y": 1.2529447415,
				"z": -1.1660354252,
				"element": "H" 
			},
			{
				"x": 2.5097928318,
				"y": 1.8618909783,
				"z": -0.4583090756,
				"element": "H" 
			}
		],
		 "valence_orbital": [ 
			{
				"type": "occ",
				"energy": -0.3123,
				"method": "rhf"
			},
			{
				"type": "occ",
				"energy": -0.30738,
				"method": "rhf"
			},
			{
				"type": "occ",
				"energy": -0.30284,
				"method": "rhf"
			},
			{
				"type": "occ",
				"energy": -0.25439,
				"method": "rhf"
			},
			{
				"type": "occ",
				"energy": -0.25381,
				"method": "rhf"
			},
			{
				"type": "unocc",
				"energy": -0.03853,
				"method": "rhf"
			},
			{
				"type": "unocc",
				"energy": 0.03872,
				"method": "rhf"
			},
			{
				"type": "unocc",
				"energy": 0.04215,
				"method": "rhf"
			},
			{
				"type": "unocc",
				"energy": 0.05786,
				"method": "rhf"
			},
			{
				"type": "unocc",
				"energy": 0.08311,
				"method": "rhf"
			}
		],
		"cosmo_sigma_profile": { 
			"0.0": 0.0,
			"0.0": 0.0,
			"0.0": 0.0,
			"0.0": 0.0,
			"0.0": 0.0,
			"0.0": 0.0,
			"0.0": 0.0,
			"0.0": 0.0,
			"0.0": 0.0,
			"0.0": 0.0,
			"0.0": 0.0,
			"0.0": 0.0,
			"0.0": 0.0,
			"0.0": 0.0,
			"0.0": 0.0,
			"0.0": 0.0,
			"0.0": 0.0,
			"0.0": 0.0,
			"0.0": 0.0,
			"0.0": 0.0,
			"0.0": 0.0,
			"0.0": 0.0,
			"0.0": 0.0,
			"0.0": 0.0,
			"0.0": 0.0,
			"0.0": 0.0,
			"0.0": 0.0,
			"0.0": 0.0,
			"0.0": 0.0,
			"0.0": 0.0,
			"0.0": 0.0,
			"0.0": 0.0,
			"0.0": 0.0,
			"0.0": 0.0,
			"0.0": 0.0,
			"0.0": 0.0,
			"0.0": 0.0,
			"0.0": 0.0,
			"0.0": 0.0,
			"0.0": 0.0,
			"0.0": 0.0,
			"0.0": 0.0,
			"0.0": 0.0,
			"0.0": 0.0,
			"0.0": 0.0,
			"0.0": 0.0,
			"0.0": 0.0,
			"0.0": 0.0,
			"0.0": 0.0,
			"0.0": 0.0,
			"0.0": 0.0
		}
	}
}
