{
	 "smiles": "CC(C)CC1=CC(=CC2=CC=C(O2)C2=CC=C(Br)C=C2)C(=O)O1", 
	 "Tm": 381.15, 
	 "num_atms": 40, 
	 "gaussian": { 
		 "optdone": 1, 
		 "sigma_profile": "yes", 
		 "theory": "DFT", 
		 "functional": "B3LYP", 
		 "basiset": "6-31G**", 
		 "properties": { 
			 "R2extent": 23995.2962, 
			 "electric_dipole_moment_norm": 2.3217192186, 
			 "electric_quadrupole_moment_norm": 18.9813401819, 
			 "total_energy": -3531.339092, 
			 "HOMO_LUMO_gap": 0.10862, 
			 "cosmo_polarized_energy": -11.01, 
			 "cosmo_cavitation_energy": 47.32, 
			 "cosmo_dispersion_energy": -34.07, 
			 "cosmo_repulsion_energy": 2.57, 
			 "cosmo_total_nonelectrostatic_energy": 15.83, 
			 "SMD_solvation_energy": 7.86 
		},
		"coords": [
			{
				"x": 6.1192657292,
				"y": -1.2594363391,
				"z": 3.9276588493,
				"element": "C" 
			},
			{
				"x": 4.6474162549,
				"y": -1.3230710546,
				"z": 3.4989939438,
				"element": "C" 
			},
			{
				"x": 4.1397731413,
				"y": -2.7705017991,
				"z": 3.4658924752,
				"element": "C" 
			},
			{
				"x": 4.4620022775,
				"y": -0.6195163414,
				"z": 2.1291013591,
				"element": "C" 
			},
			{
				"x": 3.0439913155,
				"y": -0.4562464662,
				"z": 1.7099027587,
				"element": "C" 
			},
			{
				"x": 2.3316196688,
				"y": -0.9339819504,
				"z": 0.666964743,
				"element": "C" 
			},
			{
				"x": 0.9800947978,
				"y": -0.42801374,
				"z": 0.7792552779,
				"element": "C" 
			},
			{
				"x": -0.0633433483,
				"y": -0.6690239348,
				"z": -0.0731015489,
				"element": "C" 
			},
			{
				"x": -1.414114304,
				"y": -0.2212363371,
				"z": -0.0470034056,
				"element": "C" 
			},
			{
				"x": -2.2089898667,
				"y": 0.5764738424,
				"z": 0.7610706393,
				"element": "C" 
			},
			{
				"x": -3.4954007235,
				"y": 0.5944608533,
				"z": 0.1801380366,
				"element": "C" 
			},
			{
				"x": -3.4406468804,
				"y": -0.1888974783,
				"z": -0.9564811282,
				"element": "C" 
			},
			{
				"x": -2.183120699,
				"y": -0.6856273967,
				"z": -1.0996114212,
				"element": "O" 
			},
			{
				"x": -4.4249899818,
				"y": -0.553503099,
				"z": -1.9621725958,
				"element": "C" 
			},
			{
				"x": -4.0822489932,
				"y": -1.3917123074,
				"z": -3.0392062799,
				"element": "C" 
			},
			{
				"x": -5.0249032863,
				"y": -1.7403749879,
				"z": -4.0016190617,
				"element": "C" 
			},
			{
				"x": -6.3263693948,
				"y": -1.2510069674,
				"z": -3.8948397864,
				"element": "C" 
			},
			{
				"x": -7.6236629172,
				"y": -1.7255084119,
				"z": -5.2120846121,
				"element": "Br" 
			},
			{
				"x": -6.6935028719,
				"y": -0.4180043066,
				"z": -2.8369870787,
				"element": "C" 
			},
			{
				"x": -5.7457832144,
				"y": -0.0741817076,
				"z": -1.8794192595,
				"element": "C" 
			},
			{
				"x": 0.9776818286,
				"y": 0.3996344105,
				"z": 2.0100803372,
				"element": "C" 
			},
			{
				"x": 0.1116483286,
				"y": 1.0428304145,
				"z": 2.559294375,
				"element": "O" 
			},
			{
				"x": 2.2652946265,
				"y": 0.345726628,
				"z": 2.5359087231,
				"element": "O" 
			},
			{
				"x": 6.7610199935,
				"y": -1.7897042023,
				"z": 3.2131478109,
				"element": "H" 
			},
			{
				"x": 6.474728918,
				"y": -0.2253353034,
				"z": 3.9929819997,
				"element": "H" 
			},
			{
				"x": 6.2617801578,
				"y": -1.7250015452,
				"z": 4.9083775371,
				"element": "H" 
			},
			{
				"x": 4.0507149345,
				"y": -0.7647837303,
				"z": 4.2318228082,
				"element": "H" 
			},
			{
				"x": 4.7175695481,
				"y": -3.3713129845,
				"z": 2.7522442645,
				"element": "H" 
			},
			{
				"x": 4.237630514,
				"y": -3.2402897559,
				"z": 4.4500448577,
				"element": "H" 
			},
			{
				"x": 3.0872328815,
				"y": -2.8237764757,
				"z": 3.1713922248,
				"element": "H" 
			},
			{
				"x": 4.9904558388,
				"y": -1.1801539058,
				"z": 1.3486739791,
				"element": "H" 
			},
			{
				"x": 4.924992326,
				"y": 0.3756131341,
				"z": 2.1810391628,
				"element": "H" 
			},
			{
				"x": 2.7095749622,
				"y": -1.5777858326,
				"z": -0.1151775068,
				"element": "H" 
			},
			{
				"x": 0.1529839811,
				"y": -1.3112593932,
				"z": -0.9249573809,
				"element": "H" 
			},
			{
				"x": -1.8688021469,
				"y": 1.0714254943,
				"z": 1.6562644854,
				"element": "H" 
			},
			{
				"x": -4.3612527491,
				"y": 1.121460895,
				"z": 0.5535481746,
				"element": "H" 
			},
			{
				"x": -3.0693300877,
				"y": -1.7699878102,
				"z": -3.1184271194,
				"element": "H" 
			},
			{
				"x": -4.752130037,
				"y": -2.3866531284,
				"z": -4.828069681,
				"element": "H" 
			},
			{
				"x": -7.7082398084,
				"y": -0.0438362941,
				"z": -2.7647960701,
				"element": "H" 
			},
			{
				"x": -6.0379407138,
				"y": 0.5741993153,
				"z": -1.0595448866,
				"element": "H" 
			}
		],
		 "valence_orbital": [ 
			{
				"type": "occ",
				"energy": -0.27529,
				"method": "rhf"
			},
			{
				"type": "occ",
				"energy": -0.27376,
				"method": "rhf"
			},
			{
				"type": "occ",
				"energy": -0.27157,
				"method": "rhf"
			},
			{
				"type": "occ",
				"energy": -0.24084,
				"method": "rhf"
			},
			{
				"type": "occ",
				"energy": -0.19493,
				"method": "rhf"
			},
			{
				"type": "unocc",
				"energy": -0.08631,
				"method": "rhf"
			},
			{
				"type": "unocc",
				"energy": -0.0338,
				"method": "rhf"
			},
			{
				"type": "unocc",
				"energy": -0.02028,
				"method": "rhf"
			},
			{
				"type": "unocc",
				"energy": 0.00322,
				"method": "rhf"
			},
			{
				"type": "unocc",
				"energy": 0.03079,
				"method": "rhf"
			}
		],
		"cosmo_sigma_profile": { 
			"-0.025": 0.0,
			"-0.024": 0.0,
			"-0.023": 0.0,
			"-0.022": 0.0,
			"-0.021": 0.0,
			"-0.02": 0.0,
			"-0.019": 0.0,
			"-0.018": 0.0,
			"-0.017": 0.0,
			"-0.016": 0.0,
			"-0.015": 0.0,
			"-0.014": 0.0,
			"-0.013": 0.0,
			"-0.012": 0.0,
			"-0.011": 0.0,
			"-0.01": 0.0,
			"-0.009": 1.16516156738,
			"-0.008": 5.39611908546,
			"-0.007": 12.162393874,
			"-0.006": 11.5013272853,
			"-0.005": 14.1952972105,
			"-0.004": 17.2131604307,
			"-0.003": 28.2390459485,
			"-0.002": 35.1758582561,
			"-0.001": 34.5818553922,
			"0.0": 43.0252408333,
			"0.001": 51.2994979924,
			"0.002": 47.1109127331,
			"0.003": 34.9266454246,
			"0.004": 18.249252129,
			"0.005": 6.66746477516,
			"0.006": 2.90650936837,
			"0.007": 2.49732557922,
			"0.008": 2.94639836377,
			"0.009": 3.8932980719,
			"0.01": 2.76206063566,
			"0.011": 2.49176003412,
			"0.012": 2.15130679582,
			"0.013": 0.384365066425,
			"0.014": 0.0,
			"0.015": 0.0,
			"0.016": 0.0,
			"0.017": 0.0,
			"0.018": 0.0,
			"0.019": 0.0,
			"0.02": 0.0,
			"0.021": 0.0,
			"0.022": 0.0,
			"0.023": 0.0,
			"0.024": 0.0,
			"0.025": 0.0
		}
	}
}
