{
	 "smiles": "[O-][N+](=O)C1=CC=CC=C1C(=O)NC1=CC=CC=C1", 
	 "Tm": 427.0, 
	 "num_atms": 28, 
	 "gaussian": { 
		 "optdone": 1, 
		 "sigma_profile": "yes", 
		 "theory": "DFT", 
		 "functional": "B3LYP", 
		 "basiset": "6-31G**", 
		 "properties": { 
			 "R2extent": 4383.1771, 
			 "electric_dipole_moment_norm": 6.20881199909, 
			 "electric_quadrupole_moment_norm": 15.8379005061, 
			 "total_energy": -836.489774091, 
			 "HOMO_LUMO_gap": 0.14535, 
			 "cosmo_polarized_energy": -16.57, 
			 "cosmo_cavitation_energy": 33.34, 
			 "cosmo_dispersion_energy": -23.01, 
			 "cosmo_repulsion_energy": 1.79, 
			 "cosmo_total_nonelectrostatic_energy": 12.12, 
			 "SMD_solvation_energy": 8.2 
		},
		"coords": [
			{
				"x": 0.5665818579,
				"y": -2.5750382926,
				"z": 0.9302370719,
				"element": "O" 
			},
			{
				"x": 0.0214057567,
				"y": -2.1380384751,
				"z": 1.9455089687,
				"element": "N" 
			},
			{
				"x": -0.4718297222,
				"y": -2.8319269151,
				"z": 2.8306245847,
				"element": "O" 
			},
			{
				"x": -0.0817509161,
				"y": -0.677339825,
				"z": 2.0836470258,
				"element": "C" 
			},
			{
				"x": -1.1479538351,
				"y": -0.1796948283,
				"z": 2.8287641863,
				"element": "C" 
			},
			{
				"x": -1.3317596528,
				"y": 1.1984301549,
				"z": 2.9139552731,
				"element": "C" 
			},
			{
				"x": -0.4470310848,
				"y": 2.0565020215,
				"z": 2.2587826326,
				"element": "C" 
			},
			{
				"x": 0.624505124,
				"y": 1.5398761238,
				"z": 1.5288691842,
				"element": "C" 
			},
			{
				"x": 0.8287220148,
				"y": 0.1594566052,
				"z": 1.4257956345,
				"element": "C" 
			},
			{
				"x": 2.1297281384,
				"y": -0.3399832256,
				"z": 0.8324367252,
				"element": "C" 
			},
			{
				"x": 2.9716988663,
				"y": -0.8507782225,
				"z": 1.5544363037,
				"element": "O" 
			},
			{
				"x": 2.3825139025,
				"y": -0.0502653013,
				"z": -0.4859016306,
				"element": "N" 
			},
			{
				"x": 1.4810632897,
				"y": 0.329779156,
				"z": -1.5164410008,
				"element": "C" 
			},
			{
				"x": 0.2246502343,
				"y": -0.2753584027,
				"z": -1.6471295232,
				"element": "C" 
			},
			{
				"x": -0.6289815716,
				"y": 0.1221792583,
				"z": -2.6763029047,
				"element": "C" 
			},
			{
				"x": -0.2292460331,
				"y": 1.0927537093,
				"z": -3.5967627876,
				"element": "C" 
			},
			{
				"x": 1.0358993393,
				"y": 1.6729311295,
				"z": -3.4813192119,
				"element": "C" 
			},
			{
				"x": 1.8859599492,
				"y": 1.3019502641,
				"z": -2.4406533278,
				"element": "C" 
			},
			{
				"x": -1.8166131776,
				"y": -0.8778979048,
				"z": 3.317246189,
				"element": "H" 
			},
			{
				"x": -2.1645259687,
				"y": 1.5972372365,
				"z": 3.4840884554,
				"element": "H" 
			},
			{
				"x": -0.5849271405,
				"y": 3.131629823,
				"z": 2.3210700355,
				"element": "H" 
			},
			{
				"x": 1.3230372879,
				"y": 2.2112958637,
				"z": 1.0401319293,
				"element": "H" 
			},
			{
				"x": 3.3350384862,
				"y": -0.2700167853,
				"z": -0.7530455486,
				"element": "H" 
			},
			{
				"x": -0.0581251635,
				"y": -1.0685672576,
				"z": -0.9643635654,
				"element": "H" 
			},
			{
				"x": -1.6030846413,
				"y": -0.3488648368,
				"z": -2.771058903,
				"element": "H" 
			},
			{
				"x": -0.8938629806,
				"y": 1.3882413293,
				"z": -4.4029178708,
				"element": "H" 
			},
			{
				"x": 1.3596972881,
				"y": 2.4238911987,
				"z": -4.1960665007,
				"element": "H" 
			},
			{
				"x": 2.8628903525,
				"y": 1.7656163989,
				"z": -2.3342314248,
				"element": "H" 
			}
		],
		 "valence_orbital": [ 
			{
				"type": "occ",
				"energy": -0.2868,
				"method": "rhf"
			},
			{
				"type": "occ",
				"energy": -0.28002,
				"method": "rhf"
			},
			{
				"type": "occ",
				"energy": -0.26159,
				"method": "rhf"
			},
			{
				"type": "occ",
				"energy": -0.25771,
				"method": "rhf"
			},
			{
				"type": "occ",
				"energy": -0.23622,
				"method": "rhf"
			},
			{
				"type": "unocc",
				"energy": -0.09087,
				"method": "rhf"
			},
			{
				"type": "unocc",
				"energy": -0.03936,
				"method": "rhf"
			},
			{
				"type": "unocc",
				"energy": -0.02211,
				"method": "rhf"
			},
			{
				"type": "unocc",
				"energy": -0.01249,
				"method": "rhf"
			},
			{
				"type": "unocc",
				"energy": -0.0062,
				"method": "rhf"
			}
		],
		"cosmo_sigma_profile": { 
			"-0.025": 0.0,
			"-0.024": 0.0,
			"-0.023": 0.0,
			"-0.022": 0.0,
			"-0.021": 0.0,
			"-0.02": 0.0,
			"-0.019": 0.0,
			"-0.018": 0.0,
			"-0.017": 0.0,
			"-0.016": 0.0,
			"-0.015": 0.455154902282,
			"-0.014": 1.09037980223,
			"-0.013": 1.1195040249,
			"-0.012": 0.880200729191,
			"-0.011": 0.775366736899,
			"-0.01": 1.07729675291,
			"-0.009": 1.41036824028,
			"-0.008": 5.50753305122,
			"-0.007": 12.4089837391,
			"-0.006": 18.6473424823,
			"-0.005": 17.8086269498,
			"-0.004": 19.5307416558,
			"-0.003": 16.4032858973,
			"-0.002": 14.6501994812,
			"-0.001": 16.0073927926,
			"0.0": 18.9863620889,
			"0.001": 21.2586404527,
			"0.002": 19.0398910722,
			"0.003": 12.9347730433,
			"0.004": 12.6718508144,
			"0.005": 12.7312121134,
			"0.006": 7.30535989152,
			"0.007": 9.45930003523,
			"0.008": 7.33614558525,
			"0.009": 4.66514889562,
			"0.01": 2.90825753181,
			"0.011": 1.64816767222,
			"0.012": 4.23202127788,
			"0.013": 4.35879714975,
			"0.014": 0.451614736648,
			"0.015": 0.0,
			"0.016": 0.0,
			"0.017": 0.0,
			"0.018": 0.0,
			"0.019": 0.0,
			"0.02": 0.0,
			"0.021": 0.0,
			"0.022": 0.0,
			"0.023": 0.0,
			"0.024": 0.0,
			"0.025": 0.0
		}
	}
}
