{
	 "smiles": "CN(C)C=C1C(=O)CCCC1=O", 
	 "Tm": 385.15, 
	 "num_atms": 25, 
	 "gaussian": { 
		 "optdone": 1, 
		 "sigma_profile": "yes", 
		 "theory": "DFT", 
		 "functional": "B3LYP", 
		 "basiset": "6-31G**", 
		 "properties": { 
			 "R2extent": 2416.7207, 
			 "electric_dipole_moment_norm": 3.01774323626, 
			 "electric_quadrupole_moment_norm": 16.9598315522, 
			 "total_energy": -555.985629, 
			 "HOMO_LUMO_gap": 0.17263, 
			 "cosmo_polarized_energy": -14.24, 
			 "cosmo_cavitation_energy": 27.03, 
			 "cosmo_dispersion_energy": -19.93, 
			 "cosmo_repulsion_energy": 1.6, 
			 "cosmo_total_nonelectrostatic_energy": 8.71, 
			 "SMD_solvation_energy": 5.49 
		},
		"coords": [
			{
				"x": -1.7260748058,
				"y": -2.7550378375,
				"z": -1.151938845,
				"element": "C" 
			},
			{
				"x": -1.1394053602,
				"y": -1.9523875818,
				"z": -0.0813248363,
				"element": "N" 
			},
			{
				"x": -1.0154265964,
				"y": -2.6181383858,
				"z": 1.2151309613,
				"element": "C" 
			},
			{
				"x": -0.8110852414,
				"y": -0.6796404186,
				"z": -0.3132171223,
				"element": "C" 
			},
			{
				"x": -0.1048952409,
				"y": 0.2531291259,
				"z": 0.4453171255,
				"element": "C" 
			},
			{
				"x": 0.900887859,
				"y": -0.0755380325,
				"z": 1.4631118541,
				"element": "C" 
			},
			{
				"x": 1.3252245262,
				"y": -1.2164080172,
				"z": 1.6592586508,
				"element": "O" 
			},
			{
				"x": 1.5170426526,
				"y": 1.0805768985,
				"z": 2.2550099826,
				"element": "C" 
			},
			{
				"x": 0.7321368246,
				"y": 2.3894613442,
				"z": 2.1701907535,
				"element": "C" 
			},
			{
				"x": 0.4760873984,
				"y": 2.745547836,
				"z": 0.7039674527,
				"element": "C" 
			},
			{
				"x": -0.2713230013,
				"y": 1.6441636086,
				"z": -0.0400455113,
				"element": "C" 
			},
			{
				"x": -0.9777387773,
				"y": 1.929583773,
				"z": -1.0063730555,
				"element": "O" 
			},
			{
				"x": -2.7002460961,
				"y": -3.1513021531,
				"z": -0.8443227919,
				"element": "H" 
			},
			{
				"x": -1.0719692245,
				"y": -3.5992474012,
				"z": -1.3989575643,
				"element": "H" 
			},
			{
				"x": -1.8547583674,
				"y": -2.1439014264,
				"z": -2.0461227855,
				"element": "H" 
			},
			{
				"x": -0.0290477298,
				"y": -3.0634192157,
				"z": 1.3507536866,
				"element": "H" 
			},
			{
				"x": -1.795576601,
				"y": -3.3822235035,
				"z": 1.2772163321,
				"element": "H" 
			},
			{
				"x": -1.1650763638,
				"y": -1.8882070563,
				"z": 2.0108158507,
				"element": "H" 
			},
			{
				"x": -1.2146815957,
				"y": -0.2773161796,
				"z": -1.242125841,
				"element": "H" 
			},
			{
				"x": 1.6396623732,
				"y": 0.7309736289,
				"z": 3.2852745226,
				"element": "H" 
			},
			{
				"x": 2.5337840802,
				"y": 1.2259714002,
				"z": 1.8625250066,
				"element": "H" 
			},
			{
				"x": -0.226397799,
				"y": 2.2844900288,
				"z": 2.6946764267,
				"element": "H" 
			},
			{
				"x": 1.2776720444,
				"y": 3.1959352743,
				"z": 2.6721358772,
				"element": "H" 
			},
			{
				"x": -0.0990017977,
				"y": 3.6678977719,
				"z": 0.5845874245,
				"element": "H" 
			},
			{
				"x": 1.4354068398,
				"y": 2.902336519,
				"z": 0.1882564459,
				"element": "H" 
			}
		],
		 "valence_orbital": [ 
			{
				"type": "occ",
				"energy": -0.32539,
				"method": "rhf"
			},
			{
				"type": "occ",
				"energy": -0.31263,
				"method": "rhf"
			},
			{
				"type": "occ",
				"energy": -0.23362,
				"method": "rhf"
			},
			{
				"type": "occ",
				"energy": -0.22221,
				"method": "rhf"
			},
			{
				"type": "occ",
				"energy": -0.21501,
				"method": "rhf"
			},
			{
				"type": "unocc",
				"energy": -0.04238,
				"method": "rhf"
			},
			{
				"type": "unocc",
				"energy": 0.0024,
				"method": "rhf"
			},
			{
				"type": "unocc",
				"energy": 0.07468,
				"method": "rhf"
			},
			{
				"type": "unocc",
				"energy": 0.09462,
				"method": "rhf"
			},
			{
				"type": "unocc",
				"energy": 0.10602,
				"method": "rhf"
			}
		],
		"cosmo_sigma_profile": { 
			"-0.025": 0.0,
			"-0.024": 0.0,
			"-0.023": 0.0,
			"-0.022": 0.0,
			"-0.021": 0.0,
			"-0.02": 0.0,
			"-0.019": 0.0,
			"-0.018": 0.0,
			"-0.017": 0.0,
			"-0.016": 0.0,
			"-0.015": 0.0,
			"-0.014": 0.0,
			"-0.013": 0.0,
			"-0.012": 0.0,
			"-0.011": 0.0,
			"-0.01": 0.0,
			"-0.009": 0.801624487588,
			"-0.008": 1.94522681111,
			"-0.007": 4.60338166327,
			"-0.006": 10.3186975519,
			"-0.005": 17.8238168451,
			"-0.004": 23.7397541984,
			"-0.003": 30.814552077,
			"-0.002": 27.6572881483,
			"-0.001": 19.4743586296,
			"0.0": 13.0910750477,
			"0.001": 5.76815389452,
			"0.002": 6.59427589844,
			"0.003": 5.77294156051,
			"0.004": 3.31783456448,
			"0.005": 3.47273689501,
			"0.006": 3.1242922944,
			"0.007": 3.47735257366,
			"0.008": 3.07387310182,
			"0.009": 3.11909044638,
			"0.01": 2.80120895309,
			"0.011": 3.09306539187,
			"0.012": 4.17678377337,
			"0.013": 6.26492394802,
			"0.014": 5.04030884755,
			"0.015": 2.48235157148,
			"0.016": 0.194878083485,
			"0.017": 0.0,
			"0.018": 0.0,
			"0.019": 0.0,
			"0.02": 0.0,
			"0.021": 0.0,
			"0.022": 0.0,
			"0.023": 0.0,
			"0.024": 0.0,
			"0.025": 0.0
		}
	}
}
