{
	 "smiles": "CC(C)CN1C(S)=NN=C1CCC(N)=O", 
	 "Tm": 290.15, 
	 "num_atms": 31, 
	 "gaussian": { 
		 "optdone": 1, 
		 "sigma_profile": "yes", 
		 "theory": "DFT", 
		 "functional": "B3LYP", 
		 "basiset": "6-31G**", 
		 "properties": { 
			 "R2extent": 4438.0178, 
			 "electric_dipole_moment_norm": 5.40014380364, 
			 "electric_quadrupole_moment_norm": 17.684359866, 
			 "total_energy": -1045.03342202, 
			 "HOMO_LUMO_gap": 0.22941, 
			 "cosmo_polarized_energy": -19.4, 
			 "cosmo_cavitation_energy": 34.84, 
			 "cosmo_dispersion_energy": -24.4, 
			 "cosmo_repulsion_energy": 1.9, 
			 "cosmo_total_nonelectrostatic_energy": 12.33, 
			 "SMD_solvation_energy": 4.43 
		},
		"coords": [
			{
				"x": -4.2722631679,
				"y": 0.8573427651,
				"z": -0.3905968986,
				"element": "C" 
			},
			{
				"x": -3.0313217911,
				"y": -0.0451534606,
				"z": -0.3294564581,
				"element": "C" 
			},
			{
				"x": -2.9648267568,
				"y": -0.8208281775,
				"z": 0.9918829781,
				"element": "C" 
			},
			{
				"x": -1.7732738533,
				"y": 0.8145995508,
				"z": -0.5700313149,
				"element": "C" 
			},
			{
				"x": -0.525597784,
				"y": 0.0530948883,
				"z": -0.6628129526,
				"element": "N" 
			},
			{
				"x": -0.0794196862,
				"y": -0.6891305478,
				"z": -1.7304159146,
				"element": "C" 
			},
			{
				"x": -0.9812715347,
				"y": -0.834239258,
				"z": -3.2446237704,
				"element": "S" 
			},
			{
				"x": 1.0855868182,
				"y": -1.2350003666,
				"z": -1.4795827481,
				"element": "N" 
			},
			{
				"x": 1.4368753483,
				"y": -0.8374895655,
				"z": -0.2037543864,
				"element": "N" 
			},
			{
				"x": 0.4787767488,
				"y": -0.0774521003,
				"z": 0.27629403,
				"element": "C" 
			},
			{
				"x": 0.4802720021,
				"y": 0.59927292,
				"z": 1.6161384025,
				"element": "C" 
			},
			{
				"x": 1.7466747925,
				"y": 0.3098753653,
				"z": 2.4463560289,
				"element": "C" 
			},
			{
				"x": 1.7319176247,
				"y": -1.0875714364,
				"z": 3.0783657385,
				"element": "C" 
			},
			{
				"x": 2.3714507449,
				"y": -2.0526771657,
				"z": 2.3561629709,
				"element": "N" 
			},
			{
				"x": 1.1932849534,
				"y": -1.289599086,
				"z": 4.1600167434,
				"element": "O" 
			},
			{
				"x": -4.251633175,
				"y": 1.6115490501,
				"z": 0.4054006309,
				"element": "H" 
			},
			{
				"x": -4.3458447503,
				"y": 1.381713002,
				"z": -1.3494930967,
				"element": "H" 
			},
			{
				"x": -5.184595074,
				"y": 0.2675204228,
				"z": -0.2618670709,
				"element": "H" 
			},
			{
				"x": -3.0971456,
				"y": -0.7713422931,
				"z": -1.1507994914,
				"element": "H" 
			},
			{
				"x": -2.0879440146,
				"y": -1.4734356698,
				"z": 1.0390689624,
				"element": "H" 
			},
			{
				"x": -2.9294781328,
				"y": -0.1383748283,
				"z": 1.8497851159,
				"element": "H" 
			},
			{
				"x": -3.8511117129,
				"y": -1.4516753527,
				"z": 1.1106772843,
				"element": "H" 
			},
			{
				"x": -1.6539284249,
				"y": 1.5391892913,
				"z": 0.2408129812,
				"element": "H" 
			},
			{
				"x": -1.8825029365,
				"y": 1.3858159678,
				"z": -1.4986984909,
				"element": "H" 
			},
			{
				"x": 0.041840294,
				"y": -1.4449341534,
				"z": -3.8712901836,
				"element": "H" 
			},
			{
				"x": -0.4026283817,
				"y": 0.3032248877,
				"z": 2.1955520757,
				"element": "H" 
			},
			{
				"x": 0.3982970264,
				"y": 1.6837914608,
				"z": 1.4623323042,
				"element": "H" 
			},
			{
				"x": 1.7776809263,
				"y": 1.0167963202,
				"z": 3.2783587076,
				"element": "H" 
			},
			{
				"x": 2.6359512713,
				"y": 0.456743513,
				"z": 1.8275742033,
				"element": "H" 
			},
			{
				"x": 2.2468566369,
				"y": -3.0017885826,
				"z": 2.6800347018,
				"element": "H" 
			},
			{
				"x": 2.481921589,
				"y": -1.8977373612,
				"z": 1.3575089177,
				"element": "H" 
			}
		],
		 "valence_orbital": [ 
			{
				"type": "occ",
				"energy": -0.29458,
				"method": "rhf"
			},
			{
				"type": "occ",
				"energy": -0.27032,
				"method": "rhf"
			},
			{
				"type": "occ",
				"energy": -0.25218,
				"method": "rhf"
			},
			{
				"type": "occ",
				"energy": -0.2367,
				"method": "rhf"
			},
			{
				"type": "occ",
				"energy": -0.23192,
				"method": "rhf"
			},
			{
				"type": "unocc",
				"energy": -0.00251,
				"method": "rhf"
			},
			{
				"type": "unocc",
				"energy": 0.00644,
				"method": "rhf"
			},
			{
				"type": "unocc",
				"energy": 0.0294,
				"method": "rhf"
			},
			{
				"type": "unocc",
				"energy": 0.03846,
				"method": "rhf"
			},
			{
				"type": "unocc",
				"energy": 0.05174,
				"method": "rhf"
			}
		],
		"cosmo_sigma_profile": { 
			"-0.025": 0.0,
			"-0.024": 0.0,
			"-0.023": 0.0,
			"-0.022": 0.0,
			"-0.021": 0.0,
			"-0.02": 0.0,
			"-0.019": 0.0,
			"-0.018": 0.0,
			"-0.017": 0.0,
			"-0.016": 0.0,
			"-0.015": 0.0,
			"-0.014": 0.0558317737227,
			"-0.013": 0.815512159377,
			"-0.012": 2.55947435216,
			"-0.011": 2.24823042373,
			"-0.01": 2.33594174614,
			"-0.009": 2.5664397671,
			"-0.008": 3.75873369654,
			"-0.007": 7.22685117718,
			"-0.006": 10.8176247252,
			"-0.005": 16.8185888646,
			"-0.004": 23.5702915961,
			"-0.003": 29.9228617285,
			"-0.002": 31.1467054281,
			"-0.001": 23.493180721,
			"0.0": 20.9105946254,
			"0.001": 19.4694830177,
			"0.002": 11.0711469178,
			"0.003": 8.50493685547,
			"0.004": 6.07086023724,
			"0.005": 7.15683437303,
			"0.006": 5.41353063047,
			"0.007": 4.29164564858,
			"0.008": 4.36273260499,
			"0.009": 3.20880020292,
			"0.01": 3.48630681483,
			"0.011": 3.01000813465,
			"0.012": 4.18551352629,
			"0.013": 4.43863367411,
			"0.014": 6.95814634526,
			"0.015": 3.83475613045,
			"0.016": 1.30280592789,
			"0.017": 0.169624160449,
			"0.018": 0.0,
			"0.019": 0.0,
			"0.02": 0.0,
			"0.021": 0.0,
			"0.022": 0.0,
			"0.023": 0.0,
			"0.024": 0.0,
			"0.025": 0.0
		}
	}
}
