{
	 "smiles": "CC(=O)OC1OC(=O)C2=CC=CC=C12", 
	 "Tm": 344.15, 
	 "num_atms": 22, 
	 "gaussian": { 
		 "optdone": 1, 
		 "sigma_profile": "yes", 
		 "theory": "DFT", 
		 "functional": "B3LYP", 
		 "basiset": "6-31G**", 
		 "properties": { 
			 "R2extent": 2512.7615, 
			 "electric_dipole_moment_norm": 5.22982696941, 
			 "electric_quadrupole_moment_norm": 14.6198758647, 
			 "total_energy": -686.79927818, 
			 "HOMO_LUMO_gap": 0.20883, 
			 "cosmo_polarized_energy": -14.58, 
			 "cosmo_cavitation_energy": 27.07, 
			 "cosmo_dispersion_energy": -19.43, 
			 "cosmo_repulsion_energy": 1.55, 
			 "cosmo_total_nonelectrostatic_energy": 9.19, 
			 "SMD_solvation_energy": 6.6 
		},
		"coords": [
			{
				"x": 2.7098304274,
				"y": 0.2406001306,
				"z": -2.7197227524,
				"element": "C" 
			},
			{
				"x": 1.772260064,
				"y": 0.4064583574,
				"z": -1.5502155615,
				"element": "C" 
			},
			{
				"x": 2.0929490882,
				"y": 0.5721815803,
				"z": -0.4001824799,
				"element": "O" 
			},
			{
				"x": 0.4717133499,
				"y": 0.3516434865,
				"z": -1.9854723408,
				"element": "O" 
			},
			{
				"x": -0.5796047816,
				"y": 0.575412092,
				"z": -1.0501073797,
				"element": "C" 
			},
			{
				"x": -0.5203513132,
				"y": 1.89360126,
				"z": -0.515742068,
				"element": "O" 
			},
			{
				"x": -0.52878232,
				"y": 1.8732554511,
				"z": 0.8737916715,
				"element": "C" 
			},
			{
				"x": -0.4902212308,
				"y": 2.8798586292,
				"z": 1.5282957873,
				"element": "O" 
			},
			{
				"x": -0.6251067128,
				"y": 0.4563306728,
				"z": 1.2914950513,
				"element": "C" 
			},
			{
				"x": -0.6916482602,
				"y": -0.0887935824,
				"z": 2.5696494474,
				"element": "C" 
			},
			{
				"x": -0.7605524581,
				"y": -1.4796449877,
				"z": 2.6736222621,
				"element": "C" 
			},
			{
				"x": -0.758750856,
				"y": -2.2845689133,
				"z": 1.5251746554,
				"element": "C" 
			},
			{
				"x": -0.6915585358,
				"y": -1.7235074362,
				"z": 0.244587906,
				"element": "C" 
			},
			{
				"x": -0.6201202309,
				"y": -0.3393083996,
				"z": 0.1531572954,
				"element": "C" 
			},
			{
				"x": 3.7337069392,
				"y": 0.1754108017,
				"z": -2.3532918041,
				"element": "H" 
			},
			{
				"x": 2.6123488403,
				"y": 1.0993473691,
				"z": -3.3912096835,
				"element": "H" 
			},
			{
				"x": 2.4525263955,
				"y": -0.6541040141,
				"z": -3.2931815971,
				"element": "H" 
			},
			{
				"x": -1.4784118298,
				"y": 0.4986662598,
				"z": -1.6691241727,
				"element": "H" 
			},
			{
				"x": -0.6887362006,
				"y": 0.5528370699,
				"z": 3.4448374211,
				"element": "H" 
			},
			{
				"x": -0.8161024177,
				"y": -1.9465418117,
				"z": 3.6522642619,
				"element": "H" 
			},
			{
				"x": -0.8116131186,
				"y": -3.3640735379,
				"z": 1.6324745474,
				"element": "H" 
			},
			{
				"x": -0.6876748385,
				"y": -2.3540604774,
				"z": -0.6396004669,
				"element": "H" 
			}
		],
		 "valence_orbital": [ 
			{
				"type": "occ",
				"energy": -0.3108,
				"method": "rhf"
			},
			{
				"type": "occ",
				"energy": -0.28757,
				"method": "rhf"
			},
			{
				"type": "occ",
				"energy": -0.27618,
				"method": "rhf"
			},
			{
				"type": "occ",
				"energy": -0.27338,
				"method": "rhf"
			},
			{
				"type": "occ",
				"energy": -0.26334,
				"method": "rhf"
			},
			{
				"type": "unocc",
				"energy": -0.05451,
				"method": "rhf"
			},
			{
				"type": "unocc",
				"energy": -0.02883,
				"method": "rhf"
			},
			{
				"type": "unocc",
				"energy": -0.00241,
				"method": "rhf"
			},
			{
				"type": "unocc",
				"energy": 0.0499,
				"method": "rhf"
			},
			{
				"type": "unocc",
				"energy": 0.08685,
				"method": "rhf"
			}
		],
		"cosmo_sigma_profile": { 
			"-0.025": 0.0,
			"-0.024": 0.0,
			"-0.023": 0.0,
			"-0.022": 0.0,
			"-0.021": 0.0,
			"-0.02": 0.0,
			"-0.019": 0.0,
			"-0.018": 0.0,
			"-0.017": 0.0,
			"-0.016": 0.0,
			"-0.015": 0.0,
			"-0.014": 0.0,
			"-0.013": 0.0,
			"-0.012": 0.0,
			"-0.011": 0.0,
			"-0.01": 0.832547348764,
			"-0.009": 3.18987469145,
			"-0.008": 3.5134960166,
			"-0.007": 13.8461363614,
			"-0.006": 17.8067354442,
			"-0.005": 16.5101236135,
			"-0.004": 14.3379604443,
			"-0.003": 16.6265787872,
			"-0.002": 16.2479860675,
			"-0.001": 11.2784557142,
			"0.0": 10.7765910853,
			"0.001": 11.8457257635,
			"0.002": 13.6341859929,
			"0.003": 12.2994801053,
			"0.004": 6.75362684817,
			"0.005": 7.28536801312,
			"0.006": 5.11151659971,
			"0.007": 4.48908210209,
			"0.008": 6.5931648147,
			"0.009": 6.52286918335,
			"0.01": 6.08068891667,
			"0.011": 8.10430247868,
			"0.012": 3.14110858699,
			"0.013": 0.0442660774017,
			"0.014": 0.0,
			"0.015": 0.0,
			"0.016": 0.0,
			"0.017": 0.0,
			"0.018": 0.0,
			"0.019": 0.0,
			"0.02": 0.0,
			"0.021": 0.0,
			"0.022": 0.0,
			"0.023": 0.0,
			"0.024": 0.0,
			"0.025": 0.0
		}
	}
}
