{
	 "smiles": "NC1=CC(Cl)=C(Cl)C=C1[N+]([O-])=O", 
	 "Tm": 454.15, 
	 "num_atms": 16, 
	 "gaussian": { 
		 "optdone": 1, 
		 "sigma_profile": "yes", 
		 "theory": "DFT", 
		 "functional": "B3LYP", 
		 "basiset": "6-31G**", 
		 "properties": { 
			 "R2extent": 3363.0651, 
			 "electric_dipole_moment_norm": 4.05269913391, 
			 "electric_quadrupole_moment_norm": 15.8282269901, 
			 "total_energy": -1411.286746, 
			 "HOMO_LUMO_gap": 0.13828, 
			 "cosmo_polarized_energy": -11.32, 
			 "cosmo_cavitation_energy": 24.5, 
			 "cosmo_dispersion_energy": -18.77, 
			 "cosmo_repulsion_energy": 1.49, 
			 "cosmo_total_nonelectrostatic_energy": 7.22, 
			 "SMD_solvation_energy": 5.68 
		},
		"coords": [
			{
				"x": -1.7728126818,
				"y": -1.1725856805,
				"z": -1.4930885503,
				"element": "N" 
			},
			{
				"x": -0.5828693875,
				"y": -0.9657484054,
				"z": -0.8818817969,
				"element": "C" 
			},
			{
				"x": -0.4091113315,
				"y": -1.3641518839,
				"z": 0.4661276948,
				"element": "C" 
			},
			{
				"x": 0.7839587154,
				"y": -1.177261856,
				"z": 1.1395898802,
				"element": "C" 
			},
			{
				"x": 0.8907204607,
				"y": -1.7039677176,
				"z": 2.7958571421,
				"element": "Cl" 
			},
			{
				"x": 1.8880079877,
				"y": -0.5732483482,
				"z": 0.4968881045,
				"element": "C" 
			},
			{
				"x": 3.4068405585,
				"y": -0.3225631029,
				"z": 1.3168735598,
				"element": "Cl" 
			},
			{
				"x": 1.7472294282,
				"y": -0.1748037848,
				"z": -0.817708558,
				"element": "C" 
			},
			{
				"x": 0.542298923,
				"y": -0.359888671,
				"z": -1.5086829003,
				"element": "C" 
			},
			{
				"x": 0.5049336667,
				"y": 0.0953658201,
				"z": -2.8844935416,
				"element": "N" 
			},
			{
				"x": 1.5158669095,
				"y": 0.6100252697,
				"z": -3.3605364797,
				"element": "O" 
			},
			{
				"x": -0.5483679255,
				"y": -0.0515192084,
				"z": -3.5322677433,
				"element": "O" 
			},
			{
				"x": -1.8755682018,
				"y": -0.8810236522,
				"z": -2.4544285322,
				"element": "H" 
			},
			{
				"x": -2.5285330895,
				"y": -1.606794841,
				"z": -0.9908174597,
				"element": "H" 
			},
			{
				"x": -1.2391705512,
				"y": -1.8305401249,
				"z": 0.9854316296,
				"element": "H" 
			},
			{
				"x": 2.569176519,
				"y": 0.291306187,
				"z": -1.344662449,
				"element": "H" 
			}
		],
		 "valence_orbital": [ 
			{
				"type": "occ",
				"energy": -0.31409,
				"method": "rhf"
			},
			{
				"type": "occ",
				"energy": -0.31122,
				"method": "rhf"
			},
			{
				"type": "occ",
				"energy": -0.29829,
				"method": "rhf"
			},
			{
				"type": "occ",
				"energy": -0.2806,
				"method": "rhf"
			},
			{
				"type": "occ",
				"energy": -0.23491,
				"method": "rhf"
			},
			{
				"type": "unocc",
				"energy": -0.09663,
				"method": "rhf"
			},
			{
				"type": "unocc",
				"energy": -0.027,
				"method": "rhf"
			},
			{
				"type": "unocc",
				"energy": -0.01128,
				"method": "rhf"
			},
			{
				"type": "unocc",
				"energy": -0.0095,
				"method": "rhf"
			},
			{
				"type": "unocc",
				"energy": 0.04933,
				"method": "rhf"
			}
		],
		"cosmo_sigma_profile": { 
			"-0.025": 0.0,
			"-0.024": 0.0,
			"-0.023": 0.0,
			"-0.022": 0.0,
			"-0.021": 0.0,
			"-0.02": 0.0,
			"-0.019": 0.0,
			"-0.018": 0.0,
			"-0.017": 0.0,
			"-0.016": 0.281358866381,
			"-0.015": 1.86382528011,
			"-0.014": 1.32653078897,
			"-0.013": 1.74005465868,
			"-0.012": 1.75588173092,
			"-0.011": 2.11390039428,
			"-0.01": 2.70881333061,
			"-0.009": 2.90531781823,
			"-0.008": 2.29852038391,
			"-0.007": 4.26342988858,
			"-0.006": 3.91604371018,
			"-0.005": 5.33480624457,
			"-0.004": 7.95822016509,
			"-0.003": 9.09805994221,
			"-0.002": 12.8238864222,
			"-0.001": 23.6638421386,
			"0.0": 25.3825195342,
			"0.001": 16.1069598286,
			"0.002": 13.6845107427,
			"0.003": 19.8558468005,
			"0.004": 13.7861759622,
			"0.005": 5.49687533976,
			"0.006": 3.37192405651,
			"0.007": 4.43835498097,
			"0.008": 6.33876848081,
			"0.009": 3.9216540656,
			"0.01": 4.06017182168,
			"0.011": 1.02958477601,
			"0.012": 0.0,
			"0.013": 0.0,
			"0.014": 0.0,
			"0.015": 0.0,
			"0.016": 0.0,
			"0.017": 0.0,
			"0.018": 0.0,
			"0.019": 0.0,
			"0.02": 0.0,
			"0.021": 0.0,
			"0.022": 0.0,
			"0.023": 0.0,
			"0.024": 0.0,
			"0.025": 0.0
		}
	}
}
