{
	 "smiles": "NC1=CC=C(NC(=O)C2=C(I)C=CC=C2)C=C1", 
	 "Tm": 417.15, 
	 "num_atms": 28, 
	 "gaussian": { 
		 "optdone": 1, 
		 "sigma_profile": "yes", 
		 "theory": "DFT", 
		 "functional": "B3LYP", 
		 "basiset": "6-31G**", 
		 "properties": { 
			 "R2extent": 5130.3939, 
			 "electric_dipole_moment_norm": 5.08521781638, 
			 "electric_quadrupole_moment_norm": 19.1699490443, 
			 "total_energy": -698.133414269, 
			 "HOMO_LUMO_gap": 0.15921, 
			 "cosmo_polarized_energy": -17.95, 
			 "cosmo_cavitation_energy": 35.38, 
			 "cosmo_dispersion_energy": -25.41, 
			 "cosmo_repulsion_energy": 1.97, 
			 "cosmo_total_nonelectrostatic_energy": 11.93, 
			 "SMD_solvation_energy": 5.65 
		},
		"coords": [
			{
				"x": -2.7808619087,
				"y": -2.4497851373,
				"z": -0.0361681631,
				"element": "N" 
			},
			{
				"x": -2.1684179794,
				"y": -1.301056326,
				"z": 0.4702612719,
				"element": "C" 
			},
			{
				"x": -1.8214541372,
				"y": -1.207476358,
				"z": 1.8291401747,
				"element": "C" 
			},
			{
				"x": -1.250950116,
				"y": -0.0464558712,
				"z": 2.3379336661,
				"element": "C" 
			},
			{
				"x": -1.0282094897,
				"y": 1.0671149216,
				"z": 1.5176597318,
				"element": "C" 
			},
			{
				"x": -0.4902510028,
				"y": 2.2473396026,
				"z": 2.0985495326,
				"element": "N" 
			},
			{
				"x": 0.4341859604,
				"y": 3.1505349289,
				"z": 1.6360625379,
				"element": "C" 
			},
			{
				"x": 0.6709517527,
				"y": 4.182069699,
				"z": 2.2535151061,
				"element": "O" 
			},
			{
				"x": 1.1343411029,
				"y": 2.8764699238,
				"z": 0.3253379375,
				"element": "C" 
			},
			{
				"x": 2.1114068296,
				"y": 1.8916729707,
				"z": 0.1297582116,
				"element": "C" 
			},
			{
				"x": 2.7329909623,
				"y": 0.5989205979,
				"z": 1.6981635238,
				"element": "I" 
			},
			{
				"x": 2.7646291598,
				"y": 1.7639158148,
				"z": -1.1000166967,
				"element": "C" 
			},
			{
				"x": 2.448479898,
				"y": 2.6278993931,
				"z": -2.1477525453,
				"element": "C" 
			},
			{
				"x": 1.4995040384,
				"y": 3.6343844813,
				"z": -1.9618196082,
				"element": "C" 
			},
			{
				"x": 0.8626882046,
				"y": 3.7611399878,
				"z": -0.7309224854,
				"element": "C" 
			},
			{
				"x": -1.4019334869,
				"y": 0.9909263023,
				"z": 0.1707113376,
				"element": "C" 
			},
			{
				"x": -1.9453973988,
				"y": -0.1809131418,
				"z": -0.347554434,
				"element": "C" 
			},
			{
				"x": -2.5894081777,
				"y": -3.2983407162,
				"z": 0.4787662618,
				"element": "H" 
			},
			{
				"x": -2.6748556898,
				"y": -2.586621066,
				"z": -1.0320423715,
				"element": "H" 
			},
			{
				"x": -1.9929514374,
				"y": -2.0554018046,
				"z": 2.4873864661,
				"element": "H" 
			},
			{
				"x": -0.965926212,
				"y": -0.0021893321,
				"z": 3.385489758,
				"element": "H" 
			},
			{
				"x": -0.8237017877,
				"y": 2.4966104847,
				"z": 3.0223748865,
				"element": "H" 
			},
			{
				"x": 3.5217556985,
				"y": 0.9995767614,
				"z": -1.2339114564,
				"element": "H" 
			},
			{
				"x": 2.9572397886,
				"y": 2.5197473283,
				"z": -3.1011107517,
				"element": "H" 
			},
			{
				"x": 1.2644598371,
				"y": 4.3232498171,
				"z": -2.767392535,
				"element": "H" 
			},
			{
				"x": 0.1405385492,
				"y": 4.5549583805,
				"z": -0.5652005082,
				"element": "H" 
			},
			{
				"x": -1.2701295053,
				"y": 1.8488141785,
				"z": -0.4781662545,
				"element": "H" 
			},
			{
				"x": -2.2258234527,
				"y": -0.2199058211,
				"z": -1.3971525941,
				"element": "H" 
			}
		],
		 "valence_orbital": [ 
			{
				"type": "occ",
				"energy": -0.26173,
				"method": "rhf"
			},
			{
				"type": "occ",
				"energy": -0.25421,
				"method": "rhf"
			},
			{
				"type": "occ",
				"energy": -0.24686,
				"method": "rhf"
			},
			{
				"type": "occ",
				"energy": -0.23719,
				"method": "rhf"
			},
			{
				"type": "occ",
				"energy": -0.19704,
				"method": "rhf"
			},
			{
				"type": "unocc",
				"energy": -0.03783,
				"method": "rhf"
			},
			{
				"type": "unocc",
				"energy": -0.02763,
				"method": "rhf"
			},
			{
				"type": "unocc",
				"energy": -0.0201,
				"method": "rhf"
			},
			{
				"type": "unocc",
				"energy": -0.00438,
				"method": "rhf"
			},
			{
				"type": "unocc",
				"energy": 0.00346,
				"method": "rhf"
			}
		],
		"cosmo_sigma_profile": { 
			"-0.025": 0.0,
			"-0.024": 0.0,
			"-0.023": 0.0,
			"-0.022": 0.0,
			"-0.021": 0.0,
			"-0.02": 0.0,
			"-0.019": 0.0,
			"-0.018": 0.0,
			"-0.017": 0.0,
			"-0.016": 0.0,
			"-0.015": 0.12415994729,
			"-0.014": 0.730960568409,
			"-0.013": 1.36081734049,
			"-0.012": 3.24468958668,
			"-0.011": 4.32403745789,
			"-0.01": 3.46535918124,
			"-0.009": 4.02916712683,
			"-0.008": 4.16760817606,
			"-0.007": 11.8642953002,
			"-0.006": 18.1807548988,
			"-0.005": 18.3530164932,
			"-0.004": 19.1678936571,
			"-0.003": 14.2293000975,
			"-0.002": 13.1946892508,
			"-0.001": 14.603488393,
			"0.0": 14.8009627676,
			"0.001": 16.1506876331,
			"0.002": 21.8652409755,
			"0.003": 29.3531965567,
			"0.004": 21.7006841214,
			"0.005": 14.0353610248,
			"0.006": 12.3994965814,
			"0.007": 3.64165737498,
			"0.008": 1.78109279235,
			"0.009": 2.40223953315,
			"0.01": 2.51486469227,
			"0.011": 1.83606758609,
			"0.012": 3.2536356496,
			"0.013": 6.7825636913,
			"0.014": 3.16766239653,
			"0.015": 0.335570541644,
			"0.016": 0.0,
			"0.017": 0.0,
			"0.018": 0.0,
			"0.019": 0.0,
			"0.02": 0.0,
			"0.021": 0.0,
			"0.022": 0.0,
			"0.023": 0.0,
			"0.024": 0.0,
			"0.025": 0.0
		}
	}
}
