{
	 "smiles": "CCCCCCCCCCCCCCC=O", 
	 "Tm": 297.65, 
	 "num_atms": 46, 
	 "gaussian": { 
		 "optdone": 1, 
		 "sigma_profile": "yes", 
		 "theory": "DFT", 
		 "functional": "B3LYP", 
		 "basiset": "6-31G**", 
		 "properties": { 
			 "R2extent": 8782.9845, 
			 "electric_dipole_moment_norm": 2.60342625208, 
			 "electric_quadrupole_moment_norm": 25.2175845352, 
			 "total_energy": -664.928604323, 
			 "HOMO_LUMO_gap": 0.23258, 
			 "cosmo_polarized_energy": -6.57, 
			 "cosmo_cavitation_energy": 45.78, 
			 "cosmo_dispersion_energy": -30.19, 
			 "cosmo_repulsion_energy": 2.47, 
			 "cosmo_total_nonelectrostatic_energy": 18.05, 
			 "SMD_solvation_energy": 7.09 
		},
		"coords": [
			{
				"x": 1.3589859459,
				"y": 1.7969654972,
				"z": 1.9076094824,
				"element": "C" 
			},
			{
				"x": 2.4874052411,
				"y": 0.8221493665,
				"z": 2.263787089,
				"element": "C" 
			},
			{
				"x": 3.7651722852,
				"y": 0.9960031928,
				"z": 1.4248278045,
				"element": "C" 
			},
			{
				"x": 3.6586713773,
				"y": 0.7124982709,
				"z": -0.0864772171,
				"element": "C" 
			},
			{
				"x": 3.3527591995,
				"y": -0.7554892964,
				"z": -0.4667540389,
				"element": "C" 
			},
			{
				"x": 1.8686071084,
				"y": -1.1108194139,
				"z": -0.6824556712,
				"element": "C" 
			},
			{
				"x": 1.2671921334,
				"y": -0.516738006,
				"z": -1.9659146151,
				"element": "C" 
			},
			{
				"x": -0.1835836762,
				"y": -0.9411965412,
				"z": -2.2499970879,
				"element": "C" 
			},
			{
				"x": -1.2221824216,
				"y": -0.4006932581,
				"z": -1.2562420832,
				"element": "C" 
			},
			{
				"x": -2.6606432279,
				"y": -0.7936615616,
				"z": -1.6234707221,
				"element": "C" 
			},
			{
				"x": -3.7459827197,
				"y": -0.2091646203,
				"z": -0.7044895846,
				"element": "C" 
			},
			{
				"x": -3.7191046887,
				"y": -0.7331776287,
				"z": 0.7384600147,
				"element": "C" 
			},
			{
				"x": -4.865882973,
				"y": -0.1814366887,
				"z": 1.5943141677,
				"element": "C" 
			},
			{
				"x": -4.8454020802,
				"y": -0.7004516096,
				"z": 3.0321680915,
				"element": "C" 
			},
			{
				"x": -5.9629439586,
				"y": -0.1759163509,
				"z": 3.9035350474,
				"element": "C" 
			},
			{
				"x": -6.8244187831,
				"y": 0.5928454711,
				"z": 3.5359581668,
				"element": "O" 
			},
			{
				"x": 1.6945879808,
				"y": 2.8367142479,
				"z": 1.9986000284,
				"element": "H" 
			},
			{
				"x": 1.002190802,
				"y": 1.6556363873,
				"z": 0.8821597371,
				"element": "H" 
			},
			{
				"x": 0.499591359,
				"y": 1.6673053602,
				"z": 2.5740796155,
				"element": "H" 
			},
			{
				"x": 2.1245814814,
				"y": -0.2103377242,
				"z": 2.1827065311,
				"element": "H" 
			},
			{
				"x": 2.752379875,
				"y": 0.9601718142,
				"z": 3.3202212579,
				"element": "H" 
			},
			{
				"x": 4.1278922985,
				"y": 2.0250090951,
				"z": 1.5583112294,
				"element": "H" 
			},
			{
				"x": 4.5471195903,
				"y": 0.3456197193,
				"z": 1.8408360643,
				"element": "H" 
			},
			{
				"x": 4.6194851796,
				"y": 0.9960064321,
				"z": -0.5337227317,
				"element": "H" 
			},
			{
				"x": 2.9193497524,
				"y": 1.3822838277,
				"z": -0.5431542275,
				"element": "H" 
			},
			{
				"x": 3.8926904125,
				"y": -1.0052194718,
				"z": -1.3900216896,
				"element": "H" 
			},
			{
				"x": 3.7711632471,
				"y": -1.4143611516,
				"z": 0.3062864045,
				"element": "H" 
			},
			{
				"x": 1.2795305549,
				"y": -0.7978562538,
				"z": 0.187061417,
				"element": "H" 
			},
			{
				"x": 1.7752977746,
				"y": -2.2048103745,
				"z": -0.7327359498,
				"element": "H" 
			},
			{
				"x": 1.8948646622,
				"y": -0.8208109064,
				"z": -2.8149924392,
				"element": "H" 
			},
			{
				"x": 1.3175985242,
				"y": 0.5803937802,
				"z": -1.9331590663,
				"element": "H" 
			},
			{
				"x": -0.4572100591,
				"y": -0.6048101459,
				"z": -3.2594105788,
				"element": "H" 
			},
			{
				"x": -0.2413227486,
				"y": -2.039186633,
				"z": -2.2726926193,
				"element": "H" 
			},
			{
				"x": -0.9877456685,
				"y": -0.757908437,
				"z": -0.2463224442,
				"element": "H" 
			},
			{
				"x": -1.1473766218,
				"y": 0.6963023042,
				"z": -1.2176192975,
				"element": "H" 
			},
			{
				"x": -2.8612697936,
				"y": -0.4682602932,
				"z": -2.6532879301,
				"element": "H" 
			},
			{
				"x": -2.7457245946,
				"y": -1.8900292876,
				"z": -1.6325244152,
				"element": "H" 
			},
			{
				"x": -3.6599273712,
				"y": 0.8867610406,
				"z": -0.6925334127,
				"element": "H" 
			},
			{
				"x": -4.7307883084,
				"y": -0.4291887368,
				"z": -1.1382640179,
				"element": "H" 
			},
			{
				"x": -2.7613183304,
				"y": -0.4789442312,
				"z": 1.2117002891,
				"element": "H" 
			},
			{
				"x": -3.7683320702,
				"y": -1.831993551,
				"z": 0.7237481202,
				"element": "H" 
			},
			{
				"x": -5.8299597889,
				"y": -0.4354593834,
				"z": 1.1374739009,
				"element": "H" 
			},
			{
				"x": -4.8267579943,
				"y": 0.9144133111,
				"z": 1.6108746584,
				"element": "H" 
			},
			{
				"x": -3.8977858467,
				"y": -0.453912004,
				"z": 3.5368779161,
				"element": "H" 
			},
			{
				"x": -4.8975625991,
				"y": -1.8003135258,
				"z": 3.0649386495,
				"element": "H" 
			},
			{
				"x": -5.950490461,
				"y": -0.5530320318,
				"z": 4.9527061564,
				"element": "H" 
			}
		],
		 "valence_orbital": [ 
			{
				"type": "occ",
				"energy": -0.31155,
				"method": "rhf"
			},
			{
				"type": "occ",
				"energy": -0.30261,
				"method": "rhf"
			},
			{
				"type": "occ",
				"energy": -0.30055,
				"method": "rhf"
			},
			{
				"type": "occ",
				"energy": -0.29795,
				"method": "rhf"
			},
			{
				"type": "occ",
				"energy": -0.25097,
				"method": "rhf"
			},
			{
				"type": "unocc",
				"energy": -0.01839,
				"method": "rhf"
			},
			{
				"type": "unocc",
				"energy": 0.07171,
				"method": "rhf"
			},
			{
				"type": "unocc",
				"energy": 0.08768,
				"method": "rhf"
			},
			{
				"type": "unocc",
				"energy": 0.09521,
				"method": "rhf"
			},
			{
				"type": "unocc",
				"energy": 0.09952,
				"method": "rhf"
			}
		],
		"cosmo_sigma_profile": { 
			"-0.025": 0.0,
			"-0.024": 0.0,
			"-0.023": 0.0,
			"-0.022": 0.0,
			"-0.021": 0.0,
			"-0.02": 0.0,
			"-0.019": 0.0,
			"-0.018": 0.0,
			"-0.017": 0.0,
			"-0.016": 0.0,
			"-0.015": 0.0,
			"-0.014": 0.0,
			"-0.013": 0.0,
			"-0.012": 0.0,
			"-0.011": 0.0,
			"-0.01": 0.0,
			"-0.009": 0.0,
			"-0.008": 0.0,
			"-0.007": 0.0,
			"-0.006": 7.70127818384,
			"-0.005": 11.5901257713,
			"-0.004": 6.68342532098,
			"-0.003": 10.2730498574,
			"-0.002": 45.1235482085,
			"-0.001": 74.1034136497,
			"0.0": 78.823245543,
			"0.001": 63.2177601275,
			"0.002": 28.8985618963,
			"0.003": 2.2781189626,
			"0.004": 1.96871142277,
			"0.005": 1.19816651275,
			"0.006": 1.92943497669,
			"0.007": 1.55708749886,
			"0.008": 1.83433383869,
			"0.009": 1.92313940017,
			"0.01": 2.77964336389,
			"0.011": 4.28781502366,
			"0.012": 3.56504707525,
			"0.013": 1.05055293021,
			"0.014": 0.0,
			"0.015": 0.0,
			"0.016": 0.0,
			"0.017": 0.0,
			"0.018": 0.0,
			"0.019": 0.0,
			"0.02": 0.0,
			"0.021": 0.0,
			"0.022": 0.0,
			"0.023": 0.0,
			"0.024": 0.0,
			"0.025": 0.0
		}
	}
}
