{
	 "smiles": "CC1=CC=C(C=C1[N+]([O-])=O)[N+]([O-])=O", 
	 "Tm": 342.95, 
	 "num_atms": 19, 
	 "gaussian": { 
		 "optdone": 1, 
		 "sigma_profile": "yes", 
		 "theory": "DFT", 
		 "functional": "B3LYP", 
		 "basiset": "6-31G**", 
		 "properties": { 
			 "R2extent": 2799.1001, 
			 "electric_dipole_moment_norm": 4.82627218876, 
			 "electric_quadrupole_moment_norm": 10.9370560207, 
			 "total_energy": -680.557829955, 
			 "HOMO_LUMO_gap": 0.18862, 
			 "cosmo_polarized_energy": -11.4, 
			 "cosmo_cavitation_energy": 24.69, 
			 "cosmo_dispersion_energy": -18.12, 
			 "cosmo_repulsion_energy": 1.42, 
			 "cosmo_total_nonelectrostatic_energy": 7.99, 
			 "SMD_solvation_energy": 8.71 
		},
		"coords": [
			{
				"x": 0.3935481284,
				"y": -2.097507998,
				"z": 1.1827127922,
				"element": "C" 
			},
			{
				"x": 0.1053232492,
				"y": -0.8677643289,
				"z": 0.3602789083,
				"element": "C" 
			},
			{
				"x": 0.9441534341,
				"y": -0.5775546477,
				"z": -0.7306952359,
				"element": "C" 
			},
			{
				"x": 0.7590318023,
				"y": 0.5324702764,
				"z": -1.5456615511,
				"element": "C" 
			},
			{
				"x": -0.2945201396,
				"y": 1.398189,
				"z": -1.262161006,
				"element": "C" 
			},
			{
				"x": -1.1490849554,
				"y": 1.1753114481,
				"z": -0.1940425844,
				"element": "C" 
			},
			{
				"x": -0.9435548318,
				"y": 0.0468541344,
				"z": 0.5970809755,
				"element": "C" 
			},
			{
				"x": -1.9006916669,
				"y": -0.1331698802,
				"z": 1.7097034748,
				"element": "N" 
			},
			{
				"x": -1.9342261836,
				"y": -1.2260271551,
				"z": 2.2738382636,
				"element": "O" 
			},
			{
				"x": -2.6162565665,
				"y": 0.8225460969,
				"z": 2.0003872646,
				"element": "O" 
			},
			{
				"x": -0.507157608,
				"y": 2.5815583408,
				"z": -2.1125311711,
				"element": "N" 
			},
			{
				"x": 0.2754107843,
				"y": 2.7512636811,
				"z": -3.0459662692,
				"element": "O" 
			},
			{
				"x": -1.4496804008,
				"y": 3.3188350413,
				"z": -1.8345812255,
				"element": "O" 
			},
			{
				"x": 0.4621705697,
				"y": -1.8655943433,
				"z": 2.2480595061,
				"element": "H" 
			},
			{
				"x": 1.3332209085,
				"y": -2.5478505753,
				"z": 0.8544691853,
				"element": "H" 
			},
			{
				"x": -0.4078020465,
				"y": -2.8341335825,
				"z": 1.0843672387,
				"element": "H" 
			},
			{
				"x": 1.7676335992,
				"y": -1.2530011897,
				"z": -0.9393855791,
				"element": "H" 
			},
			{
				"x": 1.4102695588,
				"y": 0.7392733975,
				"z": -2.385777176,
				"element": "H" 
			},
			{
				"x": -1.9573876355,
				"y": 1.8591022842,
				"z": 0.0248041891,
				"element": "H" 
			}
		],
		 "valence_orbital": [ 
			{
				"type": "occ",
				"energy": -0.31978,
				"method": "rhf"
			},
			{
				"type": "occ",
				"energy": -0.31065,
				"method": "rhf"
			},
			{
				"type": "occ",
				"energy": -0.30604,
				"method": "rhf"
			},
			{
				"type": "occ",
				"energy": -0.30032,
				"method": "rhf"
			},
			{
				"type": "occ",
				"energy": -0.29773,
				"method": "rhf"
			},
			{
				"type": "unocc",
				"energy": -0.10911,
				"method": "rhf"
			},
			{
				"type": "unocc",
				"energy": -0.10082,
				"method": "rhf"
			},
			{
				"type": "unocc",
				"energy": -0.03345,
				"method": "rhf"
			},
			{
				"type": "unocc",
				"energy": -0.01117,
				"method": "rhf"
			},
			{
				"type": "unocc",
				"energy": 0.06498,
				"method": "rhf"
			}
		],
		"cosmo_sigma_profile": { 
			"-0.025": 0.0,
			"-0.024": 0.0,
			"-0.023": 0.0,
			"-0.022": 0.0,
			"-0.021": 0.0,
			"-0.02": 0.0,
			"-0.019": 0.0,
			"-0.018": 0.0,
			"-0.017": 0.0,
			"-0.016": 0.0,
			"-0.015": 0.0,
			"-0.014": 0.0,
			"-0.013": 0.0,
			"-0.012": 0.0,
			"-0.011": 0.0,
			"-0.01": 0.0274934383861,
			"-0.009": 1.1146838293,
			"-0.008": 6.09679948764,
			"-0.007": 8.71990533543,
			"-0.006": 9.70673160076,
			"-0.005": 13.0323115884,
			"-0.004": 14.8153563644,
			"-0.003": 19.7118268121,
			"-0.002": 26.0603853687,
			"-0.001": 15.9454090517,
			"0.0": 9.63916326938,
			"0.001": 5.1329899025,
			"0.002": 4.95304382286,
			"0.003": 5.3262384473,
			"0.004": 5.45845921171,
			"0.005": 6.24357708266,
			"0.006": 9.5188497174,
			"0.007": 16.2961858825,
			"0.008": 10.8156433564,
			"0.009": 7.31981367797,
			"0.01": 2.17060520044,
			"0.011": 0.0,
			"0.012": 0.0,
			"0.013": 0.0,
			"0.014": 0.0,
			"0.015": 0.0,
			"0.016": 0.0,
			"0.017": 0.0,
			"0.018": 0.0,
			"0.019": 0.0,
			"0.02": 0.0,
			"0.021": 0.0,
			"0.022": 0.0,
			"0.023": 0.0,
			"0.024": 0.0,
			"0.025": 0.0
		}
	}
}
