{
	 "smiles": "ON=C(C1=CC=CS1)C1=CC=CS1", 
	 "Tm": 408.15, 
	 "num_atms": 20, 
	 "gaussian": { 
		 "optdone": 1, 
		 "sigma_profile": "yes", 
		 "theory": "DFT", 
		 "functional": "B3LYP", 
		 "basiset": "6-31G**", 
		 "properties": { 
			 "R2extent": 2988.0329, 
			 "electric_dipole_moment_norm": 0.384905702738, 
			 "electric_quadrupole_moment_norm": 9.16452316708, 
			 "total_energy": -1273.4319466, 
			 "HOMO_LUMO_gap": 0.16333, 
			 "cosmo_polarized_energy": -9.7, 
			 "cosmo_cavitation_energy": 27.59, 
			 "cosmo_dispersion_energy": -21.24, 
			 "cosmo_repulsion_energy": 1.6, 
			 "cosmo_total_nonelectrostatic_energy": 7.95, 
			 "SMD_solvation_energy": 4.84 
		},
		"coords": [
			{
				"x": -2.0371749951,
				"y": -2.2930742615,
				"z": -0.1027754876,
				"element": "O" 
			},
			{
				"x": -1.7595479763,
				"y": -1.1507243049,
				"z": 0.6554252517,
				"element": "N" 
			},
			{
				"x": -0.7607450115,
				"y": -0.4550860972,
				"z": 0.2020066413,
				"element": "C" 
			},
			{
				"x": -0.4238141682,
				"y": 0.6930840152,
				"z": 1.0693254501,
				"element": "C" 
			},
			{
				"x": -0.4833666124,
				"y": 0.7277227893,
				"z": 2.4434752655,
				"element": "C" 
			},
			{
				"x": -0.2080987254,
				"y": 2.0118428284,
				"z": 2.9906429267,
				"element": "C" 
			},
			{
				"x": 0.0509042881,
				"y": 2.9509801413,
				"z": 2.0281348682,
				"element": "C" 
			},
			{
				"x": -0.0338576982,
				"y": 2.2806812284,
				"z": 0.4353563025,
				"element": "S" 
			},
			{
				"x": 0.0149441709,
				"y": -0.7364374389,
				"z": -1.0127861595,
				"element": "C" 
			},
			{
				"x": -0.353535428,
				"y": -1.428749616,
				"z": -2.149708458,
				"element": "C" 
			},
			{
				"x": 0.6865312616,
				"y": -1.534169388,
				"z": -3.1112840838,
				"element": "C" 
			},
			{
				"x": 1.8516055692,
				"y": -0.9409193112,
				"z": -2.7001999261,
				"element": "C" 
			},
			{
				"x": 1.69388038,
				"y": -0.2258354831,
				"z": -1.1380584208,
				"element": "S" 
			},
			{
				"x": -2.7739422704,
				"y": -2.6790068977,
				"z": 0.3893926815,
				"element": "H" 
			},
			{
				"x": -0.7191507371,
				"y": -0.1526037728,
				"z": 3.0283604809,
				"element": "H" 
			},
			{
				"x": -0.1921109861,
				"y": 2.225700757,
				"z": 4.0532565173,
				"element": "H" 
			},
			{
				"x": 0.3069203752,
				"y": 3.9934386575,
				"z": 2.1591210321,
				"element": "H" 
			},
			{
				"x": -1.341913266,
				"y": -1.8450521262,
				"z": -2.2779797101,
				"element": "H" 
			},
			{
				"x": 0.5743330822,
				"y": -2.0330098815,
				"z": -4.0671384697,
				"element": "H" 
			},
			{
				"x": 2.7932387472,
				"y": -0.8780818382,
				"z": -3.2283667021,
				"element": "H" 
			}
		],
		 "valence_orbital": [ 
			{
				"type": "occ",
				"energy": -0.27544,
				"method": "rhf"
			},
			{
				"type": "occ",
				"energy": -0.25621,
				"method": "rhf"
			},
			{
				"type": "occ",
				"energy": -0.24619,
				"method": "rhf"
			},
			{
				"type": "occ",
				"energy": -0.23679,
				"method": "rhf"
			},
			{
				"type": "occ",
				"energy": -0.2126,
				"method": "rhf"
			},
			{
				"type": "unocc",
				"energy": -0.04927,
				"method": "rhf"
			},
			{
				"type": "unocc",
				"energy": -0.02025,
				"method": "rhf"
			},
			{
				"type": "unocc",
				"energy": 0.02602,
				"method": "rhf"
			},
			{
				"type": "unocc",
				"energy": 0.03166,
				"method": "rhf"
			},
			{
				"type": "unocc",
				"energy": 0.03642,
				"method": "rhf"
			}
		],
		"cosmo_sigma_profile": { 
			"-0.025": 0.0,
			"-0.024": 0.0,
			"-0.023": 0.0,
			"-0.022": 0.0,
			"-0.021": 0.0,
			"-0.02": 0.0,
			"-0.019": 0.0,
			"-0.018": 0.145150429529,
			"-0.017": 1.28866662878,
			"-0.016": 0.735796164555,
			"-0.015": 0.832524295403,
			"-0.014": 1.00399012799,
			"-0.013": 0.55338933146,
			"-0.012": 0.6360763871,
			"-0.011": 1.13852627908,
			"-0.01": 0.652237549219,
			"-0.009": 2.48027140756,
			"-0.008": 5.01891259849,
			"-0.007": 7.79999932323,
			"-0.006": 10.1622039771,
			"-0.005": 10.4446377807,
			"-0.004": 12.9337186315,
			"-0.003": 10.8550155084,
			"-0.002": 9.51001138195,
			"-0.001": 11.3229109042,
			"0.0": 15.4401004967,
			"0.001": 18.0583419978,
			"0.002": 22.9405826556,
			"0.003": 27.4434908883,
			"0.004": 27.0538096053,
			"0.005": 11.7454341911,
			"0.006": 4.33053608139,
			"0.007": 2.19876949917,
			"0.008": 2.51777172086,
			"0.009": 2.84715758702,
			"0.01": 1.56994303426,
			"0.011": 0.951297589016,
			"0.012": 0.877505682475,
			"0.013": 0.313917627697,
			"0.014": 0.0,
			"0.015": 0.0,
			"0.016": 0.0,
			"0.017": 0.0,
			"0.018": 0.0,
			"0.019": 0.0,
			"0.02": 0.0,
			"0.021": 0.0,
			"0.022": 0.0,
			"0.023": 0.0,
			"0.024": 0.0,
			"0.025": 0.0
		}
	}
}
