{
	 "smiles": "OC(=O)CC1=CC=C(NC(=O)C2=CC=C(Br)C=C2)C=C1", 
	 "Tm": 543.15, 
	 "num_atms": 32, 
	 "gaussian": { 
		 "optdone": 1, 
		 "sigma_profile": "yes", 
		 "theory": "DFT", 
		 "functional": "B3LYP", 
		 "basiset": "6-31G**", 
		 "properties": { 
			 "R2extent": 11790.458, 
			 "electric_dipole_moment_norm": 4.50260286279, 
			 "electric_quadrupole_moment_norm": 12.8944896739, 
			 "total_energy": -3430.68731771, 
			 "HOMO_LUMO_gap": 0.18012, 
			 "cosmo_polarized_energy": -18.44, 
			 "cosmo_cavitation_energy": 40.03, 
			 "cosmo_dispersion_energy": -28.07, 
			 "cosmo_repulsion_energy": 2.2, 
			 "cosmo_total_nonelectrostatic_energy": 14.15, 
			 "SMD_solvation_energy": 7.24 
		},
		"coords": [
			{
				"x": -3.746813712,
				"y": -0.3179448849,
				"z": 3.2750554307,
				"element": "O" 
			},
			{
				"x": -2.7864558496,
				"y": -0.1663803255,
				"z": 2.3312061536,
				"element": "C" 
			},
			{
				"x": -2.4078306588,
				"y": 0.9185631258,
				"z": 1.9531588222,
				"element": "O" 
			},
			{
				"x": -2.3198706512,
				"y": -1.5189031943,
				"z": 1.8120893053,
				"element": "C" 
			},
			{
				"x": -0.9305495365,
				"y": -1.5145983566,
				"z": 1.2184755669,
				"element": "C" 
			},
			{
				"x": -0.6248390313,
				"y": -0.7481915161,
				"z": 0.0853809618,
				"element": "C" 
			},
			{
				"x": 0.6487144404,
				"y": -0.7666625382,
				"z": -0.4751957805,
				"element": "C" 
			},
			{
				"x": 1.6653480029,
				"y": -1.5360999229,
				"z": 0.1096664873,
				"element": "C" 
			},
			{
				"x": 2.9722723499,
				"y": -1.6115912245,
				"z": -0.4352723864,
				"element": "N" 
			},
			{
				"x": 3.7131956351,
				"y": -0.6940165418,
				"z": -1.162289798,
				"element": "C" 
			},
			{
				"x": 4.6129806303,
				"y": -1.0896818291,
				"z": -1.8956717958,
				"element": "O" 
			},
			{
				"x": 3.4591365211,
				"y": 0.7732033667,
				"z": -0.9825955318,
				"element": "C" 
			},
			{
				"x": 3.0216057912,
				"y": 1.3412042253,
				"z": 0.2220674685,
				"element": "C" 
			},
			{
				"x": 2.8973924752,
				"y": 2.7236412333,
				"z": 0.3497439989,
				"element": "C" 
			},
			{
				"x": 3.2058143025,
				"y": 3.5375973817,
				"z": -0.7396125393,
				"element": "C" 
			},
			{
				"x": 3.0221363729,
				"y": 5.4311425424,
				"z": -0.5747883643,
				"element": "Br" 
			},
			{
				"x": 3.6533854976,
				"y": 2.9956306428,
				"z": -1.9447237981,
				"element": "C" 
			},
			{
				"x": 3.7900532381,
				"y": 1.6145462295,
				"z": -2.0537341056,
				"element": "C" 
			},
			{
				"x": 1.3689075103,
				"y": -2.3055484902,
				"z": 1.2413035031,
				"element": "C" 
			},
			{
				"x": 0.0831613009,
				"y": -2.2978431937,
				"z": 1.7795882417,
				"element": "C" 
			},
			{
				"x": -4.0251627386,
				"y": 0.579765053,
				"z": 3.5243900487,
				"element": "H" 
			},
			{
				"x": -2.4027937199,
				"y": -2.2479469757,
				"z": 2.6224120999,
				"element": "H" 
			},
			{
				"x": -3.0628709697,
				"y": -1.8200683163,
				"z": 1.0595250217,
				"element": "H" 
			},
			{
				"x": -1.3943765194,
				"y": -0.1329372295,
				"z": -0.3689005827,
				"element": "H" 
			},
			{
				"x": 0.8540182081,
				"y": -0.1893363834,
				"z": -1.3694938088,
				"element": "H" 
			},
			{
				"x": 3.3613237296,
				"y": -2.542516049,
				"z": -0.5303528866,
				"element": "H" 
			},
			{
				"x": 2.7867250456,
				"y": 0.7103353969,
				"z": 1.0719036117,
				"element": "H" 
			},
			{
				"x": 2.5654946288,
				"y": 3.1631586169,
				"z": 1.2831472618,
				"element": "H" 
			},
			{
				"x": 3.8982452184,
				"y": 3.644409913,
				"z": -2.7777887064,
				"element": "H" 
			},
			{
				"x": 4.165258204,
				"y": 1.1687085782,
				"z": -2.968647589,
				"element": "H" 
			},
			{
				"x": 2.1506755203,
				"y": -2.9037961327,
				"z": 1.7009376228,
				"element": "H" 
			},
			{
				"x": -0.127981236,
				"y": -2.9045432013,
				"z": 2.6565160667,
				"element": "H" 
			}
		],
		 "valence_orbital": [ 
			{
				"type": "occ",
				"energy": -0.27022,
				"method": "rhf"
			},
			{
				"type": "occ",
				"energy": -0.26349,
				"method": "rhf"
			},
			{
				"type": "occ",
				"energy": -0.25865,
				"method": "rhf"
			},
			{
				"type": "occ",
				"energy": -0.24411,
				"method": "rhf"
			},
			{
				"type": "occ",
				"energy": -0.22886,
				"method": "rhf"
			},
			{
				"type": "unocc",
				"energy": -0.04874,
				"method": "rhf"
			},
			{
				"type": "unocc",
				"energy": -0.02259,
				"method": "rhf"
			},
			{
				"type": "unocc",
				"energy": -0.01142,
				"method": "rhf"
			},
			{
				"type": "unocc",
				"energy": -0.009,
				"method": "rhf"
			},
			{
				"type": "unocc",
				"energy": 0.00372,
				"method": "rhf"
			}
		],
		"cosmo_sigma_profile": { 
			"-0.025": 0.0,
			"-0.024": 0.0,
			"-0.023": 0.0,
			"-0.022": 0.0,
			"-0.021": 0.0,
			"-0.02": 0.0,
			"-0.019": 0.0,
			"-0.018": 0.682626170585,
			"-0.017": 0.898625281032,
			"-0.016": 1.21633882866,
			"-0.015": 0.858302737043,
			"-0.014": 1.2778311351,
			"-0.013": 1.56996653149,
			"-0.012": 1.2421785728,
			"-0.011": 1.78701301581,
			"-0.01": 2.6344484945,
			"-0.009": 1.68751600108,
			"-0.008": 3.32526138977,
			"-0.007": 11.7776454765,
			"-0.006": 20.2879449681,
			"-0.005": 21.0523631755,
			"-0.004": 20.7585334522,
			"-0.003": 19.4762457422,
			"-0.002": 20.0731819673,
			"-0.001": 19.1240464043,
			"0.0": 20.0764714168,
			"0.001": 25.379628773,
			"0.002": 28.9957389165,
			"0.003": 24.9843710679,
			"0.004": 20.6827069495,
			"0.005": 11.6702142576,
			"0.006": 4.7147604835,
			"0.007": 4.63325570753,
			"0.008": 4.26127976429,
			"0.009": 4.83397809813,
			"0.01": 4.48248618377,
			"0.011": 6.03511910665,
			"0.012": 6.62470870478,
			"0.013": 5.11442815644,
			"0.014": 0.868274030625,
			"0.015": 0.0,
			"0.016": 0.0,
			"0.017": 0.0,
			"0.018": 0.0,
			"0.019": 0.0,
			"0.02": 0.0,
			"0.021": 0.0,
			"0.022": 0.0,
			"0.023": 0.0,
			"0.024": 0.0,
			"0.025": 0.0
		}
	}
}
