{
	 "smiles": "NCC(O)C1=C(C=CC=C1)C(F)(F)F", 
	 "Tm": 380.15, 
	 "num_atms": 24, 
	 "gaussian": { 
		 "optdone": 1, 
		 "sigma_profile": "yes", 
		 "theory": "DFT", 
		 "functional": "B3LYP", 
		 "basiset": "6-31G**", 
		 "properties": { 
			 "R2extent": 3902.077, 
			 "electric_dipole_moment_norm": 4.61232488556, 
			 "electric_quadrupole_moment_norm": 15.1182697912, 
			 "total_energy": -778.472833414, 
			 "HOMO_LUMO_gap": 0.22457, 
			 "cosmo_polarized_energy": -11.55, 
			 "cosmo_cavitation_energy": 27.7, 
			 "cosmo_dispersion_energy": -20.2, 
			 "cosmo_repulsion_energy": 1.55, 
			 "cosmo_total_nonelectrostatic_energy": 9.05, 
			 "SMD_solvation_energy": 5.0 
		},
		"coords": [
			{
				"x": -2.2070485944,
				"y": 2.1000765622,
				"z": 1.7520089909,
				"element": "N" 
			},
			{
				"x": -1.0936416386,
				"y": 1.4576362569,
				"z": 1.0379367442,
				"element": "C" 
			},
			{
				"x": -1.5175985898,
				"y": 0.0074240309,
				"z": 0.7526563502,
				"element": "C" 
			},
			{
				"x": -1.9089034078,
				"y": -0.598468538,
				"z": 1.9739361924,
				"element": "O" 
			},
			{
				"x": -0.4593623435,
				"y": -0.8749463017,
				"z": 0.1008928879,
				"element": "C" 
			},
			{
				"x": -0.7392955677,
				"y": -2.2066417914,
				"z": -0.2860600238,
				"element": "C" 
			},
			{
				"x": 0.25710832,
				"y": -2.9931030463,
				"z": -0.872386055,
				"element": "C" 
			},
			{
				"x": 1.535245253,
				"y": -2.485180342,
				"z": -1.0975129975,
				"element": "C" 
			},
			{
				"x": 1.820566586,
				"y": -1.1743681646,
				"z": -0.7311631658,
				"element": "C" 
			},
			{
				"x": 0.8306420163,
				"y": -0.3879921568,
				"z": -0.1394840902,
				"element": "C" 
			},
			{
				"x": -2.0808204258,
				"y": -2.8764073555,
				"z": -0.0571339846,
				"element": "C" 
			},
			{
				"x": -2.2199655493,
				"y": -3.3308240323,
				"z": 1.2010273009,
				"element": "F" 
			},
			{
				"x": -2.2298792014,
				"y": -3.9521616032,
				"z": -0.8735702561,
				"element": "F" 
			},
			{
				"x": -3.1310242462,
				"y": -2.0637121935,
				"z": -0.3175281356,
				"element": "F" 
			},
			{
				"x": -2.938475433,
				"y": 2.3743079234,
				"z": 1.1005462199,
				"element": "H" 
			},
			{
				"x": -1.8984545323,
				"y": 2.943471827,
				"z": 2.2248865046,
				"element": "H" 
			},
			{
				"x": -0.2297501786,
				"y": 1.4525224695,
				"z": 1.7104966876,
				"element": "H" 
			},
			{
				"x": -0.801455789,
				"y": 1.9707086237,
				"z": 0.1085592031,
				"element": "H" 
			},
			{
				"x": -2.377083335,
				"y": 0.058350804,
				"z": 0.0632380261,
				"element": "H" 
			},
			{
				"x": -2.4120830855,
				"y": 0.1016497111,
				"z": 2.4280801008,
				"element": "H" 
			},
			{
				"x": 0.0218511261,
				"y": -4.0101926897,
				"z": -1.1619351574,
				"element": "H" 
			},
			{
				"x": 2.2943736163,
				"y": -3.1104840826,
				"z": -1.5573221924,
				"element": "H" 
			},
			{
				"x": 2.8095697166,
				"y": -0.7581857409,
				"z": -0.8999795893,
				"element": "H" 
			},
			{
				"x": 1.0795852835,
				"y": 0.6294198299,
				"z": 0.1389104394,
				"element": "H" 
			}
		],
		 "valence_orbital": [ 
			{
				"type": "occ",
				"energy": -0.31985,
				"method": "rhf"
			},
			{
				"type": "occ",
				"energy": -0.26898,
				"method": "rhf"
			},
			{
				"type": "occ",
				"energy": -0.26082,
				"method": "rhf"
			},
			{
				"type": "occ",
				"energy": -0.25791,
				"method": "rhf"
			},
			{
				"type": "occ",
				"energy": -0.24856,
				"method": "rhf"
			},
			{
				"type": "unocc",
				"energy": -0.02399,
				"method": "rhf"
			},
			{
				"type": "unocc",
				"energy": -0.0103,
				"method": "rhf"
			},
			{
				"type": "unocc",
				"energy": 0.06744,
				"method": "rhf"
			},
			{
				"type": "unocc",
				"energy": 0.09303,
				"method": "rhf"
			},
			{
				"type": "unocc",
				"energy": 0.11224,
				"method": "rhf"
			}
		],
		"cosmo_sigma_profile": { 
			"-0.025": 0.0,
			"-0.024": 0.0,
			"-0.023": 0.0,
			"-0.022": 0.0,
			"-0.021": 0.0,
			"-0.02": 0.0,
			"-0.019": 0.0,
			"-0.018": 0.0,
			"-0.017": 0.0,
			"-0.016": 0.0,
			"-0.015": 0.0,
			"-0.014": 0.0,
			"-0.013": 0.0,
			"-0.012": 0.0,
			"-0.011": 0.993880336596,
			"-0.01": 2.71541735829,
			"-0.009": 3.14556694086,
			"-0.008": 4.01818910224,
			"-0.007": 5.2217093465,
			"-0.006": 11.7727824428,
			"-0.005": 14.146436532,
			"-0.004": 17.7945657161,
			"-0.003": 15.2391841259,
			"-0.002": 12.0349034331,
			"-0.001": 11.8635530862,
			"0.0": 12.6956562767,
			"0.001": 13.6267765736,
			"0.002": 18.0366237942,
			"0.003": 33.1263702317,
			"0.004": 17.93069495,
			"0.005": 4.25074400816,
			"0.006": 4.01028760202,
			"0.007": 2.3847735217,
			"0.008": 2.03742370761,
			"0.009": 2.7498251431,
			"0.01": 2.32943658823,
			"0.011": 3.14446986107,
			"0.012": 1.41930445756,
			"0.013": 1.36041100117,
			"0.014": 0.751659504132,
			"0.015": 0.201799061449,
			"0.016": 0.0,
			"0.017": 0.0,
			"0.018": 0.0,
			"0.019": 0.0,
			"0.02": 0.0,
			"0.021": 0.0,
			"0.022": 0.0,
			"0.023": 0.0,
			"0.024": 0.0,
			"0.025": 0.0
		}
	}
}
