{
	 "smiles": "OC(=O)C1=C(N(N=C1)C1=CC=C(Cl)C=C1)C(F)(F)F", 
	 "Tm": 411.15, 
	 "num_atms": 25, 
	 "gaussian": { 
		 "optdone": 1, 
		 "sigma_profile": "yes", 
		 "theory": "DFT", 
		 "functional": "B3LYP", 
		 "basiset": "6-31G**", 
		 "properties": { 
			 "R2extent": 6622.6828, 
			 "electric_dipole_moment_norm": 3.95288176145, 
			 "electric_quadrupole_moment_norm": 23.3841792625, 
			 "total_energy": -1442.42913004, 
			 "HOMO_LUMO_gap": 0.19102, 
			 "cosmo_polarized_energy": -16.63, 
			 "cosmo_cavitation_energy": 33.59, 
			 "cosmo_dispersion_energy": -23.82, 
			 "cosmo_repulsion_energy": 1.77, 
			 "cosmo_total_nonelectrostatic_energy": 11.55, 
			 "SMD_solvation_energy": 6.84 
		},
		"coords": [
			{
				"x": 1.4662015772,
				"y": 1.8566268994,
				"z": 3.9665716826,
				"element": "O" 
			},
			{
				"x": 0.4009323184,
				"y": 1.1824966603,
				"z": 3.4522959788,
				"element": "C" 
			},
			{
				"x": -0.5794900131,
				"y": 0.9802908883,
				"z": 4.1231544157,
				"element": "O" 
			},
			{
				"x": 0.5895066482,
				"y": 0.6912704033,
				"z": 2.0612180288,
				"element": "C" 
			},
			{
				"x": -0.3707126349,
				"y": 0.4695002197,
				"z": 1.078134491,
				"element": "C" 
			},
			{
				"x": 0.2785254721,
				"y": -0.0957569283,
				"z": 0.0138723226,
				"element": "N" 
			},
			{
				"x": 1.6055156692,
				"y": -0.2401440618,
				"z": 0.2533952086,
				"element": "N" 
			},
			{
				"x": 1.7947672087,
				"y": 0.2348836609,
				"z": 1.4762156321,
				"element": "C" 
			},
			{
				"x": -0.2229692907,
				"y": -0.5532048796,
				"z": -1.2471853579,
				"element": "C" 
			},
			{
				"x": 0.5100456594,
				"y": -0.2592965203,
				"z": -2.3990306179,
				"element": "C" 
			},
			{
				"x": 0.0716456226,
				"y": -0.7270371637,
				"z": -3.634702234,
				"element": "C" 
			},
			{
				"x": -1.0996676868,
				"y": -1.482650319,
				"z": -3.7038054741,
				"element": "C" 
			},
			{
				"x": -1.6578728542,
				"y": -2.0672658754,
				"z": -5.2592807939,
				"element": "Cl" 
			},
			{
				"x": -1.8302522565,
				"y": -1.7848839911,
				"z": -2.5547510913,
				"element": "C" 
			},
			{
				"x": -1.3836207484,
				"y": -1.3259358582,
				"z": -1.317537171,
				"element": "C" 
			},
			{
				"x": -1.8288642881,
				"y": 0.8406925515,
				"z": 1.0764011321,
				"element": "C" 
			},
			{
				"x": -2.0715338406,
				"y": 1.8365275335,
				"z": 1.9341989333,
				"element": "F" 
			},
			{
				"x": -2.2239293638,
				"y": 1.2532390887,
				"z": -0.1487460674,
				"element": "F" 
			},
			{
				"x": -2.6137006787,
				"y": -0.2064680673,
				"z": 1.4180655662,
				"element": "F" 
			},
			{
				"x": 2.1000351469,
				"y": 2.0649699164,
				"z": 3.2656900269,
				"element": "H" 
			},
			{
				"x": 2.7827073822,
				"y": 0.1946687196,
				"z": 1.9169490039,
				"element": "H" 
			},
			{
				"x": 1.4193239489,
				"y": 0.3244575098,
				"z": -2.3190820669,
				"element": "H" 
			},
			{
				"x": 0.6301073363,
				"y": -0.5041204231,
				"z": -4.5365747129,
				"element": "H" 
			},
			{
				"x": -2.7311627926,
				"y": -2.3835619004,
				"z": -2.6234849588,
				"element": "H" 
			},
			{
				"x": -1.9357375418,
				"y": -1.5713980633,
				"z": -0.4185818765,
				"element": "H" 
			}
		],
		 "valence_orbital": [ 
			{
				"type": "occ",
				"energy": -0.30646,
				"method": "rhf"
			},
			{
				"type": "occ",
				"energy": -0.29526,
				"method": "rhf"
			},
			{
				"type": "occ",
				"energy": -0.28565,
				"method": "rhf"
			},
			{
				"type": "occ",
				"energy": -0.27988,
				"method": "rhf"
			},
			{
				"type": "occ",
				"energy": -0.25692,
				"method": "rhf"
			},
			{
				"type": "unocc",
				"energy": -0.0659,
				"method": "rhf"
			},
			{
				"type": "unocc",
				"energy": -0.0355,
				"method": "rhf"
			},
			{
				"type": "unocc",
				"energy": -0.02817,
				"method": "rhf"
			},
			{
				"type": "unocc",
				"energy": -0.01104,
				"method": "rhf"
			},
			{
				"type": "unocc",
				"energy": 0.01577,
				"method": "rhf"
			}
		],
		"cosmo_sigma_profile": { 
			"-0.025": 0.0,
			"-0.024": 0.0,
			"-0.023": 0.0,
			"-0.022": 0.0,
			"-0.021": 0.0,
			"-0.02": 0.0,
			"-0.019": 0.315554054743,
			"-0.018": 1.27751743442,
			"-0.017": 0.861694012558,
			"-0.016": 1.33736907385,
			"-0.015": 1.19494790344,
			"-0.014": 1.13795556589,
			"-0.013": 1.2023853704,
			"-0.012": 1.19317819472,
			"-0.011": 1.5416123096,
			"-0.01": 2.1054915227,
			"-0.009": 2.09927510876,
			"-0.008": 6.85516120524,
			"-0.007": 10.650747916,
			"-0.006": 9.51098259101,
			"-0.005": 9.71666401483,
			"-0.004": 13.8999540648,
			"-0.003": 11.8665946037,
			"-0.002": 15.177893401,
			"-0.001": 18.286659041,
			"0.0": 21.2060747784,
			"0.001": 31.5130298715,
			"0.002": 40.5174202135,
			"0.003": 15.4066167959,
			"0.004": 14.7227990642,
			"0.005": 6.19804412127,
			"0.006": 4.16509655151,
			"0.007": 3.95810497183,
			"0.008": 4.19329892153,
			"0.009": 5.33452702479,
			"0.01": 6.67876785426,
			"0.011": 5.6268178719,
			"0.012": 3.10969842519,
			"0.013": 0.641840415504,
			"0.014": 0.0,
			"0.015": 0.0,
			"0.016": 0.0,
			"0.017": 0.0,
			"0.018": 0.0,
			"0.019": 0.0,
			"0.02": 0.0,
			"0.021": 0.0,
			"0.022": 0.0,
			"0.023": 0.0,
			"0.024": 0.0,
			"0.025": 0.0
		}
	}
}
