{
	 "smiles": "NC1=CC(F)=C(C=C1)S(N)(=O)=O", 
	 "Tm": 426.15, 
	 "num_atms": 19, 
	 "gaussian": { 
		 "optdone": 1, 
		 "sigma_profile": "yes", 
		 "theory": "DFT", 
		 "functional": "B3LYP", 
		 "basiset": "6-31G**", 
		 "properties": { 
			 "R2extent": 2717.827, 
			 "electric_dipole_moment_norm": 8.50480287367, 
			 "electric_quadrupole_moment_norm": 11.9581695284, 
			 "total_energy": -990.762172284, 
			 "HOMO_LUMO_gap": 0.20445, 
			 "cosmo_polarized_energy": -23.03, 
			 "cosmo_cavitation_energy": 24.94, 
			 "cosmo_dispersion_energy": -19.07, 
			 "cosmo_repulsion_energy": 1.46, 
			 "cosmo_total_nonelectrostatic_energy": 7.32, 
			 "SMD_solvation_energy": 4.24 
		},
		"coords": [
			{
				"x": 2.2229139849,
				"y": -2.2229458713,
				"z": -1.0439406102,
				"element": "N" 
			},
			{
				"x": 1.1926572133,
				"y": -1.3201123933,
				"z": -0.8761267542,
				"element": "C" 
			},
			{
				"x": 1.4639027576,
				"y": 0.0056230735,
				"z": -0.4838045962,
				"element": "C" 
			},
			{
				"x": 0.4105511551,
				"y": 0.8738923775,
				"z": -0.2667417628,
				"element": "C" 
			},
			{
				"x": 0.6938323908,
				"y": 2.1478917864,
				"z": 0.0904701465,
				"element": "F" 
			},
			{
				"x": -0.9227646607,
				"y": 0.4973938795,
				"z": -0.4355280542,
				"element": "C" 
			},
			{
				"x": -1.1850876922,
				"y": -0.8183301336,
				"z": -0.832573712,
				"element": "C" 
			},
			{
				"x": -0.1497596753,
				"y": -1.7158249497,
				"z": -1.0524704186,
				"element": "C" 
			},
			{
				"x": -2.2734279318,
				"y": 1.6189039459,
				"z": -0.0861942969,
				"element": "S" 
			},
			{
				"x": -1.9949809098,
				"y": 2.994991747,
				"z": -1.0091612424,
				"element": "N" 
			},
			{
				"x": -2.1782275771,
				"y": 2.0409894382,
				"z": 1.3079619204,
				"element": "O" 
			},
			{
				"x": -3.4795695517,
				"y": 0.9970596009,
				"z": -0.6328170708,
				"element": "O" 
			},
			{
				"x": 2.0255042105,
				"y": -3.0563559615,
				"z": -1.5767083986,
				"element": "H" 
			},
			{
				"x": 3.1510969355,
				"y": -1.8536963706,
				"z": -1.1831951273,
				"element": "H" 
			},
			{
				"x": 2.4794586336,
				"y": 0.3592734351,
				"z": -0.3394962392,
				"element": "H" 
			},
			{
				"x": -2.2185181035,
				"y": -1.1184089931,
				"z": -0.9680214243,
				"element": "H" 
			},
			{
				"x": -0.3720642639,
				"y": -2.73482173,
				"z": -1.3553355857,
				"element": "H" 
			},
			{
				"x": -1.1194047104,
				"y": 3.442215514,
				"z": -0.7525070638,
				"element": "H" 
			},
			{
				"x": -2.0614122048,
				"y": 2.8026616053,
				"z": -2.0042097097,
				"element": "H" 
			}
		],
		 "valence_orbital": [ 
			{
				"type": "occ",
				"energy": -0.30236,
				"method": "rhf"
			},
			{
				"type": "occ",
				"energy": -0.29902,
				"method": "rhf"
			},
			{
				"type": "occ",
				"energy": -0.29473,
				"method": "rhf"
			},
			{
				"type": "occ",
				"energy": -0.26916,
				"method": "rhf"
			},
			{
				"type": "occ",
				"energy": -0.2296,
				"method": "rhf"
			},
			{
				"type": "unocc",
				"energy": -0.02515,
				"method": "rhf"
			},
			{
				"type": "unocc",
				"energy": -0.01866,
				"method": "rhf"
			},
			{
				"type": "unocc",
				"energy": 0.05118,
				"method": "rhf"
			},
			{
				"type": "unocc",
				"energy": 0.06549,
				"method": "rhf"
			},
			{
				"type": "unocc",
				"energy": 0.06833,
				"method": "rhf"
			}
		],
		"cosmo_sigma_profile": { 
			"-0.025": 0.0,
			"-0.024": 0.0,
			"-0.023": 0.0,
			"-0.022": 0.0,
			"-0.021": 0.0,
			"-0.02": 0.0,
			"-0.019": 0.0,
			"-0.018": 0.0,
			"-0.017": 0.0,
			"-0.016": 0.329837114253,
			"-0.015": 1.24950651695,
			"-0.014": 2.4396616847,
			"-0.013": 5.12677106956,
			"-0.012": 6.18042616214,
			"-0.011": 5.58263001903,
			"-0.01": 4.93839363779,
			"-0.009": 4.86436182568,
			"-0.008": 5.9074659819,
			"-0.007": 6.93141937672,
			"-0.006": 8.15670647573,
			"-0.005": 6.10014795579,
			"-0.004": 5.89152727474,
			"-0.003": 6.49376087221,
			"-0.002": 7.61385521236,
			"-0.001": 8.02156539495,
			"0.0": 9.80296616325,
			"0.001": 11.9745346884,
			"0.002": 15.0542558575,
			"0.003": 15.719043829,
			"0.004": 8.55124440176,
			"0.005": 4.96179484366,
			"0.006": 4.86425846782,
			"0.007": 5.00311150057,
			"0.008": 5.55002170824,
			"0.009": 4.66239852363,
			"0.01": 9.01029140181,
			"0.011": 12.0827533959,
			"0.012": 5.26236762297,
			"0.013": 0.409654686736,
			"0.014": 0.00455254627764,
			"0.015": 0.0,
			"0.016": 0.0,
			"0.017": 0.0,
			"0.018": 0.0,
			"0.019": 0.0,
			"0.02": 0.0,
			"0.021": 0.0,
			"0.022": 0.0,
			"0.023": 0.0,
			"0.024": 0.0,
			"0.025": 0.0
		}
	}
}
