{
	 "smiles": "NCCC1=CNC2=CC=CC=C12", 
	 "Tm": 389.15, 
	 "num_atms": 24, 
	 "gaussian": { 
		 "optdone": 1, 
		 "sigma_profile": "yes", 
		 "theory": "DFT", 
		 "functional": "B3LYP", 
		 "basiset": "6-31G**", 
		 "properties": { 
			 "R2extent": 2427.9437, 
			 "electric_dipole_moment_norm": 3.01810232762, 
			 "electric_quadrupole_moment_norm": 8.66558215932, 
			 "total_energy": -497.801814588, 
			 "HOMO_LUMO_gap": 0.19159, 
			 "cosmo_polarized_energy": -12.12, 
			 "cosmo_cavitation_energy": 27.06, 
			 "cosmo_dispersion_energy": -19.82, 
			 "cosmo_repulsion_energy": 1.6, 
			 "cosmo_total_nonelectrostatic_energy": 8.85, 
			 "SMD_solvation_energy": 3.07 
		},
		"coords": [
			{
				"x": 1.9081047443,
				"y": -1.9736225041,
				"z": -2.6660678169,
				"element": "N" 
			},
			{
				"x": 0.7566366929,
				"y": -1.4235640785,
				"z": -1.9432973308,
				"element": "C" 
			},
			{
				"x": 0.9777381441,
				"y": 0.0690695447,
				"z": -1.6414094507,
				"element": "C" 
			},
			{
				"x": -0.1224920981,
				"y": 0.6834797476,
				"z": -0.8247980647,
				"element": "C" 
			},
			{
				"x": -1.1222760808,
				"y": 1.5092650967,
				"z": -1.2743577406,
				"element": "C" 
			},
			{
				"x": -1.9680417701,
				"y": 1.8489637628,
				"z": -0.2319263616,
				"element": "N" 
			},
			{
				"x": -1.5228175988,
				"y": 1.2453577389,
				"z": 0.9258862959,
				"element": "C" 
			},
			{
				"x": -2.0310767652,
				"y": 1.2915406339,
				"z": 2.2286445038,
				"element": "C" 
			},
			{
				"x": -1.3538163088,
				"y": 0.5736519883,
				"z": 3.2079521162,
				"element": "C" 
			},
			{
				"x": -0.1963699683,
				"y": -0.1704973736,
				"z": 2.8989762332,
				"element": "C" 
			},
			{
				"x": 0.3041664307,
				"y": -0.2134996691,
				"z": 1.6035549345,
				"element": "C" 
			},
			{
				"x": -0.3592233028,
				"y": 0.4991823719,
				"z": 0.5886246363,
				"element": "C" 
			},
			{
				"x": 1.9577888446,
				"y": -1.5613374518,
				"z": -3.5957366532,
				"element": "H" 
			},
			{
				"x": 1.7838222712,
				"y": -2.9729622428,
				"z": -2.8084006436,
				"element": "H" 
			},
			{
				"x": -0.2086641313,
				"y": -1.5364329017,
				"z": -2.4679958068,
				"element": "H" 
			},
			{
				"x": 0.6591472611,
				"y": -1.9696221773,
				"z": -0.9979232496,
				"element": "H" 
			},
			{
				"x": 1.0758914969,
				"y": 0.6117591377,
				"z": -2.5914143538,
				"element": "H" 
			},
			{
				"x": 1.9423427136,
				"y": 0.1700916742,
				"z": -1.1291181302,
				"element": "H" 
			},
			{
				"x": -1.2996991177,
				"y": 1.8921755342,
				"z": -2.2701179956,
				"element": "H" 
			},
			{
				"x": -2.7661514355,
				"y": 2.4577005481,
				"z": -0.3042406897,
				"element": "H" 
			},
			{
				"x": -2.9211820155,
				"y": 1.8671039473,
				"z": 2.4680544868,
				"element": "H" 
			},
			{
				"x": -1.7221202187,
				"y": 0.5880914229,
				"z": 4.2296890419,
				"element": "H" 
			},
			{
				"x": 0.3096684808,
				"y": -0.7171516068,
				"z": 3.6894666576,
				"element": "H" 
			},
			{
				"x": 1.1990237317,
				"y": -0.7874431433,
				"z": 1.3785553817,
				"element": "H" 
			}
		],
		 "valence_orbital": [ 
			{
				"type": "occ",
				"energy": -0.31924,
				"method": "rhf"
			},
			{
				"type": "occ",
				"energy": -0.26336,
				"method": "rhf"
			},
			{
				"type": "occ",
				"energy": -0.2283,
				"method": "rhf"
			},
			{
				"type": "occ",
				"energy": -0.21383,
				"method": "rhf"
			},
			{
				"type": "occ",
				"energy": -0.19399,
				"method": "rhf"
			},
			{
				"type": "unocc",
				"energy": -0.0024,
				"method": "rhf"
			},
			{
				"type": "unocc",
				"energy": 0.03407,
				"method": "rhf"
			},
			{
				"type": "unocc",
				"energy": 0.07357,
				"method": "rhf"
			},
			{
				"type": "unocc",
				"energy": 0.08228,
				"method": "rhf"
			},
			{
				"type": "unocc",
				"energy": 0.08837,
				"method": "rhf"
			}
		],
		"cosmo_sigma_profile": { 
			"-0.025": 0.0,
			"-0.024": 0.0,
			"-0.023": 0.0,
			"-0.022": 0.0,
			"-0.021": 0.0,
			"-0.02": 0.0,
			"-0.019": 0.0,
			"-0.018": 0.0,
			"-0.017": 0.0,
			"-0.016": 0.089972520584,
			"-0.015": 1.31047136465,
			"-0.014": 1.49313496517,
			"-0.013": 1.24160883519,
			"-0.012": 1.30884150149,
			"-0.011": 0.612099547063,
			"-0.01": 2.08448581789,
			"-0.009": 3.68985129192,
			"-0.008": 4.57085155961,
			"-0.007": 6.72010309766,
			"-0.006": 7.03992883499,
			"-0.005": 9.82486134704,
			"-0.004": 13.3435979474,
			"-0.003": 17.1260512797,
			"-0.002": 19.5513396342,
			"-0.001": 15.878714598,
			"0.0": 15.3585261796,
			"0.001": 11.7474455364,
			"0.002": 9.2525781594,
			"0.003": 10.667506134,
			"0.004": 10.9716081139,
			"0.005": 13.6531169961,
			"0.006": 14.5739837721,
			"0.007": 10.0738490364,
			"0.008": 3.5528359714,
			"0.009": 0.492746039811,
			"0.01": 0.754549616246,
			"0.011": 0.907578780412,
			"0.012": 0.849017111406,
			"0.013": 0.804145565237,
			"0.014": 0.625821463041,
			"0.015": 0.385786270231,
			"0.016": 0.410264909599,
			"0.017": 0.657688838312,
			"0.018": 0.624868865734,
			"0.019": 0.648232391878,
			"0.02": 0.316535349335,
			"0.021": 0.0657808489949,
			"0.022": 0.0,
			"0.023": 0.0,
			"0.024": 0.0,
			"0.025": 0.0
		}
	}
}
