{
	 "smiles": "[O-][N+](=O)C1=CC=CC=C1C=O", 
	 "Tm": 317.95, 
	 "num_atms": 16, 
	 "gaussian": { 
		 "optdone": 1, 
		 "sigma_profile": "yes", 
		 "theory": "DFT", 
		 "functional": "B3LYP", 
		 "basiset": "6-31G**", 
		 "properties": { 
			 "R2extent": 2083.3035, 
			 "electric_dipole_moment_norm": 4.51925460336, 
			 "electric_quadrupole_moment_norm": 8.83762674308, 
			 "total_energy": -550.060543574, 
			 "HOMO_LUMO_gap": 0.16193, 
			 "cosmo_polarized_energy": -10.09, 
			 "cosmo_cavitation_energy": 21.44, 
			 "cosmo_dispersion_energy": -15.78, 
			 "cosmo_repulsion_energy": 1.25, 
			 "cosmo_total_nonelectrostatic_energy": 6.91, 
			 "SMD_solvation_energy": 6.96 
		},
		"coords": [
			{
				"x": -0.1694153226,
				"y": -1.9691911049,
				"z": -0.6301487182,
				"element": "O" 
			},
			{
				"x": -0.697877319,
				"y": -0.9066106614,
				"z": -0.9490741072,
				"element": "N" 
			},
			{
				"x": -1.169645905,
				"y": -0.6626486218,
				"z": -2.0606532842,
				"element": "O" 
			},
			{
				"x": -0.7456226013,
				"y": 0.1617814388,
				"z": 0.0669580209,
				"element": "C" 
			},
			{
				"x": 0.2346275217,
				"y": 0.1184624954,
				"z": 1.0564459453,
				"element": "C" 
			},
			{
				"x": 0.2910753229,
				"y": 1.1348166652,
				"z": 2.0075749313,
				"element": "C" 
			},
			{
				"x": -0.6376801434,
				"y": 2.17761544,
				"z": 1.969263737,
				"element": "C" 
			},
			{
				"x": -1.6257028208,
				"y": 2.1936722424,
				"z": 0.9884857946,
				"element": "C" 
			},
			{
				"x": -1.705738995,
				"y": 1.1893127591,
				"z": 0.0134721329,
				"element": "C" 
			},
			{
				"x": -2.8673469122,
				"y": 1.2668977404,
				"z": -0.9377975356,
				"element": "C" 
			},
			{
				"x": -3.5556615674,
				"y": 2.2655636234,
				"z": -1.016135779,
				"element": "O" 
			},
			{
				"x": 0.9420020904,
				"y": -0.7014102835,
				"z": 1.0569878493,
				"element": "H" 
			},
			{
				"x": 1.0610624493,
				"y": 1.1117701295,
				"z": 2.7721627488,
				"element": "H" 
			},
			{
				"x": -0.5950719671,
				"y": 2.9724930629,
				"z": 2.7074806916,
				"element": "H" 
			},
			{
				"x": -2.3722178763,
				"y": 2.980055419,
				"z": 0.9505885137,
				"element": "H" 
			},
			{
				"x": -3.086185954,
				"y": 0.3695196556,
				"z": -1.5341109414,
				"element": "H" 
			}
		],
		 "valence_orbital": [ 
			{
				"type": "occ",
				"energy": -0.32109,
				"method": "rhf"
			},
			{
				"type": "occ",
				"energy": -0.31353,
				"method": "rhf"
			},
			{
				"type": "occ",
				"energy": -0.2906,
				"method": "rhf"
			},
			{
				"type": "occ",
				"energy": -0.2891,
				"method": "rhf"
			},
			{
				"type": "occ",
				"energy": -0.26897,
				"method": "rhf"
			},
			{
				"type": "unocc",
				"energy": -0.10704,
				"method": "rhf"
			},
			{
				"type": "unocc",
				"energy": -0.07249,
				"method": "rhf"
			},
			{
				"type": "unocc",
				"energy": -0.02201,
				"method": "rhf"
			},
			{
				"type": "unocc",
				"energy": 0.01381,
				"method": "rhf"
			},
			{
				"type": "unocc",
				"energy": 0.07052,
				"method": "rhf"
			}
		],
		"cosmo_sigma_profile": { 
			"-0.025": 0.0,
			"-0.024": 0.0,
			"-0.023": 0.0,
			"-0.022": 0.0,
			"-0.021": 0.0,
			"-0.02": 0.0,
			"-0.019": 0.0,
			"-0.018": 0.0,
			"-0.017": 0.0,
			"-0.016": 0.0,
			"-0.015": 0.0,
			"-0.014": 0.0,
			"-0.013": 0.0,
			"-0.012": 0.00021344785004,
			"-0.011": 0.244919152288,
			"-0.01": 0.840400795258,
			"-0.009": 1.04876295554,
			"-0.008": 6.57236120724,
			"-0.007": 12.0749106821,
			"-0.006": 11.8207279687,
			"-0.005": 9.81578091264,
			"-0.004": 8.64252029035,
			"-0.003": 9.10848941654,
			"-0.002": 12.4504357014,
			"-0.001": 14.0948981145,
			"0.0": 16.9563639738,
			"0.001": 14.5714435181,
			"0.002": 4.17842588077,
			"0.003": 4.87954783633,
			"0.004": 4.13331323317,
			"0.005": 5.06112970883,
			"0.006": 6.03942358138,
			"0.007": 9.60080229551,
			"0.008": 7.22555653407,
			"0.009": 5.45650155727,
			"0.01": 4.6036840846,
			"0.011": 2.7228965787,
			"0.012": 1.03421868805,
			"0.013": 0.00374447905865,
			"0.014": 0.0,
			"0.015": 0.0,
			"0.016": 0.0,
			"0.017": 0.0,
			"0.018": 0.0,
			"0.019": 0.0,
			"0.02": 0.0,
			"0.021": 0.0,
			"0.022": 0.0,
			"0.023": 0.0,
			"0.024": 0.0,
			"0.025": 0.0
		}
	}
}
