{
	 "smiles": "FC1=C(F)C(F)=C(P(C2=CC=CC=C2)C2=C(F)C(F)=C(F)C(F)=C2F)C(F)=C1F", 
	 "Tm": 334.65, 
	 "num_atms": 34, 
	 "gaussian": { 
		 "optdone": 1, 
		 "sigma_profile": "yes", 
		 "theory": "DFT", 
		 "functional": "B3LYP", 
		 "basiset": "6-31G**", 
		 "properties": { 
			 "R2extent": 11599.262, 
			 "electric_dipole_moment_norm": 2.49753268847, 
			 "electric_quadrupole_moment_norm": 12.0091386269, 
			 "total_energy": -2028.54525356, 
			 "HOMO_LUMO_gap": 0.19265, 
			 "cosmo_polarized_energy": -6.22, 
			 "cosmo_cavitation_energy": 45.78, 
			 "cosmo_dispersion_energy": -30.09, 
			 "cosmo_repulsion_energy": 2.14, 
			 "cosmo_total_nonelectrostatic_energy": 17.83, 
			 "SMD_solvation_energy": 12.32 
		},
		"coords": [
			{
				"x": -4.9385363302,
				"y": 2.9995819583,
				"z": 0.5110135171,
				"element": "F" 
			},
			{
				"x": -4.0009171101,
				"y": 2.0576896069,
				"z": 0.4014359506,
				"element": "C" 
			},
			{
				"x": -4.3302623368,
				"y": 0.7948395871,
				"z": -0.0808955027,
				"element": "C" 
			},
			{
				"x": -5.5893784878,
				"y": 0.5219329883,
				"z": -0.4371350862,
				"element": "F" 
			},
			{
				"x": -3.3367412258,
				"y": -0.1767081854,
				"z": -0.1877426932,
				"element": "C" 
			},
			{
				"x": -3.7037100921,
				"y": -1.3762362149,
				"z": -0.6635156633,
				"element": "F" 
			},
			{
				"x": -2.0046201222,
				"y": 0.0638727946,
				"z": 0.1677176129,
				"element": "C" 
			},
			{
				"x": -0.8123335186,
				"y": -1.3480865864,
				"z": -0.0689701016,
				"element": "P" 
			},
			{
				"x": 0.088884941,
				"y": -0.7727791985,
				"z": -1.5796475709,
				"element": "C" 
			},
			{
				"x": 0.795652923,
				"y": 0.4360606481,
				"z": -1.6883072907,
				"element": "C" 
			},
			{
				"x": 1.409149935,
				"y": 0.7837233835,
				"z": -2.8901095764,
				"element": "C" 
			},
			{
				"x": 1.3217713799,
				"y": -0.0646900695,
				"z": -3.998031117,
				"element": "C" 
			},
			{
				"x": 0.6192097846,
				"y": -1.2647357771,
				"z": -3.9001703198,
				"element": "C" 
			},
			{
				"x": 0.0070563673,
				"y": -1.6182355462,
				"z": -2.6951835646,
				"element": "C" 
			},
			{
				"x": 0.4076712878,
				"y": -1.1146405587,
				"z": 1.3143406544,
				"element": "C" 
			},
			{
				"x": 1.7570788649,
				"y": -1.4563948576,
				"z": 1.1607765015,
				"element": "C" 
			},
			{
				"x": 2.2311710388,
				"y": -1.8472708948,
				"z": -0.0329237991,
				"element": "F" 
			},
			{
				"x": 2.6636424389,
				"y": -1.4317679121,
				"z": 2.2186902419,
				"element": "C" 
			},
			{
				"x": 3.9457687408,
				"y": -1.7536734966,
				"z": 2.015579939,
				"element": "F" 
			},
			{
				"x": 2.227556321,
				"y": -1.0837570812,
				"z": 3.4933214549,
				"element": "C" 
			},
			{
				"x": 3.0848894456,
				"y": -1.0602628299,
				"z": 4.5159543398,
				"element": "F" 
			},
			{
				"x": 0.8861191801,
				"y": -0.7696060398,
				"z": 3.6943598064,
				"element": "C" 
			},
			{
				"x": 0.4502096129,
				"y": -0.4468331699,
				"z": 4.9167739413,
				"element": "F" 
			},
			{
				"x": 0.0049557301,
				"y": -0.8041646681,
				"z": 2.6183101581,
				"element": "C" 
			},
			{
				"x": -1.2851331846,
				"y": -0.5240779997,
				"z": 2.8790883259,
				"element": "F" 
			},
			{
				"x": -1.7156948013,
				"y": 1.3473120693,
				"z": 0.6413063742,
				"element": "C" 
			},
			{
				"x": -0.4628691979,
				"y": 1.6787767799,
				"z": 1.0063212237,
				"element": "F" 
			},
			{
				"x": -2.6851692336,
				"y": 2.3368609171,
				"z": 0.7663190901,
				"element": "C" 
			},
			{
				"x": -2.3651558997,
				"y": 3.5501141467,
				"z": 1.2289303629,
				"element": "F" 
			},
			{
				"x": 0.8661197188,
				"y": 1.1038062331,
				"z": -0.8369559791,
				"element": "H" 
			},
			{
				"x": 1.9566322628,
				"y": 1.7191125852,
				"z": -2.9634629451,
				"element": "H" 
			},
			{
				"x": 1.8008897716,
				"y": 0.2114693299,
				"z": -4.9328971698,
				"element": "H" 
			},
			{
				"x": 0.5482229757,
				"y": -1.9286373084,
				"z": -4.7567409399,
				"element": "H" 
			},
			{
				"x": -0.5344311801,
				"y": -2.5570946332,
				"z": -2.6194501756,
				"element": "H" 
			}
		],
		 "valence_orbital": [ 
			{
				"type": "occ",
				"energy": -0.266,
				"method": "rhf"
			},
			{
				"type": "occ",
				"energy": -0.26306,
				"method": "rhf"
			},
			{
				"type": "occ",
				"energy": -0.26211,
				"method": "rhf"
			},
			{
				"type": "occ",
				"energy": -0.25792,
				"method": "rhf"
			},
			{
				"type": "occ",
				"energy": -0.24424,
				"method": "rhf"
			},
			{
				"type": "unocc",
				"energy": -0.05159,
				"method": "rhf"
			},
			{
				"type": "unocc",
				"energy": -0.03968,
				"method": "rhf"
			},
			{
				"type": "unocc",
				"energy": -0.03222,
				"method": "rhf"
			},
			{
				"type": "unocc",
				"energy": -0.02321,
				"method": "rhf"
			},
			{
				"type": "unocc",
				"energy": -0.01967,
				"method": "rhf"
			}
		],
		"cosmo_sigma_profile": { 
			"-0.025": 0.0,
			"-0.024": 0.0,
			"-0.023": 0.0,
			"-0.022": 0.0,
			"-0.021": 0.0,
			"-0.02": 0.0,
			"-0.019": 0.0,
			"-0.018": 0.0,
			"-0.017": 0.0,
			"-0.016": 0.0,
			"-0.015": 0.0,
			"-0.014": 0.0,
			"-0.013": 0.0,
			"-0.012": 0.0,
			"-0.011": 0.0,
			"-0.01": 0.0,
			"-0.009": 0.0,
			"-0.008": 0.0,
			"-0.007": 1.03923002289,
			"-0.006": 8.24176796223,
			"-0.005": 13.00061336,
			"-0.004": 33.6850996271,
			"-0.003": 42.8198719271,
			"-0.002": 32.0116914509,
			"-0.001": 26.8507665343,
			"0.0": 25.622089301,
			"0.001": 30.2703028049,
			"0.002": 73.3051270488,
			"0.003": 60.071351925,
			"0.004": 14.0538736207,
			"0.005": 7.47014497988,
			"0.006": 1.19325044728,
			"0.007": 0.978818026639,
			"0.008": 0.73811179063,
			"0.009": 0.701952409344,
			"0.01": 0.100324411306,
			"0.011": 0.0,
			"0.012": 0.0,
			"0.013": 0.0,
			"0.014": 0.0,
			"0.015": 0.0,
			"0.016": 0.0,
			"0.017": 0.0,
			"0.018": 0.0,
			"0.019": 0.0,
			"0.02": 0.0,
			"0.021": 0.0,
			"0.022": 0.0,
			"0.023": 0.0,
			"0.024": 0.0,
			"0.025": 0.0
		}
	}
}
