{
	 "smiles": "NCC1=CN=C(Cl)C=C1", 
	 "Tm": 303.15, 
	 "num_atms": 16, 
	 "gaussian": { 
		 "optdone": 1, 
		 "sigma_profile": "yes", 
		 "theory": "DFT", 
		 "functional": "B3LYP", 
		 "basiset": "6-31G**", 
		 "properties": { 
			 "R2extent": 2324.6939, 
			 "electric_dipole_moment_norm": 2.72898362399, 
			 "electric_quadrupole_moment_norm": 14.6627468446, 
			 "total_energy": -802.543784571, 
			 "HOMO_LUMO_gap": 0.20247, 
			 "cosmo_polarized_energy": -10.95, 
			 "cosmo_cavitation_energy": 21.92, 
			 "cosmo_dispersion_energy": -16.28, 
			 "cosmo_repulsion_energy": 1.36, 
			 "cosmo_total_nonelectrostatic_energy": 7.0, 
			 "SMD_solvation_energy": 0.68 
		},
		"coords": [
			{
				"x": -1.7034878318,
				"y": -1.8234869852,
				"z": 1.6151304304,
				"element": "N" 
			},
			{
				"x": -1.6998290444,
				"y": -0.8453229013,
				"z": 0.5178354006,
				"element": "C" 
			},
			{
				"x": -0.4270921982,
				"y": -0.7883368056,
				"z": -0.3074772736,
				"element": "C" 
			},
			{
				"x": 0.5788956604,
				"y": 0.142066219,
				"z": -0.0299893198,
				"element": "C" 
			},
			{
				"x": 1.7471645634,
				"y": 0.2112408113,
				"z": -0.6845912177,
				"element": "N" 
			},
			{
				"x": 1.9463002937,
				"y": -0.65874797,
				"z": -1.6559055379,
				"element": "C" 
			},
			{
				"x": 3.4863432083,
				"y": -0.560533514,
				"z": -2.5097881264,
				"element": "Cl" 
			},
			{
				"x": 1.0256080317,
				"y": -1.6354138828,
				"z": -2.0482340742,
				"element": "C" 
			},
			{
				"x": -0.1773949377,
				"y": -1.688864842,
				"z": -1.3532809407,
				"element": "C" 
			},
			{
				"x": -1.5432975264,
				"y": -2.7579022498,
				"z": 1.2444925584,
				"element": "H" 
			},
			{
				"x": -0.9240224377,
				"y": -1.6353397032,
				"z": 2.242269206,
				"element": "H" 
			},
			{
				"x": -2.5502462839,
				"y": -1.0740168865,
				"z": -0.1346853459,
				"element": "H" 
			},
			{
				"x": -1.895831181,
				"y": 0.1419644491,
				"z": 0.9505781064,
				"element": "H" 
			},
			{
				"x": 0.4387272386,
				"y": 0.8783624467,
				"z": 0.7607601402,
				"element": "H" 
			},
			{
				"x": 1.2483390105,
				"y": -2.3123121286,
				"z": -2.8644537204,
				"element": "H" 
			},
			{
				"x": -0.9267765655,
				"y": -2.4279560573,
				"z": -1.6283602855,
				"element": "H" 
			}
		],
		 "valence_orbital": [ 
			{
				"type": "occ",
				"energy": -0.31398,
				"method": "rhf"
			},
			{
				"type": "occ",
				"energy": -0.30168,
				"method": "rhf"
			},
			{
				"type": "occ",
				"energy": -0.27944,
				"method": "rhf"
			},
			{
				"type": "occ",
				"energy": -0.26471,
				"method": "rhf"
			},
			{
				"type": "occ",
				"energy": -0.24279,
				"method": "rhf"
			},
			{
				"type": "unocc",
				"energy": -0.04032,
				"method": "rhf"
			},
			{
				"type": "unocc",
				"energy": -0.02735,
				"method": "rhf"
			},
			{
				"type": "unocc",
				"energy": 0.03249,
				"method": "rhf"
			},
			{
				"type": "unocc",
				"energy": 0.07818,
				"method": "rhf"
			},
			{
				"type": "unocc",
				"energy": 0.10625,
				"method": "rhf"
			}
		],
		"cosmo_sigma_profile": { 
			"-0.025": 0.0,
			"-0.024": 0.0,
			"-0.023": 0.0,
			"-0.022": 0.0,
			"-0.021": 0.0,
			"-0.02": 0.0,
			"-0.019": 0.0,
			"-0.018": 0.0,
			"-0.017": 0.0,
			"-0.016": 0.0,
			"-0.015": 0.0,
			"-0.014": 0.0,
			"-0.013": 0.0,
			"-0.012": 0.0,
			"-0.011": 0.0,
			"-0.01": 1.38593384888,
			"-0.009": 2.69962601471,
			"-0.008": 6.23100560588,
			"-0.007": 11.4253691188,
			"-0.006": 12.2194509979,
			"-0.005": 10.2606466934,
			"-0.004": 9.92486920114,
			"-0.003": 8.46607157871,
			"-0.002": 10.2625067764,
			"-0.001": 10.3208663819,
			"0.0": 15.5111761053,
			"0.001": 16.9543646482,
			"0.002": 10.9331540762,
			"0.003": 8.11029071737,
			"0.004": 10.0232519421,
			"0.005": 9.06311043585,
			"0.006": 3.18505130684,
			"0.007": 3.2443932902,
			"0.008": 2.54549152906,
			"0.009": 2.06151015597,
			"0.01": 1.81236280877,
			"0.011": 1.45299824635,
			"0.012": 0.983522697468,
			"0.013": 2.35686210806,
			"0.014": 1.43366758577,
			"0.015": 0.818785504682,
			"0.016": 1.05006746221,
			"0.017": 0.405357384344,
			"0.018": 0.455265417733,
			"0.019": 0.810381410014,
			"0.02": 0.0480718787748,
			"0.021": 0.0,
			"0.022": 0.0,
			"0.023": 0.0,
			"0.024": 0.0,
			"0.025": 0.0
		}
	}
}
