{
	 "smiles": "[O-][N+](=O)C1=CC(=CC(F)=C1)S(Cl)(=O)=O", 
	 "Tm": 314.15, 
	 "num_atms": 17, 
	 "gaussian": { 
		 "optdone": 1, 
		 "sigma_profile": "yes", 
		 "theory": "DFT", 
		 "functional": "B3LYP", 
		 "basiset": "6-31G**", 
		 "properties": { 
			 "R2extent": 4133.792, 
			 "electric_dipole_moment_norm": 3.14837971026, 
			 "electric_quadrupole_moment_norm": 12.1050795776, 
			 "total_energy": -1544.12517392, 
			 "HOMO_LUMO_gap": 0.18382, 
			 "cosmo_polarized_energy": -11.42, 
			 "cosmo_cavitation_energy": 27.23, 
			 "cosmo_dispersion_energy": -20.04, 
			 "cosmo_repulsion_energy": 1.51, 
			 "cosmo_total_nonelectrostatic_energy": 8.71, 
			 "SMD_solvation_energy": 6.23 
		},
		"coords": [
			{
				"x": -2.7920498689,
				"y": -0.3525327051,
				"z": -1.9264561969,
				"element": "O" 
			},
			{
				"x": -1.755637302,
				"y": -0.8884922334,
				"z": -1.5445784431,
				"element": "N" 
			},
			{
				"x": -1.4713171585,
				"y": -2.0742743205,
				"z": -1.6811861824,
				"element": "O" 
			},
			{
				"x": -0.7631705889,
				"y": -0.0301284233,
				"z": -0.8617323747,
				"element": "C" 
			},
			{
				"x": 0.4233240815,
				"y": -0.6059044093,
				"z": -0.4184425425,
				"element": "C" 
			},
			{
				"x": 1.3274135234,
				"y": 0.2379504024,
				"z": 0.2206559403,
				"element": "C" 
			},
			{
				"x": 1.084333707,
				"y": 1.5952202542,
				"z": 0.4298014902,
				"element": "C" 
			},
			{
				"x": -0.121571247,
				"y": 2.1097522138,
				"z": -0.0369938722,
				"element": "C" 
			},
			{
				"x": -0.3864452013,
				"y": 3.4081105476,
				"z": 0.1503856744,
				"element": "F" 
			},
			{
				"x": -1.0620005296,
				"y": 1.3179982944,
				"z": -0.6868223819,
				"element": "C" 
			},
			{
				"x": 2.8671606388,
				"y": -0.4560250235,
				"z": 0.8322733736,
				"element": "S" 
			},
			{
				"x": 4.1231637002,
				"y": -0.182318687,
				"z": -0.854795034,
				"element": "Cl" 
			},
			{
				"x": 2.701246968,
				"y": -1.8918117835,
				"z": 1.0029085669,
				"element": "O" 
			},
			{
				"x": 3.3844315995,
				"y": 0.4105658951,
				"z": 1.8820670065,
				"element": "O" 
			},
			{
				"x": 0.6172296171,
				"y": -1.6609205886,
				"z": -0.5627652629,
				"element": "H" 
			},
			{
				"x": 1.7971230686,
				"y": 2.2292912317,
				"z": 0.9437805636,
				"element": "H" 
			},
			{
				"x": -1.9972350079,
				"y": 1.7296193349,
				"z": -1.0437003252,
				"element": "H" 
			}
		],
		 "valence_orbital": [ 
			{
				"type": "occ",
				"energy": -0.3356,
				"method": "rhf"
			},
			{
				"type": "occ",
				"energy": -0.3326,
				"method": "rhf"
			},
			{
				"type": "occ",
				"energy": -0.32573,
				"method": "rhf"
			},
			{
				"type": "occ",
				"energy": -0.32177,
				"method": "rhf"
			},
			{
				"type": "occ",
				"energy": -0.30826,
				"method": "rhf"
			},
			{
				"type": "unocc",
				"energy": -0.12444,
				"method": "rhf"
			},
			{
				"type": "unocc",
				"energy": -0.10798,
				"method": "rhf"
			},
			{
				"type": "unocc",
				"energy": -0.06881,
				"method": "rhf"
			},
			{
				"type": "unocc",
				"energy": -0.03685,
				"method": "rhf"
			},
			{
				"type": "unocc",
				"energy": 0.02733,
				"method": "rhf"
			}
		],
		"cosmo_sigma_profile": { 
			"-0.025": 0.0,
			"-0.024": 0.0,
			"-0.023": 0.0,
			"-0.022": 0.0,
			"-0.021": 0.0,
			"-0.02": 0.0,
			"-0.019": 0.0,
			"-0.018": 0.0,
			"-0.017": 0.0,
			"-0.016": 0.0,
			"-0.015": 0.0,
			"-0.014": 0.0,
			"-0.013": 0.0,
			"-0.012": 0.0,
			"-0.011": 0.619183833037,
			"-0.01": 2.77512205358,
			"-0.009": 3.91285420244,
			"-0.008": 5.55487256773,
			"-0.007": 7.83937301084,
			"-0.006": 8.37660901357,
			"-0.005": 11.8518190848,
			"-0.004": 23.0013936111,
			"-0.003": 21.7269637716,
			"-0.002": 11.5331112253,
			"-0.001": 10.0128713041,
			"0.0": 9.01145708076,
			"0.001": 12.3241855792,
			"0.002": 20.8285626212,
			"0.003": 20.0931581165,
			"0.004": 4.63686829784,
			"0.005": 7.4754928408,
			"0.006": 11.6347625798,
			"0.007": 15.6597741533,
			"0.008": 11.2463992911,
			"0.009": 2.89718924629,
			"0.01": 0.00479158701182,
			"0.011": 0.0,
			"0.012": 0.0,
			"0.013": 0.0,
			"0.014": 0.0,
			"0.015": 0.0,
			"0.016": 0.0,
			"0.017": 0.0,
			"0.018": 0.0,
			"0.019": 0.0,
			"0.02": 0.0,
			"0.021": 0.0,
			"0.022": 0.0,
			"0.023": 0.0,
			"0.024": 0.0,
			"0.025": 0.0
		}
	}
}
