{
	 "smiles": "CC1OC(OC2=C(OC3=C(C(O)=CC(O)=C3)C2=O)C2=CC(O)=C(O)C=C2)C(O)C(O)C1O", 
	 "Tm": 443.15, 
	 "num_atms": 52, 
	 "gaussian": { 
		 "optdone": 1, 
		 "sigma_profile": "yes", 
		 "theory": "DFT", 
		 "functional": "B3LYP", 
		 "basiset": "6-31G**", 
		 "properties": { 
			 "R2extent": 14264.1814, 
			 "electric_dipole_moment_norm": 7.39995290661, 
			 "electric_quadrupole_moment_norm": 22.914893931, 
			 "total_energy": -1639.71919859, 
			 "HOMO_LUMO_gap": 0.14404, 
			 "cosmo_polarized_energy": -30.77, 
			 "cosmo_cavitation_energy": 53.29, 
			 "cosmo_dispersion_energy": -37.25, 
			 "cosmo_repulsion_energy": 2.76, 
			 "cosmo_total_nonelectrostatic_energy": 18.79, 
			 "SMD_solvation_energy": 10.22 
		},
		"coords": [
			{
				"x": -3.5026361831,
				"y": -1.9015882667,
				"z": -1.8788328047,
				"element": "C" 
			},
			{
				"x": -3.1932906942,
				"y": -1.1075687087,
				"z": -0.6051228973,
				"element": "C" 
			},
			{
				"x": -1.8137606413,
				"y": -0.7120025391,
				"z": -0.5300911442,
				"element": "O" 
			},
			{
				"x": -1.4483053319,
				"y": 0.3268718606,
				"z": -1.4123774636,
				"element": "C" 
			},
			{
				"x": -0.0284773314,
				"y": 0.4702838815,
				"z": -1.3624961451,
				"element": "O" 
			},
			{
				"x": 0.5839370239,
				"y": 0.7977406261,
				"z": -0.1758785943,
				"element": "C" 
			},
			{
				"x": 1.1112128977,
				"y": -0.1704747135,
				"z": 0.6465120275,
				"element": "C" 
			},
			{
				"x": 1.7627584754,
				"y": 0.1805580412,
				"z": 1.7948458762,
				"element": "O" 
			},
			{
				"x": 1.9581408719,
				"y": 1.4809301809,
				"z": 2.1568766101,
				"element": "C" 
			},
			{
				"x": 1.5179116086,
				"y": 2.5181307472,
				"z": 1.3176467073,
				"element": "C" 
			},
			{
				"x": 1.7686034253,
				"y": 3.8633101048,
				"z": 1.72041624,
				"element": "C" 
			},
			{
				"x": 1.3726805111,
				"y": 4.8872599208,
				"z": 0.9577889025,
				"element": "O" 
			},
			{
				"x": 2.4276606148,
				"y": 4.1126512649,
				"z": 2.9223770077,
				"element": "C" 
			},
			{
				"x": 2.8429188351,
				"y": 3.0415003602,
				"z": 3.7267283195,
				"element": "C" 
			},
			{
				"x": 3.4890292693,
				"y": 3.2441934631,
				"z": 4.9039130774,
				"element": "O" 
			},
			{
				"x": 2.6167362063,
				"y": 1.7111158637,
				"z": 3.3572547384,
				"element": "C" 
			},
			{
				"x": 0.8129756729,
				"y": 2.2090906104,
				"z": 0.0959994449,
				"element": "C" 
			},
			{
				"x": 0.4198235531,
				"y": 3.1227769116,
				"z": -0.681917332,
				"element": "O" 
			},
			{
				"x": 1.1112210994,
				"y": -1.6312329197,
				"z": 0.4672932829,
				"element": "C" 
			},
			{
				"x": 0.9832240325,
				"y": -2.2201833719,
				"z": -0.8053894581,
				"element": "C" 
			},
			{
				"x": 1.0289890289,
				"y": -3.5991084428,
				"z": -0.9499052703,
				"element": "C" 
			},
			{
				"x": 0.9078083173,
				"y": -4.1544791617,
				"z": -2.187844661,
				"element": "O" 
			},
			{
				"x": 1.2017600882,
				"y": -4.4168436951,
				"z": 0.1823829115,
				"element": "C" 
			},
			{
				"x": 1.2286413767,
				"y": -5.7644882474,
				"z": -0.0709643404,
				"element": "O" 
			},
			{
				"x": 1.3326450509,
				"y": -3.8446163436,
				"z": 1.4439161258,
				"element": "C" 
			},
			{
				"x": 1.2943269616,
				"y": -2.4593868033,
				"z": 1.588239838,
				"element": "C" 
			},
			{
				"x": -2.2238291823,
				"y": 1.6054875619,
				"z": -1.078655855,
				"element": "C" 
			},
			{
				"x": -1.9314892653,
				"y": 2.6345294946,
				"z": -2.0000770422,
				"element": "O" 
			},
			{
				"x": -3.7285304452,
				"y": 1.3258635523,
				"z": -1.1985058452,
				"element": "C" 
			},
			{
				"x": -4.0750836031,
				"y": 1.1060138864,
				"z": -2.5594017283,
				"element": "O" 
			},
			{
				"x": -4.1310714319,
				"y": 0.0968356736,
				"z": -0.3735401946,
				"element": "C" 
			},
			{
				"x": -4.0887497061,
				"y": 0.5415474909,
				"z": 0.9801541481,
				"element": "O" 
			},
			{
				"x": -4.482490413,
				"y": -2.3824543419,
				"z": -1.7885103384,
				"element": "H" 
			},
			{
				"x": -3.5319826075,
				"y": -1.2599801821,
				"z": -2.7606306454,
				"element": "H" 
			},
			{
				"x": -2.748045135,
				"y": -2.6811922897,
				"z": -2.0158973018,
				"element": "H" 
			},
			{
				"x": -3.3061282727,
				"y": -1.7845573677,
				"z": 0.2527937195,
				"element": "H" 
			},
			{
				"x": -1.6283042668,
				"y": 0.05952026,
				"z": -2.4592119489,
				"element": "H" 
			},
			{
				"x": 0.9285435493,
				"y": 4.4869559797,
				"z": 0.1618684353,
				"element": "H" 
			},
			{
				"x": 2.60802601,
				"y": 5.1423057843,
				"z": 3.2161510436,
				"element": "H" 
			},
			{
				"x": 3.5923139879,
				"y": 4.1933651658,
				"z": 5.0533504501,
				"element": "H" 
			},
			{
				"x": 2.9518991971,
				"y": 0.8944373013,
				"z": 3.9831978173,
				"element": "H" 
			},
			{
				"x": 0.8484973716,
				"y": -1.6109855145,
				"z": -1.6876668918,
				"element": "H" 
			},
			{
				"x": 0.9797965812,
				"y": -5.1153505159,
				"z": -2.0890605468,
				"element": "H" 
			},
			{
				"x": 1.3677173334,
				"y": -6.2534220337,
				"z": 0.7496306014,
				"element": "H" 
			},
			{
				"x": 1.4655577842,
				"y": -4.4812139394,
				"z": 2.3157799783,
				"element": "H" 
			},
			{
				"x": 1.4028138364,
				"y": -2.0220688344,
				"z": 2.5724309087,
				"element": "H" 
			},
			{
				"x": -2.0067915836,
				"y": 1.8933269058,
				"z": -0.0416525065,
				"element": "H" 
			},
			{
				"x": -1.0119550904,
				"y": 2.9073631122,
				"z": -1.8100105088,
				"element": "H" 
			},
			{
				"x": -4.2719278048,
				"y": 2.1926803812,
				"z": -0.7956000259,
				"element": "H" 
			},
			{
				"x": -3.5927811752,
				"y": 1.7887926435,
				"z": -3.0523666632,
				"element": "H" 
			},
			{
				"x": -5.1535447149,
				"y": -0.19264011,
				"z": -0.6624066756,
				"element": "H" 
			},
			{
				"x": -4.2112956924,
				"y": -0.2239006882,
				"z": 1.5552666173,
				"element": "H" 
			}
		],
		 "valence_orbital": [ 
			{
				"type": "occ",
				"energy": -0.24814,
				"method": "rhf"
			},
			{
				"type": "occ",
				"energy": -0.24442,
				"method": "rhf"
			},
			{
				"type": "occ",
				"energy": -0.23289,
				"method": "rhf"
			},
			{
				"type": "occ",
				"energy": -0.22384,
				"method": "rhf"
			},
			{
				"type": "occ",
				"energy": -0.21315,
				"method": "rhf"
			},
			{
				"type": "unocc",
				"energy": -0.06911,
				"method": "rhf"
			},
			{
				"type": "unocc",
				"energy": -0.02662,
				"method": "rhf"
			},
			{
				"type": "unocc",
				"energy": -0.00174,
				"method": "rhf"
			},
			{
				"type": "unocc",
				"energy": 0.00389,
				"method": "rhf"
			},
			{
				"type": "unocc",
				"energy": 0.03026,
				"method": "rhf"
			}
		],
		"cosmo_sigma_profile": { 
			"-0.025": 0.0,
			"-0.024": 0.0,
			"-0.023": 0.0,
			"-0.022": 0.0,
			"-0.021": 0.0,
			"-0.02": 0.0,
			"-0.019": 0.820025709017,
			"-0.018": 2.20800839822,
			"-0.017": 2.40919013537,
			"-0.016": 2.85276983843,
			"-0.015": 4.00528291694,
			"-0.014": 3.46160377332,
			"-0.013": 3.53691452937,
			"-0.012": 3.58102696061,
			"-0.011": 4.40058195565,
			"-0.01": 4.71378537022,
			"-0.009": 3.65257565933,
			"-0.008": 5.08864962584,
			"-0.007": 9.20469388452,
			"-0.006": 10.4974134492,
			"-0.005": 16.7662680068,
			"-0.004": 21.5937162811,
			"-0.003": 25.3056628549,
			"-0.002": 30.273633715,
			"-0.001": 29.9906788353,
			"0.0": 33.1382243771,
			"0.001": 34.130980658,
			"0.002": 31.1943342573,
			"0.003": 28.4591477234,
			"0.004": 23.2038764331,
			"0.005": 15.517827385,
			"0.006": 13.6592514215,
			"0.007": 10.7917183822,
			"0.008": 12.5014756043,
			"0.009": 12.2243727538,
			"0.01": 9.24691696014,
			"0.011": 6.77417650374,
			"0.012": 3.55230122862,
			"0.013": 2.1503225252,
			"0.014": 0.704333178679,
			"0.015": 0.0,
			"0.016": 0.0,
			"0.017": 0.0,
			"0.018": 0.0,
			"0.019": 0.0,
			"0.02": 0.0,
			"0.021": 0.0,
			"0.022": 0.0,
			"0.023": 0.0,
			"0.024": 0.0,
			"0.025": 0.0
		}
	}
}
