{
	 "smiles": "CS(=O)(=O)C1=CC=C2SC3=CC=CC=C3N(CCCN3CCC(CC3)C(N)=O)C2=C1", 
	 "Tm": 443.15, 
	 "num_atms": 57, 
	 "gaussian": { 
		 "optdone": 1, 
		 "sigma_profile": "yes", 
		 "theory": "DFT", 
		 "functional": "B3LYP", 
		 "basiset": "6-31G**", 
		 "properties": { 
			 "R2extent": 20012.3448, 
			 "electric_dipole_moment_norm": 7.48335167756, 
			 "electric_quadrupole_moment_norm": 57.2438299578, 
			 "total_energy": -2040.86684419, 
			 "HOMO_LUMO_gap": 0.14691, 
			 "cosmo_polarized_energy": -27.75, 
			 "cosmo_cavitation_energy": 58.55, 
			 "cosmo_dispersion_energy": -40.91, 
			 "cosmo_repulsion_energy": 2.95, 
			 "cosmo_total_nonelectrostatic_energy": 20.59, 
			 "SMD_solvation_energy": 7.82 
		},
		"coords": [
			{
				"x": -3.6532091275,
				"y": 5.0964757697,
				"z": -2.0538559892,
				"element": "C" 
			},
			{
				"x": -2.3536671686,
				"y": 5.6539585372,
				"z": -0.9239828647,
				"element": "S" 
			},
			{
				"x": -1.062370489,
				"y": 5.4162785214,
				"z": -1.5922536406,
				"element": "O" 
			},
			{
				"x": -2.7300692221,
				"y": 6.9966612765,
				"z": -0.4550761579,
				"element": "O" 
			},
			{
				"x": -2.4804313393,
				"y": 4.5164175141,
				"z": 0.4613446638,
				"element": "C" 
			},
			{
				"x": -3.416783675,
				"y": 4.7550851487,
				"z": 1.4624660603,
				"element": "C" 
			},
			{
				"x": -3.4960484203,
				"y": 3.8340737379,
				"z": 2.5054161249,
				"element": "C" 
			},
			{
				"x": -2.64351348,
				"y": 2.7292614963,
				"z": 2.561355488,
				"element": "C" 
			},
			{
				"x": -2.6673255979,
				"y": 1.7303637507,
				"z": 4.0247530181,
				"element": "S" 
			},
			{
				"x": -2.0997538099,
				"y": 0.1889849361,
				"z": 3.3389240838,
				"element": "C" 
			},
			{
				"x": -2.4878217741,
				"y": -0.993148175,
				"z": 3.9691729938,
				"element": "C" 
			},
			{
				"x": -1.9396508421,
				"y": -2.2170720488,
				"z": 3.584430677,
				"element": "C" 
			},
			{
				"x": -1.0082334697,
				"y": -2.2405558309,
				"z": 2.5507343984,
				"element": "C" 
			},
			{
				"x": -0.6469243625,
				"y": -1.0669927705,
				"z": 1.8858281618,
				"element": "C" 
			},
			{
				"x": -1.1914232033,
				"y": 0.1747083459,
				"z": 2.2606763144,
				"element": "C" 
			},
			{
				"x": -0.830685366,
				"y": 1.3722144171,
				"z": 1.5916665791,
				"element": "N" 
			},
			{
				"x": 0.3164855006,
				"y": 1.3304028207,
				"z": 0.6756287311,
				"element": "C" 
			},
			{
				"x": 0.0400612788,
				"y": 0.8281329038,
				"z": -0.7585269907,
				"element": "C" 
			},
			{
				"x": 1.3352976687,
				"y": 0.3620221078,
				"z": -1.4436666907,
				"element": "C" 
			},
			{
				"x": 1.8276634377,
				"y": -0.8940619035,
				"z": -0.8634500347,
				"element": "N" 
			},
			{
				"x": 1.2453205999,
				"y": -2.1028322666,
				"z": -1.4693395202,
				"element": "C" 
			},
			{
				"x": 1.8307390994,
				"y": -2.4536029994,
				"z": -2.852824588,
				"element": "C" 
			},
			{
				"x": 3.3763434154,
				"y": -2.5266871449,
				"z": -2.8524977608,
				"element": "C" 
			},
			{
				"x": 3.9635430394,
				"y": -1.2761785157,
				"z": -2.1451484551,
				"element": "C" 
			},
			{
				"x": 3.2885250392,
				"y": -1.0179198369,
				"z": -0.7856232983,
				"element": "C" 
			},
			{
				"x": 3.8897900849,
				"y": -3.8059954709,
				"z": -2.1863855225,
				"element": "C" 
			},
			{
				"x": 4.8890046317,
				"y": -4.4499296169,
				"z": -2.8614481255,
				"element": "N" 
			},
			{
				"x": 3.4695420314,
				"y": -4.2268514172,
				"z": -1.1130760404,
				"element": "O" 
			},
			{
				"x": -1.6990128595,
				"y": 2.4780362833,
				"z": 1.5367573957,
				"element": "C" 
			},
			{
				"x": -1.6417248037,
				"y": 3.4019717295,
				"z": 0.4792734038,
				"element": "C" 
			},
			{
				"x": -3.4491211501,
				"y": 4.068378488,
				"z": -2.3558259109,
				"element": "H" 
			},
			{
				"x": -4.6201661408,
				"y": 5.1751876817,
				"z": -1.5554232435,
				"element": "H" 
			},
			{
				"x": -3.6145621849,
				"y": 5.7631854904,
				"z": -2.9178317115,
				"element": "H" 
			},
			{
				"x": -4.0422898453,
				"y": 5.6401687095,
				"z": 1.4413919435,
				"element": "H" 
			},
			{
				"x": -4.2084768849,
				"y": 3.9854380746,
				"z": 3.310789172,
				"element": "H" 
			},
			{
				"x": -3.2054831608,
				"y": -0.9429781337,
				"z": 4.7829246833,
				"element": "H" 
			},
			{
				"x": -2.232559441,
				"y": -3.1300604104,
				"z": 4.0928880288,
				"element": "H" 
			},
			{
				"x": -0.5557166606,
				"y": -3.177758179,
				"z": 2.240662174,
				"element": "H" 
			},
			{
				"x": 0.0809036858,
				"y": -1.129462914,
				"z": 1.0861330127,
				"element": "H" 
			},
			{
				"x": 0.7487535215,
				"y": 2.3356380057,
				"z": 0.642944649,
				"element": "H" 
			},
			{
				"x": 1.0687362985,
				"y": 0.6831718462,
				"z": 1.1315837545,
				"element": "H" 
			},
			{
				"x": -0.6792396618,
				"y": 0.0030727654,
				"z": -0.7309470137,
				"element": "H" 
			},
			{
				"x": -0.4206324343,
				"y": 1.6135260097,
				"z": -1.3667968651,
				"element": "H" 
			},
			{
				"x": 2.1054158853,
				"y": 1.1316109197,
				"z": -1.3063983924,
				"element": "H" 
			},
			{
				"x": 1.165570457,
				"y": 0.2975261432,
				"z": -2.5308627796,
				"element": "H" 
			},
			{
				"x": 0.1610173147,
				"y": -1.9699851228,
				"z": -1.5525542846,
				"element": "H" 
			},
			{
				"x": 1.4255811949,
				"y": -2.9401476932,
				"z": -0.7904672469,
				"element": "H" 
			},
			{
				"x": 1.4042140458,
				"y": -3.4027194269,
				"z": -3.1975876496,
				"element": "H" 
			},
			{
				"x": 1.5327870913,
				"y": -1.6936845156,
				"z": -3.5862636978,
				"element": "H" 
			},
			{
				"x": 3.7211892446,
				"y": -2.5231955263,
				"z": -3.8948819323,
				"element": "H" 
			},
			{
				"x": 5.0469283622,
				"y": -1.3863111487,
				"z": -2.0125243187,
				"element": "H" 
			},
			{
				"x": 3.8131631048,
				"y": -0.4091504307,
				"z": -2.801235272,
				"element": "H" 
			},
			{
				"x": 3.5151842727,
				"y": -1.8490828239,
				"z": -0.1095489584,
				"element": "H" 
			},
			{
				"x": 3.694981052,
				"y": -0.1066569292,
				"z": -0.3333678159,
				"element": "H" 
			},
			{
				"x": 5.2842755879,
				"y": -5.2798219534,
				"z": -2.4451681527,
				"element": "H" 
			},
			{
				"x": 5.2415734358,
				"y": -4.132673483,
				"z": -3.7489980912,
				"element": "H" 
			},
			{
				"x": -0.9311938071,
				"y": 3.294463257,
				"z": -0.3271064958,
				"element": "H" 
			}
		],
		 "valence_orbital": [ 
			{
				"type": "occ",
				"energy": -0.26151,
				"method": "rhf"
			},
			{
				"type": "occ",
				"energy": -0.25074,
				"method": "rhf"
			},
			{
				"type": "occ",
				"energy": -0.2292,
				"method": "rhf"
			},
			{
				"type": "occ",
				"energy": -0.20998,
				"method": "rhf"
			},
			{
				"type": "occ",
				"energy": -0.18489,
				"method": "rhf"
			},
			{
				"type": "unocc",
				"energy": -0.03798,
				"method": "rhf"
			},
			{
				"type": "unocc",
				"energy": -0.01895,
				"method": "rhf"
			},
			{
				"type": "unocc",
				"energy": -0.00436,
				"method": "rhf"
			},
			{
				"type": "unocc",
				"energy": 0.0116,
				"method": "rhf"
			},
			{
				"type": "unocc",
				"energy": 0.02115,
				"method": "rhf"
			}
		],
		"cosmo_sigma_profile": { 
			"-0.025": 0.0,
			"-0.024": 0.0,
			"-0.023": 0.0,
			"-0.022": 0.0,
			"-0.021": 0.0,
			"-0.02": 0.0,
			"-0.019": 0.0,
			"-0.018": 0.0,
			"-0.017": 0.0,
			"-0.016": 0.0,
			"-0.015": 0.0478690679822,
			"-0.014": 1.29973611346,
			"-0.013": 2.52678333935,
			"-0.012": 2.08590928522,
			"-0.011": 2.34354004647,
			"-0.01": 2.73381753343,
			"-0.009": 3.44684627763,
			"-0.008": 8.71373842485,
			"-0.007": 13.3649093141,
			"-0.006": 18.9963003733,
			"-0.005": 22.197575944,
			"-0.004": 34.2020635616,
			"-0.003": 47.3671628244,
			"-0.002": 43.4447381391,
			"-0.001": 41.2100293448,
			"0.0": 36.7491596432,
			"0.001": 24.4119659292,
			"0.002": 30.9287303867,
			"0.003": 26.8079759321,
			"0.004": 22.1756157144,
			"0.005": 16.1514857363,
			"0.006": 10.7058852353,
			"0.007": 6.86828710628,
			"0.008": 4.67611851048,
			"0.009": 5.61700311079,
			"0.01": 4.43584833163,
			"0.011": 10.7589675635,
			"0.012": 10.5494085234,
			"0.013": 3.65965508389,
			"0.014": 3.71869219616,
			"0.015": 1.66070372199,
			"0.016": 0.018430380884,
			"0.017": 0.0,
			"0.018": 0.0,
			"0.019": 0.0,
			"0.02": 0.0,
			"0.021": 0.0,
			"0.022": 0.0,
			"0.023": 0.0,
			"0.024": 0.0,
			"0.025": 0.0
		}
	}
}
