{
	 "smiles": "BrC1=CC=C(C=C1)C1=NC=NO1", 
	 "Tm": 383.15, 
	 "num_atms": 17, 
	 "gaussian": { 
		 "optdone": 1, 
		 "sigma_profile": "yes", 
		 "theory": "DFT", 
		 "functional": "B3LYP", 
		 "basiset": "6-31G**", 
		 "properties": { 
			 "R2extent": 4163.5955, 
			 "electric_dipole_moment_norm": 1.0113669611, 
			 "electric_quadrupole_moment_norm": 7.11288622642, 
			 "total_energy": -3063.95401364, 
			 "HOMO_LUMO_gap": 0.17932, 
			 "cosmo_polarized_energy": -7.37, 
			 "cosmo_cavitation_energy": 24.75, 
			 "cosmo_dispersion_energy": -18.89, 
			 "cosmo_repulsion_energy": 1.48, 
			 "cosmo_total_nonelectrostatic_energy": 7.34, 
			 "SMD_solvation_energy": 1.62 
		},
		"coords": [
			{
				"x": 1.9479518464,
				"y": 0.3392647185,
				"z": 3.3505111848,
				"element": "Br" 
			},
			{
				"x": 1.1040897434,
				"y": 0.354177882,
				"z": 1.6408786959,
				"element": "C" 
			},
			{
				"x": -0.2061382148,
				"y": 0.8211298425,
				"z": 1.5289268811,
				"element": "C" 
			},
			{
				"x": -0.8200810602,
				"y": 0.831108555,
				"z": 0.2797834001,
				"element": "C" 
			},
			{
				"x": -0.1264612057,
				"y": 0.3760526006,
				"z": -0.852170108,
				"element": "C" 
			},
			{
				"x": 1.191042628,
				"y": -0.0900780031,
				"z": -0.7201510255,
				"element": "C" 
			},
			{
				"x": 1.8092755483,
				"y": -0.1022596329,
				"z": 0.5256052807,
				"element": "C" 
			},
			{
				"x": -0.7501846331,
				"y": 0.3773917126,
				"z": -2.1716684099,
				"element": "C" 
			},
			{
				"x": -0.232833383,
				"y": -0.0131858513,
				"z": -3.3092559318,
				"element": "N" 
			},
			{
				"x": -1.262280209,
				"y": 0.2164917108,
				"z": -4.1832085784,
				"element": "C" 
			},
			{
				"x": -2.3525930072,
				"y": 0.7131888508,
				"z": -3.6577728975,
				"element": "N" 
			},
			{
				"x": -2.0151034948,
				"y": 0.8250244599,
				"z": -2.2981552988,
				"element": "O" 
			},
			{
				"x": -0.73663422,
				"y": 1.171297068,
				"z": 2.4066340106,
				"element": "H" 
			},
			{
				"x": -1.8381713654,
				"y": 1.1917845865,
				"z": 0.1803374807,
				"element": "H" 
			},
			{
				"x": 1.7183745231,
				"y": -0.439586968,
				"z": -1.6011529371,
				"element": "H" 
			},
			{
				"x": 2.8262144893,
				"y": -0.4609867802,
				"z": 0.6336361322,
				"element": "H" 
			},
			{
				"x": -1.2009679852,
				"y": 0.0087852483,
				"z": -5.2432778793,
				"element": "H" 
			}
		],
		 "valence_orbital": [ 
			{
				"type": "occ",
				"energy": -0.30613,
				"method": "rhf"
			},
			{
				"type": "occ",
				"energy": -0.3001,
				"method": "rhf"
			},
			{
				"type": "occ",
				"energy": -0.29918,
				"method": "rhf"
			},
			{
				"type": "occ",
				"energy": -0.2815,
				"method": "rhf"
			},
			{
				"type": "occ",
				"energy": -0.25032,
				"method": "rhf"
			},
			{
				"type": "unocc",
				"energy": -0.071,
				"method": "rhf"
			},
			{
				"type": "unocc",
				"energy": -0.03046,
				"method": "rhf"
			},
			{
				"type": "unocc",
				"energy": -0.00467,
				"method": "rhf"
			},
			{
				"type": "unocc",
				"energy": 0.0036,
				"method": "rhf"
			},
			{
				"type": "unocc",
				"energy": 0.04926,
				"method": "rhf"
			}
		],
		"cosmo_sigma_profile": { 
			"-0.025": 0.0,
			"-0.024": 0.0,
			"-0.023": 0.0,
			"-0.022": 0.0,
			"-0.021": 0.0,
			"-0.02": 0.0,
			"-0.019": 0.0,
			"-0.018": 0.0,
			"-0.017": 0.0,
			"-0.016": 0.0,
			"-0.015": 0.0,
			"-0.014": 0.0,
			"-0.013": 0.0,
			"-0.012": 0.00310564645954,
			"-0.011": 1.23479658519,
			"-0.01": 1.8102902656,
			"-0.009": 1.73370696723,
			"-0.008": 4.33246826676,
			"-0.007": 8.65418000303,
			"-0.006": 8.81522971041,
			"-0.005": 8.18115096828,
			"-0.004": 11.2377484421,
			"-0.003": 12.0351036002,
			"-0.002": 15.6672040798,
			"-0.001": 15.1811374164,
			"0.0": 19.3990913775,
			"0.001": 24.8464276333,
			"0.002": 18.8210621359,
			"0.003": 11.6626121908,
			"0.004": 14.6643683726,
			"0.005": 5.39208112057,
			"0.006": 4.61531730584,
			"0.007": 2.6796569192,
			"0.008": 2.71170472547,
			"0.009": 2.57396699214,
			"0.01": 2.34985745463,
			"0.011": 2.32765314112,
			"0.012": 2.31646968588,
			"0.013": 0.761242117635,
			"0.014": 0.0,
			"0.015": 0.0,
			"0.016": 0.0,
			"0.017": 0.0,
			"0.018": 0.0,
			"0.019": 0.0,
			"0.02": 0.0,
			"0.021": 0.0,
			"0.022": 0.0,
			"0.023": 0.0,
			"0.024": 0.0,
			"0.025": 0.0
		}
	}
}
