{
	 "smiles": "CC1C(=O)CCC2C1(C)CCC1C2(C)CCC2(C)C3CC(C)(C)CCC3(C)CCC12C", 
	 "Tm": 536.15, 
	 "num_atms": 81, 
	 "gaussian": { 
		 "optdone": 1, 
		 "sigma_profile": "yes", 
		 "theory": "DFT", 
		 "functional": "B3LYP", 
		 "basiset": "6-31G**", 
		 "properties": { 
			 "R2extent": 16102.9383, 
			 "electric_dipole_moment_norm": 3.23140579315, 
			 "electric_quadrupole_moment_norm": 32.5905953818, 
			 "total_energy": -1248.54601651, 
			 "HOMO_LUMO_gap": 0.21985, 
			 "cosmo_polarized_energy": -8.04, 
			 "cosmo_cavitation_energy": 60.63, 
			 "cosmo_dispersion_energy": -42.25, 
			 "cosmo_repulsion_energy": 2.97, 
			 "cosmo_total_nonelectrostatic_energy": 21.35, 
			 "SMD_solvation_energy": 9.33 
		},
		"coords": [
			{
				"x": -5.9814841428,
				"y": 2.2573291361,
				"z": -1.8541875208,
				"element": "C" 
			},
			{
				"x": -5.4470200341,
				"y": 0.8486945101,
				"z": -1.5331986208,
				"element": "C" 
			},
			{
				"x": -6.0414471736,
				"y": -0.1543963436,
				"z": -2.5316479482,
				"element": "C" 
			},
			{
				"x": -7.2316583183,
				"y": -0.1413021359,
				"z": -2.7926869764,
				"element": "O" 
			},
			{
				"x": -5.0988267754,
				"y": -1.1366212897,
				"z": -3.1979474697,
				"element": "C" 
			},
			{
				"x": -3.9497325754,
				"y": -1.6650469165,
				"z": -2.3074499077,
				"element": "C" 
			},
			{
				"x": -3.6096132878,
				"y": -0.7900703484,
				"z": -1.0655610076,
				"element": "C" 
			},
			{
				"x": -3.9001846099,
				"y": 0.7236460295,
				"z": -1.318156064,
				"element": "C" 
			},
			{
				"x": -3.1177887058,
				"y": 1.3412592627,
				"z": -2.4998527032,
				"element": "C" 
			},
			{
				"x": -3.5361354857,
				"y": 1.4769602797,
				"z": -0.0246893576,
				"element": "C" 
			},
			{
				"x": -2.1069782521,
				"y": 1.2106449005,
				"z": 0.4408097517,
				"element": "C" 
			},
			{
				"x": -1.8576198862,
				"y": -0.2750579083,
				"z": 0.808471787,
				"element": "C" 
			},
			{
				"x": -2.2187555042,
				"y": -1.2042250793,
				"z": -0.4091898515,
				"element": "C" 
			},
			{
				"x": -2.4586033076,
				"y": -2.660060254,
				"z": 0.0717524297,
				"element": "C" 
			},
			{
				"x": -1.0322077447,
				"y": -1.1882151259,
				"z": -1.4276894807,
				"element": "C" 
			},
			{
				"x": 0.2674744765,
				"y": -0.5076948836,
				"z": -0.9513533163,
				"element": "C" 
			},
			{
				"x": 0.753344312,
				"y": -0.8886619289,
				"z": 0.4736744781,
				"element": "C" 
			},
			{
				"x": 1.0922446068,
				"y": -2.4049982299,
				"z": 0.4497004575,
				"element": "C" 
			},
			{
				"x": 2.1754722776,
				"y": -0.1937617126,
				"z": 0.8087467724,
				"element": "C" 
			},
			{
				"x": 3.0911695729,
				"y": -0.1704646386,
				"z": -0.4463720511,
				"element": "C" 
			},
			{
				"x": 4.5215207108,
				"y": 0.392887833,
				"z": -0.2586747518,
				"element": "C" 
			},
			{
				"x": 5.1783140517,
				"y": 0.4819812586,
				"z": -1.651726749,
				"element": "C" 
			},
			{
				"x": 5.3815297512,
				"y": -0.5489085764,
				"z": 0.6080162769,
				"element": "C" 
			},
			{
				"x": 4.4365111775,
				"y": 1.8251292794,
				"z": 0.3685365764,
				"element": "C" 
			},
			{
				"x": 2.9972923136,
				"y": 2.2546110469,
				"z": 0.6926894464,
				"element": "C" 
			},
			{
				"x": 2.2095794131,
				"y": 1.2185004431,
				"z": 1.5302285128,
				"element": "C" 
			},
			{
				"x": 2.9126270842,
				"y": 1.0850009719,
				"z": 2.9042965122,
				"element": "C" 
			},
			{
				"x": 0.7840905685,
				"y": 1.7447743617,
				"z": 1.7600420528,
				"element": "C" 
			},
			{
				"x": -0.0849547937,
				"y": 0.6762836481,
				"z": 2.4141446827,
				"element": "C" 
			},
			{
				"x": -0.4366251281,
				"y": -0.5546768546,
				"z": 1.5229237473,
				"element": "C" 
			},
			{
				"x": -0.627479808,
				"y": -1.6824115141,
				"z": 2.5757207414,
				"element": "C" 
			},
			{
				"x": -5.703211834,
				"y": 2.9796689993,
				"z": -1.0824393676,
				"element": "H" 
			},
			{
				"x": -7.0706763237,
				"y": 2.2150426326,
				"z": -1.9146471308,
				"element": "H" 
			},
			{
				"x": -5.6119468042,
				"y": 2.6261125089,
				"z": -2.8159516815,
				"element": "H" 
			},
			{
				"x": -5.9053849639,
				"y": 0.5536207758,
				"z": -0.5760737616,
				"element": "H" 
			},
			{
				"x": -4.6892135957,
				"y": -0.5980239511,
				"z": -4.0634914809,
				"element": "H" 
			},
			{
				"x": -5.7009978703,
				"y": -1.9502366097,
				"z": -3.6109973525,
				"element": "H" 
			},
			{
				"x": -3.0616586137,
				"y": -1.8000295396,
				"z": -2.9321010442,
				"element": "H" 
			},
			{
				"x": -4.2301843107,
				"y": -2.6639677766,
				"z": -1.9667991091,
				"element": "H" 
			},
			{
				"x": -4.3491731235,
				"y": -1.0584486244,
				"z": -0.294679982,
				"element": "H" 
			},
			{
				"x": -3.3111875697,
				"y": 0.840021312,
				"z": -3.4514172059,
				"element": "H" 
			},
			{
				"x": -3.3878365344,
				"y": 2.3941142302,
				"z": -2.6259277037,
				"element": "H" 
			},
			{
				"x": -2.0392912808,
				"y": 1.3101811217,
				"z": -2.3356026037,
				"element": "H" 
			},
			{
				"x": -4.232793992,
				"y": 1.1769114943,
				"z": 0.7717001412,
				"element": "H" 
			},
			{
				"x": -3.6730359644,
				"y": 2.5559890698,
				"z": -0.1640776967,
				"element": "H" 
			},
			{
				"x": -1.413305154,
				"y": 1.5521217849,
				"z": -0.3310030941,
				"element": "H" 
			},
			{
				"x": -1.9247235578,
				"y": 1.8490022053,
				"z": 1.305900611,
				"element": "H" 
			},
			{
				"x": -2.5973223564,
				"y": -0.4944592837,
				"z": 1.5938961577,
				"element": "H" 
			},
			{
				"x": -1.5695417878,
				"y": -3.1170877829,
				"z": 0.4955226415,
				"element": "H" 
			},
			{
				"x": -3.2475462422,
				"y": -2.7018057446,
				"z": 0.8314018278,
				"element": "H" 
			},
			{
				"x": -2.7604447604,
				"y": -3.302011106,
				"z": -0.758766892,
				"element": "H" 
			},
			{
				"x": -1.3256655752,
				"y": -0.6963619017,
				"z": -2.3589358193,
				"element": "H" 
			},
			{
				"x": -0.7983216111,
				"y": -2.21889232,
				"z": -1.7178754665,
				"element": "H" 
			},
			{
				"x": 1.0344094912,
				"y": -0.7788559515,
				"z": -1.6807861188,
				"element": "H" 
			},
			{
				"x": 0.1681946804,
				"y": 0.580273773,
				"z": -1.0250004153,
				"element": "H" 
			},
			{
				"x": 1.8879244299,
				"y": -2.6011304551,
				"z": -0.2743837396,
				"element": "H" 
			},
			{
				"x": 0.2509960981,
				"y": -3.0313049032,
				"z": 0.156009833,
				"element": "H" 
			},
			{
				"x": 1.4467912082,
				"y": -2.7605077504,
				"z": 1.4200237184,
				"element": "H" 
			},
			{
				"x": 2.6393111039,
				"y": -0.8902268348,
				"z": 1.5171121674,
				"element": "H" 
			},
			{
				"x": 3.1799377514,
				"y": -1.1775105168,
				"z": -0.8683325555,
				"element": "H" 
			},
			{
				"x": 2.6175038608,
				"y": 0.4375089759,
				"z": -1.2230820813,
				"element": "H" 
			},
			{
				"x": 4.6154383125,
				"y": 1.1508645619,
				"z": -2.313073822,
				"element": "H" 
			},
			{
				"x": 6.2005721973,
				"y": 0.8705108427,
				"z": -1.577187104,
				"element": "H" 
			},
			{
				"x": 5.2293751532,
				"y": -0.5011473682,
				"z": -2.1346079035,
				"element": "H" 
			},
			{
				"x": 5.4700044837,
				"y": -1.5369662059,
				"z": 0.140762877,
				"element": "H" 
			},
			{
				"x": 6.3943767913,
				"y": -0.1472018235,
				"z": 0.7272928645,
				"element": "H" 
			},
			{
				"x": 4.9655982548,
				"y": -0.6951645853,
				"z": 1.6087789219,
				"element": "H" 
			},
			{
				"x": 5.0472468367,
				"y": 1.8709151646,
				"z": 1.2768961029,
				"element": "H" 
			},
			{
				"x": 4.8772086601,
				"y": 2.5591708592,
				"z": -0.3164942206,
				"element": "H" 
			},
			{
				"x": 3.0129601155,
				"y": 3.2088852922,
				"z": 1.2356664479,
				"element": "H" 
			},
			{
				"x": 2.453145462,
				"y": 2.4526554198,
				"z": -0.2398840284,
				"element": "H" 
			},
			{
				"x": 2.921670541,
				"y": 2.0490437105,
				"z": 3.4273287175,
				"element": "H" 
			},
			{
				"x": 2.4152410899,
				"y": 0.3596370989,
				"z": 3.5540160199,
				"element": "H" 
			},
			{
				"x": 3.9492572713,
				"y": 0.7572300065,
				"z": 2.8043313282,
				"element": "H" 
			},
			{
				"x": 0.8281650227,
				"y": 2.6357026719,
				"z": 2.4012047969,
				"element": "H" 
			},
			{
				"x": 0.357338719,
				"y": 2.0764600738,
				"z": 0.8086951119,
				"element": "H" 
			},
			{
				"x": -1.0082979298,
				"y": 1.1034519694,
				"z": 2.8179348039,
				"element": "H" 
			},
			{
				"x": 0.4480579379,
				"y": 0.3136989437,
				"z": 3.2979151407,
				"element": "H" 
			},
			{
				"x": -1.3723212688,
				"y": -1.3612583879,
				"z": 3.3131512339,
				"element": "H" 
			},
			{
				"x": 0.3039572786,
				"y": -1.8614317839,
				"z": 3.1225571509,
				"element": "H" 
			},
			{
				"x": -0.9603545098,
				"y": -2.6383935129,
				"z": 2.1789503159,
				"element": "H" 
			}
		],
		 "valence_orbital": [ 
			{
				"type": "occ",
				"energy": -0.28261,
				"method": "rhf"
			},
			{
				"type": "occ",
				"energy": -0.27121,
				"method": "rhf"
			},
			{
				"type": "occ",
				"energy": -0.26566,
				"method": "rhf"
			},
			{
				"type": "occ",
				"energy": -0.26406,
				"method": "rhf"
			},
			{
				"type": "occ",
				"energy": -0.22916,
				"method": "rhf"
			},
			{
				"type": "unocc",
				"energy": -0.00931,
				"method": "rhf"
			},
			{
				"type": "unocc",
				"energy": 0.06149,
				"method": "rhf"
			},
			{
				"type": "unocc",
				"energy": 0.06898,
				"method": "rhf"
			},
			{
				"type": "unocc",
				"energy": 0.07478,
				"method": "rhf"
			},
			{
				"type": "unocc",
				"energy": 0.08799,
				"method": "rhf"
			}
		],
		"cosmo_sigma_profile": { 
			"-0.025": 0.0,
			"-0.024": 0.0,
			"-0.023": 0.0,
			"-0.022": 0.0,
			"-0.021": 0.0,
			"-0.02": 0.0,
			"-0.019": 0.0,
			"-0.018": 0.0,
			"-0.017": 0.0,
			"-0.016": 0.0,
			"-0.015": 0.0,
			"-0.014": 0.0,
			"-0.013": 0.0,
			"-0.012": 0.0,
			"-0.011": 0.0,
			"-0.01": 0.0,
			"-0.009": 0.0,
			"-0.008": 0.0,
			"-0.007": 0.148588878251,
			"-0.006": 2.61752872558,
			"-0.005": 3.60896896923,
			"-0.004": 11.3302555854,
			"-0.003": 29.0251584753,
			"-0.002": 70.4984363789,
			"-0.001": 107.921805806,
			"0.0": 82.7710988164,
			"0.001": 72.6850695068,
			"0.002": 50.026373772,
			"0.003": 8.4898578236,
			"0.004": 1.7530874693,
			"0.005": 1.39445453372,
			"0.006": 2.00934773384,
			"0.007": 1.69031937411,
			"0.008": 1.52124603922,
			"0.009": 1.44560425638,
			"0.01": 1.8653702466,
			"0.011": 2.35863989732,
			"0.012": 3.78582020221,
			"0.013": 3.81332372639,
			"0.014": 1.07980612739,
			"0.015": 0.0,
			"0.016": 0.0,
			"0.017": 0.0,
			"0.018": 0.0,
			"0.019": 0.0,
			"0.02": 0.0,
			"0.021": 0.0,
			"0.022": 0.0,
			"0.023": 0.0,
			"0.024": 0.0,
			"0.025": 0.0
		}
	}
}
