{
	 "smiles": "CC1=CC=C(C=N1)C(O)=O", 
	 "Tm": 485.65, 
	 "num_atms": 17, 
	 "gaussian": { 
		 "optdone": 1, 
		 "sigma_profile": "yes", 
		 "theory": "DFT", 
		 "functional": "B3LYP", 
		 "basiset": "6-31G**", 
		 "properties": { 
			 "R2extent": 2088.0628, 
			 "electric_dipole_moment_norm": 5.41997667338, 
			 "electric_quadrupole_moment_norm": 14.7390870857, 
			 "total_energy": -476.170488877, 
			 "HOMO_LUMO_gap": 0.20415, 
			 "cosmo_polarized_energy": -16.09, 
			 "cosmo_cavitation_energy": 21.59, 
			 "cosmo_dispersion_energy": -16.07, 
			 "cosmo_repulsion_energy": 1.3, 
			 "cosmo_total_nonelectrostatic_energy": 6.83, 
			 "SMD_solvation_energy": 3.72 
		},
		"coords": [
			{
				"x": 3.2250771581,
				"y": -1.2695411587,
				"z": -0.432314838,
				"element": "C" 
			},
			{
				"x": 1.8420111022,
				"y": -1.1589460367,
				"z": 0.156587793,
				"element": "C" 
			},
			{
				"x": 1.6170400627,
				"y": -1.3724232724,
				"z": 1.5261810573,
				"element": "C" 
			},
			{
				"x": 0.327797671,
				"y": -1.2571861544,
				"z": 2.0292978646,
				"element": "C" 
			},
			{
				"x": -0.7184626384,
				"y": -0.9321730549,
				"z": 1.1559201781,
				"element": "C" 
			},
			{
				"x": -0.396243328,
				"y": -0.7581789082,
				"z": -0.1966824499,
				"element": "C" 
			},
			{
				"x": 0.8408094203,
				"y": -0.8567569802,
				"z": -0.6883396482,
				"element": "N" 
			},
			{
				"x": -2.1505906803,
				"y": -0.7967533397,
				"z": 1.5662233848,
				"element": "C" 
			},
			{
				"x": -2.39031692,
				"y": -0.562799668,
				"z": 2.8857426739,
				"element": "O" 
			},
			{
				"x": -3.0730142525,
				"y": -0.885900503,
				"z": 0.7913808591,
				"element": "O" 
			},
			{
				"x": 3.1873747158,
				"y": -1.0516543923,
				"z": -1.5002826934,
				"element": "H" 
			},
			{
				"x": 3.9173280316,
				"y": -0.5696250421,
				"z": 0.0491519789,
				"element": "H" 
			},
			{
				"x": 3.6336671171,
				"y": -2.2767617265,
				"z": -0.2915315643,
				"element": "H" 
			},
			{
				"x": 2.4441376799,
				"y": -1.6331039429,
				"z": 2.1796002824,
				"element": "H" 
			},
			{
				"x": 0.1446500372,
				"y": -1.454031364,
				"z": 3.0835083484,
				"element": "H" 
			},
			{
				"x": -1.1912949571,
				"y": -0.5241815652,
				"z": -0.9001209023,
				"element": "H" 
			},
			{
				"x": -1.5674702195,
				"y": -0.3494828907,
				"z": 3.3465776759,
				"element": "H" 
			}
		],
		 "valence_orbital": [ 
			{
				"type": "occ",
				"energy": -0.32204,
				"method": "rhf"
			},
			{
				"type": "occ",
				"energy": -0.30622,
				"method": "rhf"
			},
			{
				"type": "occ",
				"energy": -0.28505,
				"method": "rhf"
			},
			{
				"type": "occ",
				"energy": -0.26936,
				"method": "rhf"
			},
			{
				"type": "occ",
				"energy": -0.2638,
				"method": "rhf"
			},
			{
				"type": "unocc",
				"energy": -0.05965,
				"method": "rhf"
			},
			{
				"type": "unocc",
				"energy": -0.03969,
				"method": "rhf"
			},
			{
				"type": "unocc",
				"energy": 0.03636,
				"method": "rhf"
			},
			{
				"type": "unocc",
				"energy": 0.05387,
				"method": "rhf"
			},
			{
				"type": "unocc",
				"energy": 0.09909,
				"method": "rhf"
			}
		],
		"cosmo_sigma_profile": { 
			"-0.025": 0.0,
			"-0.024": 0.0,
			"-0.023": 0.0,
			"-0.022": 0.0,
			"-0.021": 0.0,
			"-0.02": 0.0,
			"-0.019": 0.655079278998,
			"-0.018": 0.935234445064,
			"-0.017": 1.06204111092,
			"-0.016": 1.23241063274,
			"-0.015": 0.991089611389,
			"-0.014": 0.871715385072,
			"-0.013": 1.11758625688,
			"-0.012": 1.15493701071,
			"-0.011": 1.41653190446,
			"-0.01": 1.12770145239,
			"-0.009": 1.60193910635,
			"-0.008": 2.76959332425,
			"-0.007": 5.05113685594,
			"-0.006": 6.31371141396,
			"-0.005": 10.1449483515,
			"-0.004": 12.8409784501,
			"-0.003": 11.3924193476,
			"-0.002": 12.5321575656,
			"-0.001": 13.7553231827,
			"0.0": 17.2664142395,
			"0.001": 12.7337520066,
			"0.002": 6.36307736573,
			"0.003": 4.27692713024,
			"0.004": 4.66367022461,
			"0.005": 3.6946485824,
			"0.006": 3.83936366466,
			"0.007": 3.97308913801,
			"0.008": 3.90185911051,
			"0.009": 4.23026007699,
			"0.01": 5.73465308698,
			"0.011": 6.50847844698,
			"0.012": 4.63007130583,
			"0.013": 2.19325905332,
			"0.014": 0.654856827806,
			"0.015": 0.812396602972,
			"0.016": 0.11056141228,
			"0.017": 0.0,
			"0.018": 0.0,
			"0.019": 0.0,
			"0.02": 0.0,
			"0.021": 0.0,
			"0.022": 0.0,
			"0.023": 0.0,
			"0.024": 0.0,
			"0.025": 0.0
		}
	}
}
