{
	 "smiles": "CC(=O)NC1=C(F)C=CC(=C1F)[N+]([O-])=O", 
	 "Tm": 421.15, 
	 "num_atms": 21, 
	 "gaussian": { 
		 "optdone": 1, 
		 "sigma_profile": "yes", 
		 "theory": "DFT", 
		 "functional": "B3LYP", 
		 "basiset": "6-31G**", 
		 "properties": { 
			 "R2extent": 3539.7361, 
			 "electric_dipole_moment_norm": 4.0627536647, 
			 "electric_quadrupole_moment_norm": 17.4534199437, 
			 "total_energy": -843.207659637, 
			 "HOMO_LUMO_gap": 0.15872, 
			 "cosmo_polarized_energy": -15.13, 
			 "cosmo_cavitation_energy": 27.47, 
			 "cosmo_dispersion_energy": -19.61, 
			 "cosmo_repulsion_energy": 1.5, 
			 "cosmo_total_nonelectrostatic_energy": 9.35, 
			 "SMD_solvation_energy": 8.77 
		},
		"coords": [
			{
				"x": -3.0557056734,
				"y": 0.1234508468,
				"z": -0.0207426415,
				"element": "C" 
			},
			{
				"x": -2.4522774596,
				"y": -0.3843023961,
				"z": -1.3129288433,
				"element": "C" 
			},
			{
				"x": -3.1216149103,
				"y": -0.7270363733,
				"z": -2.2700876331,
				"element": "O" 
			},
			{
				"x": -1.0584150051,
				"y": -0.4692061608,
				"z": -1.4001628226,
				"element": "N" 
			},
			{
				"x": -0.0853183729,
				"y": -0.2351562366,
				"z": -0.4187300172,
				"element": "C" 
			},
			{
				"x": 0.0625635232,
				"y": 0.9909178351,
				"z": 0.2435915803,
				"element": "C" 
			},
			{
				"x": -0.7743104451,
				"y": 1.9919589332,
				"z": -0.066934124,
				"element": "F" 
			},
			{
				"x": 1.040042427,
				"y": 1.209510344,
				"z": 1.2088407291,
				"element": "C" 
			},
			{
				"x": 1.9441595959,
				"y": 0.1967865248,
				"z": 1.4949501882,
				"element": "C" 
			},
			{
				"x": 1.8665626595,
				"y": -1.0250980303,
				"z": 0.821248307,
				"element": "C" 
			},
			{
				"x": 0.8537157954,
				"y": -1.2382743203,
				"z": -0.1216345204,
				"element": "C" 
			},
			{
				"x": 0.7199132473,
				"y": -2.3869952401,
				"z": -0.7843441328,
				"element": "F" 
			},
			{
				"x": 2.8636799209,
				"y": -2.055129738,
				"z": 1.1419236524,
				"element": "N" 
			},
			{
				"x": 2.9222901347,
				"y": -3.0471987544,
				"z": 0.4222665329,
				"element": "O" 
			},
			{
				"x": 3.5855094888,
				"y": -1.8447997543,
				"z": 2.1170187884,
				"element": "O" 
			},
			{
				"x": -4.0988238005,
				"y": -0.1908925197,
				"z": 0.0001434817,
				"element": "H" 
			},
			{
				"x": -3.0141954073,
				"y": 1.214981124,
				"z": 0.0131777068,
				"element": "H" 
			},
			{
				"x": -2.5350930253,
				"y": -0.2606272888,
				"z": 0.8611730642,
				"element": "H" 
			},
			{
				"x": -0.7627153662,
				"y": -0.9942485835,
				"z": -2.2147051184,
				"element": "H" 
			},
			{
				"x": 1.0946551094,
				"y": 2.1755838784,
				"z": 1.6965592233,
				"element": "H" 
			},
			{
				"x": 2.7280775635,
				"y": 0.3252759098,
				"z": 2.2298765989,
				"element": "H" 
			}
		],
		 "valence_orbital": [ 
			{
				"type": "occ",
				"energy": -0.31865,
				"method": "rhf"
			},
			{
				"type": "occ",
				"energy": -0.30318,
				"method": "rhf"
			},
			{
				"type": "occ",
				"energy": -0.29191,
				"method": "rhf"
			},
			{
				"type": "occ",
				"energy": -0.2724,
				"method": "rhf"
			},
			{
				"type": "occ",
				"energy": -0.26016,
				"method": "rhf"
			},
			{
				"type": "unocc",
				"energy": -0.10144,
				"method": "rhf"
			},
			{
				"type": "unocc",
				"energy": -0.0523,
				"method": "rhf"
			},
			{
				"type": "unocc",
				"energy": -0.01742,
				"method": "rhf"
			},
			{
				"type": "unocc",
				"energy": 0.00989,
				"method": "rhf"
			},
			{
				"type": "unocc",
				"energy": 0.03506,
				"method": "rhf"
			}
		],
		"cosmo_sigma_profile": { 
			"-0.025": 0.0,
			"-0.024": 0.0,
			"-0.023": 0.0,
			"-0.022": 0.0,
			"-0.021": 0.0,
			"-0.02": 0.0,
			"-0.019": 0.0,
			"-0.018": 0.0,
			"-0.017": 0.0,
			"-0.016": 0.0,
			"-0.015": 0.270827241979,
			"-0.014": 1.13631431247,
			"-0.013": 1.02430132851,
			"-0.012": 0.623032012278,
			"-0.011": 0.82589179772,
			"-0.01": 1.32079513266,
			"-0.009": 3.43370686783,
			"-0.008": 5.33229817733,
			"-0.007": 6.53181678938,
			"-0.006": 11.0344230343,
			"-0.005": 13.9233405268,
			"-0.004": 17.9985830893,
			"-0.003": 19.9901582089,
			"-0.002": 21.6993804424,
			"-0.001": 16.9047984304,
			"0.0": 11.9434758082,
			"0.001": 9.62275987311,
			"0.002": 13.5169453138,
			"0.003": 8.61131150109,
			"0.004": 4.66342262613,
			"0.005": 4.03587329972,
			"0.006": 6.45142108844,
			"0.007": 11.6780768676,
			"0.008": 8.10542381472,
			"0.009": 5.06449109503,
			"0.01": 3.14528094768,
			"0.011": 2.12577346989,
			"0.012": 4.04091540947,
			"0.013": 4.75163682951,
			"0.014": 0.848012368374,
			"0.015": 0.0,
			"0.016": 0.0,
			"0.017": 0.0,
			"0.018": 0.0,
			"0.019": 0.0,
			"0.02": 0.0,
			"0.021": 0.0,
			"0.022": 0.0,
			"0.023": 0.0,
			"0.024": 0.0,
			"0.025": 0.0
		}
	}
}
