{
	 "smiles": "COC1=CC=C(C=C1)C1=CC=C(OC)C=C1", 
	 "Tm": 452.15, 
	 "num_atms": 30, 
	 "gaussian": { 
		 "optdone": 1, 
		 "sigma_profile": "yes", 
		 "theory": "DFT", 
		 "functional": "B3LYP", 
		 "basiset": "6-31G**", 
		 "properties": { 
			 "R2extent": 5975.7024, 
			 "electric_dipole_moment_norm": 0.744533961616, 
			 "electric_quadrupole_moment_norm": 21.7825501085, 
			 "total_energy": -692.358640263, 
			 "HOMO_LUMO_gap": 0.18392, 
			 "cosmo_polarized_energy": -9.23, 
			 "cosmo_cavitation_energy": 33.57, 
			 "cosmo_dispersion_energy": -24.74, 
			 "cosmo_repulsion_energy": 1.9, 
			 "cosmo_total_nonelectrostatic_energy": 10.73, 
			 "SMD_solvation_energy": 7.02 
		},
		"coords": [
			{
				"x": 4.331255054,
				"y": 4.3917852798,
				"z": -1.0459984062,
				"element": "C" 
			},
			{
				"x": 3.1125464946,
				"y": 4.015911153,
				"z": -1.6650586959,
				"element": "O" 
			},
			{
				"x": 2.4539651848,
				"y": 2.9218903363,
				"z": -1.1798672308,
				"element": "C" 
			},
			{
				"x": 1.2584496991,
				"y": 2.5882382438,
				"z": -1.8332067362,
				"element": "C" 
			},
			{
				"x": 0.5167447514,
				"y": 1.4917529707,
				"z": -1.4169348286,
				"element": "C" 
			},
			{
				"x": 0.9307986336,
				"y": 0.6896507609,
				"z": -0.3353048886,
				"element": "C" 
			},
			{
				"x": 2.1272883992,
				"y": 1.0420146348,
				"z": 0.3043541047,
				"element": "C" 
			},
			{
				"x": 2.8884817403,
				"y": 2.1392842789,
				"z": -0.104489131,
				"element": "C" 
			},
			{
				"x": 0.132370249,
				"y": -0.4788881365,
				"z": 0.1082684258,
				"element": "C" 
			},
			{
				"x": -1.2690964494,
				"y": -0.4533417158,
				"z": 0.0956385069,
				"element": "C" 
			},
			{
				"x": -2.0319181575,
				"y": -1.5474187927,
				"z": 0.5100121007,
				"element": "C" 
			},
			{
				"x": -1.3920745557,
				"y": -2.7083180673,
				"z": 0.957928227,
				"element": "C" 
			},
			{
				"x": -2.0322751456,
				"y": -3.8359202663,
				"z": 1.3876887998,
				"element": "O" 
			},
			{
				"x": -3.4498588845,
				"y": -3.8454237883,
				"z": 1.3765872532,
				"element": "C" 
			},
			{
				"x": 0.0096214658,
				"y": -2.7547864698,
				"z": 0.9805642973,
				"element": "C" 
			},
			{
				"x": 0.7522616317,
				"y": -1.6602758694,
				"z": 0.5608086386,
				"element": "C" 
			},
			{
				"x": 4.6857319903,
				"y": 5.271900534,
				"z": -1.5850752116,
				"element": "H" 
			},
			{
				"x": 5.0856280636,
				"y": 3.5973374325,
				"z": -1.1182932146,
				"element": "H" 
			},
			{
				"x": 4.187106747,
				"y": 4.6514606356,
				"z": 0.011010019,
				"element": "H" 
			},
			{
				"x": 0.939905557,
				"y": 3.1976297719,
				"z": -2.6728642468,
				"element": "H" 
			},
			{
				"x": -0.3906391179,
				"y": 1.2341332355,
				"z": -1.955369673,
				"element": "H" 
			},
			{
				"x": 2.4651847148,
				"y": 0.4636053325,
				"z": 1.1593935132,
				"element": "H" 
			},
			{
				"x": 3.8025263823,
				"y": 2.3773685091,
				"z": 0.4268373634,
				"element": "H" 
			},
			{
				"x": -1.7831233099,
				"y": 0.4495648817,
				"z": -0.2211544407,
				"element": "H" 
			},
			{
				"x": -3.1131922907,
				"y": -1.4772670178,
				"z": 0.4901872556,
				"element": "H" 
			},
			{
				"x": -3.7488808904,
				"y": -4.8275153251,
				"z": 1.7466452865,
				"element": "H" 
			},
			{
				"x": -3.8491247986,
				"y": -3.7055999907,
				"z": 0.3634312519,
				"element": "H" 
			},
			{
				"x": -3.8667543133,
				"y": -3.0712351626,
				"z": 2.0340902281,
				"element": "H" 
			},
			{
				"x": 0.4919339315,
				"y": -3.6659361514,
				"z": 1.3197328005,
				"element": "H" 
			},
			{
				"x": 1.8362372236,
				"y": -1.7282012372,
				"z": 0.5590386315,
				"element": "H" 
			}
		],
		 "valence_orbital": [ 
			{
				"type": "occ",
				"energy": -0.30402,
				"method": "rhf"
			},
			{
				"type": "occ",
				"energy": -0.24705,
				"method": "rhf"
			},
			{
				"type": "occ",
				"energy": -0.24691,
				"method": "rhf"
			},
			{
				"type": "occ",
				"energy": -0.23374,
				"method": "rhf"
			},
			{
				"type": "occ",
				"energy": -0.19323,
				"method": "rhf"
			},
			{
				"type": "unocc",
				"energy": -0.00931,
				"method": "rhf"
			},
			{
				"type": "unocc",
				"energy": -0.00018,
				"method": "rhf"
			},
			{
				"type": "unocc",
				"energy": 0.00463,
				"method": "rhf"
			},
			{
				"type": "unocc",
				"energy": 0.04791,
				"method": "rhf"
			},
			{
				"type": "unocc",
				"energy": 0.09696,
				"method": "rhf"
			}
		],
		"cosmo_sigma_profile": { 
			"-0.025": 0.0,
			"-0.024": 0.0,
			"-0.023": 0.0,
			"-0.022": 0.0,
			"-0.021": 0.0,
			"-0.02": 0.0,
			"-0.019": 0.0,
			"-0.018": 0.0,
			"-0.017": 0.0,
			"-0.016": 0.0,
			"-0.015": 0.0,
			"-0.014": 0.0,
			"-0.013": 0.0,
			"-0.012": 0.0,
			"-0.011": 0.0,
			"-0.01": 0.0,
			"-0.009": 0.0,
			"-0.008": 0.0,
			"-0.007": 0.319504862877,
			"-0.006": 12.7077819376,
			"-0.005": 32.5591595036,
			"-0.004": 30.1759186044,
			"-0.003": 30.7719907579,
			"-0.002": 17.2753795907,
			"-0.001": 14.3514607486,
			"0.0": 11.2953243528,
			"0.001": 13.7357600545,
			"0.002": 13.2273023025,
			"0.003": 17.1592578719,
			"0.004": 23.1394936719,
			"0.005": 23.2580931852,
			"0.006": 14.6099345833,
			"0.007": 3.67301644709,
			"0.008": 1.98374409072,
			"0.009": 2.60306465959,
			"0.01": 3.35647815482,
			"0.011": 1.177473558,
			"0.012": 0.0,
			"0.013": 0.0,
			"0.014": 0.0,
			"0.015": 0.0,
			"0.016": 0.0,
			"0.017": 0.0,
			"0.018": 0.0,
			"0.019": 0.0,
			"0.02": 0.0,
			"0.021": 0.0,
			"0.022": 0.0,
			"0.023": 0.0,
			"0.024": 0.0,
			"0.025": 0.0
		}
	}
}
