{
	 "smiles": "OC1CCCC1", 
	 "Tm": 255.05, 
	 "num_atms": 16, 
	 "gaussian": { 
		 "optdone": 1, 
		 "sigma_profile": "yes", 
		 "theory": "DFT", 
		 "functional": "B3LYP", 
		 "basiset": "6-31G**", 
		 "properties": { 
			 "R2extent": 572.9613, 
			 "electric_dipole_moment_norm": 1.72828520794, 
			 "electric_quadrupole_moment_norm": 4.35307183492, 
			 "total_energy": -271.778350579, 
			 "HOMO_LUMO_gap": 0.3143, 
			 "cosmo_polarized_energy": -5.52, 
			 "cosmo_cavitation_energy": 17.13, 
			 "cosmo_dispersion_energy": -13.33, 
			 "cosmo_repulsion_energy": 1.16, 
			 "cosmo_total_nonelectrostatic_energy": 4.96, 
			 "SMD_solvation_energy": 2.3 
		},
		"coords": [
			{
				"x": 1.2296845761,
				"y": 1.1310275367,
				"z": -0.7109429213,
				"element": "O" 
			},
			{
				"x": -0.0660232136,
				"y": 0.5960419495,
				"z": -0.4370217481,
				"element": "C" 
			},
			{
				"x": -0.1345795193,
				"y": -0.9230233483,
				"z": -0.6699829325,
				"element": "C" 
			},
			{
				"x": 0.4437816025,
				"y": -1.5462683947,
				"z": 0.6261554028,
				"element": "C" 
			},
			{
				"x": 0.2362806773,
				"y": -0.4724703334,
				"z": 1.741626586,
				"element": "C" 
			},
			{
				"x": -0.453813684,
				"y": 0.7285491939,
				"z": 1.0457236714,
				"element": "C" 
			},
			{
				"x": 1.8685464333,
				"y": 0.6719122242,
				"z": -0.1499397192,
				"element": "H" 
			},
			{
				"x": -0.739825867,
				"y": 1.151140246,
				"z": -1.0967625044,
				"element": "H" 
			},
			{
				"x": 0.4042930725,
				"y": -1.217060187,
				"z": -1.57526643,
				"element": "H" 
			},
			{
				"x": -1.1826211997,
				"y": -1.2200012267,
				"z": -0.7970781421,
				"element": "H" 
			},
			{
				"x": -0.0446435648,
				"y": -2.4936705731,
				"z": 0.8708338183,
				"element": "H" 
			},
			{
				"x": 1.5086108003,
				"y": -1.7751215784,
				"z": 0.5049712815,
				"element": "H" 
			},
			{
				"x": 1.1987478642,
				"y": -0.1716004011,
				"z": 2.1706499416,
				"element": "H" 
			},
			{
				"x": -0.3614421408,
				"y": -0.8539846766,
				"z": 2.5741968936,
				"element": "H" 
			},
			{
				"x": -0.1594821184,
				"y": 1.6994575898,
				"z": 1.45448329,
				"element": "H" 
			},
			{
				"x": -1.5432137187,
				"y": 0.6454719793,
				"z": 1.1408535124,
				"element": "H" 
			}
		],
		 "valence_orbital": [ 
			{
				"type": "occ",
				"energy": -0.3385,
				"method": "rhf"
			},
			{
				"type": "occ",
				"energy": -0.33685,
				"method": "rhf"
			},
			{
				"type": "occ",
				"energy": -0.32074,
				"method": "rhf"
			},
			{
				"type": "occ",
				"energy": -0.31022,
				"method": "rhf"
			},
			{
				"type": "occ",
				"energy": -0.25482,
				"method": "rhf"
			},
			{
				"type": "unocc",
				"energy": 0.05948,
				"method": "rhf"
			},
			{
				"type": "unocc",
				"energy": 0.09048,
				"method": "rhf"
			},
			{
				"type": "unocc",
				"energy": 0.12282,
				"method": "rhf"
			},
			{
				"type": "unocc",
				"energy": 0.14793,
				"method": "rhf"
			},
			{
				"type": "unocc",
				"energy": 0.15595,
				"method": "rhf"
			}
		],
		"cosmo_sigma_profile": { 
			"-0.025": 0.0,
			"-0.024": 0.0,
			"-0.023": 0.0,
			"-0.022": 0.0,
			"-0.021": 0.0,
			"-0.02": 0.0,
			"-0.019": 0.0,
			"-0.018": 0.0,
			"-0.017": 0.0,
			"-0.016": 0.0,
			"-0.015": 0.00446878039707,
			"-0.014": 0.344950387094,
			"-0.013": 0.789855723487,
			"-0.012": 0.900287921092,
			"-0.011": 0.803464862424,
			"-0.01": 0.902206210472,
			"-0.009": 0.783197790177,
			"-0.008": 0.875789168901,
			"-0.007": 1.11731275927,
			"-0.006": 1.85203145671,
			"-0.005": 1.97854200209,
			"-0.004": 2.63254364096,
			"-0.003": 13.9282685376,
			"-0.002": 21.1065138306,
			"-0.001": 21.8822225419,
			"0.0": 18.5172594125,
			"0.001": 18.68615261,
			"0.002": 6.86157787671,
			"0.003": 1.46433885525,
			"0.004": 1.20419034316,
			"0.005": 0.773742901134,
			"0.006": 1.39029113777,
			"0.007": 0.978219064783,
			"0.008": 1.87409941971,
			"0.009": 0.982935018444,
			"0.01": 1.06887428411,
			"0.011": 1.04461267619,
			"0.012": 1.48710347259,
			"0.013": 1.3989237181,
			"0.014": 2.11827858069,
			"0.015": 2.04474181236,
			"0.016": 0.00664490738842,
			"0.017": 0.0,
			"0.018": 0.0,
			"0.019": 0.0,
			"0.02": 0.0,
			"0.021": 0.0,
			"0.022": 0.0,
			"0.023": 0.0,
			"0.024": 0.0,
			"0.025": 0.0
		}
	}
}
