{
	 "smiles": "CC(C)(C)NS(=O)(=O)C1=C(F)C=CC(=C1)C(O)=O", 
	 "Tm": 456.15, 
	 "num_atms": 32, 
	 "gaussian": { 
		 "optdone": 1, 
		 "sigma_profile": "yes", 
		 "theory": "DFT", 
		 "functional": "B3LYP", 
		 "basiset": "6-31G**", 
		 "properties": { 
			 "R2extent": 5561.1295, 
			 "electric_dipole_moment_norm": 3.62501856133, 
			 "electric_quadrupole_moment_norm": 17.3425760275, 
			 "total_energy": -1281.23542299, 
			 "HOMO_LUMO_gap": 0.20008, 
			 "cosmo_polarized_energy": -17.09, 
			 "cosmo_cavitation_energy": 37.11, 
			 "cosmo_dispersion_energy": -25.55, 
			 "cosmo_repulsion_energy": 1.91, 
			 "cosmo_total_nonelectrostatic_energy": 13.46, 
			 "SMD_solvation_energy": 7.47 
		},
		"coords": [
			{
				"x": 3.6626782171,
				"y": 1.5505604084,
				"z": -0.8183523877,
				"element": "C" 
			},
			{
				"x": 2.1765809246,
				"y": 1.8564499496,
				"z": -1.0739224694,
				"element": "C" 
			},
			{
				"x": 1.5553380209,
				"y": 0.7281551751,
				"z": -1.9109760295,
				"element": "C" 
			},
			{
				"x": 2.0319500089,
				"y": 3.2147065948,
				"z": -1.7854269235,
				"element": "C" 
			},
			{
				"x": 1.558365793,
				"y": 1.8760649883,
				"z": 0.2885937879,
				"element": "N" 
			},
			{
				"x": -0.0765656895,
				"y": 2.0566729004,
				"z": 0.6057077653,
				"element": "S" 
			},
			{
				"x": -0.8182712452,
				"y": 2.4287409773,
				"z": -0.6048738719,
				"element": "O" 
			},
			{
				"x": -0.1601449133,
				"y": 2.8636831987,
				"z": 1.8249496074,
				"element": "O" 
			},
			{
				"x": -0.6084783022,
				"y": 0.3856684215,
				"z": 1.0091649437,
				"element": "C" 
			},
			{
				"x": -0.020439813,
				"y": -0.3279030109,
				"z": 2.0582536495,
				"element": "C" 
			},
			{
				"x": 0.9941457092,
				"y": 0.2133932931,
				"z": 2.7438857726,
				"element": "F" 
			},
			{
				"x": -0.4598338635,
				"y": -1.6009057785,
				"z": 2.4057545256,
				"element": "C" 
			},
			{
				"x": -1.5142283764,
				"y": -2.1661486408,
				"z": 1.6963370962,
				"element": "C" 
			},
			{
				"x": -2.1223267129,
				"y": -1.4644939501,
				"z": 0.646402954,
				"element": "C" 
			},
			{
				"x": -1.6670568117,
				"y": -0.1844825686,
				"z": 0.3062348773,
				"element": "C" 
			},
			{
				"x": -3.2456067596,
				"y": -2.1216937388,
				"z": -0.0733005439,
				"element": "C" 
			},
			{
				"x": -3.7563105046,
				"y": -1.3555714173,
				"z": -1.0656427883,
				"element": "O" 
			},
			{
				"x": -3.6746843078,
				"y": -3.2285808439,
				"z": 0.1847972136,
				"element": "O" 
			},
			{
				"x": 3.782995255,
				"y": 0.5907889777,
				"z": -0.3080791302,
				"element": "H" 
			},
			{
				"x": 4.2040497039,
				"y": 1.5123469303,
				"z": -1.768317494,
				"element": "H" 
			},
			{
				"x": 4.1284056698,
				"y": 2.3295961363,
				"z": -0.2034023543,
				"element": "H" 
			},
			{
				"x": 1.6439577592,
				"y": -0.2322996327,
				"z": -1.3943582932,
				"element": "H" 
			},
			{
				"x": 2.0828824369,
				"y": 0.652400794,
				"z": -2.8665665711,
				"element": "H" 
			},
			{
				"x": 0.5018389274,
				"y": 0.9215405728,
				"z": -2.1225846394,
				"element": "H" 
			},
			{
				"x": 0.9807231765,
				"y": 3.4565624413,
				"z": -1.9515483883,
				"element": "H" 
			},
			{
				"x": 2.4815680881,
				"y": 4.0146869203,
				"z": -1.186787207,
				"element": "H" 
			},
			{
				"x": 2.5437786699,
				"y": 3.192166327,
				"z": -2.7535202981,
				"element": "H" 
			},
			{
				"x": 2.0569982627,
				"y": 2.4551349404,
				"z": 0.9588684388,
				"element": "H" 
			},
			{
				"x": 0.0271338859,
				"y": -2.1213306017,
				"z": 3.2229593717,
				"element": "H" 
			},
			{
				"x": -1.8840615286,
				"y": -3.1556187747,
				"z": 1.9419640707,
				"element": "H" 
			},
			{
				"x": -2.1250405272,
				"y": 0.3748809802,
				"z": -0.5004295624,
				"element": "H" 
			},
			{
				"x": -4.4772411536,
				"y": -1.8723719697,
				"z": -1.4612851222,
				"element": "H" 
			}
		],
		 "valence_orbital": [ 
			{
				"type": "occ",
				"energy": -0.30664,
				"method": "rhf"
			},
			{
				"type": "occ",
				"energy": -0.29355,
				"method": "rhf"
			},
			{
				"type": "occ",
				"energy": -0.28773,
				"method": "rhf"
			},
			{
				"type": "occ",
				"energy": -0.27632,
				"method": "rhf"
			},
			{
				"type": "occ",
				"energy": -0.26341,
				"method": "rhf"
			},
			{
				"type": "unocc",
				"energy": -0.06333,
				"method": "rhf"
			},
			{
				"type": "unocc",
				"energy": -0.04456,
				"method": "rhf"
			},
			{
				"type": "unocc",
				"energy": 0.03291,
				"method": "rhf"
			},
			{
				"type": "unocc",
				"energy": 0.04732,
				"method": "rhf"
			},
			{
				"type": "unocc",
				"energy": 0.06055,
				"method": "rhf"
			}
		],
		"cosmo_sigma_profile": { 
			"-0.025": 0.0,
			"-0.024": 0.0,
			"-0.023": 0.0,
			"-0.022": 0.0,
			"-0.021": 0.0,
			"-0.02": 0.0,
			"-0.019": 0.19857281838,
			"-0.018": 0.873225992876,
			"-0.017": 1.33112999801,
			"-0.016": 0.70323984973,
			"-0.015": 0.252530093008,
			"-0.014": 1.29022090529,
			"-0.013": 1.5158134902,
			"-0.012": 1.38961804577,
			"-0.011": 1.98444284576,
			"-0.01": 1.68723494768,
			"-0.009": 3.22236335831,
			"-0.008": 4.69008891947,
			"-0.007": 5.7856774515,
			"-0.006": 5.3505411392,
			"-0.005": 6.83078080132,
			"-0.004": 17.8054629054,
			"-0.003": 24.2211068705,
			"-0.002": 31.1865785884,
			"-0.001": 38.4549393131,
			"0.0": 38.0385481245,
			"0.001": 22.171686751,
			"0.002": 11.1521120958,
			"0.003": 12.5340655067,
			"0.004": 7.27557166909,
			"0.005": 6.91825748943,
			"0.006": 6.45544290687,
			"0.007": 4.92387402704,
			"0.008": 5.69351222832,
			"0.009": 5.98372114441,
			"0.01": 9.10645710024,
			"0.011": 11.5610298689,
			"0.012": 2.73370149874,
			"0.013": 0.0,
			"0.014": 0.0,
			"0.015": 0.0,
			"0.016": 0.0,
			"0.017": 0.0,
			"0.018": 0.0,
			"0.019": 0.0,
			"0.02": 0.0,
			"0.021": 0.0,
			"0.022": 0.0,
			"0.023": 0.0,
			"0.024": 0.0,
			"0.025": 0.0
		}
	}
}
