{
	 "smiles": "CNC1=CC=C(C=C1)S(C)(=O)=O", 
	 "Tm": 400.15, 
	 "num_atms": 23, 
	 "gaussian": { 
		 "optdone": 1, 
		 "sigma_profile": "yes", 
		 "theory": "DFT", 
		 "functional": "B3LYP", 
		 "basiset": "6-31G**", 
		 "properties": { 
			 "R2extent": 3710.4566, 
			 "electric_dipole_moment_norm": 7.57028270344, 
			 "electric_quadrupole_moment_norm": 26.3974452353, 
			 "total_energy": -914.806078231, 
			 "HOMO_LUMO_gap": 0.19655, 
			 "cosmo_polarized_energy": -18.71, 
			 "cosmo_cavitation_energy": 27.82, 
			 "cosmo_dispersion_energy": -20.82, 
			 "cosmo_repulsion_energy": 1.61, 
			 "cosmo_total_nonelectrostatic_energy": 8.61, 
			 "SMD_solvation_energy": 3.99 
		},
		"coords": [
			{
				"x": -1.4298595876,
				"y": -1.8287408426,
				"z": -2.789193593,
				"element": "C" 
			},
			{
				"x": -1.6899277209,
				"y": -1.3233889394,
				"z": -1.4574336157,
				"element": "N" 
			},
			{
				"x": -0.995589838,
				"y": -0.2844382999,
				"z": -0.8846077296,
				"element": "C" 
			},
			{
				"x": -0.0866971482,
				"y": 0.5024448234,
				"z": -1.6257078203,
				"element": "C" 
			},
			{
				"x": 0.5786797023,
				"y": 1.5640894281,
				"z": -1.0229046601,
				"element": "C" 
			},
			{
				"x": 0.360582776,
				"y": 1.8550163896,
				"z": 0.3253720142,
				"element": "C" 
			},
			{
				"x": -0.5428718832,
				"y": 1.0900222513,
				"z": 1.0742993788,
				"element": "C" 
			},
			{
				"x": -1.2099631594,
				"y": 0.0332405173,
				"z": 0.4774993609,
				"element": "C" 
			},
			{
				"x": 1.2275915689,
				"y": 3.2120724971,
				"z": 1.0947900708,
				"element": "S" 
			},
			{
				"x": 2.7402334248,
				"y": 2.4606957547,
				"z": 1.7486369346,
				"element": "C" 
			},
			{
				"x": 0.4379532413,
				"y": 3.6643289595,
				"z": 2.2528261695,
				"element": "O" 
			},
			{
				"x": 1.6376857246,
				"y": 4.1540219676,
				"z": 0.039590616,
				"element": "O" 
			},
			{
				"x": -0.3928209781,
				"y": -2.1714056861,
				"z": -2.9205163627,
				"element": "H" 
			},
			{
				"x": -2.0960000599,
				"y": -2.6722011413,
				"z": -2.9806327004,
				"element": "H" 
			},
			{
				"x": -1.6344675163,
				"y": -1.0649901548,
				"z": -3.5487785903,
				"element": "H" 
			},
			{
				"x": -2.1858861312,
				"y": -1.9319201105,
				"z": -0.8259584756,
				"element": "H" 
			},
			{
				"x": 0.0894299139,
				"y": 0.2910602401,
				"z": -2.6740939987,
				"element": "H" 
			},
			{
				"x": 1.2576482768,
				"y": 2.18319596,
				"z": -1.6003107497,
				"element": "H" 
			},
			{
				"x": -0.7299268934,
				"y": 1.3446834286,
				"z": 2.1123828627,
				"element": "H" 
			},
			{
				"x": -1.9200858955,
				"y": -0.5537919915,
				"z": 1.0548391031,
				"element": "H" 
			},
			{
				"x": 3.3169259829,
				"y": 2.03873657,
				"z": 0.9244325865,
				"element": "H" 
			},
			{
				"x": 2.474483517,
				"y": 1.6924861486,
				"z": 2.476112155,
				"element": "H" 
			},
			{
				"x": 3.2994826832,
				"y": 3.2645822301,
				"z": 2.231857044,
				"element": "H" 
			}
		],
		 "valence_orbital": [ 
			{
				"type": "occ",
				"energy": -0.29781,
				"method": "rhf"
			},
			{
				"type": "occ",
				"energy": -0.28183,
				"method": "rhf"
			},
			{
				"type": "occ",
				"energy": -0.27378,
				"method": "rhf"
			},
			{
				"type": "occ",
				"energy": -0.26442,
				"method": "rhf"
			},
			{
				"type": "occ",
				"energy": -0.21411,
				"method": "rhf"
			},
			{
				"type": "unocc",
				"energy": -0.01756,
				"method": "rhf"
			},
			{
				"type": "unocc",
				"energy": -0.01254,
				"method": "rhf"
			},
			{
				"type": "unocc",
				"energy": 0.06309,
				"method": "rhf"
			},
			{
				"type": "unocc",
				"energy": 0.0805,
				"method": "rhf"
			},
			{
				"type": "unocc",
				"energy": 0.09407,
				"method": "rhf"
			}
		],
		"cosmo_sigma_profile": { 
			"-0.025": 0.0,
			"-0.024": 0.0,
			"-0.023": 0.0,
			"-0.022": 0.0,
			"-0.021": 0.0,
			"-0.02": 0.0,
			"-0.019": 0.0,
			"-0.018": 0.0,
			"-0.017": 0.0,
			"-0.016": 0.0,
			"-0.015": 0.0,
			"-0.014": 0.331123422826,
			"-0.013": 1.62016254716,
			"-0.012": 1.53353154681,
			"-0.011": 1.57306060538,
			"-0.01": 1.57895015363,
			"-0.009": 1.55107389952,
			"-0.008": 5.86900137924,
			"-0.007": 9.21431845841,
			"-0.006": 14.3526280462,
			"-0.005": 18.0703632516,
			"-0.004": 19.9004214583,
			"-0.003": 18.9152599346,
			"-0.002": 15.7108609866,
			"-0.001": 11.9089966017,
			"0.0": 8.39367965732,
			"0.001": 7.46740297961,
			"0.002": 9.05408555687,
			"0.003": 12.0496430581,
			"0.004": 14.574584933,
			"0.005": 8.84593497056,
			"0.006": 3.78461941491,
			"0.007": 3.12539372364,
			"0.008": 2.51906706711,
			"0.009": 2.3025255452,
			"0.01": 3.71209009637,
			"0.011": 7.55060554967,
			"0.012": 9.76694934271,
			"0.013": 5.29519165699,
			"0.014": 0.0,
			"0.015": 0.0,
			"0.016": 0.0,
			"0.017": 0.0,
			"0.018": 0.0,
			"0.019": 0.0,
			"0.02": 0.0,
			"0.021": 0.0,
			"0.022": 0.0,
			"0.023": 0.0,
			"0.024": 0.0,
			"0.025": 0.0
		}
	}
}
