{
	 "smiles": "CC1=C(C)C(=O)C(C(CCCCCC(O)=O)C2=CC=CC=C2)=C(C)C1=O", 
	 "Tm": 401.15, 
	 "num_atms": 52, 
	 "gaussian": { 
		 "optdone": 1, 
		 "sigma_profile": "yes", 
		 "theory": "DFT", 
		 "functional": "B3LYP", 
		 "basiset": "6-31G**", 
		 "properties": { 
			 "R2extent": 10037.5096, 
			 "electric_dipole_moment_norm": 1.45528663156, 
			 "electric_quadrupole_moment_norm": 26.0597519063, 
			 "total_energy": -1154.92086015, 
			 "HOMO_LUMO_gap": 0.12336, 
			 "cosmo_polarized_energy": -16.96, 
			 "cosmo_cavitation_energy": 51.91, 
			 "cosmo_dispersion_energy": -33.69, 
			 "cosmo_repulsion_energy": 2.55, 
			 "cosmo_total_nonelectrostatic_energy": 20.77, 
			 "SMD_solvation_energy": 9.95 
		},
		"coords": [
			{
				"x": -2.9607105815,
				"y": 4.2437428193,
				"z": 2.1107385602,
				"element": "C" 
			},
			{
				"x": -2.2926813865,
				"y": 2.9569407357,
				"z": 1.7142761634,
				"element": "C" 
			},
			{
				"x": -2.3237117099,
				"y": 2.3857997628,
				"z": 0.4878481982,
				"element": "C" 
			},
			{
				"x": -3.0179945107,
				"y": 2.9294060638,
				"z": -0.730356315,
				"element": "C" 
			},
			{
				"x": -1.6340406747,
				"y": 1.0791289049,
				"z": 0.2662852451,
				"element": "C" 
			},
			{
				"x": -1.7751614277,
				"y": 0.5142850806,
				"z": -0.8189752095,
				"element": "O" 
			},
			{
				"x": -0.7843294658,
				"y": 0.4586269745,
				"z": 1.3348443854,
				"element": "C" 
			},
			{
				"x": 0.0009217602,
				"y": -0.7796434699,
				"z": 0.8948448203,
				"element": "C" 
			},
			{
				"x": 1.5319325185,
				"y": -0.5619708408,
				"z": 0.9871257135,
				"element": "C" 
			},
			{
				"x": 2.3655001009,
				"y": -1.5631961867,
				"z": 0.1475385662,
				"element": "C" 
			},
			{
				"x": 2.8792778957,
				"y": -1.0749834266,
				"z": -1.222484265,
				"element": "C" 
			},
			{
				"x": 1.8304400974,
				"y": -0.7880595047,
				"z": -2.318572831,
				"element": "C" 
			},
			{
				"x": 1.2878333568,
				"y": 0.6446714704,
				"z": -2.3260570211,
				"element": "C" 
			},
			{
				"x": 0.2978676388,
				"y": 0.8929377561,
				"z": -3.4424401149,
				"element": "C" 
			},
			{
				"x": -0.2308201378,
				"y": 2.1443429072,
				"z": -3.3743620259,
				"element": "O" 
			},
			{
				"x": -0.0036888515,
				"y": 0.1140330027,
				"z": -4.3187713422,
				"element": "O" 
			},
			{
				"x": -0.5256570318,
				"y": -2.0603642476,
				"z": 1.5551874497,
				"element": "C" 
			},
			{
				"x": -1.8378273829,
				"y": -2.4672362208,
				"z": 1.2595911741,
				"element": "C" 
			},
			{
				"x": -2.3784819175,
				"y": -3.6217920362,
				"z": 1.8208887516,
				"element": "C" 
			},
			{
				"x": -1.6145462066,
				"y": -4.4049192907,
				"z": 2.6904115749,
				"element": "C" 
			},
			{
				"x": -0.307384269,
				"y": -4.0215205322,
				"z": 2.9833266382,
				"element": "C" 
			},
			{
				"x": 0.2320681975,
				"y": -2.8608009367,
				"z": 2.4197276742,
				"element": "C" 
			},
			{
				"x": -0.7756467976,
				"y": 1.0203553587,
				"z": 2.5685959769,
				"element": "C" 
			},
			{
				"x": -0.0262260237,
				"y": 0.4990927736,
				"z": 3.7632792777,
				"element": "C" 
			},
			{
				"x": -1.544120894,
				"y": 2.2832948157,
				"z": 2.8183053242,
				"element": "C" 
			},
			{
				"x": -1.5442059202,
				"y": 2.7853789109,
				"z": 3.9394385207,
				"element": "O" 
			},
			{
				"x": -2.2167142305,
				"y": 4.9632331005,
				"z": 2.4685425527,
				"element": "H" 
			},
			{
				"x": -3.5216589088,
				"y": 4.6952904731,
				"z": 1.2934061784,
				"element": "H" 
			},
			{
				"x": -3.6395332369,
				"y": 4.0710539874,
				"z": 2.9517671877,
				"element": "H" 
			},
			{
				"x": -3.8203086076,
				"y": 2.2534765186,
				"z": -1.0448298183,
				"element": "H" 
			},
			{
				"x": -2.3134209703,
				"y": 2.9752184998,
				"z": -1.5667713447,
				"element": "H" 
			},
			{
				"x": -3.4395340255,
				"y": 3.9202893847,
				"z": -0.5649258599,
				"element": "H" 
			},
			{
				"x": -0.2397750898,
				"y": -0.8879732343,
				"z": -0.1665488931,
				"element": "H" 
			},
			{
				"x": 1.7561824293,
				"y": 0.4615294166,
				"z": 0.6649070985,
				"element": "H" 
			},
			{
				"x": 1.8483309422,
				"y": -0.6048310873,
				"z": 2.0338468365,
				"element": "H" 
			},
			{
				"x": 3.2462817088,
				"y": -1.8579364604,
				"z": 0.7314839482,
				"element": "H" 
			},
			{
				"x": 1.7892947549,
				"y": -2.4852447423,
				"z": 0.0016252968,
				"element": "H" 
			},
			{
				"x": 3.5103623016,
				"y": -0.1862359165,
				"z": -1.0771194225,
				"element": "H" 
			},
			{
				"x": 3.5531198564,
				"y": -1.8541769557,
				"z": -1.5995021102,
				"element": "H" 
			},
			{
				"x": 2.2762232249,
				"y": -0.9765182052,
				"z": -3.300994054,
				"element": "H" 
			},
			{
				"x": 0.9954926048,
				"y": -1.4939129819,
				"z": -2.2397846496,
				"element": "H" 
			},
			{
				"x": 0.7904060836,
				"y": 0.9097216016,
				"z": -1.3902036684,
				"element": "H" 
			},
			{
				"x": 2.1048752855,
				"y": 1.369207344,
				"z": -2.4450518853,
				"element": "H" 
			},
			{
				"x": -0.8500945788,
				"y": 2.2071511725,
				"z": -4.1207680542,
				"element": "H" 
			},
			{
				"x": -2.4327866551,
				"y": -1.8728933329,
				"z": 0.5711166207,
				"element": "H" 
			},
			{
				"x": -3.3953128121,
				"y": -3.9146725702,
				"z": 1.5743926038,
				"element": "H" 
			},
			{
				"x": -2.0329153271,
				"y": -5.3068515887,
				"z": 3.1276173751,
				"element": "H" 
			},
			{
				"x": 0.3020398818,
				"y": -4.6255844463,
				"z": 3.6498439542,
				"element": "H" 
			},
			{
				"x": 1.256837364,
				"y": -2.592702167,
				"z": 2.6559937245,
				"element": "H" 
			},
			{
				"x": 0.942671458,
				"y": 1.0044361376,
				"z": 3.861251407,
				"element": "H" 
			},
			{
				"x": 0.1485894048,
				"y": -0.5737793332,
				"z": 3.6967428457,
				"element": "H" 
			},
			{
				"x": -0.5839592346,
				"y": 0.7235547415,
				"z": 4.6744272404,
				"element": "H" 
			}
		],
		 "valence_orbital": [ 
			{
				"type": "occ",
				"energy": -0.26902,
				"method": "rhf"
			},
			{
				"type": "occ",
				"energy": -0.26376,
				"method": "rhf"
			},
			{
				"type": "occ",
				"energy": -0.25736,
				"method": "rhf"
			},
			{
				"type": "occ",
				"energy": -0.24886,
				"method": "rhf"
			},
			{
				"type": "occ",
				"energy": -0.23728,
				"method": "rhf"
			},
			{
				"type": "unocc",
				"energy": -0.11392,
				"method": "rhf"
			},
			{
				"type": "unocc",
				"energy": -0.00899,
				"method": "rhf"
			},
			{
				"type": "unocc",
				"energy": -0.00381,
				"method": "rhf"
			},
			{
				"type": "unocc",
				"energy": 0.00093,
				"method": "rhf"
			},
			{
				"type": "unocc",
				"energy": 0.01416,
				"method": "rhf"
			}
		],
		"cosmo_sigma_profile": { 
			"-0.025": 0.0,
			"-0.024": 0.0,
			"-0.023": 0.0,
			"-0.022": 0.0,
			"-0.021": 0.0,
			"-0.02": 0.0,
			"-0.019": 0.0,
			"-0.018": 0.399713315679,
			"-0.017": 0.904598996378,
			"-0.016": 1.04146896851,
			"-0.015": 0.699060964295,
			"-0.014": 0.302366210342,
			"-0.013": 0.271676626584,
			"-0.012": 0.835067878926,
			"-0.011": 0.905277097426,
			"-0.01": 0.577246382916,
			"-0.009": 0.744014069763,
			"-0.008": 0.678701032726,
			"-0.007": 2.25668664497,
			"-0.006": 8.44464040846,
			"-0.005": 20.3985103334,
			"-0.004": 31.6354280476,
			"-0.003": 48.7879501216,
			"-0.002": 51.7348394743,
			"-0.001": 54.1359936748,
			"0.0": 45.0643234959,
			"0.001": 24.8221535719,
			"0.002": 16.1429229211,
			"0.003": 15.5871952962,
			"0.004": 14.7217613244,
			"0.005": 14.2267458612,
			"0.006": 13.9216465509,
			"0.007": 6.24440545614,
			"0.008": 5.84489852137,
			"0.009": 6.1915099763,
			"0.01": 6.16978541502,
			"0.011": 7.56221840959,
			"0.012": 6.3681227597,
			"0.013": 0.808991283685,
			"0.014": 0.0,
			"0.015": 0.0,
			"0.016": 0.0,
			"0.017": 0.0,
			"0.018": 0.0,
			"0.019": 0.0,
			"0.02": 0.0,
			"0.021": 0.0,
			"0.022": 0.0,
			"0.023": 0.0,
			"0.024": 0.0,
			"0.025": 0.0
		}
	}
}
