{
	 "smiles": "FC(F)(F)C1=CC=CC(Br)=C1", 
	 "Tm": 274.15, 
	 "num_atms": 15, 
	 "gaussian": { 
		 "optdone": 1, 
		 "sigma_profile": "yes", 
		 "theory": "DFT", 
		 "functional": "B3LYP", 
		 "basiset": "6-31G**", 
		 "properties": { 
			 "R2extent": 3210.9857, 
			 "electric_dipole_moment_norm": 2.15934270323, 
			 "electric_quadrupole_moment_norm": 8.19485949117, 
			 "total_energy": -3140.0867908, 
			 "HOMO_LUMO_gap": 0.21721, 
			 "cosmo_polarized_energy": -3.89, 
			 "cosmo_cavitation_energy": 23.2, 
			 "cosmo_dispersion_energy": -17.05, 
			 "cosmo_repulsion_energy": 1.31, 
			 "cosmo_total_nonelectrostatic_energy": 7.46, 
			 "SMD_solvation_energy": 4.03 
		},
		"coords": [
			{
				"x": -4.0237207058,
				"y": -0.0550869007,
				"z": -1.0090277923,
				"element": "F" 
			},
			{
				"x": -2.9664046168,
				"y": 0.4204871225,
				"z": -1.7057122628,
				"element": "C" 
			},
			{
				"x": -3.1537395779,
				"y": 0.0641996741,
				"z": -2.9952693824,
				"element": "F" 
			},
			{
				"x": -3.02377873,
				"y": 1.7677397754,
				"z": -1.6404733241,
				"element": "F" 
			},
			{
				"x": -1.6654286308,
				"y": -0.1144462112,
				"z": -1.1652819613,
				"element": "C" 
			},
			{
				"x": -1.1934592657,
				"y": -1.3557482469,
				"z": -1.5992869985,
				"element": "C" 
			},
			{
				"x": -0.017257239,
				"y": -1.8713699501,
				"z": -1.0574239135,
				"element": "C" 
			},
			{
				"x": 0.6886930242,
				"y": -1.1576197857,
				"z": -0.087546732,
				"element": "C" 
			},
			{
				"x": 0.2022921549,
				"y": 0.0800104753,
				"z": 0.3316576905,
				"element": "C" 
			},
			{
				"x": 1.1648823172,
				"y": 1.0675530701,
				"z": 1.6519984628,
				"element": "Br" 
			},
			{
				"x": -0.9705982232,
				"y": 0.6134571971,
				"z": -0.1965578993,
				"element": "C" 
			},
			{
				"x": -1.7384059653,
				"y": -1.9051448946,
				"z": -2.3588737258,
				"element": "H" 
			},
			{
				"x": 0.3579662366,
				"y": -2.833518102,
				"z": -1.3919507118,
				"element": "H" 
			},
			{
				"x": 1.6048535129,
				"y": -1.5534404162,
				"z": 0.3354958053,
				"element": "H" 
			},
			{
				"x": -1.3341942912,
				"y": 1.5792271929,
				"z": 0.1315527451,
				"element": "H" 
			}
		],
		 "valence_orbital": [ 
			{
				"type": "occ",
				"energy": -0.36732,
				"method": "rhf"
			},
			{
				"type": "occ",
				"energy": -0.32635,
				"method": "rhf"
			},
			{
				"type": "occ",
				"energy": -0.29732,
				"method": "rhf"
			},
			{
				"type": "occ",
				"energy": -0.28198,
				"method": "rhf"
			},
			{
				"type": "occ",
				"energy": -0.25769,
				"method": "rhf"
			},
			{
				"type": "unocc",
				"energy": -0.04048,
				"method": "rhf"
			},
			{
				"type": "unocc",
				"energy": -0.03036,
				"method": "rhf"
			},
			{
				"type": "unocc",
				"energy": -0.00373,
				"method": "rhf"
			},
			{
				"type": "unocc",
				"energy": 0.09776,
				"method": "rhf"
			},
			{
				"type": "unocc",
				"energy": 0.11063,
				"method": "rhf"
			}
		],
		"cosmo_sigma_profile": { 
			"-0.025": 0.0,
			"-0.024": 0.0,
			"-0.023": 0.0,
			"-0.022": 0.0,
			"-0.021": 0.0,
			"-0.02": 0.0,
			"-0.019": 0.0,
			"-0.018": 0.0,
			"-0.017": 0.0,
			"-0.016": 0.0,
			"-0.015": 0.0,
			"-0.014": 0.0,
			"-0.013": 0.0,
			"-0.012": 0.0,
			"-0.011": 0.0,
			"-0.01": 0.0,
			"-0.009": 0.0,
			"-0.008": 2.3530864505,
			"-0.007": 7.54015293858,
			"-0.006": 8.28486947814,
			"-0.005": 8.69318698158,
			"-0.004": 7.80601978604,
			"-0.003": 8.99043011172,
			"-0.002": 9.2450649856,
			"-0.001": 12.2202807283,
			"0.0": 17.8212771603,
			"0.001": 24.6720525503,
			"0.002": 36.3689930882,
			"0.003": 32.9287398942,
			"0.004": 11.2043335103,
			"0.005": 2.12990765327,
			"0.006": 0.0,
			"0.007": 0.0,
			"0.008": 0.0,
			"0.009": 0.0,
			"0.01": 0.0,
			"0.011": 0.0,
			"0.012": 0.0,
			"0.013": 0.0,
			"0.014": 0.0,
			"0.015": 0.0,
			"0.016": 0.0,
			"0.017": 0.0,
			"0.018": 0.0,
			"0.019": 0.0,
			"0.02": 0.0,
			"0.021": 0.0,
			"0.022": 0.0,
			"0.023": 0.0,
			"0.024": 0.0,
			"0.025": 0.0
		}
	}
}
