{
	 "smiles": "CN(C=O)C1=CC=C(C=C1)C(O)=O", 
	 "Tm": 492.15, 
	 "num_atms": 22, 
	 "gaussian": { 
		 "optdone": 1, 
		 "sigma_profile": "yes", 
		 "theory": "DFT", 
		 "functional": "B3LYP", 
		 "basiset": "6-31G**", 
		 "properties": { 
			 "R2extent": 3337.0101, 
			 "electric_dipole_moment_norm": 2.92352724803, 
			 "electric_quadrupole_moment_norm": 12.0598637729, 
			 "total_energy": -628.829451491, 
			 "HOMO_LUMO_gap": 0.18145, 
			 "cosmo_polarized_energy": -14.64, 
			 "cosmo_cavitation_energy": 26.75, 
			 "cosmo_dispersion_energy": -19.55, 
			 "cosmo_repulsion_energy": 1.53, 
			 "cosmo_total_nonelectrostatic_energy": 8.73, 
			 "SMD_solvation_energy": 7.32 
		},
		"coords": [
			{
				"x": -0.3958710778,
				"y": -1.2404876263,
				"z": -2.8702780056,
				"element": "C" 
			},
			{
				"x": 0.7472626731,
				"y": -1.0994767121,
				"z": -1.9676552414,
				"element": "N" 
			},
			{
				"x": 2.0010236074,
				"y": -1.4001681103,
				"z": -2.4680673188,
				"element": "C" 
			},
			{
				"x": 2.2057331505,
				"y": -1.8679002637,
				"z": -3.5729345755,
				"element": "O" 
			},
			{
				"x": 0.5743220128,
				"y": -0.5670916428,
				"z": -0.6704036806,
				"element": "C" 
			},
			{
				"x": 1.4101561402,
				"y": -0.9650771795,
				"z": 0.39084162,
				"element": "C" 
			},
			{
				"x": 1.2404752309,
				"y": -0.4209115516,
				"z": 1.6564674562,
				"element": "C" 
			},
			{
				"x": 0.2208150692,
				"y": 0.5073107323,
				"z": 1.9064287815,
				"element": "C" 
			},
			{
				"x": -0.6309272092,
				"y": 0.8819970213,
				"z": 0.8590706823,
				"element": "C" 
			},
			{
				"x": -0.4561229165,
				"y": 0.3542475307,
				"z": -0.4153393742,
				"element": "C" 
			},
			{
				"x": 0.0807005744,
				"y": 1.0427584359,
				"z": 3.2822676946,
				"element": "C" 
			},
			{
				"x": -0.9461719281,
				"y": 1.921957629,
				"z": 3.4089183498,
				"element": "O" 
			},
			{
				"x": 0.7949475856,
				"y": 0.7461119466,
				"z": 4.2204134754,
				"element": "O" 
			},
			{
				"x": -1.2495781688,
				"y": -1.6503671059,
				"z": -2.3260116539,
				"element": "H" 
			},
			{
				"x": -0.6803682397,
				"y": -0.2814068865,
				"z": -3.3180095103,
				"element": "H" 
			},
			{
				"x": -0.097241286,
				"y": -1.91873723,
				"z": -3.6687819707,
				"element": "H" 
			},
			{
				"x": 2.8110753882,
				"y": -1.1527907554,
				"z": -1.7630230506,
				"element": "H" 
			},
			{
				"x": 2.1667124613,
				"y": -1.7254142889,
				"z": 0.233620549,
				"element": "H" 
			},
			{
				"x": 1.8791144834,
				"y": -0.7242113063,
				"z": 2.4791373594,
				"element": "H" 
			},
			{
				"x": -1.4255373207,
				"y": 1.5958906217,
				"z": 1.0437018558,
				"element": "H" 
			},
			{
				"x": -1.1116994711,
				"y": 0.6710463529,
				"z": -1.2181892207,
				"element": "H" 
			},
			{
				"x": -0.938320759,
				"y": 2.2027203886,
				"z": 4.3385257785,
				"element": "H" 
			}
		],
		 "valence_orbital": [ 
			{
				"type": "occ",
				"energy": -0.30455,
				"method": "rhf"
			},
			{
				"type": "occ",
				"energy": -0.28076,
				"method": "rhf"
			},
			{
				"type": "occ",
				"energy": -0.27572,
				"method": "rhf"
			},
			{
				"type": "occ",
				"energy": -0.26669,
				"method": "rhf"
			},
			{
				"type": "occ",
				"energy": -0.23765,
				"method": "rhf"
			},
			{
				"type": "unocc",
				"energy": -0.0562,
				"method": "rhf"
			},
			{
				"type": "unocc",
				"energy": -0.02255,
				"method": "rhf"
			},
			{
				"type": "unocc",
				"energy": 0.00677,
				"method": "rhf"
			},
			{
				"type": "unocc",
				"energy": 0.05564,
				"method": "rhf"
			},
			{
				"type": "unocc",
				"energy": 0.07251,
				"method": "rhf"
			}
		],
		"cosmo_sigma_profile": { 
			"-0.025": 0.0,
			"-0.024": 0.0,
			"-0.023": 0.0,
			"-0.022": 0.0,
			"-0.021": 0.0,
			"-0.02": 0.0,
			"-0.019": 0.022079772736,
			"-0.018": 0.58352318293,
			"-0.017": 1.11457150255,
			"-0.016": 0.831901785444,
			"-0.015": 0.452730041649,
			"-0.014": 0.599191274524,
			"-0.013": 0.92199674789,
			"-0.012": 0.778504739415,
			"-0.011": 0.969741387072,
			"-0.01": 0.680790351167,
			"-0.009": 1.92258208515,
			"-0.008": 4.14490695091,
			"-0.007": 7.99914714714,
			"-0.006": 14.04570732,
			"-0.005": 15.446592519,
			"-0.004": 13.3241192714,
			"-0.003": 14.546547917,
			"-0.002": 16.8727984837,
			"-0.001": 12.678645347,
			"0.0": 14.0641298096,
			"0.001": 14.3275744298,
			"0.002": 13.9473890037,
			"0.003": 16.4866818083,
			"0.004": 4.92159114038,
			"0.005": 4.01335816298,
			"0.006": 3.93468763125,
			"0.007": 5.60463363561,
			"0.008": 3.05082170873,
			"0.009": 2.90474612472,
			"0.01": 3.22134500732,
			"0.011": 6.2607838486,
			"0.012": 9.00872544068,
			"0.013": 3.32002499172,
			"0.014": 0.683632772784,
			"0.015": 0.0,
			"0.016": 0.0,
			"0.017": 0.0,
			"0.018": 0.0,
			"0.019": 0.0,
			"0.02": 0.0,
			"0.021": 0.0,
			"0.022": 0.0,
			"0.023": 0.0,
			"0.024": 0.0,
			"0.025": 0.0
		}
	}
}
