{
	 "smiles": "OC1=CC(F)=C(F)C=C1F", 
	 "Tm": 314.15, 
	 "num_atms": 13, 
	 "gaussian": { 
		 "optdone": 1, 
		 "sigma_profile": "yes", 
		 "theory": "DFT", 
		 "functional": "B3LYP", 
		 "basiset": "6-31G**", 
		 "properties": { 
			 "R2extent": 1444.3933, 
			 "electric_dipole_moment_norm": 1.88081462404, 
			 "electric_quadrupole_moment_norm": 0.689383579729, 
			 "total_energy": -605.154129948, 
			 "HOMO_LUMO_gap": 0.20971, 
			 "cosmo_polarized_energy": -5.82, 
			 "cosmo_cavitation_energy": 19.18, 
			 "cosmo_dispersion_energy": -14.03, 
			 "cosmo_repulsion_energy": 1.07, 
			 "cosmo_total_nonelectrostatic_energy": 6.22, 
			 "SMD_solvation_energy": 5.23 
		},
		"coords": [
			{
				"x": -2.2676117083,
				"y": 1.9006378833,
				"z": 0.9859514881,
				"element": "O" 
			},
			{
				"x": -1.3851349321,
				"y": 0.9838535282,
				"z": 0.5075876565,
				"element": "C" 
			},
			{
				"x": -1.8321772651,
				"y": -0.2787455289,
				"z": 0.1123660008,
				"element": "C" 
			},
			{
				"x": -0.9190794656,
				"y": -1.2056619774,
				"z": -0.3745626613,
				"element": "C" 
			},
			{
				"x": -1.3390036063,
				"y": -2.4229017391,
				"z": -0.757281719,
				"element": "F" 
			},
			{
				"x": 0.4369590216,
				"y": -0.8958696735,
				"z": -0.4751997461,
				"element": "C" 
			},
			{
				"x": 1.2932994437,
				"y": -1.8166233553,
				"z": -0.9509135232,
				"element": "F" 
			},
			{
				"x": 0.8983854713,
				"y": 0.3564755987,
				"z": -0.0860055913,
				"element": "C" 
			},
			{
				"x": -0.021853983,
				"y": 1.2724090953,
				"z": 0.3980108256,
				"element": "C" 
			},
			{
				"x": 0.3777768675,
				"y": 2.510806889,
				"z": 0.79188391,
				"element": "F" 
			},
			{
				"x": -1.7727002522,
				"y": 2.7038899311,
				"z": 1.2042653259,
				"element": "H" 
			},
			{
				"x": -2.8827721402,
				"y": -0.5335849123,
				"z": 0.1848894742,
				"element": "H" 
			},
			{
				"x": 1.9498125487,
				"y": 0.6067142609,
				"z": -0.1602914402,
				"element": "H" 
			}
		],
		 "valence_orbital": [ 
			{
				"type": "occ",
				"energy": -0.37967,
				"method": "rhf"
			},
			{
				"type": "occ",
				"energy": -0.37174,
				"method": "rhf"
			},
			{
				"type": "occ",
				"energy": -0.33506,
				"method": "rhf"
			},
			{
				"type": "occ",
				"energy": -0.26566,
				"method": "rhf"
			},
			{
				"type": "occ",
				"energy": -0.2305,
				"method": "rhf"
			},
			{
				"type": "unocc",
				"energy": -0.02079,
				"method": "rhf"
			},
			{
				"type": "unocc",
				"energy": 0.00369,
				"method": "rhf"
			},
			{
				"type": "unocc",
				"energy": 0.04708,
				"method": "rhf"
			},
			{
				"type": "unocc",
				"energy": 0.08164,
				"method": "rhf"
			},
			{
				"type": "unocc",
				"energy": 0.12605,
				"method": "rhf"
			}
		],
		"cosmo_sigma_profile": { 
			"-0.025": 0.0,
			"-0.024": 0.0,
			"-0.023": 0.0,
			"-0.022": 0.0,
			"-0.021": 0.0,
			"-0.02": 0.0,
			"-0.019": 0.0,
			"-0.018": 0.0,
			"-0.017": 0.43334138469,
			"-0.016": 0.542595278234,
			"-0.015": 0.661958298394,
			"-0.014": 0.790471589491,
			"-0.013": 0.488117458576,
			"-0.012": 1.15925190738,
			"-0.011": 0.821324387972,
			"-0.01": 1.53710651023,
			"-0.009": 3.02815134676,
			"-0.008": 3.17666025826,
			"-0.007": 4.09105553985,
			"-0.006": 4.16769538375,
			"-0.005": 3.82163141809,
			"-0.004": 4.04102109356,
			"-0.003": 4.57146967522,
			"-0.002": 6.23846148886,
			"-0.001": 13.7153966455,
			"0.0": 21.695782837,
			"0.001": 17.024435506,
			"0.002": 12.8069930517,
			"0.003": 20.3602623512,
			"0.004": 20.2309512697,
			"0.005": 1.10241355062,
			"0.006": 1.63100795451,
			"0.007": 1.10852731933,
			"0.008": 1.60108183313,
			"0.009": 1.69445053738,
			"0.01": 1.68727295358,
			"0.011": 0.683508402107,
			"0.012": 0.0,
			"0.013": 0.0,
			"0.014": 0.0,
			"0.015": 0.0,
			"0.016": 0.0,
			"0.017": 0.0,
			"0.018": 0.0,
			"0.019": 0.0,
			"0.02": 0.0,
			"0.021": 0.0,
			"0.022": 0.0,
			"0.023": 0.0,
			"0.024": 0.0,
			"0.025": 0.0
		}
	}
}
