{
	 "smiles": "NC1=CC(CN2C=NC=N2)=CC=C1", 
	 "Tm": 361.65, 
	 "num_atms": 23, 
	 "gaussian": { 
		 "optdone": 1, 
		 "sigma_profile": "yes", 
		 "theory": "DFT", 
		 "functional": "B3LYP", 
		 "basiset": "6-31G**", 
		 "properties": { 
			 "R2extent": 3276.3401, 
			 "electric_dipole_moment_norm": 2.67204045628, 
			 "electric_quadrupole_moment_norm": 20.970968742, 
			 "total_energy": -567.976741561, 
			 "HOMO_LUMO_gap": 0.19781, 
			 "cosmo_polarized_energy": -14.9, 
			 "cosmo_cavitation_energy": 27.38, 
			 "cosmo_dispersion_energy": -19.69, 
			 "cosmo_repulsion_energy": 1.56, 
			 "cosmo_total_nonelectrostatic_energy": 9.24, 
			 "SMD_solvation_energy": 2.65 
		},
		"coords": [
			{
				"x": -2.3388787158,
				"y": 0.1019110912,
				"z": 3.6699334854,
				"element": "N" 
			},
			{
				"x": -1.9026571004,
				"y": 0.737130995,
				"z": 2.5083014555,
				"element": "C" 
			},
			{
				"x": -0.9142181974,
				"y": 0.1510186534,
				"z": 1.7023214498,
				"element": "C" 
			},
			{
				"x": -0.5109455473,
				"y": 0.7592232603,
				"z": 0.5109313558,
				"element": "C" 
			},
			{
				"x": 0.5474470788,
				"y": 0.0997954821,
				"z": -0.35502899,
				"element": "C" 
			},
			{
				"x": 1.796624312,
				"y": -0.1817422709,
				"z": 0.3500339022,
				"element": "N" 
			},
			{
				"x": 2.8736567974,
				"y": 0.6119029092,
				"z": 0.5436344358,
				"element": "C" 
			},
			{
				"x": 3.7713577968,
				"y": 0.0035102461,
				"z": 1.3024480145,
				"element": "N" 
			},
			{
				"x": 3.1710183349,
				"y": -1.1906646221,
				"z": 1.5612765871,
				"element": "C" 
			},
			{
				"x": 1.9747427238,
				"y": -1.3557581237,
				"z": 1.011427146,
				"element": "N" 
			},
			{
				"x": -1.0944220019,
				"y": 1.9637578654,
				"z": 0.1064168016,
				"element": "C" 
			},
			{
				"x": -2.0841213158,
				"y": 2.5470652708,
				"z": 0.901809232,
				"element": "C" 
			},
			{
				"x": -2.4870249315,
				"y": 1.9478232337,
				"z": 2.0900566304,
				"element": "C" 
			},
			{
				"x": -2.7595202224,
				"y": 0.7046249702,
				"z": 4.3632356428,
				"element": "H" 
			},
			{
				"x": -1.683968906,
				"y": -0.550379092,
				"z": 4.078309026,
				"element": "H" 
			},
			{
				"x": -0.4486231087,
				"y": -0.7821726455,
				"z": 2.0091032994,
				"element": "H" 
			},
			{
				"x": 0.1984840429,
				"y": -0.8623892429,
				"z": -0.7398246287,
				"element": "H" 
			},
			{
				"x": 0.7861228866,
				"y": 0.7362140048,
				"z": -1.2115150086,
				"element": "H" 
			},
			{
				"x": 2.9592912002,
				"y": 1.6015147702,
				"z": 0.1160673998,
				"element": "H" 
			},
			{
				"x": 3.6281518568,
				"y": -1.9645831684,
				"z": 2.1626882442,
				"element": "H" 
			},
			{
				"x": -0.7815606789,
				"y": 2.4411657237,
				"z": -0.818047712,
				"element": "H" 
			},
			{
				"x": -2.5414620096,
				"y": 3.4836675609,
				"z": 0.5952656134,
				"element": "H" 
			},
			{
				"x": -3.2584942945,
				"y": 2.4095631286,
				"z": 2.7013566174,
				"element": "H" 
			}
		],
		 "valence_orbital": [ 
			{
				"type": "occ",
				"energy": -0.28451,
				"method": "rhf"
			},
			{
				"type": "occ",
				"energy": -0.27149,
				"method": "rhf"
			},
			{
				"type": "occ",
				"energy": -0.2611,
				"method": "rhf"
			},
			{
				"type": "occ",
				"energy": -0.24706,
				"method": "rhf"
			},
			{
				"type": "occ",
				"energy": -0.20714,
				"method": "rhf"
			},
			{
				"type": "unocc",
				"energy": -0.00933,
				"method": "rhf"
			},
			{
				"type": "unocc",
				"energy": 0.0084,
				"method": "rhf"
			},
			{
				"type": "unocc",
				"energy": 0.01555,
				"method": "rhf"
			},
			{
				"type": "unocc",
				"energy": 0.05647,
				"method": "rhf"
			},
			{
				"type": "unocc",
				"energy": 0.07873,
				"method": "rhf"
			}
		],
		"cosmo_sigma_profile": { 
			"-0.025": 0.0,
			"-0.024": 0.0,
			"-0.023": 0.0,
			"-0.022": 0.0,
			"-0.021": 0.0,
			"-0.02": 0.0,
			"-0.019": 0.0,
			"-0.018": 0.0,
			"-0.017": 0.0,
			"-0.016": 0.0,
			"-0.015": 0.0,
			"-0.014": 0.0,
			"-0.013": 0.235275008067,
			"-0.012": 2.38160008976,
			"-0.011": 3.14601912707,
			"-0.01": 4.74849809711,
			"-0.009": 6.50575003011,
			"-0.008": 7.69591032775,
			"-0.007": 9.84250337012,
			"-0.006": 11.5207106134,
			"-0.005": 12.9122534119,
			"-0.004": 13.714190104,
			"-0.003": 12.0440253295,
			"-0.002": 10.4096381569,
			"-0.001": 11.4207842765,
			"0.0": 10.4830853362,
			"0.001": 11.7454115828,
			"0.002": 12.889899573,
			"0.003": 11.9134550115,
			"0.004": 11.6902860315,
			"0.005": 10.9905785758,
			"0.006": 11.8301761932,
			"0.007": 8.30235168402,
			"0.008": 3.28766783027,
			"0.009": 3.1725393788,
			"0.01": 2.14068133466,
			"0.011": 3.19662625827,
			"0.012": 2.63459978839,
			"0.013": 2.46972849218,
			"0.014": 2.51084152258,
			"0.015": 1.10373379605,
			"0.016": 1.20011901687,
			"0.017": 0.379343305589,
			"0.018": 0.0,
			"0.019": 0.0,
			"0.02": 0.0,
			"0.021": 0.0,
			"0.022": 0.0,
			"0.023": 0.0,
			"0.024": 0.0,
			"0.025": 0.0
		}
	}
}
