{
	 "smiles": "[O-][N+](=O)C1=CC=CC=C1C#N", 
	 "Tm": 381.15, 
	 "num_atms": 15, 
	 "gaussian": { 
		 "optdone": 1, 
		 "sigma_profile": "yes", 
		 "theory": "DFT", 
		 "functional": "B3LYP", 
		 "basiset": "6-31G**", 
		 "properties": { 
			 "R2extent": 1746.1472, 
			 "electric_dipole_moment_norm": 6.77731898393, 
			 "electric_quadrupole_moment_norm": 11.0456853169, 
			 "total_energy": -528.976127326, 
			 "HOMO_LUMO_gap": 0.1788, 
			 "cosmo_polarized_energy": -14.0, 
			 "cosmo_cavitation_energy": 21.35, 
			 "cosmo_dispersion_energy": -15.29, 
			 "cosmo_repulsion_energy": 1.22, 
			 "cosmo_total_nonelectrostatic_energy": 7.29, 
			 "SMD_solvation_energy": 7.08 
		},
		"coords": [
			{
				"x": 0.8885091274,
				"y": -1.8604013087,
				"z": -0.4178559955,
				"element": "O" 
			},
			{
				"x": 1.2274471785,
				"y": -0.7297067996,
				"z": -0.0729111073,
				"element": "N" 
			},
			{
				"x": 2.3848548643,
				"y": -0.3639336266,
				"z": 0.1064967713,
				"element": "O" 
			},
			{
				"x": 0.1555203512,
				"y": 0.2618343937,
				"z": 0.1410539038,
				"element": "C" 
			},
			{
				"x": -1.1565444321,
				"y": -0.1559749888,
				"z": -0.0627857097,
				"element": "C" 
			},
			{
				"x": -2.2045693611,
				"y": 0.7416816104,
				"z": 0.1258961152,
				"element": "C" 
			},
			{
				"x": -1.9350027395,
				"y": 2.0542402654,
				"z": 0.5178615462,
				"element": "C" 
			},
			{
				"x": -0.6213023354,
				"y": 2.4686436174,
				"z": 0.7208251377,
				"element": "C" 
			},
			{
				"x": 0.4533315687,
				"y": 1.5800142468,
				"z": 0.5365131387,
				"element": "C" 
			},
			{
				"x": 1.7701361102,
				"y": 2.0992252843,
				"z": 0.7695608922,
				"element": "C" 
			},
			{
				"x": 2.7586421327,
				"y": 2.6683458056,
				"z": 0.9958939416,
				"element": "N" 
			},
			{
				"x": -1.3291148933,
				"y": -1.180482342,
				"z": -0.3664234641,
				"element": "H" 
			},
			{
				"x": -3.2268992938,
				"y": 0.4148502898,
				"z": -0.0332224025,
				"element": "H" 
			},
			{
				"x": -2.74711298,
				"y": 2.7586645338,
				"z": 0.6665581935,
				"element": "H" 
			},
			{
				"x": -0.4037952978,
				"y": 3.4862990184,
				"z": 1.0252390389,
				"element": "H" 
			}
		],
		 "valence_orbital": [ 
			{
				"type": "occ",
				"energy": -0.32438,
				"method": "rhf"
			},
			{
				"type": "occ",
				"energy": -0.31967,
				"method": "rhf"
			},
			{
				"type": "occ",
				"energy": -0.30676,
				"method": "rhf"
			},
			{
				"type": "occ",
				"energy": -0.30203,
				"method": "rhf"
			},
			{
				"type": "occ",
				"energy": -0.29119,
				"method": "rhf"
			},
			{
				"type": "unocc",
				"energy": -0.11239,
				"method": "rhf"
			},
			{
				"type": "unocc",
				"energy": -0.06784,
				"method": "rhf"
			},
			{
				"type": "unocc",
				"energy": -0.02288,
				"method": "rhf"
			},
			{
				"type": "unocc",
				"energy": 0.02738,
				"method": "rhf"
			},
			{
				"type": "unocc",
				"energy": 0.05745,
				"method": "rhf"
			}
		],
		"cosmo_sigma_profile": { 
			"-0.025": 0.0,
			"-0.024": 0.0,
			"-0.023": 0.0,
			"-0.022": 0.0,
			"-0.021": 0.0,
			"-0.02": 0.0,
			"-0.019": 0.0,
			"-0.018": 0.0,
			"-0.017": 0.0,
			"-0.016": 0.0,
			"-0.015": 0.0,
			"-0.014": 0.0,
			"-0.013": 0.0,
			"-0.012": 0.0,
			"-0.011": 0.0,
			"-0.01": 0.21458443657,
			"-0.009": 4.10163823514,
			"-0.008": 11.890244177,
			"-0.007": 11.2891651431,
			"-0.006": 8.92849024204,
			"-0.005": 9.01120154699,
			"-0.004": 9.54192031033,
			"-0.003": 12.9917288161,
			"-0.002": 13.8742766457,
			"-0.001": 12.8096752381,
			"0.0": 12.9011140578,
			"0.001": 4.67562729977,
			"0.002": 2.87387312188,
			"0.003": 4.94726715354,
			"0.004": 4.09668268138,
			"0.005": 4.34140606417,
			"0.006": 7.91484547327,
			"0.007": 12.0800339122,
			"0.008": 10.1233193281,
			"0.009": 6.44251136855,
			"0.01": 3.43024043662,
			"0.011": 2.45860475159,
			"0.012": 2.19643323331,
			"0.013": 0.499042869678,
			"0.014": 0.0,
			"0.015": 0.0,
			"0.016": 0.0,
			"0.017": 0.0,
			"0.018": 0.0,
			"0.019": 0.0,
			"0.02": 0.0,
			"0.021": 0.0,
			"0.022": 0.0,
			"0.023": 0.0,
			"0.024": 0.0,
			"0.025": 0.0
		}
	}
}
