{
	 "smiles": "CC1=CC(C)=NC(NC(=O)NS(=O)(=O)C2=C(C=CC=C2)C(=O)OC2COC2)=N1", 
	 "Tm": 431.15, 
	 "num_atms": 46, 
	 "gaussian": { 
		 "optdone": 1, 
		 "sigma_profile": "yes", 
		 "theory": "DFT", 
		 "functional": "B3LYP", 
		 "basiset": "6-31G**", 
		 "properties": { 
			 "R2extent": 14873.9122, 
			 "electric_dipole_moment_norm": 6.46185708446, 
			 "electric_quadrupole_moment_norm": 37.5660536917, 
			 "total_energy": -1727.11726128, 
			 "HOMO_LUMO_gap": 0.17659, 
			 "cosmo_polarized_energy": -29.64, 
			 "cosmo_cavitation_energy": 52.41, 
			 "cosmo_dispersion_energy": -36.87, 
			 "cosmo_repulsion_energy": 2.8, 
			 "cosmo_total_nonelectrostatic_energy": 18.34, 
			 "SMD_solvation_energy": 6.97 
		},
		"coords": [
			{
				"x": -2.398354868,
				"y": 5.1017985508,
				"z": -3.1028714286,
				"element": "C" 
			},
			{
				"x": -2.3876710547,
				"y": 3.5996923909,
				"z": -3.007180028,
				"element": "C" 
			},
			{
				"x": -2.4481226979,
				"y": 2.7776008393,
				"z": -4.1366970397,
				"element": "C" 
			},
			{
				"x": -2.4165269816,
				"y": 1.3947657147,
				"z": -3.9384092749,
				"element": "C" 
			},
			{
				"x": -2.4643667754,
				"y": 0.416704709,
				"z": -5.0808133388,
				"element": "C" 
			},
			{
				"x": -2.3357136879,
				"y": 0.86573537,
				"z": -2.7072025063,
				"element": "N" 
			},
			{
				"x": -2.3080088088,
				"y": 1.7368858029,
				"z": -1.7017061639,
				"element": "C" 
			},
			{
				"x": -2.2173081311,
				"y": 1.2655379963,
				"z": -0.3887651296,
				"element": "N" 
			},
			{
				"x": -2.4818842054,
				"y": -0.0124700335,
				"z": 0.0896392726,
				"element": "C" 
			},
			{
				"x": -2.9493114424,
				"y": -0.9375421371,
				"z": -0.5330844326,
				"element": "O" 
			},
			{
				"x": -2.1351755106,
				"y": -0.0743441151,
				"z": 1.4679638958,
				"element": "N" 
			},
			{
				"x": -2.3773345123,
				"y": -1.4992417083,
				"z": 2.3602119428,
				"element": "S" 
			},
			{
				"x": -1.8295638331,
				"y": -1.2013151286,
				"z": 3.6830339996,
				"element": "O" 
			},
			{
				"x": -3.7593881024,
				"y": -1.9232904221,
				"z": 2.1874562103,
				"element": "O" 
			},
			{
				"x": -1.3113708947,
				"y": -2.7395898015,
				"z": 1.5877852015,
				"element": "C" 
			},
			{
				"x": 0.0871207371,
				"y": -2.7499198639,
				"z": 1.7628112614,
				"element": "C" 
			},
			{
				"x": 0.8150009066,
				"y": -3.8270825752,
				"z": 1.2414628957,
				"element": "C" 
			},
			{
				"x": 0.175677949,
				"y": -4.8480783128,
				"z": 0.5380482329,
				"element": "C" 
			},
			{
				"x": -1.205415575,
				"y": -4.8130334642,
				"z": 0.3574806821,
				"element": "C" 
			},
			{
				"x": -1.9521982348,
				"y": -3.7615436003,
				"z": 0.8920126549,
				"element": "C" 
			},
			{
				"x": 0.8390640801,
				"y": -1.6235260614,
				"z": 2.4060812332,
				"element": "C" 
			},
			{
				"x": 0.6037299725,
				"y": -0.4411317488,
				"z": 2.2357877743,
				"element": "O" 
			},
			{
				"x": 1.8542399917,
				"y": -2.0872248882,
				"z": 3.1571010377,
				"element": "O" 
			},
			{
				"x": 2.6889917673,
				"y": -1.1758328792,
				"z": 3.8937287195,
				"element": "C" 
			},
			{
				"x": 3.3767095205,
				"y": 0.0223261905,
				"z": 3.2083305365,
				"element": "C" 
			},
			{
				"x": 2.9065815924,
				"y": 0.9059132986,
				"z": 4.2498115028,
				"element": "O" 
			},
			{
				"x": 2.0604850234,
				"y": -0.1195783111,
				"z": 4.8231952139,
				"element": "C" 
			},
			{
				"x": -2.3210417333,
				"y": 3.0765538453,
				"z": -1.7752598034,
				"element": "N" 
			},
			{
				"x": -3.2568764775,
				"y": 5.5073864037,
				"z": -2.5579426411,
				"element": "H" 
			},
			{
				"x": -1.4991245815,
				"y": 5.5152708244,
				"z": -2.6350316887,
				"element": "H" 
			},
			{
				"x": -2.4459057309,
				"y": 5.4414083228,
				"z": -4.140065591,
				"element": "H" 
			},
			{
				"x": -2.5101001628,
				"y": 3.2001410386,
				"z": -5.1333760078,
				"element": "H" 
			},
			{
				"x": -2.5015685805,
				"y": 0.9217549571,
				"z": -6.048884625,
				"element": "H" 
			},
			{
				"x": -3.3428580912,
				"y": -0.2288468878,
				"z": -4.9811575593,
				"element": "H" 
			},
			{
				"x": -1.5864390175,
				"y": -0.2362996291,
				"z": -5.0511769073,
				"element": "H" 
			},
			{
				"x": -2.1345819907,
				"y": 2.0115766547,
				"z": 0.2894288234,
				"element": "H" 
			},
			{
				"x": -1.2383191219,
				"y": 0.3354576715,
				"z": 1.732496275,
				"element": "H" 
			},
			{
				"x": 1.8894483038,
				"y": -3.8506110883,
				"z": 1.3838060067,
				"element": "H" 
			},
			{
				"x": 0.7601731362,
				"y": -5.6685953211,
				"z": 0.1333879603,
				"element": "H" 
			},
			{
				"x": -1.7077412949,
				"y": -5.6038029192,
				"z": -0.1907439665,
				"element": "H" 
			},
			{
				"x": -3.0291347947,
				"y": -3.7214551311,
				"z": 0.7824267039,
				"element": "H" 
			},
			{
				"x": 3.3860425054,
				"y": -1.8427093527,
				"z": 4.4014806032,
				"element": "H" 
			},
			{
				"x": 2.9756172399,
				"y": 0.2824131164,
				"z": 2.2249177557,
				"element": "H" 
			},
			{
				"x": 4.471710057,
				"y": -0.0214802509,
				"z": 3.1662150689,
				"element": "H" 
			},
			{
				"x": 0.9966263843,
				"y": 0.0660644801,
				"z": 4.6528471286,
				"element": "H" 
			},
			{
				"x": 2.2490877263,
				"y": -0.258742546,
				"z": 5.893819539,
				"element": "H" 
			}
		],
		 "valence_orbital": [ 
			{
				"type": "occ",
				"energy": -0.27763,
				"method": "rhf"
			},
			{
				"type": "occ",
				"energy": -0.27057,
				"method": "rhf"
			},
			{
				"type": "occ",
				"energy": -0.25351,
				"method": "rhf"
			},
			{
				"type": "occ",
				"energy": -0.24798,
				"method": "rhf"
			},
			{
				"type": "occ",
				"energy": -0.24498,
				"method": "rhf"
			},
			{
				"type": "unocc",
				"energy": -0.06839,
				"method": "rhf"
			},
			{
				"type": "unocc",
				"energy": -0.03584,
				"method": "rhf"
			},
			{
				"type": "unocc",
				"energy": -0.0356,
				"method": "rhf"
			},
			{
				"type": "unocc",
				"energy": -0.02095,
				"method": "rhf"
			},
			{
				"type": "unocc",
				"energy": 0.01262,
				"method": "rhf"
			}
		],
		"cosmo_sigma_profile": { 
			"-0.025": 0.0,
			"-0.024": 0.0,
			"-0.023": 0.0,
			"-0.022": 0.0,
			"-0.021": 0.0,
			"-0.02": 0.0,
			"-0.019": 0.0,
			"-0.018": 0.0,
			"-0.017": 0.164320954846,
			"-0.016": 1.13670685494,
			"-0.015": 1.3710491254,
			"-0.014": 0.909667020571,
			"-0.013": 1.07391621051,
			"-0.012": 1.38693475083,
			"-0.011": 0.660629919806,
			"-0.01": 1.19248172213,
			"-0.009": 0.939492312214,
			"-0.008": 6.65473209026,
			"-0.007": 16.2575979527,
			"-0.006": 24.6819636616,
			"-0.005": 32.1983293274,
			"-0.004": 32.4983058371,
			"-0.003": 32.6981280693,
			"-0.002": 32.938409813,
			"-0.001": 39.255690049,
			"0.0": 34.6516583338,
			"0.001": 26.9763566907,
			"0.002": 21.0685463205,
			"0.003": 12.1990200638,
			"0.004": 11.1437500559,
			"0.005": 10.2518429454,
			"0.006": 10.9408922641,
			"0.007": 9.13726668564,
			"0.008": 7.43603784538,
			"0.009": 11.9424852491,
			"0.01": 12.1920013771,
			"0.011": 9.63883572593,
			"0.012": 4.9192775633,
			"0.013": 4.48583586979,
			"0.014": 1.78332790477,
			"0.015": 1.28439949436,
			"0.016": 0.912074068684,
			"0.017": 0.932099711089,
			"0.018": 0.28565457816,
			"0.019": 0.0,
			"0.02": 0.0,
			"0.021": 0.0,
			"0.022": 0.0,
			"0.023": 0.0,
			"0.024": 0.0,
			"0.025": 0.0
		}
	}
}
