{
	 "smiles": "CCOC1=CC=C(C=C1)C1(CC1)C(O)=O", 
	 "Tm": 392.15, 
	 "num_atms": 29, 
	 "gaussian": { 
		 "optdone": 1, 
		 "sigma_profile": "yes", 
		 "theory": "DFT", 
		 "functional": "B3LYP", 
		 "basiset": "6-31G**", 
		 "properties": { 
			 "R2extent": 5086.3021, 
			 "electric_dipole_moment_norm": 2.6063649591, 
			 "electric_quadrupole_moment_norm": 14.1993907352, 
			 "total_energy": -691.370275562, 
			 "HOMO_LUMO_gap": 0.20919, 
			 "cosmo_polarized_energy": -12.02, 
			 "cosmo_cavitation_energy": 32.53, 
			 "cosmo_dispersion_energy": -22.93, 
			 "cosmo_repulsion_energy": 1.82, 
			 "cosmo_total_nonelectrostatic_energy": 11.42, 
			 "SMD_solvation_energy": 7.0 
		},
		"coords": [
			{
				"x": -3.5985493945,
				"y": 2.1112964123,
				"z": -1.6490240535,
				"element": "C" 
			},
			{
				"x": -2.4916711958,
				"y": 2.5844244133,
				"z": -0.7118828492,
				"element": "C" 
			},
			{
				"x": -1.2292411016,
				"y": 1.981053078,
				"z": -1.0032693821,
				"element": "O" 
			},
			{
				"x": -0.9587885934,
				"y": 0.7172147428,
				"z": -0.5616497792,
				"element": "C" 
			},
			{
				"x": -1.8064509122,
				"y": -0.0627013713,
				"z": 0.2350997724,
				"element": "C" 
			},
			{
				"x": -1.395881598,
				"y": -1.3351357821,
				"z": 0.6404852146,
				"element": "C" 
			},
			{
				"x": -0.1549896315,
				"y": -1.8596593688,
				"z": 0.2711391754,
				"element": "C" 
			},
			{
				"x": 0.6797611082,
				"y": -1.0655649964,
				"z": -0.5305474842,
				"element": "C" 
			},
			{
				"x": 0.289915731,
				"y": 0.2018446345,
				"z": -0.9425572817,
				"element": "C" 
			},
			{
				"x": 0.2654670007,
				"y": -3.2378528348,
				"z": 0.6982212201,
				"element": "C" 
			},
			{
				"x": 0.2557691972,
				"y": -3.6025684085,
				"z": 2.1827309979,
				"element": "C" 
			},
			{
				"x": 1.5622031783,
				"y": -3.4158110635,
				"z": 1.4893009427,
				"element": "C" 
			},
			{
				"x": -0.0447032423,
				"y": -4.3971928817,
				"z": -0.2007282713,
				"element": "C" 
			},
			{
				"x": -0.692401117,
				"y": -4.0377754082,
				"z": -1.332669191,
				"element": "O" 
			},
			{
				"x": 0.2444963821,
				"y": -5.554681656,
				"z": 0.0368393885,
				"element": "O" 
			},
			{
				"x": -3.3223393613,
				"y": 2.3071218615,
				"z": -2.6889984144,
				"element": "H" 
			},
			{
				"x": -3.7883037639,
				"y": 1.0398485167,
				"z": -1.5432622633,
				"element": "H" 
			},
			{
				"x": -4.5287593346,
				"y": 2.6472609506,
				"z": -1.4320221145,
				"element": "H" 
			},
			{
				"x": -2.3172250191,
				"y": 3.6561442646,
				"z": -0.8436570662,
				"element": "H" 
			},
			{
				"x": -2.7576933051,
				"y": 2.4240995881,
				"z": 0.3408093257,
				"element": "H" 
			},
			{
				"x": -2.7789142112,
				"y": 0.3014749957,
				"z": 0.544381484,
				"element": "H" 
			},
			{
				"x": -2.0633561315,
				"y": -1.9308563972,
				"z": 1.2576400608,
				"element": "H" 
			},
			{
				"x": 1.6505481296,
				"y": -1.4490826499,
				"z": -0.8331567403,
				"element": "H" 
			},
			{
				"x": 0.9366846692,
				"y": 0.8191242799,
				"z": -1.5576032939,
				"element": "H" 
			},
			{
				"x": -0.0848752444,
				"y": -2.8276788927,
				"z": 2.861529806,
				"element": "H" 
			},
			{
				"x": -0.0442180281,
				"y": -4.6150441621,
				"z": 2.4297727731,
				"element": "H" 
			},
			{
				"x": 2.1274560737,
				"y": -2.5106063988,
				"z": 1.6854742549,
				"element": "H" 
			},
			{
				"x": 2.1469055237,
				"y": -4.3016080374,
				"z": 1.26654202,
				"element": "H" 
			},
			{
				"x": -0.8324458082,
				"y": -4.8644874288,
				"z": -1.8243382513,
				"element": "H" 
			}
		],
		 "valence_orbital": [ 
			{
				"type": "occ",
				"energy": -0.30323,
				"method": "rhf"
			},
			{
				"type": "occ",
				"energy": -0.28658,
				"method": "rhf"
			},
			{
				"type": "occ",
				"energy": -0.27244,
				"method": "rhf"
			},
			{
				"type": "occ",
				"energy": -0.24888,
				"method": "rhf"
			},
			{
				"type": "occ",
				"energy": -0.21216,
				"method": "rhf"
			},
			{
				"type": "unocc",
				"energy": -0.00297,
				"method": "rhf"
			},
			{
				"type": "unocc",
				"energy": 0.00984,
				"method": "rhf"
			},
			{
				"type": "unocc",
				"energy": 0.01514,
				"method": "rhf"
			},
			{
				"type": "unocc",
				"energy": 0.08282,
				"method": "rhf"
			},
			{
				"type": "unocc",
				"energy": 0.08901,
				"method": "rhf"
			}
		],
		"cosmo_sigma_profile": { 
			"-0.025": 0.0,
			"-0.024": 0.0,
			"-0.023": 0.0,
			"-0.022": 0.0,
			"-0.021": 0.0,
			"-0.02": 0.0,
			"-0.019": 0.0,
			"-0.018": 0.35496897654,
			"-0.017": 1.24942964018,
			"-0.016": 0.866735735975,
			"-0.015": 0.505816126805,
			"-0.014": 0.81610450743,
			"-0.013": 1.24148866513,
			"-0.012": 0.265149689681,
			"-0.011": 0.365876734331,
			"-0.01": 1.03582630288,
			"-0.009": 0.642128535702,
			"-0.008": 0.623751796601,
			"-0.007": 1.32435593432,
			"-0.006": 6.43814381638,
			"-0.005": 17.5406457538,
			"-0.004": 23.8036166526,
			"-0.003": 27.5845851545,
			"-0.002": 27.2784131966,
			"-0.001": 25.4579834105,
			"0.0": 21.6109768622,
			"0.001": 14.2514230598,
			"0.002": 10.7353326016,
			"0.003": 12.627460376,
			"0.004": 12.3015019329,
			"0.005": 11.618115099,
			"0.006": 8.06909906501,
			"0.007": 5.16870020994,
			"0.008": 4.58984761533,
			"0.009": 4.72011826168,
			"0.01": 4.62554339862,
			"0.011": 3.23498559421,
			"0.012": 4.71544207141,
			"0.013": 1.21573171124,
			"0.014": 0.0,
			"0.015": 0.0,
			"0.016": 0.0,
			"0.017": 0.0,
			"0.018": 0.0,
			"0.019": 0.0,
			"0.02": 0.0,
			"0.021": 0.0,
			"0.022": 0.0,
			"0.023": 0.0,
			"0.024": 0.0,
			"0.025": 0.0
		}
	}
}
