{
	 "smiles": "CC1=CC(=O)NC(=N1)C1=CC(O)=CC=C1", 
	 "Tm": 487.15, 
	 "num_atms": 25, 
	 "gaussian": { 
		 "optdone": 1, 
		 "sigma_profile": "yes", 
		 "theory": "DFT", 
		 "functional": "B3LYP", 
		 "basiset": "6-31G**", 
		 "properties": { 
			 "R2extent": 3992.7667, 
			 "electric_dipole_moment_norm": 3.38214917767, 
			 "electric_quadrupole_moment_norm": 14.133668436, 
			 "total_energy": -685.171545706, 
			 "HOMO_LUMO_gap": 0.16646, 
			 "cosmo_polarized_energy": -17.22, 
			 "cosmo_cavitation_energy": 29.69, 
			 "cosmo_dispersion_energy": -21.93, 
			 "cosmo_repulsion_energy": 1.71, 
			 "cosmo_total_nonelectrostatic_energy": 9.47, 
			 "SMD_solvation_energy": 5.12 
		},
		"coords": [
			{
				"x": -2.0662037519,
				"y": -2.3429437599,
				"z": 1.2494922261,
				"element": "C" 
			},
			{
				"x": -1.5800782626,
				"y": -1.2214776488,
				"z": 0.3734091814,
				"element": "C" 
			},
			{
				"x": -2.3533967658,
				"y": -0.6807562777,
				"z": -0.6181438444,
				"element": "C" 
			},
			{
				"x": -1.8599590005,
				"y": 0.410155057,
				"z": -1.4278315093,
				"element": "C" 
			},
			{
				"x": -2.4346015177,
				"y": 1.0083463421,
				"z": -2.3276855653,
				"element": "O" 
			},
			{
				"x": -0.5415944593,
				"y": 0.7825266775,
				"z": -1.0624034499,
				"element": "N" 
			},
			{
				"x": 0.1859171263,
				"y": 0.1852588295,
				"z": -0.0750014742,
				"element": "C" 
			},
			{
				"x": -0.2988356634,
				"y": -0.7936805528,
				"z": 0.6470338497,
				"element": "N" 
			},
			{
				"x": 1.5637337861,
				"y": 0.673761751,
				"z": 0.1819991738,
				"element": "C" 
			},
			{
				"x": 2.1631526696,
				"y": 0.3417556105,
				"z": 1.4054556889,
				"element": "C" 
			},
			{
				"x": 3.4535683485,
				"y": 0.7814854205,
				"z": 1.6978520219,
				"element": "C" 
			},
			{
				"x": 4.0781531832,
				"y": 0.4924744064,
				"z": 2.8748363944,
				"element": "O" 
			},
			{
				"x": 4.161593362,
				"y": 1.5553533829,
				"z": 0.7682062047,
				"element": "C" 
			},
			{
				"x": 3.5688380453,
				"y": 1.8721267512,
				"z": -0.4498439118,
				"element": "C" 
			},
			{
				"x": 2.2766409411,
				"y": 1.4387154836,
				"z": -0.7525417782,
				"element": "C" 
			},
			{
				"x": -2.0383918093,
				"y": -2.0363274664,
				"z": 2.3007181956,
				"element": "H" 
			},
			{
				"x": -3.083962815,
				"y": -2.6461163928,
				"z": 0.9951134721,
				"element": "H" 
			},
			{
				"x": -1.4016668915,
				"y": -3.2082476808,
				"z": 1.153620566,
				"element": "H" 
			},
			{
				"x": -3.3568823758,
				"y": -1.0348836715,
				"z": -0.8207003525,
				"element": "H" 
			},
			{
				"x": -0.1740552106,
				"y": 1.5774410511,
				"z": -1.5701747619,
				"element": "H" 
			},
			{
				"x": 1.5999094301,
				"y": -0.2638477254,
				"z": 2.1090802653,
				"element": "H" 
			},
			{
				"x": 3.4932000112,
				"y": -0.0493641132,
				"z": 3.4206742126,
				"element": "H" 
			},
			{
				"x": 5.1640519284,
				"y": 1.8879023229,
				"z": 1.0156216359,
				"element": "H" 
			},
			{
				"x": 4.1221868474,
				"y": 2.4581693439,
				"z": -1.1772834292,
				"element": "H" 
			},
			{
				"x": 1.859782844,
				"y": 1.6696728594,
				"z": -1.7277030117,
				"element": "H" 
			}
		],
		 "valence_orbital": [ 
			{
				"type": "occ",
				"energy": -0.28029,
				"method": "rhf"
			},
			{
				"type": "occ",
				"energy": -0.27071,
				"method": "rhf"
			},
			{
				"type": "occ",
				"energy": -0.25324,
				"method": "rhf"
			},
			{
				"type": "occ",
				"energy": -0.23946,
				"method": "rhf"
			},
			{
				"type": "occ",
				"energy": -0.22961,
				"method": "rhf"
			},
			{
				"type": "unocc",
				"energy": -0.06315,
				"method": "rhf"
			},
			{
				"type": "unocc",
				"energy": -0.01765,
				"method": "rhf"
			},
			{
				"type": "unocc",
				"energy": -0.00354,
				"method": "rhf"
			},
			{
				"type": "unocc",
				"energy": 0.03241,
				"method": "rhf"
			},
			{
				"type": "unocc",
				"energy": 0.06221,
				"method": "rhf"
			}
		],
		"cosmo_sigma_profile": { 
			"-0.025": 0.0,
			"-0.024": 0.0,
			"-0.023": 0.0,
			"-0.022": 0.0,
			"-0.021": 0.0,
			"-0.02": 0.0,
			"-0.019": 0.0322589363563,
			"-0.018": 0.747372514086,
			"-0.017": 1.07777274032,
			"-0.016": 1.35815693455,
			"-0.015": 2.3880675458,
			"-0.014": 1.94765551245,
			"-0.013": 1.31823413702,
			"-0.012": 1.77024711015,
			"-0.011": 3.1150463313,
			"-0.01": 2.46516745927,
			"-0.009": 2.72907486206,
			"-0.008": 1.35396052795,
			"-0.007": 3.82767435926,
			"-0.006": 10.5776215579,
			"-0.005": 13.7569387373,
			"-0.004": 14.3553452031,
			"-0.003": 14.2982794332,
			"-0.002": 18.8670231354,
			"-0.001": 18.9044557972,
			"0.0": 16.5561769824,
			"0.001": 15.7061113527,
			"0.002": 16.5980834771,
			"0.003": 17.1061101984,
			"0.004": 13.8035074595,
			"0.005": 5.32791875623,
			"0.006": 4.4577557908,
			"0.007": 4.79644615649,
			"0.008": 3.21070345211,
			"0.009": 4.02926785389,
			"0.01": 3.27597212774,
			"0.011": 3.58316929747,
			"0.012": 3.22700156929,
			"0.013": 4.28918345408,
			"0.014": 5.34990791534,
			"0.015": 1.10810604184,
			"0.016": 0.0,
			"0.017": 0.0,
			"0.018": 0.0,
			"0.019": 0.0,
			"0.02": 0.0,
			"0.021": 0.0,
			"0.022": 0.0,
			"0.023": 0.0,
			"0.024": 0.0,
			"0.025": 0.0
		}
	}
}
