{
	 "smiles": "NC1(CCOCC1)C(O)=O", 
	 "Tm": 542.15, 
	 "num_atms": 21, 
	 "gaussian": { 
		 "optdone": 1, 
		 "sigma_profile": "yes", 
		 "theory": "DFT", 
		 "functional": "B3LYP", 
		 "basiset": "6-31G**", 
		 "properties": { 
			 "R2extent": 1637.6612, 
			 "electric_dipole_moment_norm": 4.57282636233, 
			 "electric_quadrupole_moment_norm": 14.1035822804, 
			 "total_energy": -515.695659647, 
			 "HOMO_LUMO_gap": 0.26297, 
			 "cosmo_polarized_energy": -15.3, 
			 "cosmo_cavitation_energy": 22.14, 
			 "cosmo_dispersion_energy": -16.96, 
			 "cosmo_repulsion_energy": 1.37, 
			 "cosmo_total_nonelectrostatic_energy": 6.55, 
			 "SMD_solvation_energy": 4.36 
		},
		"coords": [
			{
				"x": 0.2105860904,
				"y": 1.4709803719,
				"z": -2.421010099,
				"element": "N" 
			},
			{
				"x": -0.0799293382,
				"y": 0.3994178228,
				"z": -1.4419247157,
				"element": "C" 
			},
			{
				"x": -1.5325905101,
				"y": 0.58380362,
				"z": -0.9326255521,
				"element": "C" 
			},
			{
				"x": -1.8468107707,
				"y": -0.3426325334,
				"z": 0.2468405514,
				"element": "C" 
			},
			{
				"x": -0.9333540663,
				"y": -0.1309955041,
				"z": 1.3133346897,
				"element": "O" 
			},
			{
				"x": 0.3973738427,
				"y": -0.4680574102,
				"z": 0.9347052994,
				"element": "C" 
			},
			{
				"x": 0.8812361774,
				"y": 0.4071234087,
				"z": -0.2307045988,
				"element": "C" 
			},
			{
				"x": -0.0103686737,
				"y": -0.9389509675,
				"z": -2.2270272246,
				"element": "C" 
			},
			{
				"x": -0.1820101933,
				"y": -0.791394055,
				"z": -3.5478625584,
				"element": "O" 
			},
			{
				"x": 0.1385002075,
				"y": -2.0227232619,
				"z": -1.7057599571,
				"element": "O" 
			},
			{
				"x": 1.2153625445,
				"y": 1.6198842822,
				"z": -2.4975343031,
				"element": "H" 
			},
			{
				"x": -0.2000726398,
				"y": 2.3524511768,
				"z": -2.1249157319,
				"element": "H" 
			},
			{
				"x": -1.6385326947,
				"y": 1.6215756901,
				"z": -0.588599454,
				"element": "H" 
			},
			{
				"x": -2.245184686,
				"y": 0.4303446732,
				"z": -1.751460433,
				"element": "H" 
			},
			{
				"x": -1.82744275,
				"y": -1.3934166782,
				"z": -0.0762715918,
				"element": "H" 
			},
			{
				"x": -2.8425500082,
				"y": -0.1222074003,
				"z": 0.6424970585,
				"element": "H" 
			},
			{
				"x": 1.0180627784,
				"y": -0.2936530074,
				"z": 1.8186692389,
				"element": "H" 
			},
			{
				"x": 0.4615283761,
				"y": -1.526712361,
				"z": 0.6576787268,
				"element": "H" 
			},
			{
				"x": 1.8847911062,
				"y": 0.090033833,
				"z": -0.5406762803,
				"element": "H" 
			},
			{
				"x": 0.953545097,
				"y": 1.4445936306,
				"z": 0.1197146869,
				"element": "H" 
			},
			{
				"x": -0.2078398892,
				"y": 0.1880346696,
				"z": -3.6831677519,
				"element": "H" 
			}
		],
		 "valence_orbital": [ 
			{
				"type": "occ",
				"energy": -0.3127,
				"method": "rhf"
			},
			{
				"type": "occ",
				"energy": -0.30317,
				"method": "rhf"
			},
			{
				"type": "occ",
				"energy": -0.29507,
				"method": "rhf"
			},
			{
				"type": "occ",
				"energy": -0.25612,
				"method": "rhf"
			},
			{
				"type": "occ",
				"energy": -0.25008,
				"method": "rhf"
			},
			{
				"type": "unocc",
				"energy": 0.01289,
				"method": "rhf"
			},
			{
				"type": "unocc",
				"energy": 0.05736,
				"method": "rhf"
			},
			{
				"type": "unocc",
				"energy": 0.09115,
				"method": "rhf"
			},
			{
				"type": "unocc",
				"energy": 0.1022,
				"method": "rhf"
			},
			{
				"type": "unocc",
				"energy": 0.1172,
				"method": "rhf"
			}
		],
		"cosmo_sigma_profile": { 
			"-0.025": 0.0,
			"-0.024": 0.0,
			"-0.023": 0.0,
			"-0.022": 0.0,
			"-0.021": 0.0,
			"-0.02": 0.0,
			"-0.019": 0.0,
			"-0.018": 0.0,
			"-0.017": 0.0,
			"-0.016": 0.0,
			"-0.015": 0.0,
			"-0.014": 0.0,
			"-0.013": 0.0,
			"-0.012": 0.94649829688,
			"-0.011": 3.26238904876,
			"-0.01": 4.02536884511,
			"-0.009": 4.48898726601,
			"-0.008": 3.90991525494,
			"-0.007": 3.81052318406,
			"-0.006": 4.81791504884,
			"-0.005": 13.3884707988,
			"-0.004": 17.6833640694,
			"-0.003": 19.0914346892,
			"-0.002": 16.2149893732,
			"-0.001": 11.2445804604,
			"0.0": 6.4362169184,
			"0.001": 5.86281975054,
			"0.002": 5.49310424993,
			"0.003": 3.60505696703,
			"0.004": 3.79807905729,
			"0.005": 4.55833682624,
			"0.006": 4.04336935,
			"0.007": 4.84138267258,
			"0.008": 3.3172143916,
			"0.009": 4.09117658635,
			"0.01": 4.63171003529,
			"0.011": 6.82271703407,
			"0.012": 5.26543419257,
			"0.013": 4.54040658482,
			"0.014": 1.52624636769,
			"0.015": 0.0,
			"0.016": 0.0,
			"0.017": 0.0,
			"0.018": 0.0,
			"0.019": 0.0,
			"0.02": 0.0,
			"0.021": 0.0,
			"0.022": 0.0,
			"0.023": 0.0,
			"0.024": 0.0,
			"0.025": 0.0
		}
	}
}
