{
	 "smiles": "COP(=S)(OC)SCC(=O)N(C)C=O", 
	 "Tm": 298.65, 
	 "num_atms": 26, 
	 "gaussian": { 
		 "optdone": 1, 
		 "sigma_profile": "yes", 
		 "theory": "DFT", 
		 "functional": "B3LYP", 
		 "basiset": "6-31G**", 
		 "properties": { 
			 "R2extent": 4741.9929, 
			 "electric_dipole_moment_norm": 4.87349169487, 
			 "electric_quadrupole_moment_norm": 28.3838833878, 
			 "total_energy": -1729.30011891, 
			 "HOMO_LUMO_gap": 0.18658, 
			 "cosmo_polarized_energy": -18.57, 
			 "cosmo_cavitation_energy": 34.74, 
			 "cosmo_dispersion_energy": -24.23, 
			 "cosmo_repulsion_energy": 1.82, 
			 "cosmo_total_nonelectrostatic_energy": 12.33, 
			 "SMD_solvation_energy": 8.82 
		},
		"coords": [
			{
				"x": 3.8788475213,
				"y": 1.7741268975,
				"z": 0.2700232155,
				"element": "C" 
			},
			{
				"x": 2.9064187431,
				"y": 1.1597482712,
				"z": 1.1372285119,
				"element": "O" 
			},
			{
				"x": 1.3715346903,
				"y": 1.6989497031,
				"z": 1.1807390596,
				"element": "P" 
			},
			{
				"x": 1.0717630659,
				"y": 3.6109303456,
				"z": 1.1922857954,
				"element": "S" 
			},
			{
				"x": 0.8510791242,
				"y": 0.9772789877,
				"z": 2.5243252148,
				"element": "O" 
			},
			{
				"x": 1.1274360278,
				"y": -0.4058528405,
				"z": 2.8144151867,
				"element": "C" 
			},
			{
				"x": 0.6299981097,
				"y": 0.5955242288,
				"z": -0.492844126,
				"element": "S" 
			},
			{
				"x": -0.972703119,
				"y": 1.4482751532,
				"z": -0.8300951127,
				"element": "C" 
			},
			{
				"x": -2.1288213649,
				"y": 0.7732818321,
				"z": -0.1184574523,
				"element": "C" 
			},
			{
				"x": -2.6052782945,
				"y": 1.2295029248,
				"z": 0.9032785162,
				"element": "O" 
			},
			{
				"x": -2.6778462621,
				"y": -0.4191593163,
				"z": -0.6501253339,
				"element": "N" 
			},
			{
				"x": -3.7944194481,
				"y": -0.9853868529,
				"z": 0.118222757,
				"element": "C" 
			},
			{
				"x": -2.2589154541,
				"y": -1.0683173265,
				"z": -1.8071076055,
				"element": "C" 
			},
			{
				"x": -1.3450807401,
				"y": -0.7405252215,
				"z": -2.5359198169,
				"element": "O" 
			},
			{
				"x": 3.6160145396,
				"y": 1.6131960334,
				"z": -0.7798116122,
				"element": "H" 
			},
			{
				"x": 4.8290476084,
				"y": 1.2863957299,
				"z": 0.4910166026,
				"element": "H" 
			},
			{
				"x": 3.9480617737,
				"y": 2.8451917261,
				"z": 0.4751882742,
				"element": "H" 
			},
			{
				"x": 0.5908608076,
				"y": -0.628840894,
				"z": 3.7371990748,
				"element": "H" 
			},
			{
				"x": 0.7620452929,
				"y": -1.0511050497,
				"z": 2.0092132385,
				"element": "H" 
			},
			{
				"x": 2.199947276,
				"y": -0.5580596353,
				"z": 2.9546092807,
				"element": "H" 
			},
			{
				"x": -0.9093481508,
				"y": 2.4713363513,
				"z": -0.4538903269,
				"element": "H" 
			},
			{
				"x": -1.0810437888,
				"y": 1.4316853736,
				"z": -1.9124405114,
				"element": "H" 
			},
			{
				"x": -3.4699013765,
				"y": -1.2318101462,
				"z": 1.1311175571,
				"element": "H" 
			},
			{
				"x": -4.6105091152,
				"y": -0.2637959567,
				"z": 0.1890003001,
				"element": "H" 
			},
			{
				"x": -4.1462481838,
				"y": -1.8883173527,
				"z": -0.3827603234,
				"element": "H" 
			},
			{
				"x": -2.8766392825,
				"y": -1.9624529659,
				"z": -2.0072103639,
				"element": "H" 
			}
		],
		 "valence_orbital": [ 
			{
				"type": "occ",
				"energy": -0.28938,
				"method": "rhf"
			},
			{
				"type": "occ",
				"energy": -0.28219,
				"method": "rhf"
			},
			{
				"type": "occ",
				"energy": -0.26512,
				"method": "rhf"
			},
			{
				"type": "occ",
				"energy": -0.24464,
				"method": "rhf"
			},
			{
				"type": "occ",
				"energy": -0.23751,
				"method": "rhf"
			},
			{
				"type": "unocc",
				"energy": -0.05093,
				"method": "rhf"
			},
			{
				"type": "unocc",
				"energy": -0.01472,
				"method": "rhf"
			},
			{
				"type": "unocc",
				"energy": 0.01035,
				"method": "rhf"
			},
			{
				"type": "unocc",
				"energy": 0.03596,
				"method": "rhf"
			},
			{
				"type": "unocc",
				"energy": 0.04834,
				"method": "rhf"
			}
		],
		"cosmo_sigma_profile": { 
			"-0.025": 0.0,
			"-0.024": 0.0,
			"-0.023": 0.0,
			"-0.022": 0.0,
			"-0.021": 0.0,
			"-0.02": 0.0,
			"-0.019": 0.0,
			"-0.018": 0.0,
			"-0.017": 0.0,
			"-0.016": 0.0,
			"-0.015": 0.0,
			"-0.014": 0.0,
			"-0.013": 0.0,
			"-0.012": 0.0,
			"-0.011": 0.316735356182,
			"-0.01": 2.55311732437,
			"-0.009": 3.27658256181,
			"-0.008": 3.76179885683,
			"-0.007": 9.70648966192,
			"-0.006": 17.6897936509,
			"-0.005": 26.0602117435,
			"-0.004": 33.6401975922,
			"-0.003": 24.5964222331,
			"-0.002": 15.7276246382,
			"-0.001": 12.2089765988,
			"0.0": 11.705440497,
			"0.001": 12.1561343616,
			"0.002": 13.3736799481,
			"0.003": 10.4723049032,
			"0.004": 13.7674841568,
			"0.005": 12.4110955774,
			"0.006": 10.6116230445,
			"0.007": 10.8529207592,
			"0.008": 10.071587422,
			"0.009": 8.23820072207,
			"0.01": 5.68004633464,
			"0.011": 6.17554274169,
			"0.012": 3.34831428332,
			"0.013": 0.213723162427,
			"0.014": 0.0,
			"0.015": 0.0,
			"0.016": 0.0,
			"0.017": 0.0,
			"0.018": 0.0,
			"0.019": 0.0,
			"0.02": 0.0,
			"0.021": 0.0,
			"0.022": 0.0,
			"0.023": 0.0,
			"0.024": 0.0,
			"0.025": 0.0
		}
	}
}
