{
	 "smiles": "NCC1=NC(=NC=C1)N1CCCC1", 
	 "Tm": 337.15, 
	 "num_atms": 27, 
	 "gaussian": { 
		 "optdone": 1, 
		 "sigma_profile": "yes", 
		 "theory": "DFT", 
		 "functional": "B3LYP", 
		 "basiset": "6-31G**", 
		 "properties": { 
			 "R2extent": 4238.4295, 
			 "electric_dipole_moment_norm": 1.80064886638, 
			 "electric_quadrupole_moment_norm": 9.99306307595, 
			 "total_energy": -570.411928429, 
			 "HOMO_LUMO_gap": 0.18322, 
			 "cosmo_polarized_energy": -9.51, 
			 "cosmo_cavitation_energy": 29.05, 
			 "cosmo_dispersion_energy": -21.51, 
			 "cosmo_repulsion_energy": 1.74, 
			 "cosmo_total_nonelectrostatic_energy": 9.29, 
			 "SMD_solvation_energy": 0.57 
		},
		"coords": [
			{
				"x": 1.524358731,
				"y": 1.4957104778,
				"z": 2.3923575149,
				"element": "N" 
			},
			{
				"x": 1.960461513,
				"y": 0.2938037561,
				"z": 3.0970953486,
				"element": "C" 
			},
			{
				"x": 1.2441806066,
				"y": -1.00061869,
				"z": 2.7288924206,
				"element": "C" 
			},
			{
				"x": 0.7918723981,
				"y": -1.0921319258,
				"z": 1.4758427848,
				"element": "N" 
			},
			{
				"x": 0.1872514985,
				"y": -2.2521350661,
				"z": 1.1269192873,
				"element": "C" 
			},
			{
				"x": -0.0062358073,
				"y": -3.3232701881,
				"z": 1.9327794057,
				"element": "N" 
			},
			{
				"x": 0.4519456344,
				"y": -3.1927580304,
				"z": 3.1771685635,
				"element": "C" 
			},
			{
				"x": 1.0936682466,
				"y": -2.0479876087,
				"z": 3.6450983765,
				"element": "C" 
			},
			{
				"x": -0.2686436452,
				"y": -2.3524822631,
				"z": -0.1475636031,
				"element": "N" 
			},
			{
				"x": -0.1003770321,
				"y": -1.2997962245,
				"z": -1.1517011343,
				"element": "C" 
			},
			{
				"x": -0.4972772542,
				"y": -1.99926643,
				"z": -2.4613879139,
				"element": "C" 
			},
			{
				"x": -1.5262425956,
				"y": -3.0493976713,
				"z": -2.0077008453,
				"element": "C" 
			},
			{
				"x": -0.9705255613,
				"y": -3.5329917804,
				"z": -0.6593678331,
				"element": "C" 
			},
			{
				"x": 1.4834451446,
				"y": 1.2683801659,
				"z": 1.4001408106,
				"element": "H" 
			},
			{
				"x": 0.5592352018,
				"y": 1.6931902784,
				"z": 2.6515362197,
				"element": "H" 
			},
			{
				"x": 3.0314053139,
				"y": 0.1475361663,
				"z": 2.8947380099,
				"element": "H" 
			},
			{
				"x": 1.8789331593,
				"y": 0.4580010923,
				"z": 4.1773606739,
				"element": "H" 
			},
			{
				"x": 0.2941945865,
				"y": -4.0480711375,
				"z": 3.8342215039,
				"element": "H" 
			},
			{
				"x": 1.4522421195,
				"y": -1.9715905215,
				"z": 4.6655455202,
				"element": "H" 
			},
			{
				"x": -0.7557826183,
				"y": -0.4449696784,
				"z": -0.9320687032,
				"element": "H" 
			},
			{
				"x": 0.9272028473,
				"y": -0.9255649601,
				"z": -1.1533507423,
				"element": "H" 
			},
			{
				"x": -0.8902855549,
				"y": -1.3000553479,
				"z": -3.2043608981,
				"element": "H" 
			},
			{
				"x": 0.3770175978,
				"y": -2.4949562694,
				"z": -2.8987373219,
				"element": "H" 
			},
			{
				"x": -1.6543480914,
				"y": -3.8665486704,
				"z": -2.7226652638,
				"element": "H" 
			},
			{
				"x": -2.5046425417,
				"y": -2.5775652135,
				"z": -1.8606386499,
				"element": "H" 
			},
			{
				"x": -1.7440696259,
				"y": -3.857116241,
				"z": 0.0416808632,
				"element": "H" 
			},
			{
				"x": -0.2743842709,
				"y": -4.3743480187,
				"z": -0.7831343944,
				"element": "H" 
			}
		],
		 "valence_orbital": [ 
			{
				"type": "occ",
				"energy": -0.29805,
				"method": "rhf"
			},
			{
				"type": "occ",
				"energy": -0.28732,
				"method": "rhf"
			},
			{
				"type": "occ",
				"energy": -0.24039,
				"method": "rhf"
			},
			{
				"type": "occ",
				"energy": -0.23109,
				"method": "rhf"
			},
			{
				"type": "occ",
				"energy": -0.20468,
				"method": "rhf"
			},
			{
				"type": "unocc",
				"energy": -0.02146,
				"method": "rhf"
			},
			{
				"type": "unocc",
				"energy": 0.00833,
				"method": "rhf"
			},
			{
				"type": "unocc",
				"energy": 0.08358,
				"method": "rhf"
			},
			{
				"type": "unocc",
				"energy": 0.1019,
				"method": "rhf"
			},
			{
				"type": "unocc",
				"energy": 0.11307,
				"method": "rhf"
			}
		],
		"cosmo_sigma_profile": { 
			"-0.025": 0.0,
			"-0.024": 0.0,
			"-0.023": 0.0,
			"-0.022": 0.0,
			"-0.021": 0.0,
			"-0.02": 0.0,
			"-0.019": 0.0,
			"-0.018": 0.0,
			"-0.017": 0.0,
			"-0.016": 0.0,
			"-0.015": 0.0,
			"-0.014": 0.0,
			"-0.013": 0.0,
			"-0.012": 0.0,
			"-0.011": 0.0,
			"-0.01": 0.633001410767,
			"-0.009": 1.16506190081,
			"-0.008": 1.3150883088,
			"-0.007": 2.58704629783,
			"-0.006": 6.5555691185,
			"-0.005": 11.1662148945,
			"-0.004": 19.0290542845,
			"-0.003": 29.2417555486,
			"-0.002": 34.5719473652,
			"-0.001": 23.1336064491,
			"0.0": 18.3239933807,
			"0.001": 14.4777711947,
			"0.002": 15.4081708578,
			"0.003": 11.2338345913,
			"0.004": 7.278533604,
			"0.005": 4.43759297287,
			"0.006": 4.74373753006,
			"0.007": 4.30521285097,
			"0.008": 4.15437946665,
			"0.009": 1.79939583384,
			"0.01": 1.62169339873,
			"0.011": 2.0967642558,
			"0.012": 1.96511780071,
			"0.013": 1.65865140065,
			"0.014": 0.589091564547,
			"0.015": 1.1093052753,
			"0.016": 1.13502544357,
			"0.017": 0.409805603933,
			"0.018": 0.835783957173,
			"0.019": 0.470141840088,
			"0.02": 0.253977928981,
			"0.021": 0.0,
			"0.022": 0.0,
			"0.023": 0.0,
			"0.024": 0.0,
			"0.025": 0.0
		}
	}
}
