{
	 "smiles": "CC1=C(Cl)C=C(C=C1)N1N=CC(Cl)=C(Cl)C1=O", 
	 "Tm": 480.15, 
	 "num_atms": 24, 
	 "gaussian": { 
		 "optdone": 1, 
		 "sigma_profile": "yes", 
		 "theory": "DFT", 
		 "functional": "B3LYP", 
		 "basiset": "6-31G**", 
		 "properties": { 
			 "R2extent": 8459.6365, 
			 "electric_dipole_moment_norm": 4.08458732922, 
			 "electric_quadrupole_moment_norm": 8.88439523153, 
			 "total_energy": -1988.66141108, 
			 "HOMO_LUMO_gap": 0.14477, 
			 "cosmo_polarized_energy": -8.84, 
			 "cosmo_cavitation_energy": 33.95, 
			 "cosmo_dispersion_energy": -25.48, 
			 "cosmo_repulsion_energy": 1.95, 
			 "cosmo_total_nonelectrostatic_energy": 10.42, 
			 "SMD_solvation_energy": 5.32 
		},
		"coords": [
			{
				"x": -0.1571963574,
				"y": -3.0272623132,
				"z": -2.7832467411,
				"element": "C" 
			},
			{
				"x": -0.0766211187,
				"y": -1.8053742403,
				"z": -1.907973671,
				"element": "C" 
			},
			{
				"x": 1.0311536665,
				"y": -0.9504518975,
				"z": -1.8990800106,
				"element": "C" 
			},
			{
				"x": 2.4021867191,
				"y": -1.3000440471,
				"z": -2.9497076996,
				"element": "Cl" 
			},
			{
				"x": 1.1201051008,
				"y": 0.1845255254,
				"z": -1.0941836098,
				"element": "C" 
			},
			{
				"x": 0.05285351,
				"y": 0.5015584496,
				"z": -0.2424774624,
				"element": "C" 
			},
			{
				"x": -1.0750345644,
				"y": -0.333405958,
				"z": -0.2247442234,
				"element": "C" 
			},
			{
				"x": -1.1222015118,
				"y": -1.4545686327,
				"z": -1.0432277037,
				"element": "C" 
			},
			{
				"x": 0.064891861,
				"y": 1.6635915526,
				"z": 0.6270220901,
				"element": "N" 
			},
			{
				"x": -1.0557126392,
				"y": 1.7908183248,
				"z": 1.3670461195,
				"element": "N" 
			},
			{
				"x": -1.1848051025,
				"y": 2.7847764088,
				"z": 2.1910934113,
				"element": "C" 
			},
			{
				"x": -0.1859179686,
				"y": 3.7870926345,
				"z": 2.3732443443,
				"element": "C" 
			},
			{
				"x": -0.4943190405,
				"y": 5.0591683581,
				"z": 3.5102534217,
				"element": "Cl" 
			},
			{
				"x": 0.9580563138,
				"y": 3.6864528318,
				"z": 1.6398306074,
				"element": "C" 
			},
			{
				"x": 2.2508520471,
				"y": 4.8155056631,
				"z": 1.7487663757,
				"element": "Cl" 
			},
			{
				"x": 1.1557008951,
				"y": 2.5771960656,
				"z": 0.6891979669,
				"element": "C" 
			},
			{
				"x": 2.170024742,
				"y": 2.4634001359,
				"z": 0.0202514588,
				"element": "O" 
			},
			{
				"x": 0.6584556587,
				"y": -3.7256970685,
				"z": -2.567479599,
				"element": "H" 
			},
			{
				"x": -1.1053743425,
				"y": -3.5491454289,
				"z": -2.6325576751,
				"element": "H" 
			},
			{
				"x": -0.0737727606,
				"y": -2.7637053372,
				"z": -3.8430765936,
				"element": "H" 
			},
			{
				"x": 2.0011461731,
				"y": 0.8020422946,
				"z": -1.134210628,
				"element": "H" 
			},
			{
				"x": -1.9056783916,
				"y": -0.1029834713,
				"z": 0.4258160138,
				"element": "H" 
			},
			{
				"x": -2.0059714262,
				"y": -2.0857085987,
				"z": -1.0119325078,
				"element": "H" 
			},
			{
				"x": -2.1112214635,
				"y": 2.8254187485,
				"z": 2.7541763158,
				"element": "H" 
			}
		],
		 "valence_orbital": [ 
			{
				"type": "occ",
				"energy": -0.30998,
				"method": "rhf"
			},
			{
				"type": "occ",
				"energy": -0.27705,
				"method": "rhf"
			},
			{
				"type": "occ",
				"energy": -0.27085,
				"method": "rhf"
			},
			{
				"type": "occ",
				"energy": -0.25436,
				"method": "rhf"
			},
			{
				"type": "occ",
				"energy": -0.23737,
				"method": "rhf"
			},
			{
				"type": "unocc",
				"energy": -0.0926,
				"method": "rhf"
			},
			{
				"type": "unocc",
				"energy": -0.03028,
				"method": "rhf"
			},
			{
				"type": "unocc",
				"energy": -0.01592,
				"method": "rhf"
			},
			{
				"type": "unocc",
				"energy": -0.01523,
				"method": "rhf"
			},
			{
				"type": "unocc",
				"energy": -0.00535,
				"method": "rhf"
			}
		],
		"cosmo_sigma_profile": { 
			"-0.025": 0.0,
			"-0.024": 0.0,
			"-0.023": 0.0,
			"-0.022": 0.0,
			"-0.021": 0.0,
			"-0.02": 0.0,
			"-0.019": 0.0,
			"-0.018": 0.0,
			"-0.017": 0.0,
			"-0.016": 0.0,
			"-0.015": 0.0,
			"-0.014": 0.0,
			"-0.013": 0.0,
			"-0.012": 0.0,
			"-0.011": 0.0342636489073,
			"-0.01": 1.34336825378,
			"-0.009": 1.95183936367,
			"-0.008": 2.24446377864,
			"-0.007": 3.75394329692,
			"-0.006": 9.09640304621,
			"-0.005": 12.6897880469,
			"-0.004": 20.6461965794,
			"-0.003": 22.5675352559,
			"-0.002": 22.9578394955,
			"-0.001": 26.1007688867,
			"0.0": 25.0788092834,
			"0.001": 29.5337565412,
			"0.002": 36.8335872106,
			"0.003": 29.3050092191,
			"0.004": 14.1596859462,
			"0.005": 8.48169764791,
			"0.006": 1.27515844553,
			"0.007": 1.81789118675,
			"0.008": 2.09732899936,
			"0.009": 1.80403037678,
			"0.01": 2.30793283904,
			"0.011": 2.52958036204,
			"0.012": 1.73393967107,
			"0.013": 0.0966774923973,
			"0.014": 0.0,
			"0.015": 0.0,
			"0.016": 0.0,
			"0.017": 0.0,
			"0.018": 0.0,
			"0.019": 0.0,
			"0.02": 0.0,
			"0.021": 0.0,
			"0.022": 0.0,
			"0.023": 0.0,
			"0.024": 0.0,
			"0.025": 0.0
		}
	}
}
