{
	 "smiles": "CCOC(=O)CC1=NC(=NO1)C1=CC(OC)=C(OC)C=C1", 
	 "Tm": 349.15, 
	 "num_atms": 37, 
	 "gaussian": { 
		 "optdone": 1, 
		 "sigma_profile": "yes", 
		 "theory": "DFT", 
		 "functional": "B3LYP", 
		 "basiset": "6-31G**", 
		 "properties": { 
			 "R2extent": 10135.2911, 
			 "electric_dipole_moment_norm": 2.40076519885, 
			 "electric_quadrupole_moment_norm": 11.5077337543, 
			 "total_energy": -1028.70291948, 
			 "HOMO_LUMO_gap": 0.1841, 
			 "cosmo_polarized_energy": -14.04, 
			 "cosmo_cavitation_energy": 42.56, 
			 "cosmo_dispersion_energy": -29.71, 
			 "cosmo_repulsion_energy": 2.32, 
			 "cosmo_total_nonelectrostatic_energy": 15.18, 
			 "SMD_solvation_energy": 8.13 
		},
		"coords": [
			{
				"x": -6.3167774368,
				"y": 1.6581120905,
				"z": -1.2590316985,
				"element": "C" 
			},
			{
				"x": -5.825575222,
				"y": 0.2325765061,
				"z": -1.4534499428,
				"element": "C" 
			},
			{
				"x": -4.7603342501,
				"y": -0.0856063799,
				"z": -0.5181560149,
				"element": "O" 
			},
			{
				"x": -5.1323809785,
				"y": -0.515922972,
				"z": 0.698584932,
				"element": "C" 
			},
			{
				"x": -6.2737654244,
				"y": -0.681013539,
				"z": 1.0641392696,
				"element": "O" 
			},
			{
				"x": -3.9212094442,
				"y": -0.8332391558,
				"z": 1.5770042948,
				"element": "C" 
			},
			{
				"x": -2.6797894955,
				"y": -0.0781607705,
				"z": 1.2458425819,
				"element": "C" 
			},
			{
				"x": -1.5601890188,
				"y": -0.5343215154,
				"z": 0.7732144686,
				"element": "N" 
			},
			{
				"x": -0.7856405577,
				"y": 0.609567271,
				"z": 0.6838953786,
				"element": "C" 
			},
			{
				"x": -1.396593828,
				"y": 1.7047175563,
				"z": 1.0829032067,
				"element": "N" 
			},
			{
				"x": -2.6679277078,
				"y": 1.2473823807,
				"z": 1.4653724367,
				"element": "O" 
			},
			{
				"x": 0.5961190422,
				"y": 0.6010787447,
				"z": 0.1897401008,
				"element": "C" 
			},
			{
				"x": 1.1730950227,
				"y": -0.606031473,
				"z": -0.2278732197,
				"element": "C" 
			},
			{
				"x": 2.4827578764,
				"y": -0.6397034149,
				"z": -0.7003973601,
				"element": "C" 
			},
			{
				"x": 3.0201748601,
				"y": -1.8491615186,
				"z": -1.0830550027,
				"element": "O" 
			},
			{
				"x": 3.2474388955,
				"y": -1.9825560802,
				"z": -2.4916927582,
				"element": "C" 
			},
			{
				"x": 3.2416587463,
				"y": 0.5467580616,
				"z": -0.7430990788,
				"element": "C" 
			},
			{
				"x": 4.5322128381,
				"y": 0.5652065759,
				"z": -1.2139679562,
				"element": "O" 
			},
			{
				"x": 5.4878966688,
				"y": -0.1403915784,
				"z": -0.4099454187,
				"element": "C" 
			},
			{
				"x": 2.6561563683,
				"y": 1.7513260693,
				"z": -0.3417425054,
				"element": "C" 
			},
			{
				"x": 1.3439839791,
				"y": 1.7862414772,
				"z": 0.1175248618,
				"element": "C" 
			},
			{
				"x": -6.7872955079,
				"y": 1.7739550806,
				"z": -0.2796231124,
				"element": "H" 
			},
			{
				"x": -5.4902463244,
				"y": 2.3693863653,
				"z": -1.3420448794,
				"element": "H" 
			},
			{
				"x": -7.0591685456,
				"y": 1.8999527166,
				"z": -2.0267434618,
				"element": "H" 
			},
			{
				"x": -5.3679429286,
				"y": 0.0930166141,
				"z": -2.4351084189,
				"element": "H" 
			},
			{
				"x": -6.6334563916,
				"y": -0.4904759357,
				"z": -1.3201672848,
				"element": "H" 
			},
			{
				"x": -4.2214173749,
				"y": -0.6529121135,
				"z": 2.6124278485,
				"element": "H" 
			},
			{
				"x": -3.7012791002,
				"y": -1.8997551372,
				"z": 1.4727368912,
				"element": "H" 
			},
			{
				"x": 0.603217633,
				"y": -1.5274316764,
				"z": -0.1899954258,
				"element": "H" 
			},
			{
				"x": 3.9455399185,
				"y": -1.2227919565,
				"z": -2.8572794556,
				"element": "H" 
			},
			{
				"x": 3.6732969823,
				"y": -2.9769782707,
				"z": -2.6396433054,
				"element": "H" 
			},
			{
				"x": 2.3031739436,
				"y": -1.9069650664,
				"z": -3.0451159792,
				"element": "H" 
			},
			{
				"x": 5.2258743586,
				"y": -1.1978344976,
				"z": -0.3133765738,
				"element": "H" 
			},
			{
				"x": 6.4471290538,
				"y": -0.0398962571,
				"z": -0.9213416295,
				"element": "H" 
			},
			{
				"x": 5.5600430175,
				"y": 0.3114028711,
				"z": 0.5870778543,
				"element": "H" 
			},
			{
				"x": 3.2566961631,
				"y": 2.6536885357,
				"z": -0.3953376077,
				"element": "H" 
			},
			{
				"x": 0.8970241692,
				"y": 2.7227803921,
				"z": 0.4327239646,
				"element": "H" 
			}
		],
		 "valence_orbital": [ 
			{
				"type": "occ",
				"energy": -0.29388,
				"method": "rhf"
			},
			{
				"type": "occ",
				"energy": -0.27817,
				"method": "rhf"
			},
			{
				"type": "occ",
				"energy": -0.2683,
				"method": "rhf"
			},
			{
				"type": "occ",
				"energy": -0.24802,
				"method": "rhf"
			},
			{
				"type": "occ",
				"energy": -0.22792,
				"method": "rhf"
			},
			{
				"type": "unocc",
				"energy": -0.04382,
				"method": "rhf"
			},
			{
				"type": "unocc",
				"energy": -0.01056,
				"method": "rhf"
			},
			{
				"type": "unocc",
				"energy": -0.00151,
				"method": "rhf"
			},
			{
				"type": "unocc",
				"energy": 0.00202,
				"method": "rhf"
			},
			{
				"type": "unocc",
				"energy": 0.07037,
				"method": "rhf"
			}
		],
		"cosmo_sigma_profile": { 
			"-0.025": 0.0,
			"-0.024": 0.0,
			"-0.023": 0.0,
			"-0.022": 0.0,
			"-0.021": 0.0,
			"-0.02": 0.0,
			"-0.019": 0.0,
			"-0.018": 0.0,
			"-0.017": 0.0,
			"-0.016": 0.0,
			"-0.015": 0.0,
			"-0.014": 0.0,
			"-0.013": 0.0,
			"-0.012": 0.0,
			"-0.011": 0.0,
			"-0.01": 0.990343046488,
			"-0.009": 4.1696900445,
			"-0.008": 4.12998327958,
			"-0.007": 5.02596812747,
			"-0.006": 12.5516010561,
			"-0.005": 23.6052843537,
			"-0.004": 31.6077835176,
			"-0.003": 37.3122150871,
			"-0.002": 30.4838759597,
			"-0.001": 29.0555774763,
			"0.0": 24.4488582327,
			"0.001": 23.0034713076,
			"0.002": 23.008455722,
			"0.003": 19.3164332842,
			"0.004": 11.6178313914,
			"0.005": 11.1564875612,
			"0.006": 10.2014856451,
			"0.007": 5.84807637068,
			"0.008": 5.90790581504,
			"0.009": 7.0209385358,
			"0.01": 5.70729734125,
			"0.011": 8.67275769668,
			"0.012": 3.51249774272,
			"0.013": 0.0600307171476,
			"0.014": 0.0,
			"0.015": 0.0,
			"0.016": 0.0,
			"0.017": 0.0,
			"0.018": 0.0,
			"0.019": 0.0,
			"0.02": 0.0,
			"0.021": 0.0,
			"0.022": 0.0,
			"0.023": 0.0,
			"0.024": 0.0,
			"0.025": 0.0
		}
	}
}
