{
	 "smiles": "CCC1CCCCC1", 
	 "Tm": 162.15, 
	 "num_atms": 24, 
	 "gaussian": { 
		 "optdone": 1, 
		 "sigma_profile": "yes", 
		 "theory": "DFT", 
		 "functional": "B3LYP", 
		 "basiset": "6-31G**", 
		 "properties": { 
			 "R2extent": 1210.2356, 
			 "electric_dipole_moment_norm": 0.0575871513447, 
			 "electric_quadrupole_moment_norm": 0.486642846449, 
			 "total_energy": -314.511316334, 
			 "HOMO_LUMO_gap": 0.36154, 
			 "cosmo_polarized_energy": -0.54, 
			 "cosmo_cavitation_energy": 23.15, 
			 "cosmo_dispersion_energy": -17.4, 
			 "cosmo_repulsion_energy": 1.45, 
			 "cosmo_total_nonelectrostatic_energy": 7.2, 
			 "SMD_solvation_energy": 3.14 
		},
		"coords": [
			{
				"x": -1.7243588006,
				"y": -0.0851269288,
				"z": -2.11139242,
				"element": "C" 
			},
			{
				"x": -0.7721680147,
				"y": -0.7368395992,
				"z": -1.1019745017,
				"element": "C" 
			},
			{
				"x": 0.6590975763,
				"y": -0.1573315236,
				"z": -1.1253973703,
				"element": "C" 
			},
			{
				"x": 0.7268398541,
				"y": 1.307022406,
				"z": -0.5814508059,
				"element": "C" 
			},
			{
				"x": 1.444514037,
				"y": 1.4269632248,
				"z": 0.7785593753,
				"element": "C" 
			},
			{
				"x": 1.0201794702,
				"y": 0.3005831773,
				"z": 1.7299466361,
				"element": "C" 
			},
			{
				"x": 1.3960443232,
				"y": -1.0936148917,
				"z": 1.1607881848,
				"element": "C" 
			},
			{
				"x": 1.6516341779,
				"y": -1.0571766253,
				"z": -0.3611140298,
				"element": "C" 
			},
			{
				"x": -1.8377825897,
				"y": 0.9895841363,
				"z": -1.9327309213,
				"element": "H" 
			},
			{
				"x": -2.722587875,
				"y": -0.532566974,
				"z": -2.0605193654,
				"element": "H" 
			},
			{
				"x": -1.3553140922,
				"y": -0.2104639543,
				"z": -3.1360505756,
				"element": "H" 
			},
			{
				"x": -0.7194198068,
				"y": -1.813668365,
				"z": -1.3130014789,
				"element": "H" 
			},
			{
				"x": -1.1941602674,
				"y": -0.6456721885,
				"z": -0.0922339659,
				"element": "H" 
			},
			{
				"x": 0.9744764419,
				"y": -0.1484721061,
				"z": -2.1780310577,
				"element": "H" 
			},
			{
				"x": -0.2914479299,
				"y": 1.7004663256,
				"z": -0.4710478521,
				"element": "H" 
			},
			{
				"x": 1.2215816302,
				"y": 1.9598780311,
				"z": -1.30982837,
				"element": "H" 
			},
			{
				"x": 1.2290356431,
				"y": 2.4058519979,
				"z": 1.2229115226,
				"element": "H" 
			},
			{
				"x": 2.5326158033,
				"y": 1.3917736588,
				"z": 0.6357732046,
				"element": "H" 
			},
			{
				"x": 1.4699413797,
				"y": 0.4426615913,
				"z": 2.7190994687,
				"element": "H" 
			},
			{
				"x": -0.0657809807,
				"y": 0.3634920008,
				"z": 1.8790936503,
				"element": "H" 
			},
			{
				"x": 0.6007382003,
				"y": -1.8118459026,
				"z": 1.3902784895,
				"element": "H" 
			},
			{
				"x": 2.2965222076,
				"y": -1.4733846623,
				"z": 1.6578066624,
				"element": "H" 
			},
			{
				"x": 1.6236442804,
				"y": -2.0751177088,
				"z": -0.7689068555,
				"element": "H" 
			},
			{
				"x": 2.6679553317,
				"y": -0.6871951197,
				"z": -0.546377624,
				"element": "H" 
			}
		],
		 "valence_orbital": [ 
			{
				"type": "occ",
				"energy": -0.32969,
				"method": "rhf"
			},
			{
				"type": "occ",
				"energy": -0.32382,
				"method": "rhf"
			},
			{
				"type": "occ",
				"energy": -0.28969,
				"method": "rhf"
			},
			{
				"type": "occ",
				"energy": -0.28766,
				"method": "rhf"
			},
			{
				"type": "occ",
				"energy": -0.28459,
				"method": "rhf"
			},
			{
				"type": "unocc",
				"energy": 0.07695,
				"method": "rhf"
			},
			{
				"type": "unocc",
				"energy": 0.10143,
				"method": "rhf"
			},
			{
				"type": "unocc",
				"energy": 0.11256,
				"method": "rhf"
			},
			{
				"type": "unocc",
				"energy": 0.12692,
				"method": "rhf"
			},
			{
				"type": "unocc",
				"energy": 0.13619,
				"method": "rhf"
			}
		],
		"cosmo_sigma_profile": { 
			"-0.025": 0.0,
			"-0.024": 0.0,
			"-0.023": 0.0,
			"-0.022": 0.0,
			"-0.021": 0.0,
			"-0.02": 0.0,
			"-0.019": 0.0,
			"-0.018": 0.0,
			"-0.017": 0.0,
			"-0.016": 0.0,
			"-0.015": 0.0,
			"-0.014": 0.0,
			"-0.013": 0.0,
			"-0.012": 0.0,
			"-0.011": 0.0,
			"-0.01": 0.0,
			"-0.009": 0.0,
			"-0.008": 0.0,
			"-0.007": 0.0,
			"-0.006": 0.0,
			"-0.005": 0.0,
			"-0.004": 0.0,
			"-0.003": 1.57003446624,
			"-0.002": 22.5216438051,
			"-0.001": 40.6135246692,
			"0.0": 45.932390263,
			"0.001": 41.1404649273,
			"0.002": 24.5609792231,
			"0.003": 0.383819172066,
			"0.004": 0.0,
			"0.005": 0.0,
			"0.006": 0.0,
			"0.007": 0.0,
			"0.008": 0.0,
			"0.009": 0.0,
			"0.01": 0.0,
			"0.011": 0.0,
			"0.012": 0.0,
			"0.013": 0.0,
			"0.014": 0.0,
			"0.015": 0.0,
			"0.016": 0.0,
			"0.017": 0.0,
			"0.018": 0.0,
			"0.019": 0.0,
			"0.02": 0.0,
			"0.021": 0.0,
			"0.022": 0.0,
			"0.023": 0.0,
			"0.024": 0.0,
			"0.025": 0.0
		}
	}
}
