{
	 "smiles": "COC1(OC)C2(Cl)C3C4C(=O)C5C(C3=O)C2(Cl)C5(Cl)C14Cl", 
	 "Tm": 429.15, 
	 "num_atms": 31, 
	 "gaussian": { 
		 "optdone": 1, 
		 "sigma_profile": "yes", 
		 "theory": "DFT", 
		 "functional": "B3LYP", 
		 "basiset": "6-31G**", 
		 "properties": { 
			 "R2extent": 5863.2242, 
			 "electric_dipole_moment_norm": 3.51821534872, 
			 "electric_quadrupole_moment_norm": 14.1435726639, 
			 "total_energy": -2642.97857256, 
			 "HOMO_LUMO_gap": 0.19902, 
			 "cosmo_polarized_energy": -14.01, 
			 "cosmo_cavitation_energy": 37.31, 
			 "cosmo_dispersion_energy": -26.1, 
			 "cosmo_repulsion_energy": 1.95, 
			 "cosmo_total_nonelectrostatic_energy": 13.15, 
			 "SMD_solvation_energy": 6.97 
		},
		"coords": [
			{
				"x": 1.771887506,
				"y": 1.6972734844,
				"z": -1.0559652739,
				"element": "C" 
			},
			{
				"x": 1.1721471797,
				"y": 0.3942586171,
				"z": -1.1349092762,
				"element": "O" 
			},
			{
				"x": -0.1631500699,
				"y": 0.2636333065,
				"z": -0.7931844251,
				"element": "C" 
			},
			{
				"x": -1.0293390372,
				"y": 1.0843369028,
				"z": -1.5147810617,
				"element": "O" 
			},
			{
				"x": -0.947381159,
				"y": 1.0627773657,
				"z": -2.9477186955,
				"element": "C" 
			},
			{
				"x": -0.5024852619,
				"y": -1.2605134389,
				"z": -0.7914555753,
				"element": "C" 
			},
			{
				"x": -0.2965014567,
				"y": -2.1418355026,
				"z": -2.3305325195,
				"element": "Cl" 
			},
			{
				"x": -1.9470110634,
				"y": -1.3477226639,
				"z": -0.2399301414,
				"element": "C" 
			},
			{
				"x": -1.9800512893,
				"y": -0.1546207843,
				"z": 0.8164123045,
				"element": "C" 
			},
			{
				"x": -2.0092408166,
				"y": -0.7248527832,
				"z": 2.2377398434,
				"element": "C" 
			},
			{
				"x": -2.8762060678,
				"y": -0.6018038892,
				"z": 3.0668263892,
				"element": "O" 
			},
			{
				"x": -0.6867642835,
				"y": -1.47539472,
				"z": 2.3602223158,
				"element": "C" 
			},
			{
				"x": -0.6538179981,
				"y": -2.6654390547,
				"z": 1.3074727349,
				"element": "C" 
			},
			{
				"x": -1.951520586,
				"y": -2.6856171465,
				"z": 0.5056330271,
				"element": "C" 
			},
			{
				"x": -2.7870509514,
				"y": -3.5539223404,
				"z": 0.4610949357,
				"element": "O" 
			},
			{
				"x": 0.329311725,
				"y": -1.8448992548,
				"z": 0.4189011488,
				"element": "C" 
			},
			{
				"x": 1.8754270971,
				"y": -2.6095164403,
				"z": 0.0369504412,
				"element": "Cl" 
			},
			{
				"x": 0.2953163804,
				"y": -0.6628364057,
				"z": 1.4634056093,
				"element": "C" 
			},
			{
				"x": 1.8100639118,
				"y": -0.1303976305,
				"z": 2.2081856039,
				"element": "Cl" 
			},
			{
				"x": -0.5466514526,
				"y": 0.4328031692,
				"z": 0.7118245523,
				"element": "C" 
			},
			{
				"x": -0.467109521,
				"y": 2.0809130511,
				"z": 1.3957367098,
				"element": "Cl" 
			},
			{
				"x": 1.0767221634,
				"y": 2.4758247889,
				"z": -1.3802378498,
				"element": "H" 
			},
			{
				"x": 2.6323759326,
				"y": 1.6667966384,
				"z": -1.7267360858,
				"element": "H" 
			},
			{
				"x": 2.1092400215,
				"y": 1.9077354766,
				"z": -0.0381484076,
				"element": "H" 
			},
			{
				"x": -1.5800253319,
				"y": 0.2744590727,
				"z": -3.3655285521,
				"element": "H" 
			},
			{
				"x": 0.0808045739,
				"y": 0.9147211512,
				"z": -3.2859578307,
				"element": "H" 
			},
			{
				"x": -1.3101553468,
				"y": 2.036479538,
				"z": -3.2832522529,
				"element": "H" 
			},
			{
				"x": -2.725508847,
				"y": -1.2563076679,
				"z": -0.9940335351,
				"element": "H" 
			},
			{
				"x": -2.7672601879,
				"y": 0.5643580061,
				"z": 0.6044626708,
				"element": "H" 
			},
			{
				"x": -0.3778902147,
				"y": -1.7219477871,
				"z": 3.3736216972,
				"element": "H" 
			},
			{
				"x": -0.3227755489,
				"y": -3.6303430586,
				"z": 1.6849814988,
				"element": "H" 
			}
		],
		 "valence_orbital": [ 
			{
				"type": "occ",
				"energy": -0.30764,
				"method": "rhf"
			},
			{
				"type": "occ",
				"energy": -0.2971,
				"method": "rhf"
			},
			{
				"type": "occ",
				"energy": -0.29056,
				"method": "rhf"
			},
			{
				"type": "occ",
				"energy": -0.28155,
				"method": "rhf"
			},
			{
				"type": "occ",
				"energy": -0.25556,
				"method": "rhf"
			},
			{
				"type": "unocc",
				"energy": -0.05654,
				"method": "rhf"
			},
			{
				"type": "unocc",
				"energy": -0.05612,
				"method": "rhf"
			},
			{
				"type": "unocc",
				"energy": -0.0466,
				"method": "rhf"
			},
			{
				"type": "unocc",
				"energy": 0.01607,
				"method": "rhf"
			},
			{
				"type": "unocc",
				"energy": 0.0258,
				"method": "rhf"
			}
		],
		"cosmo_sigma_profile": { 
			"-0.025": 0.0,
			"-0.024": 0.0,
			"-0.023": 0.0,
			"-0.022": 0.0,
			"-0.021": 0.0,
			"-0.02": 0.0,
			"-0.019": 0.0,
			"-0.018": 0.0,
			"-0.017": 0.0,
			"-0.016": 0.0,
			"-0.015": 0.0,
			"-0.014": 0.0,
			"-0.013": 0.0,
			"-0.012": 0.0,
			"-0.011": 0.0,
			"-0.01": 0.46655461431,
			"-0.009": 7.65498455245,
			"-0.008": 9.29749871616,
			"-0.007": 8.74666356468,
			"-0.006": 13.767087669,
			"-0.005": 16.155976235,
			"-0.004": 21.9389423302,
			"-0.003": 29.6503613072,
			"-0.002": 20.4529264559,
			"-0.001": 17.9819515489,
			"0.0": 19.2066447207,
			"0.001": 20.8872666626,
			"0.002": 21.1423816114,
			"0.003": 23.6887161229,
			"0.004": 17.0457510339,
			"0.005": 12.2897879176,
			"0.006": 8.89662284018,
			"0.007": 7.16010407205,
			"0.008": 8.14918078556,
			"0.009": 9.33957202536,
			"0.01": 7.81410952511,
			"0.011": 1.71352519478,
			"0.012": 0.0,
			"0.013": 0.0,
			"0.014": 0.0,
			"0.015": 0.0,
			"0.016": 0.0,
			"0.017": 0.0,
			"0.018": 0.0,
			"0.019": 0.0,
			"0.02": 0.0,
			"0.021": 0.0,
			"0.022": 0.0,
			"0.023": 0.0,
			"0.024": 0.0,
			"0.025": 0.0
		}
	}
}
