{
	 "smiles": "ClCC1=CC=C(C=C1)C1=NC=CS1", 
	 "Tm": 341.15, 
	 "num_atms": 21, 
	 "gaussian": { 
		 "optdone": 1, 
		 "sigma_profile": "yes", 
		 "theory": "DFT", 
		 "functional": "B3LYP", 
		 "basiset": "6-31G**", 
		 "properties": { 
			 "R2extent": 5183.6581, 
			 "electric_dipole_moment_norm": 2.68236759599, 
			 "electric_quadrupole_moment_norm": 18.0345310247, 
			 "total_energy": -1299.01800954, 
			 "HOMO_LUMO_gap": 0.16286, 
			 "cosmo_polarized_energy": -9.22, 
			 "cosmo_cavitation_energy": 28.75, 
			 "cosmo_dispersion_energy": -21.78, 
			 "cosmo_repulsion_energy": 1.67, 
			 "cosmo_total_nonelectrostatic_energy": 8.63, 
			 "SMD_solvation_energy": 3.28 
		},
		"coords": [
			{
				"x": -1.6094862991,
				"y": 3.17069993,
				"z": 5.0055879326,
				"element": "Cl" 
			},
			{
				"x": -2.0972493529,
				"y": 3.3650822464,
				"z": 3.2423455863,
				"element": "C" 
			},
			{
				"x": -1.4135399554,
				"y": 2.3761717818,
				"z": 2.3489747454,
				"element": "C" 
			},
			{
				"x": -0.184280408,
				"y": 2.6834668582,
				"z": 1.7484428941,
				"element": "C" 
			},
			{
				"x": 0.4511870647,
				"y": 1.7712851727,
				"z": 0.9151522388,
				"element": "C" 
			},
			{
				"x": -0.1293586353,
				"y": 0.5160520432,
				"z": 0.6592020175,
				"element": "C" 
			},
			{
				"x": -1.3597054863,
				"y": 0.2070853415,
				"z": 1.2614107668,
				"element": "C" 
			},
			{
				"x": -1.990336717,
				"y": 1.1251858636,
				"z": 2.0942913714,
				"element": "C" 
			},
			{
				"x": 0.5680793701,
				"y": -0.4224250999,
				"z": -0.2291550505,
				"element": "C" 
			},
			{
				"x": 1.7037844618,
				"y": -0.1585632585,
				"z": -0.82368124,
				"element": "N" 
			},
			{
				"x": 2.1301435244,
				"y": -1.2099879418,
				"z": -1.5913507757,
				"element": "C" 
			},
			{
				"x": 1.3226502746,
				"y": -2.3121352746,
				"z": -1.6016216917,
				"element": "C" 
			},
			{
				"x": -0.0582978086,
				"y": -2.0362382361,
				"z": -0.595356931,
				"element": "S" 
			},
			{
				"x": -1.8411995138,
				"y": 4.3931826715,
				"z": 2.9862208424,
				"element": "H" 
			},
			{
				"x": -3.1808825383,
				"y": 3.2473167923,
				"z": 3.2309533639,
				"element": "H" 
			},
			{
				"x": 0.2787186287,
				"y": 3.6481893752,
				"z": 1.9387752669,
				"element": "H" 
			},
			{
				"x": 1.3998822963,
				"y": 2.0095848202,
				"z": 0.4479276875,
				"element": "H" 
			},
			{
				"x": -1.8327965972,
				"y": -0.7536011452,
				"z": 1.0784460685,
				"element": "H" 
			},
			{
				"x": -2.9408318596,
				"y": 0.8679874779,
				"z": 2.553878096,
				"element": "H" 
			},
			{
				"x": 3.0611056628,
				"y": -1.1218100497,
				"z": -2.1393422131,
				"element": "H" 
			},
			{
				"x": 1.4576138878,
				"y": -3.2456293687,
				"z": -2.1287009761,
				"element": "H" 
			}
		],
		 "valence_orbital": [ 
			{
				"type": "occ",
				"energy": -0.29224,
				"method": "rhf"
			},
			{
				"type": "occ",
				"energy": -0.28128,
				"method": "rhf"
			},
			{
				"type": "occ",
				"energy": -0.27892,
				"method": "rhf"
			},
			{
				"type": "occ",
				"energy": -0.26384,
				"method": "rhf"
			},
			{
				"type": "occ",
				"energy": -0.22755,
				"method": "rhf"
			},
			{
				"type": "unocc",
				"energy": -0.06469,
				"method": "rhf"
			},
			{
				"type": "unocc",
				"energy": -0.01486,
				"method": "rhf"
			},
			{
				"type": "unocc",
				"energy": -0.00219,
				"method": "rhf"
			},
			{
				"type": "unocc",
				"energy": 0.01563,
				"method": "rhf"
			},
			{
				"type": "unocc",
				"energy": 0.03617,
				"method": "rhf"
			}
		],
		"cosmo_sigma_profile": { 
			"-0.025": 0.0,
			"-0.024": 0.0,
			"-0.023": 0.0,
			"-0.022": 0.0,
			"-0.021": 0.0,
			"-0.02": 0.0,
			"-0.019": 0.0,
			"-0.018": 0.0,
			"-0.017": 0.0,
			"-0.016": 0.0,
			"-0.015": 0.0,
			"-0.014": 0.0,
			"-0.013": 0.0,
			"-0.012": 0.0,
			"-0.011": 0.0,
			"-0.01": 0.280796048985,
			"-0.009": 2.01968585414,
			"-0.008": 5.59994929459,
			"-0.007": 13.5815190809,
			"-0.006": 15.2060973416,
			"-0.005": 14.511104417,
			"-0.004": 14.1577276653,
			"-0.003": 10.6303686084,
			"-0.002": 11.1155042556,
			"-0.001": 11.31171906,
			"0.0": 15.6241321989,
			"0.001": 20.3228724045,
			"0.002": 24.2300041615,
			"0.003": 25.6101391622,
			"0.004": 17.1511835559,
			"0.005": 8.33113822882,
			"0.006": 10.7696500463,
			"0.007": 9.18481278304,
			"0.008": 1.17980499533,
			"0.009": 1.50482237746,
			"0.01": 0.836679433378,
			"0.011": 1.17546727099,
			"0.012": 0.847287562097,
			"0.013": 0.37221571413,
			"0.014": 0.0,
			"0.015": 0.0,
			"0.016": 0.0,
			"0.017": 0.0,
			"0.018": 0.0,
			"0.019": 0.0,
			"0.02": 0.0,
			"0.021": 0.0,
			"0.022": 0.0,
			"0.023": 0.0,
			"0.024": 0.0,
			"0.025": 0.0
		}
	}
}
