{
	 "smiles": "CCCCCCCC(=O)C1=CC=C(NC(C)=O)C=C1", 
	 "Tm": 396.15, 
	 "num_atms": 42, 
	 "gaussian": { 
		 "optdone": 1, 
		 "sigma_profile": "yes", 
		 "theory": "DFT", 
		 "functional": "B3LYP", 
		 "basiset": "6-31G**", 
		 "properties": { 
			 "R2extent": 9045.5506, 
			 "electric_dipole_moment_norm": 2.4768341951, 
			 "electric_quadrupole_moment_norm": 21.9360744688, 
			 "total_energy": -828.802825004, 
			 "HOMO_LUMO_gap": 0.17403, 
			 "cosmo_polarized_energy": -15.95, 
			 "cosmo_cavitation_energy": 44.4, 
			 "cosmo_dispersion_energy": -30.35, 
			 "cosmo_repulsion_energy": 2.4, 
			 "cosmo_total_nonelectrostatic_energy": 16.45, 
			 "SMD_solvation_energy": 8.11 
		},
		"coords": [
			{
				"x": 2.1980427013,
				"y": 0.7600495957,
				"z": 5.2094589465,
				"element": "C" 
			},
			{
				"x": 2.8314113672,
				"y": -0.3726142754,
				"z": 4.3954808788,
				"element": "C" 
			},
			{
				"x": 1.8119369203,
				"y": -1.1755303634,
				"z": 3.5758036599,
				"element": "C" 
			},
			{
				"x": 2.4566738968,
				"y": -2.2977939274,
				"z": 2.7501387919,
				"element": "C" 
			},
			{
				"x": 1.5003228904,
				"y": -3.2704528778,
				"z": 2.0362555802,
				"element": "C" 
			},
			{
				"x": 0.6521081165,
				"y": -2.6941067554,
				"z": 0.8826609222,
				"element": "C" 
			},
			{
				"x": -0.6947703195,
				"y": -2.0651810221,
				"z": 1.3108344011,
				"element": "C" 
			},
			{
				"x": -1.5349228473,
				"y": -1.680198438,
				"z": 0.0984429476,
				"element": "C" 
			},
			{
				"x": -2.3516432252,
				"y": -2.4729878613,
				"z": -0.3530088183,
				"element": "O" 
			},
			{
				"x": -1.3281205427,
				"y": -0.3534946431,
				"z": -0.5629049181,
				"element": "C" 
			},
			{
				"x": -0.4077597535,
				"y": 0.6076545022,
				"z": -0.1156644616,
				"element": "C" 
			},
			{
				"x": -0.2569743042,
				"y": 1.8155925539,
				"z": -0.785031211,
				"element": "C" 
			},
			{
				"x": -1.0315399386,
				"y": 2.1101547668,
				"z": -1.9213249286,
				"element": "C" 
			},
			{
				"x": -0.8523667864,
				"y": 3.363776839,
				"z": -2.5276689544,
				"element": "N" 
			},
			{
				"x": -0.9570071736,
				"y": 3.8128826965,
				"z": -3.8406557801,
				"element": "C" 
			},
			{
				"x": -1.3419962905,
				"y": 2.8351043572,
				"z": -4.9318299553,
				"element": "C" 
			},
			{
				"x": -0.7123706903,
				"y": 4.9856094457,
				"z": -4.0784032077,
				"element": "O" 
			},
			{
				"x": -1.9774978392,
				"y": 1.1639005656,
				"z": -2.3561955067,
				"element": "C" 
			},
			{
				"x": -2.1054098323,
				"y": -0.0479458577,
				"z": -1.6912626899,
				"element": "C" 
			},
			{
				"x": 2.9505445746,
				"y": 1.3092619878,
				"z": 5.7845813763,
				"element": "H" 
			},
			{
				"x": 1.4562865554,
				"y": 0.3727769207,
				"z": 5.9172701831,
				"element": "H" 
			},
			{
				"x": 1.6874468561,
				"y": 1.4798061396,
				"z": 4.5590997034,
				"element": "H" 
			},
			{
				"x": 3.5923825268,
				"y": 0.0418049916,
				"z": 3.7199968236,
				"element": "H" 
			},
			{
				"x": 3.366233859,
				"y": -1.0545472655,
				"z": 5.070362887,
				"element": "H" 
			},
			{
				"x": 1.059043726,
				"y": -1.6035420608,
				"z": 4.2532272253,
				"element": "H" 
			},
			{
				"x": 1.2699810997,
				"y": -0.4832065914,
				"z": 2.9174944768,
				"element": "H" 
			},
			{
				"x": 3.1343502624,
				"y": -1.8537943507,
				"z": 2.0067178467,
				"element": "H" 
			},
			{
				"x": 3.0967266881,
				"y": -2.8897082875,
				"z": 3.419013492,
				"element": "H" 
			},
			{
				"x": 2.1125442797,
				"y": -4.083008573,
				"z": 1.6255192957,
				"element": "H" 
			},
			{
				"x": 0.836705149,
				"y": -3.7424159376,
				"z": 2.7741004645,
				"element": "H" 
			},
			{
				"x": 0.417439764,
				"y": -3.5026424871,
				"z": 0.1804754412,
				"element": "H" 
			},
			{
				"x": 1.2463559898,
				"y": -1.9639734414,
				"z": 0.3171113883,
				"element": "H" 
			},
			{
				"x": -1.2761496249,
				"y": -2.810495776,
				"z": 1.8616186015,
				"element": "H" 
			},
			{
				"x": -0.5375240136,
				"y": -1.2091169612,
				"z": 1.9723327981,
				"element": "H" 
			},
			{
				"x": 0.2099713075,
				"y": 0.4158504299,
				"z": 0.7552858542,
				"element": "H" 
			},
			{
				"x": 0.4739948619,
				"y": 2.5409561325,
				"z": -0.4377438534,
				"element": "H" 
			},
			{
				"x": -0.4652679389,
				"y": 4.0904002113,
				"z": -1.9368326671,
				"element": "H" 
			},
			{
				"x": -0.9214241468,
				"y": 1.8387615095,
				"z": -4.7782000479,
				"element": "H" 
			},
			{
				"x": -0.9873002335,
				"y": 3.2511583608,
				"z": -5.8751199479,
				"element": "H" 
			},
			{
				"x": -2.4314299907,
				"y": 2.7409260934,
				"z": -4.9932788153,
				"element": "H" 
			},
			{
				"x": -2.6298497683,
				"y": 1.3846507006,
				"z": -3.1910336453,
				"element": "H" 
			},
			{
				"x": -2.8313781324,
				"y": -0.7837210466,
				"z": -2.0209245774,
				"element": "H" 
			}
		],
		 "valence_orbital": [ 
			{
				"type": "occ",
				"energy": -0.3065,
				"method": "rhf"
			},
			{
				"type": "occ",
				"energy": -0.27044,
				"method": "rhf"
			},
			{
				"type": "occ",
				"energy": -0.26256,
				"method": "rhf"
			},
			{
				"type": "occ",
				"energy": -0.24423,
				"method": "rhf"
			},
			{
				"type": "occ",
				"energy": -0.23361,
				"method": "rhf"
			},
			{
				"type": "unocc",
				"energy": -0.05958,
				"method": "rhf"
			},
			{
				"type": "unocc",
				"energy": -0.02024,
				"method": "rhf"
			},
			{
				"type": "unocc",
				"energy": 0.00804,
				"method": "rhf"
			},
			{
				"type": "unocc",
				"energy": 0.04639,
				"method": "rhf"
			},
			{
				"type": "unocc",
				"energy": 0.05861,
				"method": "rhf"
			}
		],
		"cosmo_sigma_profile": { 
			"-0.025": 0.0,
			"-0.024": 0.0,
			"-0.023": 0.0,
			"-0.022": 0.0,
			"-0.021": 0.0,
			"-0.02": 0.0,
			"-0.019": 0.0,
			"-0.018": 0.0,
			"-0.017": 0.0,
			"-0.016": 0.0,
			"-0.015": 0.156090964205,
			"-0.014": 1.00672118452,
			"-0.013": 1.23053120401,
			"-0.012": 1.09907155308,
			"-0.011": 1.33983319626,
			"-0.01": 0.829436028955,
			"-0.009": 1.84319536938,
			"-0.008": 3.73934898672,
			"-0.007": 6.51902221062,
			"-0.006": 8.12271758523,
			"-0.005": 15.7488014997,
			"-0.004": 16.4868143922,
			"-0.003": 23.7025043242,
			"-0.002": 44.8644679924,
			"-0.001": 54.2307914131,
			"0.0": 45.7675664606,
			"0.001": 33.6943380435,
			"0.002": 24.1332580945,
			"0.003": 14.8487431132,
			"0.004": 8.69744390409,
			"0.005": 2.64769158386,
			"0.006": 3.14467982124,
			"0.007": 2.72568978487,
			"0.008": 2.45526636484,
			"0.009": 2.73503297877,
			"0.01": 3.42069980072,
			"0.011": 3.99636826525,
			"0.012": 7.08630615693,
			"0.013": 7.94895562065,
			"0.014": 2.88189743376,
			"0.015": 0.0984347396536,
			"0.016": 0.0,
			"0.017": 0.0,
			"0.018": 0.0,
			"0.019": 0.0,
			"0.02": 0.0,
			"0.021": 0.0,
			"0.022": 0.0,
			"0.023": 0.0,
			"0.024": 0.0,
			"0.025": 0.0
		}
	}
}
