{
	 "smiles": "O=C(C=CC1=CC=C(OCC2CO2)C=C1)C1=CC=CC=C1", 
	 "Tm": 365.15, 
	 "num_atms": 37, 
	 "gaussian": { 
		 "optdone": 1, 
		 "sigma_profile": "yes", 
		 "theory": "DFT", 
		 "functional": "B3LYP", 
		 "basiset": "6-31G**", 
		 "properties": { 
			 "R2extent": 11366.3543, 
			 "electric_dipole_moment_norm": 5.88116097552, 
			 "electric_quadrupole_moment_norm": 24.879649135, 
			 "total_energy": -921.156708319, 
			 "HOMO_LUMO_gap": 0.15058, 
			 "cosmo_polarized_energy": -15.89, 
			 "cosmo_cavitation_energy": 41.8, 
			 "cosmo_dispersion_energy": -29.77, 
			 "cosmo_repulsion_energy": 2.27, 
			 "cosmo_total_nonelectrostatic_energy": 14.31, 
			 "SMD_solvation_energy": 7.83 
		},
		"coords": [
			{
				"x": 0.4106773437,
				"y": 4.5707749011,
				"z": 1.8186813043,
				"element": "O" 
			},
			{
				"x": 0.8533787492,
				"y": 3.4295558282,
				"z": 1.9358104556,
				"element": "C" 
			},
			{
				"x": 0.3548764488,
				"y": 2.3699475278,
				"z": 1.0316005587,
				"element": "C" 
			},
			{
				"x": 0.3343811921,
				"y": 1.0468464871,
				"z": 1.3016384902,
				"element": "C" 
			},
			{
				"x": -0.2500610203,
				"y": -0.0171905012,
				"z": 0.4866408465,
				"element": "C" 
			},
			{
				"x": -0.1942475246,
				"y": -1.3440309418,
				"z": 0.9570296751,
				"element": "C" 
			},
			{
				"x": -0.7179253902,
				"y": -2.3981932234,
				"z": 0.2211894963,
				"element": "C" 
			},
			{
				"x": -1.3263919812,
				"y": -2.1500014382,
				"z": -1.0154540554,
				"element": "C" 
			},
			{
				"x": -1.8265861711,
				"y": -3.2482942364,
				"z": -1.6646652519,
				"element": "O" 
			},
			{
				"x": -1.9266972409,
				"y": -3.2541097788,
				"z": -3.0861964037,
				"element": "C" 
			},
			{
				"x": -3.3219431451,
				"y": -2.9771980916,
				"z": -3.6067475296,
				"element": "C" 
			},
			{
				"x": -4.5080593032,
				"y": -2.9926548321,
				"z": -2.7420972449,
				"element": "C" 
			},
			{
				"x": -3.949382719,
				"y": -1.7546273622,
				"z": -3.2166917901,
				"element": "O" 
			},
			{
				"x": -1.4147079295,
				"y": -0.8365757821,
				"z": -1.4991197689,
				"element": "C" 
			},
			{
				"x": -0.8761790396,
				"y": 0.2064258151,
				"z": -0.7541316007,
				"element": "C" 
			},
			{
				"x": 1.8727076924,
				"y": 3.1339289073,
				"z": 3.0013558659,
				"element": "C" 
			},
			{
				"x": 1.8407503419,
				"y": 3.9138746534,
				"z": 4.1681270784,
				"element": "C" 
			},
			{
				"x": 2.7819707026,
				"y": 3.7192872226,
				"z": 5.1749050475,
				"element": "C" 
			},
			{
				"x": 3.7870833038,
				"y": 2.7598098964,
				"z": 5.01749602,
				"element": "C" 
			},
			{
				"x": 3.8456280385,
				"y": 1.9994353101,
				"z": 3.8487507701,
				"element": "C" 
			},
			{
				"x": 2.8909706868,
				"y": 2.1809062248,
				"z": 2.8464491838,
				"element": "C" 
			},
			{
				"x": -0.1326235077,
				"y": 2.7707324092,
				"z": 0.1463583375,
				"element": "H" 
			},
			{
				"x": 0.77908362,
				"y": 0.7091757708,
				"z": 2.2356051021,
				"element": "H" 
			},
			{
				"x": 0.2792324571,
				"y": -1.5473843935,
				"z": 1.9142030315,
				"element": "H" 
			},
			{
				"x": -0.6617515944,
				"y": -3.420641818,
				"z": 0.5797038122,
				"element": "H" 
			},
			{
				"x": -1.2118213492,
				"y": -2.5476006638,
				"z": -3.5261914229,
				"element": "H" 
			},
			{
				"x": -1.6380065521,
				"y": -4.2635607768,
				"z": -3.4036763873,
				"element": "H" 
			},
			{
				"x": -3.4427253725,
				"y": -3.2307610845,
				"z": -4.6635196117,
				"element": "H" 
			},
			{
				"x": -5.4777896202,
				"y": -3.2554400347,
				"z": -3.1632162831,
				"element": "H" 
			},
			{
				"x": -4.3820888824,
				"y": -3.1776688977,
				"z": -1.6778817515,
				"element": "H" 
			},
			{
				"x": -1.9465003825,
				"y": -0.6297305589,
				"z": -2.4193582288,
				"element": "H" 
			},
			{
				"x": -0.9613015721,
				"y": 1.2165813473,
				"z": -1.1419789545,
				"element": "H" 
			},
			{
				"x": 1.0682518132,
				"y": 4.6701434832,
				"z": 4.2606881345,
				"element": "H" 
			},
			{
				"x": 2.7394047463,
				"y": 4.3186669162,
				"z": 6.0798784664,
				"element": "H" 
			},
			{
				"x": 4.5264251375,
				"y": 2.6125551793,
				"z": 5.7997956431,
				"element": "H" 
			},
			{
				"x": 4.637702487,
				"y": 1.2684263938,
				"z": 3.7134140481,
				"element": "H" 
			},
			{
				"x": 2.9548655368,
				"y": 1.6036901419,
				"z": 1.9301049169,
				"element": "H" 
			}
		],
		 "valence_orbital": [ 
			{
				"type": "occ",
				"energy": -0.26017,
				"method": "rhf"
			},
			{
				"type": "occ",
				"energy": -0.25387,
				"method": "rhf"
			},
			{
				"type": "occ",
				"energy": -0.25334,
				"method": "rhf"
			},
			{
				"type": "occ",
				"energy": -0.23582,
				"method": "rhf"
			},
			{
				"type": "occ",
				"energy": -0.21577,
				"method": "rhf"
			},
			{
				"type": "unocc",
				"energy": -0.06519,
				"method": "rhf"
			},
			{
				"type": "unocc",
				"energy": -0.02077,
				"method": "rhf"
			},
			{
				"type": "unocc",
				"energy": -0.00884,
				"method": "rhf"
			},
			{
				"type": "unocc",
				"energy": -0.00325,
				"method": "rhf"
			},
			{
				"type": "unocc",
				"energy": 0.03485,
				"method": "rhf"
			}
		],
		"cosmo_sigma_profile": { 
			"-0.025": 0.0,
			"-0.024": 0.0,
			"-0.023": 0.0,
			"-0.022": 0.0,
			"-0.021": 0.0,
			"-0.02": 0.0,
			"-0.019": 0.0,
			"-0.018": 0.0,
			"-0.017": 0.0,
			"-0.016": 0.0,
			"-0.015": 0.0,
			"-0.014": 0.0,
			"-0.013": 0.0,
			"-0.012": 0.0,
			"-0.011": 0.0,
			"-0.01": 0.0,
			"-0.009": 0.0367306079368,
			"-0.008": 1.26611649817,
			"-0.007": 12.4365222871,
			"-0.006": 27.5461871948,
			"-0.005": 30.6371099506,
			"-0.004": 28.8596000834,
			"-0.003": 23.2566785436,
			"-0.002": 21.8586145799,
			"-0.001": 23.2534945393,
			"0.0": 18.9774302995,
			"0.001": 19.1501895906,
			"0.002": 23.9655062304,
			"0.003": 27.2976940159,
			"0.004": 28.7077197742,
			"0.005": 11.5279545612,
			"0.006": 4.79408771184,
			"0.007": 4.68647101184,
			"0.008": 3.42125006653,
			"0.009": 4.58587253071,
			"0.01": 4.0332684155,
			"0.011": 3.91982280748,
			"0.012": 4.63959014352,
			"0.013": 4.49655264273,
			"0.014": 1.22018783031,
			"0.015": 0.0,
			"0.016": 0.0,
			"0.017": 0.0,
			"0.018": 0.0,
			"0.019": 0.0,
			"0.02": 0.0,
			"0.021": 0.0,
			"0.022": 0.0,
			"0.023": 0.0,
			"0.024": 0.0,
			"0.025": 0.0
		}
	}
}
