{
	 "smiles": "OC(CN1NC=NC1=S)(CC1=CC=CC=C1Cl)C1(Cl)CC1", 
	 "Tm": 415.15, 
	 "num_atms": 36, 
	 "gaussian": { 
		 "optdone": 1, 
		 "sigma_profile": "yes", 
		 "theory": "DFT", 
		 "functional": "B3LYP", 
		 "basiset": "6-31G**", 
		 "properties": { 
			 "R2extent": 7018.4501, 
			 "electric_dipole_moment_norm": 8.13836832479, 
			 "electric_quadrupole_moment_norm": 23.2531044953, 
			 "total_energy": -2100.48970692, 
			 "HOMO_LUMO_gap": 0.15365, 
			 "cosmo_polarized_energy": -34.16, 
			 "cosmo_cavitation_energy": 40.93, 
			 "cosmo_dispersion_energy": -28.37, 
			 "cosmo_repulsion_energy": 2.07, 
			 "cosmo_total_nonelectrostatic_energy": 14.63, 
			 "SMD_solvation_energy": 3.91 
		},
		"coords": [
			{
				"x": -1.4923603108,
				"y": 2.7021944499,
				"z": -0.1407823836,
				"element": "O" 
			},
			{
				"x": -0.7692002556,
				"y": 1.4694344693,
				"z": -0.1767190417,
				"element": "C" 
			},
			{
				"x": -2.0018979657,
				"y": 0.5083602381,
				"z": -0.2117490656,
				"element": "C" 
			},
			{
				"x": -1.8471531733,
				"y": -0.9203859395,
				"z": -0.0247216723,
				"element": "N" 
			},
			{
				"x": -1.6341904674,
				"y": -1.791300026,
				"z": -1.0909085269,
				"element": "N" 
			},
			{
				"x": -1.8954515291,
				"y": -3.0314015354,
				"z": -0.5844986406,
				"element": "C" 
			},
			{
				"x": -2.1621808514,
				"y": -3.0267129106,
				"z": 0.6869094936,
				"element": "N" 
			},
			{
				"x": -2.1911824388,
				"y": -1.6880560388,
				"z": 1.0845001968,
				"element": "C" 
			},
			{
				"x": -2.5585638624,
				"y": -1.0957429251,
				"z": 2.5941148138,
				"element": "S" 
			},
			{
				"x": 0.0505711992,
				"y": 1.3381416563,
				"z": 1.1610928173,
				"element": "C" 
			},
			{
				"x": 1.3640040712,
				"y": 0.5793576168,
				"z": 1.1887163702,
				"element": "C" 
			},
			{
				"x": 1.401659974,
				"y": -0.814120169,
				"z": 1.0060796605,
				"element": "C" 
			},
			{
				"x": 2.5852994434,
				"y": -1.544680694,
				"z": 1.0622473056,
				"element": "C" 
			},
			{
				"x": 3.7909029266,
				"y": -0.8924521547,
				"z": 1.3215243688,
				"element": "C" 
			},
			{
				"x": 3.7923043405,
				"y": 0.4820784305,
				"z": 1.5396098956,
				"element": "C" 
			},
			{
				"x": 2.5937243019,
				"y": 1.1974567059,
				"z": 1.4796402052,
				"element": "C" 
			},
			{
				"x": 2.6963860269,
				"y": 2.923825433,
				"z": 1.8401300848,
				"element": "Cl" 
			},
			{
				"x": 0.1040368314,
				"y": 1.4607112732,
				"z": -1.4502617276,
				"element": "C" 
			},
			{
				"x": 1.1965852008,
				"y": 2.9092623146,
				"z": -1.4720327101,
				"element": "Cl" 
			},
			{
				"x": -0.3944616354,
				"y": 1.0660600848,
				"z": -2.8144305668,
				"element": "C" 
			},
			{
				"x": 0.676570995,
				"y": 0.2482548799,
				"z": -2.1208980434,
				"element": "C" 
			},
			{
				"x": -0.851291784,
				"y": 3.4214233234,
				"z": -0.2390135505,
				"element": "H" 
			},
			{
				"x": -2.5715697546,
				"y": 0.6943491874,
				"z": -1.1272950063,
				"element": "H" 
			},
			{
				"x": -2.6224164089,
				"y": 0.8300345486,
				"z": 0.6281639786,
				"element": "H" 
			},
			{
				"x": -1.8798792408,
				"y": -1.4810003896,
				"z": -2.0242170707,
				"element": "H" 
			},
			{
				"x": -1.8295352623,
				"y": -3.9114664565,
				"z": -1.2130590099,
				"element": "H" 
			},
			{
				"x": 0.2359891865,
				"y": 2.3615516244,
				"z": 1.486642486,
				"element": "H" 
			},
			{
				"x": -0.6238076552,
				"y": 0.9005004314,
				"z": 1.9059692742,
				"element": "H" 
			},
			{
				"x": 0.4680481601,
				"y": -1.3348988935,
				"z": 0.8317537987,
				"element": "H" 
			},
			{
				"x": 2.5624661986,
				"y": -2.6207401393,
				"z": 0.9184735324,
				"element": "H" 
			},
			{
				"x": 4.7228377733,
				"y": -1.4474645418,
				"z": 1.371128676,
				"element": "H" 
			},
			{
				"x": 4.7130392779,
				"y": 1.0081617735,
				"z": 1.7656869243,
				"element": "H" 
			},
			{
				"x": -1.4039665472,
				"y": 0.6740464894,
				"z": -2.9034898406,
				"element": "H" 
			},
			{
				"x": -0.0992037665,
				"y": 1.6878778244,
				"z": -3.6520923178,
				"element": "H" 
			},
			{
				"x": 0.4281273227,
				"y": -0.724122995,
				"z": -1.7135683813,
				"element": "H" 
			},
			{
				"x": 1.6914596793,
				"y": 0.324363054,
				"z": -2.4952463267,
				"element": "H" 
			}
		],
		 "valence_orbital": [ 
			{
				"type": "occ",
				"energy": -0.2895,
				"method": "rhf"
			},
			{
				"type": "occ",
				"energy": -0.25241,
				"method": "rhf"
			},
			{
				"type": "occ",
				"energy": -0.24254,
				"method": "rhf"
			},
			{
				"type": "occ",
				"energy": -0.21594,
				"method": "rhf"
			},
			{
				"type": "occ",
				"energy": -0.21108,
				"method": "rhf"
			},
			{
				"type": "unocc",
				"energy": -0.05743,
				"method": "rhf"
			},
			{
				"type": "unocc",
				"energy": -0.01594,
				"method": "rhf"
			},
			{
				"type": "unocc",
				"energy": -0.01042,
				"method": "rhf"
			},
			{
				"type": "unocc",
				"energy": -0.00295,
				"method": "rhf"
			},
			{
				"type": "unocc",
				"energy": 0.01935,
				"method": "rhf"
			}
		],
		"cosmo_sigma_profile": { 
			"-0.025": 0.0,
			"-0.024": 0.0,
			"-0.023": 0.0,
			"-0.022": 0.0338952147654,
			"-0.021": 0.121548808376,
			"-0.02": 0.450992563606,
			"-0.019": 1.76769207868,
			"-0.018": 2.25508876693,
			"-0.017": 1.40012993966,
			"-0.016": 1.56679499607,
			"-0.015": 1.42324795156,
			"-0.014": 1.52524388156,
			"-0.013": 2.32045220842,
			"-0.012": 5.07354632199,
			"-0.011": 4.64415860498,
			"-0.01": 3.43064037355,
			"-0.009": 3.60566544973,
			"-0.008": 4.092439911,
			"-0.007": 7.69871415546,
			"-0.006": 14.5164130526,
			"-0.005": 17.6677465429,
			"-0.004": 19.2520955669,
			"-0.003": 16.8977227284,
			"-0.002": 17.8149624448,
			"-0.001": 18.5823822232,
			"0.0": 19.5677156611,
			"0.001": 20.1604537522,
			"0.002": 23.3914120404,
			"0.003": 23.9863638957,
			"0.004": 27.3576955783,
			"0.005": 20.8510085995,
			"0.006": 7.371058107,
			"0.007": 6.72511188368,
			"0.008": 5.86768789485,
			"0.009": 7.2515373544,
			"0.01": 6.73090704522,
			"0.011": 5.85057979145,
			"0.012": 4.9107421215,
			"0.013": 3.44701310782,
			"0.014": 1.52680147347,
			"0.015": 1.18009187209,
			"0.016": 0.336348661014,
			"0.017": 0.0,
			"0.018": 0.0,
			"0.019": 0.0,
			"0.02": 0.0,
			"0.021": 0.0,
			"0.022": 0.0,
			"0.023": 0.0,
			"0.024": 0.0,
			"0.025": 0.0
		}
	}
}
