{
	 "smiles": "CCC1NC2=C(NC1=O)C=C(C=C2)C(O)=O", 
	 "Tm": 524.15, 
	 "num_atms": 28, 
	 "gaussian": { 
		 "optdone": 1, 
		 "sigma_profile": "yes", 
		 "theory": "DFT", 
		 "functional": "B3LYP", 
		 "basiset": "6-31G**", 
		 "properties": { 
			 "R2extent": 4458.3444, 
			 "electric_dipole_moment_norm": 4.98673500499, 
			 "electric_quadrupole_moment_norm": 28.5442633604, 
			 "total_energy": -761.614422769, 
			 "HOMO_LUMO_gap": 0.16969, 
			 "cosmo_polarized_energy": -25.1, 
			 "cosmo_cavitation_energy": 31.59, 
			 "cosmo_dispersion_energy": -22.79, 
			 "cosmo_repulsion_energy": 1.77, 
			 "cosmo_total_nonelectrostatic_energy": 10.57, 
			 "SMD_solvation_energy": 6.16 
		},
		"coords": [
			{
				"x": 1.95251162,
				"y": 1.5404515983,
				"z": 3.2469449966,
				"element": "C" 
			},
			{
				"x": 1.30580935,
				"y": 0.2783325542,
				"z": 3.8227814088,
				"element": "C" 
			},
			{
				"x": 0.5240512754,
				"y": -0.5743749554,
				"z": 2.7937754983,
				"element": "C" 
			},
			{
				"x": -0.6179712711,
				"y": 0.1199324306,
				"z": 2.2046206012,
				"element": "N" 
			},
			{
				"x": -0.651183948,
				"y": 0.6332212591,
				"z": 0.9306393407,
				"element": "C" 
			},
			{
				"x": 0.3323907751,
				"y": 0.2226278244,
				"z": 0.0022553894,
				"element": "C" 
			},
			{
				"x": 1.3036254069,
				"y": -0.6928118345,
				"z": 0.4436345238,
				"element": "N" 
			},
			{
				"x": 1.4797116489,
				"y": -1.12660481,
				"z": 1.7320591106,
				"element": "C" 
			},
			{
				"x": 2.3708844138,
				"y": -1.9032156152,
				"z": 2.0387253456,
				"element": "O" 
			},
			{
				"x": 0.3122463259,
				"y": 0.6972294037,
				"z": -1.3026465284,
				"element": "C" 
			},
			{
				"x": -0.6906890477,
				"y": 1.5849530421,
				"z": -1.7297843966,
				"element": "C" 
			},
			{
				"x": -1.6815673704,
				"y": 1.9693339929,
				"z": -0.8165660993,
				"element": "C" 
			},
			{
				"x": -1.6562137958,
				"y": 1.5125573429,
				"z": 0.4940522591,
				"element": "C" 
			},
			{
				"x": -0.775899353,
				"y": 2.1143876506,
				"z": -3.1197734689,
				"element": "C" 
			},
			{
				"x": 0.3613348792,
				"y": 2.0516201137,
				"z": -3.8733885998,
				"element": "O" 
			},
			{
				"x": -1.7824452837,
				"y": 2.5861134626,
				"z": -3.5977681554,
				"element": "O" 
			},
			{
				"x": 1.2104546017,
				"y": 2.1994824971,
				"z": 2.7851840501,
				"element": "H" 
			},
			{
				"x": 2.7041823762,
				"y": 1.2942918857,
				"z": 2.4895995806,
				"element": "H" 
			},
			{
				"x": 2.4556192657,
				"y": 2.1076510943,
				"z": 4.0356351707,
				"element": "H" 
			},
			{
				"x": 0.6103959968,
				"y": 0.54698241,
				"z": 4.6290346839,
				"element": "H" 
			},
			{
				"x": 2.0661850379,
				"y": -0.3726569222,
				"z": 4.2662710613,
				"element": "H" 
			},
			{
				"x": 0.1545474652,
				"y": -1.4636182351,
				"z": 3.3207692488,
				"element": "H" 
			},
			{
				"x": -1.307679983,
				"y": 0.4700082614,
				"z": 2.8536971824,
				"element": "H" 
			},
			{
				"x": 1.967658034,
				"y": -1.0702273827,
				"z": -0.2210809922,
				"element": "H" 
			},
			{
				"x": 1.0624062355,
				"y": 0.3231708902,
				"z": -1.9964453343,
				"element": "H" 
			},
			{
				"x": -2.4644327336,
				"y": 2.6380089817,
				"z": -1.1563456949,
				"element": "H" 
			},
			{
				"x": -2.4236514721,
				"y": 1.8262897118,
				"z": 1.1967926447,
				"element": "H" 
			},
			{
				"x": 1.1203195502,
				"y": 1.8530633479,
				"z": -3.3085728271,
				"element": "H" 
			}
		],
		 "valence_orbital": [ 
			{
				"type": "occ",
				"energy": -0.3044,
				"method": "rhf"
			},
			{
				"type": "occ",
				"energy": -0.27334,
				"method": "rhf"
			},
			{
				"type": "occ",
				"energy": -0.26581,
				"method": "rhf"
			},
			{
				"type": "occ",
				"energy": -0.25105,
				"method": "rhf"
			},
			{
				"type": "occ",
				"energy": -0.20927,
				"method": "rhf"
			},
			{
				"type": "unocc",
				"energy": -0.03958,
				"method": "rhf"
			},
			{
				"type": "unocc",
				"energy": -0.02653,
				"method": "rhf"
			},
			{
				"type": "unocc",
				"energy": 0.01225,
				"method": "rhf"
			},
			{
				"type": "unocc",
				"energy": 0.05491,
				"method": "rhf"
			},
			{
				"type": "unocc",
				"energy": 0.05997,
				"method": "rhf"
			}
		],
		"cosmo_sigma_profile": { 
			"-0.025": 0.0,
			"-0.024": 0.0,
			"-0.023": 0.0,
			"-0.022": 0.0,
			"-0.021": 0.0,
			"-0.02": 0.0,
			"-0.019": 0.0,
			"-0.018": 0.558867732739,
			"-0.017": 0.839579498299,
			"-0.016": 1.15880921638,
			"-0.015": 2.49018932111,
			"-0.014": 3.64551074485,
			"-0.013": 3.49944178115,
			"-0.012": 3.67560002833,
			"-0.011": 4.36857275475,
			"-0.01": 4.21541243368,
			"-0.009": 3.7428375933,
			"-0.008": 3.53430178216,
			"-0.007": 5.61997730998,
			"-0.006": 8.0523205275,
			"-0.005": 9.09661356399,
			"-0.004": 11.1259432679,
			"-0.003": 14.9402055591,
			"-0.002": 19.8761359255,
			"-0.001": 22.3677843778,
			"0.0": 21.5246687321,
			"0.001": 16.5290446939,
			"0.002": 10.8924215373,
			"0.003": 12.0792113508,
			"0.004": 11.5659591757,
			"0.005": 7.41317933728,
			"0.006": 3.42090540325,
			"0.007": 4.50429626013,
			"0.008": 3.14344450625,
			"0.009": 3.30538995267,
			"0.01": 5.28215173529,
			"0.011": 6.63120583539,
			"0.012": 9.20341700492,
			"0.013": 9.24612406651,
			"0.014": 2.22481652901,
			"0.015": 0.0,
			"0.016": 0.0,
			"0.017": 0.0,
			"0.018": 0.0,
			"0.019": 0.0,
			"0.02": 0.0,
			"0.021": 0.0,
			"0.022": 0.0,
			"0.023": 0.0,
			"0.024": 0.0,
			"0.025": 0.0
		}
	}
}
