{
	 "smiles": "CC1=C(CC(O)=O)C(C)=NN1", 
	 "Tm": 426.15, 
	 "num_atms": 21, 
	 "gaussian": { 
		 "optdone": 1, 
		 "sigma_profile": "yes", 
		 "theory": "DFT", 
		 "functional": "B3LYP", 
		 "basiset": "6-31G**", 
		 "properties": { 
			 "R2extent": 3019.6735, 
			 "electric_dipole_moment_norm": 5.27900536844, 
			 "electric_quadrupole_moment_norm": 20.2921030034, 
			 "total_energy": -532.722438288, 
			 "HOMO_LUMO_gap": 0.24076, 
			 "cosmo_polarized_energy": -22.46, 
			 "cosmo_cavitation_energy": 25.09, 
			 "cosmo_dispersion_energy": -17.9, 
			 "cosmo_repulsion_energy": 1.48, 
			 "cosmo_total_nonelectrostatic_energy": 8.67, 
			 "SMD_solvation_energy": 4.62 
		},
		"coords": [
			{
				"x": -1.033300712,
				"y": 1.5770741884,
				"z": 1.298505798,
				"element": "C" 
			},
			{
				"x": 0.0341985528,
				"y": 1.5356362401,
				"z": 0.2511326668,
				"element": "C" 
			},
			{
				"x": 1.2326949703,
				"y": 0.8418876835,
				"z": 0.16759406,
				"element": "C" 
			},
			{
				"x": 1.7877152551,
				"y": -0.1378640565,
				"z": 1.1505182998,
				"element": "C" 
			},
			{
				"x": 2.9982689088,
				"y": 0.36498602,
				"z": 1.9480237826,
				"element": "C" 
			},
			{
				"x": 3.4386570531,
				"y": -0.4994266778,
				"z": 2.906102128,
				"element": "O" 
			},
			{
				"x": 3.5661579485,
				"y": 1.4111081444,
				"z": 1.7744816021,
				"element": "O" 
			},
			{
				"x": 1.8212692012,
				"y": 1.261981081,
				"z": -1.0599727792,
				"element": "C" 
			},
			{
				"x": 3.1362324093,
				"y": 0.8433855161,
				"z": -1.6404560856,
				"element": "C" 
			},
			{
				"x": 1.0469213377,
				"y": 2.1412056254,
				"z": -1.6910426341,
				"element": "N" 
			},
			{
				"x": -0.0260055805,
				"y": 2.2909779846,
				"z": -0.8786100881,
				"element": "N" 
			},
			{
				"x": -0.881164903,
				"y": 2.4025077966,
				"z": 2.0043555344,
				"element": "H" 
			},
			{
				"x": -1.0482028204,
				"y": 0.6495846404,
				"z": 1.8774783999,
				"element": "H" 
			},
			{
				"x": -2.0263001129,
				"y": 1.6992087828,
				"z": 0.8526915775,
				"element": "H" 
			},
			{
				"x": 1.0153553225,
				"y": -0.4468923118,
				"z": 1.867604312,
				"element": "H" 
			},
			{
				"x": 2.1079553897,
				"y": -1.0607847621,
				"z": 0.6430918126,
				"element": "H" 
			},
			{
				"x": 2.884839071,
				"y": -1.2929510393,
				"z": 2.9222466615,
				"element": "H" 
			},
			{
				"x": 3.9598352055,
				"y": 1.1284881942,
				"z": -0.977693331,
				"element": "H" 
			},
			{
				"x": 3.1880050088,
				"y": -0.2428582912,
				"z": -1.7862958294,
				"element": "H" 
			},
			{
				"x": 3.2823144619,
				"y": 1.324567321,
				"z": -2.6098157961,
				"element": "H" 
			},
			{
				"x": -0.7629459674,
				"y": 2.9208779202,
				"z": -1.1543400918,
				"element": "H" 
			}
		],
		 "valence_orbital": [ 
			{
				"type": "occ",
				"energy": -0.31547,
				"method": "rhf"
			},
			{
				"type": "occ",
				"energy": -0.27688,
				"method": "rhf"
			},
			{
				"type": "occ",
				"energy": -0.27239,
				"method": "rhf"
			},
			{
				"type": "occ",
				"energy": -0.23674,
				"method": "rhf"
			},
			{
				"type": "occ",
				"energy": -0.23052,
				"method": "rhf"
			},
			{
				"type": "unocc",
				"energy": 0.01024,
				"method": "rhf"
			},
			{
				"type": "unocc",
				"energy": 0.02631,
				"method": "rhf"
			},
			{
				"type": "unocc",
				"energy": 0.04836,
				"method": "rhf"
			},
			{
				"type": "unocc",
				"energy": 0.07019,
				"method": "rhf"
			},
			{
				"type": "unocc",
				"energy": 0.0765,
				"method": "rhf"
			}
		],
		"cosmo_sigma_profile": { 
			"-0.025": 0.0,
			"-0.024": 0.0,
			"-0.023": 0.0,
			"-0.022": 0.0,
			"-0.021": 0.0,
			"-0.02": 0.0,
			"-0.019": 0.575715216991,
			"-0.018": 0.924563440438,
			"-0.017": 1.307471314,
			"-0.016": 1.67156820212,
			"-0.015": 2.13639610054,
			"-0.014": 2.38405051498,
			"-0.013": 1.90458886744,
			"-0.012": 2.28509440494,
			"-0.011": 2.86339152803,
			"-0.01": 2.55911139232,
			"-0.009": 2.31073479827,
			"-0.008": 3.81746667721,
			"-0.007": 6.0774405076,
			"-0.006": 6.79270168447,
			"-0.005": 10.6706283314,
			"-0.004": 12.516264683,
			"-0.003": 14.2337311029,
			"-0.002": 14.3853288577,
			"-0.001": 15.2640296771,
			"0.0": 12.9570017344,
			"0.001": 8.52021991793,
			"0.002": 5.45931952292,
			"0.003": 4.94424048711,
			"0.004": 6.20603748498,
			"0.005": 6.81667526053,
			"0.006": 5.88113820384,
			"0.007": 4.62655126853,
			"0.008": 5.33756941464,
			"0.009": 4.81373360262,
			"0.01": 5.87541668595,
			"0.011": 7.96475392666,
			"0.012": 6.2957678835,
			"0.013": 3.14523570359,
			"0.014": 1.27100610904,
			"0.015": 1.17531701321,
			"0.016": 0.940313698084,
			"0.017": 0.653853888865,
			"0.018": 0.0171347220718,
			"0.019": 0.0,
			"0.02": 0.0,
			"0.021": 0.0,
			"0.022": 0.0,
			"0.023": 0.0,
			"0.024": 0.0,
			"0.025": 0.0
		}
	}
}
