{
	 "smiles": "C(C1=CC=CC=C1)C1=CC=CN=C1", 
	 "Tm": 307.15, 
	 "num_atms": 24, 
	 "gaussian": { 
		 "optdone": 1, 
		 "sigma_profile": "yes", 
		 "theory": "DFT", 
		 "functional": "B3LYP", 
		 "basiset": "6-31G**", 
		 "properties": { 
			 "R2extent": 3016.8108, 
			 "electric_dipole_moment_norm": 2.24156649466, 
			 "electric_quadrupole_moment_norm": 10.4720836126, 
			 "total_energy": -518.657112906, 
			 "HOMO_LUMO_gap": 0.21592, 
			 "cosmo_polarized_energy": -8.27, 
			 "cosmo_cavitation_energy": 27.91, 
			 "cosmo_dispersion_energy": -19.97, 
			 "cosmo_repulsion_energy": 1.58, 
			 "cosmo_total_nonelectrostatic_energy": 9.53, 
			 "SMD_solvation_energy": 3.12 
		},
		"coords": [
			{
				"x": 0.6168967356,
				"y": 0.4850670855,
				"z": -0.5837192542,
				"element": "C" 
			},
			{
				"x": 1.4245774831,
				"y": -0.7756151733,
				"z": -0.3157647244,
				"element": "C" 
			},
			{
				"x": 2.3161948407,
				"y": -1.2726103796,
				"z": -1.273153013,
				"element": "C" 
			},
			{
				"x": 3.0744555737,
				"y": -2.4186448662,
				"z": -1.0206977611,
				"element": "C" 
			},
			{
				"x": 2.9493586722,
				"y": -3.0851693767,
				"z": 0.1977698537,
				"element": "C" 
			},
			{
				"x": 2.0609954327,
				"y": -2.5991414637,
				"z": 1.160959126,
				"element": "C" 
			},
			{
				"x": 1.3054949217,
				"y": -1.4561647956,
				"z": 0.9048726339,
				"element": "C" 
			},
			{
				"x": -0.8854303915,
				"y": 0.3125838718,
				"z": -0.4495381686,
				"element": "C" 
			},
			{
				"x": -1.6456188972,
				"y": 1.0870673535,
				"z": 0.4299827751,
				"element": "C" 
			},
			{
				"x": -3.0260968233,
				"y": 0.8953342131,
				"z": 0.4975513363,
				"element": "C" 
			},
			{
				"x": -3.6031253253,
				"y": -0.0703464905,
				"z": -0.3249591499,
				"element": "C" 
			},
			{
				"x": -2.8979703548,
				"y": -0.8277771202,
				"z": -1.17702935,
				"element": "N" 
			},
			{
				"x": -1.5774799491,
				"y": -0.6318422902,
				"z": -1.2239803475,
				"element": "C" 
			},
			{
				"x": 0.9392797571,
				"y": 1.2784060659,
				"z": 0.1026033272,
				"element": "H" 
			},
			{
				"x": 0.8515561163,
				"y": 0.8458674151,
				"z": -1.5926723892,
				"element": "H" 
			},
			{
				"x": 2.4201101767,
				"y": -0.7570703251,
				"z": -2.2249950859,
				"element": "H" 
			},
			{
				"x": 3.7599782215,
				"y": -2.7890882936,
				"z": -1.7777800115,
				"element": "H" 
			},
			{
				"x": 3.5365919893,
				"y": -3.9770231592,
				"z": 0.3965902409,
				"element": "H" 
			},
			{
				"x": 1.9557959083,
				"y": -3.1128983078,
				"z": 2.1124928384,
				"element": "H" 
			},
			{
				"x": 0.6102769127,
				"y": -1.0895031499,
				"z": 1.6558360833,
				"element": "H" 
			},
			{
				"x": -1.1617194632,
				"y": 1.8348502832,
				"z": 1.0542032381,
				"element": "H" 
			},
			{
				"x": -3.6413059556,
				"y": 1.4822632101,
				"z": 1.1727806519,
				"element": "H" 
			},
			{
				"x": -4.6771867322,
				"y": -0.2463853751,
				"z": -0.3016056694,
				"element": "H" 
			},
			{
				"x": -1.0251288498,
				"y": -1.2656589314,
				"z": -1.9171471801,
				"element": "H" 
			}
		],
		 "valence_orbital": [ 
			{
				"type": "occ",
				"energy": -0.28168,
				"method": "rhf"
			},
			{
				"type": "occ",
				"energy": -0.25821,
				"method": "rhf"
			},
			{
				"type": "occ",
				"energy": -0.25173,
				"method": "rhf"
			},
			{
				"type": "occ",
				"energy": -0.24774,
				"method": "rhf"
			},
			{
				"type": "occ",
				"energy": -0.23763,
				"method": "rhf"
			},
			{
				"type": "unocc",
				"energy": -0.02171,
				"method": "rhf"
			},
			{
				"type": "unocc",
				"energy": -0.01121,
				"method": "rhf"
			},
			{
				"type": "unocc",
				"energy": -0.00426,
				"method": "rhf"
			},
			{
				"type": "unocc",
				"energy": 0.00368,
				"method": "rhf"
			},
			{
				"type": "unocc",
				"energy": 0.09148,
				"method": "rhf"
			}
		],
		"cosmo_sigma_profile": { 
			"-0.025": 0.0,
			"-0.024": 0.0,
			"-0.023": 0.0,
			"-0.022": 0.0,
			"-0.021": 0.0,
			"-0.02": 0.0,
			"-0.019": 0.0,
			"-0.018": 0.0,
			"-0.017": 0.0,
			"-0.016": 0.0,
			"-0.015": 0.0,
			"-0.014": 0.0,
			"-0.013": 0.0,
			"-0.012": 0.0,
			"-0.011": 0.0,
			"-0.01": 0.0,
			"-0.009": 0.0,
			"-0.008": 0.0,
			"-0.007": 1.64179660515,
			"-0.006": 11.3105542234,
			"-0.005": 22.6674826176,
			"-0.004": 23.9389431157,
			"-0.003": 21.9574650085,
			"-0.002": 17.1010018937,
			"-0.001": 16.4034242346,
			"0.0": 12.6995646049,
			"0.001": 13.0613749736,
			"0.002": 17.3518708169,
			"0.003": 20.6871920841,
			"0.004": 11.6191587968,
			"0.005": 10.5386056351,
			"0.006": 9.72411437291,
			"0.007": 2.22359269549,
			"0.008": 1.74320110979,
			"0.009": 1.11863591967,
			"0.01": 1.62751843089,
			"0.011": 0.718585455467,
			"0.012": 0.739904734179,
			"0.013": 1.00353117683,
			"0.014": 0.712081970359,
			"0.015": 1.16767077147,
			"0.016": 0.74055759151,
			"0.017": 0.651103484727,
			"0.018": 0.0272635485804,
			"0.019": 0.0,
			"0.02": 0.0,
			"0.021": 0.0,
			"0.022": 0.0,
			"0.023": 0.0,
			"0.024": 0.0,
			"0.025": 0.0
		}
	}
}
