{
	 "smiles": "CCC(O)(CC)C(O)=O", 
	 "Tm": 353.15, 
	 "num_atms": 21, 
	 "gaussian": { 
		 "optdone": 1, 
		 "sigma_profile": "yes", 
		 "theory": "DFT", 
		 "functional": "B3LYP", 
		 "basiset": "6-31G**", 
		 "properties": { 
			 "R2extent": 1276.8061, 
			 "electric_dipole_moment_norm": 3.56834997863, 
			 "electric_quadrupole_moment_norm": 7.9301754514, 
			 "total_energy": -461.556702511, 
			 "HOMO_LUMO_gap": 0.26712, 
			 "cosmo_polarized_energy": -11.86, 
			 "cosmo_cavitation_energy": 22.57, 
			 "cosmo_dispersion_energy": -16.52, 
			 "cosmo_repulsion_energy": 1.35, 
			 "cosmo_total_nonelectrostatic_energy": 7.41, 
			 "SMD_solvation_energy": 4.98 
		},
		"coords": [
			{
				"x": 2.187412324,
				"y": -0.752880703,
				"z": 0.5817561293,
				"element": "C" 
			},
			{
				"x": 0.7971137866,
				"y": -1.1148276222,
				"z": 0.0503711071,
				"element": "C" 
			},
			{
				"x": -0.0131023014,
				"y": 0.1091360815,
				"z": -0.4447850212,
				"element": "C" 
			},
			{
				"x": 0.7531328387,
				"y": 0.765366303,
				"z": -1.4381581866,
				"element": "O" 
			},
			{
				"x": -0.3286701097,
				"y": 1.1518489286,
				"z": 0.6666275844,
				"element": "C" 
			},
			{
				"x": -1.087642846,
				"y": 0.6745925603,
				"z": 1.910582155,
				"element": "C" 
			},
			{
				"x": -1.325460375,
				"y": -0.3441242001,
				"z": -1.120728723,
				"element": "C" 
			},
			{
				"x": -2.1311944231,
				"y": -1.1960436036,
				"z": -0.453391301,
				"element": "O" 
			},
			{
				"x": -1.6436643459,
				"y": 0.0638141839,
				"z": -2.2159824734,
				"element": "O" 
			},
			{
				"x": 2.1347668661,
				"y": -0.157763082,
				"z": 1.4988599877,
				"element": "H" 
			},
			{
				"x": 2.7552790148,
				"y": -1.6601322975,
				"z": 0.8091699898,
				"element": "H" 
			},
			{
				"x": 2.7379316343,
				"y": -0.179131625,
				"z": -0.1672854759,
				"element": "H" 
			},
			{
				"x": 0.9016700665,
				"y": -1.8014384783,
				"z": -0.7975588459,
				"element": "H" 
			},
			{
				"x": 0.2449655181,
				"y": -1.659545238,
				"z": 0.8292608541,
				"element": "H" 
			},
			{
				"x": 0.1487420908,
				"y": 0.8929047024,
				"z": -2.1908302854,
				"element": "H" 
			},
			{
				"x": 0.6368280278,
				"y": 1.5751691268,
				"z": 0.960310514,
				"element": "H" 
			},
			{
				"x": -0.8794873147,
				"y": 1.9673287502,
				"z": 0.1840555392,
				"element": "H" 
			},
			{
				"x": -0.5578584788,
				"y": -0.1276503727,
				"z": 2.4366789868,
				"element": "H" 
			},
			{
				"x": -2.0982587282,
				"y": 0.3252705807,
				"z": 1.6734371715,
				"element": "H" 
			},
			{
				"x": -1.1985611466,
				"y": 1.5003694026,
				"z": 2.6198188641,
				"element": "H" 
			},
			{
				"x": -1.7256420985,
				"y": -1.4493633975,
				"z": 0.3878914292,
				"element": "H" 
			}
		],
		 "valence_orbital": [ 
			{
				"type": "occ",
				"energy": -0.34691,
				"method": "rhf"
			},
			{
				"type": "occ",
				"energy": -0.33682,
				"method": "rhf"
			},
			{
				"type": "occ",
				"energy": -0.32681,
				"method": "rhf"
			},
			{
				"type": "occ",
				"energy": -0.28577,
				"method": "rhf"
			},
			{
				"type": "occ",
				"energy": -0.26938,
				"method": "rhf"
			},
			{
				"type": "unocc",
				"energy": -0.00226,
				"method": "rhf"
			},
			{
				"type": "unocc",
				"energy": 0.04147,
				"method": "rhf"
			},
			{
				"type": "unocc",
				"energy": 0.08819,
				"method": "rhf"
			},
			{
				"type": "unocc",
				"energy": 0.10775,
				"method": "rhf"
			},
			{
				"type": "unocc",
				"energy": 0.11832,
				"method": "rhf"
			}
		],
		"cosmo_sigma_profile": { 
			"-0.025": 0.0,
			"-0.024": 0.0,
			"-0.023": 0.0,
			"-0.022": 0.0,
			"-0.021": 0.0,
			"-0.02": 0.0,
			"-0.019": 0.0,
			"-0.018": 0.237772391878,
			"-0.017": 0.915592912786,
			"-0.016": 0.539391960503,
			"-0.015": 0.708955191655,
			"-0.014": 0.948131449682,
			"-0.013": 0.630122094775,
			"-0.012": 1.37034590226,
			"-0.011": 1.13060900708,
			"-0.01": 1.08674994944,
			"-0.009": 1.21412560247,
			"-0.008": 2.34781221296,
			"-0.007": 1.67391762032,
			"-0.006": 2.45994879438,
			"-0.005": 5.63202170899,
			"-0.004": 14.5476401896,
			"-0.003": 22.4510306674,
			"-0.002": 19.0995724509,
			"-0.001": 20.5892656783,
			"0.0": 17.1740057678,
			"0.001": 12.6263010213,
			"0.002": 5.22880855305,
			"0.003": 2.51935378062,
			"0.004": 3.81391853066,
			"0.005": 3.05173662534,
			"0.006": 3.63968983569,
			"0.007": 4.26335196083,
			"0.008": 4.7609275529,
			"0.009": 5.4274441729,
			"0.01": 5.81307758997,
			"0.011": 4.78407409065,
			"0.012": 3.19248918449,
			"0.013": 1.09950347814,
			"0.014": 0.19493853522,
			"0.015": 0.0,
			"0.016": 0.0,
			"0.017": 0.0,
			"0.018": 0.0,
			"0.019": 0.0,
			"0.02": 0.0,
			"0.021": 0.0,
			"0.022": 0.0,
			"0.023": 0.0,
			"0.024": 0.0,
			"0.025": 0.0
		}
	}
}
