{
	 "smiles": "CC(=O)NCCCCCC(O)=O", 
	 "Tm": 377.15, 
	 "num_atms": 27, 
	 "gaussian": { 
		 "optdone": 1, 
		 "sigma_profile": "yes", 
		 "theory": "DFT", 
		 "functional": "B3LYP", 
		 "basiset": "6-31G**", 
		 "properties": { 
			 "R2extent": 4973.4306, 
			 "electric_dipole_moment_norm": 5.1094485084, 
			 "electric_quadrupole_moment_norm": 10.0747542749, 
			 "total_energy": -594.357482968, 
			 "HOMO_LUMO_gap": 0.23864, 
			 "cosmo_polarized_energy": -17.92, 
			 "cosmo_cavitation_energy": 30.56, 
			 "cosmo_dispersion_energy": -21.7, 
			 "cosmo_repulsion_energy": 1.8, 
			 "cosmo_total_nonelectrostatic_energy": 10.66, 
			 "SMD_solvation_energy": 6.18 
		},
		"coords": [
			{
				"x": -0.1451428517,
				"y": 4.0499143235,
				"z": -0.0299461787,
				"element": "C" 
			},
			{
				"x": 0.088000192,
				"y": 3.1447644146,
				"z": 1.1706996635,
				"element": "C" 
			},
			{
				"x": 0.0784550416,
				"y": 3.5685455618,
				"z": 2.3197225031,
				"element": "O" 
			},
			{
				"x": 0.3357436494,
				"y": 1.8209101636,
				"z": 0.9050035854,
				"element": "N" 
			},
			{
				"x": 0.210161925,
				"y": 1.1242477421,
				"z": -0.3686310828,
				"element": "C" 
			},
			{
				"x": 0.9902064107,
				"y": -0.1950725709,
				"z": -0.3381593177,
				"element": "C" 
			},
			{
				"x": 0.9676112172,
				"y": -0.9760175108,
				"z": -1.6612322549,
				"element": "C" 
			},
			{
				"x": -0.4116807023,
				"y": -1.5275625657,
				"z": -2.0547839938,
				"element": "C" 
			},
			{
				"x": -0.3843996092,
				"y": -2.3733091254,
				"z": -3.3319598393,
				"element": "C" 
			},
			{
				"x": 0.3070102596,
				"y": -3.7100262489,
				"z": -3.1569350598,
				"element": "C" 
			},
			{
				"x": 0.4723616856,
				"y": -4.3417350643,
				"z": -4.3442088774,
				"element": "O" 
			},
			{
				"x": 0.6641917287,
				"y": -4.1979794585,
				"z": -2.1063005402,
				"element": "O" 
			},
			{
				"x": -0.3305212656,
				"y": 5.0573067613,
				"z": 0.3412802301,
				"element": "H" 
			},
			{
				"x": -1.0041506794,
				"y": 3.7191238439,
				"z": -0.6237484344,
				"element": "H" 
			},
			{
				"x": 0.7275311793,
				"y": 4.0659611227,
				"z": -0.6920489167,
				"element": "H" 
			},
			{
				"x": 0.4078250649,
				"y": 1.2563504338,
				"z": 1.7424075641,
				"element": "H" 
			},
			{
				"x": 0.6118230258,
				"y": 1.7604330396,
				"z": -1.1650816179,
				"element": "H" 
			},
			{
				"x": -0.846213991,
				"y": 0.9355399546,
				"z": -0.6134929195,
				"element": "H" 
			},
			{
				"x": 0.590644584,
				"y": -0.8322846342,
				"z": 0.4635335323,
				"element": "H" 
			},
			{
				"x": 2.0287087835,
				"y": 0.0299662892,
				"z": -0.0675115143,
				"element": "H" 
			},
			{
				"x": 1.663936103,
				"y": -1.8162694278,
				"z": -1.5730722429,
				"element": "H" 
			},
			{
				"x": 1.3494432569,
				"y": -0.3350144698,
				"z": -2.4691867153,
				"element": "H" 
			},
			{
				"x": -1.1214849156,
				"y": -0.7064781953,
				"z": -2.2065524224,
				"element": "H" 
			},
			{
				"x": -0.8031653247,
				"y": -2.1406662435,
				"z": -1.2348066732,
				"element": "H" 
			},
			{
				"x": 0.1008521492,
				"y": -1.8429870572,
				"z": -4.1602319342,
				"element": "H" 
			},
			{
				"x": -1.4029618916,
				"y": -2.590119052,
				"z": -3.6791572872,
				"element": "H" 
			},
			{
				"x": 0.8968149746,
				"y": -5.1924420264,
				"z": -4.1411992559,
				"element": "H" 
			}
		],
		 "valence_orbital": [ 
			{
				"type": "occ",
				"energy": -0.33351,
				"method": "rhf"
			},
			{
				"type": "occ",
				"energy": -0.32365,
				"method": "rhf"
			},
			{
				"type": "occ",
				"energy": -0.28217,
				"method": "rhf"
			},
			{
				"type": "occ",
				"energy": -0.24311,
				"method": "rhf"
			},
			{
				"type": "occ",
				"energy": -0.23596,
				"method": "rhf"
			},
			{
				"type": "unocc",
				"energy": 0.00268,
				"method": "rhf"
			},
			{
				"type": "unocc",
				"energy": 0.03546,
				"method": "rhf"
			},
			{
				"type": "unocc",
				"energy": 0.07292,
				"method": "rhf"
			},
			{
				"type": "unocc",
				"energy": 0.07784,
				"method": "rhf"
			},
			{
				"type": "unocc",
				"energy": 0.09068,
				"method": "rhf"
			}
		],
		"cosmo_sigma_profile": { 
			"-0.025": 0.0,
			"-0.024": 0.0,
			"-0.023": 0.0,
			"-0.022": 0.0,
			"-0.021": 0.0,
			"-0.02": 0.0,
			"-0.019": 0.0,
			"-0.018": 0.528091899784,
			"-0.017": 0.799225291725,
			"-0.016": 0.975311537095,
			"-0.015": 1.18549086243,
			"-0.014": 0.385833155766,
			"-0.013": 0.123195841176,
			"-0.012": 1.76557143564,
			"-0.011": 1.71986646804,
			"-0.01": 1.59826835694,
			"-0.009": 2.37043624485,
			"-0.008": 1.40491764181,
			"-0.007": 1.78788129936,
			"-0.006": 7.95401220428,
			"-0.005": 14.5346408778,
			"-0.004": 21.1794614408,
			"-0.003": 30.8387712867,
			"-0.002": 32.0550930014,
			"-0.001": 25.8308203661,
			"0.0": 16.7194213677,
			"0.001": 7.96988710621,
			"0.002": 7.13483219245,
			"0.003": 5.1219550451,
			"0.004": 3.77415977858,
			"0.005": 5.44195213731,
			"0.006": 4.2067302646,
			"0.007": 3.73235539602,
			"0.008": 4.54124050017,
			"0.009": 4.05663170639,
			"0.01": 4.4831500071,
			"0.011": 3.74025153712,
			"0.012": 6.64604563211,
			"0.013": 2.79497370787,
			"0.014": 5.54415613411,
			"0.015": 3.86939816821,
			"0.016": 0.53105036432,
			"0.017": 0.0,
			"0.018": 0.0,
			"0.019": 0.0,
			"0.02": 0.0,
			"0.021": 0.0,
			"0.022": 0.0,
			"0.023": 0.0,
			"0.024": 0.0,
			"0.025": 0.0
		}
	}
}
