{
	 "smiles": "OCC(O)C(O)C(O)C(O)CO", 
	 "Tm": 463.15, 
	 "num_atms": 26, 
	 "gaussian": { 
		 "optdone": 1, 
		 "sigma_profile": "yes", 
		 "theory": "DFT", 
		 "functional": "B3LYP", 
		 "basiset": "6-31G**", 
		 "properties": { 
			 "R2extent": 3025.0421, 
			 "electric_dipole_moment_norm": 2.7506754316, 
			 "electric_quadrupole_moment_norm": 19.1955848163, 
			 "total_energy": -688.373989605, 
			 "HOMO_LUMO_gap": 0.28988, 
			 "cosmo_polarized_energy": -18.79, 
			 "cosmo_cavitation_energy": 26.99, 
			 "cosmo_dispersion_energy": -20.18, 
			 "cosmo_repulsion_energy": 1.65, 
			 "cosmo_total_nonelectrostatic_energy": 8.45, 
			 "SMD_solvation_energy": 4.52 
		},
		"coords": [
			{
				"x": 2.1818480143,
				"y": -0.3827603284,
				"z": -3.0432066443,
				"element": "O" 
			},
			{
				"x": 2.5829190294,
				"y": -0.044709681,
				"z": -1.7126285602,
				"element": "C" 
			},
			{
				"x": 1.4504556172,
				"y": 0.7855031565,
				"z": -1.0978289607,
				"element": "C" 
			},
			{
				"x": 1.0378930825,
				"y": 1.7791123663,
				"z": -2.0551620423,
				"element": "O" 
			},
			{
				"x": 0.2482284373,
				"y": -0.0321388178,
				"z": -0.5651823107,
				"element": "C" 
			},
			{
				"x": -0.4117130452,
				"y": 0.7113924918,
				"z": 0.4551382677,
				"element": "O" 
			},
			{
				"x": -0.7574628829,
				"y": -0.3966968001,
				"z": -1.6787524696,
				"element": "C" 
			},
			{
				"x": -1.5587659735,
				"y": 0.7538076487,
				"z": -1.9689777248,
				"element": "O" 
			},
			{
				"x": -1.704576921,
				"y": -1.5495665192,
				"z": -1.3304628683,
				"element": "C" 
			},
			{
				"x": -0.8961679491,
				"y": -2.7016009531,
				"z": -1.127845986,
				"element": "O" 
			},
			{
				"x": -2.5987373709,
				"y": -1.3273412746,
				"z": -0.1125221699,
				"element": "C" 
			},
			{
				"x": -3.3231892647,
				"y": -2.5560672604,
				"z": 0.0457305152,
				"element": "O" 
			},
			{
				"x": 2.929023035,
				"y": -0.7758094116,
				"z": -3.5091006876,
				"element": "H" 
			},
			{
				"x": 3.5014445509,
				"y": 0.5587461146,
				"z": -1.7339770196,
				"element": "H" 
			},
			{
				"x": 2.7705441786,
				"y": -0.9414082688,
				"z": -1.1068250928,
				"element": "H" 
			},
			{
				"x": 1.8529615123,
				"y": 1.3204428962,
				"z": -0.2298787913,
				"element": "H" 
			},
			{
				"x": 1.2766454791,
				"y": 1.4036420163,
				"z": -2.9195923336,
				"element": "H" 
			},
			{
				"x": 0.623193662,
				"y": -0.9529112259,
				"z": -0.104724449,
				"element": "H" 
			},
			{
				"x": -1.0923782068,
				"y": 1.2218146942,
				"z": -0.0155331177,
				"element": "H" 
			},
			{
				"x": -0.1945268579,
				"y": -0.7173640847,
				"z": -2.5642635489,
				"element": "H" 
			},
			{
				"x": -0.9176306139,
				"y": 1.4365896244,
				"z": -2.2368844603,
				"element": "H" 
			},
			{
				"x": -2.367511565,
				"y": -1.693316809,
				"z": -2.1996432475,
				"element": "H" 
			},
			{
				"x": -1.4898975179,
				"y": -3.3467405589,
				"z": -0.7138900192,
				"element": "H" 
			},
			{
				"x": -1.9877801244,
				"y": -1.1080334213,
				"z": 0.769902199,
				"element": "H" 
			},
			{
				"x": -3.2764701951,
				"y": -0.4824200946,
				"z": -0.2915981126,
				"element": "H" 
			},
			{
				"x": -3.7097481102,
				"y": -2.5671654995,
				"z": 0.928809635,
				"element": "H" 
			}
		],
		 "valence_orbital": [ 
			{
				"type": "occ",
				"energy": -0.29372,
				"method": "rhf"
			},
			{
				"type": "occ",
				"energy": -0.27657,
				"method": "rhf"
			},
			{
				"type": "occ",
				"energy": -0.26765,
				"method": "rhf"
			},
			{
				"type": "occ",
				"energy": -0.25437,
				"method": "rhf"
			},
			{
				"type": "occ",
				"energy": -0.24506,
				"method": "rhf"
			},
			{
				"type": "unocc",
				"energy": 0.04482,
				"method": "rhf"
			},
			{
				"type": "unocc",
				"energy": 0.06906,
				"method": "rhf"
			},
			{
				"type": "unocc",
				"energy": 0.08883,
				"method": "rhf"
			},
			{
				"type": "unocc",
				"energy": 0.10699,
				"method": "rhf"
			},
			{
				"type": "unocc",
				"energy": 0.12223,
				"method": "rhf"
			}
		],
		"cosmo_sigma_profile": { 
			"-0.025": 0.0,
			"-0.024": 0.0,
			"-0.023": 0.0,
			"-0.022": 0.0,
			"-0.021": 0.0,
			"-0.02": 0.0,
			"-0.019": 0.0,
			"-0.018": 0.0,
			"-0.017": 0.804774337137,
			"-0.016": 1.80225139512,
			"-0.015": 2.07717489221,
			"-0.014": 2.36880600441,
			"-0.013": 2.05534649701,
			"-0.012": 1.15648329245,
			"-0.011": 2.50423050584,
			"-0.01": 3.38173498538,
			"-0.009": 3.9178295129,
			"-0.008": 4.25733800195,
			"-0.007": 6.31941505764,
			"-0.006": 7.00643736891,
			"-0.005": 15.9461157733,
			"-0.004": 14.4496533581,
			"-0.003": 16.2100189257,
			"-0.002": 13.2161210921,
			"-0.001": 11.1238334378,
			"0.0": 9.95377018241,
			"0.001": 8.86817773755,
			"0.002": 8.51744368194,
			"0.003": 7.81829425582,
			"0.004": 7.30282056495,
			"0.005": 7.82283085317,
			"0.006": 6.96893149343,
			"0.007": 6.2600695365,
			"0.008": 7.00571937513,
			"0.009": 3.99108844207,
			"0.01": 4.4577697646,
			"0.011": 6.11025558091,
			"0.012": 4.48059352288,
			"0.013": 5.50404103361,
			"0.014": 3.44800107942,
			"0.015": 0.452397505573,
			"0.016": 0.0,
			"0.017": 0.0,
			"0.018": 0.0,
			"0.019": 0.0,
			"0.02": 0.0,
			"0.021": 0.0,
			"0.022": 0.0,
			"0.023": 0.0,
			"0.024": 0.0,
			"0.025": 0.0
		}
	}
}
