{
	 "smiles": "CC1=C(Cl)C(=O)N(C(=O)N1)C(C)(C)C", 
	 "Tm": 449.15, 
	 "num_atms": 27, 
	 "gaussian": { 
		 "optdone": 1, 
		 "sigma_profile": "yes", 
		 "theory": "DFT", 
		 "functional": "B3LYP", 
		 "basiset": "6-31G**", 
		 "properties": { 
			 "R2extent": 4061.0183, 
			 "electric_dipole_moment_norm": 3.73392494033, 
			 "electric_quadrupole_moment_norm": 25.6822145583, 
			 "total_energy": -1070.9713598, 
			 "HOMO_LUMO_gap": 0.18995, 
			 "cosmo_polarized_energy": -14.6, 
			 "cosmo_cavitation_energy": 30.36, 
			 "cosmo_dispersion_energy": -22.08, 
			 "cosmo_repulsion_energy": 1.72, 
			 "cosmo_total_nonelectrostatic_energy": 10.01, 
			 "SMD_solvation_energy": 6.28 
		},
		"coords": [
			{
				"x": -4.5413748651,
				"y": -0.6039251777,
				"z": 0.213063709,
				"element": "C" 
			},
			{
				"x": -3.0648438034,
				"y": -0.8588725301,
				"z": 0.2036307619,
				"element": "C" 
			},
			{
				"x": -2.2605226514,
				"y": -1.0325911117,
				"z": 1.27979136,
				"element": "C" 
			},
			{
				"x": -2.8678127866,
				"y": -1.0066461731,
				"z": 2.911556572,
				"element": "Cl" 
			},
			{
				"x": -0.8248289348,
				"y": -1.3272991312,
				"z": 1.1276867235,
				"element": "C" 
			},
			{
				"x": -0.1361870235,
				"y": -1.7126073801,
				"z": 2.05660529,
				"element": "O" 
			},
			{
				"x": -0.2924610837,
				"y": -1.105677012,
				"z": -0.177344783,
				"element": "N" 
			},
			{
				"x": -1.1282804713,
				"y": -1.192728759,
				"z": -1.2963596215,
				"element": "C" 
			},
			{
				"x": -0.7798077016,
				"y": -1.4485205214,
				"z": -2.437977196,
				"element": "O" 
			},
			{
				"x": -2.4749710271,
				"y": -0.9406046726,
				"z": -1.0399511051,
				"element": "N" 
			},
			{
				"x": 1.226192819,
				"y": -1.0900648482,
				"z": -0.3708424594,
				"element": "C" 
			},
			{
				"x": 1.5998421548,
				"y": -0.317469169,
				"z": -1.6552899371,
				"element": "C" 
			},
			{
				"x": 1.8906081289,
				"y": -0.3207512535,
				"z": 0.7933788011,
				"element": "C" 
			},
			{
				"x": 1.7273831752,
				"y": -2.5403751343,
				"z": -0.4404684417,
				"element": "C" 
			},
			{
				"x": -5.0693971738,
				"y": -1.3939728468,
				"z": -0.3338768412,
				"element": "H" 
			},
			{
				"x": -4.9263234693,
				"y": -0.5701335511,
				"z": 1.2305298104,
				"element": "H" 
			},
			{
				"x": -4.7637861391,
				"y": 0.3491875527,
				"z": -0.2800523356,
				"element": "H" 
			},
			{
				"x": -3.050813861,
				"y": -1.0027973482,
				"z": -1.8685032343,
				"element": "H" 
			},
			{
				"x": 2.6845545064,
				"y": -0.1769511597,
				"z": -1.6502577586,
				"element": "H" 
			},
			{
				"x": 1.1383583597,
				"y": 0.6756438982,
				"z": -1.6634827574,
				"element": "H" 
			},
			{
				"x": 1.3162203207,
				"y": -0.83882328,
				"z": -2.5644421536,
				"element": "H" 
			},
			{
				"x": 1.4479799469,
				"y": 0.675306955,
				"z": 0.9001899032,
				"element": "H" 
			},
			{
				"x": 2.9474048475,
				"y": -0.1880710493,
				"z": 0.5447057857,
				"element": "H" 
			},
			{
				"x": 1.8170951874,
				"y": -0.8394634545,
				"z": 1.7443561473,
				"element": "H" 
			},
			{
				"x": 1.2694766701,
				"y": -3.0623193652,
				"z": -1.2853203277,
				"element": "H" 
			},
			{
				"x": 1.4924259181,
				"y": -3.0725662449,
				"z": 0.4841046199,
				"element": "H" 
			},
			{
				"x": 2.813468957,
				"y": -2.5514072323,
				"z": -0.5796305319,
				"element": "H" 
			}
		],
		 "valence_orbital": [ 
			{
				"type": "occ",
				"energy": -0.31745,
				"method": "rhf"
			},
			{
				"type": "occ",
				"energy": -0.28873,
				"method": "rhf"
			},
			{
				"type": "occ",
				"energy": -0.27056,
				"method": "rhf"
			},
			{
				"type": "occ",
				"energy": -0.26299,
				"method": "rhf"
			},
			{
				"type": "occ",
				"energy": -0.23597,
				"method": "rhf"
			},
			{
				"type": "unocc",
				"energy": -0.04602,
				"method": "rhf"
			},
			{
				"type": "unocc",
				"energy": 0.00851,
				"method": "rhf"
			},
			{
				"type": "unocc",
				"energy": 0.02629,
				"method": "rhf"
			},
			{
				"type": "unocc",
				"energy": 0.07153,
				"method": "rhf"
			},
			{
				"type": "unocc",
				"energy": 0.08513,
				"method": "rhf"
			}
		],
		"cosmo_sigma_profile": { 
			"-0.025": 0.0,
			"-0.024": 0.0,
			"-0.023": 0.0,
			"-0.022": 0.0,
			"-0.021": 0.0,
			"-0.02": 0.0,
			"-0.019": 0.0,
			"-0.018": 0.0,
			"-0.017": 0.0987524992838,
			"-0.016": 1.11622769433,
			"-0.015": 0.977138417074,
			"-0.014": 1.19288282737,
			"-0.013": 1.28111387399,
			"-0.012": 1.0131645851,
			"-0.011": 0.918059979973,
			"-0.01": 0.936448529099,
			"-0.009": 2.02491361028,
			"-0.008": 1.69246294295,
			"-0.007": 4.86754991259,
			"-0.006": 6.29537523714,
			"-0.005": 7.12369626496,
			"-0.004": 15.0448190259,
			"-0.003": 24.2770265848,
			"-0.002": 26.5555649902,
			"-0.001": 27.2667905711,
			"0.0": 27.4140039291,
			"0.001": 24.1196909798,
			"0.002": 10.0289786706,
			"0.003": 7.83374374738,
			"0.004": 8.72489064436,
			"0.005": 8.21869137601,
			"0.006": 4.22499090229,
			"0.007": 4.00184392927,
			"0.008": 3.10158256473,
			"0.009": 3.55185603617,
			"0.01": 3.02523036905,
			"0.011": 4.38930011286,
			"0.012": 6.11076591382,
			"0.013": 3.32580736685,
			"0.014": 0.216712801445,
			"0.015": 0.0,
			"0.016": 0.0,
			"0.017": 0.0,
			"0.018": 0.0,
			"0.019": 0.0,
			"0.02": 0.0,
			"0.021": 0.0,
			"0.022": 0.0,
			"0.023": 0.0,
			"0.024": 0.0,
			"0.025": 0.0
		}
	}
}
