{
	 "smiles": "OC1=C(O)C=C(C=C1)C(=O)C1=CC=CC=C1", 
	 "Tm": 419.15, 
	 "num_atms": 26, 
	 "gaussian": { 
		 "optdone": 1, 
		 "sigma_profile": "yes", 
		 "theory": "DFT", 
		 "functional": "B3LYP", 
		 "basiset": "6-31G**", 
		 "properties": { 
			 "R2extent": 4587.9692, 
			 "electric_dipole_moment_norm": 3.25741204179, 
			 "electric_quadrupole_moment_norm": 22.7766851818, 
			 "total_energy": -727.076491168, 
			 "HOMO_LUMO_gap": 0.1612, 
			 "cosmo_polarized_energy": -15.98, 
			 "cosmo_cavitation_energy": 30.67, 
			 "cosmo_dispersion_energy": -22.54, 
			 "cosmo_repulsion_energy": 1.74, 
			 "cosmo_total_nonelectrostatic_energy": 9.88, 
			 "SMD_solvation_energy": 6.23 
		},
		"coords": [
			{
				"x": -2.6022162139,
				"y": 1.4915718382,
				"z": 2.6672902373,
				"element": "O" 
			},
			{
				"x": -1.5177183096,
				"y": 0.9615241835,
				"z": 2.0149654073,
				"element": "C" 
			},
			{
				"x": -1.8021332518,
				"y": 0.375306314,
				"z": 0.7684238605,
				"element": "C" 
			},
			{
				"x": -3.0744198875,
				"y": 0.3720620754,
				"z": 0.2812368588,
				"element": "O" 
			},
			{
				"x": -0.772957336,
				"y": -0.1995672246,
				"z": 0.0310179228,
				"element": "C" 
			},
			{
				"x": 0.5456024916,
				"y": -0.1890404519,
				"z": 0.5193728558,
				"element": "C" 
			},
			{
				"x": 0.8167577173,
				"y": 0.42105296,
				"z": 1.7528264379,
				"element": "C" 
			},
			{
				"x": -0.2124593892,
				"y": 0.9833681806,
				"z": 2.5029388116,
				"element": "C" 
			},
			{
				"x": 1.7069547913,
				"y": -0.7305793453,
				"z": -0.254917893,
				"element": "C" 
			},
			{
				"x": 2.8347096907,
				"y": -0.2891384256,
				"z": -0.0536879007,
				"element": "O" 
			},
			{
				"x": 1.5112689507,
				"y": -1.8126372062,
				"z": -1.2781649369,
				"element": "C" 
			},
			{
				"x": 0.5235238552,
				"y": -2.8036828927,
				"z": -1.1690569012,
				"element": "C" 
			},
			{
				"x": 0.4416929789,
				"y": -3.8242767329,
				"z": -2.1176274059,
				"element": "C" 
			},
			{
				"x": 1.3357625504,
				"y": -3.8584047145,
				"z": -3.1886546397,
				"element": "C" 
			},
			{
				"x": 2.3282789138,
				"y": -2.8795628906,
				"z": -3.300156433,
				"element": "C" 
			},
			{
				"x": 2.4233718074,
				"y": -1.8726986729,
				"z": -2.344294312,
				"element": "C" 
			},
			{
				"x": -2.3221045563,
				"y": 1.9017274001,
				"z": 3.4949741907,
				"element": "H" 
			},
			{
				"x": -3.6370270935,
				"y": 0.8280080185,
				"z": 0.9247174833,
				"element": "H" 
			},
			{
				"x": -1.0146508036,
				"y": -0.6257510194,
				"z": -0.935555389,
				"element": "H" 
			},
			{
				"x": 1.8412653432,
				"y": 0.4472349923,
				"z": 2.1056197842,
				"element": "H" 
			},
			{
				"x": -0.0050980057,
				"y": 1.4440419951,
				"z": 3.4665599054,
				"element": "H" 
			},
			{
				"x": -0.1645096518,
				"y": -2.7927465692,
				"z": -0.330489895,
				"element": "H" 
			},
			{
				"x": -0.3188012484,
				"y": -4.5932921466,
				"z": -2.0176496351,
				"element": "H" 
			},
			{
				"x": 1.2647854135,
				"y": -4.6483379375,
				"z": -3.9310929614,
				"element": "H" 
			},
			{
				"x": 3.0297500655,
				"y": -2.9081340536,
				"z": -4.129022256,
				"element": "H" 
			},
			{
				"x": 3.2011711779,
				"y": -1.1183476741,
				"z": -2.3997731968,
				"element": "H" 
			}
		],
		 "valence_orbital": [ 
			{
				"type": "occ",
				"energy": -0.25641,
				"method": "rhf"
			},
			{
				"type": "occ",
				"energy": -0.25511,
				"method": "rhf"
			},
			{
				"type": "occ",
				"energy": -0.24942,
				"method": "rhf"
			},
			{
				"type": "occ",
				"energy": -0.24079,
				"method": "rhf"
			},
			{
				"type": "occ",
				"energy": -0.21729,
				"method": "rhf"
			},
			{
				"type": "unocc",
				"energy": -0.05609,
				"method": "rhf"
			},
			{
				"type": "unocc",
				"energy": -0.01036,
				"method": "rhf"
			},
			{
				"type": "unocc",
				"energy": -0.00223,
				"method": "rhf"
			},
			{
				"type": "unocc",
				"energy": 0.00411,
				"method": "rhf"
			},
			{
				"type": "unocc",
				"energy": 0.04516,
				"method": "rhf"
			}
		],
		"cosmo_sigma_profile": { 
			"-0.025": 0.0,
			"-0.024": 0.0,
			"-0.023": 0.0,
			"-0.022": 0.0,
			"-0.021": 0.0,
			"-0.02": 0.0,
			"-0.019": 0.468941358434,
			"-0.018": 1.10828068661,
			"-0.017": 1.17201831949,
			"-0.016": 1.06462674699,
			"-0.015": 1.75494674605,
			"-0.014": 1.80580513281,
			"-0.013": 0.72236600847,
			"-0.012": 1.25371644609,
			"-0.011": 1.53125958745,
			"-0.01": 2.26292174341,
			"-0.009": 2.38781282059,
			"-0.008": 1.36187276233,
			"-0.007": 3.61107704308,
			"-0.006": 11.2021524533,
			"-0.005": 16.7185635052,
			"-0.004": 15.957120268,
			"-0.003": 15.2528072071,
			"-0.002": 16.3425110163,
			"-0.001": 12.6350276282,
			"0.0": 15.2023094502,
			"0.001": 17.729800357,
			"0.002": 19.4802308175,
			"0.003": 22.2666779414,
			"0.004": 22.7172740624,
			"0.005": 10.0204767744,
			"0.006": 4.85353776976,
			"0.007": 3.15553882596,
			"0.008": 4.2532052498,
			"0.009": 2.94483113875,
			"0.01": 3.59341726294,
			"0.011": 4.50503098268,
			"0.012": 4.49186390314,
			"0.013": 2.02214285109,
			"0.014": 0.0,
			"0.015": 0.0,
			"0.016": 0.0,
			"0.017": 0.0,
			"0.018": 0.0,
			"0.019": 0.0,
			"0.02": 0.0,
			"0.021": 0.0,
			"0.022": 0.0,
			"0.023": 0.0,
			"0.024": 0.0,
			"0.025": 0.0
		}
	}
}
