{
	 "smiles": "CC12CCC3C(CCC4CC(O)CCC34C)C1(O)CCC2C1=CC(=O)OC1", 
	 "Tm": 526.15, 
	 "num_atms": 61, 
	 "gaussian": { 
		 "optdone": 1, 
		 "sigma_profile": "yes", 
		 "theory": "DFT", 
		 "functional": "B3LYP", 
		 "basiset": "6-31G**", 
		 "properties": { 
			 "R2extent": 11773.4408, 
			 "electric_dipole_moment_norm": 6.10045586329, 
			 "electric_quadrupole_moment_norm": 49.8462455626, 
			 "total_energy": -1197.82597432, 
			 "HOMO_LUMO_gap": 0.22062, 
			 "cosmo_polarized_energy": -20.92, 
			 "cosmo_cavitation_energy": 51.57, 
			 "cosmo_dispersion_energy": -35.93, 
			 "cosmo_repulsion_energy": 2.61, 
			 "cosmo_total_nonelectrostatic_energy": 18.25, 
			 "SMD_solvation_energy": 8.19 
		},
		"coords": [
			{
				"x": -1.0802253717,
				"y": 2.4132353335,
				"z": -2.734878808,
				"element": "C" 
			},
			{
				"x": -0.6521952302,
				"y": 1.937311511,
				"z": -1.3350900197,
				"element": "C" 
			},
			{
				"x": -1.1230351155,
				"y": 0.4641650456,
				"z": -1.19093365,
				"element": "C" 
			},
			{
				"x": -0.4604659979,
				"y": -0.4177567246,
				"z": -0.1138868797,
				"element": "C" 
			},
			{
				"x": 1.0725608214,
				"y": -0.2039348311,
				"z": 0.0895567573,
				"element": "C" 
			},
			{
				"x": 1.6675558259,
				"y": 0.7122318509,
				"z": -1.0095961164,
				"element": "C" 
			},
			{
				"x": 1.8399687869,
				"y": -0.0143392595,
				"z": -2.3605404965,
				"element": "C" 
			},
			{
				"x": 2.6248481628,
				"y": -1.3238106456,
				"z": -2.2003592633,
				"element": "C" 
			},
			{
				"x": 2.0126025403,
				"y": -2.2360670763,
				"z": -1.1248838773,
				"element": "C" 
			},
			{
				"x": 2.7439163122,
				"y": -3.5914003466,
				"z": -1.0531275811,
				"element": "C" 
			},
			{
				"x": 2.3146022485,
				"y": -4.4805982675,
				"z": 0.1349191319,
				"element": "C" 
			},
			{
				"x": 3.4120704571,
				"y": -4.5030530065,
				"z": 1.0592335818,
				"element": "O" 
			},
			{
				"x": 1.0418076308,
				"y": -3.9393174765,
				"z": 0.7953366859,
				"element": "C" 
			},
			{
				"x": 1.2131863808,
				"y": -2.4925930253,
				"z": 1.2937519646,
				"element": "C" 
			},
			{
				"x": 1.9001595444,
				"y": -1.5273096031,
				"z": 0.2583481827,
				"element": "C" 
			},
			{
				"x": 3.3001105605,
				"y": -1.1822098726,
				"z": 0.8258880104,
				"element": "C" 
			},
			{
				"x": 0.9125989689,
				"y": 2.0705135633,
				"z": -1.092930893,
				"element": "C" 
			},
			{
				"x": 1.4546728183,
				"y": 2.8424141901,
				"z": -2.1750614375,
				"element": "O" 
			},
			{
				"x": 1.065683819,
				"y": 2.8750892536,
				"z": 0.2393946678,
				"element": "C" 
			},
			{
				"x": -0.2964762178,
				"y": 2.8577081568,
				"z": 0.9380807894,
				"element": "C" 
			},
			{
				"x": -1.2729988954,
				"y": 2.9092412618,
				"z": -0.2480917976,
				"element": "C" 
			},
			{
				"x": -2.721956131,
				"y": 2.7087640043,
				"z": 0.0878052138,
				"element": "C" 
			},
			{
				"x": -3.7997893301,
				"y": 3.2134874279,
				"z": -0.5331090574,
				"element": "C" 
			},
			{
				"x": -5.0306369738,
				"y": 2.7610618858,
				"z": 0.147416029,
				"element": "C" 
			},
			{
				"x": -6.1883863374,
				"y": 2.9847158645,
				"z": -0.1026174504,
				"element": "O" 
			},
			{
				"x": -4.6452026605,
				"y": 1.9727526893,
				"z": 1.2160266022,
				"element": "O" 
			},
			{
				"x": -3.2217562445,
				"y": 1.8935100552,
				"z": 1.2598914205,
				"element": "C" 
			},
			{
				"x": -2.1647752107,
				"y": 2.3028077432,
				"z": -2.8462819042,
				"element": "H" 
			},
			{
				"x": -0.5982298578,
				"y": 1.822148722,
				"z": -3.5176120496,
				"element": "H" 
			},
			{
				"x": -0.8153562998,
				"y": 3.4583881645,
				"z": -2.9053856805,
				"element": "H" 
			},
			{
				"x": -2.2099633551,
				"y": 0.4527125481,
				"z": -1.0502905323,
				"element": "H" 
			},
			{
				"x": -0.970025456,
				"y": -0.0142138278,
				"z": -2.1621175253,
				"element": "H" 
			},
			{
				"x": -0.9626252394,
				"y": -0.267183436,
				"z": 0.8486905278,
				"element": "H" 
			},
			{
				"x": -0.6708781685,
				"y": -1.4584415256,
				"z": -0.3830792211,
				"element": "H" 
			},
			{
				"x": 1.1906393233,
				"y": 0.3314801692,
				"z": 1.04013028,
				"element": "H" 
			},
			{
				"x": 2.6831450985,
				"y": 0.9838603765,
				"z": -0.6829133284,
				"element": "H" 
			},
			{
				"x": 0.8680610223,
				"y": -0.2415717645,
				"z": -2.8093237372,
				"element": "H" 
			},
			{
				"x": 2.3451064062,
				"y": 0.651110249,
				"z": -3.0670678094,
				"element": "H" 
			},
			{
				"x": 2.6472604068,
				"y": -1.8577373299,
				"z": -3.1591376441,
				"element": "H" 
			},
			{
				"x": 3.672213556,
				"y": -1.1076633394,
				"z": -1.9531186195,
				"element": "H" 
			},
			{
				"x": 0.982956833,
				"y": -2.4466070167,
				"z": -1.4522990085,
				"element": "H" 
			},
			{
				"x": 3.8262827242,
				"y": -3.4426262968,
				"z": -0.975480928,
				"element": "H" 
			},
			{
				"x": 2.5739094844,
				"y": -4.1255672301,
				"z": -1.9952504273,
				"element": "H" 
			},
			{
				"x": 2.1274212419,
				"y": -5.5055621738,
				"z": -0.2211137349,
				"element": "H" 
			},
			{
				"x": 3.1433760992,
				"y": -5.0259541813,
				"z": 1.8265361913,
				"element": "H" 
			},
			{
				"x": 0.2213863864,
				"y": -4.0053224967,
				"z": 0.0690790902,
				"element": "H" 
			},
			{
				"x": 0.7502488159,
				"y": -4.5882066328,
				"z": 1.6328704233,
				"element": "H" 
			},
			{
				"x": 0.2336883149,
				"y": -2.1141423651,
				"z": 1.5991608921,
				"element": "H" 
			},
			{
				"x": 1.8206207076,
				"y": -2.5145559681,
				"z": 2.2039068167,
				"element": "H" 
			},
			{
				"x": 3.8552910181,
				"y": -2.0953952084,
				"z": 1.0516243422,
				"element": "H" 
			},
			{
				"x": 3.1907807725,
				"y": -0.6225300395,
				"z": 1.7627088149,
				"element": "H" 
			},
			{
				"x": 3.908539101,
				"y": -0.5735947232,
				"z": 0.1524866601,
				"element": "H" 
			},
			{
				"x": 2.4031960533,
				"y": 2.9366423252,
				"z": -2.0120675909,
				"element": "H" 
			},
			{
				"x": 1.879010327,
				"y": 2.503606074,
				"z": 0.8708615607,
				"element": "H" 
			},
			{
				"x": 1.3105006902,
				"y": 3.9054198172,
				"z": -0.041070017,
				"element": "H" 
			},
			{
				"x": -0.4291037907,
				"y": 1.9384265238,
				"z": 1.5194982246,
				"element": "H" 
			},
			{
				"x": -0.4286669082,
				"y": 3.6985239826,
				"z": 1.627275221,
				"element": "H" 
			},
			{
				"x": -1.1898396809,
				"y": 3.9130139883,
				"z": -0.6844167658,
				"element": "H" 
			},
			{
				"x": -3.8288804164,
				"y": 3.8652966889,
				"z": -1.3959636292,
				"element": "H" 
			},
			{
				"x": -2.8701800314,
				"y": 2.2950571801,
				"z": 2.2191975919,
				"element": "H" 
			},
			{
				"x": -2.9224303396,
				"y": 0.8397690449,
				"z": 1.2083218075,
				"element": "H" 
			}
		],
		 "valence_orbital": [ 
			{
				"type": "occ",
				"energy": -0.28156,
				"method": "rhf"
			},
			{
				"type": "occ",
				"energy": -0.26763,
				"method": "rhf"
			},
			{
				"type": "occ",
				"energy": -0.26541,
				"method": "rhf"
			},
			{
				"type": "occ",
				"energy": -0.26113,
				"method": "rhf"
			},
			{
				"type": "occ",
				"energy": -0.25896,
				"method": "rhf"
			},
			{
				"type": "unocc",
				"energy": -0.03834,
				"method": "rhf"
			},
			{
				"type": "unocc",
				"energy": 0.05119,
				"method": "rhf"
			},
			{
				"type": "unocc",
				"energy": 0.05838,
				"method": "rhf"
			},
			{
				"type": "unocc",
				"energy": 0.06571,
				"method": "rhf"
			},
			{
				"type": "unocc",
				"energy": 0.07151,
				"method": "rhf"
			}
		],
		"cosmo_sigma_profile": { 
			"-0.025": 0.0,
			"-0.024": 0.0,
			"-0.023": 0.0,
			"-0.022": 0.0,
			"-0.021": 0.0,
			"-0.02": 0.0,
			"-0.019": 0.0,
			"-0.018": 0.0,
			"-0.017": 0.0,
			"-0.016": 0.0,
			"-0.015": 0.405276086001,
			"-0.014": 1.64875508113,
			"-0.013": 1.56844450753,
			"-0.012": 2.18204414281,
			"-0.011": 1.60785845651,
			"-0.01": 1.94264434737,
			"-0.009": 1.9559328648,
			"-0.008": 2.77900432028,
			"-0.007": 6.46710393801,
			"-0.006": 11.5609595335,
			"-0.005": 11.9541556942,
			"-0.004": 16.469314928,
			"-0.003": 34.9728695244,
			"-0.002": 59.2329353931,
			"-0.001": 57.7060183129,
			"0.0": 52.8526421836,
			"0.001": 37.2866933424,
			"0.002": 21.5595809817,
			"0.003": 9.05675311113,
			"0.004": 6.62587559057,
			"0.005": 4.67251102682,
			"0.006": 4.49491728383,
			"0.007": 5.86957706936,
			"0.008": 5.97606016168,
			"0.009": 5.71812249274,
			"0.01": 6.19421048203,
			"0.011": 6.61642960389,
			"0.012": 8.46384493908,
			"0.013": 6.33605395362,
			"0.014": 1.65138891592,
			"0.015": 0.474105932094,
			"0.016": 0.0,
			"0.017": 0.0,
			"0.018": 0.0,
			"0.019": 0.0,
			"0.02": 0.0,
			"0.021": 0.0,
			"0.022": 0.0,
			"0.023": 0.0,
			"0.024": 0.0,
			"0.025": 0.0
		}
	}
}
