{
	 "smiles": "IC1=CC=C(C=C1)N1C=CC=C1", 
	 "Tm": 404.15, 
	 "num_atms": 20, 
	 "gaussian": { 
		 "optdone": 1, 
		 "sigma_profile": "no", 
		 "theory": "DFT", 
		 "functional": "B3LYP", 
		 "basiset": "6-31G**", 
		 "properties": { 
			 "R2extent": 2672.807, 
			 "electric_dipole_moment_norm": 0.962901500674, 
			 "electric_quadrupole_moment_norm": 11.0331685449, 
			 "total_energy": -452.004460049, 
			 "HOMO_LUMO_gap": 0.17884, 
			 "cosmo_polarized_energy": -105338.55, 
			 "cosmo_cavitation_energy": 26.96, 
			 "cosmo_dispersion_energy": -21.6, 
			 "cosmo_repulsion_energy": 1.64, 
			 "cosmo_total_nonelectrostatic_energy": 7.0, 
			 "SMD_solvation_energy": 4.38 
		},
		"coords": [
			{
				"x": 4.4392678201,
				"y": 0.1598629993,
				"z": -0.5574167498,
				"element": "I" 
			},
			{
				"x": 2.3215538811,
				"y": 0.1632223833,
				"z": -0.5556116676,
				"element": "C" 
			},
			{
				"x": 1.6239346223,
				"y": -0.0617168146,
				"z": 0.6308095819,
				"element": "C" 
			},
			{
				"x": 0.2309409177,
				"y": -0.0590668643,
				"z": 0.629727736,
				"element": "C" 
			},
			{
				"x": -0.4895846189,
				"y": 0.1676933135,
				"z": -0.5532222467,
				"element": "C" 
			},
			{
				"x": 0.2296462943,
				"y": 0.3921621137,
				"z": -1.7373984311,
				"element": "C" 
			},
			{
				"x": 1.6226365327,
				"y": 0.3903810032,
				"z": -1.740846425,
				"element": "C" 
			},
			{
				"x": -1.9049180992,
				"y": 0.1699555777,
				"z": -0.5520164203,
				"element": "N" 
			},
			{
				"x": -2.7227846525,
				"y": -0.039371992,
				"z": 0.5516360163,
				"element": "C" 
			},
			{
				"x": -4.0318530492,
				"y": 0.0395354377,
				"z": 0.1504979816,
				"element": "C" 
			},
			{
				"x": -4.0326204775,
				"y": 0.3071815008,
				"z": -1.2509012423,
				"element": "C" 
			},
			{
				"x": -2.7239929775,
				"y": 0.3819253961,
				"z": -1.654266784,
				"element": "C" 
			},
			{
				"x": 2.1546039566,
				"y": -0.2396522201,
				"z": 1.5593437005,
				"element": "H" 
			},
			{
				"x": -0.282350133,
				"y": -0.2366655136,
				"z": 1.5662747201,
				"element": "H" 
			},
			{
				"x": -0.2846713431,
				"y": 0.5713982079,
				"z": -2.6730694055,
				"element": "H" 
			},
			{
				"x": 2.1522917834,
				"y": 0.5666289742,
				"z": -2.6702809428,
				"element": "H" 
			},
			{
				"x": -2.3145731223,
				"y": -0.2270189106,
				"z": 1.530199489,
				"element": "H" 
			},
			{
				"x": -4.8933016922,
				"y": -0.0814597509,
				"z": 0.7920136848,
				"element": "H" 
			},
			{
				"x": -4.8947711696,
				"y": 0.4309242215,
				"z": -1.890948838,
				"element": "H" 
			},
			{
				"x": -2.3168544734,
				"y": 0.5682809372,
				"z": -2.6335237572,
				"element": "H" 
			}
		],
		 "valence_orbital": [ 
			{
				"type": "occ",
				"energy": -0.27196,
				"method": "rhf"
			},
			{
				"type": "occ",
				"energy": -0.27023,
				"method": "rhf"
			},
			{
				"type": "occ",
				"energy": -0.26413,
				"method": "rhf"
			},
			{
				"type": "occ",
				"energy": -0.21863,
				"method": "rhf"
			},
			{
				"type": "occ",
				"energy": -0.21859,
				"method": "rhf"
			},
			{
				"type": "unocc",
				"energy": -0.03975,
				"method": "rhf"
			},
			{
				"type": "unocc",
				"energy": -0.03077,
				"method": "rhf"
			},
			{
				"type": "unocc",
				"energy": -0.02186,
				"method": "rhf"
			},
			{
				"type": "unocc",
				"energy": 0.04031,
				"method": "rhf"
			},
			{
				"type": "unocc",
				"energy": 0.04145,
				"method": "rhf"
			}
		],
		"cosmo_sigma_profile": { 
			"0.0": 0.0,
			"0.0": 0.0,
			"0.0": 0.0,
			"0.0": 0.0,
			"0.0": 0.0,
			"0.0": 0.0,
			"0.0": 0.0,
			"0.0": 0.0,
			"0.0": 0.0,
			"0.0": 0.0,
			"0.0": 0.0,
			"0.0": 0.0,
			"0.0": 0.0,
			"0.0": 0.0,
			"0.0": 0.0,
			"0.0": 0.0,
			"0.0": 0.0,
			"0.0": 0.0,
			"0.0": 0.0,
			"0.0": 0.0,
			"0.0": 0.0,
			"0.0": 0.0,
			"0.0": 0.0,
			"0.0": 0.0,
			"0.0": 0.0,
			"0.0": 0.0,
			"0.0": 0.0,
			"0.0": 0.0,
			"0.0": 0.0,
			"0.0": 0.0,
			"0.0": 0.0,
			"0.0": 0.0,
			"0.0": 0.0,
			"0.0": 0.0,
			"0.0": 0.0,
			"0.0": 0.0,
			"0.0": 0.0,
			"0.0": 0.0,
			"0.0": 0.0,
			"0.0": 0.0,
			"0.0": 0.0,
			"0.0": 0.0,
			"0.0": 0.0,
			"0.0": 0.0,
			"0.0": 0.0,
			"0.0": 0.0,
			"0.0": 0.0,
			"0.0": 0.0,
			"0.0": 0.0,
			"0.0": 0.0,
			"0.0": 0.0
		}
	}
}
