{
	 "smiles": "CN1C2=C(C3=C(CCCC3)S2)C(=O)N(C1=O)C1=CC(Cl)=CC=C1", 
	 "Tm": 513.15, 
	 "num_atms": 38, 
	 "gaussian": { 
		 "optdone": 1, 
		 "sigma_profile": "yes", 
		 "theory": "DFT", 
		 "functional": "B3LYP", 
		 "basiset": "6-31G**", 
		 "properties": { 
			 "R2extent": 10764.3173, 
			 "electric_dipole_moment_norm": 4.81360646293, 
			 "electric_quadrupole_moment_norm": 14.5194441333, 
			 "total_energy": -1775.22700046, 
			 "HOMO_LUMO_gap": 0.17736, 
			 "cosmo_polarized_energy": -14.69, 
			 "cosmo_cavitation_energy": 43.67, 
			 "cosmo_dispersion_energy": -31.91, 
			 "cosmo_repulsion_energy": 2.38, 
			 "cosmo_total_nonelectrostatic_energy": 14.15, 
			 "SMD_solvation_energy": 7.1 
		},
		"coords": [
			{
				"x": 2.5401212533,
				"y": -3.2963421733,
				"z": 1.0878530184,
				"element": "C" 
			},
			{
				"x": 1.5604775346,
				"y": -2.2954925517,
				"z": 0.6678060066,
				"element": "N" 
			},
			{
				"x": 0.6957343275,
				"y": -1.7277118733,
				"z": 1.5729613162,
				"element": "C" 
			},
			{
				"x": -0.2502112275,
				"y": -0.7791226876,
				"z": 1.2475805055,
				"element": "C" 
			},
			{
				"x": -1.0244339862,
				"y": -0.3465726509,
				"z": 2.3870252558,
				"element": "C" 
			},
			{
				"x": -0.6528998722,
				"y": -0.9798264097,
				"z": 3.5371915543,
				"element": "C" 
			},
			{
				"x": -1.2526887985,
				"y": -0.7666514457,
				"z": 4.8994946073,
				"element": "C" 
			},
			{
				"x": -2.5986325151,
				"y": -0.0283789901,
				"z": 4.7635693789,
				"element": "C" 
			},
			{
				"x": -2.4928207144,
				"y": 1.1480717383,
				"z": 3.7821558439,
				"element": "C" 
			},
			{
				"x": -2.1344592135,
				"y": 0.6765716478,
				"z": 2.3627342851,
				"element": "C" 
			},
			{
				"x": 0.6678643676,
				"y": -2.1232189607,
				"z": 3.2687989045,
				"element": "S" 
			},
			{
				"x": -0.3635667557,
				"y": -0.3279856211,
				"z": -0.1269073993,
				"element": "C" 
			},
			{
				"x": -1.151428459,
				"y": 0.5079079889,
				"z": -0.5426299357,
				"element": "O" 
			},
			{
				"x": 0.5602452257,
				"y": -0.9593846654,
				"z": -1.0190582131,
				"element": "N" 
			},
			{
				"x": 1.5228755594,
				"y": -1.924817047,
				"z": -0.6829468185,
				"element": "C" 
			},
			{
				"x": 2.2791860465,
				"y": -2.4133559199,
				"z": -1.5056402152,
				"element": "O" 
			},
			{
				"x": 0.5053195092,
				"y": -0.5685620709,
				"z": -2.4087699348,
				"element": "C" 
			},
			{
				"x": 0.0007368892,
				"y": -1.4645321582,
				"z": -3.3506730258,
				"element": "C" 
			},
			{
				"x": -0.052281347,
				"y": -1.0725560825,
				"z": -4.6858316123,
				"element": "C" 
			},
			{
				"x": -0.6800932981,
				"y": -2.1971948821,
				"z": -5.8827542602,
				"element": "Cl" 
			},
			{
				"x": 0.3773699851,
				"y": 0.1904906,
				"z": -5.0910826603,
				"element": "C" 
			},
			{
				"x": 0.8724388767,
				"y": 1.0731357293,
				"z": -4.1306881843,
				"element": "C" 
			},
			{
				"x": 0.9416393669,
				"y": 0.6993549139,
				"z": -2.7894629023,
				"element": "C" 
			},
			{
				"x": 3.216552188,
				"y": -2.8719826746,
				"z": 1.8367148772,
				"element": "H" 
			},
			{
				"x": 2.0318091249,
				"y": -4.1677423848,
				"z": 1.5129836319,
				"element": "H" 
			},
			{
				"x": 3.1044465399,
				"y": -3.5921828918,
				"z": 0.2063308462,
				"element": "H" 
			},
			{
				"x": -0.5668241337,
				"y": -0.178605908,
				"z": 5.5266228425,
				"element": "H" 
			},
			{
				"x": -1.3971101398,
				"y": -1.722860652,
				"z": 5.4174312269,
				"element": "H" 
			},
			{
				"x": -3.3608045028,
				"y": -0.7323103787,
				"z": 4.4055217987,
				"element": "H" 
			},
			{
				"x": -2.9243448838,
				"y": 0.3192281214,
				"z": 5.7500435977,
				"element": "H" 
			},
			{
				"x": -1.723069711,
				"y": 1.8450373743,
				"z": 4.1397739752,
				"element": "H" 
			},
			{
				"x": -3.4345623571,
				"y": 1.7068542622,
				"z": 3.7568818449,
				"element": "H" 
			},
			{
				"x": -3.014628855,
				"y": 0.2360409388,
				"z": 1.8746453021,
				"element": "H" 
			},
			{
				"x": -1.8468003534,
				"y": 1.5182732506,
				"z": 1.7267577119,
				"element": "H" 
			},
			{
				"x": -0.3352027479,
				"y": -2.4490971269,
				"z": -3.0493581082,
				"element": "H" 
			},
			{
				"x": 0.3237706514,
				"y": 0.4734397668,
				"z": -6.1362686891,
				"element": "H" 
			},
			{
				"x": 1.2072922117,
				"y": 2.0602405451,
				"z": -4.4337653505,
				"element": "H" 
			},
			{
				"x": 1.3226842139,
				"y": 1.3840413298,
				"z": -2.0403410224,
				"element": "H" 
			}
		],
		 "valence_orbital": [ 
			{
				"type": "occ",
				"energy": -0.26445,
				"method": "rhf"
			},
			{
				"type": "occ",
				"energy": -0.26058,
				"method": "rhf"
			},
			{
				"type": "occ",
				"energy": -0.25501,
				"method": "rhf"
			},
			{
				"type": "occ",
				"energy": -0.24347,
				"method": "rhf"
			},
			{
				"type": "occ",
				"energy": -0.21417,
				"method": "rhf"
			},
			{
				"type": "unocc",
				"energy": -0.03681,
				"method": "rhf"
			},
			{
				"type": "unocc",
				"energy": -0.01441,
				"method": "rhf"
			},
			{
				"type": "unocc",
				"energy": -0.01108,
				"method": "rhf"
			},
			{
				"type": "unocc",
				"energy": -0.00634,
				"method": "rhf"
			},
			{
				"type": "unocc",
				"energy": 0.00225,
				"method": "rhf"
			}
		],
		"cosmo_sigma_profile": { 
			"-0.025": 0.0,
			"-0.024": 0.0,
			"-0.023": 0.0,
			"-0.022": 0.0,
			"-0.021": 0.0,
			"-0.02": 0.0,
			"-0.019": 0.0,
			"-0.018": 0.0,
			"-0.017": 0.0,
			"-0.016": 0.0,
			"-0.015": 0.0,
			"-0.014": 0.0,
			"-0.013": 0.0,
			"-0.012": 0.0,
			"-0.011": 0.0,
			"-0.01": 0.0,
			"-0.009": 0.0,
			"-0.008": 2.1951645168,
			"-0.007": 9.17349236962,
			"-0.006": 16.2537737985,
			"-0.005": 21.1537986746,
			"-0.004": 25.8815458317,
			"-0.003": 36.6003581911,
			"-0.002": 35.233519877,
			"-0.001": 36.1474871247,
			"0.0": 29.5477285864,
			"0.001": 29.8186255492,
			"0.002": 24.4838050594,
			"0.003": 24.3398810875,
			"0.004": 17.884857841,
			"0.005": 8.80558415777,
			"0.006": 3.6828650134,
			"0.007": 3.84532223544,
			"0.008": 2.87328695019,
			"0.009": 4.01140638319,
			"0.01": 3.87212315404,
			"0.011": 4.98191034552,
			"0.012": 7.72297200521,
			"0.013": 3.29834384679,
			"0.014": 0.0440422371649,
			"0.015": 0.0,
			"0.016": 0.0,
			"0.017": 0.0,
			"0.018": 0.0,
			"0.019": 0.0,
			"0.02": 0.0,
			"0.021": 0.0,
			"0.022": 0.0,
			"0.023": 0.0,
			"0.024": 0.0,
			"0.025": 0.0
		}
	}
}
