{
	 "smiles": "OC(=O)C1CCC(CC1)NC(=O)CCN1C=CN=C1", 
	 "Tm": 503.15, 
	 "num_atms": 38, 
	 "gaussian": { 
		 "optdone": 1, 
		 "sigma_profile": "yes", 
		 "theory": "DFT", 
		 "functional": "B3LYP", 
		 "basiset": "6-31G**", 
		 "properties": { 
			 "R2extent": 4980.4815, 
			 "electric_dipole_moment_norm": 5.40457140391, 
			 "electric_quadrupole_moment_norm": 41.0609244862, 
			 "total_energy": -896.784553599, 
			 "HOMO_LUMO_gap": 0.23827, 
			 "cosmo_polarized_energy": -24.69, 
			 "cosmo_cavitation_energy": 37.12, 
			 "cosmo_dispersion_energy": -25.44, 
			 "cosmo_repulsion_energy": 1.9, 
			 "cosmo_total_nonelectrostatic_energy": 13.58, 
			 "SMD_solvation_energy": 6.23 
		},
		"coords": [
			{
				"x": 0.9622801715,
				"y": -3.8237154509,
				"z": -0.3393663506,
				"element": "O" 
			},
			{
				"x": 1.9492817987,
				"y": -3.0760194173,
				"z": -0.8875194721,
				"element": "C" 
			},
			{
				"x": 2.91309804,
				"y": -3.5943927005,
				"z": -1.4024002116,
				"element": "O" 
			},
			{
				"x": 1.7447980393,
				"y": -1.5739081679,
				"z": -0.7546743524,
				"element": "C" 
			},
			{
				"x": 2.1582551145,
				"y": -1.1083643721,
				"z": 0.6633404891,
				"element": "C" 
			},
			{
				"x": 1.9678545663,
				"y": 0.4247972679,
				"z": 0.8343999285,
				"element": "C" 
			},
			{
				"x": 1.2298193387,
				"y": 1.0155465638,
				"z": -0.3785777968,
				"element": "C" 
			},
			{
				"x": 2.050906164,
				"y": 0.7812930952,
				"z": -1.6623527682,
				"element": "C" 
			},
			{
				"x": 2.4679107198,
				"y": -0.7188208208,
				"z": -1.8047672674,
				"element": "C" 
			},
			{
				"x": 0.8463835658,
				"y": 2.4102662806,
				"z": -0.1524875119,
				"element": "N" 
			},
			{
				"x": -0.4396978901,
				"y": 2.8765942107,
				"z": -0.0496194469,
				"element": "C" 
			},
			{
				"x": -0.7190763,
				"y": 3.8896268239,
				"z": 0.581202412,
				"element": "O" 
			},
			{
				"x": -1.5451243584,
				"y": 2.1426778727,
				"z": -0.8254807035,
				"element": "C" 
			},
			{
				"x": -2.5655531039,
				"y": 1.4144156487,
				"z": 0.0696788038,
				"element": "C" 
			},
			{
				"x": -2.0756173736,
				"y": 0.1494007777,
				"z": 0.6273442384,
				"element": "N" 
			},
			{
				"x": -1.6557062563,
				"y": -0.0807820173,
				"z": 1.9231106974,
				"element": "C" 
			},
			{
				"x": -1.1922098574,
				"y": -1.3733150581,
				"z": 1.945075439,
				"element": "C" 
			},
			{
				"x": -1.3063785408,
				"y": -1.9443407697,
				"z": 0.6952849106,
				"element": "N" 
			},
			{
				"x": -1.848871604,
				"y": -1.0065027006,
				"z": -0.06379229,
				"element": "C" 
			},
			{
				"x": 0.2199252209,
				"y": -3.2716691627,
				"z": -0.0105869455,
				"element": "H" 
			},
			{
				"x": 0.6683126159,
				"y": -1.4197439239,
				"z": -0.8638239132,
				"element": "H" 
			},
			{
				"x": 3.205790737,
				"y": -1.386011092,
				"z": 0.8228278356,
				"element": "H" 
			},
			{
				"x": 1.5706473532,
				"y": -1.646731577,
				"z": 1.4113655468,
				"element": "H" 
			},
			{
				"x": 1.4008600494,
				"y": 0.6409064788,
				"z": 1.744941736,
				"element": "H" 
			},
			{
				"x": 2.9395942229,
				"y": 0.9260235751,
				"z": 0.935176505,
				"element": "H" 
			},
			{
				"x": 0.2923876765,
				"y": 0.4713551937,
				"z": -0.4745667398,
				"element": "H" 
			},
			{
				"x": 1.4579173067,
				"y": 1.1030744636,
				"z": -2.5259661224,
				"element": "H" 
			},
			{
				"x": 2.9362585306,
				"y": 1.4281251189,
				"z": -1.6409968331,
				"element": "H" 
			},
			{
				"x": 2.2433440546,
				"y": -1.0850143291,
				"z": -2.8107917248,
				"element": "H" 
			},
			{
				"x": 3.5475360689,
				"y": -0.8408534833,
				"z": -1.6735113606,
				"element": "H" 
			},
			{
				"x": 1.5034645177,
				"y": 2.988763009,
				"z": 0.3601174625,
				"element": "H" 
			},
			{
				"x": -1.158879406,
				"y": 1.4658842794,
				"z": -1.5919127323,
				"element": "H" 
			},
			{
				"x": -2.0889393603,
				"y": 2.9398063948,
				"z": -1.3420473483,
				"element": "H" 
			},
			{
				"x": -3.4704437448,
				"y": 1.2003883182,
				"z": -0.5066621589,
				"element": "H" 
			},
			{
				"x": -2.8469608106,
				"y": 2.0631767761,
				"z": 0.902106073,
				"element": "H" 
			},
			{
				"x": -1.7344576022,
				"y": 0.6774082736,
				"z": 2.6871684298,
				"element": "H" 
			},
			{
				"x": -0.7924813911,
				"y": -1.9248864853,
				"z": 2.783997042,
				"element": "H" 
			},
			{
				"x": -2.0958282731,
				"y": -1.1104588938,
				"z": -1.1118334991,
				"element": "H" 
			}
		],
		 "valence_orbital": [ 
			{
				"type": "occ",
				"energy": -0.29152,
				"method": "rhf"
			},
			{
				"type": "occ",
				"energy": -0.26705,
				"method": "rhf"
			},
			{
				"type": "occ",
				"energy": -0.25535,
				"method": "rhf"
			},
			{
				"type": "occ",
				"energy": -0.25434,
				"method": "rhf"
			},
			{
				"type": "occ",
				"energy": -0.24895,
				"method": "rhf"
			},
			{
				"type": "unocc",
				"energy": -0.01068,
				"method": "rhf"
			},
			{
				"type": "unocc",
				"energy": 0.00352,
				"method": "rhf"
			},
			{
				"type": "unocc",
				"energy": 0.02693,
				"method": "rhf"
			},
			{
				"type": "unocc",
				"energy": 0.03349,
				"method": "rhf"
			},
			{
				"type": "unocc",
				"energy": 0.06449,
				"method": "rhf"
			}
		],
		"cosmo_sigma_profile": { 
			"-0.025": 0.0,
			"-0.024": 0.0,
			"-0.023": 0.0,
			"-0.022": 0.0,
			"-0.021": 0.0,
			"-0.02": 0.0,
			"-0.019": 0.0,
			"-0.018": 0.0,
			"-0.017": 0.0,
			"-0.016": 0.0,
			"-0.015": 0.0,
			"-0.014": 0.0,
			"-0.013": 0.329639125969,
			"-0.012": 1.11022773488,
			"-0.011": 0.644970854431,
			"-0.01": 1.58603156136,
			"-0.009": 6.15998558822,
			"-0.008": 8.27560374168,
			"-0.007": 13.5162800411,
			"-0.006": 17.8424357237,
			"-0.005": 15.4636796509,
			"-0.004": 21.9371551826,
			"-0.003": 33.0143323096,
			"-0.002": 30.2752418645,
			"-0.001": 21.4420422235,
			"0.0": 20.1447746306,
			"0.001": 12.6220110597,
			"0.002": 8.37085586562,
			"0.003": 7.90894234624,
			"0.004": 7.01197070613,
			"0.005": 6.28807277418,
			"0.006": 5.53196700358,
			"0.007": 4.60956528313,
			"0.008": 5.40082066888,
			"0.009": 4.23616265797,
			"0.01": 4.6939765375,
			"0.011": 6.91865532828,
			"0.012": 9.18936553881,
			"0.013": 8.22076593088,
			"0.014": 6.45309256835,
			"0.015": 1.48938479661,
			"0.016": 0.0,
			"0.017": 0.0,
			"0.018": 0.0,
			"0.019": 0.0,
			"0.02": 0.0,
			"0.021": 0.0,
			"0.022": 0.0,
			"0.023": 0.0,
			"0.024": 0.0,
			"0.025": 0.0
		}
	}
}
