{
	 "smiles": "CCNC(=O)C1=C(N)C=CC=C1", 
	 "Tm": 367.15, 
	 "num_atms": 24, 
	 "gaussian": { 
		 "optdone": 1, 
		 "sigma_profile": "yes", 
		 "theory": "DFT", 
		 "functional": "B3LYP", 
		 "basiset": "6-31G**", 
		 "properties": { 
			 "R2extent": 2487.4696, 
			 "electric_dipole_moment_norm": 1.9334550318, 
			 "electric_quadrupole_moment_norm": 13.2752595315, 
			 "total_energy": -534.943358218, 
			 "HOMO_LUMO_gap": 0.17298, 
			 "cosmo_polarized_energy": -11.44, 
			 "cosmo_cavitation_energy": 26.72, 
			 "cosmo_dispersion_energy": -19.75, 
			 "cosmo_repulsion_energy": 1.6, 
			 "cosmo_total_nonelectrostatic_energy": 8.57, 
			 "SMD_solvation_energy": 4.62 
		},
		"coords": [
			{
				"x": 0.1409375708,
				"y": 1.857971503,
				"z": 3.067771778,
				"element": "C" 
			},
			{
				"x": -0.7469667946,
				"y": 1.7090344358,
				"z": 1.8314119587,
				"element": "C" 
			},
			{
				"x": -0.2389384625,
				"y": 2.4624222266,
				"z": 0.6833141152,
				"element": "N" 
			},
			{
				"x": -0.143838773,
				"y": 2.0617835076,
				"z": -0.6307106876,
				"element": "C" 
			},
			{
				"x": -0.2326067566,
				"y": 2.912983186,
				"z": -1.5256819194,
				"element": "O" 
			},
			{
				"x": 0.114659028,
				"y": 0.6232967994,
				"z": -0.9351657095,
				"element": "C" 
			},
			{
				"x": -0.3886429764,
				"y": 0.0608556084,
				"z": -2.1428369364,
				"element": "C" 
			},
			{
				"x": -1.1695136916,
				"y": 0.798519542,
				"z": -3.0061713681,
				"element": "N" 
			},
			{
				"x": -0.1146619013,
				"y": -1.2966107643,
				"z": -2.4118777193,
				"element": "C" 
			},
			{
				"x": 0.6673275134,
				"y": -2.0578504974,
				"z": -1.554576198,
				"element": "C" 
			},
			{
				"x": 1.2101872871,
				"y": -1.4938188731,
				"z": -0.3946000309,
				"element": "C" 
			},
			{
				"x": 0.9250530276,
				"y": -0.1649074128,
				"z": -0.1014702352,
				"element": "C" 
			},
			{
				"x": 0.2383864126,
				"y": 2.9093006358,
				"z": 3.3593114793,
				"element": "H" 
			},
			{
				"x": 1.1468468625,
				"y": 1.4690839597,
				"z": 2.8823796507,
				"element": "H" 
			},
			{
				"x": -0.2896376732,
				"y": 1.314052965,
				"z": 3.914919364,
				"element": "H" 
			},
			{
				"x": -0.8334208717,
				"y": 0.660825158,
				"z": 1.5436190846,
				"element": "H" 
			},
			{
				"x": -1.7635627765,
				"y": 2.0555674337,
				"z": 2.0651228852,
				"element": "H" 
			},
			{
				"x": -0.3800772182,
				"y": 3.4655589686,
				"z": 0.7272594585,
				"element": "H" 
			},
			{
				"x": -1.2749108928,
				"y": 0.4242844062,
				"z": -3.9371549853,
				"element": "H" 
			},
			{
				"x": -1.0207644739,
				"y": 1.8001466821,
				"z": -2.946056743,
				"element": "H" 
			},
			{
				"x": -0.5156850742,
				"y": -1.7388114707,
				"z": -3.3207312044,
				"element": "H" 
			},
			{
				"x": 0.8697754015,
				"y": -3.0966543879,
				"z": -1.801301146,
				"element": "H" 
			},
			{
				"x": 1.8473745135,
				"y": -2.0778421441,
				"z": 0.2613306472,
				"element": "H" 
			},
			{
				"x": 1.3637807194,
				"y": 0.2932085325,
				"z": 0.7792944617,
				"element": "H" 
			}
		],
		 "valence_orbital": [ 
			{
				"type": "occ",
				"energy": -0.30629,
				"method": "rhf"
			},
			{
				"type": "occ",
				"energy": -0.25945,
				"method": "rhf"
			},
			{
				"type": "occ",
				"energy": -0.24853,
				"method": "rhf"
			},
			{
				"type": "occ",
				"energy": -0.23979,
				"method": "rhf"
			},
			{
				"type": "occ",
				"energy": -0.19881,
				"method": "rhf"
			},
			{
				"type": "unocc",
				"energy": -0.02583,
				"method": "rhf"
			},
			{
				"type": "unocc",
				"energy": 0.0142,
				"method": "rhf"
			},
			{
				"type": "unocc",
				"energy": 0.05656,
				"method": "rhf"
			},
			{
				"type": "unocc",
				"energy": 0.08078,
				"method": "rhf"
			},
			{
				"type": "unocc",
				"energy": 0.10054,
				"method": "rhf"
			}
		],
		"cosmo_sigma_profile": { 
			"-0.025": 0.0,
			"-0.024": 0.0,
			"-0.023": 0.0,
			"-0.022": 0.0,
			"-0.021": 0.0,
			"-0.02": 0.0,
			"-0.019": 0.0,
			"-0.018": 0.0,
			"-0.017": 0.0,
			"-0.016": 0.0,
			"-0.015": 0.0,
			"-0.014": 0.0,
			"-0.013": 0.724777380174,
			"-0.012": 2.47105535502,
			"-0.011": 2.3508449367,
			"-0.01": 2.1288897683,
			"-0.009": 2.77396157003,
			"-0.008": 3.41387492644,
			"-0.007": 3.32591375233,
			"-0.006": 5.61946193286,
			"-0.005": 11.7471343215,
			"-0.004": 17.4467458594,
			"-0.003": 20.9434145825,
			"-0.002": 20.2521726111,
			"-0.001": 16.6991451342,
			"0.0": 15.1163252393,
			"0.001": 12.7836225581,
			"0.002": 8.62370653296,
			"0.003": 11.6530500954,
			"0.004": 11.7267211145,
			"0.005": 11.9929058748,
			"0.006": 8.79104299321,
			"0.007": 3.00506689502,
			"0.008": 2.6358440281,
			"0.009": 2.0046274196,
			"0.01": 2.10993811409,
			"0.011": 2.34079961547,
			"0.012": 2.62127996924,
			"0.013": 3.30140395056,
			"0.014": 2.30996962572,
			"0.015": 0.153616973379,
			"0.016": 0.0,
			"0.017": 0.0,
			"0.018": 0.0,
			"0.019": 0.0,
			"0.02": 0.0,
			"0.021": 0.0,
			"0.022": 0.0,
			"0.023": 0.0,
			"0.024": 0.0,
			"0.025": 0.0
		}
	}
}
