{
	 "smiles": "OC(C1CCOCC1)C1=C(Cl)C=CC=C1Cl", 
	 "Tm": 380.15, 
	 "num_atms": 30, 
	 "gaussian": { 
		 "optdone": 1, 
		 "sigma_profile": "yes", 
		 "theory": "DFT", 
		 "functional": "B3LYP", 
		 "basiset": "6-31G**", 
		 "properties": { 
			 "R2extent": 5091.7445, 
			 "electric_dipole_moment_norm": 3.49696454943, 
			 "electric_quadrupole_moment_norm": 9.29287347326, 
			 "total_energy": -1536.51832355, 
			 "HOMO_LUMO_gap": 0.19892, 
			 "cosmo_polarized_energy": -10.92, 
			 "cosmo_cavitation_energy": 34.22, 
			 "cosmo_dispersion_energy": -24.5, 
			 "cosmo_repulsion_energy": 1.91, 
			 "cosmo_total_nonelectrostatic_energy": 11.62, 
			 "SMD_solvation_energy": 4.9 
		},
		"coords": [
			{
				"x": 0.3604023933,
				"y": -1.4217807431,
				"z": 2.6797086536,
				"element": "O" 
			},
			{
				"x": -0.1209533309,
				"y": -0.5624138922,
				"z": 1.649788696,
				"element": "C" 
			},
			{
				"x": 0.9912027799,
				"y": -0.454755579,
				"z": 0.5855834352,
				"element": "C" 
			},
			{
				"x": 2.3260139142,
				"y": -0.0490607823,
				"z": 1.257487896,
				"element": "C" 
			},
			{
				"x": 3.2695215529,
				"y": 0.5876746044,
				"z": 0.240323259,
				"element": "C" 
			},
			{
				"x": 2.7531644563,
				"y": 1.7978939913,
				"z": -0.31820873,
				"element": "O" 
			},
			{
				"x": 1.3316379765,
				"y": 1.9020783405,
				"z": -0.3213044122,
				"element": "C" 
			},
			{
				"x": 0.6451079215,
				"y": 0.5548778287,
				"z": -0.5443638831,
				"element": "C" 
			},
			{
				"x": -1.4743312866,
				"y": -1.0394325197,
				"z": 1.1101344171,
				"element": "C" 
			},
			{
				"x": -1.7148351113,
				"y": -2.3588667683,
				"z": 0.6696382007,
				"element": "C" 
			},
			{
				"x": -0.4473320844,
				"y": -3.5799209647,
				"z": 0.6743054179,
				"element": "Cl" 
			},
			{
				"x": -2.9603677282,
				"y": -2.7847258454,
				"z": 0.2084008587,
				"element": "C" 
			},
			{
				"x": -4.0271594373,
				"y": -1.8918082518,
				"z": 0.1720590669,
				"element": "C" 
			},
			{
				"x": -3.8458068625,
				"y": -0.5802336972,
				"z": 0.5963012537,
				"element": "C" 
			},
			{
				"x": -2.5903704591,
				"y": -0.1800700904,
				"z": 1.0536082482,
				"element": "C" 
			},
			{
				"x": -2.4676069839,
				"y": 1.5069622947,
				"z": 1.5742260424,
				"element": "Cl" 
			},
			{
				"x": -0.2787660856,
				"y": -1.4096252977,
				"z": 3.4037727839,
				"element": "H" 
			},
			{
				"x": -0.2737301877,
				"y": 0.4431999091,
				"z": 2.0587797865,
				"element": "H" 
			},
			{
				"x": 1.1228657835,
				"y": -1.444240601,
				"z": 0.1395092734,
				"element": "H" 
			},
			{
				"x": 2.141158065,
				"y": 0.6693674949,
				"z": 2.0661476125,
				"element": "H" 
			},
			{
				"x": 2.798873579,
				"y": -0.9189712514,
				"z": 1.7203337498,
				"element": "H" 
			},
			{
				"x": 3.4850538521,
				"y": -0.1325856339,
				"z": -0.5668294379,
				"element": "H" 
			},
			{
				"x": 4.2270747708,
				"y": 0.8459804246,
				"z": 0.7063980717,
				"element": "H" 
			},
			{
				"x": 1.0806581297,
				"y": 2.6035779281,
				"z": -1.1239872926,
				"element": "H" 
			},
			{
				"x": 0.9782301365,
				"y": 2.3513320068,
				"z": 0.621741484,
				"element": "H" 
			},
			{
				"x": -0.4357318999,
				"y": 0.7058395423,
				"z": -0.6333293316,
				"element": "H" 
			},
			{
				"x": 0.9796744438,
				"y": 0.1540701028,
				"z": -1.5075632952,
				"element": "H" 
			},
			{
				"x": -3.081179322,
				"y": -3.8113897997,
				"z": -0.1174163425,
				"element": "H" 
			},
			{
				"x": -4.9983505869,
				"y": -2.2188630353,
				"z": -0.1856184655,
				"element": "H" 
			},
			{
				"x": -4.6615183886,
				"y": 0.1329902849,
				"z": 0.5790729833,
				"element": "H" 
			}
		],
		 "valence_orbital": [ 
			{
				"type": "occ",
				"energy": -0.28202,
				"method": "rhf"
			},
			{
				"type": "occ",
				"energy": -0.27654,
				"method": "rhf"
			},
			{
				"type": "occ",
				"energy": -0.2612,
				"method": "rhf"
			},
			{
				"type": "occ",
				"energy": -0.25518,
				"method": "rhf"
			},
			{
				"type": "occ",
				"energy": -0.23337,
				"method": "rhf"
			},
			{
				"type": "unocc",
				"energy": -0.03445,
				"method": "rhf"
			},
			{
				"type": "unocc",
				"energy": -0.02935,
				"method": "rhf"
			},
			{
				"type": "unocc",
				"energy": 0.0001,
				"method": "rhf"
			},
			{
				"type": "unocc",
				"energy": 0.04648,
				"method": "rhf"
			},
			{
				"type": "unocc",
				"energy": 0.07717,
				"method": "rhf"
			}
		],
		"cosmo_sigma_profile": { 
			"-0.025": 0.0,
			"-0.024": 0.0,
			"-0.023": 0.0,
			"-0.022": 0.0,
			"-0.021": 0.0,
			"-0.02": 0.0,
			"-0.019": 0.0,
			"-0.018": 0.0,
			"-0.017": 0.0,
			"-0.016": 0.646867541785,
			"-0.015": 0.965219351428,
			"-0.014": 1.04411528863,
			"-0.013": 0.933179842414,
			"-0.012": 0.734822741152,
			"-0.011": 1.1807511331,
			"-0.01": 0.386439315702,
			"-0.009": 0.346843705511,
			"-0.008": 2.85080004657,
			"-0.007": 6.97512404566,
			"-0.006": 7.97425611767,
			"-0.005": 7.26726301581,
			"-0.004": 13.1673788473,
			"-0.003": 26.671486719,
			"-0.002": 33.1524011574,
			"-0.001": 29.2402013384,
			"0.0": 26.3217720223,
			"0.001": 24.9187696828,
			"0.002": 22.974208601,
			"0.003": 19.4303219025,
			"0.004": 14.1004031744,
			"0.005": 6.59655299747,
			"0.006": 3.50292473089,
			"0.007": 2.96251504006,
			"0.008": 2.95492443583,
			"0.009": 3.52724487024,
			"0.01": 2.15515116981,
			"0.011": 2.17346256835,
			"0.012": 3.59661705127,
			"0.013": 2.15082980635,
			"0.014": 1.98170086679,
			"0.015": 0.426514075373,
			"0.016": 0.0,
			"0.017": 0.0,
			"0.018": 0.0,
			"0.019": 0.0,
			"0.02": 0.0,
			"0.021": 0.0,
			"0.022": 0.0,
			"0.023": 0.0,
			"0.024": 0.0,
			"0.025": 0.0
		}
	}
}
