{
	 "smiles": "CSC(SC)=NS(C)(=O)=O", 
	 "Tm": 362.15, 
	 "num_atms": 19, 
	 "gaussian": { 
		 "optdone": 1, 
		 "sigma_profile": "yes", 
		 "theory": "DFT", 
		 "functional": "B3LYP", 
		 "basiset": "6-31G**", 
		 "properties": { 
			 "R2extent": 2816.1072, 
			 "electric_dipole_moment_norm": 4.80934131561, 
			 "electric_quadrupole_moment_norm": 20.4774920469, 
			 "total_energy": -1557.53291153, 
			 "HOMO_LUMO_gap": 0.21462, 
			 "cosmo_polarized_energy": -16.53, 
			 "cosmo_cavitation_energy": 26.99, 
			 "cosmo_dispersion_energy": -20.78, 
			 "cosmo_repulsion_energy": 1.57, 
			 "cosmo_total_nonelectrostatic_energy": 7.78, 
			 "SMD_solvation_energy": 4.6 
		},
		"coords": [
			{
				"x": 1.4014021028,
				"y": -2.8536293863,
				"z": -1.3317048015,
				"element": "C" 
			},
			{
				"x": 1.2408602774,
				"y": -1.0725456037,
				"z": -1.6808313181,
				"element": "S" 
			},
			{
				"x": -0.071236774,
				"y": -0.6272526676,
				"z": -0.5612953085,
				"element": "C" 
			},
			{
				"x": -0.6083254247,
				"y": 1.0712170706,
				"z": -0.601007528,
				"element": "S" 
			},
			{
				"x": 0.2834293977,
				"y": 1.7709455317,
				"z": -2.0368584935,
				"element": "C" 
			},
			{
				"x": -0.5309011482,
				"y": -1.5492841251,
				"z": 0.2122604683,
				"element": "N" 
			},
			{
				"x": -1.8542599457,
				"y": -1.3122301072,
				"z": 1.2479438082,
				"element": "S" 
			},
			{
				"x": -1.4243959016,
				"y": -2.5261588729,
				"z": 2.5012713833,
				"element": "C" 
			},
			{
				"x": -1.819211439,
				"y": 0.0196383292,
				"z": 1.8692610594,
				"element": "O" 
			},
			{
				"x": -3.0651070008,
				"y": -1.7652714498,
				"z": 0.5573669116,
				"element": "O" 
			},
			{
				"x": 1.717206319,
				"y": -3.0137473986,
				"z": -0.3009523313,
				"element": "H" 
			},
			{
				"x": 2.1643272816,
				"y": -3.2177944715,
				"z": -2.0232698268,
				"element": "H" 
			},
			{
				"x": 0.4524130685,
				"y": -3.358935144,
				"z": -1.5109668527,
				"element": "H" 
			},
			{
				"x": 1.363543179,
				"y": 1.7844312558,
				"z": -1.8820395514,
				"element": "H" 
			},
			{
				"x": -0.0773311626,
				"y": 2.8004405395,
				"z": -2.0977567831,
				"element": "H" 
			},
			{
				"x": 0.0344380671,
				"y": 1.2506397616,
				"z": -2.9628125003,
				"element": "H" 
			},
			{
				"x": -2.2350746151,
				"y": -2.5130327577,
				"z": 3.2318882878,
				"element": "H" 
			},
			{
				"x": -0.4834181521,
				"y": -2.2347217673,
				"z": 2.9684171149,
				"element": "H" 
			},
			{
				"x": -1.3460581292,
				"y": -3.5063087368,
				"z": 2.0314862617,
				"element": "H" 
			}
		],
		 "valence_orbital": [ 
			{
				"type": "occ",
				"energy": -0.3063,
				"method": "rhf"
			},
			{
				"type": "occ",
				"energy": -0.29397,
				"method": "rhf"
			},
			{
				"type": "occ",
				"energy": -0.27071,
				"method": "rhf"
			},
			{
				"type": "occ",
				"energy": -0.25978,
				"method": "rhf"
			},
			{
				"type": "occ",
				"energy": -0.25462,
				"method": "rhf"
			},
			{
				"type": "unocc",
				"energy": -0.04,
				"method": "rhf"
			},
			{
				"type": "unocc",
				"energy": 0.00247,
				"method": "rhf"
			},
			{
				"type": "unocc",
				"energy": 0.01253,
				"method": "rhf"
			},
			{
				"type": "unocc",
				"energy": 0.05388,
				"method": "rhf"
			},
			{
				"type": "unocc",
				"energy": 0.06576,
				"method": "rhf"
			}
		],
		"cosmo_sigma_profile": { 
			"-0.025": 0.0,
			"-0.024": 0.0,
			"-0.023": 0.0,
			"-0.022": 0.0,
			"-0.021": 0.0,
			"-0.02": 0.0,
			"-0.019": 0.0,
			"-0.018": 0.0,
			"-0.017": 0.0,
			"-0.016": 0.0,
			"-0.015": 0.0,
			"-0.014": 0.0,
			"-0.013": 0.0,
			"-0.012": 0.0,
			"-0.011": 0.0,
			"-0.01": 0.0866006844182,
			"-0.009": 2.81668062838,
			"-0.008": 8.72993873374,
			"-0.007": 11.9856418323,
			"-0.006": 14.2917090064,
			"-0.005": 17.0447229195,
			"-0.004": 19.3284132072,
			"-0.003": 20.4435949644,
			"-0.002": 14.8706484753,
			"-0.001": 10.4808194446,
			"0.0": 11.9392469629,
			"0.001": 9.26685722971,
			"0.002": 9.18630176199,
			"0.003": 8.76806775128,
			"0.004": 8.82497764161,
			"0.005": 7.62184181879,
			"0.006": 4.62228004334,
			"0.007": 3.5753822234,
			"0.008": 3.69494654708,
			"0.009": 4.4732736247,
			"0.01": 5.95269475911,
			"0.011": 13.208070084,
			"0.012": 6.19869054021,
			"0.013": 0.0424802956294,
			"0.014": 0.0,
			"0.015": 0.0,
			"0.016": 0.0,
			"0.017": 0.0,
			"0.018": 0.0,
			"0.019": 0.0,
			"0.02": 0.0,
			"0.021": 0.0,
			"0.022": 0.0,
			"0.023": 0.0,
			"0.024": 0.0,
			"0.025": 0.0
		}
	}
}
