{
	 "smiles": "CN(C)C1=CC=C(C=C(C#N)C(N)=S)C=C1", 
	 "Tm": 462.15, 
	 "num_atms": 29, 
	 "gaussian": { 
		 "optdone": 1, 
		 "sigma_profile": "yes", 
		 "theory": "DFT", 
		 "functional": "B3LYP", 
		 "basiset": "6-31G**", 
		 "properties": { 
			 "R2extent": 5743.4714, 
			 "electric_dipole_moment_norm": 11.4622077795, 
			 "electric_quadrupole_moment_norm": 18.8847097552, 
			 "total_energy": -1027.5188285, 
			 "HOMO_LUMO_gap": 0.12919, 
			 "cosmo_polarized_energy": -25.04, 
			 "cosmo_cavitation_energy": 35.47, 
			 "cosmo_dispersion_energy": -24.83, 
			 "cosmo_repulsion_energy": 1.91, 
			 "cosmo_total_nonelectrostatic_energy": 12.55, 
			 "SMD_solvation_energy": 6.27 
		},
		"coords": [
			{
				"x": -3.1312730522,
				"y": 2.1167365571,
				"z": -2.2141816921,
				"element": "C" 
			},
			{
				"x": -2.192954826,
				"y": 1.2316559333,
				"z": -2.8874466462,
				"element": "N" 
			},
			{
				"x": -2.3639111131,
				"y": 0.9657290065,
				"z": -4.3073459937,
				"element": "C" 
			},
			{
				"x": -1.2881921342,
				"y": 0.4971563118,
				"z": -2.1533927681,
				"element": "C" 
			},
			{
				"x": -1.1760957534,
				"y": 0.6546488893,
				"z": -0.7473277587,
				"element": "C" 
			},
			{
				"x": -0.2483316645,
				"y": -0.0639966374,
				"z": -0.0133156558,
				"element": "C" 
			},
			{
				"x": 0.6213823693,
				"y": -0.9927231969,
				"z": -0.6254615593,
				"element": "C" 
			},
			{
				"x": 1.6010666237,
				"y": -1.8029607984,
				"z": 0.0788436942,
				"element": "C" 
			},
			{
				"x": 2.1713062846,
				"y": -1.6463798535,
				"z": 1.3092812139,
				"element": "C" 
			},
			{
				"x": 3.036582796,
				"y": -2.6795550789,
				"z": 1.7910068893,
				"element": "C" 
			},
			{
				"x": 3.7630362185,
				"y": -3.516733315,
				"z": 2.1486055902,
				"element": "N" 
			},
			{
				"x": 1.9854230432,
				"y": -0.4727171813,
				"z": 2.2255237371,
				"element": "C" 
			},
			{
				"x": 2.3749328392,
				"y": 0.7030519875,
				"z": 1.6951751686,
				"element": "N" 
			},
			{
				"x": 1.3645661592,
				"y": -0.6230531782,
				"z": 3.7590763877,
				"element": "S" 
			},
			{
				"x": 0.4744975849,
				"y": -1.1782577835,
				"z": -2.016320191,
				"element": "C" 
			},
			{
				"x": -0.4379564642,
				"y": -0.4566253446,
				"z": -2.7671365554,
				"element": "C" 
			},
			{
				"x": -3.8085830968,
				"y": 1.5741012325,
				"z": -1.5394871307,
				"element": "H" 
			},
			{
				"x": -2.6074055865,
				"y": 2.8807169207,
				"z": -1.6274769058,
				"element": "H" 
			},
			{
				"x": -3.7369969611,
				"y": 2.6305086878,
				"z": -2.9611364895,
				"element": "H" 
			},
			{
				"x": -1.4242461581,
				"y": 1.1068398472,
				"z": -4.8548229505,
				"element": "H" 
			},
			{
				"x": -2.7213730344,
				"y": -0.0555646448,
				"z": -4.5019816995,
				"element": "H" 
			},
			{
				"x": -3.0939743373,
				"y": 1.6642227022,
				"z": -4.7171056982,
				"element": "H" 
			},
			{
				"x": -1.8348838193,
				"y": 1.3338928866,
				"z": -0.2209874364,
				"element": "H" 
			},
			{
				"x": -0.2291035694,
				"y": 0.0675615423,
				"z": 1.0626115224,
				"element": "H" 
			},
			{
				"x": 1.9134746848,
				"y": -2.6964300446,
				"z": -0.4591906098,
				"element": "H" 
			},
			{
				"x": 2.757216412,
				"y": 0.7581826744,
				"z": 0.7625730858,
				"element": "H" 
			},
			{
				"x": 2.2607855963,
				"y": 1.548286174,
				"z": 2.2362445647,
				"element": "H" 
			},
			{
				"x": 1.1031422999,
				"y": -1.9086827539,
				"z": -2.5198928996,
				"element": "H" 
			},
			{
				"x": -0.5001313412,
				"y": -0.6428115421,
				"z": -3.8318312137,
				"element": "H" 
			}
		],
		 "valence_orbital": [ 
			{
				"type": "occ",
				"energy": -0.26894,
				"method": "rhf"
			},
			{
				"type": "occ",
				"energy": -0.26646,
				"method": "rhf"
			},
			{
				"type": "occ",
				"energy": -0.23657,
				"method": "rhf"
			},
			{
				"type": "occ",
				"energy": -0.21683,
				"method": "rhf"
			},
			{
				"type": "occ",
				"energy": -0.20091,
				"method": "rhf"
			},
			{
				"type": "unocc",
				"energy": -0.07172,
				"method": "rhf"
			},
			{
				"type": "unocc",
				"energy": -0.03134,
				"method": "rhf"
			},
			{
				"type": "unocc",
				"energy": -0.0145,
				"method": "rhf"
			},
			{
				"type": "unocc",
				"energy": 0.02922,
				"method": "rhf"
			},
			{
				"type": "unocc",
				"energy": 0.05043,
				"method": "rhf"
			}
		],
		"cosmo_sigma_profile": { 
			"-0.025": 0.0,
			"-0.024": 0.0,
			"-0.023": 0.0,
			"-0.022": 0.0,
			"-0.021": 0.0,
			"-0.02": 0.0,
			"-0.019": 0.0,
			"-0.018": 0.0,
			"-0.017": 0.0,
			"-0.016": 0.784384442773,
			"-0.015": 2.21985487937,
			"-0.014": 2.37388975476,
			"-0.013": 2.70434870201,
			"-0.012": 1.28925335262,
			"-0.011": 2.03545342255,
			"-0.01": 2.20642827543,
			"-0.009": 1.66028983976,
			"-0.008": 5.2146005088,
			"-0.007": 7.43335353935,
			"-0.006": 12.8270648302,
			"-0.005": 19.8153000617,
			"-0.004": 24.0005270001,
			"-0.003": 23.2713183168,
			"-0.002": 25.2058631287,
			"-0.001": 17.465114277,
			"0.0": 12.6620935589,
			"0.001": 13.7609165698,
			"0.002": 13.0529889949,
			"0.003": 12.8427558448,
			"0.004": 15.5349239815,
			"0.005": 12.7833911806,
			"0.006": 7.73895588272,
			"0.007": 9.12590988828,
			"0.008": 9.62047963966,
			"0.009": 8.31299433204,
			"0.01": 7.40249889854,
			"0.011": 6.34486933349,
			"0.012": 3.20110781737,
			"0.013": 2.20235630859,
			"0.014": 0.696107160891,
			"0.015": 0.0,
			"0.016": 0.0,
			"0.017": 0.0,
			"0.018": 0.0,
			"0.019": 0.0,
			"0.02": 0.0,
			"0.021": 0.0,
			"0.022": 0.0,
			"0.023": 0.0,
			"0.024": 0.0,
			"0.025": 0.0
		}
	}
}
