{
	 "smiles": "CSC1=NC(C)=C(CC(O)=O)S1", 
	 "Tm": 420.15, 
	 "num_atms": 21, 
	 "gaussian": { 
		 "optdone": 1, 
		 "sigma_profile": "yes", 
		 "theory": "DFT", 
		 "functional": "B3LYP", 
		 "basiset": "6-31G**", 
		 "properties": { 
			 "R2extent": 3400.3424, 
			 "electric_dipole_moment_norm": 5.07508435595, 
			 "electric_quadrupole_moment_norm": 18.907918753, 
			 "total_energy": -1273.74956623, 
			 "HOMO_LUMO_gap": 0.1869, 
			 "cosmo_polarized_energy": -14.6, 
			 "cosmo_cavitation_energy": 28.6, 
			 "cosmo_dispersion_energy": -21.19, 
			 "cosmo_repulsion_energy": 1.64, 
			 "cosmo_total_nonelectrostatic_energy": 9.05, 
			 "SMD_solvation_energy": 4.68 
		},
		"coords": [
			{
				"x": 1.4009408299,
				"y": -2.9037970196,
				"z": 2.2940491674,
				"element": "C" 
			},
			{
				"x": 2.4074510554,
				"y": -1.4797728694,
				"z": 1.7515870731,
				"element": "S" 
			},
			{
				"x": 1.214723969,
				"y": -0.6313817921,
				"z": 0.7722911777,
				"element": "C" 
			},
			{
				"x": -0.0124084115,
				"y": -1.0180693758,
				"z": 0.5823575367,
				"element": "N" 
			},
			{
				"x": -0.7031969704,
				"y": -0.1382953827,
				"z": -0.2341526333,
				"element": "C" 
			},
			{
				"x": -2.1332401386,
				"y": -0.4659377477,
				"z": -0.5573609857,
				"element": "C" 
			},
			{
				"x": 0.0121582209,
				"y": 0.948095853,
				"z": -0.6789164555,
				"element": "C" 
			},
			{
				"x": -0.4179744495,
				"y": 2.0841902469,
				"z": -1.5598745261,
				"element": "C" 
			},
			{
				"x": -0.9057861722,
				"y": 3.3610996362,
				"z": -0.8454917701,
				"element": "C" 
			},
			{
				"x": -1.2381265246,
				"y": 3.2263067932,
				"z": 0.455754803,
				"element": "O" 
			},
			{
				"x": -1.0218566196,
				"y": 4.4128381663,
				"z": -1.421514757,
				"element": "O" 
			},
			{
				"x": 1.6504835693,
				"y": 0.8694680284,
				"z": -0.0397020085,
				"element": "S" 
			},
			{
				"x": 2.0594351138,
				"y": -3.5075893046,
				"z": 2.9213727016,
				"element": "H" 
			},
			{
				"x": 1.0653127188,
				"y": -3.4811092033,
				"z": 1.4325098655,
				"element": "H" 
			},
			{
				"x": 0.5396083397,
				"y": -2.562715101,
				"z": 2.8684172033,
				"element": "H" 
			},
			{
				"x": -2.1916901998,
				"y": -1.4293286919,
				"z": -1.0746990673,
				"element": "H" 
			},
			{
				"x": -2.6008754574,
				"y": 0.2932265029,
				"z": -1.1873470148,
				"element": "H" 
			},
			{
				"x": -2.7214162809,
				"y": -0.5586535282,
				"z": 0.3615707589,
				"element": "H" 
			},
			{
				"x": 0.3781000085,
				"y": 2.3971196341,
				"z": -2.240691967,
				"element": "H" 
			},
			{
				"x": -1.2461735245,
				"y": 1.7598615059,
				"z": -2.2000895133,
				"element": "H" 
			},
			{
				"x": -1.0461690763,
				"y": 2.3153436494,
				"z": 0.7368304115,
				"element": "H" 
			}
		],
		 "valence_orbital": [ 
			{
				"type": "occ",
				"energy": -0.30828,
				"method": "rhf"
			},
			{
				"type": "occ",
				"energy": -0.29125,
				"method": "rhf"
			},
			{
				"type": "occ",
				"energy": -0.28854,
				"method": "rhf"
			},
			{
				"type": "occ",
				"energy": -0.27044,
				"method": "rhf"
			},
			{
				"type": "occ",
				"energy": -0.22722,
				"method": "rhf"
			},
			{
				"type": "unocc",
				"energy": -0.04032,
				"method": "rhf"
			},
			{
				"type": "unocc",
				"energy": -0.01299,
				"method": "rhf"
			},
			{
				"type": "unocc",
				"energy": 0.00823,
				"method": "rhf"
			},
			{
				"type": "unocc",
				"energy": 0.02149,
				"method": "rhf"
			},
			{
				"type": "unocc",
				"energy": 0.03027,
				"method": "rhf"
			}
		],
		"cosmo_sigma_profile": { 
			"-0.025": 0.0,
			"-0.024": 0.0,
			"-0.023": 0.0,
			"-0.022": 0.0,
			"-0.021": 0.0,
			"-0.02": 0.0,
			"-0.019": 0.0,
			"-0.018": 0.0,
			"-0.017": 0.0,
			"-0.016": 0.0,
			"-0.015": 0.167608211879,
			"-0.014": 0.339123925629,
			"-0.013": 0.750522529166,
			"-0.012": 0.659487788659,
			"-0.011": 1.35628342704,
			"-0.01": 1.36050066928,
			"-0.009": 3.43290119739,
			"-0.008": 7.2400009824,
			"-0.007": 9.2932049433,
			"-0.006": 10.5873592148,
			"-0.005": 13.9756312674,
			"-0.004": 18.3294759886,
			"-0.003": 16.9973881046,
			"-0.002": 18.2734298925,
			"-0.001": 17.5298294676,
			"0.0": 14.7137107008,
			"0.001": 16.2435326365,
			"0.002": 14.8144098457,
			"0.003": 10.8503585792,
			"0.004": 8.6482200901,
			"0.005": 5.64443877208,
			"0.006": 6.90946421401,
			"0.007": 5.04956524101,
			"0.008": 3.91749293513,
			"0.009": 4.74704098972,
			"0.01": 6.18624018161,
			"0.011": 5.11262318602,
			"0.012": 5.99582516552,
			"0.013": 2.29966453994,
			"0.014": 0.0845263613113,
			"0.015": 0.0,
			"0.016": 0.0,
			"0.017": 0.0,
			"0.018": 0.0,
			"0.019": 0.0,
			"0.02": 0.0,
			"0.021": 0.0,
			"0.022": 0.0,
			"0.023": 0.0,
			"0.024": 0.0,
			"0.025": 0.0
		}
	}
}
