{
	 "smiles": "CON(C)C(=O)CCl", 
	 "Tm": 313.15, 
	 "num_atms": 16, 
	 "gaussian": { 
		 "optdone": 1, 
		 "sigma_profile": "yes", 
		 "theory": "DFT", 
		 "functional": "B3LYP", 
		 "basiset": "6-31G**", 
		 "properties": { 
			 "R2extent": 3059.2544, 
			 "electric_dipole_moment_norm": 4.68540166261, 
			 "electric_quadrupole_moment_norm": 16.3871186653, 
			 "total_energy": -822.571448851, 
			 "HOMO_LUMO_gap": 0.25271, 
			 "cosmo_polarized_energy": -14.49, 
			 "cosmo_cavitation_energy": 21.46, 
			 "cosmo_dispersion_energy": -15.75, 
			 "cosmo_repulsion_energy": 1.34, 
			 "cosmo_total_nonelectrostatic_energy": 7.04, 
			 "SMD_solvation_energy": 5.46 
		},
		"coords": [
			{
				"x": 0.8822278271,
				"y": 2.0465657195,
				"z": -0.4283835106,
				"element": "C" 
			},
			{
				"x": -0.2954613638,
				"y": 1.2809531392,
				"z": -0.7038950592,
				"element": "O" 
			},
			{
				"x": -0.8788335723,
				"y": 0.8244709822,
				"z": 0.4934430039,
				"element": "N" 
			},
			{
				"x": -1.0437517698,
				"y": -0.6207136061,
				"z": 0.4298413106,
				"element": "C" 
			},
			{
				"x": -1.7890495897,
				"y": 1.7141908506,
				"z": 1.0520547652,
				"element": "C" 
			},
			{
				"x": -1.8426416434,
				"y": 2.8839099361,
				"z": 0.7349489387,
				"element": "O" 
			},
			{
				"x": -2.6498999358,
				"y": 1.0958041369,
				"z": 2.1689261519,
				"element": "C" 
			},
			{
				"x": -3.5381761695,
				"y": 2.3394412324,
				"z": 3.0991918753,
				"element": "Cl" 
			},
			{
				"x": 1.609901944,
				"y": 1.4621984623,
				"z": 0.1475703169,
				"element": "H" 
			},
			{
				"x": 0.6292974964,
				"y": 2.9682084194,
				"z": 0.1019843224,
				"element": "H" 
			},
			{
				"x": 1.2961443065,
				"y": 2.2861713397,
				"z": -1.4105674473,
				"element": "H" 
			},
			{
				"x": -1.7139101575,
				"y": -0.9182896603,
				"z": -0.3867839282,
				"element": "H" 
			},
			{
				"x": -1.4376590987,
				"y": -0.9968765803,
				"z": 1.3751139775,
				"element": "H" 
			},
			{
				"x": -0.0644072055,
				"y": -1.0738393739,
				"z": 0.2626389349,
				"element": "H" 
			},
			{
				"x": -2.0340754049,
				"y": 0.5360881081,
				"z": 2.8752283899,
				"element": "H" 
			},
			{
				"x": -3.3920056629,
				"y": 0.4171168943,
				"z": 1.7405879583,
				"element": "H" 
			}
		],
		 "valence_orbital": [ 
			{
				"type": "occ",
				"energy": -0.30298,
				"method": "rhf"
			},
			{
				"type": "occ",
				"energy": -0.30002,
				"method": "rhf"
			},
			{
				"type": "occ",
				"energy": -0.29024,
				"method": "rhf"
			},
			{
				"type": "occ",
				"energy": -0.26923,
				"method": "rhf"
			},
			{
				"type": "occ",
				"energy": -0.25084,
				"method": "rhf"
			},
			{
				"type": "unocc",
				"energy": 0.00187,
				"method": "rhf"
			},
			{
				"type": "unocc",
				"energy": 0.01867,
				"method": "rhf"
			},
			{
				"type": "unocc",
				"energy": 0.06784,
				"method": "rhf"
			},
			{
				"type": "unocc",
				"energy": 0.09881,
				"method": "rhf"
			},
			{
				"type": "unocc",
				"energy": 0.10764,
				"method": "rhf"
			}
		],
		"cosmo_sigma_profile": { 
			"-0.025": 0.0,
			"-0.024": 0.0,
			"-0.023": 0.0,
			"-0.022": 0.0,
			"-0.021": 0.0,
			"-0.02": 0.0,
			"-0.019": 0.0,
			"-0.018": 0.0,
			"-0.017": 0.0,
			"-0.016": 0.0,
			"-0.015": 0.0,
			"-0.014": 0.0,
			"-0.013": 0.0,
			"-0.012": 0.0,
			"-0.011": 0.253198296155,
			"-0.01": 2.66948097203,
			"-0.009": 7.24005951102,
			"-0.008": 5.88670822518,
			"-0.007": 4.81598497571,
			"-0.006": 9.57413945244,
			"-0.005": 12.1918440157,
			"-0.004": 16.0879938962,
			"-0.003": 17.2485251231,
			"-0.002": 10.4968436268,
			"-0.001": 8.75007453388,
			"0.0": 6.93803628345,
			"0.001": 6.09581323029,
			"0.002": 6.29386044482,
			"0.003": 5.96721622171,
			"0.004": 6.6731101781,
			"0.005": 8.20984623543,
			"0.006": 8.71010084106,
			"0.007": 3.49562644905,
			"0.008": 3.13099823375,
			"0.009": 3.05577474212,
			"0.01": 3.76705095151,
			"0.011": 3.50242750456,
			"0.012": 5.26816466754,
			"0.013": 4.18545291222,
			"0.014": 0.901440759216,
			"0.015": 0.0,
			"0.016": 0.0,
			"0.017": 0.0,
			"0.018": 0.0,
			"0.019": 0.0,
			"0.02": 0.0,
			"0.021": 0.0,
			"0.022": 0.0,
			"0.023": 0.0,
			"0.024": 0.0,
			"0.025": 0.0
		}
	}
}
