{
	 "smiles": "OC(=O)C1=CC=C(Cl)C=C1Br", 
	 "Tm": 433.15, 
	 "num_atms": 15, 
	 "gaussian": { 
		 "optdone": 1, 
		 "sigma_profile": "yes", 
		 "theory": "DFT", 
		 "functional": "B3LYP", 
		 "basiset": "6-31G**", 
		 "properties": { 
			 "R2extent": 4271.7326, 
			 "electric_dipole_moment_norm": 3.37723040079, 
			 "electric_quadrupole_moment_norm": 19.5382134513, 
			 "total_energy": -3451.20346824, 
			 "HOMO_LUMO_gap": 0.20243, 
			 "cosmo_polarized_energy": -9.92, 
			 "cosmo_cavitation_energy": 23.7, 
			 "cosmo_dispersion_energy": -18.37, 
			 "cosmo_repulsion_energy": 1.45, 
			 "cosmo_total_nonelectrostatic_energy": 6.78, 
			 "SMD_solvation_energy": 3.96 
		},
		"coords": [
			{
				"x": 4.189240271,
				"y": -0.8691621037,
				"z": 2.0614456438,
				"element": "O" 
			},
			{
				"x": 3.1590911353,
				"y": -0.0413143851,
				"z": 2.2899850789,
				"element": "C" 
			},
			{
				"x": 3.1599819292,
				"y": 0.6612118268,
				"z": 3.2764405253,
				"element": "O" 
			},
			{
				"x": 1.9954345686,
				"y": 0.0135921797,
				"z": 1.3119837914,
				"element": "C" 
			},
			{
				"x": 0.9923493379,
				"y": 0.9304546658,
				"z": 1.6793943653,
				"element": "C" 
			},
			{
				"x": -0.1543176388,
				"y": 1.135155333,
				"z": 0.925708209,
				"element": "C" 
			},
			{
				"x": -0.3231256138,
				"y": 0.4014164213,
				"z": -0.2478483526,
				"element": "C" 
			},
			{
				"x": -1.7543232685,
				"y": 0.6301903369,
				"z": -1.2254520327,
				"element": "Cl" 
			},
			{
				"x": 0.6380581493,
				"y": -0.5188607786,
				"z": -0.6577592442,
				"element": "C" 
			},
			{
				"x": 1.7802338299,
				"y": -0.7020303324,
				"z": 0.1214514297,
				"element": "C" 
			},
			{
				"x": 3.0104531216,
				"y": -2.0093768055,
				"z": -0.583423735,
				"element": "Br" 
			},
			{
				"x": 4.0760528936,
				"y": -1.3806386776,
				"z": 1.2411764858,
				"element": "H" 
			},
			{
				"x": 1.1554317912,
				"y": 1.4836285913,
				"z": 2.5971882491,
				"element": "H" 
			},
			{
				"x": -0.9061170973,
				"y": 1.8500150197,
				"z": 1.2393352553,
				"element": "H" 
			},
			{
				"x": 0.5000565906,
				"y": -1.0848812916,
				"z": -1.5700256691,
				"element": "H" 
			}
		],
		 "valence_orbital": [ 
			{
				"type": "occ",
				"energy": -0.32759,
				"method": "rhf"
			},
			{
				"type": "occ",
				"energy": -0.31685,
				"method": "rhf"
			},
			{
				"type": "occ",
				"energy": -0.28314,
				"method": "rhf"
			},
			{
				"type": "occ",
				"energy": -0.28266,
				"method": "rhf"
			},
			{
				"type": "occ",
				"energy": -0.27405,
				"method": "rhf"
			},
			{
				"type": "unocc",
				"energy": -0.07162,
				"method": "rhf"
			},
			{
				"type": "unocc",
				"energy": -0.04478,
				"method": "rhf"
			},
			{
				"type": "unocc",
				"energy": -0.03989,
				"method": "rhf"
			},
			{
				"type": "unocc",
				"energy": 0.01915,
				"method": "rhf"
			},
			{
				"type": "unocc",
				"energy": 0.03506,
				"method": "rhf"
			}
		],
		"cosmo_sigma_profile": { 
			"-0.025": 0.0,
			"-0.024": 0.0,
			"-0.023": 0.0,
			"-0.022": 0.0,
			"-0.021": 0.0,
			"-0.02": 0.0,
			"-0.019": 0.0,
			"-0.018": 0.0,
			"-0.017": 0.0,
			"-0.016": 0.0,
			"-0.015": 0.0,
			"-0.014": 0.0,
			"-0.013": 0.0,
			"-0.012": 0.0,
			"-0.011": 0.276392102818,
			"-0.01": 0.924017414492,
			"-0.009": 3.4022766606,
			"-0.008": 6.03126720429,
			"-0.007": 7.16385524861,
			"-0.006": 8.86143220503,
			"-0.005": 9.67549725726,
			"-0.004": 9.55581674857,
			"-0.003": 11.5114754009,
			"-0.002": 13.2362094847,
			"-0.001": 21.4276438918,
			"0.0": 27.7173356503,
			"0.001": 16.9792407483,
			"0.002": 13.8905015081,
			"0.003": 11.8351585751,
			"0.004": 7.32782728416,
			"0.005": 2.32083469473,
			"0.006": 2.0536515666,
			"0.007": 2.22634679821,
			"0.008": 3.23340610055,
			"0.009": 3.01901313603,
			"0.01": 4.80563854175,
			"0.011": 5.12390329949,
			"0.012": 3.27308072186,
			"0.013": 1.06662081895,
			"0.014": 0.0,
			"0.015": 0.0,
			"0.016": 0.0,
			"0.017": 0.0,
			"0.018": 0.0,
			"0.019": 0.0,
			"0.02": 0.0,
			"0.021": 0.0,
			"0.022": 0.0,
			"0.023": 0.0,
			"0.024": 0.0,
			"0.025": 0.0
		}
	}
}
