{
	 "smiles": "CC1=C(C)C(C#N)=C(NC(=O)CCl)S1", 
	 "Tm": 454.15, 
	 "num_atms": 23, 
	 "gaussian": { 
		 "optdone": 1, 
		 "sigma_profile": "yes", 
		 "theory": "DFT", 
		 "functional": "B3LYP", 
		 "basiset": "6-31G**", 
		 "properties": { 
			 "R2extent": 5039.8023, 
			 "electric_dipole_moment_norm": 5.67504425886, 
			 "electric_quadrupole_moment_norm": 13.3097188404, 
			 "total_energy": -1391.47449456, 
			 "HOMO_LUMO_gap": 0.16885, 
			 "cosmo_polarized_energy": -15.05, 
			 "cosmo_cavitation_energy": 31.26, 
			 "cosmo_dispersion_energy": -22.25, 
			 "cosmo_repulsion_energy": 1.74, 
			 "cosmo_total_nonelectrostatic_energy": 10.75, 
			 "SMD_solvation_energy": 6.92 
		},
		"coords": [
			{
				"x": -1.409785785,
				"y": 2.9775066022,
				"z": 2.0098774234,
				"element": "C" 
			},
			{
				"x": -0.6639898613,
				"y": 1.7919945904,
				"z": 1.471160879,
				"element": "C" 
			},
			{
				"x": -1.0102363057,
				"y": 0.4685481941,
				"z": 1.4531818528,
				"element": "C" 
			},
			{
				"x": -2.2922933887,
				"y": -0.1292649999,
				"z": 1.9637327671,
				"element": "C" 
			},
			{
				"x": 0.0353218614,
				"y": -0.3554357414,
				"z": 0.8880224479,
				"element": "C" 
			},
			{
				"x": -0.0536241898,
				"y": -1.7670798901,
				"z": 0.7391991515,
				"element": "C" 
			},
			{
				"x": -0.1090333084,
				"y": -2.9228021163,
				"z": 0.600915838,
				"element": "N" 
			},
			{
				"x": 1.1555632368,
				"y": 0.352165891,
				"z": 0.4858868126,
				"element": "C" 
			},
			{
				"x": 2.2433776309,
				"y": -0.2124750172,
				"z": -0.1724848615,
				"element": "N" 
			},
			{
				"x": 3.6109761361,
				"y": 0.0327030895,
				"z": -0.1268179749,
				"element": "C" 
			},
			{
				"x": 4.3745836092,
				"y": -0.6907965594,
				"z": -0.7386574785,
				"element": "O" 
			},
			{
				"x": 4.1240002911,
				"y": 1.2013041144,
				"z": 0.7032010019,
				"element": "C" 
			},
			{
				"x": 4.1884376614,
				"y": 2.7151480245,
				"z": -0.2914909928,
				"element": "Cl" 
			},
			{
				"x": 0.9229543276,
				"y": 2.0583438986,
				"z": 0.7590475027,
				"element": "S" 
			},
			{
				"x": -2.4029085734,
				"y": 2.6805796067,
				"z": 2.3529442417,
				"element": "H" 
			},
			{
				"x": -1.5414806261,
				"y": 3.7549122488,
				"z": 1.2493544081,
				"element": "H" 
			},
			{
				"x": -0.8874921225,
				"y": 3.4321465783,
				"z": 2.8595755277,
				"element": "H" 
			},
			{
				"x": -2.8057431025,
				"y": -0.6850665844,
				"z": 1.1716164988,
				"element": "H" 
			},
			{
				"x": -2.9776010747,
				"y": 0.6328836747,
				"z": 2.3378662675,
				"element": "H" 
			},
			{
				"x": -2.0988980767,
				"y": -0.8372921926,
				"z": 2.7772624005,
				"element": "H" 
			},
			{
				"x": 2.0457605352,
				"y": -1.0739500663,
				"z": -0.6741940034,
				"element": "H" 
			},
			{
				"x": 3.5152026436,
				"y": 1.415200888,
				"z": 1.5816351032,
				"element": "H" 
			},
			{
				"x": 5.1470084813,
				"y": 0.9660257667,
				"z": 0.9897651866,
				"element": "H" 
			}
		],
		 "valence_orbital": [ 
			{
				"type": "occ",
				"energy": -0.31912,
				"method": "rhf"
			},
			{
				"type": "occ",
				"energy": -0.31218,
				"method": "rhf"
			},
			{
				"type": "occ",
				"energy": -0.28177,
				"method": "rhf"
			},
			{
				"type": "occ",
				"energy": -0.26895,
				"method": "rhf"
			},
			{
				"type": "occ",
				"energy": -0.23271,
				"method": "rhf"
			},
			{
				"type": "unocc",
				"energy": -0.06386,
				"method": "rhf"
			},
			{
				"type": "unocc",
				"energy": -0.03124,
				"method": "rhf"
			},
			{
				"type": "unocc",
				"energy": -0.01015,
				"method": "rhf"
			},
			{
				"type": "unocc",
				"energy": 0.0017,
				"method": "rhf"
			},
			{
				"type": "unocc",
				"energy": 0.03086,
				"method": "rhf"
			}
		],
		"cosmo_sigma_profile": { 
			"-0.025": 0.0,
			"-0.024": 0.0,
			"-0.023": 0.0,
			"-0.022": 0.0,
			"-0.021": 0.0,
			"-0.02": 0.0,
			"-0.019": 0.0,
			"-0.018": 0.0,
			"-0.017": 0.0,
			"-0.016": 0.00343091726594,
			"-0.015": 0.420369535189,
			"-0.014": 1.05379989466,
			"-0.013": 0.601130404984,
			"-0.012": 1.0197200866,
			"-0.011": 0.684515336245,
			"-0.01": 1.31065328162,
			"-0.009": 4.89726237279,
			"-0.008": 5.70818893164,
			"-0.007": 6.75805730986,
			"-0.006": 9.1700895828,
			"-0.005": 17.242729615,
			"-0.004": 18.1810364186,
			"-0.003": 18.2512009881,
			"-0.002": 20.6387023111,
			"-0.001": 27.9527453633,
			"0.0": 18.5172375332,
			"0.001": 16.661673017,
			"0.002": 13.7509385749,
			"0.003": 12.3520120568,
			"0.004": 12.7756192661,
			"0.005": 9.30673863406,
			"0.006": 3.61318264955,
			"0.007": 3.70855962181,
			"0.008": 4.26036423601,
			"0.009": 4.85303749385,
			"0.01": 4.89668036117,
			"0.011": 7.57065731767,
			"0.012": 6.10739295629,
			"0.013": 1.65563019373,
			"0.014": 0.00752412127655,
			"0.015": 0.0,
			"0.016": 0.0,
			"0.017": 0.0,
			"0.018": 0.0,
			"0.019": 0.0,
			"0.02": 0.0,
			"0.021": 0.0,
			"0.022": 0.0,
			"0.023": 0.0,
			"0.024": 0.0,
			"0.025": 0.0
		}
	}
}
