{
	 "smiles": "OC(=O)C1=CC=C(NC(=O)NC2=CC=CC=C2)C=C1", 
	 "Tm": 534.15, 
	 "num_atms": 31, 
	 "gaussian": { 
		 "optdone": 1, 
		 "sigma_profile": "yes", 
		 "theory": "DFT", 
		 "functional": "B3LYP", 
		 "basiset": "6-31G**", 
		 "properties": { 
			 "R2extent": 7876.5651, 
			 "electric_dipole_moment_norm": 7.3150913781, 
			 "electric_quadrupole_moment_norm": 30.3627711566, 
			 "total_energy": -875.936041251, 
			 "HOMO_LUMO_gap": 0.18472, 
			 "cosmo_polarized_energy": -23.0, 
			 "cosmo_cavitation_energy": 36.33, 
			 "cosmo_dispersion_energy": -26.29, 
			 "cosmo_repulsion_energy": 2.0, 
			 "cosmo_total_nonelectrostatic_energy": 12.03, 
			 "SMD_solvation_energy": 7.89 
		},
		"coords": [
			{
				"x": -4.9555841461,
				"y": -2.3850647237,
				"z": 2.9255059394,
				"element": "O" 
			},
			{
				"x": -4.0089729317,
				"y": -1.5104043657,
				"z": 3.366096301,
				"element": "C" 
			},
			{
				"x": -4.0331915051,
				"y": -1.1314123525,
				"z": 4.5150916733,
				"element": "O" 
			},
			{
				"x": -2.9790066146,
				"y": -1.072468422,
				"z": 2.3767947785,
				"element": "C" 
			},
			{
				"x": -3.1235234878,
				"y": -1.1995689254,
				"z": 0.9882189947,
				"element": "C" 
			},
			{
				"x": -2.1390796725,
				"y": -0.764819196,
				"z": 0.1056273181,
				"element": "C" 
			},
			{
				"x": -0.9660128298,
				"y": -0.1825067855,
				"z": 0.6147075768,
				"element": "C" 
			},
			{
				"x": 0.0905451802,
				"y": 0.2693909939,
				"z": -0.1881582124,
				"element": "N" 
			},
			{
				"x": 0.1618935557,
				"y": 0.2793554214,
				"z": -1.5707744082,
				"element": "C" 
			},
			{
				"x": -0.7364585687,
				"y": -0.0819038221,
				"z": -2.3189417272,
				"element": "O" 
			},
			{
				"x": 1.3570813748,
				"y": 0.7640347836,
				"z": -2.0932478404,
				"element": "N" 
			},
			{
				"x": 2.537198535,
				"y": 1.2006658423,
				"z": -1.4460928966,
				"element": "C" 
			},
			{
				"x": 3.1346015845,
				"y": 2.4031935207,
				"z": -1.8533178909,
				"element": "C" 
			},
			{
				"x": 4.3196190666,
				"y": 2.8345036347,
				"z": -1.2610132246,
				"element": "C" 
			},
			{
				"x": 4.9135619895,
				"y": 2.0876063393,
				"z": -0.2406938098,
				"element": "C" 
			},
			{
				"x": 4.323508492,
				"y": 0.8901681079,
				"z": 0.1649010436,
				"element": "C" 
			},
			{
				"x": 3.1522127963,
				"y": 0.4345115822,
				"z": -0.4425197272,
				"element": "C" 
			},
			{
				"x": -0.8205425328,
				"y": -0.036510954,
				"z": 2.0078267848,
				"element": "C" 
			},
			{
				"x": -1.8145497054,
				"y": -0.4668538873,
				"z": 2.871459949,
				"element": "C" 
			},
			{
				"x": -4.7187500084,
				"y": -2.7189597508,
				"z": 2.049563411,
				"element": "H" 
			},
			{
				"x": -4.0354282377,
				"y": -1.6098006884,
				"z": 0.5595036092,
				"element": "H" 
			},
			{
				"x": -2.2660405003,
				"y": -0.8544677979,
				"z": -0.9633616442,
				"element": "H" 
			},
			{
				"x": 0.8618551625,
				"y": 0.6939546084,
				"z": 0.3081245339,
				"element": "H" 
			},
			{
				"x": 1.2740170826,
				"y": 0.9367249119,
				"z": -3.0855476471,
				"element": "H" 
			},
			{
				"x": 2.6594435678,
				"y": 2.9971775727,
				"z": -2.6290412792,
				"element": "H" 
			},
			{
				"x": 4.7723341979,
				"y": 3.7655668925,
				"z": -1.5890676591,
				"element": "H" 
			},
			{
				"x": 5.8306272271,
				"y": 2.4319473356,
				"z": 0.2268512031,
				"element": "H" 
			},
			{
				"x": 4.7875313536,
				"y": 0.2895064085,
				"z": 0.9417183262,
				"element": "H" 
			},
			{
				"x": 2.7328272927,
				"y": -0.5276508245,
				"z": -0.1659614109,
				"element": "H" 
			},
			{
				"x": 0.080453137,
				"y": 0.4222763204,
				"z": 2.4085337669,
				"element": "H" 
			},
			{
				"x": -1.710570855,
				"y": -0.3459917802,
				"z": 3.9442141684,
				"element": "H" 
			}
		],
		 "valence_orbital": [ 
			{
				"type": "occ",
				"energy": -0.27519,
				"method": "rhf"
			},
			{
				"type": "occ",
				"energy": -0.2678,
				"method": "rhf"
			},
			{
				"type": "occ",
				"energy": -0.26394,
				"method": "rhf"
			},
			{
				"type": "occ",
				"energy": -0.24655,
				"method": "rhf"
			},
			{
				"type": "occ",
				"energy": -0.22959,
				"method": "rhf"
			},
			{
				"type": "unocc",
				"energy": -0.04487,
				"method": "rhf"
			},
			{
				"type": "unocc",
				"energy": -0.02804,
				"method": "rhf"
			},
			{
				"type": "unocc",
				"energy": -0.0251,
				"method": "rhf"
			},
			{
				"type": "unocc",
				"energy": -0.01631,
				"method": "rhf"
			},
			{
				"type": "unocc",
				"energy": 0.03898,
				"method": "rhf"
			}
		],
		"cosmo_sigma_profile": { 
			"-0.025": 0.0,
			"-0.024": 0.0,
			"-0.023": 0.0,
			"-0.022": 0.0,
			"-0.021": 0.0,
			"-0.02": 0.0,
			"-0.019": 0.0167344106816,
			"-0.018": 0.775474230686,
			"-0.017": 0.84991925519,
			"-0.016": 1.34489853472,
			"-0.015": 1.1570634079,
			"-0.014": 1.82146588395,
			"-0.013": 2.53156660442,
			"-0.012": 3.2552056693,
			"-0.011": 3.718636072,
			"-0.01": 3.57321293855,
			"-0.009": 3.94905030649,
			"-0.008": 4.69827190021,
			"-0.007": 8.12637876935,
			"-0.006": 15.8870111291,
			"-0.005": 17.8932301683,
			"-0.004": 17.8220027552,
			"-0.003": 16.0176306815,
			"-0.002": 14.5548179726,
			"-0.001": 17.2260615962,
			"0.0": 17.0771560604,
			"0.001": 18.4631254874,
			"0.002": 21.5455699399,
			"0.003": 25.2832447317,
			"0.004": 17.8475616539,
			"0.005": 11.7348684453,
			"0.006": 4.20836729555,
			"0.007": 4.55132458946,
			"0.008": 2.70709231919,
			"0.009": 4.80593529605,
			"0.01": 5.53683570759,
			"0.011": 7.03783533774,
			"0.012": 8.25499549038,
			"0.013": 5.96018784617,
			"0.014": 1.24064944199,
			"0.015": 0.0,
			"0.016": 0.0,
			"0.017": 0.0,
			"0.018": 0.0,
			"0.019": 0.0,
			"0.02": 0.0,
			"0.021": 0.0,
			"0.022": 0.0,
			"0.023": 0.0,
			"0.024": 0.0,
			"0.025": 0.0
		}
	}
}
