{
	 "smiles": "FC1=CC=C(CN(C(=O)CCl)C23CC4CC(CC(C4)C2)C3)C=C1", 
	 "Tm": 403.15, 
	 "num_atms": 46, 
	 "gaussian": { 
		 "optdone": 1, 
		 "sigma_profile": "yes", 
		 "theory": "DFT", 
		 "functional": "B3LYP", 
		 "basiset": "6-31G**", 
		 "properties": { 
			 "R2extent": 8681.7064, 
			 "electric_dipole_moment_norm": 4.68789932806, 
			 "electric_quadrupole_moment_norm": 15.7384781736, 
			 "total_energy": -1427.91535907, 
			 "HOMO_LUMO_gap": 0.21849, 
			 "cosmo_polarized_energy": -14.23, 
			 "cosmo_cavitation_energy": 44.85, 
			 "cosmo_dispersion_energy": -31.4, 
			 "cosmo_repulsion_energy": 2.35, 
			 "cosmo_total_nonelectrostatic_energy": 15.81, 
			 "SMD_solvation_energy": 6.44 
		},
		"coords": [
			{
				"x": 5.281260717,
				"y": 2.0146717403,
				"z": 1.32904275,
				"element": "F" 
			},
			{
				"x": 4.2105922654,
				"y": 1.52486606,
				"z": 0.6713627756,
				"element": "C" 
			},
			{
				"x": 3.0178765364,
				"y": 2.2356172667,
				"z": 0.6935643288,
				"element": "C" 
			},
			{
				"x": 1.913692939,
				"y": 1.7194078319,
				"z": 0.0115512843,
				"element": "C" 
			},
			{
				"x": 1.9964422182,
				"y": 0.5072550463,
				"z": -0.6829040047,
				"element": "C" 
			},
			{
				"x": 0.8310410045,
				"y": -0.0659660456,
				"z": -1.4858209687,
				"element": "C" 
			},
			{
				"x": -0.5087499233,
				"y": 0.4115165662,
				"z": -1.1302143369,
				"element": "N" 
			},
			{
				"x": -1.052264265,
				"y": 1.5043938024,
				"z": -1.773950415,
				"element": "C" 
			},
			{
				"x": -2.1469863373,
				"y": 1.977660777,
				"z": -1.5081448182,
				"element": "O" 
			},
			{
				"x": -0.193473854,
				"y": 2.1185378872,
				"z": -2.9078045933,
				"element": "C" 
			},
			{
				"x": -0.882345927,
				"y": 3.6600527675,
				"z": -3.5081044759,
				"element": "Cl" 
			},
			{
				"x": -1.3003064207,
				"y": -0.26107876,
				"z": -0.0258298754,
				"element": "C" 
			},
			{
				"x": -0.5334036792,
				"y": -1.4777245277,
				"z": 0.5520098778,
				"element": "C" 
			},
			{
				"x": -1.3495582931,
				"y": -2.1459605512,
				"z": 1.6830361583,
				"element": "C" 
			},
			{
				"x": -2.6940142416,
				"y": -2.6457941783,
				"z": 1.1201759644,
				"element": "C" 
			},
			{
				"x": -3.4727290227,
				"y": -1.4481020227,
				"z": 0.5450099406,
				"element": "C" 
			},
			{
				"x": -3.7351796164,
				"y": -0.4194864193,
				"z": 1.6647443297,
				"element": "C" 
			},
			{
				"x": -2.3908545839,
				"y": 0.0635456909,
				"z": 2.2472578168,
				"element": "C" 
			},
			{
				"x": -1.6099319562,
				"y": -1.1355279711,
				"z": 2.8159472144,
				"element": "C" 
			},
			{
				"x": -1.5574739545,
				"y": 0.7350743288,
				"z": 1.1360950139,
				"element": "C" 
			},
			{
				"x": -2.6512960329,
				"y": -0.7844120108,
				"z": -0.5811138476,
				"element": "C" 
			},
			{
				"x": 3.2167035598,
				"y": -0.1842314664,
				"z": -0.6791314225,
				"element": "C" 
			},
			{
				"x": 4.3299041974,
				"y": 0.3159897154,
				"z": -0.0068692256,
				"element": "C" 
			},
			{
				"x": 2.9611457195,
				"y": 3.1725696566,
				"z": 1.2369352862,
				"element": "H" 
			},
			{
				"x": 0.9767379136,
				"y": 2.2658979678,
				"z": 0.0360051303,
				"element": "H" 
			},
			{
				"x": 1.0028279119,
				"y": 0.1292476752,
				"z": -2.5479514009,
				"element": "H" 
			},
			{
				"x": 0.851420196,
				"y": -1.1529438784,
				"z": -1.4057694405,
				"element": "H" 
			},
			{
				"x": -0.1511226936,
				"y": 1.4381294333,
				"z": -3.762042754,
				"element": "H" 
			},
			{
				"x": 0.8243537385,
				"y": 2.3320574096,
				"z": -2.5807156229,
				"element": "H" 
			},
			{
				"x": -0.3597845222,
				"y": -2.2267872401,
				"z": -0.2304923268,
				"element": "H" 
			},
			{
				"x": 0.4446246784,
				"y": -1.1685701434,
				"z": 0.9383944024,
				"element": "H" 
			},
			{
				"x": -0.769323608,
				"y": -2.9940983455,
				"z": 2.0677469541,
				"element": "H" 
			},
			{
				"x": -2.5224184913,
				"y": -3.3976606235,
				"z": 0.3384181566,
				"element": "H" 
			},
			{
				"x": -3.2743774757,
				"y": -3.1358028806,
				"z": 1.912613542,
				"element": "H" 
			},
			{
				"x": -4.4278981254,
				"y": -1.7914936954,
				"z": 0.1285164979,
				"element": "H" 
			},
			{
				"x": -4.3013451299,
				"y": 0.4324823905,
				"z": 1.2685929516,
				"element": "H" 
			},
			{
				"x": -4.346904681,
				"y": -0.8728643357,
				"z": 2.4556604024,
				"element": "H" 
			},
			{
				"x": -2.5756016373,
				"y": 0.7972420947,
				"z": 3.041807684,
				"element": "H" 
			},
			{
				"x": -0.659825814,
				"y": -0.7972046486,
				"z": 3.2498074426,
				"element": "H" 
			},
			{
				"x": -2.1770857294,
				"y": -1.6166785326,
				"z": 3.6232494351,
				"element": "H" 
			},
			{
				"x": -0.593522754,
				"y": 1.0661355788,
				"z": 1.5422177374,
				"element": "H" 
			},
			{
				"x": -2.0784309889,
				"y": 1.6129734127,
				"z": 0.7506462085,
				"element": "H" 
			},
			{
				"x": -2.4493465731,
				"y": -1.5095217236,
				"z": -1.3809575982,
				"element": "H" 
			},
			{
				"x": -3.212300411,
				"y": 0.0426471783,
				"z": -1.0176438287,
				"element": "H" 
			},
			{
				"x": 3.3003081032,
				"y": -1.1307058157,
				"z": -1.2084352992,
				"element": "H" 
			},
			{
				"x": 5.275925044,
				"y": -0.2144564615,
				"z": 0.0039869693,
				"element": "H" 
			}
		],
		 "valence_orbital": [ 
			{
				"type": "occ",
				"energy": -0.28477,
				"method": "rhf"
			},
			{
				"type": "occ",
				"energy": -0.27137,
				"method": "rhf"
			},
			{
				"type": "occ",
				"energy": -0.25161,
				"method": "rhf"
			},
			{
				"type": "occ",
				"energy": -0.25032,
				"method": "rhf"
			},
			{
				"type": "occ",
				"energy": -0.24333,
				"method": "rhf"
			},
			{
				"type": "unocc",
				"energy": -0.02484,
				"method": "rhf"
			},
			{
				"type": "unocc",
				"energy": -0.01225,
				"method": "rhf"
			},
			{
				"type": "unocc",
				"energy": 0.01158,
				"method": "rhf"
			},
			{
				"type": "unocc",
				"energy": 0.03092,
				"method": "rhf"
			},
			{
				"type": "unocc",
				"energy": 0.06214,
				"method": "rhf"
			}
		],
		"cosmo_sigma_profile": { 
			"-0.025": 0.0,
			"-0.024": 0.0,
			"-0.023": 0.0,
			"-0.022": 0.0,
			"-0.021": 0.0,
			"-0.02": 0.0,
			"-0.019": 0.0,
			"-0.018": 0.0,
			"-0.017": 0.0,
			"-0.016": 0.0,
			"-0.015": 0.0,
			"-0.014": 0.0,
			"-0.013": 0.0,
			"-0.012": 0.0,
			"-0.011": 0.00535367421046,
			"-0.01": 1.63790429502,
			"-0.009": 3.32511776593,
			"-0.008": 4.02831825463,
			"-0.007": 9.39355134907,
			"-0.006": 14.9805116753,
			"-0.005": 13.5369343532,
			"-0.004": 14.1523686445,
			"-0.003": 14.8566662073,
			"-0.002": 43.0160335807,
			"-0.001": 47.9200968718,
			"0.0": 47.5309171795,
			"0.001": 39.4604336272,
			"0.002": 20.5268876075,
			"0.003": 16.3288682455,
			"0.004": 21.2299542143,
			"0.005": 11.9372713507,
			"0.006": 9.74490384315,
			"0.007": 2.94287455636,
			"0.008": 2.25154906892,
			"0.009": 1.96935394608,
			"0.01": 1.64904933383,
			"0.011": 2.24838655788,
			"0.012": 1.69405724379,
			"0.013": 2.57108786427,
			"0.014": 2.5644420664,
			"0.015": 0.994653574148,
			"0.016": 0.0,
			"0.017": 0.0,
			"0.018": 0.0,
			"0.019": 0.0,
			"0.02": 0.0,
			"0.021": 0.0,
			"0.022": 0.0,
			"0.023": 0.0,
			"0.024": 0.0,
			"0.025": 0.0
		}
	}
}
