{
	 "smiles": "CC1=CC(Br)=CN2C3=C(CCNC3)N=C12", 
	 "Tm": 439.15, 
	 "num_atms": 27, 
	 "gaussian": { 
		 "optdone": 1, 
		 "sigma_profile": "yes", 
		 "theory": "DFT", 
		 "functional": "B3LYP", 
		 "basiset": "6-31G**", 
		 "properties": { 
			 "R2extent": 6431.4201, 
			 "electric_dipole_moment_norm": 2.13751972622, 
			 "electric_quadrupole_moment_norm": 15.6565224552, 
			 "total_energy": -3162.05881666, 
			 "HOMO_LUMO_gap": 0.17115, 
			 "cosmo_polarized_energy": -11.31, 
			 "cosmo_cavitation_energy": 31.64, 
			 "cosmo_dispersion_energy": -24.02, 
			 "cosmo_repulsion_energy": 1.88, 
			 "cosmo_total_nonelectrostatic_energy": 9.5, 
			 "SMD_solvation_energy": -0.17 
		},
		"coords": [
			{
				"x": -0.7515546814,
				"y": 3.0221070439,
				"z": 0.3632723939,
				"element": "C" 
			},
			{
				"x": -1.385468632,
				"y": 1.6593935263,
				"z": 0.3865974949,
				"element": "C" 
			},
			{
				"x": -2.6825219233,
				"y": 1.4402933422,
				"z": 0.8007042872,
				"element": "C" 
			},
			{
				"x": -3.227898912,
				"y": 0.1284219171,
				"z": 0.8005601804,
				"element": "C" 
			},
			{
				"x": -5.0245302667,
				"y": -0.1398042322,
				"z": 1.3803613921,
				"element": "Br" 
			},
			{
				"x": -2.4984471617,
				"y": -0.9535378051,
				"z": 0.3962879554,
				"element": "C" 
			},
			{
				"x": -1.2055690234,
				"y": -0.7398970319,
				"z": -0.0184448608,
				"element": "N" 
			},
			{
				"x": -0.2411504722,
				"y": -1.6082848589,
				"z": -0.477292528,
				"element": "C" 
			},
			{
				"x": 0.8679706842,
				"y": -0.8280685656,
				"z": -0.7390266453,
				"element": "C" 
			},
			{
				"x": 2.1401029159,
				"y": -1.4345352272,
				"z": -1.246001287,
				"element": "C" 
			},
			{
				"x": 2.0964083131,
				"y": -2.9506283485,
				"z": -0.9804995806,
				"element": "C" 
			},
			{
				"x": 0.8199853759,
				"y": -3.5071451007,
				"z": -1.4510529383,
				"element": "N" 
			},
			{
				"x": -0.3341287139,
				"y": -3.0894405967,
				"z": -0.6448350056,
				"element": "C" 
			},
			{
				"x": 0.6421754605,
				"y": 0.4910957679,
				"z": -0.4732205038,
				"element": "N" 
			},
			{
				"x": -0.6143517533,
				"y": 0.5449572808,
				"z": -0.0371434108,
				"element": "C" 
			},
			{
				"x": -0.4243669128,
				"y": 3.2782705951,
				"z": -0.6497166458,
				"element": "H" 
			},
			{
				"x": 0.143916961,
				"y": 3.042130884,
				"z": 0.9930064086,
				"element": "H" 
			},
			{
				"x": -1.4481049889,
				"y": 3.7873107427,
				"z": 0.7141630194,
				"element": "H" 
			},
			{
				"x": -3.2988994028,
				"y": 2.2686012969,
				"z": 1.1306233688,
				"element": "H" 
			},
			{
				"x": -2.8726587317,
				"y": -1.9679329826,
				"z": 0.3807781637,
				"element": "H" 
			},
			{
				"x": 2.2448263465,
				"y": -1.2485667604,
				"z": -2.3224045485,
				"element": "H" 
			},
			{
				"x": 3.0067673544,
				"y": -0.9815104456,
				"z": -0.7520461925,
				"element": "H" 
			},
			{
				"x": 2.9026686659,
				"y": -3.4517884614,
				"z": -1.5249667602,
				"element": "H" 
			},
			{
				"x": 2.2673643435,
				"y": -3.1293231445,
				"z": 0.0979863901,
				"element": "H" 
			},
			{
				"x": 0.8686306975,
				"y": -4.5209683542,
				"z": -1.4640540999,
				"element": "H" 
			},
			{
				"x": -1.252931745,
				"y": -3.3760803432,
				"z": -1.1764091013,
				"element": "H" 
			},
			{
				"x": -0.3765337976,
				"y": -3.581170138,
				"z": 0.3492730538,
				"element": "H" 
			}
		],
		 "valence_orbital": [ 
			{
				"type": "occ",
				"energy": -0.28834,
				"method": "rhf"
			},
			{
				"type": "occ",
				"energy": -0.26689,
				"method": "rhf"
			},
			{
				"type": "occ",
				"energy": -0.2305,
				"method": "rhf"
			},
			{
				"type": "occ",
				"energy": -0.22647,
				"method": "rhf"
			},
			{
				"type": "occ",
				"energy": -0.20496,
				"method": "rhf"
			},
			{
				"type": "unocc",
				"energy": -0.03381,
				"method": "rhf"
			},
			{
				"type": "unocc",
				"energy": -1e-05,
				"method": "rhf"
			},
			{
				"type": "unocc",
				"energy": 0.00078,
				"method": "rhf"
			},
			{
				"type": "unocc",
				"energy": 0.06513,
				"method": "rhf"
			},
			{
				"type": "unocc",
				"energy": 0.08084,
				"method": "rhf"
			}
		],
		"cosmo_sigma_profile": { 
			"-0.025": 0.0,
			"-0.024": 0.0,
			"-0.023": 0.0,
			"-0.022": 0.0,
			"-0.021": 0.0,
			"-0.02": 0.0,
			"-0.019": 0.0,
			"-0.018": 0.0,
			"-0.017": 0.0,
			"-0.016": 0.0,
			"-0.015": 0.0,
			"-0.014": 0.0,
			"-0.013": 0.0,
			"-0.012": 0.0,
			"-0.011": 0.6590328791,
			"-0.01": 1.62933920028,
			"-0.009": 2.68487333908,
			"-0.008": 4.40219569333,
			"-0.007": 5.66115929026,
			"-0.006": 6.17424254739,
			"-0.005": 11.1423005281,
			"-0.004": 21.3500782013,
			"-0.003": 22.1553343553,
			"-0.002": 26.0324203429,
			"-0.001": 27.6306167145,
			"0.0": 25.0347155638,
			"0.001": 19.8560874441,
			"0.002": 19.4217459997,
			"0.003": 15.4390771363,
			"0.004": 14.8984998192,
			"0.005": 6.15545440187,
			"0.006": 3.54973651272,
			"0.007": 2.55229157423,
			"0.008": 2.10695217424,
			"0.009": 2.44250609992,
			"0.01": 2.53099132834,
			"0.011": 1.62840759335,
			"0.012": 1.38063188753,
			"0.013": 0.998828792284,
			"0.014": 2.05892209881,
			"0.015": 1.50912925932,
			"0.016": 1.20390557303,
			"0.017": 1.1494892235,
			"0.018": 0.401713030256,
			"0.019": 0.0,
			"0.02": 0.0,
			"0.021": 0.0,
			"0.022": 0.0,
			"0.023": 0.0,
			"0.024": 0.0,
			"0.025": 0.0
		}
	}
}
