{
	 "smiles": "ClC1=CC2=C(C=C1)N=C(N2)C1=NC=CC=C1", 
	 "Tm": 407.15, 
	 "num_atms": 24, 
	 "gaussian": { 
		 "optdone": 1, 
		 "sigma_profile": "yes", 
		 "theory": "DFT", 
		 "functional": "B3LYP", 
		 "basiset": "6-31G**", 
		 "properties": { 
			 "R2extent": 5818.5969, 
			 "electric_dipole_moment_norm": 4.18688388662, 
			 "electric_quadrupole_moment_norm": 8.89764243943, 
			 "total_energy": -1086.56903861, 
			 "HOMO_LUMO_gap": 0.15697, 
			 "cosmo_polarized_energy": -10.72, 
			 "cosmo_cavitation_energy": 30.79, 
			 "cosmo_dispersion_energy": -23.31, 
			 "cosmo_repulsion_energy": 1.78, 
			 "cosmo_total_nonelectrostatic_energy": 9.26, 
			 "SMD_solvation_energy": 1.75 
		},
		"coords": [
			{
				"x": 2.4717908391,
				"y": -3.5458728161,
				"z": -2.8451888618,
				"element": "Cl" 
			},
			{
				"x": 1.382471377,
				"y": -2.7403336651,
				"z": -1.7213478475,
				"element": "C" 
			},
			{
				"x": 1.8530773936,
				"y": -1.6447720132,
				"z": -1.0061967655,
				"element": "C" 
			},
			{
				"x": 0.9404853153,
				"y": -1.0508994945,
				"z": -0.1321166966,
				"element": "C" 
			},
			{
				"x": -0.3908666813,
				"y": -1.52363001,
				"z": 0.0293441151,
				"element": "C" 
			},
			{
				"x": -0.8242120222,
				"y": -2.6317561388,
				"z": -0.7117444925,
				"element": "C" 
			},
			{
				"x": 0.0696599349,
				"y": -3.235823373,
				"z": -1.5865423485,
				"element": "C" 
			},
			{
				"x": -1.0684698912,
				"y": -0.7514401801,
				"z": 0.9536479193,
				"element": "N" 
			},
			{
				"x": -0.1925053767,
				"y": 0.1532055446,
				"z": 1.3410101871,
				"element": "C" 
			},
			{
				"x": 1.0309833514,
				"y": 0.0235229404,
				"z": 0.7235856736,
				"element": "N" 
			},
			{
				"x": -0.4166987405,
				"y": 1.219114167,
				"z": 2.3204795224,
				"element": "C" 
			},
			{
				"x": 0.6339321845,
				"y": 2.0281323747,
				"z": 2.5553262338,
				"element": "N" 
			},
			{
				"x": 0.4703181776,
				"y": 3.0134978419,
				"z": 3.4423963517,
				"element": "C" 
			},
			{
				"x": -0.7237914531,
				"y": 3.2416249692,
				"z": 4.1292589696,
				"element": "C" 
			},
			{
				"x": -1.806163163,
				"y": 2.3960404292,
				"z": 3.8772937668,
				"element": "C" 
			},
			{
				"x": -1.6563720085,
				"y": 1.3638443838,
				"z": 2.9570930339,
				"element": "C" 
			},
			{
				"x": 2.8681282449,
				"y": -1.2855607515,
				"z": -1.1303496872,
				"element": "H" 
			},
			{
				"x": -1.8368172005,
				"y": -3.0045877313,
				"z": -0.6000226312,
				"element": "H" 
			},
			{
				"x": -0.2306536755,
				"y": -4.0947355543,
				"z": -2.1758241897,
				"element": "H" 
			},
			{
				"x": 1.8090680653,
				"y": 0.6390190715,
				"z": 0.9111589658,
				"element": "H" 
			},
			{
				"x": 1.3348047793,
				"y": 3.6522766886,
				"z": 3.6132702086,
				"element": "H" 
			},
			{
				"x": -0.7987645956,
				"y": 4.0586040891,
				"z": 4.8394222011,
				"element": "H" 
			},
			{
				"x": -2.7521480512,
				"y": 2.5400235174,
				"z": 4.3909088247,
				"element": "H" 
			},
			{
				"x": -2.4583568035,
				"y": 0.6748057106,
				"z": 2.7184375468,
				"element": "H" 
			}
		],
		 "valence_orbital": [ 
			{
				"type": "occ",
				"energy": -0.28275,
				"method": "rhf"
			},
			{
				"type": "occ",
				"energy": -0.27601,
				"method": "rhf"
			},
			{
				"type": "occ",
				"energy": -0.27518,
				"method": "rhf"
			},
			{
				"type": "occ",
				"energy": -0.23631,
				"method": "rhf"
			},
			{
				"type": "occ",
				"energy": -0.21765,
				"method": "rhf"
			},
			{
				"type": "unocc",
				"energy": -0.06068,
				"method": "rhf"
			},
			{
				"type": "unocc",
				"energy": -0.03169,
				"method": "rhf"
			},
			{
				"type": "unocc",
				"energy": -0.00045,
				"method": "rhf"
			},
			{
				"type": "unocc",
				"energy": 0.01389,
				"method": "rhf"
			},
			{
				"type": "unocc",
				"energy": 0.03343,
				"method": "rhf"
			}
		],
		"cosmo_sigma_profile": { 
			"-0.025": 0.0,
			"-0.024": 0.0,
			"-0.023": 0.0,
			"-0.022": 0.0,
			"-0.021": 0.0,
			"-0.02": 0.0,
			"-0.019": 0.0,
			"-0.018": 0.0,
			"-0.017": 0.0,
			"-0.016": 0.0796733111199,
			"-0.015": 0.945571826473,
			"-0.014": 0.955274013285,
			"-0.013": 1.07301491812,
			"-0.012": 0.610362906019,
			"-0.011": 0.612231714479,
			"-0.01": 0.899630585918,
			"-0.009": 1.69262604903,
			"-0.008": 3.08442194056,
			"-0.007": 10.9515209719,
			"-0.006": 15.0824772811,
			"-0.005": 14.0482246008,
			"-0.004": 11.3115341911,
			"-0.003": 9.94045243458,
			"-0.002": 10.9077787959,
			"-0.001": 16.0293735632,
			"0.0": 21.9194335989,
			"0.001": 28.2915660667,
			"0.002": 30.2941423259,
			"0.003": 22.8952909419,
			"0.004": 19.9137795966,
			"0.005": 12.0014365775,
			"0.006": 3.77112474108,
			"0.007": 3.17772358635,
			"0.008": 2.28682363488,
			"0.009": 2.24277820176,
			"0.01": 1.41706746076,
			"0.011": 1.26942695353,
			"0.012": 0.764574989659,
			"0.013": 1.12804303052,
			"0.014": 0.901802153851,
			"0.015": 0.658257433813,
			"0.016": 0.00669971074491,
			"0.017": 0.0,
			"0.018": 0.0,
			"0.019": 0.0,
			"0.02": 0.0,
			"0.021": 0.0,
			"0.022": 0.0,
			"0.023": 0.0,
			"0.024": 0.0,
			"0.025": 0.0
		}
	}
}
