{
	 "smiles": "CC(C)OCCCN", 
	 "Tm": 208.15, 
	 "num_atms": 23, 
	 "gaussian": { 
		 "optdone": 1, 
		 "sigma_profile": "yes", 
		 "theory": "DFT", 
		 "functional": "B3LYP", 
		 "basiset": "6-31G**", 
		 "properties": { 
			 "R2extent": 1824.1967, 
			 "electric_dipole_moment_norm": 1.18184166029, 
			 "electric_quadrupole_moment_norm": 7.73462261006, 
			 "total_energy": -367.648818471, 
			 "HOMO_LUMO_gap": 0.3057, 
			 "cosmo_polarized_energy": -7.64, 
			 "cosmo_cavitation_energy": 24.66, 
			 "cosmo_dispersion_energy": -17.58, 
			 "cosmo_repulsion_energy": 1.51, 
			 "cosmo_total_nonelectrostatic_energy": 8.59, 
			 "SMD_solvation_energy": 3.09 
		},
		"coords": [
			{
				"x": 0.4196198652,
				"y": 2.7724429051,
				"z": -2.4830208954,
				"element": "C" 
			},
			{
				"x": 0.8238893651,
				"y": 2.1883481792,
				"z": -1.1259735082,
				"element": "C" 
			},
			{
				"x": 1.7065706677,
				"y": 3.1430198861,
				"z": -0.3275258035,
				"element": "C" 
			},
			{
				"x": -0.3334897446,
				"y": 1.9311666828,
				"z": -0.3238964086,
				"element": "O" 
			},
			{
				"x": -0.9829217345,
				"y": 0.6873803607,
				"z": -0.5663935364,
				"element": "C" 
			},
			{
				"x": -0.4059083425,
				"y": -0.4599654582,
				"z": 0.2673538207,
				"element": "C" 
			},
			{
				"x": -0.5566478851,
				"y": -0.2452880317,
				"z": 1.7744143764,
				"element": "C" 
			},
			{
				"x": -0.0016455452,
				"y": -1.3871283836,
				"z": 2.5134450928,
				"element": "N" 
			},
			{
				"x": 1.3005584282,
				"y": 2.9586914866,
				"z": -3.1068656994,
				"element": "H" 
			},
			{
				"x": -0.112373478,
				"y": 3.7186170254,
				"z": -2.3403975199,
				"element": "H" 
			},
			{
				"x": -0.2391992761,
				"y": 2.0917268936,
				"z": -3.0313118316,
				"element": "H" 
			},
			{
				"x": 1.3746088705,
				"y": 1.2480028027,
				"z": -1.2898190504,
				"element": "H" 
			},
			{
				"x": 2.6124538566,
				"y": 3.3978739422,
				"z": -0.8867328351,
				"element": "H" 
			},
			{
				"x": 1.9982459011,
				"y": 2.6919560604,
				"z": 0.6250948421,
				"element": "H" 
			},
			{
				"x": 1.1608737899,
				"y": 4.0677391522,
				"z": -0.113264382,
				"element": "H" 
			},
			{
				"x": -0.9503911265,
				"y": 0.4289071427,
				"z": -1.6349388916,
				"element": "H" 
			},
			{
				"x": -2.0375409759,
				"y": 0.8416344683,
				"z": -0.3061244839,
				"element": "H" 
			},
			{
				"x": -0.9050989695,
				"y": -1.3957874867,
				"z": -0.0133383431,
				"element": "H" 
			},
			{
				"x": 0.657492832,
				"y": -0.5910794858,
				"z": 0.0202946311,
				"element": "H" 
			},
			{
				"x": -0.1124552098,
				"y": 0.7279963877,
				"z": 2.0386120292,
				"element": "H" 
			},
			{
				"x": -1.6249935065,
				"y": -0.1777854056,
				"z": 2.0190383515,
				"element": "H" 
			},
			{
				"x": 1.0077351345,
				"y": -1.4169990899,
				"z": 2.3813932808,
				"element": "H" 
			},
			{
				"x": -0.1464829166,
				"y": -1.2532700341,
				"z": 3.5115567646,
				"element": "H" 
			}
		],
		 "valence_orbital": [ 
			{
				"type": "occ",
				"energy": -0.34131,
				"method": "rhf"
			},
			{
				"type": "occ",
				"energy": -0.33026,
				"method": "rhf"
			},
			{
				"type": "occ",
				"energy": -0.29647,
				"method": "rhf"
			},
			{
				"type": "occ",
				"energy": -0.2465,
				"method": "rhf"
			},
			{
				"type": "occ",
				"energy": -0.22501,
				"method": "rhf"
			},
			{
				"type": "unocc",
				"energy": 0.08069,
				"method": "rhf"
			},
			{
				"type": "unocc",
				"energy": 0.08933,
				"method": "rhf"
			},
			{
				"type": "unocc",
				"energy": 0.11845,
				"method": "rhf"
			},
			{
				"type": "unocc",
				"energy": 0.1226,
				"method": "rhf"
			},
			{
				"type": "unocc",
				"energy": 0.13096,
				"method": "rhf"
			}
		],
		"cosmo_sigma_profile": { 
			"-0.025": 0.0,
			"-0.024": 0.0,
			"-0.023": 0.0,
			"-0.022": 0.0,
			"-0.021": 0.0,
			"-0.02": 0.0,
			"-0.019": 0.0,
			"-0.018": 0.0,
			"-0.017": 0.0,
			"-0.016": 0.0,
			"-0.015": 0.0,
			"-0.014": 0.0,
			"-0.013": 0.0,
			"-0.012": 0.0,
			"-0.011": 0.0,
			"-0.01": 0.294088924206,
			"-0.009": 2.41389517702,
			"-0.008": 2.36004124629,
			"-0.007": 2.53836940227,
			"-0.006": 3.31506962758,
			"-0.005": 3.48885509518,
			"-0.004": 8.73959875168,
			"-0.003": 28.7892856239,
			"-0.002": 29.5045343359,
			"-0.001": 26.759766735,
			"0.0": 22.1568677641,
			"0.001": 19.0402930083,
			"0.002": 8.29043879659,
			"0.003": 4.51050021891,
			"0.004": 3.04547817269,
			"0.005": 2.86824575149,
			"0.006": 2.73882765327,
			"0.007": 2.42838871392,
			"0.008": 2.56211289606,
			"0.009": 1.52545454169,
			"0.01": 1.43462269241,
			"0.011": 1.98277579611,
			"0.012": 1.82139563629,
			"0.013": 1.90814824876,
			"0.014": 1.28955509903,
			"0.015": 0.324245235268,
			"0.016": 1.11480355366,
			"0.017": 0.284219452452,
			"0.018": 0.775723546016,
			"0.019": 0.366709560722,
			"0.02": 0.58990890467,
			"0.021": 0.0512140276625,
			"0.022": 0.0,
			"0.023": 0.0,
			"0.024": 0.0,
			"0.025": 0.0
		}
	}
}
