{
	 "smiles": "CC1C=C2C=C3C=C(C)N(C(C)=O)C3=CC2=N1", 
	 "Tm": 552.15, 
	 "num_atms": 31, 
	 "gaussian": { 
		 "optdone": 1, 
		 "sigma_profile": "yes", 
		 "theory": "DFT", 
		 "functional": "B3LYP", 
		 "basiset": "6-31G**", 
		 "properties": { 
			 "R2extent": 5047.6236, 
			 "electric_dipole_moment_norm": 2.20361465098, 
			 "electric_quadrupole_moment_norm": 9.23864421276, 
			 "total_energy": -726.633363016, 
			 "HOMO_LUMO_gap": 0.10913, 
			 "cosmo_polarized_energy": -11.74, 
			 "cosmo_cavitation_energy": 33.65, 
			 "cosmo_dispersion_energy": -24.7, 
			 "cosmo_repulsion_energy": 1.88, 
			 "cosmo_total_nonelectrostatic_energy": 10.82, 
			 "SMD_solvation_energy": 2.83 
		},
		"coords": [
			{
				"x": -3.4776029968,
				"y": 3.1111870481,
				"z": -1.6996164051,
				"element": "C" 
			},
			{
				"x": -3.0168883211,
				"y": 1.6425461711,
				"z": -1.7190286612,
				"element": "C" 
			},
			{
				"x": -2.0881305165,
				"y": 1.2860948556,
				"z": -2.8466552039,
				"element": "C" 
			},
			{
				"x": -0.967803402,
				"y": 0.7468039702,
				"z": -2.2933247354,
				"element": "C" 
			},
			{
				"x": 0.2559417047,
				"y": 0.2169969949,
				"z": -2.817448837,
				"element": "C" 
			},
			{
				"x": 1.1837826625,
				"y": -0.2443238496,
				"z": -1.9266646896,
				"element": "C" 
			},
			{
				"x": 2.4854744484,
				"y": -0.8229748598,
				"z": -2.129376928,
				"element": "C" 
			},
			{
				"x": 3.039747279,
				"y": -1.1318662318,
				"z": -0.9334973261,
				"element": "C" 
			},
			{
				"x": 4.3837581297,
				"y": -1.7503602979,
				"z": -0.7235337971,
				"element": "C" 
			},
			{
				"x": 2.1339353191,
				"y": -0.7734164664,
				"z": 0.1226914777,
				"element": "N" 
			},
			{
				"x": 2.433627288,
				"y": -0.9743222083,
				"z": 1.4830275551,
				"element": "C" 
			},
			{
				"x": 1.4149288455,
				"y": -0.5631517254,
				"z": 2.5233891423,
				"element": "C" 
			},
			{
				"x": 3.4955640547,
				"y": -1.4707887921,
				"z": 1.8205917944,
				"element": "O" 
			},
			{
				"x": 0.9641516928,
				"y": -0.2159441208,
				"z": -0.4700280809,
				"element": "C" 
			},
			{
				"x": -0.1841112269,
				"y": 0.2751570321,
				"z": 0.0792512782,
				"element": "C" 
			},
			{
				"x": -1.1907711384,
				"y": 0.7772088955,
				"z": -0.8273121761,
				"element": "C" 
			},
			{
				"x": -2.3395999311,
				"y": 1.2850131405,
				"z": -0.4743454535,
				"element": "N" 
			},
			{
				"x": -2.6138588669,
				"y": 3.7779915309,
				"z": -1.6294507017,
				"element": "H" 
			},
			{
				"x": -4.0351550796,
				"y": 3.3552565617,
				"z": -2.6091071994,
				"element": "H" 
			},
			{
				"x": -4.1206827002,
				"y": 3.2849999605,
				"z": -0.8335825919,
				"element": "H" 
			},
			{
				"x": -3.9181158598,
				"y": 1.0082840703,
				"z": -1.7880987392,
				"element": "H" 
			},
			{
				"x": -2.3016457291,
				"y": 1.4365925888,
				"z": -3.8985648289,
				"element": "H" 
			},
			{
				"x": 0.4422457063,
				"y": 0.1830475931,
				"z": -3.8867976069,
				"element": "H" 
			},
			{
				"x": 2.9592687579,
				"y": -0.9908122575,
				"z": -3.0867432431,
				"element": "H" 
			},
			{
				"x": 4.840790452,
				"y": -1.9095631306,
				"z": -1.7042084866,
				"element": "H" 
			},
			{
				"x": 4.3176844157,
				"y": -2.7065419276,
				"z": -0.1992318217,
				"element": "H" 
			},
			{
				"x": 5.0379817796,
				"y": -1.1151283211,
				"z": -0.1218676966,
				"element": "H" 
			},
			{
				"x": 0.4727785363,
				"y": -1.1054262448,
				"z": 2.4028550072,
				"element": "H" 
			},
			{
				"x": 1.2011256506,
				"y": 0.5085204716,
				"z": 2.4783735977,
				"element": "H" 
			},
			{
				"x": 1.8468783745,
				"y": -0.8036138439,
				"z": 3.4942268146,
				"element": "H" 
			},
			{
				"x": -0.4036993288,
				"y": 0.3216333928,
				"z": 1.1331785426,
				"element": "H" 
			}
		],
		 "valence_orbital": [ 
			{
				"type": "occ",
				"energy": -0.26545,
				"method": "rhf"
			},
			{
				"type": "occ",
				"energy": -0.26178,
				"method": "rhf"
			},
			{
				"type": "occ",
				"energy": -0.25492,
				"method": "rhf"
			},
			{
				"type": "occ",
				"energy": -0.25339,
				"method": "rhf"
			},
			{
				"type": "occ",
				"energy": -0.18779,
				"method": "rhf"
			},
			{
				"type": "unocc",
				"energy": -0.07866,
				"method": "rhf"
			},
			{
				"type": "unocc",
				"energy": -0.02275,
				"method": "rhf"
			},
			{
				"type": "unocc",
				"energy": 0.02194,
				"method": "rhf"
			},
			{
				"type": "unocc",
				"energy": 0.05372,
				"method": "rhf"
			},
			{
				"type": "unocc",
				"energy": 0.07061,
				"method": "rhf"
			}
		],
		"cosmo_sigma_profile": { 
			"-0.025": 0.0,
			"-0.024": 0.0,
			"-0.023": 0.0,
			"-0.022": 0.0,
			"-0.021": 0.0,
			"-0.02": 0.0,
			"-0.019": 0.0,
			"-0.018": 0.0,
			"-0.017": 0.0,
			"-0.016": 0.0,
			"-0.015": 0.0,
			"-0.014": 0.0,
			"-0.013": 0.0,
			"-0.012": 0.0,
			"-0.011": 0.0,
			"-0.01": 0.0,
			"-0.009": 0.0,
			"-0.008": 0.346737631964,
			"-0.007": 7.96147070001,
			"-0.006": 15.7614658416,
			"-0.005": 16.8651544637,
			"-0.004": 24.8195927641,
			"-0.003": 24.2138538345,
			"-0.002": 27.0118202176,
			"-0.001": 24.7399499109,
			"0.0": 24.7706456144,
			"0.001": 19.135200155,
			"0.002": 18.3113301214,
			"0.003": 18.6580699032,
			"0.004": 13.0554106071,
			"0.005": 3.39508425569,
			"0.006": 2.90184341737,
			"0.007": 2.78831159196,
			"0.008": 3.28697762816,
			"0.009": 2.39144880106,
			"0.01": 3.14447740355,
			"0.011": 3.19073444955,
			"0.012": 3.4203337539,
			"0.013": 2.74653186152,
			"0.014": 1.00370506118,
			"0.015": 0.820560424907,
			"0.016": 0.802524660835,
			"0.017": 0.985858353101,
			"0.018": 0.816228832104,
			"0.019": 0.343506024473,
			"0.02": 0.0,
			"0.021": 0.0,
			"0.022": 0.0,
			"0.023": 0.0,
			"0.024": 0.0,
			"0.025": 0.0
		}
	}
}
