{
	 "smiles": "COC1=C(C)C=CC(CC(O)=O)=C1", 
	 "Tm": 348.15, 
	 "num_atms": 25, 
	 "gaussian": { 
		 "optdone": 1, 
		 "sigma_profile": "yes", 
		 "theory": "DFT", 
		 "functional": "B3LYP", 
		 "basiset": "6-31G**", 
		 "properties": { 
			 "R2extent": 3689.1196, 
			 "electric_dipole_moment_norm": 2.53318171673, 
			 "electric_quadrupole_moment_norm": 12.8265371009, 
			 "total_energy": -613.981213893, 
			 "HOMO_LUMO_gap": 0.2056, 
			 "cosmo_polarized_energy": -11.44, 
			 "cosmo_cavitation_energy": 29.07, 
			 "cosmo_dispersion_energy": -20.52, 
			 "cosmo_repulsion_energy": 1.66, 
			 "cosmo_total_nonelectrostatic_energy": 10.21, 
			 "SMD_solvation_energy": 6.93 
		},
		"coords": [
			{
				"x": -0.612897682,
				"y": 1.148077607,
				"z": -1.3023973168,
				"element": "C" 
			},
			{
				"x": -0.8417858323,
				"y": 1.1018748145,
				"z": 0.0962075035,
				"element": "O" 
			},
			{
				"x": 0.0218889338,
				"y": 0.3811461835,
				"z": 0.8750142745,
				"element": "C" 
			},
			{
				"x": -0.2772496458,
				"y": 0.3785088172,
				"z": 2.2553256342,
				"element": "C" 
			},
			{
				"x": -1.4739412776,
				"y": 1.1358495529,
				"z": 2.769654711,
				"element": "C" 
			},
			{
				"x": 0.5675875605,
				"y": -0.3395500976,
				"z": 3.0985899631,
				"element": "C" 
			},
			{
				"x": 1.6782428292,
				"y": -1.0374025568,
				"z": 2.6130079117,
				"element": "C" 
			},
			{
				"x": 1.9664081243,
				"y": -1.0232428846,
				"z": 1.2494192666,
				"element": "C" 
			},
			{
				"x": 3.1624797662,
				"y": -1.7875536179,
				"z": 0.7027974907,
				"element": "C" 
			},
			{
				"x": 2.7520002572,
				"y": -3.1271299406,
				"z": 0.1159629079,
				"element": "C" 
			},
			{
				"x": 2.2288967758,
				"y": -2.989352154,
				"z": -1.1295519006,
				"element": "O" 
			},
			{
				"x": 2.8472631631,
				"y": -4.2003894245,
				"z": 0.6660966354,
				"element": "O" 
			},
			{
				"x": 1.1281421917,
				"y": -0.3102546029,
				"z": 0.3784540095,
				"element": "C" 
			},
			{
				"x": -1.4116680371,
				"y": 1.7640885659,
				"z": -1.7187855336,
				"element": "H" 
			},
			{
				"x": -0.6550555887,
				"y": 0.148364319,
				"z": -1.7535393362,
				"element": "H" 
			},
			{
				"x": 0.3562281981,
				"y": 1.6057390926,
				"z": -1.539892072,
				"element": "H" 
			},
			{
				"x": -2.4007431139,
				"y": 0.7753074948,
				"z": 2.3097873484,
				"element": "H" 
			},
			{
				"x": -1.5637075028,
				"y": 1.0317599217,
				"z": 3.8541439085,
				"element": "H" 
			},
			{
				"x": -1.4038026579,
				"y": 2.2025251393,
				"z": 2.5292440975,
				"element": "H" 
			},
			{
				"x": 0.3527554493,
				"y": -0.3529216825,
				"z": 4.1642166704,
				"element": "H" 
			},
			{
				"x": 2.3156449878,
				"y": -1.5891121084,
				"z": 3.2976932132,
				"element": "H" 
			},
			{
				"x": 3.6627904697,
				"y": -1.2038393607,
				"z": -0.07670712,
				"element": "H" 
			},
			{
				"x": 3.8778257646,
				"y": -1.9944009304,
				"z": 1.5006774089,
				"element": "H" 
			},
			{
				"x": 1.9547916255,
				"y": -3.8805453571,
				"z": -1.4047258581,
				"element": "H" 
			},
			{
				"x": 1.3480052415,
				"y": -0.3141467903,
				"z": -0.6824938177,
				"element": "H" 
			}
		],
		 "valence_orbital": [ 
			{
				"type": "occ",
				"energy": -0.3169,
				"method": "rhf"
			},
			{
				"type": "occ",
				"energy": -0.31561,
				"method": "rhf"
			},
			{
				"type": "occ",
				"energy": -0.27585,
				"method": "rhf"
			},
			{
				"type": "occ",
				"energy": -0.23839,
				"method": "rhf"
			},
			{
				"type": "occ",
				"energy": -0.21442,
				"method": "rhf"
			},
			{
				"type": "unocc",
				"energy": -0.00882,
				"method": "rhf"
			},
			{
				"type": "unocc",
				"energy": 0.01178,
				"method": "rhf"
			},
			{
				"type": "unocc",
				"energy": 0.02363,
				"method": "rhf"
			},
			{
				"type": "unocc",
				"energy": 0.07691,
				"method": "rhf"
			},
			{
				"type": "unocc",
				"energy": 0.10088,
				"method": "rhf"
			}
		],
		"cosmo_sigma_profile": { 
			"-0.025": 0.0,
			"-0.024": 0.0,
			"-0.023": 0.0,
			"-0.022": 0.0,
			"-0.021": 0.0,
			"-0.02": 0.0,
			"-0.019": 0.0,
			"-0.018": 0.699924075404,
			"-0.017": 0.800284368169,
			"-0.016": 0.984290814474,
			"-0.015": 1.06389342621,
			"-0.014": 0.612466347972,
			"-0.013": 0.322707063154,
			"-0.012": 0.542835527961,
			"-0.011": 0.919765349875,
			"-0.01": 0.851563204208,
			"-0.009": 0.570598037882,
			"-0.008": 0.503527260404,
			"-0.007": 1.33671746664,
			"-0.006": 8.66632082596,
			"-0.005": 20.2548889464,
			"-0.004": 22.4388545035,
			"-0.003": 22.9459340896,
			"-0.002": 17.7037055659,
			"-0.001": 15.1095273818,
			"0.0": 15.9295932404,
			"0.001": 12.8503285308,
			"0.002": 12.5048870079,
			"0.003": 13.0757718213,
			"0.004": 11.9830798283,
			"0.005": 13.5549225718,
			"0.006": 9.76225687441,
			"0.007": 3.92337782768,
			"0.008": 4.70769650346,
			"0.009": 3.51320230813,
			"0.01": 1.76521747185,
			"0.011": 4.15205187821,
			"0.012": 4.40014169469,
			"0.013": 0.923942389419,
			"0.014": 0.0,
			"0.015": 0.0,
			"0.016": 0.0,
			"0.017": 0.0,
			"0.018": 0.0,
			"0.019": 0.0,
			"0.02": 0.0,
			"0.021": 0.0,
			"0.022": 0.0,
			"0.023": 0.0,
			"0.024": 0.0,
			"0.025": 0.0
		}
	}
}
