{
	 "smiles": "CC1(C)CN1P(=O)(NC(=O)NC1CC(C)(C)N(O)C(C)(C)C1)N1CC1(C)C", 
	 "Tm": 466.15, 
	 "num_atms": 63, 
	 "gaussian": { 
		 "optdone": 1, 
		 "sigma_profile": "yes", 
		 "theory": "DFT", 
		 "functional": "B3LYP", 
		 "basiset": "6-31G**", 
		 "properties": { 
			 "R2extent": 13691.6393, 
			 "electric_dipole_moment_norm": 2.33840348529, 
			 "electric_quadrupole_moment_norm": 21.1597688615, 
			 "total_energy": -1548.37356507, 
			 "HOMO_LUMO_gap": 0.25299, 
			 "cosmo_polarized_energy": -27.15, 
			 "cosmo_cavitation_energy": 60.37, 
			 "cosmo_dispersion_energy": -37.69, 
			 "cosmo_repulsion_energy": 2.83, 
			 "cosmo_total_nonelectrostatic_energy": 25.51, 
			 "SMD_solvation_energy": 7.87 
		},
		"coords": [
			{
				"x": 2.4634445481,
				"y": -1.4942781345,
				"z": 2.7042852413,
				"element": "C" 
			},
			{
				"x": 2.6941213332,
				"y": -2.9919845522,
				"z": 2.613911116,
				"element": "C" 
			},
			{
				"x": 2.3444556714,
				"y": -3.7661774696,
				"z": 3.872372444,
				"element": "C" 
			},
			{
				"x": 3.7944113334,
				"y": -3.4938406133,
				"z": 1.7204603295,
				"element": "C" 
			},
			{
				"x": 2.4002553763,
				"y": -3.7104897093,
				"z": 1.3736264319,
				"element": "N" 
			},
			{
				"x": 1.6118342106,
				"y": -3.4519456198,
				"z": -0.0700064675,
				"element": "P" 
			},
			{
				"x": 2.2513117187,
				"y": -4.205501739,
				"z": -1.1888108206,
				"element": "O" 
			},
			{
				"x": 1.5977508967,
				"y": -1.802917868,
				"z": -0.5790849879,
				"element": "N" 
			},
			{
				"x": 0.7987147947,
				"y": -0.7188918061,
				"z": -0.1946733776,
				"element": "C" 
			},
			{
				"x": -0.0052108308,
				"y": -0.7674829816,
				"z": 0.729519882,
				"element": "O" 
			},
			{
				"x": 1.0024530106,
				"y": 0.4004341244,
				"z": -0.9709944218,
				"element": "N" 
			},
			{
				"x": 0.3687513524,
				"y": 1.7047376137,
				"z": -0.719269083,
				"element": "C" 
			},
			{
				"x": 0.7348809889,
				"y": 2.3007421633,
				"z": 0.6472061651,
				"element": "C" 
			},
			{
				"x": 0.1229888999,
				"y": 3.7008115714,
				"z": 0.878098032,
				"element": "C" 
			},
			{
				"x": 0.2647884666,
				"y": 4.0493451056,
				"z": 2.3730877818,
				"element": "C" 
			},
			{
				"x": 0.8592308852,
				"y": 4.7873461424,
				"z": 0.0592135117,
				"element": "C" 
			},
			{
				"x": -1.3379573805,
				"y": 3.5921337461,
				"z": 0.6085721718,
				"element": "N" 
			},
			{
				"x": -1.9116332709,
				"y": 4.9122041487,
				"z": 0.7571626781,
				"element": "O" 
			},
			{
				"x": -1.8282860247,
				"y": 3.0264176258,
				"z": -0.6797825764,
				"element": "C" 
			},
			{
				"x": -3.3443430036,
				"y": 2.8058635028,
				"z": -0.5082341675,
				"element": "C" 
			},
			{
				"x": -1.6112421894,
				"y": 3.9312729888,
				"z": -1.9154270188,
				"element": "C" 
			},
			{
				"x": -1.1571896621,
				"y": 1.6459811081,
				"z": -0.8561170806,
				"element": "C" 
			},
			{
				"x": 0.0343074798,
				"y": -3.7647772136,
				"z": 0.399695822,
				"element": "N" 
			},
			{
				"x": -0.5739427807,
				"y": -5.0845515573,
				"z": 0.1795927948,
				"element": "C" 
			},
			{
				"x": -1.1448531938,
				"y": -3.8691533458,
				"z": -0.4793356202,
				"element": "C" 
			},
			{
				"x": -0.9929600032,
				"y": -3.7201221905,
				"z": -1.9846614651,
				"element": "C" 
			},
			{
				"x": -2.3846572317,
				"y": -3.2204292256,
				"z": 0.1074377004,
				"element": "C" 
			},
			{
				"x": 1.3976187631,
				"y": -1.2671620383,
				"z": 2.7865486428,
				"element": "H" 
			},
			{
				"x": 2.8499631128,
				"y": -0.9757733808,
				"z": 1.8237538276,
				"element": "H" 
			},
			{
				"x": 2.9770500728,
				"y": -1.0969137065,
				"z": 3.5867211825,
				"element": "H" 
			},
			{
				"x": 2.5287942792,
				"y": -4.834473547,
				"z": 3.7352283437,
				"element": "H" 
			},
			{
				"x": 2.9388545015,
				"y": -3.4103576253,
				"z": 4.7214488926,
				"element": "H" 
			},
			{
				"x": 1.286102789,
				"y": -3.6305388564,
				"z": 4.1189462567,
				"element": "H" 
			},
			{
				"x": 4.3583855419,
				"y": -2.7536941205,
				"z": 1.1529307418,
				"element": "H" 
			},
			{
				"x": 4.3569072629,
				"y": -4.3886539443,
				"z": 1.9825990909,
				"element": "H" 
			},
			{
				"x": 2.0841625527,
				"y": -1.7290464572,
				"z": -1.464938054,
				"element": "H" 
			},
			{
				"x": 1.8167185804,
				"y": 0.4127744287,
				"z": -1.5664398503,
				"element": "H" 
			},
			{
				"x": 0.7668046742,
				"y": 2.3502760634,
				"z": -1.509718595,
				"element": "H" 
			},
			{
				"x": 1.8243865707,
				"y": 2.374749337,
				"z": 0.7479288442,
				"element": "H" 
			},
			{
				"x": 0.3765003103,
				"y": 1.6145435824,
				"z": 1.419334724,
				"element": "H" 
			},
			{
				"x": -0.1098228965,
				"y": 5.0563975964,
				"z": 2.5739871436,
				"element": "H" 
			},
			{
				"x": 1.3162748367,
				"y": 4.0112978431,
				"z": 2.6760114467,
				"element": "H" 
			},
			{
				"x": -0.2986251021,
				"y": 3.3368172271,
				"z": 2.9829901479,
				"element": "H" 
			},
			{
				"x": 1.852025015,
				"y": 4.9629383368,
				"z": 0.4872070678,
				"element": "H" 
			},
			{
				"x": 0.9996548938,
				"y": 4.5172346387,
				"z": -0.9895230195,
				"element": "H" 
			},
			{
				"x": 0.3014827831,
				"y": 5.7255536707,
				"z": 0.0977835438,
				"element": "H" 
			},
			{
				"x": -2.4897227626,
				"y": 4.8031241136,
				"z": 1.5237230621,
				"element": "H" 
			},
			{
				"x": -3.542204912,
				"y": 2.2224513766,
				"z": 0.3959773046,
				"element": "H" 
			},
			{
				"x": -3.8694292383,
				"y": 3.761482656,
				"z": -0.4314258134,
				"element": "H" 
			},
			{
				"x": -3.7505513497,
				"y": 2.2630938428,
				"z": -1.3679299103,
				"element": "H" 
			},
			{
				"x": -1.9360713387,
				"y": 4.9502200503,
				"z": -1.6937437022,
				"element": "H" 
			},
			{
				"x": -2.2072642757,
				"y": 3.5582023028,
				"z": -2.7550948886,
				"element": "H" 
			},
			{
				"x": -0.5712690084,
				"y": 3.9692679756,
				"z": -2.2464549683,
				"element": "H" 
			},
			{
				"x": -1.5391992539,
				"y": 0.9575813462,
				"z": -0.0981999804,
				"element": "H" 
			},
			{
				"x": -1.4293099514,
				"y": 1.2441034343,
				"z": -1.8387580136,
				"element": "H" 
			},
			{
				"x": -0.0278617168,
				"y": -5.7901136859,
				"z": -0.4443479535,
				"element": "H" 
			},
			{
				"x": -1.0624393463,
				"y": -5.5163303472,
				"z": 1.0509401904,
				"element": "H" 
			},
			{
				"x": -1.8441815445,
				"y": -4.1892552735,
				"z": -2.4902777862,
				"element": "H" 
			},
			{
				"x": -0.9836812123,
				"y": -2.6619480323,
				"z": -2.2691719988,
				"element": "H" 
			},
			{
				"x": -0.0707884039,
				"y": -4.1828320668,
				"z": -2.3435603526,
				"element": "H" 
			},
			{
				"x": -3.2880653089,
				"y": -3.6131861032,
				"z": -0.3730072376,
				"element": "H" 
			},
			{
				"x": -2.3489190671,
				"y": -2.137493901,
				"z": -0.0418012222,
				"element": "H" 
			},
			{
				"x": -2.4468052462,
				"y": -3.4056825515,
				"z": 1.1823878777,
				"element": "H" 
			}
		],
		 "valence_orbital": [ 
			{
				"type": "occ",
				"energy": -0.25882,
				"method": "rhf"
			},
			{
				"type": "occ",
				"energy": -0.2524,
				"method": "rhf"
			},
			{
				"type": "occ",
				"energy": -0.24045,
				"method": "rhf"
			},
			{
				"type": "occ",
				"energy": -0.23578,
				"method": "rhf"
			},
			{
				"type": "occ",
				"energy": -0.21439,
				"method": "rhf"
			},
			{
				"type": "unocc",
				"energy": 0.0386,
				"method": "rhf"
			},
			{
				"type": "unocc",
				"energy": 0.04866,
				"method": "rhf"
			},
			{
				"type": "unocc",
				"energy": 0.06772,
				"method": "rhf"
			},
			{
				"type": "unocc",
				"energy": 0.07682,
				"method": "rhf"
			},
			{
				"type": "unocc",
				"energy": 0.08006,
				"method": "rhf"
			}
		],
		"cosmo_sigma_profile": { 
			"-0.025": 0.0,
			"-0.024": 0.0,
			"-0.023": 0.0,
			"-0.022": 0.0,
			"-0.021": 0.0,
			"-0.02": 0.0,
			"-0.019": 0.0,
			"-0.018": 0.0017170858583,
			"-0.017": 0.721970830249,
			"-0.016": 1.48299549742,
			"-0.015": 2.30421405069,
			"-0.014": 2.17430248686,
			"-0.013": 2.4639797128,
			"-0.012": 1.92782567397,
			"-0.011": 1.81912897925,
			"-0.01": 2.11725709732,
			"-0.009": 2.54450713773,
			"-0.008": 2.54766729236,
			"-0.007": 1.94103064503,
			"-0.006": 8.3221614247,
			"-0.005": 12.106743756,
			"-0.004": 27.941061814,
			"-0.003": 47.8143626742,
			"-0.002": 60.0486718621,
			"-0.001": 57.028364986,
			"0.0": 64.121574017,
			"0.001": 52.2721345327,
			"0.002": 25.4192689575,
			"0.003": 11.4118423178,
			"0.004": 8.73123733528,
			"0.005": 9.11081959965,
			"0.006": 8.56111079558,
			"0.007": 6.80671328887,
			"0.008": 6.70355833057,
			"0.009": 7.35581791038,
			"0.01": 5.59683893119,
			"0.011": 4.31500861766,
			"0.012": 2.55437410125,
			"0.013": 3.01403451972,
			"0.014": 3.01900679472,
			"0.015": 4.76416562559,
			"0.016": 4.15788428591,
			"0.017": 0.612923761582,
			"0.018": 0.133231672608,
			"0.019": 0.0,
			"0.02": 0.0,
			"0.021": 0.0,
			"0.022": 0.0,
			"0.023": 0.0,
			"0.024": 0.0,
			"0.025": 0.0
		}
	}
}
