{
	 "smiles": "NC(=O)CCN(C(=O)CCl)C1=CC=CC=C1", 
	 "Tm": 417.15, 
	 "num_atms": 29, 
	 "gaussian": { 
		 "optdone": 1, 
		 "sigma_profile": "yes", 
		 "theory": "DFT", 
		 "functional": "B3LYP", 
		 "basiset": "6-31G**", 
		 "properties": { 
			 "R2extent": 4318.4962, 
			 "electric_dipole_moment_norm": 6.57749658305, 
			 "electric_quadrupole_moment_norm": 10.8304262557, 
			 "total_energy": -1147.17494758, 
			 "HOMO_LUMO_gap": 0.21268, 
			 "cosmo_polarized_energy": -19.88, 
			 "cosmo_cavitation_energy": 34.16, 
			 "cosmo_dispersion_energy": -23.41, 
			 "cosmo_repulsion_energy": 1.87, 
			 "cosmo_total_nonelectrostatic_energy": 12.62, 
			 "SMD_solvation_energy": 6.72 
		},
		"coords": [
			{
				"x": -2.3372893639,
				"y": -2.301763003,
				"z": -0.34705788,
				"element": "N" 
			},
			{
				"x": -2.3019775689,
				"y": -1.1253744571,
				"z": 0.3378691633,
				"element": "C" 
			},
			{
				"x": -2.5136080311,
				"y": -1.0672317792,
				"z": 1.5444514825,
				"element": "O" 
			},
			{
				"x": -2.023873163,
				"y": 0.1176845153,
				"z": -0.5060439598,
				"element": "C" 
			},
			{
				"x": -1.2453171483,
				"y": 1.183870715,
				"z": 0.2737380239,
				"element": "C" 
			},
			{
				"x": 0.1345053048,
				"y": 0.7754360782,
				"z": 0.5705482311,
				"element": "N" 
			},
			{
				"x": 0.626055696,
				"y": 0.5056062624,
				"z": 1.8359962387,
				"element": "C" 
			},
			{
				"x": 1.7569612401,
				"y": 0.0801645915,
				"z": 2.0217852812,
				"element": "O" 
			},
			{
				"x": -0.2915378119,
				"y": 0.7328324344,
				"z": 3.0380005859,
				"element": "C" 
			},
			{
				"x": -0.6020681393,
				"y": 2.5016220622,
				"z": 3.3531905915,
				"element": "Cl" 
			},
			{
				"x": 1.0165388066,
				"y": 0.6158449701,
				"z": -0.5546422369,
				"element": "C" 
			},
			{
				"x": 1.5960557033,
				"y": -0.6263588266,
				"z": -0.8382870939,
				"element": "C" 
			},
			{
				"x": 2.4249498762,
				"y": -0.7698915995,
				"z": -1.9502196118,
				"element": "C" 
			},
			{
				"x": 2.6733267327,
				"y": 0.3169717867,
				"z": -2.7917276562,
				"element": "C" 
			},
			{
				"x": 2.0955790923,
				"y": 1.5552372942,
				"z": -2.5087369004,
				"element": "C" 
			},
			{
				"x": 1.2744374984,
				"y": 1.707367955,
				"z": -1.3904708563,
				"element": "C" 
			},
			{
				"x": -2.1226847375,
				"y": -2.3637441625,
				"z": -1.3286740295,
				"element": "H" 
			},
			{
				"x": -2.5407086793,
				"y": -3.1470134708,
				"z": 0.1653021528,
				"element": "H" 
			},
			{
				"x": -2.9952042331,
				"y": 0.5400517054,
				"z": -0.7949217257,
				"element": "H" 
			},
			{
				"x": -1.4997218572,
				"y": -0.1398111903,
				"z": -1.4322757816,
				"element": "H" 
			},
			{
				"x": -1.2299757958,
				"y": 2.1128095109,
				"z": -0.3050068725,
				"element": "H" 
			},
			{
				"x": -1.7668665389,
				"y": 1.3994624099,
				"z": 1.202392142,
				"element": "H" 
			},
			{
				"x": 0.2400181219,
				"y": 0.3545024564,
				"z": 3.9074410012,
				"element": "H" 
			},
			{
				"x": -1.258240049,
				"y": 0.2414360887,
				"z": 2.9247242296,
				"element": "H" 
			},
			{
				"x": 1.4077947857,
				"y": -1.4641015017,
				"z": -0.1768205691,
				"element": "H" 
			},
			{
				"x": 2.8778279068,
				"y": -1.7348227919,
				"z": -2.1592797474,
				"element": "H" 
			},
			{
				"x": 3.3175138293,
				"y": 0.2005305941,
				"z": -3.658262271,
				"element": "H" 
			},
			{
				"x": 2.2918395389,
				"y": 2.4093249351,
				"z": -3.1503590267,
				"element": "H" 
			},
			{
				"x": 0.846868984,
				"y": 2.677556417,
				"z": -1.156052905,
				"element": "H" 
			}
		],
		 "valence_orbital": [ 
			{
				"type": "occ",
				"energy": -0.27521,
				"method": "rhf"
			},
			{
				"type": "occ",
				"energy": -0.26542,
				"method": "rhf"
			},
			{
				"type": "occ",
				"energy": -0.25984,
				"method": "rhf"
			},
			{
				"type": "occ",
				"energy": -0.24636,
				"method": "rhf"
			},
			{
				"type": "occ",
				"energy": -0.23268,
				"method": "rhf"
			},
			{
				"type": "unocc",
				"energy": -0.02,
				"method": "rhf"
			},
			{
				"type": "unocc",
				"energy": -0.00821,
				"method": "rhf"
			},
			{
				"type": "unocc",
				"energy": -0.00107,
				"method": "rhf"
			},
			{
				"type": "unocc",
				"energy": 0.01172,
				"method": "rhf"
			},
			{
				"type": "unocc",
				"energy": 0.05887,
				"method": "rhf"
			}
		],
		"cosmo_sigma_profile": { 
			"-0.025": 0.0,
			"-0.024": 0.0,
			"-0.023": 0.0,
			"-0.022": 0.0,
			"-0.021": 0.0,
			"-0.02": 0.0,
			"-0.019": 0.0,
			"-0.018": 0.0,
			"-0.017": 0.0,
			"-0.016": 0.0,
			"-0.015": 0.602845169703,
			"-0.014": 1.90530924427,
			"-0.013": 2.69258309948,
			"-0.012": 2.09781876592,
			"-0.011": 1.70686222785,
			"-0.01": 3.32309871451,
			"-0.009": 2.46107263392,
			"-0.008": 2.43762313277,
			"-0.007": 7.63836981072,
			"-0.006": 16.2579103849,
			"-0.005": 19.5783612989,
			"-0.004": 23.4724858387,
			"-0.003": 19.995131281,
			"-0.002": 17.254887335,
			"-0.001": 15.5314605934,
			"0.0": 13.8727420305,
			"0.001": 16.1181055629,
			"0.002": 15.3834551482,
			"0.003": 16.5054516483,
			"0.004": 17.1831622281,
			"0.005": 17.3185650932,
			"0.006": 9.36648907554,
			"0.007": 3.26175738473,
			"0.008": 2.3385533425,
			"0.009": 3.01805865454,
			"0.01": 2.75751424556,
			"0.011": 3.66841202257,
			"0.012": 4.69111859721,
			"0.013": 7.75486005781,
			"0.014": 2.42659212327,
			"0.015": 0.266352355014,
			"0.016": 0.0,
			"0.017": 0.0,
			"0.018": 0.0,
			"0.019": 0.0,
			"0.02": 0.0,
			"0.021": 0.0,
			"0.022": 0.0,
			"0.023": 0.0,
			"0.024": 0.0,
			"0.025": 0.0
		}
	}
}
