{
	 "smiles": "CCC(=O)OC1(C(C)CC2C3CCC4=CC(=O)C=CC4(C)C3(F)C(O)CC12C)C(=O)CCl", 
	 "Tm": 469.15, 
	 "num_atms": 64, 
	 "gaussian": { 
		 "optdone": 1, 
		 "sigma_profile": "yes", 
		 "theory": "DFT", 
		 "functional": "B3LYP", 
		 "basiset": "6-31G**", 
		 "properties": { 
			 "R2extent": 15734.4167, 
			 "electric_dipole_moment_norm": 6.87519385109, 
			 "electric_quadrupole_moment_norm": 24.864191209, 
			 "total_energy": -1908.0724324, 
			 "HOMO_LUMO_gap": 0.17579, 
			 "cosmo_polarized_energy": -23.28, 
			 "cosmo_cavitation_energy": 57.95, 
			 "cosmo_dispersion_energy": -38.23, 
			 "cosmo_repulsion_energy": 2.78, 
			 "cosmo_total_nonelectrostatic_energy": 22.49, 
			 "SMD_solvation_energy": 10.71 
		},
		"coords": [
			{
				"x": -0.0893782107,
				"y": 4.8722324655,
				"z": -2.8718472576,
				"element": "C" 
			},
			{
				"x": 0.1994449746,
				"y": 5.6153798917,
				"z": -1.5588729032,
				"element": "C" 
			},
			{
				"x": 0.9808145581,
				"y": 4.7982501939,
				"z": -0.5495982508,
				"element": "C" 
			},
			{
				"x": 2.0316765047,
				"y": 5.1411716002,
				"z": -0.0444139854,
				"element": "O" 
			},
			{
				"x": 0.3420198579,
				"y": 3.6492007549,
				"z": -0.2399864716,
				"element": "O" 
			},
			{
				"x": 0.9917742398,
				"y": 2.6536682891,
				"z": 0.6152101596,
				"element": "C" 
			},
			{
				"x": 1.8727966334,
				"y": 1.717313955,
				"z": -0.2426968485,
				"element": "C" 
			},
			{
				"x": 2.9437097098,
				"y": 2.3602415161,
				"z": -1.1245710585,
				"element": "C" 
			},
			{
				"x": 0.8644960127,
				"y": 0.8375390834,
				"z": -1.0143425683,
				"element": "C" 
			},
			{
				"x": -0.4915117044,
				"y": 0.9396118142,
				"z": -0.2556676331,
				"element": "C" 
			},
			{
				"x": -1.3574922456,
				"y": -0.3500015204,
				"z": -0.1031155753,
				"element": "C" 
			},
			{
				"x": -1.3047625254,
				"y": -1.2539052116,
				"z": -1.3715077991,
				"element": "C" 
			},
			{
				"x": -0.4320095519,
				"y": -2.5108143759,
				"z": -1.2385450759,
				"element": "C" 
			},
			{
				"x": -0.6192522629,
				"y": -3.2868423147,
				"z": 0.0499317368,
				"element": "C" 
			},
			{
				"x": -0.0567868029,
				"y": -4.4989149847,
				"z": 0.2204862883,
				"element": "C" 
			},
			{
				"x": -0.049796051,
				"y": -5.2148927747,
				"z": 1.5066436293,
				"element": "C" 
			},
			{
				"x": 0.4561969197,
				"y": -6.3276825015,
				"z": 1.6386965364,
				"element": "O" 
			},
			{
				"x": -0.6505103233,
				"y": -4.4922126294,
				"z": 2.651579514,
				"element": "C" 
			},
			{
				"x": -1.2540005219,
				"y": -3.3075746863,
				"z": 2.4914180562,
				"element": "C" 
			},
			{
				"x": -1.4499098596,
				"y": -2.6458299501,
				"z": 1.1463536055,
				"element": "C" 
			},
			{
				"x": -2.9710383415,
				"y": -2.8678948442,
				"z": 0.827157481,
				"element": "C" 
			},
			{
				"x": -1.1531069341,
				"y": -1.1138985219,
				"z": 1.2354934895,
				"element": "C" 
			},
			{
				"x": -2.1173066955,
				"y": -0.5975041747,
				"z": 2.148791784,
				"element": "F" 
			},
			{
				"x": 0.1810755171,
				"y": -0.7765855174,
				"z": 1.9195111593,
				"element": "C" 
			},
			{
				"x": 1.2237246927,
				"y": -1.2725084445,
				"z": 1.0807825933,
				"element": "O" 
			},
			{
				"x": 0.3020036307,
				"y": 0.7281271954,
				"z": 2.2107786624,
				"element": "C" 
			},
			{
				"x": -0.1866018226,
				"y": 1.6978459899,
				"z": 1.0801405894,
				"element": "C" 
			},
			{
				"x": -1.4294427742,
				"y": 2.4621611374,
				"z": 1.5750323717,
				"element": "C" 
			},
			{
				"x": 1.7535858126,
				"y": 3.3025257265,
				"z": 1.7891372125,
				"element": "C" 
			},
			{
				"x": 2.7775181061,
				"y": 2.7976017522,
				"z": 2.2020035781,
				"element": "O" 
			},
			{
				"x": 1.1514341376,
				"y": 4.5120944167,
				"z": 2.5183534304,
				"element": "C" 
			},
			{
				"x": 0.7849305246,
				"y": 4.0973318953,
				"z": 4.2462257482,
				"element": "Cl" 
			},
			{
				"x": -0.6496909006,
				"y": 5.5185127999,
				"z": -3.5532602049,
				"element": "H" 
			},
			{
				"x": 0.8380764827,
				"y": 4.5809856448,
				"z": -3.3744025025,
				"element": "H" 
			},
			{
				"x": -0.6794003927,
				"y": 3.9705206007,
				"z": -2.6917796529,
				"element": "H" 
			},
			{
				"x": -0.7473564369,
				"y": 5.9051148568,
				"z": -1.0860852969,
				"element": "H" 
			},
			{
				"x": 0.7748952161,
				"y": 6.5264257421,
				"z": -1.7366410972,
				"element": "H" 
			},
			{
				"x": 2.3878564319,
				"y": 1.0844157138,
				"z": 0.4840166594,
				"element": "H" 
			},
			{
				"x": 3.638896125,
				"y": 2.9675894931,
				"z": -0.5415887484,
				"element": "H" 
			},
			{
				"x": 3.5158259594,
				"y": 1.5740937623,
				"z": -1.6289325642,
				"element": "H" 
			},
			{
				"x": 2.5064646078,
				"y": 2.990480961,
				"z": -1.9060131085,
				"element": "H" 
			},
			{
				"x": 1.2422052353,
				"y": -0.1816265484,
				"z": -1.0761340061,
				"element": "H" 
			},
			{
				"x": 0.7465564997,
				"y": 1.2094804248,
				"z": -2.0381789619,
				"element": "H" 
			},
			{
				"x": -1.1137747403,
				"y": 1.6224653838,
				"z": -0.8436282019,
				"element": "H" 
			},
			{
				"x": -2.3917896697,
				"y": -0.0021537877,
				"z": -0.0174094741,
				"element": "H" 
			},
			{
				"x": -0.945129178,
				"y": -0.664052132,
				"z": -2.2198828544,
				"element": "H" 
			},
			{
				"x": -2.3218460648,
				"y": -1.5536713936,
				"z": -1.6404291968,
				"element": "H" 
			},
			{
				"x": 0.6244317203,
				"y": -2.2242321801,
				"z": -1.2763038692,
				"element": "H" 
			},
			{
				"x": -0.6011517661,
				"y": -3.169964483,
				"z": -2.0980844911,
				"element": "H" 
			},
			{
				"x": 0.4891200596,
				"y": -4.9817206261,
				"z": -0.586938059,
				"element": "H" 
			},
			{
				"x": -0.5844656544,
				"y": -4.9813852692,
				"z": 3.6193200834,
				"element": "H" 
			},
			{
				"x": -1.7211482588,
				"y": -2.8015683613,
				"z": 3.3334624512,
				"element": "H" 
			},
			{
				"x": -3.1709989699,
				"y": -3.940357082,
				"z": 0.7817530647,
				"element": "H" 
			},
			{
				"x": -3.2714093883,
				"y": -2.4238358413,
				"z": -0.1221657054,
				"element": "H" 
			},
			{
				"x": -3.5816844571,
				"y": -2.4257376362,
				"z": 1.616508587,
				"element": "H" 
			},
			{
				"x": 0.2034999743,
				"y": -1.3054517075,
				"z": 2.8808079641,
				"element": "H" 
			},
			{
				"x": 2.0235474977,
				"y": -1.3610707714,
				"z": 1.6132545722,
				"element": "H" 
			},
			{
				"x": -0.2749967855,
				"y": 0.934583203,
				"z": 3.1157499023,
				"element": "H" 
			},
			{
				"x": 1.3455308075,
				"y": 0.9139831096,
				"z": 2.4781698421,
				"element": "H" 
			},
			{
				"x": -1.2280963538,
				"y": 3.0021014742,
				"z": 2.504915632,
				"element": "H" 
			},
			{
				"x": -1.7895549875,
				"y": 3.1723289097,
				"z": 0.8271014402,
				"element": "H" 
			},
			{
				"x": -2.2273792695,
				"y": 1.7482452011,
				"z": 1.7903895561,
				"element": "H" 
			},
			{
				"x": 1.8899683999,
				"y": 5.3114641605,
				"z": 2.5303630914,
				"element": "H" 
			},
			{
				"x": 0.2227030523,
				"y": 4.8647011529,
				"z": 2.0757829505,
				"element": "H" 
			}
		],
		 "valence_orbital": [ 
			{
				"type": "occ",
				"energy": -0.28702,
				"method": "rhf"
			},
			{
				"type": "occ",
				"energy": -0.26738,
				"method": "rhf"
			},
			{
				"type": "occ",
				"energy": -0.25774,
				"method": "rhf"
			},
			{
				"type": "occ",
				"energy": -0.24828,
				"method": "rhf"
			},
			{
				"type": "occ",
				"energy": -0.2317,
				"method": "rhf"
			},
			{
				"type": "unocc",
				"energy": -0.05591,
				"method": "rhf"
			},
			{
				"type": "unocc",
				"energy": -0.04965,
				"method": "rhf"
			},
			{
				"type": "unocc",
				"energy": -0.0148,
				"method": "rhf"
			},
			{
				"type": "unocc",
				"energy": -0.00164,
				"method": "rhf"
			},
			{
				"type": "unocc",
				"energy": 0.03749,
				"method": "rhf"
			}
		],
		"cosmo_sigma_profile": { 
			"-0.025": 0.0,
			"-0.024": 0.0,
			"-0.023": 0.0,
			"-0.022": 0.0,
			"-0.021": 0.0,
			"-0.02": 0.0,
			"-0.019": 0.0,
			"-0.018": 0.0,
			"-0.017": 0.0455335165339,
			"-0.016": 1.06957195576,
			"-0.015": 0.79524873538,
			"-0.014": 1.05601796522,
			"-0.013": 1.05835426518,
			"-0.012": 0.598718295073,
			"-0.011": 1.23312968641,
			"-0.01": 0.934653605132,
			"-0.009": 1.70222481588,
			"-0.008": 4.09665483012,
			"-0.007": 5.89932295668,
			"-0.006": 11.1633475172,
			"-0.005": 21.4480611243,
			"-0.004": 34.9865059767,
			"-0.003": 49.4908596714,
			"-0.002": 53.1197066965,
			"-0.001": 53.9480616163,
			"0.0": 44.9769714205,
			"0.001": 36.3467623367,
			"0.002": 23.3342627193,
			"0.003": 17.4006722552,
			"0.004": 16.2533339133,
			"0.005": 17.3244791474,
			"0.006": 11.3707014525,
			"0.007": 5.60871423171,
			"0.008": 6.05731192548,
			"0.009": 5.04448975747,
			"0.01": 5.85960794691,
			"0.011": 6.33404348626,
			"0.012": 4.17047471393,
			"0.013": 4.64008448574,
			"0.014": 4.1448666809,
			"0.015": 1.36496892404,
			"0.016": 0.00328534616045,
			"0.017": 0.0,
			"0.018": 0.0,
			"0.019": 0.0,
			"0.02": 0.0,
			"0.021": 0.0,
			"0.022": 0.0,
			"0.023": 0.0,
			"0.024": 0.0,
			"0.025": 0.0
		}
	}
}
