{
	 "smiles": "CC(=CC(O)=O)C1=CC(Cl)=CC=C1", 
	 "Tm": 430.15, 
	 "num_atms": 22, 
	 "gaussian": { 
		 "optdone": 1, 
		 "sigma_profile": "yes", 
		 "theory": "DFT", 
		 "functional": "B3LYP", 
		 "basiset": "6-31G**", 
		 "properties": { 
			 "R2extent": 4159.361, 
			 "electric_dipole_moment_norm": 1.33623619544, 
			 "electric_quadrupole_moment_norm": 18.429134392, 
			 "total_energy": -997.133202542, 
			 "HOMO_LUMO_gap": 0.17836, 
			 "cosmo_polarized_energy": -10.47, 
			 "cosmo_cavitation_energy": 28.31, 
			 "cosmo_dispersion_energy": -20.72, 
			 "cosmo_repulsion_energy": 1.65, 
			 "cosmo_total_nonelectrostatic_energy": 9.24, 
			 "SMD_solvation_energy": 5.97 
		},
		"coords": [
			{
				"x": -1.292001413,
				"y": 0.7218085546,
				"z": 0.0738625983,
				"element": "C" 
			},
			{
				"x": -0.3500471165,
				"y": -0.4102611777,
				"z": -0.2600272229,
				"element": "C" 
			},
			{
				"x": -0.7238183497,
				"y": -1.6660315595,
				"z": -0.6023483722,
				"element": "C" 
			},
			{
				"x": -2.0579807544,
				"y": -2.2856940249,
				"z": -0.6997864647,
				"element": "C" 
			},
			{
				"x": -3.1258991874,
				"y": -1.4637019963,
				"z": -0.5115057304,
				"element": "O" 
			},
			{
				"x": -2.2110568114,
				"y": -3.4682539024,
				"z": -0.9454273014,
				"element": "O" 
			},
			{
				"x": 1.105693944,
				"y": -0.0904738412,
				"z": -0.2234928504,
				"element": "C" 
			},
			{
				"x": 1.5561483279,
				"y": 1.1931870903,
				"z": -0.5787290213,
				"element": "C" 
			},
			{
				"x": 2.9174309398,
				"y": 1.4845626754,
				"z": -0.5607782646,
				"element": "C" 
			},
			{
				"x": 3.4530219007,
				"y": 3.0924925712,
				"z": -1.0315652322,
				"element": "Cl" 
			},
			{
				"x": 3.8628543882,
				"y": 0.5349861671,
				"z": -0.1774556157,
				"element": "C" 
			},
			{
				"x": 3.4157793348,
				"y": -0.7334397681,
				"z": 0.1952102332,
				"element": "C" 
			},
			{
				"x": 2.0585809771,
				"y": -1.0451748226,
				"z": 0.1749981845,
				"element": "C" 
			},
			{
				"x": -1.3896916305,
				"y": 1.4014788697,
				"z": -0.7825215186,
				"element": "H" 
			},
			{
				"x": -0.8978420127,
				"y": 1.3109481962,
				"z": 0.9072748317,
				"element": "H" 
			},
			{
				"x": -2.288213401,
				"y": 0.3639140126,
				"z": 0.3188165441,
				"element": "H" 
			},
			{
				"x": 0.043366342,
				"y": -2.3861136331,
				"z": -0.8651856269,
				"element": "H" 
			},
			{
				"x": -3.9044886044,
				"y": -2.0377472335,
				"z": -0.6061448197,
				"element": "H" 
			},
			{
				"x": 0.856717689,
				"y": 1.9603571245,
				"z": -0.8879387308,
				"element": "H" 
			},
			{
				"x": 4.9171619708,
				"y": 0.786985456,
				"z": -0.1632574876,
				"element": "H" 
			},
			{
				"x": 4.1358312354,
				"y": -1.4808901792,
				"z": 0.5144896229,
				"element": "H" 
			},
			{
				"x": 1.7299522316,
				"y": -2.0265385792,
				"z": 0.4994122448,
				"element": "H" 
			}
		],
		 "valence_orbital": [ 
			{
				"type": "occ",
				"energy": -0.31818,
				"method": "rhf"
			},
			{
				"type": "occ",
				"energy": -0.29431,
				"method": "rhf"
			},
			{
				"type": "occ",
				"energy": -0.27579,
				"method": "rhf"
			},
			{
				"type": "occ",
				"energy": -0.26008,
				"method": "rhf"
			},
			{
				"type": "occ",
				"energy": -0.24562,
				"method": "rhf"
			},
			{
				"type": "unocc",
				"energy": -0.06726,
				"method": "rhf"
			},
			{
				"type": "unocc",
				"energy": -0.02203,
				"method": "rhf"
			},
			{
				"type": "unocc",
				"energy": -0.00027,
				"method": "rhf"
			},
			{
				"type": "unocc",
				"energy": 0.02442,
				"method": "rhf"
			},
			{
				"type": "unocc",
				"energy": 0.07741,
				"method": "rhf"
			}
		],
		"cosmo_sigma_profile": { 
			"-0.025": 0.0,
			"-0.024": 0.0,
			"-0.023": 0.0,
			"-0.022": 0.0,
			"-0.021": 0.0,
			"-0.02": 0.0,
			"-0.019": 0.0,
			"-0.018": 0.359544720282,
			"-0.017": 0.603855686886,
			"-0.016": 1.29532528506,
			"-0.015": 0.878046876711,
			"-0.014": 0.286850923167,
			"-0.013": 0.739613239777,
			"-0.012": 0.722086012019,
			"-0.011": 0.657908249776,
			"-0.01": 1.22323120794,
			"-0.009": 0.25447360449,
			"-0.008": 1.10838389361,
			"-0.007": 8.50228119819,
			"-0.006": 12.0331912706,
			"-0.005": 12.7912842353,
			"-0.004": 11.4789829501,
			"-0.003": 12.6593951729,
			"-0.002": 14.9345457462,
			"-0.001": 18.4507199764,
			"0.0": 22.892710387,
			"0.001": 19.6453915173,
			"0.002": 22.8982542974,
			"0.003": 20.9572237031,
			"0.004": 14.5104129996,
			"0.005": 8.93551456605,
			"0.006": 2.49462102289,
			"0.007": 2.00001821655,
			"0.008": 1.95741002068,
			"0.009": 1.33426636216,
			"0.01": 1.04015522285,
			"0.011": 3.24270881781,
			"0.012": 5.01632473101,
			"0.013": 2.54905392571,
			"0.014": 0.0811233036388,
			"0.015": 0.0,
			"0.016": 0.0,
			"0.017": 0.0,
			"0.018": 0.0,
			"0.019": 0.0,
			"0.02": 0.0,
			"0.021": 0.0,
			"0.022": 0.0,
			"0.023": 0.0,
			"0.024": 0.0,
			"0.025": 0.0
		}
	}
}
