{
	 "smiles": "ClCC1=NC=C(O1)C1=CC=CC=C1", 
	 "Tm": 337.15, 
	 "num_atms": 21, 
	 "gaussian": { 
		 "optdone": 1, 
		 "sigma_profile": "yes", 
		 "theory": "DFT", 
		 "functional": "B3LYP", 
		 "basiset": "6-31G**", 
		 "properties": { 
			 "R2extent": 4800.3953, 
			 "electric_dipole_moment_norm": 2.98014952981, 
			 "electric_quadrupole_moment_norm": 9.71619941489, 
			 "total_energy": -976.047057305, 
			 "HOMO_LUMO_gap": 0.17079, 
			 "cosmo_polarized_energy": -8.91, 
			 "cosmo_cavitation_energy": 27.74, 
			 "cosmo_dispersion_energy": -20.41, 
			 "cosmo_repulsion_energy": 1.62, 
			 "cosmo_total_nonelectrostatic_energy": 8.95, 
			 "SMD_solvation_energy": 2.96 
		},
		"coords": [
			{
				"x": 2.8045133306,
				"y": -4.3248529262,
				"z": -1.4134168279,
				"element": "Cl" 
			},
			{
				"x": 3.934975867,
				"y": -2.9305322959,
				"z": -1.0477245465,
				"element": "C" 
			},
			{
				"x": 3.3104267746,
				"y": -1.9072009467,
				"z": -0.1833800312,
				"element": "C" 
			},
			{
				"x": 3.5292941973,
				"y": -1.6908818221,
				"z": 1.0802049844,
				"element": "N" 
			},
			{
				"x": 2.6973141111,
				"y": -0.6357090397,
				"z": 1.399975056,
				"element": "C" 
			},
			{
				"x": 1.9884019177,
				"y": -0.2488255935,
				"z": 0.2933740987,
				"element": "C" 
			},
			{
				"x": 2.3886863853,
				"y": -1.0711276311,
				"z": -0.7335885592,
				"element": "O" 
			},
			{
				"x": 0.9871380753,
				"y": 0.7705536721,
				"z": 0.013755193,
				"element": "C" 
			},
			{
				"x": 0.5937332412,
				"y": 1.6695497707,
				"z": 1.0216402272,
				"element": "C" 
			},
			{
				"x": -0.3654075275,
				"y": 2.6436968224,
				"z": 0.7618800035,
				"element": "C" 
			},
			{
				"x": -0.9473771165,
				"y": 2.7402844509,
				"z": -0.5051136365,
				"element": "C" 
			},
			{
				"x": -0.5615204974,
				"y": 1.852260773,
				"z": -1.5109864214,
				"element": "C" 
			},
			{
				"x": 0.397141154,
				"y": 0.8735228064,
				"z": -1.2578598016,
				"element": "C" 
			},
			{
				"x": 4.7984758442,
				"y": -3.3498748862,
				"z": -0.5358033936,
				"element": "H" 
			},
			{
				"x": 4.2219810546,
				"y": -2.5225520784,
				"z": -2.0168537227,
				"element": "H" 
			},
			{
				"x": 2.6625130403,
				"y": -0.2291337387,
				"z": 2.3997335692,
				"element": "H" 
			},
			{
				"x": 1.0417602384,
				"y": 1.6060522711,
				"z": 2.0086880761,
				"element": "H" 
			},
			{
				"x": -0.6589761783,
				"y": 3.3307040836,
				"z": 1.550108115,
				"element": "H" 
			},
			{
				"x": -1.6952444239,
				"y": 3.5016844181,
				"z": -0.7053733782,
				"element": "H" 
			},
			{
				"x": -1.0096222091,
				"y": 1.9196680192,
				"z": -2.4980109525,
				"element": "H" 
			},
			{
				"x": 0.6922927212,
				"y": 0.1825138709,
				"z": -2.0398480519,
				"element": "H" 
			}
		],
		 "valence_orbital": [ 
			{
				"type": "occ",
				"energy": -0.30173,
				"method": "rhf"
			},
			{
				"type": "occ",
				"energy": -0.29622,
				"method": "rhf"
			},
			{
				"type": "occ",
				"energy": -0.29351,
				"method": "rhf"
			},
			{
				"type": "occ",
				"energy": -0.26203,
				"method": "rhf"
			},
			{
				"type": "occ",
				"energy": -0.2243,
				"method": "rhf"
			},
			{
				"type": "unocc",
				"energy": -0.05351,
				"method": "rhf"
			},
			{
				"type": "unocc",
				"energy": -0.01441,
				"method": "rhf"
			},
			{
				"type": "unocc",
				"energy": -0.0081,
				"method": "rhf"
			},
			{
				"type": "unocc",
				"energy": 0.04974,
				"method": "rhf"
			},
			{
				"type": "unocc",
				"energy": 0.07076,
				"method": "rhf"
			}
		],
		"cosmo_sigma_profile": { 
			"-0.025": 0.0,
			"-0.024": 0.0,
			"-0.023": 0.0,
			"-0.022": 0.0,
			"-0.021": 0.0,
			"-0.02": 0.0,
			"-0.019": 0.0,
			"-0.018": 0.0,
			"-0.017": 0.0,
			"-0.016": 0.0,
			"-0.015": 0.0,
			"-0.014": 0.0,
			"-0.013": 0.0,
			"-0.012": 0.0,
			"-0.011": 0.0,
			"-0.01": 0.296194442648,
			"-0.009": 4.75629772404,
			"-0.008": 6.77176160044,
			"-0.007": 7.08583398355,
			"-0.006": 13.3636406232,
			"-0.005": 14.9148918736,
			"-0.004": 14.0877846584,
			"-0.003": 11.9932359773,
			"-0.002": 10.6628051074,
			"-0.001": 13.5415347068,
			"0.0": 16.5386445152,
			"0.001": 19.3891673632,
			"0.002": 19.5874304494,
			"0.003": 17.411292208,
			"0.004": 19.0941826668,
			"0.005": 16.7810954701,
			"0.006": 10.0249531422,
			"0.007": 1.53230608412,
			"0.008": 1.15489590487,
			"0.009": 0.626245737815,
			"0.01": 1.22617024253,
			"0.011": 1.23651484126,
			"0.012": 0.896339573,
			"0.013": 0.457521413329,
			"0.014": 1.14770951758,
			"0.015": 0.819702901359,
			"0.016": 0.0641452558441,
			"0.017": 0.0,
			"0.018": 0.0,
			"0.019": 0.0,
			"0.02": 0.0,
			"0.021": 0.0,
			"0.022": 0.0,
			"0.023": 0.0,
			"0.024": 0.0,
			"0.025": 0.0
		}
	}
}
