{
	 "smiles": "NC(=O)CCN1C(=O)NC2(CCCC2)C1=O", 
	 "Tm": 424.15, 
	 "num_atms": 31, 
	 "gaussian": { 
		 "optdone": 1, 
		 "sigma_profile": "yes", 
		 "theory": "DFT", 
		 "functional": "B3LYP", 
		 "basiset": "6-31G**", 
		 "properties": { 
			 "R2extent": 4766.9505, 
			 "electric_dipole_moment_norm": 6.91834076495, 
			 "electric_quadrupole_moment_norm": 16.3248932438, 
			 "total_energy": -780.104092307, 
			 "HOMO_LUMO_gap": 0.21142, 
			 "cosmo_polarized_energy": -20.17, 
			 "cosmo_cavitation_energy": 33.06, 
			 "cosmo_dispersion_energy": -23.79, 
			 "cosmo_repulsion_energy": 1.87, 
			 "cosmo_total_nonelectrostatic_energy": 11.15, 
			 "SMD_solvation_energy": 6.51 
		},
		"coords": [
			{
				"x": -4.2398350857,
				"y": 1.4411021912,
				"z": -0.8652143437,
				"element": "N" 
			},
			{
				"x": -4.299464639,
				"y": 0.3007416746,
				"z": -0.1226224244,
				"element": "C" 
			},
			{
				"x": -5.3479498165,
				"y": -0.2587333571,
				"z": 0.1705973872,
				"element": "O" 
			},
			{
				"x": -2.9416961127,
				"y": -0.2589673235,
				"z": 0.326455109,
				"element": "C" 
			},
			{
				"x": -1.9807408102,
				"y": 0.7642349093,
				"z": 0.9865261025,
				"element": "C" 
			},
			{
				"x": -0.7040644926,
				"y": 0.923630286,
				"z": 0.2933395615,
				"element": "N" 
			},
			{
				"x": -0.55400962,
				"y": 1.6151545031,
				"z": -0.9216280628,
				"element": "C" 
			},
			{
				"x": -1.4526652541,
				"y": 2.1685154088,
				"z": -1.5417535918,
				"element": "O" 
			},
			{
				"x": 0.7650386216,
				"y": 1.5368300611,
				"z": -1.2556133698,
				"element": "N" 
			},
			{
				"x": 1.5865737177,
				"y": 0.8720539392,
				"z": -0.2509060383,
				"element": "C" 
			},
			{
				"x": 2.6397231943,
				"y": 1.8044835281,
				"z": 0.4249291546,
				"element": "C" 
			},
			{
				"x": 3.8200702269,
				"y": 0.8825110344,
				"z": 0.7561870296,
				"element": "C" 
			},
			{
				"x": 3.8856397689,
				"y": -0.0428313728,
				"z": -0.4691083771,
				"element": "C" 
			},
			{
				"x": 2.4057005114,
				"y": -0.3605243918,
				"z": -0.7648148403,
				"element": "C" 
			},
			{
				"x": 0.5078770131,
				"y": 0.4448216475,
				"z": 0.7585705793,
				"element": "C" 
			},
			{
				"x": 0.6887043154,
				"y": -0.1858132622,
				"z": 1.7817907334,
				"element": "O" 
			},
			{
				"x": -3.3582816918,
				"y": 1.8169937272,
				"z": -1.2033430479,
				"element": "H" 
			},
			{
				"x": -5.1102270784,
				"y": 1.7926766825,
				"z": -1.2344444328,
				"element": "H" 
			},
			{
				"x": -3.1668127939,
				"y": -1.0742709978,
				"z": 1.015700608,
				"element": "H" 
			},
			{
				"x": -2.4525860504,
				"y": -0.7037992825,
				"z": -0.5480973769,
				"element": "H" 
			},
			{
				"x": -1.7174033164,
				"y": 0.4433338202,
				"z": 1.9957859768,
				"element": "H" 
			},
			{
				"x": -2.4504285924,
				"y": 1.7489960368,
				"z": 1.0524520939,
				"element": "H" 
			},
			{
				"x": 1.1232452783,
				"y": 2.0575422048,
				"z": -2.0411266636,
				"element": "H" 
			},
			{
				"x": 2.9456177711,
				"y": 2.5597143519,
				"z": -0.3100186992,
				"element": "H" 
			},
			{
				"x": 2.2322038943,
				"y": 2.3347427163,
				"z": 1.2899920651,
				"element": "H" 
			},
			{
				"x": 4.7479228344,
				"y": 1.4335246967,
				"z": 0.9366995886,
				"element": "H" 
			},
			{
				"x": 3.5904703184,
				"y": 0.3003493974,
				"z": 1.6552966859,
				"element": "H" 
			},
			{
				"x": 4.4793336886,
				"y": -0.9453404897,
				"z": -0.2986613174,
				"element": "H" 
			},
			{
				"x": 4.3390460738,
				"y": 0.4909027026,
				"z": -1.3140602863,
				"element": "H" 
			},
			{
				"x": 2.1985681079,
				"y": -0.5467076448,
				"z": -1.8218615337,
				"element": "H" 
			},
			{
				"x": 2.096330018,
				"y": -1.2472673976,
				"z": -0.2036482693,
				"element": "H" 
			}
		],
		 "valence_orbital": [ 
			{
				"type": "occ",
				"energy": -0.29041,
				"method": "rhf"
			},
			{
				"type": "occ",
				"energy": -0.27629,
				"method": "rhf"
			},
			{
				"type": "occ",
				"energy": -0.27134,
				"method": "rhf"
			},
			{
				"type": "occ",
				"energy": -0.24953,
				"method": "rhf"
			},
			{
				"type": "occ",
				"energy": -0.23176,
				"method": "rhf"
			},
			{
				"type": "unocc",
				"energy": -0.02034,
				"method": "rhf"
			},
			{
				"type": "unocc",
				"energy": 0.03724,
				"method": "rhf"
			},
			{
				"type": "unocc",
				"energy": 0.04782,
				"method": "rhf"
			},
			{
				"type": "unocc",
				"energy": 0.06347,
				"method": "rhf"
			},
			{
				"type": "unocc",
				"energy": 0.07351,
				"method": "rhf"
			}
		],
		"cosmo_sigma_profile": { 
			"-0.025": 0.0,
			"-0.024": 0.0,
			"-0.023": 0.0,
			"-0.022": 0.0,
			"-0.021": 0.0,
			"-0.02": 0.0,
			"-0.019": 0.0,
			"-0.018": 0.0,
			"-0.017": 0.0,
			"-0.016": 0.164033516671,
			"-0.015": 1.19486725926,
			"-0.014": 1.35624693831,
			"-0.013": 2.45464970706,
			"-0.012": 1.25720265613,
			"-0.011": 2.4054802456,
			"-0.01": 2.26971494804,
			"-0.009": 2.22476349886,
			"-0.008": 1.99803871145,
			"-0.007": 3.57182922658,
			"-0.006": 10.340104681,
			"-0.005": 18.8488843444,
			"-0.004": 22.3812595518,
			"-0.003": 27.4817104996,
			"-0.002": 28.637635207,
			"-0.001": 26.404421192,
			"0.0": 20.9604432159,
			"0.001": 11.913977409,
			"0.002": 7.01912597251,
			"0.003": 6.34159631994,
			"0.004": 5.44957875997,
			"0.005": 5.77992023587,
			"0.006": 5.04433597002,
			"0.007": 3.81973554112,
			"0.008": 3.96705805448,
			"0.009": 4.49420707659,
			"0.01": 3.94699858794,
			"0.011": 5.20686443921,
			"0.012": 8.20823123694,
			"0.013": 4.34585991666,
			"0.014": 5.87828374001,
			"0.015": 3.14546896286,
			"0.016": 0.188720623361,
			"0.017": 0.0,
			"0.018": 0.0,
			"0.019": 0.0,
			"0.02": 0.0,
			"0.021": 0.0,
			"0.022": 0.0,
			"0.023": 0.0,
			"0.024": 0.0,
			"0.025": 0.0
		}
	}
}
