{
	 "smiles": "C1CC(CC=C1)C1=CC=NC=C1", 
	 "Tm": 295.25, 
	 "num_atms": 25, 
	 "gaussian": { 
		 "optdone": 1, 
		 "sigma_profile": "yes", 
		 "theory": "DFT", 
		 "functional": "B3LYP", 
		 "basiset": "6-31G**", 
		 "properties": { 
			 "R2extent": 2175.2465, 
			 "electric_dipole_moment_norm": 2.82435186547, 
			 "electric_quadrupole_moment_norm": 11.3794698998, 
			 "total_energy": -481.742942331, 
			 "HOMO_LUMO_gap": 0.22437, 
			 "cosmo_polarized_energy": -6.36, 
			 "cosmo_cavitation_energy": 26.38, 
			 "cosmo_dispersion_energy": -19.42, 
			 "cosmo_repulsion_energy": 1.55, 
			 "cosmo_total_nonelectrostatic_energy": 8.51, 
			 "SMD_solvation_energy": 2.49 
		},
		"coords": [
			{
				"x": 2.502340859,
				"y": -0.0694269042,
				"z": 0.7645436172,
				"element": "C" 
			},
			{
				"x": 1.427847307,
				"y": 0.8322454742,
				"z": 1.3876572826,
				"element": "C" 
			},
			{
				"x": -0.0028374085,
				"y": 0.4527200958,
				"z": 0.9241982057,
				"element": "C" 
			},
			{
				"x": -0.2948585813,
				"y": -1.0218675054,
				"z": 1.2880497308,
				"element": "C" 
			},
			{
				"x": 0.8837578375,
				"y": -1.9462784428,
				"z": 1.100173454,
				"element": "C" 
			},
			{
				"x": 2.1308084131,
				"y": -1.5271594727,
				"z": 0.8612336951,
				"element": "C" 
			},
			{
				"x": -0.2170109788,
				"y": 0.7946327506,
				"z": -0.5435907385,
				"element": "C" 
			},
			{
				"x": -0.5999835772,
				"y": 2.0940864847,
				"z": -0.9046025468,
				"element": "C" 
			},
			{
				"x": -0.7759943014,
				"y": 2.4166058191,
				"z": -2.2486976438,
				"element": "C" 
			},
			{
				"x": -0.6008690388,
				"y": 1.5477663765,
				"z": -3.2534493693,
				"element": "N" 
			},
			{
				"x": -0.2361092761,
				"y": 0.307287254,
				"z": -2.9084695835,
				"element": "C" 
			},
			{
				"x": -0.0348713597,
				"y": -0.1148869152,
				"z": -1.5928669412,
				"element": "C" 
			},
			{
				"x": 3.4647063524,
				"y": 0.1042020678,
				"z": 1.2626202534,
				"element": "H" 
			},
			{
				"x": 2.6622074082,
				"y": 0.2012370353,
				"z": -0.2897374183,
				"element": "H" 
			},
			{
				"x": 1.4666555977,
				"y": 0.7307057812,
				"z": 2.4795814262,
				"element": "H" 
			},
			{
				"x": 1.6293658827,
				"y": 1.8837519187,
				"z": 1.1558389911,
				"element": "H" 
			},
			{
				"x": -0.7025599184,
				"y": 1.0807600604,
				"z": 1.4894182177,
				"element": "H" 
			},
			{
				"x": -1.1503721834,
				"y": -1.3872093346,
				"z": 0.7050757728,
				"element": "H" 
			},
			{
				"x": -0.6191207,
				"y": -1.0707225559,
				"z": 2.3379693964,
				"element": "H" 
			},
			{
				"x": 0.6803474837,
				"y": -3.0134352586,
				"z": 1.1763537471,
				"element": "H" 
			},
			{
				"x": 2.9264353355,
				"y": -2.2577186952,
				"z": 0.7252532041,
				"element": "H" 
			},
			{
				"x": -0.7680625893,
				"y": 2.8500652057,
				"z": -0.141412967,
				"element": "H" 
			},
			{
				"x": -1.0787207294,
				"y": 3.4235065749,
				"z": -2.5328198446,
				"element": "H" 
			},
			{
				"x": -0.0959764629,
				"y": -0.3952405438,
				"z": -3.7289770465,
				"element": "H" 
			},
			{
				"x": 0.2653746281,
				"y": -1.1386272705,
				"z": -1.3964428947,
				"element": "H" 
			}
		],
		 "valence_orbital": [ 
			{
				"type": "occ",
				"energy": -0.30951,
				"method": "rhf"
			},
			{
				"type": "occ",
				"energy": -0.26817,
				"method": "rhf"
			},
			{
				"type": "occ",
				"energy": -0.25525,
				"method": "rhf"
			},
			{
				"type": "occ",
				"energy": -0.24902,
				"method": "rhf"
			},
			{
				"type": "occ",
				"energy": -0.24162,
				"method": "rhf"
			},
			{
				"type": "unocc",
				"energy": -0.01725,
				"method": "rhf"
			},
			{
				"type": "unocc",
				"energy": -0.00531,
				"method": "rhf"
			},
			{
				"type": "unocc",
				"energy": 0.0233,
				"method": "rhf"
			},
			{
				"type": "unocc",
				"energy": 0.08239,
				"method": "rhf"
			},
			{
				"type": "unocc",
				"energy": 0.11254,
				"method": "rhf"
			}
		],
		"cosmo_sigma_profile": { 
			"-0.025": 0.0,
			"-0.024": 0.0,
			"-0.023": 0.0,
			"-0.022": 0.0,
			"-0.021": 0.0,
			"-0.02": 0.0,
			"-0.019": 0.0,
			"-0.018": 0.0,
			"-0.017": 0.0,
			"-0.016": 0.0,
			"-0.015": 0.0,
			"-0.014": 0.0,
			"-0.013": 0.0,
			"-0.012": 0.0,
			"-0.011": 0.0,
			"-0.01": 0.0,
			"-0.009": 0.0,
			"-0.008": 0.0,
			"-0.007": 0.135549832411,
			"-0.006": 4.78178595737,
			"-0.005": 8.37617078494,
			"-0.004": 15.7692041367,
			"-0.003": 24.7455749309,
			"-0.002": 30.1679473973,
			"-0.001": 28.8656204808,
			"0.0": 23.4332112104,
			"0.001": 16.1383165852,
			"0.002": 11.9251066504,
			"0.003": 15.4407936894,
			"0.004": 8.28515064535,
			"0.005": 4.24113634287,
			"0.006": 2.64641105799,
			"0.007": 2.17109724599,
			"0.008": 1.69324741378,
			"0.009": 1.5706901126,
			"0.01": 0.883543485849,
			"0.011": 1.1368796112,
			"0.012": 0.557029581771,
			"0.013": 0.99219102762,
			"0.014": 1.0753274445,
			"0.015": 1.03348608373,
			"0.016": 0.760353227506,
			"0.017": 0.809995047203,
			"0.018": 0.0821763533004,
			"0.019": 0.0,
			"0.02": 0.0,
			"0.021": 0.0,
			"0.022": 0.0,
			"0.023": 0.0,
			"0.024": 0.0,
			"0.025": 0.0
		}
	}
}
