{
	 "smiles": "CCCCC1=NC(CO)=CN1", 
	 "Tm": 368.65, 
	 "num_atms": 25, 
	 "gaussian": { 
		 "optdone": 1, 
		 "sigma_profile": "yes", 
		 "theory": "DFT", 
		 "functional": "B3LYP", 
		 "basiset": "6-31G**", 
		 "properties": { 
			 "R2extent": 3173.8604, 
			 "electric_dipole_moment_norm": 1.59063320096, 
			 "electric_quadrupole_moment_norm": 11.5772998406, 
			 "total_energy": -498.014287475, 
			 "HOMO_LUMO_gap": 0.2451, 
			 "cosmo_polarized_energy": -14.59, 
			 "cosmo_cavitation_energy": 27.49, 
			 "cosmo_dispersion_energy": -19.75, 
			 "cosmo_repulsion_energy": 1.65, 
			 "cosmo_total_nonelectrostatic_energy": 9.39, 
			 "SMD_solvation_energy": 3.18 
		},
		"coords": [
			{
				"x": -0.3625562089,
				"y": 0.6317496179,
				"z": 3.6935367065,
				"element": "C" 
			},
			{
				"x": 0.6946418373,
				"y": 0.0284641118,
				"z": 4.6265468912,
				"element": "C" 
			},
			{
				"x": 1.6909239875,
				"y": -0.9395155551,
				"z": 3.9665126266,
				"element": "C" 
			},
			{
				"x": 2.6271523997,
				"y": -0.3142512588,
				"z": 2.9119376489,
				"element": "C" 
			},
			{
				"x": 1.9961697407,
				"y": -0.124291276,
				"z": 1.5623904919,
				"element": "C" 
			},
			{
				"x": 1.2440262642,
				"y": -1.0032410332,
				"z": 0.9276707014,
				"element": "N" 
			},
			{
				"x": 0.9265584678,
				"y": -0.425242682,
				"z": -0.2839343426,
				"element": "C" 
			},
			{
				"x": 0.069588475,
				"y": -1.1382233734,
				"z": -1.2814225798,
				"element": "C" 
			},
			{
				"x": -0.0857165209,
				"y": -0.2999973887,
				"z": -2.420402437,
				"element": "O" 
			},
			{
				"x": 1.4932297094,
				"y": 0.817963148,
				"z": -0.3905478681,
				"element": "C" 
			},
			{
				"x": 2.1766952777,
				"y": 0.9988270163,
				"z": 0.8002375668,
				"element": "N" 
			},
			{
				"x": 0.0826704258,
				"y": 1.2807387615,
				"z": 2.9334489897,
				"element": "H" 
			},
			{
				"x": -1.0813054948,
				"y": 1.2330666008,
				"z": 4.2610323784,
				"element": "H" 
			},
			{
				"x": -0.9163231684,
				"y": -0.1511216113,
				"z": 3.1655267476,
				"element": "H" 
			},
			{
				"x": 0.1851751757,
				"y": -0.5130281112,
				"z": 5.4343401351,
				"element": "H" 
			},
			{
				"x": 1.2538814908,
				"y": 0.8383173529,
				"z": 5.117278155,
				"element": "H" 
			},
			{
				"x": 2.3155863576,
				"y": -1.3780224811,
				"z": 4.7544481185,
				"element": "H" 
			},
			{
				"x": 1.1518157745,
				"y": -1.7674200262,
				"z": 3.4924234038,
				"element": "H" 
			},
			{
				"x": 3.5026892366,
				"y": -0.9670313425,
				"z": 2.7936315388,
				"element": "H" 
			},
			{
				"x": 3.0136790046,
				"y": 0.648342918,
				"z": 3.2740164242,
				"element": "H" 
			},
			{
				"x": -0.9022457554,
				"y": -1.3803042234,
				"z": -0.8203032499,
				"element": "H" 
			},
			{
				"x": 0.5406608589,
				"y": -2.0992691382,
				"z": -1.5462733746,
				"element": "H" 
			},
			{
				"x": -0.6352872703,
				"y": -0.7678665746,
				"z": -3.0596330194,
				"element": "H" 
			},
			{
				"x": 1.4674706188,
				"y": 1.5585781995,
				"z": -1.1724905988,
				"element": "H" 
			},
			{
				"x": 2.7102193163,
				"y": 1.813878349,
				"z": 1.0608289459,
				"element": "H" 
			}
		],
		 "valence_orbital": [ 
			{
				"type": "occ",
				"energy": -0.31892,
				"method": "rhf"
			},
			{
				"type": "occ",
				"energy": -0.27557,
				"method": "rhf"
			},
			{
				"type": "occ",
				"energy": -0.25623,
				"method": "rhf"
			},
			{
				"type": "occ",
				"energy": -0.25339,
				"method": "rhf"
			},
			{
				"type": "occ",
				"energy": -0.20431,
				"method": "rhf"
			},
			{
				"type": "unocc",
				"energy": 0.04079,
				"method": "rhf"
			},
			{
				"type": "unocc",
				"energy": 0.07123,
				"method": "rhf"
			},
			{
				"type": "unocc",
				"energy": 0.07494,
				"method": "rhf"
			},
			{
				"type": "unocc",
				"energy": 0.08324,
				"method": "rhf"
			},
			{
				"type": "unocc",
				"energy": 0.10337,
				"method": "rhf"
			}
		],
		"cosmo_sigma_profile": { 
			"-0.025": 0.0,
			"-0.024": 0.0,
			"-0.023": 0.0,
			"-0.022": 0.0,
			"-0.021": 0.0,
			"-0.02": 0.0,
			"-0.019": 0.0,
			"-0.018": 0.0,
			"-0.017": 0.0,
			"-0.016": 1.1892535303,
			"-0.015": 2.73713552855,
			"-0.014": 2.15141382171,
			"-0.013": 2.31014345438,
			"-0.012": 1.6292669742,
			"-0.011": 2.34789212055,
			"-0.01": 1.51085214114,
			"-0.009": 2.02895101518,
			"-0.008": 2.50166435376,
			"-0.007": 4.52270539838,
			"-0.006": 3.96538500768,
			"-0.005": 3.87231570157,
			"-0.004": 10.3935012085,
			"-0.003": 14.1017200891,
			"-0.002": 23.9040297088,
			"-0.001": 24.5442411381,
			"0.0": 23.8785452321,
			"0.001": 20.0818343711,
			"0.002": 11.3461491067,
			"0.003": 5.94560484133,
			"0.004": 6.75044976122,
			"0.005": 7.05183060526,
			"0.006": 8.38793111821,
			"0.007": 5.01809440886,
			"0.008": 3.5921750262,
			"0.009": 3.09902774807,
			"0.01": 3.58714528384,
			"0.011": 2.44734713692,
			"0.012": 2.83269753153,
			"0.013": 2.32682479554,
			"0.014": 1.23603097699,
			"0.015": 0.946620177052,
			"0.016": 0.615282030222,
			"0.017": 0.73048970712,
			"0.018": 0.284878266667,
			"0.019": 0.0,
			"0.02": 0.0,
			"0.021": 0.0,
			"0.022": 0.0,
			"0.023": 0.0,
			"0.024": 0.0,
			"0.025": 0.0
		}
	}
}
