{
	 "smiles": "C1=CC2=CC3=CC=CC=C3N=C2C=C1", 
	 "Tm": 381.15, 
	 "num_atms": 23, 
	 "gaussian": { 
		 "optdone": 1, 
		 "sigma_profile": "yes", 
		 "theory": "DFT", 
		 "functional": "B3LYP", 
		 "basiset": "6-31G**", 
		 "properties": { 
			 "R2extent": 2888.3617, 
			 "electric_dipole_moment_norm": 1.8532708086, 
			 "electric_quadrupole_moment_norm": 12.1224209278, 
			 "total_energy": -555.572444106, 
			 "HOMO_LUMO_gap": 0.13586, 
			 "cosmo_polarized_energy": -7.81, 
			 "cosmo_cavitation_energy": 26.72, 
			 "cosmo_dispersion_energy": -20.2, 
			 "cosmo_repulsion_energy": 1.53, 
			 "cosmo_total_nonelectrostatic_energy": 8.05, 
			 "SMD_solvation_energy": 2.57 
		},
		"coords": [
			{
				"x": -2.8964498528,
				"y": 0.4064387019,
				"z": -2.2289356339,
				"element": "C" 
			},
			{
				"x": -2.6095525324,
				"y": 0.181614544,
				"z": -0.9083617671,
				"element": "C" 
			},
			{
				"x": -1.2802542605,
				"y": 0.3537653682,
				"z": -0.4137196735,
				"element": "C" 
			},
			{
				"x": -0.9245662621,
				"y": 0.1402997877,
				"z": 0.9212628853,
				"element": "C" 
			},
			{
				"x": 0.397025116,
				"y": 0.3279636422,
				"z": 1.3364925121,
				"element": "C" 
			},
			{
				"x": 0.8319053327,
				"y": 0.1286381318,
				"z": 2.6827776727,
				"element": "C" 
			},
			{
				"x": 2.1422186358,
				"y": 0.3288376524,
				"z": 3.0288622767,
				"element": "C" 
			},
			{
				"x": 3.0939003812,
				"y": 0.7401397067,
				"z": 2.0482995528,
				"element": "C" 
			},
			{
				"x": 2.7169345081,
				"y": 0.9419849008,
				"z": 0.7466749604,
				"element": "C" 
			},
			{
				"x": 1.3592753933,
				"y": 0.7447291904,
				"z": 0.3408692698,
				"element": "C" 
			},
			{
				"x": 1.0366251779,
				"y": 0.9548157846,
				"z": -0.9462094152,
				"element": "N" 
			},
			{
				"x": -0.2384705375,
				"y": 0.7693255697,
				"z": -1.3263516377,
				"element": "C" 
			},
			{
				"x": -0.5830571371,
				"y": 0.9928313322,
				"z": -2.6968076755,
				"element": "C" 
			},
			{
				"x": -1.8702443387,
				"y": 0.8166209013,
				"z": -3.1317166075,
				"element": "C" 
			},
			{
				"x": -3.9092570531,
				"y": 0.273540009,
				"z": -2.5977312426,
				"element": "H" 
			},
			{
				"x": -3.3869999927,
				"y": -0.1310008193,
				"z": -0.2156588043,
				"element": "H" 
			},
			{
				"x": -1.6793662056,
				"y": -0.1731447562,
				"z": 1.6399842811,
				"element": "H" 
			},
			{
				"x": 0.1021337226,
				"y": -0.1847021612,
				"z": 3.4252332018,
				"element": "H" 
			},
			{
				"x": 2.4654798657,
				"y": 0.1753442231,
				"z": 4.0542375364,
				"element": "H" 
			},
			{
				"x": 4.1277117195,
				"y": 0.8930431462,
				"z": 2.3447550596,
				"element": "H" 
			},
			{
				"x": 3.4233249167,
				"y": 1.2546475018,
				"z": -0.0153424833,
				"element": "H" 
			},
			{
				"x": 0.2129323643,
				"y": 1.3041364113,
				"z": -3.3653207841,
				"element": "H" 
			},
			{
				"x": -2.1200489612,
				"y": 0.9893312314,
				"z": -4.1746934838,
				"element": "H" 
			}
		],
		 "valence_orbital": [ 
			{
				"type": "occ",
				"energy": -0.30638,
				"method": "rhf"
			},
			{
				"type": "occ",
				"energy": -0.25929,
				"method": "rhf"
			},
			{
				"type": "occ",
				"energy": -0.25069,
				"method": "rhf"
			},
			{
				"type": "occ",
				"energy": -0.24425,
				"method": "rhf"
			},
			{
				"type": "occ",
				"energy": -0.20914,
				"method": "rhf"
			},
			{
				"type": "unocc",
				"energy": -0.07328,
				"method": "rhf"
			},
			{
				"type": "unocc",
				"energy": -0.01717,
				"method": "rhf"
			},
			{
				"type": "unocc",
				"energy": 0.00343,
				"method": "rhf"
			},
			{
				"type": "unocc",
				"energy": 0.03243,
				"method": "rhf"
			},
			{
				"type": "unocc",
				"energy": 0.0597,
				"method": "rhf"
			}
		],
		"cosmo_sigma_profile": { 
			"-0.025": 0.0,
			"-0.024": 0.0,
			"-0.023": 0.0,
			"-0.022": 0.0,
			"-0.021": 0.0,
			"-0.02": 0.0,
			"-0.019": 0.0,
			"-0.018": 0.0,
			"-0.017": 0.0,
			"-0.016": 0.0,
			"-0.015": 0.0,
			"-0.014": 0.0,
			"-0.013": 0.0,
			"-0.012": 0.0,
			"-0.011": 0.0,
			"-0.01": 0.0,
			"-0.009": 0.0,
			"-0.008": 0.225805059714,
			"-0.007": 6.45580905811,
			"-0.006": 16.2999011981,
			"-0.005": 16.5445423861,
			"-0.004": 18.8948153474,
			"-0.003": 12.8706354872,
			"-0.002": 12.6796900575,
			"-0.001": 12.3557552496,
			"0.0": 9.65759030267,
			"0.001": 19.4749540215,
			"0.002": 25.5014138517,
			"0.003": 24.1194216119,
			"0.004": 21.3338389384,
			"0.005": 7.86699041421,
			"0.006": 1.33222863164,
			"0.007": 1.86260637298,
			"0.008": 1.93762992898,
			"0.009": 0.749747960012,
			"0.01": 0.478434962634,
			"0.011": 1.26149343949,
			"0.012": 1.20644143994,
			"0.013": 0.465991643922,
			"0.014": 0.81316124318,
			"0.015": 0.813262653763,
			"0.016": 0.326824524397,
			"0.017": 0.0,
			"0.018": 0.0,
			"0.019": 0.0,
			"0.02": 0.0,
			"0.021": 0.0,
			"0.022": 0.0,
			"0.023": 0.0,
			"0.024": 0.0,
			"0.025": 0.0
		}
	}
}
