{
	 "smiles": "COC1=CC=C(Br)C(=C1)[N+]([O-])=O", 
	 "Tm": 304.15, 
	 "num_atms": 18, 
	 "gaussian": { 
		 "optdone": 1, 
		 "sigma_profile": "yes", 
		 "theory": "DFT", 
		 "functional": "B3LYP", 
		 "basiset": "6-31G**", 
		 "properties": { 
			 "R2extent": 4117.3111, 
			 "electric_dipole_moment_norm": 4.64672567406, 
			 "electric_quadrupole_moment_norm": 15.47649106, 
			 "total_energy": -3122.06148428, 
			 "HOMO_LUMO_gap": 0.15163, 
			 "cosmo_polarized_energy": -9.62, 
			 "cosmo_cavitation_energy": 25.28, 
			 "cosmo_dispersion_energy": -19.01, 
			 "cosmo_repulsion_energy": 1.51, 
			 "cosmo_total_nonelectrostatic_energy": 7.78, 
			 "SMD_solvation_energy": 6.37 
		},
		"coords": [
			{
				"x": 1.3639281899,
				"y": -2.7021415122,
				"z": 1.7427085341,
				"element": "C" 
			},
			{
				"x": 1.1589286192,
				"y": -2.0643107048,
				"z": 0.4865631466,
				"element": "O" 
			},
			{
				"x": 0.6534429749,
				"y": -0.8056159836,
				"z": 0.4790302437,
				"element": "C" 
			},
			{
				"x": 0.4568777348,
				"y": -0.2240415939,
				"z": -0.7842196278,
				"element": "C" 
			},
			{
				"x": -0.0609479729,
				"y": 1.0567215701,
				"z": -0.8913315046,
				"element": "C" 
			},
			{
				"x": -0.3814092383,
				"y": 1.8119541441,
				"z": 0.2453635273,
				"element": "C" 
			},
			{
				"x": -1.1377993618,
				"y": 3.5287186826,
				"z": -0.0494275596,
				"element": "Br" 
			},
			{
				"x": -0.1770959396,
				"y": 1.2246702101,
				"z": 1.4976739788,
				"element": "C" 
			},
			{
				"x": 0.3242390097,
				"y": -0.0762730357,
				"z": 1.6202751425,
				"element": "C" 
			},
			{
				"x": -0.4563634596,
				"y": 1.9127782544,
				"z": 2.7740944551,
				"element": "N" 
			},
			{
				"x": -0.7400153919,
				"y": 1.2004397626,
				"z": 3.7387276563,
				"element": "O" 
			},
			{
				"x": -0.3639818042,
				"y": 3.1345658709,
				"z": 2.8074324284,
				"element": "O" 
			},
			{
				"x": 1.7668488407,
				"y": -3.6890007608,
				"z": 1.5136004262,
				"element": "H" 
			},
			{
				"x": 2.0836567068,
				"y": -2.1502730998,
				"z": 2.3595426311,
				"element": "H" 
			},
			{
				"x": 0.4225340257,
				"y": -2.8126269107,
				"z": 2.2943997758,
				"element": "H" 
			},
			{
				"x": 0.7105890984,
				"y": -0.7977638591,
				"z": -1.6691147229,
				"element": "H" 
			},
			{
				"x": -0.22803451,
				"y": 1.4925447661,
				"z": -1.8693733628,
				"element": "H" 
			},
			{
				"x": 0.4354024783,
				"y": -0.4767458001,
				"z": 2.6178548317,
				"element": "H" 
			}
		],
		 "valence_orbital": [ 
			{
				"type": "occ",
				"energy": -0.30648,
				"method": "rhf"
			},
			{
				"type": "occ",
				"energy": -0.30226,
				"method": "rhf"
			},
			{
				"type": "occ",
				"energy": -0.28656,
				"method": "rhf"
			},
			{
				"type": "occ",
				"energy": -0.27487,
				"method": "rhf"
			},
			{
				"type": "occ",
				"energy": -0.24123,
				"method": "rhf"
			},
			{
				"type": "unocc",
				"energy": -0.0896,
				"method": "rhf"
			},
			{
				"type": "unocc",
				"energy": -0.02632,
				"method": "rhf"
			},
			{
				"type": "unocc",
				"energy": -0.01132,
				"method": "rhf"
			},
			{
				"type": "unocc",
				"energy": -0.00546,
				"method": "rhf"
			},
			{
				"type": "unocc",
				"energy": 0.08725,
				"method": "rhf"
			}
		],
		"cosmo_sigma_profile": { 
			"-0.025": 0.0,
			"-0.024": 0.0,
			"-0.023": 0.0,
			"-0.022": 0.0,
			"-0.021": 0.0,
			"-0.02": 0.0,
			"-0.019": 0.0,
			"-0.018": 0.0,
			"-0.017": 0.0,
			"-0.016": 0.0,
			"-0.015": 0.0,
			"-0.014": 0.0,
			"-0.013": 0.0,
			"-0.012": 0.0,
			"-0.011": 0.0,
			"-0.01": 0.0,
			"-0.009": 0.23453012621,
			"-0.008": 4.61498510554,
			"-0.007": 9.05653454156,
			"-0.006": 15.675123711,
			"-0.005": 13.3976300619,
			"-0.004": 15.9251031042,
			"-0.003": 12.7405830076,
			"-0.002": 9.80117873207,
			"-0.001": 13.2554915054,
			"0.0": 22.6434345199,
			"0.001": 16.2016188756,
			"0.002": 11.9807500803,
			"0.003": 11.6260308578,
			"0.004": 9.1931325348,
			"0.005": 5.92758493198,
			"0.006": 6.36827539632,
			"0.007": 9.84488042831,
			"0.008": 10.6649579997,
			"0.009": 5.43183772486,
			"0.01": 1.29541757693,
			"0.011": 0.0,
			"0.012": 0.0,
			"0.013": 0.0,
			"0.014": 0.0,
			"0.015": 0.0,
			"0.016": 0.0,
			"0.017": 0.0,
			"0.018": 0.0,
			"0.019": 0.0,
			"0.02": 0.0,
			"0.021": 0.0,
			"0.022": 0.0,
			"0.023": 0.0,
			"0.024": 0.0,
			"0.025": 0.0
		}
	}
}
