{
	 "smiles": "COC(=O)C1(CCCC1)S(=O)(=O)C1=CC=C(Br)C=C1", 
	 "Tm": 377.15, 
	 "num_atms": 34, 
	 "gaussian": { 
		 "optdone": 1, 
		 "sigma_profile": "yes", 
		 "theory": "DFT", 
		 "functional": "B3LYP", 
		 "basiset": "6-31G**", 
		 "properties": { 
			 "R2extent": 10633.3802, 
			 "electric_dipole_moment_norm": 3.60547150037, 
			 "electric_quadrupole_moment_norm": 20.2745633356, 
			 "total_energy": -3774.85392493, 
			 "HOMO_LUMO_gap": 0.21001, 
			 "cosmo_polarized_energy": -14.22, 
			 "cosmo_cavitation_energy": 39.59, 
			 "cosmo_dispersion_energy": -28.04, 
			 "cosmo_repulsion_energy": 2.13, 
			 "cosmo_total_nonelectrostatic_energy": 13.68, 
			 "SMD_solvation_energy": 5.54 
		},
		"coords": [
			{
				"x": 3.2759458152,
				"y": -0.2188946643,
				"z": -2.853175358,
				"element": "C" 
			},
			{
				"x": 2.1140666836,
				"y": 0.4208234316,
				"z": -2.2938417311,
				"element": "O" 
			},
			{
				"x": 1.6222545697,
				"y": -0.1461895754,
				"z": -1.1835906593,
				"element": "C" 
			},
			{
				"x": 2.0663308653,
				"y": -1.1646835824,
				"z": -0.6918403017,
				"element": "O" 
			},
			{
				"x": 0.4435551634,
				"y": 0.6317443188,
				"z": -0.5908389488,
				"element": "C" 
			},
			{
				"x": -0.2563644185,
				"y": 1.5989545489,
				"z": -1.5667780482,
				"element": "C" 
			},
			{
				"x": -1.1716174917,
				"y": 0.6690698464,
				"z": -2.392802268,
				"element": "C" 
			},
			{
				"x": -1.5232114567,
				"y": -0.5246722639,
				"z": -1.4555839134,
				"element": "C" 
			},
			{
				"x": -0.6925536523,
				"y": -0.3189440619,
				"z": -0.1624215391,
				"element": "C" 
			},
			{
				"x": 1.1343849296,
				"y": 1.6048423342,
				"z": 0.8525603996,
				"element": "S" 
			},
			{
				"x": 2.4639823259,
				"y": 2.0907743093,
				"z": 0.4452836368,
				"element": "O" 
			},
			{
				"x": 0.0739057883,
				"y": 2.5398989603,
				"z": 1.2697739002,
				"element": "O" 
			},
			{
				"x": 1.3617569594,
				"y": 0.4449825025,
				"z": 2.212652252,
				"element": "C" 
			},
			{
				"x": 2.5277137716,
				"y": -0.3204006935,
				"z": 2.2870432412,
				"element": "C" 
			},
			{
				"x": 2.7103544722,
				"y": -1.1807402869,
				"z": 3.3677529176,
				"element": "C" 
			},
			{
				"x": 1.7271200088,
				"y": -1.2544347484,
				"z": 4.3555303607,
				"element": "C" 
			},
			{
				"x": 1.9787256351,
				"y": -2.433093456,
				"z": 5.8337283835,
				"element": "Br" 
			},
			{
				"x": 0.5682614256,
				"y": -0.4803709947,
				"z": 4.2915295032,
				"element": "C" 
			},
			{
				"x": 0.3858312603,
				"y": 0.379113662,
				"z": 3.2090862944,
				"element": "C" 
			},
			{
				"x": 3.0624921565,
				"y": -1.2640482871,
				"z": -3.0882547425,
				"element": "H" 
			},
			{
				"x": 4.1065456654,
				"y": -0.1725759093,
				"z": -2.1451973737,
				"element": "H" 
			},
			{
				"x": 3.5111939979,
				"y": 0.3421953192,
				"z": -3.7567226958,
				"element": "H" 
			},
			{
				"x": 0.4475334826,
				"y": 2.171417087,
				"z": -2.1706274016,
				"element": "H" 
			},
			{
				"x": -0.8509614071,
				"y": 2.2996346696,
				"z": -0.9740579182,
				"element": "H" 
			},
			{
				"x": -0.6377933185,
				"y": 0.3125128155,
				"z": -3.2790200058,
				"element": "H" 
			},
			{
				"x": -2.0599928041,
				"y": 1.1995303012,
				"z": -2.746608963,
				"element": "H" 
			},
			{
				"x": -2.5914311638,
				"y": -0.5677756803,
				"z": -1.2257501876,
				"element": "H" 
			},
			{
				"x": -1.2641663634,
				"y": -1.476634722,
				"z": -1.9288276044,
				"element": "H" 
			},
			{
				"x": -1.2970207663,
				"y": 0.1856969826,
				"z": 0.5977518852,
				"element": "H" 
			},
			{
				"x": -0.3071555627,
				"y": -1.2470447072,
				"z": 0.2621014513,
				"element": "H" 
			},
			{
				"x": 3.2824300559,
				"y": -0.243048306,
				"z": 1.5146518506,
				"element": "H" 
			},
			{
				"x": 3.6069598942,
				"y": -1.7844917606,
				"z": 3.4440622876,
				"element": "H" 
			},
			{
				"x": -0.1749022003,
				"y": -0.5424450559,
				"z": 5.0778892346,
				"element": "H" 
			},
			{
				"x": -0.4919743214,
				"y": 1.0123976667,
				"z": 3.1456420617,
				"element": "H" 
			}
		],
		 "valence_orbital": [ 
			{
				"type": "occ",
				"energy": -0.29713,
				"method": "rhf"
			},
			{
				"type": "occ",
				"energy": -0.28894,
				"method": "rhf"
			},
			{
				"type": "occ",
				"energy": -0.28289,
				"method": "rhf"
			},
			{
				"type": "occ",
				"energy": -0.27694,
				"method": "rhf"
			},
			{
				"type": "occ",
				"energy": -0.25942,
				"method": "rhf"
			},
			{
				"type": "unocc",
				"energy": -0.04941,
				"method": "rhf"
			},
			{
				"type": "unocc",
				"energy": -0.02904,
				"method": "rhf"
			},
			{
				"type": "unocc",
				"energy": -0.02223,
				"method": "rhf"
			},
			{
				"type": "unocc",
				"energy": -0.00298,
				"method": "rhf"
			},
			{
				"type": "unocc",
				"energy": 0.05858,
				"method": "rhf"
			}
		],
		"cosmo_sigma_profile": { 
			"-0.025": 0.0,
			"-0.024": 0.0,
			"-0.023": 0.0,
			"-0.022": 0.0,
			"-0.021": 0.0,
			"-0.02": 0.0,
			"-0.019": 0.0,
			"-0.018": 0.0,
			"-0.017": 0.0,
			"-0.016": 0.0,
			"-0.015": 0.0,
			"-0.014": 0.0,
			"-0.013": 0.0,
			"-0.012": 0.0,
			"-0.011": 0.0,
			"-0.01": 0.0,
			"-0.009": 0.152569942135,
			"-0.008": 4.61124921312,
			"-0.007": 9.73713291688,
			"-0.006": 12.3069299897,
			"-0.005": 16.1649372078,
			"-0.004": 29.133869424,
			"-0.003": 32.3912520037,
			"-0.002": 30.5975025581,
			"-0.001": 29.1450085958,
			"0.0": 31.7938229523,
			"0.001": 27.2551478149,
			"0.002": 15.7516279157,
			"0.003": 15.1580445742,
			"0.004": 15.0649798277,
			"0.005": 6.0539397061,
			"0.006": 4.89774684671,
			"0.007": 4.95514000221,
			"0.008": 4.87506657598,
			"0.009": 5.94922726892,
			"0.01": 8.19494189067,
			"0.011": 9.77970702685,
			"0.012": 2.51201638172,
			"0.013": 0.0,
			"0.014": 0.0,
			"0.015": 0.0,
			"0.016": 0.0,
			"0.017": 0.0,
			"0.018": 0.0,
			"0.019": 0.0,
			"0.02": 0.0,
			"0.021": 0.0,
			"0.022": 0.0,
			"0.023": 0.0,
			"0.024": 0.0,
			"0.025": 0.0
		}
	}
}
