{
	 "smiles": "NC1=CC=C(N2C=CC=C2)C(=C1)C#N", 
	 "Tm": 409.15, 
	 "num_atms": 23, 
	 "gaussian": { 
		 "optdone": 1, 
		 "sigma_profile": "yes", 
		 "theory": "DFT", 
		 "functional": "B3LYP", 
		 "basiset": "6-31G**", 
		 "properties": { 
			 "R2extent": 3148.0538, 
			 "electric_dipole_moment_norm": 6.21008315323, 
			 "electric_quadrupole_moment_norm": 13.8820632343, 
			 "total_energy": -588.816384604, 
			 "HOMO_LUMO_gap": 0.15639, 
			 "cosmo_polarized_energy": -16.12, 
			 "cosmo_cavitation_energy": 28.3, 
			 "cosmo_dispersion_energy": -19.96, 
			 "cosmo_repulsion_energy": 1.56, 
			 "cosmo_total_nonelectrostatic_energy": 9.9, 
			 "SMD_solvation_energy": 6.62 
		},
		"coords": [
			{
				"x": 0.5761819512,
				"y": -2.0904918182,
				"z": -2.7992789985,
				"element": "N" 
			},
			{
				"x": 0.4264323375,
				"y": -1.0439893454,
				"z": -1.8956215259,
				"element": "C" 
			},
			{
				"x": 1.0794312737,
				"y": 0.1863956746,
				"z": -2.0969138611,
				"element": "C" 
			},
			{
				"x": 0.9875558616,
				"y": 1.2053355156,
				"z": -1.1583082993,
				"element": "C" 
			},
			{
				"x": 0.228701039,
				"y": 1.0597626573,
				"z": 0.0091759613,
				"element": "C" 
			},
			{
				"x": 0.1457594508,
				"y": 2.1303527574,
				"z": 0.9294186101,
				"element": "N" 
			},
			{
				"x": 0.3150387387,
				"y": 2.0569597571,
				"z": 2.3042393823,
				"element": "C" 
			},
			{
				"x": 0.2326837405,
				"y": 3.3292304312,
				"z": 2.8154414861,
				"element": "C" 
			},
			{
				"x": 0.005978608,
				"y": 4.2181702108,
				"z": 1.7227619462,
				"element": "C" 
			},
			{
				"x": -0.0371216493,
				"y": 3.4605468512,
				"z": 0.5777225604,
				"element": "C" 
			},
			{
				"x": -0.4444533044,
				"y": -0.1647821527,
				"z": 0.2114923615,
				"element": "C" 
			},
			{
				"x": -0.3300986369,
				"y": -1.2020171273,
				"z": -0.7276888927,
				"element": "C" 
			},
			{
				"x": -1.2890071934,
				"y": -0.3914025619,
				"z": 1.3481742145,
				"element": "C" 
			},
			{
				"x": -1.9884555216,
				"y": -0.628529153,
				"z": 2.2470569541,
				"element": "N" 
			},
			{
				"x": 0.8185223369,
				"y": -1.8253766174,
				"z": -3.743298034,
				"element": "H" 
			},
			{
				"x": -0.1378147866,
				"y": -2.8044867342,
				"z": -2.770275596,
				"element": "H" 
			},
			{
				"x": 1.6840820743,
				"y": 0.332740666,
				"z": -2.9879755814,
				"element": "H" 
			},
			{
				"x": 1.526080718,
				"y": 2.1336305203,
				"z": -1.3157893121,
				"element": "H" 
			},
			{
				"x": 0.4976467407,
				"y": 1.1103033693,
				"z": 2.7875183229,
				"element": "H" 
			},
			{
				"x": 0.3273827897,
				"y": 3.5937723648,
				"z": 3.8591358706,
				"element": "H" 
			},
			{
				"x": -0.1251908257,
				"y": 5.2899789036,
				"z": 1.7740901029,
				"element": "H" 
			},
			{
				"x": -0.2243584701,
				"y": 3.7323679523,
				"z": -0.4499419394,
				"element": "H" 
			},
			{
				"x": -0.8525772725,
				"y": -2.1346721214,
				"z": -0.5394357324,
				"element": "H" 
			}
		],
		 "valence_orbital": [ 
			{
				"type": "occ",
				"energy": -0.32179,
				"method": "rhf"
			},
			{
				"type": "occ",
				"energy": -0.26942,
				"method": "rhf"
			},
			{
				"type": "occ",
				"energy": -0.25374,
				"method": "rhf"
			},
			{
				"type": "occ",
				"energy": -0.21191,
				"method": "rhf"
			},
			{
				"type": "occ",
				"energy": -0.20846,
				"method": "rhf"
			},
			{
				"type": "unocc",
				"energy": -0.05207,
				"method": "rhf"
			},
			{
				"type": "unocc",
				"energy": -0.01674,
				"method": "rhf"
			},
			{
				"type": "unocc",
				"energy": 0.03592,
				"method": "rhf"
			},
			{
				"type": "unocc",
				"energy": 0.04514,
				"method": "rhf"
			},
			{
				"type": "unocc",
				"energy": 0.06088,
				"method": "rhf"
			}
		],
		"cosmo_sigma_profile": { 
			"-0.025": 0.0,
			"-0.024": 0.0,
			"-0.023": 0.0,
			"-0.022": 0.0,
			"-0.021": 0.0,
			"-0.02": 0.0,
			"-0.019": 0.0,
			"-0.018": 0.0,
			"-0.017": 0.0,
			"-0.016": 0.0,
			"-0.015": 0.0,
			"-0.014": 0.0753980005923,
			"-0.013": 2.63720251979,
			"-0.012": 3.21835129586,
			"-0.011": 2.80705799158,
			"-0.01": 4.13241189583,
			"-0.009": 3.76816337686,
			"-0.008": 4.98554822216,
			"-0.007": 9.12515789254,
			"-0.006": 12.6091473537,
			"-0.005": 12.4776956138,
			"-0.004": 11.7561513342,
			"-0.003": 9.98649026049,
			"-0.002": 11.9613141758,
			"-0.001": 16.2187008495,
			"0.0": 15.074974859,
			"0.001": 13.846994678,
			"0.002": 18.4194286196,
			"0.003": 14.4130179755,
			"0.004": 8.76433661361,
			"0.005": 7.89851170628,
			"0.006": 9.78926242728,
			"0.007": 8.83995281628,
			"0.008": 8.20816768272,
			"0.009": 4.41048430956,
			"0.01": 3.75843538219,
			"0.011": 3.61709569991,
			"0.012": 2.83700666216,
			"0.013": 1.96685630881,
			"0.014": 0.174847012293,
			"0.015": 0.0,
			"0.016": 0.0,
			"0.017": 0.0,
			"0.018": 0.0,
			"0.019": 0.0,
			"0.02": 0.0,
			"0.021": 0.0,
			"0.022": 0.0,
			"0.023": 0.0,
			"0.024": 0.0,
			"0.025": 0.0
		}
	}
}
