{
	 "smiles": "CC(=O)OC1=CC(C)=C(C)C=C1", 
	 "Tm": 295.15, 
	 "num_atms": 24, 
	 "gaussian": { 
		 "optdone": 1, 
		 "sigma_profile": "yes", 
		 "theory": "DFT", 
		 "functional": "B3LYP", 
		 "basiset": "6-31G**", 
		 "properties": { 
			 "R2extent": 3063.3777, 
			 "electric_dipole_moment_norm": 1.44762114519, 
			 "electric_quadrupole_moment_norm": 13.2883440887, 
			 "total_energy": -538.767988033, 
			 "HOMO_LUMO_gap": 0.2204, 
			 "cosmo_polarized_energy": -7.78, 
			 "cosmo_cavitation_energy": 27.7, 
			 "cosmo_dispersion_energy": -19.97, 
			 "cosmo_repulsion_energy": 1.61, 
			 "cosmo_total_nonelectrostatic_energy": 9.34, 
			 "SMD_solvation_energy": 6.15 
		},
		"coords": [
			{
				"x": -0.3240675656,
				"y": -1.7744274204,
				"z": 3.4266572314,
				"element": "C" 
			},
			{
				"x": 0.3306262918,
				"y": -1.655047168,
				"z": 2.0715759818,
				"element": "C" 
			},
			{
				"x": 1.4989503153,
				"y": -1.8388714759,
				"z": 1.833061571,
				"element": "O" 
			},
			{
				"x": -0.6099249094,
				"y": -1.3052459131,
				"z": 1.1404123811,
				"element": "O" 
			},
			{
				"x": -0.2726657858,
				"y": -1.1432245215,
				"z": -0.2072634733,
				"element": "C" 
			},
			{
				"x": 0.8324554593,
				"y": -0.4044085644,
				"z": -0.6275345208,
				"element": "C" 
			},
			{
				"x": 1.0740776026,
				"y": -0.2143233465,
				"z": -1.9919735757,
				"element": "C" 
			},
			{
				"x": 2.2796564688,
				"y": 0.5823748988,
				"z": -2.4319197025,
				"element": "C" 
			},
			{
				"x": 0.1889831948,
				"y": -0.76788443,
				"z": -2.9430995803,
				"element": "C" 
			},
			{
				"x": 0.4230554891,
				"y": -0.5796560383,
				"z": -4.422999662,
				"element": "C" 
			},
			{
				"x": -0.9150199274,
				"y": -1.4972410606,
				"z": -2.4897557423,
				"element": "C" 
			},
			{
				"x": -1.1552553746,
				"y": -1.6922529596,
				"z": -1.1302376037,
				"element": "C" 
			},
			{
				"x": -0.803555584,
				"y": -0.8288598834,
				"z": 3.6963138774,
				"element": "H" 
			},
			{
				"x": -1.1058932088,
				"y": -2.5391856247,
				"z": 3.399100493,
				"element": "H" 
			},
			{
				"x": 0.4282584329,
				"y": -2.0376325317,
				"z": 4.1692986359,
				"element": "H" 
			},
			{
				"x": 1.5131273483,
				"y": 0.011791647,
				"z": 0.1045818031,
				"element": "H" 
			},
			{
				"x": 1.9912392231,
				"y": 1.4557252932,
				"z": -3.0295337496,
				"element": "H" 
			},
			{
				"x": 2.8528040106,
				"y": 0.9388852557,
				"z": -1.572531449,
				"element": "H" 
			},
			{
				"x": 2.9529572778,
				"y": -0.0176154349,
				"z": -3.0560636084,
				"element": "H" 
			},
			{
				"x": -0.3562381596,
				"y": -1.072498812,
				"z": -5.010302941,
				"element": "H" 
			},
			{
				"x": 0.4301089883,
				"y": 0.4810697228,
				"z": -4.7025064236,
				"element": "H" 
			},
			{
				"x": 1.389002065,
				"y": -0.9935233481,
				"z": -4.737469383,
				"element": "H" 
			},
			{
				"x": -1.602867004,
				"y": -1.9236997611,
				"z": -3.2153737747,
				"element": "H" 
			},
			{
				"x": -2.0139146486,
				"y": -2.2558485235,
				"z": -0.7809367848,
				"element": "H" 
			}
		],
		 "valence_orbital": [ 
			{
				"type": "occ",
				"energy": -0.33514,
				"method": "rhf"
			},
			{
				"type": "occ",
				"energy": -0.3113,
				"method": "rhf"
			},
			{
				"type": "occ",
				"energy": -0.27386,
				"method": "rhf"
			},
			{
				"type": "occ",
				"energy": -0.24216,
				"method": "rhf"
			},
			{
				"type": "occ",
				"energy": -0.22654,
				"method": "rhf"
			},
			{
				"type": "unocc",
				"energy": -0.00614,
				"method": "rhf"
			},
			{
				"type": "unocc",
				"energy": 0.00316,
				"method": "rhf"
			},
			{
				"type": "unocc",
				"energy": 0.02262,
				"method": "rhf"
			},
			{
				"type": "unocc",
				"energy": 0.09241,
				"method": "rhf"
			},
			{
				"type": "unocc",
				"energy": 0.10281,
				"method": "rhf"
			}
		],
		"cosmo_sigma_profile": { 
			"-0.025": 0.0,
			"-0.024": 0.0,
			"-0.023": 0.0,
			"-0.022": 0.0,
			"-0.021": 0.0,
			"-0.02": 0.0,
			"-0.019": 0.0,
			"-0.018": 0.0,
			"-0.017": 0.0,
			"-0.016": 0.0,
			"-0.015": 0.0,
			"-0.014": 0.0,
			"-0.013": 0.0,
			"-0.012": 0.0,
			"-0.011": 0.0,
			"-0.01": 0.0,
			"-0.009": 0.0,
			"-0.008": 0.0,
			"-0.007": 1.87600876772,
			"-0.006": 8.31574438928,
			"-0.005": 13.7173735941,
			"-0.004": 24.8233591656,
			"-0.003": 24.3427038138,
			"-0.002": 23.3504568468,
			"-0.001": 20.3943794298,
			"0.0": 22.1770413703,
			"0.001": 14.3438809509,
			"0.002": 9.85808051642,
			"0.003": 10.9220900632,
			"0.004": 9.53426321836,
			"0.005": 12.4265148584,
			"0.006": 5.1902551463,
			"0.007": 3.48143618763,
			"0.008": 2.0008630358,
			"0.009": 1.96692053345,
			"0.01": 2.82788311918,
			"0.011": 3.94423450028,
			"0.012": 3.26609429645,
			"0.013": 0.184637875261,
			"0.014": 0.0,
			"0.015": 0.0,
			"0.016": 0.0,
			"0.017": 0.0,
			"0.018": 0.0,
			"0.019": 0.0,
			"0.02": 0.0,
			"0.021": 0.0,
			"0.022": 0.0,
			"0.023": 0.0,
			"0.024": 0.0,
			"0.025": 0.0
		}
	}
}
