{
	 "smiles": "BrC1=CC=C(CN2C=CN=C2)C=C1", 
	 "Tm": 350.65, 
	 "num_atms": 22, 
	 "gaussian": { 
		 "optdone": 1, 
		 "sigma_profile": "yes", 
		 "theory": "DFT", 
		 "functional": "B3LYP", 
		 "basiset": "6-31G**", 
		 "properties": { 
			 "R2extent": 5963.4421, 
			 "electric_dipole_moment_norm": 3.17081762326, 
			 "electric_quadrupole_moment_norm": 16.4040558936, 
			 "total_energy": -3067.38428323, 
			 "HOMO_LUMO_gap": 0.19934, 
			 "cosmo_polarized_energy": -12.62, 
			 "cosmo_cavitation_energy": 28.75, 
			 "cosmo_dispersion_energy": -20.99, 
			 "cosmo_repulsion_energy": 1.65, 
			 "cosmo_total_nonelectrostatic_energy": 9.41, 
			 "SMD_solvation_energy": 2.74 
		},
		"coords": [
			{
				"x": -0.2237021675,
				"y": -3.7864329973,
				"z": -3.1762640928,
				"element": "Br" 
			},
			{
				"x": 0.357054423,
				"y": -2.0893027135,
				"z": -2.5180536659,
				"element": "C" 
			},
			{
				"x": 0.029035738,
				"y": -0.9323599177,
				"z": -3.220534887,
				"element": "C" 
			},
			{
				"x": 0.4536307386,
				"y": 0.302543881,
				"z": -2.7275211447,
				"element": "C" 
			},
			{
				"x": 1.2040416764,
				"y": 0.3905326036,
				"z": -1.5508855596,
				"element": "C" 
			},
			{
				"x": 1.699415597,
				"y": 1.7416084786,
				"z": -1.0642879302,
				"element": "C" 
			},
			{
				"x": 1.6270079228,
				"y": 1.9153870977,
				"z": 0.3799896406,
				"element": "N" 
			},
			{
				"x": 0.483490121,
				"y": 1.9562736551,
				"z": 1.1560785173,
				"element": "C" 
			},
			{
				"x": 0.9205776312,
				"y": 2.1311074083,
				"z": 2.4456547655,
				"element": "C" 
			},
			{
				"x": 2.2954985737,
				"y": 2.1984534279,
				"z": 2.4906835921,
				"element": "N" 
			},
			{
				"x": 2.6827109068,
				"y": 2.0656597159,
				"z": 1.2410124734,
				"element": "C" 
			},
			{
				"x": 1.5190333196,
				"y": -0.7872314294,
				"z": -0.8620831507,
				"element": "C" 
			},
			{
				"x": 1.0982937152,
				"y": -2.0277484758,
				"z": -1.337957842,
				"element": "C" 
			},
			{
				"x": -0.5541111884,
				"y": -0.9926490244,
				"z": -4.1322970351,
				"element": "H" 
			},
			{
				"x": 0.1923717961,
				"y": 1.207012729,
				"z": -3.271465619,
				"element": "H" 
			},
			{
				"x": 1.1334574054,
				"y": 2.5416102127,
				"z": -1.554336128,
				"element": "H" 
			},
			{
				"x": 2.7496628423,
				"y": 1.8825970404,
				"z": -1.3447199542,
				"element": "H" 
			},
			{
				"x": -0.5003472898,
				"y": 1.8504329163,
				"z": 0.7251702231,
				"element": "H" 
			},
			{
				"x": 0.3226886664,
				"y": 2.2136670662,
				"z": 3.3429662226,
				"element": "H" 
			},
			{
				"x": 3.7056788246,
				"y": 2.0765959532,
				"z": 0.8869957113,
				"element": "H" 
			},
			{
				"x": 2.0892119867,
				"y": -0.7362345845,
				"z": 0.0609664962,
				"element": "H" 
			},
			{
				"x": 1.341698761,
				"y": -2.9363230435,
				"z": -0.7991106331,
				"element": "H" 
			}
		],
		 "valence_orbital": [ 
			{
				"type": "occ",
				"energy": -0.27473,
				"method": "rhf"
			},
			{
				"type": "occ",
				"energy": -0.27,
				"method": "rhf"
			},
			{
				"type": "occ",
				"energy": -0.26349,
				"method": "rhf"
			},
			{
				"type": "occ",
				"energy": -0.24759,
				"method": "rhf"
			},
			{
				"type": "occ",
				"energy": -0.22707,
				"method": "rhf"
			},
			{
				"type": "unocc",
				"energy": -0.02773,
				"method": "rhf"
			},
			{
				"type": "unocc",
				"energy": -0.02459,
				"method": "rhf"
			},
			{
				"type": "unocc",
				"energy": 0.00097,
				"method": "rhf"
			},
			{
				"type": "unocc",
				"energy": 0.02506,
				"method": "rhf"
			},
			{
				"type": "unocc",
				"energy": 0.06895,
				"method": "rhf"
			}
		],
		"cosmo_sigma_profile": { 
			"-0.025": 0.0,
			"-0.024": 0.0,
			"-0.023": 0.0,
			"-0.022": 0.0,
			"-0.021": 0.0,
			"-0.02": 0.0,
			"-0.019": 0.0,
			"-0.018": 0.0,
			"-0.017": 0.0,
			"-0.016": 0.0,
			"-0.015": 0.0,
			"-0.014": 0.0,
			"-0.013": 0.0,
			"-0.012": 0.0,
			"-0.011": 0.0,
			"-0.01": 0.117458665165,
			"-0.009": 2.29844841898,
			"-0.008": 6.28086161003,
			"-0.007": 13.7887694328,
			"-0.006": 16.1628615229,
			"-0.005": 17.652939204,
			"-0.004": 15.1172867063,
			"-0.003": 13.7422631304,
			"-0.002": 13.2484787926,
			"-0.001": 11.9230290762,
			"0.0": 12.1624381423,
			"0.001": 14.7361174122,
			"0.002": 19.868642598,
			"0.003": 24.1521724049,
			"0.004": 19.34412633,
			"0.005": 11.7674089011,
			"0.006": 4.75527980593,
			"0.007": 2.31919761098,
			"0.008": 1.32724837028,
			"0.009": 1.75997224245,
			"0.01": 2.69194502987,
			"0.011": 1.12388980759,
			"0.012": 0.639859120155,
			"0.013": 1.05855481475,
			"0.014": 1.0914421306,
			"0.015": 1.50065910337,
			"0.016": 1.32372564347,
			"0.017": 0.79174068685,
			"0.018": 1.07089032095,
			"0.019": 0.192633798785,
			"0.02": 0.0,
			"0.021": 0.0,
			"0.022": 0.0,
			"0.023": 0.0,
			"0.024": 0.0,
			"0.025": 0.0
		}
	}
}
