{
	 "smiles": "CCOC(=O)C1=C(C)C2=C(O1)C=CC(Br)=C2", 
	 "Tm": 363.15, 
	 "num_atms": 27, 
	 "gaussian": { 
		 "optdone": 1, 
		 "sigma_profile": "yes", 
		 "theory": "DFT", 
		 "functional": "B3LYP", 
		 "basiset": "6-31G**", 
		 "properties": { 
			 "R2extent": 8242.3534, 
			 "electric_dipole_moment_norm": 2.5967649316, 
			 "electric_quadrupole_moment_norm": 10.0866652829, 
			 "total_energy": -3260.99487028, 
			 "HOMO_LUMO_gap": 0.17582, 
			 "cosmo_polarized_energy": -9.55, 
			 "cosmo_cavitation_energy": 33.92, 
			 "cosmo_dispersion_energy": -24.84, 
			 "cosmo_repulsion_energy": 1.95, 
			 "cosmo_total_nonelectrostatic_energy": 11.03, 
			 "SMD_solvation_energy": 6.12 
		},
		"coords": [
			{
				"x": 1.6683211783,
				"y": -4.3243386764,
				"z": 1.7041155462,
				"element": "C" 
			},
			{
				"x": 0.4563538296,
				"y": -4.049815361,
				"z": 0.8269588367,
				"element": "C" 
			},
			{
				"x": 0.2891900709,
				"y": -2.6300838978,
				"z": 0.5852317705,
				"element": "O" 
			},
			{
				"x": 1.0038881287,
				"y": -2.1130945763,
				"z": -0.4426514614,
				"element": "C" 
			},
			{
				"x": 1.7470027838,
				"y": -2.756969408,
				"z": -1.1537729592,
				"element": "O" 
			},
			{
				"x": 0.7658283248,
				"y": -0.6660308136,
				"z": -0.6000909301,
				"element": "C" 
			},
			{
				"x": -0.0016188873,
				"y": 0.2631941919,
				"z": 0.0589756084,
				"element": "C" 
			},
			{
				"x": -0.9144255424,
				"y": 0.0996350635,
				"z": 1.2339116402,
				"element": "C" 
			},
			{
				"x": 0.2442353078,
				"y": 1.5082755115,
				"z": -0.6299933009,
				"element": "C" 
			},
			{
				"x": 1.1541660213,
				"y": 1.2123307557,
				"z": -1.6597226596,
				"element": "C" 
			},
			{
				"x": 1.4743333198,
				"y": -0.1057561354,
				"z": -1.6457801938,
				"element": "O" 
			},
			{
				"x": 1.6368796937,
				"y": 2.1668646664,
				"z": -2.5503840997,
				"element": "C" 
			},
			{
				"x": 1.1749654039,
				"y": 3.469011235,
				"z": -2.3842602346,
				"element": "C" 
			},
			{
				"x": 0.2630403365,
				"y": 3.7798528323,
				"z": -1.3564989302,
				"element": "C" 
			},
			{
				"x": -0.3307893395,
				"y": 5.5919305219,
				"z": -1.1860443624,
				"element": "Br" 
			},
			{
				"x": -0.2163263231,
				"y": 2.8258262733,
				"z": -0.4703810505,
				"element": "C" 
			},
			{
				"x": 2.5878473812,
				"y": -4.0345850488,
				"z": 1.1901904474,
				"element": "H" 
			},
			{
				"x": 1.7248023519,
				"y": -5.3939718987,
				"z": 1.9320021153,
				"element": "H" 
			},
			{
				"x": 1.6000540126,
				"y": -3.7754937072,
				"z": 2.6480170035,
				"element": "H" 
			},
			{
				"x": 0.540497981,
				"y": -4.5609966781,
				"z": -0.1345840524,
				"element": "H" 
			},
			{
				"x": -0.4722589057,
				"y": -4.34899923,
				"z": 1.3184841114,
				"element": "H" 
			},
			{
				"x": -0.9106356266,
				"y": -0.9231195878,
				"z": 1.6054816111,
				"element": "H" 
			},
			{
				"x": -1.9417692187,
				"y": 0.368538916,
				"z": 0.9607005075,
				"element": "H" 
			},
			{
				"x": -0.6134843579,
				"y": 0.7705263212,
				"z": 2.0470868206,
				"element": "H" 
			},
			{
				"x": 2.3385796305,
				"y": 1.9062590383,
				"z": -3.3346203503,
				"element": "H" 
			},
			{
				"x": 1.5156268162,
				"y": 4.2551864097,
				"z": -3.0476560836,
				"element": "H" 
			},
			{
				"x": -0.9180043714,
				"y": 3.0942232824,
				"z": 0.3107846501,
				"element": "H" 
			}
		],
		 "valence_orbital": [ 
			{
				"type": "occ",
				"energy": -0.29958,
				"method": "rhf"
			},
			{
				"type": "occ",
				"energy": -0.28918,
				"method": "rhf"
			},
			{
				"type": "occ",
				"energy": -0.2805,
				"method": "rhf"
			},
			{
				"type": "occ",
				"energy": -0.23826,
				"method": "rhf"
			},
			{
				"type": "occ",
				"energy": -0.23723,
				"method": "rhf"
			},
			{
				"type": "unocc",
				"energy": -0.06141,
				"method": "rhf"
			},
			{
				"type": "unocc",
				"energy": -0.00736,
				"method": "rhf"
			},
			{
				"type": "unocc",
				"energy": 0.00424,
				"method": "rhf"
			},
			{
				"type": "unocc",
				"energy": 0.00871,
				"method": "rhf"
			},
			{
				"type": "unocc",
				"energy": 0.09267,
				"method": "rhf"
			}
		],
		"cosmo_sigma_profile": { 
			"-0.025": 0.0,
			"-0.024": 0.0,
			"-0.023": 0.0,
			"-0.022": 0.0,
			"-0.021": 0.0,
			"-0.02": 0.0,
			"-0.019": 0.0,
			"-0.018": 0.0,
			"-0.017": 0.0,
			"-0.016": 0.0,
			"-0.015": 0.0,
			"-0.014": 0.0,
			"-0.013": 0.0,
			"-0.012": 0.0,
			"-0.011": 0.0,
			"-0.01": 0.0,
			"-0.009": 0.0846135420714,
			"-0.008": 2.54803423548,
			"-0.007": 5.03153734823,
			"-0.006": 9.02195398297,
			"-0.005": 15.6004832038,
			"-0.004": 21.8238245484,
			"-0.003": 24.6540387127,
			"-0.002": 24.5248798997,
			"-0.001": 27.6265415467,
			"0.0": 31.7306185844,
			"0.001": 26.8704557624,
			"0.002": 24.6357725898,
			"0.003": 16.7383831394,
			"0.004": 14.2746468717,
			"0.005": 8.69420087413,
			"0.006": 1.80363488697,
			"0.007": 2.0800510472,
			"0.008": 2.26967609587,
			"0.009": 2.31757311272,
			"0.01": 2.06607027804,
			"0.011": 4.24268064605,
			"0.012": 4.26558433057,
			"0.013": 1.29403982875,
			"0.014": 0.0132387680546,
			"0.015": 0.0,
			"0.016": 0.0,
			"0.017": 0.0,
			"0.018": 0.0,
			"0.019": 0.0,
			"0.02": 0.0,
			"0.021": 0.0,
			"0.022": 0.0,
			"0.023": 0.0,
			"0.024": 0.0,
			"0.025": 0.0
		}
	}
}
