{
	 "smiles": "CCOC(=O)C1=C2N(N=N1)C1=C(C=CC=C1)C(=O)N2C", 
	 "Tm": 423.15, 
	 "num_atms": 32, 
	 "gaussian": { 
		 "optdone": 1, 
		 "sigma_profile": "yes", 
		 "theory": "DFT", 
		 "functional": "B3LYP", 
		 "basiset": "6-31G**", 
		 "properties": { 
			 "R2extent": 7506.9261, 
			 "electric_dipole_moment_norm": 1.607479412, 
			 "electric_quadrupole_moment_norm": 23.5191713846, 
			 "total_energy": -947.291056216, 
			 "HOMO_LUMO_gap": 0.17973, 
			 "cosmo_polarized_energy": -14.69, 
			 "cosmo_cavitation_energy": 36.34, 
			 "cosmo_dispersion_energy": -26.88, 
			 "cosmo_repulsion_energy": 2.02, 
			 "cosmo_total_nonelectrostatic_energy": 11.48, 
			 "SMD_solvation_energy": 6.36 
		},
		"coords": [
			{
				"x": 3.7276968307,
				"y": -2.9547216965,
				"z": -2.2259867626,
				"element": "C" 
			},
			{
				"x": 2.2308829057,
				"y": -3.1263411368,
				"z": -2.0513201713,
				"element": "C" 
			},
			{
				"x": 1.6982002049,
				"y": -1.846799048,
				"z": -1.6405262554,
				"element": "O" 
			},
			{
				"x": 0.3709288814,
				"y": -1.807266722,
				"z": -1.435084997,
				"element": "C" 
			},
			{
				"x": -0.3571933872,
				"y": -2.774711379,
				"z": -1.5794145451,
				"element": "O" 
			},
			{
				"x": -0.0624426029,
				"y": -0.457664204,
				"z": -1.0206100269,
				"element": "C" 
			},
			{
				"x": -1.3245278533,
				"y": 0.0748402825,
				"z": -0.6966314359,
				"element": "C" 
			},
			{
				"x": -1.0498296772,
				"y": 1.3795840644,
				"z": -0.3974352656,
				"element": "N" 
			},
			{
				"x": 0.2940159691,
				"y": 1.6482636932,
				"z": -0.5250933333,
				"element": "N" 
			},
			{
				"x": 0.85749202,
				"y": 0.5538507261,
				"z": -0.8927632091,
				"element": "N" 
			},
			{
				"x": -1.9980141571,
				"y": 2.3279170439,
				"z": -0.0109052865,
				"element": "C" 
			},
			{
				"x": -3.323788198,
				"y": 1.8827592223,
				"z": 0.0682359776,
				"element": "C" 
			},
			{
				"x": -4.3232184688,
				"y": 2.7890543798,
				"z": 0.4514113162,
				"element": "C" 
			},
			{
				"x": -3.9926101371,
				"y": 4.104920074,
				"z": 0.745565621,
				"element": "C" 
			},
			{
				"x": -2.6574879511,
				"y": 4.5297740168,
				"z": 0.6597617561,
				"element": "C" 
			},
			{
				"x": -1.6492712273,
				"y": 3.6504686699,
				"z": 0.2822883683,
				"element": "C" 
			},
			{
				"x": -3.6864505761,
				"y": 0.4835728646,
				"z": -0.2429330204,
				"element": "C" 
			},
			{
				"x": -4.8364440797,
				"y": 0.072597734,
				"z": -0.1804885385,
				"element": "O" 
			},
			{
				"x": -2.6263121409,
				"y": -0.3722053204,
				"z": -0.6216335756,
				"element": "N" 
			},
			{
				"x": -2.9739046822,
				"y": -1.7691016782,
				"z": -0.9342700967,
				"element": "C" 
			},
			{
				"x": 4.1751346985,
				"y": -3.9035432761,
				"z": -2.538333068,
				"element": "H" 
			},
			{
				"x": 4.1965919505,
				"y": -2.6427512727,
				"z": -1.2886631375,
				"element": "H" 
			},
			{
				"x": 3.9477809474,
				"y": -2.2009792565,
				"z": -2.987035361,
				"element": "H" 
			},
			{
				"x": 1.9869264733,
				"y": -3.8730572613,
				"z": -1.2888705104,
				"element": "H" 
			},
			{
				"x": 1.739130659,
				"y": -3.433244432,
				"z": -2.9799897577,
				"element": "H" 
			},
			{
				"x": -5.3435937297,
				"y": 2.4265765332,
				"z": 0.5071078896,
				"element": "H" 
			},
			{
				"x": -4.7659694377,
				"y": 4.8061590739,
				"z": 1.0420555445,
				"element": "H" 
			},
			{
				"x": -2.4028758665,
				"y": 5.5597184472,
				"z": 0.8906226361,
				"element": "H" 
			},
			{
				"x": -0.6136875861,
				"y": 3.9587363448,
				"z": 0.2101738303,
				"element": "H" 
			},
			{
				"x": -4.0490639258,
				"y": -1.8556121169,
				"z": -0.7988707973,
				"element": "H" 
			},
			{
				"x": -2.6920270628,
				"y": -2.0064292957,
				"z": -1.9589035395,
				"element": "H" 
			},
			{
				"x": -2.4434687931,
				"y": -2.4468650745,
				"z": -0.2672602487,
				"element": "H" 
			}
		],
		 "valence_orbital": [ 
			{
				"type": "occ",
				"energy": -0.28046,
				"method": "rhf"
			},
			{
				"type": "occ",
				"energy": -0.27524,
				"method": "rhf"
			},
			{
				"type": "occ",
				"energy": -0.27409,
				"method": "rhf"
			},
			{
				"type": "occ",
				"energy": -0.25727,
				"method": "rhf"
			},
			{
				"type": "occ",
				"energy": -0.24237,
				"method": "rhf"
			},
			{
				"type": "unocc",
				"energy": -0.06264,
				"method": "rhf"
			},
			{
				"type": "unocc",
				"energy": -0.0515,
				"method": "rhf"
			},
			{
				"type": "unocc",
				"energy": -0.02832,
				"method": "rhf"
			},
			{
				"type": "unocc",
				"energy": 0.01062,
				"method": "rhf"
			},
			{
				"type": "unocc",
				"energy": 0.04521,
				"method": "rhf"
			}
		],
		"cosmo_sigma_profile": { 
			"-0.025": 0.0,
			"-0.024": 0.0,
			"-0.023": 0.0,
			"-0.022": 0.0,
			"-0.021": 0.0,
			"-0.02": 0.0,
			"-0.019": 0.0,
			"-0.018": 0.0,
			"-0.017": 0.0,
			"-0.016": 0.0,
			"-0.015": 0.0,
			"-0.014": 0.0,
			"-0.013": 0.0,
			"-0.012": 0.0,
			"-0.011": 0.0,
			"-0.01": 0.0,
			"-0.009": 0.150495383502,
			"-0.008": 2.41482009804,
			"-0.007": 9.27934146354,
			"-0.006": 13.0211154516,
			"-0.005": 23.2808273765,
			"-0.004": 30.6672034837,
			"-0.003": 32.7303732459,
			"-0.002": 26.7870920991,
			"-0.001": 25.372805442,
			"0.0": 24.7263533257,
			"0.001": 17.4966565363,
			"0.002": 17.7350698648,
			"0.003": 8.76110198557,
			"0.004": 5.55480822326,
			"0.005": 5.5902893042,
			"0.006": 5.2259689877,
			"0.007": 5.84120429267,
			"0.008": 6.48138586665,
			"0.009": 6.77763828517,
			"0.01": 6.82571402463,
			"0.011": 6.83903489989,
			"0.012": 6.201977681,
			"0.013": 0.977962904591,
			"0.014": 1.61177151346,
			"0.015": 0.887989505749,
			"0.016": 0.109007514685,
			"0.017": 0.0,
			"0.018": 0.0,
			"0.019": 0.0,
			"0.02": 0.0,
			"0.021": 0.0,
			"0.022": 0.0,
			"0.023": 0.0,
			"0.024": 0.0,
			"0.025": 0.0
		}
	}
}
