{
	 "smiles": "OC(=O)C1=C(OC2=C(Br)C=C(F)C=C2)N=CC=C1", 
	 "Tm": 463.15, 
	 "num_atms": 25, 
	 "gaussian": { 
		 "optdone": 1, 
		 "sigma_profile": "yes", 
		 "theory": "DFT", 
		 "functional": "B3LYP", 
		 "basiset": "6-31G**", 
		 "properties": { 
			 "R2extent": 5717.123, 
			 "electric_dipole_moment_norm": 5.44279224847, 
			 "electric_quadrupole_moment_norm": 22.4312560743, 
			 "total_energy": -3413.14230816, 
			 "HOMO_LUMO_gap": 0.18255, 
			 "cosmo_polarized_energy": -20.1, 
			 "cosmo_cavitation_energy": 34.1, 
			 "cosmo_dispersion_energy": -23.84, 
			 "cosmo_repulsion_energy": 1.83, 
			 "cosmo_total_nonelectrostatic_energy": 12.09, 
			 "SMD_solvation_energy": 5.73 
		},
		"coords": [
			{
				"x": -2.1459529512,
				"y": -3.566181524,
				"z": -1.7464207647,
				"element": "O" 
			},
			{
				"x": -1.3517946343,
				"y": -2.469224937,
				"z": -1.5699066742,
				"element": "C" 
			},
			{
				"x": -1.3750358965,
				"y": -1.56826942,
				"z": -2.3671977422,
				"element": "O" 
			},
			{
				"x": -0.4555982678,
				"y": -2.5275892455,
				"z": -0.3670357838,
				"element": "C" 
			},
			{
				"x": -0.1552346673,
				"y": -1.3833328536,
				"z": 0.4100012443,
				"element": "C" 
			},
			{
				"x": -0.7987809791,
				"y": -0.2304388645,
				"z": 0.0909723373,
				"element": "O" 
			},
			{
				"x": -0.5107745139,
				"y": 0.9273322568,
				"z": 0.7994663547,
				"element": "C" 
			},
			{
				"x": 0.5536852476,
				"y": 1.7569274257,
				"z": 0.4316661577,
				"element": "C" 
			},
			{
				"x": 1.7207849608,
				"y": 1.2569586474,
				"z": -0.9793037703,
				"element": "Br" 
			},
			{
				"x": 0.7618752575,
				"y": 2.9657710414,
				"z": 1.0935594965,
				"element": "C" 
			},
			{
				"x": -0.1086446042,
				"y": 3.3252195333,
				"z": 2.115854878,
				"element": "C" 
			},
			{
				"x": 0.093594289,
				"y": 4.49497755,
				"z": 2.7527988473,
				"element": "F" 
			},
			{
				"x": -1.1782915133,
				"y": 2.5225159761,
				"z": 2.4943391902,
				"element": "C" 
			},
			{
				"x": -1.3709817945,
				"y": 1.3165287383,
				"z": 1.8241557493,
				"element": "C" 
			},
			{
				"x": 0.6712120658,
				"y": -1.3899639859,
				"z": 1.444237386,
				"element": "N" 
			},
			{
				"x": 1.2788325907,
				"y": -2.5405210052,
				"z": 1.7630570824,
				"element": "C" 
			},
			{
				"x": 1.0724426222,
				"y": -3.7323890258,
				"z": 1.0762458407,
				"element": "C" 
			},
			{
				"x": 0.1850448989,
				"y": -3.7136052462,
				"z": -0.0005867,
				"element": "C" 
			},
			{
				"x": -2.1378356603,
				"y": -4.1119428945,
				"z": -0.9476313388,
				"element": "H" 
			},
			{
				"x": 1.5802647853,
				"y": 3.6202834173,
				"z": 0.8209695496,
				"element": "H" 
			},
			{
				"x": -1.8382530665,
				"y": 2.8418133697,
				"z": 3.2926368924,
				"element": "H" 
			},
			{
				"x": -2.1967486721,
				"y": 0.662958973,
				"z": 2.0834913872,
				"element": "H" 
			},
			{
				"x": 1.961319505,
				"y": -2.4964457956,
				"z": 2.609204159,
				"element": "H" 
			},
			{
				"x": 1.5904469297,
				"y": -4.6395073042,
				"z": 1.3662587233,
				"element": "H" 
			},
			{
				"x": 0.0134240683,
				"y": -4.6161748269,
				"z": -0.5814325021,
				"element": "H" 
			}
		],
		 "valence_orbital": [ 
			{
				"type": "occ",
				"energy": -0.29018,
				"method": "rhf"
			},
			{
				"type": "occ",
				"energy": -0.27516,
				"method": "rhf"
			},
			{
				"type": "occ",
				"energy": -0.26052,
				"method": "rhf"
			},
			{
				"type": "occ",
				"energy": -0.25806,
				"method": "rhf"
			},
			{
				"type": "occ",
				"energy": -0.24371,
				"method": "rhf"
			},
			{
				"type": "unocc",
				"energy": -0.06116,
				"method": "rhf"
			},
			{
				"type": "unocc",
				"energy": -0.03114,
				"method": "rhf"
			},
			{
				"type": "unocc",
				"energy": -0.0258,
				"method": "rhf"
			},
			{
				"type": "unocc",
				"energy": -0.01021,
				"method": "rhf"
			},
			{
				"type": "unocc",
				"energy": 0.00033,
				"method": "rhf"
			}
		],
		"cosmo_sigma_profile": { 
			"-0.025": 0.0,
			"-0.024": 0.0,
			"-0.023": 0.0,
			"-0.022": 0.0,
			"-0.021": 0.0,
			"-0.02": 0.0,
			"-0.019": 0.250223007615,
			"-0.018": 1.0906394836,
			"-0.017": 1.08215077609,
			"-0.016": 1.15498286253,
			"-0.015": 0.506965180211,
			"-0.014": 1.20103253186,
			"-0.013": 1.06444970079,
			"-0.012": 1.18920785987,
			"-0.011": 1.33196483741,
			"-0.01": 1.58011714149,
			"-0.009": 2.98193721357,
			"-0.008": 9.37812504389,
			"-0.007": 13.6945385917,
			"-0.006": 13.6155482659,
			"-0.005": 12.1927713254,
			"-0.004": 10.9963002826,
			"-0.003": 12.542979059,
			"-0.002": 13.7113995806,
			"-0.001": 17.6784785659,
			"0.0": 28.3017316995,
			"0.001": 27.39361084,
			"0.002": 20.2264773528,
			"0.003": 18.149781529,
			"0.004": 19.5775883927,
			"0.005": 6.03132619618,
			"0.006": 5.07957279858,
			"0.007": 5.60489357086,
			"0.008": 4.86552238023,
			"0.009": 5.49269036846,
			"0.01": 6.81877908808,
			"0.011": 7.51969430783,
			"0.012": 5.56026888125,
			"0.013": 0.51777462839,
			"0.014": 0.0,
			"0.015": 0.0,
			"0.016": 0.0,
			"0.017": 0.0,
			"0.018": 0.0,
			"0.019": 0.0,
			"0.02": 0.0,
			"0.021": 0.0,
			"0.022": 0.0,
			"0.023": 0.0,
			"0.024": 0.0,
			"0.025": 0.0
		}
	}
}
