{
	 "smiles": "CC1=C(C(C)=NN1)[N+]([O-])=O", 
	 "Tm": 395.15, 
	 "num_atms": 17, 
	 "gaussian": { 
		 "optdone": 1, 
		 "sigma_profile": "yes", 
		 "theory": "DFT", 
		 "functional": "B3LYP", 
		 "basiset": "6-31G**", 
		 "properties": { 
			 "R2extent": 2219.7763, 
			 "electric_dipole_moment_norm": 4.56788358105, 
			 "electric_quadrupole_moment_norm": 12.2714386223, 
			 "total_energy": -509.346030008, 
			 "HOMO_LUMO_gap": 0.19585, 
			 "cosmo_polarized_energy": -13.91, 
			 "cosmo_cavitation_energy": 21.54, 
			 "cosmo_dispersion_energy": -15.94, 
			 "cosmo_repulsion_energy": 1.3, 
			 "cosmo_total_nonelectrostatic_energy": 6.9, 
			 "SMD_solvation_energy": 5.0 
		},
		"coords": [
			{
				"x": 0.1744233412,
				"y": -0.776353601,
				"z": 1.9310371737,
				"element": "C" 
			},
			{
				"x": 0.4170685544,
				"y": 0.2990244116,
				"z": 0.9267853813,
				"element": "C" 
			},
			{
				"x": 0.1309742905,
				"y": 1.6653094471,
				"z": 0.9096382953,
				"element": "C" 
			},
			{
				"x": 0.6070335449,
				"y": 2.179892933,
				"z": -0.3329764698,
				"element": "C" 
			},
			{
				"x": 0.5599039584,
				"y": 3.5737632742,
				"z": -0.8684956552,
				"element": "C" 
			},
			{
				"x": 1.1518599752,
				"y": 1.1964661396,
				"z": -1.0382473838,
				"element": "N" 
			},
			{
				"x": 1.0223040252,
				"y": 0.086634387,
				"z": -0.2579315994,
				"element": "N" 
			},
			{
				"x": -0.5172389761,
				"y": 2.3809220007,
				"z": 1.9560415821,
				"element": "N" 
			},
			{
				"x": -0.8565392095,
				"y": 1.7465885738,
				"z": 2.9643587733,
				"element": "O" 
			},
			{
				"x": -0.7036064748,
				"y": 3.5916690373,
				"z": 1.7981835404,
				"element": "O" 
			},
			{
				"x": 0.5520562427,
				"y": -1.7374929888,
				"z": 1.5700779186,
				"element": "H" 
			},
			{
				"x": 0.66150429,
				"y": -0.5342768278,
				"z": 2.8790913108,
				"element": "H" 
			},
			{
				"x": -0.893466533,
				"y": -0.8694099052,
				"z": 2.1446124986,
				"element": "H" 
			},
			{
				"x": 1.0848447266,
				"y": 4.2662176405,
				"z": -0.2045495364,
				"element": "H" 
			},
			{
				"x": 1.0222826436,
				"y": 3.5946640719,
				"z": -1.8572260498,
				"element": "H" 
			},
			{
				"x": -0.4711098818,
				"y": 3.9313542184,
				"z": -0.9392394962,
				"element": "H" 
			},
			{
				"x": 1.3753054823,
				"y": -0.7932728122,
				"z": -0.6042602835,
				"element": "H" 
			}
		],
		 "valence_orbital": [ 
			{
				"type": "occ",
				"energy": -0.29917,
				"method": "rhf"
			},
			{
				"type": "occ",
				"energy": -0.29514,
				"method": "rhf"
			},
			{
				"type": "occ",
				"energy": -0.27964,
				"method": "rhf"
			},
			{
				"type": "occ",
				"energy": -0.27686,
				"method": "rhf"
			},
			{
				"type": "occ",
				"energy": -0.26669,
				"method": "rhf"
			},
			{
				"type": "unocc",
				"energy": -0.07084,
				"method": "rhf"
			},
			{
				"type": "unocc",
				"energy": 0.00347,
				"method": "rhf"
			},
			{
				"type": "unocc",
				"energy": 0.05933,
				"method": "rhf"
			},
			{
				"type": "unocc",
				"energy": 0.0627,
				"method": "rhf"
			},
			{
				"type": "unocc",
				"energy": 0.10382,
				"method": "rhf"
			}
		],
		"cosmo_sigma_profile": { 
			"-0.025": 0.0,
			"-0.024": 0.0,
			"-0.023": 0.0,
			"-0.022": 0.0,
			"-0.021": 0.0,
			"-0.02": 0.0,
			"-0.019": 0.0,
			"-0.018": 0.187786374706,
			"-0.017": 1.5959028292,
			"-0.016": 1.25335934381,
			"-0.015": 1.6104409405,
			"-0.014": 1.22503190036,
			"-0.013": 1.6390866406,
			"-0.012": 0.812424616161,
			"-0.011": 0.923802479986,
			"-0.01": 1.16629117839,
			"-0.009": 1.48226307935,
			"-0.008": 1.09279059338,
			"-0.007": 1.92562075808,
			"-0.006": 4.49654101142,
			"-0.005": 8.91091547871,
			"-0.004": 13.7406766629,
			"-0.003": 17.7208651761,
			"-0.002": 18.2394570923,
			"-0.001": 16.1204151195,
			"0.0": 12.6012645134,
			"0.001": 6.87272230898,
			"0.002": 5.39260499294,
			"0.003": 4.62210319937,
			"0.004": 5.08252121087,
			"0.005": 4.08074762532,
			"0.006": 3.90920774458,
			"0.007": 5.44899472782,
			"0.008": 8.08518425698,
			"0.009": 7.29718648399,
			"0.01": 5.79363394965,
			"0.011": 3.85244023208,
			"0.012": 0.92891004687,
			"0.013": 1.06225674502,
			"0.014": 1.22777305479,
			"0.015": 0.330788143826,
			"0.016": 0.0,
			"0.017": 0.0,
			"0.018": 0.0,
			"0.019": 0.0,
			"0.02": 0.0,
			"0.021": 0.0,
			"0.022": 0.0,
			"0.023": 0.0,
			"0.024": 0.0,
			"0.025": 0.0
		}
	}
}
