{
	 "smiles": "FC(F)(F)C1=CN2C(S)=NN=C2C=C1", 
	 "Tm": 394.15, 
	 "num_atms": 18, 
	 "gaussian": { 
		 "optdone": 1, 
		 "sigma_profile": "yes", 
		 "theory": "DFT", 
		 "functional": "B3LYP", 
		 "basiset": "6-31G**", 
		 "properties": { 
			 "R2extent": 3562.2875, 
			 "electric_dipole_moment_norm": 3.06686117716, 
			 "electric_quadrupole_moment_norm": 21.6744352482, 
			 "total_energy": -1131.08151213, 
			 "HOMO_LUMO_gap": 0.1765, 
			 "cosmo_polarized_energy": -14.72, 
			 "cosmo_cavitation_energy": 26.3, 
			 "cosmo_dispersion_energy": -19.4, 
			 "cosmo_repulsion_energy": 1.41, 
			 "cosmo_total_nonelectrostatic_energy": 8.31, 
			 "SMD_solvation_energy": 3.45 
		},
		"coords": [
			{
				"x": 3.2835558433,
				"y": -0.0907393139,
				"z": 0.6932996596,
				"element": "F" 
			},
			{
				"x": 2.3155917361,
				"y": 0.760731282,
				"z": 1.0900271752,
				"element": "C" 
			},
			{
				"x": 2.0946731692,
				"y": 0.5474268675,
				"z": 2.4054631753,
				"element": "F" 
			},
			{
				"x": 2.7993422287,
				"y": 2.0161702344,
				"z": 0.9737481146,
				"element": "F" 
			},
			{
				"x": 1.052081747,
				"y": 0.5908643972,
				"z": 0.2948890018,
				"element": "C" 
			},
			{
				"x": 0.9891616694,
				"y": -0.3408531798,
				"z": -0.6993260387,
				"element": "C" 
			},
			{
				"x": -0.1826531629,
				"y": -0.463477957,
				"z": -1.4017128817,
				"element": "N" 
			},
			{
				"x": -0.5762300693,
				"y": -1.2886265113,
				"z": -2.4440905763,
				"element": "C" 
			},
			{
				"x": 0.4892276444,
				"y": -2.4558463497,
				"z": -3.2230002218,
				"element": "S" 
			},
			{
				"x": -1.8232271418,
				"y": -1.0071278029,
				"z": -2.776406414,
				"element": "N" 
			},
			{
				"x": -2.2925021015,
				"y": -0.015403115,
				"z": -1.9718281218,
				"element": "N" 
			},
			{
				"x": -1.3091329953,
				"y": 0.3202987887,
				"z": -1.1431874592,
				"element": "C" 
			},
			{
				"x": -1.2400546137,
				"y": 1.2892955453,
				"z": -0.1084914555,
				"element": "C" 
			},
			{
				"x": -0.0770582856,
				"y": 1.4205137605,
				"z": 0.598266357,
				"element": "C" 
			},
			{
				"x": 1.8021736893,
				"y": -0.995852491,
				"z": -0.9823927408,
				"element": "H" 
			},
			{
				"x": 0.1000980649,
				"y": -3.5393412161,
				"z": -2.5148127399,
				"element": "H" 
			},
			{
				"x": -2.115600567,
				"y": 1.8959235452,
				"z": 0.0889791052,
				"element": "H" 
			},
			{
				"x": 0.0067531446,
				"y": 2.1514435158,
				"z": 1.3947760612,
				"element": "H" 
			}
		],
		 "valence_orbital": [ 
			{
				"type": "occ",
				"energy": -0.33308,
				"method": "rhf"
			},
			{
				"type": "occ",
				"energy": -0.29639,
				"method": "rhf"
			},
			{
				"type": "occ",
				"energy": -0.2854,
				"method": "rhf"
			},
			{
				"type": "occ",
				"energy": -0.26737,
				"method": "rhf"
			},
			{
				"type": "occ",
				"energy": -0.24709,
				"method": "rhf"
			},
			{
				"type": "unocc",
				"energy": -0.07059,
				"method": "rhf"
			},
			{
				"type": "unocc",
				"energy": -0.04331,
				"method": "rhf"
			},
			{
				"type": "unocc",
				"energy": -0.00213,
				"method": "rhf"
			},
			{
				"type": "unocc",
				"energy": 0.03147,
				"method": "rhf"
			},
			{
				"type": "unocc",
				"energy": 0.05623,
				"method": "rhf"
			}
		],
		"cosmo_sigma_profile": { 
			"-0.025": 0.0,
			"-0.024": 0.0,
			"-0.023": 0.0,
			"-0.022": 0.0,
			"-0.021": 0.0,
			"-0.02": 0.0,
			"-0.019": 0.0,
			"-0.018": 0.0,
			"-0.017": 0.0,
			"-0.016": 0.0,
			"-0.015": 0.0,
			"-0.014": 0.0,
			"-0.013": 0.0,
			"-0.012": 1.4983932583,
			"-0.011": 2.61305654609,
			"-0.01": 1.48525770213,
			"-0.009": 5.39144341328,
			"-0.008": 7.1569384995,
			"-0.007": 8.49746349636,
			"-0.006": 8.97343723724,
			"-0.005": 13.8698145637,
			"-0.004": 12.2594380083,
			"-0.003": 11.4583491531,
			"-0.002": 12.3035102568,
			"-0.001": 15.3463536728,
			"0.0": 14.6460306732,
			"0.001": 16.0613596499,
			"0.002": 30.0679470155,
			"0.003": 16.9599301764,
			"0.004": 4.34811367266,
			"0.005": 3.16181146367,
			"0.006": 3.28392382545,
			"0.007": 2.96986886855,
			"0.008": 2.87927056188,
			"0.009": 2.42371939634,
			"0.01": 2.54702300916,
			"0.011": 2.42814006119,
			"0.012": 3.31718880285,
			"0.013": 3.61191646248,
			"0.014": 2.22475273946,
			"0.015": 2.39390651931,
			"0.016": 1.10122418899,
			"0.017": 0.0281647774724,
			"0.018": 0.0,
			"0.019": 0.0,
			"0.02": 0.0,
			"0.021": 0.0,
			"0.022": 0.0,
			"0.023": 0.0,
			"0.024": 0.0,
			"0.025": 0.0
		}
	}
}
