{
	 "smiles": "CC(C)(C)OC(=O)N1CCN2C(CNC2=O)C1", 
	 "Tm": 492.15, 
	 "num_atms": 36, 
	 "gaussian": { 
		 "optdone": 1, 
		 "sigma_profile": "yes", 
		 "theory": "DFT", 
		 "functional": "B3LYP", 
		 "basiset": "6-31G**", 
		 "properties": { 
			 "R2extent": 5992.5138, 
			 "electric_dipole_moment_norm": 4.82255121383, 
			 "electric_quadrupole_moment_norm": 22.5268713025, 
			 "total_energy": -820.600888119, 
			 "HOMO_LUMO_gap": 0.27965, 
			 "cosmo_polarized_energy": -17.6, 
			 "cosmo_cavitation_energy": 36.63, 
			 "cosmo_dispersion_energy": -26.0, 
			 "cosmo_repulsion_energy": 2.03, 
			 "cosmo_total_nonelectrostatic_energy": 12.66, 
			 "SMD_solvation_energy": 5.3 
		},
		"coords": [
			{
				"x": 2.4738775998,
				"y": 0.4929352528,
				"z": -3.3716338404,
				"element": "C" 
			},
			{
				"x": 1.8599126424,
				"y": 1.4257432838,
				"z": -2.3224291524,
				"element": "C" 
			},
			{
				"x": 0.7560259307,
				"y": 2.3130135988,
				"z": -2.9073321758,
				"element": "C" 
			},
			{
				"x": 2.9422761762,
				"y": 2.2762288461,
				"z": -1.6522291008,
				"element": "C" 
			},
			{
				"x": 1.3307548746,
				"y": 0.6385207223,
				"z": -1.196187018,
				"element": "O" 
			},
			{
				"x": 0.3295198566,
				"y": -0.2559983329,
				"z": -1.3826107358,
				"element": "C" 
			},
			{
				"x": -0.2203645827,
				"y": -0.5042042897,
				"z": -2.4467464831,
				"element": "O" 
			},
			{
				"x": 0.0084832387,
				"y": -0.8567228091,
				"z": -0.19093035,
				"element": "N" 
			},
			{
				"x": -1.0360720666,
				"y": -1.8838254511,
				"z": -0.1799869759,
				"element": "C" 
			},
			{
				"x": -0.5691442289,
				"y": -3.1424313822,
				"z": 0.5582308954,
				"element": "C" 
			},
			{
				"x": 0.0035482582,
				"y": -2.7382352773,
				"z": 1.8325598885,
				"element": "N" 
			},
			{
				"x": 0.1081475094,
				"y": -1.3345725404,
				"z": 2.2012148872,
				"element": "C" 
			},
			{
				"x": 0.9487758515,
				"y": -1.4297636243,
				"z": 3.4919302135,
				"element": "C" 
			},
			{
				"x": 0.5545283705,
				"y": -2.7475613618,
				"z": 3.9867979434,
				"element": "N" 
			},
			{
				"x": 0.1893433423,
				"y": -3.5719337471,
				"z": 2.9142117593,
				"element": "C" 
			},
			{
				"x": 0.048635891,
				"y": -4.7829333416,
				"z": 2.9352340407,
				"element": "O" 
			},
			{
				"x": 0.7211158619,
				"y": -0.5329957124,
				"z": 1.0553311148,
				"element": "C" 
			},
			{
				"x": 2.9652068413,
				"y": 1.0875912598,
				"z": -4.1486200264,
				"element": "H" 
			},
			{
				"x": 3.228453326,
				"y": -0.1525620465,
				"z": -2.9108099583,
				"element": "H" 
			},
			{
				"x": 1.7088516669,
				"y": -0.1305998912,
				"z": -3.8343643616,
				"element": "H" 
			},
			{
				"x": 1.182650595,
				"y": 2.9768866659,
				"z": -3.666269566,
				"element": "H" 
			},
			{
				"x": -0.0276522036,
				"y": 1.709757456,
				"z": -3.3657152857,
				"element": "H" 
			},
			{
				"x": 0.3133386691,
				"y": 2.9353677356,
				"z": -2.1229666213,
				"element": "H" 
			},
			{
				"x": 3.7063134105,
				"y": 1.6402721724,
				"z": -1.1955271302,
				"element": "H" 
			},
			{
				"x": 3.4256754735,
				"y": 2.9202460464,
				"z": -2.3927331292,
				"element": "H" 
			},
			{
				"x": 2.5090831626,
				"y": 2.9101257588,
				"z": -0.872862738,
				"element": "H" 
			},
			{
				"x": -1.2739547869,
				"y": -2.1110865283,
				"z": -1.218636745,
				"element": "H" 
			},
			{
				"x": -1.9481367211,
				"y": -1.4921741628,
				"z": 0.2909477274,
				"element": "H" 
			},
			{
				"x": -1.4114002458,
				"y": -3.8267232409,
				"z": 0.7159955253,
				"element": "H" 
			},
			{
				"x": 0.1808995443,
				"y": -3.6746124661,
				"z": -0.0399605152,
				"element": "H" 
			},
			{
				"x": -0.8831375764,
				"y": -0.9194021259,
				"z": 2.4487790753,
				"element": "H" 
			},
			{
				"x": 0.7057968494,
				"y": -0.6358111826,
				"z": 4.2033148569,
				"element": "H" 
			},
			{
				"x": 2.0231517098,
				"y": -1.3737528334,
				"z": 3.2552274861,
				"element": "H" 
			},
			{
				"x": 1.0966292217,
				"y": -3.1966864735,
				"z": 4.7115963564,
				"element": "H" 
			},
			{
				"x": 1.782957802,
				"y": -0.7889669546,
				"z": 0.9552360431,
				"element": "H" 
			},
			{
				"x": 0.6588087359,
				"y": 0.5413669772,
				"z": 1.2623440958,
				"element": "H" 
			}
		],
		 "valence_orbital": [ 
			{
				"type": "occ",
				"energy": -0.26494,
				"method": "rhf"
			},
			{
				"type": "occ",
				"energy": -0.26142,
				"method": "rhf"
			},
			{
				"type": "occ",
				"energy": -0.24923,
				"method": "rhf"
			},
			{
				"type": "occ",
				"energy": -0.24309,
				"method": "rhf"
			},
			{
				"type": "occ",
				"energy": -0.23382,
				"method": "rhf"
			},
			{
				"type": "unocc",
				"energy": 0.04583,
				"method": "rhf"
			},
			{
				"type": "unocc",
				"energy": 0.05818,
				"method": "rhf"
			},
			{
				"type": "unocc",
				"energy": 0.07337,
				"method": "rhf"
			},
			{
				"type": "unocc",
				"energy": 0.08491,
				"method": "rhf"
			},
			{
				"type": "unocc",
				"energy": 0.08771,
				"method": "rhf"
			}
		],
		"cosmo_sigma_profile": { 
			"-0.025": 0.0,
			"-0.024": 0.0,
			"-0.023": 0.0,
			"-0.022": 0.0,
			"-0.021": 0.0,
			"-0.02": 0.0,
			"-0.019": 0.0,
			"-0.018": 0.0,
			"-0.017": 0.0,
			"-0.016": 0.0,
			"-0.015": 0.0,
			"-0.014": 0.219456960871,
			"-0.013": 1.44658721343,
			"-0.012": 1.04987496806,
			"-0.011": 0.80772311279,
			"-0.01": 1.34359362499,
			"-0.009": 0.920631561294,
			"-0.008": 0.773830609252,
			"-0.007": 1.36989428759,
			"-0.006": 7.19627731223,
			"-0.005": 28.7981514827,
			"-0.004": 33.9698834942,
			"-0.003": 31.7523364248,
			"-0.002": 24.1898133606,
			"-0.001": 22.9233413721,
			"0.0": 31.2300351218,
			"0.001": 24.4240321074,
			"0.002": 9.76178432247,
			"0.003": 7.79186032498,
			"0.004": 5.69482041021,
			"0.005": 6.53589865543,
			"0.006": 5.85544863597,
			"0.007": 4.79747178684,
			"0.008": 2.97204730187,
			"0.009": 2.89333243401,
			"0.01": 3.23817119227,
			"0.011": 3.74605030219,
			"0.012": 3.41601102866,
			"0.013": 4.94618682939,
			"0.014": 7.62198427473,
			"0.015": 3.04583253427,
			"0.016": 0.0474374935559,
			"0.017": 0.0,
			"0.018": 0.0,
			"0.019": 0.0,
			"0.02": 0.0,
			"0.021": 0.0,
			"0.022": 0.0,
			"0.023": 0.0,
			"0.024": 0.0,
			"0.025": 0.0
		}
	}
}
