{
	 "smiles": "CC(=O)OC1=CC(=CC=C1)C(O)=O", 
	 "Tm": 405.15, 
	 "num_atms": 21, 
	 "gaussian": { 
		 "optdone": 1, 
		 "sigma_profile": "yes", 
		 "theory": "DFT", 
		 "functional": "B3LYP", 
		 "basiset": "6-31G**", 
		 "properties": { 
			 "R2extent": 3512.6929, 
			 "electric_dipole_moment_norm": 5.38634434566, 
			 "electric_quadrupole_moment_norm": 23.8617638206, 
			 "total_energy": -648.690436655, 
			 "HOMO_LUMO_gap": 0.20879, 
			 "cosmo_polarized_energy": -17.73, 
			 "cosmo_cavitation_energy": 26.62, 
			 "cosmo_dispersion_energy": -19.23, 
			 "cosmo_repulsion_energy": 1.55, 
			 "cosmo_total_nonelectrostatic_energy": 8.94, 
			 "SMD_solvation_energy": 7.1 
		},
		"coords": [
			{
				"x": 2.616176128,
				"y": 0.5209750766,
				"z": 1.8251207707,
				"element": "C" 
			},
			{
				"x": 1.6561620835,
				"y": -0.455993983,
				"z": 1.1968169579,
				"element": "C" 
			},
			{
				"x": 1.8914169104,
				"y": -1.596814909,
				"z": 0.892130073,
				"element": "O" 
			},
			{
				"x": 0.4324198635,
				"y": 0.1522222765,
				"z": 1.0171440758,
				"element": "O" 
			},
			{
				"x": -0.6145348709,
				"y": -0.5475829253,
				"z": 0.4252004466,
				"element": "C" 
			},
			{
				"x": -0.4775267333,
				"y": -1.1964560692,
				"z": -0.7978119489,
				"element": "C" 
			},
			{
				"x": -1.5908506448,
				"y": -1.8301356834,
				"z": -1.3620186815,
				"element": "C" 
			},
			{
				"x": -2.8334743903,
				"y": -1.7773893028,
				"z": -0.7143166847,
				"element": "C" 
			},
			{
				"x": -2.9569720121,
				"y": -1.1061025668,
				"z": 0.5018117505,
				"element": "C" 
			},
			{
				"x": -1.8450814089,
				"y": -0.4969747206,
				"z": 1.081349143,
				"element": "C" 
			},
			{
				"x": -1.3947030672,
				"y": -2.5073521607,
				"z": -2.6876054583,
				"element": "C" 
			},
			{
				"x": -2.2898709349,
				"y": -3.4787582126,
				"z": -3.0115694243,
				"element": "O" 
			},
			{
				"x": -0.5027553564,
				"y": -2.2254941339,
				"z": -3.4515405073,
				"element": "O" 
			},
			{
				"x": 2.2119211553,
				"y": 0.8915309366,
				"z": 2.771433153,
				"element": "H" 
			},
			{
				"x": 2.7502885023,
				"y": 1.3848613207,
				"z": 1.1672179871,
				"element": "H" 
			},
			{
				"x": 3.5731984758,
				"y": 0.0285662985,
				"z": 1.9927347674,
				"element": "H" 
			},
			{
				"x": 0.4692076867,
				"y": -1.2277672068,
				"z": -1.3208210311,
				"element": "H" 
			},
			{
				"x": -3.7173896542,
				"y": -2.2150180785,
				"z": -1.1706866173,
				"element": "H" 
			},
			{
				"x": -3.9210067297,
				"y": -1.0516099959,
				"z": 0.9976720315,
				"element": "H" 
			},
			{
				"x": -1.9171650958,
				"y": 0.0270937371,
				"z": 2.0284747243,
				"element": "H" 
			},
			{
				"x": -2.825859907,
				"y": -3.7073996976,
				"z": -2.2395355274,
				"element": "H" 
			}
		],
		 "valence_orbital": [ 
			{
				"type": "occ",
				"energy": -0.31742,
				"method": "rhf"
			},
			{
				"type": "occ",
				"energy": -0.29008,
				"method": "rhf"
			},
			{
				"type": "occ",
				"energy": -0.2789,
				"method": "rhf"
			},
			{
				"type": "occ",
				"energy": -0.26722,
				"method": "rhf"
			},
			{
				"type": "occ",
				"energy": -0.26211,
				"method": "rhf"
			},
			{
				"type": "unocc",
				"energy": -0.05332,
				"method": "rhf"
			},
			{
				"type": "unocc",
				"energy": -0.02812,
				"method": "rhf"
			},
			{
				"type": "unocc",
				"energy": 0.00055,
				"method": "rhf"
			},
			{
				"type": "unocc",
				"energy": 0.04614,
				"method": "rhf"
			},
			{
				"type": "unocc",
				"energy": 0.06106,
				"method": "rhf"
			}
		],
		"cosmo_sigma_profile": { 
			"-0.025": 0.0,
			"-0.024": 0.0,
			"-0.023": 0.0,
			"-0.022": 0.0,
			"-0.021": 0.0,
			"-0.02": 0.0,
			"-0.019": 0.200558342272,
			"-0.018": 0.939938721657,
			"-0.017": 0.94673846814,
			"-0.016": 0.989288014096,
			"-0.015": 0.776304406982,
			"-0.014": 0.918553720696,
			"-0.013": 1.3227838933,
			"-0.012": 1.438860399,
			"-0.011": 0.936982902232,
			"-0.01": 1.11368470215,
			"-0.009": 1.26865174581,
			"-0.008": 2.90532263273,
			"-0.007": 10.3452804617,
			"-0.006": 15.2003861449,
			"-0.005": 13.3999367239,
			"-0.004": 13.706943888,
			"-0.003": 15.070153656,
			"-0.002": 16.3672235768,
			"-0.001": 10.2739075141,
			"0.0": 11.184830939,
			"0.001": 13.3206385468,
			"0.002": 16.3146919963,
			"0.003": 10.0173098534,
			"0.004": 5.20658256861,
			"0.005": 4.23770811639,
			"0.006": 5.03538630537,
			"0.007": 4.87873888048,
			"0.008": 5.4782080694,
			"0.009": 4.66548797226,
			"0.01": 8.20290273002,
			"0.011": 9.83825208527,
			"0.012": 5.36920229651,
			"0.013": 1.13966803456,
			"0.014": 0.0137292210716,
			"0.015": 0.0,
			"0.016": 0.0,
			"0.017": 0.0,
			"0.018": 0.0,
			"0.019": 0.0,
			"0.02": 0.0,
			"0.021": 0.0,
			"0.022": 0.0,
			"0.023": 0.0,
			"0.024": 0.0,
			"0.025": 0.0
		}
	}
}
