{
	 "smiles": "O1C2=CC=CC=C2N=C1C1=CC=CC=C1", 
	 "Tm": 376.15, 
	 "num_atms": 24, 
	 "gaussian": { 
		 "optdone": 1, 
		 "sigma_profile": "yes", 
		 "theory": "DFT", 
		 "functional": "B3LYP", 
		 "basiset": "6-31G**", 
		 "properties": { 
			 "R2extent": 3946.2815, 
			 "electric_dipole_moment_norm": 1.13893500254, 
			 "electric_quadrupole_moment_norm": 12.3716343726, 
			 "total_energy": -630.792221927, 
			 "HOMO_LUMO_gap": 0.16786, 
			 "cosmo_polarized_energy": -6.9, 
			 "cosmo_cavitation_energy": 28.6, 
			 "cosmo_dispersion_energy": -21.55, 
			 "cosmo_repulsion_energy": 1.65, 
			 "cosmo_total_nonelectrostatic_energy": 8.7, 
			 "SMD_solvation_energy": 3.3 
		},
		"coords": [
			{
				"x": 1.1243346018,
				"y": -0.6433761802,
				"z": 0.0879563285,
				"element": "O" 
			},
			{
				"x": 0.6677457097,
				"y": -1.5300968618,
				"z": 1.0302125939,
				"element": "C" 
			},
			{
				"x": 1.0300317705,
				"y": -2.8548655336,
				"z": 1.2194636082,
				"element": "C" 
			},
			{
				"x": 0.3879675067,
				"y": -3.5126402099,
				"z": 2.2723285571,
				"element": "C" 
			},
			{
				"x": -0.5625753974,
				"y": -2.8601787262,
				"z": 3.0798755795,
				"element": "C" 
			},
			{
				"x": -0.9102359171,
				"y": -1.5263013366,
				"z": 2.8693465035,
				"element": "C" 
			},
			{
				"x": -0.2759192733,
				"y": -0.855229907,
				"z": 1.8193908486,
				"element": "C" 
			},
			{
				"x": -0.3952632183,
				"y": 0.451170134,
				"z": 1.3551872857,
				"element": "N" 
			},
			{
				"x": 0.4336680368,
				"y": 0.5221403401,
				"z": 0.3553893614,
				"element": "C" 
			},
			{
				"x": 0.7071276907,
				"y": 1.6756488895,
				"z": -0.496356675,
				"element": "C" 
			},
			{
				"x": 1.6362570747,
				"y": 1.601200591,
				"z": -1.5462862561,
				"element": "C" 
			},
			{
				"x": 1.876759989,
				"y": 2.7187630006,
				"z": -2.342900058,
				"element": "C" 
			},
			{
				"x": 1.1966688768,
				"y": 3.9144013569,
				"z": -2.1012185124,
				"element": "C" 
			},
			{
				"x": 0.2708601812,
				"y": 3.9909119009,
				"z": -1.0561196702,
				"element": "C" 
			},
			{
				"x": 0.0243980874,
				"y": 2.8799971007,
				"z": -0.2556508714,
				"element": "C" 
			},
			{
				"x": 1.7637623841,
				"y": -3.3469105297,
				"z": 0.5907547605,
				"element": "H" 
			},
			{
				"x": 0.6289684492,
				"y": -4.5523656505,
				"z": 2.4714162297,
				"element": "H" 
			},
			{
				"x": -1.034942309,
				"y": -3.4130174838,
				"z": 3.886311935,
				"element": "H" 
			},
			{
				"x": -1.6422999452,
				"y": -1.0203434541,
				"z": 3.4896700198,
				"element": "H" 
			},
			{
				"x": 2.1622195282,
				"y": 0.6709056293,
				"z": -1.7305699246,
				"element": "H" 
			},
			{
				"x": 2.5964334343,
				"y": 2.656028649,
				"z": -3.1538191268,
				"element": "H" 
			},
			{
				"x": 1.3867071225,
				"y": 4.7835433539,
				"z": -2.7242431346,
				"element": "H" 
			},
			{
				"x": -0.2593814868,
				"y": 4.9194572894,
				"z": -0.8659935456,
				"element": "H" 
			},
			{
				"x": -0.6902928965,
				"y": 2.9216576381,
				"z": 0.5591541634,
				"element": "H" 
			}
		],
		 "valence_orbital": [ 
			{
				"type": "occ",
				"energy": -0.28795,
				"method": "rhf"
			},
			{
				"type": "occ",
				"energy": -0.27431,
				"method": "rhf"
			},
			{
				"type": "occ",
				"energy": -0.25871,
				"method": "rhf"
			},
			{
				"type": "occ",
				"energy": -0.24449,
				"method": "rhf"
			},
			{
				"type": "occ",
				"energy": -0.22094,
				"method": "rhf"
			},
			{
				"type": "unocc",
				"energy": -0.05308,
				"method": "rhf"
			},
			{
				"type": "unocc",
				"energy": -0.00774,
				"method": "rhf"
			},
			{
				"type": "unocc",
				"energy": 0.0025,
				"method": "rhf"
			},
			{
				"type": "unocc",
				"energy": 0.01457,
				"method": "rhf"
			},
			{
				"type": "unocc",
				"energy": 0.06504,
				"method": "rhf"
			}
		],
		"cosmo_sigma_profile": { 
			"-0.025": 0.0,
			"-0.024": 0.0,
			"-0.023": 0.0,
			"-0.022": 0.0,
			"-0.021": 0.0,
			"-0.02": 0.0,
			"-0.019": 0.0,
			"-0.018": 0.0,
			"-0.017": 0.0,
			"-0.016": 0.0,
			"-0.015": 0.0,
			"-0.014": 0.0,
			"-0.013": 0.0,
			"-0.012": 0.0,
			"-0.011": 0.0,
			"-0.01": 0.0,
			"-0.009": 0.0,
			"-0.008": 0.278239930914,
			"-0.007": 4.1833012518,
			"-0.006": 15.8953172657,
			"-0.005": 17.9984026288,
			"-0.004": 18.8638221128,
			"-0.003": 14.7624413771,
			"-0.002": 14.8939734531,
			"-0.001": 14.8034781362,
			"0.0": 18.6020729212,
			"0.001": 20.4938323897,
			"0.002": 20.5753766547,
			"0.003": 23.7976945723,
			"0.004": 25.0223970885,
			"0.005": 10.9882930337,
			"0.006": 1.34729007405,
			"0.007": 1.81592319284,
			"0.008": 1.1806479211,
			"0.009": 1.1928094895,
			"0.01": 1.19038767307,
			"0.011": 0.985030018531,
			"0.012": 0.933977733639,
			"0.013": 0.938268562028,
			"0.014": 0.440790917894,
			"0.015": 0.0,
			"0.016": 0.0,
			"0.017": 0.0,
			"0.018": 0.0,
			"0.019": 0.0,
			"0.02": 0.0,
			"0.021": 0.0,
			"0.022": 0.0,
			"0.023": 0.0,
			"0.024": 0.0,
			"0.025": 0.0
		}
	}
}
