{
	 "smiles": "OC(=O)C1=CC2=C(C=C1)C(=O)N(C(=O)N2)C1=C(F)C=CC=C1", 
	 "Tm": 617.15, 
	 "num_atms": 31, 
	 "gaussian": { 
		 "optdone": 1, 
		 "sigma_profile": "yes", 
		 "theory": "DFT", 
		 "functional": "B3LYP", 
		 "basiset": "6-31G**", 
		 "properties": { 
			 "R2extent": 9329.2219, 
			 "electric_dipole_moment_norm": 3.14126434895, 
			 "electric_quadrupole_moment_norm": 18.9975294594, 
			 "total_energy": -1087.30578477, 
			 "HOMO_LUMO_gap": 0.16542, 
			 "cosmo_polarized_energy": -25.95, 
			 "cosmo_cavitation_energy": 37.54, 
			 "cosmo_dispersion_energy": -26.69, 
			 "cosmo_repulsion_energy": 1.97, 
			 "cosmo_total_nonelectrostatic_energy": 12.82, 
			 "SMD_solvation_energy": 9.25 
		},
		"coords": [
			{
				"x": 3.145064527,
				"y": 4.2391230829,
				"z": 3.1564718837,
				"element": "O" 
			},
			{
				"x": 2.0473452247,
				"y": 4.3253219249,
				"z": 2.3646655547,
				"element": "C" 
			},
			{
				"x": 1.3541512949,
				"y": 5.3142262677,
				"z": 2.3888177675,
				"element": "O" 
			},
			{
				"x": 1.7588306089,
				"y": 3.1455689783,
				"z": 1.4761803301,
				"element": "C" 
			},
			{
				"x": 0.9241489934,
				"y": 3.3731240339,
				"z": 0.3834905541,
				"element": "C" 
			},
			{
				"x": 0.6142650379,
				"y": 2.320587215,
				"z": -0.4854371067,
				"element": "C" 
			},
			{
				"x": 1.1336577842,
				"y": 1.0368439556,
				"z": -0.2467223011,
				"element": "C" 
			},
			{
				"x": 1.9516079369,
				"y": 0.8137928496,
				"z": 0.8659400816,
				"element": "C" 
			},
			{
				"x": 2.2675241184,
				"y": 1.856890115,
				"z": 1.7256166746,
				"element": "C" 
			},
			{
				"x": 0.8074686798,
				"y": -0.0824359802,
				"z": -1.155371603,
				"element": "C" 
			},
			{
				"x": 1.2205150314,
				"y": -1.2179771576,
				"z": -0.9982745936,
				"element": "O" 
			},
			{
				"x": -0.0275318734,
				"y": 0.2536007082,
				"z": -2.2453130547,
				"element": "N" 
			},
			{
				"x": -0.5644343119,
				"y": 1.5327123898,
				"z": -2.5002167084,
				"element": "C" 
			},
			{
				"x": -1.2838958361,
				"y": 1.7740826634,
				"z": -3.4484260903,
				"element": "O" 
			},
			{
				"x": -0.2000595556,
				"y": 2.5082377828,
				"z": -1.5879221728,
				"element": "N" 
			},
			{
				"x": -0.4260952184,
				"y": -0.797135906,
				"z": -3.1418443973,
				"element": "C" 
			},
			{
				"x": -1.7354356768,
				"y": -1.2756444575,
				"z": -3.0960008965,
				"element": "C" 
			},
			{
				"x": -2.5917344897,
				"y": -0.7354883774,
				"z": -2.2104646603,
				"element": "F" 
			},
			{
				"x": -2.1692317583,
				"y": -2.2890233461,
				"z": -3.9396756721,
				"element": "C" 
			},
			{
				"x": -1.2630945535,
				"y": -2.8454655051,
				"z": -4.8433730923,
				"element": "C" 
			},
			{
				"x": 0.054417952,
				"y": -2.3855811786,
				"z": -4.8972582566,
				"element": "C" 
			},
			{
				"x": 0.470133719,
				"y": -1.3600567688,
				"z": -4.0484526095,
				"element": "C" 
			},
			{
				"x": 3.6762651118,
				"y": 3.4668465912,
				"z": 2.917339201,
				"element": "H" 
			},
			{
				"x": 0.5250978666,
				"y": 4.370201969,
				"z": 0.2281976104,
				"element": "H" 
			},
			{
				"x": 2.317785425,
				"y": -0.1934541479,
				"z": 1.0319007935,
				"element": "H" 
			},
			{
				"x": 2.8685344161,
				"y": 1.6528428063,
				"z": 2.6071870696,
				"element": "H" 
			},
			{
				"x": -0.5955171114,
				"y": 3.4181610457,
				"z": -1.7814713433,
				"element": "H" 
			},
			{
				"x": -3.1981647175,
				"y": -2.6251297109,
				"z": -3.8752672167,
				"element": "H" 
			},
			{
				"x": -1.5902929212,
				"y": -3.6406933198,
				"z": -5.5060697463,
				"element": "H" 
			},
			{
				"x": 0.7570958956,
				"y": -2.8217108939,
				"z": -5.5996061906,
				"element": "H" 
			},
			{
				"x": 1.4897784,
				"y": -0.9912676294,
				"z": -4.0780398085,
				"element": "H" 
			}
		],
		 "valence_orbital": [ 
			{
				"type": "occ",
				"energy": -0.28341,
				"method": "rhf"
			},
			{
				"type": "occ",
				"energy": -0.27895,
				"method": "rhf"
			},
			{
				"type": "occ",
				"energy": -0.2633,
				"method": "rhf"
			},
			{
				"type": "occ",
				"energy": -0.25365,
				"method": "rhf"
			},
			{
				"type": "occ",
				"energy": -0.25153,
				"method": "rhf"
			},
			{
				"type": "unocc",
				"energy": -0.08611,
				"method": "rhf"
			},
			{
				"type": "unocc",
				"energy": -0.04061,
				"method": "rhf"
			},
			{
				"type": "unocc",
				"energy": -0.02138,
				"method": "rhf"
			},
			{
				"type": "unocc",
				"energy": -0.00736,
				"method": "rhf"
			},
			{
				"type": "unocc",
				"energy": -0.00221,
				"method": "rhf"
			}
		],
		"cosmo_sigma_profile": { 
			"-0.025": 0.0,
			"-0.024": 0.0,
			"-0.023": 0.0,
			"-0.022": 0.0,
			"-0.021": 0.0,
			"-0.02": 0.0,
			"-0.019": 0.621767933209,
			"-0.018": 0.879462143195,
			"-0.017": 1.9971422073,
			"-0.016": 2.30074336745,
			"-0.015": 2.41794843392,
			"-0.014": 2.27222279178,
			"-0.013": 2.03360660566,
			"-0.012": 2.10679176218,
			"-0.011": 2.94448409128,
			"-0.01": 2.48686893773,
			"-0.009": 2.60357627354,
			"-0.008": 5.74606529719,
			"-0.007": 12.6071271186,
			"-0.006": 16.0511369082,
			"-0.005": 17.7446690768,
			"-0.004": 15.8788700115,
			"-0.003": 15.4970007217,
			"-0.002": 17.6237752373,
			"-0.001": 19.5521146916,
			"0.0": 22.7859396754,
			"0.001": 19.3097334175,
			"0.002": 15.5202700083,
			"0.003": 19.7419806389,
			"0.004": 15.5333755094,
			"0.005": 6.79658757414,
			"0.006": 4.61137278566,
			"0.007": 6.89283095329,
			"0.008": 6.35740740123,
			"0.009": 7.83251575668,
			"0.01": 9.32145819124,
			"0.011": 12.275239451,
			"0.012": 11.3045037722,
			"0.013": 1.04234786871,
			"0.014": 0.0,
			"0.015": 0.0,
			"0.016": 0.0,
			"0.017": 0.0,
			"0.018": 0.0,
			"0.019": 0.0,
			"0.02": 0.0,
			"0.021": 0.0,
			"0.022": 0.0,
			"0.023": 0.0,
			"0.024": 0.0,
			"0.025": 0.0
		}
	}
}
