{
	 "smiles": "CC(C)CCC[C@@H](C)C1CCC2[C@@H]3CC=C4C[C@H](CC[C@]4(C)C3CC[C@]12C)OCOC1=CC=C(Cl)C=C1", 
	 "Tm": 417.15, 
	 "num_atms": 88, 
	 "gaussian": { 
		 "optdone": 1, 
		 "sigma_profile": "yes", 
		 "theory": "DFT", 
		 "functional": "B3LYP", 
		 "basiset": "6-31G**", 
		 "properties": { 
			 "R2extent": 43904.8541, 
			 "electric_dipole_moment_norm": 2.99171758527, 
			 "electric_quadrupole_moment_norm": 31.6443629076, 
			 "total_energy": -1937.01201298, 
			 "HOMO_LUMO_gap": 0.20737, 
			 "cosmo_polarized_energy": -9.64, 
			 "cosmo_cavitation_energy": 79.28, 
			 "cosmo_dispersion_energy": -53.48, 
			 "cosmo_repulsion_energy": 3.95, 
			 "cosmo_total_nonelectrostatic_energy": 29.74, 
			 "SMD_solvation_energy": 11.21 
		},
		"coords": [
			{
				"x": -2.9669742468,
				"y": 0.2783173051,
				"z": -6.7137712205,
				"element": "C" 
			},
			{
				"x": -1.7323040695,
				"y": 0.68560536,
				"z": -7.5356760088,
				"element": "C" 
			},
			{
				"x": -2.1701338506,
				"y": 1.5147333425,
				"z": -8.7542141205,
				"element": "C" 
			},
			{
				"x": -0.6792715523,
				"y": 1.4545360227,
				"z": -6.6953344958,
				"element": "C" 
			},
			{
				"x": 0.4402847084,
				"y": 0.607546681,
				"z": -6.0587148266,
				"element": "C" 
			},
			{
				"x": -0.0200043143,
				"y": -0.4043306365,
				"z": -4.9966081734,
				"element": "C" 
			},
			{
				"x": 1.0987492363,
				"y": -1.2144383727,
				"z": -4.2849420681,
				"element": "C" 
			},
			{
				"x": 1.7949418137,
				"y": -2.1176087658,
				"z": -5.3271983857,
				"element": "C" 
			},
			{
				"x": 2.1418307181,
				"y": -0.3713127924,
				"z": -3.4960049525,
				"element": "C" 
			},
			{
				"x": 3.3348423552,
				"y": -1.254050911,
				"z": -2.9822223772,
				"element": "C" 
			},
			{
				"x": 3.672120024,
				"y": -0.7919592604,
				"z": -1.5535462858,
				"element": "C" 
			},
			{
				"x": 2.2891624592,
				"y": -0.3865026107,
				"z": -1.0396787753,
				"element": "C" 
			},
			{
				"x": 2.147141745,
				"y": 0.2346063913,
				"z": 0.3562865545,
				"element": "C" 
			},
			{
				"x": 2.7474737735,
				"y": -0.6855579869,
				"z": 1.4315001725,
				"element": "C" 
			},
			{
				"x": 2.2890687436,
				"y": -0.3506993787,
				"z": 2.821526343,
				"element": "C" 
			},
			{
				"x": 1.2776876672,
				"y": 0.4728722758,
				"z": 3.1236556448,
				"element": "C" 
			},
			{
				"x": 0.9371530464,
				"y": 0.7629830772,
				"z": 4.5729255621,
				"element": "C" 
			},
			{
				"x": -0.5465788274,
				"y": 0.5483603027,
				"z": 4.8723001809,
				"element": "C" 
			},
			{
				"x": -1.4081278633,
				"y": 1.3575984011,
				"z": 3.9042188698,
				"element": "C" 
			},
			{
				"x": -1.0804943436,
				"y": 0.9894556028,
				"z": 2.4493267096,
				"element": "C" 
			},
			{
				"x": 0.4186251272,
				"y": 1.1646201928,
				"z": 2.0562203646,
				"element": "C" 
			},
			{
				"x": 0.7756610394,
				"y": 2.673793026,
				"z": 2.0306937969,
				"element": "C" 
			},
			{
				"x": 0.6482877322,
				"y": 0.4912728343,
				"z": 0.6582397415,
				"element": "C" 
			},
			{
				"x": -0.0537180808,
				"y": 1.2306237267,
				"z": -0.5030470791,
				"element": "C" 
			},
			{
				"x": 0.185796994,
				"y": 0.6128531626,
				"z": -1.8982459124,
				"element": "C" 
			},
			{
				"x": 1.6882625885,
				"y": 0.4479607833,
				"z": -2.205955635,
				"element": "C" 
			},
			{
				"x": 2.3384047197,
				"y": 1.8485707831,
				"z": -2.324492116,
				"element": "C" 
			},
			{
				"x": -0.7710779906,
				"y": 0.9654026819,
				"z": 6.2360641472,
				"element": "O" 
			},
			{
				"x": -1.765887088,
				"y": 0.2856390051,
				"z": 6.903116465,
				"element": "C" 
			},
			{
				"x": -1.2812133013,
				"y": -1.0207409211,
				"z": 7.2366636049,
				"element": "O" 
			},
			{
				"x": -2.1286967444,
				"y": -1.8955391204,
				"z": 7.8485992406,
				"element": "C" 
			},
			{
				"x": -1.6292888555,
				"y": -3.1917044699,
				"z": 8.050260613,
				"element": "C" 
			},
			{
				"x": -2.4078686537,
				"y": -4.1596485153,
				"z": 8.6719852225,
				"element": "C" 
			},
			{
				"x": -3.6990474166,
				"y": -3.8358596341,
				"z": 9.0971453842,
				"element": "C" 
			},
			{
				"x": -4.6890414526,
				"y": -5.0612719299,
				"z": 9.8827316971,
				"element": "Cl" 
			},
			{
				"x": -4.2070442153,
				"y": -2.5557821407,
				"z": 8.9063795537,
				"element": "C" 
			},
			{
				"x": -3.423341033,
				"y": -1.5802199034,
				"z": 8.282683268,
				"element": "C" 
			},
			{
				"x": -3.5001855889,
				"y": 1.1684814392,
				"z": -6.3573407289,
				"element": "H" 
			},
			{
				"x": -2.7050657081,
				"y": -0.320885315,
				"z": -5.8378102061,
				"element": "H" 
			},
			{
				"x": -3.6687860949,
				"y": -0.3052853808,
				"z": -7.3202525886,
				"element": "H" 
			},
			{
				"x": -1.2567714346,
				"y": -0.2319094088,
				"z": -7.9140311599,
				"element": "H" 
			},
			{
				"x": -1.3203306903,
				"y": 1.749655111,
				"z": -9.4044223538,
				"element": "H" 
			},
			{
				"x": -2.6190353835,
				"y": 2.4647914608,
				"z": -8.4384434917,
				"element": "H" 
			},
			{
				"x": -2.9154490698,
				"y": 0.9810032751,
				"z": -9.3544824698,
				"element": "H" 
			},
			{
				"x": -1.1929816866,
				"y": 2.0337335879,
				"z": -5.9142247427,
				"element": "H" 
			},
			{
				"x": -0.1919759648,
				"y": 2.1966817185,
				"z": -7.3409418668,
				"element": "H" 
			},
			{
				"x": 0.9782452571,
				"y": 0.0867743892,
				"z": -6.8617089042,
				"element": "H" 
			},
			{
				"x": 1.1655725831,
				"y": 1.2997254539,
				"z": -5.6124296394,
				"element": "H" 
			},
			{
				"x": -0.6838025645,
				"y": -1.1382682821,
				"z": -5.470942558,
				"element": "H" 
			},
			{
				"x": -0.6362934818,
				"y": 0.1181051925,
				"z": -4.2610540569,
				"element": "H" 
			},
			{
				"x": 0.5940660993,
				"y": -1.8816548517,
				"z": -3.5692126854,
				"element": "H" 
			},
			{
				"x": 2.4367223118,
				"y": -2.8722997472,
				"z": -4.8671361447,
				"element": "H" 
			},
			{
				"x": 2.4185063606,
				"y": -1.532554107,
				"z": -6.012432015,
				"element": "H" 
			},
			{
				"x": 1.0499163708,
				"y": -2.6474243656,
				"z": -5.9310184397,
				"element": "H" 
			},
			{
				"x": 2.5485182718,
				"y": 0.3538108581,
				"z": -4.2103645958,
				"element": "H" 
			},
			{
				"x": 3.0150949498,
				"y": -2.3008034134,
				"z": -2.9241056892,
				"element": "H" 
			},
			{
				"x": 4.1933113237,
				"y": -1.2270448897,
				"z": -3.660195053,
				"element": "H" 
			},
			{
				"x": 4.1400510583,
				"y": -1.5884159331,
				"z": -0.96620809,
				"element": "H" 
			},
			{
				"x": 4.3623765735,
				"y": 0.0601183719,
				"z": -1.5480909512,
				"element": "H" 
			},
			{
				"x": 1.6966515583,
				"y": -1.3181624486,
				"z": -1.0100624902,
				"element": "H" 
			},
			{
				"x": 2.6897092619,
				"y": 1.1892687479,
				"z": 0.3880084913,
				"element": "H" 
			},
			{
				"x": 3.8441326938,
				"y": -0.6493325702,
				"z": 1.3895179543,
				"element": "H" 
			},
			{
				"x": 2.4856383029,
				"y": -1.7330467008,
				"z": 1.2077576543,
				"element": "H" 
			},
			{
				"x": 2.8362405562,
				"y": -0.8235162578,
				"z": 3.6373441904,
				"element": "H" 
			},
			{
				"x": 1.1694499257,
				"y": 1.8070441616,
				"z": 4.827236083,
				"element": "H" 
			},
			{
				"x": 1.5391061586,
				"y": 0.1377661983,
				"z": 5.2391277811,
				"element": "H" 
			},
			{
				"x": -0.7800342357,
				"y": -0.520887639,
				"z": 4.782923193,
				"element": "H" 
			},
			{
				"x": -2.4732714212,
				"y": 1.1781878719,
				"z": 4.0964476591,
				"element": "H" 
			},
			{
				"x": -1.2310056537,
				"y": 2.4233226302,
				"z": 4.0923150161,
				"element": "H" 
			},
			{
				"x": -1.3588271672,
				"y": -0.0606315951,
				"z": 2.2852870244,
				"element": "H" 
			},
			{
				"x": -1.7085172997,
				"y": 1.5850833293,
				"z": 1.7782710837,
				"element": "H" 
			},
			{
				"x": 0.7555271219,
				"y": 3.1083310245,
				"z": 3.0332651316,
				"element": "H" 
			},
			{
				"x": 0.0705689927,
				"y": 3.2446411565,
				"z": 1.4187020417,
				"element": "H" 
			},
			{
				"x": 1.7819822503,
				"y": 2.8346703398,
				"z": 1.6327071072,
				"element": "H" 
			},
			{
				"x": 0.1875356951,
				"y": -0.5076932977,
				"z": 0.727528824,
				"element": "H" 
			},
			{
				"x": -1.1343741077,
				"y": 1.2586037819,
				"z": -0.3232161803,
				"element": "H" 
			},
			{
				"x": 0.2709276721,
				"y": 2.2755489366,
				"z": -0.5247317454,
				"element": "H" 
			},
			{
				"x": -0.3107889969,
				"y": -0.3645863271,
				"z": -1.9496407884,
				"element": "H" 
			},
			{
				"x": -0.3030134103,
				"y": 1.2574820847,
				"z": -2.6369332594,
				"element": "H" 
			},
			{
				"x": 2.2274570054,
				"y": 2.456036252,
				"z": -1.4229731016,
				"element": "H" 
			},
			{
				"x": 3.4083754539,
				"y": 1.7836025702,
				"z": -2.5427802963,
				"element": "H" 
			},
			{
				"x": 1.8744586564,
				"y": 2.4002181303,
				"z": -3.1505207351,
				"element": "H" 
			},
			{
				"x": -1.9837985603,
				"y": 0.8477924642,
				"z": 7.8195205701,
				"element": "H" 
			},
			{
				"x": -2.6855012214,
				"y": 0.1774697297,
				"z": 6.3042204149,
				"element": "H" 
			},
			{
				"x": -0.6243160051,
				"y": -3.4187368523,
				"z": 7.7104948166,
				"element": "H" 
			},
			{
				"x": -2.0195657852,
				"y": -5.160363837,
				"z": 8.8263507882,
				"element": "H" 
			},
			{
				"x": -5.2090031528,
				"y": -2.3129167018,
				"z": 9.2428687403,
				"element": "H" 
			},
			{
				"x": -3.8349283715,
				"y": -0.5866539538,
				"z": 8.1512417583,
				"element": "H" 
			}
		],
		 "valence_orbital": [ 
			{
				"type": "occ",
				"energy": -0.27321,
				"method": "rhf"
			},
			{
				"type": "occ",
				"energy": -0.26693,
				"method": "rhf"
			},
			{
				"type": "occ",
				"energy": -0.26301,
				"method": "rhf"
			},
			{
				"type": "occ",
				"energy": -0.23071,
				"method": "rhf"
			},
			{
				"type": "occ",
				"energy": -0.22093,
				"method": "rhf"
			},
			{
				"type": "unocc",
				"energy": -0.01356,
				"method": "rhf"
			},
			{
				"type": "unocc",
				"energy": 0.00152,
				"method": "rhf"
			},
			{
				"type": "unocc",
				"energy": 0.02511,
				"method": "rhf"
			},
			{
				"type": "unocc",
				"energy": 0.03324,
				"method": "rhf"
			},
			{
				"type": "unocc",
				"energy": 0.07135,
				"method": "rhf"
			}
		],
		"cosmo_sigma_profile": { 
			"-0.025": 0.0,
			"-0.024": 0.0,
			"-0.023": 0.0,
			"-0.022": 0.0,
			"-0.021": 0.0,
			"-0.02": 0.0,
			"-0.019": 0.0,
			"-0.018": 0.0,
			"-0.017": 0.0,
			"-0.016": 0.0,
			"-0.015": 0.0,
			"-0.014": 0.0,
			"-0.013": 0.0,
			"-0.012": 0.0,
			"-0.011": 0.0,
			"-0.01": 0.0,
			"-0.009": 0.0172316604217,
			"-0.008": 2.27004928222,
			"-0.007": 8.57482755957,
			"-0.006": 11.4754409706,
			"-0.005": 14.035277182,
			"-0.004": 14.2379737048,
			"-0.003": 27.2838563383,
			"-0.002": 74.0850821587,
			"-0.001": 113.907158142,
			"0.0": 115.42108979,
			"0.001": 85.626004892,
			"0.002": 60.7416722498,
			"0.003": 28.0463771916,
			"0.004": 24.2865227541,
			"0.005": 15.2467573783,
			"0.006": 5.57082128516,
			"0.007": 2.78263659975,
			"0.008": 2.4306793722,
			"0.009": 2.64830790508,
			"0.01": 2.61897313497,
			"0.011": 1.48735010543,
			"0.012": 0.969219895964,
			"0.013": 0.0,
			"0.014": 0.0,
			"0.015": 0.0,
			"0.016": 0.0,
			"0.017": 0.0,
			"0.018": 0.0,
			"0.019": 0.0,
			"0.02": 0.0,
			"0.021": 0.0,
			"0.022": 0.0,
			"0.023": 0.0,
			"0.024": 0.0,
			"0.025": 0.0
		}
	}
}
