{
	 "smiles": "COC1=CC=C(CCC(O)=O)C=C1OC", 
	 "Tm": 371.15, 
	 "num_atms": 29, 
	 "gaussian": { 
		 "optdone": 1, 
		 "sigma_profile": "yes", 
		 "theory": "DFT", 
		 "functional": "B3LYP", 
		 "basiset": "6-31G**", 
		 "properties": { 
			 "R2extent": 4506.5018, 
			 "electric_dipole_moment_norm": 3.48104692011, 
			 "electric_quadrupole_moment_norm": 9.00678341529, 
			 "total_energy": -728.494165692, 
			 "HOMO_LUMO_gap": 0.21152, 
			 "cosmo_polarized_energy": -13.94, 
			 "cosmo_cavitation_energy": 32.77, 
			 "cosmo_dispersion_energy": -23.11, 
			 "cosmo_repulsion_energy": 1.86, 
			 "cosmo_total_nonelectrostatic_energy": 11.53, 
			 "SMD_solvation_energy": 8.04 
		},
		"coords": [
			{
				"x": 1.9105314007,
				"y": 1.8938873291,
				"z": 3.775643027,
				"element": "C" 
			},
			{
				"x": 2.462110121,
				"y": 0.7385304258,
				"z": 3.1422303987,
				"element": "O" 
			},
			{
				"x": 1.9369462405,
				"y": 0.4214417115,
				"z": 1.9121755239,
				"element": "C" 
			},
			{
				"x": 2.7502145993,
				"y": 0.5086293901,
				"z": 0.7871995583,
				"element": "C" 
			},
			{
				"x": 2.2832880914,
				"y": 0.1298698925,
				"z": -0.4744164245,
				"element": "C" 
			},
			{
				"x": 0.9758954109,
				"y": -0.3366268255,
				"z": -0.6272372152,
				"element": "C" 
			},
			{
				"x": 0.4288084106,
				"y": -0.7212127024,
				"z": -1.9880526159,
				"element": "C" 
			},
			{
				"x": -0.2622745997,
				"y": 0.4404182953,
				"z": -2.7256055018,
				"element": "C" 
			},
			{
				"x": 0.7130913113,
				"y": 1.4524060574,
				"z": -3.2906673925,
				"element": "C" 
			},
			{
				"x": 0.120902434,
				"y": 2.6513663777,
				"z": -3.5061225332,
				"element": "O" 
			},
			{
				"x": 1.874913827,
				"y": 1.2441307895,
				"z": -3.5676493782,
				"element": "O" 
			},
			{
				"x": 0.1514364719,
				"y": -0.4289598646,
				"z": 0.5070283521,
				"element": "C" 
			},
			{
				"x": 0.6163766395,
				"y": -0.0626684957,
				"z": 1.7720962959,
				"element": "C" 
			},
			{
				"x": -0.1162492039,
				"y": -0.1503871409,
				"z": 2.9239367122,
				"element": "O" 
			},
			{
				"x": -1.4314340408,
				"y": -0.6732881469,
				"z": 2.8434010948,
				"element": "C" 
			},
			{
				"x": 2.4669991016,
				"y": 2.0256307639,
				"z": 4.7062397681,
				"element": "H" 
			},
			{
				"x": 2.0423716808,
				"y": 2.7858403065,
				"z": 3.1486398737,
				"element": "H" 
			},
			{
				"x": 0.8482607765,
				"y": 1.7615042663,
				"z": 4.0018426881,
				"element": "H" 
			},
			{
				"x": 3.7651426722,
				"y": 0.8686927694,
				"z": 0.9244604839,
				"element": "H" 
			},
			{
				"x": 2.9296679739,
				"y": 0.2107107255,
				"z": -1.3419535444,
				"element": "H" 
			},
			{
				"x": -0.2993197466,
				"y": -1.5319012008,
				"z": -1.8734929438,
				"element": "H" 
			},
			{
				"x": 1.2357823279,
				"y": -1.0989025361,
				"z": -2.6227396576,
				"element": "H" 
			},
			{
				"x": -0.9790596837,
				"y": 0.9588097464,
				"z": -2.0817508713,
				"element": "H" 
			},
			{
				"x": -0.8352111953,
				"y": 0.057423587,
				"z": -3.5815000766,
				"element": "H" 
			},
			{
				"x": 0.8027010488,
				"y": 3.221086889,
				"z": -3.9010306965,
				"element": "H" 
			},
			{
				"x": -0.8584967365,
				"y": -0.8082033501,
				"z": 0.3913646657,
				"element": "H" 
			},
			{
				"x": -1.8191244711,
				"y": -0.6720115932,
				"z": 3.8634087635,
				"element": "H" 
			},
			{
				"x": -2.0793809379,
				"y": -0.0522292579,
				"z": 2.2107941841,
				"element": "H" 
			},
			{
				"x": -1.4348899242,
				"y": -1.7008882088,
				"z": 2.4577574613,
				"element": "H" 
			}
		],
		 "valence_orbital": [ 
			{
				"type": "occ",
				"energy": -0.30799,
				"method": "rhf"
			},
			{
				"type": "occ",
				"energy": -0.27652,
				"method": "rhf"
			},
			{
				"type": "occ",
				"energy": -0.26653,
				"method": "rhf"
			},
			{
				"type": "occ",
				"energy": -0.23372,
				"method": "rhf"
			},
			{
				"type": "occ",
				"energy": -0.20758,
				"method": "rhf"
			},
			{
				"type": "unocc",
				"energy": 0.00394,
				"method": "rhf"
			},
			{
				"type": "unocc",
				"energy": 0.0094,
				"method": "rhf"
			},
			{
				"type": "unocc",
				"energy": 0.01712,
				"method": "rhf"
			},
			{
				"type": "unocc",
				"energy": 0.0795,
				"method": "rhf"
			},
			{
				"type": "unocc",
				"energy": 0.0876,
				"method": "rhf"
			}
		],
		"cosmo_sigma_profile": { 
			"-0.025": 0.0,
			"-0.024": 0.0,
			"-0.023": 0.0,
			"-0.022": 0.0,
			"-0.021": 0.0,
			"-0.02": 0.0,
			"-0.019": 0.0,
			"-0.018": 0.537762591895,
			"-0.017": 0.88612023466,
			"-0.016": 1.01529448727,
			"-0.015": 0.815152519178,
			"-0.014": 0.671200868639,
			"-0.013": 0.668389475881,
			"-0.012": 0.522730742917,
			"-0.011": 0.567487762631,
			"-0.01": 1.00248757462,
			"-0.009": 0.511120158547,
			"-0.008": 0.486382395895,
			"-0.007": 2.41938774342,
			"-0.006": 9.36052859857,
			"-0.005": 21.4838844638,
			"-0.004": 25.9271116859,
			"-0.003": 28.9409900431,
			"-0.002": 26.5575634271,
			"-0.001": 18.3077691137,
			"0.0": 12.9812860288,
			"0.001": 12.8587663174,
			"0.002": 12.1850049654,
			"0.003": 12.9425427643,
			"0.004": 14.0594650742,
			"0.005": 13.5584972501,
			"0.006": 8.35804279411,
			"0.007": 5.5375739278,
			"0.008": 4.32027253687,
			"0.009": 5.0680382813,
			"0.01": 4.80813991306,
			"0.011": 5.56872756382,
			"0.012": 4.92581536257,
			"0.013": 0.422819174556,
			"0.014": 0.0,
			"0.015": 0.0,
			"0.016": 0.0,
			"0.017": 0.0,
			"0.018": 0.0,
			"0.019": 0.0,
			"0.02": 0.0,
			"0.021": 0.0,
			"0.022": 0.0,
			"0.023": 0.0,
			"0.024": 0.0,
			"0.025": 0.0
		}
	}
}
