{
	 "smiles": "CC1=CC(CS)=C(CS)C=C1C", 
	 "Tm": 339.65, 
	 "num_atms": 26, 
	 "gaussian": { 
		 "optdone": 1, 
		 "sigma_profile": "yes", 
		 "theory": "DFT", 
		 "functional": "B3LYP", 
		 "basiset": "6-31G**", 
		 "properties": { 
			 "R2extent": 4284.0319, 
			 "electric_dipole_moment_norm": 2.13330435944, 
			 "electric_quadrupole_moment_norm": 12.2403531738, 
			 "total_energy": -1185.89131824, 
			 "HOMO_LUMO_gap": 0.20702, 
			 "cosmo_polarized_energy": -9.9, 
			 "cosmo_cavitation_energy": 31.93, 
			 "cosmo_dispersion_energy": -22.94, 
			 "cosmo_repulsion_energy": 1.76, 
			 "cosmo_total_nonelectrostatic_energy": 10.74, 
			 "SMD_solvation_energy": 3.97 
		},
		"coords": [
			{
				"x": -1.9405991778,
				"y": -1.5917878327,
				"z": -0.3631675606,
				"element": "C" 
			},
			{
				"x": -0.6361111874,
				"y": -0.8446798337,
				"z": -0.50093669,
				"element": "C" 
			},
			{
				"x": 0.5441196551,
				"y": -1.3872095938,
				"z": 0.005172611,
				"element": "C" 
			},
			{
				"x": 1.7827233329,
				"y": -0.7372275201,
				"z": -0.0920178717,
				"element": "C" 
			},
			{
				"x": 3.0060695303,
				"y": -1.4045734906,
				"z": 0.4848703526,
				"element": "C" 
			},
			{
				"x": 3.8085452989,
				"y": -2.6559272205,
				"z": -0.6343424006,
				"element": "S" 
			},
			{
				"x": 1.8375510903,
				"y": 0.5132239517,
				"z": -0.7341121071,
				"element": "C" 
			},
			{
				"x": 3.12260421,
				"y": 1.2875502528,
				"z": -0.8880126051,
				"element": "C" 
			},
			{
				"x": 3.407047848,
				"y": 2.5862066545,
				"z": 0.4139763296,
				"element": "S" 
			},
			{
				"x": 0.6495825154,
				"y": 1.0595325422,
				"z": -1.2404475833,
				"element": "C" 
			},
			{
				"x": -0.5820251081,
				"y": 0.414049508,
				"z": -1.1407506583,
				"element": "C" 
			},
			{
				"x": -1.8269331687,
				"y": 1.0523402958,
				"z": -1.7078673767,
				"element": "C" 
			},
			{
				"x": -1.7975987241,
				"y": -2.5437817512,
				"z": 0.1544021477,
				"element": "H" 
			},
			{
				"x": -2.6819204746,
				"y": -1.0120810954,
				"z": 0.200279628,
				"element": "H" 
			},
			{
				"x": -2.3878843133,
				"y": -1.8073462002,
				"z": -1.3411430666,
				"element": "H" 
			},
			{
				"x": 0.5066345696,
				"y": -2.3598441061,
				"z": 0.4911872129,
				"element": "H" 
			},
			{
				"x": 2.7388093256,
				"y": -1.9946148444,
				"z": 1.3652205395,
				"element": "H" 
			},
			{
				"x": 3.7649372791,
				"y": -0.6858113866,
				"z": 0.7976422566,
				"element": "H" 
			},
			{
				"x": 3.919396249,
				"y": -1.8544727095,
				"z": -1.7125739059,
				"element": "H" 
			},
			{
				"x": 3.1109143711,
				"y": 1.8649300969,
				"z": -1.8159591224,
				"element": "H" 
			},
			{
				"x": 3.9988272241,
				"y": 0.6385233994,
				"z": -0.9239686446,
				"element": "H" 
			},
			{
				"x": 3.2204284265,
				"y": 1.7830658816,
				"z": 1.4804406691,
				"element": "H" 
			},
			{
				"x": 0.6927151449,
				"y": 2.0323497344,
				"z": -1.7256263184,
				"element": "H" 
			},
			{
				"x": -2.293561099,
				"y": 0.4203171141,
				"z": -2.473296017,
				"element": "H" 
			},
			{
				"x": -2.5849090916,
				"y": 1.2179799343,
				"z": -0.9326111765,
				"element": "H" 
			},
			{
				"x": -1.6017637262,
				"y": 2.0192882189,
				"z": -2.1649586421,
				"element": "H" 
			}
		],
		 "valence_orbital": [ 
			{
				"type": "occ",
				"energy": -0.32508,
				"method": "rhf"
			},
			{
				"type": "occ",
				"energy": -0.25175,
				"method": "rhf"
			},
			{
				"type": "occ",
				"energy": -0.24424,
				"method": "rhf"
			},
			{
				"type": "occ",
				"energy": -0.23347,
				"method": "rhf"
			},
			{
				"type": "occ",
				"energy": -0.22871,
				"method": "rhf"
			},
			{
				"type": "unocc",
				"energy": -0.02169,
				"method": "rhf"
			},
			{
				"type": "unocc",
				"energy": -0.00938,
				"method": "rhf"
			},
			{
				"type": "unocc",
				"energy": 0.02212,
				"method": "rhf"
			},
			{
				"type": "unocc",
				"energy": 0.03818,
				"method": "rhf"
			},
			{
				"type": "unocc",
				"energy": 0.0636,
				"method": "rhf"
			}
		],
		"cosmo_sigma_profile": { 
			"-0.025": 0.0,
			"-0.024": 0.0,
			"-0.023": 0.0,
			"-0.022": 0.0,
			"-0.021": 0.0,
			"-0.02": 0.0,
			"-0.019": 0.0,
			"-0.018": 0.0,
			"-0.017": 0.0,
			"-0.016": 0.0,
			"-0.015": 0.0,
			"-0.014": 0.0,
			"-0.013": 0.0,
			"-0.012": 0.0,
			"-0.011": 0.0,
			"-0.01": 0.0,
			"-0.009": 1.04625163725,
			"-0.008": 4.04565067936,
			"-0.007": 8.51484763446,
			"-0.006": 13.5000117198,
			"-0.005": 15.7786170468,
			"-0.004": 24.0079874187,
			"-0.003": 23.3304453496,
			"-0.002": 21.5725186639,
			"-0.001": 19.5303150686,
			"0.0": 22.408277352,
			"0.001": 16.320338981,
			"0.002": 10.843322728,
			"0.003": 10.7793805424,
			"0.004": 10.8246328889,
			"0.005": 14.3805549868,
			"0.006": 14.3858823405,
			"0.007": 6.94996383178,
			"0.008": 6.14038681722,
			"0.009": 4.50776913102,
			"0.01": 4.63202287144,
			"0.011": 2.39021501736,
			"0.012": 0.0142507921062,
			"0.013": 0.0,
			"0.014": 0.0,
			"0.015": 0.0,
			"0.016": 0.0,
			"0.017": 0.0,
			"0.018": 0.0,
			"0.019": 0.0,
			"0.02": 0.0,
			"0.021": 0.0,
			"0.022": 0.0,
			"0.023": 0.0,
			"0.024": 0.0,
			"0.025": 0.0
		}
	}
}
