{
	 "smiles": "CN(C)C1=CC=C(C=C1)C1CC1C(O)=O", 
	 "Tm": 393.15, 
	 "num_atms": 30, 
	 "gaussian": { 
		 "optdone": 1, 
		 "sigma_profile": "yes", 
		 "theory": "DFT", 
		 "functional": "B3LYP", 
		 "basiset": "6-31G**", 
		 "properties": { 
			 "R2extent": 5530.99, 
			 "electric_dipole_moment_norm": 6.27698766129, 
			 "electric_quadrupole_moment_norm": 24.4669448524, 
			 "total_energy": -671.493870651, 
			 "HOMO_LUMO_gap": 0.1844, 
			 "cosmo_polarized_energy": -16.91, 
			 "cosmo_cavitation_energy": 32.94, 
			 "cosmo_dispersion_energy": -23.81, 
			 "cosmo_repulsion_energy": 1.85, 
			 "cosmo_total_nonelectrostatic_energy": 10.98, 
			 "SMD_solvation_energy": 5.87 
		},
		"coords": [
			{
				"x": -1.6272983611,
				"y": -0.0402844839,
				"z": -3.7635182227,
				"element": "C" 
			},
			{
				"x": -1.3260898379,
				"y": 0.9603298655,
				"z": -2.7545044199,
				"element": "N" 
			},
			{
				"x": -0.6733652483,
				"y": 2.1857999347,
				"z": -3.1823264042,
				"element": "C" 
			},
			{
				"x": -1.2355076295,
				"y": 0.5742356038,
				"z": -1.4208195946,
				"element": "C" 
			},
			{
				"x": -0.7319525966,
				"y": 1.446725449,
				"z": -0.4306216196,
				"element": "C" 
			},
			{
				"x": -0.6772289329,
				"y": 1.0606835804,
				"z": 0.9047731522,
				"element": "C" 
			},
			{
				"x": -1.1085772585,
				"y": -0.2012117288,
				"z": 1.3334055157,
				"element": "C" 
			},
			{
				"x": -1.5966095785,
				"y": -1.0710777348,
				"z": 0.3485329515,
				"element": "C" 
			},
			{
				"x": -1.6557484937,
				"y": -0.70581539,
				"z": -0.9921481174,
				"element": "C" 
			},
			{
				"x": -1.0182995204,
				"y": -0.5628113331,
				"z": 2.7764922635,
				"element": "C" 
			},
			{
				"x": -1.8986597113,
				"y": -1.5809457318,
				"z": 3.4290886429,
				"element": "C" 
			},
			{
				"x": -0.4401345824,
				"y": -1.9231140719,
				"z": 3.2141564125,
				"element": "C" 
			},
			{
				"x": 0.4496728097,
				"y": -1.9163632958,
				"z": 4.4111071119,
				"element": "C" 
			},
			{
				"x": 1.5454489122,
				"y": -2.72211099,
				"z": 4.3501579602,
				"element": "O" 
			},
			{
				"x": 0.2531075049,
				"y": -1.2380921889,
				"z": 5.3932446496,
				"element": "O" 
			},
			{
				"x": -2.6025721259,
				"y": -0.5046048749,
				"z": -3.5783605076,
				"element": "H" 
			},
			{
				"x": -0.874389764,
				"y": -0.8432362879,
				"z": -3.8144368671,
				"element": "H" 
			},
			{
				"x": -1.6770894659,
				"y": 0.4418737828,
				"z": -4.7412063634,
				"element": "H" 
			},
			{
				"x": -1.0772970762,
				"y": 3.0532202857,
				"z": -2.6482351466,
				"element": "H" 
			},
			{
				"x": 0.4173656529,
				"y": 2.1709089421,
				"z": -3.0274746011,
				"element": "H" 
			},
			{
				"x": -0.8645327606,
				"y": 2.3400922575,
				"z": -4.2455769547,
				"element": "H" 
			},
			{
				"x": -0.3787692147,
				"y": 2.4350789641,
				"z": -0.6974792756,
				"element": "H" 
			},
			{
				"x": -0.2840443448,
				"y": 1.7638828817,
				"z": 1.6351147862,
				"element": "H" 
			},
			{
				"x": -1.9410049173,
				"y": -2.0661054611,
				"z": 0.6210425537,
				"element": "H" 
			},
			{
				"x": -2.0368173789,
				"y": -1.4249960425,
				"z": -1.7066813395,
				"element": "H" 
			},
			{
				"x": -0.7076217051,
				"y": 0.2494582684,
				"z": 3.4280570457,
				"element": "H" 
			},
			{
				"x": -2.1901997308,
				"y": -1.4012362384,
				"z": 4.4586951962,
				"element": "H" 
			},
			{
				"x": -2.6281709036,
				"y": -2.1040584883,
				"z": 2.818624736,
				"element": "H" 
			},
			{
				"x": -0.203737008,
				"y": -2.6139284864,
				"z": 2.4079733785,
				"element": "H" 
			},
			{
				"x": 1.5689232675,
				"y": -3.1862969873,
				"z": 3.5020230778,
				"element": "H" 
			}
		],
		 "valence_orbital": [ 
			{
				"type": "occ",
				"energy": -0.29632,
				"method": "rhf"
			},
			{
				"type": "occ",
				"energy": -0.27189,
				"method": "rhf"
			},
			{
				"type": "occ",
				"energy": -0.26353,
				"method": "rhf"
			},
			{
				"type": "occ",
				"energy": -0.24747,
				"method": "rhf"
			},
			{
				"type": "occ",
				"energy": -0.18813,
				"method": "rhf"
			},
			{
				"type": "unocc",
				"energy": -0.00373,
				"method": "rhf"
			},
			{
				"type": "unocc",
				"energy": 0.0028,
				"method": "rhf"
			},
			{
				"type": "unocc",
				"energy": 0.03171,
				"method": "rhf"
			},
			{
				"type": "unocc",
				"energy": 0.0598,
				"method": "rhf"
			},
			{
				"type": "unocc",
				"energy": 0.08177,
				"method": "rhf"
			}
		],
		"cosmo_sigma_profile": { 
			"-0.025": 0.0,
			"-0.024": 0.0,
			"-0.023": 0.0,
			"-0.022": 0.0,
			"-0.021": 0.0,
			"-0.02": 0.0164998315761,
			"-0.019": 0.681569568168,
			"-0.018": 1.32761664263,
			"-0.017": 0.885309278623,
			"-0.016": 1.0387472097,
			"-0.015": 1.12767032722,
			"-0.014": 0.732130323511,
			"-0.013": 0.786327446795,
			"-0.012": 1.48099546059,
			"-0.011": 1.07359536808,
			"-0.01": 0.84471400661,
			"-0.009": 0.988179816004,
			"-0.008": 1.76744962512,
			"-0.007": 1.89704250169,
			"-0.006": 9.63286971351,
			"-0.005": 18.9970456314,
			"-0.004": 20.5344292679,
			"-0.003": 25.1699948679,
			"-0.002": 27.032397282,
			"-0.001": 26.6724817713,
			"0.0": 16.856684375,
			"0.001": 11.5011515421,
			"0.002": 10.1688671652,
			"0.003": 10.2644131202,
			"0.004": 11.7872008102,
			"0.005": 9.53631868745,
			"0.006": 12.2275273284,
			"0.007": 10.3762344365,
			"0.008": 3.60967979289,
			"0.009": 3.36312290185,
			"0.01": 3.72477323005,
			"0.011": 4.49952549925,
			"0.012": 5.2539420762,
			"0.013": 3.40742373042,
			"0.014": 0.690204350006,
			"0.015": 0.0,
			"0.016": 0.0,
			"0.017": 0.0,
			"0.018": 0.0,
			"0.019": 0.0,
			"0.02": 0.0,
			"0.021": 0.0,
			"0.022": 0.0,
			"0.023": 0.0,
			"0.024": 0.0,
			"0.025": 0.0
		}
	}
}
