{
	 "smiles": "CCNC(=O)C1CCCNC1", 
	 "Tm": 334.15, 
	 "num_atms": 27, 
	 "gaussian": { 
		 "optdone": 1, 
		 "sigma_profile": "yes", 
		 "theory": "DFT", 
		 "functional": "B3LYP", 
		 "basiset": "6-31G**", 
		 "properties": { 
			 "R2extent": 2183.3404, 
			 "electric_dipole_moment_norm": 4.08647744274, 
			 "electric_quadrupole_moment_norm": 7.11745863283, 
			 "total_energy": -499.247339881, 
			 "HOMO_LUMO_gap": 0.2296, 
			 "cosmo_polarized_energy": -11.81, 
			 "cosmo_cavitation_energy": 27.48, 
			 "cosmo_dispersion_energy": -20.11, 
			 "cosmo_repulsion_energy": 1.64, 
			 "cosmo_total_nonelectrostatic_energy": 9.01, 
			 "SMD_solvation_energy": 1.33 
		},
		"coords": [
			{
				"x": -2.7770395073,
				"y": -2.3368787691,
				"z": -1.8797954441,
				"element": "C" 
			},
			{
				"x": -1.2973081978,
				"y": -2.1578741725,
				"z": -2.2307639648,
				"element": "C" 
			},
			{
				"x": -0.7787977489,
				"y": -0.8426983859,
				"z": -1.8744365156,
				"element": "N" 
			},
			{
				"x": -0.0322349501,
				"y": -0.6205770584,
				"z": -0.7503515921,
				"element": "C" 
			},
			{
				"x": 0.3140849446,
				"y": -1.5398420255,
				"z": -0.0056371588,
				"element": "O" 
			},
			{
				"x": 0.3303663542,
				"y": 0.8403924495,
				"z": -0.4884116921,
				"element": "C" 
			},
			{
				"x": -0.6285608518,
				"y": 1.4764328341,
				"z": 0.5530700926,
				"element": "C" 
			},
			{
				"x": -0.3683962894,
				"y": 0.9534341222,
				"z": 1.9739112281,
				"element": "C" 
			},
			{
				"x": 1.1211614383,
				"y": 1.094382052,
				"z": 2.336590608,
				"element": "C" 
			},
			{
				"x": 2.0275765324,
				"y": 0.4745296922,
				"z": 1.3658090363,
				"element": "N" 
			},
			{
				"x": 1.7946677016,
				"y": 0.9689901342,
				"z": 0.0121210101,
				"element": "C" 
			},
			{
				"x": -3.121590127,
				"y": -3.3345319633,
				"z": -2.1719019069,
				"element": "H" 
			},
			{
				"x": -3.403741034,
				"y": -1.6014346095,
				"z": -2.396750597,
				"element": "H" 
			},
			{
				"x": -2.9325159497,
				"y": -2.2220838155,
				"z": -0.8031352207,
				"element": "H" 
			},
			{
				"x": -0.6867139549,
				"y": -2.8813268921,
				"z": -1.6866041439,
				"element": "H" 
			},
			{
				"x": -1.1360479587,
				"y": -2.3197256705,
				"z": -3.3032138807,
				"element": "H" 
			},
			{
				"x": -1.0727634265,
				"y": -0.0460999624,
				"z": -2.4199051631,
				"element": "H" 
			},
			{
				"x": 0.234895332,
				"y": 1.3979903973,
				"z": -1.4310237393,
				"element": "H" 
			},
			{
				"x": -1.6727777996,
				"y": 1.3116850615,
				"z": 0.2597486905,
				"element": "H" 
			},
			{
				"x": -0.4652279288,
				"y": 2.5630630467,
				"z": 0.5329990234,
				"element": "H" 
			},
			{
				"x": -0.9900341158,
				"y": 1.5025934857,
				"z": 2.6925664645,
				"element": "H" 
			},
			{
				"x": -0.6546261791,
				"y": -0.1027392722,
				"z": 2.036091669,
				"element": "H" 
			},
			{
				"x": 1.3802481521,
				"y": 2.1616240432,
				"z": 2.4065036408,
				"element": "H" 
			},
			{
				"x": 1.3184574326,
				"y": 0.6575224796,
				"z": 3.3219304219,
				"element": "H" 
			},
			{
				"x": 1.84694447,
				"y": -0.5279494376,
				"z": 1.3502213445,
				"element": "H" 
			},
			{
				"x": 2.0668050158,
				"y": 2.0337103897,
				"z": -0.0179791609,
				"element": "H" 
			},
			{
				"x": 2.4723686458,
				"y": 0.4468118468,
				"z": -0.6719530497,
				"element": "H" 
			}
		],
		 "valence_orbital": [ 
			{
				"type": "occ",
				"energy": -0.32559,
				"method": "rhf"
			},
			{
				"type": "occ",
				"energy": -0.31074,
				"method": "rhf"
			},
			{
				"type": "occ",
				"energy": -0.25247,
				"method": "rhf"
			},
			{
				"type": "occ",
				"energy": -0.24603,
				"method": "rhf"
			},
			{
				"type": "occ",
				"energy": -0.20156,
				"method": "rhf"
			},
			{
				"type": "unocc",
				"energy": 0.02804,
				"method": "rhf"
			},
			{
				"type": "unocc",
				"energy": 0.06553,
				"method": "rhf"
			},
			{
				"type": "unocc",
				"energy": 0.10246,
				"method": "rhf"
			},
			{
				"type": "unocc",
				"energy": 0.10949,
				"method": "rhf"
			},
			{
				"type": "unocc",
				"energy": 0.11923,
				"method": "rhf"
			}
		],
		"cosmo_sigma_profile": { 
			"-0.025": 0.0,
			"-0.024": 0.0,
			"-0.023": 0.0,
			"-0.022": 0.0,
			"-0.021": 0.0,
			"-0.02": 0.0,
			"-0.019": 0.0,
			"-0.018": 0.0,
			"-0.017": 0.0,
			"-0.016": 0.0,
			"-0.015": 0.0,
			"-0.014": 0.348944901155,
			"-0.013": 1.40712963007,
			"-0.012": 1.35897302504,
			"-0.011": 0.998661517802,
			"-0.01": 1.31223152505,
			"-0.009": 1.65005090161,
			"-0.008": 1.38585801994,
			"-0.007": 1.52900218636,
			"-0.006": 1.79145698548,
			"-0.005": 4.11702077164,
			"-0.004": 10.1468488579,
			"-0.003": 28.9358550843,
			"-0.002": 33.2232898472,
			"-0.001": 32.0275477464,
			"0.0": 28.1783942337,
			"0.001": 19.5224144094,
			"0.002": 7.00973016,
			"0.003": 4.41136355904,
			"0.004": 4.33624890797,
			"0.005": 3.11553817184,
			"0.006": 3.27013929245,
			"0.007": 2.23834782543,
			"0.008": 2.51191688014,
			"0.009": 1.46391840888,
			"0.01": 2.38436072137,
			"0.011": 1.80221945743,
			"0.012": 2.15419205618,
			"0.013": 2.76192827458,
			"0.014": 3.34363502767,
			"0.015": 0.875356377503,
			"0.016": 0.751593987618,
			"0.017": 0.621319209169,
			"0.018": 0.614118912959,
			"0.019": 0.472268329648,
			"0.02": 0.0311712529737,
			"0.021": 0.0,
			"0.022": 0.0,
			"0.023": 0.0,
			"0.024": 0.0,
			"0.025": 0.0
		}
	}
}
