{
	 "smiles": "NCCNS(=O)(=O)CC1=CC=CC=C1", 
	 "Tm": 362.15, 
	 "num_atms": 28, 
	 "gaussian": { 
		 "optdone": 1, 
		 "sigma_profile": "yes", 
		 "theory": "DFT", 
		 "functional": "B3LYP", 
		 "basiset": "6-31G**", 
		 "properties": { 
			 "R2extent": 3440.9711, 
			 "electric_dipole_moment_norm": 4.32846545094, 
			 "electric_quadrupole_moment_norm": 15.186740646, 
			 "total_energy": -1009.4676785, 
			 "HOMO_LUMO_gap": 0.226, 
			 "cosmo_polarized_energy": -17.67, 
			 "cosmo_cavitation_energy": 32.0, 
			 "cosmo_dispersion_energy": -22.81, 
			 "cosmo_repulsion_energy": 1.77, 
			 "cosmo_total_nonelectrostatic_energy": 10.96, 
			 "SMD_solvation_energy": 3.21 
		},
		"coords": [
			{
				"x": 1.8229628753,
				"y": -0.7721950587,
				"z": 2.4368650491,
				"element": "N" 
			},
			{
				"x": 0.6972693382,
				"y": -1.3261203669,
				"z": 3.1879209399,
				"element": "C" 
			},
			{
				"x": -0.6233925963,
				"y": -0.7961833939,
				"z": 2.6324580236,
				"element": "C" 
			},
			{
				"x": -0.7805767613,
				"y": -1.2297518798,
				"z": 1.2324538085,
				"element": "N" 
			},
			{
				"x": -1.898772483,
				"y": -0.4222714477,
				"z": 0.2549799658,
				"element": "S" 
			},
			{
				"x": -2.3295710292,
				"y": -1.4108105477,
				"z": -0.7402449287,
				"element": "O" 
			},
			{
				"x": -2.876396538,
				"y": 0.3023742372,
				"z": 1.0765303276,
				"element": "O" 
			},
			{
				"x": -0.8779314027,
				"y": 0.8571218811,
				"z": -0.562310501,
				"element": "C" 
			},
			{
				"x": 0.2436985633,
				"y": 0.3328260731,
				"z": -1.4136379978,
				"element": "C" 
			},
			{
				"x": -0.0144552552,
				"y": -0.2114496387,
				"z": -2.6790814027,
				"element": "C" 
			},
			{
				"x": 1.0321611497,
				"y": -0.6853994802,
				"z": -3.4695425789,
				"element": "C" 
			},
			{
				"x": 2.3481772873,
				"y": -0.6183416439,
				"z": -3.0069226626,
				"element": "C" 
			},
			{
				"x": 2.612929068,
				"y": -0.0794705416,
				"z": -1.7464564093,
				"element": "C" 
			},
			{
				"x": 1.5660380414,
				"y": 0.391267649,
				"z": -0.9525625255,
				"element": "C" 
			},
			{
				"x": 2.7016557812,
				"y": -1.1049699708,
				"z": 2.824413718,
				"element": "H" 
			},
			{
				"x": 1.7753849244,
				"y": -1.103159839,
				"z": 1.4764697087,
				"element": "H" 
			},
			{
				"x": 0.7755758502,
				"y": -1.0035007371,
				"z": 4.2328685972,
				"element": "H" 
			},
			{
				"x": 0.6595388139,
				"y": -2.4318422762,
				"z": 3.2042422732,
				"element": "H" 
			},
			{
				"x": -0.5990279578,
				"y": 0.296032149,
				"z": 2.6451005833,
				"element": "H" 
			},
			{
				"x": -1.4646268788,
				"y": -1.1186199433,
				"z": 3.258626652,
				"element": "H" 
			},
			{
				"x": -0.9497139559,
				"y": -2.2265565732,
				"z": 1.1167766506,
				"element": "H" 
			},
			{
				"x": -0.5212710025,
				"y": 1.5002492646,
				"z": 0.2459450047,
				"element": "H" 
			},
			{
				"x": -1.618301159,
				"y": 1.4189240785,
				"z": -1.1401509534,
				"element": "H" 
			},
			{
				"x": -1.0378398001,
				"y": -0.2740516069,
				"z": -3.0360512293,
				"element": "H" 
			},
			{
				"x": 0.8196644127,
				"y": -1.1049864894,
				"z": -4.448548613,
				"element": "H" 
			},
			{
				"x": 3.1628116764,
				"y": -0.9820829983,
				"z": -3.6265890078,
				"element": "H" 
			},
			{
				"x": 3.634612672,
				"y": -0.0211513909,
				"z": -1.3817734226,
				"element": "H" 
			},
			{
				"x": 1.7723963656,
				"y": 0.7980204919,
				"z": 0.0340209303,
				"element": "H" 
			}
		],
		 "valence_orbital": [ 
			{
				"type": "occ",
				"energy": -0.29752,
				"method": "rhf"
			},
			{
				"type": "occ",
				"energy": -0.27398,
				"method": "rhf"
			},
			{
				"type": "occ",
				"energy": -0.25504,
				"method": "rhf"
			},
			{
				"type": "occ",
				"energy": -0.24927,
				"method": "rhf"
			},
			{
				"type": "occ",
				"energy": -0.24454,
				"method": "rhf"
			},
			{
				"type": "unocc",
				"energy": -0.01854,
				"method": "rhf"
			},
			{
				"type": "unocc",
				"energy": -0.00757,
				"method": "rhf"
			},
			{
				"type": "unocc",
				"energy": 0.05708,
				"method": "rhf"
			},
			{
				"type": "unocc",
				"energy": 0.07797,
				"method": "rhf"
			},
			{
				"type": "unocc",
				"energy": 0.08731,
				"method": "rhf"
			}
		],
		"cosmo_sigma_profile": { 
			"-0.025": 0.0,
			"-0.024": 0.0,
			"-0.023": 0.0,
			"-0.022": 0.0,
			"-0.021": 0.0,
			"-0.02": 0.0,
			"-0.019": 0.0,
			"-0.018": 0.0,
			"-0.017": 0.0,
			"-0.016": 0.0,
			"-0.015": 0.0608497782533,
			"-0.014": 0.659244970079,
			"-0.013": 1.14780813443,
			"-0.012": 1.09640037037,
			"-0.011": 0.371402089621,
			"-0.01": 2.32842434796,
			"-0.009": 4.64055963549,
			"-0.008": 6.99566089217,
			"-0.007": 7.82144469283,
			"-0.006": 13.3865124384,
			"-0.005": 19.9714510688,
			"-0.004": 25.1343872006,
			"-0.003": 24.576144322,
			"-0.002": 18.2607116027,
			"-0.001": 13.7984996045,
			"0.0": 10.5989369233,
			"0.001": 10.1633612144,
			"0.002": 9.52566095878,
			"0.003": 9.97984373444,
			"0.004": 12.1123766742,
			"0.005": 13.4971346491,
			"0.006": 6.96485452388,
			"0.007": 3.91969371707,
			"0.008": 3.87091200353,
			"0.009": 4.24775838263,
			"0.01": 5.47469126371,
			"0.011": 10.5267921497,
			"0.012": 7.51610374395,
			"0.013": 0.632954816502,
			"0.014": 0.457853181356,
			"0.015": 0.443149986178,
			"0.016": 0.601002557529,
			"0.017": 0.400670027501,
			"0.018": 0.372162640458,
			"0.019": 0.155009982675,
			"0.02": 0.0,
			"0.021": 0.0,
			"0.022": 0.0,
			"0.023": 0.0,
			"0.024": 0.0,
			"0.025": 0.0
		}
	}
}
