{
	 "smiles": "CC(Cl)C(=O)N(CCC#N)C1=CC=CC=C1", 
	 "Tm": 348.15, 
	 "num_atms": 29, 
	 "gaussian": { 
		 "optdone": 1, 
		 "sigma_profile": "yes", 
		 "theory": "DFT", 
		 "functional": "B3LYP", 
		 "basiset": "6-31G**", 
		 "properties": { 
			 "R2extent": 3857.1974, 
			 "electric_dipole_moment_norm": 2.33976418043, 
			 "electric_quadrupole_moment_norm": 17.630155391, 
			 "total_energy": -1110.02486761, 
			 "HOMO_LUMO_gap": 0.22548, 
			 "cosmo_polarized_energy": -13.74, 
			 "cosmo_cavitation_energy": 34.05, 
			 "cosmo_dispersion_energy": -22.69, 
			 "cosmo_repulsion_energy": 1.78, 
			 "cosmo_total_nonelectrostatic_energy": 13.14, 
			 "SMD_solvation_energy": 7.35 
		},
		"coords": [
			{
				"x": -2.2252513651,
				"y": -0.2305294841,
				"z": -0.5955971031,
				"element": "C" 
			},
			{
				"x": -1.5285705015,
				"y": 1.1148922228,
				"z": -0.438713376,
				"element": "C" 
			},
			{
				"x": -1.9281134664,
				"y": 1.8683529535,
				"z": 1.1866720249,
				"element": "Cl" 
			},
			{
				"x": -0.0133114903,
				"y": 1.1765222572,
				"z": -0.7086156263,
				"element": "C" 
			},
			{
				"x": 0.3855904691,
				"y": 2.0226983313,
				"z": -1.5057275945,
				"element": "O" 
			},
			{
				"x": 0.8699698521,
				"y": 0.2882653662,
				"z": -0.1366534863,
				"element": "N" 
			},
			{
				"x": 2.2854018087,
				"y": 0.4766783975,
				"z": -0.5006233508,
				"element": "C" 
			},
			{
				"x": 2.6178741738,
				"y": 0.1157267671,
				"z": -1.9661768087,
				"element": "C" 
			},
			{
				"x": 2.3396928296,
				"y": -1.2798896069,
				"z": -2.3063286605,
				"element": "C" 
			},
			{
				"x": 2.1024776704,
				"y": -2.3876398316,
				"z": -2.5615177589,
				"element": "N" 
			},
			{
				"x": 0.5876636056,
				"y": -0.6475880946,
				"z": 0.9270034871,
				"element": "C" 
			},
			{
				"x": 0.4956085213,
				"y": -2.016007157,
				"z": 0.6451350499,
				"element": "C" 
			},
			{
				"x": 0.2939166505,
				"y": -2.9250227191,
				"z": 1.6847376884,
				"element": "C" 
			},
			{
				"x": 0.1904082252,
				"y": -2.4756974235,
				"z": 3.0028835548,
				"element": "C" 
			},
			{
				"x": 0.2972119603,
				"y": -1.1123988826,
				"z": 3.2827575785,
				"element": "C" 
			},
			{
				"x": 0.5030363528,
				"y": -0.1978591491,
				"z": 2.2489936922,
				"element": "C" 
			},
			{
				"x": -1.9615915459,
				"y": -0.6620705153,
				"z": -1.567930762,
				"element": "H" 
			},
			{
				"x": -1.9487889342,
				"y": -0.9372736139,
				"z": 0.1856438109,
				"element": "H" 
			},
			{
				"x": -3.3079698796,
				"y": -0.0844416107,
				"z": -0.5683134249,
				"element": "H" 
			},
			{
				"x": -1.9281115841,
				"y": 1.8309440471,
				"z": -1.1551953273,
				"element": "H" 
			},
			{
				"x": 2.5526852246,
				"y": 1.5287521996,
				"z": -0.3613773542,
				"element": "H" 
			},
			{
				"x": 2.8793083659,
				"y": -0.1320501453,
				"z": 0.1822496779,
				"element": "H" 
			},
			{
				"x": 3.6809038958,
				"y": 0.3154723976,
				"z": -2.1448593713,
				"element": "H" 
			},
			{
				"x": 2.0423335673,
				"y": 0.7689864178,
				"z": -2.627242297,
				"element": "H" 
			},
			{
				"x": 0.5873351227,
				"y": -2.3605458632,
				"z": -0.379326394,
				"element": "H" 
			},
			{
				"x": 0.2204065326,
				"y": -3.9850848881,
				"z": 1.4612297199,
				"element": "H" 
			},
			{
				"x": 0.0323122306,
				"y": -3.1858432798,
				"z": 3.8091977029,
				"element": "H" 
			},
			{
				"x": 0.2238877187,
				"y": -0.7571930617,
				"z": 4.3062579671,
				"element": "H" 
			},
			{
				"x": 0.5899839893,
				"y": 0.8622439689,
				"z": 2.4587367414,
				"element": "H" 
			}
		],
		 "valence_orbital": [ 
			{
				"type": "occ",
				"energy": -0.30192,
				"method": "rhf"
			},
			{
				"type": "occ",
				"energy": -0.27578,
				"method": "rhf"
			},
			{
				"type": "occ",
				"energy": -0.26719,
				"method": "rhf"
			},
			{
				"type": "occ",
				"energy": -0.26402,
				"method": "rhf"
			},
			{
				"type": "occ",
				"energy": -0.25496,
				"method": "rhf"
			},
			{
				"type": "unocc",
				"energy": -0.02948,
				"method": "rhf"
			},
			{
				"type": "unocc",
				"energy": -0.01983,
				"method": "rhf"
			},
			{
				"type": "unocc",
				"energy": -0.01554,
				"method": "rhf"
			},
			{
				"type": "unocc",
				"energy": 0.02471,
				"method": "rhf"
			},
			{
				"type": "unocc",
				"energy": 0.03631,
				"method": "rhf"
			}
		],
		"cosmo_sigma_profile": { 
			"-0.025": 0.0,
			"-0.024": 0.0,
			"-0.023": 0.0,
			"-0.022": 0.0,
			"-0.021": 0.0,
			"-0.02": 0.0,
			"-0.019": 0.0,
			"-0.018": 0.0,
			"-0.017": 0.0,
			"-0.016": 0.0,
			"-0.015": 0.0,
			"-0.014": 0.0,
			"-0.013": 0.0,
			"-0.012": 0.0,
			"-0.011": 0.0,
			"-0.01": 0.0,
			"-0.009": 1.95263026654,
			"-0.008": 4.46568256594,
			"-0.007": 9.72844130716,
			"-0.006": 19.8874977724,
			"-0.005": 23.4544416382,
			"-0.004": 24.5035505304,
			"-0.003": 21.4053455095,
			"-0.002": 19.1369148668,
			"-0.001": 19.8546656596,
			"0.0": 15.0092933648,
			"0.001": 13.9648969543,
			"0.002": 16.7988751669,
			"0.003": 15.4964503547,
			"0.004": 15.9261231327,
			"0.005": 12.3324982886,
			"0.006": 9.68305676705,
			"0.007": 3.6237962617,
			"0.008": 4.20215273987,
			"0.009": 3.88798912207,
			"0.01": 4.10832399602,
			"0.011": 4.04085605255,
			"0.012": 5.24329981057,
			"0.013": 3.90759135016,
			"0.014": 0.490341174624,
			"0.015": 0.0,
			"0.016": 0.0,
			"0.017": 0.0,
			"0.018": 0.0,
			"0.019": 0.0,
			"0.02": 0.0,
			"0.021": 0.0,
			"0.022": 0.0,
			"0.023": 0.0,
			"0.024": 0.0,
			"0.025": 0.0
		}
	}
}
