{
	 "smiles": "CC(C)(C)CC#C", 
	 "Tm": 198.15, 
	 "num_atms": 19, 
	 "gaussian": { 
		 "optdone": 1, 
		 "sigma_profile": "yes", 
		 "theory": "DFT", 
		 "functional": "B3LYP", 
		 "basiset": "6-31G**", 
		 "properties": { 
			 "R2extent": 966.0892, 
			 "electric_dipole_moment_norm": 0.604657010213, 
			 "electric_quadrupole_moment_norm": 2.52843381563, 
			 "total_energy": -273.921478607, 
			 "HOMO_LUMO_gap": 0.3096, 
			 "cosmo_polarized_energy": -3.53, 
			 "cosmo_cavitation_energy": 21.46, 
			 "cosmo_dispersion_energy": -14.63, 
			 "cosmo_repulsion_energy": 1.22, 
			 "cosmo_total_nonelectrostatic_energy": 8.04, 
			 "SMD_solvation_energy": 5.24 
		},
		"coords": [
			{
				"x": -0.1441436263,
				"y": 1.0280151061,
				"z": -0.6493725102,
				"element": "C" 
			},
			{
				"x": -0.7814717268,
				"y": -0.0760562372,
				"z": 0.212967698,
				"element": "C" 
			},
			{
				"x": -1.9332798257,
				"y": -0.7447690883,
				"z": -0.5582642762,
				"element": "C" 
			},
			{
				"x": -1.3173547754,
				"y": 0.5321572451,
				"z": 1.5216295237,
				"element": "C" 
			},
			{
				"x": 0.2939133262,
				"y": -1.1419664842,
				"z": 0.589105958,
				"element": "C" 
			},
			{
				"x": 0.9123661959,
				"y": -1.8248961586,
				"z": -0.547307954,
				"element": "C" 
			},
			{
				"x": 1.4210862825,
				"y": -2.3869724938,
				"z": -1.4882897464,
				"element": "C" 
			},
			{
				"x": -0.8869478707,
				"y": 1.7877189273,
				"z": -0.9162500546,
				"element": "H" 
			},
			{
				"x": 0.2690358768,
				"y": 0.6154472851,
				"z": -1.5746759819,
				"element": "H" 
			},
			{
				"x": 0.6687619008,
				"y": 1.5298372589,
				"z": -0.1117027438,
				"element": "H" 
			},
			{
				"x": -1.5719042104,
				"y": -1.2088709988,
				"z": -1.4808241691,
				"element": "H" 
			},
			{
				"x": -2.4133243999,
				"y": -1.5238694501,
				"z": 0.0452925699,
				"element": "H" 
			},
			{
				"x": -2.6996786561,
				"y": -0.0085071184,
				"z": -0.8240910213,
				"element": "H" 
			},
			{
				"x": -2.0797664297,
				"y": 1.2904313692,
				"z": 1.3128751447,
				"element": "H" 
			},
			{
				"x": -0.5165885209,
				"y": 1.0136173172,
				"z": 2.0946495239,
				"element": "H" 
			},
			{
				"x": -1.7744336724,
				"y": -0.2333467889,
				"z": 2.1591702987,
				"element": "H" 
			},
			{
				"x": 1.0799727356,
				"y": -0.6560612212,
				"z": 1.1835018991,
				"element": "H" 
			},
			{
				"x": -0.1668948428,
				"y": -1.891482855,
				"z": 1.247266026,
				"element": "H" 
			},
			{
				"x": 1.8733522394,
				"y": -2.8872256143,
				"z": -2.3127801845,
				"element": "H" 
			}
		],
		 "valence_orbital": [ 
			{
				"type": "occ",
				"energy": -0.3358,
				"method": "rhf"
			},
			{
				"type": "occ",
				"energy": -0.32413,
				"method": "rhf"
			},
			{
				"type": "occ",
				"energy": -0.32381,
				"method": "rhf"
			},
			{
				"type": "occ",
				"energy": -0.25786,
				"method": "rhf"
			},
			{
				"type": "occ",
				"energy": -0.25786,
				"method": "rhf"
			},
			{
				"type": "unocc",
				"energy": 0.05174,
				"method": "rhf"
			},
			{
				"type": "unocc",
				"energy": 0.0614,
				"method": "rhf"
			},
			{
				"type": "unocc",
				"energy": 0.08632,
				"method": "rhf"
			},
			{
				"type": "unocc",
				"energy": 0.13011,
				"method": "rhf"
			},
			{
				"type": "unocc",
				"energy": 0.1375,
				"method": "rhf"
			}
		],
		"cosmo_sigma_profile": { 
			"-0.025": 0.0,
			"-0.024": 0.0,
			"-0.023": 0.0,
			"-0.022": 0.0,
			"-0.021": 0.0,
			"-0.02": 0.0,
			"-0.019": 0.0,
			"-0.018": 0.0,
			"-0.017": 0.0,
			"-0.016": 0.0,
			"-0.015": 0.0,
			"-0.014": 0.0,
			"-0.013": 0.0,
			"-0.012": 0.0,
			"-0.011": 1.05462379432,
			"-0.01": 0.95111135125,
			"-0.009": 1.00797015536,
			"-0.008": 0.984381290474,
			"-0.007": 1.54064633925,
			"-0.006": 0.583673910821,
			"-0.005": 3.59337107423,
			"-0.004": 7.09138411491,
			"-0.003": 16.5618166769,
			"-0.002": 24.4468265507,
			"-0.001": 19.8173840864,
			"0.0": 19.1153814499,
			"0.001": 24.3819414969,
			"0.002": 15.3291948738,
			"0.003": 5.4748614005,
			"0.004": 5.54064585065,
			"0.005": 6.27111468281,
			"0.006": 5.02307516517,
			"0.007": 5.68002910969,
			"0.008": 2.91742123793,
			"0.009": 0.0,
			"0.01": 0.0,
			"0.011": 0.0,
			"0.012": 0.0,
			"0.013": 0.0,
			"0.014": 0.0,
			"0.015": 0.0,
			"0.016": 0.0,
			"0.017": 0.0,
			"0.018": 0.0,
			"0.019": 0.0,
			"0.02": 0.0,
			"0.021": 0.0,
			"0.022": 0.0,
			"0.023": 0.0,
			"0.024": 0.0,
			"0.025": 0.0
		}
	}
}
