{
	 "smiles": "O=C1NC(=O)C2=CC3=C(N=C2N1)C(=O)OCC3", 
	 "Tm": 654.15, 
	 "num_atms": 24, 
	 "gaussian": { 
		 "optdone": 1, 
		 "sigma_profile": "yes", 
		 "theory": "DFT", 
		 "functional": "B3LYP", 
		 "basiset": "6-31G**", 
		 "properties": { 
			 "R2extent": 6236.7138, 
			 "electric_dipole_moment_norm": 4.52543122586, 
			 "electric_quadrupole_moment_norm": 19.4212751631, 
			 "total_energy": -850.493206772, 
			 "HOMO_LUMO_gap": 0.16303, 
			 "cosmo_polarized_energy": -24.31, 
			 "cosmo_cavitation_energy": 29.25, 
			 "cosmo_dispersion_energy": -22.15, 
			 "cosmo_repulsion_energy": 1.7, 
			 "cosmo_total_nonelectrostatic_energy": 8.8, 
			 "SMD_solvation_energy": 5.94 
		},
		"coords": [
			{
				"x": 1.1053881543,
				"y": -2.8110899589,
				"z": 5.6759747436,
				"element": "O" 
			},
			{
				"x": 0.9705203955,
				"y": -2.3413310494,
				"z": 4.5639295927,
				"element": "C" 
			},
			{
				"x": 1.1850065519,
				"y": -3.08261147,
				"z": 3.3981183359,
				"element": "N" 
			},
			{
				"x": 1.0660391918,
				"y": -2.6666096217,
				"z": 2.0723512907,
				"element": "C" 
			},
			{
				"x": 1.2874982607,
				"y": -3.4206292861,
				"z": 1.1395030728,
				"element": "O" 
			},
			{
				"x": 0.6556161148,
				"y": -1.2541144483,
				"z": 1.931842691,
				"element": "C" 
			},
			{
				"x": 0.491502573,
				"y": -0.6594583667,
				"z": 0.6847565687,
				"element": "C" 
			},
			{
				"x": 0.1110607073,
				"y": 0.6800323224,
				"z": 0.6095157584,
				"element": "C" 
			},
			{
				"x": -0.0984918437,
				"y": 1.3621547846,
				"z": 1.8229450426,
				"element": "C" 
			},
			{
				"x": 0.0557076241,
				"y": 0.8128304649,
				"z": 3.0323477393,
				"element": "N" 
			},
			{
				"x": 0.4274055094,
				"y": -0.4642969363,
				"z": 3.0774600572,
				"element": "C" 
			},
			{
				"x": 0.5932111275,
				"y": -1.029471295,
				"z": 4.3283643731,
				"element": "N" 
			},
			{
				"x": -0.5851762031,
				"y": 2.7951849727,
				"z": 1.8154230456,
				"element": "C" 
			},
			{
				"x": -1.0744823545,
				"y": 3.3336534943,
				"z": 2.7748621086,
				"element": "O" 
			},
			{
				"x": -0.5015622452,
				"y": 3.4597630828,
				"z": 0.6305107525,
				"element": "O" 
			},
			{
				"x": 0.2739935476,
				"y": 2.8990771311,
				"z": -0.4463295415,
				"element": "C" 
			},
			{
				"x": -0.0796757712,
				"y": 1.4367992682,
				"z": -0.6801979324,
				"element": "C" 
			},
			{
				"x": 1.4632187114,
				"y": -4.0451654913,
				"z": 3.5484675118,
				"element": "H" 
			},
			{
				"x": 0.6718073695,
				"y": -1.2575940021,
				"z": -0.2037239123,
				"element": "H" 
			},
			{
				"x": 0.4191512376,
				"y": -0.4501820366,
				"z": 5.1398546158,
				"element": "H" 
			},
			{
				"x": 0.0456395914,
				"y": 3.5198783276,
				"z": -1.314477873,
				"element": "H" 
			},
			{
				"x": 1.3408967556,
				"y": 3.0060634034,
				"z": -0.2126754219,
				"element": "H" 
			},
			{
				"x": 0.54967694,
				"y": 1.0222050106,
				"z": -1.4749287609,
				"element": "H" 
			},
			{
				"x": -1.1210519457,
				"y": 1.3623116997,
				"z": -1.0208938584,
				"element": "H" 
			}
		],
		 "valence_orbital": [ 
			{
				"type": "occ",
				"energy": -0.30345,
				"method": "rhf"
			},
			{
				"type": "occ",
				"energy": -0.30115,
				"method": "rhf"
			},
			{
				"type": "occ",
				"energy": -0.2809,
				"method": "rhf"
			},
			{
				"type": "occ",
				"energy": -0.27819,
				"method": "rhf"
			},
			{
				"type": "occ",
				"energy": -0.26024,
				"method": "rhf"
			},
			{
				"type": "unocc",
				"energy": -0.09721,
				"method": "rhf"
			},
			{
				"type": "unocc",
				"energy": -0.04884,
				"method": "rhf"
			},
			{
				"type": "unocc",
				"energy": -0.01085,
				"method": "rhf"
			},
			{
				"type": "unocc",
				"energy": 0.0172,
				"method": "rhf"
			},
			{
				"type": "unocc",
				"energy": 0.06986,
				"method": "rhf"
			}
		],
		"cosmo_sigma_profile": { 
			"-0.025": 0.0,
			"-0.024": 0.0,
			"-0.023": 0.0,
			"-0.022": 0.0,
			"-0.021": 0.0,
			"-0.02": 0.0,
			"-0.019": 0.0,
			"-0.018": 0.0,
			"-0.017": 0.314508030126,
			"-0.016": 2.06156533711,
			"-0.015": 1.30100659746,
			"-0.014": 1.90063900094,
			"-0.013": 1.57360621592,
			"-0.012": 1.35193324942,
			"-0.011": 1.45605887996,
			"-0.01": 1.66842404296,
			"-0.009": 2.13510056889,
			"-0.008": 6.17547347879,
			"-0.007": 14.7178348084,
			"-0.006": 21.219210656,
			"-0.005": 17.7694461837,
			"-0.004": 18.4456046444,
			"-0.003": 19.2576363353,
			"-0.002": 17.9206898512,
			"-0.001": 11.0129962548,
			"0.0": 6.36719549515,
			"0.001": 4.89777967895,
			"0.002": 5.551255804,
			"0.003": 5.38492543822,
			"0.004": 4.11257431923,
			"0.005": 4.99238242377,
			"0.006": 4.19518621014,
			"0.007": 4.07627124362,
			"0.008": 6.16061776751,
			"0.009": 6.46484811494,
			"0.01": 8.98317308079,
			"0.011": 13.4151414934,
			"0.012": 14.0998333161,
			"0.013": 2.84700788023,
			"0.014": 1.23689875149,
			"0.015": 1.10287614913,
			"0.016": 0.354056079933,
			"0.017": 0.0,
			"0.018": 0.0,
			"0.019": 0.0,
			"0.02": 0.0,
			"0.021": 0.0,
			"0.022": 0.0,
			"0.023": 0.0,
			"0.024": 0.0,
			"0.025": 0.0
		}
	}
}
