{
	 "smiles": "CC(=O)CN1C=NC(C)=C1C", 
	 "Tm": 354.15, 
	 "num_atms": 23, 
	 "gaussian": { 
		 "optdone": 1, 
		 "sigma_profile": "yes", 
		 "theory": "DFT", 
		 "functional": "B3LYP", 
		 "basiset": "6-31G**", 
		 "properties": { 
			 "R2extent": 2246.8999, 
			 "electric_dipole_moment_norm": 0.767580464837, 
			 "electric_quadrupole_moment_norm": 18.1506159893, 
			 "total_energy": -496.812575366, 
			 "HOMO_LUMO_gap": 0.18197, 
			 "cosmo_polarized_energy": -13.8, 
			 "cosmo_cavitation_energy": 26.26, 
			 "cosmo_dispersion_energy": -18.27, 
			 "cosmo_repulsion_energy": 1.48, 
			 "cosmo_total_nonelectrostatic_energy": 9.47, 
			 "SMD_solvation_energy": 4.04 
		},
		"coords": [
			{
				"x": 1.4928099583,
				"y": 0.0375486043,
				"z": -2.0071809804,
				"element": "C" 
			},
			{
				"x": 0.6907351298,
				"y": -1.1691605667,
				"z": -2.4421628837,
				"element": "C" 
			},
			{
				"x": 0.7180826363,
				"y": -1.6125462656,
				"z": -3.5721191656,
				"element": "O" 
			},
			{
				"x": -0.1633363119,
				"y": -1.8886741043,
				"z": -1.378185985,
				"element": "C" 
			},
			{
				"x": -0.6757065128,
				"y": -1.0449962646,
				"z": -0.3183864285,
				"element": "N" 
			},
			{
				"x": -0.1828952819,
				"y": -0.9430945452,
				"z": 0.9561920286,
				"element": "C" 
			},
			{
				"x": -0.8162399256,
				"y": -0.040069696,
				"z": 1.6649650378,
				"element": "N" 
			},
			{
				"x": -1.7756505932,
				"y": 0.4874223105,
				"z": 0.8198346458,
				"element": "C" 
			},
			{
				"x": -2.7111471889,
				"y": 1.5541635063,
				"z": 1.2988724787,
				"element": "C" 
			},
			{
				"x": -1.7112875421,
				"y": -0.1165116531,
				"z": -0.4194419007,
				"element": "C" 
			},
			{
				"x": -2.5188182543,
				"y": 0.0509215996,
				"z": -1.666023579,
				"element": "C" 
			},
			{
				"x": 0.8260546508,
				"y": 0.8456137146,
				"z": -1.6874420513,
				"element": "H" 
			},
			{
				"x": 2.1189795423,
				"y": -0.2061569451,
				"z": -1.1413547187,
				"element": "H" 
			},
			{
				"x": 2.1155725731,
				"y": 0.3751483214,
				"z": -2.8360544554,
				"element": "H" 
			},
			{
				"x": -0.9742517692,
				"y": -2.4049362407,
				"z": -1.8989706092,
				"element": "H" 
			},
			{
				"x": 0.4692752131,
				"y": -2.6596012705,
				"z": -0.9215295907,
				"element": "H" 
			},
			{
				"x": 0.6345648436,
				"y": -1.5647382181,
				"z": 1.2999166578,
				"element": "H" 
			},
			{
				"x": -3.3363169271,
				"y": 1.1882827472,
				"z": 2.121115692,
				"element": "H" 
			},
			{
				"x": -3.3732832707,
				"y": 1.9024770326,
				"z": 0.5013344309,
				"element": "H" 
			},
			{
				"x": -2.1540553445,
				"y": 2.4171861614,
				"z": 1.6791360087,
				"element": "H" 
			},
			{
				"x": -3.2555396394,
				"y": 0.84473201,
				"z": -1.5257922231,
				"element": "H" 
			},
			{
				"x": -3.068626083,
				"y": -0.8615546621,
				"z": -1.9304198739,
				"element": "H" 
			},
			{
				"x": -1.9075199028,
				"y": 0.3226444242,
				"z": -2.535902535,
				"element": "H" 
			}
		],
		 "valence_orbital": [ 
			{
				"type": "occ",
				"energy": -0.3609,
				"method": "rhf"
			},
			{
				"type": "occ",
				"energy": -0.28139,
				"method": "rhf"
			},
			{
				"type": "occ",
				"energy": -0.26149,
				"method": "rhf"
			},
			{
				"type": "occ",
				"energy": -0.24952,
				"method": "rhf"
			},
			{
				"type": "occ",
				"energy": -0.21393,
				"method": "rhf"
			},
			{
				"type": "unocc",
				"energy": -0.03196,
				"method": "rhf"
			},
			{
				"type": "unocc",
				"energy": 0.02629,
				"method": "rhf"
			},
			{
				"type": "unocc",
				"energy": 0.06693,
				"method": "rhf"
			},
			{
				"type": "unocc",
				"energy": 0.07102,
				"method": "rhf"
			},
			{
				"type": "unocc",
				"energy": 0.10226,
				"method": "rhf"
			}
		],
		"cosmo_sigma_profile": { 
			"-0.025": 0.0,
			"-0.024": 0.0,
			"-0.023": 0.0,
			"-0.022": 0.0,
			"-0.021": 0.0,
			"-0.02": 0.0,
			"-0.019": 0.0,
			"-0.018": 0.0,
			"-0.017": 0.0,
			"-0.016": 0.0,
			"-0.015": 0.0,
			"-0.014": 0.0,
			"-0.013": 0.0,
			"-0.012": 0.0,
			"-0.011": 0.0,
			"-0.01": 1.36706048005,
			"-0.009": 4.9797171802,
			"-0.008": 5.06481291879,
			"-0.007": 6.30317728069,
			"-0.006": 9.87206670492,
			"-0.005": 16.1495093434,
			"-0.004": 17.2903645199,
			"-0.003": 17.9439952982,
			"-0.002": 19.5972198334,
			"-0.001": 21.7448921122,
			"0.0": 16.2044698138,
			"0.001": 11.4884950307,
			"0.002": 6.66673748694,
			"0.003": 5.98116123801,
			"0.004": 6.25061727781,
			"0.005": 5.00278206259,
			"0.006": 3.41044240648,
			"0.007": 3.43538293273,
			"0.008": 2.61489864516,
			"0.009": 3.81373169553,
			"0.01": 4.41627329548,
			"0.011": 5.55176874243,
			"0.012": 4.11607728729,
			"0.013": 1.82020957968,
			"0.014": 1.27969714978,
			"0.015": 1.17615750387,
			"0.016": 0.920101104361,
			"0.017": 1.07807103095,
			"0.018": 1.07641439162,
			"0.019": 0.262265708019,
			"0.02": 0.0,
			"0.021": 0.0,
			"0.022": 0.0,
			"0.023": 0.0,
			"0.024": 0.0,
			"0.025": 0.0
		}
	}
}
