{
	 "smiles": "CC(=O)C1=CC=C(C=C1)N1CCOC1=O", 
	 "Tm": 423.15, 
	 "num_atms": 26, 
	 "gaussian": { 
		 "optdone": 1, 
		 "sigma_profile": "yes", 
		 "theory": "DFT", 
		 "functional": "B3LYP", 
		 "basiset": "6-31G**", 
		 "properties": { 
			 "R2extent": 4420.0973, 
			 "electric_dipole_moment_norm": 3.55704450633, 
			 "electric_quadrupole_moment_norm": 33.6973038975, 
			 "total_energy": -706.24164107, 
			 "HOMO_LUMO_gap": 0.17832, 
			 "cosmo_polarized_energy": -17.05, 
			 "cosmo_cavitation_energy": 29.74, 
			 "cosmo_dispersion_energy": -22.17, 
			 "cosmo_repulsion_energy": 1.71, 
			 "cosmo_total_nonelectrostatic_energy": 9.27, 
			 "SMD_solvation_energy": 6.58 
		},
		"coords": [
			{
				"x": -0.1999689599,
				"y": -3.3128193557,
				"z": 2.2114512801,
				"element": "C" 
			},
			{
				"x": -0.2620753096,
				"y": -2.9821030242,
				"z": 0.7290541074,
				"element": "C" 
			},
			{
				"x": -0.3930825319,
				"y": -3.8718512323,
				"z": -0.1002431526,
				"element": "O" 
			},
			{
				"x": -0.1609903356,
				"y": -1.5525871429,
				"z": 0.3050257319,
				"element": "C" 
			},
			{
				"x": -0.0038607412,
				"y": -0.4871522598,
				"z": 1.2047441627,
				"element": "C" 
			},
			{
				"x": 0.0876890398,
				"y": 0.8295167651,
				"z": 0.7684358584,
				"element": "C" 
			},
			{
				"x": 0.0186936756,
				"y": 1.1152951382,
				"z": -0.6080040092,
				"element": "C" 
			},
			{
				"x": -0.1396940247,
				"y": 0.0524071266,
				"z": -1.5187725001,
				"element": "C" 
			},
			{
				"x": -0.2270610236,
				"y": -1.2555031652,
				"z": -1.0632836859,
				"element": "C" 
			},
			{
				"x": 0.1254723072,
				"y": 2.4310337371,
				"z": -1.1007359118,
				"element": "N" 
			},
			{
				"x": 0.1023232229,
				"y": 2.7420935852,
				"z": -2.5263740749,
				"element": "C" 
			},
			{
				"x": 0.4134666154,
				"y": 4.2452199164,
				"z": -2.5090108508,
				"element": "C" 
			},
			{
				"x": 0.0829596405,
				"y": 4.6726282579,
				"z": -1.180916463,
				"element": "O" 
			},
			{
				"x": 0.0215404741,
				"y": 3.5970855438,
				"z": -0.3421564691,
				"element": "C" 
			},
			{
				"x": -0.1063612212,
				"y": 3.7111055724,
				"z": 0.852214308,
				"element": "O" 
			},
			{
				"x": -0.288761124,
				"y": -4.3928288894,
				"z": 2.3316568339,
				"element": "H" 
			},
			{
				"x": 0.7448636936,
				"y": -2.9747284154,
				"z": 2.6512951856,
				"element": "H" 
			},
			{
				"x": -1.00965462,
				"y": -2.8182302293,
				"z": 2.7593770038,
				"element": "H" 
			},
			{
				"x": 0.0517020749,
				"y": -0.6768236091,
				"z": 2.2719549911,
				"element": "H" 
			},
			{
				"x": 0.2004271052,
				"y": 1.6378437375,
				"z": 1.4761366512,
				"element": "H" 
			},
			{
				"x": -0.2013194515,
				"y": 0.2424415479,
				"z": -2.5839483175,
				"element": "H" 
			},
			{
				"x": -0.3509861677,
				"y": -2.0771976476,
				"z": -1.7607561337,
				"element": "H" 
			},
			{
				"x": 0.8586475308,
				"y": 2.1731865526,
				"z": -3.0740970727,
				"element": "H" 
			},
			{
				"x": -0.8813462114,
				"y": 2.5229395621,
				"z": -2.9623924244,
				"element": "H" 
			},
			{
				"x": -0.1850696721,
				"y": 4.8186299662,
				"z": -3.2188695436,
				"element": "H" 
			},
			{
				"x": 1.4756460143,
				"y": 4.4440979618,
				"z": -2.6887855049,
				"element": "H" 
			}
		],
		 "valence_orbital": [ 
			{
				"type": "occ",
				"energy": -0.30739,
				"method": "rhf"
			},
			{
				"type": "occ",
				"energy": -0.28771,
				"method": "rhf"
			},
			{
				"type": "occ",
				"energy": -0.26347,
				"method": "rhf"
			},
			{
				"type": "occ",
				"energy": -0.24445,
				"method": "rhf"
			},
			{
				"type": "occ",
				"energy": -0.23129,
				"method": "rhf"
			},
			{
				"type": "unocc",
				"energy": -0.05297,
				"method": "rhf"
			},
			{
				"type": "unocc",
				"energy": -0.01207,
				"method": "rhf"
			},
			{
				"type": "unocc",
				"energy": 0.02231,
				"method": "rhf"
			},
			{
				"type": "unocc",
				"energy": 0.05723,
				"method": "rhf"
			},
			{
				"type": "unocc",
				"energy": 0.06769,
				"method": "rhf"
			}
		],
		"cosmo_sigma_profile": { 
			"-0.025": 0.0,
			"-0.024": 0.0,
			"-0.023": 0.0,
			"-0.022": 0.0,
			"-0.021": 0.0,
			"-0.02": 0.0,
			"-0.019": 0.0,
			"-0.018": 0.0,
			"-0.017": 0.0,
			"-0.016": 0.0,
			"-0.015": 0.0,
			"-0.014": 0.0,
			"-0.013": 0.0,
			"-0.012": 0.0,
			"-0.011": 0.0,
			"-0.01": 0.0,
			"-0.009": 0.0,
			"-0.008": 4.55469620581,
			"-0.007": 19.8568737125,
			"-0.006": 23.1571499854,
			"-0.005": 21.018834719,
			"-0.004": 15.988211483,
			"-0.003": 13.0817843889,
			"-0.002": 13.6073784453,
			"-0.001": 14.3068705197,
			"0.0": 13.7033858008,
			"0.001": 10.2541018888,
			"0.002": 13.0148682599,
			"0.003": 15.7147033514,
			"0.004": 13.1265349393,
			"0.005": 3.70089703197,
			"0.006": 4.72742019406,
			"0.007": 4.00377049575,
			"0.008": 4.62614297431,
			"0.009": 5.07860629342,
			"0.01": 6.11368219412,
			"0.011": 6.09834718643,
			"0.012": 7.54559563262,
			"0.013": 3.41841739415,
			"0.014": 0.463154489298,
			"0.015": 0.0,
			"0.016": 0.0,
			"0.017": 0.0,
			"0.018": 0.0,
			"0.019": 0.0,
			"0.02": 0.0,
			"0.021": 0.0,
			"0.022": 0.0,
			"0.023": 0.0,
			"0.024": 0.0,
			"0.025": 0.0
		}
	}
}
