{
	 "smiles": "CN1C(=O)C(C2=NNC(=O)C2=C/C2=CC=C(Cl)C=C2Cl)=C(O)C2=CC=CC=C12", 
	 "Tm": 553.15, 
	 "num_atms": 41, 
	 "gaussian": { 
		 "optdone": 1, 
		 "sigma_profile": "yes", 
		 "theory": "DFT", 
		 "functional": "B3LYP", 
		 "basiset": "6-31G**", 
		 "properties": { 
			 "R2extent": 14805.5487, 
			 "electric_dipole_moment_norm": 6.80204489474, 
			 "electric_quadrupole_moment_norm": 13.8687619033, 
			 "total_energy": -2080.26116089, 
			 "HOMO_LUMO_gap": 0.1228, 
			 "cosmo_polarized_energy": -24.65, 
			 "cosmo_cavitation_energy": 49.32, 
			 "cosmo_dispersion_energy": -34.58, 
			 "cosmo_repulsion_energy": 2.56, 
			 "cosmo_total_nonelectrostatic_energy": 17.3, 
			 "SMD_solvation_energy": 7.84 
		},
		"coords": [
			{
				"x": 0.1403380473,
				"y": -1.2857283542,
				"z": -3.6425346668,
				"element": "C" 
			},
			{
				"x": 0.433374436,
				"y": -1.631049757,
				"z": -2.2512803188,
				"element": "N" 
			},
			{
				"x": 1.1772057886,
				"y": -0.6878407834,
				"z": -1.5069055554,
				"element": "C" 
			},
			{
				"x": 1.5432172399,
				"y": 0.3666536498,
				"z": -2.0230731612,
				"element": "O" 
			},
			{
				"x": 1.4558094516,
				"y": -1.0265127817,
				"z": -0.1137028593,
				"element": "C" 
			},
			{
				"x": 2.2410535319,
				"y": -0.0531623573,
				"z": 0.6746235118,
				"element": "C" 
			},
			{
				"x": 3.4180071024,
				"y": -0.3686275544,
				"z": 1.1359088319,
				"element": "N" 
			},
			{
				"x": 3.8730581572,
				"y": 0.727854578,
				"z": 1.8345955776,
				"element": "N" 
			},
			{
				"x": 3.0231714316,
				"y": 1.8105606371,
				"z": 1.8399430819,
				"element": "C" 
			},
			{
				"x": 3.2616646144,
				"y": 2.8851646821,
				"z": 2.3877246523,
				"element": "O" 
			},
			{
				"x": 1.8459557137,
				"y": 1.3084119871,
				"z": 1.058530313,
				"element": "C" 
			},
			{
				"x": 0.6376457019,
				"y": 1.8536790834,
				"z": 0.7466866414,
				"element": "C" 
			},
			{
				"x": 0.0272336074,
				"y": 3.141932805,
				"z": 1.0243864547,
				"element": "C" 
			},
			{
				"x": 0.6989318432,
				"y": 4.1995339077,
				"z": 1.6808731422,
				"element": "C" 
			},
			{
				"x": 0.0911124207,
				"y": 5.4250607231,
				"z": 1.9190200087,
				"element": "C" 
			},
			{
				"x": -1.2238375378,
				"y": 5.6269154844,
				"z": 1.5015087184,
				"element": "C" 
			},
			{
				"x": -2.0070163919,
				"y": 7.1655294682,
				"z": 1.7930263621,
				"element": "Cl" 
			},
			{
				"x": -1.9351292082,
				"y": 4.6189007111,
				"z": 0.8522208083,
				"element": "C" 
			},
			{
				"x": -1.309928754,
				"y": 3.3983704915,
				"z": 0.6216257482,
				"element": "C" 
			},
			{
				"x": -2.2798228453,
				"y": 2.1761012289,
				"z": -0.1947706974,
				"element": "Cl" 
			},
			{
				"x": 1.0189775019,
				"y": -2.2056384471,
				"z": 0.4269670239,
				"element": "C" 
			},
			{
				"x": 1.2706468239,
				"y": -2.4540909127,
				"z": 1.7324118542,
				"element": "O" 
			},
			{
				"x": 0.3003534368,
				"y": -3.1742308179,
				"z": -0.3783626204,
				"element": "C" 
			},
			{
				"x": -0.1069276876,
				"y": -4.4259421243,
				"z": 0.1205469178,
				"element": "C" 
			},
			{
				"x": -0.8086328681,
				"y": -5.3271533875,
				"z": -0.6638837798,
				"element": "C" 
			},
			{
				"x": -1.1124469141,
				"y": -4.9840582744,
				"z": -1.9870888866,
				"element": "C" 
			},
			{
				"x": -0.7089738141,
				"y": -3.7664649532,
				"z": -2.5160153519,
				"element": "C" 
			},
			{
				"x": 0.009737761,
				"y": -2.8419219209,
				"z": -1.7294462262,
				"element": "C" 
			},
			{
				"x": -0.9402073379,
				"y": -1.2487862269,
				"z": -3.8122188891,
				"element": "H" 
			},
			{
				"x": 0.588401284,
				"y": -2.0143436776,
				"z": -4.3253325022,
				"element": "H" 
			},
			{
				"x": 0.5724964287,
				"y": -0.3039214846,
				"z": -3.8222237085,
				"element": "H" 
			},
			{
				"x": 4.7957494499,
				"y": 0.7134537347,
				"z": 2.2396804086,
				"element": "H" 
			},
			{
				"x": -0.000961598,
				"y": 1.1884955697,
				"z": 0.1747716131,
				"element": "H" 
			},
			{
				"x": 1.7203928513,
				"y": 4.031976598,
				"z": 2.0069060366,
				"element": "H" 
			},
			{
				"x": 0.6319350016,
				"y": 6.2174680003,
				"z": 2.423538366,
				"element": "H" 
			},
			{
				"x": -2.9567358345,
				"y": 4.7802683321,
				"z": 0.5323960319,
				"element": "H" 
			},
			{
				"x": 0.7591019279,
				"y": -3.2165827455,
				"z": 2.0299403894,
				"element": "H" 
			},
			{
				"x": 0.1484935492,
				"y": -4.7206613413,
				"z": 1.1358034566,
				"element": "H" 
			},
			{
				"x": -1.1103440783,
				"y": -6.2870603683,
				"z": -0.2586319027,
				"element": "H" 
			},
			{
				"x": -1.6632849825,
				"y": -5.677746387,
				"z": -2.6151613775,
				"element": "H" 
			},
			{
				"x": -0.9483152518,
				"y": -3.5312070151,
				"z": -3.5446034467,
				"element": "H" 
			}
		],
		 "valence_orbital": [ 
			{
				"type": "occ",
				"energy": -0.25822,
				"method": "rhf"
			},
			{
				"type": "occ",
				"energy": -0.25001,
				"method": "rhf"
			},
			{
				"type": "occ",
				"energy": -0.24363,
				"method": "rhf"
			},
			{
				"type": "occ",
				"energy": -0.2268,
				"method": "rhf"
			},
			{
				"type": "occ",
				"energy": -0.21573,
				"method": "rhf"
			},
			{
				"type": "unocc",
				"energy": -0.09293,
				"method": "rhf"
			},
			{
				"type": "unocc",
				"energy": -0.06174,
				"method": "rhf"
			},
			{
				"type": "unocc",
				"energy": -0.02319,
				"method": "rhf"
			},
			{
				"type": "unocc",
				"energy": -0.02048,
				"method": "rhf"
			},
			{
				"type": "unocc",
				"energy": 0.00031,
				"method": "rhf"
			}
		],
		"cosmo_sigma_profile": { 
			"-0.025": 0.0,
			"-0.024": 0.0,
			"-0.023": 0.0,
			"-0.022": 0.0,
			"-0.021": 0.0,
			"-0.02": 0.0105886659547,
			"-0.019": 0.734737396793,
			"-0.018": 0.783508286324,
			"-0.017": 1.14228308132,
			"-0.016": 1.97136092637,
			"-0.015": 2.32443842465,
			"-0.014": 1.94147466594,
			"-0.013": 1.15518318001,
			"-0.012": 2.11361232037,
			"-0.011": 1.99999542862,
			"-0.01": 2.52128562015,
			"-0.009": 2.37151815886,
			"-0.008": 4.65512061442,
			"-0.007": 10.1287609445,
			"-0.006": 18.1855903736,
			"-0.005": 18.8464466961,
			"-0.004": 17.8684535266,
			"-0.003": 22.5706771018,
			"-0.002": 31.2878189696,
			"-0.001": 39.7712961754,
			"0.0": 47.8922678664,
			"0.001": 34.8257365269,
			"0.002": 28.2025956862,
			"0.003": 31.522510025,
			"0.004": 21.5110575496,
			"0.005": 5.86380251815,
			"0.006": 5.31244117772,
			"0.007": 5.76241335583,
			"0.008": 6.1574324791,
			"0.009": 5.61396655598,
			"0.01": 5.1972143514,
			"0.011": 5.63467861355,
			"0.012": 6.89683737484,
			"0.013": 6.36892056744,
			"0.014": 3.12513136753,
			"0.015": 0.159611494817,
			"0.016": 0.0,
			"0.017": 0.0,
			"0.018": 0.0,
			"0.019": 0.0,
			"0.02": 0.0,
			"0.021": 0.0,
			"0.022": 0.0,
			"0.023": 0.0,
			"0.024": 0.0,
			"0.025": 0.0
		}
	}
}
