{
	 "smiles": "CC(=O)NCCNC(C)=O", 
	 "Tm": 447.15, 
	 "num_atms": 22, 
	 "gaussian": { 
		 "optdone": 1, 
		 "sigma_profile": "yes", 
		 "theory": "DFT", 
		 "functional": "B3LYP", 
		 "basiset": "6-31G**", 
		 "properties": { 
			 "R2extent": 2241.8076, 
			 "electric_dipole_moment_norm": 2.33790615081, 
			 "electric_quadrupole_moment_norm": 22.1725635261, 
			 "total_energy": -495.857646542, 
			 "HOMO_LUMO_gap": 0.26421, 
			 "cosmo_polarized_energy": -19.87, 
			 "cosmo_cavitation_energy": 26.0, 
			 "cosmo_dispersion_energy": -18.12, 
			 "cosmo_repulsion_energy": 1.51, 
			 "cosmo_total_nonelectrostatic_energy": 9.39, 
			 "SMD_solvation_energy": 5.48 
		},
		"coords": [
			{
				"x": 2.3261442138,
				"y": 1.6418918369,
				"z": -2.7425413453,
				"element": "C" 
			},
			{
				"x": 1.8418986133,
				"y": 1.5069769187,
				"z": -1.3073214276,
				"element": "C" 
			},
			{
				"x": 2.6075317694,
				"y": 1.5511383649,
				"z": -0.3513838906,
				"element": "O" 
			},
			{
				"x": 0.4914665064,
				"y": 1.3434231812,
				"z": -1.1472343354,
				"element": "N" 
			},
			{
				"x": -0.1041927078,
				"y": 1.2256351389,
				"z": 0.1758934837,
				"element": "C" 
			},
			{
				"x": -0.0224180336,
				"y": -0.202005624,
				"z": 0.7462424718,
				"element": "C" 
			},
			{
				"x": -0.6859443597,
				"y": -1.200173455,
				"z": -0.0767758485,
				"element": "N" 
			},
			{
				"x": -1.9816640483,
				"y": -1.6504222425,
				"z": -0.0039105149,
				"element": "C" 
			},
			{
				"x": -2.8061281791,
				"y": -1.1979244155,
				"z": 1.1931493677,
				"element": "C" 
			},
			{
				"x": -2.4349034503,
				"y": -2.4017750094,
				"z": -0.858134655,
				"element": "O" 
			},
			{
				"x": 2.7961883888,
				"y": 2.622114859,
				"z": -2.8621445467,
				"element": "H" 
			},
			{
				"x": 3.0963476605,
				"y": 0.8884961804,
				"z": -2.9268692791,
				"element": "H" 
			},
			{
				"x": 1.5349333312,
				"y": 1.5352927821,
				"z": -3.4898682493,
				"element": "H" 
			},
			{
				"x": -0.1032115373,
				"y": 1.2783794529,
				"z": -1.9583042274,
				"element": "H" 
			},
			{
				"x": -1.1481774282,
				"y": 1.5481523494,
				"z": 0.1092265337,
				"element": "H" 
			},
			{
				"x": 0.4284481159,
				"y": 1.9053499806,
				"z": 0.8478807321,
				"element": "H" 
			},
			{
				"x": -0.4510140263,
				"y": -0.2141722559,
				"z": 1.7522224032,
				"element": "H" 
			},
			{
				"x": 1.0332666268,
				"y": -0.4718518766,
				"z": 0.8439699383,
				"element": "H" 
			},
			{
				"x": -0.1983474769,
				"y": -1.5297585546,
				"z": -0.8994017159,
				"element": "H" 
			},
			{
				"x": -2.8884287258,
				"y": -0.1073011235,
				"z": 1.2481458184,
				"element": "H" 
			},
			{
				"x": -2.3638277058,
				"y": -1.5448392745,
				"z": 2.1332895579,
				"element": "H" 
			},
			{
				"x": -3.8023675471,
				"y": -1.6265272136,
				"z": 1.089469729,
				"element": "H" 
			}
		],
		 "valence_orbital": [ 
			{
				"type": "occ",
				"energy": -0.35343,
				"method": "rhf"
			},
			{
				"type": "occ",
				"energy": -0.26821,
				"method": "rhf"
			},
			{
				"type": "occ",
				"energy": -0.25449,
				"method": "rhf"
			},
			{
				"type": "occ",
				"energy": -0.24564,
				"method": "rhf"
			},
			{
				"type": "occ",
				"energy": -0.2422,
				"method": "rhf"
			},
			{
				"type": "unocc",
				"energy": 0.02201,
				"method": "rhf"
			},
			{
				"type": "unocc",
				"energy": 0.02882,
				"method": "rhf"
			},
			{
				"type": "unocc",
				"energy": 0.05909,
				"method": "rhf"
			},
			{
				"type": "unocc",
				"energy": 0.08571,
				"method": "rhf"
			},
			{
				"type": "unocc",
				"energy": 0.09666,
				"method": "rhf"
			}
		],
		"cosmo_sigma_profile": { 
			"-0.025": 0.0,
			"-0.024": 0.0,
			"-0.023": 0.0,
			"-0.022": 0.0,
			"-0.021": 0.0,
			"-0.02": 0.0,
			"-0.019": 0.0,
			"-0.018": 0.0,
			"-0.017": 0.0,
			"-0.016": 0.0,
			"-0.015": 0.0,
			"-0.014": 1.06427254447,
			"-0.013": 1.22097802433,
			"-0.012": 2.50304643315,
			"-0.011": 2.5160344393,
			"-0.01": 1.93196478937,
			"-0.009": 1.8834425054,
			"-0.008": 2.89450151288,
			"-0.007": 3.51229585854,
			"-0.006": 14.0445987025,
			"-0.005": 19.3418754398,
			"-0.004": 19.2870205822,
			"-0.003": 18.9050615367,
			"-0.002": 20.8354128186,
			"-0.001": 18.5640800666,
			"0.0": 10.4392178248,
			"0.001": 5.13328783298,
			"0.002": 5.20436508202,
			"0.003": 4.95665907905,
			"0.004": 4.20397960061,
			"0.005": 3.32677716228,
			"0.006": 3.24299930499,
			"0.007": 2.4272953582,
			"0.008": 3.02421578618,
			"0.009": 2.01823543727,
			"0.01": 2.26901651232,
			"0.011": 3.26206285446,
			"0.012": 3.04418911252,
			"0.013": 4.82986806644,
			"0.014": 10.5958981149,
			"0.015": 5.94440278703,
			"0.016": 0.549588813048,
			"0.017": 0.0,
			"0.018": 0.0,
			"0.019": 0.0,
			"0.02": 0.0,
			"0.021": 0.0,
			"0.022": 0.0,
			"0.023": 0.0,
			"0.024": 0.0,
			"0.025": 0.0
		}
	}
}
