{
	 "smiles": "COC(=O)C1=C(S)C=C(F)C=C1", 
	 "Tm": 315.15, 
	 "num_atms": 19, 
	 "gaussian": { 
		 "optdone": 1, 
		 "sigma_profile": "yes", 
		 "theory": "DFT", 
		 "functional": "B3LYP", 
		 "basiset": "6-31G**", 
		 "properties": { 
			 "R2extent": 3171.7533, 
			 "electric_dipole_moment_norm": 3.06608739928, 
			 "electric_quadrupole_moment_norm": 10.377783139, 
			 "total_energy": -957.547104691, 
			 "HOMO_LUMO_gap": 0.17312, 
			 "cosmo_polarized_energy": -6.29, 
			 "cosmo_cavitation_energy": 25.34, 
			 "cosmo_dispersion_energy": -19.26, 
			 "cosmo_repulsion_energy": 1.45, 
			 "cosmo_total_nonelectrostatic_energy": 7.53, 
			 "SMD_solvation_energy": 5.71 
		},
		"coords": [
			{
				"x": -4.193081082,
				"y": 0.8195749338,
				"z": 0.2656984971,
				"element": "C" 
			},
			{
				"x": -2.8777371061,
				"y": 0.2555954592,
				"z": 0.3914253161,
				"element": "O" 
			},
			{
				"x": -1.9275208792,
				"y": 1.092301304,
				"z": 0.8606521327,
				"element": "C" 
			},
			{
				"x": -2.1971145111,
				"y": 2.2516577452,
				"z": 1.1521592607,
				"element": "O" 
			},
			{
				"x": -0.596607229,
				"y": 0.443029782,
				"z": 0.9639977471,
				"element": "C" 
			},
			{
				"x": 0.5609866741,
				"y": 1.1236756106,
				"z": 1.432569386,
				"element": "C" 
			},
			{
				"x": 0.6464355066,
				"y": 2.8136510482,
				"z": 1.9656417495,
				"element": "S" 
			},
			{
				"x": 1.7780990201,
				"y": 0.4254764399,
				"z": 1.4951389344,
				"element": "C" 
			},
			{
				"x": 1.8401570246,
				"y": -0.9004179919,
				"z": 1.1058625163,
				"element": "C" 
			},
			{
				"x": 3.0209899457,
				"y": -1.5391893702,
				"z": 1.1783329643,
				"element": "F" 
			},
			{
				"x": 0.7243845231,
				"y": -1.5946872319,
				"z": 0.6426779257,
				"element": "C" 
			},
			{
				"x": -0.4776941937,
				"y": -0.9097254406,
				"z": 0.5794450142,
				"element": "C" 
			},
			{
				"x": -4.5607886198,
				"y": 1.1589317611,
				"z": 1.2369739812,
				"element": "H" 
			},
			{
				"x": -4.1844233535,
				"y": 1.6665462075,
				"z": -0.4244198198,
				"element": "H" 
			},
			{
				"x": -4.8176999401,
				"y": 0.0149483498,
				"z": -0.1215809645,
				"element": "H" 
			},
			{
				"x": -0.6647813928,
				"y": 3.0748667264,
				"z": 1.7484573005,
				"element": "H" 
			},
			{
				"x": 2.6789912253,
				"y": 0.9156668163,
				"z": 1.8477566588,
				"element": "H" 
			},
			{
				"x": 0.81185318,
				"y": -2.6334155343,
				"z": 0.3465244091,
				"element": "H" 
			},
			{
				"x": -1.3634487922,
				"y": -1.420386615,
				"z": 0.2239869908,
				"element": "H" 
			}
		],
		 "valence_orbital": [ 
			{
				"type": "occ",
				"energy": -0.31753,
				"method": "rhf"
			},
			{
				"type": "occ",
				"energy": -0.30311,
				"method": "rhf"
			},
			{
				"type": "occ",
				"energy": -0.28247,
				"method": "rhf"
			},
			{
				"type": "occ",
				"energy": -0.26251,
				"method": "rhf"
			},
			{
				"type": "occ",
				"energy": -0.22699,
				"method": "rhf"
			},
			{
				"type": "unocc",
				"energy": -0.05387,
				"method": "rhf"
			},
			{
				"type": "unocc",
				"energy": -0.02064,
				"method": "rhf"
			},
			{
				"type": "unocc",
				"energy": 0.02997,
				"method": "rhf"
			},
			{
				"type": "unocc",
				"energy": 0.04909,
				"method": "rhf"
			},
			{
				"type": "unocc",
				"energy": 0.09576,
				"method": "rhf"
			}
		],
		"cosmo_sigma_profile": { 
			"-0.025": 0.0,
			"-0.024": 0.0,
			"-0.023": 0.0,
			"-0.022": 0.0,
			"-0.021": 0.0,
			"-0.02": 0.0,
			"-0.019": 0.0,
			"-0.018": 0.0,
			"-0.017": 0.0,
			"-0.016": 0.0,
			"-0.015": 0.0,
			"-0.014": 0.0,
			"-0.013": 0.0,
			"-0.012": 0.0,
			"-0.011": 0.0,
			"-0.01": 0.0,
			"-0.009": 0.14341914735,
			"-0.008": 2.62988027639,
			"-0.007": 5.62042248127,
			"-0.006": 10.6999574543,
			"-0.005": 13.1629568845,
			"-0.004": 13.9830503936,
			"-0.003": 15.9538825899,
			"-0.002": 12.4181441706,
			"-0.001": 14.9871513439,
			"0.0": 20.5939147571,
			"0.001": 20.4730157173,
			"0.002": 21.5559351548,
			"0.003": 16.5248223078,
			"0.004": 14.3207005492,
			"0.005": 5.57901421293,
			"0.006": 4.72224696513,
			"0.007": 4.54887743441,
			"0.008": 3.40111415886,
			"0.009": 1.62269743378,
			"0.01": 1.85709552508,
			"0.011": 1.20670470072,
			"0.012": 0.126884472892,
			"0.013": 0.0,
			"0.014": 0.0,
			"0.015": 0.0,
			"0.016": 0.0,
			"0.017": 0.0,
			"0.018": 0.0,
			"0.019": 0.0,
			"0.02": 0.0,
			"0.021": 0.0,
			"0.022": 0.0,
			"0.023": 0.0,
			"0.024": 0.0,
			"0.025": 0.0
		}
	}
}
