{
	 "smiles": "CC(C)C1=NN(C=C1C(O)=O)C1=NC(C)=CC(C)=N1", 
	 "Tm": 445.15, 
	 "num_atms": 35, 
	 "gaussian": { 
		 "optdone": 1, 
		 "sigma_profile": "yes", 
		 "theory": "DFT", 
		 "functional": "B3LYP", 
		 "basiset": "6-31G**", 
		 "properties": { 
			 "R2extent": 6578.7747, 
			 "electric_dipole_moment_norm": 3.4937495703, 
			 "electric_quadrupole_moment_norm": 22.0082864674, 
			 "total_energy": -874.510683814, 
			 "HOMO_LUMO_gap": 0.19034, 
			 "cosmo_polarized_energy": -16.57, 
			 "cosmo_cavitation_energy": 39.37, 
			 "cosmo_dispersion_energy": -27.68, 
			 "cosmo_repulsion_energy": 2.19, 
			 "cosmo_total_nonelectrostatic_energy": 13.87, 
			 "SMD_solvation_energy": 5.56 
		},
		"coords": [
			{
				"x": 3.6819081767,
				"y": -1.9317666401,
				"z": 1.325321951,
				"element": "C" 
			},
			{
				"x": 2.4883565555,
				"y": -2.4058915523,
				"z": 0.4690095801,
				"element": "C" 
			},
			{
				"x": 1.5288715548,
				"y": -3.2784225193,
				"z": 1.2909140321,
				"element": "C" 
			},
			{
				"x": 1.7846710945,
				"y": -1.2210547746,
				"z": -0.1507763514,
				"element": "C" 
			},
			{
				"x": 0.6710948505,
				"y": -0.7480085557,
				"z": 0.3849325319,
				"element": "N" 
			},
			{
				"x": 0.3216456981,
				"y": 0.3275958045,
				"z": -0.3861104759,
				"element": "N" 
			},
			{
				"x": 1.1977253379,
				"y": 0.5391124898,
				"z": -1.4032397476,
				"element": "C" 
			},
			{
				"x": 2.1677202444,
				"y": -0.4365977409,
				"z": -1.2972236573,
				"element": "C" 
			},
			{
				"x": 3.2850671933,
				"y": -0.5367664101,
				"z": -2.239249898,
				"element": "C" 
			},
			{
				"x": 4.1338099967,
				"y": -1.5644749613,
				"z": -1.9654167185,
				"element": "O" 
			},
			{
				"x": 3.4675015828,
				"y": 0.2079974024,
				"z": -3.1843993166,
				"element": "O" 
			},
			{
				"x": -0.8376985098,
				"y": 1.092109008,
				"z": -0.1128080463,
				"element": "C" 
			},
			{
				"x": -1.5733752839,
				"y": 0.7263263177,
				"z": 0.9313858837,
				"element": "N" 
			},
			{
				"x": -2.6664094432,
				"y": 1.4706225221,
				"z": 1.1651207413,
				"element": "C" 
			},
			{
				"x": -3.5195552154,
				"y": 1.0786580398,
				"z": 2.3425285689,
				"element": "C" 
			},
			{
				"x": -2.989974117,
				"y": 2.5578238033,
				"z": 0.348316781,
				"element": "C" 
			},
			{
				"x": -2.1403652257,
				"y": 2.8495300657,
				"z": -0.722763113,
				"element": "C" 
			},
			{
				"x": -2.4032218681,
				"y": 3.9996657239,
				"z": -1.6585477571,
				"element": "C" 
			},
			{
				"x": -1.0490381966,
				"y": 2.1056230611,
				"z": -0.9559843359,
				"element": "N" 
			},
			{
				"x": 3.3349902678,
				"y": -1.3124374393,
				"z": 2.1594421942,
				"element": "H" 
			},
			{
				"x": 4.3897477598,
				"y": -1.3480241818,
				"z": 0.7310683655,
				"element": "H" 
			},
			{
				"x": 4.2167929499,
				"y": -2.7930568283,
				"z": 1.7398243743,
				"element": "H" 
			},
			{
				"x": 2.8943064698,
				"y": -3.0038550544,
				"z": -0.3543251639,
				"element": "H" 
			},
			{
				"x": 1.0978889702,
				"y": -2.7130435804,
				"z": 2.1214850002,
				"element": "H" 
			},
			{
				"x": 2.0651496576,
				"y": -4.1413584951,
				"z": 1.6992329703,
				"element": "H" 
			},
			{
				"x": 0.7002711426,
				"y": -3.6460349104,
				"z": 0.6786169044,
				"element": "H" 
			},
			{
				"x": 1.0702201067,
				"y": 1.3410427126,
				"z": -2.1110452775,
				"element": "H" 
			},
			{
				"x": 4.818427359,
				"y": -1.5234825904,
				"z": -2.6537512597,
				"element": "H" 
			},
			{
				"x": -4.5397624725,
				"y": 0.8397482027,
				"z": 2.0224863415,
				"element": "H" 
			},
			{
				"x": -3.5901455179,
				"y": 1.90050083,
				"z": 3.063614634,
				"element": "H" 
			},
			{
				"x": -3.0884354673,
				"y": 0.20752261,
				"z": 2.8369521585,
				"element": "H" 
			},
			{
				"x": -3.873783416,
				"y": 3.1579999323,
				"z": 0.5392153286,
				"element": "H" 
			},
			{
				"x": -2.4266326787,
				"y": 4.9489594016,
				"z": -1.1122853768,
				"element": "H" 
			},
			{
				"x": -1.6227625076,
				"y": 4.0479147446,
				"z": -2.4189464857,
				"element": "H" 
			},
			{
				"x": -3.3744070491,
				"y": 3.8860235621,
				"z": -2.1524953602,
				"element": "H" 
			}
		],
		 "valence_orbital": [ 
			{
				"type": "occ",
				"energy": -0.29293,
				"method": "rhf"
			},
			{
				"type": "occ",
				"energy": -0.26719,
				"method": "rhf"
			},
			{
				"type": "occ",
				"energy": -0.25576,
				"method": "rhf"
			},
			{
				"type": "occ",
				"energy": -0.25431,
				"method": "rhf"
			},
			{
				"type": "occ",
				"energy": -0.24142,
				"method": "rhf"
			},
			{
				"type": "unocc",
				"energy": -0.05108,
				"method": "rhf"
			},
			{
				"type": "unocc",
				"energy": -0.03887,
				"method": "rhf"
			},
			{
				"type": "unocc",
				"energy": -0.00675,
				"method": "rhf"
			},
			{
				"type": "unocc",
				"energy": 0.03192,
				"method": "rhf"
			},
			{
				"type": "unocc",
				"energy": 0.08203,
				"method": "rhf"
			}
		],
		"cosmo_sigma_profile": { 
			"-0.025": 0.0,
			"-0.024": 0.0,
			"-0.023": 0.0,
			"-0.022": 0.0,
			"-0.021": 0.0,
			"-0.02": 0.0,
			"-0.019": 0.0502992385578,
			"-0.018": 0.643665018632,
			"-0.017": 0.837831430939,
			"-0.016": 1.14749259333,
			"-0.015": 0.906162797233,
			"-0.014": 0.429762321225,
			"-0.013": 0.393926451884,
			"-0.012": 0.426304007151,
			"-0.011": 1.16396647168,
			"-0.01": 0.556690163182,
			"-0.009": 0.334340578227,
			"-0.008": 1.66509545168,
			"-0.007": 3.94158777755,
			"-0.006": 8.08814806591,
			"-0.005": 15.1434453531,
			"-0.004": 17.5730311653,
			"-0.003": 25.7693635471,
			"-0.002": 40.8445611672,
			"-0.001": 47.0107113955,
			"0.0": 36.9472627633,
			"0.001": 30.3044412207,
			"0.002": 13.8407248121,
			"0.003": 9.77779679853,
			"0.004": 7.03870688353,
			"0.005": 7.47858394134,
			"0.006": 7.26976992691,
			"0.007": 4.92341120847,
			"0.008": 3.82351032681,
			"0.009": 3.19468538379,
			"0.01": 2.84594164332,
			"0.011": 3.89588706916,
			"0.012": 6.61144718364,
			"0.013": 1.74093865229,
			"0.014": 1.45734257556,
			"0.015": 0.445160146408,
			"0.016": 0.793974980893,
			"0.017": 0.796718476023,
			"0.018": 0.907335677345,
			"0.019": 0.477141545543,
			"0.02": 0.100021053914,
			"0.021": 0.0,
			"0.022": 0.0,
			"0.023": 0.0,
			"0.024": 0.0,
			"0.025": 0.0
		}
	}
}
