{
	 "smiles": "NC1=NC(CC2=CC=CC=C2)=C(S1)C1=CC=CC=C1", 
	 "Tm": 413.15, 
	 "num_atms": 33, 
	 "gaussian": { 
		 "optdone": 1, 
		 "sigma_profile": "yes", 
		 "theory": "DFT", 
		 "functional": "B3LYP", 
		 "basiset": "6-31G**", 
		 "properties": { 
			 "R2extent": 6827.1328, 
			 "electric_dipole_moment_norm": 1.51676709484, 
			 "electric_quadrupole_moment_norm": 12.6578844405, 
			 "total_energy": -1125.83862339, 
			 "HOMO_LUMO_gap": 0.17259, 
			 "cosmo_polarized_energy": -13.06, 
			 "cosmo_cavitation_energy": 38.8, 
			 "cosmo_dispersion_energy": -27.31, 
			 "cosmo_repulsion_energy": 2.1, 
			 "cosmo_total_nonelectrostatic_energy": 13.6, 
			 "SMD_solvation_energy": 4.54 
		},
		"coords": [
			{
				"x": -1.8444863796,
				"y": -4.5990655833,
				"z": 1.3047049504,
				"element": "N" 
			},
			{
				"x": -1.672763586,
				"y": -3.4065277492,
				"z": 0.6375372022,
				"element": "C" 
			},
			{
				"x": -0.5507353086,
				"y": -2.749408982,
				"z": 0.6086940548,
				"element": "N" 
			},
			{
				"x": -0.6422527764,
				"y": -1.6285822973,
				"z": -0.1966191345,
				"element": "C" 
			},
			{
				"x": 0.5658028759,
				"y": -0.7206125244,
				"z": -0.2599436585,
				"element": "C" 
			},
			{
				"x": 0.9187441369,
				"y": -0.1128231549,
				"z": 1.0889970319,
				"element": "C" 
			},
			{
				"x": 0.410884497,
				"y": 1.139654306,
				"z": 1.4564593697,
				"element": "C" 
			},
			{
				"x": 0.721672078,
				"y": 1.7014801767,
				"z": 2.6958459249,
				"element": "C" 
			},
			{
				"x": 1.546669503,
				"y": 1.0149000359,
				"z": 3.5884229735,
				"element": "C" 
			},
			{
				"x": 2.0555532994,
				"y": -0.2360031401,
				"z": 3.2330078526,
				"element": "C" 
			},
			{
				"x": 1.7425480627,
				"y": -0.7948010897,
				"z": 1.9932971745,
				"element": "C" 
			},
			{
				"x": -1.853428391,
				"y": -1.4133922153,
				"z": -0.8066373655,
				"element": "C" 
			},
			{
				"x": -2.9646926376,
				"y": -2.7137741616,
				"z": -0.3413130457,
				"element": "S" 
			},
			{
				"x": -2.3072854573,
				"y": -0.3405892987,
				"z": -1.7080292908,
				"element": "C" 
			},
			{
				"x": -3.5242658122,
				"y": 0.3282668079,
				"z": -1.4802169615,
				"element": "C" 
			},
			{
				"x": -3.9548556896,
				"y": 1.3405119957,
				"z": -2.3359203639,
				"element": "C" 
			},
			{
				"x": -3.1769876093,
				"y": 1.7131191934,
				"z": -3.4344112859,
				"element": "C" 
			},
			{
				"x": -1.9704547844,
				"y": 1.0542334351,
				"z": -3.6770157431,
				"element": "C" 
			},
			{
				"x": -1.5450368109,
				"y": 0.0303695814,
				"z": -2.8311081309,
				"element": "C" 
			},
			{
				"x": -1.1094894012,
				"y": -4.7787839929,
				"z": 1.9767733281,
				"element": "H" 
			},
			{
				"x": -2.7722296992,
				"y": -4.7980792529,
				"z": 1.6508264919,
				"element": "H" 
			},
			{
				"x": 1.4175133303,
				"y": -1.3052094592,
				"z": -0.6286757359,
				"element": "H" 
			},
			{
				"x": 0.384090892,
				"y": 0.0779950656,
				"z": -0.9820247685,
				"element": "H" 
			},
			{
				"x": -0.2324564098,
				"y": 1.6783907768,
				"z": 0.7648734823,
				"element": "H" 
			},
			{
				"x": 0.3223301179,
				"y": 2.6764128332,
				"z": 2.961995447,
				"element": "H" 
			},
			{
				"x": 1.7932811182,
				"y": 1.4520340008,
				"z": 4.5519742336,
				"element": "H" 
			},
			{
				"x": 2.6995280977,
				"y": -0.7769372297,
				"z": 3.9212398672,
				"element": "H" 
			},
			{
				"x": 2.1315896339,
				"y": -1.7721656409,
				"z": 1.7230370152,
				"element": "H" 
			},
			{
				"x": -4.1253222802,
				"y": 0.0575458538,
				"z": -0.6169198081,
				"element": "H" 
			},
			{
				"x": -4.8966468076,
				"y": 1.8451050791,
				"z": -2.1392556726,
				"element": "H" 
			},
			{
				"x": -3.5114361035,
				"y": 2.5047409817,
				"z": -4.0985186786,
				"element": "H" 
			},
			{
				"x": -1.3649489692,
				"y": 1.3252716514,
				"z": -4.5373459319,
				"element": "H" 
			},
			{
				"x": -0.6268327295,
				"y": -0.5056760026,
				"z": -3.0496308241,
				"element": "H" 
			}
		],
		 "valence_orbital": [ 
			{
				"type": "occ",
				"energy": -0.25242,
				"method": "rhf"
			},
			{
				"type": "occ",
				"energy": -0.25166,
				"method": "rhf"
			},
			{
				"type": "occ",
				"energy": -0.23897,
				"method": "rhf"
			},
			{
				"type": "occ",
				"energy": -0.23238,
				"method": "rhf"
			},
			{
				"type": "occ",
				"energy": -0.19817,
				"method": "rhf"
			},
			{
				"type": "unocc",
				"energy": -0.02558,
				"method": "rhf"
			},
			{
				"type": "unocc",
				"energy": -0.00626,
				"method": "rhf"
			},
			{
				"type": "unocc",
				"energy": 0.00782,
				"method": "rhf"
			},
			{
				"type": "unocc",
				"energy": 0.0087,
				"method": "rhf"
			},
			{
				"type": "unocc",
				"energy": 0.01488,
				"method": "rhf"
			}
		],
		"cosmo_sigma_profile": { 
			"-0.025": 0.0,
			"-0.024": 0.0,
			"-0.023": 0.0,
			"-0.022": 0.0,
			"-0.021": 0.0,
			"-0.02": 0.0,
			"-0.019": 0.0,
			"-0.018": 0.0,
			"-0.017": 0.0,
			"-0.016": 0.0,
			"-0.015": 0.266930578508,
			"-0.014": 1.71817421166,
			"-0.013": 2.82207070249,
			"-0.012": 2.50721422295,
			"-0.011": 2.45702777209,
			"-0.01": 2.65799221805,
			"-0.009": 2.50977143745,
			"-0.008": 1.66153527351,
			"-0.007": 1.27884729076,
			"-0.006": 7.95031876794,
			"-0.005": 19.8573014188,
			"-0.004": 28.0535878795,
			"-0.003": 29.3400136171,
			"-0.002": 21.3662932603,
			"-0.001": 19.6512736571,
			"0.0": 19.4012060454,
			"0.001": 19.3139507088,
			"0.002": 24.0332803306,
			"0.003": 25.9296873248,
			"0.004": 25.1281333101,
			"0.005": 21.7111472167,
			"0.006": 14.9979541049,
			"0.007": 5.91341408008,
			"0.008": 2.76309204963,
			"0.009": 2.65802593225,
			"0.01": 2.25997609432,
			"0.011": 2.07932251795,
			"0.012": 1.41235258833,
			"0.013": 0.526255069839,
			"0.014": 0.00424135216608,
			"0.015": 0.0,
			"0.016": 0.0,
			"0.017": 0.0,
			"0.018": 0.0,
			"0.019": 0.0,
			"0.02": 0.0,
			"0.021": 0.0,
			"0.022": 0.0,
			"0.023": 0.0,
			"0.024": 0.0,
			"0.025": 0.0
		}
	}
}
