{
	 "smiles": "CN1C(=O)C=CC2=C1C=CC=C2", 
	 "Tm": 347.65, 
	 "num_atms": 21, 
	 "gaussian": { 
		 "optdone": 1, 
		 "sigma_profile": "yes", 
		 "theory": "DFT", 
		 "functional": "B3LYP", 
		 "basiset": "6-31G**", 
		 "properties": { 
			 "R2extent": 2225.8464, 
			 "electric_dipole_moment_norm": 3.63695804897, 
			 "electric_quadrupole_moment_norm": 14.4725894805, 
			 "total_energy": -516.484543583, 
			 "HOMO_LUMO_gap": 0.16311, 
			 "cosmo_polarized_energy": -10.15, 
			 "cosmo_cavitation_energy": 24.13, 
			 "cosmo_dispersion_energy": -18.21, 
			 "cosmo_repulsion_energy": 1.4, 
			 "cosmo_total_nonelectrostatic_energy": 7.32, 
			 "SMD_solvation_energy": 4.64 
		},
		"coords": [
			{
				"x": -0.0981639461,
				"y": 3.05547779,
				"z": -1.0475608044,
				"element": "C" 
			},
			{
				"x": 0.0201302961,
				"y": 2.0576103169,
				"z": 0.0147283628,
				"element": "N" 
			},
			{
				"x": 0.8124611623,
				"y": 2.4116583053,
				"z": 1.1303488347,
				"element": "C" 
			},
			{
				"x": 1.3705726583,
				"y": 3.5048751346,
				"z": 1.1955888555,
				"element": "O" 
			},
			{
				"x": 0.9143540343,
				"y": 1.3976931346,
				"z": 2.1753126008,
				"element": "C" 
			},
			{
				"x": 0.2916438503,
				"y": 0.2016311855,
				"z": 2.0806420277,
				"element": "C" 
			},
			{
				"x": -0.5082822558,
				"y": -0.1297949882,
				"z": 0.9330402181,
				"element": "C" 
			},
			{
				"x": -0.6303425096,
				"y": 0.8334440186,
				"z": -0.105409177,
				"element": "C" 
			},
			{
				"x": -1.412364736,
				"y": 0.5185582819,
				"z": -1.2350276268,
				"element": "C" 
			},
			{
				"x": -2.0498166789,
				"y": -0.7127530921,
				"z": -1.3258240582,
				"element": "C" 
			},
			{
				"x": -1.9326557358,
				"y": -1.6659492045,
				"z": -0.3047972495,
				"element": "C" 
			},
			{
				"x": -1.1662609452,
				"y": -1.3673040471,
				"z": 0.810725162,
				"element": "C" 
			},
			{
				"x": -1.1432315495,
				"y": 3.3491448746,
				"z": -1.1878028309,
				"element": "H" 
			},
			{
				"x": 0.4866069432,
				"y": 3.9190229701,
				"z": -0.7379462288,
				"element": "H" 
			},
			{
				"x": 0.2940486953,
				"y": 2.6639414335,
				"z": -1.9914607544,
				"element": "H" 
			},
			{
				"x": 1.5231053879,
				"y": 1.6736358896,
				"z": 3.0283164842,
				"element": "H" 
			},
			{
				"x": 0.3850976245,
				"y": -0.5352198694,
				"z": 2.8750471017,
				"element": "H" 
			},
			{
				"x": -1.5228654925,
				"y": 1.232839346,
				"z": -2.0408084333,
				"element": "H" 
			},
			{
				"x": -2.6471337268,
				"y": -0.9330875842,
				"z": -2.2058292175,
				"element": "H" 
			},
			{
				"x": -2.4354073351,
				"y": -2.6240652512,
				"z": -0.3875666929,
				"element": "H" 
			},
			{
				"x": -1.0601957409,
				"y": -2.0899586445,
				"z": 1.6156834263,
				"element": "H" 
			}
		],
		 "valence_orbital": [ 
			{
				"type": "occ",
				"energy": -0.31093,
				"method": "rhf"
			},
			{
				"type": "occ",
				"energy": -0.30494,
				"method": "rhf"
			},
			{
				"type": "occ",
				"energy": -0.25038,
				"method": "rhf"
			},
			{
				"type": "occ",
				"energy": -0.24509,
				"method": "rhf"
			},
			{
				"type": "occ",
				"energy": -0.21716,
				"method": "rhf"
			},
			{
				"type": "unocc",
				"energy": -0.05405,
				"method": "rhf"
			},
			{
				"type": "unocc",
				"energy": -0.00676,
				"method": "rhf"
			},
			{
				"type": "unocc",
				"energy": 0.01542,
				"method": "rhf"
			},
			{
				"type": "unocc",
				"energy": 0.08763,
				"method": "rhf"
			},
			{
				"type": "unocc",
				"energy": 0.09526,
				"method": "rhf"
			}
		],
		"cosmo_sigma_profile": { 
			"-0.025": 0.0,
			"-0.024": 0.0,
			"-0.023": 0.0,
			"-0.022": 0.0,
			"-0.021": 0.0,
			"-0.02": 0.0,
			"-0.019": 0.0,
			"-0.018": 0.0,
			"-0.017": 0.0,
			"-0.016": 0.0,
			"-0.015": 0.0,
			"-0.014": 0.0,
			"-0.013": 0.0,
			"-0.012": 0.0,
			"-0.011": 0.0,
			"-0.01": 0.0,
			"-0.009": 0.0,
			"-0.008": 0.770738644642,
			"-0.007": 5.96190101641,
			"-0.006": 16.5833115026,
			"-0.005": 16.3954972953,
			"-0.004": 17.2241702778,
			"-0.003": 13.5206357678,
			"-0.002": 14.3016555189,
			"-0.001": 14.0881456844,
			"0.0": 14.7024013129,
			"0.001": 13.1196700157,
			"0.002": 15.8197801667,
			"0.003": 13.9317873321,
			"0.004": 11.5026461632,
			"0.005": 6.20459248251,
			"0.006": 1.29452776435,
			"0.007": 1.36698027271,
			"0.008": 1.99627347843,
			"0.009": 0.651610213281,
			"0.01": 1.23760001824,
			"0.011": 1.69553737208,
			"0.012": 1.79749713566,
			"0.013": 3.22819648003,
			"0.014": 4.44622730905,
			"0.015": 1.37580323782,
			"0.016": 0.0546545193216,
			"0.017": 0.0,
			"0.018": 0.0,
			"0.019": 0.0,
			"0.02": 0.0,
			"0.021": 0.0,
			"0.022": 0.0,
			"0.023": 0.0,
			"0.024": 0.0,
			"0.025": 0.0
		}
	}
}
