{
	 "smiles": "CC1=CNC(=O)N1C1=CC=C(C)C=C1", 
	 "Tm": 469.15, 
	 "num_atms": 26, 
	 "gaussian": { 
		 "optdone": 1, 
		 "sigma_profile": "yes", 
		 "theory": "DFT", 
		 "functional": "B3LYP", 
		 "basiset": "6-31G**", 
		 "properties": { 
			 "R2extent": 3789.7891, 
			 "electric_dipole_moment_norm": 3.5953610973, 
			 "electric_quadrupole_moment_norm": 20.9771980619, 
			 "total_energy": -611.151933449, 
			 "HOMO_LUMO_gap": 0.18185, 
			 "cosmo_polarized_energy": -14.4, 
			 "cosmo_cavitation_energy": 29.45, 
			 "cosmo_dispersion_energy": -21.32, 
			 "cosmo_repulsion_energy": 1.68, 
			 "cosmo_total_nonelectrostatic_energy": 9.81, 
			 "SMD_solvation_energy": 6.19 
		},
		"coords": [
			{
				"x": 1.5334849272,
				"y": -2.4722419304,
				"z": 2.1639147581,
				"element": "C" 
			},
			{
				"x": 1.1977997781,
				"y": -3.1408349531,
				"z": 0.8726012977,
				"element": "C" 
			},
			{
				"x": 1.4238579474,
				"y": -4.4202652323,
				"z": 0.4958211564,
				"element": "C" 
			},
			{
				"x": 1.0133637515,
				"y": -4.5593005604,
				"z": -0.8298717052,
				"element": "N" 
			},
			{
				"x": 0.5368416007,
				"y": -3.3619396031,
				"z": -1.3341402917,
				"element": "C" 
			},
			{
				"x": 0.1226377543,
				"y": -3.1290260797,
				"z": -2.4608941949,
				"element": "O" 
			},
			{
				"x": 0.6400495081,
				"y": -2.4758613361,
				"z": -0.2431254027,
				"element": "N" 
			},
			{
				"x": 0.2145394219,
				"y": -1.1206390471,
				"z": -0.3160823393,
				"element": "C" 
			},
			{
				"x": -0.6274884405,
				"y": -0.5807206631,
				"z": 0.6610667197,
				"element": "C" 
			},
			{
				"x": -1.025461668,
				"y": 0.753841812,
				"z": 0.5817010588,
				"element": "C" 
			},
			{
				"x": -0.6208153876,
				"y": 1.5712322312,
				"z": -0.479617993,
				"element": "C" 
			},
			{
				"x": -1.0405025494,
				"y": 3.0201430786,
				"z": -0.5574425017,
				"element": "C" 
			},
			{
				"x": 0.1975268269,
				"y": 1.00419993,
				"z": -1.4675664339,
				"element": "C" 
			},
			{
				"x": 0.6195019337,
				"y": -0.319730117,
				"z": -1.3912771177,
				"element": "C" 
			},
			{
				"x": 0.649392411,
				"y": -2.1812285368,
				"z": 2.7413938715,
				"element": "H" 
			},
			{
				"x": 2.1262195846,
				"y": -1.5649162092,
				"z": 2.0026481104,
				"element": "H" 
			},
			{
				"x": 2.1222438128,
				"y": -3.1572295946,
				"z": 2.7796218793,
				"element": "H" 
			},
			{
				"x": 1.8614441659,
				"y": -5.2322540415,
				"z": 1.0541894093,
				"element": "H" 
			},
			{
				"x": 1.0700541997,
				"y": -5.3849544121,
				"z": -1.4020706752,
				"element": "H" 
			},
			{
				"x": -0.9906500591,
				"y": -1.2080392919,
				"z": 1.4680102193,
				"element": "H" 
			},
			{
				"x": -1.6777891833,
				"y": 1.1589059403,
				"z": 1.3512753893,
				"element": "H" 
			},
			{
				"x": -1.9003827831,
				"y": 3.222787059,
				"z": 0.0875212903,
				"element": "H" 
			},
			{
				"x": -0.2288714149,
				"y": 3.6877143272,
				"z": -0.2416717671,
				"element": "H" 
			},
			{
				"x": -1.3109765921,
				"y": 3.3040093542,
				"z": -1.5796686883,
				"element": "H" 
			},
			{
				"x": 0.514330728,
				"y": 1.6114028959,
				"z": -2.3120081884,
				"element": "H" 
			},
			{
				"x": 1.2422497264,
				"y": -0.7472550202,
				"z": -2.1678278607,
				"element": "H" 
			}
		],
		 "valence_orbital": [ 
			{
				"type": "occ",
				"energy": -0.29857,
				"method": "rhf"
			},
			{
				"type": "occ",
				"energy": -0.25495,
				"method": "rhf"
			},
			{
				"type": "occ",
				"energy": -0.2446,
				"method": "rhf"
			},
			{
				"type": "occ",
				"energy": -0.23454,
				"method": "rhf"
			},
			{
				"type": "occ",
				"energy": -0.18671,
				"method": "rhf"
			},
			{
				"type": "unocc",
				"energy": -0.00486,
				"method": "rhf"
			},
			{
				"type": "unocc",
				"energy": 0.00095,
				"method": "rhf"
			},
			{
				"type": "unocc",
				"energy": 0.04614,
				"method": "rhf"
			},
			{
				"type": "unocc",
				"energy": 0.07762,
				"method": "rhf"
			},
			{
				"type": "unocc",
				"energy": 0.08348,
				"method": "rhf"
			}
		],
		"cosmo_sigma_profile": { 
			"-0.025": 0.0,
			"-0.024": 0.0,
			"-0.023": 0.0,
			"-0.022": 0.0,
			"-0.021": 0.0,
			"-0.02": 0.0,
			"-0.019": 0.0,
			"-0.018": 0.0,
			"-0.017": 0.0,
			"-0.016": 0.548561034182,
			"-0.015": 1.36445797664,
			"-0.014": 1.24116769293,
			"-0.013": 0.941763020666,
			"-0.012": 1.10699268707,
			"-0.011": 1.0182183743,
			"-0.01": 0.579050363004,
			"-0.009": 1.42407847953,
			"-0.008": 3.29593098756,
			"-0.007": 4.02311396022,
			"-0.006": 7.02840459133,
			"-0.005": 14.4565257788,
			"-0.004": 21.3666884705,
			"-0.003": 19.5139760117,
			"-0.002": 19.5001562907,
			"-0.001": 21.3266565362,
			"0.0": 22.1827527918,
			"0.001": 16.5438458059,
			"0.002": 14.6908455971,
			"0.003": 12.2974411597,
			"0.004": 11.1938297683,
			"0.005": 12.4030545455,
			"0.006": 4.79410814011,
			"0.007": 2.05181005203,
			"0.008": 1.09617704677,
			"0.009": 1.55207035749,
			"0.01": 1.802580682,
			"0.011": 0.852543372574,
			"0.012": 1.73689595595,
			"0.013": 2.16941060502,
			"0.014": 4.96671700532,
			"0.015": 4.52020262295,
			"0.016": 0.258766191986,
			"0.017": 0.0,
			"0.018": 0.0,
			"0.019": 0.0,
			"0.02": 0.0,
			"0.021": 0.0,
			"0.022": 0.0,
			"0.023": 0.0,
			"0.024": 0.0,
			"0.025": 0.0
		}
	}
}
