{
	 "smiles": "NC1=CC=C(C=C1)S(=O)(=O)N1CCCC1", 
	 "Tm": 438.15, 
	 "num_atms": 29, 
	 "gaussian": { 
		 "optdone": 1, 
		 "sigma_profile": "yes", 
		 "theory": "DFT", 
		 "functional": "B3LYP", 
		 "basiset": "6-31G**", 
		 "properties": { 
			 "R2extent": 4369.2917, 
			 "electric_dipole_moment_norm": 6.62254426108, 
			 "electric_quadrupole_moment_norm": 18.1199154838, 
			 "total_energy": -1047.57417338, 
			 "HOMO_LUMO_gap": 0.20044, 
			 "cosmo_polarized_energy": -18.89, 
			 "cosmo_cavitation_energy": 32.63, 
			 "cosmo_dispersion_energy": -23.9, 
			 "cosmo_repulsion_energy": 1.84, 
			 "cosmo_total_nonelectrostatic_energy": 10.57, 
			 "SMD_solvation_energy": 3.48 
		},
		"coords": [
			{
				"x": 1.3676717551,
				"y": -3.0882272292,
				"z": 2.3144946869,
				"element": "N" 
			},
			{
				"x": 0.9489752901,
				"y": -2.1948212671,
				"z": 1.3427302517,
				"element": "C" 
			},
			{
				"x": 1.8077853007,
				"y": -1.1789641646,
				"z": 0.8818096285,
				"element": "C" 
			},
			{
				"x": 1.403525587,
				"y": -0.3157956836,
				"z": -0.1299227044,
				"element": "C" 
			},
			{
				"x": 0.1323342905,
				"y": -0.4500594356,
				"z": -0.6923783151,
				"element": "C" 
			},
			{
				"x": -0.7312149038,
				"y": -1.4596205816,
				"z": -0.2518629209,
				"element": "C" 
			},
			{
				"x": -0.3287394611,
				"y": -2.3209453145,
				"z": 0.7576669825,
				"element": "C" 
			},
			{
				"x": -0.3733724281,
				"y": 0.6331514266,
				"z": -2.0142398623,
				"element": "S" 
			},
			{
				"x": 0.7733483798,
				"y": 1.5030982574,
				"z": -2.327209444,
				"element": "O" 
			},
			{
				"x": -1.0147730785,
				"y": -0.1477799831,
				"z": -3.0785770321,
				"element": "O" 
			},
			{
				"x": -1.6248583986,
				"y": 1.507814186,
				"z": -1.2958725132,
				"element": "N" 
			},
			{
				"x": -2.7005165233,
				"y": 1.9891432996,
				"z": -2.1994601181,
				"element": "C" 
			},
			{
				"x": -3.4196764921,
				"y": 3.0104423155,
				"z": -1.3154124232,
				"element": "C" 
			},
			{
				"x": -2.258847341,
				"y": 3.70250779,
				"z": -0.5816056092,
				"element": "C" 
			},
			{
				"x": -1.2548477509,
				"y": 2.5630358937,
				"z": -0.3135337414,
				"element": "C" 
			},
			{
				"x": 0.6474849855,
				"y": -3.586841203,
				"z": 2.8157486907,
				"element": "H" 
			},
			{
				"x": 2.137586097,
				"y": -2.7975172231,
				"z": 2.8987090734,
				"element": "H" 
			},
			{
				"x": 2.7987681541,
				"y": -1.0769774056,
				"z": 1.3163572778,
				"element": "H" 
			},
			{
				"x": 2.065745948,
				"y": 0.4619830536,
				"z": -0.4940519214,
				"element": "H" 
			},
			{
				"x": -1.7118328692,
				"y": -1.5672962289,
				"z": -0.7031435602,
				"element": "H" 
			},
			{
				"x": -0.9968731545,
				"y": -3.1081831543,
				"z": 1.0970747016,
				"element": "H" 
			},
			{
				"x": -2.2986264242,
				"y": 2.4727202603,
				"z": -3.1005904389,
				"element": "H" 
			},
			{
				"x": -3.3265924515,
				"y": 1.1522146837,
				"z": -2.5126773487,
				"element": "H" 
			},
			{
				"x": -4.033907529,
				"y": 3.7018867252,
				"z": -1.8990338499,
				"element": "H" 
			},
			{
				"x": -4.0717344804,
				"y": 2.4938341973,
				"z": -0.602225078,
				"element": "H" 
			},
			{
				"x": -2.5675185621,
				"y": 4.2074781915,
				"z": 0.3378231187,
				"element": "H" 
			},
			{
				"x": -1.8025973544,
				"y": 4.4528794254,
				"z": -1.2362556173,
				"element": "H" 
			},
			{
				"x": -0.2206745613,
				"y": 2.8908705913,
				"z": -0.4550846017,
				"element": "H" 
			},
			{
				"x": -1.3542220236,
				"y": 2.1585685772,
				"z": 0.7001226883,
				"element": "H" 
			}
		],
		 "valence_orbital": [ 
			{
				"type": "occ",
				"energy": -0.28984,
				"method": "rhf"
			},
			{
				"type": "occ",
				"energy": -0.28091,
				"method": "rhf"
			},
			{
				"type": "occ",
				"energy": -0.26222,
				"method": "rhf"
			},
			{
				"type": "occ",
				"energy": -0.23987,
				"method": "rhf"
			},
			{
				"type": "occ",
				"energy": -0.21621,
				"method": "rhf"
			},
			{
				"type": "unocc",
				"energy": -0.01577,
				"method": "rhf"
			},
			{
				"type": "unocc",
				"energy": -0.01023,
				"method": "rhf"
			},
			{
				"type": "unocc",
				"energy": 0.0636,
				"method": "rhf"
			},
			{
				"type": "unocc",
				"energy": 0.07214,
				"method": "rhf"
			},
			{
				"type": "unocc",
				"energy": 0.09334,
				"method": "rhf"
			}
		],
		"cosmo_sigma_profile": { 
			"-0.025": 0.0,
			"-0.024": 0.0,
			"-0.023": 0.0,
			"-0.022": 0.0,
			"-0.021": 0.0,
			"-0.02": 0.0,
			"-0.019": 0.0,
			"-0.018": 0.0,
			"-0.017": 0.0,
			"-0.016": 0.0,
			"-0.015": 0.0,
			"-0.014": 0.181302120634,
			"-0.013": 2.84782587514,
			"-0.012": 2.72833533923,
			"-0.011": 2.96527949161,
			"-0.01": 3.31936686517,
			"-0.009": 3.49411361862,
			"-0.008": 2.89590160458,
			"-0.007": 5.31431485901,
			"-0.006": 7.26561298332,
			"-0.005": 9.45351206666,
			"-0.004": 23.8235864515,
			"-0.003": 29.2079688168,
			"-0.002": 27.3264177262,
			"-0.001": 19.8011181102,
			"0.0": 15.5497741276,
			"0.001": 10.801626005,
			"0.002": 10.2136491729,
			"0.003": 13.8493251605,
			"0.004": 18.4041282487,
			"0.005": 6.55492573742,
			"0.006": 4.77947066273,
			"0.007": 4.08968723975,
			"0.008": 3.81557567208,
			"0.009": 3.49461436048,
			"0.01": 5.60093162437,
			"0.011": 8.51082225156,
			"0.012": 8.47406729552,
			"0.013": 2.22008744889,
			"0.014": 0.0,
			"0.015": 0.0,
			"0.016": 0.0,
			"0.017": 0.0,
			"0.018": 0.0,
			"0.019": 0.0,
			"0.02": 0.0,
			"0.021": 0.0,
			"0.022": 0.0,
			"0.023": 0.0,
			"0.024": 0.0,
			"0.025": 0.0
		}
	}
}
