{
	 "smiles": "NC1=C(C=CC=C1)S(=O)(=O)C1=CC=CC=C1", 
	 "Tm": 393.15, 
	 "num_atms": 27, 
	 "gaussian": { 
		 "optdone": 1, 
		 "sigma_profile": "yes", 
		 "theory": "DFT", 
		 "functional": "B3LYP", 
		 "basiset": "6-31G**", 
		 "properties": { 
			 "R2extent": 4421.0407, 
			 "electric_dipole_moment_norm": 4.66816214907, 
			 "electric_quadrupole_moment_norm": 22.5670617562, 
			 "total_energy": -1067.23287564, 
			 "HOMO_LUMO_gap": 0.17332, 
			 "cosmo_polarized_energy": -14.52, 
			 "cosmo_cavitation_energy": 31.55, 
			 "cosmo_dispersion_energy": -23.45, 
			 "cosmo_repulsion_energy": 1.77, 
			 "cosmo_total_nonelectrostatic_energy": 9.87, 
			 "SMD_solvation_energy": 4.78 
		},
		"coords": [
			{
				"x": -2.97347405,
				"y": 0.6516396981,
				"z": 1.0039855373,
				"element": "N" 
			},
			{
				"x": -1.8711727003,
				"y": 1.390137662,
				"z": 0.6127055285,
				"element": "C" 
			},
			{
				"x": -1.2134861287,
				"y": 1.1961979772,
				"z": -0.628470294,
				"element": "C" 
			},
			{
				"x": -0.0913169925,
				"y": 1.9555334242,
				"z": -0.9810675893,
				"element": "C" 
			},
			{
				"x": 0.4240750702,
				"y": 2.9066666977,
				"z": -0.1091304443,
				"element": "C" 
			},
			{
				"x": -0.2000245894,
				"y": 3.0943202249,
				"z": 1.1293268855,
				"element": "C" 
			},
			{
				"x": -1.322763025,
				"y": 2.3577862597,
				"z": 1.4807295075,
				"element": "C" 
			},
			{
				"x": -1.7677300146,
				"y": -0.0249189688,
				"z": -1.8219530216,
				"element": "S" 
			},
			{
				"x": -3.2271193378,
				"y": -0.2025048109,
				"z": -1.6488402702,
				"element": "O" 
			},
			{
				"x": -1.2176619059,
				"y": 0.3428266829,
				"z": -3.1361908683,
				"element": "O" 
			},
			{
				"x": -0.9692655679,
				"y": -1.5645723815,
				"z": -1.3299112108,
				"element": "C" 
			},
			{
				"x": -1.4437092397,
				"y": -2.2742591621,
				"z": -0.2230773483,
				"element": "C" 
			},
			{
				"x": -0.8117293491,
				"y": -3.4646847564,
				"z": 0.1345693591,
				"element": "C" 
			},
			{
				"x": 0.270904955,
				"y": -3.938195296,
				"z": -0.6115697236,
				"element": "C" 
			},
			{
				"x": 0.7289980732,
				"y": -3.2224581436,
				"z": -1.7195030374,
				"element": "C" 
			},
			{
				"x": 0.1106198996,
				"y": -2.0258336808,
				"z": -2.0844112964,
				"element": "C" 
			},
			{
				"x": -3.493703482,
				"y": 1.0383820271,
				"z": 1.7783534527,
				"element": "H" 
			},
			{
				"x": -3.5459818367,
				"y": 0.2983682235,
				"z": 0.2440901657,
				"element": "H" 
			},
			{
				"x": 0.35528671,
				"y": 1.7920466474,
				"z": -1.955851946,
				"element": "H" 
			},
			{
				"x": 1.2923619968,
				"y": 3.4937073233,
				"z": -0.3884150767,
				"element": "H" 
			},
			{
				"x": 0.1867960297,
				"y": 3.8327191362,
				"z": 1.8261187467,
				"element": "H" 
			},
			{
				"x": -1.805631903,
				"y": 2.5258537762,
				"z": 2.4402470914,
				"element": "H" 
			},
			{
				"x": -2.2859994166,
				"y": -1.90008817,
				"z": 0.3477901657,
				"element": "H" 
			},
			{
				"x": -1.1690861131,
				"y": -4.0259514186,
				"z": 0.9927001332,
				"element": "H" 
			},
			{
				"x": 0.7551908789,
				"y": -4.8688754419,
				"z": -0.3305075056,
				"element": "H" 
			},
			{
				"x": 1.5654697926,
				"y": -3.595754757,
				"z": -2.3026520358,
				"element": "H" 
			},
			{
				"x": 0.4398522462,
				"y": -1.457788773,
				"z": -2.9473649051,
				"element": "H" 
			}
		],
		 "valence_orbital": [ 
			{
				"type": "occ",
				"energy": -0.28609,
				"method": "rhf"
			},
			{
				"type": "occ",
				"energy": -0.27874,
				"method": "rhf"
			},
			{
				"type": "occ",
				"energy": -0.26627,
				"method": "rhf"
			},
			{
				"type": "occ",
				"energy": -0.2582,
				"method": "rhf"
			},
			{
				"type": "occ",
				"energy": -0.2179,
				"method": "rhf"
			},
			{
				"type": "unocc",
				"energy": -0.04458,
				"method": "rhf"
			},
			{
				"type": "unocc",
				"energy": -0.01976,
				"method": "rhf"
			},
			{
				"type": "unocc",
				"energy": -0.01223,
				"method": "rhf"
			},
			{
				"type": "unocc",
				"energy": 0.00158,
				"method": "rhf"
			},
			{
				"type": "unocc",
				"energy": 0.06305,
				"method": "rhf"
			}
		],
		"cosmo_sigma_profile": { 
			"-0.025": 0.0,
			"-0.024": 0.0,
			"-0.023": 0.0,
			"-0.022": 0.0,
			"-0.021": 0.0,
			"-0.02": 0.0,
			"-0.019": 0.0,
			"-0.018": 0.0,
			"-0.017": 0.0,
			"-0.016": 0.0,
			"-0.015": 0.0,
			"-0.014": 0.229521976191,
			"-0.013": 1.46649217751,
			"-0.012": 1.60310368842,
			"-0.011": 1.37611742422,
			"-0.01": 1.23508317858,
			"-0.009": 2.84336923999,
			"-0.008": 2.29637944819,
			"-0.007": 8.66652356981,
			"-0.006": 16.857179958,
			"-0.005": 20.1161803805,
			"-0.004": 17.9027387571,
			"-0.003": 14.547739497,
			"-0.002": 13.3421401287,
			"-0.001": 13.4103564096,
			"0.0": 14.9350402895,
			"0.001": 19.0538886476,
			"0.002": 22.7169737491,
			"0.003": 26.2420516942,
			"0.004": 16.6323135188,
			"0.005": 7.44810244155,
			"0.006": 3.24429480871,
			"0.007": 3.08650305641,
			"0.008": 4.01059122189,
			"0.009": 4.15775183097,
			"0.01": 5.05109095097,
			"0.011": 5.85914013864,
			"0.012": 4.93839157386,
			"0.013": 0.026043342979,
			"0.014": 0.0,
			"0.015": 0.0,
			"0.016": 0.0,
			"0.017": 0.0,
			"0.018": 0.0,
			"0.019": 0.0,
			"0.02": 0.0,
			"0.021": 0.0,
			"0.022": 0.0,
			"0.023": 0.0,
			"0.024": 0.0,
			"0.025": 0.0
		}
	}
}
