{
	 "smiles": "NC1=CC=C(Cl)C=C1C(=O)C1=CC=CC=C1Cl", 
	 "Tm": 361.15, 
	 "num_atms": 26, 
	 "gaussian": { 
		 "optdone": 1, 
		 "sigma_profile": "yes", 
		 "theory": "DFT", 
		 "functional": "B3LYP", 
		 "basiset": "6-31G**", 
		 "properties": { 
			 "R2extent": 6203.2602, 
			 "electric_dipole_moment_norm": 1.68794193028, 
			 "electric_quadrupole_moment_norm": 23.4254076709, 
			 "total_energy": -1551.17571229, 
			 "HOMO_LUMO_gap": 0.1439, 
			 "cosmo_polarized_energy": -11.44, 
			 "cosmo_cavitation_energy": 33.94, 
			 "cosmo_dispersion_energy": -24.22, 
			 "cosmo_repulsion_energy": 1.9, 
			 "cosmo_total_nonelectrostatic_energy": 11.62, 
			 "SMD_solvation_energy": 5.41 
		},
		"coords": [
			{
				"x": 0.4977700883,
				"y": -2.3864445223,
				"z": -2.9343867681,
				"element": "N" 
			},
			{
				"x": 0.6179895646,
				"y": -1.6383090396,
				"z": -1.809575383,
				"element": "C" 
			},
			{
				"x": 1.6631160106,
				"y": -1.8999685768,
				"z": -0.8894223409,
				"element": "C" 
			},
			{
				"x": 1.8023880318,
				"y": -1.1661306817,
				"z": 0.2725005317,
				"element": "C" 
			},
			{
				"x": 0.8963362117,
				"y": -0.1338467608,
				"z": 0.5620023915,
				"element": "C" 
			},
			{
				"x": 1.0751059774,
				"y": 0.7837337681,
				"z": 2.0533170038,
				"element": "Cl" 
			},
			{
				"x": -0.1275016866,
				"y": 0.1577909677,
				"z": -0.3163820508,
				"element": "C" 
			},
			{
				"x": -0.2911065277,
				"y": -0.5713748651,
				"z": -1.5144276995,
				"element": "C" 
			},
			{
				"x": -1.3915597456,
				"y": -0.2483163974,
				"z": -2.4322234963,
				"element": "C" 
			},
			{
				"x": -1.6515447021,
				"y": -0.9187996342,
				"z": -3.4376814485,
				"element": "O" 
			},
			{
				"x": -2.3110719186,
				"y": 0.9174419393,
				"z": -2.1261703705,
				"element": "C" 
			},
			{
				"x": -3.6301744967,
				"y": 0.6317235009,
				"z": -1.7451697561,
				"element": "C" 
			},
			{
				"x": -4.5478526794,
				"y": 1.651383733,
				"z": -1.5046543426,
				"element": "C" 
			},
			{
				"x": -4.1613815405,
				"y": 2.9834189222,
				"z": -1.6638311705,
				"element": "C" 
			},
			{
				"x": -2.8628590668,
				"y": 3.2914862933,
				"z": -2.0661553195,
				"element": "C" 
			},
			{
				"x": -1.9504686654,
				"y": 2.2600516937,
				"z": -2.2935415474,
				"element": "C" 
			},
			{
				"x": -0.3313826507,
				"y": 2.687198036,
				"z": -2.8357918217,
				"element": "Cl" 
			},
			{
				"x": -0.2798056417,
				"y": -2.19165946,
				"z": -3.5538792291,
				"element": "H" 
			},
			{
				"x": 1.1556972645,
				"y": -3.1226346644,
				"z": -3.1264750966,
				"element": "H" 
			},
			{
				"x": 2.3633734787,
				"y": -2.7020827238,
				"z": -1.1067585812,
				"element": "H" 
			},
			{
				"x": 2.6074874123,
				"y": -1.3876874961,
				"z": 0.9650846987,
				"element": "H" 
			},
			{
				"x": -0.822270659,
				"y": 0.9555776015,
				"z": -0.0838277742,
				"element": "H" 
			},
			{
				"x": -3.9268457459,
				"y": -0.4073930904,
				"z": -1.6396611056,
				"element": "H" 
			},
			{
				"x": -5.5609964832,
				"y": 1.4074045951,
				"z": -1.200731449,
				"element": "H" 
			},
			{
				"x": -4.8697412825,
				"y": 3.7862397046,
				"z": -1.4831542172,
				"element": "H" 
			},
			{
				"x": -2.5526005473,
				"y": 4.3203971572,
				"z": -2.2109036571,
				"element": "H" 
			}
		],
		 "valence_orbital": [ 
			{
				"type": "occ",
				"energy": -0.27478,
				"method": "rhf"
			},
			{
				"type": "occ",
				"energy": -0.26767,
				"method": "rhf"
			},
			{
				"type": "occ",
				"energy": -0.25665,
				"method": "rhf"
			},
			{
				"type": "occ",
				"energy": -0.2505,
				"method": "rhf"
			},
			{
				"type": "occ",
				"energy": -0.20826,
				"method": "rhf"
			},
			{
				"type": "unocc",
				"energy": -0.06436,
				"method": "rhf"
			},
			{
				"type": "unocc",
				"energy": -0.0217,
				"method": "rhf"
			},
			{
				"type": "unocc",
				"energy": -0.01921,
				"method": "rhf"
			},
			{
				"type": "unocc",
				"energy": 0.00151,
				"method": "rhf"
			},
			{
				"type": "unocc",
				"energy": 0.02649,
				"method": "rhf"
			}
		],
		"cosmo_sigma_profile": { 
			"-0.025": 0.0,
			"-0.024": 0.0,
			"-0.023": 0.0,
			"-0.022": 0.0,
			"-0.021": 0.0,
			"-0.02": 0.0,
			"-0.019": 0.0,
			"-0.018": 0.0,
			"-0.017": 0.0,
			"-0.016": 0.0,
			"-0.015": 0.078206133394,
			"-0.014": 1.26827465107,
			"-0.013": 1.37857030069,
			"-0.012": 1.20811374942,
			"-0.011": 1.67235264348,
			"-0.01": 1.33468120492,
			"-0.009": 2.30941192259,
			"-0.008": 3.95021944231,
			"-0.007": 11.212030118,
			"-0.006": 14.1727168057,
			"-0.005": 16.274908462,
			"-0.004": 12.1163243128,
			"-0.003": 11.8475528013,
			"-0.002": 13.4735507698,
			"-0.001": 16.7867454871,
			"0.0": 17.5529953742,
			"0.001": 24.4404194157,
			"0.002": 34.3332774743,
			"0.003": 36.7455156585,
			"0.004": 26.2085001782,
			"0.005": 15.1522563555,
			"0.006": 3.33639047506,
			"0.007": 1.2087414778,
			"0.008": 1.91247017929,
			"0.009": 1.74530121872,
			"0.01": 1.53278462484,
			"0.011": 1.89749135275,
			"0.012": 1.3786615397,
			"0.013": 0.655893767944,
			"0.014": 0.0,
			"0.015": 0.0,
			"0.016": 0.0,
			"0.017": 0.0,
			"0.018": 0.0,
			"0.019": 0.0,
			"0.02": 0.0,
			"0.021": 0.0,
			"0.022": 0.0,
			"0.023": 0.0,
			"0.024": 0.0,
			"0.025": 0.0
		}
	}
}
