{
	 "smiles": "CCOC(=O)C1=NN(C2=CC=CC=C2)C(=N)C(C2=NC3=C(S2)C=CC=C3)=C1C", 
	 "Tm": 421.15, 
	 "num_atms": 46, 
	 "gaussian": { 
		 "optdone": 1, 
		 "sigma_profile": "yes", 
		 "theory": "DFT", 
		 "functional": "B3LYP", 
		 "basiset": "6-31G**", 
		 "properties": { 
			 "R2extent": 14830.3166, 
			 "electric_dipole_moment_norm": 1.20522736444, 
			 "electric_quadrupole_moment_norm": 26.8401786553, 
			 "total_energy": -1578.70117443, 
			 "HOMO_LUMO_gap": 0.13307, 
			 "cosmo_polarized_energy": -15.75, 
			 "cosmo_cavitation_energy": 51.86, 
			 "cosmo_dispersion_energy": -36.46, 
			 "cosmo_repulsion_energy": 2.71, 
			 "cosmo_total_nonelectrostatic_energy": 18.11, 
			 "SMD_solvation_energy": 6.41 
		},
		"coords": [
			{
				"x": -5.5083621084,
				"y": -0.5693500898,
				"z": 0.9449281785,
				"element": "C" 
			},
			{
				"x": -4.6036615256,
				"y": -1.6422187918,
				"z": 1.5325480466,
				"element": "C" 
			},
			{
				"x": -3.3332263947,
				"y": -1.6981312958,
				"z": 0.8416211729,
				"element": "O" 
			},
			{
				"x": -2.3893637919,
				"y": -0.8361782067,
				"z": 1.2610196036,
				"element": "C" 
			},
			{
				"x": -2.544531379,
				"y": -0.0597350028,
				"z": 2.186918779,
				"element": "O" 
			},
			{
				"x": -1.1292188703,
				"y": -0.9285052041,
				"z": 0.4549242092,
				"element": "C" 
			},
			{
				"x": -1.2349996492,
				"y": -1.6120032278,
				"z": -0.6568673823,
				"element": "N" 
			},
			{
				"x": -0.211604985,
				"y": -1.7113041139,
				"z": -1.4919767267,
				"element": "N" 
			},
			{
				"x": -0.4995481715,
				"y": -2.4753191504,
				"z": -2.6840232628,
				"element": "C" 
			},
			{
				"x": -1.7634069997,
				"y": -2.3485164276,
				"z": -3.2661929817,
				"element": "C" 
			},
			{
				"x": -2.0886702994,
				"y": -3.1159767252,
				"z": -4.3835004466,
				"element": "C" 
			},
			{
				"x": -1.1586982275,
				"y": -4.0076147475,
				"z": -4.9195313428,
				"element": "C" 
			},
			{
				"x": 0.1005890363,
				"y": -4.1295361931,
				"z": -4.3285070338,
				"element": "C" 
			},
			{
				"x": 0.438477827,
				"y": -3.3668164121,
				"z": -3.2120504085,
				"element": "C" 
			},
			{
				"x": 1.022201951,
				"y": -1.0140475473,
				"z": -1.323911284,
				"element": "C" 
			},
			{
				"x": 1.8508913444,
				"y": -1.0156025319,
				"z": -2.3030051222,
				"element": "N" 
			},
			{
				"x": 1.1598904825,
				"y": -0.3743876449,
				"z": -0.0042535858,
				"element": "C" 
			},
			{
				"x": 2.4784938181,
				"y": 0.2172350984,
				"z": 0.3126181482,
				"element": "C" 
			},
			{
				"x": 2.6699925374,
				"y": 1.4554725731,
				"z": 0.6446668488,
				"element": "N" 
			},
			{
				"x": 3.9987944963,
				"y": 1.7091834257,
				"z": 0.9401957387,
				"element": "C" 
			},
			{
				"x": 4.8691758171,
				"y": 0.5970477007,
				"z": 0.8289592632,
				"element": "C" 
			},
			{
				"x": 3.9537832101,
				"y": -0.8062031904,
				"z": 0.3281516367,
				"element": "S" 
			},
			{
				"x": 6.236273526,
				"y": 0.7147859777,
				"z": 1.0964506924,
				"element": "C" 
			},
			{
				"x": 6.7227861307,
				"y": 1.9613944568,
				"z": 1.4801075637,
				"element": "C" 
			},
			{
				"x": 5.8681171171,
				"y": 3.0729856535,
				"z": 1.5938625081,
				"element": "C" 
			},
			{
				"x": 4.5103758777,
				"y": 2.9576535064,
				"z": 1.3262054728,
				"element": "C" 
			},
			{
				"x": 0.112567726,
				"y": -0.3045570628,
				"z": 0.8801948498,
				"element": "C" 
			},
			{
				"x": 0.2335654531,
				"y": 0.3175822034,
				"z": 2.246197706,
				"element": "C" 
			},
			{
				"x": -5.6508955042,
				"y": -0.7258302769,
				"z": -0.1282853975,
				"element": "H" 
			},
			{
				"x": -6.4890573648,
				"y": -0.6044496048,
				"z": 1.4311125248,
				"element": "H" 
			},
			{
				"x": -5.0824159736,
				"y": 0.4240447552,
				"z": 1.10536331,
				"element": "H" 
			},
			{
				"x": -4.4228530743,
				"y": -1.4665840564,
				"z": 2.5956869828,
				"element": "H" 
			},
			{
				"x": -5.0253597976,
				"y": -2.6405276284,
				"z": 1.3949359463,
				"element": "H" 
			},
			{
				"x": -2.4818133991,
				"y": -1.6633683823,
				"z": -2.8320510727,
				"element": "H" 
			},
			{
				"x": -3.0709381634,
				"y": -3.0122340236,
				"z": -4.8348486483,
				"element": "H" 
			},
			{
				"x": -1.4119542748,
				"y": -4.6022464896,
				"z": -5.7922564289,
				"element": "H" 
			},
			{
				"x": 0.8294697642,
				"y": -4.8231100773,
				"z": -4.7370933406,
				"element": "H" 
			},
			{
				"x": 1.4198240075,
				"y": -3.4491272485,
				"z": -2.7655536218,
				"element": "H" 
			},
			{
				"x": 2.6787820521,
				"y": -0.4687688615,
				"z": -2.076591059,
				"element": "H" 
			},
			{
				"x": 6.9012513747,
				"y": -0.1382202123,
				"z": 1.008999609,
				"element": "H" 
			},
			{
				"x": 7.7813147104,
				"y": 2.0756772443,
				"z": 1.6936648287,
				"element": "H" 
			},
			{
				"x": 6.2776520642,
				"y": 4.0325199169,
				"z": 1.8942700737,
				"element": "H" 
			},
			{
				"x": 3.836607993,
				"y": 3.8040230323,
				"z": 1.4079947768,
				"element": "H" 
			},
			{
				"x": -0.2215452403,
				"y": -0.3256994571,
				"z": 3.0016996401,
				"element": "H" 
			},
			{
				"x": 1.2733597608,
				"y": 0.5112945803,
				"z": 2.5018033473,
				"element": "H" 
			},
			{
				"x": -0.3140128835,
				"y": 1.2629697601,
				"z": 2.2849976882,
				"element": "H" 
			}
		],
		 "valence_orbital": [ 
			{
				"type": "occ",
				"energy": -0.25853,
				"method": "rhf"
			},
			{
				"type": "occ",
				"energy": -0.24947,
				"method": "rhf"
			},
			{
				"type": "occ",
				"energy": -0.24326,
				"method": "rhf"
			},
			{
				"type": "occ",
				"energy": -0.23999,
				"method": "rhf"
			},
			{
				"type": "occ",
				"energy": -0.21121,
				"method": "rhf"
			},
			{
				"type": "unocc",
				"energy": -0.07814,
				"method": "rhf"
			},
			{
				"type": "unocc",
				"energy": -0.04274,
				"method": "rhf"
			},
			{
				"type": "unocc",
				"energy": -0.03145,
				"method": "rhf"
			},
			{
				"type": "unocc",
				"energy": -0.0131,
				"method": "rhf"
			},
			{
				"type": "unocc",
				"energy": -2e-05,
				"method": "rhf"
			}
		],
		"cosmo_sigma_profile": { 
			"-0.025": 0.0,
			"-0.024": 0.0,
			"-0.023": 0.0,
			"-0.022": 0.0,
			"-0.021": 0.0,
			"-0.02": 0.0,
			"-0.019": 0.0,
			"-0.018": 0.0,
			"-0.017": 0.0,
			"-0.016": 0.0,
			"-0.015": 0.0,
			"-0.014": 0.0,
			"-0.013": 0.0,
			"-0.012": 0.0,
			"-0.011": 0.0,
			"-0.01": 0.0358466470022,
			"-0.009": 0.678563376731,
			"-0.008": 1.52791714296,
			"-0.007": 6.17385093011,
			"-0.006": 20.1297058347,
			"-0.005": 30.0384732375,
			"-0.004": 40.2341815654,
			"-0.003": 43.562734958,
			"-0.002": 40.1869966566,
			"-0.001": 33.7980886175,
			"0.0": 31.9177412455,
			"0.001": 30.8793014886,
			"0.002": 28.0090189522,
			"0.003": 26.133172295,
			"0.004": 27.6830519469,
			"0.005": 15.2903711032,
			"0.006": 6.18588963754,
			"0.007": 6.13516597133,
			"0.008": 5.42676857486,
			"0.009": 4.10488195339,
			"0.01": 5.2396765301,
			"0.011": 5.29700764155,
			"0.012": 3.88138899033,
			"0.013": 2.76988534698,
			"0.014": 1.23466389143,
			"0.015": 0.876538857082,
			"0.016": 0.362662750461,
			"0.017": 0.0,
			"0.018": 0.0,
			"0.019": 0.0,
			"0.02": 0.0,
			"0.021": 0.0,
			"0.022": 0.0,
			"0.023": 0.0,
			"0.024": 0.0,
			"0.025": 0.0
		}
	}
}
