{
	 "smiles": "CC1=CC(C)=C(C=C1)N1N=C(C(O)=O)C2=C1CCC2", 
	 "Tm": 472.15, 
	 "num_atms": 35, 
	 "gaussian": { 
		 "optdone": 1, 
		 "sigma_profile": "yes", 
		 "theory": "DFT", 
		 "functional": "B3LYP", 
		 "basiset": "6-31G**", 
		 "properties": { 
			 "R2extent": 6444.0475, 
			 "electric_dipole_moment_norm": 7.62244756361, 
			 "electric_quadrupole_moment_norm": 17.72843014, 
			 "total_energy": -841.196469583, 
			 "HOMO_LUMO_gap": 0.20395, 
			 "cosmo_polarized_energy": -14.18, 
			 "cosmo_cavitation_energy": 38.1, 
			 "cosmo_dispersion_energy": -26.79, 
			 "cosmo_repulsion_energy": 2.09, 
			 "cosmo_total_nonelectrostatic_energy": 13.4, 
			 "SMD_solvation_energy": 6.64 
		},
		"coords": [
			{
				"x": 0.4090033812,
				"y": -3.8623624564,
				"z": 5.4215164608,
				"element": "C" 
			},
			{
				"x": 0.3787005992,
				"y": -3.0662903691,
				"z": 4.1384866418,
				"element": "C" 
			},
			{
				"x": 0.5978728177,
				"y": -1.6858607007,
				"z": 4.1408555612,
				"element": "C" 
			},
			{
				"x": 0.5631540096,
				"y": -0.9088429344,
				"z": 2.9741820449,
				"element": "C" 
			},
			{
				"x": 0.8560442287,
				"y": 0.5708977913,
				"z": 3.0406610703,
				"element": "C" 
			},
			{
				"x": 0.2769913495,
				"y": -1.5694200606,
				"z": 1.7692101873,
				"element": "C" 
			},
			{
				"x": 0.0710366469,
				"y": -2.9520333212,
				"z": 1.7366790578,
				"element": "C" 
			},
			{
				"x": 0.1240199401,
				"y": -3.6937231923,
				"z": 2.9103845842,
				"element": "C" 
			},
			{
				"x": 0.2163446541,
				"y": -0.8531455557,
				"z": 0.5312276056,
				"element": "N" 
			},
			{
				"x": 1.0472876375,
				"y": -1.1906125465,
				"z": -0.4886559731,
				"element": "N" 
			},
			{
				"x": 0.6846575992,
				"y": -0.4195391333,
				"z": -1.5272595873,
				"element": "C" 
			},
			{
				"x": 1.4116477279,
				"y": -0.5425383778,
				"z": -2.8132794721,
				"element": "C" 
			},
			{
				"x": 2.4177040246,
				"y": -1.4463625188,
				"z": -2.8033837896,
				"element": "O" 
			},
			{
				"x": 1.1367332603,
				"y": 0.1051558219,
				"z": -3.7984497732,
				"element": "O" 
			},
			{
				"x": -0.400485133,
				"y": 0.4108974427,
				"z": -1.1836159287,
				"element": "C" 
			},
			{
				"x": -0.6732732868,
				"y": 0.1028985078,
				"z": 0.1270808625,
				"element": "C" 
			},
			{
				"x": -1.8286679811,
				"y": 0.8646719756,
				"z": 0.7032057227,
				"element": "C" 
			},
			{
				"x": -2.4495145775,
				"y": 1.4714991653,
				"z": -0.6022296733,
				"element": "C" 
			},
			{
				"x": -1.3363943569,
				"y": 1.4619340398,
				"z": -1.7048107565,
				"element": "C" 
			},
			{
				"x": -0.604815918,
				"y": -4.1274027845,
				"z": 5.7457670529,
				"element": "H" 
			},
			{
				"x": 0.9621093959,
				"y": -4.7989138895,
				"z": 5.2970266483,
				"element": "H" 
			},
			{
				"x": 0.8768777,
				"y": -3.2980012011,
				"z": 6.2327589741,
				"element": "H" 
			},
			{
				"x": 0.8244607215,
				"y": -1.1906971553,
				"z": 5.082444037,
				"element": "H" 
			},
			{
				"x": -0.0611631606,
				"y": 1.1631204153,
				"z": 3.1420162718,
				"element": "H" 
			},
			{
				"x": 1.3744315404,
				"y": 0.9206906527,
				"z": 2.1440492607,
				"element": "H" 
			},
			{
				"x": 1.4826559933,
				"y": 0.7966355504,
				"z": 3.9075572714,
				"element": "H" 
			},
			{
				"x": -0.1233749339,
				"y": -3.4292990135,
				"z": 0.7821112134,
				"element": "H" 
			},
			{
				"x": -0.0353901597,
				"y": -4.7680745733,
				"z": 2.8740931786,
				"element": "H" 
			},
			{
				"x": 2.4537044009,
				"y": -1.838787057,
				"z": -1.9119904353,
				"element": "H" 
			},
			{
				"x": -1.4892422098,
				"y": 1.6518442565,
				"z": 1.3889513908,
				"element": "H" 
			},
			{
				"x": -2.541274128,
				"y": 0.2434951577,
				"z": 1.2557202761,
				"element": "H" 
			},
			{
				"x": -3.2749229734,
				"y": 0.8299164799,
				"z": -0.9265681601,
				"element": "H" 
			},
			{
				"x": -2.8624290655,
				"y": 2.4693847762,
				"z": -0.4318618431,
				"element": "H" 
			},
			{
				"x": -1.7366809007,
				"y": 1.2362063044,
				"z": -2.6969236247,
				"element": "H" 
			},
			{
				"x": -0.8351088435,
				"y": 2.4351585036,
				"z": -1.7823563572,
				"element": "H" 
			}
		],
		 "valence_orbital": [ 
			{
				"type": "occ",
				"energy": -0.27551,
				"method": "rhf"
			},
			{
				"type": "occ",
				"energy": -0.25961,
				"method": "rhf"
			},
			{
				"type": "occ",
				"energy": -0.25851,
				"method": "rhf"
			},
			{
				"type": "occ",
				"energy": -0.24679,
				"method": "rhf"
			},
			{
				"type": "occ",
				"energy": -0.23799,
				"method": "rhf"
			},
			{
				"type": "unocc",
				"energy": -0.03404,
				"method": "rhf"
			},
			{
				"type": "unocc",
				"energy": -0.01661,
				"method": "rhf"
			},
			{
				"type": "unocc",
				"energy": -0.01204,
				"method": "rhf"
			},
			{
				"type": "unocc",
				"energy": 0.03045,
				"method": "rhf"
			},
			{
				"type": "unocc",
				"energy": 0.08034,
				"method": "rhf"
			}
		],
		"cosmo_sigma_profile": { 
			"-0.025": 0.0,
			"-0.024": 0.0,
			"-0.023": 0.0,
			"-0.022": 0.0,
			"-0.021": 0.0,
			"-0.02": 0.0,
			"-0.019": 0.0,
			"-0.018": 0.0,
			"-0.017": 0.0,
			"-0.016": 0.0,
			"-0.015": 0.00136056031456,
			"-0.014": 0.355001067883,
			"-0.013": 0.549125574424,
			"-0.012": 0.528323571778,
			"-0.011": 0.78927849601,
			"-0.01": 0.741282095423,
			"-0.009": 0.465911860021,
			"-0.008": 0.36934521388,
			"-0.007": 1.08886210068,
			"-0.006": 5.47471400873,
			"-0.005": 16.9368240509,
			"-0.004": 31.2221408617,
			"-0.003": 36.2190428708,
			"-0.002": 39.76801749,
			"-0.001": 34.3690549317,
			"0.0": 30.5726827768,
			"0.001": 17.8177459214,
			"0.002": 14.7493233468,
			"0.003": 11.4242338915,
			"0.004": 13.0705402986,
			"0.005": 10.4445509414,
			"0.006": 4.37322165759,
			"0.007": 4.27258161203,
			"0.008": 4.13270157387,
			"0.009": 4.01953998494,
			"0.01": 5.07139799336,
			"0.011": 5.06709804713,
			"0.012": 5.23663565704,
			"0.013": 2.24500574448,
			"0.014": 0.29179111972,
			"0.015": 0.0,
			"0.016": 0.0,
			"0.017": 0.0,
			"0.018": 0.0,
			"0.019": 0.0,
			"0.02": 0.0,
			"0.021": 0.0,
			"0.022": 0.0,
			"0.023": 0.0,
			"0.024": 0.0,
			"0.025": 0.0
		}
	}
}
