{
	 "smiles": "ClC(=CC#N)C#N", 
	 "Tm": 333.65, 
	 "num_atms": 8, 
	 "gaussian": { 
		 "optdone": 1, 
		 "sigma_profile": "yes", 
		 "theory": "DFT", 
		 "functional": "B3LYP", 
		 "basiset": "6-31G**", 
		 "properties": { 
			 "R2extent": 1395.7852, 
			 "electric_dipole_moment_norm": 4.24731070679, 
			 "electric_quadrupole_moment_norm": 7.19070294338, 
			 "total_energy": -722.645734663, 
			 "HOMO_LUMO_gap": 0.18317, 
			 "cosmo_polarized_energy": -10.11, 
			 "cosmo_cavitation_energy": 17.25, 
			 "cosmo_dispersion_energy": -11.45, 
			 "cosmo_repulsion_energy": 1.0, 
			 "cosmo_total_nonelectrostatic_energy": 6.8, 
			 "SMD_solvation_energy": 5.9 
		},
		"coords": [
			{
				"x": 1.5743185427,
				"y": -1.4146447316,
				"z": -1.6972523203,
				"element": "Cl" 
			},
			{
				"x": 0.6138299582,
				"y": -1.4156656433,
				"z": -0.2460362895,
				"element": "C" 
			},
			{
				"x": -0.6206050363,
				"y": -0.8685442223,
				"z": -0.2347235424,
				"element": "C" 
			},
			{
				"x": -1.4454418182,
				"y": -0.8432513482,
				"z": 0.9232378599,
				"element": "C" 
			},
			{
				"x": -2.1502784151,
				"y": -0.802655146,
				"z": 1.8484918808,
				"element": "N" 
			},
			{
				"x": 1.2255380564,
				"y": -2.0244936975,
				"z": 0.8900919196,
				"element": "C" 
			},
			{
				"x": 1.7414048717,
				"y": -2.5249636712,
				"z": 1.8043853702,
				"element": "N" 
			},
			{
				"x": -1.0186661594,
				"y": -0.42288154,
				"z": -1.1411948782,
				"element": "H" 
			}
		],
		 "valence_orbital": [ 
			{
				"type": "occ",
				"energy": -0.38143,
				"method": "rhf"
			},
			{
				"type": "occ",
				"energy": -0.37382,
				"method": "rhf"
			},
			{
				"type": "occ",
				"energy": -0.36633,
				"method": "rhf"
			},
			{
				"type": "occ",
				"energy": -0.35857,
				"method": "rhf"
			},
			{
				"type": "occ",
				"energy": -0.30278,
				"method": "rhf"
			},
			{
				"type": "unocc",
				"energy": -0.11961,
				"method": "rhf"
			},
			{
				"type": "unocc",
				"energy": -0.05683,
				"method": "rhf"
			},
			{
				"type": "unocc",
				"energy": 0.00682,
				"method": "rhf"
			},
			{
				"type": "unocc",
				"energy": 0.03629,
				"method": "rhf"
			},
			{
				"type": "unocc",
				"energy": 0.03992,
				"method": "rhf"
			}
		],
		"cosmo_sigma_profile": { 
			"-0.025": 0.0,
			"-0.024": 0.0,
			"-0.023": 0.0,
			"-0.022": 0.0,
			"-0.021": 0.0,
			"-0.02": 0.0,
			"-0.019": 0.0,
			"-0.018": 0.0,
			"-0.017": 0.0,
			"-0.016": 0.0,
			"-0.015": 0.0,
			"-0.014": 0.0433713282835,
			"-0.013": 1.91955837048,
			"-0.012": 2.07730467464,
			"-0.011": 1.78589499348,
			"-0.01": 1.43046464025,
			"-0.009": 1.81928525142,
			"-0.008": 1.60576296183,
			"-0.007": 4.4057160945,
			"-0.006": 8.47119534479,
			"-0.005": 10.0291143822,
			"-0.004": 10.6700507611,
			"-0.003": 8.25556533353,
			"-0.002": 8.36723747812,
			"-0.001": 7.93565486632,
			"0.0": 10.8078578145,
			"0.001": 13.4071161529,
			"0.002": 5.82829362717,
			"0.003": 4.73218268588,
			"0.004": 5.05325744064,
			"0.005": 5.44399786499,
			"0.006": 6.06523095536,
			"0.007": 5.81791683556,
			"0.008": 5.69647281418,
			"0.009": 4.97431656324,
			"0.01": 4.69308223062,
			"0.011": 2.53554062612,
			"0.012": 0.409071377897,
			"0.013": 0.0,
			"0.014": 0.0,
			"0.015": 0.0,
			"0.016": 0.0,
			"0.017": 0.0,
			"0.018": 0.0,
			"0.019": 0.0,
			"0.02": 0.0,
			"0.021": 0.0,
			"0.022": 0.0,
			"0.023": 0.0,
			"0.024": 0.0,
			"0.025": 0.0
		}
	}
}
