{
	 "smiles": "CCCCCCCCCS", 
	 "Tm": 253.05, 
	 "num_atms": 30, 
	 "gaussian": { 
		 "optdone": 1, 
		 "sigma_profile": "yes", 
		 "theory": "DFT", 
		 "functional": "B3LYP", 
		 "basiset": "6-31G**", 
		 "properties": { 
			 "R2extent": 4443.3487, 
			 "electric_dipole_moment_norm": 2.05912861667, 
			 "electric_quadrupole_moment_norm": 13.2576571158, 
			 "total_energy": -753.22246691, 
			 "HOMO_LUMO_gap": 0.26299, 
			 "cosmo_polarized_energy": -4.37, 
			 "cosmo_cavitation_energy": 32.05, 
			 "cosmo_dispersion_energy": -23.07, 
			 "cosmo_repulsion_energy": 1.89, 
			 "cosmo_total_nonelectrostatic_energy": 10.86, 
			 "SMD_solvation_energy": 4.03 
		},
		"coords": [
			{
				"x": -1.2152137886,
				"y": 1.7308529905,
				"z": 3.7445940513,
				"element": "C" 
			},
			{
				"x": -0.9827358544,
				"y": 1.5106765317,
				"z": 2.2460194175,
				"element": "C" 
			},
			{
				"x": -1.0266809756,
				"y": 0.029272384,
				"z": 1.8460111436,
				"element": "C" 
			},
			{
				"x": -0.8906742723,
				"y": -0.2346774762,
				"z": 0.3357786576,
				"element": "C" 
			},
			{
				"x": 0.4428792845,
				"y": 0.1851158797,
				"z": -0.3113952607,
				"element": "C" 
			},
			{
				"x": 1.6619277934,
				"y": -0.6013069133,
				"z": 0.1913457338,
				"element": "C" 
			},
			{
				"x": 3.0219956887,
				"y": -0.1762023626,
				"z": -0.3918008037,
				"element": "C" 
			},
			{
				"x": 3.197149136,
				"y": -0.3649790713,
				"z": -1.9177161779,
				"element": "C" 
			},
			{
				"x": 2.8532886035,
				"y": 0.8791473902,
				"z": -2.7435552683,
				"element": "C" 
			},
			{
				"x": 3.1418539482,
				"y": 0.6887210969,
				"z": -4.5552603139,
				"element": "S" 
			},
			{
				"x": -0.4541898239,
				"y": 1.217118287,
				"z": 4.3433261271,
				"element": "H" 
			},
			{
				"x": -1.1797903786,
				"y": 2.7939092515,
				"z": 4.0046002583,
				"element": "H" 
			},
			{
				"x": -2.1929937625,
				"y": 1.3447053409,
				"z": 4.0547774392,
				"element": "H" 
			},
			{
				"x": -1.7413126035,
				"y": 2.0612546245,
				"z": 1.6724138886,
				"element": "H" 
			},
			{
				"x": -0.0155000232,
				"y": 1.9462544817,
				"z": 1.9646730325,
				"element": "H" 
			},
			{
				"x": -1.9815452427,
				"y": -0.3966953719,
				"z": 2.1833285011,
				"element": "H" 
			},
			{
				"x": -0.2494513808,
				"y": -0.5171978395,
				"z": 2.3971386334,
				"element": "H" 
			},
			{
				"x": -1.0474850692,
				"y": -1.3061600328,
				"z": 0.1500498958,
				"element": "H" 
			},
			{
				"x": -1.7083167917,
				"y": 0.2835070373,
				"z": -0.183601823,
				"element": "H" 
			},
			{
				"x": 0.6117157095,
				"y": 1.2595223683,
				"z": -0.1575101688,
				"element": "H" 
			},
			{
				"x": 0.344854266,
				"y": 0.0479978691,
				"z": -1.3957017711,
				"element": "H" 
			},
			{
				"x": 1.5054087727,
				"y": -1.6700158473,
				"z": -0.0156604292,
				"element": "H" 
			},
			{
				"x": 1.7245123291,
				"y": -0.5139917968,
				"z": 1.2833766423,
				"element": "H" 
			},
			{
				"x": 3.2220909665,
				"y": 0.8720119853,
				"z": -0.1274699325,
				"element": "H" 
			},
			{
				"x": 3.7972800661,
				"y": -0.7611797906,
				"z": 0.1176903843,
				"element": "H" 
			},
			{
				"x": 4.2350745292,
				"y": -0.6358069702,
				"z": -2.1395335891,
				"element": "H" 
			},
			{
				"x": 2.5853240349,
				"y": -1.2118039153,
				"z": -2.2569147095,
				"element": "H" 
			},
			{
				"x": 1.8242231824,
				"y": 1.2082364283,
				"z": -2.5843258261,
				"element": "H" 
			},
			{
				"x": 3.5034708796,
				"y": 1.712942498,
				"z": -2.4591882944,
				"element": "H" 
			},
			{
				"x": 2.2460407765,
				"y": -0.2994290569,
				"z": -4.7572894381,
				"element": "H" 
			}
		],
		 "valence_orbital": [ 
			{
				"type": "occ",
				"energy": -0.32185,
				"method": "rhf"
			},
			{
				"type": "occ",
				"energy": -0.31153,
				"method": "rhf"
			},
			{
				"type": "occ",
				"energy": -0.30665,
				"method": "rhf"
			},
			{
				"type": "occ",
				"energy": -0.30179,
				"method": "rhf"
			},
			{
				"type": "occ",
				"energy": -0.23286,
				"method": "rhf"
			},
			{
				"type": "unocc",
				"energy": 0.03013,
				"method": "rhf"
			},
			{
				"type": "unocc",
				"energy": 0.07148,
				"method": "rhf"
			},
			{
				"type": "unocc",
				"energy": 0.07876,
				"method": "rhf"
			},
			{
				"type": "unocc",
				"energy": 0.10419,
				"method": "rhf"
			},
			{
				"type": "unocc",
				"energy": 0.10816,
				"method": "rhf"
			}
		],
		"cosmo_sigma_profile": { 
			"-0.025": 0.0,
			"-0.024": 0.0,
			"-0.023": 0.0,
			"-0.022": 0.0,
			"-0.021": 0.0,
			"-0.02": 0.0,
			"-0.019": 0.0,
			"-0.018": 0.0,
			"-0.017": 0.0,
			"-0.016": 0.0,
			"-0.015": 0.0,
			"-0.014": 0.0,
			"-0.013": 0.0,
			"-0.012": 0.0,
			"-0.011": 0.0,
			"-0.01": 0.0,
			"-0.009": 0.199686781862,
			"-0.008": 2.12178286557,
			"-0.007": 2.06326474074,
			"-0.006": 2.57218991277,
			"-0.005": 3.81271391362,
			"-0.004": 6.8537670258,
			"-0.003": 12.5823322233,
			"-0.002": 35.2481167592,
			"-0.001": 51.0587518897,
			"0.0": 47.505733605,
			"0.001": 40.5063369408,
			"0.002": 16.5094250821,
			"0.003": 3.61062565288,
			"0.004": 3.41710424032,
			"0.005": 3.73800603646,
			"0.006": 4.16325493791,
			"0.007": 3.24217279748,
			"0.008": 2.08590841085,
			"0.009": 2.87020543023,
			"0.01": 2.33399085322,
			"0.011": 1.78327821211,
			"0.012": 0.337812272991,
			"0.013": 0.0,
			"0.014": 0.0,
			"0.015": 0.0,
			"0.016": 0.0,
			"0.017": 0.0,
			"0.018": 0.0,
			"0.019": 0.0,
			"0.02": 0.0,
			"0.021": 0.0,
			"0.022": 0.0,
			"0.023": 0.0,
			"0.024": 0.0,
			"0.025": 0.0
		}
	}
}
