{
	 "smiles": "OC(=O)COC1=CC=C(OCC(O)=O)C=C1", 
	 "Tm": 523.15, 
	 "num_atms": 26, 
	 "gaussian": { 
		 "optdone": 1, 
		 "sigma_profile": "yes", 
		 "theory": "DFT", 
		 "functional": "B3LYP", 
		 "basiset": "6-31G**", 
		 "properties": { 
			 "R2extent": 5240.7971, 
			 "electric_dipole_moment_norm": 2.49096424302, 
			 "electric_quadrupole_moment_norm": 7.49846000256, 
			 "total_energy": -838.423858525, 
			 "HOMO_LUMO_gap": 0.19289, 
			 "cosmo_polarized_energy": -21.32, 
			 "cosmo_cavitation_energy": 31.84, 
			 "cosmo_dispersion_energy": -22.78, 
			 "cosmo_repulsion_energy": 1.82, 
			 "cosmo_total_nonelectrostatic_energy": 10.88, 
			 "SMD_solvation_energy": 8.35 
		},
		"coords": [
			{
				"x": 1.4552799668,
				"y": 1.9574098401,
				"z": -2.941154718,
				"element": "O" 
			},
			{
				"x": 2.3395392128,
				"y": 2.4589759316,
				"z": -2.0607157079,
				"element": "C" 
			},
			{
				"x": 3.5404819646,
				"y": 2.4273983116,
				"z": -2.2138516945,
				"element": "O" 
			},
			{
				"x": 1.6699078841,
				"y": 3.1315010103,
				"z": -0.8637988157,
				"element": "C" 
			},
			{
				"x": 0.3688394782,
				"y": 2.6851162141,
				"z": -0.5649866156,
				"element": "O" 
			},
			{
				"x": 0.2210184255,
				"y": 1.4409091756,
				"z": 0.006826587,
				"element": "C" 
			},
			{
				"x": -1.0892755377,
				"y": 1.0719649456,
				"z": 0.3191490667,
				"element": "C" 
			},
			{
				"x": -1.3609326907,
				"y": -0.1615988146,
				"z": 0.9072282857,
				"element": "C" 
			},
			{
				"x": -0.3114722566,
				"y": -1.0414629823,
				"z": 1.1950834195,
				"element": "C" 
			},
			{
				"x": -0.4522644385,
				"y": -2.2734484492,
				"z": 1.7943024535,
				"element": "O" 
			},
			{
				"x": -1.7222016929,
				"y": -2.6814954391,
				"z": 2.2263721957,
				"element": "C" 
			},
			{
				"x": -2.6036577463,
				"y": -3.1942072231,
				"z": 1.0912773959,
				"element": "C" 
			},
			{
				"x": -3.8209388939,
				"y": -3.5411871195,
				"z": 1.5759995478,
				"element": "O" 
			},
			{
				"x": -2.2856177533,
				"y": -3.3019602975,
				"z": -0.0666639484,
				"element": "O" 
			},
			{
				"x": 0.9979146084,
				"y": -0.6740752585,
				"z": 0.8794048723,
				"element": "C" 
			},
			{
				"x": 1.2705780395,
				"y": 0.5578605963,
				"z": 0.2863664575,
				"element": "C" 
			},
			{
				"x": 1.978875012,
				"y": 1.5657218924,
				"z": -3.6609044343,
				"element": "H" 
			},
			{
				"x": 1.5712717014,
				"y": 4.1950499463,
				"z": -1.1064695392,
				"element": "H" 
			},
			{
				"x": 2.3542274152,
				"y": 3.0454998638,
				"z": -0.0118985912,
				"element": "H" 
			},
			{
				"x": -1.8931144674,
				"y": 1.7629,
				"z": 0.0880982984,
				"element": "H" 
			},
			{
				"x": -2.3915162939,
				"y": -0.4202085575,
				"z": 1.1202771894,
				"element": "H" 
			},
			{
				"x": -2.2582530554,
				"y": -1.8958868225,
				"z": 2.7756880645,
				"element": "H" 
			},
			{
				"x": -1.5623596091,
				"y": -3.5102703498,
				"z": 2.9238608318,
				"element": "H" 
			},
			{
				"x": -4.3300297675,
				"y": -3.8839523943,
				"z": 0.8221516409,
				"element": "H" 
			},
			{
				"x": 1.800916907,
				"y": -1.3683138187,
				"z": 1.1032395014,
				"element": "H" 
			},
			{
				"x": 2.2991835874,
				"y": 0.805459799,
				"z": 0.0498182569,
				"element": "H" 
			}
		],
		 "valence_orbital": [ 
			{
				"type": "occ",
				"energy": -0.30803,
				"method": "rhf"
			},
			{
				"type": "occ",
				"energy": -0.28648,
				"method": "rhf"
			},
			{
				"type": "occ",
				"energy": -0.27674,
				"method": "rhf"
			},
			{
				"type": "occ",
				"energy": -0.25463,
				"method": "rhf"
			},
			{
				"type": "occ",
				"energy": -0.20514,
				"method": "rhf"
			},
			{
				"type": "unocc",
				"energy": -0.01225,
				"method": "rhf"
			},
			{
				"type": "unocc",
				"energy": -0.00123,
				"method": "rhf"
			},
			{
				"type": "unocc",
				"energy": 0.00518,
				"method": "rhf"
			},
			{
				"type": "unocc",
				"energy": 0.0211,
				"method": "rhf"
			},
			{
				"type": "unocc",
				"energy": 0.06486,
				"method": "rhf"
			}
		],
		"cosmo_sigma_profile": { 
			"-0.025": 0.0,
			"-0.024": 0.0,
			"-0.023": 0.0,
			"-0.022": 0.0,
			"-0.021": 0.0,
			"-0.02": 0.0,
			"-0.019": 0.523693861453,
			"-0.018": 2.09583638859,
			"-0.017": 1.92051559104,
			"-0.016": 1.76299265478,
			"-0.015": 1.35619519277,
			"-0.014": 1.35439012897,
			"-0.013": 1.14260884291,
			"-0.012": 1.8703327923,
			"-0.011": 1.62639647526,
			"-0.01": 1.98244045206,
			"-0.009": 6.41939539668,
			"-0.008": 10.2232702467,
			"-0.007": 12.6507474714,
			"-0.006": 15.5069622609,
			"-0.005": 15.5297418466,
			"-0.004": 12.968908948,
			"-0.003": 10.6356297645,
			"-0.002": 10.8408350408,
			"-0.001": 9.47789948393,
			"0.0": 10.0409396957,
			"0.001": 8.65263393318,
			"0.002": 10.1358135266,
			"0.003": 14.047531364,
			"0.004": 17.4394910094,
			"0.005": 14.6233370701,
			"0.006": 8.3651009874,
			"0.007": 8.07601554418,
			"0.008": 7.53457722607,
			"0.009": 10.3367155401,
			"0.01": 8.78142995628,
			"0.011": 10.5007906762,
			"0.012": 4.42669127797,
			"0.013": 0.125468818269,
			"0.014": 0.0,
			"0.015": 0.0,
			"0.016": 0.0,
			"0.017": 0.0,
			"0.018": 0.0,
			"0.019": 0.0,
			"0.02": 0.0,
			"0.021": 0.0,
			"0.022": 0.0,
			"0.023": 0.0,
			"0.024": 0.0,
			"0.025": 0.0
		}
	}
}
