{
	 "smiles": "CC1=CC=C(C=C1)C(=O)NC1=C(N)C=CC=C1", 
	 "Tm": 428.15, 
	 "num_atms": 31, 
	 "gaussian": { 
		 "optdone": 1, 
		 "sigma_profile": "yes", 
		 "theory": "DFT", 
		 "functional": "B3LYP", 
		 "basiset": "6-31G**", 
		 "properties": { 
			 "R2extent": 4818.2787, 
			 "electric_dipole_moment_norm": 3.11558447165, 
			 "electric_quadrupole_moment_norm": 21.3178757523, 
			 "total_energy": -726.672879232, 
			 "HOMO_LUMO_gap": 0.16903, 
			 "cosmo_polarized_energy": -14.75, 
			 "cosmo_cavitation_energy": 34.64, 
			 "cosmo_dispersion_energy": -24.7, 
			 "cosmo_repulsion_energy": 1.93, 
			 "cosmo_total_nonelectrostatic_energy": 11.87, 
			 "SMD_solvation_energy": 6.51 
		},
		"coords": [
			{
				"x": 4.3938993679,
				"y": -1.6049548238,
				"z": 2.0126474056,
				"element": "C" 
			},
			{
				"x": 2.9556822342,
				"y": -1.1882326196,
				"z": 1.8176999064,
				"element": "C" 
			},
			{
				"x": 2.2892727247,
				"y": -0.4277244476,
				"z": 2.79020996,
				"element": "C" 
			},
			{
				"x": 0.9519993787,
				"y": -0.0761976862,
				"z": 2.6337243183,
				"element": "C" 
			},
			{
				"x": 0.2521779764,
				"y": -0.4438778509,
				"z": 1.4767011384,
				"element": "C" 
			},
			{
				"x": 0.9073932534,
				"y": -1.2082626698,
				"z": 0.5020118008,
				"element": "C" 
			},
			{
				"x": 2.239978718,
				"y": -1.576691952,
				"z": 0.6770138079,
				"element": "C" 
			},
			{
				"x": -1.2112592066,
				"y": -0.1368794192,
				"z": 1.4083111396,
				"element": "C" 
			},
			{
				"x": -1.9135210079,
				"y": -0.2366259276,
				"z": 2.4095706213,
				"element": "O" 
			},
			{
				"x": -1.8150779663,
				"y": 0.1780175604,
				"z": 0.1985456867,
				"element": "N" 
			},
			{
				"x": -1.3754667508,
				"y": 0.7441833905,
				"z": -1.0119845302,
				"element": "C" 
			},
			{
				"x": -2.3382197016,
				"y": 0.8382210734,
				"z": -2.0491068726,
				"element": "C" 
			},
			{
				"x": -3.6661507752,
				"y": 0.3871555522,
				"z": -1.7786690077,
				"element": "N" 
			},
			{
				"x": -1.9582328183,
				"y": 1.3395960471,
				"z": -3.2951572136,
				"element": "C" 
			},
			{
				"x": -0.6546129566,
				"y": 1.7776195251,
				"z": -3.5316802266,
				"element": "C" 
			},
			{
				"x": 0.2686193096,
				"y": 1.7531683982,
				"z": -2.4882584932,
				"element": "C" 
			},
			{
				"x": -0.0884960635,
				"y": 1.2525253702,
				"z": -1.2358802494,
				"element": "C" 
			},
			{
				"x": 4.9668979383,
				"y": -0.8331490836,
				"z": 2.5357396542,
				"element": "H" 
			},
			{
				"x": 4.4601373333,
				"y": -2.5204742099,
				"z": 2.6138953288,
				"element": "H" 
			},
			{
				"x": 4.8866695802,
				"y": -1.8062750821,
				"z": 1.0570584718,
				"element": "H" 
			},
			{
				"x": 2.8238405723,
				"y": -0.1176820576,
				"z": 3.6847515553,
				"element": "H" 
			},
			{
				"x": 0.431105274,
				"y": 0.4826842174,
				"z": 3.404304889,
				"element": "H" 
			},
			{
				"x": 0.3738573601,
				"y": -1.5195445071,
				"z": -0.3902692821,
				"element": "H" 
			},
			{
				"x": 2.7324244635,
				"y": -2.1768262389,
				"z": -0.0840373275,
				"element": "H" 
			},
			{
				"x": -2.8170337784,
				"y": 0.039608591,
				"z": 0.2473825501,
				"element": "H" 
			},
			{
				"x": -4.1888905515,
				"y": 1.0649877582,
				"z": -1.2264331252,
				"element": "H" 
			},
			{
				"x": -4.184704596,
				"y": 0.2323927188,
				"z": -2.6366091654,
				"element": "H" 
			},
			{
				"x": -2.7049398518,
				"y": 1.3959000784,
				"z": -4.0841840262,
				"element": "H" 
			},
			{
				"x": -0.3768799162,
				"y": 2.1589188643,
				"z": -4.5093562928,
				"element": "H" 
			},
			{
				"x": 1.2768046896,
				"y": 2.1273496444,
				"z": -2.6393703441,
				"element": "H" 
			},
			{
				"x": 0.6394257664,
				"y": 1.248269786,
				"z": -0.4360720776,
				"element": "H" 
			}
		],
		 "valence_orbital": [ 
			{
				"type": "occ",
				"energy": -0.25917,
				"method": "rhf"
			},
			{
				"type": "occ",
				"energy": -0.25232,
				"method": "rhf"
			},
			{
				"type": "occ",
				"energy": -0.23743,
				"method": "rhf"
			},
			{
				"type": "occ",
				"energy": -0.23389,
				"method": "rhf"
			},
			{
				"type": "occ",
				"energy": -0.20474,
				"method": "rhf"
			},
			{
				"type": "unocc",
				"energy": -0.03571,
				"method": "rhf"
			},
			{
				"type": "unocc",
				"energy": -0.00729,
				"method": "rhf"
			},
			{
				"type": "unocc",
				"energy": 0.00638,
				"method": "rhf"
			},
			{
				"type": "unocc",
				"energy": 0.00803,
				"method": "rhf"
			},
			{
				"type": "unocc",
				"energy": 0.0599,
				"method": "rhf"
			}
		],
		"cosmo_sigma_profile": { 
			"-0.025": 0.0,
			"-0.024": 0.0,
			"-0.023": 0.0,
			"-0.022": 0.0,
			"-0.021": 0.0,
			"-0.02": 0.0,
			"-0.019": 0.0,
			"-0.018": 0.0,
			"-0.017": 0.0,
			"-0.016": 0.0,
			"-0.015": 0.0,
			"-0.014": 0.0,
			"-0.013": 0.210357971366,
			"-0.012": 2.53452651727,
			"-0.011": 3.72745955325,
			"-0.01": 3.76021548577,
			"-0.009": 3.69989403998,
			"-0.008": 3.00239976179,
			"-0.007": 3.06177593815,
			"-0.006": 8.94953865431,
			"-0.005": 17.8327601162,
			"-0.004": 24.7028761858,
			"-0.003": 23.2916582616,
			"-0.002": 21.5888540723,
			"-0.001": 23.394509204,
			"0.0": 19.3809334214,
			"0.001": 16.5843500113,
			"0.002": 16.1330610511,
			"0.003": 17.5130445412,
			"0.004": 16.6531536229,
			"0.005": 15.2834486423,
			"0.006": 9.60396752989,
			"0.007": 4.20714116736,
			"0.008": 2.66306182796,
			"0.009": 1.55380794704,
			"0.01": 1.2321885235,
			"0.011": 2.92915342146,
			"0.012": 3.45364958951,
			"0.013": 5.8401239291,
			"0.014": 2.54865224329,
			"0.015": 0.0435599517799,
			"0.016": 0.0,
			"0.017": 0.0,
			"0.018": 0.0,
			"0.019": 0.0,
			"0.02": 0.0,
			"0.021": 0.0,
			"0.022": 0.0,
			"0.023": 0.0,
			"0.024": 0.0,
			"0.025": 0.0
		}
	}
}
