{
	 "smiles": "NC1=NN=C(O1)C1=CC2=C(OCO2)C=C1", 
	 "Tm": 545.15, 
	 "num_atms": 22, 
	 "gaussian": { 
		 "optdone": 1, 
		 "sigma_profile": "yes", 
		 "theory": "DFT", 
		 "functional": "B3LYP", 
		 "basiset": "6-31G**", 
		 "properties": { 
			 "R2extent": 4044.3676, 
			 "electric_dipole_moment_norm": 3.7700490713, 
			 "electric_quadrupole_moment_norm": 26.6838558556, 
			 "total_energy": -737.050756123, 
			 "HOMO_LUMO_gap": 0.168, 
			 "cosmo_polarized_energy": -17.93, 
			 "cosmo_cavitation_energy": 27.42, 
			 "cosmo_dispersion_energy": -21.09, 
			 "cosmo_repulsion_energy": 1.64, 
			 "cosmo_total_nonelectrostatic_energy": 7.97, 
			 "SMD_solvation_energy": 3.89 
		},
		"coords": [
			{
				"x": 1.468837064,
				"y": -2.4801723256,
				"z": -4.4741594467,
				"element": "N" 
			},
			{
				"x": 0.5718665127,
				"y": -1.97543078,
				"z": -3.5718244526,
				"element": "C" 
			},
			{
				"x": -0.722677714,
				"y": -2.0938615019,
				"z": -3.5625836071,
				"element": "N" 
			},
			{
				"x": -1.1430237426,
				"y": -1.4753415956,
				"z": -2.3800919653,
				"element": "N" 
			},
			{
				"x": -0.0850374893,
				"y": -1.0247917536,
				"z": -1.7821783689,
				"element": "C" 
			},
			{
				"x": 1.0662111119,
				"y": -1.3140767281,
				"z": -2.4939678712,
				"element": "O" 
			},
			{
				"x": 0.0191778087,
				"y": -0.2915853903,
				"z": -0.5296214577,
				"element": "C" 
			},
			{
				"x": -1.1768629356,
				"y": 0.0070398835,
				"z": 0.1703048951,
				"element": "C" 
			},
			{
				"x": -1.0457883297,
				"y": 0.6993631527,
				"z": 1.3509683013,
				"element": "C" 
			},
			{
				"x": 0.1970119843,
				"y": 1.0965840212,
				"z": 1.8487235393,
				"element": "C" 
			},
			{
				"x": 0.0310074502,
				"y": 1.7657738181,
				"z": 3.0321591423,
				"element": "O" 
			},
			{
				"x": -1.3812082576,
				"y": 1.7826621867,
				"z": 3.2875123197,
				"element": "C" 
			},
			{
				"x": -2.0368173097,
				"y": 1.1079482811,
				"z": 2.2088876781,
				"element": "O" 
			},
			{
				"x": 1.3725838675,
				"y": 0.8150590039,
				"z": 1.1810569954,
				"element": "C" 
			},
			{
				"x": 1.2651957405,
				"y": 0.1075843442,
				"z": -0.0274719718,
				"element": "C" 
			},
			{
				"x": 2.3051452932,
				"y": -1.9286978078,
				"z": -4.6096485264,
				"element": "H" 
			},
			{
				"x": 1.0324994665,
				"y": -2.7829804658,
				"z": -5.3342201877,
				"element": "H" 
			},
			{
				"x": -2.1384784586,
				"y": -0.3028756047,
				"z": -0.2197354182,
				"element": "H" 
			},
			{
				"x": -1.729297642,
				"y": 2.8214968412,
				"z": 3.3373283326,
				"element": "H" 
			},
			{
				"x": -1.5869129549,
				"y": 1.2584557955,
				"z": 4.2287955185,
				"element": "H" 
			},
			{
				"x": 2.3333872816,
				"y": 1.126091093,
				"z": 1.5744716408,
				"element": "H" 
			},
			{
				"x": 2.1642812529,
				"y": -0.1358444676,
				"z": -0.5817050895,
				"element": "H" 
			}
		],
		 "valence_orbital": [ 
			{
				"type": "occ",
				"energy": -0.31021,
				"method": "rhf"
			},
			{
				"type": "occ",
				"energy": -0.26667,
				"method": "rhf"
			},
			{
				"type": "occ",
				"energy": -0.26309,
				"method": "rhf"
			},
			{
				"type": "occ",
				"energy": -0.23505,
				"method": "rhf"
			},
			{
				"type": "occ",
				"energy": -0.20296,
				"method": "rhf"
			},
			{
				"type": "unocc",
				"energy": -0.03496,
				"method": "rhf"
			},
			{
				"type": "unocc",
				"energy": -0.00392,
				"method": "rhf"
			},
			{
				"type": "unocc",
				"energy": 0.04209,
				"method": "rhf"
			},
			{
				"type": "unocc",
				"energy": 0.06755,
				"method": "rhf"
			},
			{
				"type": "unocc",
				"energy": 0.07709,
				"method": "rhf"
			}
		],
		"cosmo_sigma_profile": { 
			"-0.025": 0.0,
			"-0.024": 0.0,
			"-0.023": 0.0,
			"-0.022": 0.0,
			"-0.021": 0.0,
			"-0.02": 0.0,
			"-0.019": 0.0,
			"-0.018": 0.0,
			"-0.017": 0.0,
			"-0.016": 0.140257347043,
			"-0.015": 2.29701039089,
			"-0.014": 2.39108886737,
			"-0.013": 2.47332975906,
			"-0.012": 2.38339538645,
			"-0.011": 2.43036198318,
			"-0.01": 2.53160131359,
			"-0.009": 1.45874147078,
			"-0.008": 7.1391603456,
			"-0.007": 11.503543732,
			"-0.006": 12.550076641,
			"-0.005": 9.57747969421,
			"-0.004": 8.61206606391,
			"-0.003": 10.8442705329,
			"-0.002": 11.3709843566,
			"-0.001": 12.2658406299,
			"0.0": 13.6780453733,
			"0.001": 16.5030912599,
			"0.002": 21.2529248176,
			"0.003": 16.4496767661,
			"0.004": 7.55443183621,
			"0.005": 6.16145806499,
			"0.006": 4.99847505503,
			"0.007": 4.77658348106,
			"0.008": 5.89807247106,
			"0.009": 4.75077322673,
			"0.01": 3.81745179401,
			"0.011": 2.53621530676,
			"0.012": 4.02419589925,
			"0.013": 2.58830050779,
			"0.014": 2.6244775905,
			"0.015": 1.94199027456,
			"0.016": 1.05547917953,
			"0.017": 0.0737605611487,
			"0.018": 0.0,
			"0.019": 0.0,
			"0.02": 0.0,
			"0.021": 0.0,
			"0.022": 0.0,
			"0.023": 0.0,
			"0.024": 0.0,
			"0.025": 0.0
		}
	}
}
