{
	 "smiles": "CCC1=CC=CC=C1Cl", 
	 "Tm": 190.35, 
	 "num_atms": 18, 
	 "gaussian": { 
		 "optdone": 1, 
		 "sigma_profile": "yes", 
		 "theory": "DFT", 
		 "functional": "B3LYP", 
		 "basiset": "6-31G**", 
		 "properties": { 
			 "R2extent": 2158.6441, 
			 "electric_dipole_moment_norm": 1.64921597737, 
			 "electric_quadrupole_moment_norm": 6.41701595214, 
			 "total_energy": -770.478530526, 
			 "HOMO_LUMO_gap": 0.23104, 
			 "cosmo_polarized_energy": -3.42, 
			 "cosmo_cavitation_energy": 22.48, 
			 "cosmo_dispersion_energy": -16.88, 
			 "cosmo_repulsion_energy": 1.38, 
			 "cosmo_total_nonelectrostatic_energy": 6.98, 
			 "SMD_solvation_energy": 3.51 
		},
		"coords": [
			{
				"x": -2.1041442904,
				"y": -0.90916702,
				"z": 0.5154612531,
				"element": "C" 
			},
			{
				"x": -1.7214769278,
				"y": 0.5591937128,
				"z": 0.7130129168,
				"element": "C" 
			},
			{
				"x": -0.4790478693,
				"y": 1.0303852721,
				"z": -0.0186986692,
				"element": "C" 
			},
			{
				"x": 0.2859247502,
				"y": 0.1829422382,
				"z": -0.832841338,
				"element": "C" 
			},
			{
				"x": 1.4270994977,
				"y": 0.6304084555,
				"z": -1.5002302013,
				"element": "C" 
			},
			{
				"x": 1.8377262759,
				"y": 1.955285927,
				"z": -1.3683630145,
				"element": "C" 
			},
			{
				"x": 1.1015374296,
				"y": 2.8276350516,
				"z": -0.5667099088,
				"element": "C" 
			},
			{
				"x": -0.0342124583,
				"y": 2.359294565,
				"z": 0.0901653528,
				"element": "C" 
			},
			{
				"x": -0.9312781861,
				"y": 3.5041729821,
				"z": 1.0931665071,
				"element": "Cl" 
			},
			{
				"x": -1.3164477416,
				"y": -1.586130012,
				"z": 0.8623659769,
				"element": "H" 
			},
			{
				"x": -2.3090520416,
				"y": -1.139493629,
				"z": -0.5352814882,
				"element": "H" 
			},
			{
				"x": -3.0094772806,
				"y": -1.1376293801,
				"z": 1.0854119512,
				"element": "H" 
			},
			{
				"x": -2.5625562429,
				"y": 1.1970166492,
				"z": 0.4120588842,
				"element": "H" 
			},
			{
				"x": -1.5881657768,
				"y": 0.7583990708,
				"z": 1.7841601274,
				"element": "H" 
			},
			{
				"x": -0.0188565839,
				"y": -0.8516413442,
				"z": -0.9471129308,
				"element": "H" 
			},
			{
				"x": 1.9918072172,
				"y": -0.0584263305,
				"z": -2.1214465809,
				"element": "H" 
			},
			{
				"x": 2.7238362802,
				"y": 2.3148137707,
				"z": -1.8827148006,
				"element": "H" 
			},
			{
				"x": 1.3998839486,
				"y": 3.8634400209,
				"z": -0.4475040372,
				"element": "H" 
			}
		],
		 "valence_orbital": [ 
			{
				"type": "occ",
				"energy": -0.34303,
				"method": "rhf"
			},
			{
				"type": "occ",
				"energy": -0.32874,
				"method": "rhf"
			},
			{
				"type": "occ",
				"energy": -0.30641,
				"method": "rhf"
			},
			{
				"type": "occ",
				"energy": -0.25242,
				"method": "rhf"
			},
			{
				"type": "occ",
				"energy": -0.23986,
				"method": "rhf"
			},
			{
				"type": "unocc",
				"energy": -0.00882,
				"method": "rhf"
			},
			{
				"type": "unocc",
				"energy": -0.00545,
				"method": "rhf"
			},
			{
				"type": "unocc",
				"energy": 0.03471,
				"method": "rhf"
			},
			{
				"type": "unocc",
				"energy": 0.09923,
				"method": "rhf"
			},
			{
				"type": "unocc",
				"energy": 0.11308,
				"method": "rhf"
			}
		],
		"cosmo_sigma_profile": { 
			"-0.025": 0.0,
			"-0.024": 0.0,
			"-0.023": 0.0,
			"-0.022": 0.0,
			"-0.021": 0.0,
			"-0.02": 0.0,
			"-0.019": 0.0,
			"-0.018": 0.0,
			"-0.017": 0.0,
			"-0.016": 0.0,
			"-0.015": 0.0,
			"-0.014": 0.0,
			"-0.013": 0.0,
			"-0.012": 0.0,
			"-0.011": 0.0,
			"-0.01": 0.0,
			"-0.009": 0.0,
			"-0.008": 0.0,
			"-0.007": 0.961677775384,
			"-0.006": 5.41207278258,
			"-0.005": 8.46234919577,
			"-0.004": 12.9239366154,
			"-0.003": 17.6290572314,
			"-0.002": 17.19539781,
			"-0.001": 21.1854262753,
			"0.0": 18.3232017675,
			"0.001": 15.3140961436,
			"0.002": 14.4947183341,
			"0.003": 15.0176412163,
			"0.004": 17.0806363793,
			"0.005": 14.9497530955,
			"0.006": 1.451023106,
			"0.007": 0.0,
			"0.008": 0.0,
			"0.009": 0.0,
			"0.01": 0.0,
			"0.011": 0.0,
			"0.012": 0.0,
			"0.013": 0.0,
			"0.014": 0.0,
			"0.015": 0.0,
			"0.016": 0.0,
			"0.017": 0.0,
			"0.018": 0.0,
			"0.019": 0.0,
			"0.02": 0.0,
			"0.021": 0.0,
			"0.022": 0.0,
			"0.023": 0.0,
			"0.024": 0.0,
			"0.025": 0.0
		}
	}
}
