{
	 "smiles": "CC1CC(=O)CC(=O)C1", 
	 "Tm": 401.15, 
	 "num_atms": 19, 
	 "gaussian": { 
		 "optdone": 1, 
		 "sigma_profile": "yes", 
		 "theory": "DFT", 
		 "functional": "B3LYP", 
		 "basiset": "6-31G**", 
		 "properties": { 
			 "R2extent": 1628.1908, 
			 "electric_dipole_moment_norm": 3.64901294188, 
			 "electric_quadrupole_moment_norm": 11.2580643438, 
			 "total_energy": -423.221233052, 
			 "HOMO_LUMO_gap": 0.20968, 
			 "cosmo_polarized_energy": -12.24, 
			 "cosmo_cavitation_energy": 21.42, 
			 "cosmo_dispersion_energy": -15.58, 
			 "cosmo_repulsion_energy": 1.29, 
			 "cosmo_total_nonelectrostatic_energy": 7.12, 
			 "SMD_solvation_energy": 4.64 
		},
		"coords": [
			{
				"x": 0.5959190629,
				"y": -2.2229998195,
				"z": 0.556628637,
				"element": "C" 
			},
			{
				"x": -0.3779284975,
				"y": -1.1533260679,
				"z": 1.0745715134,
				"element": "C" 
			},
			{
				"x": -0.432847527,
				"y": 0.0713970494,
				"z": 0.1303191875,
				"element": "C" 
			},
			{
				"x": 0.8672330533,
				"y": 0.8628415081,
				"z": 0.1530668676,
				"element": "C" 
			},
			{
				"x": 1.4689638183,
				"y": 1.183369964,
				"z": -0.8508316161,
				"element": "O" 
			},
			{
				"x": 1.3779011642,
				"y": 1.2309216186,
				"z": 1.5476695565,
				"element": "C" 
			},
			{
				"x": 1.2832543116,
				"y": 0.0805071833,
				"z": 2.5520213797,
				"element": "C" 
			},
			{
				"x": 2.1913357479,
				"y": -0.1751655973,
				"z": 3.315339033,
				"element": "O" 
			},
			{
				"x": -0.0197478225,
				"y": -0.7053164998,
				"z": 2.511770385,
				"element": "C" 
			},
			{
				"x": 0.3128758099,
				"y": -2.5554062881,
				"z": -0.4470469491,
				"element": "H" 
			},
			{
				"x": 0.6015380738,
				"y": -3.0974134451,
				"z": 1.2149115929,
				"element": "H" 
			},
			{
				"x": 1.6243186537,
				"y": -1.8474624917,
				"z": 0.5004408005,
				"element": "H" 
			},
			{
				"x": -1.3825492188,
				"y": -1.5910146575,
				"z": 1.1060815038,
				"element": "H" 
			},
			{
				"x": -1.2409228068,
				"y": 0.7425635412,
				"z": 0.4564019028,
				"element": "H" 
			},
			{
				"x": -0.6383190011,
				"y": -0.2234116535,
				"z": -0.9019049816,
				"element": "H" 
			},
			{
				"x": 0.7245420581,
				"y": 2.0342204823,
				"z": 1.9229853331,
				"element": "H" 
			},
			{
				"x": 2.3990138693,
				"y": 1.6112203671,
				"z": 1.4946397375,
				"element": "H" 
			},
			{
				"x": 0.0713953377,
				"y": -1.5579112694,
				"z": 3.189558557,
				"element": "H" 
			},
			{
				"x": -0.8178760868,
				"y": -0.0532139241,
				"z": 2.8958775596,
				"element": "H" 
			}
		],
		 "valence_orbital": [ 
			{
				"type": "occ",
				"energy": -0.35981,
				"method": "rhf"
			},
			{
				"type": "occ",
				"energy": -0.34315,
				"method": "rhf"
			},
			{
				"type": "occ",
				"energy": -0.34308,
				"method": "rhf"
			},
			{
				"type": "occ",
				"energy": -0.26069,
				"method": "rhf"
			},
			{
				"type": "occ",
				"energy": -0.24615,
				"method": "rhf"
			},
			{
				"type": "unocc",
				"energy": -0.03647,
				"method": "rhf"
			},
			{
				"type": "unocc",
				"energy": -0.01288,
				"method": "rhf"
			},
			{
				"type": "unocc",
				"energy": 0.0729,
				"method": "rhf"
			},
			{
				"type": "unocc",
				"energy": 0.11033,
				"method": "rhf"
			},
			{
				"type": "unocc",
				"energy": 0.12027,
				"method": "rhf"
			}
		],
		"cosmo_sigma_profile": { 
			"-0.025": 0.0,
			"-0.024": 0.0,
			"-0.023": 0.0,
			"-0.022": 0.0,
			"-0.021": 0.0,
			"-0.02": 0.0,
			"-0.019": 0.0,
			"-0.018": 0.0,
			"-0.017": 0.0,
			"-0.016": 0.0,
			"-0.015": 0.0,
			"-0.014": 0.0,
			"-0.013": 0.0,
			"-0.012": 0.0,
			"-0.011": 0.0,
			"-0.01": 0.656742639263,
			"-0.009": 4.46803448576,
			"-0.008": 4.06537249392,
			"-0.007": 5.134413834,
			"-0.006": 8.00938117885,
			"-0.005": 10.3547404989,
			"-0.004": 19.4056151233,
			"-0.003": 20.6373552713,
			"-0.002": 18.6710771626,
			"-0.001": 11.7108018263,
			"0.0": 10.7339879351,
			"0.001": 6.55794717172,
			"0.002": 2.54401291256,
			"0.003": 3.06769155443,
			"0.004": 2.88704654861,
			"0.005": 2.90653209771,
			"0.006": 2.54174389811,
			"0.007": 2.69056112151,
			"0.008": 3.42997194577,
			"0.009": 3.54143230608,
			"0.01": 5.04937461934,
			"0.011": 7.17342023177,
			"0.012": 8.64734530347,
			"0.013": 2.20677743461,
			"0.014": 0.0,
			"0.015": 0.0,
			"0.016": 0.0,
			"0.017": 0.0,
			"0.018": 0.0,
			"0.019": 0.0,
			"0.02": 0.0,
			"0.021": 0.0,
			"0.022": 0.0,
			"0.023": 0.0,
			"0.024": 0.0,
			"0.025": 0.0
		}
	}
}
