{
	 "smiles": "NC1=C(Cl)C=NC=C1", 
	 "Tm": 324.15, 
	 "num_atms": 13, 
	 "gaussian": { 
		 "optdone": 1, 
		 "sigma_profile": "yes", 
		 "theory": "DFT", 
		 "functional": "B3LYP", 
		 "basiset": "6-31G**", 
		 "properties": { 
			 "R2extent": 1322.1707, 
			 "electric_dipole_moment_norm": 3.71238914582, 
			 "electric_quadrupole_moment_norm": 4.97796947259, 
			 "total_energy": -763.240500508, 
			 "HOMO_LUMO_gap": 0.21754, 
			 "cosmo_polarized_energy": -10.19, 
			 "cosmo_cavitation_energy": 18.65, 
			 "cosmo_dispersion_energy": -14.41, 
			 "cosmo_repulsion_energy": 1.19, 
			 "cosmo_total_nonelectrostatic_energy": 5.44, 
			 "SMD_solvation_energy": 1.58 
		},
		"coords": [
			{
				"x": 0.8604065949,
				"y": 1.1660772333,
				"z": -1.2076367085,
				"element": "N" 
			},
			{
				"x": 0.0505546566,
				"y": 0.7477928588,
				"z": -0.1827047523,
				"element": "C" 
			},
			{
				"x": 0.4709437615,
				"y": 0.7546498777,
				"z": 1.1620638616,
				"element": "C" 
			},
			{
				"x": 2.0651447258,
				"y": 1.3802173455,
				"z": 1.5742561326,
				"element": "Cl" 
			},
			{
				"x": -0.366172134,
				"y": 0.2782264648,
				"z": 2.1655670804,
				"element": "C" 
			},
			{
				"x": -1.591414335,
				"y": -0.2052196014,
				"z": 1.9377832657,
				"element": "N" 
			},
			{
				"x": -2.0015301325,
				"y": -0.2139944439,
				"z": 0.6605192722,
				"element": "C" 
			},
			{
				"x": -1.2432380214,
				"y": 0.2390844976,
				"z": -0.4101663557,
				"element": "C" 
			},
			{
				"x": 0.4222289238,
				"y": 1.3842616755,
				"z": -2.0887968785,
				"element": "H" 
			},
			{
				"x": 1.6624373723,
				"y": 1.7294535199,
				"z": -0.9678866282,
				"element": "H" 
			},
			{
				"x": -0.0212838312,
				"y": 0.2945922385,
				"z": 3.1971890365,
				"element": "H" 
			},
			{
				"x": -3.0007208995,
				"y": -0.6069870372,
				"z": 0.4819044181,
				"element": "H" 
			},
			{
				"x": -1.6384566814,
				"y": 0.1990453709,
				"z": -1.4214917439,
				"element": "H" 
			}
		],
		 "valence_orbital": [ 
			{
				"type": "occ",
				"energy": -0.34507,
				"method": "rhf"
			},
			{
				"type": "occ",
				"energy": -0.32865,
				"method": "rhf"
			},
			{
				"type": "occ",
				"energy": -0.25676,
				"method": "rhf"
			},
			{
				"type": "occ",
				"energy": -0.25524,
				"method": "rhf"
			},
			{
				"type": "occ",
				"energy": -0.23156,
				"method": "rhf"
			},
			{
				"type": "unocc",
				"energy": -0.01402,
				"method": "rhf"
			},
			{
				"type": "unocc",
				"energy": -0.00837,
				"method": "rhf"
			},
			{
				"type": "unocc",
				"energy": 0.02688,
				"method": "rhf"
			},
			{
				"type": "unocc",
				"energy": 0.07227,
				"method": "rhf"
			},
			{
				"type": "unocc",
				"energy": 0.11181,
				"method": "rhf"
			}
		],
		"cosmo_sigma_profile": { 
			"-0.025": 0.0,
			"-0.024": 0.0,
			"-0.023": 0.0,
			"-0.022": 0.0,
			"-0.021": 0.0,
			"-0.02": 0.0,
			"-0.019": 0.0,
			"-0.018": 0.0,
			"-0.017": 0.0,
			"-0.016": 0.0,
			"-0.015": 0.0354069186515,
			"-0.014": 1.25958982333,
			"-0.013": 1.74008597816,
			"-0.012": 2.35405461675,
			"-0.011": 3.13098793392,
			"-0.01": 2.79898745594,
			"-0.009": 1.92582283062,
			"-0.008": 2.22488830349,
			"-0.007": 5.20730466126,
			"-0.006": 6.81263777971,
			"-0.005": 6.75073421246,
			"-0.004": 6.03332158057,
			"-0.003": 6.60117575454,
			"-0.002": 6.88165690525,
			"-0.001": 7.64063327732,
			"0.0": 8.76281721216,
			"0.001": 14.1097396518,
			"0.002": 18.4288981184,
			"0.003": 14.9706891081,
			"0.004": 11.7790551647,
			"0.005": 5.65563317294,
			"0.006": 2.17557378661,
			"0.007": 1.68004555772,
			"0.008": 2.35947938114,
			"0.009": 2.44688592517,
			"0.01": 1.63639347433,
			"0.011": 0.848179175032,
			"0.012": 0.935289277336,
			"0.013": 0.599528464975,
			"0.014": 1.09238810328,
			"0.015": 1.10240140331,
			"0.016": 0.846273935776,
			"0.017": 0.659844817415,
			"0.018": 0.0605358688241,
			"0.019": 0.0,
			"0.02": 0.0,
			"0.021": 0.0,
			"0.022": 0.0,
			"0.023": 0.0,
			"0.024": 0.0,
			"0.025": 0.0
		}
	}
}
