{
	 "smiles": "FC1=C2NC(=O)COC2=CC=C1", 
	 "Tm": 446.15, 
	 "num_atms": 18, 
	 "gaussian": { 
		 "optdone": 1, 
		 "sigma_profile": "yes", 
		 "theory": "DFT", 
		 "functional": "B3LYP", 
		 "basiset": "6-31G**", 
		 "properties": { 
			 "R2extent": 2463.2701, 
			 "electric_dipole_moment_norm": 2.72263380204, 
			 "electric_quadrupole_moment_norm": 8.63528482391, 
			 "total_energy": -613.502279001, 
			 "HOMO_LUMO_gap": 0.20116, 
			 "cosmo_polarized_energy": -9.86, 
			 "cosmo_cavitation_energy": 22.64, 
			 "cosmo_dispersion_energy": -17.18, 
			 "cosmo_repulsion_energy": 1.34, 
			 "cosmo_total_nonelectrostatic_energy": 6.79, 
			 "SMD_solvation_energy": 5.2 
		},
		"coords": [
			{
				"x": 0.3057540203,
				"y": 3.0843109836,
				"z": -1.8886864681,
				"element": "F" 
			},
			{
				"x": 0.3080478152,
				"y": 1.781059445,
				"z": -1.5175087067,
				"element": "C" 
			},
			{
				"x": -0.5951264932,
				"y": 1.4009815184,
				"z": -0.5267144225,
				"element": "C" 
			},
			{
				"x": -1.4931677385,
				"y": 2.3090143733,
				"z": 0.0484181017,
				"element": "N" 
			},
			{
				"x": -2.2160451333,
				"y": 2.0210153548,
				"z": 1.177543263,
				"element": "C" 
			},
			{
				"x": -2.9823939595,
				"y": 2.8053198868,
				"z": 1.7086636568,
				"element": "O" 
			},
			{
				"x": -1.9240532388,
				"y": 0.6391143061,
				"z": 1.7629509756,
				"element": "C" 
			},
			{
				"x": -1.5375960524,
				"y": -0.3505696426,
				"z": 0.8039810944,
				"element": "O" 
			},
			{
				"x": -0.6242728526,
				"y": 0.0562269931,
				"z": -0.1301561066,
				"element": "C" 
			},
			{
				"x": 0.2302446137,
				"y": -0.873383751,
				"z": -0.720545906,
				"element": "C" 
			},
			{
				"x": 1.1163440296,
				"y": -0.461213872,
				"z": -1.7177182676,
				"element": "C" 
			},
			{
				"x": 1.1651598115,
				"y": 0.8750113232,
				"z": -2.1241166176,
				"element": "C" 
			},
			{
				"x": -1.5733496418,
				"y": 3.2402006491,
				"z": -0.3389750686,
				"element": "H" 
			},
			{
				"x": -2.830099299,
				"y": 0.2736592529,
				"z": 2.2458266843,
				"element": "H" 
			},
			{
				"x": -1.1403680053,
				"y": 0.7517067639,
				"z": 2.5279303224,
				"element": "H" 
			},
			{
				"x": 0.1803442824,
				"y": -1.9063205204,
				"z": -0.3947060127,
				"element": "H" 
			},
			{
				"x": 1.780402399,
				"y": -1.1852245889,
				"z": -2.1780342496,
				"element": "H" 
			},
			{
				"x": 1.8466754426,
				"y": 1.2203915247,
				"z": -2.8928522721,
				"element": "H" 
			}
		],
		 "valence_orbital": [ 
			{
				"type": "occ",
				"energy": -0.3316,
				"method": "rhf"
			},
			{
				"type": "occ",
				"energy": -0.32117,
				"method": "rhf"
			},
			{
				"type": "occ",
				"energy": -0.26727,
				"method": "rhf"
			},
			{
				"type": "occ",
				"energy": -0.24428,
				"method": "rhf"
			},
			{
				"type": "occ",
				"energy": -0.22515,
				"method": "rhf"
			},
			{
				"type": "unocc",
				"energy": -0.02399,
				"method": "rhf"
			},
			{
				"type": "unocc",
				"energy": -0.00601,
				"method": "rhf"
			},
			{
				"type": "unocc",
				"energy": 0.02315,
				"method": "rhf"
			},
			{
				"type": "unocc",
				"energy": 0.06423,
				"method": "rhf"
			},
			{
				"type": "unocc",
				"energy": 0.09657,
				"method": "rhf"
			}
		],
		"cosmo_sigma_profile": { 
			"-0.025": 0.0,
			"-0.024": 0.0,
			"-0.023": 0.0,
			"-0.022": 0.0,
			"-0.021": 0.0,
			"-0.02": 0.0,
			"-0.019": 0.0,
			"-0.018": 0.0,
			"-0.017": 0.0,
			"-0.016": 0.0282795940856,
			"-0.015": 0.417861951172,
			"-0.014": 1.12186556962,
			"-0.013": 0.516509758902,
			"-0.012": 0.905692753739,
			"-0.011": 0.494666823434,
			"-0.01": 0.8133156367,
			"-0.009": 1.43767354512,
			"-0.008": 5.6607282264,
			"-0.007": 8.52764637914,
			"-0.006": 11.7028527433,
			"-0.005": 11.6312573532,
			"-0.004": 10.3578031401,
			"-0.003": 10.7473584934,
			"-0.002": 9.82710152524,
			"-0.001": 9.76668607156,
			"0.0": 12.8155445671,
			"0.001": 14.9493450463,
			"0.002": 12.7466462577,
			"0.003": 15.2120534465,
			"0.004": 14.3927245752,
			"0.005": 4.14654823016,
			"0.006": 2.70205074462,
			"0.007": 2.21422825418,
			"0.008": 2.21489883904,
			"0.009": 2.43454798735,
			"0.01": 2.48134542908,
			"0.011": 2.32253810656,
			"0.012": 4.87434814411,
			"0.013": 4.07191061413,
			"0.014": 0.210406282908,
			"0.015": 0.0,
			"0.016": 0.0,
			"0.017": 0.0,
			"0.018": 0.0,
			"0.019": 0.0,
			"0.02": 0.0,
			"0.021": 0.0,
			"0.022": 0.0,
			"0.023": 0.0,
			"0.024": 0.0,
			"0.025": 0.0
		}
	}
}
