{
	 "smiles": "CC1=CC=C2C3=C(CCCC3)C3=C(CCCC3)C2=C1", 
	 "Tm": 366.15, 
	 "num_atms": 41, 
	 "gaussian": { 
		 "optdone": 1, 
		 "sigma_profile": "yes", 
		 "theory": "DFT", 
		 "functional": "B3LYP", 
		 "basiset": "6-31G**", 
		 "properties": { 
			 "R2extent": 5806.1142, 
			 "electric_dipole_moment_norm": 0.471906198306, 
			 "electric_quadrupole_moment_norm": 6.26686163482, 
			 "total_energy": -737.329943051, 
			 "HOMO_LUMO_gap": 0.16934, 
			 "cosmo_polarized_energy": -4.65, 
			 "cosmo_cavitation_energy": 38.62, 
			 "cosmo_dispersion_energy": -28.74, 
			 "cosmo_repulsion_energy": 2.19, 
			 "cosmo_total_nonelectrostatic_energy": 12.07, 
			 "SMD_solvation_energy": 4.49 
		},
		"coords": [
			{
				"x": -0.4950858879,
				"y": 3.0511123946,
				"z": -3.5024503309,
				"element": "C" 
			},
			{
				"x": -0.8636872721,
				"y": 2.3225245795,
				"z": -2.2327546566,
				"element": "C" 
			},
			{
				"x": -2.1389021841,
				"y": 2.519328275,
				"z": -1.644529151,
				"element": "C" 
			},
			{
				"x": -2.4875127734,
				"y": 1.8737881297,
				"z": -0.4821603141,
				"element": "C" 
			},
			{
				"x": -1.5933337305,
				"y": 0.9854964219,
				"z": 0.1791899635,
				"element": "C" 
			},
			{
				"x": -1.9248499907,
				"y": 0.3067074759,
				"z": 1.3920062232,
				"element": "C" 
			},
			{
				"x": -1.0010843669,
				"y": -0.5389172533,
				"z": 1.9883482938,
				"element": "C" 
			},
			{
				"x": -1.4634297098,
				"y": -1.2343214724,
				"z": 3.2541050915,
				"element": "C" 
			},
			{
				"x": -2.0655672278,
				"y": -0.2378930175,
				"z": 4.2705945771,
				"element": "C" 
			},
			{
				"x": -3.0517100075,
				"y": 0.7555129371,
				"z": 3.6031185317,
				"element": "C" 
			},
			{
				"x": -3.2542646336,
				"y": 0.4585535275,
				"z": 2.1007845983,
				"element": "C" 
			},
			{
				"x": 0.2936799532,
				"y": -0.7469675097,
				"z": 1.4149912002,
				"element": "C" 
			},
			{
				"x": 0.6242498987,
				"y": -0.1354176033,
				"z": 0.211840915,
				"element": "C" 
			},
			{
				"x": 1.9623052673,
				"y": -0.390662481,
				"z": -0.4676571037,
				"element": "C" 
			},
			{
				"x": 2.7304250813,
				"y": -1.5895133661,
				"z": 0.0966271432,
				"element": "C" 
			},
			{
				"x": 2.7223593573,
				"y": -1.5422595866,
				"z": 1.6219325985,
				"element": "C" 
			},
			{
				"x": 1.285251979,
				"y": -1.6473799583,
				"z": 2.140723849,
				"element": "C" 
			},
			{
				"x": -0.3069028259,
				"y": 0.7609316957,
				"z": -0.4126415808,
				"element": "C" 
			},
			{
				"x": 0.0144075638,
				"y": 1.4560128205,
				"z": -1.6137982761,
				"element": "C" 
			},
			{
				"x": 0.513725357,
				"y": 2.7916590936,
				"z": -3.8354046403,
				"element": "H" 
			},
			{
				"x": -1.1893188515,
				"y": 2.809939141,
				"z": -4.3165304902,
				"element": "H" 
			},
			{
				"x": -0.5331944808,
				"y": 4.1384610681,
				"z": -3.3641428696,
				"element": "H" 
			},
			{
				"x": -2.8481797797,
				"y": 3.1921737009,
				"z": -2.1210768704,
				"element": "H" 
			},
			{
				"x": -3.472733144,
				"y": 2.0494070769,
				"z": -0.0651878637,
				"element": "H" 
			},
			{
				"x": -2.2365171098,
				"y": -1.970072368,
				"z": 2.9861487323,
				"element": "H" 
			},
			{
				"x": -0.6651349678,
				"y": -1.8051871093,
				"z": 3.7303919157,
				"element": "H" 
			},
			{
				"x": -2.5628176926,
				"y": -0.80121489,
				"z": 5.0681968729,
				"element": "H" 
			},
			{
				"x": -1.2478877664,
				"y": 0.3145767817,
				"z": 4.7460223845,
				"element": "H" 
			},
			{
				"x": -4.0235526651,
				"y": 0.7357395457,
				"z": 4.1087971991,
				"element": "H" 
			},
			{
				"x": -2.6719593808,
				"y": 1.7781696705,
				"z": 3.700828832,
				"element": "H" 
			},
			{
				"x": -3.8307341095,
				"y": -0.4727902937,
				"z": 1.9955645217,
				"element": "H" 
			},
			{
				"x": -3.8707348026,
				"y": 1.2441634896,
				"z": 1.6607581623,
				"element": "H" 
			},
			{
				"x": 2.5896213621,
				"y": 0.5099957114,
				"z": -0.386437675,
				"element": "H" 
			},
			{
				"x": 1.8014356487,
				"y": -0.5431365201,
				"z": -1.540881866,
				"element": "H" 
			},
			{
				"x": 2.2595566219,
				"y": -2.523348107,
				"z": -0.2395556825,
				"element": "H" 
			},
			{
				"x": 3.7534475454,
				"y": -1.5925445197,
				"z": -0.2966164705,
				"element": "H" 
			},
			{
				"x": 3.1688208974,
				"y": -0.5962030361,
				"z": 1.9572726981,
				"element": "H" 
			},
			{
				"x": 3.3303629692,
				"y": -2.3477141105,
				"z": 2.0496170253,
				"element": "H" 
			},
			{
				"x": 0.9498589276,
				"y": -2.6927541704,
				"z": 2.0641912136,
				"element": "H" 
			},
			{
				"x": 1.2742391921,
				"y": -1.4133872717,
				"z": 3.2113376367,
				"element": "H" 
			},
			{
				"x": 0.9914477389,
				"y": 1.3118311079,
				"z": -2.0616643376,
				"element": "H" 
			}
		],
		 "valence_orbital": [ 
			{
				"type": "occ",
				"energy": -0.28983,
				"method": "rhf"
			},
			{
				"type": "occ",
				"energy": -0.28764,
				"method": "rhf"
			},
			{
				"type": "occ",
				"energy": -0.25698,
				"method": "rhf"
			},
			{
				"type": "occ",
				"energy": -0.21858,
				"method": "rhf"
			},
			{
				"type": "occ",
				"energy": -0.19348,
				"method": "rhf"
			},
			{
				"type": "unocc",
				"energy": -0.02414,
				"method": "rhf"
			},
			{
				"type": "unocc",
				"energy": 0.00138,
				"method": "rhf"
			},
			{
				"type": "unocc",
				"energy": 0.04649,
				"method": "rhf"
			},
			{
				"type": "unocc",
				"energy": 0.08371,
				"method": "rhf"
			},
			{
				"type": "unocc",
				"energy": 0.09191,
				"method": "rhf"
			}
		],
		"cosmo_sigma_profile": { 
			"-0.025": 0.0,
			"-0.024": 0.0,
			"-0.023": 0.0,
			"-0.022": 0.0,
			"-0.021": 0.0,
			"-0.02": 0.0,
			"-0.019": 0.0,
			"-0.018": 0.0,
			"-0.017": 0.0,
			"-0.016": 0.0,
			"-0.015": 0.0,
			"-0.014": 0.0,
			"-0.013": 0.0,
			"-0.012": 0.0,
			"-0.011": 0.0,
			"-0.01": 0.0,
			"-0.009": 0.0,
			"-0.008": 0.0,
			"-0.007": 0.0611014359476,
			"-0.006": 1.35549912548,
			"-0.005": 3.81891233965,
			"-0.004": 12.8623510275,
			"-0.003": 30.5652295222,
			"-0.002": 49.7741536945,
			"-0.001": 53.7440639084,
			"0.0": 49.6331332163,
			"0.001": 33.6539761898,
			"0.002": 13.212293235,
			"0.003": 9.85473134675,
			"0.004": 8.59135726129,
			"0.005": 13.0086649018,
			"0.006": 18.5229722442,
			"0.007": 3.08902018922,
			"0.008": 0.0,
			"0.009": 0.0,
			"0.01": 0.0,
			"0.011": 0.0,
			"0.012": 0.0,
			"0.013": 0.0,
			"0.014": 0.0,
			"0.015": 0.0,
			"0.016": 0.0,
			"0.017": 0.0,
			"0.018": 0.0,
			"0.019": 0.0,
			"0.02": 0.0,
			"0.021": 0.0,
			"0.022": 0.0,
			"0.023": 0.0,
			"0.024": 0.0,
			"0.025": 0.0
		}
	}
}
