{
	 "smiles": "CC(C)(C)C1=CN=C(C=N1)C(=O)NC1=CC(=CC(=C1)C(F)(F)F)C(F)(F)F", 
	 "Tm": 409.15, 
	 "num_atms": 42, 
	 "gaussian": { 
		 "optdone": 1, 
		 "sigma_profile": "yes", 
		 "theory": "DFT", 
		 "functional": "B3LYP", 
		 "basiset": "6-31G**", 
		 "properties": { 
			 "R2extent": 13202.6017, 
			 "electric_dipole_moment_norm": 1.96427795385, 
			 "electric_quadrupole_moment_norm": 13.9012549056, 
			 "total_energy": -1495.3971992, 
			 "HOMO_LUMO_gap": 0.17207, 
			 "cosmo_polarized_energy": -13.89, 
			 "cosmo_cavitation_energy": 49.41, 
			 "cosmo_dispersion_energy": -31.7, 
			 "cosmo_repulsion_energy": 2.28, 
			 "cosmo_total_nonelectrostatic_energy": 19.99, 
			 "SMD_solvation_energy": 9.68 
		},
		"coords": [
			{
				"x": 3.6740803788,
				"y": 1.5629942465,
				"z": -2.2511090157,
				"element": "C" 
			},
			{
				"x": 3.1690389755,
				"y": 0.1336543653,
				"z": -2.564771423,
				"element": "C" 
			},
			{
				"x": 4.3117503391,
				"y": -0.6760384749,
				"z": -3.2012858833,
				"element": "C" 
			},
			{
				"x": 1.9862726573,
				"y": 0.2116936138,
				"z": -3.5605423041,
				"element": "C" 
			},
			{
				"x": 2.690187744,
				"y": -0.5256993626,
				"z": -1.2684505046,
				"element": "C" 
			},
			{
				"x": 1.649113252,
				"y": 0.0347486291,
				"z": -0.4984655436,
				"element": "C" 
			},
			{
				"x": 1.2020349611,
				"y": -0.5209588484,
				"z": 0.6241861,
				"element": "N" 
			},
			{
				"x": 1.7994141429,
				"y": -1.6569968366,
				"z": 1.0152055612,
				"element": "C" 
			},
			{
				"x": 2.844164381,
				"y": -2.2142781274,
				"z": 0.2733532609,
				"element": "C" 
			},
			{
				"x": 3.277894927,
				"y": -1.6600355654,
				"z": -0.8632242763,
				"element": "N" 
			},
			{
				"x": 1.4167244494,
				"y": -2.3027441649,
				"z": 2.3159820268,
				"element": "C" 
			},
			{
				"x": 2.2205659155,
				"y": -3.0116692518,
				"z": 2.9095534629,
				"element": "O" 
			},
			{
				"x": 0.1835541744,
				"y": -2.0375990067,
				"z": 2.8853504652,
				"element": "N" 
			},
			{
				"x": -1.0337099044,
				"y": -1.5713606684,
				"z": 2.345153502,
				"element": "C" 
			},
			{
				"x": -1.8841171119,
				"y": -0.8271831431,
				"z": 3.1704059122,
				"element": "C" 
			},
			{
				"x": -3.1237926694,
				"y": -0.398078976,
				"z": 2.696708007,
				"element": "C" 
			},
			{
				"x": -3.5268575375,
				"y": -0.6855463598,
				"z": 1.3937539866,
				"element": "C" 
			},
			{
				"x": -2.6765530588,
				"y": -1.4318205245,
				"z": 0.5763955304,
				"element": "C" 
			},
			{
				"x": -1.4489053431,
				"y": -1.8922577318,
				"z": 1.0469595031,
				"element": "C" 
			},
			{
				"x": -3.0696312181,
				"y": -1.7127207485,
				"z": -0.851168105,
				"element": "C" 
			},
			{
				"x": -2.5652038759,
				"y": -2.8874503445,
				"z": -1.2878935258,
				"element": "F" 
			},
			{
				"x": -2.6095431989,
				"y": -0.752517072,
				"z": -1.6858075915,
				"element": "F" 
			},
			{
				"x": -4.4094967663,
				"y": -1.7600535845,
				"z": -1.0032419724,
				"element": "F" 
			},
			{
				"x": -4.0547426879,
				"y": 0.3414392009,
				"z": 3.6230103435,
				"element": "C" 
			},
			{
				"x": -4.8768931725,
				"y": 1.1719765974,
				"z": 2.9484956505,
				"element": "F" 
			},
			{
				"x": -4.8377012773,
				"y": -0.5139075465,
				"z": 4.3188384361,
				"element": "F" 
			},
			{
				"x": -3.376979689,
				"y": 1.0799234096,
				"z": 4.528481993,
				"element": "F" 
			},
			{
				"x": 2.8879640446,
				"y": 2.1953293344,
				"z": -1.8265346347,
				"element": "H" 
			},
			{
				"x": 4.0248661328,
				"y": 2.0435221913,
				"z": -3.1704963708,
				"element": "H" 
			},
			{
				"x": 4.5087891639,
				"y": 1.53951581,
				"z": -1.5431084823,
				"element": "H" 
			},
			{
				"x": 4.6353946396,
				"y": -0.185123236,
				"z": -4.1250204647,
				"element": "H" 
			},
			{
				"x": 5.170555766,
				"y": -0.7525604762,
				"z": -2.5297299059,
				"element": "H" 
			},
			{
				"x": 3.995199071,
				"y": -1.6939424352,
				"z": -3.4421497454,
				"element": "H" 
			},
			{
				"x": 1.1543458246,
				"y": 0.8052662367,
				"z": -3.1686246663,
				"element": "H" 
			},
			{
				"x": 2.3161923286,
				"y": 0.6790415389,
				"z": -4.4943527333,
				"element": "H" 
			},
			{
				"x": 1.6055864568,
				"y": -0.7865833151,
				"z": -3.7993813,
				"element": "H" 
			},
			{
				"x": 1.1641623082,
				"y": 0.959103427,
				"z": -0.8021013763,
				"element": "H" 
			},
			{
				"x": 3.3328694378,
				"y": -3.1224894841,
				"z": 0.6138669778,
				"element": "H" 
			},
			{
				"x": 0.1460226196,
				"y": -2.3867725633,
				"z": 3.8359241466,
				"element": "H" 
			},
			{
				"x": -1.5695475133,
				"y": -0.569245629,
				"z": 4.1760688707,
				"element": "H" 
			},
			{
				"x": -4.4851640823,
				"y": -0.3423234633,
				"z": 1.0245984551,
				"element": "H" 
			},
			{
				"x": -0.8251049847,
				"y": -2.5059516605,
				"z": 0.4097676331,
				"element": "H" 
			}
		],
		 "valence_orbital": [ 
			{
				"type": "occ",
				"energy": -0.28945,
				"method": "rhf"
			},
			{
				"type": "occ",
				"energy": -0.28695,
				"method": "rhf"
			},
			{
				"type": "occ",
				"energy": -0.27334,
				"method": "rhf"
			},
			{
				"type": "occ",
				"energy": -0.2571,
				"method": "rhf"
			},
			{
				"type": "occ",
				"energy": -0.24775,
				"method": "rhf"
			},
			{
				"type": "unocc",
				"energy": -0.07568,
				"method": "rhf"
			},
			{
				"type": "unocc",
				"energy": -0.05666,
				"method": "rhf"
			},
			{
				"type": "unocc",
				"energy": -0.04627,
				"method": "rhf"
			},
			{
				"type": "unocc",
				"energy": -0.03393,
				"method": "rhf"
			},
			{
				"type": "unocc",
				"energy": 0.03078,
				"method": "rhf"
			}
		],
		"cosmo_sigma_profile": { 
			"-0.025": 0.0,
			"-0.024": 0.0,
			"-0.023": 0.0,
			"-0.022": 0.0,
			"-0.021": 0.0,
			"-0.02": 0.0,
			"-0.019": 0.0,
			"-0.018": 0.0,
			"-0.017": 0.0,
			"-0.016": 0.203853891385,
			"-0.015": 1.1116382522,
			"-0.014": 1.07373022789,
			"-0.013": 0.997909461355,
			"-0.012": 1.42272410996,
			"-0.011": 0.937667540566,
			"-0.01": 1.35671931455,
			"-0.009": 2.55141206719,
			"-0.008": 5.30131501194,
			"-0.007": 9.01829795562,
			"-0.006": 9.43002028287,
			"-0.005": 10.8359278389,
			"-0.004": 16.1765960991,
			"-0.003": 32.9186037866,
			"-0.002": 35.7165865823,
			"-0.001": 40.3409242039,
			"0.0": 47.0804056069,
			"0.001": 41.2319013622,
			"0.002": 49.2254741712,
			"0.003": 47.5573590595,
			"0.004": 5.50437502103,
			"0.005": 3.9924086812,
			"0.006": 3.78459029528,
			"0.007": 3.74465528456,
			"0.008": 3.24978439581,
			"0.009": 3.43697811805,
			"0.01": 3.29004381891,
			"0.011": 3.87781287947,
			"0.012": 5.98559727361,
			"0.013": 1.90102091988,
			"0.014": 0.0,
			"0.015": 0.0,
			"0.016": 0.0,
			"0.017": 0.0,
			"0.018": 0.0,
			"0.019": 0.0,
			"0.02": 0.0,
			"0.021": 0.0,
			"0.022": 0.0,
			"0.023": 0.0,
			"0.024": 0.0,
			"0.025": 0.0
		}
	}
}
