{
	 "smiles": "NC(=O)C(=O)NC(C1=CC=CC=C1)C1(OCCO1)C1=CC=CC=C1", 
	 "Tm": 476.15, 
	 "num_atms": 42, 
	 "gaussian": { 
		 "optdone": 1, 
		 "sigma_profile": "yes", 
		 "theory": "DFT", 
		 "functional": "B3LYP", 
		 "basiset": "6-31G**", 
		 "properties": { 
			 "R2extent": 7146.1529, 
			 "electric_dipole_moment_norm": 1.78167529589, 
			 "electric_quadrupole_moment_norm": 17.1860769622, 
			 "total_energy": -1107.16943664, 
			 "HOMO_LUMO_gap": 0.20417, 
			 "cosmo_polarized_energy": -19.12, 
			 "cosmo_cavitation_energy": 44.34, 
			 "cosmo_dispersion_energy": -29.65, 
			 "cosmo_repulsion_energy": 2.31, 
			 "cosmo_total_nonelectrostatic_energy": 17.01, 
			 "SMD_solvation_energy": 8.36 
		},
		"coords": [
			{
				"x": -3.7858826867,
				"y": 1.4627400279,
				"z": 2.6323509291,
				"element": "N" 
			},
			{
				"x": -2.4554319616,
				"y": 1.2533583671,
				"z": 2.656419117,
				"element": "C" 
			},
			{
				"x": -1.6832515132,
				"y": 1.5914229738,
				"z": 3.5480630302,
				"element": "O" 
			},
			{
				"x": -1.9729965068,
				"y": 0.5111094777,
				"z": 1.3798943567,
				"element": "C" 
			},
			{
				"x": -2.7762534225,
				"y": 0.2218341106,
				"z": 0.4962697081,
				"element": "O" 
			},
			{
				"x": -0.6476829838,
				"y": 0.2762725841,
				"z": 1.4528832096,
				"element": "N" 
			},
			{
				"x": 0.3061091598,
				"y": -0.3151095258,
				"z": 0.5079426832,
				"element": "C" 
			},
			{
				"x": -0.0627973651,
				"y": -1.6568477501,
				"z": -0.1136822484,
				"element": "C" 
			},
			{
				"x": 0.8353683138,
				"y": -2.717110745,
				"z": 0.0828472425,
				"element": "C" 
			},
			{
				"x": 0.6049610455,
				"y": -3.9740518872,
				"z": -0.4750016814,
				"element": "C" 
			},
			{
				"x": -0.5368281432,
				"y": -4.1929270865,
				"z": -1.2460892194,
				"element": "C" 
			},
			{
				"x": -1.4369567504,
				"y": -3.1464726679,
				"z": -1.45019165,
				"element": "C" 
			},
			{
				"x": -1.2058302991,
				"y": -1.8867043591,
				"z": -0.8942167783,
				"element": "C" 
			},
			{
				"x": 0.8484080278,
				"y": 0.7635083751,
				"z": -0.4898269489,
				"element": "C" 
			},
			{
				"x": 1.4137833366,
				"y": 1.7991569127,
				"z": 0.3253319925,
				"element": "O" 
			},
			{
				"x": 2.699724464,
				"y": 2.1387091694,
				"z": -0.2024298143,
				"element": "C" 
			},
			{
				"x": 2.8502011162,
				"y": 1.2314351699,
				"z": -1.4354233274,
				"element": "C" 
			},
			{
				"x": 1.943657397,
				"y": 0.1653739786,
				"z": -1.1603950186,
				"element": "O" 
			},
			{
				"x": -0.1518311756,
				"y": 1.3621035855,
				"z": -1.4751840824,
				"element": "C" 
			},
			{
				"x": -0.8454385931,
				"y": 2.5369319187,
				"z": -1.1608030593,
				"element": "C" 
			},
			{
				"x": -1.7556568572,
				"y": 3.0821923852,
				"z": -2.0664528836,
				"element": "C" 
			},
			{
				"x": -1.9745443738,
				"y": 2.4648530779,
				"z": -3.2992222699,
				"element": "C" 
			},
			{
				"x": -1.2756567922,
				"y": 1.3006040868,
				"z": -3.6236240889,
				"element": "C" 
			},
			{
				"x": -0.3682299608,
				"y": 0.7510463489,
				"z": -2.717190787,
				"element": "C" 
			},
			{
				"x": -4.300972377,
				"y": 1.1378142759,
				"z": 1.8261445851,
				"element": "H" 
			},
			{
				"x": -4.2370276654,
				"y": 1.9388589227,
				"z": 3.3966062516,
				"element": "H" 
			},
			{
				"x": -0.2398292,
				"y": 0.7035126997,
				"z": 2.279307205,
				"element": "H" 
			},
			{
				"x": 1.1906133448,
				"y": -0.5044396573,
				"z": 1.1210068038,
				"element": "H" 
			},
			{
				"x": 1.7304097729,
				"y": -2.5551073201,
				"z": 0.6778085319,
				"element": "H" 
			},
			{
				"x": 1.3153136909,
				"y": -4.7782979652,
				"z": -0.3053248968,
				"element": "H" 
			},
			{
				"x": -0.7248793333,
				"y": -5.1706778127,
				"z": -1.6810271365,
				"element": "H" 
			},
			{
				"x": -2.3315806961,
				"y": -3.3077546485,
				"z": -2.0453453589,
				"element": "H" 
			},
			{
				"x": -1.9244067159,
				"y": -1.0918264216,
				"z": -1.0381262922,
				"element": "H" 
			},
			{
				"x": 3.4609516062,
				"y": 1.9325105081,
				"z": 0.5591930054,
				"element": "H" 
			},
			{
				"x": 2.7339222182,
				"y": 3.2033832837,
				"z": -0.4584348595,
				"element": "H" 
			},
			{
				"x": 2.5652789488,
				"y": 1.7549121771,
				"z": -2.3572123007,
				"element": "H" 
			},
			{
				"x": 3.8490877613,
				"y": 0.8060382607,
				"z": -1.5540291158,
				"element": "H" 
			},
			{
				"x": -0.6553148385,
				"y": 3.0248090781,
				"z": -0.2110249921,
				"element": "H" 
			},
			{
				"x": -2.2885652547,
				"y": 3.9940117952,
				"z": -1.811534914,
				"element": "H" 
			},
			{
				"x": -2.6806852813,
				"y": 2.8919905502,
				"z": -4.0057933419,
				"element": "H" 
			},
			{
				"x": -1.4333575579,
				"y": 0.820342451,
				"z": -4.5853121822,
				"element": "H" 
			},
			{
				"x": 0.1839981011,
				"y": -0.1475087052,
				"z": -2.9693694035,
				"element": "H" 
			}
		],
		 "valence_orbital": [ 
			{
				"type": "occ",
				"energy": -0.24675,
				"method": "rhf"
			},
			{
				"type": "occ",
				"energy": -0.24407,
				"method": "rhf"
			},
			{
				"type": "occ",
				"energy": -0.23889,
				"method": "rhf"
			},
			{
				"type": "occ",
				"energy": -0.23696,
				"method": "rhf"
			},
			{
				"type": "occ",
				"energy": -0.233,
				"method": "rhf"
			},
			{
				"type": "unocc",
				"energy": -0.02883,
				"method": "rhf"
			},
			{
				"type": "unocc",
				"energy": -0.00503,
				"method": "rhf"
			},
			{
				"type": "unocc",
				"energy": -0.00024,
				"method": "rhf"
			},
			{
				"type": "unocc",
				"energy": 0.00263,
				"method": "rhf"
			},
			{
				"type": "unocc",
				"energy": 0.01297,
				"method": "rhf"
			}
		],
		"cosmo_sigma_profile": { 
			"-0.025": 0.0,
			"-0.024": 0.0,
			"-0.023": 0.0,
			"-0.022": 0.0,
			"-0.021": 0.0,
			"-0.02": 0.0,
			"-0.019": 0.0,
			"-0.018": 0.0,
			"-0.017": 0.0,
			"-0.016": 0.0015294381244,
			"-0.015": 1.08558754862,
			"-0.014": 1.32302121786,
			"-0.013": 1.96329556802,
			"-0.012": 1.80294090932,
			"-0.011": 2.6027720515,
			"-0.01": 2.53197591869,
			"-0.009": 2.52114810731,
			"-0.008": 1.98990006849,
			"-0.007": 5.34187905743,
			"-0.006": 16.6429819303,
			"-0.005": 32.169525001,
			"-0.004": 31.2143610575,
			"-0.003": 29.5374143596,
			"-0.002": 22.3553827382,
			"-0.001": 22.32566995,
			"0.0": 19.7649277618,
			"0.001": 21.8575338422,
			"0.002": 22.2118349327,
			"0.003": 21.4157287157,
			"0.004": 19.689383802,
			"0.005": 19.0610641054,
			"0.006": 14.2338280815,
			"0.007": 7.26675219643,
			"0.008": 7.11691930282,
			"0.009": 5.83630788799,
			"0.01": 5.63712375723,
			"0.011": 4.41471115824,
			"0.012": 4.59251120823,
			"0.013": 2.70865500852,
			"0.014": 0.648670168333,
			"0.015": 0.0,
			"0.016": 0.0,
			"0.017": 0.0,
			"0.018": 0.0,
			"0.019": 0.0,
			"0.02": 0.0,
			"0.021": 0.0,
			"0.022": 0.0,
			"0.023": 0.0,
			"0.024": 0.0,
			"0.025": 0.0
		}
	}
}
