{
	 "smiles": "CC1=CC2=CC=CC=C2C=C1CC(F)(F)F", 
	 "Tm": 348.35, 
	 "num_atms": 27, 
	 "gaussian": { 
		 "optdone": 1, 
		 "sigma_profile": "yes", 
		 "theory": "DFT", 
		 "functional": "B3LYP", 
		 "basiset": "6-31G**", 
		 "properties": { 
			 "R2extent": 4737.0258, 
			 "electric_dipole_moment_norm": 2.10581157277, 
			 "electric_quadrupole_moment_norm": 8.73271163271, 
			 "total_energy": -801.566464326, 
			 "HOMO_LUMO_gap": 0.17681, 
			 "cosmo_polarized_energy": -6.38, 
			 "cosmo_cavitation_energy": 31.22, 
			 "cosmo_dispersion_energy": -22.28, 
			 "cosmo_repulsion_energy": 1.64, 
			 "cosmo_total_nonelectrostatic_energy": 10.58, 
			 "SMD_solvation_energy": 5.94 
		},
		"coords": [
			{
				"x": -1.0837374464,
				"y": -1.8987525231,
				"z": -1.6652373529,
				"element": "C" 
			},
			{
				"x": -0.5861309149,
				"y": -0.8241330897,
				"z": -0.727435836,
				"element": "C" 
			},
			{
				"x": 0.7640022666,
				"y": -0.7000602121,
				"z": -0.4749974508,
				"element": "C" 
			},
			{
				"x": 1.2856673392,
				"y": 0.2904827697,
				"z": 0.396494914,
				"element": "C" 
			},
			{
				"x": 2.6748445454,
				"y": 0.4241463379,
				"z": 0.6611418687,
				"element": "C" 
			},
			{
				"x": 3.1363418602,
				"y": 1.4013650066,
				"z": 1.5148626087,
				"element": "C" 
			},
			{
				"x": 2.2285812827,
				"y": 2.2896482236,
				"z": 2.1428744781,
				"element": "C" 
			},
			{
				"x": 0.8762195756,
				"y": 2.1836217963,
				"z": 1.9050427819,
				"element": "C" 
			},
			{
				"x": 0.369921003,
				"y": 1.1859515079,
				"z": 1.0295495228,
				"element": "C" 
			},
			{
				"x": -1.0178248805,
				"y": 1.0488867251,
				"z": 0.7620977667,
				"element": "C" 
			},
			{
				"x": -1.5032964329,
				"y": 0.0780317331,
				"z": -0.089046168,
				"element": "C" 
			},
			{
				"x": -2.9808997191,
				"y": -0.0912301323,
				"z": -0.3936011124,
				"element": "C" 
			},
			{
				"x": -3.9515364285,
				"y": 0.8536284451,
				"z": 0.2817105699,
				"element": "C" 
			},
			{
				"x": -3.7269143278,
				"y": 2.147236356,
				"z": -0.0407872633,
				"element": "F" 
			},
			{
				"x": -3.911218165,
				"y": 0.763166798,
				"z": 1.6299939218,
				"element": "F" 
			},
			{
				"x": -5.2170511031,
				"y": 0.5630604263,
				"z": -0.0987462385,
				"element": "F" 
			},
			{
				"x": -0.2507733645,
				"y": -2.4874939366,
				"z": -2.0568895175,
				"element": "H" 
			},
			{
				"x": -1.6234179786,
				"y": -1.4781769104,
				"z": -2.5228405856,
				"element": "H" 
			},
			{
				"x": -1.7730999861,
				"y": -2.5918829435,
				"z": -1.1672351172,
				"element": "H" 
			},
			{
				"x": 1.4602070408,
				"y": -1.3825217712,
				"z": -0.9576329357,
				"element": "H" 
			},
			{
				"x": 3.369034082,
				"y": -0.2588297359,
				"z": 0.1778620904,
				"element": "H" 
			},
			{
				"x": 4.200716074,
				"y": 1.4949903069,
				"z": 1.7104143275,
				"element": "H" 
			},
			{
				"x": 2.6050803322,
				"y": 3.0561097814,
				"z": 2.8140677907,
				"element": "H" 
			},
			{
				"x": 0.1767449317,
				"y": 2.8633467755,
				"z": 2.3850327922,
				"element": "H" 
			},
			{
				"x": -1.6941639191,
				"y": 1.738976461,
				"z": 1.2527070113,
				"element": "H" 
			},
			{
				"x": -3.3117751364,
				"y": -1.1019026598,
				"z": -0.1270717945,
				"element": "H" 
			},
			{
				"x": -3.1625205303,
				"y": 0.0106344643,
				"z": -1.4700310723,
				"element": "H" 
			}
		],
		 "valence_orbital": [ 
			{
				"type": "occ",
				"energy": -0.32778,
				"method": "rhf"
			},
			{
				"type": "occ",
				"energy": -0.31697,
				"method": "rhf"
			},
			{
				"type": "occ",
				"energy": -0.28251,
				"method": "rhf"
			},
			{
				"type": "occ",
				"energy": -0.23785,
				"method": "rhf"
			},
			{
				"type": "occ",
				"energy": -0.21433,
				"method": "rhf"
			},
			{
				"type": "unocc",
				"energy": -0.03752,
				"method": "rhf"
			},
			{
				"type": "unocc",
				"energy": -0.01071,
				"method": "rhf"
			},
			{
				"type": "unocc",
				"energy": 0.03298,
				"method": "rhf"
			},
			{
				"type": "unocc",
				"energy": 0.08168,
				"method": "rhf"
			},
			{
				"type": "unocc",
				"energy": 0.09079,
				"method": "rhf"
			}
		],
		"cosmo_sigma_profile": { 
			"-0.025": 0.0,
			"-0.024": 0.0,
			"-0.023": 0.0,
			"-0.022": 0.0,
			"-0.021": 0.0,
			"-0.02": 0.0,
			"-0.019": 0.0,
			"-0.018": 0.0,
			"-0.017": 0.0,
			"-0.016": 0.0,
			"-0.015": 0.0,
			"-0.014": 0.0,
			"-0.013": 0.0,
			"-0.012": 0.0,
			"-0.011": 0.0,
			"-0.01": 0.0,
			"-0.009": 0.0,
			"-0.008": 1.30402213763,
			"-0.007": 4.99557181503,
			"-0.006": 12.1675450676,
			"-0.005": 20.7630753206,
			"-0.004": 18.7934154976,
			"-0.003": 17.6352264519,
			"-0.002": 15.4963967279,
			"-0.001": 15.8172567547,
			"0.0": 16.0683157358,
			"0.001": 15.2241273776,
			"0.002": 22.2290880182,
			"0.003": 42.7850242068,
			"0.004": 25.3836256333,
			"0.005": 16.7164754523,
			"0.006": 3.45976445785,
			"0.007": 0.0,
			"0.008": 0.0,
			"0.009": 0.0,
			"0.01": 0.0,
			"0.011": 0.0,
			"0.012": 0.0,
			"0.013": 0.0,
			"0.014": 0.0,
			"0.015": 0.0,
			"0.016": 0.0,
			"0.017": 0.0,
			"0.018": 0.0,
			"0.019": 0.0,
			"0.02": 0.0,
			"0.021": 0.0,
			"0.022": 0.0,
			"0.023": 0.0,
			"0.024": 0.0,
			"0.025": 0.0
		}
	}
}
