{
	 "smiles": "CCCCCCCCCCCC(=O)OCC1=CC=CC=C1", 
	 "Tm": 281.65, 
	 "num_atms": 51, 
	 "gaussian": { 
		 "optdone": 1, 
		 "sigma_profile": "yes", 
		 "theory": "DFT", 
		 "functional": "B3LYP", 
		 "basiset": "6-31G**", 
		 "properties": { 
			 "R2extent": 9313.0609, 
			 "electric_dipole_moment_norm": 1.89594421859, 
			 "electric_quadrupole_moment_norm": 11.8053187733, 
			 "total_energy": -892.593710917, 
			 "HOMO_LUMO_gap": 0.23648, 
			 "cosmo_polarized_energy": -7.98, 
			 "cosmo_cavitation_energy": 51.98, 
			 "cosmo_dispersion_energy": -32.01, 
			 "cosmo_repulsion_energy": 2.52, 
			 "cosmo_total_nonelectrostatic_energy": 22.49, 
			 "SMD_solvation_energy": 8.2 
		},
		"coords": [
			{
				"x": -2.5071982126,
				"y": -1.627106658,
				"z": 1.0582720663,
				"element": "C" 
			},
			{
				"x": -2.8230006221,
				"y": -0.9159054649,
				"z": -0.2615878076,
				"element": "C" 
			},
			{
				"x": -2.0880029048,
				"y": 0.4211688538,
				"z": -0.4198989517,
				"element": "C" 
			},
			{
				"x": -2.4371078349,
				"y": 1.1602154457,
				"z": -1.7207720992,
				"element": "C" 
			},
			{
				"x": -1.7146361773,
				"y": 2.5119229734,
				"z": -1.9172733581,
				"element": "C" 
			},
			{
				"x": -0.3907050647,
				"y": 2.5084086476,
				"z": -2.7076721015,
				"element": "C" 
			},
			{
				"x": 0.8031448961,
				"y": 1.7283531476,
				"z": -2.1120517881,
				"element": "C" 
			},
			{
				"x": 0.9217050436,
				"y": 0.2693807948,
				"z": -2.5845794396,
				"element": "C" 
			},
			{
				"x": 2.1686335414,
				"y": -0.4674083517,
				"z": -2.0665177214,
				"element": "C" 
			},
			{
				"x": 2.1512251333,
				"y": -0.7618494587,
				"z": -0.5604343106,
				"element": "C" 
			},
			{
				"x": 3.4072507733,
				"y": -1.5261869046,
				"z": -0.097156482,
				"element": "C" 
			},
			{
				"x": 3.3629931632,
				"y": -1.8629050204,
				"z": 1.378595438,
				"element": "C" 
			},
			{
				"x": 3.2608077518,
				"y": -2.9821295796,
				"z": 1.8373996921,
				"element": "O" 
			},
			{
				"x": 3.4355879926,
				"y": -0.7391890957,
				"z": 2.1313046089,
				"element": "O" 
			},
			{
				"x": 3.3528179575,
				"y": -0.9089262751,
				"z": 3.5743066461,
				"element": "C" 
			},
			{
				"x": 1.9309349245,
				"y": -0.8105410374,
				"z": 4.0694551405,
				"element": "C" 
			},
			{
				"x": 1.4122073864,
				"y": 0.4196847964,
				"z": 4.4921165386,
				"element": "C" 
			},
			{
				"x": 0.0947953826,
				"y": 0.5199737713,
				"z": 4.9413203272,
				"element": "C" 
			},
			{
				"x": -0.7193487595,
				"y": -0.6137357775,
				"z": 4.971253733,
				"element": "C" 
			},
			{
				"x": -0.2109319353,
				"y": -1.845377163,
				"z": 4.5510701652,
				"element": "C" 
			},
			{
				"x": 1.1065386634,
				"y": -1.9446223303,
				"z": 4.1029715562,
				"element": "C" 
			},
			{
				"x": -3.0462832291,
				"y": -2.5768528073,
				"z": 1.1406352888,
				"element": "H" 
			},
			{
				"x": -1.4367214491,
				"y": -1.842872591,
				"z": 1.1498472214,
				"element": "H" 
			},
			{
				"x": -2.7868114928,
				"y": -1.0087052189,
				"z": 1.9187345329,
				"element": "H" 
			},
			{
				"x": -3.9057821794,
				"y": -0.7438057863,
				"z": -0.3359462396,
				"element": "H" 
			},
			{
				"x": -2.5646231917,
				"y": -1.5732422578,
				"z": -1.1034826888,
				"element": "H" 
			},
			{
				"x": -2.3340464969,
				"y": 1.0711049974,
				"z": 0.4321201384,
				"element": "H" 
			},
			{
				"x": -1.0068812976,
				"y": 0.2456695092,
				"z": -0.3570681887,
				"element": "H" 
			},
			{
				"x": -3.5212111465,
				"y": 1.3363365682,
				"z": -1.7222917305,
				"element": "H" 
			},
			{
				"x": -2.2448871698,
				"y": 0.5084128747,
				"z": -2.5843991413,
				"element": "H" 
			},
			{
				"x": -2.3929704131,
				"y": 3.1947953545,
				"z": -2.4445969277,
				"element": "H" 
			},
			{
				"x": -1.5424521969,
				"y": 2.9714503499,
				"z": -0.9334536654,
				"element": "H" 
			},
			{
				"x": -0.0909922641,
				"y": 3.5577418269,
				"z": -2.8244472597,
				"element": "H" 
			},
			{
				"x": -0.5834365529,
				"y": 2.1432636937,
				"z": -3.7267193117,
				"element": "H" 
			},
			{
				"x": 0.7608021444,
				"y": 1.7777076319,
				"z": -1.0165578101,
				"element": "H" 
			},
			{
				"x": 1.7324592971,
				"y": 2.2411397982,
				"z": -2.3958582535,
				"element": "H" 
			},
			{
				"x": 0.0260565263,
				"y": -0.2996535086,
				"z": -2.3056536286,
				"element": "H" 
			},
			{
				"x": 0.9477848171,
				"y": 0.2678329818,
				"z": -3.6825643621,
				"element": "H" 
			},
			{
				"x": 3.065017116,
				"y": 0.1208338884,
				"z": -2.3112750487,
				"element": "H" 
			},
			{
				"x": 2.2711819069,
				"y": -1.416720625,
				"z": -2.6092189542,
				"element": "H" 
			},
			{
				"x": 1.2603174847,
				"y": -1.3560410994,
				"z": -0.3172450827,
				"element": "H" 
			},
			{
				"x": 2.0749978496,
				"y": 0.1665142645,
				"z": 0.0145960256,
				"element": "H" 
			},
			{
				"x": 4.2972895133,
				"y": -0.9161201248,
				"z": -0.2922467381,
				"element": "H" 
			},
			{
				"x": 3.5105783588,
				"y": -2.4692097946,
				"z": -0.6402543156,
				"element": "H" 
			},
			{
				"x": 3.7990369989,
				"y": -1.8705601253,
				"z": 3.8345216454,
				"element": "H" 
			},
			{
				"x": 3.9637144099,
				"y": -0.0978018778,
				"z": 3.9761416486,
				"element": "H" 
			},
			{
				"x": 2.0459469065,
				"y": 1.3031387595,
				"z": 4.4718333929,
				"element": "H" 
			},
			{
				"x": -0.2939261585,
				"y": 1.4796621534,
				"z": 5.2700074452,
				"element": "H" 
			},
			{
				"x": -1.7439794313,
				"y": -0.5392057489,
				"z": 5.3245485984,
				"element": "H" 
			},
			{
				"x": -0.8400772211,
				"y": -2.7305668774,
				"z": 4.576624518,
				"element": "H" 
			},
			{
				"x": 1.5049874625,
				"y": -2.8971715227,
				"z": 3.7678470391,
				"element": "H" 
			}
		],
		 "valence_orbital": [ 
			{
				"type": "occ",
				"energy": -0.29574,
				"method": "rhf"
			},
			{
				"type": "occ",
				"energy": -0.29444,
				"method": "rhf"
			},
			{
				"type": "occ",
				"energy": -0.26625,
				"method": "rhf"
			},
			{
				"type": "occ",
				"energy": -0.25085,
				"method": "rhf"
			},
			{
				"type": "occ",
				"energy": -0.24745,
				"method": "rhf"
			},
			{
				"type": "unocc",
				"energy": -0.01097,
				"method": "rhf"
			},
			{
				"type": "unocc",
				"energy": -0.00214,
				"method": "rhf"
			},
			{
				"type": "unocc",
				"energy": 0.01433,
				"method": "rhf"
			},
			{
				"type": "unocc",
				"energy": 0.07368,
				"method": "rhf"
			},
			{
				"type": "unocc",
				"energy": 0.09053,
				"method": "rhf"
			}
		],
		"cosmo_sigma_profile": { 
			"-0.025": 0.0,
			"-0.024": 0.0,
			"-0.023": 0.0,
			"-0.022": 0.0,
			"-0.021": 0.0,
			"-0.02": 0.0,
			"-0.019": 0.0,
			"-0.018": 0.0,
			"-0.017": 0.0,
			"-0.016": 0.0,
			"-0.015": 0.0,
			"-0.014": 0.0,
			"-0.013": 0.0,
			"-0.012": 0.0,
			"-0.011": 0.0,
			"-0.01": 0.0,
			"-0.009": 0.0,
			"-0.008": 0.0,
			"-0.007": 1.00026454211,
			"-0.006": 7.90375432841,
			"-0.005": 15.5029294104,
			"-0.004": 19.3238279851,
			"-0.003": 26.3439756102,
			"-0.002": 49.0097950504,
			"-0.001": 71.3651517733,
			"0.0": 67.0622833167,
			"0.001": 52.9686202355,
			"0.002": 33.0983072067,
			"0.003": 14.6860834476,
			"0.004": 11.1929841143,
			"0.005": 12.4638124175,
			"0.006": 6.43127043216,
			"0.007": 2.3102112242,
			"0.008": 2.51123156348,
			"0.009": 1.96718291792,
			"0.01": 1.36649416071,
			"0.011": 2.57337585582,
			"0.012": 2.80440571566,
			"0.013": 1.56505913581,
			"0.014": 0.0750099990808,
			"0.015": 0.0,
			"0.016": 0.0,
			"0.017": 0.0,
			"0.018": 0.0,
			"0.019": 0.0,
			"0.02": 0.0,
			"0.021": 0.0,
			"0.022": 0.0,
			"0.023": 0.0,
			"0.024": 0.0,
			"0.025": 0.0
		}
	}
}
