{
	 "smiles": "CCOC(=O)OC(=O)C1=CC(C)(C)N(O)C1(C)C", 
	 "Tm": 337.65, 
	 "num_atms": 37, 
	 "gaussian": { 
		 "optdone": 1, 
		 "sigma_profile": "yes", 
		 "theory": "DFT", 
		 "functional": "B3LYP", 
		 "basiset": "6-31G**", 
		 "properties": { 
			 "R2extent": 6306.4183, 
			 "electric_dipole_moment_norm": 2.89108430524, 
			 "electric_quadrupole_moment_norm": 22.1650017893, 
			 "total_energy": -899.554975574, 
			 "HOMO_LUMO_gap": 0.16068, 
			 "cosmo_polarized_energy": -13.76, 
			 "cosmo_cavitation_energy": 39.51, 
			 "cosmo_dispersion_energy": -26.98, 
			 "cosmo_repulsion_energy": 2.13, 
			 "cosmo_total_nonelectrostatic_energy": 14.65, 
			 "SMD_solvation_energy": 9.38 
		},
		"coords": [
			{
				"x": -0.5076023244,
				"y": -5.898699724,
				"z": -1.4002335983,
				"element": "C" 
			},
			{
				"x": 0.6603527473,
				"y": -5.2918912931,
				"z": -0.6402988933,
				"element": "C" 
			},
			{
				"x": 0.2869370903,
				"y": -4.0330120498,
				"z": -0.0191605572,
				"element": "O" 
			},
			{
				"x": 0.3509406975,
				"y": -2.9603038057,
				"z": -0.811781791,
				"element": "C" 
			},
			{
				"x": 0.6837113164,
				"y": -2.9216817195,
				"z": -1.9663896682,
				"element": "O" 
			},
			{
				"x": 0.0346947051,
				"y": -1.8732653653,
				"z": -0.0316593531,
				"element": "O" 
			},
			{
				"x": -0.6365216354,
				"y": -0.7916547772,
				"z": -0.6097312479,
				"element": "C" 
			},
			{
				"x": -1.3287067427,
				"y": -0.9060040266,
				"z": -1.5898424035,
				"element": "O" 
			},
			{
				"x": -0.4345269965,
				"y": 0.4338754039,
				"z": 0.1760710454,
				"element": "C" 
			},
			{
				"x": 0.2620424903,
				"y": 0.526866514,
				"z": 1.3182709403,
				"element": "C" 
			},
			{
				"x": 0.2059882785,
				"y": 1.9146215638,
				"z": 1.9002463609,
				"element": "C" 
			},
			{
				"x": -0.7056006281,
				"y": 1.9449870123,
				"z": 3.1485956438,
				"element": "C" 
			},
			{
				"x": 1.5977191214,
				"y": 2.4650131446,
				"z": 2.260634397,
				"element": "C" 
			},
			{
				"x": -0.3168245993,
				"y": 2.6671738733,
				"z": 0.7235302517,
				"element": "N" 
			},
			{
				"x": -1.1018926559,
				"y": 3.7914828013,
				"z": 1.1284707685,
				"element": "O" 
			},
			{
				"x": -1.0788364468,
				"y": 1.7629256984,
				"z": -0.1978617992,
				"element": "C" 
			},
			{
				"x": -2.6016955459,
				"y": 1.7325711941,
				"z": 0.0458643018,
				"element": "C" 
			},
			{
				"x": -0.790717611,
				"y": 2.2039925646,
				"z": -1.6425548567,
				"element": "C" 
			},
			{
				"x": -0.7943807518,
				"y": -5.2597994157,
				"z": -2.2388770037,
				"element": "H" 
			},
			{
				"x": -1.3715726095,
				"y": -6.0340299506,
				"z": -0.7433364856,
				"element": "H" 
			},
			{
				"x": -0.2194930154,
				"y": -6.8778372515,
				"z": -1.7967952339,
				"element": "H" 
			},
			{
				"x": 1.5162416798,
				"y": -5.1176011856,
				"z": -1.2967574864,
				"element": "H" 
			},
			{
				"x": 0.9670581503,
				"y": -5.9186444399,
				"z": 0.1997189856,
				"element": "H" 
			},
			{
				"x": 0.7839155932,
				"y": -0.2920563751,
				"z": 1.8005226495,
				"element": "H" 
			},
			{
				"x": -0.8361398624,
				"y": 2.9753342035,
				"z": 3.4864131266,
				"element": "H" 
			},
			{
				"x": -0.2499795277,
				"y": 1.3653492835,
				"z": 3.9578015154,
				"element": "H" 
			},
			{
				"x": -1.6922927448,
				"y": 1.5252618839,
				"z": 2.9420561784,
				"element": "H" 
			},
			{
				"x": 2.262112965,
				"y": 2.4246426602,
				"z": 1.3937614828,
				"element": "H" 
			},
			{
				"x": 2.0496087774,
				"y": 1.8996960348,
				"z": 3.0826983916,
				"element": "H" 
			},
			{
				"x": 1.5081127505,
				"y": 3.5092958079,
				"z": 2.577553251,
				"element": "H" 
			},
			{
				"x": -0.6196998072,
				"y": 4.535283463,
				"z": 0.7436743081,
				"element": "H" 
			},
			{
				"x": -2.8461294632,
				"y": 1.4180596455,
				"z": 1.0633661659,
				"element": "H" 
			},
			{
				"x": -3.0650336523,
				"y": 1.0306507341,
				"z": -0.6523695109,
				"element": "H" 
			},
			{
				"x": -3.0268997586,
				"y": 2.7256244616,
				"z": -0.1142577563,
				"element": "H" 
			},
			{
				"x": -1.2781665748,
				"y": 1.5416004788,
				"z": -2.3608636572,
				"element": "H" 
			},
			{
				"x": 0.2858644384,
				"y": 2.2079185374,
				"z": -1.8333780485,
				"element": "H" 
			},
			{
				"x": -1.1685878477,
				"y": 3.2212544152,
				"z": -1.7913004132,
				"element": "H" 
			}
		],
		 "valence_orbital": [ 
			{
				"type": "occ",
				"energy": -0.29546,
				"method": "rhf"
			},
			{
				"type": "occ",
				"energy": -0.28825,
				"method": "rhf"
			},
			{
				"type": "occ",
				"energy": -0.28035,
				"method": "rhf"
			},
			{
				"type": "occ",
				"energy": -0.27108,
				"method": "rhf"
			},
			{
				"type": "occ",
				"energy": -0.21908,
				"method": "rhf"
			},
			{
				"type": "unocc",
				"energy": -0.0584,
				"method": "rhf"
			},
			{
				"type": "unocc",
				"energy": 0.02341,
				"method": "rhf"
			},
			{
				"type": "unocc",
				"energy": 0.06229,
				"method": "rhf"
			},
			{
				"type": "unocc",
				"energy": 0.07662,
				"method": "rhf"
			},
			{
				"type": "unocc",
				"energy": 0.09239,
				"method": "rhf"
			}
		],
		"cosmo_sigma_profile": { 
			"-0.025": 0.0,
			"-0.024": 0.0,
			"-0.023": 0.0,
			"-0.022": 0.0,
			"-0.021": 0.0,
			"-0.02": 0.0,
			"-0.019": 0.0,
			"-0.018": 0.0,
			"-0.017": 0.0,
			"-0.016": 0.365457336506,
			"-0.015": 1.27725587867,
			"-0.014": 0.424241653641,
			"-0.013": 0.609667732004,
			"-0.012": 1.15189469223,
			"-0.011": 0.541411472488,
			"-0.01": 0.683772120408,
			"-0.009": 0.319372496378,
			"-0.008": 1.69145447456,
			"-0.007": 2.63531608308,
			"-0.006": 6.48574734807,
			"-0.005": 13.6065444294,
			"-0.004": 24.5012862997,
			"-0.003": 32.8947303449,
			"-0.002": 36.0147073152,
			"-0.001": 38.9122394111,
			"0.0": 39.8475824942,
			"0.001": 28.9422768319,
			"0.002": 12.3621538578,
			"0.003": 8.21265703969,
			"0.004": 7.50004126425,
			"0.005": 6.6894955151,
			"0.006": 5.69365700745,
			"0.007": 7.56824821793,
			"0.008": 5.65932626839,
			"0.009": 6.74252992861,
			"0.01": 8.00070660235,
			"0.011": 7.22540254019,
			"0.012": 2.05927727674,
			"0.013": 0.0,
			"0.014": 0.0,
			"0.015": 0.0,
			"0.016": 0.0,
			"0.017": 0.0,
			"0.018": 0.0,
			"0.019": 0.0,
			"0.02": 0.0,
			"0.021": 0.0,
			"0.022": 0.0,
			"0.023": 0.0,
			"0.024": 0.0,
			"0.025": 0.0
		}
	}
}
