{
	 "smiles": "BrC1=CC2=C(NC3=C2CCCC3=O)C=C1", 
	 "Tm": 463.15, 
	 "num_atms": 25, 
	 "gaussian": { 
		 "optdone": 1, 
		 "sigma_profile": "yes", 
		 "theory": "DFT", 
		 "functional": "B3LYP", 
		 "basiset": "6-31G**", 
		 "properties": { 
			 "R2extent": 5969.496, 
			 "electric_dipole_moment_norm": 0.824178645683, 
			 "electric_quadrupole_moment_norm": 18.3034581397, 
			 "total_energy": -3164.70875037, 
			 "HOMO_LUMO_gap": 0.15675, 
			 "cosmo_polarized_energy": -10.74, 
			 "cosmo_cavitation_energy": 30.58, 
			 "cosmo_dispersion_energy": -23.15, 
			 "cosmo_repulsion_energy": 1.81, 
			 "cosmo_total_nonelectrostatic_energy": 9.23, 
			 "SMD_solvation_energy": 3.47 
		},
		"coords": [
			{
				"x": 0.529711405,
				"y": -4.1397690845,
				"z": 2.4948992106,
				"element": "Br" 
			},
			{
				"x": -0.0947118889,
				"y": -2.9297096835,
				"z": 1.1470080233,
				"element": "C" 
			},
			{
				"x": 0.5738246942,
				"y": -1.7357058594,
				"z": 0.9456544331,
				"element": "C" 
			},
			{
				"x": 0.0918791523,
				"y": -0.8672355325,
				"z": -0.0527945958,
				"element": "C" 
			},
			{
				"x": -1.058433994,
				"y": -1.2427108237,
				"z": -0.8154891855,
				"element": "C" 
			},
			{
				"x": -1.3181544869,
				"y": -0.2324865405,
				"z": -1.7068203091,
				"element": "N" 
			},
			{
				"x": -0.3766023571,
				"y": 0.7634685515,
				"z": -1.535802009,
				"element": "C" 
			},
			{
				"x": 0.5059854537,
				"y": 0.4188851113,
				"z": -0.5285968769,
				"element": "C" 
			},
			{
				"x": 1.6336875925,
				"y": 1.3228801173,
				"z": -0.1255362792,
				"element": "C" 
			},
			{
				"x": 1.317903561,
				"y": 2.7760393294,
				"z": -0.5377508216,
				"element": "C" 
			},
			{
				"x": 0.8511299217,
				"y": 2.8909066133,
				"z": -2.0020723501,
				"element": "C" 
			},
			{
				"x": -0.3309619264,
				"y": 1.9831837314,
				"z": -2.3323166004,
				"element": "C" 
			},
			{
				"x": -1.1525672778,
				"y": 2.2270286727,
				"z": -3.2095134099,
				"element": "O" 
			},
			{
				"x": -1.7216605054,
				"y": -2.4571549993,
				"z": -0.5953099045,
				"element": "C" 
			},
			{
				"x": -1.2291115852,
				"y": -3.297610468,
				"z": 0.392266348,
				"element": "C" 
			},
			{
				"x": 1.4436841656,
				"y": -1.4807466819,
				"z": 1.5403736894,
				"element": "H" 
			},
			{
				"x": -2.0557212605,
				"y": -0.1822958952,
				"z": -2.3927595107,
				"element": "H" 
			},
			{
				"x": 2.5689710558,
				"y": 0.9950311003,
				"z": -0.6041114699,
				"element": "H" 
			},
			{
				"x": 1.8106680492,
				"y": 1.2679909761,
				"z": 0.9550480564,
				"element": "H" 
			},
			{
				"x": 0.5276276327,
				"y": 3.1626793991,
				"z": 0.1175039293,
				"element": "H" 
			},
			{
				"x": 2.197265691,
				"y": 3.4096703938,
				"z": -0.380948778,
				"element": "H" 
			},
			{
				"x": 1.6708294011,
				"y": 2.6059991607,
				"z": -2.678819742,
				"element": "H" 
			},
			{
				"x": 0.5735905858,
				"y": 3.916754084,
				"z": -2.2613435623,
				"element": "H" 
			},
			{
				"x": -2.5947357541,
				"y": -2.739115506,
				"z": -1.1757721184,
				"element": "H" 
			},
			{
				"x": -1.7144973252,
				"y": -4.2457761664,
				"z": 0.5918038332,
				"element": "H" 
			}
		],
		 "valence_orbital": [ 
			{
				"type": "occ",
				"energy": -0.2887,
				"method": "rhf"
			},
			{
				"type": "occ",
				"energy": -0.28472,
				"method": "rhf"
			},
			{
				"type": "occ",
				"energy": -0.25028,
				"method": "rhf"
			},
			{
				"type": "occ",
				"energy": -0.23005,
				"method": "rhf"
			},
			{
				"type": "occ",
				"energy": -0.21959,
				"method": "rhf"
			},
			{
				"type": "unocc",
				"energy": -0.06284,
				"method": "rhf"
			},
			{
				"type": "unocc",
				"energy": -0.00113,
				"method": "rhf"
			},
			{
				"type": "unocc",
				"energy": 0.00883,
				"method": "rhf"
			},
			{
				"type": "unocc",
				"energy": 0.01284,
				"method": "rhf"
			},
			{
				"type": "unocc",
				"energy": 0.07393,
				"method": "rhf"
			}
		],
		"cosmo_sigma_profile": { 
			"-0.025": 0.0,
			"-0.024": 0.0,
			"-0.023": 0.0,
			"-0.022": 0.0,
			"-0.021": 0.0,
			"-0.02": 0.0,
			"-0.019": 0.0,
			"-0.018": 0.0,
			"-0.017": 0.0,
			"-0.016": 0.145155189783,
			"-0.015": 1.05381322207,
			"-0.014": 0.973450069591,
			"-0.013": 1.17551797887,
			"-0.012": 0.816461330125,
			"-0.011": 0.892082621997,
			"-0.01": 1.17367554196,
			"-0.009": 0.890552391262,
			"-0.008": 2.0902987494,
			"-0.007": 4.48108497708,
			"-0.006": 6.79347106713,
			"-0.005": 12.7422117843,
			"-0.004": 19.8397770544,
			"-0.003": 23.4165102822,
			"-0.002": 24.9920601163,
			"-0.001": 21.3877553616,
			"0.0": 14.1279307093,
			"0.001": 13.0466430115,
			"0.002": 21.410828892,
			"0.003": 26.3784511412,
			"0.004": 18.7635502472,
			"0.005": 11.672093953,
			"0.006": 2.59070558914,
			"0.007": 1.39422091563,
			"0.008": 0.869651787232,
			"0.009": 1.38724080632,
			"0.01": 2.31628067757,
			"0.011": 2.27490908921,
			"0.012": 4.19912565043,
			"0.013": 2.57788557199,
			"0.014": 0.900915489836,
			"0.015": 0.00216471739702,
			"0.016": 0.0,
			"0.017": 0.0,
			"0.018": 0.0,
			"0.019": 0.0,
			"0.02": 0.0,
			"0.021": 0.0,
			"0.022": 0.0,
			"0.023": 0.0,
			"0.024": 0.0,
			"0.025": 0.0
		}
	}
}
