{
	 "smiles": "FC1=CC(=CC=C1)C(=O)N1CCCNCC1", 
	 "Tm": 323.15, 
	 "num_atms": 31, 
	 "gaussian": { 
		 "optdone": 1, 
		 "sigma_profile": "yes", 
		 "theory": "DFT", 
		 "functional": "B3LYP", 
		 "basiset": "6-31G**", 
		 "properties": { 
			 "R2extent": 4232.0434, 
			 "electric_dipole_moment_norm": 3.51857311136, 
			 "electric_quadrupole_moment_norm": 12.7674429918, 
			 "total_energy": -750.878912495, 
			 "HOMO_LUMO_gap": 0.1815, 
			 "cosmo_polarized_energy": -12.69, 
			 "cosmo_cavitation_energy": 32.89, 
			 "cosmo_dispersion_energy": -23.23, 
			 "cosmo_repulsion_energy": 1.78, 
			 "cosmo_total_nonelectrostatic_energy": 11.43, 
			 "SMD_solvation_energy": 3.04 
		},
		"coords": [
			{
				"x": -3.0847314295,
				"y": 3.9728938291,
				"z": 0.895088352,
				"element": "F" 
			},
			{
				"x": -2.2868551541,
				"y": 3.3199280631,
				"z": 0.0253946495,
				"element": "C" 
			},
			{
				"x": -2.068378793,
				"y": 1.9611720101,
				"z": 0.2062508807,
				"element": "C" 
			},
			{
				"x": -1.2235102388,
				"y": 1.2859760309,
				"z": -0.6828884092,
				"element": "C" 
			},
			{
				"x": -0.6510503226,
				"y": 1.9803662273,
				"z": -1.7582398999,
				"element": "C" 
			},
			{
				"x": -0.9047184592,
				"y": 3.3425149372,
				"z": -1.9284740669,
				"element": "C" 
			},
			{
				"x": -1.7191846847,
				"y": 4.0299136739,
				"z": -1.0279605564,
				"element": "C" 
			},
			{
				"x": -1.0774805738,
				"y": -0.2061836374,
				"z": -0.5105194683,
				"element": "C" 
			},
			{
				"x": -2.0804169682,
				"y": -0.8955418628,
				"z": -0.3299633926,
				"element": "O" 
			},
			{
				"x": 0.1809653941,
				"y": -0.7554722695,
				"z": -0.6063255238,
				"element": "N" 
			},
			{
				"x": 0.276531939,
				"y": -2.2225220109,
				"z": -0.5591882385,
				"element": "C" 
			},
			{
				"x": 0.3505843002,
				"y": -2.8164727656,
				"z": 0.8538325667,
				"element": "C" 
			},
			{
				"x": 1.43162306,
				"y": -2.2136111172,
				"z": 1.7716359031,
				"element": "C" 
			},
			{
				"x": 1.2127743841,
				"y": -0.8174443746,
				"z": 2.1519144163,
				"element": "N" 
			},
			{
				"x": 1.6465262853,
				"y": 0.2174414671,
				"z": 1.2225226615,
				"element": "C" 
			},
			{
				"x": 1.4171609986,
				"y": -0.0323548736,
				"z": -0.2947883228,
				"element": "C" 
			},
			{
				"x": -2.5599137422,
				"y": 1.4308511127,
				"z": 1.0138602943,
				"element": "H" 
			},
			{
				"x": -0.03377859,
				"y": 1.4492659845,
				"z": -2.4756647192,
				"element": "H" 
			},
			{
				"x": -0.4699347106,
				"y": 3.8731030583,
				"z": -2.7702070097,
				"element": "H" 
			},
			{
				"x": -1.9266348964,
				"y": 5.0891292604,
				"z": -1.1340244826,
				"element": "H" 
			},
			{
				"x": 1.1707101356,
				"y": -2.5000657792,
				"z": -1.1310978803,
				"element": "H" 
			},
			{
				"x": -0.5967246866,
				"y": -2.622785916,
				"z": -1.0768020334,
				"element": "H" 
			},
			{
				"x": -0.6275168363,
				"y": -2.6900049716,
				"z": 1.334016152,
				"element": "H" 
			},
			{
				"x": 0.514653865,
				"y": -3.898853071,
				"z": 0.7595742516,
				"element": "H" 
			},
			{
				"x": 1.4770142159,
				"y": -2.8155483611,
				"z": 2.688642196,
				"element": "H" 
			},
			{
				"x": 2.4248428512,
				"y": -2.2935011433,
				"z": 1.3095748703,
				"element": "H" 
			},
			{
				"x": 0.235935328,
				"y": -0.6833177647,
				"z": 2.392483244,
				"element": "H" 
			},
			{
				"x": 2.7216926933,
				"y": 0.4073510114,
				"z": 1.3565616587,
				"element": "H" 
			},
			{
				"x": 1.1333856305,
				"y": 1.1405681624,
				"z": 1.5127776965,
				"element": "H" 
			},
			{
				"x": 2.2355741391,
				"y": -0.6351222398,
				"z": -0.7005890894,
				"element": "H" 
			},
			{
				"x": 1.4475548662,
				"y": 0.9255273299,
				"z": -0.8173967004,
				"element": "H" 
			}
		],
		 "valence_orbital": [ 
			{
				"type": "occ",
				"energy": -0.27286,
				"method": "rhf"
			},
			{
				"type": "occ",
				"energy": -0.25324,
				"method": "rhf"
			},
			{
				"type": "occ",
				"energy": -0.24898,
				"method": "rhf"
			},
			{
				"type": "occ",
				"energy": -0.23908,
				"method": "rhf"
			},
			{
				"type": "occ",
				"energy": -0.2163,
				"method": "rhf"
			},
			{
				"type": "unocc",
				"energy": -0.0348,
				"method": "rhf"
			},
			{
				"type": "unocc",
				"energy": -0.01,
				"method": "rhf"
			},
			{
				"type": "unocc",
				"energy": 0.03933,
				"method": "rhf"
			},
			{
				"type": "unocc",
				"energy": 0.0745,
				"method": "rhf"
			},
			{
				"type": "unocc",
				"energy": 0.08526,
				"method": "rhf"
			}
		],
		"cosmo_sigma_profile": { 
			"-0.025": 0.0,
			"-0.024": 0.0,
			"-0.023": 0.0,
			"-0.022": 0.0,
			"-0.021": 0.0,
			"-0.02": 0.0,
			"-0.019": 0.0,
			"-0.018": 0.0,
			"-0.017": 0.0,
			"-0.016": 0.0,
			"-0.015": 0.0,
			"-0.014": 0.0,
			"-0.013": 0.0,
			"-0.012": 0.0,
			"-0.011": 0.0,
			"-0.01": 0.0740830419614,
			"-0.009": 0.723656779662,
			"-0.008": 2.25211296197,
			"-0.007": 6.05534573542,
			"-0.006": 11.7003252335,
			"-0.005": 17.6203162108,
			"-0.004": 20.7415339787,
			"-0.003": 30.5469268088,
			"-0.002": 29.3285322111,
			"-0.001": 22.2461597645,
			"0.0": 20.5159227194,
			"0.001": 17.8339376096,
			"0.002": 15.2530762847,
			"0.003": 14.5398546805,
			"0.004": 15.7565137857,
			"0.005": 6.30451346753,
			"0.006": 2.87703108634,
			"0.007": 2.12531732631,
			"0.008": 2.31759916054,
			"0.009": 2.73972410103,
			"0.01": 2.09801449362,
			"0.011": 2.17618860651,
			"0.012": 2.09257459442,
			"0.013": 4.08894903468,
			"0.014": 4.1166790251,
			"0.015": 1.11610823919,
			"0.016": 0.54372114421,
			"0.017": 0.408794928637,
			"0.018": 0.381992227418,
			"0.019": 0.00132335710077,
			"0.02": 0.0,
			"0.021": 0.0,
			"0.022": 0.0,
			"0.023": 0.0,
			"0.024": 0.0,
			"0.025": 0.0
		}
	}
}
