{
	 "smiles": "CC1=NC2=CC=CC=C2N1CCC1=NN=C(S)N1N=CC1=C(Cl)C=CC=C1", 
	 "Tm": 523.15, 
	 "num_atms": 44, 
	 "gaussian": { 
		 "optdone": 1, 
		 "sigma_profile": "yes", 
		 "theory": "DFT", 
		 "functional": "B3LYP", 
		 "basiset": "6-31G**", 
		 "properties": { 
			 "R2extent": 14448.4897, 
			 "electric_dipole_moment_norm": 7.09764649585, 
			 "electric_quadrupole_moment_norm": 23.0163712618, 
			 "total_energy": -1921.10955273, 
			 "HOMO_LUMO_gap": 0.12129, 
			 "cosmo_polarized_energy": -23.67, 
			 "cosmo_cavitation_energy": 51.8, 
			 "cosmo_dispersion_energy": -35.23, 
			 "cosmo_repulsion_energy": 2.63, 
			 "cosmo_total_nonelectrostatic_energy": 19.2, 
			 "SMD_solvation_energy": 3.79 
		},
		"coords": [
			{
				"x": -1.5761475741,
				"y": -2.8976750597,
				"z": -2.8805566517,
				"element": "C" 
			},
			{
				"x": -1.3219892216,
				"y": -1.4573412867,
				"z": -2.5788214043,
				"element": "C" 
			},
			{
				"x": -1.1033734629,
				"y": -0.5377989508,
				"z": -3.4895752335,
				"element": "N" 
			},
			{
				"x": -0.9662227291,
				"y": 0.6516428388,
				"z": -2.7909875905,
				"element": "C" 
			},
			{
				"x": -0.7339912141,
				"y": 1.948125757,
				"z": -3.2633893443,
				"element": "C" 
			},
			{
				"x": -0.6648676986,
				"y": 2.9846635963,
				"z": -2.3354137144,
				"element": "C" 
			},
			{
				"x": -0.8288477983,
				"y": 2.7448424735,
				"z": -0.9582185201,
				"element": "C" 
			},
			{
				"x": -1.0581471802,
				"y": 1.4596179868,
				"z": -0.4660407122,
				"element": "C" 
			},
			{
				"x": -1.1153830961,
				"y": 0.424237804,
				"z": -1.402539822,
				"element": "C" 
			},
			{
				"x": -1.3307770616,
				"y": -0.9438708149,
				"z": -1.2831079874,
				"element": "N" 
			},
			{
				"x": -1.5327107921,
				"y": -1.6524961915,
				"z": -0.0309873121,
				"element": "C" 
			},
			{
				"x": -0.2779729701,
				"y": -1.6858113238,
				"z": 0.8684967686,
				"element": "C" 
			},
			{
				"x": 0.7584597895,
				"y": -2.6619163947,
				"z": 0.4003309408,
				"element": "C" 
			},
			{
				"x": 0.5238952835,
				"y": -3.7083004113,
				"z": -0.3490039483,
				"element": "N" 
			},
			{
				"x": 1.7218690253,
				"y": -4.3511738097,
				"z": -0.624181667,
				"element": "N" 
			},
			{
				"x": 2.6643910009,
				"y": -3.6532722383,
				"z": -0.0457762293,
				"element": "C" 
			},
			{
				"x": 4.396199892,
				"y": -3.9692493013,
				"z": -0.0560486973,
				"element": "S" 
			},
			{
				"x": 2.1315259189,
				"y": -2.5847382034,
				"z": 0.6428394497,
				"element": "N" 
			},
			{
				"x": 2.9488972645,
				"y": -1.67837479,
				"z": 1.2798554905,
				"element": "N" 
			},
			{
				"x": 2.4867976267,
				"y": -1.0510566194,
				"z": 2.3032626466,
				"element": "C" 
			},
			{
				"x": 3.3119015831,
				"y": -0.0546092183,
				"z": 2.9901763103,
				"element": "C" 
			},
			{
				"x": 2.8716631657,
				"y": 0.5903939902,
				"z": 4.1618864556,
				"element": "C" 
			},
			{
				"x": 1.2947009461,
				"y": 0.228478033,
				"z": 4.8608869534,
				"element": "Cl" 
			},
			{
				"x": 3.6630416767,
				"y": 1.5345005659,
				"z": 4.8140793832,
				"element": "C" 
			},
			{
				"x": 4.9185598161,
				"y": 1.8515852894,
				"z": 4.299375979,
				"element": "C" 
			},
			{
				"x": 5.3796931204,
				"y": 1.2276629965,
				"z": 3.1358495384,
				"element": "C" 
			},
			{
				"x": 4.5837611782,
				"y": 0.2908619952,
				"z": 2.4914976345,
				"element": "C" 
			},
			{
				"x": -0.9030215973,
				"y": -3.5526519838,
				"z": -2.3196572653,
				"element": "H" 
			},
			{
				"x": -2.6069214522,
				"y": -3.1797934166,
				"z": -2.6309574298,
				"element": "H" 
			},
			{
				"x": -1.4310907511,
				"y": -3.0485581741,
				"z": -3.9506359831,
				"element": "H" 
			},
			{
				"x": -0.6189872599,
				"y": 2.1269775815,
				"z": -4.3277272642,
				"element": "H" 
			},
			{
				"x": -0.4868968506,
				"y": 3.9999437924,
				"z": -2.6777758581,
				"element": "H" 
			},
			{
				"x": -0.7797331315,
				"y": 3.5775916437,
				"z": -0.2626163535,
				"element": "H" 
			},
			{
				"x": -1.1991381017,
				"y": 1.2896417815,
				"z": 0.5974897436,
				"element": "H" 
			},
			{
				"x": -1.8532516093,
				"y": -2.6703434479,
				"z": -0.2537420173,
				"element": "H" 
			},
			{
				"x": -2.3387275273,
				"y": -1.1589712541,
				"z": 0.5244654289,
				"element": "H" 
			},
			{
				"x": -0.6000620504,
				"y": -1.9410416739,
				"z": 1.8874557022,
				"element": "H" 
			},
			{
				"x": 0.1531110281,
				"y": -0.6810982089,
				"z": 0.9189304919,
				"element": "H" 
			},
			{
				"x": 4.2474783225,
				"y": -5.0569511833,
				"z": -0.8371886585,
				"element": "H" 
			},
			{
				"x": 1.4935932321,
				"y": -1.2383523127,
				"z": 2.7055965187,
				"element": "H" 
			},
			{
				"x": 3.2929823327,
				"y": 2.0112588548,
				"z": 5.7145738741,
				"element": "H" 
			},
			{
				"x": 5.5330170433,
				"y": 2.5882855576,
				"z": 4.8077186177,
				"element": "H" 
			},
			{
				"x": 6.355786559,
				"y": 1.4768304897,
				"z": 2.7322518662,
				"element": "H" 
			},
			{
				"x": 4.9214353252,
				"y": -0.1975967588,
				"z": 1.5841298703,
				"element": "H" 
			}
		],
		 "valence_orbital": [ 
			{
				"type": "occ",
				"energy": -0.2586,
				"method": "rhf"
			},
			{
				"type": "occ",
				"energy": -0.25525,
				"method": "rhf"
			},
			{
				"type": "occ",
				"energy": -0.23651,
				"method": "rhf"
			},
			{
				"type": "occ",
				"energy": -0.21661,
				"method": "rhf"
			},
			{
				"type": "occ",
				"energy": -0.21113,
				"method": "rhf"
			},
			{
				"type": "unocc",
				"energy": -0.08984,
				"method": "rhf"
			},
			{
				"type": "unocc",
				"energy": -0.03437,
				"method": "rhf"
			},
			{
				"type": "unocc",
				"energy": -0.00603,
				"method": "rhf"
			},
			{
				"type": "unocc",
				"energy": -0.00066,
				"method": "rhf"
			},
			{
				"type": "unocc",
				"energy": 0.00573,
				"method": "rhf"
			}
		],
		"cosmo_sigma_profile": { 
			"-0.025": 0.0,
			"-0.024": 0.0,
			"-0.023": 0.0,
			"-0.022": 0.0,
			"-0.021": 0.0,
			"-0.02": 0.0,
			"-0.019": 0.0,
			"-0.018": 0.0,
			"-0.017": 0.0,
			"-0.016": 0.0,
			"-0.015": 0.0,
			"-0.014": 0.0,
			"-0.013": 0.0,
			"-0.012": 1.51775238947,
			"-0.011": 1.85673684804,
			"-0.01": 2.14931905438,
			"-0.009": 2.50932235585,
			"-0.008": 6.27619115714,
			"-0.007": 19.3341285723,
			"-0.006": 26.6248670591,
			"-0.005": 28.846997232,
			"-0.004": 27.0299865857,
			"-0.003": 28.8525494046,
			"-0.002": 25.1078613853,
			"-0.001": 28.8691895348,
			"0.0": 31.6739864292,
			"0.001": 35.9595666925,
			"0.002": 33.897372782,
			"0.003": 28.4009829942,
			"0.004": 22.7152383778,
			"0.005": 18.3010248055,
			"0.006": 16.2111038508,
			"0.007": 7.67471034894,
			"0.008": 3.37213161597,
			"0.009": 3.01847711133,
			"0.01": 2.91059637124,
			"0.011": 3.19162751389,
			"0.012": 3.75349071099,
			"0.013": 2.91793890891,
			"0.014": 2.60007459995,
			"0.015": 1.98673020011,
			"0.016": 1.55041957274,
			"0.017": 0.925227939316,
			"0.018": 0.628028496173,
			"0.019": 0.0253310138215,
			"0.02": 0.0,
			"0.021": 0.0,
			"0.022": 0.0,
			"0.023": 0.0,
			"0.024": 0.0,
			"0.025": 0.0
		}
	}
}
