{
	 "smiles": "CC(C)CC1=CC=C(C=C1)C(C)C(=O)NN", 
	 "Tm": 350.15, 
	 "num_atms": 36, 
	 "gaussian": { 
		 "optdone": 1, 
		 "sigma_profile": "yes", 
		 "theory": "DFT", 
		 "functional": "B3LYP", 
		 "basiset": "6-31G**", 
		 "properties": { 
			 "R2extent": 5576.8474, 
			 "electric_dipole_moment_norm": 2.67084078522, 
			 "electric_quadrupole_moment_norm": 12.0335368832, 
			 "total_energy": -692.173406522, 
			 "HOMO_LUMO_gap": 0.22336, 
			 "cosmo_polarized_energy": -11.7, 
			 "cosmo_cavitation_energy": 38.07, 
			 "cosmo_dispersion_energy": -25.82, 
			 "cosmo_repulsion_energy": 2.07, 
			 "cosmo_total_nonelectrostatic_energy": 14.32, 
			 "SMD_solvation_energy": 7.31 
		},
		"coords": [
			{
				"x": -3.6130630978,
				"y": -0.5276848784,
				"z": -3.5476115741,
				"element": "C" 
			},
			{
				"x": -2.3903273171,
				"y": -0.1506988658,
				"z": -2.6994038428,
				"element": "C" 
			},
			{
				"x": -2.3253603383,
				"y": 1.3654167711,
				"z": -2.4720738312,
				"element": "C" 
			},
			{
				"x": -2.3977792402,
				"y": -0.9389733207,
				"z": -1.3647278125,
				"element": "C" 
			},
			{
				"x": -1.1408063634,
				"y": -0.787821341,
				"z": -0.5351844144,
				"element": "C" 
			},
			{
				"x": -1.1056083005,
				"y": 0.0196298678,
				"z": 0.6070563571,
				"element": "C" 
			},
			{
				"x": 0.0649711554,
				"y": 0.1611046747,
				"z": 1.3564854934,
				"element": "C" 
			},
			{
				"x": 1.2421790087,
				"y": -0.5023712415,
				"z": 0.9919883367,
				"element": "C" 
			},
			{
				"x": 1.2087480691,
				"y": -1.3133268718,
				"z": -0.1548496224,
				"element": "C" 
			},
			{
				"x": 0.0412651548,
				"y": -1.4523478025,
				"z": -0.9000290428,
				"element": "C" 
			},
			{
				"x": 2.5098234129,
				"y": -0.3689150966,
				"z": 1.8237466556,
				"element": "C" 
			},
			{
				"x": 2.9507781345,
				"y": -1.6990724579,
				"z": 2.4555976454,
				"element": "C" 
			},
			{
				"x": 3.6877547072,
				"y": 0.2672320229,
				"z": 1.0539024521,
				"element": "C" 
			},
			{
				"x": 4.8553021057,
				"y": -0.0632511532,
				"z": 1.2279736658,
				"element": "O" 
			},
			{
				"x": 3.3502952599,
				"y": 1.2841236897,
				"z": 0.2028249707,
				"element": "N" 
			},
			{
				"x": 4.31877585,
				"y": 1.8987586604,
				"z": -0.619344457,
				"element": "N" 
			},
			{
				"x": -3.6048127224,
				"y": -0.0017728299,
				"z": -4.5082717604,
				"element": "H" 
			},
			{
				"x": -4.5442998027,
				"y": -0.2612322066,
				"z": -3.0327000478,
				"element": "H" 
			},
			{
				"x": -3.6431638133,
				"y": -1.6032755704,
				"z": -3.7539125877,
				"element": "H" 
			},
			{
				"x": -1.4878148817,
				"y": -0.4495270215,
				"z": -3.2521067298,
				"element": "H" 
			},
			{
				"x": -3.2147255335,
				"y": 1.7172327488,
				"z": -1.9340621786,
				"element": "H" 
			},
			{
				"x": -2.2817943268,
				"y": 1.9027131158,
				"z": -3.4254321804,
				"element": "H" 
			},
			{
				"x": -1.4464696955,
				"y": 1.6490267116,
				"z": -1.8856257186,
				"element": "H" 
			},
			{
				"x": -3.2679257994,
				"y": -0.6230237548,
				"z": -0.7745275953,
				"element": "H" 
			},
			{
				"x": -2.5490398808,
				"y": -2.0018233255,
				"z": -1.5941243232,
				"element": "H" 
			},
			{
				"x": -2.006399565,
				"y": 0.5417681376,
				"z": 0.9201230385,
				"element": "H" 
			},
			{
				"x": 0.0590203333,
				"y": 0.7905702226,
				"z": 2.2434313442,
				"element": "H" 
			},
			{
				"x": 2.1058926768,
				"y": -1.8434318193,
				"z": -0.4651819558,
				"element": "H" 
			},
			{
				"x": 0.0434969131,
				"y": -2.09300695,
				"z": -1.7789796343,
				"element": "H" 
			},
			{
				"x": 2.2935283115,
				"y": 0.3363281765,
				"z": 2.6385885747,
				"element": "H" 
			},
			{
				"x": 3.1629563904,
				"y": -2.4495678077,
				"z": 1.6888360313,
				"element": "H" 
			},
			{
				"x": 3.8628775202,
				"y": -1.5554486564,
				"z": 3.0375996076,
				"element": "H" 
			},
			{
				"x": 2.1614195715,
				"y": -2.0873723775,
				"z": 3.1052223545,
				"element": "H" 
			},
			{
				"x": 2.3969909962,
				"y": 1.3829256947,
				"z": -0.1141570787,
				"element": "H" 
			},
			{
				"x": 4.9800085327,
				"y": 1.1689899797,
				"z": -0.8895323579,
				"element": "H" 
			},
			{
				"x": 4.8570065747,
				"y": 2.5335248751,
				"z": -0.0297377818,
				"element": "H" 
			}
		],
		 "valence_orbital": [ 
			{
				"type": "occ",
				"energy": -0.28017,
				"method": "rhf"
			},
			{
				"type": "occ",
				"energy": -0.26009,
				"method": "rhf"
			},
			{
				"type": "occ",
				"energy": -0.25625,
				"method": "rhf"
			},
			{
				"type": "occ",
				"energy": -0.24979,
				"method": "rhf"
			},
			{
				"type": "occ",
				"energy": -0.23235,
				"method": "rhf"
			},
			{
				"type": "unocc",
				"energy": -0.00899,
				"method": "rhf"
			},
			{
				"type": "unocc",
				"energy": -0.00866,
				"method": "rhf"
			},
			{
				"type": "unocc",
				"energy": 0.02483,
				"method": "rhf"
			},
			{
				"type": "unocc",
				"energy": 0.0842,
				"method": "rhf"
			},
			{
				"type": "unocc",
				"energy": 0.09275,
				"method": "rhf"
			}
		],
		"cosmo_sigma_profile": { 
			"-0.025": 0.0,
			"-0.024": 0.0,
			"-0.023": 0.0,
			"-0.022": 0.0,
			"-0.021": 0.0,
			"-0.02": 0.0,
			"-0.019": 0.0,
			"-0.018": 0.0,
			"-0.017": 0.0,
			"-0.016": 0.0,
			"-0.015": 0.0,
			"-0.014": 0.0,
			"-0.013": 0.0,
			"-0.012": 0.449027868391,
			"-0.011": 1.82113908518,
			"-0.01": 2.75748563913,
			"-0.009": 3.15127040768,
			"-0.008": 3.04274547229,
			"-0.007": 2.34239835795,
			"-0.006": 6.00341903434,
			"-0.005": 15.6807087746,
			"-0.004": 16.3840446835,
			"-0.003": 26.2114864381,
			"-0.002": 38.3068228265,
			"-0.001": 34.5610988376,
			"0.0": 31.52221369,
			"0.001": 34.3625913468,
			"0.002": 22.6580473171,
			"0.003": 11.7680457695,
			"0.004": 8.97387662673,
			"0.005": 7.01697592034,
			"0.006": 6.09970350567,
			"0.007": 1.86132160411,
			"0.008": 2.32688502082,
			"0.009": 1.98999140304,
			"0.01": 1.93177821659,
			"0.011": 2.39117820942,
			"0.012": 2.97825512585,
			"0.013": 3.98982914805,
			"0.014": 3.87198525734,
			"0.015": 1.09539489664,
			"0.016": 0.54590966179,
			"0.017": 0.320371274902,
			"0.018": 0.0,
			"0.019": 0.0,
			"0.02": 0.0,
			"0.021": 0.0,
			"0.022": 0.0,
			"0.023": 0.0,
			"0.024": 0.0,
			"0.025": 0.0
		}
	}
}
