{
	 "smiles": "COC1=CC=CC(OC)=C1N=C=O", 
	 "Tm": 319.15, 
	 "num_atms": 22, 
	 "gaussian": { 
		 "optdone": 1, 
		 "sigma_profile": "yes", 
		 "theory": "DFT", 
		 "functional": "B3LYP", 
		 "basiset": "6-31G**", 
		 "properties": { 
			 "R2extent": 2678.2707, 
			 "electric_dipole_moment_norm": 3.25805037868, 
			 "electric_quadrupole_moment_norm": 14.3635050597, 
			 "total_energy": -628.773270435, 
			 "HOMO_LUMO_gap": 0.20282, 
			 "cosmo_polarized_energy": -8.09, 
			 "cosmo_cavitation_energy": 27.02, 
			 "cosmo_dispersion_energy": -19.24, 
			 "cosmo_repulsion_energy": 1.53, 
			 "cosmo_total_nonelectrostatic_energy": 9.31, 
			 "SMD_solvation_energy": 8.54 
		},
		"coords": [
			{
				"x": -2.0836019976,
				"y": 2.6252138834,
				"z": 0.1420684381,
				"element": "C" 
			},
			{
				"x": -0.9845131395,
				"y": 1.9772870561,
				"z": -0.4833268293,
				"element": "O" 
			},
			{
				"x": -0.8183951044,
				"y": 0.6387225691,
				"z": -0.2906843272,
				"element": "C" 
			},
			{
				"x": -1.6407275759,
				"y": -0.1685259402,
				"z": 0.4966500212,
				"element": "C" 
			},
			{
				"x": -1.3665491578,
				"y": -1.5356874161,
				"z": 0.6000759925,
				"element": "C" 
			},
			{
				"x": -0.2796014592,
				"y": -2.0971810973,
				"z": -0.0616324568,
				"element": "C" 
			},
			{
				"x": 0.5505648961,
				"y": -1.2939160846,
				"z": -0.8498898372,
				"element": "C" 
			},
			{
				"x": 1.5759439084,
				"y": -1.8877235901,
				"z": -1.5394817673,
				"element": "O" 
			},
			{
				"x": 2.8994072189,
				"y": -1.5601135032,
				"z": -1.1071305018,
				"element": "C" 
			},
			{
				"x": 0.2846902806,
				"y": 0.0793635002,
				"z": -0.976738762,
				"element": "C" 
			},
			{
				"x": 1.0970131222,
				"y": 0.8685620562,
				"z": -1.7888583702,
				"element": "N" 
			},
			{
				"x": 1.1217086793,
				"y": 2.0375620964,
				"z": -2.1213969696,
				"element": "C" 
			},
			{
				"x": 1.2942722302,
				"y": 3.1239188784,
				"z": -2.5407167284,
				"element": "O" 
			},
			{
				"x": -3.0391073542,
				"y": 2.2046603584,
				"z": -0.1942031559,
				"element": "H" 
			},
			{
				"x": -2.0205332625,
				"y": 2.5538994229,
				"z": 1.23480353,
				"element": "H" 
			},
			{
				"x": -2.0226593768,
				"y": 3.6721824617,
				"z": -0.1567677021,
				"element": "H" 
			},
			{
				"x": -2.4888260647,
				"y": 0.2549872634,
				"z": 1.0206506921,
				"element": "H" 
			},
			{
				"x": -2.0107737134,
				"y": -2.1617459012,
				"z": 1.20974012,
				"element": "H" 
			},
			{
				"x": -0.0547279594,
				"y": -3.1557921122,
				"z": 0.0061903848,
				"element": "H" 
			},
			{
				"x": 3.0465846796,
				"y": -1.8374114297,
				"z": -0.0553242165,
				"element": "H" 
			},
			{
				"x": 3.5751882785,
				"y": -2.1468828324,
				"z": -1.7323221799,
				"element": "H" 
			},
			{
				"x": 3.1165428714,
				"y": -0.4956796394,
				"z": -1.2386053745,
				"element": "H" 
			}
		],
		 "valence_orbital": [ 
			{
				"type": "occ",
				"energy": -0.31828,
				"method": "rhf"
			},
			{
				"type": "occ",
				"energy": -0.30318,
				"method": "rhf"
			},
			{
				"type": "occ",
				"energy": -0.27577,
				"method": "rhf"
			},
			{
				"type": "occ",
				"energy": -0.23223,
				"method": "rhf"
			},
			{
				"type": "occ",
				"energy": -0.21862,
				"method": "rhf"
			},
			{
				"type": "unocc",
				"energy": -0.0158,
				"method": "rhf"
			},
			{
				"type": "unocc",
				"energy": 0.00649,
				"method": "rhf"
			},
			{
				"type": "unocc",
				"energy": 0.02573,
				"method": "rhf"
			},
			{
				"type": "unocc",
				"energy": 0.0787,
				"method": "rhf"
			},
			{
				"type": "unocc",
				"energy": 0.08273,
				"method": "rhf"
			}
		],
		"cosmo_sigma_profile": { 
			"-0.025": 0.0,
			"-0.024": 0.0,
			"-0.023": 0.0,
			"-0.022": 0.0,
			"-0.021": 0.0,
			"-0.02": 0.0,
			"-0.019": 0.0,
			"-0.018": 0.0,
			"-0.017": 0.0,
			"-0.016": 0.0,
			"-0.015": 0.0,
			"-0.014": 0.0,
			"-0.013": 0.0,
			"-0.012": 0.0,
			"-0.011": 0.0,
			"-0.01": 0.0,
			"-0.009": 0.0,
			"-0.008": 0.0,
			"-0.007": 2.23688119412,
			"-0.006": 13.7031838448,
			"-0.005": 17.8921318595,
			"-0.004": 19.8566060754,
			"-0.003": 21.439416911,
			"-0.002": 20.3548944016,
			"-0.001": 14.8724046649,
			"0.0": 15.372386256,
			"0.001": 13.1803515643,
			"0.002": 13.2232626469,
			"0.003": 14.7707683922,
			"0.004": 13.443432196,
			"0.005": 11.1643005854,
			"0.006": 5.12757376857,
			"0.007": 8.12607927301,
			"0.008": 6.06038750915,
			"0.009": 1.85149114145,
			"0.01": 1.89318515533,
			"0.011": 1.35979983488,
			"0.012": 0.649545501447,
			"0.013": 0.0,
			"0.014": 0.0,
			"0.015": 0.0,
			"0.016": 0.0,
			"0.017": 0.0,
			"0.018": 0.0,
			"0.019": 0.0,
			"0.02": 0.0,
			"0.021": 0.0,
			"0.022": 0.0,
			"0.023": 0.0,
			"0.024": 0.0,
			"0.025": 0.0
		}
	}
}
