{
	 "smiles": "[O-][N+](=O)C1=C(F)C=CC(=C1)N=C=O", 
	 "Tm": 300.65, 
	 "num_atms": 16, 
	 "gaussian": { 
		 "optdone": 1, 
		 "sigma_profile": "yes", 
		 "theory": "DFT", 
		 "functional": "B3LYP", 
		 "basiset": "6-31G**", 
		 "properties": { 
			 "R2extent": 3394.6095, 
			 "electric_dipole_moment_norm": 3.85533210372, 
			 "electric_quadrupole_moment_norm": 20.3934931559, 
			 "total_energy": -703.444961365, 
			 "HOMO_LUMO_gap": 0.16029, 
			 "cosmo_polarized_energy": -10.39, 
			 "cosmo_cavitation_energy": 23.84, 
			 "cosmo_dispersion_energy": -17.04, 
			 "cosmo_repulsion_energy": 1.32, 
			 "cosmo_total_nonelectrostatic_energy": 8.13, 
			 "SMD_solvation_energy": 9.19 
		},
		"coords": [
			{
				"x": 3.051148491,
				"y": 0.9843474893,
				"z": -1.4420349576,
				"element": "O" 
			},
			{
				"x": 2.6677198494,
				"y": 0.0374117751,
				"z": -2.1286184814,
				"element": "N" 
			},
			{
				"x": 3.2681664028,
				"y": -0.4202073239,
				"z": -3.0954655724,
				"element": "O" 
			},
			{
				"x": 1.385199614,
				"y": -0.5823084725,
				"z": -1.75494553,
				"element": "C" 
			},
			{
				"x": 0.8971866223,
				"y": -1.7346097653,
				"z": -2.387214612,
				"element": "C" 
			},
			{
				"x": 1.5625422545,
				"y": -2.358730788,
				"z": -3.3581652986,
				"element": "F" 
			},
			{
				"x": -0.3270886613,
				"y": -2.2693647529,
				"z": -1.9899252858,
				"element": "C" 
			},
			{
				"x": -1.0636514508,
				"y": -1.6676426786,
				"z": -0.9783169877,
				"element": "C" 
			},
			{
				"x": -0.5765516546,
				"y": -0.5126143645,
				"z": -0.3415175228,
				"element": "C" 
			},
			{
				"x": 0.6500628267,
				"y": 0.0216002227,
				"z": -0.7347801169,
				"element": "C" 
			},
			{
				"x": -1.2769272227,
				"y": 0.127211656,
				"z": 0.678952425,
				"element": "N" 
			},
			{
				"x": -2.3207084871,
				"y": 0.0250797571,
				"z": 1.2852839672,
				"element": "C" 
			},
			{
				"x": -3.2936660918,
				"y": 0.037310464,
				"z": 1.9460874726,
				"element": "O" 
			},
			{
				"x": -0.6832112342,
				"y": -3.1626356894,
				"z": -2.4908434108,
				"element": "H" 
			},
			{
				"x": -2.0169302985,
				"y": -2.090211619,
				"z": -0.6769184387,
				"element": "H" 
			},
			{
				"x": 1.0487090402,
				"y": 0.9073640899,
				"z": -0.2583776499,
				"element": "H" 
			}
		],
		 "valence_orbital": [ 
			{
				"type": "occ",
				"energy": -0.31839,
				"method": "rhf"
			},
			{
				"type": "occ",
				"energy": -0.31597,
				"method": "rhf"
			},
			{
				"type": "occ",
				"energy": -0.30561,
				"method": "rhf"
			},
			{
				"type": "occ",
				"energy": -0.29837,
				"method": "rhf"
			},
			{
				"type": "occ",
				"energy": -0.26158,
				"method": "rhf"
			},
			{
				"type": "unocc",
				"energy": -0.10129,
				"method": "rhf"
			},
			{
				"type": "unocc",
				"energy": -0.0475,
				"method": "rhf"
			},
			{
				"type": "unocc",
				"energy": -0.02472,
				"method": "rhf"
			},
			{
				"type": "unocc",
				"energy": -0.01069,
				"method": "rhf"
			},
			{
				"type": "unocc",
				"energy": 0.05825,
				"method": "rhf"
			}
		],
		"cosmo_sigma_profile": { 
			"-0.025": 0.0,
			"-0.024": 0.0,
			"-0.023": 0.0,
			"-0.022": 0.0,
			"-0.021": 0.0,
			"-0.02": 0.0,
			"-0.019": 0.0,
			"-0.018": 0.0,
			"-0.017": 0.0,
			"-0.016": 0.0,
			"-0.015": 0.0,
			"-0.014": 0.0,
			"-0.013": 0.0,
			"-0.012": 0.0,
			"-0.011": 0.0,
			"-0.01": 1.83633486355,
			"-0.009": 5.17174064954,
			"-0.008": 6.30159048199,
			"-0.007": 7.26223508413,
			"-0.006": 7.28723370124,
			"-0.005": 9.71635069448,
			"-0.004": 9.03304032434,
			"-0.003": 15.8457264435,
			"-0.002": 17.8356153671,
			"-0.001": 19.6483658137,
			"0.0": 14.9107970293,
			"0.001": 8.44486355649,
			"0.002": 8.55814444563,
			"0.003": 10.9647212143,
			"0.004": 6.4581462095,
			"0.005": 6.82580168273,
			"0.006": 8.57357652056,
			"0.007": 16.6982892586,
			"0.008": 7.89608137712,
			"0.009": 3.85420905343,
			"0.01": 1.16750470668,
			"0.011": 0.0,
			"0.012": 0.0,
			"0.013": 0.0,
			"0.014": 0.0,
			"0.015": 0.0,
			"0.016": 0.0,
			"0.017": 0.0,
			"0.018": 0.0,
			"0.019": 0.0,
			"0.02": 0.0,
			"0.021": 0.0,
			"0.022": 0.0,
			"0.023": 0.0,
			"0.024": 0.0,
			"0.025": 0.0
		}
	}
}
