{
	 "smiles": "OC(=O)C1=NC(Cl)=C2C=CC=CC2=C1", 
	 "Tm": 476.15, 
	 "num_atms": 20, 
	 "gaussian": { 
		 "optdone": 1, 
		 "sigma_profile": "yes", 
		 "theory": "DFT", 
		 "functional": "B3LYP", 
		 "basiset": "6-31G**", 
		 "properties": { 
			 "R2extent": 3295.814, 
			 "electric_dipole_moment_norm": 3.43359088419, 
			 "electric_quadrupole_moment_norm": 13.8773390374, 
			 "total_energy": -1050.09422755, 
			 "HOMO_LUMO_gap": 0.16844, 
			 "cosmo_polarized_energy": -13.13, 
			 "cosmo_cavitation_energy": 26.98, 
			 "cosmo_dispersion_energy": -20.22, 
			 "cosmo_repulsion_energy": 1.58, 
			 "cosmo_total_nonelectrostatic_energy": 8.33, 
			 "SMD_solvation_energy": 4.29 
		},
		"coords": [
			{
				"x": -0.6844941709,
				"y": 0.6424026422,
				"z": -3.8455050022,
				"element": "O" 
			},
			{
				"x": 0.1171018601,
				"y": 1.2967748631,
				"z": -2.9860438175,
				"element": "C" 
			},
			{
				"x": 0.9016969526,
				"y": 2.1588620545,
				"z": -3.3337659336,
				"element": "O" 
			},
			{
				"x": -0.0480823332,
				"y": 0.8613350577,
				"z": -1.5641680784,
				"element": "C" 
			},
			{
				"x": -0.9576968352,
				"y": -0.1155886891,
				"z": -1.2866457042,
				"element": "N" 
			},
			{
				"x": -1.0975440152,
				"y": -0.4896871634,
				"z": -0.053499914,
				"element": "C" 
			},
			{
				"x": -2.2927286169,
				"y": -1.7601268652,
				"z": 0.2410342696,
				"element": "Cl" 
			},
			{
				"x": -0.3704079506,
				"y": 0.0395935369,
				"z": 1.0625870036,
				"element": "C" 
			},
			{
				"x": -0.5306347173,
				"y": -0.3760671484,
				"z": 2.4064952869,
				"element": "C" 
			},
			{
				"x": 0.2238638659,
				"y": 0.2031357125,
				"z": 3.404637608,
				"element": "C" 
			},
			{
				"x": 1.1649384714,
				"y": 1.2164011364,
				"z": 3.1034623295,
				"element": "C" 
			},
			{
				"x": 1.3407368758,
				"y": 1.6393634822,
				"z": 1.8051008635,
				"element": "C" 
			},
			{
				"x": 0.5804170946,
				"y": 1.064358447,
				"z": 0.753170536,
				"element": "C" 
			},
			{
				"x": 0.7243671369,
				"y": 1.4649003872,
				"z": -0.5982611033,
				"element": "C" 
			},
			{
				"x": -0.4843022589,
				"y": 1.0101896178,
				"z": -4.7225302347,
				"element": "H" 
			},
			{
				"x": -1.2509768649,
				"y": -1.1517776751,
				"z": 2.6375536309,
				"element": "H" 
			},
			{
				"x": 0.0963888201,
				"y": -0.1199345378,
				"z": 4.4332944399,
				"element": "H" 
			},
			{
				"x": 1.7494094214,
				"y": 1.6599450771,
				"z": 3.9039596924,
				"element": "H" 
			},
			{
				"x": 2.0607346446,
				"y": 2.4163961788,
				"z": 1.5651889686,
				"element": "H" 
			},
			{
				"x": 1.4304126196,
				"y": 2.2365238856,
				"z": -0.8844648411,
				"element": "H" 
			}
		],
		 "valence_orbital": [ 
			{
				"type": "occ",
				"energy": -0.29895,
				"method": "rhf"
			},
			{
				"type": "occ",
				"energy": -0.29424,
				"method": "rhf"
			},
			{
				"type": "occ",
				"energy": -0.28266,
				"method": "rhf"
			},
			{
				"type": "occ",
				"energy": -0.27167,
				"method": "rhf"
			},
			{
				"type": "occ",
				"energy": -0.24468,
				"method": "rhf"
			},
			{
				"type": "unocc",
				"energy": -0.07624,
				"method": "rhf"
			},
			{
				"type": "unocc",
				"energy": -0.05927,
				"method": "rhf"
			},
			{
				"type": "unocc",
				"energy": 0.00281,
				"method": "rhf"
			},
			{
				"type": "unocc",
				"energy": 0.02512,
				"method": "rhf"
			},
			{
				"type": "unocc",
				"energy": 0.03013,
				"method": "rhf"
			}
		],
		"cosmo_sigma_profile": { 
			"-0.025": 0.0,
			"-0.024": 0.0,
			"-0.023": 0.0,
			"-0.022": 0.0,
			"-0.021": 0.0,
			"-0.02": 0.0,
			"-0.019": 0.314336560713,
			"-0.018": 1.00402995654,
			"-0.017": 0.648173543336,
			"-0.016": 0.905061404764,
			"-0.015": 0.701155646915,
			"-0.014": 0.409911528688,
			"-0.013": 0.421681796009,
			"-0.012": 1.4247154838,
			"-0.011": 0.987122747912,
			"-0.01": 0.613447039583,
			"-0.009": 0.50388849456,
			"-0.008": 3.75448084238,
			"-0.007": 10.3263256497,
			"-0.006": 11.1212749197,
			"-0.005": 9.6813883275,
			"-0.004": 8.00906695672,
			"-0.003": 12.4259785874,
			"-0.002": 17.4575387595,
			"-0.001": 22.265530213,
			"0.0": 21.852180679,
			"0.001": 18.8240377092,
			"0.002": 19.050719155,
			"0.003": 11.2780916312,
			"0.004": 9.98396886331,
			"0.005": 5.59408941415,
			"0.006": 3.13626473276,
			"0.007": 3.840893776,
			"0.008": 3.5987422174,
			"0.009": 3.14395806809,
			"0.01": 3.59675506968,
			"0.011": 6.27396797394,
			"0.012": 3.63164155382,
			"0.013": 1.33348516644,
			"0.014": 1.17372380966,
			"0.015": 0.619029821577,
			"0.016": 0.0,
			"0.017": 0.0,
			"0.018": 0.0,
			"0.019": 0.0,
			"0.02": 0.0,
			"0.021": 0.0,
			"0.022": 0.0,
			"0.023": 0.0,
			"0.024": 0.0,
			"0.025": 0.0
		}
	}
}
