{
	 "smiles": "FC1=CC(F)=C2CCC(=O)C2=C1", 
	 "Tm": 369.15, 
	 "num_atms": 18, 
	 "gaussian": { 
		 "optdone": 1, 
		 "sigma_profile": "yes", 
		 "theory": "DFT", 
		 "functional": "B3LYP", 
		 "basiset": "6-31G**", 
		 "properties": { 
			 "R2extent": 2735.9462, 
			 "electric_dipole_moment_norm": 2.5034830317, 
			 "electric_quadrupole_moment_norm": 12.5637408645, 
			 "total_energy": -621.471589764, 
			 "HOMO_LUMO_gap": 0.18585, 
			 "cosmo_polarized_energy": -7.63, 
			 "cosmo_cavitation_energy": 23.22, 
			 "cosmo_dispersion_energy": -16.92, 
			 "cosmo_repulsion_energy": 1.3, 
			 "cosmo_total_nonelectrostatic_energy": 7.59, 
			 "SMD_solvation_energy": 5.2 
		},
		"coords": [
			{
				"x": 2.6663786924,
				"y": 0.9754882772,
				"z": 2.1906767978,
				"element": "F" 
			},
			{
				"x": 2.0817611347,
				"y": 0.4919857925,
				"z": 1.0783624666,
				"element": "C" 
			},
			{
				"x": 1.2880220818,
				"y": 1.3643092025,
				"z": 0.3257326593,
				"element": "C" 
			},
			{
				"x": 0.6779038573,
				"y": 0.8797496772,
				"z": -0.8251616081,
				"element": "C" 
			},
			{
				"x": -0.0897736829,
				"y": 1.7087411198,
				"z": -1.5605436597,
				"element": "F" 
			},
			{
				"x": 0.8446941108,
				"y": -0.440067781,
				"z": -1.2301208367,
				"element": "C" 
			},
			{
				"x": 0.2733433896,
				"y": -1.1526254876,
				"z": -2.4363552318,
				"element": "C" 
			},
			{
				"x": 0.8299933704,
				"y": -2.5930975498,
				"z": -2.3195644937,
				"element": "C" 
			},
			{
				"x": 1.6933650348,
				"y": -2.6291494014,
				"z": -1.0473290557,
				"element": "C" 
			},
			{
				"x": 2.3002053739,
				"y": -3.589977092,
				"z": -0.6182410651,
				"element": "O" 
			},
			{
				"x": 1.6470631273,
				"y": -1.2696183562,
				"z": -0.4432464774,
				"element": "C" 
			},
			{
				"x": 2.2824189705,
				"y": -0.8331967126,
				"z": 0.7213538473,
				"element": "C" 
			},
			{
				"x": 1.1539421262,
				"y": 2.3938422874,
				"z": 0.6357118954,
				"element": "H" 
			},
			{
				"x": -0.8218018283,
				"y": -1.129337374,
				"z": -2.4252241844,
				"element": "H" 
			},
			{
				"x": 0.5828395454,
				"y": -0.662859146,
				"z": -3.3660605933,
				"element": "H" 
			},
			{
				"x": 1.447869679,
				"y": -2.8813232821,
				"z": -3.1759091935,
				"element": "H" 
			},
			{
				"x": 0.0421377154,
				"y": -3.3482885288,
				"z": -2.2350847135,
				"element": "H" 
			},
			{
				"x": 2.9005373016,
				"y": -1.4964756452,
				"z": 1.3155034463,
				"element": "H" 
			}
		],
		 "valence_orbital": [ 
			{
				"type": "occ",
				"energy": -0.37222,
				"method": "rhf"
			},
			{
				"type": "occ",
				"energy": -0.34132,
				"method": "rhf"
			},
			{
				"type": "occ",
				"energy": -0.2716,
				"method": "rhf"
			},
			{
				"type": "occ",
				"energy": -0.25511,
				"method": "rhf"
			},
			{
				"type": "occ",
				"energy": -0.25266,
				"method": "rhf"
			},
			{
				"type": "unocc",
				"energy": -0.06681,
				"method": "rhf"
			},
			{
				"type": "unocc",
				"energy": -0.01386,
				"method": "rhf"
			},
			{
				"type": "unocc",
				"energy": 0.03746,
				"method": "rhf"
			},
			{
				"type": "unocc",
				"energy": 0.08243,
				"method": "rhf"
			},
			{
				"type": "unocc",
				"energy": 0.09157,
				"method": "rhf"
			}
		],
		"cosmo_sigma_profile": { 
			"-0.025": 0.0,
			"-0.024": 0.0,
			"-0.023": 0.0,
			"-0.022": 0.0,
			"-0.021": 0.0,
			"-0.02": 0.0,
			"-0.019": 0.0,
			"-0.018": 0.0,
			"-0.017": 0.0,
			"-0.016": 0.0,
			"-0.015": 0.0,
			"-0.014": 0.0,
			"-0.013": 0.0,
			"-0.012": 0.0,
			"-0.011": 0.0,
			"-0.01": 0.103300042231,
			"-0.009": 1.3515539909,
			"-0.008": 2.31082138833,
			"-0.007": 2.96233029518,
			"-0.006": 9.827541438,
			"-0.005": 15.4224679353,
			"-0.004": 15.3514189005,
			"-0.003": 11.9150342134,
			"-0.002": 13.3355464629,
			"-0.001": 17.3822738531,
			"0.0": 23.100888944,
			"0.001": 15.0239753405,
			"0.002": 7.85481462129,
			"0.003": 13.9772321707,
			"0.004": 16.2480274349,
			"0.005": 2.17729251344,
			"0.006": 1.50792617649,
			"0.007": 1.14420396302,
			"0.008": 1.68059658965,
			"0.009": 1.82644919467,
			"0.01": 2.42245206102,
			"0.011": 3.56133946786,
			"0.012": 4.53611369815,
			"0.013": 1.2489397688,
			"0.014": 0.0151394017241,
			"0.015": 0.0,
			"0.016": 0.0,
			"0.017": 0.0,
			"0.018": 0.0,
			"0.019": 0.0,
			"0.02": 0.0,
			"0.021": 0.0,
			"0.022": 0.0,
			"0.023": 0.0,
			"0.024": 0.0,
			"0.025": 0.0
		}
	}
}
