{
	 "smiles": "CN1N=C(C=C1C(O)=O)C(C)(C)C", 
	 "Tm": 425.15, 
	 "num_atms": 27, 
	 "gaussian": { 
		 "optdone": 1, 
		 "sigma_profile": "yes", 
		 "theory": "DFT", 
		 "functional": "B3LYP", 
		 "basiset": "6-31G**", 
		 "properties": { 
			 "R2extent": 3622.329, 
			 "electric_dipole_moment_norm": 0.97591362835, 
			 "electric_quadrupole_moment_norm": 5.49062118435, 
			 "total_energy": -611.360423494, 
			 "HOMO_LUMO_gap": 0.20234, 
			 "cosmo_polarized_energy": -9.59, 
			 "cosmo_cavitation_energy": 29.95, 
			 "cosmo_dispersion_energy": -21.07, 
			 "cosmo_repulsion_energy": 1.68, 
			 "cosmo_total_nonelectrostatic_energy": 10.57, 
			 "SMD_solvation_energy": 5.78 
		},
		"coords": [
			{
				"x": -0.875373419,
				"y": -1.4049633419,
				"z": -3.3824013705,
				"element": "C" 
			},
			{
				"x": -0.0397274113,
				"y": -1.1023970709,
				"z": -2.2276915821,
				"element": "N" 
			},
			{
				"x": -0.5412614616,
				"y": -0.3556705502,
				"z": -1.2328402172,
				"element": "N" 
			},
			{
				"x": 0.4326733348,
				"y": -0.2388481821,
				"z": -0.3159240066,
				"element": "C" 
			},
			{
				"x": 1.5859413147,
				"y": -0.9302049675,
				"z": -0.7385710284,
				"element": "C" 
			},
			{
				"x": 1.2528376181,
				"y": -1.4759452651,
				"z": -1.9719557603,
				"element": "C" 
			},
			{
				"x": 2.0359236005,
				"y": -2.2958761238,
				"z": -2.8970362137,
				"element": "C" 
			},
			{
				"x": 3.2841172278,
				"y": -2.5337383829,
				"z": -2.4261455725,
				"element": "O" 
			},
			{
				"x": 1.64594113,
				"y": -2.7293434709,
				"z": -3.9669471817,
				"element": "O" 
			},
			{
				"x": 0.2261529318,
				"y": 0.5488011658,
				"z": 0.9670483295,
				"element": "C" 
			},
			{
				"x": 0.4305406905,
				"y": -0.3914568268,
				"z": 2.1771579975,
				"element": "C" 
			},
			{
				"x": 1.2634289159,
				"y": 1.6933389356,
				"z": 1.0313961632,
				"element": "C" 
			},
			{
				"x": -1.1928917615,
				"y": 1.1432837227,
				"z": 1.0173002167,
				"element": "C" 
			},
			{
				"x": -1.0041598182,
				"y": -2.4834326191,
				"z": -3.4925644188,
				"element": "H" 
			},
			{
				"x": -1.8352922413,
				"y": -0.9233860279,
				"z": -3.2015018794,
				"element": "H" 
			},
			{
				"x": -0.4215982767,
				"y": -1.0198834068,
				"z": -4.2976115819,
				"element": "H" 
			},
			{
				"x": 2.5362873887,
				"y": -1.032756983,
				"z": -0.2376701619,
				"element": "H" 
			},
			{
				"x": 3.721319093,
				"y": -3.0788198581,
				"z": -3.1010348899,
				"element": "H" 
			},
			{
				"x": -0.2932979491,
				"y": -1.2126570303,
				"z": 2.1628598224,
				"element": "H" 
			},
			{
				"x": 1.4346615848,
				"y": -0.8283822296,
				"z": 2.1813351433,
				"element": "H" 
			},
			{
				"x": 0.3012476661,
				"y": 0.160053331,
				"z": 3.1151776679,
				"element": "H" 
			},
			{
				"x": 2.288335788,
				"y": 1.3084591862,
				"z": 1.0069227811,
				"element": "H" 
			},
			{
				"x": 1.1422630201,
				"y": 2.3807877426,
				"z": 0.1880403944,
				"element": "H" 
			},
			{
				"x": 1.142750813,
				"y": 2.2662250378,
				"z": 1.9576760563,
				"element": "H" 
			},
			{
				"x": -1.3260797419,
				"y": 1.7075628303,
				"z": 1.9465716228,
				"element": "H" 
			},
			{
				"x": -1.3715369291,
				"y": 1.8175696944,
				"z": 0.175194798,
				"element": "H" 
			},
			{
				"x": -1.9541031082,
				"y": 0.3592806906,
				"z": 0.977214872,
				"element": "H" 
			}
		],
		 "valence_orbital": [ 
			{
				"type": "occ",
				"energy": -0.32409,
				"method": "rhf"
			},
			{
				"type": "occ",
				"energy": -0.2887,
				"method": "rhf"
			},
			{
				"type": "occ",
				"energy": -0.28345,
				"method": "rhf"
			},
			{
				"type": "occ",
				"energy": -0.25533,
				"method": "rhf"
			},
			{
				"type": "occ",
				"energy": -0.24326,
				"method": "rhf"
			},
			{
				"type": "unocc",
				"energy": -0.04092,
				"method": "rhf"
			},
			{
				"type": "unocc",
				"energy": 0.04853,
				"method": "rhf"
			},
			{
				"type": "unocc",
				"energy": 0.07609,
				"method": "rhf"
			},
			{
				"type": "unocc",
				"energy": 0.08733,
				"method": "rhf"
			},
			{
				"type": "unocc",
				"energy": 0.10112,
				"method": "rhf"
			}
		],
		"cosmo_sigma_profile": { 
			"-0.025": 0.0,
			"-0.024": 0.0,
			"-0.023": 0.0,
			"-0.022": 0.0,
			"-0.021": 0.0,
			"-0.02": 0.0,
			"-0.019": 0.155740302598,
			"-0.018": 0.705991990147,
			"-0.017": 1.13719212295,
			"-0.016": 0.945688038296,
			"-0.015": 0.831545543294,
			"-0.014": 0.35187181023,
			"-0.013": 0.550769426087,
			"-0.012": 0.548838969125,
			"-0.011": 1.00268642867,
			"-0.01": 0.905421841601,
			"-0.009": 0.383783067586,
			"-0.008": 0.715247862003,
			"-0.007": 2.02573501463,
			"-0.006": 5.46970920791,
			"-0.005": 8.88834537721,
			"-0.004": 11.1371018312,
			"-0.003": 23.9371117993,
			"-0.002": 30.4917158622,
			"-0.001": 22.7600320064,
			"0.0": 20.9572835398,
			"0.001": 30.1121234712,
			"0.002": 18.2999117825,
			"0.003": 11.1745373142,
			"0.004": 8.77230734931,
			"0.005": 3.92964623468,
			"0.006": 4.59645149385,
			"0.007": 5.0969654724,
			"0.008": 3.60762938373,
			"0.009": 4.0346843702,
			"0.01": 2.61800403885,
			"0.011": 4.40155797367,
			"0.012": 2.93214198912,
			"0.013": 0.726000080263,
			"0.014": 0.0797380417257,
			"0.015": 0.0,
			"0.016": 0.0,
			"0.017": 0.0,
			"0.018": 0.0,
			"0.019": 0.0,
			"0.02": 0.0,
			"0.021": 0.0,
			"0.022": 0.0,
			"0.023": 0.0,
			"0.024": 0.0,
			"0.025": 0.0
		}
	}
}
