{
	 "smiles": "CC(=O)C1=CC2=C(OCO2)C=C1", 
	 "Tm": 360.65, 
	 "num_atms": 20, 
	 "gaussian": { 
		 "optdone": 1, 
		 "sigma_profile": "yes", 
		 "theory": "DFT", 
		 "functional": "B3LYP", 
		 "basiset": "6-31G**", 
		 "properties": { 
			 "R2extent": 2276.3328, 
			 "electric_dipole_moment_norm": 3.34562220521, 
			 "electric_quadrupole_moment_norm": 13.663443364, 
			 "total_energy": -573.427211192, 
			 "HOMO_LUMO_gap": 0.16966, 
			 "cosmo_polarized_energy": -10.24, 
			 "cosmo_cavitation_energy": 24.15, 
			 "cosmo_dispersion_energy": -18.3, 
			 "cosmo_repulsion_energy": 1.44, 
			 "cosmo_total_nonelectrostatic_energy": 7.29, 
			 "SMD_solvation_energy": 5.58 
		},
		"coords": [
			{
				"x": 1.6040493291,
				"y": 3.2380698803,
				"z": 0.8821869468,
				"element": "C" 
			},
			{
				"x": 0.6037214888,
				"y": 2.1948469085,
				"z": 1.3565322419,
				"element": "C" 
			},
			{
				"x": 0.0246367057,
				"y": 2.3369260778,
				"z": 2.4245191823,
				"element": "O" 
			},
			{
				"x": 0.3420493231,
				"y": 0.9971893068,
				"z": 0.500881638,
				"element": "C" 
			},
			{
				"x": -0.5967479269,
				"y": 0.0516013032,
				"z": 0.9819761747,
				"element": "C" 
			},
			{
				"x": -0.8382149344,
				"y": -1.0494634841,
				"z": 0.19655529,
				"element": "C" 
			},
			{
				"x": -0.1927410177,
				"y": -1.2423633384,
				"z": -1.0275496769,
				"element": "C" 
			},
			{
				"x": -0.6155028059,
				"y": -2.410202947,
				"z": -1.5973254983,
				"element": "O" 
			},
			{
				"x": -1.5718344392,
				"y": -2.9776878078,
				"z": -0.6877828145,
				"element": "C" 
			},
			{
				"x": -1.6927970457,
				"y": -2.0992722666,
				"z": 0.4339647041,
				"element": "O" 
			},
			{
				"x": 0.7270970714,
				"y": -0.3360059688,
				"z": -1.520160881,
				"element": "C" 
			},
			{
				"x": 0.9846505367,
				"y": 0.7949724768,
				"z": -0.7285295234,
				"element": "C" 
			},
			{
				"x": 1.2998941365,
				"y": 3.6696472224,
				"z": -0.0776975957,
				"element": "H" 
			},
			{
				"x": 2.5978157402,
				"y": 2.7985029104,
				"z": 0.7430258522,
				"element": "H" 
			},
			{
				"x": 1.6603984538,
				"y": 4.0279508089,
				"z": 1.6314985945,
				"element": "H" 
			},
			{
				"x": -1.0873738074,
				"y": 0.2178180372,
				"z": 1.9331704361,
				"element": "H" 
			},
			{
				"x": -1.2141124508,
				"y": -3.958608451,
				"z": -0.3523889578,
				"element": "H" 
			},
			{
				"x": -2.5412200217,
				"y": -3.0685578281,
				"z": -1.1924470394,
				"element": "H" 
			},
			{
				"x": 1.2218460489,
				"y": -0.4958970441,
				"z": -2.4711458018,
				"element": "H" 
			},
			{
				"x": 1.7018856154,
				"y": 1.5236342036,
				"z": -1.0893832719,
				"element": "H" 
			}
		],
		 "valence_orbital": [ 
			{
				"type": "occ",
				"energy": -0.35625,
				"method": "rhf"
			},
			{
				"type": "occ",
				"energy": -0.31739,
				"method": "rhf"
			},
			{
				"type": "occ",
				"energy": -0.25453,
				"method": "rhf"
			},
			{
				"type": "occ",
				"energy": -0.24437,
				"method": "rhf"
			},
			{
				"type": "occ",
				"energy": -0.21811,
				"method": "rhf"
			},
			{
				"type": "unocc",
				"energy": -0.04845,
				"method": "rhf"
			},
			{
				"type": "unocc",
				"energy": -0.00575,
				"method": "rhf"
			},
			{
				"type": "unocc",
				"energy": 0.05081,
				"method": "rhf"
			},
			{
				"type": "unocc",
				"energy": 0.087,
				"method": "rhf"
			},
			{
				"type": "unocc",
				"energy": 0.09664,
				"method": "rhf"
			}
		],
		"cosmo_sigma_profile": { 
			"-0.025": 0.0,
			"-0.024": 0.0,
			"-0.023": 0.0,
			"-0.022": 0.0,
			"-0.021": 0.0,
			"-0.02": 0.0,
			"-0.019": 0.0,
			"-0.018": 0.0,
			"-0.017": 0.0,
			"-0.016": 0.0,
			"-0.015": 0.0,
			"-0.014": 0.0,
			"-0.013": 0.0,
			"-0.012": 0.0,
			"-0.011": 0.0,
			"-0.01": 0.0,
			"-0.009": 0.0,
			"-0.008": 5.27210944968,
			"-0.007": 10.7265705052,
			"-0.006": 15.6314516337,
			"-0.005": 15.0426103352,
			"-0.004": 12.0856209519,
			"-0.003": 11.5399036517,
			"-0.002": 11.8273593531,
			"-0.001": 14.9340358675,
			"0.0": 11.6963111556,
			"0.001": 13.1247081938,
			"0.002": 15.5106142469,
			"0.003": 14.6796831779,
			"0.004": 8.019749732,
			"0.005": 4.13749138851,
			"0.006": 4.79016486377,
			"0.007": 3.38535653887,
			"0.008": 4.65658365329,
			"0.009": 4.54794389818,
			"0.01": 2.28206094156,
			"0.011": 2.60470580399,
			"0.012": 4.07551019872,
			"0.013": 2.18630618565,
			"0.014": 0.433700937298,
			"0.015": 0.0,
			"0.016": 0.0,
			"0.017": 0.0,
			"0.018": 0.0,
			"0.019": 0.0,
			"0.02": 0.0,
			"0.021": 0.0,
			"0.022": 0.0,
			"0.023": 0.0,
			"0.024": 0.0,
			"0.025": 0.0
		}
	}
}
