{
	 "smiles": "CN1C2=C(C=C(Cl)C=C2)C(=NC(O)C1=O)C1=C(Cl)C=CC=C1", 
	 "Tm": 479.15, 
	 "num_atms": 34, 
	 "gaussian": { 
		 "optdone": 1, 
		 "sigma_profile": "yes", 
		 "theory": "DFT", 
		 "functional": "B3LYP", 
		 "basiset": "6-31G**", 
		 "properties": { 
			 "R2extent": 8024.344, 
			 "electric_dipole_moment_norm": 1.43896904067, 
			 "electric_quadrupole_moment_norm": 26.4532701532, 
			 "total_energy": -1797.25064265, 
			 "HOMO_LUMO_gap": 0.16431, 
			 "cosmo_polarized_energy": -17.02, 
			 "cosmo_cavitation_energy": 41.08, 
			 "cosmo_dispersion_energy": -28.14, 
			 "cosmo_repulsion_energy": 2.16, 
			 "cosmo_total_nonelectrostatic_energy": 15.1, 
			 "SMD_solvation_energy": 4.4 
		},
		"coords": [
			{
				"x": 2.9082675198,
				"y": 1.6888404677,
				"z": 2.9441777283,
				"element": "C" 
			},
			{
				"x": 1.9352850467,
				"y": 0.6494873151,
				"z": 2.5832259944,
				"element": "N" 
			},
			{
				"x": 1.0858011701,
				"y": 0.8687474291,
				"z": 1.4736207783,
				"element": "C" 
			},
			{
				"x": 0.6724720428,
				"y": -0.172370552,
				"z": 0.6075805543,
				"element": "C" 
			},
			{
				"x": -0.1189918365,
				"y": 0.1382686488,
				"z": -0.5086487521,
				"element": "C" 
			},
			{
				"x": -0.5053533716,
				"y": 1.4458988126,
				"z": -0.76573719,
				"element": "C" 
			},
			{
				"x": -1.512632883,
				"y": 1.7999945201,
				"z": -2.1601014363,
				"element": "Cl" 
			},
			{
				"x": -0.0945159981,
				"y": 2.4808006082,
				"z": 0.0725555996,
				"element": "C" 
			},
			{
				"x": 0.6960206705,
				"y": 2.1848613841,
				"z": 1.1767834014,
				"element": "C" 
			},
			{
				"x": 1.0542072942,
				"y": -1.5906600277,
				"z": 0.8276672238,
				"element": "C" 
			},
			{
				"x": 1.1204071622,
				"y": -2.1914638079,
				"z": 1.9612696968,
				"element": "N" 
			},
			{
				"x": 0.7686709881,
				"y": -1.4836151971,
				"z": 3.1710868453,
				"element": "C" 
			},
			{
				"x": -0.5446042604,
				"y": -0.9428724508,
				"z": 3.0802659366,
				"element": "O" 
			},
			{
				"x": 1.8244493475,
				"y": -0.4057138377,
				"z": 3.479642999,
				"element": "C" 
			},
			{
				"x": 2.523496732,
				"y": -0.4817960126,
				"z": 4.478497862,
				"element": "O" 
			},
			{
				"x": 1.3244208004,
				"y": -2.4505747659,
				"z": -0.3721346346,
				"element": "C" 
			},
			{
				"x": 2.2683116777,
				"y": -2.1508349651,
				"z": -1.3678897398,
				"element": "C" 
			},
			{
				"x": 3.2905915835,
				"y": -0.7223722283,
				"z": -1.2501452101,
				"element": "Cl" 
			},
			{
				"x": 2.4744451613,
				"y": -3.0013087053,
				"z": -2.4543452857,
				"element": "C" 
			},
			{
				"x": 1.7304502388,
				"y": -4.1751757595,
				"z": -2.5636588367,
				"element": "C" 
			},
			{
				"x": 0.7982120353,
				"y": -4.5052583246,
				"z": -1.5790922752,
				"element": "C" 
			},
			{
				"x": 0.6084475307,
				"y": -3.6526594462,
				"z": -0.4950818174,
				"element": "C" 
			},
			{
				"x": 3.7167707326,
				"y": 1.2121536607,
				"z": 3.4962195427,
				"element": "H" 
			},
			{
				"x": 2.4673086332,
				"y": 2.4594333092,
				"z": 3.5873977336,
				"element": "H" 
			},
			{
				"x": 3.2931425259,
				"y": 2.1513109524,
				"z": 2.0342885247,
				"element": "H" 
			},
			{
				"x": -0.4315468383,
				"y": -0.6567299953,
				"z": -1.1752464999,
				"element": "H" 
			},
			{
				"x": -0.3935076024,
				"y": 3.5029623467,
				"z": -0.1308541618,
				"element": "H" 
			},
			{
				"x": 1.0022415971,
				"y": 2.9932147752,
				"z": 1.830183265,
				"element": "H" 
			},
			{
				"x": 0.8368577152,
				"y": -2.191124901,
				"z": 4.004341119,
				"element": "H" 
			},
			{
				"x": -0.8560044138,
				"y": -0.7797862069,
				"z": 3.9804966312,
				"element": "H" 
			},
			{
				"x": 3.2207765929,
				"y": -2.7437891751,
				"z": -3.1975290887,
				"element": "H" 
			},
			{
				"x": 1.8895208956,
				"y": -4.831622155,
				"z": -3.4138531186,
				"element": "H" 
			},
			{
				"x": 0.2235404154,
				"y": -5.4231861874,
				"z": -1.6530821327,
				"element": "H" 
			},
			{
				"x": -0.1031589055,
				"y": -3.8988595283,
				"z": 0.2856987437,
				"element": "H" 
			}
		],
		 "valence_orbital": [ 
			{
				"type": "occ",
				"energy": -0.27154,
				"method": "rhf"
			},
			{
				"type": "occ",
				"energy": -0.25826,
				"method": "rhf"
			},
			{
				"type": "occ",
				"energy": -0.2519,
				"method": "rhf"
			},
			{
				"type": "occ",
				"energy": -0.24528,
				"method": "rhf"
			},
			{
				"type": "occ",
				"energy": -0.2271,
				"method": "rhf"
			},
			{
				"type": "unocc",
				"energy": -0.06279,
				"method": "rhf"
			},
			{
				"type": "unocc",
				"energy": -0.02939,
				"method": "rhf"
			},
			{
				"type": "unocc",
				"energy": -0.02582,
				"method": "rhf"
			},
			{
				"type": "unocc",
				"energy": -0.01578,
				"method": "rhf"
			},
			{
				"type": "unocc",
				"energy": 0.00465,
				"method": "rhf"
			}
		],
		"cosmo_sigma_profile": { 
			"-0.025": 0.0,
			"-0.024": 0.0,
			"-0.023": 0.0,
			"-0.022": 0.0,
			"-0.021": 0.0,
			"-0.02": 0.0,
			"-0.019": 0.0,
			"-0.018": 0.23078643163,
			"-0.017": 1.12468751297,
			"-0.016": 0.992438113094,
			"-0.015": 0.962387378073,
			"-0.014": 1.27436646762,
			"-0.013": 1.04763685453,
			"-0.012": 0.994346692871,
			"-0.011": 0.726206472233,
			"-0.01": 0.566822646758,
			"-0.009": 0.862217163609,
			"-0.008": 5.58835335444,
			"-0.007": 12.1084928289,
			"-0.006": 19.7845243835,
			"-0.005": 20.8226085577,
			"-0.004": 20.3210961766,
			"-0.003": 19.3198454444,
			"-0.002": 20.5520074287,
			"-0.001": 20.8110157716,
			"0.0": 23.8964252678,
			"0.001": 30.036709611,
			"0.002": 29.5098558796,
			"0.003": 29.358020344,
			"0.004": 26.5011128931,
			"0.005": 11.1125640686,
			"0.006": 4.88994063996,
			"0.007": 3.1234346402,
			"0.008": 4.31344796581,
			"0.009": 3.78652831848,
			"0.01": 3.92139246392,
			"0.011": 4.31723984033,
			"0.012": 6.20126079666,
			"0.013": 2.8185328481,
			"0.014": 0.839827007082,
			"0.015": 0.220969482252,
			"0.016": 0.0,
			"0.017": 0.0,
			"0.018": 0.0,
			"0.019": 0.0,
			"0.02": 0.0,
			"0.021": 0.0,
			"0.022": 0.0,
			"0.023": 0.0,
			"0.024": 0.0,
			"0.025": 0.0
		}
	}
}
