{
	 "smiles": "CC1(C)CCCC(O)C1", 
	 "Tm": 284.65, 
	 "num_atms": 25, 
	 "gaussian": { 
		 "optdone": 1, 
		 "sigma_profile": "yes", 
		 "theory": "DFT", 
		 "functional": "B3LYP", 
		 "basiset": "6-31G**", 
		 "properties": { 
			 "R2extent": 1361.0081, 
			 "electric_dipole_moment_norm": 1.43746588481, 
			 "electric_quadrupole_moment_norm": 4.56185841297, 
			 "total_energy": -389.725755126, 
			 "HOMO_LUMO_gap": 0.31651, 
			 "cosmo_polarized_energy": -5.33, 
			 "cosmo_cavitation_energy": 24.01, 
			 "cosmo_dispersion_energy": -17.8, 
			 "cosmo_repulsion_energy": 1.44, 
			 "cosmo_total_nonelectrostatic_energy": 7.64, 
			 "SMD_solvation_energy": 3.61 
		},
		"coords": [
			{
				"x": 0.1246753084,
				"y": -2.0003926529,
				"z": -1.2314336829,
				"element": "C" 
			},
			{
				"x": -0.8854611435,
				"y": -1.2326558741,
				"z": -0.3518165337,
				"element": "C" 
			},
			{
				"x": -2.3044797529,
				"y": -1.6914688687,
				"z": -0.7341739952,
				"element": "C" 
			},
			{
				"x": -0.6380326579,
				"y": -1.5379309019,
				"z": 1.1429766305,
				"element": "C" 
			},
			{
				"x": 0.7450897973,
				"y": -1.0778740769,
				"z": 1.6511953112,
				"element": "C" 
			},
			{
				"x": 1.2059269785,
				"y": 0.2615413967,
				"z": 1.0228811076,
				"element": "C" 
			},
			{
				"x": 0.0365490071,
				"y": 1.0827106579,
				"z": 0.4709306178,
				"element": "C" 
			},
			{
				"x": -0.8880087557,
				"y": 1.4360972359,
				"z": 1.5094552383,
				"element": "O" 
			},
			{
				"x": -0.7598472924,
				"y": 0.3072522502,
				"z": -0.5927246259,
				"element": "C" 
			},
			{
				"x": 0.0583819061,
				"y": -3.0797502349,
				"z": -1.0510172503,
				"element": "H" 
			},
			{
				"x": 1.1592051786,
				"y": -1.6968147076,
				"z": -1.0431195644,
				"element": "H" 
			},
			{
				"x": -0.0783291608,
				"y": -1.8283954062,
				"z": -2.2948910912,
				"element": "H" 
			},
			{
				"x": -2.5310697367,
				"y": -1.4456368873,
				"z": -1.7784824308,
				"element": "H" 
			},
			{
				"x": -2.4155370323,
				"y": -2.775873705,
				"z": -0.6159626397,
				"element": "H" 
			},
			{
				"x": -3.0576743994,
				"y": -1.2049764793,
				"z": -0.1047958527,
				"element": "H" 
			},
			{
				"x": -1.4125597736,
				"y": -1.0262298937,
				"z": 1.7225899069,
				"element": "H" 
			},
			{
				"x": -0.7583094555,
				"y": -2.6139840333,
				"z": 1.3227878765,
				"element": "H" 
			},
			{
				"x": 0.7005657481,
				"y": -0.9840540171,
				"z": 2.7414883464,
				"element": "H" 
			},
			{
				"x": 1.4999024109,
				"y": -1.8456760448,
				"z": 1.4473527815,
				"element": "H" 
			},
			{
				"x": 1.7642063254,
				"y": 0.8596219117,
				"z": 1.7558358897,
				"element": "H" 
			},
			{
				"x": 1.9057827481,
				"y": 0.0798320609,
				"z": 0.197733995,
				"element": "H" 
			},
			{
				"x": 0.429592314,
				"y": 2.0031062465,
				"z": 0.0090605542,
				"element": "H" 
			},
			{
				"x": -0.3874133108,
				"y": 1.8689124574,
				"z": 2.213648929,
				"element": "H" 
			},
			{
				"x": -1.7537950554,
				"y": 0.7660159607,
				"z": -0.6283732315,
				"element": "H" 
			},
			{
				"x": -0.3003601955,
				"y": 0.4850236059,
				"z": -1.5725462862,
				"element": "H" 
			}
		],
		 "valence_orbital": [ 
			{
				"type": "occ",
				"energy": -0.32152,
				"method": "rhf"
			},
			{
				"type": "occ",
				"energy": -0.3042,
				"method": "rhf"
			},
			{
				"type": "occ",
				"energy": -0.29577,
				"method": "rhf"
			},
			{
				"type": "occ",
				"energy": -0.28649,
				"method": "rhf"
			},
			{
				"type": "occ",
				"energy": -0.25428,
				"method": "rhf"
			},
			{
				"type": "unocc",
				"energy": 0.06223,
				"method": "rhf"
			},
			{
				"type": "unocc",
				"energy": 0.10177,
				"method": "rhf"
			},
			{
				"type": "unocc",
				"energy": 0.11407,
				"method": "rhf"
			},
			{
				"type": "unocc",
				"energy": 0.12642,
				"method": "rhf"
			},
			{
				"type": "unocc",
				"energy": 0.13362,
				"method": "rhf"
			}
		],
		"cosmo_sigma_profile": { 
			"-0.025": 0.0,
			"-0.024": 0.0,
			"-0.023": 0.0,
			"-0.022": 0.0,
			"-0.021": 0.0,
			"-0.02": 0.0,
			"-0.019": 0.0,
			"-0.018": 0.0,
			"-0.017": 0.0,
			"-0.016": 0.0,
			"-0.015": 0.184663964917,
			"-0.014": 1.08978015725,
			"-0.013": 0.767903763903,
			"-0.012": 0.860177027493,
			"-0.011": 0.903165321773,
			"-0.01": 1.17206490888,
			"-0.009": 0.785973135216,
			"-0.008": 0.725276209213,
			"-0.007": 1.21739248693,
			"-0.006": 1.21507981381,
			"-0.005": 1.17027067415,
			"-0.004": 1.60388637275,
			"-0.003": 8.58605645571,
			"-0.002": 29.5205753652,
			"-0.001": 33.7979320074,
			"0.0": 31.4828647613,
			"0.001": 28.9234781414,
			"0.002": 19.9361840526,
			"0.003": 3.13910616251,
			"0.004": 1.63464316306,
			"0.005": 1.91623395348,
			"0.006": 1.41586264553,
			"0.007": 1.03060012769,
			"0.008": 1.76379939255,
			"0.009": 1.52651014838,
			"0.01": 1.05216615507,
			"0.011": 1.18334646209,
			"0.012": 0.901207981273,
			"0.013": 1.58910120738,
			"0.014": 0.957009906542,
			"0.015": 0.976964724442,
			"0.016": 0.0,
			"0.017": 0.0,
			"0.018": 0.0,
			"0.019": 0.0,
			"0.02": 0.0,
			"0.021": 0.0,
			"0.022": 0.0,
			"0.023": 0.0,
			"0.024": 0.0,
			"0.025": 0.0
		}
	}
}
