{
	 "smiles": "CS(=O)(=O)NCC#C", 
	 "Tm": 330.15, 
	 "num_atms": 15, 
	 "gaussian": { 
		 "optdone": 1, 
		 "sigma_profile": "yes", 
		 "theory": "DFT", 
		 "functional": "B3LYP", 
		 "basiset": "6-31G**", 
		 "properties": { 
			 "R2extent": 1559.571, 
			 "electric_dipole_moment_norm": 3.49684662804, 
			 "electric_quadrupole_moment_norm": 11.6016351585, 
			 "total_energy": -759.882655569, 
			 "HOMO_LUMO_gap": 0.29105, 
			 "cosmo_polarized_energy": -14.72, 
			 "cosmo_cavitation_energy": 21.41, 
			 "cosmo_dispersion_energy": -15.56, 
			 "cosmo_repulsion_energy": 1.24, 
			 "cosmo_total_nonelectrostatic_energy": 7.09, 
			 "SMD_solvation_energy": 4.24 
		},
		"coords": [
			{
				"x": 1.4205687476,
				"y": -1.4499353843,
				"z": 0.42431445,
				"element": "C" 
			},
			{
				"x": 0.6585817592,
				"y": -1.090393509,
				"z": -1.1649991563,
				"element": "S" 
			},
			{
				"x": -0.3905419818,
				"y": -2.0904793415,
				"z": -1.3917820541,
				"element": "O" 
			},
			{
				"x": 1.7218353832,
				"y": -0.8566987162,
				"z": -2.1456494597,
				"element": "O" 
			},
			{
				"x": -0.0503082481,
				"y": 0.4255158348,
				"z": -0.8798113074,
				"element": "N" 
			},
			{
				"x": -1.5159221809,
				"y": 0.4522736197,
				"z": -0.6748738014,
				"element": "C" 
			},
			{
				"x": -1.9648270045,
				"y": 1.8276029913,
				"z": -0.4725938175,
				"element": "C" 
			},
			{
				"x": -2.3383940368,
				"y": 2.9663496797,
				"z": -0.3322345877,
				"element": "C" 
			},
			{
				"x": 0.6458964132,
				"y": -1.4787241721,
				"z": 1.1918198248,
				"element": "H" 
			},
			{
				"x": 1.8978560128,
				"y": -2.4273116246,
				"z": 0.3334110632,
				"element": "H" 
			},
			{
				"x": 2.1567523235,
				"y": -0.6759855616,
				"z": 0.6400954335,
				"element": "H" 
			},
			{
				"x": 0.2562428491,
				"y": 1.0500207135,
				"z": -1.6226598639,
				"element": "H" 
			},
			{
				"x": -2.0588942318,
				"y": -0.004706169,
				"z": -1.5124764509,
				"element": "H" 
			},
			{
				"x": -1.7469935715,
				"y": -0.1490209876,
				"z": 0.2112343962,
				"element": "H" 
			},
			{
				"x": -2.6709522332,
				"y": 3.9698926268,
				"z": -0.1983946688,
				"element": "H" 
			}
		],
		 "valence_orbital": [ 
			{
				"type": "occ",
				"energy": -0.31634,
				"method": "rhf"
			},
			{
				"type": "occ",
				"energy": -0.30612,
				"method": "rhf"
			},
			{
				"type": "occ",
				"energy": -0.29357,
				"method": "rhf"
			},
			{
				"type": "occ",
				"energy": -0.28444,
				"method": "rhf"
			},
			{
				"type": "occ",
				"energy": -0.27446,
				"method": "rhf"
			},
			{
				"type": "unocc",
				"energy": 0.01659,
				"method": "rhf"
			},
			{
				"type": "unocc",
				"energy": 0.03793,
				"method": "rhf"
			},
			{
				"type": "unocc",
				"energy": 0.06744,
				"method": "rhf"
			},
			{
				"type": "unocc",
				"energy": 0.07526,
				"method": "rhf"
			},
			{
				"type": "unocc",
				"energy": 0.09042,
				"method": "rhf"
			}
		],
		"cosmo_sigma_profile": { 
			"-0.025": 0.0,
			"-0.024": 0.0,
			"-0.023": 0.0,
			"-0.022": 0.0,
			"-0.021": 0.0,
			"-0.02": 0.0,
			"-0.019": 0.0,
			"-0.018": 0.0,
			"-0.017": 0.0,
			"-0.016": 0.0,
			"-0.015": 0.172969524634,
			"-0.014": 0.834093707819,
			"-0.013": 1.1941551053,
			"-0.012": 1.46064550102,
			"-0.011": 2.17794612539,
			"-0.01": 3.22693566787,
			"-0.009": 5.98578611418,
			"-0.008": 10.1252864722,
			"-0.007": 10.0168376659,
			"-0.006": 11.0864331774,
			"-0.005": 10.0186046867,
			"-0.004": 11.3197781651,
			"-0.003": 7.83582839177,
			"-0.002": 5.95681253514,
			"-0.001": 5.88269197083,
			"0.0": 5.92750655679,
			"0.001": 5.08983276431,
			"0.002": 5.38180544446,
			"0.003": 6.91046144637,
			"0.004": 6.5961757761,
			"0.005": 8.8180418955,
			"0.006": 10.851498297,
			"0.007": 4.20670231226,
			"0.008": 3.56652701049,
			"0.009": 3.12865854148,
			"0.01": 7.52550578468,
			"0.011": 11.1851770989,
			"0.012": 4.35028763728,
			"0.013": 0.0,
			"0.014": 0.0,
			"0.015": 0.0,
			"0.016": 0.0,
			"0.017": 0.0,
			"0.018": 0.0,
			"0.019": 0.0,
			"0.02": 0.0,
			"0.021": 0.0,
			"0.022": 0.0,
			"0.023": 0.0,
			"0.024": 0.0,
			"0.025": 0.0
		}
	}
}
