{
	 "smiles": "CC1=CN2N=C(N)C3=C(C=CC=C3)C2=N1", 
	 "Tm": 490.15, 
	 "num_atms": 25, 
	 "gaussian": { 
		 "optdone": 1, 
		 "sigma_profile": "yes", 
		 "theory": "DFT", 
		 "functional": "B3LYP", 
		 "basiset": "6-31G**", 
		 "properties": { 
			 "R2extent": 3972.4897, 
			 "electric_dipole_moment_norm": 3.21925264153, 
			 "electric_quadrupole_moment_norm": 14.4635898452, 
			 "total_energy": -644.204457727, 
			 "HOMO_LUMO_gap": 0.15802, 
			 "cosmo_polarized_energy": -13.45, 
			 "cosmo_cavitation_energy": 28.76, 
			 "cosmo_dispersion_energy": -21.75, 
			 "cosmo_repulsion_energy": 1.67, 
			 "cosmo_total_nonelectrostatic_energy": 8.69, 
			 "SMD_solvation_energy": 2.48 
		},
		"coords": [
			{
				"x": -1.4914950258,
				"y": -1.3310623061,
				"z": -2.8351416129,
				"element": "C" 
			},
			{
				"x": -0.6290139995,
				"y": -0.651307398,
				"z": -1.8181204784,
				"element": "C" 
			},
			{
				"x": 0.2298714184,
				"y": -1.2402355198,
				"z": -0.9053871163,
				"element": "C" 
			},
			{
				"x": 0.788423575,
				"y": -0.1992597557,
				"z": -0.2056748323,
				"element": "N" 
			},
			{
				"x": 1.6661688715,
				"y": -0.3149840065,
				"z": 0.8312888057,
				"element": "N" 
			},
			{
				"x": 2.0899197265,
				"y": 0.8135019474,
				"z": 1.340813505,
				"element": "C" 
			},
			{
				"x": 3.0423668771,
				"y": 0.7120139786,
				"z": 2.348540354,
				"element": "N" 
			},
			{
				"x": 1.6634381009,
				"y": 2.1345056866,
				"z": 0.890488298,
				"element": "C" 
			},
			{
				"x": 0.6969037533,
				"y": 2.2051375344,
				"z": -0.1461576286,
				"element": "C" 
			},
			{
				"x": 0.2340293234,
				"y": 3.457343322,
				"z": -0.593253513,
				"element": "C" 
			},
			{
				"x": 0.7320927253,
				"y": 4.6188412292,
				"z": -0.0280848916,
				"element": "C" 
			},
			{
				"x": 1.7101452114,
				"y": 4.5586423645,
				"z": 0.9821241196,
				"element": "C" 
			},
			{
				"x": 2.1729797567,
				"y": 3.3319352917,
				"z": 1.4316817944,
				"element": "C" 
			},
			{
				"x": 0.2487937497,
				"y": 0.969234893,
				"z": -0.7139902945,
				"element": "C" 
			},
			{
				"x": -0.6112150981,
				"y": 0.7147152208,
				"z": -1.6923677939,
				"element": "N" 
			},
			{
				"x": -1.2366699154,
				"y": -1.0000179248,
				"z": -3.8478172103,
				"element": "H" 
			},
			{
				"x": -2.5483181851,
				"y": -1.0915777447,
				"z": -2.6742752255,
				"element": "H" 
			},
			{
				"x": -1.3753489968,
				"y": -2.4174285428,
				"z": -2.7902325853,
				"element": "H" 
			},
			{
				"x": 0.4887376359,
				"y": -2.2645491011,
				"z": -0.6909675559,
				"element": "H" 
			},
			{
				"x": 2.9095447163,
				"y": 1.3427354797,
				"z": 3.1278820429,
				"element": "H" 
			},
			{
				"x": 3.1711678768,
				"y": -0.2462932414,
				"z": 2.6500215665,
				"element": "H" 
			},
			{
				"x": -0.5065671709,
				"y": 3.4817031604,
				"z": -1.3852964261,
				"element": "H" 
			},
			{
				"x": 0.374762471,
				"y": 5.5843036144,
				"z": -0.3742785416,
				"element": "H" 
			},
			{
				"x": 2.1104425896,
				"y": 5.4753019912,
				"z": 1.4042474073,
				"element": "H" 
			},
			{
				"x": 2.9527400127,
				"y": 3.296999827,
				"z": 2.1855578129,
				"element": "H" 
			}
		],
		 "valence_orbital": [ 
			{
				"type": "occ",
				"energy": -0.279,
				"method": "rhf"
			},
			{
				"type": "occ",
				"energy": -0.26516,
				"method": "rhf"
			},
			{
				"type": "occ",
				"energy": -0.25445,
				"method": "rhf"
			},
			{
				"type": "occ",
				"energy": -0.21997,
				"method": "rhf"
			},
			{
				"type": "occ",
				"energy": -0.20265,
				"method": "rhf"
			},
			{
				"type": "unocc",
				"energy": -0.04463,
				"method": "rhf"
			},
			{
				"type": "unocc",
				"energy": -0.03066,
				"method": "rhf"
			},
			{
				"type": "unocc",
				"energy": 0.0379,
				"method": "rhf"
			},
			{
				"type": "unocc",
				"energy": 0.0677,
				"method": "rhf"
			},
			{
				"type": "unocc",
				"energy": 0.07721,
				"method": "rhf"
			}
		],
		"cosmo_sigma_profile": { 
			"-0.025": 0.0,
			"-0.024": 0.0,
			"-0.023": 0.0,
			"-0.022": 0.0,
			"-0.021": 0.0,
			"-0.02": 0.0,
			"-0.019": 0.0,
			"-0.018": 0.0,
			"-0.017": 0.0,
			"-0.016": 0.0,
			"-0.015": 0.0,
			"-0.014": 0.458904562817,
			"-0.013": 1.93482061639,
			"-0.012": 2.95755597407,
			"-0.011": 2.77444209839,
			"-0.01": 2.7592132868,
			"-0.009": 2.89619960951,
			"-0.008": 3.17790856702,
			"-0.007": 6.3153112654,
			"-0.006": 8.52670702079,
			"-0.005": 13.191221366,
			"-0.004": 14.7162282894,
			"-0.003": 12.4476307336,
			"-0.002": 15.2986568021,
			"-0.001": 15.4287797474,
			"0.0": 19.919192475,
			"0.001": 16.7594224347,
			"0.002": 21.3281335624,
			"0.003": 21.3684505547,
			"0.004": 14.8571383124,
			"0.005": 6.545301371,
			"0.006": 3.60335990489,
			"0.007": 3.60502752438,
			"0.008": 3.76358622863,
			"0.009": 3.0557907262,
			"0.01": 2.41198337467,
			"0.011": 2.74655948489,
			"0.012": 2.6849430998,
			"0.013": 1.77308663563,
			"0.014": 1.32369582147,
			"0.015": 0.502634969921,
			"0.016": 0.63070555578,
			"0.017": 0.684182635878,
			"0.018": 0.0,
			"0.019": 0.0,
			"0.02": 0.0,
			"0.021": 0.0,
			"0.022": 0.0,
			"0.023": 0.0,
			"0.024": 0.0,
			"0.025": 0.0
		}
	}
}
