{
	 "smiles": "CNCC(O)C(O)C(O)C(O)CO", 
	 "Tm": 401.15, 
	 "num_atms": 30, 
	 "gaussian": { 
		 "optdone": 1, 
		 "sigma_profile": "yes", 
		 "theory": "DFT", 
		 "functional": "B3LYP", 
		 "basiset": "6-31G**", 
		 "properties": { 
			 "R2extent": 3535.9255, 
			 "electric_dipole_moment_norm": 3.71293450252, 
			 "electric_quadrupole_moment_norm": 11.9050932491, 
			 "total_energy": -707.816622184, 
			 "HOMO_LUMO_gap": 0.2646, 
			 "cosmo_polarized_energy": -19.84, 
			 "cosmo_cavitation_energy": 31.15, 
			 "cosmo_dispersion_energy": -22.21, 
			 "cosmo_repulsion_energy": 1.8, 
			 "cosmo_total_nonelectrostatic_energy": 10.73, 
			 "SMD_solvation_energy": 2.8 
		},
		"coords": [
			{
				"x": 0.4910997336,
				"y": 1.2917166306,
				"z": -4.5526527237,
				"element": "C" 
			},
			{
				"x": -0.6148266336,
				"y": 1.9788937202,
				"z": -3.888196895,
				"element": "N" 
			},
			{
				"x": -0.6135182063,
				"y": 1.8544603795,
				"z": -2.4337979902,
				"element": "C" 
			},
			{
				"x": -1.0485890258,
				"y": 0.4843893922,
				"z": -1.8964424832,
				"element": "C" 
			},
			{
				"x": -2.3584977191,
				"y": 0.1379764038,
				"z": -2.3948009425,
				"element": "O" 
			},
			{
				"x": -1.0723489073,
				"y": 0.3718297592,
				"z": -0.3631326807,
				"element": "C" 
			},
			{
				"x": -1.6310788375,
				"y": -0.881702631,
				"z": 0.0057785282,
				"element": "O" 
			},
			{
				"x": 0.314816858,
				"y": 0.5350752708,
				"z": 0.2741265695,
				"element": "C" 
			},
			{
				"x": 1.2922148716,
				"y": -0.0954620473,
				"z": -0.5407666676,
				"element": "O" 
			},
			{
				"x": 0.4051347968,
				"y": -0.0633961893,
				"z": 1.6928692237,
				"element": "C" 
			},
			{
				"x": 1.7732852855,
				"y": -0.0137355916,
				"z": 2.1124467572,
				"element": "O" 
			},
			{
				"x": -0.4729306562,
				"y": 0.6252601905,
				"z": 2.7288357754,
				"element": "C" 
			},
			{
				"x": 0.0364566423,
				"y": 1.9553757855,
				"z": 2.8771260501,
				"element": "O" 
			},
			{
				"x": 0.3948994528,
				"y": 1.4246741131,
				"z": -5.6347552138,
				"element": "H" 
			},
			{
				"x": 0.5659979201,
				"y": 0.2099749417,
				"z": -4.3504167602,
				"element": "H" 
			},
			{
				"x": 1.4377089376,
				"y": 1.7501452731,
				"z": -4.2454715357,
				"element": "H" 
			},
			{
				"x": -1.4954446735,
				"y": 1.6055766027,
				"z": -4.2355152721,
				"element": "H" 
			},
			{
				"x": 0.3925167221,
				"y": 2.0824586993,
				"z": -2.0657992873,
				"element": "H" 
			},
			{
				"x": -1.2869942864,
				"y": 2.6223725612,
				"z": -2.0193837994,
				"element": "H" 
			},
			{
				"x": -0.3909601053,
				"y": -0.300764436,
				"z": -2.2750617209,
				"element": "H" 
			},
			{
				"x": -2.9650254779,
				"y": 0.8469729367,
				"z": -2.1312038348,
				"element": "H" 
			},
			{
				"x": -1.707171928,
				"y": 1.1905502035,
				"z": 0.0296218641,
				"element": "H" 
			},
			{
				"x": -2.2748781819,
				"y": -1.0861933953,
				"z": -0.690962262,
				"element": "H" 
			},
			{
				"x": 0.5202531098,
				"y": 1.6162920966,
				"z": 0.3454411044,
				"element": "H" 
			},
			{
				"x": 2.0560524216,
				"y": -0.2224412526,
				"z": 0.0448307711,
				"element": "H" 
			},
			{
				"x": 0.1324124954,
				"y": -1.1190924832,
				"z": 1.6287292037,
				"element": "H" 
			},
			{
				"x": 1.9052095607,
				"y": 0.8919148446,
				"z": 2.4365540192,
				"element": "H" 
			},
			{
				"x": -1.5223413876,
				"y": 0.6230046051,
				"z": 2.4058367904,
				"element": "H" 
			},
			{
				"x": -0.4005301427,
				"y": 0.071063388,
				"z": 3.6747302123,
				"element": "H" 
			},
			{
				"x": -0.3386226392,
				"y": 2.3439102283,
				"z": 3.6758331998,
				"element": "H" 
			}
		],
		 "valence_orbital": [ 
			{
				"type": "occ",
				"energy": -0.28918,
				"method": "rhf"
			},
			{
				"type": "occ",
				"energy": -0.27701,
				"method": "rhf"
			},
			{
				"type": "occ",
				"energy": -0.26347,
				"method": "rhf"
			},
			{
				"type": "occ",
				"energy": -0.25246,
				"method": "rhf"
			},
			{
				"type": "occ",
				"energy": -0.21178,
				"method": "rhf"
			},
			{
				"type": "unocc",
				"energy": 0.05282,
				"method": "rhf"
			},
			{
				"type": "unocc",
				"energy": 0.06029,
				"method": "rhf"
			},
			{
				"type": "unocc",
				"energy": 0.0956,
				"method": "rhf"
			},
			{
				"type": "unocc",
				"energy": 0.10169,
				"method": "rhf"
			},
			{
				"type": "unocc",
				"energy": 0.11115,
				"method": "rhf"
			}
		],
		"cosmo_sigma_profile": { 
			"-0.025": 0.0,
			"-0.024": 0.0,
			"-0.023": 0.0,
			"-0.022": 0.0,
			"-0.021": 0.0,
			"-0.02": 0.0,
			"-0.019": 0.0,
			"-0.018": 0.0,
			"-0.017": 0.114730337133,
			"-0.016": 1.32031047769,
			"-0.015": 1.95763559995,
			"-0.014": 2.38098349812,
			"-0.013": 1.70835900113,
			"-0.012": 2.56376483849,
			"-0.011": 2.7243915279,
			"-0.01": 4.17926498364,
			"-0.009": 3.06972825994,
			"-0.008": 5.29615316458,
			"-0.007": 6.02112606483,
			"-0.006": 6.0917023902,
			"-0.005": 8.45361380957,
			"-0.004": 20.5953059335,
			"-0.003": 24.4865983589,
			"-0.002": 21.278984794,
			"-0.001": 17.7136149714,
			"0.0": 18.0607041172,
			"0.001": 10.230955939,
			"0.002": 8.77662971432,
			"0.003": 6.29478474574,
			"0.004": 6.54840784202,
			"0.005": 7.09437676105,
			"0.006": 6.86738420065,
			"0.007": 6.53471833251,
			"0.008": 5.85827847625,
			"0.009": 6.30003201286,
			"0.01": 5.32207749447,
			"0.011": 6.66934936388,
			"0.012": 7.03753072618,
			"0.013": 3.65211422864,
			"0.014": 1.41382072022,
			"0.015": 0.694136078907,
			"0.016": 0.502329285093,
			"0.017": 0.156471877758,
			"0.018": 0.987756365068,
			"0.019": 0.018648421174,
			"0.02": 0.0,
			"0.021": 0.0,
			"0.022": 0.0,
			"0.023": 0.0,
			"0.024": 0.0,
			"0.025": 0.0
		}
	}
}
