{
	 "smiles": "OC(=O)C1=C(Cl)N=C2SC=CN12", 
	 "Tm": 455.15, 
	 "num_atms": 15, 
	 "gaussian": { 
		 "optdone": 1, 
		 "sigma_profile": "yes", 
		 "theory": "DFT", 
		 "functional": "B3LYP", 
		 "basiset": "6-31G**", 
		 "properties": { 
			 "R2extent": 3352.9701, 
			 "electric_dipole_moment_norm": 2.83920244259, 
			 "electric_quadrupole_moment_norm": 24.5291723802, 
			 "total_energy": -1348.75924197, 
			 "HOMO_LUMO_gap": 0.1905, 
			 "cosmo_polarized_energy": -12.02, 
			 "cosmo_cavitation_energy": 23.36, 
			 "cosmo_dispersion_energy": -18.56, 
			 "cosmo_repulsion_energy": 1.4, 
			 "cosmo_total_nonelectrostatic_energy": 6.2, 
			 "SMD_solvation_energy": 3.32 
		},
		"coords": [
			{
				"x": -3.4540587278,
				"y": -0.0183114347,
				"z": 1.9298217336,
				"element": "O" 
			},
			{
				"x": -3.1599251741,
				"y": 0.0078529399,
				"z": 0.6141303809,
				"element": "C" 
			},
			{
				"x": -3.9581394082,
				"y": 0.4436750972,
				"z": -0.1931008326,
				"element": "O" 
			},
			{
				"x": -1.8497823107,
				"y": -0.5090400483,
				"z": 0.2050805447,
				"element": "C" 
			},
			{
				"x": -0.733719434,
				"y": -1.0623835212,
				"z": 0.8363971966,
				"element": "C" 
			},
			{
				"x": -0.5690583619,
				"y": -1.330377575,
				"z": 2.5456651759,
				"element": "Cl" 
			},
			{
				"x": 0.2669659438,
				"y": -1.3958545214,
				"z": -0.0066362789,
				"element": "N" 
			},
			{
				"x": -0.2143847788,
				"y": -1.0518919808,
				"z": -1.1934849771,
				"element": "C" 
			},
			{
				"x": 0.3662899178,
				"y": -1.1127412086,
				"z": -2.8346829025,
				"element": "S" 
			},
			{
				"x": -1.151606158,
				"y": -0.3970160874,
				"z": -3.3762289543,
				"element": "C" 
			},
			{
				"x": -2.012525134,
				"y": -0.142798104,
				"z": -2.3655714345,
				"element": "C" 
			},
			{
				"x": -1.4734366132,
				"y": -0.5163049309,
				"z": -1.137916711,
				"element": "N" 
			},
			{
				"x": -2.72324053,
				"y": -0.3928584289,
				"z": 2.4494919036,
				"element": "H" 
			},
			{
				"x": -1.31067384,
				"y": -0.2074955689,
				"z": -4.4271951913,
				"element": "H" 
			},
			{
				"x": -3.002105391,
				"y": 0.2865453733,
				"z": -2.3947696531,
				"element": "H" 
			}
		],
		 "valence_orbital": [ 
			{
				"type": "occ",
				"energy": -0.32352,
				"method": "rhf"
			},
			{
				"type": "occ",
				"energy": -0.32075,
				"method": "rhf"
			},
			{
				"type": "occ",
				"energy": -0.28554,
				"method": "rhf"
			},
			{
				"type": "occ",
				"energy": -0.25955,
				"method": "rhf"
			},
			{
				"type": "occ",
				"energy": -0.24858,
				"method": "rhf"
			},
			{
				"type": "unocc",
				"energy": -0.05808,
				"method": "rhf"
			},
			{
				"type": "unocc",
				"energy": -0.01477,
				"method": "rhf"
			},
			{
				"type": "unocc",
				"energy": -0.01355,
				"method": "rhf"
			},
			{
				"type": "unocc",
				"energy": 0.01547,
				"method": "rhf"
			},
			{
				"type": "unocc",
				"energy": 0.02076,
				"method": "rhf"
			}
		],
		"cosmo_sigma_profile": { 
			"-0.025": 0.0,
			"-0.024": 0.0,
			"-0.023": 0.0,
			"-0.022": 0.0,
			"-0.021": 0.0,
			"-0.02": 0.0,
			"-0.019": 0.0,
			"-0.018": 0.0,
			"-0.017": 0.0,
			"-0.016": 0.0,
			"-0.015": 0.0,
			"-0.014": 0.0307957128161,
			"-0.013": 0.559755432531,
			"-0.012": 0.594264608441,
			"-0.011": 3.03540837528,
			"-0.01": 5.02743206733,
			"-0.009": 4.06409629495,
			"-0.008": 4.53179877291,
			"-0.007": 5.1829917581,
			"-0.006": 4.69407911733,
			"-0.005": 5.645081258,
			"-0.004": 11.6190539131,
			"-0.003": 17.3703784025,
			"-0.002": 17.4524833463,
			"-0.001": 19.4004710375,
			"0.0": 15.1595242184,
			"0.001": 16.3103332398,
			"0.002": 15.3969354529,
			"0.003": 8.15277133195,
			"0.004": 4.29775601039,
			"0.005": 4.36376799804,
			"0.006": 2.81559529962,
			"0.007": 3.10057455844,
			"0.008": 4.28743574365,
			"0.009": 4.9880728476,
			"0.01": 5.6604030286,
			"0.011": 4.19109467925,
			"0.012": 3.70155474167,
			"0.013": 2.01091103946,
			"0.014": 0.758536367073,
			"0.015": 0.011605982031,
			"0.016": 0.0,
			"0.017": 0.0,
			"0.018": 0.0,
			"0.019": 0.0,
			"0.02": 0.0,
			"0.021": 0.0,
			"0.022": 0.0,
			"0.023": 0.0,
			"0.024": 0.0,
			"0.0": 0.0
		}
	}
}
