{
	 "smiles": "CC1=C(C(C)=NO1)S(=O)(=O)NCC(O)=O", 
	 "Tm": 387.15, 
	 "num_atms": 25, 
	 "gaussian": { 
		 "optdone": 1, 
		 "sigma_profile": "yes", 
		 "theory": "DFT", 
		 "functional": "B3LYP", 
		 "basiset": "6-31G**", 
		 "properties": { 
			 "R2extent": 4072.1635, 
			 "electric_dipole_moment_norm": 3.39833253376, 
			 "electric_quadrupole_moment_norm": 21.1145512761, 
			 "total_energy": -1156.46831217, 
			 "HOMO_LUMO_gap": 0.2365, 
			 "cosmo_polarized_energy": -23.88, 
			 "cosmo_cavitation_energy": 31.47, 
			 "cosmo_dispersion_energy": -22.46, 
			 "cosmo_repulsion_energy": 1.74, 
			 "cosmo_total_nonelectrostatic_energy": 10.76, 
			 "SMD_solvation_energy": 5.66 
		},
		"coords": [
			{
				"x": -3.1023632299,
				"y": -1.4489764696,
				"z": -0.0655747784,
				"element": "C" 
			},
			{
				"x": -2.572882617,
				"y": -0.1330527839,
				"z": -0.5113102489,
				"element": "C" 
			},
			{
				"x": -1.3451997478,
				"y": 0.2921064622,
				"z": -0.9558261722,
				"element": "C" 
			},
			{
				"x": -1.5041889591,
				"y": 1.6964993328,
				"z": -1.2123374815,
				"element": "C" 
			},
			{
				"x": -0.5173938902,
				"y": 2.6960288168,
				"z": -1.7261904791,
				"element": "C" 
			},
			{
				"x": -2.7301660899,
				"y": 2.0727891162,
				"z": -0.9352929546,
				"element": "N" 
			},
			{
				"x": -3.4030415146,
				"y": 0.9137329692,
				"z": -0.4913693371,
				"element": "O" 
			},
			{
				"x": 0.0728257469,
				"y": -0.7139570192,
				"z": -1.2007282989,
				"element": "S" 
			},
			{
				"x": 1.0991896005,
				"y": 0.1155369997,
				"z": -1.8443195773,
				"element": "O" 
			},
			{
				"x": -0.3001013653,
				"y": -2.0010684463,
				"z": -1.797558242,
				"element": "O" 
			},
			{
				"x": 0.4796721922,
				"y": -1.0805904814,
				"z": 0.4029989312,
				"element": "N" 
			},
			{
				"x": 1.4735401903,
				"y": -2.1441421883,
				"z": 0.55322095,
				"element": "C" 
			},
			{
				"x": 2.1967355246,
				"y": -1.9376883195,
				"z": 1.8817789285,
				"element": "C" 
			},
			{
				"x": 2.9497531476,
				"y": -2.9740810692,
				"z": 2.3050196643,
				"element": "O" 
			},
			{
				"x": 2.140591224,
				"y": -0.9099534214,
				"z": 2.5102620126,
				"element": "O" 
			},
			{
				"x": -2.9719941954,
				"y": -1.5644916983,
				"z": 1.0162187045,
				"element": "H" 
			},
			{
				"x": -2.5613688528,
				"y": -2.253836777,
				"z": -0.565767607,
				"element": "H" 
			},
			{
				"x": -4.1685246952,
				"y": -1.5195754676,
				"z": -0.2924233203,
				"element": "H" 
			},
			{
				"x": 0.343515111,
				"y": 2.7751345227,
				"z": -1.0567682136,
				"element": "H" 
			},
			{
				"x": -0.1335537312,
				"y": 2.3902308361,
				"z": -2.7023070935,
				"element": "H" 
			},
			{
				"x": -1.001568588,
				"y": 3.6706405127,
				"z": -1.8090409517,
				"element": "H" 
			},
			{
				"x": 0.7879803493,
				"y": -0.24853189,
				"z": 0.9114883778,
				"element": "H" 
			},
			{
				"x": 0.9790254992,
				"y": -3.1210301213,
				"z": 0.5268833121,
				"element": "H" 
			},
			{
				"x": 2.2389322574,
				"y": -2.1407049343,
				"z": -0.2389384225,
				"element": "H" 
			},
			{
				"x": 2.8761866332,
				"y": -3.7276184813,
				"z": 1.7009822975,
				"element": "H" 
			}
		],
		 "valence_orbital": [ 
			{
				"type": "occ",
				"energy": -0.31544,
				"method": "rhf"
			},
			{
				"type": "occ",
				"energy": -0.31085,
				"method": "rhf"
			},
			{
				"type": "occ",
				"energy": -0.30365,
				"method": "rhf"
			},
			{
				"type": "occ",
				"energy": -0.28782,
				"method": "rhf"
			},
			{
				"type": "occ",
				"energy": -0.27322,
				"method": "rhf"
			},
			{
				"type": "unocc",
				"energy": -0.03672,
				"method": "rhf"
			},
			{
				"type": "unocc",
				"energy": -0.01775,
				"method": "rhf"
			},
			{
				"type": "unocc",
				"energy": 0.00554,
				"method": "rhf"
			},
			{
				"type": "unocc",
				"energy": 0.03135,
				"method": "rhf"
			},
			{
				"type": "unocc",
				"energy": 0.0591,
				"method": "rhf"
			}
		],
		"cosmo_sigma_profile": { 
			"-0.025": 0.0,
			"-0.024": 0.0,
			"-0.023": 0.0,
			"-0.022": 0.0,
			"-0.021": 0.119443456208,
			"-0.02": 1.26946405956,
			"-0.019": 1.25244283997,
			"-0.018": 1.75938081278,
			"-0.017": 1.10908963453,
			"-0.016": 0.717709463361,
			"-0.015": 0.796947481544,
			"-0.014": 1.55468314214,
			"-0.013": 2.05161627889,
			"-0.012": 2.74774288739,
			"-0.011": 2.57800362351,
			"-0.01": 2.53870373252,
			"-0.009": 4.19616340268,
			"-0.008": 4.57269844689,
			"-0.007": 8.53134397711,
			"-0.006": 10.5129039518,
			"-0.005": 16.1054623443,
			"-0.004": 16.3300168293,
			"-0.003": 20.1256831441,
			"-0.002": 19.9105817584,
			"-0.001": 13.7766491089,
			"0.0": 8.22561371576,
			"0.001": 8.83784989985,
			"0.002": 9.36399035937,
			"0.003": 7.86221301948,
			"0.004": 8.89661721688,
			"0.005": 7.11912609512,
			"0.006": 9.2001543149,
			"0.007": 10.1530323296,
			"0.008": 8.61095064596,
			"0.009": 10.2385122359,
			"0.01": 13.4454626377,
			"0.011": 10.4256900129,
			"0.012": 3.59170390358,
			"0.013": 1.13850448835,
			"0.014": 0.11006887078,
			"0.015": 0.0,
			"0.016": 0.0,
			"0.017": 0.0,
			"0.018": 0.0,
			"0.019": 0.0,
			"0.02": 0.0,
			"0.021": 0.0,
			"0.022": 0.0,
			"0.023": 0.0,
			"0.024": 0.0,
			"0.025": 0.0
		}
	}
}
