{
	 "smiles": "CC1=NN=C(O1)C1=C(C=CC=C1)C(O)=O", 
	 "Tm": 432.15, 
	 "num_atms": 23, 
	 "gaussian": { 
		 "optdone": 1, 
		 "sigma_profile": "yes", 
		 "theory": "DFT", 
		 "functional": "B3LYP", 
		 "basiset": "6-31G**", 
		 "properties": { 
			 "R2extent": 3640.4798, 
			 "electric_dipole_moment_norm": 4.8271701213, 
			 "electric_quadrupole_moment_norm": 10.4544110226, 
			 "total_energy": -721.048191394, 
			 "HOMO_LUMO_gap": 0.18725, 
			 "cosmo_polarized_energy": -17.04, 
			 "cosmo_cavitation_energy": 28.69, 
			 "cosmo_dispersion_energy": -20.79, 
			 "cosmo_repulsion_energy": 1.64, 
			 "cosmo_total_nonelectrostatic_energy": 9.53, 
			 "SMD_solvation_energy": 4.81 
		},
		"coords": [
			{
				"x": 3.1039666571,
				"y": 1.4733753589,
				"z": 3.5759040127,
				"element": "C" 
			},
			{
				"x": 2.2075342908,
				"y": 1.1119052863,
				"z": 2.4495506945,
				"element": "C" 
			},
			{
				"x": 2.2419363326,
				"y": 1.5215591233,
				"z": 1.2199321839,
				"element": "N" 
			},
			{
				"x": 1.189354029,
				"y": 0.8896943914,
				"z": 0.5607561545,
				"element": "N" 
			},
			{
				"x": 0.6021760403,
				"y": 0.1330088853,
				"z": 1.4371653486,
				"element": "C" 
			},
			{
				"x": 1.1906254262,
				"y": 0.2285469501,
				"z": 2.670871513,
				"element": "O" 
			},
			{
				"x": -0.5968433671,
				"y": -0.6945418471,
				"z": 1.293692308,
				"element": "C" 
			},
			{
				"x": -0.9790497194,
				"y": -1.2648678249,
				"z": 0.0593267451,
				"element": "C" 
			},
			{
				"x": -2.2195858906,
				"y": -1.9031686954,
				"z": -0.0458777191,
				"element": "C" 
			},
			{
				"x": -3.0532520171,
				"y": -2.0393738823,
				"z": 1.0621148158,
				"element": "C" 
			},
			{
				"x": -2.6550981566,
				"y": -1.5191181637,
				"z": 2.2941629034,
				"element": "C" 
			},
			{
				"x": -1.4436607625,
				"y": -0.8413309516,
				"z": 2.4040400383,
				"element": "C" 
			},
			{
				"x": -0.1316903432,
				"y": -1.2786588819,
				"z": -1.1773953652,
				"element": "C" 
			},
			{
				"x": 1.1523298569,
				"y": -1.6102867446,
				"z": -0.9306153406,
				"element": "O" 
			},
			{
				"x": -0.5683610162,
				"y": -1.1044398052,
				"z": -2.295087257,
				"element": "O" 
			},
			{
				"x": 3.6117395675,
				"y": 0.5880709675,
				"z": 3.9720334934,
				"element": "H" 
			},
			{
				"x": 2.5400912323,
				"y": 1.9311968087,
				"z": 4.3950752992,
				"element": "H" 
			},
			{
				"x": 3.850058364,
				"y": 2.1824392365,
				"z": 3.2158369521,
				"element": "H" 
			},
			{
				"x": -2.5083619622,
				"y": -2.3063181575,
				"z": -1.0106268275,
				"element": "H" 
			},
			{
				"x": -4.0055425854,
				"y": -2.5513281556,
				"z": 0.964190334,
				"element": "H" 
			},
			{
				"x": -3.2940927405,
				"y": -1.6232303664,
				"z": 3.1657920822,
				"element": "H" 
			},
			{
				"x": -1.1510473372,
				"y": -0.399207072,
				"z": 3.3502424664,
				"element": "H" 
			},
			{
				"x": 1.6169741012,
				"y": -1.5462264599,
				"z": -1.7817848356,
				"element": "H" 
			}
		],
		 "valence_orbital": [ 
			{
				"type": "occ",
				"energy": -0.29976,
				"method": "rhf"
			},
			{
				"type": "occ",
				"energy": -0.28535,
				"method": "rhf"
			},
			{
				"type": "occ",
				"energy": -0.27637,
				"method": "rhf"
			},
			{
				"type": "occ",
				"energy": -0.26353,
				"method": "rhf"
			},
			{
				"type": "occ",
				"energy": -0.24767,
				"method": "rhf"
			},
			{
				"type": "unocc",
				"energy": -0.06042,
				"method": "rhf"
			},
			{
				"type": "unocc",
				"energy": -0.03298,
				"method": "rhf"
			},
			{
				"type": "unocc",
				"energy": 0.00895,
				"method": "rhf"
			},
			{
				"type": "unocc",
				"energy": 0.03276,
				"method": "rhf"
			},
			{
				"type": "unocc",
				"energy": 0.04999,
				"method": "rhf"
			}
		],
		"cosmo_sigma_profile": { 
			"-0.025": 0.0,
			"-0.024": 0.0,
			"-0.023": 0.0,
			"-0.022": 0.0,
			"-0.021": 0.0,
			"-0.02": 0.0,
			"-0.019": 0.125925092295,
			"-0.018": 1.1047348063,
			"-0.017": 0.692804873768,
			"-0.016": 0.897898417359,
			"-0.015": 1.10910907837,
			"-0.014": 0.318827248906,
			"-0.013": 0.132767371286,
			"-0.012": 0.712256620234,
			"-0.011": 1.16679522835,
			"-0.01": 0.730805058782,
			"-0.009": 0.323075581522,
			"-0.008": 1.39397270557,
			"-0.007": 12.0206028559,
			"-0.006": 17.3398410072,
			"-0.005": 16.8649257198,
			"-0.004": 16.9325024833,
			"-0.003": 18.451759807,
			"-0.002": 14.8578872345,
			"-0.001": 12.8269817597,
			"0.0": 13.8816503753,
			"0.001": 16.4332489045,
			"0.002": 16.7584335754,
			"0.003": 11.316293103,
			"0.004": 6.23394097667,
			"0.005": 4.65444653223,
			"0.006": 5.03830311196,
			"0.007": 5.24681764246,
			"0.008": 5.0708441456,
			"0.009": 4.33511827736,
			"0.01": 4.56529158036,
			"0.011": 7.69976797192,
			"0.012": 5.94457717915,
			"0.013": 2.52748343673,
			"0.014": 1.61380529386,
			"0.015": 0.807345501293,
			"0.016": 0.176954379003,
			"0.017": 0.0,
			"0.018": 0.0,
			"0.019": 0.0,
			"0.02": 0.0,
			"0.021": 0.0,
			"0.022": 0.0,
			"0.023": 0.0,
			"0.024": 0.0,
			"0.025": 0.0
		}
	}
}
