{
	 "smiles": "CCOC1=C(Cl)C=C(N)C=C1", 
	 "Tm": 337.15, 
	 "num_atms": 21, 
	 "gaussian": { 
		 "optdone": 1, 
		 "sigma_profile": "yes", 
		 "theory": "DFT", 
		 "functional": "B3LYP", 
		 "basiset": "6-31G**", 
		 "properties": { 
			 "R2extent": 2986.1691, 
			 "electric_dipole_moment_norm": 3.21569414435, 
			 "electric_quadrupole_moment_norm": 14.1742510543, 
			 "total_energy": -901.040825243, 
			 "HOMO_LUMO_gap": 0.18509, 
			 "cosmo_polarized_energy": -11.24, 
			 "cosmo_cavitation_energy": 26.29, 
			 "cosmo_dispersion_energy": -19.51, 
			 "cosmo_repulsion_energy": 1.6, 
			 "cosmo_total_nonelectrostatic_energy": 8.39, 
			 "SMD_solvation_energy": 4.55 
		},
		"coords": [
			{
				"x": 0.7640371478,
				"y": -0.2523378079,
				"z": -2.8695980246,
				"element": "C" 
			},
			{
				"x": 0.1734269567,
				"y": -0.6470347598,
				"z": -1.5271629821,
				"element": "C" 
			},
			{
				"x": 0.0141014217,
				"y": 0.5454089859,
				"z": -0.7632575833,
				"element": "O" 
			},
			{
				"x": -0.4997078613,
				"y": 0.4483296055,
				"z": 0.4950111292,
				"element": "C" 
			},
			{
				"x": -0.6416394847,
				"y": 1.6388693622,
				"z": 1.2304036242,
				"element": "C" 
			},
			{
				"x": -0.1605886994,
				"y": 3.1614422458,
				"z": 0.5041295247,
				"element": "Cl" 
			},
			{
				"x": -1.1574007604,
				"y": 1.6426334459,
				"z": 2.52046131,
				"element": "C" 
			},
			{
				"x": -1.5575417794,
				"y": 0.444006459,
				"z": 3.133724548,
				"element": "C" 
			},
			{
				"x": -2.0200525003,
				"y": 0.4411200728,
				"z": 4.4577802737,
				"element": "N" 
			},
			{
				"x": -1.4199509774,
				"y": -0.7452955877,
				"z": 2.4077341321,
				"element": "C" 
			},
			{
				"x": -0.9000976078,
				"y": -0.7417437621,
				"z": 1.1127681819,
				"element": "C" 
			},
			{
				"x": 0.9048358366,
				"y": -1.1399676173,
				"z": -3.4940837895,
				"element": "H" 
			},
			{
				"x": 0.0997079638,
				"y": 0.4406787251,
				"z": -3.3929911116,
				"element": "H" 
			},
			{
				"x": 1.7327266085,
				"y": 0.2363879452,
				"z": -2.7344013767,
				"element": "H" 
			},
			{
				"x": 0.8369328116,
				"y": -1.3462416447,
				"z": -0.9977769811,
				"element": "H" 
			},
			{
				"x": -0.7998718989,
				"y": -1.1421242939,
				"z": -1.6581461851,
				"element": "H" 
			},
			{
				"x": -1.2420109476,
				"y": 2.5857274871,
				"z": 3.0509242199,
				"element": "H" 
			},
			{
				"x": -2.6168205109,
				"y": -0.3427083189,
				"z": 4.6868347476,
				"element": "H" 
			},
			{
				"x": -2.4387454496,
				"y": 1.3122864969,
				"z": 4.7557796375,
				"element": "H" 
			},
			{
				"x": -1.7164350952,
				"y": -1.6889572361,
				"z": 2.8581053566,
				"element": "H" 
			},
			{
				"x": -0.8112051736,
				"y": -1.6830798031,
				"z": 0.5837613487,
				"element": "H" 
			}
		],
		 "valence_orbital": [ 
			{
				"type": "occ",
				"energy": -0.32122,
				"method": "rhf"
			},
			{
				"type": "occ",
				"energy": -0.29741,
				"method": "rhf"
			},
			{
				"type": "occ",
				"energy": -0.27726,
				"method": "rhf"
			},
			{
				"type": "occ",
				"energy": -0.2402,
				"method": "rhf"
			},
			{
				"type": "occ",
				"energy": -0.19033,
				"method": "rhf"
			},
			{
				"type": "unocc",
				"energy": -0.00524,
				"method": "rhf"
			},
			{
				"type": "unocc",
				"energy": 0.02406,
				"method": "rhf"
			},
			{
				"type": "unocc",
				"energy": 0.04072,
				"method": "rhf"
			},
			{
				"type": "unocc",
				"energy": 0.08037,
				"method": "rhf"
			},
			{
				"type": "unocc",
				"energy": 0.09857,
				"method": "rhf"
			}
		],
		"cosmo_sigma_profile": { 
			"-0.025": 0.0,
			"-0.024": 0.0,
			"-0.023": 0.0,
			"-0.022": 0.0,
			"-0.021": 0.0,
			"-0.02": 0.0,
			"-0.019": 0.0,
			"-0.018": 0.0,
			"-0.017": 0.0,
			"-0.016": 0.0,
			"-0.015": 0.0,
			"-0.014": 0.0,
			"-0.013": 0.275369464337,
			"-0.012": 2.57360842289,
			"-0.011": 2.92206903995,
			"-0.01": 2.88900583298,
			"-0.009": 2.90065613529,
			"-0.008": 3.67203700034,
			"-0.007": 4.81498513046,
			"-0.006": 7.1872666541,
			"-0.005": 11.2933678638,
			"-0.004": 16.5610804868,
			"-0.003": 16.8657240182,
			"-0.002": 14.5118911863,
			"-0.001": 12.7479455163,
			"0.0": 13.4525473831,
			"0.001": 11.255925948,
			"0.002": 11.0551911322,
			"0.003": 14.9841878938,
			"0.004": 16.6852786931,
			"0.005": 19.6551153915,
			"0.006": 8.04018953166,
			"0.007": 3.83327179742,
			"0.008": 2.35717880909,
			"0.009": 2.59749204969,
			"0.01": 2.35166315372,
			"0.011": 2.00065908718,
			"0.012": 0.817928541454,
			"0.013": 0.42362914761,
			"0.014": 0.637424593052,
			"0.015": 0.564960467276,
			"0.016": 0.101738431477,
			"0.017": 0.0,
			"0.018": 0.0,
			"0.019": 0.0,
			"0.02": 0.0,
			"0.021": 0.0,
			"0.022": 0.0,
			"0.023": 0.0,
			"0.024": 0.0,
			"0.025": 0.0
		}
	}
}
