{
	 "smiles": "COC(C(=O)OC)C(=O)OC", 
	 "Tm": 284.65, 
	 "num_atms": 21, 
	 "gaussian": { 
		 "optdone": 1, 
		 "sigma_profile": "yes", 
		 "theory": "DFT", 
		 "functional": "B3LYP", 
		 "basiset": "6-31G**", 
		 "properties": { 
			 "R2extent": 1879.9526, 
			 "electric_dipole_moment_norm": 3.08470035822, 
			 "electric_quadrupole_moment_norm": 14.2160384369, 
			 "total_energy": -610.764734309, 
			 "HOMO_LUMO_gap": 0.24302, 
			 "cosmo_polarized_energy": -11.52, 
			 "cosmo_cavitation_energy": 25.48, 
			 "cosmo_dispersion_energy": -17.76, 
			 "cosmo_repulsion_energy": 1.48, 
			 "cosmo_total_nonelectrostatic_energy": 9.2, 
			 "SMD_solvation_energy": 8.11 
		},
		"coords": [
			{
				"x": -2.4088244305,
				"y": -1.654517224,
				"z": 0.0679053942,
				"element": "C" 
			},
			{
				"x": -2.2462548481,
				"y": -0.636934283,
				"z": 1.0584856454,
				"element": "O" 
			},
			{
				"x": -1.0643358782,
				"y": 0.1188657134,
				"z": 1.0374286219,
				"element": "C" 
			},
			{
				"x": -0.9287949163,
				"y": 1.0084277505,
				"z": -0.2091798474,
				"element": "C" 
			},
			{
				"x": -1.7232046131,
				"y": 1.0832142394,
				"z": -1.1164324412,
				"element": "O" 
			},
			{
				"x": 0.202609835,
				"y": 1.7360878856,
				"z": -0.1219143531,
				"element": "O" 
			},
			{
				"x": 0.449333658,
				"y": 2.6342548551,
				"z": -1.2190523208,
				"element": "C" 
			},
			{
				"x": 0.2086016269,
				"y": -0.7174595216,
				"z": 1.2760370996,
				"element": "C" 
			},
			{
				"x": 0.7599288971,
				"y": -0.8277161058,
				"z": 2.345731949,
				"element": "O" 
			},
			{
				"x": 0.6092422644,
				"y": -1.3420774179,
				"z": 0.1484586129,
				"element": "O" 
			},
			{
				"x": 1.7759862512,
				"y": -2.1746279907,
				"z": 0.2874827259,
				"element": "C" 
			},
			{
				"x": -1.7260582864,
				"y": -2.4962188135,
				"z": 0.2339358872,
				"element": "H" 
			},
			{
				"x": -2.2698836347,
				"y": -1.2625192808,
				"z": -0.942432001,
				"element": "H" 
			},
			{
				"x": -3.4370583716,
				"y": -2.0038256076,
				"z": 0.181106199,
				"element": "H" 
			},
			{
				"x": -1.1272703137,
				"y": 0.7866265708,
				"z": 1.9020868927,
				"element": "H" 
			},
			{
				"x": -0.3631286822,
				"y": 3.3591417148,
				"z": -1.3092912742,
				"element": "H" 
			},
			{
				"x": 1.3871363954,
				"y": 3.1360334988,
				"z": -0.9829467961,
				"element": "H" 
			},
			{
				"x": 0.5349551128,
				"y": 2.0779781698,
				"z": -2.1555797088,
				"element": "H" 
			},
			{
				"x": 2.6321614146,
				"y": -1.5768920539,
				"z": 0.6087539775,
				"element": "H" 
			},
			{
				"x": 1.9523397941,
				"y": -2.6007468196,
				"z": -0.699606781,
				"element": "H" 
			},
			{
				"x": 1.5979187254,
				"y": -2.9627952798,
				"z": 1.0227225184,
				"element": "H" 
			}
		],
		 "valence_orbital": [ 
			{
				"type": "occ",
				"energy": -0.31508,
				"method": "rhf"
			},
			{
				"type": "occ",
				"energy": -0.31218,
				"method": "rhf"
			},
			{
				"type": "occ",
				"energy": -0.2963,
				"method": "rhf"
			},
			{
				"type": "occ",
				"energy": -0.29043,
				"method": "rhf"
			},
			{
				"type": "occ",
				"energy": -0.25283,
				"method": "rhf"
			},
			{
				"type": "unocc",
				"energy": -0.00981,
				"method": "rhf"
			},
			{
				"type": "unocc",
				"energy": 0.00167,
				"method": "rhf"
			},
			{
				"type": "unocc",
				"energy": 0.09059,
				"method": "rhf"
			},
			{
				"type": "unocc",
				"energy": 0.10582,
				"method": "rhf"
			},
			{
				"type": "unocc",
				"energy": 0.10901,
				"method": "rhf"
			}
		],
		"cosmo_sigma_profile": { 
			"-0.025": 0.0,
			"-0.024": 0.0,
			"-0.023": 0.0,
			"-0.022": 0.0,
			"-0.021": 0.0,
			"-0.02": 0.0,
			"-0.019": 0.0,
			"-0.018": 0.0,
			"-0.017": 0.0,
			"-0.016": 0.0,
			"-0.015": 0.0,
			"-0.014": 0.0,
			"-0.013": 0.0,
			"-0.012": 0.0,
			"-0.011": 0.0,
			"-0.01": 0.197556245189,
			"-0.009": 1.84384886235,
			"-0.008": 1.63516518422,
			"-0.007": 5.66440428755,
			"-0.006": 14.3062421006,
			"-0.005": 20.2004081096,
			"-0.004": 25.0515748716,
			"-0.003": 22.1426724081,
			"-0.002": 14.5432723226,
			"-0.001": 9.17159531172,
			"0.0": 7.55556872401,
			"0.001": 9.09533393012,
			"0.002": 8.7143391487,
			"0.003": 9.38687911432,
			"0.004": 5.9727520719,
			"0.005": 5.99461031299,
			"0.006": 5.56886784932,
			"0.007": 5.29620760733,
			"0.008": 3.95990084921,
			"0.009": 5.02799157081,
			"0.01": 8.20899071614,
			"0.011": 9.91469482603,
			"0.012": 1.37341657761,
			"0.013": 0.0,
			"0.014": 0.0,
			"0.015": 0.0,
			"0.016": 0.0,
			"0.017": 0.0,
			"0.018": 0.0,
			"0.019": 0.0,
			"0.02": 0.0,
			"0.021": 0.0,
			"0.022": 0.0,
			"0.023": 0.0,
			"0.024": 0.0,
			"0.025": 0.0
		}
	}
}
