{
	 "smiles": "CC1=NC2=C(O1)C1=C(C=CC=C1)C=C2", 
	 "Tm": 310.15, 
	 "num_atms": 23, 
	 "gaussian": { 
		 "optdone": 1, 
		 "sigma_profile": "yes", 
		 "theory": "DFT", 
		 "functional": "B3LYP", 
		 "basiset": "6-31G**", 
		 "properties": { 
			 "R2extent": 3288.6887, 
			 "electric_dipole_moment_norm": 1.26233837777, 
			 "electric_quadrupole_moment_norm": 9.28421728257, 
			 "total_energy": -592.696451087, 
			 "HOMO_LUMO_gap": 0.17457, 
			 "cosmo_polarized_energy": -7.35, 
			 "cosmo_cavitation_energy": 27.03, 
			 "cosmo_dispersion_energy": -20.37, 
			 "cosmo_repulsion_energy": 1.57, 
			 "cosmo_total_nonelectrostatic_energy": 8.23, 
			 "SMD_solvation_energy": 2.77 
		},
		"coords": [
			{
				"x": -0.3714846282,
				"y": 1.570030111,
				"z": 2.9861537822,
				"element": "C" 
			},
			{
				"x": -0.4583030605,
				"y": 0.4313347423,
				"z": 2.0345462732,
				"element": "C" 
			},
			{
				"x": -1.3777831934,
				"y": -0.4783274288,
				"z": 1.9494195223,
				"element": "N" 
			},
			{
				"x": -0.9656240922,
				"y": -1.2914562998,
				"z": 0.8930769517,
				"element": "C" 
			},
			{
				"x": 0.2264649404,
				"y": -0.800551639,
				"z": 0.3862180445,
				"element": "C" 
			},
			{
				"x": 0.5625313351,
				"y": 0.3116200533,
				"z": 1.1163248629,
				"element": "O" 
			},
			{
				"x": 0.9370617089,
				"y": -1.3706855468,
				"z": -0.6895014142,
				"element": "C" 
			},
			{
				"x": 0.3252080541,
				"y": -2.5429327668,
				"z": -1.2546263108,
				"element": "C" 
			},
			{
				"x": 0.9835085373,
				"y": -3.1727366319,
				"z": -2.3424361118,
				"element": "C" 
			},
			{
				"x": 2.1701043243,
				"y": -2.6783455393,
				"z": -2.8418576122,
				"element": "C" 
			},
			{
				"x": 2.7601245658,
				"y": -1.5238486946,
				"z": -2.275273032,
				"element": "C" 
			},
			{
				"x": 2.1562712549,
				"y": -0.8789220438,
				"z": -1.2171191623,
				"element": "C" 
			},
			{
				"x": -0.9075261084,
				"y": -3.0459981048,
				"z": -0.7263693352,
				"element": "C" 
			},
			{
				"x": -1.5573504707,
				"y": -2.4461278236,
				"z": 0.3278243276,
				"element": "C" 
			},
			{
				"x": -0.355628782,
				"y": 2.5257900274,
				"z": 2.4517703533,
				"element": "H" 
			},
			{
				"x": 0.5439456926,
				"y": 1.5108149688,
				"z": 3.58429092,
				"element": "H" 
			},
			{
				"x": -1.2362044362,
				"y": 1.5437046623,
				"z": 3.6494062748,
				"element": "H" 
			},
			{
				"x": 0.532874152,
				"y": -4.0599397823,
				"z": -2.7799933616,
				"element": "H" 
			},
			{
				"x": 2.6571988848,
				"y": -3.1761037925,
				"z": -3.6752076014,
				"element": "H" 
			},
			{
				"x": 3.6948620828,
				"y": -1.1450343066,
				"z": -2.6781786891,
				"element": "H" 
			},
			{
				"x": 2.6020761809,
				"y": 0.0073756214,
				"z": -0.7764823216,
				"element": "H" 
			},
			{
				"x": -1.33043621,
				"y": -3.9345070745,
				"z": -1.1871212301,
				"element": "H" 
			},
			{
				"x": -2.4906907324,
				"y": -2.8338527113,
				"z": 0.7216348696,
				"element": "H" 
			}
		],
		 "valence_orbital": [ 
			{
				"type": "occ",
				"energy": -0.30281,
				"method": "rhf"
			},
			{
				"type": "occ",
				"energy": -0.28595,
				"method": "rhf"
			},
			{
				"type": "occ",
				"energy": -0.27837,
				"method": "rhf"
			},
			{
				"type": "occ",
				"energy": -0.23458,
				"method": "rhf"
			},
			{
				"type": "occ",
				"energy": -0.21058,
				"method": "rhf"
			},
			{
				"type": "unocc",
				"energy": -0.03601,
				"method": "rhf"
			},
			{
				"type": "unocc",
				"energy": -0.02274,
				"method": "rhf"
			},
			{
				"type": "unocc",
				"energy": 0.03077,
				"method": "rhf"
			},
			{
				"type": "unocc",
				"energy": 0.03924,
				"method": "rhf"
			},
			{
				"type": "unocc",
				"energy": 0.09732,
				"method": "rhf"
			}
		],
		"cosmo_sigma_profile": { 
			"-0.025": 0.0,
			"-0.024": 0.0,
			"-0.023": 0.0,
			"-0.022": 0.0,
			"-0.021": 0.0,
			"-0.02": 0.0,
			"-0.019": 0.0,
			"-0.018": 0.0,
			"-0.017": 0.0,
			"-0.016": 0.0,
			"-0.015": 0.0,
			"-0.014": 0.0,
			"-0.013": 0.0,
			"-0.012": 0.0,
			"-0.011": 0.0,
			"-0.01": 0.0,
			"-0.009": 0.0,
			"-0.008": 0.0,
			"-0.007": 2.30771281304,
			"-0.006": 17.0620460707,
			"-0.005": 17.3413835054,
			"-0.004": 19.2859212174,
			"-0.003": 16.9603626134,
			"-0.002": 19.0231272362,
			"-0.001": 13.5684960902,
			"0.0": 13.2325352338,
			"0.001": 15.8841140251,
			"0.002": 16.2110401867,
			"0.003": 21.0783269929,
			"0.004": 20.6459684139,
			"0.005": 11.5758343119,
			"0.006": 3.01849772471,
			"0.007": 1.47580210822,
			"0.008": 1.18555380845,
			"0.009": 0.897688869516,
			"0.01": 1.24929657391,
			"0.011": 1.19088276754,
			"0.012": 0.792959743377,
			"0.013": 0.72612863067,
			"0.014": 1.44318791965,
			"0.015": 0.543251747918,
			"0.016": 0.751650001414,
			"0.017": 0.0,
			"0.018": 0.0,
			"0.019": 0.0,
			"0.02": 0.0,
			"0.021": 0.0,
			"0.022": 0.0,
			"0.023": 0.0,
			"0.024": 0.0,
			"0.025": 0.0
		}
	}
}
