{
	 "smiles": "CN(C)CCCNS(=O)(=O)C1=CC(C(O)=O)=C(C)C=C1", 
	 "Tm": 503.15, 
	 "num_atms": 40, 
	 "gaussian": { 
		 "optdone": 1, 
		 "sigma_profile": "yes", 
		 "theory": "DFT", 
		 "functional": "B3LYP", 
		 "basiset": "6-31G**", 
		 "properties": { 
			 "R2extent": 8671.6604, 
			 "electric_dipole_moment_norm": 5.81748079928, 
			 "electric_quadrupole_moment_norm": 23.7346218011, 
			 "total_energy": -1315.9580577, 
			 "HOMO_LUMO_gap": 0.1609, 
			 "cosmo_polarized_energy": -22.51, 
			 "cosmo_cavitation_energy": 43.96, 
			 "cosmo_dispersion_energy": -30.32, 
			 "cosmo_repulsion_energy": 2.33, 
			 "cosmo_total_nonelectrostatic_energy": 15.97, 
			 "SMD_solvation_energy": 5.91 
		},
		"coords": [
			{
				"x": -2.4649136965,
				"y": -3.3684692791,
				"z": 0.2416593337,
				"element": "C" 
			},
			{
				"x": -1.1041903607,
				"y": -3.889549915,
				"z": 0.1782763121,
				"element": "N" 
			},
			{
				"x": -1.1058901353,
				"y": -5.2865276043,
				"z": -0.240366995,
				"element": "C" 
			},
			{
				"x": -0.229798165,
				"y": -3.0744141806,
				"z": -0.6690647796,
				"element": "C" 
			},
			{
				"x": 0.1490859107,
				"y": -1.7278809252,
				"z": -0.0376569695,
				"element": "C" 
			},
			{
				"x": 0.8715734483,
				"y": -1.9102728427,
				"z": 1.2982843445,
				"element": "C" 
			},
			{
				"x": 1.1213355462,
				"y": -0.6282839481,
				"z": 1.9924153394,
				"element": "N" 
			},
			{
				"x": 2.4665140578,
				"y": 0.2954951148,
				"z": 1.536463118,
				"element": "S" 
			},
			{
				"x": 3.4061367095,
				"y": -0.5121240723,
				"z": 0.7493044692,
				"element": "O" 
			},
			{
				"x": 2.8794540223,
				"y": 0.9794998464,
				"z": 2.76689339,
				"element": "O" 
			},
			{
				"x": 1.7740886842,
				"y": 1.5210150758,
				"z": 0.4226208521,
				"element": "C" 
			},
			{
				"x": 0.8355272912,
				"y": 2.4328659954,
				"z": 0.9005947476,
				"element": "C" 
			},
			{
				"x": 0.3179532869,
				"y": 3.4218373835,
				"z": 0.0562049959,
				"element": "C" 
			},
			{
				"x": -0.6777570834,
				"y": 4.4048357023,
				"z": 0.6050449359,
				"element": "C" 
			},
			{
				"x": -1.503791654,
				"y": 3.9364930632,
				"z": 1.5795982705,
				"element": "O" 
			},
			{
				"x": -0.770234739,
				"y": 5.5536929775,
				"z": 0.2428756475,
				"element": "O" 
			},
			{
				"x": 0.7676629595,
				"y": 3.5189736088,
				"z": -1.2851309846,
				"element": "C" 
			},
			{
				"x": 0.2722666703,
				"y": 4.5795302457,
				"z": -2.2363629615,
				"element": "C" 
			},
			{
				"x": 1.7086047447,
				"y": 2.5820939616,
				"z": -1.7294688438,
				"element": "C" 
			},
			{
				"x": 2.2189584154,
				"y": 1.588180661,
				"z": -0.8942953568,
				"element": "C" 
			},
			{
				"x": -2.9695005031,
				"y": -3.357088365,
				"z": -0.7442112322,
				"element": "H" 
			},
			{
				"x": -2.4700345756,
				"y": -2.3478040874,
				"z": 0.6336181615,
				"element": "H" 
			},
			{
				"x": -3.0626299784,
				"y": -3.9854727839,
				"z": 0.9197445704,
				"element": "H" 
			},
			{
				"x": -1.7153904511,
				"y": -5.8775533897,
				"z": 0.4507700733,
				"element": "H" 
			},
			{
				"x": -1.5088836199,
				"y": -5.4378993137,
				"z": -1.2604191841,
				"element": "H" 
			},
			{
				"x": -0.0865378493,
				"y": -5.68424111,
				"z": -0.2168112416,
				"element": "H" 
			},
			{
				"x": -0.6767905656,
				"y": -2.8971463841,
				"z": -1.6671308528,
				"element": "H" 
			},
			{
				"x": 0.6895701991,
				"y": -3.6476635296,
				"z": -0.8396155193,
				"element": "H" 
			},
			{
				"x": 0.7924824204,
				"y": -1.1919861714,
				"z": -0.7445367749,
				"element": "H" 
			},
			{
				"x": -0.7356943403,
				"y": -1.0995990872,
				"z": 0.1142743795,
				"element": "H" 
			},
			{
				"x": 1.805555202,
				"y": -2.4658628444,
				"z": 1.1477396332,
				"element": "H" 
			},
			{
				"x": 0.2386836683,
				"y": -2.5028566616,
				"z": 1.9635718802,
				"element": "H" 
			},
			{
				"x": 1.1959309182,
				"y": -0.728545655,
				"z": 3.0021978679,
				"element": "H" 
			},
			{
				"x": 0.5439519408,
				"y": 2.3890432426,
				"z": 1.9456425128,
				"element": "H" 
			},
			{
				"x": -1.4233670881,
				"y": 2.9752970298,
				"z": 1.6539175322,
				"element": "H" 
			},
			{
				"x": 0.6097992523,
				"y": 5.5702911074,
				"z": -1.9214812199,
				"element": "H" 
			},
			{
				"x": -0.820054936,
				"y": 4.627199529,
				"z": -2.2595231473,
				"element": "H" 
			},
			{
				"x": 0.6366410242,
				"y": 4.3832634007,
				"z": -3.2477728854,
				"element": "H" 
			},
			{
				"x": 2.0553495866,
				"y": 2.6373089523,
				"z": -2.7573106792,
				"element": "H" 
			},
			{
				"x": 2.9569337825,
				"y": 0.8766252525,
				"z": -1.24805274,
				"element": "H" 
			}
		],
		 "valence_orbital": [ 
			{
				"type": "occ",
				"energy": -0.28987,
				"method": "rhf"
			},
			{
				"type": "occ",
				"energy": -0.28859,
				"method": "rhf"
			},
			{
				"type": "occ",
				"energy": -0.27661,
				"method": "rhf"
			},
			{
				"type": "occ",
				"energy": -0.26537,
				"method": "rhf"
			},
			{
				"type": "occ",
				"energy": -0.22334,
				"method": "rhf"
			},
			{
				"type": "unocc",
				"energy": -0.06244,
				"method": "rhf"
			},
			{
				"type": "unocc",
				"energy": -0.04807,
				"method": "rhf"
			},
			{
				"type": "unocc",
				"energy": 0.026,
				"method": "rhf"
			},
			{
				"type": "unocc",
				"energy": 0.04801,
				"method": "rhf"
			},
			{
				"type": "unocc",
				"energy": 0.06386,
				"method": "rhf"
			}
		],
		"cosmo_sigma_profile": { 
			"-0.025": 0.0,
			"-0.024": 0.0,
			"-0.023": 0.0,
			"-0.022": 0.0,
			"-0.021": 0.0,
			"-0.02": 0.0,
			"-0.019": 0.317415998515,
			"-0.018": 0.826521178324,
			"-0.017": 0.731869182383,
			"-0.016": 1.44015683278,
			"-0.015": 1.49848474937,
			"-0.014": 1.23704868166,
			"-0.013": 2.0781704958,
			"-0.012": 2.10062483654,
			"-0.011": 2.27816950908,
			"-0.01": 1.85521601205,
			"-0.009": 2.59505056693,
			"-0.008": 3.33551989184,
			"-0.007": 7.56034945541,
			"-0.006": 9.36852822843,
			"-0.005": 10.9795736739,
			"-0.004": 22.3541337518,
			"-0.003": 32.700692814,
			"-0.002": 34.0743534827,
			"-0.001": 46.3985185947,
			"0.0": 43.7255424014,
			"0.001": 23.4515161101,
			"0.002": 10.6839801464,
			"0.003": 7.61451003373,
			"0.004": 7.15619509084,
			"0.005": 7.26114491477,
			"0.006": 6.1079768974,
			"0.007": 6.89197521975,
			"0.008": 6.78579402705,
			"0.009": 8.81655312118,
			"0.01": 12.7411889803,
			"0.011": 13.3598625301,
			"0.012": 5.95533544147,
			"0.013": 0.838450717471,
			"0.014": 0.0,
			"0.015": 0.0,
			"0.016": 0.0,
			"0.017": 0.0,
			"0.018": 0.0,
			"0.019": 0.0,
			"0.02": 0.0,
			"0.021": 0.0,
			"0.022": 0.0,
			"0.023": 0.0,
			"0.024": 0.0,
			"0.025": 0.0
		}
	}
}
