{
	 "smiles": "ClCC(=O)N1C2=C(CCC3=C1C=CC=C3)C=CC=C2", 
	 "Tm": 370.15, 
	 "num_atms": 33, 
	 "gaussian": { 
		 "optdone": 1, 
		 "sigma_profile": "yes", 
		 "theory": "DFT", 
		 "functional": "B3LYP", 
		 "basiset": "6-31G**", 
		 "properties": { 
			 "R2extent": 5523.2124, 
			 "electric_dipole_moment_norm": 4.4468306028, 
			 "electric_quadrupole_moment_norm": 15.3800697641, 
			 "total_energy": -1208.32017722, 
			 "HOMO_LUMO_gap": 0.2009, 
			 "cosmo_polarized_energy": -12.78, 
			 "cosmo_cavitation_energy": 36.87, 
			 "cosmo_dispersion_energy": -25.63, 
			 "cosmo_repulsion_energy": 1.97, 
			 "cosmo_total_nonelectrostatic_energy": 13.2, 
			 "SMD_solvation_energy": 6.15 
		},
		"coords": [
			{
				"x": -2.8582754308,
				"y": 2.8224432926,
				"z": -2.6357319416,
				"element": "Cl" 
			},
			{
				"x": -2.4444173012,
				"y": 2.4700448508,
				"z": -0.9027492356,
				"element": "C" 
			},
			{
				"x": -0.9273347806,
				"y": 2.4191828811,
				"z": -0.7078117845,
				"element": "C" 
			},
			{
				"x": -0.3031744757,
				"y": 3.4515043595,
				"z": -0.5266854079,
				"element": "O" 
			},
			{
				"x": -0.3322338453,
				"y": 1.1662730171,
				"z": -0.7281900893,
				"element": "N" 
			},
			{
				"x": -1.0620602981,
				"y": -0.0622958801,
				"z": -0.9078049679,
				"element": "C" 
			},
			{
				"x": -1.2568553545,
				"y": -0.8800211094,
				"z": 0.2173823378,
				"element": "C" 
			},
			{
				"x": -0.6694772672,
				"y": -0.4424182978,
				"z": 1.5348908689,
				"element": "C" 
			},
			{
				"x": 0.8686227177,
				"y": -0.5200421312,
				"z": 1.5412720104,
				"element": "C" 
			},
			{
				"x": 1.6449686639,
				"y": 0.2788646373,
				"z": 0.5001511867,
				"element": "C" 
			},
			{
				"x": 1.0948498025,
				"y": 1.0628800007,
				"z": -0.5291094923,
				"element": "C" 
			},
			{
				"x": 1.9271034641,
				"y": 1.7527562806,
				"z": -1.4221673706,
				"element": "C" 
			},
			{
				"x": 3.3094093023,
				"y": 1.6797695491,
				"z": -1.3081123642,
				"element": "C" 
			},
			{
				"x": 3.875108599,
				"y": 0.8977447369,
				"z": -0.2984638069,
				"element": "C" 
			},
			{
				"x": 3.0466668528,
				"y": 0.210790508,
				"z": 0.5810262488,
				"element": "C" 
			},
			{
				"x": -1.9458741157,
				"y": -2.0852590819,
				"z": 0.0525527691,
				"element": "C" 
			},
			{
				"x": -2.4335885124,
				"y": -2.4654611411,
				"z": -1.199692926,
				"element": "C" 
			},
			{
				"x": -2.225761099,
				"y": -1.6457911269,
				"z": -2.3096084967,
				"element": "C" 
			},
			{
				"x": -1.5305147866,
				"y": -0.4437296812,
				"z": -2.1666493652,
				"element": "C" 
			},
			{
				"x": -2.9632714319,
				"y": 1.5518977754,
				"z": -0.6347238878,
				"element": "H" 
			},
			{
				"x": -2.815140437,
				"y": 3.3128139868,
				"z": -0.3221797243,
				"element": "H" 
			},
			{
				"x": -0.9842026418,
				"y": 0.5823235824,
				"z": 1.7648636424,
				"element": "H" 
			},
			{
				"x": -1.0491378842,
				"y": -1.0789137255,
				"z": 2.3408528298,
				"element": "H" 
			},
			{
				"x": 1.1556900758,
				"y": -1.5750642694,
				"z": 1.4363323064,
				"element": "H" 
			},
			{
				"x": 1.2237982957,
				"y": -0.2130600951,
				"z": 2.5331817332,
				"element": "H" 
			},
			{
				"x": 1.4702671895,
				"y": 2.3547661447,
				"z": -2.1989297251,
				"element": "H" 
			},
			{
				"x": 3.9395531823,
				"y": 2.2240239784,
				"z": -2.0049003916,
				"element": "H" 
			},
			{
				"x": 4.9540007489,
				"y": 0.8249121667,
				"z": -0.1973971094,
				"element": "H" 
			},
			{
				"x": 3.4886645871,
				"y": -0.3967293099,
				"z": 1.3676476653,
				"element": "H" 
			},
			{
				"x": -2.1045181813,
				"y": -2.7284415136,
				"z": 0.91446618,
				"element": "H" 
			},
			{
				"x": -2.9720671372,
				"y": -3.4024229283,
				"z": -1.3079694838,
				"element": "H" 
			},
			{
				"x": -2.5973671558,
				"y": -1.9405372683,
				"z": -3.2862154143,
				"element": "H" 
			},
			{
				"x": -1.3551313452,
				"y": 0.2031958116,
				"z": -3.0192267939,
				"element": "H" 
			}
		],
		 "valence_orbital": [ 
			{
				"type": "occ",
				"energy": -0.26632,
				"method": "rhf"
			},
			{
				"type": "occ",
				"energy": -0.25827,
				"method": "rhf"
			},
			{
				"type": "occ",
				"energy": -0.24658,
				"method": "rhf"
			},
			{
				"type": "occ",
				"energy": -0.2416,
				"method": "rhf"
			},
			{
				"type": "occ",
				"energy": -0.23236,
				"method": "rhf"
			},
			{
				"type": "unocc",
				"energy": -0.03146,
				"method": "rhf"
			},
			{
				"type": "unocc",
				"energy": -0.01871,
				"method": "rhf"
			},
			{
				"type": "unocc",
				"energy": -0.013,
				"method": "rhf"
			},
			{
				"type": "unocc",
				"energy": -0.00216,
				"method": "rhf"
			},
			{
				"type": "unocc",
				"energy": 0.00523,
				"method": "rhf"
			}
		],
		"cosmo_sigma_profile": { 
			"-0.025": 0.0,
			"-0.024": 0.0,
			"-0.023": 0.0,
			"-0.022": 0.0,
			"-0.021": 0.0,
			"-0.02": 0.0,
			"-0.019": 0.0,
			"-0.018": 0.0,
			"-0.017": 0.0,
			"-0.016": 0.0,
			"-0.015": 0.0,
			"-0.014": 0.0,
			"-0.013": 0.0,
			"-0.012": 0.0,
			"-0.011": 0.0,
			"-0.01": 0.0,
			"-0.009": 0.40520314384,
			"-0.008": 2.08723249892,
			"-0.007": 4.77446964718,
			"-0.006": 16.0856073835,
			"-0.005": 25.2116088315,
			"-0.004": 32.1930785982,
			"-0.003": 28.5915711394,
			"-0.002": 23.1497457379,
			"-0.001": 20.60591875,
			"0.0": 17.4448550607,
			"0.001": 17.4997112213,
			"0.002": 17.4734091894,
			"0.003": 20.8702014895,
			"0.004": 20.4573865851,
			"0.005": 21.0011433205,
			"0.006": 9.36239577237,
			"0.007": 2.21439296855,
			"0.008": 1.58713014561,
			"0.009": 1.97782145944,
			"0.01": 1.42592033958,
			"0.011": 2.0403086184,
			"0.012": 3.81851020246,
			"0.013": 4.78655616191,
			"0.014": 0.577134351631,
			"0.015": 0.0,
			"0.016": 0.0,
			"0.017": 0.0,
			"0.018": 0.0,
			"0.019": 0.0,
			"0.02": 0.0,
			"0.021": 0.0,
			"0.022": 0.0,
			"0.023": 0.0,
			"0.024": 0.0,
			"0.025": 0.0
		}
	}
}
