{
	 "smiles": "CS(=O)(=O)C1=CC=C(C=C1)C(=O)NN", 
	 "Tm": 463.15, 
	 "num_atms": 24, 
	 "gaussian": { 
		 "optdone": 1, 
		 "sigma_profile": "yes", 
		 "theory": "DFT", 
		 "functional": "B3LYP", 
		 "basiset": "6-31G**", 
		 "properties": { 
			 "R2extent": 4228.0249, 
			 "electric_dipole_moment_norm": 5.8220662741, 
			 "electric_quadrupole_moment_norm": 17.4540880819, 
			 "total_energy": -1044.14825868, 
			 "HOMO_LUMO_gap": 0.19073, 
			 "cosmo_polarized_energy": -24.71, 
			 "cosmo_cavitation_energy": 30.01, 
			 "cosmo_dispersion_energy": -21.95, 
			 "cosmo_repulsion_energy": 1.7, 
			 "cosmo_total_nonelectrostatic_energy": 9.76, 
			 "SMD_solvation_energy": 6.02 
		},
		"coords": [
			{
				"x": 0.2930250945,
				"y": -0.1639839866,
				"z": 3.8943173833,
				"element": "C" 
			},
			{
				"x": -1.3616428288,
				"y": -0.1737114139,
				"z": 3.1625426027,
				"element": "S" 
			},
			{
				"x": -2.0406907396,
				"y": 1.0580292094,
				"z": 3.5906088882,
				"element": "O" 
			},
			{
				"x": -1.9475668333,
				"y": -1.4994479271,
				"z": 3.4120269428,
				"element": "O" 
			},
			{
				"x": -1.0393766493,
				"y": -0.0403492757,
				"z": 1.3925183183,
				"element": "C" 
			},
			{
				"x": -0.9307752362,
				"y": 1.2238532782,
				"z": 0.8089944161,
				"element": "C" 
			},
			{
				"x": -0.6868469687,
				"y": 1.3172365813,
				"z": -0.5586506803,
				"element": "C" 
			},
			{
				"x": -0.5314472491,
				"y": 0.1597734464,
				"z": -1.3346021896,
				"element": "C" 
			},
			{
				"x": -0.6729215822,
				"y": -1.0997965025,
				"z": -0.7341447177,
				"element": "C" 
			},
			{
				"x": -0.9346630873,
				"y": -1.205097973,
				"z": 0.6311936463,
				"element": "C" 
			},
			{
				"x": -0.3352314243,
				"y": 0.3490048426,
				"z": -2.8162136383,
				"element": "C" 
			},
			{
				"x": -0.9045821736,
				"y": 1.2512339302,
				"z": -3.4168144303,
				"element": "O" 
			},
			{
				"x": 0.4877743891,
				"y": -0.5328461825,
				"z": -3.4865501223,
				"element": "N" 
			},
			{
				"x": 1.5692249931,
				"y": -1.2518997046,
				"z": -2.9350714144,
				"element": "N" 
			},
			{
				"x": 0.8554282834,
				"y": -1.0226486469,
				"z": 3.5250886725,
				"element": "H" 
			},
			{
				"x": 0.1473195804,
				"y": -0.2413102989,
				"z": 4.9738382054,
				"element": "H" 
			},
			{
				"x": 0.791833931,
				"y": 0.7736658037,
				"z": 3.6454575945,
				"element": "H" 
			},
			{
				"x": -1.0673007125,
				"y": 2.1125949703,
				"z": 1.4160978617,
				"element": "H" 
			},
			{
				"x": -0.6313209058,
				"y": 2.2834404752,
				"z": -1.0485690425,
				"element": "H" 
			},
			{
				"x": -0.624631258,
				"y": -2.0006969604,
				"z": -1.337121277,
				"element": "H" 
			},
			{
				"x": -1.0828508013,
				"y": -2.1709159709,
				"z": 1.1024971348,
				"element": "H" 
			},
			{
				"x": 0.6286082246,
				"y": -0.272383395,
				"z": -4.4559577677,
				"element": "H" 
			},
			{
				"x": 2.0112057613,
				"y": -0.7198014718,
				"z": -2.1898578424,
				"element": "H" 
			},
			{
				"x": 1.2428281926,
				"y": -2.1329428277,
				"z": -2.5507285444,
				"element": "H" 
			}
		],
		 "valence_orbital": [ 
			{
				"type": "occ",
				"energy": -0.29802,
				"method": "rhf"
			},
			{
				"type": "occ",
				"energy": -0.28808,
				"method": "rhf"
			},
			{
				"type": "occ",
				"energy": -0.28498,
				"method": "rhf"
			},
			{
				"type": "occ",
				"energy": -0.26792,
				"method": "rhf"
			},
			{
				"type": "occ",
				"energy": -0.26001,
				"method": "rhf"
			},
			{
				"type": "unocc",
				"energy": -0.06928,
				"method": "rhf"
			},
			{
				"type": "unocc",
				"energy": -0.03557,
				"method": "rhf"
			},
			{
				"type": "unocc",
				"energy": 0.01663,
				"method": "rhf"
			},
			{
				"type": "unocc",
				"energy": 0.04793,
				"method": "rhf"
			},
			{
				"type": "unocc",
				"energy": 0.06531,
				"method": "rhf"
			}
		],
		"cosmo_sigma_profile": { 
			"-0.025": 0.0,
			"-0.024": 0.0,
			"-0.023": 0.0,
			"-0.022": 0.0,
			"-0.021": 0.0,
			"-0.02": 0.0,
			"-0.019": 0.0,
			"-0.018": 0.0,
			"-0.017": 0.0,
			"-0.016": 0.0,
			"-0.015": 0.0,
			"-0.014": 0.153209769282,
			"-0.013": 1.21238707047,
			"-0.012": 4.05335376263,
			"-0.011": 3.85665395542,
			"-0.01": 3.86231351508,
			"-0.009": 6.73758855942,
			"-0.008": 12.6654070073,
			"-0.007": 14.7257312352,
			"-0.006": 15.7204122118,
			"-0.005": 12.9319354943,
			"-0.004": 15.6211571483,
			"-0.003": 13.7462342028,
			"-0.002": 8.35989953261,
			"-0.001": 10.9982356371,
			"0.0": 11.9939920699,
			"0.001": 15.4446856586,
			"0.002": 12.8228689406,
			"0.003": 5.31625503611,
			"0.004": 5.75432116057,
			"0.005": 5.28621012479,
			"0.006": 3.70164571086,
			"0.007": 5.29996386888,
			"0.008": 4.02291451578,
			"0.009": 4.82964145633,
			"0.01": 8.13331690575,
			"0.011": 11.3743704364,
			"0.012": 11.1892151368,
			"0.013": 6.13412263745,
			"0.014": 1.83234418023,
			"0.015": 0.508679290881,
			"0.016": 0.274815667427,
			"0.017": 0.0,
			"0.018": 0.0,
			"0.019": 0.0,
			"0.02": 0.0,
			"0.021": 0.0,
			"0.022": 0.0,
			"0.023": 0.0,
			"0.024": 0.0,
			"0.025": 0.0
		}
	}
}
