{
	 "smiles": "O=CC1=NN(C=C1)C1=CC=CC=C1", 
	 "Tm": 323.15, 
	 "num_atms": 21, 
	 "gaussian": { 
		 "optdone": 1, 
		 "sigma_profile": "yes", 
		 "theory": "DFT", 
		 "functional": "B3LYP", 
		 "basiset": "6-31G**", 
		 "properties": { 
			 "R2extent": 3174.9542, 
			 "electric_dipole_moment_norm": 4.79852695001, 
			 "electric_quadrupole_moment_norm": 12.5513674307, 
			 "total_energy": -570.579316816, 
			 "HOMO_LUMO_gap": 0.17864, 
			 "cosmo_polarized_energy": -10.37, 
			 "cosmo_cavitation_energy": 26.1, 
			 "cosmo_dispersion_energy": -19.19, 
			 "cosmo_repulsion_energy": 1.49, 
			 "cosmo_total_nonelectrostatic_energy": 8.39, 
			 "SMD_solvation_energy": 5.24 
		},
		"coords": [
			{
				"x": -2.159209466,
				"y": -1.9722670194,
				"z": 4.0115356065,
				"element": "O" 
			},
			{
				"x": -2.0037394122,
				"y": -2.1007547661,
				"z": 2.8110500433,
				"element": "C" 
			},
			{
				"x": -1.3853913702,
				"y": -1.0794607412,
				"z": 1.9562763907,
				"element": "C" 
			},
			{
				"x": -1.2525964715,
				"y": -1.3017901928,
				"z": 0.6442313683,
				"element": "N" 
			},
			{
				"x": -0.6615470091,
				"y": -0.1964620863,
				"z": 0.1566685737,
				"element": "N" 
			},
			{
				"x": -0.4164084522,
				"y": 0.7284287816,
				"z": 1.1469526525,
				"element": "C" 
			},
			{
				"x": -0.8717571599,
				"y": 0.1904176092,
				"z": 2.3239785208,
				"element": "C" 
			},
			{
				"x": -0.3686031821,
				"y": -0.098451031,
				"z": -1.2348095003,
				"element": "C" 
			},
			{
				"x": -0.7048370863,
				"y": -1.1629515796,
				"z": -2.0793800605,
				"element": "C" 
			},
			{
				"x": -0.4220175169,
				"y": -1.0750453373,
				"z": -3.4402485883,
				"element": "C" 
			},
			{
				"x": 0.1922662799,
				"y": 0.0620053838,
				"z": -3.9692399813,
				"element": "C" 
			},
			{
				"x": 0.5238871049,
				"y": 1.1180729103,
				"z": -3.1202625951,
				"element": "C" 
			},
			{
				"x": 0.2472501959,
				"y": 1.0451913244,
				"z": -1.7554470521,
				"element": "C" 
			},
			{
				"x": -2.3236500554,
				"y": -3.0142995125,
				"z": 2.2682864971,
				"element": "H" 
			},
			{
				"x": 0.0526870673,
				"y": 1.6766183429,
				"z": 0.9408707006,
				"element": "H" 
			},
			{
				"x": -0.8492948675,
				"y": 0.625784737,
				"z": 3.3107171395,
				"element": "H" 
			},
			{
				"x": -1.1806437763,
				"y": -2.0388161864,
				"z": -1.6574216075,
				"element": "H" 
			},
			{
				"x": -0.6853981293,
				"y": -1.904261434,
				"z": -4.0900607804,
				"element": "H" 
			},
			{
				"x": 0.4100528273,
				"y": 0.1243855866,
				"z": -5.0308533261,
				"element": "H" 
			},
			{
				"x": 1.0019370058,
				"y": 2.0088017158,
				"z": -3.5166030054,
				"element": "H" 
			},
			{
				"x": 0.5140134738,
				"y": 1.8778534949,
				"z": -1.1150409958,
				"element": "H" 
			}
		],
		 "valence_orbital": [ 
			{
				"type": "occ",
				"energy": -0.30204,
				"method": "rhf"
			},
			{
				"type": "occ",
				"energy": -0.27229,
				"method": "rhf"
			},
			{
				"type": "occ",
				"energy": -0.26461,
				"method": "rhf"
			},
			{
				"type": "occ",
				"energy": -0.25262,
				"method": "rhf"
			},
			{
				"type": "occ",
				"energy": -0.23744,
				"method": "rhf"
			},
			{
				"type": "unocc",
				"energy": -0.0588,
				"method": "rhf"
			},
			{
				"type": "unocc",
				"energy": -0.02315,
				"method": "rhf"
			},
			{
				"type": "unocc",
				"energy": -0.01436,
				"method": "rhf"
			},
			{
				"type": "unocc",
				"energy": 0.0316,
				"method": "rhf"
			},
			{
				"type": "unocc",
				"energy": 0.07287,
				"method": "rhf"
			}
		],
		"cosmo_sigma_profile": { 
			"-0.025": 0.0,
			"-0.024": 0.0,
			"-0.023": 0.0,
			"-0.022": 0.0,
			"-0.021": 0.0,
			"-0.02": 0.0,
			"-0.019": 0.0,
			"-0.018": 0.0,
			"-0.017": 0.0,
			"-0.016": 0.0,
			"-0.015": 0.0,
			"-0.014": 0.0,
			"-0.013": 0.0,
			"-0.012": 0.359172453003,
			"-0.011": 1.56147299168,
			"-0.01": 2.01785450897,
			"-0.009": 2.08533626734,
			"-0.008": 3.37118090967,
			"-0.007": 4.86345520797,
			"-0.006": 13.9607165585,
			"-0.005": 14.430725017,
			"-0.004": 15.5174070412,
			"-0.003": 13.6255671104,
			"-0.002": 12.9667784511,
			"-0.001": 12.7603214526,
			"0.0": 15.0630261486,
			"0.001": 17.5814297164,
			"0.002": 18.7504894058,
			"0.003": 16.0223797003,
			"0.004": 14.9836789133,
			"0.005": 6.65493726801,
			"0.006": 3.09510601226,
			"0.007": 3.25181363896,
			"0.008": 3.62975685372,
			"0.009": 3.40076648924,
			"0.01": 2.40227129002,
			"0.011": 4.84920906876,
			"0.012": 2.86849950489,
			"0.013": 0.732055538153,
			"0.014": 0.0,
			"0.015": 0.0,
			"0.016": 0.0,
			"0.017": 0.0,
			"0.018": 0.0,
			"0.019": 0.0,
			"0.02": 0.0,
			"0.021": 0.0,
			"0.022": 0.0,
			"0.023": 0.0,
			"0.024": 0.0,
			"0.025": 0.0
		}
	}
}
