{
	 "smiles": "CC(C)C(=O)NC1=CC=C(O)C=C1", 
	 "Tm": 432.15, 
	 "num_atms": 26, 
	 "gaussian": { 
		 "optdone": 1, 
		 "sigma_profile": "yes", 
		 "theory": "DFT", 
		 "functional": "B3LYP", 
		 "basiset": "6-31G**", 
		 "properties": { 
			 "R2extent": 3033.1936, 
			 "electric_dipole_moment_norm": 4.42179933624, 
			 "electric_quadrupole_moment_norm": 20.0296820374, 
			 "total_energy": -594.109501407, 
			 "HOMO_LUMO_gap": 0.21078, 
			 "cosmo_polarized_energy": -14.91, 
			 "cosmo_cavitation_energy": 28.89, 
			 "cosmo_dispersion_energy": -20.38, 
			 "cosmo_repulsion_energy": 1.64, 
			 "cosmo_total_nonelectrostatic_energy": 10.15, 
			 "SMD_solvation_energy": 6.15 
		},
		"coords": [
			{
				"x": 1.6330643027,
				"y": -3.0580926063,
				"z": -0.0794592304,
				"element": "C" 
			},
			{
				"x": 1.7494742082,
				"y": -2.1718416589,
				"z": 1.1739234753,
				"element": "C" 
			},
			{
				"x": 0.4082532044,
				"y": -2.0488371891,
				"z": 1.9192228075,
				"element": "C" 
			},
			{
				"x": 2.4366799303,
				"y": -0.8230303497,
				"z": 0.9117380296,
				"element": "C" 
			},
			{
				"x": 3.5172003381,
				"y": -0.5698263514,
				"z": 1.4320415717,
				"element": "O" 
			},
			{
				"x": 1.8573395159,
				"y": 0.1273194282,
				"z": 0.0898371367,
				"element": "N" 
			},
			{
				"x": 0.631824264,
				"y": 0.1404741134,
				"z": -0.6484666758,
				"element": "C" 
			},
			{
				"x": 0.5978751465,
				"y": -0.2917107945,
				"z": -1.9786398011,
				"element": "C" 
			},
			{
				"x": -0.5792995204,
				"y": -0.220898044,
				"z": -2.7226453619,
				"element": "C" 
			},
			{
				"x": -1.7414135322,
				"y": 0.2996405928,
				"z": -2.1421163677,
				"element": "C" 
			},
			{
				"x": -2.9239953839,
				"y": 0.3963994568,
				"z": -2.8143565409,
				"element": "O" 
			},
			{
				"x": -1.7148645821,
				"y": 0.7528851317,
				"z": -0.8173837461,
				"element": "C" 
			},
			{
				"x": -0.5349468578,
				"y": 0.6765084982,
				"z": -0.0845908457,
				"element": "C" 
			},
			{
				"x": 2.5904878672,
				"y": -3.1300194746,
				"z": -0.6057850993,
				"element": "H" 
			},
			{
				"x": 0.8819401134,
				"y": -2.6845070743,
				"z": -0.7796066156,
				"element": "H" 
			},
			{
				"x": 1.3386179729,
				"y": -4.0713935655,
				"z": 0.2146874337,
				"element": "H" 
			},
			{
				"x": 2.4622010742,
				"y": -2.6511224136,
				"z": 1.852056731,
				"element": "H" 
			},
			{
				"x": -0.3818537717,
				"y": -1.6429292271,
				"z": 1.2829820914,
				"element": "H" 
			},
			{
				"x": 0.5017631493,
				"y": -1.4094616963,
				"z": 2.8030892297,
				"element": "H" 
			},
			{
				"x": 0.0860514191,
				"y": -3.0393281016,
				"z": 2.258480214,
				"element": "H" 
			},
			{
				"x": 2.4401045751,
				"y": 0.9550859272,
				"z": 0.0317958692,
				"element": "H" 
			},
			{
				"x": 1.5034404117,
				"y": -0.6845016075,
				"z": -2.4302463032,
				"element": "H" 
			},
			{
				"x": -0.59201865,
				"y": -0.5644462813,
				"z": -3.7548336951,
				"element": "H" 
			},
			{
				"x": -2.8109947182,
				"y": 0.0568760696,
				"z": -3.7116793053,
				"element": "H" 
			},
			{
				"x": -2.6213998146,
				"y": 1.1630569925,
				"z": -0.3852165078,
				"element": "H" 
			},
			{
				"x": -0.5075306621,
				"y": 1.0349002252,
				"z": 0.9397715061,
				"element": "H" 
			}
		],
		 "valence_orbital": [ 
			{
				"type": "occ",
				"energy": -0.32327,
				"method": "rhf"
			},
			{
				"type": "occ",
				"energy": -0.26628,
				"method": "rhf"
			},
			{
				"type": "occ",
				"energy": -0.24911,
				"method": "rhf"
			},
			{
				"type": "occ",
				"energy": -0.24124,
				"method": "rhf"
			},
			{
				"type": "occ",
				"energy": -0.22844,
				"method": "rhf"
			},
			{
				"type": "unocc",
				"energy": -0.01766,
				"method": "rhf"
			},
			{
				"type": "unocc",
				"energy": -0.00618,
				"method": "rhf"
			},
			{
				"type": "unocc",
				"energy": 0.03437,
				"method": "rhf"
			},
			{
				"type": "unocc",
				"energy": 0.06006,
				"method": "rhf"
			},
			{
				"type": "unocc",
				"energy": 0.0848,
				"method": "rhf"
			}
		],
		"cosmo_sigma_profile": { 
			"-0.025": 0.0,
			"-0.024": 0.0,
			"-0.023": 0.0,
			"-0.022": 0.0,
			"-0.021": 0.0,
			"-0.02": 0.0,
			"-0.019": 0.0307591026006,
			"-0.018": 0.629462756597,
			"-0.017": 1.13304307505,
			"-0.016": 1.08420145873,
			"-0.015": 1.27893622001,
			"-0.014": 0.658719699346,
			"-0.013": 1.58541607146,
			"-0.012": 2.03727402169,
			"-0.011": 1.67551955343,
			"-0.01": 1.99516692176,
			"-0.009": 2.00767353624,
			"-0.008": 2.17174627751,
			"-0.007": 3.10537886992,
			"-0.006": 7.4695864278,
			"-0.005": 8.63176994465,
			"-0.004": 11.1680500507,
			"-0.003": 18.3462154068,
			"-0.002": 21.6256019993,
			"-0.001": 27.080529856,
			"0.0": 24.7188452958,
			"0.001": 19.0273010136,
			"0.002": 11.2731321617,
			"0.003": 12.1330997141,
			"0.004": 11.3384966907,
			"0.005": 5.44404873829,
			"0.006": 2.34627191054,
			"0.007": 2.0347796111,
			"0.008": 3.27962214449,
			"0.009": 3.23641020448,
			"0.01": 2.24729373067,
			"0.011": 2.87250922097,
			"0.012": 2.28399861129,
			"0.013": 2.88424036675,
			"0.014": 6.04614964899,
			"0.015": 2.22901036616,
			"0.016": 0.130571211655,
			"0.017": 0.0,
			"0.018": 0.0,
			"0.019": 0.0,
			"0.02": 0.0,
			"0.021": 0.0,
			"0.022": 0.0,
			"0.023": 0.0,
			"0.024": 0.0,
			"0.025": 0.0
		}
	}
}
