{
	 "smiles": "OC(=O)CNC(=O)NCC1=CC=C(F)C=C1", 
	 "Tm": 443.15, 
	 "num_atms": 27, 
	 "gaussian": { 
		 "optdone": 1, 
		 "sigma_profile": "yes", 
		 "theory": "DFT", 
		 "functional": "B3LYP", 
		 "basiset": "6-31G**", 
		 "properties": { 
			 "R2extent": 4581.1549, 
			 "electric_dipole_moment_norm": 5.48950192732, 
			 "electric_quadrupole_moment_norm": 20.9323414873, 
			 "total_energy": -822.722231169, 
			 "HOMO_LUMO_gap": 0.21679, 
			 "cosmo_polarized_energy": -24.12, 
			 "cosmo_cavitation_energy": 32.29, 
			 "cosmo_dispersion_energy": -22.26, 
			 "cosmo_repulsion_energy": 1.74, 
			 "cosmo_total_nonelectrostatic_energy": 11.77, 
			 "SMD_solvation_energy": 7.1 
		},
		"coords": [
			{
				"x": -2.7423100818,
				"y": 1.872953193,
				"z": -0.4376104949,
				"element": "O" 
			},
			{
				"x": -2.4407255983,
				"y": 1.0440664948,
				"z": -1.4625452544,
				"element": "C" 
			},
			{
				"x": -3.2204355827,
				"y": 0.8590453602,
				"z": -2.3623598731,
				"element": "O" 
			},
			{
				"x": -1.0566447746,
				"y": 0.398750516,
				"z": -1.3925326427,
				"element": "C" 
			},
			{
				"x": -0.8524871439,
				"y": -0.4520082288,
				"z": -2.5473230679,
				"element": "N" 
			},
			{
				"x": -0.2880855546,
				"y": -1.71932373,
				"z": -2.4854796975,
				"element": "C" 
			},
			{
				"x": -0.6731989715,
				"y": -2.6406958017,
				"z": -3.1905564449,
				"element": "O" 
			},
			{
				"x": 0.7515409131,
				"y": -1.8859831523,
				"z": -1.5693433782,
				"element": "N" 
			},
			{
				"x": 1.7749464619,
				"y": -0.8772410632,
				"z": -1.2971132355,
				"element": "C" 
			},
			{
				"x": 1.8574936841,
				"y": -0.4100368138,
				"z": 0.151337946,
				"element": "C" 
			},
			{
				"x": 1.220429944,
				"y": -1.097695332,
				"z": 1.1894666185,
				"element": "C" 
			},
			{
				"x": 1.3342879895,
				"y": -0.6676819722,
				"z": 2.5139194778,
				"element": "C" 
			},
			{
				"x": 2.0980521189,
				"y": 0.459644804,
				"z": 2.7877924366,
				"element": "C" 
			},
			{
				"x": 2.2113092856,
				"y": 0.8844974248,
				"z": 4.0632533017,
				"element": "F" 
			},
			{
				"x": 2.7465942375,
				"y": 1.1676198675,
				"z": 1.7803919303,
				"element": "C" 
			},
			{
				"x": 2.619891472,
				"y": 0.7243812239,
				"z": 0.4649233571,
				"element": "C" 
			},
			{
				"x": -2.016935649,
				"y": 1.9071241734,
				"z": 0.2035748422,
				"element": "H" 
			},
			{
				"x": -0.9748702953,
				"y": -0.1664407297,
				"z": -0.4549305328,
				"element": "H" 
			},
			{
				"x": -0.3169030187,
				"y": 1.211779113,
				"z": -1.3287912581,
				"element": "H" 
			},
			{
				"x": -1.648487528,
				"y": -0.4366527715,
				"z": -3.1789974832,
				"element": "H" 
			},
			{
				"x": 1.092875908,
				"y": -2.8358341999,
				"z": -1.6371229173,
				"element": "H" 
			},
			{
				"x": 1.6084988393,
				"y": -0.0180039125,
				"z": -1.9548366798,
				"element": "H" 
			},
			{
				"x": 2.7508184766,
				"y": -1.2869304887,
				"z": -1.5904350232,
				"element": "H" 
			},
			{
				"x": 0.6253155692,
				"y": -1.9744841376,
				"z": 0.9547557766,
				"element": "H" 
			},
			{
				"x": 0.8448399618,
				"y": -1.1939365137,
				"z": 3.3265284668,
				"element": "H" 
			},
			{
				"x": 3.331944355,
				"y": 2.0451820335,
				"z": 2.0331001839,
				"element": "H" 
			},
			{
				"x": 3.1239449823,
				"y": 1.2718046436,
				"z": -0.3285663539,
				"element": "H" 
			}
		],
		 "valence_orbital": [ 
			{
				"type": "occ",
				"energy": -0.27758,
				"method": "rhf"
			},
			{
				"type": "occ",
				"energy": -0.27488,
				"method": "rhf"
			},
			{
				"type": "occ",
				"energy": -0.26852,
				"method": "rhf"
			},
			{
				"type": "occ",
				"energy": -0.25447,
				"method": "rhf"
			},
			{
				"type": "occ",
				"energy": -0.24736,
				"method": "rhf"
			},
			{
				"type": "unocc",
				"energy": -0.03057,
				"method": "rhf"
			},
			{
				"type": "unocc",
				"energy": -0.01505,
				"method": "rhf"
			},
			{
				"type": "unocc",
				"energy": -0.00627,
				"method": "rhf"
			},
			{
				"type": "unocc",
				"energy": 0.03452,
				"method": "rhf"
			},
			{
				"type": "unocc",
				"energy": 0.04265,
				"method": "rhf"
			}
		],
		"cosmo_sigma_profile": { 
			"-0.025": 0.0,
			"-0.024": 0.0,
			"-0.023": 0.0,
			"-0.022": 0.0,
			"-0.021": 0.0,
			"-0.02": 0.450584576753,
			"-0.019": 1.27912359663,
			"-0.018": 1.50952847363,
			"-0.017": 1.17577512656,
			"-0.016": 1.05250644373,
			"-0.015": 0.700876087875,
			"-0.014": 0.838874275028,
			"-0.013": 2.50550523815,
			"-0.012": 2.33528598573,
			"-0.011": 2.37076737447,
			"-0.01": 2.30705191773,
			"-0.009": 3.72592528622,
			"-0.008": 4.20315599724,
			"-0.007": 8.65346406601,
			"-0.006": 15.4389401517,
			"-0.005": 16.4943499295,
			"-0.004": 16.2786044924,
			"-0.003": 15.5695653569,
			"-0.002": 14.3783458793,
			"-0.001": 11.1409958141,
			"0.0": 11.9408360518,
			"0.001": 15.6537780136,
			"0.002": 14.6156288191,
			"0.003": 16.8957147969,
			"0.004": 19.4886175756,
			"0.005": 11.8635200907,
			"0.006": 3.2247933841,
			"0.007": 3.94742504285,
			"0.008": 4.92964381469,
			"0.009": 6.10338242303,
			"0.01": 5.70889916647,
			"0.011": 5.28085105591,
			"0.012": 3.24671022818,
			"0.013": 3.00195391497,
			"0.014": 6.45320232918,
			"0.015": 1.59305291732,
			"0.016": 0.0,
			"0.017": 0.0,
			"0.018": 0.0,
			"0.019": 0.0,
			"0.02": 0.0,
			"0.021": 0.0,
			"0.022": 0.0,
			"0.023": 0.0,
			"0.024": 0.0,
			"0.025": 0.0
		}
	}
}
