{
	 "smiles": "S(SC1=CC=CS1)C1=CC=CS1", 
	 "Tm": 328.15, 
	 "num_atms": 18, 
	 "gaussian": { 
		 "optdone": 1, 
		 "sigma_profile": "yes", 
		 "theory": "DFT", 
		 "functional": "B3LYP", 
		 "basiset": "6-31G**", 
		 "properties": { 
			 "R2extent": 5553.2488, 
			 "electric_dipole_moment_norm": 3.02135808206, 
			 "electric_quadrupole_moment_norm": 12.8300006247, 
			 "total_energy": -1901.18083747, 
			 "HOMO_LUMO_gap": 0.15848, 
			 "cosmo_polarized_energy": -6.96, 
			 "cosmo_cavitation_energy": 30.86, 
			 "cosmo_dispersion_energy": -22.36, 
			 "cosmo_repulsion_energy": 1.62, 
			 "cosmo_total_nonelectrostatic_energy": 10.11, 
			 "SMD_solvation_energy": 3.79 
		},
		"coords": [
			{
				"x": -2.0590148327,
				"y": 0.5588427655,
				"z": -2.3014726891,
				"element": "S" 
			},
			{
				"x": -0.7989239657,
				"y": -1.1835512025,
				"z": -2.3534232546,
				"element": "S" 
			},
			{
				"x": 0.1819453177,
				"y": -1.0885722448,
				"z": -0.9014781387,
				"element": "C" 
			},
			{
				"x": -0.0787134023,
				"y": -1.6587674621,
				"z": 0.3261310487,
				"element": "C" 
			},
			{
				"x": 0.9547651777,
				"y": -1.4392908976,
				"z": 1.2769085356,
				"element": "C" 
			},
			{
				"x": 1.9951562325,
				"y": -0.7025826085,
				"z": 0.768693364,
				"element": "C" 
			},
			{
				"x": 1.7333277585,
				"y": -0.2669206135,
				"z": -0.8819690946,
				"element": "S" 
			},
			{
				"x": -1.1045658821,
				"y": 1.8446818761,
				"z": -3.0187037249,
				"element": "C" 
			},
			{
				"x": -0.3626522771,
				"y": 2.7991701051,
				"z": -2.3548712928,
				"element": "C" 
			},
			{
				"x": 0.2499290826,
				"y": 3.7390293644,
				"z": -3.2284023366,
				"element": "C" 
			},
			{
				"x": -0.0267888145,
				"y": 3.4921617979,
				"z": -4.5493541785,
				"element": "C" 
			},
			{
				"x": -1.0463928812,
				"y": 2.1122677637,
				"z": -4.7510447419,
				"element": "S" 
			},
			{
				"x": -0.9870796307,
				"y": -2.2152004245,
				"z": 0.5249528567,
				"element": "H" 
			},
			{
				"x": 0.9304681878,
				"y": -1.8133815162,
				"z": 2.2940226277,
				"element": "H" 
			},
			{
				"x": 2.9016818534,
				"y": -0.3976327311,
				"z": 1.2743070036,
				"element": "H" 
			},
			{
				"x": -0.2715768665,
				"y": 2.8144298495,
				"z": -1.275369416,
				"element": "H" 
			},
			{
				"x": 0.869178654,
				"y": 4.5629568426,
				"z": -2.8928015797,
				"element": "H" 
			},
			{
				"x": 0.3100562886,
				"y": 4.0492593356,
				"z": -5.4134249888,
				"element": "H" 
			}
		],
		 "valence_orbital": [ 
			{
				"type": "occ",
				"energy": -0.26227,
				"method": "rhf"
			},
			{
				"type": "occ",
				"energy": -0.25829,
				"method": "rhf"
			},
			{
				"type": "occ",
				"energy": -0.25078,
				"method": "rhf"
			},
			{
				"type": "occ",
				"energy": -0.24679,
				"method": "rhf"
			},
			{
				"type": "occ",
				"energy": -0.23039,
				"method": "rhf"
			},
			{
				"type": "unocc",
				"energy": -0.07191,
				"method": "rhf"
			},
			{
				"type": "unocc",
				"energy": -0.02351,
				"method": "rhf"
			},
			{
				"type": "unocc",
				"energy": 0.00414,
				"method": "rhf"
			},
			{
				"type": "unocc",
				"energy": 0.02043,
				"method": "rhf"
			},
			{
				"type": "unocc",
				"energy": 0.02193,
				"method": "rhf"
			}
		],
		"cosmo_sigma_profile": { 
			"-0.025": 0.0,
			"-0.024": 0.0,
			"-0.023": 0.0,
			"-0.022": 0.0,
			"-0.021": 0.0,
			"-0.02": 0.0,
			"-0.019": 0.0,
			"-0.018": 0.0,
			"-0.017": 0.0,
			"-0.016": 0.0,
			"-0.015": 0.0,
			"-0.014": 0.0,
			"-0.013": 0.0,
			"-0.012": 0.0,
			"-0.011": 0.0,
			"-0.01": 0.12738991834,
			"-0.009": 3.52420358113,
			"-0.008": 4.99018959746,
			"-0.007": 9.77337408329,
			"-0.006": 11.0754979394,
			"-0.005": 10.7487461263,
			"-0.004": 12.6867952654,
			"-0.003": 9.16482443931,
			"-0.002": 13.0201483405,
			"-0.001": 22.1134352297,
			"0.0": 24.260877886,
			"0.001": 31.1128166782,
			"0.002": 37.4641979154,
			"0.003": 35.3492800795,
			"0.004": 20.8528583961,
			"0.005": 6.16053355165,
			"0.006": 4.44513695739,
			"0.007": 1.353043881,
			"0.008": 0.0365359280168,
			"0.009": 0.0,
			"0.01": 0.0,
			"0.011": 0.0,
			"0.012": 0.0,
			"0.013": 0.0,
			"0.014": 0.0,
			"0.015": 0.0,
			"0.016": 0.0,
			"0.017": 0.0,
			"0.018": 0.0,
			"0.019": 0.0,
			"0.02": 0.0,
			"0.021": 0.0,
			"0.022": 0.0,
			"0.023": 0.0,
			"0.024": 0.0,
			"0.025": 0.0
		}
	}
}
