{
	 "smiles": "ClC1=C(NCCC2=CC=CC=C2)C(=O)C(C#N)=C(C#N)C1=O", 
	 "Tm": 539.15, 
	 "num_atms": 32, 
	 "gaussian": { 
		 "optdone": 1, 
		 "sigma_profile": "yes", 
		 "theory": "DFT", 
		 "functional": "B3LYP", 
		 "basiset": "6-31G**", 
		 "properties": { 
			 "R2extent": 8643.333, 
			 "electric_dipole_moment_norm": 8.21529766594, 
			 "electric_quadrupole_moment_norm": 23.007845767, 
			 "total_energy": -1390.54235224, 
			 "HOMO_LUMO_gap": 0.0842, 
			 "cosmo_polarized_energy": -21.43, 
			 "cosmo_cavitation_energy": 41.74, 
			 "cosmo_dispersion_energy": -27.27, 
			 "cosmo_repulsion_energy": 2.08, 
			 "cosmo_total_nonelectrostatic_energy": 16.55, 
			 "SMD_solvation_energy": 9.73 
		},
		"coords": [
			{
				"x": 0.7158435134,
				"y": -2.2283418591,
				"z": -1.0337923293,
				"element": "Cl" 
			},
			{
				"x": 1.2328163219,
				"y": -0.5967294838,
				"z": -1.3714881949,
				"element": "C" 
			},
			{
				"x": 1.0692276753,
				"y": 0.3833661185,
				"z": -0.4100821622,
				"element": "C" 
			},
			{
				"x": 0.5379543215,
				"y": 0.1186023051,
				"z": 0.8025690728,
				"element": "N" 
			},
			{
				"x": 0.3190438306,
				"y": 0.9820594327,
				"z": 1.9670785416,
				"element": "C" 
			},
			{
				"x": -1.0821633712,
				"y": 1.6302724914,
				"z": 2.0011199355,
				"element": "C" 
			},
			{
				"x": -2.2064180623,
				"y": 0.6185506255,
				"z": 2.0632719022,
				"element": "C" 
			},
			{
				"x": -2.5859636227,
				"y": 0.0488263671,
				"z": 3.2877394561,
				"element": "C" 
			},
			{
				"x": -3.5932433116,
				"y": -0.9143590034,
				"z": 3.3484201699,
				"element": "C" 
			},
			{
				"x": -4.2398111512,
				"y": -1.3259598718,
				"z": 2.1808224328,
				"element": "C" 
			},
			{
				"x": -3.8740863383,
				"y": -0.7658800004,
				"z": 0.956104771,
				"element": "C" 
			},
			{
				"x": -2.8654834448,
				"y": 0.198305711,
				"z": 0.899931291,
				"element": "C" 
			},
			{
				"x": 1.4681319682,
				"y": 1.7911488809,
				"z": -0.7600435417,
				"element": "C" 
			},
			{
				"x": 1.2193633887,
				"y": 2.7394230991,
				"z": -0.034672511,
				"element": "O" 
			},
			{
				"x": 2.1716076451,
				"y": 2.0259367335,
				"z": -2.0620954472,
				"element": "C" 
			},
			{
				"x": 2.6138499814,
				"y": 3.3617642346,
				"z": -2.3063239497,
				"element": "C" 
			},
			{
				"x": 2.9796261477,
				"y": 4.4475842362,
				"z": -2.5030296291,
				"element": "N" 
			},
			{
				"x": 2.3321837215,
				"y": 1.0195966168,
				"z": -2.9602965421,
				"element": "C" 
			},
			{
				"x": 2.965161622,
				"y": 1.2201509709,
				"z": -4.2229098247,
				"element": "C" 
			},
			{
				"x": 3.4834101223,
				"y": 1.3927341488,
				"z": -5.24940746,
				"element": "N" 
			},
			{
				"x": 1.8411488201,
				"y": -0.381405139,
				"z": -2.6701109517,
				"element": "C" 
			},
			{
				"x": 1.9908783002,
				"y": -1.2468699331,
				"z": -3.5221233393,
				"element": "O" 
			},
			{
				"x": 0.1971223268,
				"y": -0.8301690363,
				"z": 0.8987812007,
				"element": "H" 
			},
			{
				"x": 1.0862936442,
				"y": 1.7524636485,
				"z": 1.998578042,
				"element": "H" 
			},
			{
				"x": 0.4440025167,
				"y": 0.3382267593,
				"z": 2.8437779024,
				"element": "H" 
			},
			{
				"x": -1.1869838275,
				"y": 2.2762760934,
				"z": 1.1245079547,
				"element": "H" 
			},
			{
				"x": -1.1114172842,
				"y": 2.2822559609,
				"z": 2.8823858046,
				"element": "H" 
			},
			{
				"x": -2.0938937897,
				"y": 0.3704349791,
				"z": 4.2032180415,
				"element": "H" 
			},
			{
				"x": -3.8774347365,
				"y": -1.3389027359,
				"z": 4.3070952964,
				"element": "H" 
			},
			{
				"x": -5.0264886565,
				"y": -2.0732548138,
				"z": 2.226658785,
				"element": "H" 
			},
			{
				"x": -4.3757503698,
				"y": -1.0751454253,
				"z": 0.0436633828,
				"element": "H" 
			},
			{
				"x": -2.594027901,
				"y": 0.6374378885,
				"z": -0.0568480999,
				"element": "H" 
			}
		],
		 "valence_orbital": [ 
			{
				"type": "occ",
				"energy": -0.31604,
				"method": "rhf"
			},
			{
				"type": "occ",
				"energy": -0.29638,
				"method": "rhf"
			},
			{
				"type": "occ",
				"energy": -0.26591,
				"method": "rhf"
			},
			{
				"type": "occ",
				"energy": -0.26116,
				"method": "rhf"
			},
			{
				"type": "occ",
				"energy": -0.24951,
				"method": "rhf"
			},
			{
				"type": "unocc",
				"energy": -0.16531,
				"method": "rhf"
			},
			{
				"type": "unocc",
				"energy": -0.08469,
				"method": "rhf"
			},
			{
				"type": "unocc",
				"energy": -0.02959,
				"method": "rhf"
			},
			{
				"type": "unocc",
				"energy": -0.01923,
				"method": "rhf"
			},
			{
				"type": "unocc",
				"energy": -0.01689,
				"method": "rhf"
			}
		],
		"cosmo_sigma_profile": { 
			"-0.025": 0.0,
			"-0.024": 0.0,
			"-0.023": 0.0,
			"-0.022": 0.0,
			"-0.021": 0.0,
			"-0.02": 0.0,
			"-0.019": 0.0,
			"-0.018": 0.0,
			"-0.017": 0.0,
			"-0.016": 0.0,
			"-0.015": 0.0,
			"-0.014": 0.206103257221,
			"-0.013": 0.6372649176,
			"-0.012": 0.842237546625,
			"-0.011": 2.14893759042,
			"-0.01": 3.765599024,
			"-0.009": 5.0986872602,
			"-0.008": 11.1327040543,
			"-0.007": 8.76904557275,
			"-0.006": 13.2569383557,
			"-0.005": 29.2083434719,
			"-0.004": 25.6646223902,
			"-0.003": 28.7912965772,
			"-0.002": 21.2581931215,
			"-0.001": 19.3396586675,
			"0.0": 18.2852510877,
			"0.001": 17.0596103435,
			"0.002": 16.4599261932,
			"0.003": 19.4312826449,
			"0.004": 19.9174583148,
			"0.005": 18.989160044,
			"0.006": 17.5872700663,
			"0.007": 11.3472963014,
			"0.008": 8.63963054886,
			"0.009": 7.93147540045,
			"0.01": 9.10987840036,
			"0.011": 4.38241005936,
			"0.012": 0.588023930048,
			"0.013": 0.0,
			"0.014": 0.0,
			"0.015": 0.0,
			"0.016": 0.0,
			"0.017": 0.0,
			"0.018": 0.0,
			"0.019": 0.0,
			"0.02": 0.0,
			"0.021": 0.0,
			"0.022": 0.0,
			"0.023": 0.0,
			"0.024": 0.0,
			"0.025": 0.0
		}
	}
}
