{
	 "smiles": "OC(=O)CCCS(=O)(=O)N1CCCC1", 
	 "Tm": 404.15, 
	 "num_atms": 29, 
	 "gaussian": { 
		 "optdone": 1, 
		 "sigma_profile": "yes", 
		 "theory": "DFT", 
		 "functional": "B3LYP", 
		 "basiset": "6-31G**", 
		 "properties": { 
			 "R2extent": 4994.7329, 
			 "electric_dipole_moment_norm": 2.39518516612, 
			 "electric_quadrupole_moment_norm": 29.4085532738, 
			 "total_energy": -1067.67075561, 
			 "HOMO_LUMO_gap": 0.25555, 
			 "cosmo_polarized_energy": -22.14, 
			 "cosmo_cavitation_energy": 32.6, 
			 "cosmo_dispersion_energy": -23.56, 
			 "cosmo_repulsion_energy": 1.85, 
			 "cosmo_total_nonelectrostatic_energy": 10.89, 
			 "SMD_solvation_energy": 4.52 
		},
		"coords": [
			{
				"x": -0.8516882756,
				"y": 2.3577448307,
				"z": -1.6193989406,
				"element": "O" 
			},
			{
				"x": -1.5827086405,
				"y": 1.219416839,
				"z": -1.7724062207,
				"element": "C" 
			},
			{
				"x": -2.7000929796,
				"y": 1.1578940645,
				"z": -1.325875163,
				"element": "O" 
			},
			{
				"x": -0.902474285,
				"y": 0.0815663266,
				"z": -2.5282392733,
				"element": "C" 
			},
			{
				"x": 0.5086943699,
				"y": -0.2787709763,
				"z": -2.027968554,
				"element": "C" 
			},
			{
				"x": 0.528123078,
				"y": -0.6636808024,
				"z": -0.5460584127,
				"element": "C" 
			},
			{
				"x": 2.2114999139,
				"y": -1.0767413816,
				"z": -0.0096914435,
				"element": "S" 
			},
			{
				"x": 2.6053908925,
				"y": -2.3052817181,
				"z": -0.7119318177,
				"element": "O" 
			},
			{
				"x": 3.0084767456,
				"y": 0.152336896,
				"z": -0.1388931376,
				"element": "O" 
			},
			{
				"x": 2.0157896677,
				"y": -1.4364457758,
				"z": 1.6127106358,
				"element": "N" 
			},
			{
				"x": 2.1531843271,
				"y": -2.8502058675,
				"z": 2.0540946945,
				"element": "C" 
			},
			{
				"x": 2.4170232401,
				"y": -2.7160547396,
				"z": 3.5605522758,
				"element": "C" 
			},
			{
				"x": 3.2019689761,
				"y": -1.3993451952,
				"z": 3.6690767183,
				"element": "C" 
			},
			{
				"x": 2.4977038935,
				"y": -0.4895806731,
				"z": 2.6534085015,
				"element": "C" 
			},
			{
				"x": 0.0176258227,
				"y": 2.2662253701,
				"z": -2.0352167988,
				"element": "H" 
			},
			{
				"x": -0.845231976,
				"y": 0.3615880147,
				"z": -3.5885119165,
				"element": "H" 
			},
			{
				"x": -1.5717539759,
				"y": -0.7787505737,
				"z": -2.4581556271,
				"element": "H" 
			},
			{
				"x": 1.2106816154,
				"y": 0.5495816182,
				"z": -2.1862616878,
				"element": "H" 
			},
			{
				"x": 0.8922797114,
				"y": -1.1139455517,
				"z": -2.6216639448,
				"element": "H" 
			},
			{
				"x": -0.0906745492,
				"y": -1.5423723556,
				"z": -0.3437664005,
				"element": "H" 
			},
			{
				"x": 0.1968465207,
				"y": 0.1569264693,
				"z": 0.0969736743,
				"element": "H" 
			},
			{
				"x": 1.2425261733,
				"y": -3.4151903086,
				"z": 1.8330361099,
				"element": "H" 
			},
			{
				"x": 2.9867955367,
				"y": -3.3369829039,
				"z": 1.538590766,
				"element": "H" 
			},
			{
				"x": 2.959188372,
				"y": -3.5794859894,
				"z": 3.9554735663,
				"element": "H" 
			},
			{
				"x": 1.4692401471,
				"y": -2.6360108765,
				"z": 4.1048094922,
				"element": "H" 
			},
			{
				"x": 4.244397373,
				"y": -1.5557280255,
				"z": 3.3696288254,
				"element": "H" 
			},
			{
				"x": 3.1991179786,
				"y": -0.9765223489,
				"z": 4.6774097164,
				"element": "H" 
			},
			{
				"x": 3.1538006226,
				"y": 0.2616238252,
				"z": 2.2121014252,
				"element": "H" 
			},
			{
				"x": 1.6400697039,
				"y": 0.0220918092,
				"z": 3.1084729372,
				"element": "H" 
			}
		],
		 "valence_orbital": [ 
			{
				"type": "occ",
				"energy": -0.31324,
				"method": "rhf"
			},
			{
				"type": "occ",
				"energy": -0.30163,
				"method": "rhf"
			},
			{
				"type": "occ",
				"energy": -0.2984,
				"method": "rhf"
			},
			{
				"type": "occ",
				"energy": -0.27356,
				"method": "rhf"
			},
			{
				"type": "occ",
				"energy": -0.25397,
				"method": "rhf"
			},
			{
				"type": "unocc",
				"energy": 0.00158,
				"method": "rhf"
			},
			{
				"type": "unocc",
				"energy": 0.03793,
				"method": "rhf"
			},
			{
				"type": "unocc",
				"energy": 0.06454,
				"method": "rhf"
			},
			{
				"type": "unocc",
				"energy": 0.06756,
				"method": "rhf"
			},
			{
				"type": "unocc",
				"energy": 0.08026,
				"method": "rhf"
			}
		],
		"cosmo_sigma_profile": { 
			"-0.025": 0.0,
			"-0.024": 0.0,
			"-0.023": 0.0,
			"-0.022": 0.0,
			"-0.021": 0.0,
			"-0.02": 0.0,
			"-0.019": 0.136325659691,
			"-0.018": 0.890572322573,
			"-0.017": 1.43889859138,
			"-0.016": 0.910401892476,
			"-0.015": 0.960678083534,
			"-0.014": 0.752803104361,
			"-0.013": 0.819716771394,
			"-0.012": 1.39124605739,
			"-0.011": 1.30227593012,
			"-0.01": 1.25840734237,
			"-0.009": 1.54111263413,
			"-0.008": 4.05259685779,
			"-0.007": 9.42178528741,
			"-0.006": 9.86678168679,
			"-0.005": 15.8337881384,
			"-0.004": 29.3399763002,
			"-0.003": 34.3437353998,
			"-0.002": 26.0114492491,
			"-0.001": 16.8988417078,
			"0.0": 11.3157504106,
			"0.001": 4.98795008223,
			"0.002": 5.90908054284,
			"0.003": 5.39612292764,
			"0.004": 5.17742549096,
			"0.005": 4.81224744018,
			"0.006": 4.80154459768,
			"0.007": 3.5259230634,
			"0.008": 6.20851177492,
			"0.009": 6.81280250983,
			"0.01": 8.42312899807,
			"0.011": 15.3815919914,
			"0.012": 11.4283840575,
			"0.013": 3.14074550022,
			"0.014": 0.0702638548368,
			"0.015": 0.0,
			"0.016": 0.0,
			"0.017": 0.0,
			"0.018": 0.0,
			"0.019": 0.0,
			"0.02": 0.0,
			"0.021": 0.0,
			"0.022": 0.0,
			"0.023": 0.0,
			"0.024": 0.0,
			"0.025": 0.0
		}
	}
}
