{
	 "smiles": "O=C(C=CC=CC1=CC2=C(OCO2)C=C1)N1CCCCC1", 
	 "Tm": 404.15, 
	 "num_atms": 40, 
	 "gaussian": { 
		 "optdone": 1, 
		 "sigma_profile": "yes", 
		 "theory": "DFT", 
		 "functional": "B3LYP", 
		 "basiset": "6-31G**", 
		 "properties": { 
			 "R2extent": 13284.7596, 
			 "electric_dipole_moment_norm": 3.93020143122, 
			 "electric_quadrupole_moment_norm": 23.094069414, 
			 "total_energy": -939.651388376, 
			 "HOMO_LUMO_gap": 0.13391, 
			 "cosmo_polarized_energy": -15.38, 
			 "cosmo_cavitation_energy": 42.76, 
			 "cosmo_dispersion_energy": -31.5, 
			 "cosmo_repulsion_energy": 2.4, 
			 "cosmo_total_nonelectrostatic_energy": 13.66, 
			 "SMD_solvation_energy": 7.43 
		},
		"coords": [
			{
				"x": -1.6555549731,
				"y": -3.1469720909,
				"z": -1.7918742475,
				"element": "O" 
			},
			{
				"x": -0.604125893,
				"y": -2.5049261684,
				"z": -1.7134628602,
				"element": "C" 
			},
			{
				"x": -0.5096797189,
				"y": -1.3068668055,
				"z": -0.8350443944,
				"element": "C" 
			},
			{
				"x": -1.5514925404,
				"y": -0.9910724911,
				"z": -0.0371382641,
				"element": "C" 
			},
			{
				"x": -1.6645502175,
				"y": 0.1528653349,
				"z": 0.853254789,
				"element": "C" 
			},
			{
				"x": -0.930843034,
				"y": 1.2879006011,
				"z": 0.7828158984,
				"element": "C" 
			},
			{
				"x": -1.004599033,
				"y": 2.4501915188,
				"z": 1.6640690372,
				"element": "C" 
			},
			{
				"x": -1.8179201718,
				"y": 2.4727075663,
				"z": 2.829936028,
				"element": "C" 
			},
			{
				"x": -1.8212979846,
				"y": 3.6239593843,
				"z": 3.5806957208,
				"element": "C" 
			},
			{
				"x": -1.0576577901,
				"y": 4.7429720381,
				"z": 3.2403824552,
				"element": "C" 
			},
			{
				"x": -1.2378579358,
				"y": 5.7293875183,
				"z": 4.1745354593,
				"element": "O" 
			},
			{
				"x": -2.2450045671,
				"y": 5.2427084066,
				"z": 5.0719855173,
				"element": "C" 
			},
			{
				"x": -2.505102586,
				"y": 3.8737040925,
				"z": 4.7463682557,
				"element": "O" 
			},
			{
				"x": -0.2498595585,
				"y": 4.7526338987,
				"z": 2.1209443087,
				"element": "C" 
			},
			{
				"x": -0.239345951,
				"y": 3.5857093537,
				"z": 1.3408080154,
				"element": "C" 
			},
			{
				"x": 0.5063603989,
				"y": -2.8689360091,
				"z": -2.4537247396,
				"element": "N" 
			},
			{
				"x": 1.8590906718,
				"y": -2.3262429489,
				"z": -2.3498677562,
				"element": "C" 
			},
			{
				"x": 2.8542125404,
				"y": -3.403328571,
				"z": -1.8847490105,
				"element": "C" 
			},
			{
				"x": 2.790302368,
				"y": -4.643097708,
				"z": -2.7886466694,
				"element": "C" 
			},
			{
				"x": 1.3466183951,
				"y": -5.1527131379,
				"z": -2.9109754597,
				"element": "C" 
			},
			{
				"x": 0.4016347726,
				"y": -4.0249510449,
				"z": -3.347958329,
				"element": "C" 
			},
			{
				"x": 0.3803631017,
				"y": -0.6888446307,
				"z": -0.8346287707,
				"element": "H" 
			},
			{
				"x": -2.3921810868,
				"y": -1.6817502602,
				"z": -0.0598691863,
				"element": "H" 
			},
			{
				"x": -2.4395223397,
				"y": 0.0714702549,
				"z": 1.6128713796,
				"element": "H" 
			},
			{
				"x": -0.2116797582,
				"y": 1.3813377535,
				"z": -0.0299288198,
				"element": "H" 
			},
			{
				"x": -2.4109758788,
				"y": 1.6176400418,
				"z": 3.1309431177,
				"element": "H" 
			},
			{
				"x": -3.1628058766,
				"y": 5.8331190639,
				"z": 4.9448724904,
				"element": "H" 
			},
			{
				"x": -1.8780145798,
				"y": 5.3109931091,
				"z": 6.1012594841,
				"element": "H" 
			},
			{
				"x": 0.3459610046,
				"y": 5.6199569198,
				"z": 1.8607618836,
				"element": "H" 
			},
			{
				"x": 0.3797887503,
				"y": 3.5595230245,
				"z": 0.4489458222,
				"element": "H" 
			},
			{
				"x": 1.8808661632,
				"y": -1.4789668041,
				"z": -1.6673445111,
				"element": "H" 
			},
			{
				"x": 2.1644814068,
				"y": -1.9518861515,
				"z": -3.3395448352,
				"element": "H" 
			},
			{
				"x": 3.8660889507,
				"y": -2.9802451631,
				"z": -1.8757733692,
				"element": "H" 
			},
			{
				"x": 2.6096577668,
				"y": -3.6833295914,
				"z": -0.8520736278,
				"element": "H" 
			},
			{
				"x": 3.44844966,
				"y": -5.4304580385,
				"z": -2.4037952656,
				"element": "H" 
			},
			{
				"x": 3.1670995224,
				"y": -4.3799948166,
				"z": -3.7876819033,
				"element": "H" 
			},
			{
				"x": 1.0050450755,
				"y": -5.5430440027,
				"z": -1.9439821312,
				"element": "H" 
			},
			{
				"x": 1.2873195504,
				"y": -5.9773624397,
				"z": -3.6312371446,
				"element": "H" 
			},
			{
				"x": -0.6391209229,
				"y": -4.3455371125,
				"z": -3.3422194693,
				"element": "H" 
			},
			{
				"x": 0.6626522987,
				"y": -3.699353894,
				"z": -4.3668288982,
				"element": "H" 
			}
		],
		 "valence_orbital": [ 
			{
				"type": "occ",
				"energy": -0.26041,
				"method": "rhf"
			},
			{
				"type": "occ",
				"energy": -0.23774,
				"method": "rhf"
			},
			{
				"type": "occ",
				"energy": -0.23326,
				"method": "rhf"
			},
			{
				"type": "occ",
				"energy": -0.22439,
				"method": "rhf"
			},
			{
				"type": "occ",
				"energy": -0.19712,
				"method": "rhf"
			},
			{
				"type": "unocc",
				"energy": -0.06321,
				"method": "rhf"
			},
			{
				"type": "unocc",
				"energy": -0.00458,
				"method": "rhf"
			},
			{
				"type": "unocc",
				"energy": 0.0117,
				"method": "rhf"
			},
			{
				"type": "unocc",
				"energy": 0.06759,
				"method": "rhf"
			},
			{
				"type": "unocc",
				"energy": 0.08355,
				"method": "rhf"
			}
		],
		"cosmo_sigma_profile": { 
			"-0.025": 0.0,
			"-0.024": 0.0,
			"-0.023": 0.0,
			"-0.022": 0.0,
			"-0.021": 0.0,
			"-0.02": 0.0,
			"-0.019": 0.0,
			"-0.018": 0.0,
			"-0.017": 0.0,
			"-0.016": 0.0,
			"-0.015": 0.0,
			"-0.014": 0.0,
			"-0.013": 0.0,
			"-0.012": 0.0,
			"-0.011": 0.0,
			"-0.01": 0.0,
			"-0.009": 0.137149609335,
			"-0.008": 6.11592382307,
			"-0.007": 15.3152740517,
			"-0.006": 16.5713882911,
			"-0.005": 15.536246826,
			"-0.004": 19.0055025226,
			"-0.003": 33.4971735046,
			"-0.002": 37.4162244382,
			"-0.001": 31.9426481929,
			"0.0": 29.4340034322,
			"0.001": 21.1431013665,
			"0.002": 22.0311245603,
			"0.003": 22.5449270848,
			"0.004": 22.4486063426,
			"0.005": 12.4190018385,
			"0.006": 4.28185380288,
			"0.007": 4.65480999278,
			"0.008": 4.38542591186,
			"0.009": 5.23080408507,
			"0.01": 2.89985941901,
			"0.011": 0.874857949927,
			"0.012": 1.54697743978,
			"0.013": 2.03391763685,
			"0.014": 3.65114277037,
			"0.015": 3.5915874081,
			"0.016": 0.00262946600256,
			"0.017": 0.0,
			"0.018": 0.0,
			"0.019": 0.0,
			"0.02": 0.0,
			"0.021": 0.0,
			"0.022": 0.0,
			"0.023": 0.0,
			"0.024": 0.0,
			"0.025": 0.0
		}
	}
}
