{
	 "smiles": "CC1CC(=O)NC1=O", 
	 "Tm": 335.15, 
	 "num_atms": 15, 
	 "gaussian": { 
		 "optdone": 1, 
		 "sigma_profile": "yes", 
		 "theory": "DFT", 
		 "functional": "B3LYP", 
		 "basiset": "6-31G**", 
		 "properties": { 
			 "R2extent": 1368.6303, 
			 "electric_dipole_moment_norm": 1.98217391265, 
			 "electric_quadrupole_moment_norm": 11.2987956801, 
			 "total_energy": -399.986589793, 
			 "HOMO_LUMO_gap": 0.23664, 
			 "cosmo_polarized_energy": -12.74, 
			 "cosmo_cavitation_energy": 18.75, 
			 "cosmo_dispersion_energy": -13.99, 
			 "cosmo_repulsion_energy": 1.19, 
			 "cosmo_total_nonelectrostatic_energy": 5.95, 
			 "SMD_solvation_energy": 4.78 
		},
		"coords": [
			{
				"x": 1.0399553168,
				"y": 2.6662222576,
				"z": 1.0190845003,
				"element": "C" 
			},
			{
				"x": 0.4591484834,
				"y": 1.2716049513,
				"z": 0.7692619151,
				"element": "C" 
			},
			{
				"x": -0.110627818,
				"y": 0.5405921473,
				"z": 2.0027097295,
				"element": "C" 
			},
			{
				"x": -1.4747952582,
				"y": 0.0026918578,
				"z": 1.5745357415,
				"element": "C" 
			},
			{
				"x": -2.2230634234,
				"y": -0.7194821193,
				"z": 2.1946761895,
				"element": "O" 
			},
			{
				"x": -1.7303020213,
				"y": 0.5251846132,
				"z": 0.3073949851,
				"element": "N" 
			},
			{
				"x": -0.7113012715,
				"y": 1.3120870152,
				"z": -0.2228158771,
				"element": "C" 
			},
			{
				"x": -0.7607586357,
				"y": 1.9000583013,
				"z": -1.2812981834,
				"element": "O" 
			},
			{
				"x": 1.9322866552,
				"y": 2.6084052674,
				"z": 1.6491540473,
				"element": "H" 
			},
			{
				"x": 1.3112384425,
				"y": 3.1359512476,
				"z": 0.0705071875,
				"element": "H" 
			},
			{
				"x": 0.3103882679,
				"y": 3.3113587566,
				"z": 1.5202410435,
				"element": "H" 
			},
			{
				"x": 1.228322875,
				"y": 0.651235341,
				"z": 0.2908074171,
				"element": "H" 
			},
			{
				"x": -0.2681907538,
				"y": 1.2209285291,
				"z": 2.8475832282,
				"element": "H" 
			},
			{
				"x": 0.5104185435,
				"y": -0.2819190546,
				"z": 2.3657584901,
				"element": "H" 
			},
			{
				"x": -2.6000194022,
				"y": 0.3577808884,
				"z": -0.1831004142,
				"element": "H" 
			}
		],
		 "valence_orbital": [ 
			{
				"type": "occ",
				"energy": -0.3748,
				"method": "rhf"
			},
			{
				"type": "occ",
				"energy": -0.34864,
				"method": "rhf"
			},
			{
				"type": "occ",
				"energy": -0.29383,
				"method": "rhf"
			},
			{
				"type": "occ",
				"energy": -0.28721,
				"method": "rhf"
			},
			{
				"type": "occ",
				"energy": -0.2589,
				"method": "rhf"
			},
			{
				"type": "unocc",
				"energy": -0.02226,
				"method": "rhf"
			},
			{
				"type": "unocc",
				"energy": 0.0228,
				"method": "rhf"
			},
			{
				"type": "unocc",
				"energy": 0.07933,
				"method": "rhf"
			},
			{
				"type": "unocc",
				"energy": 0.09796,
				"method": "rhf"
			},
			{
				"type": "unocc",
				"energy": 0.12134,
				"method": "rhf"
			}
		],
		"cosmo_sigma_profile": { 
			"-0.025": 0.0,
			"-0.024": 0.0,
			"-0.023": 0.0,
			"-0.022": 0.0,
			"-0.021": 0.0,
			"-0.02": 0.0,
			"-0.019": 0.0,
			"-0.018": 0.0,
			"-0.017": 0.0493673681157,
			"-0.016": 0.960811765887,
			"-0.015": 1.3786052071,
			"-0.014": 1.03275472138,
			"-0.013": 0.897629072519,
			"-0.012": 0.631025292993,
			"-0.011": 0.982654492918,
			"-0.01": 0.861326282933,
			"-0.009": 0.363957689386,
			"-0.008": 1.99011469752,
			"-0.007": 8.5256650933,
			"-0.006": 12.0853752374,
			"-0.005": 9.2017004347,
			"-0.004": 12.2189284817,
			"-0.003": 14.8286808801,
			"-0.002": 12.8724927039,
			"-0.001": 9.33947662676,
			"0.0": 7.81491167995,
			"0.001": 4.4063508859,
			"0.002": 3.55102101732,
			"0.003": 2.52233450401,
			"0.004": 1.95757528608,
			"0.005": 3.06648290498,
			"0.006": 2.63126313597,
			"0.007": 2.74383298533,
			"0.008": 2.89788613287,
			"0.009": 2.36108413776,
			"0.01": 4.48660501381,
			"0.011": 6.91650203226,
			"0.012": 10.5159240477,
			"0.013": 3.47031787071,
			"0.014": 0.05327319473,
			"0.015": 0.0,
			"0.016": 0.0,
			"0.017": 0.0,
			"0.018": 0.0,
			"0.019": 0.0,
			"0.02": 0.0,
			"0.021": 0.0,
			"0.022": 0.0,
			"0.023": 0.0,
			"0.024": 0.0,
			"0.025": 0.0
		}
	}
}
