{
	 "smiles": "NC1=CC(=CC=C1)[N+]([O-])=O", 
	 "Tm": 386.15, 
	 "num_atms": 16, 
	 "gaussian": { 
		 "optdone": 1, 
		 "sigma_profile": "yes", 
		 "theory": "DFT", 
		 "functional": "B3LYP", 
		 "basiset": "6-31G**", 
		 "properties": { 
			 "R2extent": 1792.9186, 
			 "electric_dipole_moment_norm": 5.64140634239, 
			 "electric_quadrupole_moment_norm": 12.6074205439, 
			 "total_energy": -492.108345972, 
			 "HOMO_LUMO_gap": 0.14302, 
			 "cosmo_polarized_energy": -12.24, 
			 "cosmo_cavitation_energy": 20.88, 
			 "cosmo_dispersion_energy": -15.62, 
			 "cosmo_repulsion_energy": 1.27, 
			 "cosmo_total_nonelectrostatic_energy": 6.53, 
			 "SMD_solvation_energy": 5.91 
		},
		"coords": [
			{
				"x": 1.5236546348,
				"y": 0.0426448848,
				"z": 2.2673028533,
				"element": "N" 
			},
			{
				"x": 0.8086737011,
				"y": 0.2570166502,
				"z": 1.0952398517,
				"element": "C" 
			},
			{
				"x": 1.4703502439,
				"y": 0.3495547562,
				"z": -0.1390197026,
				"element": "C" 
			},
			{
				"x": 0.7195863923,
				"y": 0.5071506215,
				"z": -1.2988363757,
				"element": "C" 
			},
			{
				"x": -0.6710866068,
				"y": 0.5801778214,
				"z": -1.3019803755,
				"element": "C" 
			},
			{
				"x": -1.3191652975,
				"y": 0.4878831796,
				"z": -0.0705117253,
				"element": "C" 
			},
			{
				"x": -0.5983355323,
				"y": 0.3291935502,
				"z": 1.1105060173,
				"element": "C" 
			},
			{
				"x": 1.4379966439,
				"y": 0.6062444346,
				"z": -2.5831364786,
				"element": "N" 
			},
			{
				"x": 0.766067214,
				"y": 0.7421542833,
				"z": -3.6047340516,
				"element": "O" 
			},
			{
				"x": 2.6675621247,
				"y": 0.5478461403,
				"z": -2.5591190049,
				"element": "O" 
			},
			{
				"x": 1.0641985182,
				"y": 0.3164075069,
				"z": 3.1238996324,
				"element": "H" 
			},
			{
				"x": 2.4986645086,
				"y": 0.3051762614,
				"z": 2.24604974,
				"element": "H" 
			},
			{
				"x": 2.5501859673,
				"y": 0.2978188846,
				"z": -0.2097927444,
				"element": "H" 
			},
			{
				"x": -1.2056844375,
				"y": 0.7048417361,
				"z": -2.2338339431,
				"element": "H" 
			},
			{
				"x": -2.4026992703,
				"y": 0.5418054592,
				"z": -0.0291729137,
				"element": "H" 
			},
			{
				"x": -1.1236688044,
				"y": 0.2549838296,
				"z": 2.0592392206,
				"element": "H" 
			}
		],
		 "valence_orbital": [ 
			{
				"type": "occ",
				"energy": -0.30341,
				"method": "rhf"
			},
			{
				"type": "occ",
				"energy": -0.30105,
				"method": "rhf"
			},
			{
				"type": "occ",
				"energy": -0.28442,
				"method": "rhf"
			},
			{
				"type": "occ",
				"energy": -0.2746,
				"method": "rhf"
			},
			{
				"type": "occ",
				"energy": -0.22501,
				"method": "rhf"
			},
			{
				"type": "unocc",
				"energy": -0.08199,
				"method": "rhf"
			},
			{
				"type": "unocc",
				"energy": -0.01027,
				"method": "rhf"
			},
			{
				"type": "unocc",
				"energy": 0.01333,
				"method": "rhf"
			},
			{
				"type": "unocc",
				"energy": 0.06608,
				"method": "rhf"
			},
			{
				"type": "unocc",
				"energy": 0.08876,
				"method": "rhf"
			}
		],
		"cosmo_sigma_profile": { 
			"-0.025": 0.0,
			"-0.024": 0.0,
			"-0.023": 0.0,
			"-0.022": 0.0,
			"-0.021": 0.0,
			"-0.02": 0.0,
			"-0.019": 0.0,
			"-0.018": 0.0,
			"-0.017": 0.0,
			"-0.016": 0.0,
			"-0.015": 0.0,
			"-0.014": 0.10852271744,
			"-0.013": 2.21958131949,
			"-0.012": 3.37156223984,
			"-0.011": 3.01769675934,
			"-0.01": 3.81605408119,
			"-0.009": 3.03615510537,
			"-0.008": 3.17664744435,
			"-0.007": 5.80798119863,
			"-0.006": 7.7173372185,
			"-0.005": 9.93346728211,
			"-0.004": 7.29621104862,
			"-0.003": 7.15682349174,
			"-0.002": 7.93341787369,
			"-0.001": 8.22524192491,
			"0.0": 10.7379154733,
			"0.001": 11.1955886866,
			"0.002": 11.6121806248,
			"0.003": 14.9102749907,
			"0.004": 8.24433846957,
			"0.005": 4.3009821583,
			"0.006": 4.16580126989,
			"0.007": 7.28425813512,
			"0.008": 10.0370031454,
			"0.009": 5.21554723435,
			"0.01": 3.91527909925,
			"0.011": 1.22073640583,
			"0.012": 0.636290893111,
			"0.013": 0.467568800758,
			"0.014": 0.0401972518036,
			"0.015": 0.0,
			"0.016": 0.0,
			"0.017": 0.0,
			"0.018": 0.0,
			"0.019": 0.0,
			"0.02": 0.0,
			"0.021": 0.0,
			"0.022": 0.0,
			"0.023": 0.0,
			"0.024": 0.0,
			"0.025": 0.0
		}
	}
}
