{
	 "smiles": "CSCC1=C(OC2=C1C=CC=C2)C(O)=O", 
	 "Tm": 374.15, 
	 "num_atms": 25, 
	 "gaussian": { 
		 "optdone": 1, 
		 "sigma_profile": "yes", 
		 "theory": "DFT", 
		 "functional": "B3LYP", 
		 "basiset": "6-31G**", 
		 "properties": { 
			 "R2extent": 3796.2591, 
			 "electric_dipole_moment_norm": 3.07674534858, 
			 "electric_quadrupole_moment_norm": 11.0399918528, 
			 "total_energy": -1049.06491946, 
			 "HOMO_LUMO_gap": 0.15444, 
			 "cosmo_polarized_energy": -13.64, 
			 "cosmo_cavitation_energy": 30.96, 
			 "cosmo_dispersion_energy": -22.48, 
			 "cosmo_repulsion_energy": 1.71, 
			 "cosmo_total_nonelectrostatic_energy": 10.19, 
			 "SMD_solvation_energy": 6.55 
		},
		"coords": [
			{
				"x": -1.8860040394,
				"y": -2.034036915,
				"z": 0.3318411859,
				"element": "C" 
			},
			{
				"x": -2.1105263159,
				"y": -0.5127126435,
				"z": 1.315927644,
				"element": "S" 
			},
			{
				"x": -0.3895011719,
				"y": -0.2191789102,
				"z": 1.9241741599,
				"element": "C" 
			},
			{
				"x": 0.5639739314,
				"y": 0.2766323606,
				"z": 0.884359207,
				"element": "C" 
			},
			{
				"x": 0.7627520317,
				"y": 1.5778283321,
				"z": 0.4924340764,
				"element": "C" 
			},
			{
				"x": 1.7074692991,
				"y": 1.6837514373,
				"z": -0.5059046098,
				"element": "O" 
			},
			{
				"x": 2.1338596397,
				"y": 0.4162553676,
				"z": -0.7579762554,
				"element": "C" 
			},
			{
				"x": 1.4640887055,
				"y": -0.5054285549,
				"z": 0.0704425777,
				"element": "C" 
			},
			{
				"x": 1.7866595636,
				"y": -1.8707077304,
				"z": -0.0327524387,
				"element": "C" 
			},
			{
				"x": 2.750199703,
				"y": -2.2534437222,
				"z": -0.9575773836,
				"element": "C" 
			},
			{
				"x": 3.3964132297,
				"y": -1.3047973035,
				"z": -1.7776863001,
				"element": "C" 
			},
			{
				"x": 3.0999962442,
				"y": 0.0525273487,
				"z": -1.6916803956,
				"element": "C" 
			},
			{
				"x": 0.1410133597,
				"y": 2.8039886546,
				"z": 0.9945314895,
				"element": "C" 
			},
			{
				"x": 0.5600104414,
				"y": 3.9144939402,
				"z": 0.3495953433,
				"element": "O" 
			},
			{
				"x": -0.6685736351,
				"y": 2.8283503244,
				"z": 1.9051610768,
				"element": "O" 
			},
			{
				"x": -1.2077588706,
				"y": -1.8767930762,
				"z": -0.5096909886,
				"element": "H" 
			},
			{
				"x": -1.5265134361,
				"y": -2.8606762323,
				"z": 0.9517792301,
				"element": "H" 
			},
			{
				"x": -2.8727605953,
				"y": -2.2953725855,
				"z": -0.0577150715,
				"element": "H" 
			},
			{
				"x": -0.5178338262,
				"y": 0.5348422941,
				"z": 2.7015067471,
				"element": "H" 
			},
			{
				"x": -0.0195800816,
				"y": -1.1408414009,
				"z": 2.3832725154,
				"element": "H" 
			},
			{
				"x": 1.2973023259,
				"y": -2.6087984192,
				"z": 0.5950366029,
				"element": "H" 
			},
			{
				"x": 3.0143495276,
				"y": -3.3021288652,
				"z": -1.0535267871,
				"element": "H" 
			},
			{
				"x": 4.1436930835,
				"y": -1.6407689069,
				"z": -2.490113252,
				"element": "H" 
			},
			{
				"x": 3.590649833,
				"y": 0.794298262,
				"z": -2.3118788818,
				"element": "H" 
			},
			{
				"x": 0.0846210534,
				"y": 4.6528169444,
				"z": 0.7656405083,
				"element": "H" 
			}
		],
		 "valence_orbital": [ 
			{
				"type": "occ",
				"energy": -0.29246,
				"method": "rhf"
			},
			{
				"type": "occ",
				"energy": -0.28353,
				"method": "rhf"
			},
			{
				"type": "occ",
				"energy": -0.25057,
				"method": "rhf"
			},
			{
				"type": "occ",
				"energy": -0.23624,
				"method": "rhf"
			},
			{
				"type": "occ",
				"energy": -0.21798,
				"method": "rhf"
			},
			{
				"type": "unocc",
				"energy": -0.06354,
				"method": "rhf"
			},
			{
				"type": "unocc",
				"energy": -0.00447,
				"method": "rhf"
			},
			{
				"type": "unocc",
				"energy": 0.00987,
				"method": "rhf"
			},
			{
				"type": "unocc",
				"energy": 0.04473,
				"method": "rhf"
			},
			{
				"type": "unocc",
				"energy": 0.0759,
				"method": "rhf"
			}
		],
		"cosmo_sigma_profile": { 
			"-0.025": 0.0,
			"-0.024": 0.0,
			"-0.023": 0.0,
			"-0.022": 0.0,
			"-0.021": 0.0,
			"-0.02": 0.0,
			"-0.019": 0.293969551715,
			"-0.018": 1.01628856598,
			"-0.017": 0.992625119997,
			"-0.016": 0.563767669428,
			"-0.015": 0.667883496752,
			"-0.014": 0.543414479082,
			"-0.013": 0.788965551146,
			"-0.012": 0.731434656313,
			"-0.011": 1.10390521633,
			"-0.01": 0.489574500267,
			"-0.009": 0.533853556632,
			"-0.008": 1.1617152929,
			"-0.007": 6.8507938992,
			"-0.006": 15.6592737786,
			"-0.005": 16.4109097833,
			"-0.004": 17.5878415931,
			"-0.003": 18.531291146,
			"-0.002": 18.9505448591,
			"-0.001": 20.7521931303,
			"0.0": 17.4489736277,
			"0.001": 14.9998258917,
			"0.002": 15.5074079801,
			"0.003": 14.0380389852,
			"0.004": 14.9680345442,
			"0.005": 9.43883775519,
			"0.006": 7.11691303799,
			"0.007": 6.42582730585,
			"0.008": 7.19694948469,
			"0.009": 6.40983426779,
			"0.01": 6.10311824988,
			"0.011": 4.07411772752,
			"0.012": 1.73065673014,
			"0.013": 0.0,
			"0.014": 0.0,
			"0.015": 0.0,
			"0.016": 0.0,
			"0.017": 0.0,
			"0.018": 0.0,
			"0.019": 0.0,
			"0.02": 0.0,
			"0.021": 0.0,
			"0.022": 0.0,
			"0.023": 0.0,
			"0.024": 0.0,
			"0.025": 0.0
		}
	}
}
