{
	 "smiles": "COC1=CC2=C(C=C1)N(C1CCCCC1)C(C)=C2C(O)=O", 
	 "Tm": 411.15, 
	 "num_atms": 42, 
	 "gaussian": { 
		 "optdone": 1, 
		 "sigma_profile": "yes", 
		 "theory": "DFT", 
		 "functional": "B3LYP", 
		 "basiset": "6-31G**", 
		 "properties": { 
			 "R2extent": 7288.4272, 
			 "electric_dipole_moment_norm": 6.36052197072, 
			 "electric_quadrupole_moment_norm": 21.3981080105, 
			 "total_energy": -940.903310076, 
			 "HOMO_LUMO_gap": 0.17319, 
			 "cosmo_polarized_energy": -19.12, 
			 "cosmo_cavitation_energy": 41.18, 
			 "cosmo_dispersion_energy": -29.57, 
			 "cosmo_repulsion_energy": 2.24, 
			 "cosmo_total_nonelectrostatic_energy": 13.85, 
			 "SMD_solvation_energy": 7.33 
		},
		"coords": [
			{
				"x": 5.6696244767,
				"y": -1.052441103,
				"z": -1.1773924597,
				"element": "C" 
			},
			{
				"x": 4.9501770484,
				"y": -0.4743422647,
				"z": -0.1003036857,
				"element": "O" 
			},
			{
				"x": 3.5850517523,
				"y": -0.4531126243,
				"z": -0.1872894694,
				"element": "C" 
			},
			{
				"x": 2.853302352,
				"y": -0.959730815,
				"z": -1.2538532046,
				"element": "C" 
			},
			{
				"x": 1.4514875964,
				"y": -0.8620895741,
				"z": -1.2050511873,
				"element": "C" 
			},
			{
				"x": 0.7892976608,
				"y": -0.2752736708,
				"z": -0.0999389461,
				"element": "C" 
			},
			{
				"x": 1.5467960465,
				"y": 0.2564546107,
				"z": 0.95695383,
				"element": "C" 
			},
			{
				"x": 2.9276302571,
				"y": 0.1566368538,
				"z": 0.9043632586,
				"element": "C" 
			},
			{
				"x": -0.5923145109,
				"y": -0.3048394891,
				"z": -0.3607440002,
				"element": "N" 
			},
			{
				"x": -1.7618251828,
				"y": 0.0605274954,
				"z": 0.4797894978,
				"element": "C" 
			},
			{
				"x": -1.5434819527,
				"y": 1.1536707129,
				"z": 1.5582669468,
				"element": "C" 
			},
			{
				"x": -1.1957808282,
				"y": 0.6857344962,
				"z": 2.9878992979,
				"element": "C" 
			},
			{
				"x": -2.0403313202,
				"y": -0.5083749834,
				"z": 3.4479194728,
				"element": "C" 
			},
			{
				"x": -1.9320869849,
				"y": -1.6467336234,
				"z": 2.4277481659,
				"element": "C" 
			},
			{
				"x": -2.470432232,
				"y": -1.1899953158,
				"z": 1.0675805361,
				"element": "C" 
			},
			{
				"x": -0.7862094379,
				"y": -0.882334562,
				"z": -1.6085760066,
				"element": "C" 
			},
			{
				"x": -2.1330824462,
				"y": -0.8988441748,
				"z": -2.274615005,
				"element": "C" 
			},
			{
				"x": 0.4391259051,
				"y": -1.2658529363,
				"z": -2.1427324156,
				"element": "C" 
			},
			{
				"x": 0.7410932486,
				"y": -1.9095967488,
				"z": -3.4317759262,
				"element": "C" 
			},
			{
				"x": -0.2385156958,
				"y": -2.7022114072,
				"z": -3.9792098432,
				"element": "O" 
			},
			{
				"x": 1.7963615539,
				"y": -1.8013862795,
				"z": -4.0185191193,
				"element": "O" 
			},
			{
				"x": 5.4882207939,
				"y": -0.5183844221,
				"z": -2.1189440279,
				"element": "H" 
			},
			{
				"x": 6.7256986438,
				"y": -0.9713973835,
				"z": -0.9141314354,
				"element": "H" 
			},
			{
				"x": 5.4108160543,
				"y": -2.1102567721,
				"z": -1.315993019,
				"element": "H" 
			},
			{
				"x": 3.3150131686,
				"y": -1.394625159,
				"z": -2.1295714072,
				"element": "H" 
			},
			{
				"x": 1.095744711,
				"y": 0.7636214609,
				"z": 1.7945221685,
				"element": "H" 
			},
			{
				"x": 3.538032724,
				"y": 0.5635112571,
				"z": 1.7037116165,
				"element": "H" 
			},
			{
				"x": -2.4576751134,
				"y": 0.5068391645,
				"z": -0.2352207973,
				"element": "H" 
			},
			{
				"x": -2.5013560647,
				"y": 1.6853923947,
				"z": 1.6211519047,
				"element": "H" 
			},
			{
				"x": -0.8194229851,
				"y": 1.891104261,
				"z": 1.1976042596,
				"element": "H" 
			},
			{
				"x": -1.3257246281,
				"y": 1.5361743786,
				"z": 3.6675274976,
				"element": "H" 
			},
			{
				"x": -0.1452798248,
				"y": 0.3921938128,
				"z": 3.0650989968,
				"element": "H" 
			},
			{
				"x": -3.0942099823,
				"y": -0.2126746699,
				"z": 3.5521982911,
				"element": "H" 
			},
			{
				"x": -1.7075219516,
				"y": -0.8388832458,
				"z": 4.4382672666,
				"element": "H" 
			},
			{
				"x": -0.8842512767,
				"y": -1.9614451031,
				"z": 2.3322182859,
				"element": "H" 
			},
			{
				"x": -2.4946440931,
				"y": -2.5254133546,
				"z": 2.7636744417,
				"element": "H" 
			},
			{
				"x": -2.4229106118,
				"y": -2.0084692278,
				"z": 0.3435914875,
				"element": "H" 
			},
			{
				"x": -3.5335028864,
				"y": -0.9368899145,
				"z": 1.1847015497,
				"element": "H" 
			},
			{
				"x": -2.0285440526,
				"y": -1.2072278026,
				"z": -3.3152544412,
				"element": "H" 
			},
			{
				"x": -2.8567245172,
				"y": -1.5633429484,
				"z": -1.7885447782,
				"element": "H" 
			},
			{
				"x": -2.5782125845,
				"y": 0.1026445684,
				"z": -2.2876781406,
				"element": "H" 
			},
			{
				"x": -0.8979328293,
				"y": -2.9001358916,
				"z": -3.3008494567,
				"element": "H" 
			}
		],
		 "valence_orbital": [ 
			{
				"type": "occ",
				"energy": -0.28712,
				"method": "rhf"
			},
			{
				"type": "occ",
				"energy": -0.27295,
				"method": "rhf"
			},
			{
				"type": "occ",
				"energy": -0.25515,
				"method": "rhf"
			},
			{
				"type": "occ",
				"energy": -0.20847,
				"method": "rhf"
			},
			{
				"type": "occ",
				"energy": -0.19702,
				"method": "rhf"
			},
			{
				"type": "unocc",
				"energy": -0.02383,
				"method": "rhf"
			},
			{
				"type": "unocc",
				"energy": 0.00693,
				"method": "rhf"
			},
			{
				"type": "unocc",
				"energy": 0.03508,
				"method": "rhf"
			},
			{
				"type": "unocc",
				"energy": 0.0511,
				"method": "rhf"
			},
			{
				"type": "unocc",
				"energy": 0.07719,
				"method": "rhf"
			}
		],
		"cosmo_sigma_profile": { 
			"-0.025": 0.0,
			"-0.024": 0.0,
			"-0.023": 0.0,
			"-0.022": 0.0,
			"-0.021": 0.0,
			"-0.02": 0.0,
			"-0.019": 0.0,
			"-0.018": 0.0461474605144,
			"-0.017": 0.637853350347,
			"-0.016": 0.410308971405,
			"-0.015": 0.659737758345,
			"-0.014": 1.08518318533,
			"-0.013": 1.00167123124,
			"-0.012": 1.0970934124,
			"-0.011": 0.610585924639,
			"-0.01": 0.904442611574,
			"-0.009": 0.894908412874,
			"-0.008": 1.1106096765,
			"-0.007": 3.69238620852,
			"-0.006": 8.61591304171,
			"-0.005": 19.8706797776,
			"-0.004": 28.3008122764,
			"-0.003": 37.109524231,
			"-0.002": 40.3913306572,
			"-0.001": 36.9818129213,
			"0.0": 27.4988512194,
			"0.001": 18.6254167723,
			"0.002": 10.3418394326,
			"0.003": 9.31770383535,
			"0.004": 13.1226385356,
			"0.005": 15.0957304091,
			"0.006": 11.2472853455,
			"0.007": 5.64799945626,
			"0.008": 3.85766267533,
			"0.009": 4.92079950496,
			"0.01": 4.5738388222,
			"0.011": 5.82219402828,
			"0.012": 5.37585084394,
			"0.013": 3.69694731343,
			"0.014": 1.23333046192,
			"0.015": 0.0289246269706,
			"0.016": 0.0,
			"0.017": 0.0,
			"0.018": 0.0,
			"0.019": 0.0,
			"0.02": 0.0,
			"0.021": 0.0,
			"0.022": 0.0,
			"0.023": 0.0,
			"0.024": 0.0,
			"0.025": 0.0
		}
	}
}
