{
	 "smiles": "BrC1=CC=CC(COC2=CC=CC=C2)=C1", 
	 "Tm": 311.65, 
	 "num_atms": 26, 
	 "gaussian": { 
		 "optdone": 1, 
		 "sigma_profile": "yes", 
		 "theory": "DFT", 
		 "functional": "B3LYP", 
		 "basiset": "6-31G**", 
		 "properties": { 
			 "R2extent": 6173.6974, 
			 "electric_dipole_moment_norm": 2.42709951588, 
			 "electric_quadrupole_moment_norm": 9.71293350332, 
			 "total_energy": -3148.63186775, 
			 "HOMO_LUMO_gap": 0.20096, 
			 "cosmo_polarized_energy": -7.7, 
			 "cosmo_cavitation_energy": 32.37, 
			 "cosmo_dispersion_energy": -23.47, 
			 "cosmo_repulsion_energy": 1.86, 
			 "cosmo_total_nonelectrostatic_energy": 10.76, 
			 "SMD_solvation_energy": 4.41 
		},
		"coords": [
			{
				"x": 0.3439543282,
				"y": -1.9100896175,
				"z": 4.3182504692,
				"element": "Br" 
			},
			{
				"x": -0.7026761466,
				"y": -0.7842783091,
				"z": 3.1791382142,
				"element": "C" 
			},
			{
				"x": -1.1643568722,
				"y": 0.4365382613,
				"z": 3.6690303117,
				"element": "C" 
			},
			{
				"x": -1.9248660907,
				"y": 1.2497422381,
				"z": 2.8279717886,
				"element": "C" 
			},
			{
				"x": -2.2122361336,
				"y": 0.8462636051,
				"z": 1.5236508276,
				"element": "C" 
			},
			{
				"x": -1.7474425912,
				"y": -0.3836989779,
				"z": 1.044718382,
				"element": "C" 
			},
			{
				"x": -2.1209614815,
				"y": -0.8493327918,
				"z": -0.3516721733,
				"element": "C" 
			},
			{
				"x": -1.2005267533,
				"y": -1.7664073187,
				"z": -0.9281418386,
				"element": "O" 
			},
			{
				"x": -0.0464597561,
				"y": -1.2877637873,
				"z": -1.4999180225,
				"element": "C" 
			},
			{
				"x": 0.3889173555,
				"y": 0.0398401706,
				"z": -1.4275378314,
				"element": "C" 
			},
			{
				"x": 1.5795647802,
				"y": 0.4052782184,
				"z": -2.0640246404,
				"element": "C" 
			},
			{
				"x": 2.3375191435,
				"y": -0.5327892077,
				"z": -2.7614453284,
				"element": "C" 
			},
			{
				"x": 1.8967302493,
				"y": -1.859078649,
				"z": -2.8204444343,
				"element": "C" 
			},
			{
				"x": 0.7129484207,
				"y": -2.2381472816,
				"z": -2.1961842411,
				"element": "C" 
			},
			{
				"x": -0.9860873367,
				"y": -1.205508772,
				"z": 1.8826156028,
				"element": "C" 
			},
			{
				"x": -0.9308049399,
				"y": 0.7440990039,
				"z": 4.681721034,
				"element": "H" 
			},
			{
				"x": -2.2867825928,
				"y": 2.2063336479,
				"z": 3.1933535496,
				"element": "H" 
			},
			{
				"x": -2.7995559416,
				"y": 1.4916991144,
				"z": 0.8750634699,
				"element": "H" 
			},
			{
				"x": -2.2758708194,
				"y": 0.0129638098,
				"z": -1.0136296175,
				"element": "H" 
			},
			{
				"x": -3.0651997803,
				"y": -1.4040536702,
				"z": -0.3118019053,
				"element": "H" 
			},
			{
				"x": -0.1688359184,
				"y": 0.7815443353,
				"z": -0.8687695043,
				"element": "H" 
			},
			{
				"x": 1.9136147184,
				"y": 1.4372311249,
				"z": -2.0019028816,
				"element": "H" 
			},
			{
				"x": 3.261281688,
				"y": -0.2387497071,
				"z": -3.2498912867,
				"element": "H" 
			},
			{
				"x": 2.476907993,
				"y": -2.6030116527,
				"z": -3.3591120907,
				"element": "H" 
			},
			{
				"x": 0.3521582096,
				"y": -3.260808775,
				"z": -2.2369569584,
				"element": "H" 
			},
			{
				"x": -0.6161337319,
				"y": -2.155815012,
				"z": 1.5167191049,
				"element": "H" 
			}
		],
		 "valence_orbital": [ 
			{
				"type": "occ",
				"energy": -0.2857,
				"method": "rhf"
			},
			{
				"type": "occ",
				"energy": -0.26173,
				"method": "rhf"
			},
			{
				"type": "occ",
				"energy": -0.24842,
				"method": "rhf"
			},
			{
				"type": "occ",
				"energy": -0.24382,
				"method": "rhf"
			},
			{
				"type": "occ",
				"energy": -0.2207,
				"method": "rhf"
			},
			{
				"type": "unocc",
				"energy": -0.01974,
				"method": "rhf"
			},
			{
				"type": "unocc",
				"energy": -0.01795,
				"method": "rhf"
			},
			{
				"type": "unocc",
				"energy": 0.0012,
				"method": "rhf"
			},
			{
				"type": "unocc",
				"energy": 0.00785,
				"method": "rhf"
			},
			{
				"type": "unocc",
				"energy": 0.01372,
				"method": "rhf"
			}
		],
		"cosmo_sigma_profile": { 
			"-0.025": 0.0,
			"-0.024": 0.0,
			"-0.023": 0.0,
			"-0.022": 0.0,
			"-0.021": 0.0,
			"-0.02": 0.0,
			"-0.019": 0.0,
			"-0.018": 0.0,
			"-0.017": 0.0,
			"-0.016": 0.0,
			"-0.015": 0.0,
			"-0.014": 0.0,
			"-0.013": 0.0,
			"-0.012": 0.0,
			"-0.011": 0.0,
			"-0.01": 0.0,
			"-0.009": 0.0,
			"-0.008": 0.135904040919,
			"-0.007": 6.36907373634,
			"-0.006": 16.3997942513,
			"-0.005": 21.6182088387,
			"-0.004": 21.6913719107,
			"-0.003": 19.5510078004,
			"-0.002": 17.0980004993,
			"-0.001": 14.1218512075,
			"0.0": 16.7146401321,
			"0.001": 18.3672526445,
			"0.002": 22.4863224174,
			"0.003": 28.6107963689,
			"0.004": 26.7124103137,
			"0.005": 18.5770824986,
			"0.006": 9.10979959817,
			"0.007": 2.07703959737,
			"0.008": 1.29910747394,
			"0.009": 0.667761718836,
			"0.01": 0.88079640613,
			"0.011": 0.0619302531924,
			"0.012": 0.0,
			"0.013": 0.0,
			"0.014": 0.0,
			"0.015": 0.0,
			"0.016": 0.0,
			"0.017": 0.0,
			"0.018": 0.0,
			"0.019": 0.0,
			"0.02": 0.0,
			"0.021": 0.0,
			"0.022": 0.0,
			"0.023": 0.0,
			"0.024": 0.0,
			"0.025": 0.0
		}
	}
}
