{
	 "smiles": "CC1(C)CCC2=C(C1)C=C(C(O)=O)C(=O)N2", 
	 "Tm": 516.15, 
	 "num_atms": 31, 
	 "gaussian": { 
		 "optdone": 1, 
		 "sigma_profile": "yes", 
		 "theory": "DFT", 
		 "functional": "B3LYP", 
		 "basiset": "6-31G**", 
		 "properties": { 
			 "R2extent": 5352.4347, 
			 "electric_dipole_moment_norm": 9.20026793577, 
			 "electric_quadrupole_moment_norm": 41.6968425895, 
			 "total_energy": -746.802343054, 
			 "HOMO_LUMO_gap": 0.16373, 
			 "cosmo_polarized_energy": -19.72, 
			 "cosmo_cavitation_energy": 32.35, 
			 "cosmo_dispersion_energy": -23.73, 
			 "cosmo_repulsion_energy": 1.81, 
			 "cosmo_total_nonelectrostatic_energy": 10.44, 
			 "SMD_solvation_energy": 6.62 
		},
		"coords": [
			{
				"x": -1.9550257485,
				"y": -1.6514406507,
				"z": 0.9149132951,
				"element": "C" 
			},
			{
				"x": -0.4796779016,
				"y": -2.0994170332,
				"z": 0.8843550098,
				"element": "C" 
			},
			{
				"x": -0.3513959976,
				"y": -3.4518689223,
				"z": 1.6054038941,
				"element": "C" 
			},
			{
				"x": 0.427776825,
				"y": -1.0616918855,
				"z": 1.5854568385,
				"element": "C" 
			},
			{
				"x": 0.3862326381,
				"y": 0.3225528448,
				"z": 0.9213807053,
				"element": "C" 
			},
			{
				"x": 0.4597760254,
				"y": 0.232190514,
				"z": -0.5799437827,
				"element": "C" 
			},
			{
				"x": 0.2599705367,
				"y": -0.9337822985,
				"z": -1.2845660092,
				"element": "C" 
			},
			{
				"x": 0.0062677951,
				"y": -2.2498459455,
				"z": -0.5768928089,
				"element": "C" 
			},
			{
				"x": 0.328805292,
				"y": -0.8606587206,
				"z": -2.7011871308,
				"element": "C" 
			},
			{
				"x": 0.5811028239,
				"y": 0.3066890695,
				"z": -3.3803288117,
				"element": "C" 
			},
			{
				"x": 0.6341024031,
				"y": 0.293400479,
				"z": -4.8833276272,
				"element": "C" 
			},
			{
				"x": 0.8846705998,
				"y": 1.4704097668,
				"z": -5.4657967495,
				"element": "O" 
			},
			{
				"x": 0.4586882658,
				"y": -0.7265929307,
				"z": -5.5193553548,
				"element": "O" 
			},
			{
				"x": 0.7891499275,
				"y": 1.5343221528,
				"z": -2.6447260561,
				"element": "C" 
			},
			{
				"x": 1.0244298962,
				"y": 2.6559884115,
				"z": -3.1339002409,
				"element": "O" 
			},
			{
				"x": 0.707840518,
				"y": 1.393845,
				"z": -1.2626687162,
				"element": "N" 
			},
			{
				"x": -2.1266264053,
				"y": -0.7399682194,
				"z": 0.3340785159,
				"element": "H" 
			},
			{
				"x": -2.6000643987,
				"y": -2.4301070647,
				"z": 0.4941487616,
				"element": "H" 
			},
			{
				"x": -2.286576548,
				"y": -1.4652168492,
				"z": 1.9427127213,
				"element": "H" 
			},
			{
				"x": 0.6910362035,
				"y": -3.7877041086,
				"z": 1.6414569099,
				"element": "H" 
			},
			{
				"x": -0.9350556058,
				"y": -4.2258778831,
				"z": 1.0949233339,
				"element": "H" 
			},
			{
				"x": -0.7182482253,
				"y": -3.3837668498,
				"z": 2.6355366075,
				"element": "H" 
			},
			{
				"x": 1.4600833791,
				"y": -1.433993664,
				"z": 1.5720774012,
				"element": "H" 
			},
			{
				"x": 0.1431139736,
				"y": -0.9645812269,
				"z": 2.6394420793,
				"element": "H" 
			},
			{
				"x": 1.209596309,
				"y": 0.9458773076,
				"z": 1.2937960701,
				"element": "H" 
			},
			{
				"x": -0.5390037739,
				"y": 0.8497864233,
				"z": 1.193601443,
				"element": "H" 
			},
			{
				"x": -0.7242996954,
				"y": -2.8336124695,
				"z": -1.1506134629,
				"element": "H" 
			},
			{
				"x": 0.9331773094,
				"y": -2.8414388813,
				"z": -0.5847793454,
				"element": "H" 
			},
			{
				"x": 0.1761464283,
				"y": -1.754576674,
				"z": -3.3014594465,
				"element": "H" 
			},
			{
				"x": 0.9921036341,
				"y": 2.159619408,
				"z": -4.7577877052,
				"element": "H" 
			},
			{
				"x": 0.8549035166,
				"y": 2.2561608999,
				"z": -0.7493503385,
				"element": "H" 
			}
		],
		 "valence_orbital": [ 
			{
				"type": "occ",
				"energy": -0.31274,
				"method": "rhf"
			},
			{
				"type": "occ",
				"energy": -0.28515,
				"method": "rhf"
			},
			{
				"type": "occ",
				"energy": -0.27828,
				"method": "rhf"
			},
			{
				"type": "occ",
				"energy": -0.25489,
				"method": "rhf"
			},
			{
				"type": "occ",
				"energy": -0.23343,
				"method": "rhf"
			},
			{
				"type": "unocc",
				"energy": -0.0697,
				"method": "rhf"
			},
			{
				"type": "unocc",
				"energy": -0.00924,
				"method": "rhf"
			},
			{
				"type": "unocc",
				"energy": 0.04294,
				"method": "rhf"
			},
			{
				"type": "unocc",
				"energy": 0.05548,
				"method": "rhf"
			},
			{
				"type": "unocc",
				"energy": 0.06395,
				"method": "rhf"
			}
		],
		"cosmo_sigma_profile": { 
			"-0.025": 0.0,
			"-0.024": 0.0,
			"-0.023": 0.0,
			"-0.022": 0.0,
			"-0.021": 0.0,
			"-0.02": 0.0,
			"-0.019": 0.0,
			"-0.018": 0.0,
			"-0.017": 0.11302287515,
			"-0.016": 0.965744922759,
			"-0.015": 1.12836162687,
			"-0.014": 1.19443716567,
			"-0.013": 0.98884576655,
			"-0.012": 1.29236786059,
			"-0.011": 1.24953409967,
			"-0.01": 1.07757617162,
			"-0.009": 1.43317650916,
			"-0.008": 1.3016466915,
			"-0.007": 2.31239002617,
			"-0.006": 6.68564785937,
			"-0.005": 8.71498450227,
			"-0.004": 14.6976223344,
			"-0.003": 37.9382890287,
			"-0.002": 41.3902302455,
			"-0.001": 26.5719168272,
			"0.0": 23.9971684301,
			"0.001": 21.785407317,
			"0.002": 7.07850966202,
			"0.003": 3.95384382051,
			"0.004": 3.07996965514,
			"0.005": 2.9540332562,
			"0.006": 2.50068732719,
			"0.007": 3.82781254961,
			"0.008": 4.09922595453,
			"0.009": 3.81913354353,
			"0.01": 4.21446291086,
			"0.011": 6.7988895412,
			"0.012": 8.08866869625,
			"0.013": 6.22524812501,
			"0.014": 1.93370744936,
			"0.015": 0.0660588553947,
			"0.016": 0.0,
			"0.017": 0.0,
			"0.018": 0.0,
			"0.019": 0.0,
			"0.02": 0.0,
			"0.021": 0.0,
			"0.022": 0.0,
			"0.023": 0.0,
			"0.024": 0.0,
			"0.025": 0.0
		}
	}
}
