{
	 "smiles": "CS(=O)(=O)NC1=CC(=CC=C1)C(O)=O", 
	 "Tm": 504.15, 
	 "num_atms": 23, 
	 "gaussian": { 
		 "optdone": 1, 
		 "sigma_profile": "yes", 
		 "theory": "DFT", 
		 "functional": "B3LYP", 
		 "basiset": "6-31G**", 
		 "properties": { 
			 "R2extent": 4178.1212, 
			 "electric_dipole_moment_norm": 3.54219601519, 
			 "electric_quadrupole_moment_norm": 21.2565685027, 
			 "total_energy": -1064.06292272, 
			 "HOMO_LUMO_gap": 0.18505, 
			 "cosmo_polarized_energy": -20.8, 
			 "cosmo_cavitation_energy": 29.2, 
			 "cosmo_dispersion_energy": -21.63, 
			 "cosmo_repulsion_energy": 1.65, 
			 "cosmo_total_nonelectrostatic_energy": 9.22, 
			 "SMD_solvation_energy": 5.92 
		},
		"coords": [
			{
				"x": 1.6341869644,
				"y": -2.1955666055,
				"z": 0.9366708822,
				"element": "C" 
			},
			{
				"x": 0.1953887241,
				"y": -2.4590011311,
				"z": -0.1221023986,
				"element": "S" 
			},
			{
				"x": 0.6880526638,
				"y": -2.9592994556,
				"z": -1.4037722144,
				"element": "O" 
			},
			{
				"x": -0.8283839945,
				"y": -3.1648456134,
				"z": 0.6455805158,
				"element": "O" 
			},
			{
				"x": -0.4613599997,
				"y": -0.9172801838,
				"z": -0.3707691831,
				"element": "N" 
			},
			{
				"x": 0.2475635316,
				"y": 0.1826243295,
				"z": -0.9194937262,
				"element": "C" 
			},
			{
				"x": 0.1175843599,
				"y": 1.4396109959,
				"z": -0.3179036828,
				"element": "C" 
			},
			{
				"x": 0.7633478804,
				"y": 2.5511370404,
				"z": -0.870312706,
				"element": "C" 
			},
			{
				"x": 1.563662541,
				"y": 2.4079160425,
				"z": -2.0101025391,
				"element": "C" 
			},
			{
				"x": 1.6961706906,
				"y": 1.1524493969,
				"z": -2.5978966445,
				"element": "C" 
			},
			{
				"x": 1.0343831817,
				"y": 0.0415118463,
				"z": -2.0738905341,
				"element": "C" 
			},
			{
				"x": 0.63924337,
				"y": 3.9061455224,
				"z": -0.2673030969,
				"element": "C" 
			},
			{
				"x": -0.1594952296,
				"y": 3.9290392438,
				"z": 0.8299271927,
				"element": "O" 
			},
			{
				"x": 1.1843900878,
				"y": 4.9055108543,
				"z": -0.6901315343,
				"element": "O" 
			},
			{
				"x": 2.3131172366,
				"y": -1.497458614,
				"z": 0.4448397582,
				"element": "H" 
			},
			{
				"x": 1.3001119769,
				"y": -1.8090293581,
				"z": 1.9002386875,
				"element": "H" 
			},
			{
				"x": 2.1162455733,
				"y": -3.1666687593,
				"z": 1.0612154037,
				"element": "H" 
			},
			{
				"x": -1.1242485918,
				"y": -0.6974360245,
				"z": 0.3647221972,
				"element": "H" 
			},
			{
				"x": -0.4876582929,
				"y": 1.5605390863,
				"z": 0.5745512766,
				"element": "H" 
			},
			{
				"x": 2.0601699391,
				"y": 3.2825833276,
				"z": -2.4145142756,
				"element": "H" 
			},
			{
				"x": 2.3059139861,
				"y": 1.0331109838,
				"z": -3.488248899,
				"element": "H" 
			},
			{
				"x": 1.1126652632,
				"y": -0.928529723,
				"z": -2.5500143692,
				"element": "H" 
			},
			{
				"x": -0.1678518618,
				"y": 4.8522367986,
				"z": 1.13150989,
				"element": "H" 
			}
		],
		 "valence_orbital": [ 
			{
				"type": "occ",
				"energy": -0.31602,
				"method": "rhf"
			},
			{
				"type": "occ",
				"energy": -0.31114,
				"method": "rhf"
			},
			{
				"type": "occ",
				"energy": -0.28646,
				"method": "rhf"
			},
			{
				"type": "occ",
				"energy": -0.27544,
				"method": "rhf"
			},
			{
				"type": "occ",
				"energy": -0.24518,
				"method": "rhf"
			},
			{
				"type": "unocc",
				"energy": -0.06013,
				"method": "rhf"
			},
			{
				"type": "unocc",
				"energy": -0.02258,
				"method": "rhf"
			},
			{
				"type": "unocc",
				"energy": 0.03764,
				"method": "rhf"
			},
			{
				"type": "unocc",
				"energy": 0.05533,
				"method": "rhf"
			},
			{
				"type": "unocc",
				"energy": 0.06527,
				"method": "rhf"
			}
		],
		"cosmo_sigma_profile": { 
			"-0.025": 0.0,
			"-0.024": 0.0,
			"-0.023": 0.0,
			"-0.022": 0.0,
			"-0.021": 0.0,
			"-0.02": 0.0,
			"-0.019": 0.0484576539617,
			"-0.018": 0.77810995272,
			"-0.017": 0.9977020316,
			"-0.016": 1.6422810818,
			"-0.015": 1.94876598195,
			"-0.014": 1.89587705934,
			"-0.013": 2.38208813528,
			"-0.012": 2.0693593604,
			"-0.011": 1.93197911156,
			"-0.01": 2.24217609387,
			"-0.009": 5.28638983432,
			"-0.008": 6.67627540729,
			"-0.007": 9.32694235592,
			"-0.006": 11.5728886549,
			"-0.005": 15.1731980693,
			"-0.004": 12.7669871678,
			"-0.003": 10.6788994061,
			"-0.002": 11.1794478934,
			"-0.001": 9.84269941025,
			"0.0": 12.4455041224,
			"0.001": 13.6629874005,
			"0.002": 17.3566848573,
			"0.003": 15.5107615066,
			"0.004": 7.483576707,
			"0.005": 6.91771617168,
			"0.006": 5.65811954771,
			"0.007": 7.1003827228,
			"0.008": 4.4603563026,
			"0.009": 5.30286437544,
			"0.01": 10.128673893,
			"0.011": 13.6206731368,
			"0.012": 4.90474529258,
			"0.013": 0.0245437358938,
			"0.014": 0.0,
			"0.015": 0.0,
			"0.016": 0.0,
			"0.017": 0.0,
			"0.018": 0.0,
			"0.019": 0.0,
			"0.02": 0.0,
			"0.021": 0.0,
			"0.022": 0.0,
			"0.023": 0.0,
			"0.024": 0.0,
			"0.025": 0.0
		}
	}
}
