{
	 "smiles": "FC1=C(CC#N)C=C(Br)C=C1", 
	 "Tm": 317.15, 
	 "num_atms": 16, 
	 "gaussian": { 
		 "optdone": 1, 
		 "sigma_profile": "yes", 
		 "theory": "DFT", 
		 "functional": "B3LYP", 
		 "basiset": "6-31G**", 
		 "properties": { 
			 "R2extent": 3318.131, 
			 "electric_dipole_moment_norm": 3.68505032259, 
			 "electric_quadrupole_moment_norm": 15.6617457759, 
			 "total_energy": -3033.83463748, 
			 "HOMO_LUMO_gap": 0.21215, 
			 "cosmo_polarized_energy": -10.9, 
			 "cosmo_cavitation_energy": 24.5, 
			 "cosmo_dispersion_energy": -17.45, 
			 "cosmo_repulsion_energy": 1.4, 
			 "cosmo_total_nonelectrostatic_energy": 8.44, 
			 "SMD_solvation_energy": 4.9 
		},
		"coords": [
			{
				"x": -1.5574121362,
				"y": -1.3260610835,
				"z": -1.1688878835,
				"element": "F" 
			},
			{
				"x": -0.9728020292,
				"y": -0.4787023321,
				"z": -0.297279871,
				"element": "C" 
			},
			{
				"x": 0.2329718551,
				"y": -0.8640130326,
				"z": 0.2906540197,
				"element": "C" 
			},
			{
				"x": 0.8545636618,
				"y": -2.2052791821,
				"z": -0.056948081,
				"element": "C" 
			},
			{
				"x": 1.5019950702,
				"y": -2.2075168346,
				"z": -1.3761961145,
				"element": "C" 
			},
			{
				"x": 2.0159192211,
				"y": -2.2036358378,
				"z": -2.4163604538,
				"element": "N" 
			},
			{
				"x": 0.8320573694,
				"y": 0.0158828009,
				"z": 1.195572941,
				"element": "C" 
			},
			{
				"x": 0.2242618152,
				"y": 1.2360941634,
				"z": 1.4898838527,
				"element": "C" 
			},
			{
				"x": 1.0583132754,
				"y": 2.4193409341,
				"z": 2.7336251925,
				"element": "Br" 
			},
			{
				"x": -0.9809360042,
				"y": 1.6034785489,
				"z": 0.8933264203,
				"element": "C" 
			},
			{
				"x": -1.5875832945,
				"y": 0.7325661728,
				"z": -0.0120938105,
				"element": "C" 
			},
			{
				"x": 1.6024224871,
				"y": -2.4778218945,
				"z": 0.694558562,
				"element": "H" 
			},
			{
				"x": 0.0896862271,
				"y": -2.9897093826,
				"z": -0.0545893255,
				"element": "H" 
			},
			{
				"x": 1.7704877753,
				"y": -0.2507561358,
				"z": 1.6694750081,
				"element": "H" 
			},
			{
				"x": -1.4418591903,
				"y": 2.5548784073,
				"z": 1.1312159212,
				"element": "H" 
			},
			{
				"x": -2.5252861032,
				"y": 0.9826546879,
				"z": -0.4957563776,
				"element": "H" 
			}
		],
		 "valence_orbital": [ 
			{
				"type": "occ",
				"energy": -0.32935,
				"method": "rhf"
			},
			{
				"type": "occ",
				"energy": -0.32046,
				"method": "rhf"
			},
			{
				"type": "occ",
				"energy": -0.30002,
				"method": "rhf"
			},
			{
				"type": "occ",
				"energy": -0.28518,
				"method": "rhf"
			},
			{
				"type": "occ",
				"energy": -0.25262,
				"method": "rhf"
			},
			{
				"type": "unocc",
				"energy": -0.04047,
				"method": "rhf"
			},
			{
				"type": "unocc",
				"energy": -0.02819,
				"method": "rhf"
			},
			{
				"type": "unocc",
				"energy": -0.0085,
				"method": "rhf"
			},
			{
				"type": "unocc",
				"energy": 0.03447,
				"method": "rhf"
			},
			{
				"type": "unocc",
				"energy": 0.03553,
				"method": "rhf"
			}
		],
		"cosmo_sigma_profile": { 
			"-0.025": 0.0,
			"-0.024": 0.0,
			"-0.023": 0.0,
			"-0.022": 0.0,
			"-0.021": 0.0,
			"-0.02": 0.0,
			"-0.019": 0.0,
			"-0.018": 0.0,
			"-0.017": 0.0,
			"-0.016": 0.0,
			"-0.015": 0.0,
			"-0.014": 0.0,
			"-0.013": 0.0,
			"-0.012": 0.0,
			"-0.011": 0.0169805482436,
			"-0.01": 2.50075821596,
			"-0.009": 6.32879495993,
			"-0.008": 9.26766541347,
			"-0.007": 9.21525365122,
			"-0.006": 10.2780983667,
			"-0.005": 7.17625039577,
			"-0.004": 8.31086078803,
			"-0.003": 9.22791961211,
			"-0.002": 9.18754000818,
			"-0.001": 13.5984898045,
			"0.0": 15.6956048985,
			"0.001": 20.5715509681,
			"0.002": 19.4427061066,
			"0.003": 15.7557999138,
			"0.004": 17.0726022021,
			"0.005": 5.53548084712,
			"0.006": 2.56922112431,
			"0.007": 2.90159345074,
			"0.008": 3.40748670433,
			"0.009": 3.24260553381,
			"0.01": 3.39793078601,
			"0.011": 2.61697330834,
			"0.012": 2.41818344762,
			"0.013": 1.56971653506,
			"0.014": 0.0696069724234,
			"0.015": 0.0,
			"0.016": 0.0,
			"0.017": 0.0,
			"0.018": 0.0,
			"0.019": 0.0,
			"0.02": 0.0,
			"0.021": 0.0,
			"0.022": 0.0,
			"0.023": 0.0,
			"0.024": 0.0,
			"0.025": 0.0
		}
	}
}
