{
	 "smiles": "CCC1=C(C=C2C(=C1)C(C)(C)CCC2(C)C)C(C)=O", 
	 "Tm": 319.65, 
	 "num_atms": 45, 
	 "gaussian": { 
		 "optdone": 1, 
		 "sigma_profile": "yes", 
		 "theory": "DFT", 
		 "functional": "B3LYP", 
		 "basiset": "6-31G**", 
		 "properties": { 
			 "R2extent": 6266.644, 
			 "electric_dipole_moment_norm": 3.02405502265, 
			 "electric_quadrupole_moment_norm": 14.2128733471, 
			 "total_energy": -776.846556446, 
			 "HOMO_LUMO_gap": 0.19028, 
			 "cosmo_polarized_energy": -8.27, 
			 "cosmo_cavitation_energy": 42.27, 
			 "cosmo_dispersion_energy": -28.66, 
			 "cosmo_repulsion_energy": 2.2, 
			 "cosmo_total_nonelectrostatic_energy": 15.8, 
			 "SMD_solvation_energy": 7.55 
		},
		"coords": [
			{
				"x": 0.1402918799,
				"y": -1.1077364127,
				"z": 3.3263520595,
				"element": "C" 
			},
			{
				"x": -0.9888467716,
				"y": -0.7954427312,
				"z": 2.3261072257,
				"element": "C" 
			},
			{
				"x": -0.5736537677,
				"y": 0.1929792254,
				"z": 1.2502229309,
				"element": "C" 
			},
			{
				"x": -0.4175818697,
				"y": 1.5883255776,
				"z": 1.4330359606,
				"element": "C" 
			},
			{
				"x": 0.0789088872,
				"y": 2.3490516022,
				"z": 0.3654197519,
				"element": "C" 
			},
			{
				"x": 0.4030112603,
				"y": 1.8231540552,
				"z": -0.888631009,
				"element": "C" 
			},
			{
				"x": 0.2651621618,
				"y": 0.4299402552,
				"z": -1.0709176041,
				"element": "C" 
			},
			{
				"x": -0.2210240091,
				"y": -0.3303246668,
				"z": 0.0034473339,
				"element": "C" 
			},
			{
				"x": 0.5946344666,
				"y": -0.2818177958,
				"z": -2.393900113,
				"element": "C" 
			},
			{
				"x": 1.4232421606,
				"y": -1.5641498666,
				"z": -2.1524070281,
				"element": "C" 
			},
			{
				"x": -0.7278950938,
				"y": -0.6760845643,
				"z": -3.0969048579,
				"element": "C" 
			},
			{
				"x": 1.4264301962,
				"y": 0.6458208428,
				"z": -3.3081726891,
				"element": "C" 
			},
			{
				"x": 0.8840786901,
				"y": 2.0708666595,
				"z": -3.3585106091,
				"element": "C" 
			},
			{
				"x": 0.9186085749,
				"y": 2.773543927,
				"z": -1.9831803217,
				"element": "C" 
			},
			{
				"x": 0.0408424784,
				"y": 4.041494116,
				"z": -2.0816549992,
				"element": "C" 
			},
			{
				"x": 2.3657345035,
				"y": 3.203617487,
				"z": -1.6392117034,
				"element": "C" 
			},
			{
				"x": -0.7290799121,
				"y": 2.3906909316,
				"z": 2.6719877454,
				"element": "C" 
			},
			{
				"x": -1.7978730698,
				"y": 1.9500863026,
				"z": 3.6618582585,
				"element": "C" 
			},
			{
				"x": -0.1611561663,
				"y": 3.4580506462,
				"z": 2.8595368849,
				"element": "O" 
			},
			{
				"x": 0.4739533942,
				"y": -0.2090854089,
				"z": 3.8550196087,
				"element": "H" 
			},
			{
				"x": -0.1906343649,
				"y": -1.8368790642,
				"z": 4.0734866097,
				"element": "H" 
			},
			{
				"x": 1.0107479086,
				"y": -1.522594828,
				"z": 2.8085140873,
				"element": "H" 
			},
			{
				"x": -1.8733856046,
				"y": -0.452031068,
				"z": 2.8670734199,
				"element": "H" 
			},
			{
				"x": -1.285524501,
				"y": -1.7281901624,
				"z": 1.8337652441,
				"element": "H" 
			},
			{
				"x": 0.2013914236,
				"y": 3.4095053739,
				"z": 0.5532361785,
				"element": "H" 
			},
			{
				"x": -0.3287040045,
				"y": -1.4029289571,
				"z": -0.1303044523,
				"element": "H" 
			},
			{
				"x": 0.8581655322,
				"y": -2.3380280387,
				"z": -1.6251468858,
				"element": "H" 
			},
			{
				"x": 2.325412175,
				"y": -1.3484073625,
				"z": -1.5709804719,
				"element": "H" 
			},
			{
				"x": 1.733844217,
				"y": -1.9885033347,
				"z": -3.1139274903,
				"element": "H" 
			},
			{
				"x": -1.3414282939,
				"y": 0.1985498498,
				"z": -3.3319610099,
				"element": "H" 
			},
			{
				"x": -1.3275935122,
				"y": -1.3349139876,
				"z": -2.461083797,
				"element": "H" 
			},
			{
				"x": -0.518989889,
				"y": -1.207461709,
				"z": -4.0327636998,
				"element": "H" 
			},
			{
				"x": 1.4579283239,
				"y": 0.2137177813,
				"z": -4.3160683001,
				"element": "H" 
			},
			{
				"x": 2.4640503108,
				"y": 0.6608291866,
				"z": -2.9514714785,
				"element": "H" 
			},
			{
				"x": 1.4553709456,
				"y": 2.6698179381,
				"z": -4.0784258543,
				"element": "H" 
			},
			{
				"x": -0.1495358658,
				"y": 2.0574057835,
				"z": -3.7271754633,
				"element": "H" 
			},
			{
				"x": -1.0112141387,
				"y": 3.7824448951,
				"z": -2.2397139439,
				"element": "H" 
			},
			{
				"x": 0.3695293146,
				"y": 4.6541456754,
				"z": -2.9289718372,
				"element": "H" 
			},
			{
				"x": 0.1040542644,
				"y": 4.6649542453,
				"z": -1.1856647214,
				"element": "H" 
			},
			{
				"x": 2.4033088241,
				"y": 3.7021315079,
				"z": -0.6657285817,
				"element": "H" 
			},
			{
				"x": 2.7467106462,
				"y": 3.9030185555,
				"z": -2.3926947685,
				"element": "H" 
			},
			{
				"x": 3.0463535815,
				"y": 2.348102806,
				"z": -1.594334548,
				"element": "H" 
			},
			{
				"x": -2.0558113716,
				"y": 2.8147415338,
				"z": 4.2754983997,
				"element": "H" 
			},
			{
				"x": -2.6918698546,
				"y": 1.57263867,
				"z": 3.156507385,
				"element": "H" 
			},
			{
				"x": -1.4258640604,
				"y": 1.1601545283,
				"z": 4.3216391542,
				"element": "H" 
			}
		],
		 "valence_orbital": [ 
			{
				"type": "occ",
				"energy": -0.29836,
				"method": "rhf"
			},
			{
				"type": "occ",
				"energy": -0.29537,
				"method": "rhf"
			},
			{
				"type": "occ",
				"energy": -0.24565,
				"method": "rhf"
			},
			{
				"type": "occ",
				"energy": -0.23538,
				"method": "rhf"
			},
			{
				"type": "occ",
				"energy": -0.23373,
				"method": "rhf"
			},
			{
				"type": "unocc",
				"energy": -0.04345,
				"method": "rhf"
			},
			{
				"type": "unocc",
				"energy": -0.00065,
				"method": "rhf"
			},
			{
				"type": "unocc",
				"energy": 0.03737,
				"method": "rhf"
			},
			{
				"type": "unocc",
				"energy": 0.07638,
				"method": "rhf"
			},
			{
				"type": "unocc",
				"energy": 0.08867,
				"method": "rhf"
			}
		],
		"cosmo_sigma_profile": { 
			"-0.025": 0.0,
			"-0.024": 0.0,
			"-0.023": 0.0,
			"-0.022": 0.0,
			"-0.021": 0.0,
			"-0.02": 0.0,
			"-0.019": 0.0,
			"-0.018": 0.0,
			"-0.017": 0.0,
			"-0.016": 0.0,
			"-0.015": 0.0,
			"-0.014": 0.0,
			"-0.013": 0.0,
			"-0.012": 0.0,
			"-0.011": 0.0,
			"-0.01": 0.0,
			"-0.009": 0.0,
			"-0.008": 0.0,
			"-0.007": 0.0,
			"-0.006": 1.58652441076,
			"-0.005": 11.1806270001,
			"-0.004": 17.5326425901,
			"-0.003": 34.9588029688,
			"-0.002": 52.2866156271,
			"-0.001": 49.3966236969,
			"0.0": 47.3183409468,
			"0.001": 47.3266896437,
			"0.002": 20.056327343,
			"0.003": 8.99357349395,
			"0.004": 7.17420953687,
			"0.005": 9.44602426495,
			"0.006": 3.60340731902,
			"0.007": 1.94822341164,
			"0.008": 1.46731151077,
			"0.009": 1.7142769821,
			"0.01": 2.1938935389,
			"0.011": 2.08639359887,
			"0.012": 4.23309207145,
			"0.013": 2.85360245733,
			"0.014": 0.400696918666,
			"0.015": 0.0,
			"0.016": 0.0,
			"0.017": 0.0,
			"0.018": 0.0,
			"0.019": 0.0,
			"0.02": 0.0,
			"0.021": 0.0,
			"0.022": 0.0,
			"0.023": 0.0,
			"0.024": 0.0,
			"0.025": 0.0
		}
	}
}
