{
	 "smiles": "COCCNC1=C(N)N(CC2=CC=CC=C2)C(=O)NC1=O", 
	 "Tm": 483.15, 
	 "num_atms": 39, 
	 "gaussian": { 
		 "optdone": 1, 
		 "sigma_profile": "yes", 
		 "theory": "DFT", 
		 "functional": "B3LYP", 
		 "basiset": "6-31G**", 
		 "properties": { 
			 "R2extent": 8218.33, 
			 "electric_dipole_moment_norm": 5.54041114449, 
			 "electric_quadrupole_moment_norm": 7.01489758158, 
			 "total_energy": -989.04105979, 
			 "HOMO_LUMO_gap": 0.18982, 
			 "cosmo_polarized_energy": -18.72, 
			 "cosmo_cavitation_energy": 41.4, 
			 "cosmo_dispersion_energy": -29.51, 
			 "cosmo_repulsion_energy": 2.26, 
			 "cosmo_total_nonelectrostatic_energy": 14.15, 
			 "SMD_solvation_energy": 8.08 
		},
		"coords": [
			{
				"x": -0.6114760647,
				"y": -4.0467578128,
				"z": 4.4257628913,
				"element": "C" 
			},
			{
				"x": -1.5894386425,
				"y": -3.073601714,
				"z": 4.1159885165,
				"element": "O" 
			},
			{
				"x": -1.1641200904,
				"y": -1.7264307506,
				"z": 4.312480127,
				"element": "C" 
			},
			{
				"x": -0.2492952363,
				"y": -1.2393695203,
				"z": 3.1846935073,
				"element": "C" 
			},
			{
				"x": -0.8465129773,
				"y": -1.468467785,
				"z": 1.8548654335,
				"element": "N" 
			},
			{
				"x": -1.3234017848,
				"y": -0.339054023,
				"z": 1.127516634,
				"element": "C" 
			},
			{
				"x": -0.8699727802,
				"y": -0.1836058076,
				"z": -0.1696717023,
				"element": "C" 
			},
			{
				"x": -0.0485408278,
				"y": -1.124245012,
				"z": -0.7370334639,
				"element": "N" 
			},
			{
				"x": -1.2689827802,
				"y": 0.8772278812,
				"z": -0.9718843735,
				"element": "N" 
			},
			{
				"x": -0.9009845247,
				"y": 0.9416701174,
				"z": -2.3986595612,
				"element": "C" 
			},
			{
				"x": 0.5173054533,
				"y": 1.419256014,
				"z": -2.654568825,
				"element": "C" 
			},
			{
				"x": 1.4083867387,
				"y": 0.6373311578,
				"z": -3.3998038686,
				"element": "C" 
			},
			{
				"x": 2.7086452057,
				"y": 1.0843110857,
				"z": -3.6536211,
				"element": "C" 
			},
			{
				"x": 3.1279983753,
				"y": 2.3194917654,
				"z": -3.1616571643,
				"element": "C" 
			},
			{
				"x": 2.2414553874,
				"y": 3.1092919542,
				"z": -2.422664898,
				"element": "C" 
			},
			{
				"x": 0.9445390056,
				"y": 2.6653338826,
				"z": -2.1722767335,
				"element": "C" 
			},
			{
				"x": -2.1050875268,
				"y": 1.8919486375,
				"z": -0.4826912553,
				"element": "C" 
			},
			{
				"x": -2.4234264995,
				"y": 2.8626864054,
				"z": -1.157528403,
				"element": "O" 
			},
			{
				"x": -2.5354262759,
				"y": 1.6996127164,
				"z": 0.8073051225,
				"element": "N" 
			},
			{
				"x": -2.232061861,
				"y": 0.6325685,
				"z": 1.6854148428,
				"element": "C" 
			},
			{
				"x": -2.7176147227,
				"y": 0.6356449703,
				"z": 2.81431471,
				"element": "O" 
			},
			{
				"x": 0.2616828542,
				"y": -4.0046030906,
				"z": 3.7578240498,
				"element": "H" 
			},
			{
				"x": -0.2557702745,
				"y": -3.9445188293,
				"z": 5.4628662538,
				"element": "H" 
			},
			{
				"x": -1.0856934773,
				"y": -5.0250897381,
				"z": 4.3122384807,
				"element": "H" 
			},
			{
				"x": -2.0728511867,
				"y": -1.1219731407,
				"z": 4.3099696623,
				"element": "H" 
			},
			{
				"x": -0.6578195714,
				"y": -1.6204723308,
				"z": 5.2857610189,
				"element": "H" 
			},
			{
				"x": -0.0538981013,
				"y": -0.1722370993,
				"z": 3.3249065414,
				"element": "H" 
			},
			{
				"x": 0.7217309309,
				"y": -1.7522287208,
				"z": 3.2354663841,
				"element": "H" 
			},
			{
				"x": -1.5536040644,
				"y": -2.1958192803,
				"z": 1.9446284972,
				"element": "H" 
			},
			{
				"x": 0.6813864269,
				"y": -0.7810179196,
				"z": -1.3487058622,
				"element": "H" 
			},
			{
				"x": 0.2564090026,
				"y": -1.7782411308,
				"z": -0.01935942,
				"element": "H" 
			},
			{
				"x": -1.6159557133,
				"y": 1.6332862491,
				"z": -2.8472690277,
				"element": "H" 
			},
			{
				"x": -1.0545488308,
				"y": -0.0510510039,
				"z": -2.8301032896,
				"element": "H" 
			},
			{
				"x": 1.0804318793,
				"y": -0.3218353769,
				"z": -3.7961209957,
				"element": "H" 
			},
			{
				"x": 3.3883510356,
				"y": 0.4673745602,
				"z": -4.2343291865,
				"element": "H" 
			},
			{
				"x": 4.1377608124,
				"y": 2.6693791177,
				"z": -3.3553277594,
				"element": "H" 
			},
			{
				"x": 2.5611191937,
				"y": 4.0767665104,
				"z": -2.0462207019,
				"element": "H" 
			},
			{
				"x": 0.2488193927,
				"y": 3.2859444095,
				"z": -1.6150196455,
				"element": "H" 
			},
			{
				"x": -3.1474378797,
				"y": 2.4173941517,
				"z": 1.1750145641,
				"element": "H" 
			}
		],
		 "valence_orbital": [ 
			{
				"type": "occ",
				"energy": -0.26419,
				"method": "rhf"
			},
			{
				"type": "occ",
				"energy": -0.25885,
				"method": "rhf"
			},
			{
				"type": "occ",
				"energy": -0.24993,
				"method": "rhf"
			},
			{
				"type": "occ",
				"energy": -0.23191,
				"method": "rhf"
			},
			{
				"type": "occ",
				"energy": -0.20986,
				"method": "rhf"
			},
			{
				"type": "unocc",
				"energy": -0.02004,
				"method": "rhf"
			},
			{
				"type": "unocc",
				"energy": -0.01732,
				"method": "rhf"
			},
			{
				"type": "unocc",
				"energy": -0.01011,
				"method": "rhf"
			},
			{
				"type": "unocc",
				"energy": 0.02018,
				"method": "rhf"
			},
			{
				"type": "unocc",
				"energy": 0.07785,
				"method": "rhf"
			}
		],
		"cosmo_sigma_profile": { 
			"-0.025": 0.0,
			"-0.024": 0.0,
			"-0.023": 0.0,
			"-0.022": 0.0,
			"-0.021": 0.0,
			"-0.02": 0.0,
			"-0.019": 0.0,
			"-0.018": 0.0,
			"-0.017": 0.0,
			"-0.016": 0.0805699135449,
			"-0.015": 0.703601221777,
			"-0.014": 0.966855100981,
			"-0.013": 0.74504100849,
			"-0.012": 0.689660149862,
			"-0.011": 1.14416265204,
			"-0.01": 2.26138294508,
			"-0.009": 3.29178062154,
			"-0.008": 3.7959918803,
			"-0.007": 6.01679334916,
			"-0.006": 12.3103519927,
			"-0.005": 17.6927581567,
			"-0.004": 32.2428226083,
			"-0.003": 38.0072799485,
			"-0.002": 31.2777342615,
			"-0.001": 28.9084503448,
			"0.0": 22.5346293421,
			"0.001": 19.1121862605,
			"0.002": 17.1560771857,
			"0.003": 15.8261590265,
			"0.004": 14.4588545599,
			"0.005": 13.4084072638,
			"0.006": 6.39012167588,
			"0.007": 4.08346946824,
			"0.008": 5.10588754127,
			"0.009": 4.2960992392,
			"0.01": 3.13193416887,
			"0.011": 4.8351954057,
			"0.012": 6.66773646869,
			"0.013": 6.53210650403,
			"0.014": 3.41278561732,
			"0.015": 0.412445561071,
			"0.016": 0.0,
			"0.017": 0.0,
			"0.018": 0.0,
			"0.019": 0.0,
			"0.02": 0.0,
			"0.021": 0.0,
			"0.022": 0.0,
			"0.023": 0.0,
			"0.024": 0.0,
			"0.025": 0.0
		}
	}
}
