{
	 "smiles": "OC(=O)C1=COC(=O)C=C1", 
	 "Tm": 477.15, 
	 "num_atms": 14, 
	 "gaussian": { 
		 "optdone": 1, 
		 "sigma_profile": "yes", 
		 "theory": "DFT", 
		 "functional": "B3LYP", 
		 "basiset": "6-31G**", 
		 "properties": { 
			 "R2extent": 1747.3673, 
			 "electric_dipole_moment_norm": 3.51466860031, 
			 "electric_quadrupole_moment_norm": 19.3082392861, 
			 "total_energy": -531.926045285, 
			 "HOMO_LUMO_gap": 0.17476, 
			 "cosmo_polarized_energy": -19.29, 
			 "cosmo_cavitation_energy": 19.61, 
			 "cosmo_dispersion_energy": -14.71, 
			 "cosmo_repulsion_energy": 1.19, 
			 "cosmo_total_nonelectrostatic_energy": 6.09, 
			 "SMD_solvation_energy": 6.47 
		},
		"coords": [
			{
				"x": 0.4814738978,
				"y": 1.7832784368,
				"z": -1.7573217895,
				"element": "O" 
			},
			{
				"x": 1.2103182627,
				"y": 1.2701088662,
				"z": -0.7323740426,
				"element": "C" 
			},
			{
				"x": 2.1346149107,
				"y": 1.8991448345,
				"z": -0.2729431066,
				"element": "O" 
			},
			{
				"x": 0.8106804598,
				"y": -0.0749083405,
				"z": -0.2244839679,
				"element": "C" 
			},
			{
				"x": 1.3522005334,
				"y": -0.4746474369,
				"z": 0.96163567,
				"element": "C" 
			},
			{
				"x": 1.0845384823,
				"y": -1.6438353218,
				"z": 1.5376989006,
				"element": "O" 
			},
			{
				"x": 0.2020916354,
				"y": -2.6052529207,
				"z": 0.9534585432,
				"element": "C" 
			},
			{
				"x": 0.0207279366,
				"y": -3.6257316723,
				"z": 1.5630099306,
				"element": "O" 
			},
			{
				"x": -0.3565958273,
				"y": -2.2055531436,
				"z": -0.3244576335,
				"element": "C" 
			},
			{
				"x": -0.0687724023,
				"y": -1.0022270958,
				"z": -0.8829253841,
				"element": "C" 
			},
			{
				"x": -0.312844813,
				"y": 1.2582954753,
				"z": -1.9238489307,
				"element": "H" 
			},
			{
				"x": 2.0452812875,
				"y": 0.1396703318,
				"z": 1.5261970895,
				"element": "H" 
			},
			{
				"x": -1.0054228189,
				"y": -2.9288300747,
				"z": -0.8030169663,
				"element": "H" 
			},
			{
				"x": -0.4918915445,
				"y": -0.7634119383,
				"z": -1.8564283127,
				"element": "H" 
			}
		],
		 "valence_orbital": [ 
			{
				"type": "occ",
				"energy": -0.35893,
				"method": "rhf"
			},
			{
				"type": "occ",
				"energy": -0.33195,
				"method": "rhf"
			},
			{
				"type": "occ",
				"energy": -0.30006,
				"method": "rhf"
			},
			{
				"type": "occ",
				"energy": -0.29182,
				"method": "rhf"
			},
			{
				"type": "occ",
				"energy": -0.26199,
				"method": "rhf"
			},
			{
				"type": "unocc",
				"energy": -0.08723,
				"method": "rhf"
			},
			{
				"type": "unocc",
				"energy": -0.05439,
				"method": "rhf"
			},
			{
				"type": "unocc",
				"energy": 0.02913,
				"method": "rhf"
			},
			{
				"type": "unocc",
				"energy": 0.04018,
				"method": "rhf"
			},
			{
				"type": "unocc",
				"energy": 0.08864,
				"method": "rhf"
			}
		],
		"cosmo_sigma_profile": { 
			"-0.025": 0.0,
			"-0.024": 0.0,
			"-0.023": 0.0,
			"-0.022": 0.0,
			"-0.021": 0.0,
			"-0.02": 0.29690531714,
			"-0.019": 1.42011611588,
			"-0.018": 0.970579515276,
			"-0.017": 1.36196738425,
			"-0.016": 1.16657013492,
			"-0.015": 1.14352549548,
			"-0.014": 0.999556912155,
			"-0.013": 0.947934666704,
			"-0.012": 1.46214667768,
			"-0.011": 2.27469261635,
			"-0.01": 2.86819427788,
			"-0.009": 4.07817505659,
			"-0.008": 5.98598477806,
			"-0.007": 5.56976540231,
			"-0.006": 6.03535297764,
			"-0.005": 7.06482653336,
			"-0.004": 10.7777900576,
			"-0.003": 10.0493621758,
			"-0.002": 11.4438382062,
			"-0.001": 8.26151562924,
			"0.0": 7.44576454262,
			"0.001": 4.70700783795,
			"0.002": 3.85758800194,
			"0.003": 3.58743179844,
			"0.004": 2.98652077127,
			"0.005": 5.85656127746,
			"0.006": 3.54962009922,
			"0.007": 4.53305537438,
			"0.008": 4.88597314542,
			"0.009": 6.22735540447,
			"0.01": 8.28930260583,
			"0.011": 11.0869561624,
			"0.012": 6.28384015557,
			"0.013": 0.773912162583,
			"0.014": 0.0,
			"0.015": 0.0,
			"0.016": 0.0,
			"0.017": 0.0,
			"0.018": 0.0,
			"0.019": 0.0,
			"0.02": 0.0,
			"0.021": 0.0,
			"0.022": 0.0,
			"0.023": 0.0,
			"0.024": 0.0,
			"0.025": 0.0
		}
	}
}
