{
	 "smiles": "FC1=C(F)C=C(NC(=O)CCl)C=C1", 
	 "Tm": 380.15, 
	 "num_atms": 19, 
	 "gaussian": { 
		 "optdone": 1, 
		 "sigma_profile": "yes", 
		 "theory": "DFT", 
		 "functional": "B3LYP", 
		 "basiset": "6-31G**", 
		 "properties": { 
			 "R2extent": 3422.024, 
			 "electric_dipole_moment_norm": 3.29237785499, 
			 "electric_quadrupole_moment_norm": 15.3052849186, 
			 "total_energy": -1098.30239371, 
			 "HOMO_LUMO_gap": 0.20001, 
			 "cosmo_polarized_energy": -12.4, 
			 "cosmo_cavitation_energy": 26.54, 
			 "cosmo_dispersion_energy": -18.95, 
			 "cosmo_repulsion_energy": 1.47, 
			 "cosmo_total_nonelectrostatic_energy": 9.05, 
			 "SMD_solvation_energy": 6.04 
		},
		"coords": [
			{
				"x": -2.2699858347,
				"y": -3.3348008425,
				"z": -2.7168927435,
				"element": "F" 
			},
			{
				"x": -1.8120667985,
				"y": -2.6106470858,
				"z": -1.6832798444,
				"element": "C" 
			},
			{
				"x": -1.4331706735,
				"y": -1.285427184,
				"z": -1.8926905646,
				"element": "C" 
			},
			{
				"x": -1.5509721437,
				"y": -0.7621353054,
				"z": -3.1223108276,
				"element": "F" 
			},
			{
				"x": -0.9689657678,
				"y": -0.4990175473,
				"z": -0.8474423845,
				"element": "C" 
			},
			{
				"x": -0.8415101152,
				"y": -1.0634073822,
				"z": 0.4304260087,
				"element": "C" 
			},
			{
				"x": -0.3921578204,
				"y": -0.3082449932,
				"z": 1.5417202087,
				"element": "N" 
			},
			{
				"x": 0.6722473382,
				"y": 0.555676072,
				"z": 1.7033706615,
				"element": "C" 
			},
			{
				"x": 0.8940760949,
				"y": 1.071016779,
				"z": 2.786417628,
				"element": "O" 
			},
			{
				"x": 1.5887056008,
				"y": 0.813028309,
				"z": 0.5109066368,
				"element": "C" 
			},
			{
				"x": 1.1334021077,
				"y": 2.35066187,
				"z": -0.3372332766,
				"element": "Cl" 
			},
			{
				"x": -1.223797035,
				"y": -2.3964738854,
				"z": 0.6396107233,
				"element": "C" 
			},
			{
				"x": -1.7167369712,
				"y": -3.1646424103,
				"z": -0.4140911058,
				"element": "C" 
			},
			{
				"x": -0.7369136865,
				"y": 0.5418660661,
				"z": -1.0393633032,
				"element": "H" 
			},
			{
				"x": -0.8553343192,
				"y": -0.4858734436,
				"z": 2.4253760389,
				"element": "H" 
			},
			{
				"x": 1.5763089476,
				"y": 0.0176684464,
				"z": -0.2333086839,
				"element": "H" 
			},
			{
				"x": 2.5935696823,
				"y": 0.9614839932,
				"z": 0.9019802279,
				"element": "H" 
			},
			{
				"x": -1.1249445729,
				"y": -2.8347479043,
				"z": 1.6276950016,
				"element": "H" 
			},
			{
				"x": -2.0163540331,
				"y": -4.1965835517,
				"z": -0.2677904013,
				"element": "H" 
			}
		],
		 "valence_orbital": [ 
			{
				"type": "occ",
				"energy": -0.31558,
				"method": "rhf"
			},
			{
				"type": "occ",
				"energy": -0.30597,
				"method": "rhf"
			},
			{
				"type": "occ",
				"energy": -0.2759,
				"method": "rhf"
			},
			{
				"type": "occ",
				"energy": -0.2723,
				"method": "rhf"
			},
			{
				"type": "occ",
				"energy": -0.24292,
				"method": "rhf"
			},
			{
				"type": "unocc",
				"energy": -0.04291,
				"method": "rhf"
			},
			{
				"type": "unocc",
				"energy": -0.0309,
				"method": "rhf"
			},
			{
				"type": "unocc",
				"energy": -0.01315,
				"method": "rhf"
			},
			{
				"type": "unocc",
				"energy": 0.0487,
				"method": "rhf"
			},
			{
				"type": "unocc",
				"energy": 0.06079,
				"method": "rhf"
			}
		],
		"cosmo_sigma_profile": { 
			"-0.025": 0.0,
			"-0.024": 0.0,
			"-0.023": 0.0,
			"-0.022": 0.0,
			"-0.021": 0.0,
			"-0.02": 0.0,
			"-0.019": 0.0,
			"-0.018": 0.0,
			"-0.017": 0.0,
			"-0.016": 0.0412060648434,
			"-0.015": 0.798521870865,
			"-0.014": 1.26391188065,
			"-0.013": 0.965042014005,
			"-0.012": 1.14987987582,
			"-0.011": 0.812448482501,
			"-0.01": 1.53896188111,
			"-0.009": 2.73671460473,
			"-0.008": 8.50509607697,
			"-0.007": 9.0784103407,
			"-0.006": 10.4463744377,
			"-0.005": 8.50859554835,
			"-0.004": 8.36130007142,
			"-0.003": 8.10651088123,
			"-0.002": 12.4431906128,
			"-0.001": 16.2937851513,
			"0.0": 20.2645312637,
			"0.001": 17.4535846915,
			"0.002": 15.607238258,
			"0.003": 22.5207760774,
			"0.004": 20.1791289682,
			"0.005": 9.15912295045,
			"0.006": 2.70478373643,
			"0.007": 1.26878345881,
			"0.008": 1.37197480195,
			"0.009": 1.12279778804,
			"0.01": 1.42850158731,
			"0.011": 2.53457673201,
			"0.012": 4.92839119393,
			"0.013": 3.49665942047,
			"0.014": 0.222965454775,
			"0.015": 0.0,
			"0.016": 0.0,
			"0.017": 0.0,
			"0.018": 0.0,
			"0.019": 0.0,
			"0.02": 0.0,
			"0.021": 0.0,
			"0.022": 0.0,
			"0.023": 0.0,
			"0.024": 0.0,
			"0.025": 0.0
		}
	}
}
