{
	 "smiles": "CCS(=O)(=O)C1=CC=C(CCC(O)=O)C=C1", 
	 "Tm": 393.15, 
	 "num_atms": 30, 
	 "gaussian": { 
		 "optdone": 1, 
		 "sigma_profile": "yes", 
		 "theory": "DFT", 
		 "functional": "B3LYP", 
		 "basiset": "6-31G**", 
		 "properties": { 
			 "R2extent": 7833.6769, 
			 "electric_dipole_moment_norm": 6.10204801276, 
			 "electric_quadrupole_moment_norm": 28.8707568891, 
			 "total_energy": -1126.64873404, 
			 "HOMO_LUMO_gap": 0.22686, 
			 "cosmo_polarized_energy": -25.3, 
			 "cosmo_cavitation_energy": 34.99, 
			 "cosmo_dispersion_energy": -25.05, 
			 "cosmo_repulsion_energy": 1.93, 
			 "cosmo_total_nonelectrostatic_energy": 11.87, 
			 "SMD_solvation_energy": 6.17 
		},
		"coords": [
			{
				"x": -0.6478245158,
				"y": -4.5333566581,
				"z": 3.8857600333,
				"element": "C" 
			},
			{
				"x": 0.286936595,
				"y": -3.4225716509,
				"z": 4.3496218638,
				"element": "C" 
			},
			{
				"x": -0.048340756,
				"y": -1.8058683543,
				"z": 3.5754712717,
				"element": "S" 
			},
			{
				"x": -1.5031329608,
				"y": -1.5743076104,
				"z": 3.6290965531,
				"element": "O" 
			},
			{
				"x": 0.8985594179,
				"y": -0.848366672,
				"z": 4.1711941536,
				"element": "O" 
			},
			{
				"x": 0.4046388524,
				"y": -2.0274548536,
				"z": 1.8470954186,
				"element": "C" 
			},
			{
				"x": -0.5886254904,
				"y": -2.313269199,
				"z": 0.9098794684,
				"element": "C" 
			},
			{
				"x": -0.2281436866,
				"y": -2.4782781064,
				"z": -0.4270802671,
				"element": "C" 
			},
			{
				"x": 1.1074702076,
				"y": -2.3603376644,
				"z": -0.8378263984,
				"element": "C" 
			},
			{
				"x": 1.4694670557,
				"y": -2.5185376111,
				"z": -2.3012906059,
				"element": "C" 
			},
			{
				"x": 1.5539876362,
				"y": -1.1825010649,
				"z": -3.063809155,
				"element": "C" 
			},
			{
				"x": 2.8542441821,
				"y": -0.4236700201,
				"z": -2.8109273698,
				"element": "C" 
			},
			{
				"x": 2.8663106151,
				"y": 0.8688637894,
				"z": -3.2231851086,
				"element": "O" 
			},
			{
				"x": 3.8454881876,
				"y": -0.9090365726,
				"z": -2.3229592773,
				"element": "O" 
			},
			{
				"x": 2.0872666827,
				"y": -2.0656223245,
				"z": 0.124190792,
				"element": "C" 
			},
			{
				"x": 1.7410507751,
				"y": -1.8941003272,
				"z": 1.4631682873,
				"element": "C" 
			},
			{
				"x": -0.5272250501,
				"y": -4.7396440038,
				"z": 2.8183696818,
				"element": "H" 
			},
			{
				"x": -1.6894178243,
				"y": -4.2617390009,
				"z": 4.0719066331,
				"element": "H" 
			},
			{
				"x": -0.4252685541,
				"y": -5.453957548,
				"z": 4.4337012391,
				"element": "H" 
			},
			{
				"x": 1.340783347,
				"y": -3.6395193886,
				"z": 4.1538223448,
				"element": "H" 
			},
			{
				"x": 0.1767790919,
				"y": -3.2104660842,
				"z": 5.4179778134,
				"element": "H" 
			},
			{
				"x": -1.6227165767,
				"y": -2.3859860438,
				"z": 1.2290471968,
				"element": "H" 
			},
			{
				"x": -0.9971994384,
				"y": -2.7035961196,
				"z": -1.1620293309,
				"element": "H" 
			},
			{
				"x": 0.7184453712,
				"y": -3.1465751096,
				"z": -2.7911226022,
				"element": "H" 
			},
			{
				"x": 2.435033301,
				"y": -3.0231358016,
				"z": -2.3988707728,
				"element": "H" 
			},
			{
				"x": 0.6958349853,
				"y": -0.5436103864,
				"z": -2.8192229923,
				"element": "H" 
			},
			{
				"x": 1.5057332795,
				"y": -1.368656844,
				"z": -4.1458683306,
				"element": "H" 
			},
			{
				"x": 1.999978181,
				"y": 1.1212575669,
				"z": -3.5731270758,
				"element": "H" 
			},
			{
				"x": 3.1201955017,
				"y": -1.9547374474,
				"z": -0.1887467298,
				"element": "H" 
			},
			{
				"x": 2.4933915871,
				"y": -1.6378188891,
				"z": 2.2020632659,
				"element": "H" 
			}
		],
		 "valence_orbital": [ 
			{
				"type": "occ",
				"energy": -0.29069,
				"method": "rhf"
			},
			{
				"type": "occ",
				"energy": -0.28527,
				"method": "rhf"
			},
			{
				"type": "occ",
				"energy": -0.27914,
				"method": "rhf"
			},
			{
				"type": "occ",
				"energy": -0.26987,
				"method": "rhf"
			},
			{
				"type": "occ",
				"energy": -0.26609,
				"method": "rhf"
			},
			{
				"type": "unocc",
				"energy": -0.03923,
				"method": "rhf"
			},
			{
				"type": "unocc",
				"energy": -0.02307,
				"method": "rhf"
			},
			{
				"type": "unocc",
				"energy": -0.00201,
				"method": "rhf"
			},
			{
				"type": "unocc",
				"energy": 0.04553,
				"method": "rhf"
			},
			{
				"type": "unocc",
				"energy": 0.06706,
				"method": "rhf"
			}
		],
		"cosmo_sigma_profile": { 
			"-0.025": 0.0,
			"-0.024": 0.0,
			"-0.023": 0.0,
			"-0.022": 0.0,
			"-0.021": 0.0,
			"-0.02": 0.0,
			"-0.019": 0.782398280189,
			"-0.018": 1.05714885516,
			"-0.017": 1.04183696883,
			"-0.016": 1.2050997427,
			"-0.015": 1.31183697051,
			"-0.014": 1.52999483686,
			"-0.013": 0.679029927711,
			"-0.012": 0.466731610865,
			"-0.011": 1.45631199247,
			"-0.01": 1.34246613019,
			"-0.009": 1.21993834885,
			"-0.008": 5.75613199472,
			"-0.007": 11.4540355218,
			"-0.006": 14.9825362774,
			"-0.005": 20.1716095217,
			"-0.004": 24.6359514045,
			"-0.003": 23.6771997696,
			"-0.002": 20.4081962967,
			"-0.001": 18.9367151637,
			"0.0": 15.0095435219,
			"0.001": 10.5122236758,
			"0.002": 13.426234001,
			"0.003": 16.2094120775,
			"0.004": 6.23899494097,
			"0.005": 5.15630807282,
			"0.006": 4.74315732697,
			"0.007": 4.29843058763,
			"0.008": 5.30465109618,
			"0.009": 6.9103520578,
			"0.01": 8.2606116358,
			"0.011": 12.3260071756,
			"0.012": 12.0719760706,
			"0.013": 3.7734495044,
			"0.014": 0.0274685193437,
			"0.015": 0.0,
			"0.016": 0.0,
			"0.017": 0.0,
			"0.018": 0.0,
			"0.019": 0.0,
			"0.02": 0.0,
			"0.021": 0.0,
			"0.022": 0.0,
			"0.023": 0.0,
			"0.024": 0.0,
			"0.025": 0.0
		}
	}
}
