{
	 "smiles": "CC(Cl)C1=NC2=C(C(C)=C(C)S2)C(=O)N1", 
	 "Tm": 489.15, 
	 "num_atms": 26, 
	 "gaussian": { 
		 "optdone": 1, 
		 "sigma_profile": "yes", 
		 "theory": "DFT", 
		 "functional": "B3LYP", 
		 "basiset": "6-31G**", 
		 "properties": { 
			 "R2extent": 5281.5401, 
			 "electric_dipole_moment_norm": 2.39166828386, 
			 "electric_quadrupole_moment_norm": 15.1028092397, 
			 "total_energy": -1430.84143531, 
			 "HOMO_LUMO_gap": 0.16036, 
			 "cosmo_polarized_energy": -11.88, 
			 "cosmo_cavitation_energy": 32.59, 
			 "cosmo_dispersion_energy": -24.25, 
			 "cosmo_repulsion_energy": 1.86, 
			 "cosmo_total_nonelectrostatic_energy": 10.21, 
			 "SMD_solvation_energy": 4.13 
		},
		"coords": [
			{
				"x": -3.9358631166,
				"y": -1.4537438418,
				"z": -2.7256019045,
				"element": "C" 
			},
			{
				"x": -3.1821750468,
				"y": -0.1359658888,
				"z": -2.6760773511,
				"element": "C" 
			},
			{
				"x": -2.814815303,
				"y": 0.4461219076,
				"z": -4.3883362759,
				"element": "Cl" 
			},
			{
				"x": -1.8992980135,
				"y": -0.1879051531,
				"z": -1.8708096564,
				"element": "C" 
			},
			{
				"x": -1.6514067939,
				"y": -1.2329328323,
				"z": -1.1349764666,
				"element": "N" 
			},
			{
				"x": -0.5154876002,
				"y": -1.1562451264,
				"z": -0.3836396587,
				"element": "C" 
			},
			{
				"x": 0.3832463584,
				"y": -0.0938930442,
				"z": -0.3319471578,
				"element": "C" 
			},
			{
				"x": 1.4916395468,
				"y": -0.3144356204,
				"z": 0.5555662178,
				"element": "C" 
			},
			{
				"x": 2.5936749423,
				"y": 0.6856537247,
				"z": 0.777543353,
				"element": "C" 
			},
			{
				"x": 1.4137758102,
				"y": -1.5425023882,
				"z": 1.1651182302,
				"element": "C" 
			},
			{
				"x": 2.3669638314,
				"y": -2.1522631296,
				"z": 2.1557378898,
				"element": "C" 
			},
			{
				"x": -0.009059231,
				"y": -2.4486307955,
				"z": 0.6671643128,
				"element": "S" 
			},
			{
				"x": 0.1129795885,
				"y": 1.0682847545,
				"z": -1.1600416177,
				"element": "C" 
			},
			{
				"x": 0.776170349,
				"y": 2.0908336334,
				"z": -1.2723795707,
				"element": "O" 
			},
			{
				"x": -1.0866697165,
				"y": 0.9135510269,
				"z": -1.8970603122,
				"element": "N" 
			},
			{
				"x": -3.3219038596,
				"y": -2.2366953294,
				"z": -3.174070672,
				"element": "H" 
			},
			{
				"x": -4.8523988519,
				"y": -1.3350210376,
				"z": -3.3068829676,
				"element": "H" 
			},
			{
				"x": -4.1895900212,
				"y": -1.7628647828,
				"z": -1.7088239864,
				"element": "H" 
			},
			{
				"x": -3.8173816012,
				"y": 0.6588683073,
				"z": -2.273815407,
				"element": "H" 
			},
			{
				"x": 3.3293025993,
				"y": 0.3142236977,
				"z": 1.4948011537,
				"element": "H" 
			},
			{
				"x": 3.1072018839,
				"y": 0.9169618599,
				"z": -0.1605238861,
				"element": "H" 
			},
			{
				"x": 2.1934646789,
				"y": 1.6341356367,
				"z": 1.1482348122,
				"element": "H" 
			},
			{
				"x": 2.0419095253,
				"y": -3.1493951663,
				"z": 2.4634994379,
				"element": "H" 
			},
			{
				"x": 2.4475086633,
				"y": -1.5390254926,
				"z": 3.0602554591,
				"element": "H" 
			},
			{
				"x": 3.3724931576,
				"y": -2.2506742937,
				"z": 1.7317354424,
				"element": "H" 
			},
			{
				"x": -1.2903817792,
				"y": 1.6699593742,
				"z": -2.5412694177,
				"element": "H" 
			}
		],
		 "valence_orbital": [ 
			{
				"type": "occ",
				"energy": -0.29166,
				"method": "rhf"
			},
			{
				"type": "occ",
				"energy": -0.29009,
				"method": "rhf"
			},
			{
				"type": "occ",
				"energy": -0.26299,
				"method": "rhf"
			},
			{
				"type": "occ",
				"energy": -0.25589,
				"method": "rhf"
			},
			{
				"type": "occ",
				"energy": -0.21644,
				"method": "rhf"
			},
			{
				"type": "unocc",
				"energy": -0.05608,
				"method": "rhf"
			},
			{
				"type": "unocc",
				"energy": -0.01146,
				"method": "rhf"
			},
			{
				"type": "unocc",
				"energy": 0.00569,
				"method": "rhf"
			},
			{
				"type": "unocc",
				"energy": 0.01481,
				"method": "rhf"
			},
			{
				"type": "unocc",
				"energy": 0.03114,
				"method": "rhf"
			}
		],
		"cosmo_sigma_profile": { 
			"-0.025": 0.0,
			"-0.024": 0.0,
			"-0.023": 0.0,
			"-0.022": 0.0,
			"-0.021": 0.0,
			"-0.02": 0.0,
			"-0.019": 0.0,
			"-0.018": 0.0,
			"-0.017": 0.0,
			"-0.016": 0.0,
			"-0.015": 0.154112669344,
			"-0.014": 0.633298745224,
			"-0.013": 0.769823804009,
			"-0.012": 1.14619207932,
			"-0.011": 1.07357827975,
			"-0.01": 1.88726851854,
			"-0.009": 4.08171617464,
			"-0.008": 2.62022470727,
			"-0.007": 2.98025491243,
			"-0.006": 5.20409017805,
			"-0.005": 12.958255868,
			"-0.004": 20.2144655975,
			"-0.003": 23.0557634839,
			"-0.002": 23.4798030573,
			"-0.001": 28.5173797453,
			"0.0": 25.438778105,
			"0.001": 21.1240826418,
			"0.002": 21.6529839369,
			"0.003": 17.1993951221,
			"0.004": 12.2023541202,
			"0.005": 9.72336255491,
			"0.006": 6.09745649895,
			"0.007": 3.56000262026,
			"0.008": 2.52792303807,
			"0.009": 1.6867858412,
			"0.01": 2.51103334081,
			"0.011": 2.34305474339,
			"0.012": 2.54112361761,
			"0.013": 4.79025881023,
			"0.014": 0.748138663084,
			"0.015": 0.0,
			"0.016": 0.0,
			"0.017": 0.0,
			"0.018": 0.0,
			"0.019": 0.0,
			"0.02": 0.0,
			"0.021": 0.0,
			"0.022": 0.0,
			"0.023": 0.0,
			"0.024": 0.0,
			"0.025": 0.0
		}
	}
}
