{
	 "smiles": "CC1=C(O)C(C)=C(CCl)C(C)=C1CCl", 
	 "Tm": 411.15, 
	 "num_atms": 28, 
	 "gaussian": { 
		 "optdone": 1, 
		 "sigma_profile": "yes", 
		 "theory": "DFT", 
		 "functional": "B3LYP", 
		 "basiset": "6-31G**", 
		 "properties": { 
			 "R2extent": 4653.9851, 
			 "electric_dipole_moment_norm": 4.12125795723, 
			 "electric_quadrupole_moment_norm": 10.77397914, 
			 "total_energy": -1423.23777513, 
			 "HOMO_LUMO_gap": 0.18446, 
			 "cosmo_polarized_energy": -12.19, 
			 "cosmo_cavitation_energy": 32.24, 
			 "cosmo_dispersion_energy": -23.52, 
			 "cosmo_repulsion_energy": 1.84, 
			 "cosmo_total_nonelectrostatic_energy": 10.56, 
			 "SMD_solvation_energy": 4.84 
		},
		"coords": [
			{
				"x": 2.1456446883,
				"y": 0.2663553921,
				"z": 0.4209695127,
				"element": "C" 
			},
			{
				"x": 0.7689861054,
				"y": 0.420273743,
				"z": -0.1842108498,
				"element": "C" 
			},
			{
				"x": 0.5678774497,
				"y": 1.3580202724,
				"z": -1.2073888643,
				"element": "C" 
			},
			{
				"x": 1.6570767648,
				"y": 2.1040318706,
				"z": -1.5791303178,
				"element": "O" 
			},
			{
				"x": -0.6823219413,
				"y": 1.5342208783,
				"z": -1.819600938,
				"element": "C" 
			},
			{
				"x": -0.7990735482,
				"y": 2.5395639434,
				"z": -2.9458090103,
				"element": "C" 
			},
			{
				"x": -1.7702322949,
				"y": 0.7591478509,
				"z": -1.3699698742,
				"element": "C" 
			},
			{
				"x": -3.1395849453,
				"y": 1.0114140284,
				"z": -1.9309054865,
				"element": "C" 
			},
			{
				"x": -3.4889277314,
				"y": 0.0542291731,
				"z": -3.4715713953,
				"element": "Cl" 
			},
			{
				"x": -1.5946653117,
				"y": -0.2175721002,
				"z": -0.3688902662,
				"element": "C" 
			},
			{
				"x": -2.743716141,
				"y": -1.1201424468,
				"z": 0.0397318656,
				"element": "C" 
			},
			{
				"x": -0.3284851699,
				"y": -0.3526692784,
				"z": 0.2374987706,
				"element": "C" 
			},
			{
				"x": -0.1399998134,
				"y": -1.3064616753,
				"z": 1.3817863221,
				"element": "C" 
			},
			{
				"x": 0.3557163186,
				"y": -3.000065775,
				"z": 0.8389485773,
				"element": "Cl" 
			},
			{
				"x": 2.8994822699,
				"y": 0.7175200983,
				"z": -0.2239290098,
				"element": "H" 
			},
			{
				"x": 2.2148316177,
				"y": 0.7637960083,
				"z": 1.3972623806,
				"element": "H" 
			},
			{
				"x": 2.4025368862,
				"y": -0.7865956132,
				"z": 0.5644903682,
				"element": "H" 
			},
			{
				"x": 1.4076320223,
				"y": 2.710448117,
				"z": -2.286233354,
				"element": "H" 
			},
			{
				"x": -0.7836448293,
				"y": 3.5765976723,
				"z": -2.58300387,
				"element": "H" 
			},
			{
				"x": -1.7073829898,
				"y": 2.4056101245,
				"z": -3.5322488519,
				"element": "H" 
			},
			{
				"x": 0.0276016198,
				"y": 2.4265313201,
				"z": -3.6601192475,
				"element": "H" 
			},
			{
				"x": -3.2887276741,
				"y": 2.0526306035,
				"z": -2.2091415071,
				"element": "H" 
			},
			{
				"x": -3.9283052109,
				"y": 0.7255412767,
				"z": -1.2397517079,
				"element": "H" 
			},
			{
				"x": -3.4169708607,
				"y": -1.3128124989,
				"z": -0.7978756597,
				"element": "H" 
			},
			{
				"x": -2.3834004711,
				"y": -2.0956474999,
				"z": 0.3709441982,
				"element": "H" 
			},
			{
				"x": -3.3423681967,
				"y": -0.6927107941,
				"z": 0.8558572777,
				"element": "H" 
			},
			{
				"x": -1.0504502156,
				"y": -1.452593217,
				"z": 1.9585456,
				"element": "H" 
			},
			{
				"x": 0.6525716028,
				"y": -0.987761474,
				"z": 2.0549453372,
				"element": "H" 
			}
		],
		 "valence_orbital": [ 
			{
				"type": "occ",
				"energy": -0.29493,
				"method": "rhf"
			},
			{
				"type": "occ",
				"energy": -0.29186,
				"method": "rhf"
			},
			{
				"type": "occ",
				"energy": -0.29122,
				"method": "rhf"
			},
			{
				"type": "occ",
				"energy": -0.24326,
				"method": "rhf"
			},
			{
				"type": "occ",
				"energy": -0.22034,
				"method": "rhf"
			},
			{
				"type": "unocc",
				"energy": -0.03588,
				"method": "rhf"
			},
			{
				"type": "unocc",
				"energy": -0.01591,
				"method": "rhf"
			},
			{
				"type": "unocc",
				"energy": 0.03417,
				"method": "rhf"
			},
			{
				"type": "unocc",
				"energy": 0.05062,
				"method": "rhf"
			},
			{
				"type": "unocc",
				"energy": 0.0586,
				"method": "rhf"
			}
		],
		"cosmo_sigma_profile": { 
			"-0.025": 0.0,
			"-0.024": 0.0,
			"-0.023": 0.0,
			"-0.022": 0.0,
			"-0.021": 0.0,
			"-0.02": 0.0,
			"-0.019": 0.0,
			"-0.018": 0.0,
			"-0.017": 0.0258137343503,
			"-0.016": 0.503674716471,
			"-0.015": 0.607474480054,
			"-0.014": 1.06599083209,
			"-0.013": 1.22089819696,
			"-0.012": 0.766334283377,
			"-0.011": 0.915592708858,
			"-0.01": 0.900398358044,
			"-0.009": 1.81874822341,
			"-0.008": 1.60024151029,
			"-0.007": 8.39676219053,
			"-0.006": 12.2165838891,
			"-0.005": 15.2606372828,
			"-0.004": 20.9560511647,
			"-0.003": 17.3177860066,
			"-0.002": 18.3119934137,
			"-0.001": 17.4724328246,
			"0.0": 20.2483135548,
			"0.001": 15.8895992982,
			"0.002": 15.6389610255,
			"0.003": 15.9073556582,
			"0.004": 17.8700076502,
			"0.005": 17.4142581694,
			"0.006": 18.536237979,
			"0.007": 12.5511710893,
			"0.008": 2.56534395434,
			"0.009": 1.73974278186,
			"0.01": 0.988419292602,
			"0.011": 0.141072211559,
			"0.012": 0.0,
			"0.013": 0.0,
			"0.014": 0.0,
			"0.015": 0.0,
			"0.016": 0.0,
			"0.017": 0.0,
			"0.018": 0.0,
			"0.019": 0.0,
			"0.02": 0.0,
			"0.021": 0.0,
			"0.022": 0.0,
			"0.023": 0.0,
			"0.024": 0.0,
			"0.025": 0.0
		}
	}
}
