{
	 "smiles": "CCSCCO", 
	 "Tm": 173.15, 
	 "num_atms": 16, 
	 "gaussian": { 
		 "optdone": 1, 
		 "sigma_profile": "yes", 
		 "theory": "DFT", 
		 "functional": "B3LYP", 
		 "basiset": "6-31G**", 
		 "properties": { 
			 "R2extent": 1153.7783, 
			 "electric_dipole_moment_norm": 2.52721010998, 
			 "electric_quadrupole_moment_norm": 5.97545713565, 
			 "total_energy": -631.860283863, 
			 "HOMO_LUMO_gap": 0.26255, 
			 "cosmo_polarized_energy": -7.25, 
			 "cosmo_cavitation_energy": 19.82, 
			 "cosmo_dispersion_energy": -15.19, 
			 "cosmo_repulsion_energy": 1.28, 
			 "cosmo_total_nonelectrostatic_energy": 5.91, 
			 "SMD_solvation_energy": 3.18 
		},
		"coords": [
			{
				"x": -0.0027689861,
				"y": -1.2625802884,
				"z": -3.4354911034,
				"element": "C" 
			},
			{
				"x": 0.4176234054,
				"y": -0.625128433,
				"z": -2.1117692994,
				"element": "C" 
			},
			{
				"x": -0.3568767969,
				"y": -1.5293752588,
				"z": -0.7071812407,
				"element": "S" 
			},
			{
				"x": 0.3084047679,
				"y": -0.5894592573,
				"z": 0.7267133853,
				"element": "C" 
			},
			{
				"x": -0.3927572595,
				"y": 0.7542570478,
				"z": 0.9469708208,
				"element": "C" 
			},
			{
				"x": -1.7808808354,
				"y": 0.6107826063,
				"z": 1.1592655789,
				"element": "O" 
			},
			{
				"x": 0.4663374141,
				"y": -0.7342013815,
				"z": -4.27176491,
				"element": "H" 
			},
			{
				"x": -1.0873457461,
				"y": -1.2159517804,
				"z": -3.5723110399,
				"element": "H" 
			},
			{
				"x": 0.3011639049,
				"y": -2.3124673777,
				"z": -3.4846973289,
				"element": "H" 
			},
			{
				"x": 1.5049865529,
				"y": -0.6698545725,
				"z": -1.9897428383,
				"element": "H" 
			},
			{
				"x": 0.1149529615,
				"y": 0.4257058968,
				"z": -2.0810489257,
				"element": "H" 
			},
			{
				"x": 1.3898491364,
				"y": -0.4624106562,
				"z": 0.6052285577,
				"element": "H" 
			},
			{
				"x": 0.1368284831,
				"y": -1.237711152,
				"z": 1.5910440829,
				"element": "H" 
			},
			{
				"x": -0.1760750994,
				"y": 1.4320352357,
				"z": 0.1042162673,
				"element": "H" 
			},
			{
				"x": 0.014977306,
				"y": 1.2247326541,
				"z": 1.8495550565,
				"element": "H" 
			},
			{
				"x": -2.1164192089,
				"y": 0.0800267171,
				"z": 0.4198129369,
				"element": "H" 
			}
		],
		 "valence_orbital": [ 
			{
				"type": "occ",
				"energy": -0.34907,
				"method": "rhf"
			},
			{
				"type": "occ",
				"energy": -0.32692,
				"method": "rhf"
			},
			{
				"type": "occ",
				"energy": -0.30708,
				"method": "rhf"
			},
			{
				"type": "occ",
				"energy": -0.26681,
				"method": "rhf"
			},
			{
				"type": "occ",
				"energy": -0.2298,
				"method": "rhf"
			},
			{
				"type": "unocc",
				"energy": 0.03275,
				"method": "rhf"
			},
			{
				"type": "unocc",
				"energy": 0.07193,
				"method": "rhf"
			},
			{
				"type": "unocc",
				"energy": 0.08086,
				"method": "rhf"
			},
			{
				"type": "unocc",
				"energy": 0.11247,
				"method": "rhf"
			},
			{
				"type": "unocc",
				"energy": 0.11682,
				"method": "rhf"
			}
		],
		"cosmo_sigma_profile": { 
			"-0.025": 0.0,
			"-0.024": 0.0,
			"-0.023": 0.0,
			"-0.022": 0.0,
			"-0.021": 0.0,
			"-0.02": 0.0,
			"-0.019": 0.0,
			"-0.018": 0.0,
			"-0.017": 0.0,
			"-0.016": 0.0,
			"-0.015": 0.0,
			"-0.014": 0.0,
			"-0.013": 0.0,
			"-0.012": 0.0,
			"-0.011": 0.143450227275,
			"-0.01": 0.587052640068,
			"-0.009": 0.668959727475,
			"-0.008": 0.692122060763,
			"-0.007": 0.638911447237,
			"-0.006": 2.48980126869,
			"-0.005": 12.7515939023,
			"-0.004": 19.3733858308,
			"-0.003": 21.2147970532,
			"-0.002": 19.1290287371,
			"-0.001": 16.4199718521,
			"0.0": 13.8283440121,
			"0.001": 8.06183810093,
			"0.002": 4.08101146433,
			"0.003": 3.17375300344,
			"0.004": 3.41791847669,
			"0.005": 4.07073617189,
			"0.006": 4.52182395942,
			"0.007": 4.02986009067,
			"0.008": 3.3119510204,
			"0.009": 2.49709991598,
			"0.01": 1.91450464208,
			"0.011": 1.93862594234,
			"0.012": 1.35493922375,
			"0.013": 2.00349902871,
			"0.014": 2.21666721983,
			"0.015": 1.14234713742,
			"0.016": 0.0,
			"0.017": 0.0,
			"0.018": 0.0,
			"0.019": 0.0,
			"0.02": 0.0,
			"0.021": 0.0,
			"0.022": 0.0,
			"0.023": 0.0,
			"0.024": 0.0,
			"0.025": 0.0
		}
	}
}
