{
	 "smiles": "OC(=O)COC1=C(Cl)C(Cl)=C(C=C1)C(=O)C1=CC=CS1", 
	 "Tm": 422.15, 
	 "num_atms": 28, 
	 "gaussian": { 
		 "optdone": 1, 
		 "sigma_profile": "yes", 
		 "theory": "DFT", 
		 "functional": "B3LYP", 
		 "basiset": "6-31G**", 
		 "properties": { 
			 "R2extent": 10900.471, 
			 "electric_dipole_moment_norm": 4.57771837819, 
			 "electric_quadrupole_moment_norm": 24.6219455876, 
			 "total_energy": -2119.64035308, 
			 "HOMO_LUMO_gap": 0.17374, 
			 "cosmo_polarized_energy": -20.12, 
			 "cosmo_cavitation_energy": 39.11, 
			 "cosmo_dispersion_energy": -28.11, 
			 "cosmo_repulsion_energy": 2.12, 
			 "cosmo_total_nonelectrostatic_energy": 13.12, 
			 "SMD_solvation_energy": 8.18 
		},
		"coords": [
			{
				"x": -2.390613456,
				"y": 2.0404647871,
				"z": 4.2858946604,
				"element": "O" 
			},
			{
				"x": -3.1888526633,
				"y": 1.4919975889,
				"z": 3.3589652054,
				"element": "C" 
			},
			{
				"x": -4.3662398339,
				"y": 1.3009768404,
				"z": 3.5279495233,
				"element": "O" 
			},
			{
				"x": -2.5188528709,
				"y": 1.1109634972,
				"z": 2.035779465,
				"element": "C" 
			},
			{
				"x": -1.1306901948,
				"y": 1.4177701594,
				"z": 2.1257723902,
				"element": "O" 
			},
			{
				"x": -0.3097760469,
				"y": 1.1926862295,
				"z": 1.0639290815,
				"element": "C" 
			},
			{
				"x": 1.0393668306,
				"y": 1.5631770381,
				"z": 1.23005839,
				"element": "C" 
			},
			{
				"x": 1.5202941616,
				"y": 2.2922896023,
				"z": 2.737508585,
				"element": "Cl" 
			},
			{
				"x": 1.9543450942,
				"y": 1.3547523506,
				"z": 0.1897142578,
				"element": "C" 
			},
			{
				"x": 3.6052752732,
				"y": 1.8912348446,
				"z": 0.3823014634,
				"element": "Cl" 
			},
			{
				"x": 1.5384666478,
				"y": 0.7739380686,
				"z": -1.020211406,
				"element": "C" 
			},
			{
				"x": 0.1879289251,
				"y": 0.4501064483,
				"z": -1.1726874006,
				"element": "C" 
			},
			{
				"x": -0.7317875686,
				"y": 0.6391152877,
				"z": -0.1462417537,
				"element": "C" 
			},
			{
				"x": 2.4335540246,
				"y": 0.5416717971,
				"z": -2.2206134889,
				"element": "C" 
			},
			{
				"x": 2.1594711779,
				"y": 1.0843449976,
				"z": -3.284246833,
				"element": "O" 
			},
			{
				"x": 3.5414458874,
				"y": -0.4091204193,
				"z": -2.103169465,
				"element": "C" 
			},
			{
				"x": 3.8809580907,
				"y": -1.2586690741,
				"z": -1.0686386177,
				"element": "C" 
			},
			{
				"x": 5.0005248622,
				"y": -2.0762448301,
				"z": -1.3671723364,
				"element": "C" 
			},
			{
				"x": 5.4972424566,
				"y": -1.8385712648,
				"z": -2.6264559625,
				"element": "C" 
			},
			{
				"x": 4.6073780944,
				"y": -0.627034414,
				"z": -3.4712498208,
				"element": "S" 
			},
			{
				"x": -1.4849125539,
				"y": 2.0964135049,
				"z": 3.9323131471,
				"element": "H" 
			},
			{
				"x": -3.000564251,
				"y": 1.6759196614,
				"z": 1.2291674082,
				"element": "H" 
			},
			{
				"x": -2.6815367151,
				"y": 0.0410606127,
				"z": 1.8620367903,
				"element": "H" 
			},
			{
				"x": -0.1419984432,
				"y": 0.039460573,
				"z": -2.120956795,
				"element": "H" 
			},
			{
				"x": -1.7682365991,
				"y": 0.3623342298,
				"z": -0.2943910797,
				"element": "H" 
			},
			{
				"x": 3.3396305272,
				"y": -1.291509505,
				"z": -0.1306663817,
				"element": "H" 
			},
			{
				"x": 5.4199618525,
				"y": -2.8054709056,
				"z": -0.6840784303,
				"element": "H" 
			},
			{
				"x": 6.3429172904,
				"y": -2.3166577064,
				"z": -3.1028105963,
				"element": "H" 
			}
		],
		 "valence_orbital": [ 
			{
				"type": "occ",
				"energy": -0.27532,
				"method": "rhf"
			},
			{
				"type": "occ",
				"energy": -0.27264,
				"method": "rhf"
			},
			{
				"type": "occ",
				"energy": -0.26884,
				"method": "rhf"
			},
			{
				"type": "occ",
				"energy": -0.25605,
				"method": "rhf"
			},
			{
				"type": "occ",
				"energy": -0.25425,
				"method": "rhf"
			},
			{
				"type": "unocc",
				"energy": -0.08051,
				"method": "rhf"
			},
			{
				"type": "unocc",
				"energy": -0.04508,
				"method": "rhf"
			},
			{
				"type": "unocc",
				"energy": -0.03499,
				"method": "rhf"
			},
			{
				"type": "unocc",
				"energy": -0.01563,
				"method": "rhf"
			},
			{
				"type": "unocc",
				"energy": -0.00142,
				"method": "rhf"
			}
		],
		"cosmo_sigma_profile": { 
			"-0.025": 0.0,
			"-0.024": 0.0,
			"-0.023": 0.0,
			"-0.022": 0.0,
			"-0.021": 0.0,
			"-0.02": 0.0,
			"-0.019": 0.0,
			"-0.018": 0.0,
			"-0.017": 0.0,
			"-0.016": 0.0,
			"-0.015": 0.0,
			"-0.014": 0.0,
			"-0.013": 0.0,
			"-0.012": 0.0,
			"-0.011": 0.443833780509,
			"-0.01": 4.55416965126,
			"-0.009": 13.0187408797,
			"-0.008": 13.3021979438,
			"-0.007": 16.8043064409,
			"-0.006": 14.5079227769,
			"-0.005": 12.4557735523,
			"-0.004": 11.3767217859,
			"-0.003": 14.1805743814,
			"-0.002": 17.220807817,
			"-0.001": 24.3506934268,
			"0.0": 25.763788345,
			"0.001": 26.6799760809,
			"0.002": 31.7885379222,
			"0.003": 28.9388882513,
			"0.004": 15.3712571609,
			"0.005": 7.22836188681,
			"0.006": 3.86940104821,
			"0.007": 4.32709459267,
			"0.008": 4.88448115715,
			"0.009": 6.74107096832,
			"0.01": 6.46262961146,
			"0.011": 9.91406390946,
			"0.012": 6.15579140771,
			"0.013": 0.715805716287,
			"0.014": 0.0,
			"0.015": 0.0,
			"0.016": 0.0,
			"0.017": 0.0,
			"0.018": 0.0,
			"0.019": 0.0,
			"0.02": 0.0,
			"0.021": 0.0,
			"0.022": 0.0,
			"0.023": 0.0,
			"0.024": 0.0,
			"0.025": 0.0
		}
	}
}
