{
	 "smiles": "CSCCC(NC(=O)C1=NC2=C(C=CC=C2)C=C1)C(O)=O", 
	 "Tm": 405.15, 
	 "num_atms": 37, 
	 "gaussian": { 
		 "optdone": 1, 
		 "sigma_profile": "yes", 
		 "theory": "DFT", 
		 "functional": "B3LYP", 
		 "basiset": "6-31G**", 
		 "properties": { 
			 "R2extent": 9648.7325, 
			 "electric_dipole_moment_norm": 9.00832998619, 
			 "electric_quadrupole_moment_norm": 35.7230612654, 
			 "total_energy": -1314.65580672, 
			 "HOMO_LUMO_gap": 0.13878, 
			 "cosmo_polarized_energy": -19.15, 
			 "cosmo_cavitation_energy": 42.77, 
			 "cosmo_dispersion_energy": -30.16, 
			 "cosmo_repulsion_energy": 2.28, 
			 "cosmo_total_nonelectrostatic_energy": 14.9, 
			 "SMD_solvation_energy": 7.04 
		},
		"coords": [
			{
				"x": 0.7521912915,
				"y": 0.880150722,
				"z": 4.0416470598,
				"element": "C" 
			},
			{
				"x": 0.2150140237,
				"y": -0.8429148687,
				"z": 3.7746219775,
				"element": "S" 
			},
			{
				"x": -1.0889238851,
				"y": -0.5602216879,
				"z": 2.5092025789,
				"element": "C" 
			},
			{
				"x": -1.6744283807,
				"y": -1.8850891537,
				"z": 2.0078800812,
				"element": "C" 
			},
			{
				"x": -0.7004127739,
				"y": -2.7568115174,
				"z": 1.2114467193,
				"element": "C" 
			},
			{
				"x": -0.2942740956,
				"y": -2.0743839095,
				"z": -0.0199725523,
				"element": "N" 
			},
			{
				"x": 0.8177971974,
				"y": -2.3899211503,
				"z": -0.7102228416,
				"element": "C" 
			},
			{
				"x": 1.5232043136,
				"y": -3.3810836876,
				"z": -0.4550517911,
				"element": "O" 
			},
			{
				"x": 1.1587354434,
				"y": -1.4562353545,
				"z": -1.8411111509,
				"element": "C" 
			},
			{
				"x": 0.3531318652,
				"y": -0.4258359944,
				"z": -2.0354549035,
				"element": "N" 
			},
			{
				"x": 0.6330782709,
				"y": 0.430467044,
				"z": -3.05628441,
				"element": "C" 
			},
			{
				"x": 1.7709017417,
				"y": 0.2464495298,
				"z": -3.9089243756,
				"element": "C" 
			},
			{
				"x": 2.0071695474,
				"y": 1.1781223746,
				"z": -4.9534745923,
				"element": "C" 
			},
			{
				"x": 1.154582249,
				"y": 2.2420369798,
				"z": -5.144514371,
				"element": "C" 
			},
			{
				"x": 0.0287464197,
				"y": 2.4221888607,
				"z": -4.3008454593,
				"element": "C" 
			},
			{
				"x": -0.2285540456,
				"y": 1.537801232,
				"z": -3.2785565016,
				"element": "C" 
			},
			{
				"x": 2.6060865335,
				"y": -0.8722086008,
				"z": -3.6577245001,
				"element": "C" 
			},
			{
				"x": 2.3050507752,
				"y": -1.7297501953,
				"z": -2.6270325253,
				"element": "C" 
			},
			{
				"x": -1.31408791,
				"y": -4.1486009138,
				"z": 0.9088187247,
				"element": "C" 
			},
			{
				"x": -0.4976343059,
				"y": -4.9980289951,
				"z": 0.2756946017,
				"element": "O" 
			},
			{
				"x": -2.4369075494,
				"y": -4.4546612318,
				"z": 1.2383522766,
				"element": "O" 
			},
			{
				"x": 1.1540563927,
				"y": 1.3171252099,
				"z": 3.1232974861,
				"element": "H" 
			},
			{
				"x": -0.0687292778,
				"y": 1.4975484888,
				"z": 4.4166277715,
				"element": "H" 
			},
			{
				"x": 1.5433912313,
				"y": 0.8530000532,
				"z": 4.7938559144,
				"element": "H" 
			},
			{
				"x": -1.8868100187,
				"y": 0.0415460283,
				"z": 2.9559953029,
				"element": "H" 
			},
			{
				"x": -0.6540474974,
				"y": 0.0176663215,
				"z": 1.6855956754,
				"element": "H" 
			},
			{
				"x": -2.0465129437,
				"y": -2.4785339494,
				"z": 2.8468307872,
				"element": "H" 
			},
			{
				"x": -2.5526319596,
				"y": -1.6775127339,
				"z": 1.3843764225,
				"element": "H" 
			},
			{
				"x": 0.2139168275,
				"y": -2.9299513248,
				"z": 1.7945193652,
				"element": "H" 
			},
			{
				"x": -0.8104918496,
				"y": -1.2699627451,
				"z": -0.3590480251,
				"element": "H" 
			},
			{
				"x": 2.8701643873,
				"y": 1.0366181676,
				"z": -5.598616308,
				"element": "H" 
			},
			{
				"x": 1.3409563577,
				"y": 2.9505682011,
				"z": -5.945931936,
				"element": "H" 
			},
			{
				"x": -0.6332120517,
				"y": 3.2666928372,
				"z": -4.4675816733,
				"element": "H" 
			},
			{
				"x": -1.0841954965,
				"y": 1.6554020782,
				"z": -2.6216815343,
				"element": "H" 
			},
			{
				"x": 3.4761440092,
				"y": -1.0403055169,
				"z": -4.2870892894,
				"element": "H" 
			},
			{
				"x": 2.903851787,
				"y": -2.6012180906,
				"z": -2.3919022754,
				"element": "H" 
			},
			{
				"x": 0.3707833766,
				"y": -4.5647525074,
				"z": 0.0779582713,
				"element": "H" 
			}
		],
		 "valence_orbital": [ 
			{
				"type": "occ",
				"energy": -0.27338,
				"method": "rhf"
			},
			{
				"type": "occ",
				"energy": -0.27177,
				"method": "rhf"
			},
			{
				"type": "occ",
				"energy": -0.25473,
				"method": "rhf"
			},
			{
				"type": "occ",
				"energy": -0.24655,
				"method": "rhf"
			},
			{
				"type": "occ",
				"energy": -0.22385,
				"method": "rhf"
			},
			{
				"type": "unocc",
				"energy": -0.08507,
				"method": "rhf"
			},
			{
				"type": "unocc",
				"energy": -0.04858,
				"method": "rhf"
			},
			{
				"type": "unocc",
				"energy": -0.00507,
				"method": "rhf"
			},
			{
				"type": "unocc",
				"energy": 0.01676,
				"method": "rhf"
			},
			{
				"type": "unocc",
				"energy": 0.02641,
				"method": "rhf"
			}
		],
		"cosmo_sigma_profile": { 
			"-0.025": 0.0,
			"-0.024": 0.0,
			"-0.023": 0.0,
			"-0.022": 0.0,
			"-0.021": 0.0,
			"-0.02": 0.0,
			"-0.019": 0.0,
			"-0.018": 0.0,
			"-0.017": 0.0,
			"-0.016": 0.0,
			"-0.015": 0.0,
			"-0.014": 0.0,
			"-0.013": 0.0272458169805,
			"-0.012": 0.895238584722,
			"-0.011": 0.9717815267,
			"-0.01": 1.13695347481,
			"-0.009": 1.57051421955,
			"-0.008": 4.38406284023,
			"-0.007": 11.1363368525,
			"-0.006": 17.8188975708,
			"-0.005": 28.2935375418,
			"-0.004": 29.0611400091,
			"-0.003": 27.904310691,
			"-0.002": 28.7142507564,
			"-0.001": 26.3250167473,
			"0.0": 24.5077526066,
			"0.001": 26.995785053,
			"0.002": 21.3305599801,
			"0.003": 18.4751436529,
			"0.004": 13.1243092579,
			"0.005": 8.31941602758,
			"0.006": 7.80361785917,
			"0.007": 6.76888145678,
			"0.008": 5.53965082008,
			"0.009": 6.90362352537,
			"0.01": 7.30677884105,
			"0.011": 8.72455775565,
			"0.012": 6.47117345819,
			"0.013": 1.67605295916,
			"0.014": 0.0900036876617,
			"0.015": 0.0,
			"0.016": 0.0,
			"0.017": 0.0,
			"0.018": 0.0,
			"0.019": 0.0,
			"0.02": 0.0,
			"0.021": 0.0,
			"0.022": 0.0,
			"0.023": 0.0,
			"0.024": 0.0,
			"0.025": 0.0
		}
	}
}
