{
	 "smiles": "O1C2=C(OC3=NC4=CC=CC=C4N=C13)C=CC=C2", 
	 "Tm": 529.15, 
	 "num_atms": 26, 
	 "gaussian": { 
		 "optdone": 1, 
		 "sigma_profile": "yes", 
		 "theory": "DFT", 
		 "functional": "B3LYP", 
		 "basiset": "6-31G**", 
		 "properties": { 
			 "R2extent": 5624.4249, 
			 "electric_dipole_moment_norm": 0.825702482738, 
			 "electric_quadrupole_moment_norm": 18.1672166534, 
			 "total_energy": -798.254519959, 
			 "HOMO_LUMO_gap": 0.15148, 
			 "cosmo_polarized_energy": -9.24, 
			 "cosmo_cavitation_energy": 30.82, 
			 "cosmo_dispersion_energy": -23.77, 
			 "cosmo_repulsion_energy": 1.76, 
			 "cosmo_total_nonelectrostatic_energy": 8.82, 
			 "SMD_solvation_energy": 2.44 
		},
		"coords": [
			{
				"x": -0.543688486,
				"y": -2.0305085929,
				"z": 0.9961722677,
				"element": "O" 
			},
			{
				"x": 0.0078138821,
				"y": -2.5000022711,
				"z": 2.1736649871,
				"element": "C" 
			},
			{
				"x": 1.1251604088,
				"y": -1.8938141055,
				"z": 2.7532590954,
				"element": "C" 
			},
			{
				"x": 1.7347016875,
				"y": -0.7944384443,
				"z": 2.178017508,
				"element": "O" 
			},
			{
				"x": 1.2007448504,
				"y": -0.3183576894,
				"z": 1.0128231891,
				"element": "C" 
			},
			{
				"x": 1.7799155855,
				"y": 0.7117421518,
				"z": 0.4828967134,
				"element": "N" 
			},
			{
				"x": 1.2513425314,
				"y": 1.1963284153,
				"z": -0.6861422825,
				"element": "C" 
			},
			{
				"x": 1.8389291589,
				"y": 2.3180800296,
				"z": -1.3128342839,
				"element": "C" 
			},
			{
				"x": 1.3059958144,
				"y": 2.8055402862,
				"z": -2.490301513,
				"element": "C" 
			},
			{
				"x": 0.1753553533,
				"y": 2.1920306918,
				"z": -3.0768758928,
				"element": "C" 
			},
			{
				"x": -0.4164300298,
				"y": 1.0942976614,
				"z": -2.4828794979,
				"element": "C" 
			},
			{
				"x": 0.1102839567,
				"y": 0.5772090619,
				"z": -1.2780877346,
				"element": "C" 
			},
			{
				"x": -0.4767329073,
				"y": -0.5126366268,
				"z": -0.6877444155,
				"element": "N" 
			},
			{
				"x": 0.0482373093,
				"y": -0.9436417637,
				"z": 0.4149791609,
				"element": "C" 
			},
			{
				"x": 1.6558761472,
				"y": -2.3907341832,
				"z": 3.9388423773,
				"element": "C" 
			},
			{
				"x": 1.0652936715,
				"y": -3.4998531787,
				"z": 4.5471738197,
				"element": "C" 
			},
			{
				"x": -0.0511674574,
				"y": -4.1055978608,
				"z": 3.9680085021,
				"element": "C" 
			},
			{
				"x": -0.5821890784,
				"y": -3.6049998207,
				"z": 2.7778714689,
				"element": "C" 
			},
			{
				"x": 2.7057534883,
				"y": 2.7710227792,
				"z": -0.8429594703,
				"element": "H" 
			},
			{
				"x": 1.757071206,
				"y": 3.6676365057,
				"z": -2.9725266714,
				"element": "H" 
			},
			{
				"x": -0.2288853848,
				"y": 2.5899773124,
				"z": -4.0028617441,
				"element": "H" 
			},
			{
				"x": -1.2845346698,
				"y": 0.6057828502,
				"z": -2.9130804361,
				"element": "H" 
			},
			{
				"x": 2.523798222,
				"y": -1.8981086806,
				"z": 4.3639610867,
				"element": "H" 
			},
			{
				"x": 1.4803089812,
				"y": -3.8865915623,
				"z": 5.4722162304,
				"element": "H" 
			},
			{
				"x": -0.5124491953,
				"y": -4.9678085023,
				"z": 4.4384537189,
				"element": "H" 
			},
			{
				"x": -1.4485050457,
				"y": -4.053354463,
				"z": 2.3033538165,
				"element": "H" 
			}
		],
		 "valence_orbital": [ 
			{
				"type": "occ",
				"energy": -0.26854,
				"method": "rhf"
			},
			{
				"type": "occ",
				"energy": -0.26612,
				"method": "rhf"
			},
			{
				"type": "occ",
				"energy": -0.26304,
				"method": "rhf"
			},
			{
				"type": "occ",
				"energy": -0.24027,
				"method": "rhf"
			},
			{
				"type": "occ",
				"energy": -0.2163,
				"method": "rhf"
			},
			{
				"type": "unocc",
				"energy": -0.06482,
				"method": "rhf"
			},
			{
				"type": "unocc",
				"energy": -0.0309,
				"method": "rhf"
			},
			{
				"type": "unocc",
				"energy": -0.01533,
				"method": "rhf"
			},
			{
				"type": "unocc",
				"energy": 0.00608,
				"method": "rhf"
			},
			{
				"type": "unocc",
				"energy": 0.00874,
				"method": "rhf"
			}
		],
		"cosmo_sigma_profile": { 
			"-0.025": 0.0,
			"-0.024": 0.0,
			"-0.023": 0.0,
			"-0.022": 0.0,
			"-0.021": 0.0,
			"-0.02": 0.0,
			"-0.019": 0.0,
			"-0.018": 0.0,
			"-0.017": 0.0,
			"-0.016": 0.0,
			"-0.015": 0.0,
			"-0.014": 0.0,
			"-0.013": 0.0,
			"-0.012": 0.0,
			"-0.011": 0.0,
			"-0.01": 0.0,
			"-0.009": 0.284213966481,
			"-0.008": 2.38380047486,
			"-0.007": 9.17479055422,
			"-0.006": 19.3598338861,
			"-0.005": 19.9583354587,
			"-0.004": 19.0466978689,
			"-0.003": 14.601148802,
			"-0.002": 13.6503065417,
			"-0.001": 14.1114301739,
			"0.0": 19.0143298797,
			"0.001": 21.8242655203,
			"0.002": 26.0810602317,
			"0.003": 22.9097242574,
			"0.004": 17.1939213075,
			"0.005": 5.47677598855,
			"0.006": 4.19622578306,
			"0.007": 4.14881196281,
			"0.008": 4.16557604,
			"0.009": 3.27194073362,
			"0.01": 3.32453944865,
			"0.011": 2.1496999072,
			"0.012": 1.60833284942,
			"0.013": 1.79849055641,
			"0.014": 0.495343154578,
			"0.015": 0.0,
			"0.016": 0.0,
			"0.017": 0.0,
			"0.018": 0.0,
			"0.019": 0.0,
			"0.02": 0.0,
			"0.021": 0.0,
			"0.022": 0.0,
			"0.023": 0.0,
			"0.024": 0.0,
			"0.025": 0.0
		}
	}
}
