{
	 "smiles": "COC1=CC(=CC=C1)N1C=NC=N1", 
	 "Tm": 369.15, 
	 "num_atms": 22, 
	 "gaussian": { 
		 "optdone": 1, 
		 "sigma_profile": "yes", 
		 "theory": "DFT", 
		 "functional": "B3LYP", 
		 "basiset": "6-31G**", 
		 "properties": { 
			 "R2extent": 2801.3885, 
			 "electric_dipole_moment_norm": 2.90328713874, 
			 "electric_quadrupole_moment_norm": 8.7840453915, 
			 "total_energy": -587.827634878, 
			 "HOMO_LUMO_gap": 0.18974, 
			 "cosmo_polarized_energy": -11.55, 
			 "cosmo_cavitation_energy": 26.29, 
			 "cosmo_dispersion_energy": -19.54, 
			 "cosmo_repulsion_energy": 1.51, 
			 "cosmo_total_nonelectrostatic_energy": 8.27, 
			 "SMD_solvation_energy": 3.58 
		},
		"coords": [
			{
				"x": -0.2330688565,
				"y": -0.979149277,
				"z": -3.2579089585,
				"element": "C" 
			},
			{
				"x": -1.5082088039,
				"y": -0.7600938726,
				"z": -2.6754669478,
				"element": "O" 
			},
			{
				"x": -1.5733788662,
				"y": -0.3729417324,
				"z": -1.370488831,
				"element": "C" 
			},
			{
				"x": -0.4548003704,
				"y": -0.1742812292,
				"z": -0.5556776924,
				"element": "C" 
			},
			{
				"x": -0.6424748994,
				"y": 0.2251859566,
				"z": 0.7757147205,
				"element": "C" 
			},
			{
				"x": -1.9201997051,
				"y": 0.4260795503,
				"z": 1.2960568045,
				"element": "C" 
			},
			{
				"x": -3.0225470179,
				"y": 0.2213578078,
				"z": 0.4626666812,
				"element": "C" 
			},
			{
				"x": -2.8648232671,
				"y": -0.1741841273,
				"z": -0.8590689159,
				"element": "C" 
			},
			{
				"x": 0.4893331446,
				"y": 0.430453701,
				"z": 1.6150032329,
				"element": "N" 
			},
			{
				"x": 1.8180379198,
				"y": 0.3021907185,
				"z": 1.3470255316,
				"element": "C" 
			},
			{
				"x": 2.5404336233,
				"y": 0.5893190504,
				"z": 2.412884336,
				"element": "N" 
			},
			{
				"x": 1.5867633318,
				"y": 0.8970733232,
				"z": 3.3385772216,
				"element": "C" 
			},
			{
				"x": 0.3379631402,
				"y": 0.8186594157,
				"z": 2.9134952727,
				"element": "N" 
			},
			{
				"x": 0.3136347568,
				"y": -1.7821798411,
				"z": -2.7465826229,
				"element": "H" 
			},
			{
				"x": -0.4212656404,
				"y": -1.2763833031,
				"z": -4.2903837424,
				"element": "H" 
			},
			{
				"x": 0.3774546287,
				"y": -0.0667759713,
				"z": -3.2520567888,
				"element": "H" 
			},
			{
				"x": 0.5405870891,
				"y": -0.3271474451,
				"z": -0.9488722188,
				"element": "H" 
			},
			{
				"x": -2.0330141655,
				"y": 0.7340592987,
				"z": 2.3267667312,
				"element": "H" 
			},
			{
				"x": -4.0218196631,
				"y": 0.375247375,
				"z": 0.8587597294,
				"element": "H" 
			},
			{
				"x": -3.713907082,
				"y": -0.3357009342,
				"z": -1.5139638151,
				"element": "H" 
			},
			{
				"x": 2.208823536,
				"y": 0.0046991135,
				"z": 0.3860442603,
				"element": "H" 
			},
			{
				"x": 1.8196771673,
				"y": 1.1874124226,
				"z": 4.3537760117,
				"element": "H" 
			}
		],
		 "valence_orbital": [ 
			{
				"type": "occ",
				"energy": -0.30485,
				"method": "rhf"
			},
			{
				"type": "occ",
				"energy": -0.27903,
				"method": "rhf"
			},
			{
				"type": "occ",
				"energy": -0.27845,
				"method": "rhf"
			},
			{
				"type": "occ",
				"energy": -0.24837,
				"method": "rhf"
			},
			{
				"type": "occ",
				"energy": -0.226,
				"method": "rhf"
			},
			{
				"type": "unocc",
				"energy": -0.03626,
				"method": "rhf"
			},
			{
				"type": "unocc",
				"energy": -0.00265,
				"method": "rhf"
			},
			{
				"type": "unocc",
				"energy": 0.03554,
				"method": "rhf"
			},
			{
				"type": "unocc",
				"energy": 0.05315,
				"method": "rhf"
			},
			{
				"type": "unocc",
				"energy": 0.07043,
				"method": "rhf"
			}
		],
		"cosmo_sigma_profile": { 
			"-0.025": 0.0,
			"-0.024": 0.0,
			"-0.023": 0.0,
			"-0.022": 0.0,
			"-0.021": 0.0,
			"-0.02": 0.0,
			"-0.019": 0.0,
			"-0.018": 0.0,
			"-0.017": 0.0,
			"-0.016": 0.0,
			"-0.015": 0.0,
			"-0.014": 0.0,
			"-0.013": 0.126193838754,
			"-0.012": 1.37653055771,
			"-0.011": 1.97708113031,
			"-0.01": 1.84080858292,
			"-0.009": 2.90502513272,
			"-0.008": 3.96440629862,
			"-0.007": 5.0391450172,
			"-0.006": 12.9974223826,
			"-0.005": 15.8995202947,
			"-0.004": 17.4634684503,
			"-0.003": 15.3218899955,
			"-0.002": 12.4806174075,
			"-0.001": 11.3605449602,
			"0.0": 12.2025568522,
			"0.001": 12.8278985499,
			"0.002": 14.7789958884,
			"0.003": 18.1852368055,
			"0.004": 14.44656344,
			"0.005": 7.41713643279,
			"0.006": 5.54224023946,
			"0.007": 4.18068280066,
			"0.008": 4.11037630913,
			"0.009": 3.03205531382,
			"0.01": 3.77281623805,
			"0.011": 2.77711981277,
			"0.012": 1.29633111489,
			"0.013": 1.03613650484,
			"0.014": 1.03008527104,
			"0.015": 1.20229914621,
			"0.016": 0.822212092767,
			"0.017": 0.0693705385287,
			"0.018": 0.0,
			"0.019": 0.0,
			"0.02": 0.0,
			"0.021": 0.0,
			"0.022": 0.0,
			"0.023": 0.0,
			"0.024": 0.0,
			"0.025": 0.0
		}
	}
}
