{
	 "smiles": "FCS(=O)(=O)C1=CC=CC=C1", 
	 "Tm": 326.15, 
	 "num_atms": 18, 
	 "gaussian": { 
		 "optdone": 1, 
		 "sigma_profile": "yes", 
		 "theory": "DFT", 
		 "functional": "B3LYP", 
		 "basiset": "6-31G**", 
		 "properties": { 
			 "R2extent": 3066.5736, 
			 "electric_dipole_moment_norm": 4.49947658512, 
			 "electric_quadrupole_moment_norm": 15.0134098182, 
			 "total_energy": -919.351480928, 
			 "HOMO_LUMO_gap": 0.22928, 
			 "cosmo_polarized_energy": -13.17, 
			 "cosmo_cavitation_energy": 23.86, 
			 "cosmo_dispersion_energy": -17.78, 
			 "cosmo_repulsion_energy": 1.36, 
			 "cosmo_total_nonelectrostatic_energy": 7.45, 
			 "SMD_solvation_energy": 4.11 
		},
		"coords": [
			{
				"x": -1.2451156836,
				"y": 0.9933281844,
				"z": 3.3870309941,
				"element": "F" 
			},
			{
				"x": -1.0661388545,
				"y": 2.221139007,
				"z": 2.8073460799,
				"element": "C" 
			},
			{
				"x": 0.6486174704,
				"y": 2.3595315549,
				"z": 2.1692192385,
				"element": "S" 
			},
			{
				"x": 0.6857249717,
				"y": 3.6509764241,
				"z": 1.4633312359,
				"element": "O" 
			},
			{
				"x": 1.5590848931,
				"y": 2.0555542094,
				"z": 3.28039885,
				"element": "O" 
			},
			{
				"x": 0.7533833912,
				"y": 1.0358457438,
				"z": 0.9631044362,
				"element": "C" 
			},
			{
				"x": 0.6169682445,
				"y": 1.3431342128,
				"z": -0.3918797207,
				"element": "C" 
			},
			{
				"x": 0.6954982471,
				"y": 0.3094452291,
				"z": -1.3257815546,
				"element": "C" 
			},
			{
				"x": 0.9011027615,
				"y": -1.0047293037,
				"z": -0.8989795753,
				"element": "C" 
			},
			{
				"x": 1.0373016868,
				"y": -1.2954663359,
				"z": 0.4613326241,
				"element": "C" 
			},
			{
				"x": 0.9670703005,
				"y": -0.2721995439,
				"z": 1.405971301,
				"element": "C" 
			},
			{
				"x": -1.17460798,
				"y": 3.021721131,
				"z": 3.5462169768,
				"element": "H" 
			},
			{
				"x": -1.7545398613,
				"y": 2.3578120008,
				"z": 1.9682410487,
				"element": "H" 
			},
			{
				"x": 0.4706039326,
				"y": 2.3739380218,
				"z": -0.6963857191,
				"element": "H" 
			},
			{
				"x": 0.6005827484,
				"y": 0.5306674145,
				"z": -2.3844649284,
				"element": "H" 
			},
			{
				"x": 0.96065417,
				"y": -1.8059082144,
				"z": -1.6298324006,
				"element": "H" 
			},
			{
				"x": 1.2043623458,
				"y": -2.3178714616,
				"z": 0.7860021767,
				"element": "H" 
			},
			{
				"x": 1.088147216,
				"y": -0.4746182741,
				"z": 2.4641289369,
				"element": "H" 
			}
		],
		 "valence_orbital": [ 
			{
				"type": "occ",
				"energy": -0.3231,
				"method": "rhf"
			},
			{
				"type": "occ",
				"energy": -0.30644,
				"method": "rhf"
			},
			{
				"type": "occ",
				"energy": -0.29034,
				"method": "rhf"
			},
			{
				"type": "occ",
				"energy": -0.28055,
				"method": "rhf"
			},
			{
				"type": "occ",
				"energy": -0.27607,
				"method": "rhf"
			},
			{
				"type": "unocc",
				"energy": -0.04679,
				"method": "rhf"
			},
			{
				"type": "unocc",
				"energy": -0.02656,
				"method": "rhf"
			},
			{
				"type": "unocc",
				"energy": 0.04745,
				"method": "rhf"
			},
			{
				"type": "unocc",
				"energy": 0.06149,
				"method": "rhf"
			},
			{
				"type": "unocc",
				"energy": 0.08159,
				"method": "rhf"
			}
		],
		"cosmo_sigma_profile": { 
			"-0.025": 0.0,
			"-0.024": 0.0,
			"-0.023": 0.0,
			"-0.022": 0.0,
			"-0.021": 0.0,
			"-0.02": 0.0,
			"-0.019": 0.0,
			"-0.018": 0.0,
			"-0.017": 0.0,
			"-0.016": 0.0,
			"-0.015": 0.0,
			"-0.014": 0.0,
			"-0.013": 0.0,
			"-0.012": 0.0,
			"-0.011": 1.07044921105,
			"-0.01": 5.45986734236,
			"-0.009": 4.338778075,
			"-0.008": 4.96792214886,
			"-0.007": 11.35184263,
			"-0.006": 13.1032477866,
			"-0.005": 12.1781860385,
			"-0.004": 9.7880826028,
			"-0.003": 9.83173399166,
			"-0.002": 7.45585754862,
			"-0.001": 10.4277574362,
			"0.0": 10.751490312,
			"0.001": 11.9049234552,
			"0.002": 16.1615098959,
			"0.003": 17.1626947051,
			"0.004": 9.81839898417,
			"0.005": 3.70481867149,
			"0.006": 2.12997150786,
			"0.007": 2.74153087844,
			"0.008": 3.50358708509,
			"0.009": 3.80835516831,
			"0.01": 7.6122919158,
			"0.011": 9.47395995463,
			"0.012": 2.49582524328,
			"0.013": 0.0,
			"0.014": 0.0,
			"0.015": 0.0,
			"0.016": 0.0,
			"0.017": 0.0,
			"0.018": 0.0,
			"0.019": 0.0,
			"0.02": 0.0,
			"0.021": 0.0,
			"0.022": 0.0,
			"0.023": 0.0,
			"0.024": 0.0,
			"0.025": 0.0
		}
	}
}
