{
	 "smiles": "NS(=O)(=O)C1=CC(=C(Cl)C=C1)S(N)(=O)=O", 
	 "Tm": 480.15, 
	 "num_atms": 22, 
	 "gaussian": { 
		 "optdone": 1, 
		 "sigma_profile": "yes", 
		 "theory": "DFT", 
		 "functional": "B3LYP", 
		 "basiset": "6-31G**", 
		 "properties": { 
			 "R2extent": 4923.8666, 
			 "electric_dipole_moment_norm": 3.37471206031, 
			 "electric_quadrupole_moment_norm": 37.3004767403, 
			 "total_energy": -1899.66910082, 
			 "HOMO_LUMO_gap": 0.2068, 
			 "cosmo_polarized_energy": -29.48, 
			 "cosmo_cavitation_energy": 31.39, 
			 "cosmo_dispersion_energy": -23.79, 
			 "cosmo_repulsion_energy": 1.79, 
			 "cosmo_total_nonelectrostatic_energy": 9.4, 
			 "SMD_solvation_energy": 4.51 
		},
		"coords": [
			{
				"x": -1.1911373408,
				"y": 3.417619457,
				"z": 2.308502013,
				"element": "N" 
			},
			{
				"x": -1.2006306278,
				"y": 3.2726568369,
				"z": 0.6394223001,
				"element": "S" 
			},
			{
				"x": -2.6036176781,
				"y": 3.1228018196,
				"z": 0.2620128169,
				"element": "O" 
			},
			{
				"x": -0.3408069916,
				"y": 4.3438951115,
				"z": 0.1427801149,
				"element": "O" 
			},
			{
				"x": -0.3787119703,
				"y": 1.7179647087,
				"z": 0.2434955535,
				"element": "C" 
			},
			{
				"x": -1.13615221,
				"y": 0.5502988188,
				"z": 0.1609765968,
				"element": "C" 
			},
			{
				"x": -0.5082152878,
				"y": -0.6633014842,
				"z": -0.1224610649,
				"element": "C" 
			},
			{
				"x": 0.8833583798,
				"y": -0.6917069369,
				"z": -0.3227678004,
				"element": "C" 
			},
			{
				"x": 1.736732889,
				"y": -2.1710662972,
				"z": -0.6642599472,
				"element": "Cl" 
			},
			{
				"x": 1.6267107866,
				"y": 0.4894000643,
				"z": -0.255481483,
				"element": "C" 
			},
			{
				"x": 0.9984902081,
				"y": 1.6996507009,
				"z": 0.0246698113,
				"element": "C" 
			},
			{
				"x": -1.4811565881,
				"y": -2.187133721,
				"z": -0.2341765434,
				"element": "S" 
			},
			{
				"x": -3.0514222992,
				"y": -1.6249005742,
				"z": 0.0196376556,
				"element": "N" 
			},
			{
				"x": -1.3928135173,
				"y": -2.6731807192,
				"z": -1.610130998,
				"element": "O" 
			},
			{
				"x": -1.1381814633,
				"y": -3.0234589689,
				"z": 0.9160668353,
				"element": "O" 
			},
			{
				"x": -0.2640082609,
				"y": 3.533140251,
				"z": 2.7037793398,
				"element": "H" 
			},
			{
				"x": -1.7577978617,
				"y": 2.7224232241,
				"z": 2.7826344458,
				"element": "H" 
			},
			{
				"x": -2.2106020427,
				"y": 0.5798209579,
				"z": 0.2936067538,
				"element": "H" 
			},
			{
				"x": 2.6957656708,
				"y": 0.4500810683,
				"z": -0.4312324609,
				"element": "H" 
			},
			{
				"x": 1.5654737205,
				"y": 2.6239553063,
				"z": 0.0530403897,
				"element": "H" 
			},
			{
				"x": -3.4592739333,
				"y": -2.1173359455,
				"z": 0.8094110408,
				"element": "H" 
			},
			{
				"x": -3.6020035818,
				"y": -1.7354236782,
				"z": -0.8275253695,
				"element": "H" 
			}
		],
		 "valence_orbital": [ 
			{
				"type": "occ",
				"energy": -0.31914,
				"method": "rhf"
			},
			{
				"type": "occ",
				"energy": -0.31813,
				"method": "rhf"
			},
			{
				"type": "occ",
				"energy": -0.30432,
				"method": "rhf"
			},
			{
				"type": "occ",
				"energy": -0.29566,
				"method": "rhf"
			},
			{
				"type": "occ",
				"energy": -0.27688,
				"method": "rhf"
			},
			{
				"type": "unocc",
				"energy": -0.07008,
				"method": "rhf"
			},
			{
				"type": "unocc",
				"energy": -0.05624,
				"method": "rhf"
			},
			{
				"type": "unocc",
				"energy": -0.0019,
				"method": "rhf"
			},
			{
				"type": "unocc",
				"energy": 0.03942,
				"method": "rhf"
			},
			{
				"type": "unocc",
				"energy": 0.04096,
				"method": "rhf"
			}
		],
		"cosmo_sigma_profile": { 
			"-0.025": 0.0,
			"-0.024": 0.0,
			"-0.023": 0.0,
			"-0.022": 0.0,
			"-0.021": 0.0,
			"-0.02": 0.0,
			"-0.019": 0.0,
			"-0.018": 0.0,
			"-0.017": 0.0,
			"-0.016": 1.2481078574,
			"-0.015": 5.29266850284,
			"-0.014": 5.68404791143,
			"-0.013": 5.8428472682,
			"-0.012": 5.35842736055,
			"-0.011": 4.31440354227,
			"-0.01": 3.61478645689,
			"-0.009": 6.85107917914,
			"-0.008": 8.40346289457,
			"-0.007": 7.05359943168,
			"-0.006": 6.71279881794,
			"-0.005": 7.21584206111,
			"-0.004": 7.82548542903,
			"-0.003": 11.347229839,
			"-0.002": 15.7634879336,
			"-0.001": 20.9953637139,
			"0.0": 14.5661003062,
			"0.001": 9.54964911719,
			"0.002": 11.0290663493,
			"0.003": 9.86010870575,
			"0.004": 6.45671727862,
			"0.005": 5.85893702828,
			"0.006": 7.43336399197,
			"0.007": 8.74234660998,
			"0.008": 8.24820628359,
			"0.009": 9.71001557636,
			"0.01": 21.2115629587,
			"0.011": 15.2934003825,
			"0.012": 1.45714811301,
			"0.013": 0.0,
			"0.014": 0.0,
			"0.015": 0.0,
			"0.016": 0.0,
			"0.017": 0.0,
			"0.018": 0.0,
			"0.019": 0.0,
			"0.02": 0.0,
			"0.021": 0.0,
			"0.022": 0.0,
			"0.023": 0.0,
			"0.024": 0.0,
			"0.025": 0.0
		}
	}
}
