{
	 "smiles": "ONC(=O)C1=CC=C(Cl)C=C1O", 
	 "Tm": 470.15, 
	 "num_atms": 18, 
	 "gaussian": { 
		 "optdone": 1, 
		 "sigma_profile": "yes", 
		 "theory": "DFT", 
		 "functional": "B3LYP", 
		 "basiset": "6-31G**", 
		 "properties": { 
			 "R2extent": 3313.798, 
			 "electric_dipole_moment_norm": 3.73449471549, 
			 "electric_quadrupole_moment_norm": 8.60945034715, 
			 "total_energy": -1010.92111117, 
			 "HOMO_LUMO_gap": 0.1815, 
			 "cosmo_polarized_energy": -15.54, 
			 "cosmo_cavitation_energy": 24.44, 
			 "cosmo_dispersion_energy": -18.46, 
			 "cosmo_repulsion_energy": 1.47, 
			 "cosmo_total_nonelectrostatic_energy": 7.45, 
			 "SMD_solvation_energy": 5.66 
		},
		"coords": [
			{
				"x": -2.0401120989,
				"y": -1.323358249,
				"z": 1.5190325336,
				"element": "O" 
			},
			{
				"x": -1.0715325562,
				"y": -2.1623490622,
				"z": 0.9257744474,
				"element": "N" 
			},
			{
				"x": 0.0212437055,
				"y": -1.6298285419,
				"z": 0.2364739065,
				"element": "C" 
			},
			{
				"x": 0.5024401866,
				"y": -2.324701058,
				"z": -0.6499894172,
				"element": "O" 
			},
			{
				"x": 0.590160485,
				"y": -0.3012926294,
				"z": 0.6117222661,
				"element": "C" 
			},
			{
				"x": 1.404539239,
				"y": 0.2721347938,
				"z": -0.3880323685,
				"element": "C" 
			},
			{
				"x": 2.1099349908,
				"y": 1.4467495779,
				"z": -0.1952152387,
				"element": "C" 
			},
			{
				"x": 2.0228390842,
				"y": 2.0660856131,
				"z": 1.05719743,
				"element": "C" 
			},
			{
				"x": 2.9129499771,
				"y": 3.5500287179,
				"z": 1.3435038753,
				"element": "Cl" 
			},
			{
				"x": 1.245014547,
				"y": 1.5391530749,
				"z": 2.0744867082,
				"element": "C" 
			},
			{
				"x": 0.5115369475,
				"y": 0.3571854801,
				"z": 1.8679729235,
				"element": "C" 
			},
			{
				"x": -0.1869742139,
				"y": -0.0725179079,
				"z": 2.9381649048,
				"element": "O" 
			},
			{
				"x": -2.3847017885,
				"y": -0.7323928071,
				"z": 0.8265541237,
				"element": "H" 
			},
			{
				"x": -1.4966048067,
				"y": -2.954250632,
				"z": 0.4528950507,
				"element": "H" 
			},
			{
				"x": 1.4786706965,
				"y": -0.2584083957,
				"z": -1.330848926,
				"element": "H" 
			},
			{
				"x": 2.7235833277,
				"y": 1.8714168731,
				"z": -0.9803937618,
				"element": "H" 
			},
			{
				"x": 1.177692054,
				"y": 2.0196175045,
				"z": 3.0428882207,
				"element": "H" 
			},
			{
				"x": -0.9304797767,
				"y": -0.6353723521,
				"z": 2.6478133217,
				"element": "H" 
			}
		],
		 "valence_orbital": [ 
			{
				"type": "occ",
				"energy": -0.31789,
				"method": "rhf"
			},
			{
				"type": "occ",
				"energy": -0.29649,
				"method": "rhf"
			},
			{
				"type": "occ",
				"energy": -0.27379,
				"method": "rhf"
			},
			{
				"type": "occ",
				"energy": -0.25769,
				"method": "rhf"
			},
			{
				"type": "occ",
				"energy": -0.24028,
				"method": "rhf"
			},
			{
				"type": "unocc",
				"energy": -0.05878,
				"method": "rhf"
			},
			{
				"type": "unocc",
				"energy": -0.00951,
				"method": "rhf"
			},
			{
				"type": "unocc",
				"energy": 0.01429,
				"method": "rhf"
			},
			{
				"type": "unocc",
				"energy": 0.02592,
				"method": "rhf"
			},
			{
				"type": "unocc",
				"energy": 0.04623,
				"method": "rhf"
			}
		],
		"cosmo_sigma_profile": { 
			"-0.025": 0.0,
			"-0.024": 0.0,
			"-0.023": 0.0,
			"-0.022": 0.0,
			"-0.021": 0.0,
			"-0.02": 0.206782964679,
			"-0.019": 1.3864586012,
			"-0.018": 1.08811974605,
			"-0.017": 1.02052078497,
			"-0.016": 1.63792427609,
			"-0.015": 2.23093990337,
			"-0.014": 2.19126007088,
			"-0.013": 2.33809245252,
			"-0.012": 1.87307753409,
			"-0.011": 1.75650847476,
			"-0.01": 1.519758373,
			"-0.009": 2.1354873254,
			"-0.008": 2.30370583609,
			"-0.007": 4.71937552476,
			"-0.006": 6.95913447597,
			"-0.005": 7.59152924118,
			"-0.004": 6.22839023657,
			"-0.003": 7.41587648941,
			"-0.002": 10.2270685782,
			"-0.001": 11.4983847304,
			"0.0": 11.9836422785,
			"0.001": 20.6646692333,
			"0.002": 22.1078079037,
			"0.003": 16.9864340739,
			"0.004": 15.2332002528,
			"0.005": 6.46172860458,
			"0.006": 4.40964647315,
			"0.007": 3.13621079135,
			"0.008": 3.48324677298,
			"0.009": 3.25922607936,
			"0.01": 3.61249954896,
			"0.011": 3.57640998337,
			"0.012": 5.04306892211,
			"0.013": 1.49427115538,
			"0.014": 0.0,
			"0.015": 0.0,
			"0.016": 0.0,
			"0.017": 0.0,
			"0.018": 0.0,
			"0.019": 0.0,
			"0.02": 0.0,
			"0.021": 0.0,
			"0.022": 0.0,
			"0.023": 0.0,
			"0.024": 0.0,
			"0.025": 0.0
		}
	}
}
