{
	 "smiles": "[O-][N+](=O)C=CC1=C(Cl)C=CC=C1F", 
	 "Tm": 336.15, 
	 "num_atms": 18, 
	 "gaussian": { 
		 "optdone": 1, 
		 "sigma_profile": "yes", 
		 "theory": "DFT", 
		 "functional": "B3LYP", 
		 "basiset": "6-31G**", 
		 "properties": { 
			 "R2extent": 3609.5429, 
			 "electric_dipole_moment_norm": 6.67002443324, 
			 "electric_quadrupole_moment_norm": 13.4082564597, 
			 "total_energy": -1072.96948438, 
			 "HOMO_LUMO_gap": 0.16198, 
			 "cosmo_polarized_energy": -9.71, 
			 "cosmo_cavitation_energy": 25.83, 
			 "cosmo_dispersion_energy": -18.87, 
			 "cosmo_repulsion_energy": 1.47, 
			 "cosmo_total_nonelectrostatic_energy": 8.43, 
			 "SMD_solvation_energy": 7.36 
		},
		"coords": [
			{
				"x": 0.1117542995,
				"y": 1.4573081782,
				"z": -4.001389904,
				"element": "O" 
			},
			{
				"x": 0.4574757818,
				"y": 2.3261717358,
				"z": -3.1992012113,
				"element": "N" 
			},
			{
				"x": 0.5478806422,
				"y": 3.5296180905,
				"z": -3.4538513705,
				"element": "O" 
			},
			{
				"x": 0.7954396024,
				"y": 1.950107186,
				"z": -1.8320611797,
				"element": "C" 
			},
			{
				"x": 0.7224110191,
				"y": 0.6608707932,
				"z": -1.470022127,
				"element": "C" 
			},
			{
				"x": 1.0120367745,
				"y": 0.0714276489,
				"z": -0.1689994931,
				"element": "C" 
			},
			{
				"x": 0.8848262928,
				"y": -1.3224846928,
				"z": 0.0544264185,
				"element": "C" 
			},
			{
				"x": 0.3706344385,
				"y": -2.3875665154,
				"z": -1.2406569851,
				"element": "Cl" 
			},
			{
				"x": 1.1559961288,
				"y": -1.9074724169,
				"z": 1.288863296,
				"element": "C" 
			},
			{
				"x": 1.5685282187,
				"y": -1.109243181,
				"z": 2.3549097705,
				"element": "C" 
			},
			{
				"x": 1.7099538092,
				"y": 0.2673775318,
				"z": 2.1898096223,
				"element": "C" 
			},
			{
				"x": 1.4327122851,
				"y": 0.8188061852,
				"z": 0.9500277564,
				"element": "C" 
			},
			{
				"x": 1.5774203385,
				"y": 2.152144229,
				"z": 0.8169957265,
				"element": "F" 
			},
			{
				"x": 1.0807876973,
				"y": 2.8012980852,
				"z": -1.2374448948,
				"element": "H" 
			},
			{
				"x": 0.4070371517,
				"y": -0.0246073247,
				"z": -2.2497425721,
				"element": "H" 
			},
			{
				"x": 1.0431396789,
				"y": -2.9784202786,
				"z": 1.4073053129,
				"element": "H" 
			},
			{
				"x": 1.7801693166,
				"y": -1.5635380911,
				"z": 3.3173659986,
				"element": "H" 
			},
			{
				"x": 2.0283965243,
				"y": 0.9178028369,
				"z": 2.9961658359,
				"element": "H" 
			}
		],
		 "valence_orbital": [ 
			{
				"type": "occ",
				"energy": -0.30315,
				"method": "rhf"
			},
			{
				"type": "occ",
				"energy": -0.30222,
				"method": "rhf"
			},
			{
				"type": "occ",
				"energy": -0.28541,
				"method": "rhf"
			},
			{
				"type": "occ",
				"energy": -0.2731,
				"method": "rhf"
			},
			{
				"type": "occ",
				"energy": -0.26573,
				"method": "rhf"
			},
			{
				"type": "unocc",
				"energy": -0.10375,
				"method": "rhf"
			},
			{
				"type": "unocc",
				"energy": -0.03771,
				"method": "rhf"
			},
			{
				"type": "unocc",
				"energy": -0.03327,
				"method": "rhf"
			},
			{
				"type": "unocc",
				"energy": 0.00409,
				"method": "rhf"
			},
			{
				"type": "unocc",
				"energy": 0.03524,
				"method": "rhf"
			}
		],
		"cosmo_sigma_profile": { 
			"-0.025": 0.0,
			"-0.024": 0.0,
			"-0.023": 0.0,
			"-0.022": 0.0,
			"-0.021": 0.0,
			"-0.02": 0.0,
			"-0.019": 0.0,
			"-0.018": 0.0,
			"-0.017": 0.0,
			"-0.016": 0.0,
			"-0.015": 0.0,
			"-0.014": 0.0,
			"-0.013": 0.0,
			"-0.012": 0.0,
			"-0.011": 0.0,
			"-0.01": 0.0,
			"-0.009": 0.961724865566,
			"-0.008": 6.41202613106,
			"-0.007": 7.40848183762,
			"-0.006": 8.57848314586,
			"-0.005": 7.0791593962,
			"-0.004": 10.1910120866,
			"-0.003": 18.1280331614,
			"-0.002": 23.2965169281,
			"-0.001": 25.4407114266,
			"0.0": 20.9352054943,
			"0.001": 18.0628134279,
			"0.002": 13.9679897151,
			"0.003": 12.3465235291,
			"0.004": 5.57055328336,
			"0.005": 3.23797976985,
			"0.006": 3.06510328609,
			"0.007": 4.93021245657,
			"0.008": 10.5673649639,
			"0.009": 6.55516257597,
			"0.01": 3.31042136001,
			"0.011": 0.950456480832,
			"0.012": 0.0,
			"0.013": 0.0,
			"0.014": 0.0,
			"0.015": 0.0,
			"0.016": 0.0,
			"0.017": 0.0,
			"0.018": 0.0,
			"0.019": 0.0,
			"0.02": 0.0,
			"0.021": 0.0,
			"0.022": 0.0,
			"0.023": 0.0,
			"0.024": 0.0,
			"0.025": 0.0
		}
	}
}
