{
	 "smiles": "CC(=O)C(N=NC1=CC=CC=C1)C(C)=O", 
	 "Tm": 360.15, 
	 "num_atms": 27, 
	 "gaussian": { 
		 "optdone": 1, 
		 "sigma_profile": "yes", 
		 "theory": "DFT", 
		 "functional": "B3LYP", 
		 "basiset": "6-31G**", 
		 "properties": { 
			 "R2extent": 3981.3436, 
			 "electric_dipole_moment_norm": 4.89197263688, 
			 "electric_quadrupole_moment_norm": 5.8472546618, 
			 "total_energy": -686.293554894, 
			 "HOMO_LUMO_gap": 0.14743, 
			 "cosmo_polarized_energy": -11.27, 
			 "cosmo_cavitation_energy": 31.93, 
			 "cosmo_dispersion_energy": -21.98, 
			 "cosmo_repulsion_energy": 1.75, 
			 "cosmo_total_nonelectrostatic_energy": 11.7, 
			 "SMD_solvation_energy": 5.47 
		},
		"coords": [
			{
				"x": -0.8159525361,
				"y": 2.1973799893,
				"z": 0.6681720028,
				"element": "C" 
			},
			{
				"x": -1.1914833312,
				"y": 1.6742166092,
				"z": -0.6973255235,
				"element": "C" 
			},
			{
				"x": -1.449916877,
				"y": 2.3957890679,
				"z": -1.6358445556,
				"element": "O" 
			},
			{
				"x": -1.253087544,
				"y": 0.1289702877,
				"z": -0.8993441028,
				"element": "C" 
			},
			{
				"x": 0.1106612819,
				"y": -0.4290521489,
				"z": -0.8717024353,
				"element": "N" 
			},
			{
				"x": 0.4762337472,
				"y": -0.7479344744,
				"z": 0.2854518315,
				"element": "N" 
			},
			{
				"x": 1.8039932913,
				"y": -1.2525211828,
				"z": 0.3857173193,
				"element": "C" 
			},
			{
				"x": 2.6899565128,
				"y": -1.3798408761,
				"z": -0.6970669234,
				"element": "C" 
			},
			{
				"x": 3.9652807403,
				"y": -1.8873261211,
				"z": -0.4782926524,
				"element": "C" 
			},
			{
				"x": 4.365234706,
				"y": -2.2686524198,
				"z": 0.809543852,
				"element": "C" 
			},
			{
				"x": 3.4843417776,
				"y": -2.1405825844,
				"z": 1.8845292757,
				"element": "C" 
			},
			{
				"x": 2.2033579883,
				"y": -1.6318635128,
				"z": 1.67294136,
				"element": "C" 
			},
			{
				"x": -2.2723881231,
				"y": -0.5517007244,
				"z": 0.0408063818,
				"element": "C" 
			},
			{
				"x": -2.3016022037,
				"y": -2.0672100908,
				"z": 0.043782039,
				"element": "C" 
			},
			{
				"x": -3.0570559803,
				"y": 0.1076537528,
				"z": 0.6934341417,
				"element": "O" 
			},
			{
				"x": -0.5016591582,
				"y": 3.2384629055,
				"z": 0.5805188718,
				"element": "H" 
			},
			{
				"x": -1.7048447249,
				"y": 2.1347194379,
				"z": 1.3041119247,
				"element": "H" 
			},
			{
				"x": -0.0374312453,
				"y": 1.59233856,
				"z": 1.1382406762,
				"element": "H" 
			},
			{
				"x": -1.6159139951,
				"y": -0.0054257019,
				"z": -1.9250173207,
				"element": "H" 
			},
			{
				"x": 2.3601489578,
				"y": -1.0770082205,
				"z": -1.6842843741,
				"element": "H" 
			},
			{
				"x": 4.6558487977,
				"y": -1.9874888416,
				"z": -1.3106260624,
				"element": "H" 
			},
			{
				"x": 5.3641937972,
				"y": -2.6634895208,
				"z": 0.9704359698,
				"element": "H" 
			},
			{
				"x": 3.7937740351,
				"y": -2.4344148893,
				"z": 2.8828792721,
				"element": "H" 
			},
			{
				"x": 1.4956586869,
				"y": -1.5179382502,
				"z": 2.4881076887,
				"element": "H" 
			},
			{
				"x": -3.2664141724,
				"y": -2.4027920891,
				"z": 0.4273245322,
				"element": "H" 
			},
			{
				"x": -1.5076039996,
				"y": -2.4402068408,
				"z": 0.697791837,
				"element": "H" 
			},
			{
				"x": -2.1220304292,
				"y": -2.4770821205,
				"z": -0.955085026,
				"element": "H" 
			}
		],
		 "valence_orbital": [ 
			{
				"type": "occ",
				"energy": -0.27556,
				"method": "rhf"
			},
			{
				"type": "occ",
				"energy": -0.27006,
				"method": "rhf"
			},
			{
				"type": "occ",
				"energy": -0.26805,
				"method": "rhf"
			},
			{
				"type": "occ",
				"energy": -0.24231,
				"method": "rhf"
			},
			{
				"type": "occ",
				"energy": -0.23617,
				"method": "rhf"
			},
			{
				"type": "unocc",
				"energy": -0.08874,
				"method": "rhf"
			},
			{
				"type": "unocc",
				"energy": -0.02895,
				"method": "rhf"
			},
			{
				"type": "unocc",
				"energy": -0.018,
				"method": "rhf"
			},
			{
				"type": "unocc",
				"energy": -0.01645,
				"method": "rhf"
			},
			{
				"type": "unocc",
				"energy": 0.01785,
				"method": "rhf"
			}
		],
		"cosmo_sigma_profile": { 
			"-0.025": 0.0,
			"-0.024": 0.0,
			"-0.023": 0.0,
			"-0.022": 0.0,
			"-0.021": 0.0,
			"-0.02": 0.0,
			"-0.019": 0.0,
			"-0.018": 0.0,
			"-0.017": 0.0,
			"-0.016": 0.0,
			"-0.015": 0.0,
			"-0.014": 0.0,
			"-0.013": 0.0,
			"-0.012": 0.0,
			"-0.011": 0.0,
			"-0.01": 0.0,
			"-0.009": 0.953856302794,
			"-0.008": 2.83215157181,
			"-0.007": 5.78548799531,
			"-0.006": 13.8462507143,
			"-0.005": 20.0183067023,
			"-0.004": 23.2838047778,
			"-0.003": 21.1475759309,
			"-0.002": 24.0453747175,
			"-0.001": 22.0281047691,
			"0.0": 15.8069051387,
			"0.001": 17.8869610963,
			"0.002": 17.1777503949,
			"0.003": 18.0399215281,
			"0.004": 14.7294357615,
			"0.005": 4.13104426536,
			"0.006": 4.66127674929,
			"0.007": 2.96897746609,
			"0.008": 4.92889797778,
			"0.009": 4.8232404007,
			"0.01": 6.01122432845,
			"0.011": 6.38304296039,
			"0.012": 2.82375483282,
			"0.013": 0.0535610796675,
			"0.014": 0.0,
			"0.015": 0.0,
			"0.016": 0.0,
			"0.017": 0.0,
			"0.018": 0.0,
			"0.019": 0.0,
			"0.02": 0.0,
			"0.021": 0.0,
			"0.022": 0.0,
			"0.023": 0.0,
			"0.024": 0.0,
			"0.025": 0.0
		}
	}
}
