{
	 "smiles": "ClC1=CC=CC2=C1C(=O)C1=CC=CC(Cl)=C1C2=O", 
	 "Tm": 520.15, 
	 "num_atms": 24, 
	 "gaussian": { 
		 "optdone": 1, 
		 "sigma_profile": "yes", 
		 "theory": "DFT", 
		 "functional": "B3LYP", 
		 "basiset": "6-31G**", 
		 "properties": { 
			 "R2extent": 5801.9576, 
			 "electric_dipole_moment_norm": 0.00022360679775, 
			 "electric_quadrupole_moment_norm": 25.2054548896, 
			 "total_energy": -1607.93554046, 
			 "HOMO_LUMO_gap": 0.14345, 
			 "cosmo_polarized_energy": -11.26, 
			 "cosmo_cavitation_energy": 31.95, 
			 "cosmo_dispersion_energy": -24.18, 
			 "cosmo_repulsion_energy": 1.79, 
			 "cosmo_total_nonelectrostatic_energy": 9.56, 
			 "SMD_solvation_energy": 5.37 
		},
		"coords": [
			{
				"x": -2.9628468926,
				"y": 0.6405775353,
				"z": 1.4781260945,
				"element": "Cl" 
			},
			{
				"x": -2.3073900513,
				"y": 0.4912395815,
				"z": -0.1360666691,
				"element": "C" 
			},
			{
				"x": -3.2321952018,
				"y": 0.6192851772,
				"z": -1.1754623999,
				"element": "C" 
			},
			{
				"x": -2.8200658994,
				"y": 0.5177653223,
				"z": -2.5013733076,
				"element": "C" 
			},
			{
				"x": -1.4810261808,
				"y": 0.2876653944,
				"z": -2.7956628901,
				"element": "C" 
			},
			{
				"x": -0.5485772461,
				"y": 0.1581294066,
				"z": -1.7636535043,
				"element": "C" 
			},
			{
				"x": -0.9411284156,
				"y": 0.2571115898,
				"z": -0.4078018462,
				"element": "C" 
			},
			{
				"x": 0.0966961923,
				"y": 0.110643757,
				"z": 0.6518520892,
				"element": "C" 
			},
			{
				"x": -0.1635853512,
				"y": 0.1834098079,
				"z": 1.8447214566,
				"element": "O" 
			},
			{
				"x": 1.5191076565,
				"y": -0.1365489683,
				"z": 0.2289627771,
				"element": "C" 
			},
			{
				"x": 2.4515531023,
				"y": -0.2661463034,
				"z": 1.2609681614,
				"element": "C" 
			},
			{
				"x": 3.7905822077,
				"y": -0.4963035348,
				"z": 0.9666708293,
				"element": "C" 
			},
			{
				"x": 4.2027072776,
				"y": -0.5977976623,
				"z": -0.3592445257,
				"element": "C" 
			},
			{
				"x": 3.277905626,
				"y": -0.4696742821,
				"z": -1.3986342044,
				"element": "C" 
			},
			{
				"x": 3.9333519796,
				"y": -0.6188392943,
				"z": -3.0128472414,
				"element": "Cl" 
			},
			{
				"x": 1.9116575112,
				"y": -0.2355061904,
				"z": -1.1268885762,
				"element": "C" 
			},
			{
				"x": 0.8738463466,
				"y": -0.0889978884,
				"z": -2.1865428343,
				"element": "C" 
			},
			{
				"x": 1.1341549011,
				"y": -0.1617048058,
				"z": -3.379410152,
				"element": "O" 
			},
			{
				"x": -4.2729130751,
				"y": 0.7985427672,
				"z": -0.9298579948,
				"element": "H" 
			},
			{
				"x": -3.5483805729,
				"y": 0.61908512,
				"z": -3.3001431471,
				"element": "H" 
			},
			{
				"x": -1.1270431213,
				"y": 0.2034515637,
				"z": -3.8162995685,
				"element": "H" 
			},
			{
				"x": 2.097579956,
				"y": -0.181909508,
				"z": 2.2816064309,
				"element": "H" 
			},
			{
				"x": 4.5188918556,
				"y": -0.5976885603,
				"z": 1.7654370281,
				"element": "H" 
			},
			{
				"x": 5.2434173956,
				"y": -0.7770900248,
				"z": -0.6048560055,
				"element": "H" 
			}
		],
		 "valence_orbital": [ 
			{
				"type": "occ",
				"energy": -0.28159,
				"method": "rhf"
			},
			{
				"type": "occ",
				"energy": -0.26945,
				"method": "rhf"
			},
			{
				"type": "occ",
				"energy": -0.263,
				"method": "rhf"
			},
			{
				"type": "occ",
				"energy": -0.2624,
				"method": "rhf"
			},
			{
				"type": "occ",
				"energy": -0.25525,
				"method": "rhf"
			},
			{
				"type": "unocc",
				"energy": -0.1118,
				"method": "rhf"
			},
			{
				"type": "unocc",
				"energy": -0.06971,
				"method": "rhf"
			},
			{
				"type": "unocc",
				"energy": -0.03736,
				"method": "rhf"
			},
			{
				"type": "unocc",
				"energy": -0.02647,
				"method": "rhf"
			},
			{
				"type": "unocc",
				"energy": 0.02118,
				"method": "rhf"
			}
		],
		"cosmo_sigma_profile": { 
			"-0.025": 0.0,
			"-0.024": 0.0,
			"-0.023": 0.0,
			"-0.022": 0.0,
			"-0.021": 0.0,
			"-0.02": 0.0,
			"-0.019": 0.0,
			"-0.018": 0.0,
			"-0.017": 0.0,
			"-0.016": 0.0,
			"-0.015": 0.0,
			"-0.014": 0.0,
			"-0.013": 0.0,
			"-0.012": 0.0,
			"-0.011": 0.0,
			"-0.01": 0.0,
			"-0.009": 0.501527081576,
			"-0.008": 7.43239535797,
			"-0.007": 12.1742374885,
			"-0.006": 14.6699004252,
			"-0.005": 11.0450014514,
			"-0.004": 13.5000911279,
			"-0.003": 13.872998983,
			"-0.002": 18.9310532341,
			"-0.001": 26.44285415,
			"0.0": 37.9017632011,
			"0.001": 28.8006988809,
			"0.002": 12.9273016918,
			"0.003": 14.1205963082,
			"0.004": 15.6214249247,
			"0.005": 5.35753862033,
			"0.006": 3.3017631222,
			"0.007": 5.18912209396,
			"0.008": 4.07905595358,
			"0.009": 4.53068640089,
			"0.01": 5.75497846655,
			"0.011": 6.74173976881,
			"0.012": 0.660137447368,
			"0.013": 0.0,
			"0.014": 0.0,
			"0.015": 0.0,
			"0.016": 0.0,
			"0.017": 0.0,
			"0.018": 0.0,
			"0.019": 0.0,
			"0.02": 0.0,
			"0.021": 0.0,
			"0.022": 0.0,
			"0.023": 0.0,
			"0.024": 0.0,
			"0.025": 0.0
		}
	}
}
