{
	 "smiles": "CC(C)C(C)(N)P(O)(O)=O", 
	 "Tm": 525.15, 
	 "num_atms": 24, 
	 "gaussian": { 
		 "optdone": 1, 
		 "sigma_profile": "yes", 
		 "theory": "DFT", 
		 "functional": "B3LYP", 
		 "basiset": "6-31G**", 
		 "properties": { 
			 "R2extent": 3270.133, 
			 "electric_dipole_moment_norm": 4.70629847439, 
			 "electric_quadrupole_moment_norm": 15.5860558895, 
			 "total_energy": -820.829430857, 
			 "HOMO_LUMO_gap": 0.30466, 
			 "cosmo_polarized_energy": -17.31, 
			 "cosmo_cavitation_energy": 26.12, 
			 "cosmo_dispersion_energy": -19.07, 
			 "cosmo_repulsion_energy": 1.5, 
			 "cosmo_total_nonelectrostatic_energy": 8.54, 
			 "SMD_solvation_energy": 6.47 
		},
		"coords": [
			{
				"x": -1.5570458068,
				"y": -2.6149134282,
				"z": 1.7361755324,
				"element": "C" 
			},
			{
				"x": -1.3096801479,
				"y": -1.3313530002,
				"z": 0.9247927329,
				"element": "C" 
			},
			{
				"x": -0.4274972989,
				"y": -0.3594056829,
				"z": 1.7291668029,
				"element": "C" 
			},
			{
				"x": -2.6361475098,
				"y": -0.6838900514,
				"z": 0.4124032386,
				"element": "C" 
			},
			{
				"x": -3.5136018059,
				"y": -0.1169221574,
				"z": 1.5413901457,
				"element": "C" 
			},
			{
				"x": -3.4727475216,
				"y": -1.6129657203,
				"z": -0.3931962121,
				"element": "N" 
			},
			{
				"x": -2.3143728138,
				"y": 0.7118347277,
				"z": -0.7832026713,
				"element": "P" 
			},
			{
				"x": -3.7649667744,
				"y": 0.8741307043,
				"z": -1.4733067961,
				"element": "O" 
			},
			{
				"x": -1.3838658883,
				"y": -0.0558115735,
				"z": -1.8920453489,
				"element": "O" 
			},
			{
				"x": -1.7268166666,
				"y": 1.9828057004,
				"z": -0.289505868,
				"element": "O" 
			},
			{
				"x": -2.1411996485,
				"y": -3.3559104861,
				"z": 1.1810068539,
				"element": "H" 
			},
			{
				"x": -2.0765904679,
				"y": -2.4086250483,
				"z": 2.6783087122,
				"element": "H" 
			},
			{
				"x": -0.6003019986,
				"y": -3.0814169256,
				"z": 1.9913243014,
				"element": "H" 
			},
			{
				"x": -0.7517193581,
				"y": -1.6156228702,
				"z": 0.0227359729,
				"element": "H" 
			},
			{
				"x": -0.2760316084,
				"y": 0.5892233934,
				"z": 1.2086677334,
				"element": "H" 
			},
			{
				"x": 0.5519729278,
				"y": -0.812473434,
				"z": 1.9142258338,
				"element": "H" 
			},
			{
				"x": -0.8720641478,
				"y": -0.1359829447,
				"z": 2.7052391863,
				"element": "H" 
			},
			{
				"x": -3.7651066406,
				"y": -0.9014620794,
				"z": 2.2633485229,
				"element": "H" 
			},
			{
				"x": -3.0029312488,
				"y": 0.689720341,
				"z": 2.069865932,
				"element": "H" 
			},
			{
				"x": -4.4456364055,
				"y": 0.2838271399,
				"z": 1.1347198863,
				"element": "H" 
			},
			{
				"x": -2.8851120063,
				"y": -2.1796243863,
				"z": -1.0021057834,
				"element": "H" 
			},
			{
				"x": -3.9829199104,
				"y": -2.2496989636,
				"z": 0.2140979115,
				"element": "H" 
			},
			{
				"x": -4.1696964214,
				"y": -0.0219314001,
				"z": -1.434186631,
				"element": "H" 
			},
			{
				"x": -0.8269208317,
				"y": 0.5855681456,
				"z": -2.3565199882,
				"element": "H" 
			}
		],
		 "valence_orbital": [ 
			{
				"type": "occ",
				"energy": -0.32861,
				"method": "rhf"
			},
			{
				"type": "occ",
				"energy": -0.32488,
				"method": "rhf"
			},
			{
				"type": "occ",
				"energy": -0.29094,
				"method": "rhf"
			},
			{
				"type": "occ",
				"energy": -0.28014,
				"method": "rhf"
			},
			{
				"type": "occ",
				"energy": -0.26027,
				"method": "rhf"
			},
			{
				"type": "unocc",
				"energy": 0.04439,
				"method": "rhf"
			},
			{
				"type": "unocc",
				"energy": 0.06888,
				"method": "rhf"
			},
			{
				"type": "unocc",
				"energy": 0.07687,
				"method": "rhf"
			},
			{
				"type": "unocc",
				"energy": 0.10333,
				"method": "rhf"
			},
			{
				"type": "unocc",
				"energy": 0.11373,
				"method": "rhf"
			}
		],
		"cosmo_sigma_profile": { 
			"-0.025": 0.0,
			"-0.024": 0.0,
			"-0.023": 0.0,
			"-0.022": 0.0,
			"-0.021": 0.0,
			"-0.02": 0.0,
			"-0.019": 0.136423470016,
			"-0.018": 1.0743852759,
			"-0.017": 0.859061303484,
			"-0.016": 1.25611960493,
			"-0.015": 0.46794835686,
			"-0.014": 0.585100785474,
			"-0.013": 1.15021239341,
			"-0.012": 0.461095219908,
			"-0.011": 1.54501512836,
			"-0.01": 3.76587051429,
			"-0.009": 3.55965485441,
			"-0.008": 4.70213962742,
			"-0.007": 5.06989077071,
			"-0.006": 4.32800015383,
			"-0.005": 5.29428306936,
			"-0.004": 9.83813794356,
			"-0.003": 17.518293848,
			"-0.002": 20.6556853172,
			"-0.001": 21.3864267139,
			"0.0": 20.5119653592,
			"0.001": 18.4169411864,
			"0.002": 8.22597322205,
			"0.003": 4.86838227915,
			"0.004": 4.07970076175,
			"0.005": 3.363347355,
			"0.006": 4.00906882553,
			"0.007": 4.98623231829,
			"0.008": 2.49946267467,
			"0.009": 4.06827377765,
			"0.01": 3.10615113244,
			"0.011": 3.48101333225,
			"0.012": 2.97325519863,
			"0.013": 1.72945054616,
			"0.014": 3.20714448001,
			"0.015": 5.13647932043,
			"0.016": 0.785835307383,
			"0.017": 0.0,
			"0.018": 0.0,
			"0.019": 0.0,
			"0.02": 0.0,
			"0.021": 0.0,
			"0.022": 0.0,
			"0.023": 0.0,
			"0.024": 0.0,
			"0.025": 0.0
		}
	}
}
