{
	 "smiles": "COC1=C(OC)C=C(C=C1)C(=O)O[C@H]1CC[C@@]2(C)[C@@H]3CC[C@H]4[C@]5(O)C[C@H](O)[C@@]6(O)[C@@H](CN7C[C@@H](C)CC[C@H]7[C@@]6(C)O)[C@]5(O)C[C@]24O[C@]13O", 
	 "Tm": 453.15, 
	 "num_atms": 99, 
	 "gaussian": { 
		 "optdone": 1, 
		 "sigma_profile": "yes", 
		 "theory": "DFT", 
		 "functional": "B3LYP", 
		 "basiset": "6-31G**", 
		 "properties": { 
			 "R2extent": 47197.4629, 
			 "electric_dipole_moment_norm": 7.28210207358, 
			 "electric_quadrupole_moment_norm": 50.8107018392, 
			 "total_energy": -2284.75878118, 
			 "HOMO_LUMO_gap": 0.11928, 
			 "cosmo_polarized_energy": -31.2, 
			 "cosmo_cavitation_energy": 84.03, 
			 "cosmo_dispersion_energy": -57.31, 
			 "cosmo_repulsion_energy": 4.12, 
			 "cosmo_total_nonelectrostatic_energy": 30.85, 
			 "SMD_solvation_energy": 12.71 
		},
		"coords": [
			{
				"x": -7.984000233,
				"y": -8.3271075747,
				"z": -1.6734624043,
				"element": "C" 
			},
			{
				"x": -8.262799743,
				"y": -7.0911138815,
				"z": -1.0048056458,
				"element": "O" 
			},
			{
				"x": -7.2301460356,
				"y": -6.2117154759,
				"z": -0.8480533731,
				"element": "C" 
			},
			{
				"x": -6.5520673209,
				"y": -5.6298496068,
				"z": -1.9495154397,
				"element": "C" 
			},
			{
				"x": -6.9682998325,
				"y": -6.0233301505,
				"z": -3.1889090556,
				"element": "O" 
			},
			{
				"x": -6.3532872856,
				"y": -5.4291006982,
				"z": -4.3228546473,
				"element": "C" 
			},
			{
				"x": -5.5397287584,
				"y": -4.7016148235,
				"z": -1.7172557633,
				"element": "C" 
			},
			{
				"x": -5.2073843567,
				"y": -4.3260552855,
				"z": -0.4037218998,
				"element": "C" 
			},
			{
				"x": -5.8934023893,
				"y": -4.8826931197,
				"z": 0.6796278219,
				"element": "C" 
			},
			{
				"x": -6.8932816316,
				"y": -5.8230344918,
				"z": 0.4488415539,
				"element": "C" 
			},
			{
				"x": -4.1386194702,
				"y": -3.3395034385,
				"z": -0.1218981252,
				"element": "C" 
			},
			{
				"x": -3.801092771,
				"y": -3.0022126006,
				"z": 1.0065589391,
				"element": "O" 
			},
			{
				"x": -3.5656036777,
				"y": -2.844462173,
				"z": -1.2397345343,
				"element": "O" 
			},
			{
				"x": -2.3734949349,
				"y": -2.0279725192,
				"z": -1.091364496,
				"element": "C" 
			},
			{
				"x": -1.63942354,
				"y": -2.1363771071,
				"z": -2.4288436382,
				"element": "C" 
			},
			{
				"x": -0.6786419078,
				"y": -0.9641544249,
				"z": -2.6902601451,
				"element": "C" 
			},
			{
				"x": -1.2687811648,
				"y": 0.455198448,
				"z": -2.3653917138,
				"element": "C" 
			},
			{
				"x": -0.9364557095,
				"y": 1.4046001567,
				"z": -3.5227452664,
				"element": "C" 
			},
			{
				"x": -2.7887796082,
				"y": 0.3415905761,
				"z": -2.0169241325,
				"element": "C" 
			},
			{
				"x": -3.4514121678,
				"y": 1.7002764976,
				"z": -1.7053883488,
				"element": "C" 
			},
			{
				"x": -2.7908500837,
				"y": 2.4414164987,
				"z": -0.5225656027,
				"element": "C" 
			},
			{
				"x": -1.2655874656,
				"y": 2.3493989546,
				"z": -0.6007830236,
				"element": "C" 
			},
			{
				"x": -0.4603790012,
				"y": 2.7552998345,
				"z": 0.6800078052,
				"element": "C" 
			},
			{
				"x": -1.2723197615,
				"y": 2.8008610321,
				"z": 1.8392480373,
				"element": "O" 
			},
			{
				"x": 0.1983131014,
				"y": 4.1266415105,
				"z": 0.5111535886,
				"element": "C" 
			},
			{
				"x": 1.0317103628,
				"y": 4.5298965788,
				"z": 1.7293153306,
				"element": "C" 
			},
			{
				"x": 1.7481077974,
				"y": 5.7462063146,
				"z": 1.4179371866,
				"element": "O" 
			},
			{
				"x": 2.0014442239,
				"y": 3.3843240175,
				"z": 2.2394143126,
				"element": "C" 
			},
			{
				"x": 1.432973731,
				"y": 2.8409976506,
				"z": 3.4383515767,
				"element": "O" 
			},
			{
				"x": 2.0500152066,
				"y": 2.2112697155,
				"z": 1.2240490296,
				"element": "C" 
			},
			{
				"x": 2.9865637551,
				"y": 1.0972856055,
				"z": 1.7462258086,
				"element": "C" 
			},
			{
				"x": 4.3397427525,
				"y": 1.5390195204,
				"z": 2.0219184284,
				"element": "N" 
			},
			{
				"x": 5.2823738144,
				"y": 1.6099850936,
				"z": 0.9063490662,
				"element": "C" 
			},
			{
				"x": 6.7280026849,
				"y": 1.4233206862,
				"z": 1.4363497685,
				"element": "C" 
			},
			{
				"x": 7.7419223243,
				"y": 2.1010520927,
				"z": 0.5062268157,
				"element": "C" 
			},
			{
				"x": 6.8169336781,
				"y": 1.9426376561,
				"z": 2.894123496,
				"element": "C" 
			},
			{
				"x": 5.8595480236,
				"y": 3.1164387074,
				"z": 3.1326490755,
				"element": "C" 
			},
			{
				"x": 4.3863149236,
				"y": 2.6767304609,
				"z": 2.9412817499,
				"element": "C" 
			},
			{
				"x": 3.4732799658,
				"y": 3.8820678567,
				"z": 2.5330048706,
				"element": "C" 
			},
			{
				"x": 3.4955204603,
				"y": 4.9278752466,
				"z": 3.6705166129,
				"element": "C" 
			},
			{
				"x": 4.0273284722,
				"y": 4.4312472678,
				"z": 1.336173102,
				"element": "O" 
			},
			{
				"x": 0.6645323187,
				"y": 1.6422489132,
				"z": 0.8327812131,
				"element": "C" 
			},
			{
				"x": 0.2524592186,
				"y": 0.7183368574,
				"z": 1.8474789924,
				"element": "O" 
			},
			{
				"x": 0.6694030205,
				"y": 0.9257344306,
				"z": -0.542455865,
				"element": "C" 
			},
			{
				"x": -0.8023924363,
				"y": 0.9156337339,
				"z": -0.9590715661,
				"element": "C" 
			},
			{
				"x": -1.4794747318,
				"y": -0.0624388936,
				"z": -0.1084992797,
				"element": "O" 
			},
			{
				"x": -2.6939681815,
				"y": -0.5426381405,
				"z": -0.7589862227,
				"element": "C" 
			},
			{
				"x": -3.7946707321,
				"y": -0.3979109214,
				"z": 0.061427337,
				"element": "O" 
			},
			{
				"x": -8.9043976036,
				"y": -8.9105825951,
				"z": -1.6129639745,
				"element": "H" 
			},
			{
				"x": -7.7137870217,
				"y": -8.168873536,
				"z": -2.7197590358,
				"element": "H" 
			},
			{
				"x": -7.1790884665,
				"y": -8.8699529944,
				"z": -1.1622676024,
				"element": "H" 
			},
			{
				"x": -5.2800274023,
				"y": -5.6541625097,
				"z": -4.3662655861,
				"element": "H" 
			},
			{
				"x": -6.8475485678,
				"y": -5.8628289885,
				"z": -5.1931653765,
				"element": "H" 
			},
			{
				"x": -6.4934576759,
				"y": -4.3410796995,
				"z": -4.3311130484,
				"element": "H" 
			},
			{
				"x": -5.0058902841,
				"y": -4.2466122152,
				"z": -2.5401223589,
				"element": "H" 
			},
			{
				"x": -5.6274533802,
				"y": -4.5793294422,
				"z": 1.6855318274,
				"element": "H" 
			},
			{
				"x": -7.441643074,
				"y": -6.276479535,
				"z": 1.2678427541,
				"element": "H" 
			},
			{
				"x": -1.7911879856,
				"y": -2.4251308302,
				"z": -0.2561609706,
				"element": "H" 
			},
			{
				"x": -2.4044380217,
				"y": -2.1634031657,
				"z": -3.2124967525,
				"element": "H" 
			},
			{
				"x": -1.1042966258,
				"y": -3.0894106971,
				"z": -2.4895290436,
				"element": "H" 
			},
			{
				"x": -0.3886825685,
				"y": -1.0013013551,
				"z": -3.7455264002,
				"element": "H" 
			},
			{
				"x": 0.2443477242,
				"y": -1.1135157675,
				"z": -2.1231453331,
				"element": "H" 
			},
			{
				"x": -1.3638621656,
				"y": 1.0205594373,
				"z": -4.4555555425,
				"element": "H" 
			},
			{
				"x": -1.3170053126,
				"y": 2.4175029613,
				"z": -3.3818843535,
				"element": "H" 
			},
			{
				"x": 0.1481918019,
				"y": 1.4723611577,
				"z": -3.6670162133,
				"element": "H" 
			},
			{
				"x": -3.356603415,
				"y": -0.1648444966,
				"z": -2.8043323315,
				"element": "H" 
			},
			{
				"x": -3.4250586806,
				"y": 2.3142390701,
				"z": -2.6137074575,
				"element": "H" 
			},
			{
				"x": -4.5071916302,
				"y": 1.5270491702,
				"z": -1.4772992848,
				"element": "H" 
			},
			{
				"x": -3.115697063,
				"y": 1.9924224826,
				"z": 0.4161574508,
				"element": "H" 
			},
			{
				"x": -3.1164313904,
				"y": 3.4877977396,
				"z": -0.5038993999,
				"element": "H" 
			},
			{
				"x": -0.9096772999,
				"y": 2.9958931234,
				"z": -1.4125679123,
				"element": "H" 
			},
			{
				"x": -0.9183244608,
				"y": 2.1012356074,
				"z": 2.4201508785,
				"element": "H" 
			},
			{
				"x": -0.5838634845,
				"y": 4.8816203054,
				"z": 0.3458407006,
				"element": "H" 
			},
			{
				"x": 0.8445025831,
				"y": 4.1303538981,
				"z": -0.3757035347,
				"element": "H" 
			},
			{
				"x": 0.3453751134,
				"y": 4.7331635572,
				"z": 2.5587820515,
				"element": "H" 
			},
			{
				"x": 1.1422617204,
				"y": 6.3312723327,
				"z": 0.945287038,
				"element": "H" 
			},
			{
				"x": 1.3978351277,
				"y": 3.5463864472,
				"z": 4.0974150759,
				"element": "H" 
			},
			{
				"x": 2.5013790055,
				"y": 2.6323911953,
				"z": 0.3189380209,
				"element": "H" 
			},
			{
				"x": 2.5499333986,
				"y": 0.6942471888,
				"z": 2.6641472021,
				"element": "H" 
			},
			{
				"x": 3.028363172,
				"y": 0.2756009562,
				"z": 1.0229222415,
				"element": "H" 
			},
			{
				"x": 5.0402749463,
				"y": 0.8015905868,
				"z": 0.2064690074,
				"element": "H" 
			},
			{
				"x": 5.2091350439,
				"y": 2.553310251,
				"z": 0.3435191186,
				"element": "H" 
			},
			{
				"x": 6.9484721225,
				"y": 0.3481349171,
				"z": 1.4541297198,
				"element": "H" 
			},
			{
				"x": 7.6076508649,
				"y": 3.1893258962,
				"z": 0.5009016107,
				"element": "H" 
			},
			{
				"x": 7.6297995876,
				"y": 1.7529503692,
				"z": -0.5276509938,
				"element": "H" 
			},
			{
				"x": 8.7710824729,
				"y": 1.8910730912,
				"z": 0.8179962364,
				"element": "H" 
			},
			{
				"x": 7.8469835568,
				"y": 2.2444945716,
				"z": 3.1220123103,
				"element": "H" 
			},
			{
				"x": 6.5649951867,
				"y": 1.1315565367,
				"z": 3.5860225272,
				"element": "H" 
			},
			{
				"x": 6.0867988147,
				"y": 3.926861521,
				"z": 2.4322768358,
				"element": "H" 
			},
			{
				"x": 5.9984332079,
				"y": 3.5190548077,
				"z": 4.1411659587,
				"element": "H" 
			},
			{
				"x": 3.9897690266,
				"y": 2.3135493497,
				"z": 3.8997555343,
				"element": "H" 
			},
			{
				"x": 4.4980132842,
				"y": 5.3554454024,
				"z": 3.743809755,
				"element": "H" 
			},
			{
				"x": 2.7998019211,
				"y": 5.7474543595,
				"z": 3.4797264113,
				"element": "H" 
			},
			{
				"x": 3.2620518235,
				"y": 4.4788612439,
				"z": 4.642810976,
				"element": "H" 
			},
			{
				"x": 3.4430129089,
				"y": 5.1679530545,
				"z": 1.0901928932,
				"element": "H" 
			},
			{
				"x": -0.4613153105,
				"y": 0.1802910207,
				"z": 1.4590153715,
				"element": "H" 
			},
			{
				"x": 1.1107686474,
				"y": -0.070416699,
				"z": -0.4646599091,
				"element": "H" 
			},
			{
				"x": 1.2493430415,
				"y": 1.5026329082,
				"z": -1.2722214034,
				"element": "H" 
			},
			{
				"x": -3.7609921168,
				"y": -1.0987185787,
				"z": 0.7383729813,
				"element": "H" 
			}
		],
		 "valence_orbital": [ 
			{
				"type": "occ",
				"energy": -0.25303,
				"method": "rhf"
			},
			{
				"type": "occ",
				"energy": -0.23902,
				"method": "rhf"
			},
			{
				"type": "occ",
				"energy": -0.23312,
				"method": "rhf"
			},
			{
				"type": "occ",
				"energy": -0.22785,
				"method": "rhf"
			},
			{
				"type": "occ",
				"energy": -0.17148,
				"method": "rhf"
			},
			{
				"type": "unocc",
				"energy": -0.0522,
				"method": "rhf"
			},
			{
				"type": "unocc",
				"energy": -0.00306,
				"method": "rhf"
			},
			{
				"type": "unocc",
				"energy": 0.05106,
				"method": "rhf"
			},
			{
				"type": "unocc",
				"energy": 0.05659,
				"method": "rhf"
			},
			{
				"type": "unocc",
				"energy": 0.06208,
				"method": "rhf"
			}
		],
		"cosmo_sigma_profile": { 
			"-0.025": 0.0,
			"-0.024": 0.0,
			"-0.023": 0.0,
			"-0.022": 0.0,
			"-0.021": 0.0,
			"-0.02": 0.0,
			"-0.019": 0.0,
			"-0.018": 0.0,
			"-0.017": 0.0,
			"-0.016": 0.708689117855,
			"-0.015": 0.930100695611,
			"-0.014": 1.5428347366,
			"-0.013": 1.67603289579,
			"-0.012": 1.80690177298,
			"-0.011": 1.7750145503,
			"-0.01": 1.62983657524,
			"-0.009": 2.41464805669,
			"-0.008": 2.26798377179,
			"-0.007": 4.80774709302,
			"-0.006": 17.0322502919,
			"-0.005": 32.6757378081,
			"-0.004": 49.3416091282,
			"-0.003": 66.425006636,
			"-0.002": 73.1527484314,
			"-0.001": 75.8851660014,
			"0.0": 68.7819848625,
			"0.001": 62.6379737416,
			"0.002": 44.8774886076,
			"0.003": 28.5905664606,
			"0.004": 16.4734140471,
			"0.005": 14.1981265018,
			"0.006": 12.9837427517,
			"0.007": 13.661596222,
			"0.008": 13.2473941672,
			"0.009": 10.5253343844,
			"0.01": 9.26561921605,
			"0.011": 9.1778224779,
			"0.012": 3.7949045622,
			"0.013": 2.56706835255,
			"0.014": 2.16868974505,
			"0.015": 1.78656758215,
			"0.016": 0.602402752655,
			"0.017": 0.107779373007,
			"0.018": 0.0,
			"0.019": 0.0,
			"0.02": 0.0,
			"0.021": 0.0,
			"0.022": 0.0,
			"0.023": 0.0,
			"0.024": 0.0,
			"0.025": 0.0
		}
	}
}
