{
	 "smiles": "O=S(=O)(N1CCNCC1)C1=CC2=C(CCCC2)C=C1", 
	 "Tm": 384.15, 
	 "num_atms": 39, 
	 "gaussian": { 
		 "optdone": 1, 
		 "sigma_profile": "yes", 
		 "theory": "DFT", 
		 "functional": "B3LYP", 
		 "basiset": "6-31G**", 
		 "properties": { 
			 "R2extent": 6461.0849, 
			 "electric_dipole_moment_norm": 6.44124301203, 
			 "electric_quadrupole_moment_norm": 18.6062842131, 
			 "total_energy": -1203.61344006, 
			 "HOMO_LUMO_gap": 0.1928, 
			 "cosmo_polarized_energy": -16.39, 
			 "cosmo_cavitation_energy": 39.76, 
			 "cosmo_dispersion_energy": -28.77, 
			 "cosmo_repulsion_energy": 2.19, 
			 "cosmo_total_nonelectrostatic_energy": 13.18, 
			 "SMD_solvation_energy": 1.07 
		},
		"coords": [
			{
				"x": -3.2964031063,
				"y": -0.4901723368,
				"z": -2.0724829865,
				"element": "O" 
			},
			{
				"x": -1.9191819855,
				"y": -0.9851229784,
				"z": -2.0064641197,
				"element": "S" 
			},
			{
				"x": -1.1677355798,
				"y": -1.382069696,
				"z": -3.2007554297,
				"element": "O" 
			},
			{
				"x": -1.9645096664,
				"y": -2.3314656146,
				"z": -1.0077935273,
				"element": "N" 
			},
			{
				"x": -0.8017812476,
				"y": -3.2418616223,
				"z": -0.9651830448,
				"element": "C" 
			},
			{
				"x": -0.2023650768,
				"y": -3.3099107465,
				"z": 0.4385294695,
				"element": "C" 
			},
			{
				"x": -1.2025389826,
				"y": -3.8152167252,
				"z": 1.3956079999,
				"element": "N" 
			},
			{
				"x": -2.5930305034,
				"y": -3.5329324205,
				"z": 1.0150699092,
				"element": "C" 
			},
			{
				"x": -2.7691286598,
				"y": -2.2302310478,
				"z": 0.2260160133,
				"element": "C" 
			},
			{
				"x": -0.9512765194,
				"y": 0.2727436742,
				"z": -1.1605498593,
				"element": "C" 
			},
			{
				"x": 0.4258147397,
				"y": 0.3371289964,
				"z": -1.3674691509,
				"element": "C" 
			},
			{
				"x": 1.2065549769,
				"y": 1.2854900093,
				"z": -0.6941236429,
				"element": "C" 
			},
			{
				"x": 0.5820568298,
				"y": 2.1793967919,
				"z": 0.197466025,
				"element": "C" 
			},
			{
				"x": 1.3727796555,
				"y": 3.2529433084,
				"z": 0.9250003499,
				"element": "C" 
			},
			{
				"x": 2.8856907678,
				"y": 3.0005730161,
				"z": 0.9310467746,
				"element": "C" 
			},
			{
				"x": 3.3676961461,
				"y": 2.623121435,
				"z": -0.4738729917,
				"element": "C" 
			},
			{
				"x": 2.7078212352,
				"y": 1.3155837772,
				"z": -0.9292271492,
				"element": "C" 
			},
			{
				"x": -0.8066222465,
				"y": 2.1033470774,
				"z": 0.3825174061,
				"element": "C" 
			},
			{
				"x": -1.5831411521,
				"y": 1.1632968378,
				"z": -0.2869294766,
				"element": "C" 
			},
			{
				"x": -1.1244356172,
				"y": -4.2412470303,
				"z": -1.2813301858,
				"element": "H" 
			},
			{
				"x": -0.0617182444,
				"y": -2.906037492,
				"z": -1.6924308351,
				"element": "H" 
			},
			{
				"x": 0.6660328425,
				"y": -3.9818037666,
				"z": 0.4245973245,
				"element": "H" 
			},
			{
				"x": 0.1701509023,
				"y": -2.3068280291,
				"z": 0.7025097202,
				"element": "H" 
			},
			{
				"x": -1.0137766305,
				"y": -3.4332535974,
				"z": 2.3158027836,
				"element": "H" 
			},
			{
				"x": -2.9853260139,
				"y": -4.3611589896,
				"z": 0.4109649328,
				"element": "H" 
			},
			{
				"x": -3.2054653411,
				"y": -3.4916815598,
				"z": 1.9207312606,
				"element": "H" 
			},
			{
				"x": -2.4459137021,
				"y": -1.3803015287,
				"z": 0.8482142622,
				"element": "H" 
			},
			{
				"x": -3.8155820147,
				"y": -2.0718453914,
				"z": -0.0464197243,
				"element": "H" 
			},
			{
				"x": 0.88756464,
				"y": -0.3355460357,
				"z": -2.0840196529,
				"element": "H" 
			},
			{
				"x": 0.9942512696,
				"y": 3.3539243152,
				"z": 1.9492490797,
				"element": "H" 
			},
			{
				"x": 1.1737689126,
				"y": 4.2184393438,
				"z": 0.4371318787,
				"element": "H" 
			},
			{
				"x": 3.4081894413,
				"y": 3.8907447465,
				"z": 1.2979952089,
				"element": "H" 
			},
			{
				"x": 3.1238200313,
				"y": 2.1851165724,
				"z": 1.6274338979,
				"element": "H" 
			},
			{
				"x": 3.1137736241,
				"y": 3.4303639016,
				"z": -1.1738678525,
				"element": "H" 
			},
			{
				"x": 4.4576799536,
				"y": 2.5162027246,
				"z": -0.4974673439,
				"element": "H" 
			},
			{
				"x": 2.9139215539,
				"y": 1.1284935504,
				"z": -1.9894958631,
				"element": "H" 
			},
			{
				"x": 3.1643643596,
				"y": 0.4772960297,
				"z": -0.3825150377,
				"element": "H" 
			},
			{
				"x": -1.28726239,
				"y": 2.806034926,
				"z": 1.0592770251,
				"element": "H" 
			},
			{
				"x": -2.6601372017,
				"y": 1.1332455745,
				"z": -0.1662634478,
				"element": "H" 
			}
		],
		 "valence_orbital": [ 
			{
				"type": "occ",
				"energy": -0.29236,
				"method": "rhf"
			},
			{
				"type": "occ",
				"energy": -0.2651,
				"method": "rhf"
			},
			{
				"type": "occ",
				"energy": -0.25453,
				"method": "rhf"
			},
			{
				"type": "occ",
				"energy": -0.23806,
				"method": "rhf"
			},
			{
				"type": "occ",
				"energy": -0.22342,
				"method": "rhf"
			},
			{
				"type": "unocc",
				"energy": -0.03062,
				"method": "rhf"
			},
			{
				"type": "unocc",
				"energy": -0.01763,
				"method": "rhf"
			},
			{
				"type": "unocc",
				"energy": 0.0601,
				"method": "rhf"
			},
			{
				"type": "unocc",
				"energy": 0.07516,
				"method": "rhf"
			},
			{
				"type": "unocc",
				"energy": 0.08067,
				"method": "rhf"
			}
		],
		"cosmo_sigma_profile": { 
			"-0.025": 0.0,
			"-0.024": 0.0,
			"-0.023": 0.0,
			"-0.022": 0.0,
			"-0.021": 0.0,
			"-0.02": 0.0,
			"-0.019": 0.0,
			"-0.018": 0.0,
			"-0.017": 0.0,
			"-0.016": 0.0,
			"-0.015": 0.0,
			"-0.014": 0.0,
			"-0.013": 0.0,
			"-0.012": 0.0,
			"-0.011": 0.175882394623,
			"-0.01": 1.47560412026,
			"-0.009": 1.43695013988,
			"-0.008": 1.35916437754,
			"-0.007": 2.27667960125,
			"-0.006": 7.28183530182,
			"-0.005": 16.6156351859,
			"-0.004": 31.6524175502,
			"-0.003": 43.9279247218,
			"-0.002": 44.1694308057,
			"-0.001": 37.7704330292,
			"0.0": 24.1757387594,
			"0.001": 16.3458967119,
			"0.002": 9.06030138732,
			"0.003": 14.1358422678,
			"0.004": 10.2614021472,
			"0.005": 5.23099000666,
			"0.006": 5.44291559392,
			"0.007": 4.60406262106,
			"0.008": 5.10990071327,
			"0.009": 3.28196864699,
			"0.01": 5.9069057439,
			"0.011": 8.38930413676,
			"0.012": 7.27056057858,
			"0.013": 0.901261348921,
			"0.014": 0.468538110786,
			"0.015": 0.455013050533,
			"0.016": 0.726624479967,
			"0.017": 0.480793530689,
			"0.018": 0.325112047009,
			"0.019": 0.0125653750219,
			"0.02": 0.0,
			"0.021": 0.0,
			"0.022": 0.0,
			"0.023": 0.0,
			"0.024": 0.0,
			"0.025": 0.0
		}
	}
}
