{
	 "smiles": "CC12CC(O)C3C(CCC4CC(O)CCC34C)C1(O)CCC2C1=CC(=O)OC1", 
	 "Tm": 553.15, 
	 "num_atms": 62, 
	 "gaussian": { 
		 "optdone": 1, 
		 "sigma_profile": "yes", 
		 "theory": "DFT", 
		 "functional": "B3LYP", 
		 "basiset": "6-31G**", 
		 "properties": { 
			 "R2extent": 11849.8473, 
			 "electric_dipole_moment_norm": 7.32675044682, 
			 "electric_quadrupole_moment_norm": 35.8655664479, 
			 "total_energy": -1273.03296421, 
			 "HOMO_LUMO_gap": 0.21797, 
			 "cosmo_polarized_energy": -24.34, 
			 "cosmo_cavitation_energy": 51.43, 
			 "cosmo_dispersion_energy": -36.44, 
			 "cosmo_repulsion_energy": 2.65, 
			 "cosmo_total_nonelectrostatic_energy": 17.65, 
			 "SMD_solvation_energy": 8.43 
		},
		"coords": [
			{
				"x": -1.8082043514,
				"y": -2.330632098,
				"z": -0.2748172448,
				"element": "C" 
			},
			{
				"x": -1.0953261646,
				"y": -1.0352041352,
				"z": -0.7325992095,
				"element": "C" 
			},
			{
				"x": -1.2787400904,
				"y": 0.0744674202,
				"z": 0.3154418097,
				"element": "C" 
			},
			{
				"x": -0.5536789356,
				"y": -0.2948046712,
				"z": 1.6267954578,
				"element": "C" 
			},
			{
				"x": -0.7486772204,
				"y": 0.7039713781,
				"z": 2.6297881677,
				"element": "O" 
			},
			{
				"x": 0.9664801704,
				"y": -0.601450863,
				"z": 1.4847357218,
				"element": "C" 
			},
			{
				"x": 1.1734836849,
				"y": -1.6385698565,
				"z": 0.316597723,
				"element": "C" 
			},
			{
				"x": 2.6716450254,
				"y": -2.0323138542,
				"z": 0.1034358012,
				"element": "C" 
			},
			{
				"x": 3.6644244509,
				"y": -1.2055852332,
				"z": 0.9388865736,
				"element": "C" 
			},
			{
				"x": 3.2854184223,
				"y": 0.2707626217,
				"z": 0.8100954409,
				"element": "C" 
			},
			{
				"x": 4.4014797099,
				"y": 1.2918290624,
				"z": 1.0669565158,
				"element": "C" 
			},
			{
				"x": 3.9510605705,
				"y": 2.6840740054,
				"z": 0.5834242214,
				"element": "C" 
			},
			{
				"x": 3.8016334907,
				"y": 2.6978879383,
				"z": -0.8442481722,
				"element": "O" 
			},
			{
				"x": 2.593080846,
				"y": 3.081748051,
				"z": 1.1742342818,
				"element": "C" 
			},
			{
				"x": 1.5073258895,
				"y": 1.9890195808,
				"z": 1.0667078754,
				"element": "C" 
			},
			{
				"x": 1.9876739572,
				"y": 0.613514156,
				"z": 1.6079063682,
				"element": "C" 
			},
			{
				"x": 2.2823116787,
				"y": 0.7396581707,
				"z": 3.1278027409,
				"element": "C" 
			},
			{
				"x": 0.4341806257,
				"y": -1.2309914918,
				"z": -0.9771388045,
				"element": "C" 
			},
			{
				"x": 0.8908693741,
				"y": 0.0539137708,
				"z": -1.4428950434,
				"element": "O" 
			},
			{
				"x": 0.4609317601,
				"y": -2.1817623826,
				"z": -2.1895323485,
				"element": "C" 
			},
			{
				"x": -0.739547322,
				"y": -1.7093591803,
				"z": -3.0658531424,
				"element": "C" 
			},
			{
				"x": -1.5563076819,
				"y": -0.6977010394,
				"z": -2.196492242,
				"element": "C" 
			},
			{
				"x": -3.0406791962,
				"y": -0.6720040096,
				"z": -2.4207702582,
				"element": "C" 
			},
			{
				"x": -3.8950255503,
				"y": 0.3280101504,
				"z": -2.1485565928,
				"element": "C" 
			},
			{
				"x": -5.2709914416,
				"y": -0.0744111766,
				"z": -2.5015086507,
				"element": "C" 
			},
			{
				"x": -6.3116247109,
				"y": 0.5256698403,
				"z": -2.3985806671,
				"element": "O" 
			},
			{
				"x": -5.2070294722,
				"y": -1.3568977889,
				"z": -3.0152002471,
				"element": "O" 
			},
			{
				"x": -3.8522454802,
				"y": -1.8027216377,
				"z": -3.0131278247,
				"element": "C" 
			},
			{
				"x": -1.7618544576,
				"y": -3.1211236962,
				"z": -1.0283874118,
				"element": "H" 
			},
			{
				"x": -2.8653606973,
				"y": -2.1141298421,
				"z": -0.0896481239,
				"element": "H" 
			},
			{
				"x": -1.4023455006,
				"y": -2.7478841629,
				"z": 0.647578488,
				"element": "H" 
			},
			{
				"x": -2.3471354377,
				"y": 0.2151197046,
				"z": 0.5337776783,
				"element": "H" 
			},
			{
				"x": -0.8918796613,
				"y": 1.0217840712,
				"z": -0.0651601471,
				"element": "H" 
			},
			{
				"x": -1.0042445319,
				"y": -1.2300662055,
				"z": 1.9930838622,
				"element": "H" 
			},
			{
				"x": -1.7006598924,
				"y": 0.8327541825,
				"z": 2.7315363291,
				"element": "H" 
			},
			{
				"x": 1.1925262205,
				"y": -1.1972382846,
				"z": 2.3770526606,
				"element": "H" 
			},
			{
				"x": 0.669614232,
				"y": -2.5491486397,
				"z": 0.6590035112,
				"element": "H" 
			},
			{
				"x": 2.9400741422,
				"y": -1.896808357,
				"z": -0.9530344494,
				"element": "H" 
			},
			{
				"x": 2.8035913647,
				"y": -3.1017224989,
				"z": 0.30149528,
				"element": "H" 
			},
			{
				"x": 4.6828395555,
				"y": -1.3823785108,
				"z": 0.5702590976,
				"element": "H" 
			},
			{
				"x": 3.6597256408,
				"y": -1.528131033,
				"z": 1.9875296137,
				"element": "H" 
			},
			{
				"x": 3.0374593918,
				"y": 0.4220070061,
				"z": -0.2472707,
				"element": "H" 
			},
			{
				"x": 5.3088274515,
				"y": 0.9979219459,
				"z": 0.5181676056,
				"element": "H" 
			},
			{
				"x": 4.6877429349,
				"y": 1.3346602518,
				"z": 2.1241007672,
				"element": "H" 
			},
			{
				"x": 4.7014202976,
				"y": 3.4357675913,
				"z": 0.877091729,
				"element": "H" 
			},
			{
				"x": 4.6642611956,
				"y": 2.4930863539,
				"z": -1.2284153592,
				"element": "H" 
			},
			{
				"x": 2.2528208563,
				"y": 3.9863217407,
				"z": 0.6579529585,
				"element": "H" 
			},
			{
				"x": 2.749147204,
				"y": 3.3646206106,
				"z": 2.2215451164,
				"element": "H" 
			},
			{
				"x": 0.6201419408,
				"y": 2.3156809621,
				"z": 1.6134989153,
				"element": "H" 
			},
			{
				"x": 1.2275073973,
				"y": 1.8750104046,
				"z": 0.0170881281,
				"element": "H" 
			},
			{
				"x": 2.7828176416,
				"y": -0.1558215317,
				"z": 3.5147649898,
				"element": "H" 
			},
			{
				"x": 1.3429521848,
				"y": 0.8594067549,
				"z": 3.6706938607,
				"element": "H" 
			},
			{
				"x": 2.9179707674,
				"y": 1.5935153025,
				"z": 3.3707632319,
				"element": "H" 
			},
			{
				"x": 1.8186939454,
				"y": -0.0221459376,
				"z": -1.6988040561,
				"element": "H" 
			},
			{
				"x": 0.3432965201,
				"y": -3.2249207056,
				"z": -1.8788372728,
				"element": "H" 
			},
			{
				"x": 1.4116013881,
				"y": -2.1194504217,
				"z": -2.7281285897,
				"element": "H" 
			},
			{
				"x": -1.3460221758,
				"y": -2.5683585814,
				"z": -3.3684282689,
				"element": "H" 
			},
			{
				"x": -0.4012072017,
				"y": -1.2284069318,
				"z": -3.9870644647,
				"element": "H" 
			},
			{
				"x": -1.1815709483,
				"y": 0.3065726319,
				"z": -2.4039159874,
				"element": "H" 
			},
			{
				"x": -3.6702761043,
				"y": 1.3043278567,
				"z": -1.7402700964,
				"element": "H" 
			},
			{
				"x": -3.5506505028,
				"y": -2.0294668603,
				"z": -4.0439322185,
				"element": "H" 
			},
			{
				"x": -3.7818472001,
				"y": -2.7300718981,
				"z": -2.4314749287,
				"element": "H" 
			}
		],
		 "valence_orbital": [ 
			{
				"type": "occ",
				"energy": -0.27245,
				"method": "rhf"
			},
			{
				"type": "occ",
				"energy": -0.263,
				"method": "rhf"
			},
			{
				"type": "occ",
				"energy": -0.25982,
				"method": "rhf"
			},
			{
				"type": "occ",
				"energy": -0.25883,
				"method": "rhf"
			},
			{
				"type": "occ",
				"energy": -0.25475,
				"method": "rhf"
			},
			{
				"type": "unocc",
				"energy": -0.03678,
				"method": "rhf"
			},
			{
				"type": "unocc",
				"energy": 0.0444,
				"method": "rhf"
			},
			{
				"type": "unocc",
				"energy": 0.064,
				"method": "rhf"
			},
			{
				"type": "unocc",
				"energy": 0.06718,
				"method": "rhf"
			},
			{
				"type": "unocc",
				"energy": 0.07484,
				"method": "rhf"
			}
		],
		"cosmo_sigma_profile": { 
			"-0.025": 0.0,
			"-0.024": 0.0,
			"-0.023": 0.0,
			"-0.022": 0.0,
			"-0.021": 0.0,
			"-0.02": 0.0,
			"-0.019": 0.0,
			"-0.018": 0.0,
			"-0.017": 0.0,
			"-0.016": 0.0,
			"-0.015": 0.640441938241,
			"-0.014": 1.71174133672,
			"-0.013": 2.43843876687,
			"-0.012": 2.73143731988,
			"-0.011": 2.6106880295,
			"-0.01": 3.24442928742,
			"-0.009": 3.30313271994,
			"-0.008": 3.3619282628,
			"-0.007": 8.99231384239,
			"-0.006": 12.5528912119,
			"-0.005": 14.6244724707,
			"-0.004": 18.4336003318,
			"-0.003": 33.8968977854,
			"-0.002": 52.5285580147,
			"-0.001": 46.8392189287,
			"0.0": 42.366890661,
			"0.001": 37.2584648815,
			"0.002": 21.4267156156,
			"0.003": 11.111446636,
			"0.004": 9.80359072945,
			"0.005": 5.91501070776,
			"0.006": 7.09034398977,
			"0.007": 8.76073914508,
			"0.008": 6.26116394723,
			"0.009": 6.32077422317,
			"0.01": 8.73345886363,
			"0.011": 6.56291528484,
			"0.012": 7.14330430067,
			"0.013": 6.06284335318,
			"0.014": 1.83691418563,
			"0.015": 0.879578973541,
			"0.016": 0.0123941080456,
			"0.017": 0.0,
			"0.018": 0.0,
			"0.019": 0.0,
			"0.02": 0.0,
			"0.021": 0.0,
			"0.022": 0.0,
			"0.023": 0.0,
			"0.024": 0.0,
			"0.025": 0.0
		}
	}
}
