{
	 "smiles": "[O-][N+](=O)C1=CN(CC2=CC=C(F)C=C2)C=N1", 
	 "Tm": 383.15, 
	 "num_atms": 24, 
	 "gaussian": { 
		 "optdone": 1, 
		 "sigma_profile": "yes", 
		 "theory": "DFT", 
		 "functional": "B3LYP", 
		 "basiset": "6-31G**", 
		 "properties": { 
			 "R2extent": 6320.5042, 
			 "electric_dipole_moment_norm": 7.8283817191, 
			 "electric_quadrupole_moment_norm": 33.9515443574, 
			 "total_energy": -800.307478772, 
			 "HOMO_LUMO_gap": 0.18855, 
			 "cosmo_polarized_energy": -20.39, 
			 "cosmo_cavitation_energy": 30.82, 
			 "cosmo_dispersion_energy": -21.54, 
			 "cosmo_repulsion_energy": 1.65, 
			 "cosmo_total_nonelectrostatic_energy": 10.93, 
			 "SMD_solvation_energy": 7.21 
		},
		"coords": [
			{
				"x": 1.8387520717,
				"y": -2.2889948215,
				"z": -4.0528271361,
				"element": "O" 
			},
			{
				"x": 0.9124642005,
				"y": -3.0130220118,
				"z": -3.6660885384,
				"element": "N" 
			},
			{
				"x": 0.6427212041,
				"y": -4.1237025444,
				"z": -4.108435263,
				"element": "O" 
			},
			{
				"x": 0.0961773188,
				"y": -2.4787049019,
				"z": -2.6033519706,
				"element": "C" 
			},
			{
				"x": 0.2808285676,
				"y": -1.2478647825,
				"z": -2.0143076713,
				"element": "C" 
			},
			{
				"x": -0.7059809364,
				"y": -1.1708175356,
				"z": -1.0677543236,
				"element": "N" 
			},
			{
				"x": -0.98144526,
				"y": -0.0280638564,
				"z": -0.1844045024,
				"element": "C" 
			},
			{
				"x": -1.1357258532,
				"y": -0.4222570778,
				"z": 1.2694879397,
				"element": "C" 
			},
			{
				"x": -0.0856081333,
				"y": -1.0503603051,
				"z": 1.9556292207,
				"element": "C" 
			},
			{
				"x": -0.216305385,
				"y": -1.3963896844,
				"z": 3.2974378849,
				"element": "C" 
			},
			{
				"x": -1.4109863513,
				"y": -1.1027597264,
				"z": 3.9504267688,
				"element": "C" 
			},
			{
				"x": -1.5413436253,
				"y": -1.4332668095,
				"z": 5.2485541842,
				"element": "F" 
			},
			{
				"x": -2.470360162,
				"y": -0.4809225125,
				"z": 3.3020751642,
				"element": "C" 
			},
			{
				"x": -2.3234074854,
				"y": -0.1455958728,
				"z": 1.9549775195,
				"element": "C" 
			},
			{
				"x": -1.4215047194,
				"y": -2.3454698909,
				"z": -1.1439643004,
				"element": "C" 
			},
			{
				"x": -0.9552491497,
				"y": -3.1565997193,
				"z": -2.0655626976,
				"element": "N" 
			},
			{
				"x": 1.0008848895,
				"y": -0.4663255601,
				"z": -2.1923408952,
				"element": "H" 
			},
			{
				"x": -0.1476544759,
				"y": 0.6683716013,
				"z": -0.3140459652,
				"element": "H" 
			},
			{
				"x": -1.8851357216,
				"y": 0.481232099,
				"z": -0.5348230177,
				"element": "H" 
			},
			{
				"x": 0.8408382898,
				"y": -1.2775327957,
				"z": 1.4352445824,
				"element": "H" 
			},
			{
				"x": 0.5854824987,
				"y": -1.8836277458,
				"z": 3.8411940286,
				"element": "H" 
			},
			{
				"x": -3.3852627271,
				"y": -0.2719805236,
				"z": 3.8452751226,
				"element": "H" 
			},
			{
				"x": -3.1457512901,
				"y": 0.3399241696,
				"z": 1.4360401758,
				"element": "H" 
			},
			{
				"x": -2.259127765,
				"y": -2.5462691916,
				"z": -0.4912363102,
				"element": "H" 
			}
		],
		 "valence_orbital": [ 
			{
				"type": "occ",
				"energy": -0.2937,
				"method": "rhf"
			},
			{
				"type": "occ",
				"energy": -0.28565,
				"method": "rhf"
			},
			{
				"type": "occ",
				"energy": -0.27745,
				"method": "rhf"
			},
			{
				"type": "occ",
				"energy": -0.26905,
				"method": "rhf"
			},
			{
				"type": "occ",
				"energy": -0.25811,
				"method": "rhf"
			},
			{
				"type": "unocc",
				"energy": -0.06956,
				"method": "rhf"
			},
			{
				"type": "unocc",
				"energy": -0.03794,
				"method": "rhf"
			},
			{
				"type": "unocc",
				"energy": -0.02995,
				"method": "rhf"
			},
			{
				"type": "unocc",
				"energy": -0.00243,
				"method": "rhf"
			},
			{
				"type": "unocc",
				"energy": 0.06016,
				"method": "rhf"
			}
		],
		"cosmo_sigma_profile": { 
			"-0.025": 0.0,
			"-0.024": 0.0,
			"-0.023": 0.0,
			"-0.022": 0.0,
			"-0.021": 0.0,
			"-0.02": 0.0,
			"-0.019": 0.0,
			"-0.018": 0.0,
			"-0.017": 0.0,
			"-0.016": 0.0,
			"-0.015": 0.0,
			"-0.014": 0.0,
			"-0.013": 0.0,
			"-0.012": 0.297214291909,
			"-0.011": 2.29540071922,
			"-0.01": 3.57668427951,
			"-0.009": 4.00024397915,
			"-0.008": 9.98286704906,
			"-0.007": 15.3626167973,
			"-0.006": 15.9639766766,
			"-0.005": 16.3926954732,
			"-0.004": 11.8509895975,
			"-0.003": 12.0777903565,
			"-0.002": 12.3987671354,
			"-0.001": 16.0698335376,
			"0.0": 15.5017705369,
			"0.001": 15.0824262122,
			"0.002": 15.0574229599,
			"0.003": 16.5664346864,
			"0.004": 15.9653886284,
			"0.005": 5.68473918099,
			"0.006": 4.06944248726,
			"0.007": 4.79868291376,
			"0.008": 12.0009203792,
			"0.009": 7.34647115828,
			"0.01": 5.84894138927,
			"0.011": 3.44287092122,
			"0.012": 1.08174477267,
			"0.013": 1.71352890006,
			"0.014": 1.50701152393,
			"0.015": 1.28496957041,
			"0.016": 0.591614192207,
			"0.017": 0.0,
			"0.018": 0.0,
			"0.019": 0.0,
			"0.02": 0.0,
			"0.021": 0.0,
			"0.022": 0.0,
			"0.023": 0.0,
			"0.024": 0.0,
			"0.025": 0.0
		}
	}
}
