{
	 "smiles": "CCC1(CCN(CC1)C(=O)C1=CC=CC=C1)C(O)=O", 
	 "Tm": 428.15, 
	 "num_atms": 38, 
	 "gaussian": { 
		 "optdone": 1, 
		 "sigma_profile": "yes", 
		 "theory": "DFT", 
		 "functional": "B3LYP", 
		 "basiset": "6-31G**", 
		 "properties": { 
			 "R2extent": 6608.5822, 
			 "electric_dipole_moment_norm": 5.61535732523, 
			 "electric_quadrupole_moment_norm": 22.9729381386, 
			 "total_energy": -863.492533126, 
			 "HOMO_LUMO_gap": 0.2062, 
			 "cosmo_polarized_energy": -21.86, 
			 "cosmo_cavitation_energy": 38.43, 
			 "cosmo_dispersion_energy": -27.14, 
			 "cosmo_repulsion_energy": 2.06, 
			 "cosmo_total_nonelectrostatic_energy": 13.36, 
			 "SMD_solvation_energy": 7.14 
		},
		"coords": [
			{
				"x": -0.5789781377,
				"y": 1.694375243,
				"z": -2.6795712745,
				"element": "C" 
			},
			{
				"x": 0.3570729187,
				"y": 2.5893879393,
				"z": -1.8582482688,
				"element": "C" 
			},
			{
				"x": 0.9719485043,
				"y": 2.0439242032,
				"z": -0.5263612742,
				"element": "C" 
			},
			{
				"x": 1.8939096947,
				"y": 0.8116956814,
				"z": -0.7344411095,
				"element": "C" 
			},
			{
				"x": 1.1925231699,
				"y": -0.5520582069,
				"z": -0.7311406107,
				"element": "C" 
			},
			{
				"x": 0.3479932174,
				"y": -0.6856973043,
				"z": 0.4565285232,
				"element": "N" 
			},
			{
				"x": -0.6985656603,
				"y": 0.3297609354,
				"z": 0.5196041725,
				"element": "C" 
			},
			{
				"x": -0.0916525144,
				"y": 1.7399280042,
				"z": 0.5745997379,
				"element": "C" 
			},
			{
				"x": 0.2874036602,
				"y": -1.9185634102,
				"z": 1.080717675,
				"element": "C" 
			},
			{
				"x": 0.8865885196,
				"y": -2.8963172328,
				"z": 0.6408325739,
				"element": "O" 
			},
			{
				"x": -0.4893614517,
				"y": -2.0311902879,
				"z": 2.3654923076,
				"element": "C" 
			},
			{
				"x": -0.4019296571,
				"y": -1.07851382,
				"z": 3.3906129648,
				"element": "C" 
			},
			{
				"x": -1.0673476136,
				"y": -1.2817115012,
				"z": 4.6003959265,
				"element": "C" 
			},
			{
				"x": -1.8319178281,
				"y": -2.4338262941,
				"z": 4.7930090723,
				"element": "C" 
			},
			{
				"x": -1.9121114799,
				"y": -3.3931675016,
				"z": 3.780078591,
				"element": "C" 
			},
			{
				"x": -1.2325847174,
				"y": -3.1999610838,
				"z": 2.5790536125,
				"element": "C" 
			},
			{
				"x": 1.8732369304,
				"y": 3.2055975265,
				"z": -0.0397913843,
				"element": "C" 
			},
			{
				"x": 1.2338999345,
				"y": 4.2874637857,
				"z": 0.4872043157,
				"element": "O" 
			},
			{
				"x": 3.0750935895,
				"y": 3.2215510638,
				"z": -0.1325224842,
				"element": "O" 
			},
			{
				"x": -1.4834023223,
				"y": 1.4154617406,
				"z": -2.1314708012,
				"element": "H" 
			},
			{
				"x": -0.0887643994,
				"y": 0.7776943756,
				"z": -3.0162352935,
				"element": "H" 
			},
			{
				"x": -0.8995412403,
				"y": 2.2374196142,
				"z": -3.5747856044,
				"element": "H" 
			},
			{
				"x": -0.1787087819,
				"y": 3.5204819656,
				"z": -1.6290059961,
				"element": "H" 
			},
			{
				"x": 1.1993621821,
				"y": 2.8845704049,
				"z": -2.4962644421,
				"element": "H" 
			},
			{
				"x": 2.6380955092,
				"y": 0.8088469199,
				"z": 0.0666779783,
				"element": "H" 
			},
			{
				"x": 2.4572902681,
				"y": 0.9316668601,
				"z": -1.6654456423,
				"element": "H" 
			},
			{
				"x": 0.5834167616,
				"y": -0.7039312199,
				"z": -1.6326908537,
				"element": "H" 
			},
			{
				"x": 1.9281765909,
				"y": -1.3559119171,
				"z": -0.7064335043,
				"element": "H" 
			},
			{
				"x": -1.3496032706,
				"y": 0.2278481012,
				"z": -0.3601643265,
				"element": "H" 
			},
			{
				"x": -1.3220348672,
				"y": 0.1656358021,
				"z": 1.397800472,
				"element": "H" 
			},
			{
				"x": -0.9197855152,
				"y": 2.4619823466,
				"z": 0.5245854201,
				"element": "H" 
			},
			{
				"x": 0.3764130833,
				"y": 1.8581448487,
				"z": 1.5595566266,
				"element": "H" 
			},
			{
				"x": 0.2120251394,
				"y": -0.1931934415,
				"z": 3.2523788294,
				"element": "H" 
			},
			{
				"x": -0.9820886445,
				"y": -0.5448316222,
				"z": 5.3938731797,
				"element": "H" 
			},
			{
				"x": -2.3539643996,
				"y": -2.58916896,
				"z": 5.732808715,
				"element": "H" 
			},
			{
				"x": -2.4957412697,
				"y": -4.2966008997,
				"z": 3.93143764,
				"element": "H" 
			},
			{
				"x": -1.2587862399,
				"y": -3.9515486244,
				"z": 1.7968438192,
				"element": "H" 
			},
			{
				"x": 0.278620337,
				"y": 4.1387559658,
				"z": 0.5152807174,
				"element": "H" 
			}
		],
		 "valence_orbital": [ 
			{
				"type": "occ",
				"energy": -0.27063,
				"method": "rhf"
			},
			{
				"type": "occ",
				"energy": -0.26705,
				"method": "rhf"
			},
			{
				"type": "occ",
				"energy": -0.26012,
				"method": "rhf"
			},
			{
				"type": "occ",
				"energy": -0.24904,
				"method": "rhf"
			},
			{
				"type": "occ",
				"energy": -0.23903,
				"method": "rhf"
			},
			{
				"type": "unocc",
				"energy": -0.03283,
				"method": "rhf"
			},
			{
				"type": "unocc",
				"energy": -0.01126,
				"method": "rhf"
			},
			{
				"type": "unocc",
				"energy": 0.00731,
				"method": "rhf"
			},
			{
				"type": "unocc",
				"energy": 0.0367,
				"method": "rhf"
			},
			{
				"type": "unocc",
				"energy": 0.04373,
				"method": "rhf"
			}
		],
		"cosmo_sigma_profile": { 
			"-0.025": 0.0,
			"-0.024": 0.0,
			"-0.023": 0.0,
			"-0.022": 0.0,
			"-0.021": 0.0,
			"-0.02": 0.0,
			"-0.019": 0.0,
			"-0.018": 0.199178437834,
			"-0.017": 0.592018573166,
			"-0.016": 0.944982754693,
			"-0.015": 1.18031487968,
			"-0.014": 0.798303263284,
			"-0.013": 1.19371471815,
			"-0.012": 1.07844227154,
			"-0.011": 0.838449683806,
			"-0.01": 0.934517335221,
			"-0.009": 0.915228736909,
			"-0.008": 1.34041158793,
			"-0.007": 1.98202123758,
			"-0.006": 12.022872949,
			"-0.005": 25.2282139546,
			"-0.004": 34.7050775806,
			"-0.003": 37.048148239,
			"-0.002": 30.1400865169,
			"-0.001": 22.3547611924,
			"0.0": 19.2021339684,
			"0.001": 15.4147128927,
			"0.002": 11.8536887706,
			"0.003": 10.5641679581,
			"0.004": 12.8740117346,
			"0.005": 11.1143381832,
			"0.006": 4.17199071008,
			"0.007": 3.82798572803,
			"0.008": 4.70187050827,
			"0.009": 5.0088694997,
			"0.01": 5.50577399694,
			"0.011": 6.81262851411,
			"0.012": 7.67093490937,
			"0.013": 5.66998267298,
			"0.014": 3.68900296816,
			"0.015": 0.434695986384,
			"0.016": 0.0,
			"0.017": 0.0,
			"0.018": 0.0,
			"0.019": 0.0,
			"0.02": 0.0,
			"0.021": 0.0,
			"0.022": 0.0,
			"0.023": 0.0,
			"0.024": 0.0,
			"0.025": 0.0
		}
	}
}
