{
	 "smiles": "CSC(SC)=C(C#N)C(=O)NCC1=CC=CC=C1", 
	 "Tm": 354.15, 
	 "num_atms": 32, 
	 "gaussian": { 
		 "optdone": 1, 
		 "sigma_profile": "yes", 
		 "theory": "DFT", 
		 "functional": "B3LYP", 
		 "basiset": "6-31G**", 
		 "properties": { 
			 "R2extent": 8429.5789, 
			 "electric_dipole_moment_norm": 3.40925623707, 
			 "electric_quadrupole_moment_norm": 27.4407458, 
			 "total_energy": -1484.90081677, 
			 "HOMO_LUMO_gap": 0.16011, 
			 "cosmo_polarized_energy": -15.85, 
			 "cosmo_cavitation_energy": 39.97, 
			 "cosmo_dispersion_energy": -28.07, 
			 "cosmo_repulsion_energy": 2.12, 
			 "cosmo_total_nonelectrostatic_energy": 14.02, 
			 "SMD_solvation_energy": 8.33 
		},
		"coords": [
			{
				"x": -3.2608881764,
				"y": -1.6644311858,
				"z": -4.2639419626,
				"element": "C" 
			},
			{
				"x": -3.2970220229,
				"y": -1.1104782527,
				"z": -2.5207234349,
				"element": "S" 
			},
			{
				"x": -1.8680047008,
				"y": -1.8273879935,
				"z": -1.7552059532,
				"element": "C" 
			},
			{
				"x": -1.3738394949,
				"y": -3.3761665968,
				"z": -2.4068483529,
				"element": "S" 
			},
			{
				"x": 0.4439392717,
				"y": -3.4481714975,
				"z": -2.2404021132,
				"element": "C" 
			},
			{
				"x": -1.3322232378,
				"y": -1.1484374229,
				"z": -0.6767362131,
				"element": "C" 
			},
			{
				"x": -1.6912614132,
				"y": 0.2198021088,
				"z": -0.470217063,
				"element": "C" 
			},
			{
				"x": -1.8994497651,
				"y": 1.3418361869,
				"z": -0.2271574689,
				"element": "N" 
			},
			{
				"x": -0.4961663789,
				"y": -1.7822622008,
				"z": 0.4038072297,
				"element": "C" 
			},
			{
				"x": -0.311488214,
				"y": -2.99726938,
				"z": 0.4732648592,
				"element": "O" 
			},
			{
				"x": 0.0209301158,
				"y": -0.9104518278,
				"z": 1.3197379655,
				"element": "N" 
			},
			{
				"x": 0.766500561,
				"y": -1.3658578063,
				"z": 2.4847517048,
				"element": "C" 
			},
			{
				"x": 2.0172929159,
				"y": -0.5461945352,
				"z": 2.7371861926,
				"element": "C" 
			},
			{
				"x": 2.3165542608,
				"y": -0.0965271129,
				"z": 4.0278822957,
				"element": "C" 
			},
			{
				"x": 3.4843293629,
				"y": 0.6268845376,
				"z": 4.2791543736,
				"element": "C" 
			},
			{
				"x": 4.3648862548,
				"y": 0.9163452698,
				"z": 3.2366379957,
				"element": "C" 
			},
			{
				"x": 4.0718292422,
				"y": 0.4768889267,
				"z": 1.9430413379,
				"element": "C" 
			},
			{
				"x": 2.9078186935,
				"y": -0.2497705663,
				"z": 1.6961810538,
				"element": "C" 
			},
			{
				"x": -4.0111503893,
				"y": -1.043871639,
				"z": -4.7601880333,
				"element": "H" 
			},
			{
				"x": -3.5332062895,
				"y": -2.7139822745,
				"z": -4.3677165049,
				"element": "H" 
			},
			{
				"x": -2.2837308725,
				"y": -1.4795156011,
				"z": -4.7110736374,
				"element": "H" 
			},
			{
				"x": 0.771644359,
				"y": -4.1461162609,
				"z": -3.0142001848,
				"element": "H" 
			},
			{
				"x": 0.7171401965,
				"y": -3.7909782826,
				"z": -1.245049124,
				"element": "H" 
			},
			{
				"x": 0.8698414118,
				"y": -2.4622814597,
				"z": -2.4367471445,
				"element": "H" 
			},
			{
				"x": -0.2083597335,
				"y": 0.0720747269,
				"z": 1.2543911698,
				"element": "H" 
			},
			{
				"x": 0.1274821889,
				"y": -1.3456195037,
				"z": 3.3776367933,
				"element": "H" 
			},
			{
				"x": 1.011675952,
				"y": -2.4148978183,
				"z": 2.2931916784,
				"element": "H" 
			},
			{
				"x": 1.6295068145,
				"y": -0.3129516453,
				"z": 4.8425224505,
				"element": "H" 
			},
			{
				"x": 3.7002909239,
				"y": 0.9697911518,
				"z": 5.2870429538,
				"element": "H" 
			},
			{
				"x": 5.2710842463,
				"y": 1.4836551435,
				"z": 3.4282476491,
				"element": "H" 
			},
			{
				"x": 4.7518002541,
				"y": 0.7004682801,
				"z": 1.1257336426,
				"element": "H" 
			},
			{
				"x": 2.6803436632,
				"y": -0.5863254686,
				"z": 0.6884958447,
				"element": "H" 
			}
		],
		 "valence_orbital": [ 
			{
				"type": "occ",
				"energy": -0.26628,
				"method": "rhf"
			},
			{
				"type": "occ",
				"energy": -0.25376,
				"method": "rhf"
			},
			{
				"type": "occ",
				"energy": -0.25182,
				"method": "rhf"
			},
			{
				"type": "occ",
				"energy": -0.2421,
				"method": "rhf"
			},
			{
				"type": "occ",
				"energy": -0.23228,
				"method": "rhf"
			},
			{
				"type": "unocc",
				"energy": -0.07217,
				"method": "rhf"
			},
			{
				"type": "unocc",
				"energy": -0.0073,
				"method": "rhf"
			},
			{
				"type": "unocc",
				"energy": -0.00402,
				"method": "rhf"
			},
			{
				"type": "unocc",
				"energy": -0.00115,
				"method": "rhf"
			},
			{
				"type": "unocc",
				"energy": 0.02228,
				"method": "rhf"
			}
		],
		"cosmo_sigma_profile": { 
			"-0.025": 0.0,
			"-0.024": 0.0,
			"-0.023": 0.0,
			"-0.022": 0.0,
			"-0.021": 0.0,
			"-0.02": 0.0,
			"-0.019": 0.0,
			"-0.018": 0.0,
			"-0.017": 0.0,
			"-0.016": 0.0,
			"-0.015": 0.0,
			"-0.014": 0.0,
			"-0.013": 0.0,
			"-0.012": 0.202335258282,
			"-0.011": 0.607996424429,
			"-0.01": 1.07259192773,
			"-0.009": 0.56069124098,
			"-0.008": 3.0049908142,
			"-0.007": 8.64280799537,
			"-0.006": 17.1910740102,
			"-0.005": 25.9929596499,
			"-0.004": 27.4759655975,
			"-0.003": 35.5075855537,
			"-0.002": 31.7178117292,
			"-0.001": 23.5160331422,
			"0.0": 20.3954102838,
			"0.001": 15.9152198924,
			"0.002": 16.4530688527,
			"0.003": 17.3995205335,
			"0.004": 16.4216569423,
			"0.005": 14.598672006,
			"0.006": 13.8617934616,
			"0.007": 5.31458586059,
			"0.008": 4.58192834538,
			"0.009": 4.17499728925,
			"0.01": 4.80589897813,
			"0.011": 4.24685960416,
			"0.012": 4.62917598938,
			"0.013": 4.19764334038,
			"0.014": 0.303802925725,
			"0.015": 0.0,
			"0.016": 0.0,
			"0.017": 0.0,
			"0.018": 0.0,
			"0.019": 0.0,
			"0.02": 0.0,
			"0.021": 0.0,
			"0.022": 0.0,
			"0.023": 0.0,
			"0.024": 0.0,
			"0.025": 0.0
		}
	}
}
