{
	 "smiles": "CCOC(=O)C1=C(C)OC2=CC3=C(OC(C)=C3C(=O)OCC)C=C12", 
	 "Tm": 461.15, 
	 "num_atms": 42, 
	 "gaussian": { 
		 "optdone": 1, 
		 "sigma_profile": "yes", 
		 "theory": "DFT", 
		 "functional": "B3LYP", 
		 "basiset": "6-31G**", 
		 "properties": { 
			 "R2extent": 11327.0407, 
			 "electric_dipole_moment_norm": 0.294000901359, 
			 "electric_quadrupole_moment_norm": 14.5301937258, 
			 "total_energy": -1148.15137241, 
			 "HOMO_LUMO_gap": 0.16481, 
			 "cosmo_polarized_energy": -11.22, 
			 "cosmo_cavitation_energy": 46.59, 
			 "cosmo_dispersion_energy": -32.89, 
			 "cosmo_repulsion_energy": 2.51, 
			 "cosmo_total_nonelectrostatic_energy": 16.21, 
			 "SMD_solvation_energy": 10.49 
		},
		"coords": [
			{
				"x": -0.5432511264,
				"y": 6.1057446252,
				"z": 0.1151629048,
				"element": "C" 
			},
			{
				"x": -1.6887578491,
				"y": 5.2971066395,
				"z": -0.4756210877,
				"element": "C" 
			},
			{
				"x": -1.2871838563,
				"y": 3.9335590486,
				"z": -0.7465504067,
				"element": "O" 
			},
			{
				"x": -0.6833898148,
				"y": 3.7086795643,
				"z": -1.9409682054,
				"element": "C" 
			},
			{
				"x": -0.4805573083,
				"y": 4.582605603,
				"z": -2.7684908909,
				"element": "O" 
			},
			{
				"x": -0.3157910923,
				"y": 2.3016258138,
				"z": -2.1089042429,
				"element": "C" 
			},
			{
				"x": 0.3038493714,
				"y": 1.8169176995,
				"z": -3.2356772664,
				"element": "C" 
			},
			{
				"x": 0.7497946046,
				"y": 2.4681084545,
				"z": -4.4965616649,
				"element": "C" 
			},
			{
				"x": 0.5331251527,
				"y": 0.4772212487,
				"z": -3.1331802115,
				"element": "O" 
			},
			{
				"x": 0.0527561926,
				"y": 0.0674357832,
				"z": -1.9065243935,
				"element": "C" 
			},
			{
				"x": 0.1042173675,
				"y": -1.2336721588,
				"z": -1.4341541609,
				"element": "C" 
			},
			{
				"x": -0.4450422805,
				"y": -1.4171366028,
				"z": -0.1588628324,
				"element": "C" 
			},
			{
				"x": -0.9920420663,
				"y": -0.3112085044,
				"z": 0.5335913327,
				"element": "C" 
			},
			{
				"x": -1.4716584675,
				"y": -0.7208388153,
				"z": 1.7605937661,
				"element": "O" 
			},
			{
				"x": -1.2417959655,
				"y": -2.0604138835,
				"z": 1.8633601661,
				"element": "C" 
			},
			{
				"x": -1.6872628657,
				"y": -2.7115073382,
				"z": 3.1244639753,
				"element": "C" 
			},
			{
				"x": -0.6235148476,
				"y": -2.5454017379,
				"z": 0.7359610045,
				"element": "C" 
			},
			{
				"x": -0.2551607186,
				"y": -3.9522975857,
				"z": 0.5683673459,
				"element": "C" 
			},
			{
				"x": -0.4542896193,
				"y": -4.8254625552,
				"z": 1.3975929146,
				"element": "O" 
			},
			{
				"x": 0.3363902992,
				"y": -4.1797005326,
				"z": -0.6316908414,
				"element": "O" 
			},
			{
				"x": 0.745240842,
				"y": -5.5417373012,
				"z": -0.8993034747,
				"element": "C" 
			},
			{
				"x": 2.1257731625,
				"y": -5.8289447251,
				"z": -0.3277033495,
				"element": "C" 
			},
			{
				"x": -1.0435472316,
				"y": 0.9898896921,
				"z": 0.0612009395,
				"element": "C" 
			},
			{
				"x": -0.494616758,
				"y": 1.1732880584,
				"z": -1.2142419342,
				"element": "C" 
			},
			{
				"x": -0.1523026389,
				"y": 5.6267542575,
				"z": 1.0177417852,
				"element": "H" 
			},
			{
				"x": -0.8947533537,
				"y": 7.1080111166,
				"z": 0.3823514777,
				"element": "H" 
			},
			{
				"x": 0.2668248659,
				"y": 6.2086003042,
				"z": -0.6107927729,
				"element": "H" 
			},
			{
				"x": -2.5169622109,
				"y": 5.2006117455,
				"z": 0.2306804874,
				"element": "H" 
			},
			{
				"x": -2.0519280842,
				"y": 5.7480160231,
				"z": -1.4019420769,
				"element": "H" 
			},
			{
				"x": 1.206593479,
				"y": 1.7270140263,
				"z": -5.1553111145,
				"element": "H" 
			},
			{
				"x": 1.4685895259,
				"y": 3.2653632836,
				"z": -4.2862708558,
				"element": "H" 
			},
			{
				"x": -0.094106321,
				"y": 2.9420572382,
				"z": -5.0060751826,
				"element": "H" 
			},
			{
				"x": 0.5347068729,
				"y": -2.0469529117,
				"z": -2.0030413986,
				"element": "H" 
			},
			{
				"x": -2.1456179266,
				"y": -1.9707383362,
				"z": 3.7824981541,
				"element": "H" 
			},
			{
				"x": -0.8426274612,
				"y": -3.1833876564,
				"z": 3.6348308942,
				"element": "H" 
			},
			{
				"x": -2.4043095991,
				"y": -3.5103135585,
				"z": 2.9144601196,
				"element": "H" 
			},
			{
				"x": -0.0018731908,
				"y": -6.2218469507,
				"z": -0.4839136744,
				"element": "H" 
			},
			{
				"x": 0.7393649994,
				"y": -5.6173873075,
				"z": -1.9894136167,
				"element": "H" 
			},
			{
				"x": 2.8627411948,
				"y": -5.1171210272,
				"z": -0.7112449512,
				"element": "H" 
			},
			{
				"x": 2.1085147788,
				"y": -5.7681428108,
				"z": 0.7630831508,
				"element": "H" 
			},
			{
				"x": 2.4427502035,
				"y": -6.8383379611,
				"z": -0.6107833895,
				"element": "H" 
			},
			{
				"x": -1.4731902587,
				"y": 1.8033400351,
				"z": 0.6304835779,
				"element": "H" 
			}
		],
		 "valence_orbital": [ 
			{
				"type": "occ",
				"energy": -0.27152,
				"method": "rhf"
			},
			{
				"type": "occ",
				"energy": -0.27119,
				"method": "rhf"
			},
			{
				"type": "occ",
				"energy": -0.26393,
				"method": "rhf"
			},
			{
				"type": "occ",
				"energy": -0.23465,
				"method": "rhf"
			},
			{
				"type": "occ",
				"energy": -0.20719,
				"method": "rhf"
			},
			{
				"type": "unocc",
				"energy": -0.04238,
				"method": "rhf"
			},
			{
				"type": "unocc",
				"energy": -0.0244,
				"method": "rhf"
			},
			{
				"type": "unocc",
				"energy": -0.00397,
				"method": "rhf"
			},
			{
				"type": "unocc",
				"energy": 0.01993,
				"method": "rhf"
			},
			{
				"type": "unocc",
				"energy": 0.08926,
				"method": "rhf"
			}
		],
		"cosmo_sigma_profile": { 
			"-0.025": 0.0,
			"-0.024": 0.0,
			"-0.023": 0.0,
			"-0.022": 0.0,
			"-0.021": 0.0,
			"-0.02": 0.0,
			"-0.019": 0.0,
			"-0.018": 0.0,
			"-0.017": 0.0,
			"-0.016": 0.0,
			"-0.015": 0.0,
			"-0.014": 0.0,
			"-0.013": 0.0,
			"-0.012": 0.0,
			"-0.011": 0.0,
			"-0.01": 0.0,
			"-0.009": 0.0,
			"-0.008": 0.0,
			"-0.007": 0.33379727905,
			"-0.006": 9.59152658682,
			"-0.005": 20.9702860106,
			"-0.004": 32.1347615524,
			"-0.003": 37.6381321354,
			"-0.002": 46.5844067946,
			"-0.001": 43.6365685317,
			"0.0": 39.1029947535,
			"0.001": 33.60281735,
			"0.002": 30.28516825,
			"0.003": 24.4139372192,
			"0.004": 10.7012173724,
			"0.005": 8.48579221595,
			"0.006": 6.14377073078,
			"0.007": 6.26946882376,
			"0.008": 2.38182838808,
			"0.009": 3.89809484076,
			"0.01": 2.85484519368,
			"0.011": 4.01659949449,
			"0.012": 5.8833159422,
			"0.013": 1.22509220877,
			"0.014": 0.0,
			"0.015": 0.0,
			"0.016": 0.0,
			"0.017": 0.0,
			"0.018": 0.0,
			"0.019": 0.0,
			"0.02": 0.0,
			"0.021": 0.0,
			"0.022": 0.0,
			"0.023": 0.0,
			"0.024": 0.0,
			"0.025": 0.0
		}
	}
}
