{
	 "smiles": "CC(C)CC(=O)NCCC1=CC=C(S1)S(Cl)(=O)=O", 
	 "Tm": 353.15, 
	 "num_atms": 34, 
	 "gaussian": { 
		 "optdone": 1, 
		 "sigma_profile": "yes", 
		 "theory": "DFT", 
		 "functional": "B3LYP", 
		 "basiset": "6-31G**", 
		 "properties": { 
			 "R2extent": 11003.5699, 
			 "electric_dipole_moment_norm": 3.94108648091, 
			 "electric_quadrupole_moment_norm": 41.6435680676, 
			 "total_energy": -1965.75159718, 
			 "HOMO_LUMO_gap": 0.16035, 
			 "cosmo_polarized_energy": -18.1, 
			 "cosmo_cavitation_energy": 42.81, 
			 "cosmo_dispersion_energy": -29.25, 
			 "cosmo_repulsion_energy": 2.22, 
			 "cosmo_total_nonelectrostatic_energy": 15.79, 
			 "SMD_solvation_energy": 5.36 
		},
		"coords": [
			{
				"x": -0.6399871166,
				"y": -2.4361433151,
				"z": -3.5976441298,
				"element": "C" 
			},
			{
				"x": -0.2286451858,
				"y": -2.0735121046,
				"z": -2.1634451897,
				"element": "C" 
			},
			{
				"x": 1.1660144257,
				"y": -2.6240267683,
				"z": -1.8338101668,
				"element": "C" 
			},
			{
				"x": -1.3025659232,
				"y": -2.5713795606,
				"z": -1.160941885,
				"element": "C" 
			},
			{
				"x": -1.0992179616,
				"y": -2.0319881286,
				"z": 0.2480401511,
				"element": "C" 
			},
			{
				"x": -0.2517963238,
				"y": -2.4730031652,
				"z": 1.0208586137,
				"element": "O" 
			},
			{
				"x": -1.912925446,
				"y": -0.9883638241,
				"z": 0.6040552173,
				"element": "N" 
			},
			{
				"x": -1.7883734289,
				"y": -0.3440074845,
				"z": 1.8995689716,
				"element": "C" 
			},
			{
				"x": -0.5608564019,
				"y": 0.5926148224,
				"z": 2.016382429,
				"element": "C" 
			},
			{
				"x": -0.5488575944,
				"y": 1.7206181837,
				"z": 1.0270641758,
				"element": "C" 
			},
			{
				"x": 0.2095634877,
				"y": 1.8297518928,
				"z": -0.1176141231,
				"element": "C" 
			},
			{
				"x": -0.0598967697,
				"y": 3.0015045352,
				"z": -0.8712398131,
				"element": "C" 
			},
			{
				"x": -1.0406500786,
				"y": 3.7656665971,
				"z": -0.2878532051,
				"element": "C" 
			},
			{
				"x": -1.6341227188,
				"y": 3.0768041364,
				"z": 1.1963306291,
				"element": "S" 
			},
			{
				"x": -1.6363004415,
				"y": 5.2894242561,
				"z": -0.9144810185,
				"element": "S" 
			},
			{
				"x": -0.3971601373,
				"y": 6.7145096195,
				"z": 0.0785291889,
				"element": "Cl" 
			},
			{
				"x": -1.2922709786,
				"y": 5.3798327347,
				"z": -2.3271073993,
				"element": "O" 
			},
			{
				"x": -2.9839805495,
				"y": 5.5185299475,
				"z": -0.4100317313,
				"element": "O" 
			},
			{
				"x": -1.6071335403,
				"y": -1.9968233811,
				"z": -3.8658563547,
				"element": "H" 
			},
			{
				"x": 0.102412869,
				"y": -2.0792187217,
				"z": -4.31916291,
				"element": "H" 
			},
			{
				"x": -0.7211993183,
				"y": -3.5232284069,
				"z": -3.7163348316,
				"element": "H" 
			},
			{
				"x": -0.1944489144,
				"y": -0.9758522556,
				"z": -2.0901238543,
				"element": "H" 
			},
			{
				"x": 1.9180602677,
				"y": -2.1977214003,
				"z": -2.50664632,
				"element": "H" 
			},
			{
				"x": 1.1872666464,
				"y": -3.7133333174,
				"z": -1.9584974799,
				"element": "H" 
			},
			{
				"x": 1.4518230138,
				"y": -2.4084322212,
				"z": -0.8019401353,
				"element": "H" 
			},
			{
				"x": -1.2610104696,
				"y": -3.6643473395,
				"z": -1.0991360746,
				"element": "H" 
			},
			{
				"x": -2.2990074802,
				"y": -2.3012451977,
				"z": -1.5318116794,
				"element": "H" 
			},
			{
				"x": -2.5517827253,
				"y": -0.6041814482,
				"z": -0.0746502986,
				"element": "H" 
			},
			{
				"x": -2.7124359057,
				"y": 0.2078913362,
				"z": 2.0955585038,
				"element": "H" 
			},
			{
				"x": -1.6873847097,
				"y": -1.123796646,
				"z": 2.6596954419,
				"element": "H" 
			},
			{
				"x": 0.3360390068,
				"y": -0.0139758039,
				"z": 1.8637674376,
				"element": "H" 
			},
			{
				"x": -0.5217196436,
				"y": 0.9793322175,
				"z": 3.0418219617,
				"element": "H" 
			},
			{
				"x": 0.9427635576,
				"y": 1.0840868514,
				"z": -0.4032657192,
				"element": "H" 
			},
			{
				"x": 0.4313864889,
				"y": 3.27671336,
				"z": -1.7964784022,
				"element": "H" 
			}
		],
		 "valence_orbital": [ 
			{
				"type": "occ",
				"energy": -0.31365,
				"method": "rhf"
			},
			{
				"type": "occ",
				"energy": -0.28952,
				"method": "rhf"
			},
			{
				"type": "occ",
				"energy": -0.27406,
				"method": "rhf"
			},
			{
				"type": "occ",
				"energy": -0.26429,
				"method": "rhf"
			},
			{
				"type": "occ",
				"energy": -0.25569,
				"method": "rhf"
			},
			{
				"type": "unocc",
				"energy": -0.09534,
				"method": "rhf"
			},
			{
				"type": "unocc",
				"energy": -0.05103,
				"method": "rhf"
			},
			{
				"type": "unocc",
				"energy": -0.00941,
				"method": "rhf"
			},
			{
				"type": "unocc",
				"energy": 0.01233,
				"method": "rhf"
			},
			{
				"type": "unocc",
				"energy": 0.01897,
				"method": "rhf"
			}
		],
		"cosmo_sigma_profile": { 
			"-0.025": 0.0,
			"-0.024": 0.0,
			"-0.023": 0.0,
			"-0.022": 0.0,
			"-0.021": 0.0,
			"-0.02": 0.0,
			"-0.019": 0.0,
			"-0.018": 0.0,
			"-0.017": 0.0,
			"-0.016": 0.0,
			"-0.015": 0.0,
			"-0.014": 0.776751777278,
			"-0.013": 1.27088321881,
			"-0.012": 1.54424131947,
			"-0.011": 0.82888838175,
			"-0.01": 1.75115893346,
			"-0.009": 2.8959150864,
			"-0.008": 3.94664877472,
			"-0.007": 8.29514003784,
			"-0.006": 13.0101879053,
			"-0.005": 15.3827761961,
			"-0.004": 18.1159689737,
			"-0.003": 24.7425094378,
			"-0.002": 37.0924852627,
			"-0.001": 36.4569983592,
			"0.0": 38.1674195749,
			"0.001": 35.1499996029,
			"0.002": 24.0378136695,
			"0.003": 18.4603371434,
			"0.004": 11.8777935939,
			"0.005": 5.86987746059,
			"0.006": 5.14805817572,
			"0.007": 7.16950235328,
			"0.008": 12.0321458511,
			"0.009": 6.16302912375,
			"0.01": 1.54539844432,
			"0.011": 1.33881082002,
			"0.012": 1.59537336582,
			"0.013": 2.05873063111,
			"0.014": 3.80464804531,
			"0.015": 1.38105174613,
			"0.016": 0.0413815017132,
			"0.017": 0.0,
			"0.018": 0.0,
			"0.019": 0.0,
			"0.02": 0.0,
			"0.021": 0.0,
			"0.022": 0.0,
			"0.023": 0.0,
			"0.024": 0.0,
			"0.025": 0.0
		}
	}
}
