{
	 "smiles": "CCOS(=O)(=O)OCC", 
	 "Tm": 248.65, 
	 "num_atms": 19, 
	 "gaussian": { 
		 "optdone": 1, 
		 "sigma_profile": "yes", 
		 "theory": "DFT", 
		 "functional": "B3LYP", 
		 "basiset": "6-31G**", 
		 "properties": { 
			 "R2extent": 1935.7339, 
			 "electric_dipole_moment_norm": 4.314015904, 
			 "electric_quadrupole_moment_norm": 11.0989810906, 
			 "total_energy": -857.462919162, 
			 "HOMO_LUMO_gap": 0.3379, 
			 "cosmo_polarized_energy": -10.04, 
			 "cosmo_cavitation_energy": 23.7, 
			 "cosmo_dispersion_energy": -17.88, 
			 "cosmo_repulsion_energy": 1.46, 
			 "cosmo_total_nonelectrostatic_energy": 7.28, 
			 "SMD_solvation_energy": 3.41 
		},
		"coords": [
			{
				"x": -1.1797690115,
				"y": 0.248499184,
				"z": 2.7778362114,
				"element": "C" 
			},
			{
				"x": -0.6401216551,
				"y": 0.5994855537,
				"z": 1.4055657648,
				"element": "C" 
			},
			{
				"x": 0.7452489968,
				"y": 0.1366088692,
				"z": 1.3676544094,
				"element": "O" 
			},
			{
				"x": 1.5774012571,
				"y": 0.4284982119,
				"z": 0.0053871505,
				"element": "S" 
			},
			{
				"x": 1.2406701131,
				"y": 1.7394189671,
				"z": -0.5132400579,
				"element": "O" 
			},
			{
				"x": 2.9356855102,
				"y": 0.0216986893,
				"z": 0.3096284571,
				"element": "O" 
			},
			{
				"x": 0.8911551776,
				"y": -0.6188028941,
				"z": -1.0253578742,
				"element": "O" 
			},
			{
				"x": 1.2692221103,
				"y": -2.029545331,
				"z": -0.9079604492,
				"element": "C" 
			},
			{
				"x": 2.4006763966,
				"y": -2.3669726908,
				"z": -1.8607319595,
				"element": "C" 
			},
			{
				"x": -2.2191524628,
				"y": 0.5824697043,
				"z": 2.8559174642,
				"element": "H" 
			},
			{
				"x": -0.5979780537,
				"y": 0.7412296816,
				"z": 3.5611833275,
				"element": "H" 
			},
			{
				"x": -1.149679357,
				"y": -0.8311131693,
				"z": 2.9480188923,
				"element": "H" 
			},
			{
				"x": -1.1971732143,
				"y": 0.0983697572,
				"z": 0.6071258877,
				"element": "H" 
			},
			{
				"x": -0.6494943063,
				"y": 1.6766146091,
				"z": 1.2214451658,
				"element": "H" 
			},
			{
				"x": 0.3502607881,
				"y": -2.5644966796,
				"z": -1.1600406843,
				"element": "H" 
			},
			{
				"x": 1.5279196334,
				"y": -2.2507941334,
				"z": 0.1308040242,
				"element": "H" 
			},
			{
				"x": 2.6097442131,
				"y": -3.4412158184,
				"z": -1.8150780658,
				"element": "H" 
			},
			{
				"x": 3.3079205615,
				"y": -1.8239905146,
				"z": -1.5880143587,
				"element": "H" 
			},
			{
				"x": 2.1278633031,
				"y": -2.1122619964,
				"z": -2.8885433052,
				"element": "H" 
			}
		],
		 "valence_orbital": [ 
			{
				"type": "occ",
				"energy": -0.34044,
				"method": "rhf"
			},
			{
				"type": "occ",
				"energy": -0.33855,
				"method": "rhf"
			},
			{
				"type": "occ",
				"energy": -0.32374,
				"method": "rhf"
			},
			{
				"type": "occ",
				"energy": -0.31744,
				"method": "rhf"
			},
			{
				"type": "occ",
				"energy": -0.3068,
				"method": "rhf"
			},
			{
				"type": "unocc",
				"energy": 0.0311,
				"method": "rhf"
			},
			{
				"type": "unocc",
				"energy": 0.06966,
				"method": "rhf"
			},
			{
				"type": "unocc",
				"energy": 0.09224,
				"method": "rhf"
			},
			{
				"type": "unocc",
				"energy": 0.0966,
				"method": "rhf"
			},
			{
				"type": "unocc",
				"energy": 0.09831,
				"method": "rhf"
			}
		],
		"cosmo_sigma_profile": { 
			"-0.025": 0.0,
			"-0.024": 0.0,
			"-0.023": 0.0,
			"-0.022": 0.0,
			"-0.021": 0.0,
			"-0.02": 0.0,
			"-0.019": 0.0,
			"-0.018": 0.0,
			"-0.017": 0.0,
			"-0.016": 0.0,
			"-0.015": 0.0,
			"-0.014": 0.0,
			"-0.013": 0.0,
			"-0.012": 0.0,
			"-0.011": 0.0,
			"-0.01": 0.0,
			"-0.009": 0.0,
			"-0.008": 0.0271134036412,
			"-0.007": 3.39696094422,
			"-0.006": 8.99018939147,
			"-0.005": 19.3307104003,
			"-0.004": 21.0874656937,
			"-0.003": 18.5265057289,
			"-0.002": 18.1937930388,
			"-0.001": 20.4983842635,
			"0.0": 13.7029494046,
			"0.001": 6.43089813633,
			"0.002": 5.38558333105,
			"0.003": 4.10304833469,
			"0.004": 4.84356454064,
			"0.005": 5.03668795699,
			"0.006": 5.67616711284,
			"0.007": 5.70517415716,
			"0.008": 8.773299768,
			"0.009": 11.8029212958,
			"0.01": 4.70248629353,
			"0.011": 0.0,
			"0.012": 0.0,
			"0.013": 0.0,
			"0.014": 0.0,
			"0.015": 0.0,
			"0.016": 0.0,
			"0.017": 0.0,
			"0.018": 0.0,
			"0.019": 0.0,
			"0.02": 0.0,
			"0.021": 0.0,
			"0.022": 0.0,
			"0.023": 0.0,
			"0.024": 0.0,
			"0.025": 0.0
		}
	}
}
