{
	 "smiles": "C(CC1=CC=CC=C1)NC1=NC(=CS1)C1=CC=CC=C1", 
	 "Tm": 389.15, 
	 "num_atms": 36, 
	 "gaussian": { 
		 "optdone": 1, 
		 "sigma_profile": "yes", 
		 "theory": "DFT", 
		 "functional": "B3LYP", 
		 "basiset": "6-31G**", 
		 "properties": { 
			 "R2extent": 9666.3992, 
			 "electric_dipole_moment_norm": 2.37485465871, 
			 "electric_quadrupole_moment_norm": 8.8315603627, 
			 "total_energy": -1165.15154952, 
			 "HOMO_LUMO_gap": 0.16819, 
			 "cosmo_polarized_energy": -11.06, 
			 "cosmo_cavitation_energy": 41.52, 
			 "cosmo_dispersion_energy": -30.04, 
			 "cosmo_repulsion_energy": 2.26, 
			 "cosmo_total_nonelectrostatic_energy": 13.74, 
			 "SMD_solvation_energy": 4.6 
		},
		"coords": [
			{
				"x": -1.4640045702,
				"y": -0.595817383,
				"z": 0.2445675414,
				"element": "C" 
			},
			{
				"x": -2.8207646368,
				"y": -1.0130546254,
				"z": -0.348554571,
				"element": "C" 
			},
			{
				"x": -3.5556413487,
				"y": 0.1246070788,
				"z": -1.0289323356,
				"element": "C" 
			},
			{
				"x": -4.2473332221,
				"y": 1.0843968927,
				"z": -0.2740599809,
				"element": "C" 
			},
			{
				"x": -4.8942222981,
				"y": 2.153004008,
				"z": -0.8935879386,
				"element": "C" 
			},
			{
				"x": -4.8601237508,
				"y": 2.2838840699,
				"z": -2.2843891778,
				"element": "C" 
			},
			{
				"x": -4.1776776174,
				"y": 1.3371785983,
				"z": -3.0482566442,
				"element": "C" 
			},
			{
				"x": -3.5321282381,
				"y": 0.2664062974,
				"z": -2.4239509231,
				"element": "C" 
			},
			{
				"x": -0.5754801434,
				"y": -0.0997692788,
				"z": -0.8014335891,
				"element": "N" 
			},
			{
				"x": 0.7510956615,
				"y": 0.0970501705,
				"z": -0.5287761833,
				"element": "C" 
			},
			{
				"x": 1.3623119836,
				"y": -0.3315237352,
				"z": 0.5368006328,
				"element": "N" 
			},
			{
				"x": 2.7206082461,
				"y": -0.0399708364,
				"z": 0.4983332741,
				"element": "C" 
			},
			{
				"x": 3.1376013886,
				"y": 0.6349876523,
				"z": -0.616550142,
				"element": "C" 
			},
			{
				"x": 1.8010468932,
				"y": 0.921183427,
				"z": -1.7016747008,
				"element": "S" 
			},
			{
				"x": 3.5668186906,
				"y": -0.4550433482,
				"z": 1.6346899748,
				"element": "C" 
			},
			{
				"x": 2.9749874722,
				"y": -1.0379855694,
				"z": 2.7675526548,
				"element": "C" 
			},
			{
				"x": 3.7534936909,
				"y": -1.4320043271,
				"z": 3.8547525706,
				"element": "C" 
			},
			{
				"x": 5.1375569512,
				"y": -1.253747079,
				"z": 3.83393556,
				"element": "C" 
			},
			{
				"x": 5.7377040418,
				"y": -0.6783414201,
				"z": 2.7106615653,
				"element": "C" 
			},
			{
				"x": 4.9622446673,
				"y": -0.2850947652,
				"z": 1.6231768554,
				"element": "C" 
			},
			{
				"x": -1.6114480921,
				"y": 0.1587893236,
				"z": 1.0323690698,
				"element": "H" 
			},
			{
				"x": -0.9765929988,
				"y": -1.4541332724,
				"z": 0.7130193841,
				"element": "H" 
			},
			{
				"x": -3.4300419636,
				"y": -1.4133319655,
				"z": 0.4700470758,
				"element": "H" 
			},
			{
				"x": -2.6583120093,
				"y": -1.8300298711,
				"z": -1.0596757439,
				"element": "H" 
			},
			{
				"x": -4.2829467866,
				"y": 0.9881260881,
				"z": 0.808695354,
				"element": "H" 
			},
			{
				"x": -5.4287286387,
				"y": 2.8825346448,
				"z": -0.2916338717,
				"element": "H" 
			},
			{
				"x": -5.3658428137,
				"y": 3.1149115592,
				"z": -2.7673078056,
				"element": "H" 
			},
			{
				"x": -4.150609832,
				"y": 1.4261016187,
				"z": -4.13065615,
				"element": "H" 
			},
			{
				"x": -3.0133941445,
				"y": -0.4759959267,
				"z": -3.0260742718,
				"element": "H" 
			},
			{
				"x": -0.9993120505,
				"y": 0.5487827572,
				"z": -1.4522564168,
				"element": "H" 
			},
			{
				"x": 4.1227197912,
				"y": 0.9973341358,
				"z": -0.8673394257,
				"element": "H" 
			},
			{
				"x": 1.8996717511,
				"y": -1.1737555054,
				"z": 2.7769089521,
				"element": "H" 
			},
			{
				"x": 3.2757865841,
				"y": -1.8800874635,
				"z": 4.7218209287,
				"element": "H" 
			},
			{
				"x": 5.7439552937,
				"y": -1.5613804349,
				"z": 4.6810223841,
				"element": "H" 
			},
			{
				"x": 6.8147610573,
				"y": -0.5387466983,
				"z": 2.6800358241,
				"element": "H" 
			},
			{
				"x": 5.4496409914,
				"y": 0.1500351835,
				"z": 0.7558202698,
				"element": "H" 
			}
		],
		 "valence_orbital": [ 
			{
				"type": "occ",
				"energy": -0.25815,
				"method": "rhf"
			},
			{
				"type": "occ",
				"energy": -0.25157,
				"method": "rhf"
			},
			{
				"type": "occ",
				"energy": -0.2426,
				"method": "rhf"
			},
			{
				"type": "occ",
				"energy": -0.23701,
				"method": "rhf"
			},
			{
				"type": "occ",
				"energy": -0.1917,
				"method": "rhf"
			},
			{
				"type": "unocc",
				"energy": -0.02351,
				"method": "rhf"
			},
			{
				"type": "unocc",
				"energy": -0.01173,
				"method": "rhf"
			},
			{
				"type": "unocc",
				"energy": -0.00939,
				"method": "rhf"
			},
			{
				"type": "unocc",
				"energy": 0.0075,
				"method": "rhf"
			},
			{
				"type": "unocc",
				"energy": 0.01445,
				"method": "rhf"
			}
		],
		"cosmo_sigma_profile": { 
			"-0.025": 0.0,
			"-0.024": 0.0,
			"-0.023": 0.0,
			"-0.022": 0.0,
			"-0.021": 0.0,
			"-0.02": 0.0,
			"-0.019": 0.0,
			"-0.018": 0.0,
			"-0.017": 0.0,
			"-0.016": 0.0,
			"-0.015": 0.0,
			"-0.014": 0.0,
			"-0.013": 0.0,
			"-0.012": 0.656480389809,
			"-0.011": 0.969958876575,
			"-0.01": 1.03846358612,
			"-0.009": 1.99665194025,
			"-0.008": 3.24491109012,
			"-0.007": 3.82374431641,
			"-0.006": 10.1912262356,
			"-0.005": 23.507389525,
			"-0.004": 33.8150433042,
			"-0.003": 34.9256154081,
			"-0.002": 24.4464948222,
			"-0.001": 21.9780257541,
			"0.0": 19.2882767021,
			"0.001": 19.3316246362,
			"0.002": 22.7561158988,
			"0.003": 25.9756629681,
			"0.004": 32.3059373023,
			"0.005": 26.0496297711,
			"0.006": 18.2675359057,
			"0.007": 3.2196413132,
			"0.008": 2.77200141422,
			"0.009": 2.07616066792,
			"0.01": 1.23791302048,
			"0.011": 0.0577575133533,
			"0.012": 0.0,
			"0.013": 0.0,
			"0.014": 0.0,
			"0.015": 0.0,
			"0.016": 0.0,
			"0.017": 0.0,
			"0.018": 0.0,
			"0.019": 0.0,
			"0.02": 0.0,
			"0.021": 0.0,
			"0.022": 0.0,
			"0.023": 0.0,
			"0.024": 0.0,
			"0.025": 0.0
		}
	}
}
