{
	 "smiles": "CC1=CN=CC(Cl)=N1", 
	 "Tm": 323.15, 
	 "num_atms": 13, 
	 "gaussian": { 
		 "optdone": 1, 
		 "sigma_profile": "yes", 
		 "theory": "DFT", 
		 "functional": "B3LYP", 
		 "basiset": "6-31G**", 
		 "properties": { 
			 "R2extent": 1261.7251, 
			 "electric_dipole_moment_norm": 2.13219835147, 
			 "electric_quadrupole_moment_norm": 5.17763197128, 
			 "total_energy": -763.232980296, 
			 "HOMO_LUMO_gap": 0.206, 
			 "cosmo_polarized_energy": -6.15, 
			 "cosmo_cavitation_energy": 19.13, 
			 "cosmo_dispersion_energy": -14.52, 
			 "cosmo_repulsion_energy": 1.21, 
			 "cosmo_total_nonelectrostatic_energy": 5.83, 
			 "SMD_solvation_energy": 0.49 
		},
		"coords": [
			{
				"x": 0.410880333,
				"y": 1.863353225,
				"z": -1.4149696922,
				"element": "C" 
			},
			{
				"x": 0.2924142174,
				"y": 0.4606580871,
				"z": -0.8816180997,
				"element": "C" 
			},
			{
				"x": 0.3193017051,
				"y": -0.6628469888,
				"z": -1.721905988,
				"element": "C" 
			},
			{
				"x": 0.2148381007,
				"y": -1.9105882377,
				"z": -1.2574202195,
				"element": "N" 
			},
			{
				"x": 0.081003417,
				"y": -2.0586140402,
				"z": 0.0619555819,
				"element": "C" 
			},
			{
				"x": 0.054940302,
				"y": -0.9356437386,
				"z": 0.8944875034,
				"element": "C" 
			},
			{
				"x": -0.1223812282,
				"y": -1.1594611694,
				"z": 2.6293462259,
				"element": "Cl" 
			},
			{
				"x": 0.1573248884,
				"y": 0.3020156757,
				"z": 0.4459767973,
				"element": "N" 
			},
			{
				"x": 1.3563966631,
				"y": 2.0030989031,
				"z": -1.950373106,
				"element": "H" 
			},
			{
				"x": 0.3656111352,
				"y": 2.5751676862,
				"z": -0.5897315364,
				"element": "H" 
			},
			{
				"x": -0.3980476668,
				"y": 2.0870931063,
				"z": -2.1190722806,
				"element": "H" 
			},
			{
				"x": 0.4283551143,
				"y": -0.5464398442,
				"z": -2.798246169,
				"element": "H" 
			},
			{
				"x": -0.0057369812,
				"y": -3.0643926644,
				"z": 0.4621709828,
				"element": "H" 
			}
		],
		 "valence_orbital": [ 
			{
				"type": "occ",
				"energy": -0.33119,
				"method": "rhf"
			},
			{
				"type": "occ",
				"energy": -0.32383,
				"method": "rhf"
			},
			{
				"type": "occ",
				"energy": -0.31284,
				"method": "rhf"
			},
			{
				"type": "occ",
				"energy": -0.26579,
				"method": "rhf"
			},
			{
				"type": "occ",
				"energy": -0.26435,
				"method": "rhf"
			},
			{
				"type": "unocc",
				"energy": -0.05835,
				"method": "rhf"
			},
			{
				"type": "unocc",
				"energy": -0.03613,
				"method": "rhf"
			},
			{
				"type": "unocc",
				"energy": 0.02987,
				"method": "rhf"
			},
			{
				"type": "unocc",
				"energy": 0.10474,
				"method": "rhf"
			},
			{
				"type": "unocc",
				"energy": 0.10654,
				"method": "rhf"
			}
		],
		"cosmo_sigma_profile": { 
			"-0.025": 0.0,
			"-0.024": 0.0,
			"-0.023": 0.0,
			"-0.022": 0.0,
			"-0.021": 0.0,
			"-0.02": 0.0,
			"-0.019": 0.0,
			"-0.018": 0.0,
			"-0.017": 0.0,
			"-0.016": 0.0,
			"-0.015": 0.0,
			"-0.014": 0.0,
			"-0.013": 0.0,
			"-0.012": 0.0,
			"-0.011": 0.0,
			"-0.01": 0.0,
			"-0.009": 0.425184362618,
			"-0.008": 3.18684610523,
			"-0.007": 3.46280599968,
			"-0.006": 6.74087638993,
			"-0.005": 11.0511039966,
			"-0.004": 9.45519600977,
			"-0.003": 12.9741983687,
			"-0.002": 20.5130139402,
			"-0.001": 17.8274017329,
			"0.0": 9.78871596743,
			"0.001": 7.97179421864,
			"0.002": 9.7354010549,
			"0.003": 9.22443531728,
			"0.004": 11.145656454,
			"0.005": 5.48581225956,
			"0.006": 3.39590290125,
			"0.007": 2.50999044639,
			"0.008": 1.74295219546,
			"0.009": 1.4694092481,
			"0.01": 2.2114980906,
			"0.011": 2.22226941238,
			"0.012": 1.35072567908,
			"0.013": 1.01143084973,
			"0.014": 0.958432248611,
			"0.015": 0.0886219268872,
			"0.016": 0.0,
			"0.017": 0.0,
			"0.018": 0.0,
			"0.019": 0.0,
			"0.02": 0.0,
			"0.021": 0.0,
			"0.022": 0.0,
			"0.023": 0.0,
			"0.024": 0.0,
			"0.025": 0.0
		}
	}
}
