{
	 "smiles": "COC1=CC=C(C=C1)N1C(S)=NN=C1C1=CC=NC=C1", 
	 "Tm": 516.15, 
	 "num_atms": 32, 
	 "gaussian": { 
		 "optdone": 1, 
		 "sigma_profile": "yes", 
		 "theory": "DFT", 
		 "functional": "B3LYP", 
		 "basiset": "6-31G**", 
		 "properties": { 
			 "R2extent": 6616.8605, 
			 "electric_dipole_moment_norm": 6.37379668408, 
			 "electric_quadrupole_moment_norm": 13.9026820377, 
			 "total_energy": -1233.09429718, 
			 "HOMO_LUMO_gap": 0.17737, 
			 "cosmo_polarized_energy": -18.05, 
			 "cosmo_cavitation_energy": 38.6, 
			 "cosmo_dispersion_energy": -27.3, 
			 "cosmo_repulsion_energy": 2.06, 
			 "cosmo_total_nonelectrostatic_energy": 13.36, 
			 "SMD_solvation_energy": 3.75 
		},
		"coords": [
			{
				"x": -2.0420800571,
				"y": -0.9714302482,
				"z": -5.1989640145,
				"element": "C" 
			},
			{
				"x": -2.1299025458,
				"y": -1.7449412624,
				"z": -4.008920181,
				"element": "O" 
			},
			{
				"x": -1.6695046145,
				"y": -1.2078423825,
				"z": -2.8497336585,
				"element": "C" 
			},
			{
				"x": -1.1033183508,
				"y": 0.0694931114,
				"z": -2.7325813199,
				"element": "C" 
			},
			{
				"x": -0.6651727085,
				"y": 0.5201098082,
				"z": -1.4870451783,
				"element": "C" 
			},
			{
				"x": -0.7761569662,
				"y": -0.2975363428,
				"z": -0.3629779416,
				"element": "C" 
			},
			{
				"x": -1.3431830649,
				"y": -1.5741672337,
				"z": -0.4780461635,
				"element": "C" 
			},
			{
				"x": -1.7886563096,
				"y": -2.0247480441,
				"z": -1.7125700033,
				"element": "C" 
			},
			{
				"x": -0.3238247629,
				"y": 0.1726218198,
				"z": 0.9139958834,
				"element": "N" 
			},
			{
				"x": -1.1251998432,
				"y": 0.6479174855,
				"z": 1.9251915972,
				"element": "C" 
			},
			{
				"x": -2.8871496321,
				"y": 0.6458249918,
				"z": 1.8208925244,
				"element": "S" 
			},
			{
				"x": -0.4091217935,
				"y": 1.0977756056,
				"z": 2.9306880376,
				"element": "N" 
			},
			{
				"x": 0.9088534141,
				"y": 0.9283085062,
				"z": 2.587704649,
				"element": "N" 
			},
			{
				"x": 0.9674882892,
				"y": 0.3803186488,
				"z": 1.3909671861,
				"element": "C" 
			},
			{
				"x": 2.23008417,
				"y": 0.0529628507,
				"z": 0.7171817456,
				"element": "C" 
			},
			{
				"x": 3.3999918115,
				"y": 0.6987787256,
				"z": 1.1511320269,
				"element": "C" 
			},
			{
				"x": 4.6104279157,
				"y": 0.3831961115,
				"z": 0.5428578013,
				"element": "C" 
			},
			{
				"x": 4.7425323352,
				"y": -0.5086402892,
				"z": -0.450579329,
				"element": "N" 
			},
			{
				"x": 3.6255459141,
				"y": -1.1250491255,
				"z": -0.8518953202,
				"element": "C" 
			},
			{
				"x": 2.3603653754,
				"y": -0.8906728219,
				"z": -0.3121334195,
				"element": "C" 
			},
			{
				"x": -2.4632776912,
				"y": -1.5921674011,
				"z": -5.9904371918,
				"element": "H" 
			},
			{
				"x": -1.0010360455,
				"y": -0.7283039781,
				"z": -5.4451565414,
				"element": "H" 
			},
			{
				"x": -2.621945966,
				"y": -0.0436104081,
				"z": -5.1195020601,
				"element": "H" 
			},
			{
				"x": -1.0042021112,
				"y": 0.7181570605,
				"z": -3.5940634731,
				"element": "H" 
			},
			{
				"x": -0.2315097666,
				"y": 1.5100091528,
				"z": -1.3887891204,
				"element": "H" 
			},
			{
				"x": -1.4272909587,
				"y": -2.2058149203,
				"z": 0.4004321425,
				"element": "H" 
			},
			{
				"x": -2.2312116773,
				"y": -3.0084442441,
				"z": -1.8253551828,
				"element": "H" 
			},
			{
				"x": -3.0117810853,
				"y": 1.2356783212,
				"z": 3.0254085566,
				"element": "H" 
			},
			{
				"x": 3.3466514054,
				"y": 1.427088309,
				"z": 1.9519374942,
				"element": "H" 
			},
			{
				"x": 5.5247555537,
				"y": 0.8764509186,
				"z": 0.8677813043,
				"element": "H" 
			},
			{
				"x": 3.7414637052,
				"y": -1.8550775212,
				"z": -1.6514560107,
				"element": "H" 
			},
			{
				"x": 1.5095660616,
				"y": -1.446645204,
				"z": -0.6850648398,
				"element": "H" 
			}
		],
		 "valence_orbital": [ 
			{
				"type": "occ",
				"energy": -0.26731,
				"method": "rhf"
			},
			{
				"type": "occ",
				"energy": -0.26185,
				"method": "rhf"
			},
			{
				"type": "occ",
				"energy": -0.25329,
				"method": "rhf"
			},
			{
				"type": "occ",
				"energy": -0.24039,
				"method": "rhf"
			},
			{
				"type": "occ",
				"energy": -0.2265,
				"method": "rhf"
			},
			{
				"type": "unocc",
				"energy": -0.04913,
				"method": "rhf"
			},
			{
				"type": "unocc",
				"energy": -0.03305,
				"method": "rhf"
			},
			{
				"type": "unocc",
				"energy": -0.02295,
				"method": "rhf"
			},
			{
				"type": "unocc",
				"energy": -0.00933,
				"method": "rhf"
			},
			{
				"type": "unocc",
				"energy": 0.00965,
				"method": "rhf"
			}
		],
		"cosmo_sigma_profile": { 
			"-0.025": 0.0,
			"-0.024": 0.0,
			"-0.023": 0.0,
			"-0.022": 0.0,
			"-0.021": 0.0,
			"-0.02": 0.0,
			"-0.019": 0.0,
			"-0.018": 0.0,
			"-0.017": 0.0,
			"-0.016": 0.0,
			"-0.015": 0.0,
			"-0.014": 0.0,
			"-0.013": 0.145245340823,
			"-0.012": 1.45403440752,
			"-0.011": 1.51578582837,
			"-0.01": 1.03506370137,
			"-0.009": 1.39550129098,
			"-0.008": 2.58030997012,
			"-0.007": 12.5862908907,
			"-0.006": 25.266402971,
			"-0.005": 26.0377282378,
			"-0.004": 24.0104293012,
			"-0.003": 22.2442626664,
			"-0.002": 16.7654863454,
			"-0.001": 18.5303066757,
			"0.0": 18.6956060253,
			"0.001": 28.9004582378,
			"0.002": 33.9621971906,
			"0.003": 16.6666016793,
			"0.004": 10.1694319641,
			"0.005": 8.31106440044,
			"0.006": 5.8878328284,
			"0.007": 4.87231662316,
			"0.008": 4.41389705512,
			"0.009": 4.79606424983,
			"0.01": 3.44749199121,
			"0.011": 3.71299022382,
			"0.012": 3.98697934968,
			"0.013": 4.36341785897,
			"0.014": 2.92797567016,
			"0.015": 2.71992446282,
			"0.016": 1.26767325824,
			"0.017": 0.134904065623,
			"0.018": 0.0,
			"0.019": 0.0,
			"0.02": 0.0,
			"0.021": 0.0,
			"0.022": 0.0,
			"0.023": 0.0,
			"0.024": 0.0,
			"0.025": 0.0
		}
	}
}
