{
	 "smiles": "CCC1=C(C=CC=C1)N1C=C(O)C(=N1)C(O)=O", 
	 "Tm": 375.15, 
	 "num_atms": 29, 
	 "gaussian": { 
		 "optdone": 1, 
		 "sigma_profile": "yes", 
		 "theory": "DFT", 
		 "functional": "B3LYP", 
		 "basiset": "6-31G**", 
		 "properties": { 
			 "R2extent": 4818.154, 
			 "electric_dipole_moment_norm": 5.66443353743, 
			 "electric_quadrupole_moment_norm": 11.6153590995, 
			 "total_energy": -799.681119115, 
			 "HOMO_LUMO_gap": 0.17951, 
			 "cosmo_polarized_energy": -12.43, 
			 "cosmo_cavitation_energy": 33.15, 
			 "cosmo_dispersion_energy": -23.89, 
			 "cosmo_repulsion_energy": 1.86, 
			 "cosmo_total_nonelectrostatic_energy": 11.12, 
			 "SMD_solvation_energy": 7.07 
		},
		"coords": [
			{
				"x": -3.2070560105,
				"y": -1.4431684927,
				"z": -1.0414871318,
				"element": "C" 
			},
			{
				"x": -1.9471877347,
				"y": -0.7086638935,
				"z": -0.5743853006,
				"element": "C" 
			},
			{
				"x": -1.9646171856,
				"y": 0.8022658113,
				"z": -0.7310925445,
				"element": "C" 
			},
			{
				"x": -1.0036630888,
				"y": 1.6146590443,
				"z": -0.0954519903,
				"element": "C" 
			},
			{
				"x": -1.0293247155,
				"y": 3.0071578862,
				"z": -0.1997067037,
				"element": "C" 
			},
			{
				"x": -2.021552979,
				"y": 3.6325040003,
				"z": -0.9520579741,
				"element": "C" 
			},
			{
				"x": -2.974665351,
				"y": 2.8528488629,
				"z": -1.6035392659,
				"element": "C" 
			},
			{
				"x": -2.939557578,
				"y": 1.4616133708,
				"z": -1.4904957002,
				"element": "C" 
			},
			{
				"x": 0.0272905122,
				"y": 1.0328347115,
				"z": 0.7107350265,
				"element": "N" 
			},
			{
				"x": 0.3148952722,
				"y": 1.3690045572,
				"z": 2.0167501653,
				"element": "C" 
			},
			{
				"x": 1.4197253185,
				"y": 0.6177164774,
				"z": 2.3740572423,
				"element": "C" 
			},
			{
				"x": 2.0695109749,
				"y": 0.584190713,
				"z": 3.5503571435,
				"element": "O" 
			},
			{
				"x": 1.7260157338,
				"y": -0.1358283669,
				"z": 1.2144166574,
				"element": "C" 
			},
			{
				"x": 0.8777923758,
				"y": 0.1271573554,
				"z": 0.2091635664,
				"element": "N" 
			},
			{
				"x": 2.8364641075,
				"y": -1.0810357683,
				"z": 1.1143517704,
				"element": "C" 
			},
			{
				"x": 3.0018499263,
				"y": -1.7018466354,
				"z": -0.0667475286,
				"element": "O" 
			},
			{
				"x": 3.5787915418,
				"y": -1.2928035172,
				"z": 2.062702299,
				"element": "O" 
			},
			{
				"x": -3.3660876659,
				"y": -1.3424527263,
				"z": -2.1200039412,
				"element": "H" 
			},
			{
				"x": -3.1141246174,
				"y": -2.5115721828,
				"z": -0.8259395418,
				"element": "H" 
			},
			{
				"x": -4.1043117147,
				"y": -1.0766513709,
				"z": -0.5318619338,
				"element": "H" 
			},
			{
				"x": -1.0752497521,
				"y": -1.1071939531,
				"z": -1.104934337,
				"element": "H" 
			},
			{
				"x": -1.7634477318,
				"y": -0.9422355452,
				"z": 0.4815579358,
				"element": "H" 
			},
			{
				"x": -0.2600131231,
				"y": 3.5886019865,
				"z": 0.2984170278,
				"element": "H" 
			},
			{
				"x": -2.0392337165,
				"y": 4.7146853201,
				"z": -1.0342808845,
				"element": "H" 
			},
			{
				"x": -3.7513337034,
				"y": 3.3235242631,
				"z": -2.1990725292,
				"element": "H" 
			},
			{
				"x": -3.7002901397,
				"y": 0.8763214235,
				"z": -1.9947836193,
				"element": "H" 
			},
			{
				"x": -0.2874140335,
				"y": 2.0726865015,
				"z": 2.5679784121,
				"element": "H" 
			},
			{
				"x": 2.7932100543,
				"y": -0.0654621759,
				"z": 3.4320099099,
				"element": "H" 
			},
			{
				"x": 2.314685024,
				"y": -1.3789576564,
				"z": -0.6755562298,
				"element": "H" 
			}
		],
		 "valence_orbital": [ 
			{
				"type": "occ",
				"energy": -0.28819,
				"method": "rhf"
			},
			{
				"type": "occ",
				"energy": -0.2825,
				"method": "rhf"
			},
			{
				"type": "occ",
				"energy": -0.26465,
				"method": "rhf"
			},
			{
				"type": "occ",
				"energy": -0.25698,
				"method": "rhf"
			},
			{
				"type": "occ",
				"energy": -0.22826,
				"method": "rhf"
			},
			{
				"type": "unocc",
				"energy": -0.04875,
				"method": "rhf"
			},
			{
				"type": "unocc",
				"energy": -0.0177,
				"method": "rhf"
			},
			{
				"type": "unocc",
				"energy": -0.01658,
				"method": "rhf"
			},
			{
				"type": "unocc",
				"energy": 0.02802,
				"method": "rhf"
			},
			{
				"type": "unocc",
				"energy": 0.07758,
				"method": "rhf"
			}
		],
		"cosmo_sigma_profile": { 
			"-0.025": 0.0,
			"-0.024": 0.0,
			"-0.023": 0.0,
			"-0.022": 0.0,
			"-0.021": 0.0,
			"-0.02": 0.0,
			"-0.019": 0.0,
			"-0.018": 0.0,
			"-0.017": 0.0,
			"-0.016": 0.34774130649,
			"-0.015": 0.600011100028,
			"-0.014": 1.06196203016,
			"-0.013": 0.449642691318,
			"-0.012": 0.654810497732,
			"-0.011": 0.376503529323,
			"-0.01": 1.49418547181,
			"-0.009": 3.31208503081,
			"-0.008": 3.23073790752,
			"-0.007": 5.30078225488,
			"-0.006": 10.6660076379,
			"-0.005": 13.1954656116,
			"-0.004": 18.2744884073,
			"-0.003": 23.7888789187,
			"-0.002": 22.8984892609,
			"-0.001": 25.9518483838,
			"0.0": 23.6050062529,
			"0.001": 20.9222024558,
			"0.002": 15.1078109708,
			"0.003": 15.4644906812,
			"0.004": 15.4059448131,
			"0.005": 8.79295459998,
			"0.006": 3.63259219483,
			"0.007": 5.65834615743,
			"0.008": 4.93575786766,
			"0.009": 6.24964025229,
			"0.01": 5.82114381411,
			"0.011": 4.23114957197,
			"0.012": 2.18589663622,
			"0.013": 0.714671077484,
			"0.014": 0.0,
			"0.015": 0.0,
			"0.016": 0.0,
			"0.017": 0.0,
			"0.018": 0.0,
			"0.019": 0.0,
			"0.02": 0.0,
			"0.021": 0.0,
			"0.022": 0.0,
			"0.023": 0.0,
			"0.024": 0.0,
			"0.025": 0.0
		}
	}
}
