{
	 "smiles": "FC1=C2NC(=O)CNC2=CC=C1", 
	 "Tm": 435.15, 
	 "num_atms": 19, 
	 "gaussian": { 
		 "optdone": 1, 
		 "sigma_profile": "yes", 
		 "theory": "DFT", 
		 "functional": "B3LYP", 
		 "basiset": "6-31G**", 
		 "properties": { 
			 "R2extent": 2130.7711, 
			 "electric_dipole_moment_norm": 3.67789455667, 
			 "electric_quadrupole_moment_norm": 12.200212001, 
			 "total_energy": -593.645849646, 
			 "HOMO_LUMO_gap": 0.191, 
			 "cosmo_polarized_energy": -12.36, 
			 "cosmo_cavitation_energy": 23.19, 
			 "cosmo_dispersion_energy": -17.59, 
			 "cosmo_repulsion_energy": 1.37, 
			 "cosmo_total_nonelectrostatic_energy": 6.97, 
			 "SMD_solvation_energy": 3.84 
		},
		"coords": [
			{
				"x": -0.5406082468,
				"y": 2.6765011563,
				"z": 1.8787813434,
				"element": "F" 
			},
			{
				"x": 0.1765239494,
				"y": 1.747526727,
				"z": 1.1982709001,
				"element": "C" 
			},
			{
				"x": -0.4984399004,
				"y": 0.6027726464,
				"z": 0.7874510658,
				"element": "C" 
			},
			{
				"x": -1.8534448783,
				"y": 0.402876527,
				"z": 1.0891445554,
				"element": "N" 
			},
			{
				"x": -2.6364562854,
				"y": -0.5709953469,
				"z": 0.5213030549,
				"element": "C" 
			},
			{
				"x": -3.8201405783,
				"y": -0.705842478,
				"z": 0.7807652427,
				"element": "O" 
			},
			{
				"x": -1.9207692165,
				"y": -1.4326688714,
				"z": -0.5194068202,
				"element": "C" 
			},
			{
				"x": -0.4933537958,
				"y": -1.5518423402,
				"z": -0.2397876062,
				"element": "N" 
			},
			{
				"x": 0.2084044113,
				"y": -0.3950132168,
				"z": 0.0892013868,
				"element": "C" 
			},
			{
				"x": 1.5708509008,
				"y": -0.2045336773,
				"z": -0.1758424072,
				"element": "C" 
			},
			{
				"x": 2.220419994,
				"y": 0.9523501871,
				"z": 0.2572884536,
				"element": "C" 
			},
			{
				"x": 1.5275834211,
				"y": 1.9469626305,
				"z": 0.9508420718,
				"element": "C" 
			},
			{
				"x": -2.3139206071,
				"y": 1.051992564,
				"z": 1.713750437,
				"element": "H" 
			},
			{
				"x": -2.3869444691,
				"y": -2.4193579022,
				"z": -0.4933111757,
				"element": "H" 
			},
			{
				"x": -2.1354791976,
				"y": -0.9875268936,
				"z": -1.5080500414,
				"element": "H" 
			},
			{
				"x": 0.0007100722,
				"y": -2.1843400464,
				"z": -0.8549098436,
				"element": "H" 
			},
			{
				"x": 2.1193722484,
				"y": -0.9718954477,
				"z": -0.7150247983,
				"element": "H" 
			},
			{
				"x": 3.2768813934,
				"y": 1.0829271206,
				"z": 0.046180955,
				"element": "H" 
			},
			{
				"x": 2.0063107846,
				"y": 2.8560066616,
				"z": 1.295253226,
				"element": "H" 
			}
		],
		 "valence_orbital": [ 
			{
				"type": "occ",
				"energy": -0.31423,
				"method": "rhf"
			},
			{
				"type": "occ",
				"energy": -0.30343,
				"method": "rhf"
			},
			{
				"type": "occ",
				"energy": -0.26141,
				"method": "rhf"
			},
			{
				"type": "occ",
				"energy": -0.23204,
				"method": "rhf"
			},
			{
				"type": "occ",
				"energy": -0.20513,
				"method": "rhf"
			},
			{
				"type": "unocc",
				"energy": -0.01413,
				"method": "rhf"
			},
			{
				"type": "unocc",
				"energy": 0.00323,
				"method": "rhf"
			},
			{
				"type": "unocc",
				"energy": 0.03197,
				"method": "rhf"
			},
			{
				"type": "unocc",
				"energy": 0.07101,
				"method": "rhf"
			},
			{
				"type": "unocc",
				"energy": 0.08012,
				"method": "rhf"
			}
		],
		"cosmo_sigma_profile": { 
			"-0.025": 0.0,
			"-0.024": 0.0,
			"-0.023": 0.0,
			"-0.022": 0.0,
			"-0.021": 0.0,
			"-0.02": 0.0,
			"-0.019": 0.0,
			"-0.018": 0.0,
			"-0.017": 0.0,
			"-0.016": 0.0,
			"-0.015": 0.0133773740068,
			"-0.014": 1.03301423324,
			"-0.013": 2.06426300561,
			"-0.012": 2.44737882444,
			"-0.011": 2.20616307771,
			"-0.01": 2.18105186381,
			"-0.009": 2.41741198906,
			"-0.008": 2.71160311902,
			"-0.007": 5.423469717,
			"-0.006": 12.6948489881,
			"-0.005": 12.8158596875,
			"-0.004": 12.8115660577,
			"-0.003": 9.359381843,
			"-0.002": 8.55917719487,
			"-0.001": 9.69853309511,
			"0.0": 9.90781982749,
			"0.001": 12.0981639281,
			"0.002": 13.3453805315,
			"0.003": 12.7752072206,
			"0.004": 15.8360098635,
			"0.005": 9.73303437658,
			"0.006": 5.40267769448,
			"0.007": 1.92308894315,
			"0.008": 1.41059299156,
			"0.009": 1.72624588871,
			"0.01": 1.60975675066,
			"0.011": 2.25166004753,
			"0.012": 3.36893728323,
			"0.013": 5.6561173941,
			"0.014": 1.72496584316,
			"0.015": 0.032099545452,
			"0.016": 0.0,
			"0.017": 0.0,
			"0.018": 0.0,
			"0.019": 0.0,
			"0.02": 0.0,
			"0.021": 0.0,
			"0.022": 0.0,
			"0.023": 0.0,
			"0.024": 0.0,
			"0.025": 0.0
		}
	}
}
