{
	 "smiles": "CC(C)OC1=C(C=O)C2=C(C=CC=C2)C=C1", 
	 "Tm": 339.15, 
	 "num_atms": 30, 
	 "gaussian": { 
		 "optdone": 1, 
		 "sigma_profile": "yes", 
		 "theory": "DFT", 
		 "functional": "B3LYP", 
		 "basiset": "6-31G**", 
		 "properties": { 
			 "R2extent": 4123.6563, 
			 "electric_dipole_moment_norm": 3.10699917284, 
			 "electric_quadrupole_moment_norm": 10.252444706, 
			 "total_energy": -692.371358946, 
			 "HOMO_LUMO_gap": 0.15288, 
			 "cosmo_polarized_energy": -9.12, 
			 "cosmo_cavitation_energy": 32.58, 
			 "cosmo_dispersion_energy": -23.4, 
			 "cosmo_repulsion_energy": 1.79, 
			 "cosmo_total_nonelectrostatic_energy": 10.96, 
			 "SMD_solvation_energy": 6.37 
		},
		"coords": [
			{
				"x": 1.0328639317,
				"y": -3.6497226325,
				"z": 1.5191095927,
				"element": "C" 
			},
			{
				"x": 2.0377165662,
				"y": -2.8082460584,
				"z": 0.7362853597,
				"element": "C" 
			},
			{
				"x": 3.4831144528,
				"y": -3.2077916897,
				"z": 0.9817798303,
				"element": "C" 
			},
			{
				"x": 1.9341970586,
				"y": -1.4152503055,
				"z": 1.1597209127,
				"element": "O" 
			},
			{
				"x": 0.9244226694,
				"y": -0.6492961589,
				"z": 0.6737842635,
				"element": "C" 
			},
			{
				"x": 0.8576857112,
				"y": -0.1855184878,
				"z": -0.6502519079,
				"element": "C" 
			},
			{
				"x": 1.9917081273,
				"y": -0.3545048716,
				"z": -1.5822749243,
				"element": "C" 
			},
			{
				"x": 2.9008969008,
				"y": -1.1648339599,
				"z": -1.4975460279,
				"element": "O" 
			},
			{
				"x": -0.2637983473,
				"y": 0.6360836365,
				"z": -1.0486894347,
				"element": "C" 
			},
			{
				"x": -1.2341670639,
				"y": 1.0315656095,
				"z": -0.0709490142,
				"element": "C" 
			},
			{
				"x": -2.3358319438,
				"y": 1.8419686406,
				"z": -0.4497303887,
				"element": "C" 
			},
			{
				"x": -2.4990231788,
				"y": 2.2503395346,
				"z": -1.7536925051,
				"element": "C" 
			},
			{
				"x": -1.5619835937,
				"y": 1.8449990382,
				"z": -2.7295432699,
				"element": "C" 
			},
			{
				"x": -0.4807524078,
				"y": 1.0580909893,
				"z": -2.3905526657,
				"element": "C" 
			},
			{
				"x": -1.0748400929,
				"y": 0.5940452989,
				"z": 1.2711760113,
				"element": "C" 
			},
			{
				"x": -0.0373215075,
				"y": -0.2270322752,
				"z": 1.6291031917,
				"element": "C" 
			},
			{
				"x": 0.0078247088,
				"y": -3.3064331348,
				"z": 1.3472395762,
				"element": "H" 
			},
			{
				"x": 1.0935357471,
				"y": -4.6971431018,
				"z": 1.2049408916,
				"element": "H" 
			},
			{
				"x": 1.2390854538,
				"y": -3.6001460911,
				"z": 2.5933774204,
				"element": "H" 
			},
			{
				"x": 1.8260443274,
				"y": -2.8562972247,
				"z": -0.3344192083,
				"element": "H" 
			},
			{
				"x": 3.6389338386,
				"y": -4.2541859865,
				"z": 0.7007158056,
				"element": "H" 
			},
			{
				"x": 4.1451865375,
				"y": -2.5791643407,
				"z": 0.3839425213,
				"element": "H" 
			},
			{
				"x": 3.7386002638,
				"y": -3.0925087302,
				"z": 2.0404154003,
				"element": "H" 
			},
			{
				"x": 2.0119442782,
				"y": 0.3877720686,
				"z": -2.4046227799,
				"element": "H" 
			},
			{
				"x": -3.0545625319,
				"y": 2.1286168099,
				"z": 0.3137042722,
				"element": "H" 
			},
			{
				"x": -3.3455442868,
				"y": 2.8687894116,
				"z": -2.0360234335,
				"element": "H" 
			},
			{
				"x": -1.6991466878,
				"y": 2.146661501,
				"z": -3.763985969,
				"element": "H" 
			},
			{
				"x": 0.1943446661,
				"y": 0.7406115158,
				"z": -3.1763741251,
				"element": "H" 
			},
			{
				"x": -1.8037525941,
				"y": 0.9085713166,
				"z": 2.013836906,
				"element": "H" 
			},
			{
				"x": 0.0879189973,
				"y": -0.5749403219,
				"z": 2.6487236985,
				"element": "H" 
			}
		],
		 "valence_orbital": [ 
			{
				"type": "occ",
				"energy": -0.29024,
				"method": "rhf"
			},
			{
				"type": "occ",
				"energy": -0.2761,
				"method": "rhf"
			},
			{
				"type": "occ",
				"energy": -0.2474,
				"method": "rhf"
			},
			{
				"type": "occ",
				"energy": -0.24116,
				"method": "rhf"
			},
			{
				"type": "occ",
				"energy": -0.22286,
				"method": "rhf"
			},
			{
				"type": "unocc",
				"energy": -0.06998,
				"method": "rhf"
			},
			{
				"type": "unocc",
				"energy": -0.01719,
				"method": "rhf"
			},
			{
				"type": "unocc",
				"energy": -0.01598,
				"method": "rhf"
			},
			{
				"type": "unocc",
				"energy": 0.04645,
				"method": "rhf"
			},
			{
				"type": "unocc",
				"energy": 0.0857,
				"method": "rhf"
			}
		],
		"cosmo_sigma_profile": { 
			"-0.025": 0.0,
			"-0.024": 0.0,
			"-0.023": 0.0,
			"-0.022": 0.0,
			"-0.021": 0.0,
			"-0.02": 0.0,
			"-0.019": 0.0,
			"-0.018": 0.0,
			"-0.017": 0.0,
			"-0.016": 0.0,
			"-0.015": 0.0,
			"-0.014": 0.0,
			"-0.013": 0.0,
			"-0.012": 0.0,
			"-0.011": 0.0,
			"-0.01": 0.0,
			"-0.009": 0.0792150326688,
			"-0.008": 1.47750719959,
			"-0.007": 6.30343182709,
			"-0.006": 13.2908493716,
			"-0.005": 13.4651328219,
			"-0.004": 18.658564036,
			"-0.003": 24.1180132137,
			"-0.002": 24.1378801972,
			"-0.001": 23.7996542599,
			"0.0": 25.971472353,
			"0.001": 24.3182693924,
			"0.002": 20.0803508666,
			"0.003": 18.7426793056,
			"0.004": 14.8175682633,
			"0.005": 7.15125970831,
			"0.006": 2.65169637764,
			"0.007": 3.15768751757,
			"0.008": 3.81991615894,
			"0.009": 3.38646598127,
			"0.01": 3.6940308939,
			"0.011": 2.88402161004,
			"0.012": 1.38053765259,
			"0.013": 1.47505028127,
			"0.014": 0.190673222876,
			"0.015": 0.0,
			"0.016": 0.0,
			"0.017": 0.0,
			"0.018": 0.0,
			"0.019": 0.0,
			"0.02": 0.0,
			"0.021": 0.0,
			"0.022": 0.0,
			"0.023": 0.0,
			"0.024": 0.0,
			"0.025": 0.0
		}
	}
}
