{
	 "smiles": "CCCCO[Si](OCCCC)(OCCCC)OCCCC", 
	 "Tm": 193.15, 
	 "num_atms": 57, 
	 "gaussian": { 
		 "optdone": 1, 
		 "sigma_profile": "yes", 
		 "theory": "DFT", 
		 "functional": "B3LYP", 
		 "basiset": "6-31G**", 
		 "properties": { 
			 "R2extent": 9579.7742, 
			 "electric_dipole_moment_norm": 0.305578206029, 
			 "electric_quadrupole_moment_norm": 1.21417462912, 
			 "total_energy": -1221.99771775, 
			 "HOMO_LUMO_gap": 0.32458, 
			 "cosmo_polarized_energy": -7.37, 
			 "cosmo_cavitation_energy": 59.05, 
			 "cosmo_dispersion_energy": -34.25, 
			 "cosmo_repulsion_energy": 2.87, 
			 "cosmo_total_nonelectrostatic_energy": 27.67, 
			 "SMD_solvation_energy": 8.94 
		},
		"coords": [
			{
				"x": 4.6185838663,
				"y": -2.2184092885,
				"z": -0.6695811408,
				"element": "C" 
			},
			{
				"x": 4.5588109242,
				"y": -0.8671186555,
				"z": -1.3940092935,
				"element": "C" 
			},
			{
				"x": 3.2441345485,
				"y": -0.0946653323,
				"z": -1.1982426163,
				"element": "C" 
			},
			{
				"x": 2.0276636401,
				"y": -0.7725766148,
				"z": -1.8248547974,
				"element": "C" 
			},
			{
				"x": 0.8781346039,
				"y": 0.0745333986,
				"z": -1.7265307484,
				"element": "O" 
			},
			{
				"x": -0.3846841421,
				"y": -0.1646953566,
				"z": -0.702355426,
				"element": "Si" 
			},
			{
				"x": -1.4108519957,
				"y": -1.3733295958,
				"z": -1.1402549677,
				"element": "O" 
			},
			{
				"x": -2.2433439307,
				"y": -1.3332292522,
				"z": -2.3059607724,
				"element": "C" 
			},
			{
				"x": -3.4439575044,
				"y": -2.2544528642,
				"z": -2.1120304398,
				"element": "C" 
			},
			{
				"x": -4.3596310059,
				"y": -1.8787519116,
				"z": -0.9364395179,
				"element": "C" 
			},
			{
				"x": -5.0278109881,
				"y": -0.5050330331,
				"z": -1.0678334282,
				"element": "C" 
			},
			{
				"x": -1.2619285327,
				"y": 1.2287150851,
				"z": -0.6976085255,
				"element": "O" 
			},
			{
				"x": -0.6848065465,
				"y": 2.5379566082,
				"z": -0.6124148023,
				"element": "C" 
			},
			{
				"x": -1.7851943965,
				"y": 3.5860212182,
				"z": -0.7438146248,
				"element": "C" 
			},
			{
				"x": -2.8588045668,
				"y": 3.5382797884,
				"z": 0.3550288717,
				"element": "C" 
			},
			{
				"x": -2.3454765787,
				"y": 3.8881450515,
				"z": 1.7567366908,
				"element": "C" 
			},
			{
				"x": 0.244183611,
				"y": -0.5859364923,
				"z": 0.7597648241,
				"element": "O" 
			},
			{
				"x": -0.5330497055,
				"y": -1.0835889177,
				"z": 1.8558115362,
				"element": "C" 
			},
			{
				"x": 0.3930723198,
				"y": -1.4777555022,
				"z": 3.0004660733,
				"element": "C" 
			},
			{
				"x": 1.3414062176,
				"y": -2.6338262714,
				"z": 2.661726285,
				"element": "C" 
			},
			{
				"x": 2.2720672496,
				"y": -3.0034188075,
				"z": 3.8207776226,
				"element": "C" 
			},
			{
				"x": 5.6008303089,
				"y": -2.6868523323,
				"z": -0.7913339338,
				"element": "H" 
			},
			{
				"x": 3.8722972355,
				"y": -2.9235379835,
				"z": -1.0502474887,
				"element": "H" 
			},
			{
				"x": 4.4393446757,
				"y": -2.0966979837,
				"z": 0.4049926809,
				"element": "H" 
			},
			{
				"x": 5.3847671182,
				"y": -0.2375077948,
				"z": -1.0410943131,
				"element": "H" 
			},
			{
				"x": 4.7352448324,
				"y": -1.0191521374,
				"z": -2.4679924496,
				"element": "H" 
			},
			{
				"x": 3.3344806085,
				"y": 0.9036619969,
				"z": -1.6435370556,
				"element": "H" 
			},
			{
				"x": 3.0478866308,
				"y": 0.0515995201,
				"z": -0.1286547004,
				"element": "H" 
			},
			{
				"x": 2.2056695922,
				"y": -0.9568643584,
				"z": -2.8922312918,
				"element": "H" 
			},
			{
				"x": 1.8344720441,
				"y": -1.7422019094,
				"z": -1.3505617189,
				"element": "H" 
			},
			{
				"x": -2.569669453,
				"y": -0.3037437471,
				"z": -2.4965829376,
				"element": "H" 
			},
			{
				"x": -1.6576879804,
				"y": -1.6631478541,
				"z": -3.1741502196,
				"element": "H" 
			},
			{
				"x": -3.0737652022,
				"y": -3.2776437205,
				"z": -1.9717224545,
				"element": "H" 
			},
			{
				"x": -4.0193422682,
				"y": -2.2527038113,
				"z": -3.0486280961,
				"element": "H" 
			},
			{
				"x": -3.7744639451,
				"y": -1.9140609329,
				"z": -0.0104230071,
				"element": "H" 
			},
			{
				"x": -5.1335815691,
				"y": -2.6509005985,
				"z": -0.8419303984,
				"element": "H" 
			},
			{
				"x": -5.6025215635,
				"y": -0.4281485561,
				"z": -1.9988142156,
				"element": "H" 
			},
			{
				"x": -5.7192000325,
				"y": -0.3257501149,
				"z": -0.2377053787,
				"element": "H" 
			},
			{
				"x": -4.2916020391,
				"y": 0.3052295161,
				"z": -1.0606638164,
				"element": "H" 
			},
			{
				"x": 0.0548693382,
				"y": 2.6654805985,
				"z": -1.4117925524,
				"element": "H" 
			},
			{
				"x": -0.158260148,
				"y": 2.6448460968,
				"z": 0.3455847231,
				"element": "H" 
			},
			{
				"x": -1.3062589254,
				"y": 4.5752789768,
				"z": -0.7539035365,
				"element": "H" 
			},
			{
				"x": -2.2612693312,
				"y": 3.4567368076,
				"z": -1.7236820674,
				"element": "H" 
			},
			{
				"x": -3.66237369,
				"y": 4.2343973513,
				"z": 0.0838074142,
				"element": "H" 
			},
			{
				"x": -3.3073222413,
				"y": 2.5383652871,
				"z": 0.3656920731,
				"element": "H" 
			},
			{
				"x": -1.593860381,
				"y": 3.172844665,
				"z": 2.1072534192,
				"element": "H" 
			},
			{
				"x": -3.1622891203,
				"y": 3.8839912728,
				"z": 2.4860035122,
				"element": "H" 
			},
			{
				"x": -1.8887100356,
				"y": 4.8848742387,
				"z": 1.7765397885,
				"element": "H" 
			},
			{
				"x": -1.2341575202,
				"y": -0.3068928968,
				"z": 2.190346088,
				"element": "H" 
			},
			{
				"x": -1.1231666034,
				"y": -1.948143928,
				"z": 1.5243118644,
				"element": "H" 
			},
			{
				"x": 0.9738091167,
				"y": -0.5956604338,
				"z": 3.3008920907,
				"element": "H" 
			},
			{
				"x": -0.2327406184,
				"y": -1.7500405616,
				"z": 3.8619382341,
				"element": "H" 
			},
			{
				"x": 0.748380771,
				"y": -3.5119884272,
				"z": 2.3709748931,
				"element": "H" 
			},
			{
				"x": 1.9338347817,
				"y": -2.3587388781,
				"z": 1.7818854593,
				"element": "H" 
			},
			{
				"x": 2.9003677644,
				"y": -2.1533738118,
				"z": 4.1109786968,
				"element": "H" 
			},
			{
				"x": 2.93701157,
				"y": -3.8307169839,
				"z": 3.5516658898,
				"element": "H" 
			},
			{
				"x": 1.7036591925,
				"y": -3.3093998253,
				"z": 4.7069040023,
				"element": "H" 
			}
		],
		 "valence_orbital": [ 
			{
				"type": "occ",
				"energy": -0.29543,
				"method": "rhf"
			},
			{
				"type": "occ",
				"energy": -0.28966,
				"method": "rhf"
			},
			{
				"type": "occ",
				"energy": -0.27968,
				"method": "rhf"
			},
			{
				"type": "occ",
				"energy": -0.27269,
				"method": "rhf"
			},
			{
				"type": "occ",
				"energy": -0.2689,
				"method": "rhf"
			},
			{
				"type": "unocc",
				"energy": 0.05568,
				"method": "rhf"
			},
			{
				"type": "unocc",
				"energy": 0.07218,
				"method": "rhf"
			},
			{
				"type": "unocc",
				"energy": 0.08649,
				"method": "rhf"
			},
			{
				"type": "unocc",
				"energy": 0.09404,
				"method": "rhf"
			},
			{
				"type": "unocc",
				"energy": 0.09851,
				"method": "rhf"
			}
		],
		"cosmo_sigma_profile": { 
			"-0.025": 0.0,
			"-0.024": 0.0,
			"-0.023": 0.0,
			"-0.022": 0.0,
			"-0.021": 0.0,
			"-0.02": 0.0,
			"-0.019": 0.0,
			"-0.018": 0.0,
			"-0.017": 0.0,
			"-0.016": 0.0,
			"-0.015": 0.0,
			"-0.014": 0.0,
			"-0.013": 0.0,
			"-0.012": 0.0,
			"-0.011": 0.0,
			"-0.01": 0.0,
			"-0.009": 0.0,
			"-0.008": 0.0,
			"-0.007": 0.0,
			"-0.006": 0.0,
			"-0.005": 0.227616767439,
			"-0.004": 11.6009398507,
			"-0.003": 46.8337105672,
			"-0.002": 80.1594197277,
			"-0.001": 76.2833056596,
			"0.0": 79.5605089278,
			"0.001": 68.0136065871,
			"0.002": 33.5223117467,
			"0.003": 11.7688713567,
			"0.004": 10.9919265703,
			"0.005": 9.01835512488,
			"0.006": 7.50881064761,
			"0.007": 5.24811422641,
			"0.008": 3.24937998893,
			"0.009": 1.50864909746,
			"0.01": 1.65534423885,
			"0.011": 1.67441270238,
			"0.012": 0.712784627724,
			"0.013": 0.0498460735475,
			"0.014": 0.0,
			"0.015": 0.0,
			"0.016": 0.0,
			"0.017": 0.0,
			"0.018": 0.0,
			"0.019": 0.0,
			"0.02": 0.0,
			"0.021": 0.0,
			"0.022": 0.0,
			"0.023": 0.0,
			"0.024": 0.0,
			"0.025": 0.0
		}
	}
}
