{
	 "smiles": "OC(=O)CCOC1=C(C=C(Cl)C=C1)[N+]([O-])=O", 
	 "Tm": 401.15, 
	 "num_atms": 24, 
	 "gaussian": { 
		 "optdone": 1, 
		 "sigma_profile": "yes", 
		 "theory": "DFT", 
		 "functional": "B3LYP", 
		 "basiset": "6-31G**", 
		 "properties": { 
			 "R2extent": 5876.4856, 
			 "electric_dipole_moment_norm": 6.78877409405, 
			 "electric_quadrupole_moment_norm": 28.544168942, 
			 "total_energy": -1238.73573038, 
			 "HOMO_LUMO_gap": 0.1554, 
			 "cosmo_polarized_energy": -19.79, 
			 "cosmo_cavitation_energy": 31.08, 
			 "cosmo_dispersion_energy": -22.62, 
			 "cosmo_repulsion_energy": 1.75, 
			 "cosmo_total_nonelectrostatic_energy": 10.21, 
			 "SMD_solvation_energy": 8.22 
		},
		"coords": [
			{
				"x": -0.6731378059,
				"y": 3.7923954766,
				"z": 0.9258799889,
				"element": "O" 
			},
			{
				"x": -0.7161079295,
				"y": 3.4889840996,
				"z": 2.2356272299,
				"element": "C" 
			},
			{
				"x": -0.6878825343,
				"y": 4.3542758545,
				"z": 3.0781701424,
				"element": "O" 
			},
			{
				"x": -0.810926227,
				"y": 2.0028453852,
				"z": 2.5994091802,
				"element": "C" 
			},
			{
				"x": 0.2804057784,
				"y": 1.1296319291,
				"z": 1.9884546549,
				"element": "C" 
			},
			{
				"x": 0.0288774269,
				"y": 1.0887000141,
				"z": 0.57474017,
				"element": "O" 
			},
			{
				"x": 0.9141389926,
				"y": 0.5130541565,
				"z": -0.2650465862,
				"element": "C" 
			},
			{
				"x": 0.6861095199,
				"y": 0.5960870527,
				"z": -1.6580272469,
				"element": "C" 
			},
			{
				"x": 1.5408915233,
				"y": -0.0231982975,
				"z": -2.5706144727,
				"element": "C" 
			},
			{
				"x": 2.6514804333,
				"y": -0.7161679313,
				"z": -2.1086991031,
				"element": "C" 
			},
			{
				"x": 3.7380504146,
				"y": -1.4780924633,
				"z": -3.2494466236,
				"element": "Cl" 
			},
			{
				"x": 2.9029873777,
				"y": -0.8075071378,
				"z": -0.7390304068,
				"element": "C" 
			},
			{
				"x": 2.0383369592,
				"y": -0.2047804747,
				"z": 0.1698472911,
				"element": "C" 
			},
			{
				"x": -0.4522504026,
				"y": 1.3311544976,
				"z": -2.2270440578,
				"element": "N" 
			},
			{
				"x": -0.7820858952,
				"y": 1.0467602173,
				"z": -3.3758459403,
				"element": "O" 
			},
			{
				"x": -1.0052671229,
				"y": 2.1996993399,
				"z": -1.5481982773,
				"element": "O" 
			},
			{
				"x": -0.7036792629,
				"y": 3.0046599971,
				"z": 0.3509000357,
				"element": "H" 
			},
			{
				"x": -0.756137442,
				"y": 1.9399994873,
				"z": 3.6878528934,
				"element": "H" 
			},
			{
				"x": -1.7870507235,
				"y": 1.6129955107,
				"z": 2.2860778873,
				"element": "H" 
			},
			{
				"x": 1.2772745221,
				"y": 1.5469813254,
				"z": 2.1765091657,
				"element": "H" 
			},
			{
				"x": 0.2391747107,
				"y": 0.1140220878,
				"z": 2.4003829472,
				"element": "H" 
			},
			{
				"x": 1.3182218936,
				"y": 0.0539035633,
				"z": -3.6266381346,
				"element": "H" 
			},
			{
				"x": 3.7697422082,
				"y": -1.3525686926,
				"z": -0.382031536,
				"element": "H" 
			},
			{
				"x": 2.2408335854,
				"y": -0.3005349974,
				"z": 1.2289707986,
				"element": "H" 
			}
		],
		 "valence_orbital": [ 
			{
				"type": "occ",
				"energy": -0.31652,
				"method": "rhf"
			},
			{
				"type": "occ",
				"energy": -0.30537,
				"method": "rhf"
			},
			{
				"type": "occ",
				"energy": -0.30175,
				"method": "rhf"
			},
			{
				"type": "occ",
				"energy": -0.2643,
				"method": "rhf"
			},
			{
				"type": "occ",
				"energy": -0.26386,
				"method": "rhf"
			},
			{
				"type": "unocc",
				"energy": -0.10846,
				"method": "rhf"
			},
			{
				"type": "unocc",
				"energy": -0.04317,
				"method": "rhf"
			},
			{
				"type": "unocc",
				"energy": -0.02803,
				"method": "rhf"
			},
			{
				"type": "unocc",
				"energy": 0.0023,
				"method": "rhf"
			},
			{
				"type": "unocc",
				"energy": 0.01001,
				"method": "rhf"
			}
		],
		"cosmo_sigma_profile": { 
			"-0.025": 0.0,
			"-0.024": 0.0,
			"-0.023": 0.0,
			"-0.022": 0.0,
			"-0.021": 0.0,
			"-0.02": 0.0,
			"-0.019": 0.0,
			"-0.018": 0.0,
			"-0.017": 0.0,
			"-0.016": 0.0,
			"-0.015": 0.0,
			"-0.014": 0.0,
			"-0.013": 0.0,
			"-0.012": 0.0,
			"-0.011": 0.0,
			"-0.01": 0.67182098722,
			"-0.009": 4.92744199178,
			"-0.008": 14.2063838431,
			"-0.007": 19.9181240283,
			"-0.006": 15.0862472785,
			"-0.005": 13.4596708537,
			"-0.004": 13.3080208974,
			"-0.003": 12.6438423308,
			"-0.002": 15.1479147651,
			"-0.001": 16.5980814027,
			"0.0": 19.9687010913,
			"0.001": 14.7171692245,
			"0.002": 10.3140553476,
			"0.003": 12.7343112429,
			"0.004": 13.9937374455,
			"0.005": 6.19445894945,
			"0.006": 6.15690751409,
			"0.007": 7.55574238073,
			"0.008": 6.73394673368,
			"0.009": 7.0343930977,
			"0.01": 4.65949128073,
			"0.011": 5.3043877117,
			"0.012": 6.37294080798,
			"0.013": 3.0087516965,
			"0.014": 0.518831993154,
			"0.015": 0.0,
			"0.016": 0.0,
			"0.017": 0.0,
			"0.018": 0.0,
			"0.019": 0.0,
			"0.02": 0.0,
			"0.021": 0.0,
			"0.022": 0.0,
			"0.023": 0.0,
			"0.024": 0.0,
			"0.025": 0.0
		}
	}
}
