{
	 "smiles": "CC(C)CCC[C@H](C)[C@H]1CCC2C3CC[C@H]4CCCC[C@]4(C)C3CC[C@]12C", 
	 "Tm": 352.65, 
	 "num_atms": 75, 
	 "gaussian": { 
		 "optdone": 1, 
		 "sigma_profile": "yes", 
		 "theory": "DFT", 
		 "functional": "B3LYP", 
		 "basiset": "6-31G**", 
		 "properties": { 
			 "R2extent": 15483.6947, 
			 "electric_dipole_moment_norm": 0.238673752223, 
			 "electric_quadrupole_moment_norm": 0.862378750898, 
			 "total_energy": -1057.85536393, 
			 "HOMO_LUMO_gap": 0.32847, 
			 "cosmo_polarized_energy": -1.66, 
			 "cosmo_cavitation_energy": 61.25, 
			 "cosmo_dispersion_energy": -41.23, 
			 "cosmo_repulsion_energy": 3.05, 
			 "cosmo_total_nonelectrostatic_energy": 23.07, 
			 "SMD_solvation_energy": 7.89 
		},
		"coords": [
			{
				"x": 5.0871614952,
				"y": 4.0473012785,
				"z": -1.6083058794,
				"element": "C" 
			},
			{
				"x": 4.0891338894,
				"y": 4.297322939,
				"z": -0.4674331472,
				"element": "C" 
			},
			{
				"x": 3.6142023069,
				"y": 5.758481028,
				"z": -0.4794468173,
				"element": "C" 
			},
			{
				"x": 4.6722709602,
				"y": 3.9395935169,
				"z": 0.9155700782,
				"element": "C" 
			},
			{
				"x": 5.0895467605,
				"y": 2.4739265517,
				"z": 1.134152984,
				"element": "C" 
			},
			{
				"x": 3.9641950611,
				"y": 1.4201502849,
				"z": 1.0873441813,
				"element": "C" 
			},
			{
				"x": 2.8106823904,
				"y": 1.5715082933,
				"z": 2.110477634,
				"element": "C" 
			},
			{
				"x": 3.372641087,
				"y": 1.6248033999,
				"z": 3.5440172431,
				"element": "C" 
			},
			{
				"x": 1.7802116203,
				"y": 0.417349502,
				"z": 1.9580462639,
				"element": "C" 
			},
			{
				"x": 0.8232243013,
				"y": 0.2346590726,
				"z": 3.1600201778,
				"element": "C" 
			},
			{
				"x": -0.3067784546,
				"y": -0.6284820541,
				"z": 2.6007921917,
				"element": "C" 
			},
			{
				"x": -0.5936675074,
				"y": 0.0381808677,
				"z": 1.2464090596,
				"element": "C" 
			},
			{
				"x": -1.6093065546,
				"y": -0.7323651786,
				"z": 0.3506084545,
				"element": "C" 
			},
			{
				"x": -2.6425408871,
				"y": 0.1743885959,
				"z": -0.3443054807,
				"element": "C" 
			},
			{
				"x": -3.8308149771,
				"y": -0.6624850411,
				"z": -0.8806368637,
				"element": "C" 
			},
			{
				"x": -3.4642060149,
				"y": -2.1446419635,
				"z": -1.1102987174,
				"element": "C" 
			},
			{
				"x": -4.5497260501,
				"y": -2.8859507048,
				"z": -1.9118401927,
				"element": "C" 
			},
			{
				"x": -4.2128158047,
				"y": -4.3719760647,
				"z": -2.1046102643,
				"element": "C" 
			},
			{
				"x": -2.8202140839,
				"y": -4.556674825,
				"z": -2.7253589802,
				"element": "C" 
			},
			{
				"x": -1.7504395081,
				"y": -3.8134611725,
				"z": -1.9097380548,
				"element": "C" 
			},
			{
				"x": -2.0360989313,
				"y": -2.2993361312,
				"z": -1.7130698572,
				"element": "C" 
			},
			{
				"x": -1.9572215783,
				"y": -1.5915374385,
				"z": -3.0879477411,
				"element": "C" 
			},
			{
				"x": -0.9790453813,
				"y": -1.7208280935,
				"z": -0.6781200188,
				"element": "C" 
			},
			{
				"x": 0.2760463013,
				"y": -1.1239769453,
				"z": -1.3397141759,
				"element": "C" 
			},
			{
				"x": 1.312033426,
				"y": -0.7199114402,
				"z": -0.2897191105,
				"element": "C" 
			},
			{
				"x": 0.8289542306,
				"y": 0.3921753729,
				"z": 0.6725892153,
				"element": "C" 
			},
			{
				"x": 0.7374905559,
				"y": 1.7382044283,
				"z": -0.0715505231,
				"element": "C" 
			},
			{
				"x": 4.6557711625,
				"y": 4.3301194203,
				"z": -2.5748250887,
				"element": "H" 
			},
			{
				"x": 5.3836731946,
				"y": 2.996026768,
				"z": -1.67646295,
				"element": "H" 
			},
			{
				"x": 5.9986028858,
				"y": 4.6416190307,
				"z": -1.4659942909,
				"element": "H" 
			},
			{
				"x": 3.2088137829,
				"y": 3.6643397276,
				"z": -0.6454866276,
				"element": "H" 
			},
			{
				"x": 4.4532667607,
				"y": 6.4439789887,
				"z": -0.3065381922,
				"element": "H" 
			},
			{
				"x": 2.869004511,
				"y": 5.9435012372,
				"z": 0.3021779962,
				"element": "H" 
			},
			{
				"x": 3.1632489579,
				"y": 6.0237917216,
				"z": -1.4419768565,
				"element": "H" 
			},
			{
				"x": 3.9437102636,
				"y": 4.2273671844,
				"z": 1.6854130946,
				"element": "H" 
			},
			{
				"x": 5.5521859728,
				"y": 4.5765041699,
				"z": 1.0884106961,
				"element": "H" 
			},
			{
				"x": 5.8422702688,
				"y": 2.1950486288,
				"z": 0.3860942765,
				"element": "H" 
			},
			{
				"x": 5.6081934074,
				"y": 2.4080898686,
				"z": 2.0979535607,
				"element": "H" 
			},
			{
				"x": 3.5508582736,
				"y": 1.3857112384,
				"z": 0.0738941414,
				"element": "H" 
			},
			{
				"x": 4.4251315725,
				"y": 0.434786271,
				"z": 1.2481589993,
				"element": "H" 
			},
			{
				"x": 2.2971255815,
				"y": 2.5250077122,
				"z": 1.9280766832,
				"element": "H" 
			},
			{
				"x": 3.8961466035,
				"y": 0.6940286145,
				"z": 3.7973479041,
				"element": "H" 
			},
			{
				"x": 4.0853412473,
				"y": 2.4457274025,
				"z": 3.6622734151,
				"element": "H" 
			},
			{
				"x": 2.5844874675,
				"y": 1.7758849957,
				"z": 4.2857044559,
				"element": "H" 
			},
			{
				"x": 2.3789476449,
				"y": -0.5039986775,
				"z": 1.9120522407,
				"element": "H" 
			},
			{
				"x": 0.415230987,
				"y": 1.2037913213,
				"z": 3.4808553668,
				"element": "H" 
			},
			{
				"x": 1.3202401417,
				"y": -0.2093010603,
				"z": 4.0275514875,
				"element": "H" 
			},
			{
				"x": -1.1923998792,
				"y": -0.6593588546,
				"z": 3.2455800569,
				"element": "H" 
			},
			{
				"x": 0.0327109447,
				"y": -1.664761798,
				"z": 2.4645002067,
				"element": "H" 
			},
			{
				"x": -1.0707164443,
				"y": 0.9979480583,
				"z": 1.4929329481,
				"element": "H" 
			},
			{
				"x": -2.1883898474,
				"y": -1.3413252053,
				"z": 1.0581015026,
				"element": "H" 
			},
			{
				"x": -3.0066111628,
				"y": 0.9335374562,
				"z": 0.3578788805,
				"element": "H" 
			},
			{
				"x": -2.165001799,
				"y": 0.7292120344,
				"z": -1.1611720833,
				"element": "H" 
			},
			{
				"x": -4.6668113564,
				"y": -0.6207415352,
				"z": -0.1710565295,
				"element": "H" 
			},
			{
				"x": -4.2080665002,
				"y": -0.2257608703,
				"z": -1.813580747,
				"element": "H" 
			},
			{
				"x": -3.4310280593,
				"y": -2.6357976212,
				"z": -0.1261851364,
				"element": "H" 
			},
			{
				"x": -4.6868147608,
				"y": -2.4084386793,
				"z": -2.891254697,
				"element": "H" 
			},
			{
				"x": -5.5110288326,
				"y": -2.7827136147,
				"z": -1.3914401621,
				"element": "H" 
			},
			{
				"x": -4.2372218137,
				"y": -4.8748730919,
				"z": -1.1270953554,
				"element": "H" 
			},
			{
				"x": -4.9768832988,
				"y": -4.8589116107,
				"z": -2.722802723,
				"element": "H" 
			},
			{
				"x": -2.5672223381,
				"y": -5.6229452184,
				"z": -2.7749215477,
				"element": "H" 
			},
			{
				"x": -2.8276723415,
				"y": -4.1982620624,
				"z": -3.7626530784,
				"element": "H" 
			},
			{
				"x": -1.6921896744,
				"y": -4.2834837761,
				"z": -0.9177679131,
				"element": "H" 
			},
			{
				"x": -0.7620861262,
				"y": -3.9450594643,
				"z": -2.3701721122,
				"element": "H" 
			},
			{
				"x": -2.7378297138,
				"y": -1.9468324035,
				"z": -3.764712995,
				"element": "H" 
			},
			{
				"x": -0.9993260663,
				"y": -1.7847995464,
				"z": -3.5790161999,
				"element": "H" 
			},
			{
				"x": -2.0727740588,
				"y": -0.5077091094,
				"z": -3.0083447461,
				"element": "H" 
			},
			{
				"x": -0.6238134364,
				"y": -2.5820127684,
				"z": -0.0936735896,
				"element": "H" 
			},
			{
				"x": 0.7222336996,
				"y": -1.8625555671,
				"z": -2.0170357606,
				"element": "H" 
			},
			{
				"x": 0.0183582866,
				"y": -0.2601780022,
				"z": -1.9623363421,
				"element": "H" 
			},
			{
				"x": 2.242507196,
				"y": -0.4002782476,
				"z": -0.7765022766,
				"element": "H" 
			},
			{
				"x": 1.5699719593,
				"y": -1.6131361585,
				"z": 0.2953468747,
				"element": "H" 
			},
			{
				"x": 1.6742503882,
				"y": 2.012127786,
				"z": -0.5647589433,
				"element": "H" 
			},
			{
				"x": -0.0343634804,
				"y": 1.7015071039,
				"z": -0.8462603754,
				"element": "H" 
			},
			{
				"x": 0.4638491754,
				"y": 2.5518601246,
				"z": 0.6080908725,
				"element": "H" 
			}
		],
		 "valence_orbital": [ 
			{
				"type": "occ",
				"energy": -0.28637,
				"method": "rhf"
			},
			{
				"type": "occ",
				"energy": -0.28218,
				"method": "rhf"
			},
			{
				"type": "occ",
				"energy": -0.27322,
				"method": "rhf"
			},
			{
				"type": "occ",
				"energy": -0.26311,
				"method": "rhf"
			},
			{
				"type": "occ",
				"energy": -0.2605,
				"method": "rhf"
			},
			{
				"type": "unocc",
				"energy": 0.06797,
				"method": "rhf"
			},
			{
				"type": "unocc",
				"energy": 0.07405,
				"method": "rhf"
			},
			{
				"type": "unocc",
				"energy": 0.08324,
				"method": "rhf"
			},
			{
				"type": "unocc",
				"energy": 0.0907,
				"method": "rhf"
			},
			{
				"type": "unocc",
				"energy": 0.09568,
				"method": "rhf"
			}
		],
		"cosmo_sigma_profile": { 
			"-0.025": 0.0,
			"-0.024": 0.0,
			"-0.023": 0.0,
			"-0.022": 0.0,
			"-0.021": 0.0,
			"-0.02": 0.0,
			"-0.019": 0.0,
			"-0.018": 0.0,
			"-0.017": 0.0,
			"-0.016": 0.0,
			"-0.015": 0.0,
			"-0.014": 0.0,
			"-0.013": 0.0,
			"-0.012": 0.0,
			"-0.011": 0.0,
			"-0.01": 0.0,
			"-0.009": 0.0,
			"-0.008": 0.0,
			"-0.007": 0.0,
			"-0.006": 0.0,
			"-0.005": 0.0,
			"-0.004": 0.358195962477,
			"-0.003": 8.13920610757,
			"-0.002": 51.8909953543,
			"-0.001": 116.747683586,
			"0.0": 117.803949293,
			"0.001": 98.766692304,
			"0.002": 64.2217935531,
			"0.003": 7.01297390135,
			"0.004": 0.0,
			"0.005": 0.0,
			"0.006": 0.0,
			"0.007": 0.0,
			"0.008": 0.0,
			"0.009": 0.0,
			"0.01": 0.0,
			"0.011": 0.0,
			"0.012": 0.0,
			"0.013": 0.0,
			"0.014": 0.0,
			"0.015": 0.0,
			"0.016": 0.0,
			"0.017": 0.0,
			"0.018": 0.0,
			"0.019": 0.0,
			"0.02": 0.0,
			"0.021": 0.0,
			"0.022": 0.0,
			"0.023": 0.0,
			"0.024": 0.0,
			"0.025": 0.0
		}
	}
}
