{
	 "smiles": "COC1=C(C=O)C=CC(=C1)C1=CC=CC=C1", 
	 "Tm": 365.15, 
	 "num_atms": 28, 
	 "gaussian": { 
		 "optdone": 1, 
		 "sigma_profile": "yes", 
		 "theory": "DFT", 
		 "functional": "B3LYP", 
		 "basiset": "6-31G**", 
		 "properties": { 
			 "R2extent": 4640.9007, 
			 "electric_dipole_moment_norm": 5.13979368652, 
			 "electric_quadrupole_moment_norm": 19.9562076172, 
			 "total_energy": -691.157423743, 
			 "HOMO_LUMO_gap": 0.1642, 
			 "cosmo_polarized_energy": -10.86, 
			 "cosmo_cavitation_energy": 32.31, 
			 "cosmo_dispersion_energy": -23.26, 
			 "cosmo_repulsion_energy": 1.79, 
			 "cosmo_total_nonelectrostatic_energy": 10.84, 
			 "SMD_solvation_energy": 7.13 
		},
		"coords": [
			{
				"x": -1.1846546288,
				"y": -0.2401778401,
				"z": 3.5987225547,
				"element": "C" 
			},
			{
				"x": -0.0624153762,
				"y": 0.6044619637,
				"z": 3.384035348,
				"element": "O" 
			},
			{
				"x": 0.4284890155,
				"y": 0.7410501569,
				"z": 2.121765857,
				"element": "C" 
			},
			{
				"x": 1.5465892305,
				"y": 1.5944275261,
				"z": 1.9720351351,
				"element": "C" 
			},
			{
				"x": 2.1455167153,
				"y": 2.3088976291,
				"z": 3.1194720744,
				"element": "C" 
			},
			{
				"x": 3.1099426313,
				"y": 3.0508288139,
				"z": 3.0217029925,
				"element": "O" 
			},
			{
				"x": 2.0966403267,
				"y": 1.7622282536,
				"z": 0.6946146067,
				"element": "C" 
			},
			{
				"x": 1.5694920309,
				"y": 1.1131003084,
				"z": -0.4123444554,
				"element": "C" 
			},
			{
				"x": 0.4572954225,
				"y": 0.2635306377,
				"z": -0.2682716228,
				"element": "C" 
			},
			{
				"x": -0.104022754,
				"y": 0.0851583948,
				"z": 1.0076493254,
				"element": "C" 
			},
			{
				"x": -0.1203296149,
				"y": -0.4381402155,
				"z": -1.4422807967,
				"element": "C" 
			},
			{
				"x": -1.5093172052,
				"y": -0.6094675987,
				"z": -1.5733029872,
				"element": "C" 
			},
			{
				"x": -2.0482965558,
				"y": -1.2680370272,
				"z": -2.677364578,
				"element": "C" 
			},
			{
				"x": -1.2098153794,
				"y": -1.7713589557,
				"z": -3.6738423028,
				"element": "C" 
			},
			{
				"x": 0.172034435,
				"y": -1.6085208775,
				"z": -3.5574820295,
				"element": "C" 
			},
			{
				"x": 0.7109682509,
				"y": -0.9479658067,
				"z": -2.4546841523,
				"element": "C" 
			},
			{
				"x": -0.9640087106,
				"y": -1.2797990884,
				"z": 3.3274283598,
				"element": "H" 
			},
			{
				"x": -1.3993938323,
				"y": -0.1845037577,
				"z": 4.6666161126,
				"element": "H" 
			},
			{
				"x": -2.060531833,
				"y": 0.1031647658,
				"z": 3.0346141965,
				"element": "H" 
			},
			{
				"x": 1.6623656367,
				"y": 2.1327224328,
				"z": 4.0982637547,
				"element": "H" 
			},
			{
				"x": 2.9482627634,
				"y": 2.4294994272,
				"z": 0.6049505257,
				"element": "H" 
			},
			{
				"x": 1.993803519,
				"y": 1.2822931812,
				"z": -1.3963399974,
				"element": "H" 
			},
			{
				"x": -0.9387337051,
				"y": -0.5949826841,
				"z": 1.1204790947,
				"element": "H" 
			},
			{
				"x": -2.1718249875,
				"y": -0.1964647864,
				"z": -0.818343679,
				"element": "H" 
			},
			{
				"x": -3.1253608505,
				"y": -1.3800761473,
				"z": -2.7637749933,
				"element": "H" 
			},
			{
				"x": -1.6295319144,
				"y": -2.2848886381,
				"z": -4.5338712679,
				"element": "H" 
			},
			{
				"x": 0.8334433224,
				"y": -2.0031907794,
				"z": -4.3234764619,
				"element": "H" 
			},
			{
				"x": 1.7880940477,
				"y": -0.8481892884,
				"z": -2.3610706137,
				"element": "H" 
			}
		],
		 "valence_orbital": [ 
			{
				"type": "occ",
				"energy": -0.27638,
				"method": "rhf"
			},
			{
				"type": "occ",
				"energy": -0.25855,
				"method": "rhf"
			},
			{
				"type": "occ",
				"energy": -0.2437,
				"method": "rhf"
			},
			{
				"type": "occ",
				"energy": -0.2415,
				"method": "rhf"
			},
			{
				"type": "occ",
				"energy": -0.22718,
				"method": "rhf"
			},
			{
				"type": "unocc",
				"energy": -0.06298,
				"method": "rhf"
			},
			{
				"type": "unocc",
				"energy": -0.01036,
				"method": "rhf"
			},
			{
				"type": "unocc",
				"energy": -0.00661,
				"method": "rhf"
			},
			{
				"type": "unocc",
				"energy": 0.00124,
				"method": "rhf"
			},
			{
				"type": "unocc",
				"energy": 0.05295,
				"method": "rhf"
			}
		],
		"cosmo_sigma_profile": { 
			"-0.025": 0.0,
			"-0.024": 0.0,
			"-0.023": 0.0,
			"-0.022": 0.0,
			"-0.021": 0.0,
			"-0.02": 0.0,
			"-0.019": 0.0,
			"-0.018": 0.0,
			"-0.017": 0.0,
			"-0.016": 0.0,
			"-0.015": 0.0,
			"-0.014": 0.0,
			"-0.013": 0.0,
			"-0.012": 0.0,
			"-0.011": 0.0,
			"-0.01": 0.0,
			"-0.009": 0.0,
			"-0.008": 0.0,
			"-0.007": 2.04931826613,
			"-0.006": 19.2594894795,
			"-0.005": 24.4314578632,
			"-0.004": 27.1754318028,
			"-0.003": 22.7667779052,
			"-0.002": 15.9484817735,
			"-0.001": 15.0805920139,
			"0.0": 14.827532106,
			"0.001": 19.7805278743,
			"0.002": 22.3126677379,
			"0.003": 22.4891873195,
			"0.004": 16.2826486908,
			"0.005": 14.2911223046,
			"0.006": 5.43691670254,
			"0.007": 1.53804282278,
			"0.008": 1.71217538302,
			"0.009": 1.85281354239,
			"0.01": 2.47814101275,
			"0.011": 3.24675311745,
			"0.012": 4.23988421449,
			"0.013": 1.57385213743,
			"0.014": 0.173761068671,
			"0.015": 0.0,
			"0.016": 0.0,
			"0.017": 0.0,
			"0.018": 0.0,
			"0.019": 0.0,
			"0.02": 0.0,
			"0.021": 0.0,
			"0.022": 0.0,
			"0.023": 0.0,
			"0.024": 0.0,
			"0.025": 0.0
		}
	}
}
