{
	 "smiles": "CC(C)(C)NC1=CN=C(C=C1)C(N)=NO", 
	 "Tm": 413.15, 
	 "num_atms": 31, 
	 "gaussian": { 
		 "optdone": 1, 
		 "sigma_profile": "yes", 
		 "theory": "DFT", 
		 "functional": "B3LYP", 
		 "basiset": "6-31G**", 
		 "properties": { 
			 "R2extent": 4684.6776, 
			 "electric_dipole_moment_norm": 4.66716855277, 
			 "electric_quadrupole_moment_norm": 9.50965521194, 
			 "total_energy": -684.889680115, 
			 "HOMO_LUMO_gap": 0.163, 
			 "cosmo_polarized_energy": -15.51, 
			 "cosmo_cavitation_energy": 33.04, 
			 "cosmo_dispersion_energy": -24.17, 
			 "cosmo_repulsion_energy": 1.9, 
			 "cosmo_total_nonelectrostatic_energy": 10.77, 
			 "SMD_solvation_energy": 4.5 
		},
		"coords": [
			{
				"x": -1.2579686146,
				"y": -2.0379244391,
				"z": 3.7802033876,
				"element": "C" 
			},
			{
				"x": -1.2711227434,
				"y": -1.0139672008,
				"z": 2.6305966468,
				"element": "C" 
			},
			{
				"x": -2.7269902794,
				"y": -0.8419050574,
				"z": 2.1496080714,
				"element": "C" 
			},
			{
				"x": -0.6919025977,
				"y": 0.3217431347,
				"z": 3.1422419187,
				"element": "C" 
			},
			{
				"x": -0.4349180761,
				"y": -1.6024844928,
				"z": 1.5638633952,
				"element": "N" 
			},
			{
				"x": 0.0199073226,
				"y": -1.0249559207,
				"z": 0.3958999392,
				"element": "C" 
			},
			{
				"x": 1.0622545358,
				"y": -1.6750780956,
				"z": -0.3116577216,
				"element": "C" 
			},
			{
				"x": 1.5684202454,
				"y": -1.2530030442,
				"z": -1.457421782,
				"element": "N" 
			},
			{
				"x": 1.0948661438,
				"y": -0.1192252202,
				"z": -2.0195315387,
				"element": "C" 
			},
			{
				"x": 0.0627631292,
				"y": 0.5984863735,
				"z": -1.4022332001,
				"element": "C" 
			},
			{
				"x": -0.4773143758,
				"y": 0.1471306706,
				"z": -0.2018759839,
				"element": "C" 
			},
			{
				"x": 1.7467277347,
				"y": 0.2503428375,
				"z": -3.3088361652,
				"element": "C" 
			},
			{
				"x": 2.4169580126,
				"y": -0.7984586795,
				"z": -3.9245707743,
				"element": "N" 
			},
			{
				"x": 1.7612511025,
				"y": 1.3841653051,
				"z": -3.934194734,
				"element": "N" 
			},
			{
				"x": 1.0147805687,
				"y": 2.4034691659,
				"z": -3.2825445889,
				"element": "O" 
			},
			{
				"x": -1.8794658593,
				"y": -1.6889715361,
				"z": 4.6089663955,
				"element": "H" 
			},
			{
				"x": -0.2417104515,
				"y": -2.1859335777,
				"z": 4.1637574927,
				"element": "H" 
			},
			{
				"x": -1.6482363908,
				"y": -3.0047925786,
				"z": 3.4451727747,
				"element": "H" 
			},
			{
				"x": -2.817568683,
				"y": -0.1205041296,
				"z": 1.3349313005,
				"element": "H" 
			},
			{
				"x": -3.3556977027,
				"y": -0.4892800032,
				"z": 2.9737516354,
				"element": "H" 
			},
			{
				"x": -3.1232117418,
				"y": -1.7979398685,
				"z": 1.7954981734,
				"element": "H" 
			},
			{
				"x": -0.6427754585,
				"y": 1.0782460351,
				"z": 2.3558234954,
				"element": "H" 
			},
			{
				"x": 0.3214746634,
				"y": 0.1756388809,
				"z": 3.5294269454,
				"element": "H" 
			},
			{
				"x": -1.3130335218,
				"y": 0.7201640656,
				"z": 3.9511453084,
				"element": "H" 
			},
			{
				"x": 0.1374792853,
				"y": -2.3741027897,
				"z": 1.8760232132,
				"element": "H" 
			},
			{
				"x": 1.4876578675,
				"y": -2.5932581727,
				"z": 0.0982174304,
				"element": "H" 
			},
			{
				"x": -0.313845082,
				"y": 1.4998751224,
				"z": -1.8626901341,
				"element": "H" 
			},
			{
				"x": -1.2819730315,
				"y": 0.7099564854,
				"z": 0.2524323679,
				"element": "H" 
			},
			{
				"x": 3.1004235156,
				"y": -0.5010837918,
				"z": -4.6068391874,
				"element": "H" 
			},
			{
				"x": 2.7312885576,
				"y": -1.4979658775,
				"z": -3.2638345875,
				"element": "H" 
			},
			{
				"x": 1.1629819251,
				"y": 3.1465163992,
				"z": -3.8794294942,
				"element": "H" 
			}
		],
		 "valence_orbital": [ 
			{
				"type": "occ",
				"energy": -0.27163,
				"method": "rhf"
			},
			{
				"type": "occ",
				"energy": -0.25957,
				"method": "rhf"
			},
			{
				"type": "occ",
				"energy": -0.24633,
				"method": "rhf"
			},
			{
				"type": "occ",
				"energy": -0.20842,
				"method": "rhf"
			},
			{
				"type": "occ",
				"energy": -0.18437,
				"method": "rhf"
			},
			{
				"type": "unocc",
				"energy": -0.02137,
				"method": "rhf"
			},
			{
				"type": "unocc",
				"energy": -0.00875,
				"method": "rhf"
			},
			{
				"type": "unocc",
				"energy": 0.06352,
				"method": "rhf"
			},
			{
				"type": "unocc",
				"energy": 0.08082,
				"method": "rhf"
			},
			{
				"type": "unocc",
				"energy": 0.08658,
				"method": "rhf"
			}
		],
		"cosmo_sigma_profile": { 
			"-0.025": 0.0,
			"-0.024": 0.0,
			"-0.023": 0.0,
			"-0.022": 0.0,
			"-0.021": 0.0,
			"-0.02": 0.0,
			"-0.019": 0.0,
			"-0.018": 0.0,
			"-0.017": 0.118374513808,
			"-0.016": 0.81494186406,
			"-0.015": 0.779284068644,
			"-0.014": 1.33248506706,
			"-0.013": 0.802814232759,
			"-0.012": 2.25121763181,
			"-0.011": 3.13650750072,
			"-0.01": 3.27749546479,
			"-0.009": 4.1852803137,
			"-0.008": 3.45136799751,
			"-0.007": 6.66824049291,
			"-0.006": 6.99261676993,
			"-0.005": 7.36418274574,
			"-0.004": 15.0233001339,
			"-0.003": 23.5662938794,
			"-0.002": 20.8098037452,
			"-0.001": 19.4869321316,
			"0.0": 25.4503055522,
			"0.001": 22.9615428007,
			"0.002": 16.4087503419,
			"0.003": 15.7268662469,
			"0.004": 12.7192524056,
			"0.005": 7.87597222153,
			"0.006": 6.37365774202,
			"0.007": 6.59900905251,
			"0.008": 7.41906678236,
			"0.009": 5.00795478534,
			"0.01": 4.19796757905,
			"0.011": 2.42686148876,
			"0.012": 2.25625997959,
			"0.013": 1.96149174606,
			"0.014": 1.2504213516,
			"0.015": 0.578177081389,
			"0.016": 0.0,
			"0.017": 0.0,
			"0.018": 0.0,
			"0.019": 0.0,
			"0.02": 0.0,
			"0.021": 0.0,
			"0.022": 0.0,
			"0.023": 0.0,
			"0.024": 0.0,
			"0.025": 0.0
		}
	}
}
