{
	 "smiles": "CCCC1=C(O)C=CC(C(C)=O)=C1N", 
	 "Tm": 369.15, 
	 "num_atms": 29, 
	 "gaussian": { 
		 "optdone": 1, 
		 "sigma_profile": "yes", 
		 "theory": "DFT", 
		 "functional": "B3LYP", 
		 "basiset": "6-31G**", 
		 "properties": { 
			 "R2extent": 3165.3084, 
			 "electric_dipole_moment_norm": 2.52729479483, 
			 "electric_quadrupole_moment_norm": 13.9084388405, 
			 "total_energy": -633.434947017, 
			 "HOMO_LUMO_gap": 0.16255, 
			 "cosmo_polarized_energy": -12.33, 
			 "cosmo_cavitation_energy": 30.37, 
			 "cosmo_dispersion_energy": -22.3, 
			 "cosmo_repulsion_energy": 1.74, 
			 "cosmo_total_nonelectrostatic_energy": 9.81, 
			 "SMD_solvation_energy": 5.43 
		},
		"coords": [
			{
				"x": -1.8902056654,
				"y": -0.7279649385,
				"z": 2.4862185107,
				"element": "C" 
			},
			{
				"x": -0.4262177377,
				"y": -0.6129994829,
				"z": 2.9203654963,
				"element": "C" 
			},
			{
				"x": 0.4098096626,
				"y": 0.3853521528,
				"z": 2.0827376491,
				"element": "C" 
			},
			{
				"x": 0.628219497,
				"y": -0.0014453852,
				"z": 0.6311856418,
				"element": "C" 
			},
			{
				"x": 1.634347667,
				"y": -0.9177088504,
				"z": 0.3031421941,
				"element": "C" 
			},
			{
				"x": 2.41891508,
				"y": -1.5081706504,
				"z": 1.2490740386,
				"element": "O" 
			},
			{
				"x": 1.9122889699,
				"y": -1.281872599,
				"z": -1.0258261485,
				"element": "C" 
			},
			{
				"x": 1.1631869116,
				"y": -0.7204396853,
				"z": -2.0365073804,
				"element": "C" 
			},
			{
				"x": 0.1244224852,
				"y": 0.2011224227,
				"z": -1.7853380639,
				"element": "C" 
			},
			{
				"x": -0.6737427605,
				"y": 0.7393326928,
				"z": -2.8962032146,
				"element": "C" 
			},
			{
				"x": -0.3521443901,
				"y": 0.3091753601,
				"z": -4.3231477398,
				"element": "C" 
			},
			{
				"x": -1.613150725,
				"y": 1.5317535503,
				"z": -2.7339261601,
				"element": "O" 
			},
			{
				"x": -0.143997001,
				"y": 0.5652271314,
				"z": -0.4218146035,
				"element": "C" 
			},
			{
				"x": -1.1176764796,
				"y": 1.4828122992,
				"z": -0.1493631667,
				"element": "N" 
			},
			{
				"x": -2.4178849076,
				"y": 0.2259959655,
				"z": 2.6089956156,
				"element": "H" 
			},
			{
				"x": -2.4209233658,
				"y": -1.4704828803,
				"z": 3.0903565859,
				"element": "H" 
			},
			{
				"x": -1.9737240445,
				"y": -1.0299438353,
				"z": 1.4377467345,
				"element": "H" 
			},
			{
				"x": -0.380275425,
				"y": -0.3080287522,
				"z": 3.9737569848,
				"element": "H" 
			},
			{
				"x": 0.0389594405,
				"y": -1.6062507473,
				"z": 2.866117252,
				"element": "H" 
			},
			{
				"x": 1.387668063,
				"y": 0.5194869151,
				"z": 2.5711947539,
				"element": "H" 
			},
			{
				"x": -0.0441214291,
				"y": 1.3811192242,
				"z": 2.1415591026,
				"element": "H" 
			},
			{
				"x": 2.1743445641,
				"y": -1.1868903999,
				"z": 2.1257896075,
				"element": "H" 
			},
			{
				"x": 2.7070782823,
				"y": -1.9923257095,
				"z": -1.2205611001,
				"element": "H" 
			},
			{
				"x": 1.3788527654,
				"y": -1.0060924036,
				"z": -3.0597699491,
				"element": "H" 
			},
			{
				"x": -0.4670546886,
				"y": -0.7721498615,
				"z": -4.4525452207,
				"element": "H" 
			},
			{
				"x": 0.6756182867,
				"y": 0.5674722608,
				"z": -4.5989446054,
				"element": "H" 
			},
			{
				"x": -1.0427029559,
				"y": 0.8243980368,
				"z": -4.991295975,
				"element": "H" 
			},
			{
				"x": -1.681698141,
				"y": 1.7664317454,
				"z": -0.9475842415,
				"element": "H" 
			},
			{
				"x": -1.5036919585,
				"y": 1.5366864241,
				"z": 0.7767874019,
				"element": "H" 
			}
		],
		 "valence_orbital": [ 
			{
				"type": "occ",
				"energy": -0.32978,
				"method": "rhf"
			},
			{
				"type": "occ",
				"energy": -0.29765,
				"method": "rhf"
			},
			{
				"type": "occ",
				"energy": -0.24049,
				"method": "rhf"
			},
			{
				"type": "occ",
				"energy": -0.22659,
				"method": "rhf"
			},
			{
				"type": "occ",
				"energy": -0.19971,
				"method": "rhf"
			},
			{
				"type": "unocc",
				"energy": -0.03716,
				"method": "rhf"
			},
			{
				"type": "unocc",
				"energy": 0.01148,
				"method": "rhf"
			},
			{
				"type": "unocc",
				"energy": 0.049,
				"method": "rhf"
			},
			{
				"type": "unocc",
				"energy": 0.06206,
				"method": "rhf"
			},
			{
				"type": "unocc",
				"energy": 0.08467,
				"method": "rhf"
			}
		],
		"cosmo_sigma_profile": { 
			"-0.025": 0.0,
			"-0.024": 0.0,
			"-0.023": 0.0,
			"-0.022": 0.0,
			"-0.021": 0.0,
			"-0.02": 0.0,
			"-0.019": 0.0,
			"-0.018": 0.0,
			"-0.017": 0.0201163395473,
			"-0.016": 0.4307575802,
			"-0.015": 0.642147825266,
			"-0.014": 1.11939002235,
			"-0.013": 0.778888777028,
			"-0.012": 0.505911057644,
			"-0.011": 2.32016115932,
			"-0.01": 2.96765643771,
			"-0.009": 1.74867842755,
			"-0.008": 2.67457480988,
			"-0.007": 3.74041434988,
			"-0.006": 8.16917112898,
			"-0.005": 12.8340643902,
			"-0.004": 14.8145344605,
			"-0.003": 18.1908612474,
			"-0.002": 21.9855381508,
			"-0.001": 26.0260626538,
			"0.0": 22.9696504859,
			"0.001": 17.5195849189,
			"0.002": 12.3125183857,
			"0.003": 11.2290788918,
			"0.004": 14.529331965,
			"0.005": 11.633365339,
			"0.006": 6.08168279553,
			"0.007": 3.62322814572,
			"0.008": 4.41326260216,
			"0.009": 3.42070113716,
			"0.01": 3.79787647366,
			"0.011": 3.48688762319,
			"0.012": 1.97147562938,
			"0.013": 1.82734754299,
			"0.014": 1.04367934027,
			"0.015": 0.0229888545838,
			"0.016": 0.0,
			"0.017": 0.0,
			"0.018": 0.0,
			"0.019": 0.0,
			"0.02": 0.0,
			"0.021": 0.0,
			"0.022": 0.0,
			"0.023": 0.0,
			"0.024": 0.0,
			"0.025": 0.0
		}
	}
}
