{
	 "smiles": "CCOC(=O)C1=C(N)C2=NC=CN=C2S1", 
	 "Tm": 393.15, 
	 "num_atms": 24, 
	 "gaussian": { 
		 "optdone": 1, 
		 "sigma_profile": "yes", 
		 "theory": "DFT", 
		 "functional": "B3LYP", 
		 "basiset": "6-31G**", 
		 "properties": { 
			 "R2extent": 4066.8213, 
			 "electric_dipole_moment_norm": 4.42535068667, 
			 "electric_quadrupole_moment_norm": 14.9265908552, 
			 "total_energy": -1061.28404023, 
			 "HOMO_LUMO_gap": 0.13382, 
			 "cosmo_polarized_energy": -12.79, 
			 "cosmo_cavitation_energy": 30.13, 
			 "cosmo_dispersion_energy": -22.79, 
			 "cosmo_repulsion_energy": 1.74, 
			 "cosmo_total_nonelectrostatic_energy": 9.08, 
			 "SMD_solvation_energy": 2.86 
		},
		"coords": [
			{
				"x": -2.3672733686,
				"y": -4.178894907,
				"z": 0.9786505263,
				"element": "C" 
			},
			{
				"x": -0.8539965762,
				"y": -4.054316728,
				"z": 0.8881839572,
				"element": "C" 
			},
			{
				"x": -0.4286810688,
				"y": -2.6727773102,
				"z": 0.9929566968,
				"element": "O" 
			},
			{
				"x": -0.4329135904,
				"y": -1.9532697963,
				"z": -0.1716983229,
				"element": "C" 
			},
			{
				"x": -0.7659501616,
				"y": -2.4218160097,
				"z": -1.2463360238,
				"element": "O" 
			},
			{
				"x": 0.0021921818,
				"y": -0.5813485682,
				"z": 0.0330387967,
				"element": "C" 
			},
			{
				"x": 0.4045393137,
				"y": 0.0470430887,
				"z": 1.2006361924,
				"element": "C" 
			},
			{
				"x": 0.5410804244,
				"y": -0.4766362607,
				"z": 2.4445645297,
				"element": "N" 
			},
			{
				"x": 0.7267027766,
				"y": 1.4367161133,
				"z": 0.9501543844,
				"element": "C" 
			},
			{
				"x": 1.1253806457,
				"y": 2.3095076156,
				"z": 1.8849963686,
				"element": "N" 
			},
			{
				"x": 1.3681632778,
				"y": 3.5436612721,
				"z": 1.4415037765,
				"element": "C" 
			},
			{
				"x": 1.2162285848,
				"y": 3.9002868205,
				"z": 0.0878501758,
				"element": "C" 
			},
			{
				"x": 0.8139383175,
				"y": 3.0393040085,
				"z": -0.850715946,
				"element": "N" 
			},
			{
				"x": 0.5683862255,
				"y": 1.8059923962,
				"z": -0.4074379469,
				"element": "C" 
			},
			{
				"x": 0.0205551644,
				"y": 0.4761346536,
				"z": -1.3991338679,
				"element": "S" 
			},
			{
				"x": -2.6535048543,
				"y": -5.2359704284,
				"z": 0.9691789773,
				"element": "H" 
			},
			{
				"x": -2.8425053971,
				"y": -3.6871219174,
				"z": 0.1267284503,
				"element": "H" 
			},
			{
				"x": -2.7434627739,
				"y": -3.7302967772,
				"z": 1.9031281549,
				"element": "H" 
			},
			{
				"x": -0.3577657946,
				"y": -4.5552533168,
				"z": 1.723239639,
				"element": "H" 
			},
			{
				"x": -0.4808192506,
				"y": -4.4627803874,
				"z": -0.0532548214,
				"element": "H" 
			},
			{
				"x": 0.6879747301,
				"y": 0.172507864,
				"z": 3.2023027053,
				"element": "H" 
			},
			{
				"x": 0.1669619626,
				"y": -1.394227724,
				"z": 2.6259272962,
				"element": "H" 
			},
			{
				"x": 1.6931054595,
				"y": 4.2813935971,
				"z": 2.1710796149,
				"element": "H" 
			},
			{
				"x": 1.4268637716,
				"y": 4.9164627017,
				"z": -0.2375433135,
				"element": "H" 
			}
		],
		 "valence_orbital": [ 
			{
				"type": "occ",
				"energy": -0.29856,
				"method": "rhf"
			},
			{
				"type": "occ",
				"energy": -0.27604,
				"method": "rhf"
			},
			{
				"type": "occ",
				"energy": -0.26115,
				"method": "rhf"
			},
			{
				"type": "occ",
				"energy": -0.25679,
				"method": "rhf"
			},
			{
				"type": "occ",
				"energy": -0.20979,
				"method": "rhf"
			},
			{
				"type": "unocc",
				"energy": -0.07597,
				"method": "rhf"
			},
			{
				"type": "unocc",
				"energy": -0.03734,
				"method": "rhf"
			},
			{
				"type": "unocc",
				"energy": 0.01052,
				"method": "rhf"
			},
			{
				"type": "unocc",
				"energy": 0.02131,
				"method": "rhf"
			},
			{
				"type": "unocc",
				"energy": 0.08226,
				"method": "rhf"
			}
		],
		"cosmo_sigma_profile": { 
			"-0.025": 0.0,
			"-0.024": 0.0,
			"-0.023": 0.0,
			"-0.022": 0.0,
			"-0.021": 0.0,
			"-0.02": 0.0,
			"-0.019": 0.0,
			"-0.018": 0.0,
			"-0.017": 0.0,
			"-0.016": 0.0,
			"-0.015": 0.0,
			"-0.014": 0.0923617969259,
			"-0.013": 0.797079732243,
			"-0.012": 1.17518646353,
			"-0.011": 1.45515666937,
			"-0.01": 2.22187105457,
			"-0.009": 1.97496763136,
			"-0.008": 6.64153754567,
			"-0.007": 6.039470394,
			"-0.006": 6.68779719906,
			"-0.005": 8.60455229564,
			"-0.004": 14.922041063,
			"-0.003": 19.9498061968,
			"-0.002": 22.6456411907,
			"-0.001": 25.7687347775,
			"0.0": 23.8579171713,
			"0.001": 22.2092925181,
			"0.002": 16.6915936622,
			"0.003": 12.1419513178,
			"0.004": 11.0152028151,
			"0.005": 9.14011544367,
			"0.006": 4.55940547678,
			"0.007": 4.05648366041,
			"0.008": 3.49405106249,
			"0.009": 3.88407850108,
			"0.01": 3.89480962201,
			"0.011": 2.63223599224,
			"0.012": 5.12068416639,
			"0.013": 1.52029455829,
			"0.014": 0.0827062757187,
			"0.015": 0.0,
			"0.016": 0.0,
			"0.017": 0.0,
			"0.018": 0.0,
			"0.019": 0.0,
			"0.02": 0.0,
			"0.021": 0.0,
			"0.022": 0.0,
			"0.023": 0.0,
			"0.024": 0.0,
			"0.025": 0.0
		}
	}
}
