{
	 "smiles": "CC1=CN2C=CC=NC2=N1", 
	 "Tm": 371.15, 
	 "num_atms": 17, 
	 "gaussian": { 
		 "optdone": 1, 
		 "sigma_profile": "yes", 
		 "theory": "DFT", 
		 "functional": "B3LYP", 
		 "basiset": "6-31G**", 
		 "properties": { 
			 "R2extent": 1521.2237, 
			 "electric_dipole_moment_norm": 4.82572114404, 
			 "electric_quadrupole_moment_norm": 10.2438678374, 
			 "total_energy": -435.208182283, 
			 "HOMO_LUMO_gap": 0.16929, 
			 "cosmo_polarized_energy": -14.51, 
			 "cosmo_cavitation_energy": 21.05, 
			 "cosmo_dispersion_energy": -16.0, 
			 "cosmo_repulsion_energy": 1.28, 
			 "cosmo_total_nonelectrostatic_energy": 6.33, 
			 "SMD_solvation_energy": 1.07 
		},
		"coords": [
			{
				"x": 1.9820342888,
				"y": -2.1378465314,
				"z": -0.5390157308,
				"element": "C" 
			},
			{
				"x": 0.9862210665,
				"y": -1.0222802285,
				"z": -0.5798891785,
				"element": "C" 
			},
			{
				"x": -0.3540000535,
				"y": -1.0862355881,
				"z": -0.2365518508,
				"element": "C" 
			},
			{
				"x": -0.8484087122,
				"y": 0.1826003978,
				"z": -0.4388016796,
				"element": "N" 
			},
			{
				"x": -2.0829440433,
				"y": 0.7396833053,
				"z": -0.279348839,
				"element": "C" 
			},
			{
				"x": -2.2359870239,
				"y": 2.0666047,
				"z": -0.5797216833,
				"element": "C" 
			},
			{
				"x": -1.105317238,
				"y": 2.7952575971,
				"z": -1.0410219958,
				"element": "C" 
			},
			{
				"x": 0.0944010802,
				"y": 2.2716450699,
				"z": -1.2005080212,
				"element": "N" 
			},
			{
				"x": 0.2473513512,
				"y": 0.9680818713,
				"z": -0.9060608439,
				"element": "C" 
			},
			{
				"x": 1.3458866532,
				"y": 0.232261652,
				"z": -0.986999592,
				"element": "N" 
			},
			{
				"x": 2.4081347867,
				"y": -2.3088577675,
				"z": -1.5331406661,
				"element": "H" 
			},
			{
				"x": 1.5264059591,
				"y": -3.0686480407,
				"z": -0.1908715062,
				"element": "H" 
			},
			{
				"x": 2.813524489,
				"y": -1.8861412788,
				"z": 0.1275864667,
				"element": "H" 
			},
			{
				"x": -0.9729472794,
				"y": -1.8952513327,
				"z": 0.1203883454,
				"element": "H" 
			},
			{
				"x": -2.8769496338,
				"y": 0.0938522904,
				"z": 0.0787518087,
				"element": "H" 
			},
			{
				"x": -3.2011180404,
				"y": 2.5449542608,
				"z": -0.4659925482,
				"element": "H" 
			},
			{
				"x": -1.2100876503,
				"y": 3.8509196231,
				"z": -1.2842024854,
				"element": "H" 
			}
		],
		 "valence_orbital": [ 
			{
				"type": "occ",
				"energy": -0.34008,
				"method": "rhf"
			},
			{
				"type": "occ",
				"energy": -0.27776,
				"method": "rhf"
			},
			{
				"type": "occ",
				"energy": -0.26179,
				"method": "rhf"
			},
			{
				"type": "occ",
				"energy": -0.24817,
				"method": "rhf"
			},
			{
				"type": "occ",
				"energy": -0.21952,
				"method": "rhf"
			},
			{
				"type": "unocc",
				"energy": -0.05023,
				"method": "rhf"
			},
			{
				"type": "unocc",
				"energy": -0.00182,
				"method": "rhf"
			},
			{
				"type": "unocc",
				"energy": 0.0646,
				"method": "rhf"
			},
			{
				"type": "unocc",
				"energy": 0.08504,
				"method": "rhf"
			},
			{
				"type": "unocc",
				"energy": 0.11582,
				"method": "rhf"
			}
		],
		"cosmo_sigma_profile": { 
			"-0.025": 0.0,
			"-0.024": 0.0,
			"-0.023": 0.0,
			"-0.022": 0.0,
			"-0.021": 0.0,
			"-0.02": 0.0,
			"-0.019": 0.0,
			"-0.018": 0.0,
			"-0.017": 0.0,
			"-0.016": 0.0,
			"-0.015": 0.0,
			"-0.014": 0.0,
			"-0.013": 0.0,
			"-0.012": 0.0,
			"-0.011": 0.687150447935,
			"-0.01": 3.438306464,
			"-0.009": 3.62045227344,
			"-0.008": 5.99202954333,
			"-0.007": 7.41418368411,
			"-0.006": 8.51155110659,
			"-0.005": 8.81919764101,
			"-0.004": 10.4889825844,
			"-0.003": 11.6823901605,
			"-0.002": 13.8815991257,
			"-0.001": 16.4828676008,
			"0.0": 16.2656444894,
			"0.001": 12.7200186751,
			"0.002": 8.19264240029,
			"0.003": 7.25218330644,
			"0.004": 4.60980290313,
			"0.005": 2.32772226709,
			"0.006": 2.42842832604,
			"0.007": 2.63883818454,
			"0.008": 2.33835229053,
			"0.009": 1.35548821863,
			"0.01": 2.31997785699,
			"0.011": 2.01140005676,
			"0.012": 1.66685398192,
			"0.013": 3.12301404712,
			"0.014": 2.59126532305,
			"0.015": 2.57125539161,
			"0.016": 2.0132985671,
			"0.017": 1.06682022751,
			"0.018": 0.704718544787,
			"0.019": 0.0,
			"0.02": 0.0,
			"0.021": 0.0,
			"0.022": 0.0,
			"0.023": 0.0,
			"0.024": 0.0,
			"0.025": 0.0
		}
	}
}
