{
	 "smiles": "CC1=CC=C(C=C1)N1C=C(C(O)=O)C(=N1)C1=CC=CC=C1", 
	 "Tm": 468.15, 
	 "num_atms": 35, 
	 "gaussian": { 
		 "optdone": 1, 
		 "sigma_profile": "yes", 
		 "theory": "DFT", 
		 "functional": "B3LYP", 
		 "basiset": "6-31G**", 
		 "properties": { 
			 "R2extent": 8376.1012, 
			 "electric_dipole_moment_norm": 6.04887704124, 
			 "electric_quadrupole_moment_norm": 16.612938486, 
			 "total_energy": -916.199366714, 
			 "HOMO_LUMO_gap": 0.17477, 
			 "cosmo_polarized_energy": -18.47, 
			 "cosmo_cavitation_energy": 39.73, 
			 "cosmo_dispersion_energy": -28.68, 
			 "cosmo_repulsion_energy": 2.17, 
			 "cosmo_total_nonelectrostatic_energy": 13.21, 
			 "SMD_solvation_energy": 7.2 
		},
		"coords": [
			{
				"x": -2.7777999921,
				"y": -4.1340062178,
				"z": -3.1314320865,
				"element": "C" 
			},
			{
				"x": -2.0864127947,
				"y": -3.0188876855,
				"z": -2.3840918196,
				"element": "C" 
			},
			{
				"x": -0.8160359242,
				"y": -3.2088797502,
				"z": -1.819973661,
				"element": "C" 
			},
			{
				"x": -0.1718732228,
				"y": -2.1974893084,
				"z": -1.1147160795,
				"element": "C" 
			},
			{
				"x": -0.8043490526,
				"y": -0.960371355,
				"z": -0.9554741561,
				"element": "C" 
			},
			{
				"x": -2.0753283001,
				"y": -0.7496949984,
				"z": -1.4952521456,
				"element": "C" 
			},
			{
				"x": -2.6984015841,
				"y": -1.7720818235,
				"z": -2.2095644339,
				"element": "C" 
			},
			{
				"x": -0.141040715,
				"y": 0.077902953,
				"z": -0.2438000011,
				"element": "N" 
			},
			{
				"x": -0.3257308602,
				"y": 1.4156803183,
				"z": -0.3505099924,
				"element": "C" 
			},
			{
				"x": 0.583356423,
				"y": 2.0294960975,
				"z": 0.5010878203,
				"element": "C" 
			},
			{
				"x": 0.6994158032,
				"y": 3.4994991827,
				"z": 0.6428589168,
				"element": "C" 
			},
			{
				"x": -0.4756053476,
				"y": 4.1785582607,
				"z": 0.4810408005,
				"element": "O" 
			},
			{
				"x": 1.7165561408,
				"y": 4.1227329467,
				"z": 0.8416395075,
				"element": "O" 
			},
			{
				"x": 1.3084358092,
				"y": 0.9406791193,
				"z": 1.1012454598,
				"element": "C" 
			},
			{
				"x": 0.8423209049,
				"y": -0.22217881,
				"z": 0.6387054933,
				"element": "N" 
			},
			{
				"x": 2.3611180667,
				"y": 0.9091506238,
				"z": 2.1383956948,
				"element": "C" 
			},
			{
				"x": 2.4626550478,
				"y": -0.2295723709,
				"z": 2.9596918832,
				"element": "C" 
			},
			{
				"x": 3.4543031911,
				"y": -0.3161337992,
				"z": 3.9322280762,
				"element": "C" 
			},
			{
				"x": 4.3626761679,
				"y": 0.7318333371,
				"z": 4.1044183729,
				"element": "C" 
			},
			{
				"x": 4.270068878,
				"y": 1.8626692292,
				"z": 3.2930806819,
				"element": "C" 
			},
			{
				"x": 3.2800476414,
				"y": 1.9561275555,
				"z": 2.3139129178,
				"element": "C" 
			},
			{
				"x": -3.6028857263,
				"y": -3.7560388806,
				"z": -3.7414522392,
				"element": "H" 
			},
			{
				"x": -2.0831564177,
				"y": -4.6624727006,
				"z": -3.79228735,
				"element": "H" 
			},
			{
				"x": -3.1931133611,
				"y": -4.8770749137,
				"z": -2.4395329389,
				"element": "H" 
			},
			{
				"x": -0.3151989209,
				"y": -4.1658788778,
				"z": -1.9419520956,
				"element": "H" 
			},
			{
				"x": 0.811564376,
				"y": -2.3461402563,
				"z": -0.6860190565,
				"element": "H" 
			},
			{
				"x": -2.5897173517,
				"y": 0.1943892043,
				"z": -1.3483007607,
				"element": "H" 
			},
			{
				"x": -3.6860938332,
				"y": -1.5967878807,
				"z": -2.627405178,
				"element": "H" 
			},
			{
				"x": -1.0170193123,
				"y": 1.8414936853,
				"z": -1.0624630569,
				"element": "H" 
			},
			{
				"x": -1.2159628641,
				"y": 3.558669441,
				"z": 0.5373934608,
				"element": "H" 
			},
			{
				"x": 1.7536668773,
				"y": -1.0391365539,
				"z": 2.8251452491,
				"element": "H" 
			},
			{
				"x": 3.5153458675,
				"y": -1.2002015582,
				"z": 4.5607612547,
				"element": "H" 
			},
			{
				"x": 5.1347798818,
				"y": 0.6660181452,
				"z": 4.8659184473,
				"element": "H" 
			},
			{
				"x": 4.9745055805,
				"y": 2.680372469,
				"z": 3.4163329401,
				"element": "H" 
			},
			{
				"x": 3.2154089235,
				"y": 2.8355551719,
				"z": 1.6857700745,
				"element": "H" 
			}
		],
		 "valence_orbital": [ 
			{
				"type": "occ",
				"energy": -0.27057,
				"method": "rhf"
			},
			{
				"type": "occ",
				"energy": -0.26793,
				"method": "rhf"
			},
			{
				"type": "occ",
				"energy": -0.24938,
				"method": "rhf"
			},
			{
				"type": "occ",
				"energy": -0.24217,
				"method": "rhf"
			},
			{
				"type": "occ",
				"energy": -0.2213,
				"method": "rhf"
			},
			{
				"type": "unocc",
				"energy": -0.04653,
				"method": "rhf"
			},
			{
				"type": "unocc",
				"energy": -0.03099,
				"method": "rhf"
			},
			{
				"type": "unocc",
				"energy": -0.01895,
				"method": "rhf"
			},
			{
				"type": "unocc",
				"energy": 0.00672,
				"method": "rhf"
			},
			{
				"type": "unocc",
				"energy": 0.00884,
				"method": "rhf"
			}
		],
		"cosmo_sigma_profile": { 
			"-0.025": 0.0,
			"-0.024": 0.0,
			"-0.023": 0.0,
			"-0.022": 0.0,
			"-0.021": 0.0,
			"-0.02": 0.0,
			"-0.019": 0.188807778715,
			"-0.018": 0.646609462364,
			"-0.017": 1.41496577811,
			"-0.016": 0.997662032162,
			"-0.015": 0.521164589913,
			"-0.014": 0.884122139917,
			"-0.013": 1.42097533051,
			"-0.012": 2.44585069339,
			"-0.011": 2.7297853785,
			"-0.01": 2.52367710574,
			"-0.009": 2.38938508385,
			"-0.008": 2.63573212783,
			"-0.007": 2.79196689182,
			"-0.006": 10.715261113,
			"-0.005": 19.6442257244,
			"-0.004": 25.5146264387,
			"-0.003": 22.6562454374,
			"-0.002": 22.0833744985,
			"-0.001": 23.6760800463,
			"0.0": 26.4392516101,
			"0.001": 23.2537928157,
			"0.002": 19.7176389062,
			"0.003": 22.2186265429,
			"0.004": 26.1586306149,
			"0.005": 20.3013255082,
			"0.006": 8.04065199458,
			"0.007": 4.19566520313,
			"0.008": 4.48463944993,
			"0.009": 5.42402157666,
			"0.01": 4.48183662635,
			"0.011": 4.57681023726,
			"0.012": 2.72735993209,
			"0.013": 1.08437050533,
			"0.014": 0.000565731353496,
			"0.015": 0.0,
			"0.016": 0.0,
			"0.017": 0.0,
			"0.018": 0.0,
			"0.019": 0.0,
			"0.02": 0.0,
			"0.021": 0.0,
			"0.022": 0.0,
			"0.023": 0.0,
			"0.024": 0.0,
			"0.025": 0.0
		}
	}
}
