{
	 "smiles": "CCNS(=O)(=O)C1=CC=C(C=CC(O)=O)C=C1", 
	 "Tm": 522.15, 
	 "num_atms": 30, 
	 "gaussian": { 
		 "optdone": 1, 
		 "sigma_profile": "yes", 
		 "theory": "DFT", 
		 "functional": "B3LYP", 
		 "basiset": "6-31G**", 
		 "properties": { 
			 "R2extent": 7662.0547, 
			 "electric_dipole_moment_norm": 5.93925960706, 
			 "electric_quadrupole_moment_norm": 26.6934938337, 
			 "total_energy": -1180.76466235, 
			 "HOMO_LUMO_gap": 0.16658, 
			 "cosmo_polarized_energy": -26.04, 
			 "cosmo_cavitation_energy": 36.64, 
			 "cosmo_dispersion_energy": -26.33, 
			 "cosmo_repulsion_energy": 2.02, 
			 "cosmo_total_nonelectrostatic_energy": 12.34, 
			 "SMD_solvation_energy": 6.31 
		},
		"coords": [
			{
				"x": -4.2931477615,
				"y": -0.2175599603,
				"z": -2.153453309,
				"element": "C" 
			},
			{
				"x": -3.8435140345,
				"y": -0.0424933416,
				"z": -0.7057320383,
				"element": "C" 
			},
			{
				"x": -3.0606534285,
				"y": -1.2199429826,
				"z": -0.2853364374,
				"element": "N" 
			},
			{
				"x": -2.4416249354,
				"y": -1.2342384051,
				"z": 1.2874327764,
				"element": "S" 
			},
			{
				"x": -3.2450596754,
				"y": -0.3863596859,
				"z": 2.1764713651,
				"element": "O" 
			},
			{
				"x": -2.2073818023,
				"y": -2.6504294296,
				"z": 1.5848710134,
				"element": "O" 
			},
			{
				"x": -0.8560302316,
				"y": -0.4188636072,
				"z": 1.0756246819,
				"element": "C" 
			},
			{
				"x": 0.1903864931,
				"y": -1.1083082405,
				"z": 0.4607811084,
				"element": "C" 
			},
			{
				"x": 1.4189776998,
				"y": -0.4746556552,
				"z": 0.3132517008,
				"element": "C" 
			},
			{
				"x": 1.6229787963,
				"y": 0.8404250637,
				"z": 0.7745792892,
				"element": "C" 
			},
			{
				"x": 2.941993021,
				"y": 1.4533183933,
				"z": 0.5822059629,
				"element": "C" 
			},
			{
				"x": 3.3439430051,
				"y": 2.671430972,
				"z": 0.9884172367,
				"element": "C" 
			},
			{
				"x": 4.7197694948,
				"y": 3.2111751541,
				"z": 0.8191169034,
				"element": "C" 
			},
			{
				"x": 5.4821482213,
				"y": 2.6905700439,
				"z": -0.182668537,
				"element": "O" 
			},
			{
				"x": 5.1677162859,
				"y": 4.0698310276,
				"z": 1.542209922,
				"element": "O" 
			},
			{
				"x": 0.5517416326,
				"y": 1.5062119951,
				"z": 1.3982151828,
				"element": "C" 
			},
			{
				"x": -0.6819428679,
				"y": 0.8822301499,
				"z": 1.5527544438,
				"element": "C" 
			},
			{
				"x": -4.8537642953,
				"y": 0.6626153192,
				"z": -2.4815885047,
				"element": "H" 
			},
			{
				"x": -3.4349585983,
				"y": -0.3525167817,
				"z": -2.8175881432,
				"element": "H" 
			},
			{
				"x": -4.9505367409,
				"y": -1.0876765853,
				"z": -2.2620287278,
				"element": "H" 
			},
			{
				"x": -4.7029468519,
				"y": 0.1279878771,
				"z": -0.0457197531,
				"element": "H" 
			},
			{
				"x": -3.1904441087,
				"y": 0.8324492544,
				"z": -0.6207716548,
				"element": "H" 
			},
			{
				"x": -3.5497960692,
				"y": -2.1044564725,
				"z": -0.4140954887,
				"element": "H" 
			},
			{
				"x": 0.0430270405,
				"y": -2.1258179106,
				"z": 0.1159439073,
				"element": "H" 
			},
			{
				"x": 2.2399386037,
				"y": -1.0056133382,
				"z": -0.1610022894,
				"element": "H" 
			},
			{
				"x": 3.6602733033,
				"y": 0.8101284798,
				"z": 0.072482999,
				"element": "H" 
			},
			{
				"x": 2.6985211333,
				"y": 3.3259183772,
				"z": 1.5651032169,
				"element": "H" 
			},
			{
				"x": 4.93211485,
				"y": 2.1636389216,
				"z": -0.7785714956,
				"element": "H" 
			},
			{
				"x": 0.6799656766,
				"y": 2.5170590984,
				"z": 1.7705920638,
				"element": "H" 
			},
			{
				"x": -1.5054938561,
				"y": 1.3833422688,
				"z": 2.0491026053,
				"element": "H" 
			}
		],
		 "valence_orbital": [ 
			{
				"type": "occ",
				"energy": -0.30724,
				"method": "rhf"
			},
			{
				"type": "occ",
				"energy": -0.28687,
				"method": "rhf"
			},
			{
				"type": "occ",
				"energy": -0.28371,
				"method": "rhf"
			},
			{
				"type": "occ",
				"energy": -0.27798,
				"method": "rhf"
			},
			{
				"type": "occ",
				"energy": -0.25871,
				"method": "rhf"
			},
			{
				"type": "unocc",
				"energy": -0.09213,
				"method": "rhf"
			},
			{
				"type": "unocc",
				"energy": -0.03496,
				"method": "rhf"
			},
			{
				"type": "unocc",
				"energy": -0.01536,
				"method": "rhf"
			},
			{
				"type": "unocc",
				"energy": 0.04763,
				"method": "rhf"
			},
			{
				"type": "unocc",
				"energy": 0.0523,
				"method": "rhf"
			}
		],
		"cosmo_sigma_profile": { 
			"-0.025": 0.0,
			"-0.024": 0.0,
			"-0.023": 0.0,
			"-0.022": 0.0,
			"-0.021": 0.0,
			"-0.02": 0.0,
			"-0.019": 0.272210884594,
			"-0.018": 0.989877686358,
			"-0.017": 1.24012777689,
			"-0.016": 1.00799643326,
			"-0.015": 0.724513532235,
			"-0.014": 1.45951617372,
			"-0.013": 2.00384871302,
			"-0.012": 2.56577896015,
			"-0.011": 2.61636580736,
			"-0.01": 3.1054587637,
			"-0.009": 6.01409370823,
			"-0.008": 7.69734575784,
			"-0.007": 12.0873636824,
			"-0.006": 9.61892017304,
			"-0.005": 12.8659427558,
			"-0.004": 19.4664036321,
			"-0.003": 22.0905565085,
			"-0.002": 22.2334814442,
			"-0.001": 19.3264230989,
			"0.0": 23.7645447856,
			"0.001": 21.6230557972,
			"0.002": 18.5542133642,
			"0.003": 6.07159889428,
			"0.004": 5.25357911493,
			"0.005": 6.15598509022,
			"0.006": 5.55502677389,
			"0.007": 6.26793258035,
			"0.008": 5.97789158437,
			"0.009": 6.95385369817,
			"0.01": 12.4356018974,
			"0.011": 14.014343537,
			"0.012": 8.80780151137,
			"0.013": 2.47650694404,
			"0.014": 0.145278445679,
			"0.015": 0.0,
			"0.016": 0.0,
			"0.017": 0.0,
			"0.018": 0.0,
			"0.019": 0.0,
			"0.02": 0.0,
			"0.021": 0.0,
			"0.022": 0.0,
			"0.023": 0.0,
			"0.024": 0.0,
			"0.025": 0.0
		}
	}
}
