{
	 "smiles": "O=C1NC(=O)C(=NNC2=CC=CC=C2)C(=O)N1", 
	 "Tm": 583.15, 
	 "num_atms": 25, 
	 "gaussian": { 
		 "optdone": 1, 
		 "sigma_profile": "yes", 
		 "theory": "DFT", 
		 "functional": "B3LYP", 
		 "basiset": "6-31G**", 
		 "properties": { 
			 "R2extent": 5896.1785, 
			 "electric_dipole_moment_norm": 3.83595310451, 
			 "electric_quadrupole_moment_norm": 2.47138738161, 
			 "total_energy": -830.591168439, 
			 "HOMO_LUMO_gap": 0.1366, 
			 "cosmo_polarized_energy": -18.8, 
			 "cosmo_cavitation_energy": 31.2, 
			 "cosmo_dispersion_energy": -23.11, 
			 "cosmo_repulsion_energy": 1.77, 
			 "cosmo_total_nonelectrostatic_energy": 9.87, 
			 "SMD_solvation_energy": 7.04 
		},
		"coords": [
			{
				"x": -5.4175098394,
				"y": 3.1870777566,
				"z": 0.6016961691,
				"element": "O" 
			},
			{
				"x": -4.3611343633,
				"y": 2.5922171283,
				"z": 0.5215849466,
				"element": "C" 
			},
			{
				"x": -4.2770432583,
				"y": 1.2785775714,
				"z": 0.056716978,
				"element": "N" 
			},
			{
				"x": -3.1328144633,
				"y": 0.5099384643,
				"z": -0.0749010268,
				"element": "C" 
			},
			{
				"x": -3.2084164125,
				"y": -0.6490022872,
				"z": -0.5039953861,
				"element": "O" 
			},
			{
				"x": -1.8792475462,
				"y": 1.1555481789,
				"z": 0.319272831,
				"element": "C" 
			},
			{
				"x": -0.7009149283,
				"y": 0.5618545759,
				"z": 0.2555791704,
				"element": "N" 
			},
			{
				"x": -0.5939663878,
				"y": -0.6586446422,
				"z": -0.1722912819,
				"element": "N" 
			},
			{
				"x": 0.6585692143,
				"y": -1.2998879984,
				"z": -0.2431324387,
				"element": "C" 
			},
			{
				"x": 0.6894111837,
				"y": -2.6177308344,
				"z": -0.715152973,
				"element": "C" 
			},
			{
				"x": 1.9082105993,
				"y": -3.2879910229,
				"z": -0.8006067603,
				"element": "C" 
			},
			{
				"x": 3.0899974111,
				"y": -2.6507717152,
				"z": -0.4186248671,
				"element": "C" 
			},
			{
				"x": 3.0461524957,
				"y": -1.3340691583,
				"z": 0.0512470889,
				"element": "C" 
			},
			{
				"x": 1.8377101821,
				"y": -0.6496769366,
				"z": 0.143152625,
				"element": "C" 
			},
			{
				"x": -1.8683284573,
				"y": 2.5469356288,
				"z": 0.8242781714,
				"element": "C" 
			},
			{
				"x": -0.8849848026,
				"y": 3.1703721621,
				"z": 1.175749079,
				"element": "O" 
			},
			{
				"x": -3.140973688,
				"y": 3.140716103,
				"z": 0.8764019978,
				"element": "N" 
			},
			{
				"x": -5.1540690677,
				"y": 0.848788873,
				"z": -0.2112397527,
				"element": "H" 
			},
			{
				"x": -1.4547461651,
				"y": -1.1444786275,
				"z": -0.458461295,
				"element": "H" 
			},
			{
				"x": -0.2330663222,
				"y": -3.1100756445,
				"z": -1.0114436868,
				"element": "H" 
			},
			{
				"x": 1.9311703074,
				"y": -4.3098692514,
				"z": -1.1666772903,
				"element": "H" 
			},
			{
				"x": 4.0383692403,
				"y": -3.1746055807,
				"z": -0.4859263132,
				"element": "H" 
			},
			{
				"x": 3.9626435685,
				"y": -0.8338794713,
				"z": 0.3496328985,
				"element": "H" 
			},
			{
				"x": 1.7883051298,
				"y": 0.3704230031,
				"z": 0.5052376909,
				"element": "H" 
			},
			{
				"x": -3.1720236302,
				"y": 4.0936337252,
				"z": 1.2173034253,
				"element": "H" 
			}
		],
		 "valence_orbital": [ 
			{
				"type": "occ",
				"energy": -0.29186,
				"method": "rhf"
			},
			{
				"type": "occ",
				"energy": -0.29067,
				"method": "rhf"
			},
			{
				"type": "occ",
				"energy": -0.26892,
				"method": "rhf"
			},
			{
				"type": "occ",
				"energy": -0.26368,
				"method": "rhf"
			},
			{
				"type": "occ",
				"energy": -0.23219,
				"method": "rhf"
			},
			{
				"type": "unocc",
				"energy": -0.09559,
				"method": "rhf"
			},
			{
				"type": "unocc",
				"energy": -0.01855,
				"method": "rhf"
			},
			{
				"type": "unocc",
				"energy": -0.00842,
				"method": "rhf"
			},
			{
				"type": "unocc",
				"energy": -0.00047,
				"method": "rhf"
			},
			{
				"type": "unocc",
				"energy": 0.0206,
				"method": "rhf"
			}
		],
		"cosmo_sigma_profile": { 
			"-0.025": 0.0,
			"-0.024": 0.0,
			"-0.023": 0.0,
			"-0.022": 0.0,
			"-0.021": 0.0,
			"-0.02": 0.0,
			"-0.019": 0.0,
			"-0.018": 0.0,
			"-0.017": 0.357105167416,
			"-0.016": 1.62907674047,
			"-0.015": 1.857154193,
			"-0.014": 2.02703539181,
			"-0.013": 1.63205064266,
			"-0.012": 1.73227503606,
			"-0.011": 2.14733342326,
			"-0.01": 2.91056797694,
			"-0.009": 3.60161317624,
			"-0.008": 4.38740558666,
			"-0.007": 6.99129700265,
			"-0.006": 14.2318364291,
			"-0.005": 18.8901488007,
			"-0.004": 19.4240051644,
			"-0.003": 17.0484410816,
			"-0.002": 18.2144023747,
			"-0.001": 12.7403459067,
			"0.0": 12.4376164714,
			"0.001": 13.2767563161,
			"0.002": 13.4371099385,
			"0.003": 12.7807916159,
			"0.004": 15.143883133,
			"0.005": 7.2601424472,
			"0.006": 2.97754099951,
			"0.007": 4.29863461073,
			"0.008": 4.27301895564,
			"0.009": 4.60599480214,
			"0.01": 5.44997089003,
			"0.011": 9.51071101884,
			"0.012": 11.5404214829,
			"0.013": 3.04130372858,
			"0.014": 1.24735298396,
			"0.015": 0.0,
			"0.016": 0.0,
			"0.017": 0.0,
			"0.018": 0.0,
			"0.019": 0.0,
			"0.02": 0.0,
			"0.021": 0.0,
			"0.022": 0.0,
			"0.023": 0.0,
			"0.024": 0.0,
			"0.025": 0.0
		}
	}
}
