{
	 "smiles": "CC1=CSC(NCC(F)(F)F)=N1", 
	 "Tm": 416.15, 
	 "num_atms": 19, 
	 "gaussian": { 
		 "optdone": 1, 
		 "sigma_profile": "yes", 
		 "theory": "DFT", 
		 "functional": "B3LYP", 
		 "basiset": "6-31G**", 
		 "properties": { 
			 "R2extent": 3737.3137, 
			 "electric_dipole_moment_norm": 1.30045649677, 
			 "electric_quadrupole_moment_norm": 10.0116154401, 
			 "total_energy": -1040.07358716, 
			 "HOMO_LUMO_gap": 0.20583, 
			 "cosmo_polarized_energy": -8.66, 
			 "cosmo_cavitation_energy": 26.21, 
			 "cosmo_dispersion_energy": -18.99, 
			 "cosmo_repulsion_energy": 1.44, 
			 "cosmo_total_nonelectrostatic_energy": 8.67, 
			 "SMD_solvation_energy": 3.63 
		},
		"coords": [
			{
				"x": -0.7272416063,
				"y": -1.8012778506,
				"z": 2.2973236811,
				"element": "C" 
			},
			{
				"x": -0.3327741053,
				"y": -1.1339038666,
				"z": 1.0137721998,
				"element": "C" 
			},
			{
				"x": 0.9398959083,
				"y": -0.9773343761,
				"z": 0.5558872816,
				"element": "C" 
			},
			{
				"x": 0.9370456865,
				"y": -0.1383841414,
				"z": -0.982384532,
				"element": "S" 
			},
			{
				"x": -0.8260634762,
				"y": -0.0675688494,
				"z": -0.8654487117,
				"element": "C" 
			},
			{
				"x": -1.5743001407,
				"y": 0.4744511447,
				"z": -1.8883735842,
				"element": "N" 
			},
			{
				"x": -2.975697315,
				"y": 0.7705068887,
				"z": -1.684559073,
				"element": "C" 
			},
			{
				"x": -3.2135339021,
				"y": 2.209223636,
				"z": -1.2495780131,
				"element": "C" 
			},
			{
				"x": -4.5341927594,
				"y": 2.4566253182,
				"z": -1.1349622262,
				"element": "F" 
			},
			{
				"x": -2.7116522002,
				"y": 3.0715700108,
				"z": -2.1699976636,
				"element": "F" 
			},
			{
				"x": -2.6286857181,
				"y": 2.4948195933,
				"z": -0.0740879709,
				"element": "F" 
			},
			{
				"x": -1.3300921318,
				"y": -0.6140209016,
				"z": 0.2011082207,
				"element": "N" 
			},
			{
				"x": -1.3893930352,
				"y": -2.6521612501,
				"z": 2.1027960913,
				"element": "H" 
			},
			{
				"x": -1.2764921419,
				"y": -1.1052951256,
				"z": 2.9407595943,
				"element": "H" 
			},
			{
				"x": 0.148613862,
				"y": -2.1609567175,
				"z": 2.8426640025,
				"element": "H" 
			},
			{
				"x": 1.8682962058,
				"y": -1.2874114615,
				"z": 1.012244842,
				"element": "H" 
			},
			{
				"x": -1.0871498066,
				"y": 1.07625698,
				"z": -2.5369685627,
				"element": "H" 
			},
			{
				"x": -3.5368370849,
				"y": 0.6123293951,
				"z": -2.6109233293,
				"element": "H" 
			},
			{
				"x": -3.3618462388,
				"y": 0.1015315734,
				"z": -0.9148722465,
				"element": "H" 
			}
		],
		 "valence_orbital": [ 
			{
				"type": "occ",
				"energy": -0.35195,
				"method": "rhf"
			},
			{
				"type": "occ",
				"energy": -0.30751,
				"method": "rhf"
			},
			{
				"type": "occ",
				"energy": -0.27429,
				"method": "rhf"
			},
			{
				"type": "occ",
				"energy": -0.27088,
				"method": "rhf"
			},
			{
				"type": "occ",
				"energy": -0.2072,
				"method": "rhf"
			},
			{
				"type": "unocc",
				"energy": -0.00137,
				"method": "rhf"
			},
			{
				"type": "unocc",
				"energy": 0.00815,
				"method": "rhf"
			},
			{
				"type": "unocc",
				"energy": 0.06036,
				"method": "rhf"
			},
			{
				"type": "unocc",
				"energy": 0.08028,
				"method": "rhf"
			},
			{
				"type": "unocc",
				"energy": 0.09614,
				"method": "rhf"
			}
		],
		"cosmo_sigma_profile": { 
			"-0.025": 0.0,
			"-0.024": 0.0,
			"-0.023": 0.0,
			"-0.022": 0.0,
			"-0.021": 0.0,
			"-0.02": 0.0,
			"-0.019": 0.0,
			"-0.018": 0.0,
			"-0.017": 0.0,
			"-0.016": 0.0,
			"-0.015": 0.515933936249,
			"-0.014": 1.08331114862,
			"-0.013": 1.29265383423,
			"-0.012": 1.1603650477,
			"-0.011": 0.998973375241,
			"-0.01": 1.27939032499,
			"-0.009": 1.70803348767,
			"-0.008": 5.5415943672,
			"-0.007": 7.35843852661,
			"-0.006": 6.84945582429,
			"-0.005": 8.93105713612,
			"-0.004": 10.189719856,
			"-0.003": 11.0838718764,
			"-0.002": 11.6989399811,
			"-0.001": 12.7391182895,
			"0.0": 15.6196345433,
			"0.001": 14.9071012553,
			"0.002": 25.0306690822,
			"0.003": 36.4556545268,
			"0.004": 13.9422008002,
			"0.005": 9.48642135632,
			"0.006": 4.4302887155,
			"0.007": 3.12660079446,
			"0.008": 0.950835108052,
			"0.009": 1.22279460022,
			"0.01": 1.17875213014,
			"0.011": 1.07283226697,
			"0.012": 1.0389711958,
			"0.013": 0.0943844548172,
			"0.014": 0.0,
			"0.015": 0.0,
			"0.016": 0.0,
			"0.017": 0.0,
			"0.018": 0.0,
			"0.019": 0.0,
			"0.02": 0.0,
			"0.021": 0.0,
			"0.022": 0.0,
			"0.023": 0.0,
			"0.024": 0.0,
			"0.025": 0.0
		}
	}
}
