{
	 "smiles": "CCOC(=O)C(=NNC1=CC=C(Cl)C=C1)C#N", 
	 "Tm": 435.15, 
	 "num_atms": 27, 
	 "gaussian": { 
		 "optdone": 1, 
		 "sigma_profile": "yes", 
		 "theory": "DFT", 
		 "functional": "B3LYP", 
		 "basiset": "6-31G**", 
		 "properties": { 
			 "R2extent": 7399.2281, 
			 "electric_dipole_moment_norm": 3.4284940805, 
			 "electric_quadrupole_moment_norm": 24.0263171897, 
			 "total_energy": -1200.04961957, 
			 "HOMO_LUMO_gap": 0.14147, 
			 "cosmo_polarized_energy": -16.06, 
			 "cosmo_cavitation_energy": 36.16, 
			 "cosmo_dispersion_energy": -25.2, 
			 "cosmo_repulsion_energy": 2.01, 
			 "cosmo_total_nonelectrostatic_energy": 12.96, 
			 "SMD_solvation_energy": 7.92 
		},
		"coords": [
			{
				"x": -2.9212815552,
				"y": -2.108140238,
				"z": 3.4097585753,
				"element": "C" 
			},
			{
				"x": -3.4556854944,
				"y": -0.9828785828,
				"z": 2.5454490807,
				"element": "C" 
			},
			{
				"x": -2.3772652449,
				"y": -0.5556992846,
				"z": 1.6768891823,
				"element": "O" 
			},
			{
				"x": -2.6810591387,
				"y": 0.4413100611,
				"z": 0.8326450186,
				"element": "C" 
			},
			{
				"x": -3.7642683868,
				"y": 0.9871343875,
				"z": 0.7550436553,
				"element": "O" 
			},
			{
				"x": -1.5375787863,
				"y": 0.8345177724,
				"z": -0.0303309798,
				"element": "C" 
			},
			{
				"x": -0.3801776978,
				"y": 0.2338049615,
				"z": 0.0704361823,
				"element": "N" 
			},
			{
				"x": 0.6181522383,
				"y": 0.5935597815,
				"z": -0.6995580336,
				"element": "N" 
			},
			{
				"x": 1.8751719615,
				"y": -0.0304307013,
				"z": -0.6184320756,
				"element": "C" 
			},
			{
				"x": 2.1191419161,
				"y": -1.0682221024,
				"z": 0.2901448272,
				"element": "C" 
			},
			{
				"x": 3.3783946148,
				"y": -1.6577518404,
				"z": 0.3370224479,
				"element": "C" 
			},
			{
				"x": 4.3881286048,
				"y": -1.2129785421,
				"z": -0.5190062491,
				"element": "C" 
			},
			{
				"x": 5.9735498029,
				"y": -1.9622750497,
				"z": -0.4531221757,
				"element": "Cl" 
			},
			{
				"x": 4.1509213603,
				"y": -0.1803205704,
				"z": -1.425442806,
				"element": "C" 
			},
			{
				"x": 2.8913622447,
				"y": 0.4113225757,
				"z": -1.4741605009,
				"element": "C" 
			},
			{
				"x": -1.7439854225,
				"y": 1.8923634195,
				"z": -0.97667998,
				"element": "C" 
			},
			{
				"x": -1.7363846307,
				"y": 2.7245158735,
				"z": -1.7921076489,
				"element": "N" 
			},
			{
				"x": -2.5910319849,
				"y": -2.9504929246,
				"z": 2.7953608929,
				"element": "H" 
			},
			{
				"x": -3.7079149422,
				"y": -2.4609109947,
				"z": 4.0838260651,
				"element": "H" 
			},
			{
				"x": -2.0757781665,
				"y": -1.7690898006,
				"z": 4.014972405,
				"element": "H" 
			},
			{
				"x": -3.7876643819,
				"y": -0.1262773498,
				"z": 3.1402091562,
				"element": "H" 
			},
			{
				"x": -4.2999350954,
				"y": -1.3016421792,
				"z": 1.9263695261,
				"element": "H" 
			},
			{
				"x": 0.4911277663,
				"y": 1.3451220484,
				"z": -1.3796373441,
				"element": "H" 
			},
			{
				"x": 1.3246456864,
				"y": -1.4009975599,
				"z": 0.9469207626,
				"element": "H" 
			},
			{
				"x": 3.577343169,
				"y": -2.4617375226,
				"z": 1.0367843382,
				"element": "H" 
			},
			{
				"x": 4.9409164829,
				"y": 0.1582848914,
				"z": -2.0860130693,
				"element": "H" 
			},
			{
				"x": 2.7017550804,
				"y": 1.2166094706,
				"z": -2.1789412528,
				"element": "H" 
			}
		],
		 "valence_orbital": [ 
			{
				"type": "occ",
				"energy": -0.30863,
				"method": "rhf"
			},
			{
				"type": "occ",
				"energy": -0.29303,
				"method": "rhf"
			},
			{
				"type": "occ",
				"energy": -0.28608,
				"method": "rhf"
			},
			{
				"type": "occ",
				"energy": -0.28256,
				"method": "rhf"
			},
			{
				"type": "occ",
				"energy": -0.23207,
				"method": "rhf"
			},
			{
				"type": "unocc",
				"energy": -0.0906,
				"method": "rhf"
			},
			{
				"type": "unocc",
				"energy": -0.03195,
				"method": "rhf"
			},
			{
				"type": "unocc",
				"energy": -0.00996,
				"method": "rhf"
			},
			{
				"type": "unocc",
				"energy": 0.00914,
				"method": "rhf"
			},
			{
				"type": "unocc",
				"energy": 0.0127,
				"method": "rhf"
			}
		],
		"cosmo_sigma_profile": { 
			"-0.025": 0.0,
			"-0.024": 0.0,
			"-0.023": 0.0,
			"-0.022": 0.0,
			"-0.021": 0.0,
			"-0.02": 0.0,
			"-0.019": 0.0,
			"-0.018": 0.0,
			"-0.017": 0.0,
			"-0.016": 0.176957196749,
			"-0.015": 1.61793221066,
			"-0.014": 1.08017170569,
			"-0.013": 1.21373111434,
			"-0.012": 1.45894696962,
			"-0.011": 1.03248328074,
			"-0.01": 1.9465101684,
			"-0.009": 2.50629302876,
			"-0.008": 4.77596084283,
			"-0.007": 7.82581816956,
			"-0.006": 10.1813637733,
			"-0.005": 15.7330401992,
			"-0.004": 24.966966004,
			"-0.003": 21.9143800568,
			"-0.002": 22.9870295005,
			"-0.001": 21.4872015464,
			"0.0": 22.2170864534,
			"0.001": 21.9897324672,
			"0.002": 24.3029619828,
			"0.003": 17.8681955208,
			"0.004": 14.8174444706,
			"0.005": 11.0673111977,
			"0.006": 5.25850590527,
			"0.007": 6.25533753587,
			"0.008": 5.33361922015,
			"0.009": 5.80838988081,
			"0.01": 6.2739883477,
			"0.011": 6.78976855956,
			"0.012": 3.77215662352,
			"0.013": 0.0355250831416,
			"0.014": 0.0,
			"0.015": 0.0,
			"0.016": 0.0,
			"0.017": 0.0,
			"0.018": 0.0,
			"0.019": 0.0,
			"0.02": 0.0,
			"0.021": 0.0,
			"0.022": 0.0,
			"0.023": 0.0,
			"0.024": 0.0,
			"0.025": 0.0
		}
	}
}
