{
	 "smiles": "COC(=O)CC(=O)C1=CC=C(C=C1)C(F)(F)F", 
	 "Tm": 332.65, 
	 "num_atms": 26, 
	 "gaussian": { 
		 "optdone": 1, 
		 "sigma_profile": "yes", 
		 "theory": "DFT", 
		 "functional": "B3LYP", 
		 "basiset": "6-31G**", 
		 "properties": { 
			 "R2extent": 5755.6701, 
			 "electric_dipole_moment_norm": 2.16826751578, 
			 "electric_quadrupole_moment_norm": 11.3096215441, 
			 "total_energy": -949.799687749, 
			 "HOMO_LUMO_gap": 0.1852, 
			 "cosmo_polarized_energy": -10.51, 
			 "cosmo_cavitation_energy": 32.81, 
			 "cosmo_dispersion_energy": -22.69, 
			 "cosmo_repulsion_energy": 1.71, 
			 "cosmo_total_nonelectrostatic_energy": 11.83, 
			 "SMD_solvation_energy": 8.82 
		},
		"coords": [
			{
				"x": -3.696524058,
				"y": 3.4241992926,
				"z": 1.7934964024,
				"element": "C" 
			},
			{
				"x": -2.3506488448,
				"y": 3.4711797949,
				"z": 1.2834701816,
				"element": "O" 
			},
			{
				"x": -2.1753215969,
				"y": 2.9388714121,
				"z": 0.0616286392,
				"element": "C" 
			},
			{
				"x": -3.0680499359,
				"y": 2.4537557764,
				"z": -0.6017550016,
				"element": "O" 
			},
			{
				"x": -0.7150226446,
				"y": 3.0177560548,
				"z": -0.3591378772,
				"element": "C" 
			},
			{
				"x": 0.1771539707,
				"y": 1.9878002088,
				"z": 0.3571236161,
				"element": "C" 
			},
			{
				"x": 0.9783888017,
				"y": 2.3654245489,
				"z": 1.1936026297,
				"element": "O" 
			},
			{
				"x": 0.0671921897,
				"y": 0.5391077254,
				"z": -0.0111048226,
				"element": "C" 
			},
			{
				"x": -0.8685759477,
				"y": 0.0534120692,
				"z": -0.9372052344,
				"element": "C" 
			},
			{
				"x": -0.9105532004,
				"y": -1.3067864222,
				"z": -1.2404058175,
				"element": "C" 
			},
			{
				"x": -0.0184739058,
				"y": -2.1866366274,
				"z": -0.6249808718,
				"element": "C" 
			},
			{
				"x": 0.9157979138,
				"y": -1.7114493857,
				"z": 0.3031171055,
				"element": "C" 
			},
			{
				"x": 0.9547855105,
				"y": -0.3572378517,
				"z": 0.6075230979,
				"element": "C" 
			},
			{
				"x": -0.0213361167,
				"y": -3.6468012182,
				"z": -0.997787538,
				"element": "C" 
			},
			{
				"x": 0.8585387057,
				"y": -3.9015220935,
				"z": -1.9931329264,
				"element": "F" 
			},
			{
				"x": 0.327896143,
				"y": -4.4297110422,
				"z": 0.0460771916,
				"element": "F" 
			},
			{
				"x": -1.2342870065,
				"y": -4.0555026276,
				"z": -1.4273599187,
				"element": "F" 
			},
			{
				"x": -3.6487994736,
				"y": 3.8757173867,
				"z": 2.7836863298,
				"element": "H" 
			},
			{
				"x": -4.0457685705,
				"y": 2.3909387796,
				"z": 1.8562488079,
				"element": "H" 
			},
			{
				"x": -4.3706831606,
				"y": 3.9881008732,
				"z": 1.1444759273,
				"element": "H" 
			},
			{
				"x": -0.31535103,
				"y": 3.9977065654,
				"z": -0.0940708571,
				"element": "H" 
			},
			{
				"x": -0.674314264,
				"y": 2.8768127462,
				"z": -1.4413958852,
				"element": "H" 
			},
			{
				"x": -1.5846894707,
				"y": 0.7206893511,
				"z": -1.4038910483,
				"element": "H" 
			},
			{
				"x": -1.6410326709,
				"y": -1.6851381928,
				"z": -1.9467669473,
				"element": "H" 
			},
			{
				"x": 1.598090103,
				"y": -2.4034415063,
				"z": 0.784887859,
				"element": "H" 
			},
			{
				"x": 1.6662885597,
				"y": 0.0360543821,
				"z": 1.325256958,
				"element": "H" 
			}
		],
		 "valence_orbital": [ 
			{
				"type": "occ",
				"energy": -0.31708,
				"method": "rhf"
			},
			{
				"type": "occ",
				"energy": -0.29222,
				"method": "rhf"
			},
			{
				"type": "occ",
				"energy": -0.27898,
				"method": "rhf"
			},
			{
				"type": "occ",
				"energy": -0.27591,
				"method": "rhf"
			},
			{
				"type": "occ",
				"energy": -0.26479,
				"method": "rhf"
			},
			{
				"type": "unocc",
				"energy": -0.07959,
				"method": "rhf"
			},
			{
				"type": "unocc",
				"energy": -0.02576,
				"method": "rhf"
			},
			{
				"type": "unocc",
				"energy": -0.00918,
				"method": "rhf"
			},
			{
				"type": "unocc",
				"energy": 0.01839,
				"method": "rhf"
			},
			{
				"type": "unocc",
				"energy": 0.09146,
				"method": "rhf"
			}
		],
		"cosmo_sigma_profile": { 
			"-0.025": 0.0,
			"-0.024": 0.0,
			"-0.023": 0.0,
			"-0.022": 0.0,
			"-0.021": 0.0,
			"-0.02": 0.0,
			"-0.019": 0.0,
			"-0.018": 0.0,
			"-0.017": 0.0,
			"-0.016": 0.0,
			"-0.015": 0.0,
			"-0.014": 0.0,
			"-0.013": 0.0,
			"-0.012": 0.0,
			"-0.011": 0.0,
			"-0.01": 0.0,
			"-0.009": 0.0629743608201,
			"-0.008": 3.65324383439,
			"-0.007": 10.065467817,
			"-0.006": 18.4866494772,
			"-0.005": 19.9524496358,
			"-0.004": 21.4585673553,
			"-0.003": 15.766401339,
			"-0.002": 14.2399473522,
			"-0.001": 14.8522871067,
			"0.0": 19.594328144,
			"0.001": 24.8985466537,
			"0.002": 33.6434235529,
			"0.003": 26.3824929664,
			"0.004": 5.37868643158,
			"0.005": 3.95788316669,
			"0.006": 3.87139331147,
			"0.007": 4.04211002359,
			"0.008": 3.75786343494,
			"0.009": 4.69664838903,
			"0.01": 4.75992419689,
			"0.011": 7.54634433103,
			"0.012": 1.54069799939,
			"0.013": 0.0,
			"0.014": 0.0,
			"0.015": 0.0,
			"0.016": 0.0,
			"0.017": 0.0,
			"0.018": 0.0,
			"0.019": 0.0,
			"0.02": 0.0,
			"0.021": 0.0,
			"0.022": 0.0,
			"0.023": 0.0,
			"0.024": 0.0,
			"0.025": 0.0
		}
	}
}
