{
	 "smiles": "COC(=O)C1=CC(O)=CC=C1O", 
	 "Tm": 360.15, 
	 "num_atms": 20, 
	 "gaussian": { 
		 "optdone": 1, 
		 "sigma_profile": "yes", 
		 "theory": "DFT", 
		 "functional": "B3LYP", 
		 "basiset": "6-31G**", 
		 "properties": { 
			 "R2extent": 2829.764, 
			 "electric_dipole_moment_norm": 1.72726439493, 
			 "electric_quadrupole_moment_norm": 10.6916608111, 
			 "total_energy": -610.574281426, 
			 "HOMO_LUMO_gap": 0.15967, 
			 "cosmo_polarized_energy": -12.32, 
			 "cosmo_cavitation_energy": 24.48, 
			 "cosmo_dispersion_energy": -18.38, 
			 "cosmo_repulsion_energy": 1.46, 
			 "cosmo_total_nonelectrostatic_energy": 7.56, 
			 "SMD_solvation_energy": 6.38 
		},
		"coords": [
			{
				"x": -3.4846822672,
				"y": 2.959726975,
				"z": 1.0407482021,
				"element": "C" 
			},
			{
				"x": -2.842861875,
				"y": 1.6818496196,
				"z": 1.2089474364,
				"element": "O" 
			},
			{
				"x": -1.8044602664,
				"y": 1.422400781,
				"z": 0.3496019434,
				"element": "C" 
			},
			{
				"x": -1.4641285934,
				"y": 2.2300377643,
				"z": -0.4906167306,
				"element": "O" 
			},
			{
				"x": -1.1846086389,
				"y": 0.0969747849,
				"z": 0.5690281552,
				"element": "C" 
			},
			{
				"x": -0.1098681383,
				"y": -0.2256836457,
				"z": -0.2866981329,
				"element": "C" 
			},
			{
				"x": 0.552498453,
				"y": -1.4375149987,
				"z": -0.180218676,
				"element": "C" 
			},
			{
				"x": 1.6001682149,
				"y": -1.79974776,
				"z": -0.9845659659,
				"element": "O" 
			},
			{
				"x": 0.143728112,
				"y": -2.3592215283,
				"z": 0.7987981841,
				"element": "C" 
			},
			{
				"x": -0.908752916,
				"y": -2.0580489756,
				"z": 1.6460801509,
				"element": "C" 
			},
			{
				"x": -1.5921275999,
				"y": -0.8331418611,
				"z": 1.5520909473,
				"element": "C" 
			},
			{
				"x": -2.6061563547,
				"y": -0.6381158962,
				"z": 2.4279643023,
				"element": "O" 
			},
			{
				"x": -2.766566954,
				"y": 3.7678523779,
				"z": 1.1945397195,
				"element": "H" 
			},
			{
				"x": -3.9058294198,
				"y": 3.043255614,
				"z": 0.0367209194,
				"element": "H" 
			},
			{
				"x": -4.2717432957,
				"y": 2.9943448836,
				"z": 1.7935206121,
				"element": "H" 
			},
			{
				"x": 0.1763099709,
				"y": 0.512703939,
				"z": -1.030369741,
				"element": "H" 
			},
			{
				"x": 1.7793468928,
				"y": -1.0845486326,
				"z": -1.6084738981,
				"element": "H" 
			},
			{
				"x": 0.6673547394,
				"y": -3.3066404,
				"z": 0.8763345084,
				"element": "H" 
			},
			{
				"x": -1.2328501806,
				"y": -2.7617506412,
				"z": 2.4053564336,
				"element": "H" 
			},
			{
				"x": -2.9898698832,
				"y": 0.2397676003,
				"z": 2.2562116297,
				"element": "H" 
			}
		],
		 "valence_orbital": [ 
			{
				"type": "occ",
				"energy": -0.31917,
				"method": "rhf"
			},
			{
				"type": "occ",
				"energy": -0.30491,
				"method": "rhf"
			},
			{
				"type": "occ",
				"energy": -0.2861,
				"method": "rhf"
			},
			{
				"type": "occ",
				"energy": -0.26119,
				"method": "rhf"
			},
			{
				"type": "occ",
				"energy": -0.20723,
				"method": "rhf"
			},
			{
				"type": "unocc",
				"energy": -0.04756,
				"method": "rhf"
			},
			{
				"type": "unocc",
				"energy": 0.01434,
				"method": "rhf"
			},
			{
				"type": "unocc",
				"energy": 0.05959,
				"method": "rhf"
			},
			{
				"type": "unocc",
				"energy": 0.07183,
				"method": "rhf"
			},
			{
				"type": "unocc",
				"energy": 0.09173,
				"method": "rhf"
			}
		],
		"cosmo_sigma_profile": { 
			"-0.025": 0.0,
			"-0.024": 0.0,
			"-0.023": 0.0,
			"-0.022": 0.0,
			"-0.021": 0.0,
			"-0.02": 0.0,
			"-0.019": 0.0,
			"-0.018": 0.325119668502,
			"-0.017": 1.45429534858,
			"-0.016": 0.91942807663,
			"-0.015": 1.07320410373,
			"-0.014": 1.13353610573,
			"-0.013": 0.939114271702,
			"-0.012": 0.779635454362,
			"-0.011": 0.957598764318,
			"-0.01": 1.36400303739,
			"-0.009": 1.71622436979,
			"-0.008": 1.95138945844,
			"-0.007": 5.55099989751,
			"-0.006": 12.0103826062,
			"-0.005": 13.3723014803,
			"-0.004": 15.0725234101,
			"-0.003": 15.3310849497,
			"-0.002": 10.9298344353,
			"-0.001": 9.28256868856,
			"0.0": 8.72120455916,
			"0.001": 10.5574192965,
			"0.002": 13.9310086837,
			"0.003": 19.6004187446,
			"0.004": 10.1550089504,
			"0.005": 5.09740531521,
			"0.006": 3.79372369293,
			"0.007": 3.9370615111,
			"0.008": 4.34700998009,
			"0.009": 4.80943869615,
			"0.01": 4.84583643212,
			"0.011": 7.87530156069,
			"0.012": 3.35084492444,
			"0.013": 0.0,
			"0.014": 0.0,
			"0.015": 0.0,
			"0.016": 0.0,
			"0.017": 0.0,
			"0.018": 0.0,
			"0.019": 0.0,
			"0.02": 0.0,
			"0.021": 0.0,
			"0.022": 0.0,
			"0.023": 0.0,
			"0.024": 0.0,
			"0.025": 0.0
		}
	}
}
