{
	 "smiles": "OC(=O)C(=CC1=CC=CC=C1[N+]([O-])=O)C1=CC=C(C=C1)[N+]([O-])=O", 
	 "Tm": 457.15, 
	 "num_atms": 33, 
	 "gaussian": { 
		 "optdone": 1, 
		 "sigma_profile": "yes", 
		 "theory": "DFT", 
		 "functional": "B3LYP", 
		 "basiset": "6-31G**", 
		 "properties": { 
			 "R2extent": 7099.5271, 
			 "electric_dipole_moment_norm": 8.39696504578, 
			 "electric_quadrupole_moment_norm": 22.4150329317, 
			 "total_energy": -1138.25960173, 
			 "HOMO_LUMO_gap": 0.15891, 
			 "cosmo_polarized_energy": -20.75, 
			 "cosmo_cavitation_energy": 40.01, 
			 "cosmo_dispersion_energy": -26.69, 
			 "cosmo_repulsion_energy": 2.05, 
			 "cosmo_total_nonelectrostatic_energy": 15.37, 
			 "SMD_solvation_energy": 12.37 
		},
		"coords": [
			{
				"x": -2.6628948242,
				"y": 0.347780745,
				"z": 3.1163492067,
				"element": "O" 
			},
			{
				"x": -1.4105761563,
				"y": 0.0869041274,
				"z": 2.6651156838,
				"element": "C" 
			},
			{
				"x": -0.5121774513,
				"y": -0.2336166005,
				"z": 3.4161933922,
				"element": "O" 
			},
			{
				"x": -1.2657784557,
				"y": 0.2352511349,
				"z": 1.1830512604,
				"element": "C" 
			},
			{
				"x": -2.3663584881,
				"y": 0.4675552627,
				"z": 0.4378920486,
				"element": "C" 
			},
			{
				"x": -2.4544247502,
				"y": 0.6337718962,
				"z": -1.0314844843,
				"element": "C" 
			},
			{
				"x": -3.0196336356,
				"y": 1.8282823192,
				"z": -1.510461949,
				"element": "C" 
			},
			{
				"x": -3.1062754489,
				"y": 2.105662828,
				"z": -2.8736104689,
				"element": "C" 
			},
			{
				"x": -2.6277350915,
				"y": 1.1855020187,
				"z": -3.807584913,
				"element": "C" 
			},
			{
				"x": -2.0800021811,
				"y": -0.0159466397,
				"z": -3.3673188776,
				"element": "C" 
			},
			{
				"x": -2.0158833084,
				"y": -0.2864931086,
				"z": -2.0014650088,
				"element": "C" 
			},
			{
				"x": -1.5197824145,
				"y": -1.6239975235,
				"z": -1.6263112236,
				"element": "N" 
			},
			{
				"x": -0.6935503851,
				"y": -2.1458876433,
				"z": -2.372553,
				"element": "O" 
			},
			{
				"x": -1.9866154109,
				"y": -2.145145046,
				"z": -0.6158565074,
				"element": "O" 
			},
			{
				"x": 0.1112938063,
				"y": 0.0964779135,
				"z": 0.6365478854,
				"element": "C" 
			},
			{
				"x": 0.9027778421,
				"y": -1.0236926892,
				"z": 0.9450881367,
				"element": "C" 
			},
			{
				"x": 2.1840699666,
				"y": -1.152291018,
				"z": 0.4202616804,
				"element": "C" 
			},
			{
				"x": 2.6762967377,
				"y": -0.1450539771,
				"z": -0.4072886355,
				"element": "C" 
			},
			{
				"x": 1.923753745,
				"y": 0.9829487449,
				"z": -0.7238785018,
				"element": "C" 
			},
			{
				"x": 0.6410529717,
				"y": 1.0957656971,
				"z": -0.1975694819,
				"element": "C" 
			},
			{
				"x": 4.0335925557,
				"y": -0.2730151534,
				"z": -0.9610231516,
				"element": "N" 
			},
			{
				"x": 4.6837795942,
				"y": -1.2713384191,
				"z": -0.6546825646,
				"element": "O" 
			},
			{
				"x": 4.4364483885,
				"y": 0.6277975423,
				"z": -1.6972992695,
				"element": "O" 
			},
			{
				"x": -2.6298208552,
				"y": 0.2061621093,
				"z": 4.076534687,
				"element": "H" 
			},
			{
				"x": -3.3049968425,
				"y": 0.6058551889,
				"z": 0.9670116768,
				"element": "H" 
			},
			{
				"x": -3.3768530042,
				"y": 2.5568634405,
				"z": -0.7885167516,
				"element": "H" 
			},
			{
				"x": -3.5452554807,
				"y": 3.0420352135,
				"z": -3.2039536696,
				"element": "H" 
			},
			{
				"x": -2.6902756348,
				"y": 1.3935905719,
				"z": -4.8706404268,
				"element": "H" 
			},
			{
				"x": -1.7109349705,
				"y": -0.7610865326,
				"z": -4.0613921239,
				"element": "H" 
			},
			{
				"x": 0.5091420318,
				"y": -1.7959676258,
				"z": 1.593723801,
				"element": "H" 
			},
			{
				"x": 2.8031818752,
				"y": -2.0130005354,
				"z": 0.6388678599,
				"element": "H" 
			},
			{
				"x": 2.3485580757,
				"y": 1.7465678159,
				"z": -1.3629162895,
				"element": "H" 
			},
			{
				"x": 0.0468771994,
				"y": 1.9744579422,
				"z": -0.4247300198,
				"element": "H" 
			}
		],
		 "valence_orbital": [ 
			{
				"type": "occ",
				"energy": -0.28824,
				"method": "rhf"
			},
			{
				"type": "occ",
				"energy": -0.28669,
				"method": "rhf"
			},
			{
				"type": "occ",
				"energy": -0.28542,
				"method": "rhf"
			},
			{
				"type": "occ",
				"energy": -0.27209,
				"method": "rhf"
			},
			{
				"type": "occ",
				"energy": -0.25885,
				"method": "rhf"
			},
			{
				"type": "unocc",
				"energy": -0.09994,
				"method": "rhf"
			},
			{
				"type": "unocc",
				"energy": -0.09051,
				"method": "rhf"
			},
			{
				"type": "unocc",
				"energy": -0.06771,
				"method": "rhf"
			},
			{
				"type": "unocc",
				"energy": -0.03627,
				"method": "rhf"
			},
			{
				"type": "unocc",
				"energy": -0.02141,
				"method": "rhf"
			}
		],
		"cosmo_sigma_profile": { 
			"-0.025": 0.0,
			"-0.024": 0.0,
			"-0.023": 0.0,
			"-0.022": 0.0,
			"-0.021": 0.0,
			"-0.02": 0.0,
			"-0.019": 0.285974788816,
			"-0.018": 1.00174271327,
			"-0.017": 0.752471103838,
			"-0.016": 0.701689499219,
			"-0.015": 0.810231535876,
			"-0.014": 0.737446945337,
			"-0.013": 0.369540780236,
			"-0.012": 0.670714439487,
			"-0.011": 0.885046045702,
			"-0.01": 0.750035208218,
			"-0.009": 0.594720760694,
			"-0.008": 8.53235212282,
			"-0.007": 18.3153367461,
			"-0.006": 21.4238856197,
			"-0.005": 19.10043052,
			"-0.004": 15.8227793335,
			"-0.003": 18.9908032125,
			"-0.002": 21.0420132252,
			"-0.001": 23.8592340479,
			"0.0": 26.4303322263,
			"0.001": 26.2310188686,
			"0.002": 19.2324543942,
			"0.003": 10.0350073323,
			"0.004": 7.85400975312,
			"0.005": 10.1231186053,
			"0.006": 11.079966053,
			"0.007": 19.0500367368,
			"0.008": 14.9213292173,
			"0.009": 9.54741340001,
			"0.01": 6.5093554647,
			"0.011": 4.54728945657,
			"0.012": 1.33473223324,
			"0.013": 0.0,
			"0.014": 0.0,
			"0.015": 0.0,
			"0.016": 0.0,
			"0.017": 0.0,
			"0.018": 0.0,
			"0.019": 0.0,
			"0.02": 0.0,
			"0.021": 0.0,
			"0.022": 0.0,
			"0.023": 0.0,
			"0.024": 0.0,
			"0.025": 0.0
		}
	}
}
