{
	 "smiles": "C=C=C", 
	 "Tm": 137.15, 
	 "num_atms": 7, 
	 "gaussian": { 
		 "optdone": 1, 
		 "sigma_profile": "yes", 
		 "theory": "DFT", 
		 "functional": "B3LYP", 
		 "basiset": "6-31G**", 
		 "properties": { 
			 "R2extent": 375.1961, 
			 "electric_dipole_moment_norm": 0.000458257569496, 
			 "electric_quadrupole_moment_norm": 2.19747008626, 
			 "total_energy": -116.661293123, 
			 "HOMO_LUMO_gap": 0.28315, 
			 "cosmo_polarized_energy": -2.06, 
			 "cosmo_cavitation_energy": 11.04, 
			 "cosmo_dispersion_energy": -7.69, 
			 "cosmo_repulsion_energy": 0.74, 
			 "cosmo_total_nonelectrostatic_energy": 4.09, 
			 "SMD_solvation_energy": 3.73 
		},
		"coords": [
			{
				"x": 0.6645189864,
				"y": 0.3600651597,
				"z": 0.3917758924,
				"element": "C" 
			},
			{
				"x": 1.3829125724,
				"y": 0.3796555118,
				"z": -0.6995562958,
				"element": "C" 
			},
			{
				"x": 2.1015513718,
				"y": 0.3992584276,
				"z": -1.7907243114,
				"element": "C" 
			},
			{
				"x": 0.3239304902,
				"y": 1.2788793894,
				"z": 0.8633623448,
				"element": "H" 
			},
			{
				"x": 0.3806662201,
				"y": -0.5757836388,
				"z": 0.8674118972,
				"element": "H" 
			},
			{
				"x": 1.6392204507,
				"y": 0.3830160868,
				"z": -2.7748993357,
				"element": "H" 
			},
			{
				"x": 3.1878999084,
				"y": 0.4327090635,
				"z": -1.7540701915,
				"element": "H" 
			}
		],
		 "valence_orbital": [ 
			{
				"type": "occ",
				"energy": -0.44873,
				"method": "rhf"
			},
			{
				"type": "occ",
				"energy": -0.43898,
				"method": "rhf"
			},
			{
				"type": "occ",
				"energy": -0.43898,
				"method": "rhf"
			},
			{
				"type": "occ",
				"energy": -0.26291,
				"method": "rhf"
			},
			{
				"type": "occ",
				"energy": -0.2629,
				"method": "rhf"
			},
			{
				"type": "unocc",
				"energy": 0.02025,
				"method": "rhf"
			},
			{
				"type": "unocc",
				"energy": 0.02026,
				"method": "rhf"
			},
			{
				"type": "unocc",
				"energy": 0.1269,
				"method": "rhf"
			},
			{
				"type": "unocc",
				"energy": 0.14029,
				"method": "rhf"
			},
			{
				"type": "unocc",
				"energy": 0.21331,
				"method": "rhf"
			}
		],
		"cosmo_sigma_profile": { 
			"-0.025": 0.0,
			"-0.024": 0.0,
			"-0.023": 0.0,
			"-0.022": 0.0,
			"-0.021": 0.0,
			"-0.02": 0.0,
			"-0.019": 0.0,
			"-0.018": 0.0,
			"-0.017": 0.0,
			"-0.016": 0.0,
			"-0.015": 0.0,
			"-0.014": 0.0,
			"-0.013": 0.0,
			"-0.012": 0.0,
			"-0.011": 0.0,
			"-0.01": 0.0,
			"-0.009": 0.0,
			"-0.008": 0.0,
			"-0.007": 2.97318917607,
			"-0.006": 6.07968594226,
			"-0.005": 4.98146838429,
			"-0.004": 7.01554449079,
			"-0.003": 6.11783754786,
			"-0.002": 6.23137512039,
			"-0.001": 7.6570160742,
			"0.0": 5.85108821771,
			"0.001": 5.62301844753,
			"0.002": 6.93289819121,
			"0.003": 7.27280923018,
			"0.004": 9.1107161578,
			"0.005": 7.55462798403,
			"0.006": 4.99567260818,
			"0.007": 0.429970067497,
			"0.008": 0.0,
			"0.009": 0.0,
			"0.01": 0.0,
			"0.011": 0.0,
			"0.012": 0.0,
			"0.013": 0.0,
			"0.014": 0.0,
			"0.015": 0.0,
			"0.016": 0.0,
			"0.017": 0.0,
			"0.018": 0.0,
			"0.019": 0.0,
			"0.02": 0.0,
			"0.021": 0.0,
			"0.022": 0.0,
			"0.023": 0.0,
			"0.024": 0.0,
			"0.025": 0.0
		}
	}
}
