{
	 "smiles": "OC(=O)COCCNC(=O)C12CC3CC(CC(C3)C1)C2", 
	 "Tm": 395.15, 
	 "num_atms": 43, 
	 "gaussian": { 
		 "optdone": 1, 
		 "sigma_profile": "yes", 
		 "theory": "DFT", 
		 "functional": "B3LYP", 
		 "basiset": "6-31G**", 
		 "properties": { 
			 "R2extent": 6027.5744, 
			 "electric_dipole_moment_norm": 3.6561424644, 
			 "electric_quadrupole_moment_norm": 10.9276829836, 
			 "total_energy": -941.148597782, 
			 "HOMO_LUMO_gap": 0.24875, 
			 "cosmo_polarized_energy": -16.0, 
			 "cosmo_cavitation_energy": 38.96, 
			 "cosmo_dispersion_energy": -28.19, 
			 "cosmo_repulsion_energy": 2.12, 
			 "cosmo_total_nonelectrostatic_energy": 12.88, 
			 "SMD_solvation_energy": 6.01 
		},
		"coords": [
			{
				"x": 2.5250521619,
				"y": -1.1136823624,
				"z": 1.2444551358,
				"element": "O" 
			},
			{
				"x": 1.2932263606,
				"y": -1.2723574105,
				"z": 1.7430510414,
				"element": "C" 
			},
			{
				"x": 0.4882308416,
				"y": -0.3765145525,
				"z": 1.9044673975,
				"element": "O" 
			},
			{
				"x": 1.001489057,
				"y": -2.7285597854,
				"z": 2.1019398916,
				"element": "C" 
			},
			{
				"x": 1.6897419653,
				"y": -3.6808117134,
				"z": 1.3250454963,
				"element": "O" 
			},
			{
				"x": 1.1492408013,
				"y": -3.9765300624,
				"z": 0.046601755,
				"element": "C" 
			},
			{
				"x": 1.3953273642,
				"y": -2.9460009197,
				"z": -1.0692168784,
				"element": "C" 
			},
			{
				"x": 0.4219989376,
				"y": -1.859377828,
				"z": -1.0983464003,
				"element": "N" 
			},
			{
				"x": 0.7412950364,
				"y": -0.541943392,
				"z": -1.2756295928,
				"element": "C" 
			},
			{
				"x": 1.9129305488,
				"y": -0.1544690746,
				"z": -1.296599667,
				"element": "O" 
			},
			{
				"x": -0.4237556947,
				"y": 0.4427317107,
				"z": -1.475321886,
				"element": "C" 
			},
			{
				"x": -1.7867878076,
				"y": -0.0426433827,
				"z": -0.9203088237,
				"element": "C" 
			},
			{
				"x": -2.8771513858,
				"y": 1.0208480494,
				"z": -1.1799812515,
				"element": "C" 
			},
			{
				"x": -2.4911638551,
				"y": 2.3427167568,
				"z": -0.4867696605,
				"element": "C" 
			},
			{
				"x": -1.145594681,
				"y": 2.8400847575,
				"z": -1.0511581925,
				"element": "C" 
			},
			{
				"x": -1.2771825934,
				"y": 3.0759739251,
				"z": -2.5698301093,
				"element": "C" 
			},
			{
				"x": -1.6640521307,
				"y": 1.7537405443,
				"z": -3.2639866908,
				"element": "C" 
			},
			{
				"x": -3.0098402954,
				"y": 1.2541705611,
				"z": -2.6992393192,
				"element": "C" 
			},
			{
				"x": -0.5705745952,
				"y": 0.6968811052,
				"z": -3.0045282849,
				"element": "C" 
			},
			{
				"x": -0.0571627787,
				"y": 1.783380754,
				"z": -0.7850259359,
				"element": "C" 
			},
			{
				"x": 2.5533607271,
				"y": -0.2705913613,
				"z": 0.7524882447,
				"element": "H" 
			},
			{
				"x": -0.088825388,
				"y": -2.8572404521,
				"z": 2.0566857238,
				"element": "H" 
			},
			{
				"x": 1.3138017783,
				"y": -2.8893992164,
				"z": 3.1409536454,
				"element": "H" 
			},
			{
				"x": 1.6396077356,
				"y": -4.9095780706,
				"z": -0.2488393646,
				"element": "H" 
			},
			{
				"x": 0.0681402247,
				"y": -4.186399446,
				"z": 0.129303268,
				"element": "H" 
			},
			{
				"x": 2.3841445105,
				"y": -2.4995270184,
				"z": -0.9619749789,
				"element": "H" 
			},
			{
				"x": 1.3693076488,
				"y": -3.4855076625,
				"z": -2.0275075961,
				"element": "H" 
			},
			{
				"x": -0.5540614217,
				"y": -2.1128583453,
				"z": -1.1334886292,
				"element": "H" 
			},
			{
				"x": -2.1028440462,
				"y": -0.9738910885,
				"z": -1.4150913668,
				"element": "H" 
			},
			{
				"x": -1.6971168621,
				"y": -0.2480597723,
				"z": 0.1529334784,
				"element": "H" 
			},
			{
				"x": -3.83080369,
				"y": 0.6562292288,
				"z": -0.7776809596,
				"element": "H" 
			},
			{
				"x": -3.2754000608,
				"y": 3.0933774729,
				"z": -0.6509608486,
				"element": "H" 
			},
			{
				"x": -2.412662997,
				"y": 2.1915812175,
				"z": 0.5972990168,
				"element": "H" 
			},
			{
				"x": -0.862298273,
				"y": 3.7774860215,
				"z": -0.556150211,
				"element": "H" 
			},
			{
				"x": -0.3293843342,
				"y": 3.451740483,
				"z": -2.9764080487,
				"element": "H" 
			},
			{
				"x": -2.0378995541,
				"y": 3.8417046864,
				"z": -2.7711927773,
				"element": "H" 
			},
			{
				"x": -1.7543601693,
				"y": 1.9152303792,
				"z": -4.3458255734,
				"element": "H" 
			},
			{
				"x": -3.7987051965,
				"y": 1.9908348974,
				"z": -2.8988751716,
				"element": "H" 
			},
			{
				"x": -3.3093376234,
				"y": 0.3238859352,
				"z": -3.2008846612,
				"element": "H" 
			},
			{
				"x": -0.8247095051,
				"y": -0.241960401,
				"z": -3.5157079791,
				"element": "H" 
			},
			{
				"x": 0.3924151293,
				"y": 1.0323860852,
				"z": -3.4063561806,
				"element": "H" 
			},
			{
				"x": 0.9119716576,
				"y": 2.1200419247,
				"z": -1.1648278255,
				"element": "H" 
			},
			{
				"x": 0.0593924524,
				"y": 1.6118768221,
				"z": 0.2908907707,
				"element": "H" 
			}
		],
		 "valence_orbital": [ 
			{
				"type": "occ",
				"energy": -0.27923,
				"method": "rhf"
			},
			{
				"type": "occ",
				"energy": -0.27867,
				"method": "rhf"
			},
			{
				"type": "occ",
				"energy": -0.2635,
				"method": "rhf"
			},
			{
				"type": "occ",
				"energy": -0.24955,
				"method": "rhf"
			},
			{
				"type": "occ",
				"energy": -0.24412,
				"method": "rhf"
			},
			{
				"type": "unocc",
				"energy": 0.00463,
				"method": "rhf"
			},
			{
				"type": "unocc",
				"energy": 0.02017,
				"method": "rhf"
			},
			{
				"type": "unocc",
				"energy": 0.05957,
				"method": "rhf"
			},
			{
				"type": "unocc",
				"energy": 0.08009,
				"method": "rhf"
			},
			{
				"type": "unocc",
				"energy": 0.09518,
				"method": "rhf"
			}
		],
		"cosmo_sigma_profile": { 
			"-0.025": 0.0,
			"-0.024": 0.0,
			"-0.023": 0.0,
			"-0.022": 0.0,
			"-0.021": 0.0,
			"-0.02": 0.0,
			"-0.019": 0.0,
			"-0.018": 0.0,
			"-0.017": 0.0,
			"-0.016": 0.0,
			"-0.015": 0.0,
			"-0.014": 0.130730457128,
			"-0.013": 1.1640687446,
			"-0.012": 1.4365711569,
			"-0.011": 2.41258347222,
			"-0.01": 1.8366091152,
			"-0.009": 1.76833801857,
			"-0.008": 4.30408059795,
			"-0.007": 5.87379240334,
			"-0.006": 10.8064558456,
			"-0.005": 15.4204497167,
			"-0.004": 13.507289169,
			"-0.003": 14.7042670511,
			"-0.002": 36.0217485426,
			"-0.001": 44.5641788834,
			"0.0": 43.458148986,
			"0.001": 28.9571851151,
			"0.002": 12.7832866642,
			"0.003": 5.75175839964,
			"0.004": 6.85049898798,
			"0.005": 7.12375017309,
			"0.006": 5.78030439602,
			"0.007": 4.39902619615,
			"0.008": 5.29674223591,
			"0.009": 5.18947513038,
			"0.01": 4.28439068234,
			"0.011": 5.41667467263,
			"0.012": 5.49189272336,
			"0.013": 3.02934209031,
			"0.014": 2.06032429282,
			"0.015": 0.139069429872,
			"0.016": 0.0,
			"0.017": 0.0,
			"0.018": 0.0,
			"0.019": 0.0,
			"0.02": 0.0,
			"0.021": 0.0,
			"0.022": 0.0,
			"0.023": 0.0,
			"0.024": 0.0,
			"0.025": 0.0
		}
	}
}
