{
	 "smiles": "CC(O)(C(=O)C1=CC=CC=C1)C1=CC=CC=C1", 
	 "Tm": 338.15, 
	 "num_atms": 31, 
	 "gaussian": { 
		 "optdone": 1, 
		 "sigma_profile": "yes", 
		 "theory": "DFT", 
		 "functional": "B3LYP", 
		 "basiset": "6-31G**", 
		 "properties": { 
			 "R2extent": 4709.6453, 
			 "electric_dipole_moment_norm": 3.72336758728, 
			 "electric_quadrupole_moment_norm": 6.21400282749, 
			 "total_energy": -730.478962699, 
			 "HOMO_LUMO_gap": 0.16997, 
			 "cosmo_polarized_energy": -10.33, 
			 "cosmo_cavitation_energy": 33.54, 
			 "cosmo_dispersion_energy": -23.66, 
			 "cosmo_repulsion_energy": 1.83, 
			 "cosmo_total_nonelectrostatic_energy": 11.7, 
			 "SMD_solvation_energy": 6.03 
		},
		"coords": [
			{
				"x": -1.3089574962,
				"y": -0.70196143,
				"z": -2.4109459707,
				"element": "C" 
			},
			{
				"x": -0.8321035996,
				"y": -0.2042691721,
				"z": -1.0333898476,
				"element": "C" 
			},
			{
				"x": -1.9351812355,
				"y": 0.4051589554,
				"z": -0.3865952073,
				"element": "O" 
			},
			{
				"x": 0.2423205604,
				"y": 0.9125213022,
				"z": -1.2412364563,
				"element": "C" 
			},
			{
				"x": -0.0571019988,
				"y": 2.0372376622,
				"z": -0.8489015004,
				"element": "O" 
			},
			{
				"x": 1.5472641827,
				"y": 0.6899188936,
				"z": -1.9308982545,
				"element": "C" 
			},
			{
				"x": 2.2659120428,
				"y": 1.8362597829,
				"z": -2.317499408,
				"element": "C" 
			},
			{
				"x": 3.4864133779,
				"y": 1.7202437691,
				"z": -2.974003151,
				"element": "C" 
			},
			{
				"x": 4.0146361749,
				"y": 0.4550905787,
				"z": -3.2473463692,
				"element": "C" 
			},
			{
				"x": 3.3160594608,
				"y": -0.6892565829,
				"z": -2.8591396026,
				"element": "C" 
			},
			{
				"x": 2.0888413017,
				"y": -0.5766811449,
				"z": -2.206654323,
				"element": "C" 
			},
			{
				"x": -0.2970775335,
				"y": -1.3034467623,
				"z": -0.1034139335,
				"element": "C" 
			},
			{
				"x": -0.2634944589,
				"y": -2.6581383405,
				"z": -0.4525243156,
				"element": "C" 
			},
			{
				"x": 0.1983371668,
				"y": -3.6172760013,
				"z": 0.4541091231,
				"element": "C" 
			},
			{
				"x": 0.6326286973,
				"y": -3.2339970136,
				"z": 1.7219004324,
				"element": "C" 
			},
			{
				"x": 0.5942648191,
				"y": -1.8843105229,
				"z": 2.0833176013,
				"element": "C" 
			},
			{
				"x": 0.1281798484,
				"y": -0.9316344245,
				"z": 1.1809743986,
				"element": "C" 
			},
			{
				"x": -2.1410076327,
				"y": -1.3965439637,
				"z": -2.2698401213,
				"element": "H" 
			},
			{
				"x": -0.5245694187,
				"y": -1.1919585107,
				"z": -2.9925762535,
				"element": "H" 
			},
			{
				"x": -1.6817139521,
				"y": 0.1516315581,
				"z": -2.9835666074,
				"element": "H" 
			},
			{
				"x": -1.692693163,
				"y": 1.3488643244,
				"z": -0.3172005625,
				"element": "H" 
			},
			{
				"x": 1.8421602735,
				"y": 2.8088261712,
				"z": -2.0930505826,
				"element": "H" 
			},
			{
				"x": 4.0276067415,
				"y": 2.6132206368,
				"z": -3.272502073,
				"element": "H" 
			},
			{
				"x": 4.968958713,
				"y": 0.3623281491,
				"z": -3.7580110154,
				"element": "H" 
			},
			{
				"x": 3.7286222451,
				"y": -1.6735384887,
				"z": -3.0595640414,
				"element": "H" 
			},
			{
				"x": 1.5730464988,
				"y": -1.4736295781,
				"z": -1.8888846357,
				"element": "H" 
			},
			{
				"x": -0.6029371715,
				"y": -2.9792972238,
				"z": -1.4319274678,
				"element": "H" 
			},
			{
				"x": 0.2117618224,
				"y": -4.6648338685,
				"z": 0.1662879389,
				"element": "H" 
			},
			{
				"x": 0.9927807611,
				"y": -3.9788785833,
				"z": 2.4256106356,
				"element": "H" 
			},
			{
				"x": 0.9228982357,
				"y": -1.5753358908,
				"z": 3.0716159416,
				"element": "H" 
			},
			{
				"x": 0.0762447365,
				"y": 0.1127857188,
				"z": 1.4743556287,
				"element": "H" 
			}
		],
		 "valence_orbital": [ 
			{
				"type": "occ",
				"energy": -0.26849,
				"method": "rhf"
			},
			{
				"type": "occ",
				"energy": -0.26489,
				"method": "rhf"
			},
			{
				"type": "occ",
				"energy": -0.26308,
				"method": "rhf"
			},
			{
				"type": "occ",
				"energy": -0.25119,
				"method": "rhf"
			},
			{
				"type": "occ",
				"energy": -0.23717,
				"method": "rhf"
			},
			{
				"type": "unocc",
				"energy": -0.0672,
				"method": "rhf"
			},
			{
				"type": "unocc",
				"energy": -0.01513,
				"method": "rhf"
			},
			{
				"type": "unocc",
				"energy": -0.00648,
				"method": "rhf"
			},
			{
				"type": "unocc",
				"energy": -0.00293,
				"method": "rhf"
			},
			{
				"type": "unocc",
				"energy": 0.03142,
				"method": "rhf"
			}
		],
		"cosmo_sigma_profile": { 
			"-0.025": 0.0,
			"-0.024": 0.0,
			"-0.023": 0.0,
			"-0.022": 0.0,
			"-0.021": 0.0,
			"-0.02": 0.0,
			"-0.019": 0.0,
			"-0.018": 0.0,
			"-0.017": 0.0,
			"-0.016": 0.0,
			"-0.015": 0.0,
			"-0.014": 0.0,
			"-0.013": 0.0,
			"-0.012": 0.0,
			"-0.011": 0.0,
			"-0.01": 0.0,
			"-0.009": 0.238828967004,
			"-0.008": 0.727376229169,
			"-0.007": 3.08749291523,
			"-0.006": 14.1006887729,
			"-0.005": 24.7067037836,
			"-0.004": 28.3411523379,
			"-0.003": 22.5756919641,
			"-0.002": 21.4861263155,
			"-0.001": 19.4116111462,
			"0.0": 19.9509423247,
			"0.001": 18.6462790654,
			"0.002": 18.9608929361,
			"0.003": 20.2009085983,
			"0.004": 17.8545170179,
			"0.005": 11.1166191369,
			"0.006": 5.90566827954,
			"0.007": 2.62924220772,
			"0.008": 3.35955301724,
			"0.009": 2.91964727412,
			"0.01": 3.61987871941,
			"0.011": 2.52509015747,
			"0.012": 1.48059559897,
			"0.013": 1.45558028084,
			"0.014": 1.93860912985,
			"0.015": 0.165050255016,
			"0.016": 0.0,
			"0.017": 0.0,
			"0.018": 0.0,
			"0.019": 0.0,
			"0.02": 0.0,
			"0.021": 0.0,
			"0.022": 0.0,
			"0.023": 0.0,
			"0.024": 0.0,
			"0.025": 0.0
		}
	}
}
