{
	 "smiles": "NN1C(=O)C2=C(C=CC=C2)C1=O", 
	 "Tm": 474.15, 
	 "num_atms": 18, 
	 "gaussian": { 
		 "optdone": 1, 
		 "sigma_profile": "yes", 
		 "theory": "DFT", 
		 "functional": "B3LYP", 
		 "basiset": "6-31G**", 
		 "properties": { 
			 "R2extent": 2335.8864, 
			 "electric_dipole_moment_norm": 2.91503573906, 
			 "electric_quadrupole_moment_norm": 18.8546980201, 
			 "total_energy": -568.407054285, 
			 "HOMO_LUMO_gap": 0.14738, 
			 "cosmo_polarized_energy": -12.88, 
			 "cosmo_cavitation_energy": 23.15, 
			 "cosmo_dispersion_energy": -17.12, 
			 "cosmo_repulsion_energy": 1.35, 
			 "cosmo_total_nonelectrostatic_energy": 7.37, 
			 "SMD_solvation_energy": 5.65 
		},
		"coords": [
			{
				"x": 2.3346144588,
				"y": -0.4182215049,
				"z": -1.8939971139,
				"element": "N" 
			},
			{
				"x": 1.6146826401,
				"y": -0.4313653936,
				"z": -0.6833241227,
				"element": "N" 
			},
			{
				"x": 1.8140294186,
				"y": -1.3985215795,
				"z": 0.3038333422,
				"element": "C" 
			},
			{
				"x": 2.4924897682,
				"y": -2.3986714364,
				"z": 0.165314229,
				"element": "O" 
			},
			{
				"x": 1.0039396873,
				"y": -0.925658964,
				"z": 1.467386266,
				"element": "C" 
			},
			{
				"x": 0.3868623601,
				"y": 0.2804887799,
				"z": 1.1135131837,
				"element": "C" 
			},
			{
				"x": -0.4405413052,
				"y": 0.9554454778,
				"z": 1.9950519151,
				"element": "C" 
			},
			{
				"x": -0.63545028,
				"y": 0.3872591754,
				"z": 3.2642958028,
				"element": "C" 
			},
			{
				"x": -0.0193204534,
				"y": -0.8170289488,
				"z": 3.6176277288,
				"element": "C" 
			},
			{
				"x": 0.8139418139,
				"y": -1.4965801635,
				"z": 2.7144724076,
				"element": "C" 
			},
			{
				"x": 0.782465593,
				"y": 0.6176973798,
				"z": -0.2877333242,
				"element": "C" 
			},
			{
				"x": 0.4689781293,
				"y": 1.5563812463,
				"z": -0.9951228897,
				"element": "O" 
			},
			{
				"x": 2.4562818972,
				"y": -1.3959017281,
				"z": -2.1562475904,
				"element": "H" 
			},
			{
				"x": 1.725483149,
				"y": 0.0337826161,
				"z": -2.5752388311,
				"element": "H" 
			},
			{
				"x": -0.9159133234,
				"y": 1.8885285176,
				"z": 1.7104074798,
				"element": "H" 
			},
			{
				"x": -1.2748793279,
				"y": 0.8908812128,
				"z": 3.9830099552,
				"element": "H" 
			},
			{
				"x": -0.1881366092,
				"y": -1.2332483164,
				"z": 4.6062214715,
				"element": "H" 
			},
			{
				"x": 1.2949723836,
				"y": -2.4328663705,
				"z": 2.9783300904,
				"element": "H" 
			}
		],
		 "valence_orbital": [ 
			{
				"type": "occ",
				"energy": -0.29585,
				"method": "rhf"
			},
			{
				"type": "occ",
				"energy": -0.283,
				"method": "rhf"
			},
			{
				"type": "occ",
				"energy": -0.27934,
				"method": "rhf"
			},
			{
				"type": "occ",
				"energy": -0.27284,
				"method": "rhf"
			},
			{
				"type": "occ",
				"energy": -0.23223,
				"method": "rhf"
			},
			{
				"type": "unocc",
				"energy": -0.08485,
				"method": "rhf"
			},
			{
				"type": "unocc",
				"energy": -0.03951,
				"method": "rhf"
			},
			{
				"type": "unocc",
				"energy": 0.02582,
				"method": "rhf"
			},
			{
				"type": "unocc",
				"energy": 0.07775,
				"method": "rhf"
			},
			{
				"type": "unocc",
				"energy": 0.07928,
				"method": "rhf"
			}
		],
		"cosmo_sigma_profile": { 
			"-0.025": 0.0,
			"-0.024": 0.0,
			"-0.023": 0.0,
			"-0.022": 0.0,
			"-0.021": 0.0,
			"-0.02": 0.0,
			"-0.019": 0.0,
			"-0.018": 0.0,
			"-0.017": 0.0,
			"-0.016": 0.0,
			"-0.015": 0.0,
			"-0.014": 0.0780555437927,
			"-0.013": 1.72960698131,
			"-0.012": 2.60467120899,
			"-0.011": 2.68022979866,
			"-0.01": 2.28042931493,
			"-0.009": 1.87002065499,
			"-0.008": 3.30167587223,
			"-0.007": 9.85837122976,
			"-0.006": 11.6170839923,
			"-0.005": 12.266999893,
			"-0.004": 11.1746143139,
			"-0.003": 10.5423555813,
			"-0.002": 9.85805330259,
			"-0.001": 12.7892834997,
			"0.0": 11.6660392718,
			"0.001": 14.0391734129,
			"0.002": 16.3683713043,
			"0.003": 6.46739724621,
			"0.004": 4.19784435955,
			"0.005": 4.5370758411,
			"0.006": 3.26948547621,
			"0.007": 3.29345121899,
			"0.008": 3.46991545462,
			"0.009": 4.4146400628,
			"0.01": 6.83364858949,
			"0.011": 10.1826457384,
			"0.012": 2.79799978014,
			"0.013": 0.554304634464,
			"0.014": 0.84249539942,
			"0.015": 0.497132451602,
			"0.016": 0.0903516176222,
			"0.017": 0.0,
			"0.018": 0.0,
			"0.019": 0.0,
			"0.02": 0.0,
			"0.021": 0.0,
			"0.022": 0.0,
			"0.023": 0.0,
			"0.024": 0.0,
			"0.025": 0.0
		}
	}
}
