{
	 "smiles": "CC(=O)OC1CC2C3CCC4=C(C=CC(OC(C)=O)=C4)C3CCC2(C)C1=O", 
	 "Tm": 453.15, 
	 "num_atms": 53, 
	 "gaussian": { 
		 "optdone": 1, 
		 "sigma_profile": "yes", 
		 "theory": "DFT", 
		 "functional": "B3LYP", 
		 "basiset": "6-31G**", 
		 "properties": { 
			 "R2extent": 15950.055, 
			 "electric_dipole_moment_norm": 3.36257860875, 
			 "electric_quadrupole_moment_norm": 23.0194912053, 
			 "total_energy": -1230.17574548, 
			 "HOMO_LUMO_gap": 0.20482, 
			 "cosmo_polarized_energy": -18.57, 
			 "cosmo_cavitation_energy": 52.67, 
			 "cosmo_dispersion_energy": -36.25, 
			 "cosmo_repulsion_energy": 2.73, 
			 "cosmo_total_nonelectrostatic_energy": 19.15, 
			 "SMD_solvation_energy": 10.74 
		},
		"coords": [
			{
				"x": -0.5665668269,
				"y": 1.5618213486,
				"z": -7.54734217,
				"element": "C" 
			},
			{
				"x": -0.9753405802,
				"y": 0.4036658203,
				"z": -6.6724424991,
				"element": "C" 
			},
			{
				"x": -1.74109634,
				"y": -0.4796565972,
				"z": -6.9829440547,
				"element": "O" 
			},
			{
				"x": -0.3562329684,
				"y": 0.4844336334,
				"z": -5.461537559,
				"element": "O" 
			},
			{
				"x": -0.5432289132,
				"y": -0.6085022467,
				"z": -4.5590104456,
				"element": "C" 
			},
			{
				"x": -0.8189682895,
				"y": -0.1641855265,
				"z": -3.122462732,
				"element": "C" 
			},
			{
				"x": -0.3137302394,
				"y": -1.3692175432,
				"z": -2.2855290422,
				"element": "C" 
			},
			{
				"x": -0.162813551,
				"y": -1.1552622555,
				"z": -0.7639725433,
				"element": "C" 
			},
			{
				"x": -1.4971000105,
				"y": -0.7307534478,
				"z": -0.077942209,
				"element": "C" 
			},
			{
				"x": -1.3464359871,
				"y": 0.4991448831,
				"z": 0.8436965411,
				"element": "C" 
			},
			{
				"x": -0.1249622179,
				"y": 0.3709329539,
				"z": 1.7189794032,
				"element": "C" 
			},
			{
				"x": 1.0803015033,
				"y": 0.0028808546,
				"z": 1.0873412983,
				"element": "C" 
			},
			{
				"x": 2.2310830114,
				"y": -0.1447219693,
				"z": 1.8663344896,
				"element": "C" 
			},
			{
				"x": 2.1970653384,
				"y": 0.0799004662,
				"z": 3.243667096,
				"element": "C" 
			},
			{
				"x": 0.9989668519,
				"y": 0.4480073618,
				"z": 3.8476013204,
				"element": "C" 
			},
			{
				"x": 1.0305118875,
				"y": 0.5760029083,
				"z": 5.2391008136,
				"element": "O" 
			},
			{
				"x": 0.3929789574,
				"y": 1.6077583515,
				"z": 5.8754179506,
				"element": "C" 
			},
			{
				"x": 0.6178503767,
				"y": 1.4956234971,
				"z": 7.3637034616,
				"element": "C" 
			},
			{
				"x": -0.244657874,
				"y": 2.468017431,
				"z": 5.3196642435,
				"element": "O" 
			},
			{
				"x": -0.1688080419,
				"y": 0.5871371733,
				"z": 3.0967646227,
				"element": "C" 
			},
			{
				"x": 1.0244478857,
				"y": -0.2119923074,
				"z": -0.4157482449,
				"element": "C" 
			},
			{
				"x": 2.3177708125,
				"y": -0.7495859957,
				"z": -1.0452520413,
				"element": "C" 
			},
			{
				"x": 2.1872803759,
				"y": -0.8942220451,
				"z": -2.5664918256,
				"element": "C" 
			},
			{
				"x": 1.0000406016,
				"y": -1.8087704663,
				"z": -2.9989707395,
				"element": "C" 
			},
			{
				"x": 1.3527318933,
				"y": -3.2922884147,
				"z": -2.8358924497,
				"element": "C" 
			},
			{
				"x": 0.7317028909,
				"y": -1.464249844,
				"z": -4.4697521242,
				"element": "C" 
			},
			{
				"x": 1.4208408641,
				"y": -1.7741825586,
				"z": -5.4157833997,
				"element": "O" 
			},
			{
				"x": 0.4799452329,
				"y": 1.4366410099,
				"z": -7.8429748832,
				"element": "H" 
			},
			{
				"x": -1.1956731513,
				"y": 1.5848810886,
				"z": -8.4365362312,
				"element": "H" 
			},
			{
				"x": -0.6430588515,
				"y": 2.5044993954,
				"z": -6.9994269588,
				"element": "H" 
			},
			{
				"x": -1.3490615809,
				"y": -1.2469058596,
				"z": -4.9419877524,
				"element": "H" 
			},
			{
				"x": -1.8747057087,
				"y": 0.0622302779,
				"z": -2.9550416256,
				"element": "H" 
			},
			{
				"x": -0.2473221554,
				"y": 0.7451567334,
				"z": -2.9092816556,
				"element": "H" 
			},
			{
				"x": -1.0467356993,
				"y": -2.1786782528,
				"z": -2.4221229226,
				"element": "H" 
			},
			{
				"x": 0.1191428008,
				"y": -2.1316349099,
				"z": -0.3477182646,
				"element": "H" 
			},
			{
				"x": -1.8735551889,
				"y": -1.5682830527,
				"z": 0.5188047406,
				"element": "H" 
			},
			{
				"x": -2.2679135152,
				"y": -0.5199363932,
				"z": -0.8265543028,
				"element": "H" 
			},
			{
				"x": -2.2484448986,
				"y": 0.6340409199,
				"z": 1.4489630441,
				"element": "H" 
			},
			{
				"x": -1.2539945806,
				"y": 1.4025970107,
				"z": 0.2236369628,
				"element": "H" 
			},
			{
				"x": 3.1708962072,
				"y": -0.4359606519,
				"z": 1.409331339,
				"element": "H" 
			},
			{
				"x": 3.0860645421,
				"y": -0.0346990951,
				"z": 3.8549546795,
				"element": "H" 
			},
			{
				"x": 1.6882577796,
				"y": 1.5384723935,
				"z": 7.5855064227,
				"element": "H" 
			},
			{
				"x": 0.0997197278,
				"y": 2.309588232,
				"z": 7.8694096775,
				"element": "H" 
			},
			{
				"x": 0.2487339838,
				"y": 0.5321160413,
				"z": 7.7272532183,
				"element": "H" 
			},
			{
				"x": -1.096634248,
				"y": 0.8727603293,
				"z": 3.5764701655,
				"element": "H" 
			},
			{
				"x": 0.8206122863,
				"y": 0.76990269,
				"z": -0.8742091182,
				"element": "H" 
			},
			{
				"x": 2.5703322079,
				"y": -1.7162987107,
				"z": -0.5901539299,
				"element": "H" 
			},
			{
				"x": 3.1547273071,
				"y": -0.0756865623,
				"z": -0.8278961384,
				"element": "H" 
			},
			{
				"x": 3.107784062,
				"y": -1.2952346486,
				"z": -3.0035279442,
				"element": "H" 
			},
			{
				"x": 2.0624624652,
				"y": 0.1070069321,
				"z": -2.9995871569,
				"element": "H" 
			},
			{
				"x": 2.1700022853,
				"y": -3.5544458637,
				"z": -3.5141884271,
				"element": "H" 
			},
			{
				"x": 1.6633286188,
				"y": -3.5273735099,
				"z": -1.8135802061,
				"element": "H" 
			},
			{
				"x": 0.496358661,
				"y": -3.9301910088,
				"z": -3.0797398932,
				"element": "H" 
			}
		],
		 "valence_orbital": [ 
			{
				"type": "occ",
				"energy": -0.27778,
				"method": "rhf"
			},
			{
				"type": "occ",
				"energy": -0.27451,
				"method": "rhf"
			},
			{
				"type": "occ",
				"energy": -0.24742,
				"method": "rhf"
			},
			{
				"type": "occ",
				"energy": -0.23893,
				"method": "rhf"
			},
			{
				"type": "occ",
				"energy": -0.23179,
				"method": "rhf"
			},
			{
				"type": "unocc",
				"energy": -0.02697,
				"method": "rhf"
			},
			{
				"type": "unocc",
				"energy": -0.01129,
				"method": "rhf"
			},
			{
				"type": "unocc",
				"energy": -0.00385,
				"method": "rhf"
			},
			{
				"type": "unocc",
				"energy": 0.01275,
				"method": "rhf"
			},
			{
				"type": "unocc",
				"energy": 0.01823,
				"method": "rhf"
			}
		],
		"cosmo_sigma_profile": { 
			"-0.025": 0.0,
			"-0.024": 0.0,
			"-0.023": 0.0,
			"-0.022": 0.0,
			"-0.021": 0.0,
			"-0.02": 0.0,
			"-0.019": 0.0,
			"-0.018": 0.0,
			"-0.017": 0.0,
			"-0.016": 0.0,
			"-0.015": 0.0,
			"-0.014": 0.0,
			"-0.013": 0.0,
			"-0.012": 0.0,
			"-0.011": 0.0,
			"-0.01": 0.0,
			"-0.009": 0.0901318815191,
			"-0.008": 1.34126199108,
			"-0.007": 5.69626917804,
			"-0.006": 15.3178732359,
			"-0.005": 26.6699762537,
			"-0.004": 44.7124758018,
			"-0.003": 50.9720093063,
			"-0.002": 55.9341364188,
			"-0.001": 43.4753093819,
			"0.0": 29.9432584191,
			"0.001": 20.4781199164,
			"0.002": 14.6153255189,
			"0.003": 13.5435934809,
			"0.004": 14.0103395519,
			"0.005": 17.0564773865,
			"0.006": 11.4306430616,
			"0.007": 6.46830326556,
			"0.008": 5.66478257252,
			"0.009": 6.65293393909,
			"0.01": 6.9131688613,
			"0.011": 12.5838907556,
			"0.012": 7.82410448709,
			"0.013": 0.871595628617,
			"0.014": 0.0,
			"0.015": 0.0,
			"0.016": 0.0,
			"0.017": 0.0,
			"0.018": 0.0,
			"0.019": 0.0,
			"0.02": 0.0,
			"0.021": 0.0,
			"0.022": 0.0,
			"0.023": 0.0,
			"0.024": 0.0,
			"0.025": 0.0
		}
	}
}
