{
	 "smiles": "NNC1=C(C=C(C=C1)S(=O)(=O)NC1=CC=CC=C1)[N+]([O-])=O", 
	 "Tm": 481.15, 
	 "num_atms": 33, 
	 "gaussian": { 
		 "optdone": 1, 
		 "sigma_profile": "yes", 
		 "theory": "DFT", 
		 "functional": "B3LYP", 
		 "basiset": "6-31G**", 
		 "properties": { 
			 "R2extent": 7279.5606, 
			 "electric_dipole_moment_norm": 6.85704405848, 
			 "electric_quadrupole_moment_norm": 23.5737565339, 
			 "total_energy": -1382.39613522, 
			 "HOMO_LUMO_gap": 0.13587, 
			 "cosmo_polarized_energy": -24.55, 
			 "cosmo_cavitation_energy": 39.49, 
			 "cosmo_dispersion_energy": -28.02, 
			 "cosmo_repulsion_energy": 2.12, 
			 "cosmo_total_nonelectrostatic_energy": 13.59, 
			 "SMD_solvation_energy": 8.19 
		},
		"coords": [
			{
				"x": 0.9765573685,
				"y": 2.1820412767,
				"z": -4.3117069547,
				"element": "N" 
			},
			{
				"x": -0.0472952932,
				"y": 1.2786885989,
				"z": -4.0108313108,
				"element": "N" 
			},
			{
				"x": -0.481510019,
				"y": 0.9819766438,
				"z": -2.7591283181,
				"element": "C" 
			},
			{
				"x": -1.5428628586,
				"y": 0.057291211,
				"z": -2.4980009984,
				"element": "C" 
			},
			{
				"x": -1.9614556763,
				"y": -0.2204819703,
				"z": -1.1945199713,
				"element": "C" 
			},
			{
				"x": -1.3460437203,
				"y": 0.3988240739,
				"z": -0.119622086,
				"element": "C" 
			},
			{
				"x": -0.304087142,
				"y": 1.316251312,
				"z": -0.3391564077,
				"element": "C" 
			},
			{
				"x": 0.1139751459,
				"y": 1.5958507007,
				"z": -1.6241491434,
				"element": "C" 
			},
			{
				"x": -1.8760951109,
				"y": 0.016940655,
				"z": 1.5452104696,
				"element": "S" 
			},
			{
				"x": -3.2241485158,
				"y": -0.5446934693,
				"z": 1.4744172784,
				"element": "O" 
			},
			{
				"x": -1.5389743825,
				"y": 1.1738535893,
				"z": 2.3735140632,
				"element": "O" 
			},
			{
				"x": -0.9231478736,
				"y": -1.2821055639,
				"z": 2.0846012888,
				"element": "N" 
			},
			{
				"x": 0.4977289023,
				"y": -1.2297826927,
				"z": 2.154285893,
				"element": "C" 
			},
			{
				"x": 1.2575942287,
				"y": -2.20499805,
				"z": 1.4942022932,
				"element": "C" 
			},
			{
				"x": 2.647548144,
				"y": -2.2025961013,
				"z": 1.6053313562,
				"element": "C" 
			},
			{
				"x": 3.291788761,
				"y": -1.2132342793,
				"z": 2.3497914047,
				"element": "C" 
			},
			{
				"x": 2.532089665,
				"y": -0.2367018976,
				"z": 2.9982121947,
				"element": "C" 
			},
			{
				"x": 1.139971096,
				"y": -0.245617633,
				"z": 2.919452594,
				"element": "C" 
			},
			{
				"x": -2.2455365024,
				"y": -0.6391765612,
				"z": -3.5641280506,
				"element": "N" 
			},
			{
				"x": -3.135900126,
				"y": -1.4298903346,
				"z": -3.260060885,
				"element": "O" 
			},
			{
				"x": -1.9154669016,
				"y": -0.4123605941,
				"z": -4.7423087876,
				"element": "O" 
			},
			{
				"x": 1.8513062679,
				"y": 1.8843302172,
				"z": -3.8838308444,
				"element": "H" 
			},
			{
				"x": 0.7440092771,
				"y": 3.1125572474,
				"z": -3.9690520973,
				"element": "H" 
			},
			{
				"x": -0.5099625524,
				"y": 0.8302686947,
				"z": -4.7902379566,
				"element": "H" 
			},
			{
				"x": -2.7837703687,
				"y": -0.9102704066,
				"z": -1.0502941548,
				"element": "H" 
			},
			{
				"x": 0.1567223149,
				"y": 1.8159030713,
				"z": 0.5054449527,
				"element": "H" 
			},
			{
				"x": 0.9132895026,
				"y": 2.3091982652,
				"z": -1.7809570177,
				"element": "H" 
			},
			{
				"x": -1.3045181188,
				"y": -2.1486944926,
				"z": 1.7178303661,
				"element": "H" 
			},
			{
				"x": 0.7583320728,
				"y": -2.9659003375,
				"z": 0.8992986812,
				"element": "H" 
			},
			{
				"x": 3.2254351546,
				"y": -2.970309027,
				"z": 1.0991041904,
				"element": "H" 
			},
			{
				"x": 4.3745036105,
				"y": -1.2075880271,
				"z": 2.4302421797,
				"element": "H" 
			},
			{
				"x": 3.0241578858,
				"y": 0.5291363843,
				"z": 3.5908636499,
				"element": "H" 
			},
			{
				"x": 0.5446657642,
				"y": 0.4910894969,
				"z": 3.4451821289,
				"element": "H" 
			}
		],
		 "valence_orbital": [ 
			{
				"type": "occ",
				"energy": -0.29802,
				"method": "rhf"
			},
			{
				"type": "occ",
				"energy": -0.29211,
				"method": "rhf"
			},
			{
				"type": "occ",
				"energy": -0.26472,
				"method": "rhf"
			},
			{
				"type": "occ",
				"energy": -0.24933,
				"method": "rhf"
			},
			{
				"type": "occ",
				"energy": -0.23567,
				"method": "rhf"
			},
			{
				"type": "unocc",
				"energy": -0.0998,
				"method": "rhf"
			},
			{
				"type": "unocc",
				"energy": -0.04395,
				"method": "rhf"
			},
			{
				"type": "unocc",
				"energy": -0.02134,
				"method": "rhf"
			},
			{
				"type": "unocc",
				"energy": -0.01637,
				"method": "rhf"
			},
			{
				"type": "unocc",
				"energy": -0.01111,
				"method": "rhf"
			}
		],
		"cosmo_sigma_profile": { 
			"-0.025": 0.0,
			"-0.024": 0.0,
			"-0.023": 0.0,
			"-0.022": 0.0,
			"-0.021": 0.0,
			"-0.02": 0.0,
			"-0.019": 0.0,
			"-0.018": 0.0,
			"-0.017": 0.0,
			"-0.016": 0.197166452734,
			"-0.015": 1.22230945146,
			"-0.014": 1.09880567665,
			"-0.013": 1.91574777157,
			"-0.012": 5.29485211464,
			"-0.011": 6.16789094522,
			"-0.01": 5.76365881415,
			"-0.009": 4.73664713609,
			"-0.008": 5.83742319523,
			"-0.007": 7.42523479169,
			"-0.006": 15.3023105741,
			"-0.005": 17.8099090982,
			"-0.004": 17.4736584268,
			"-0.003": 19.4072654481,
			"-0.002": 20.1282582799,
			"-0.001": 23.028528214,
			"0.0": 21.9153311853,
			"0.001": 19.1395122284,
			"0.002": 15.9788726845,
			"0.003": 13.8223108336,
			"0.004": 16.529312452,
			"0.005": 16.3345304278,
			"0.006": 8.54674590422,
			"0.007": 9.61788068731,
			"0.008": 10.2511393967,
			"0.009": 9.30332296216,
			"0.01": 11.196520243,
			"0.011": 7.67536800867,
			"0.012": 1.18022858858,
			"0.013": 0.46379106738,
			"0.014": 0.849603774824,
			"0.015": 0.433078506408,
			"0.016": 0.087235635758,
			"0.017": 0.0,
			"0.018": 0.0,
			"0.019": 0.0,
			"0.02": 0.0,
			"0.021": 0.0,
			"0.022": 0.0,
			"0.023": 0.0,
			"0.024": 0.0,
			"0.025": 0.0
		}
	}
}
