{
	 "smiles": "NC1=CC2=C(C=CC=C2)C=C1N", 
	 "Tm": 472.15, 
	 "num_atms": 22, 
	 "gaussian": { 
		 "optdone": 1, 
		 "sigma_profile": "yes", 
		 "theory": "DFT", 
		 "functional": "B3LYP", 
		 "basiset": "6-31G**", 
		 "properties": { 
			 "R2extent": 2210.0379, 
			 "electric_dipole_moment_norm": 2.26282747243, 
			 "electric_quadrupole_moment_norm": 11.7145126215, 
			 "total_energy": -496.613264456, 
			 "HOMO_LUMO_gap": 0.17207, 
			 "cosmo_polarized_energy": -11.66, 
			 "cosmo_cavitation_energy": 25.07, 
			 "cosmo_dispersion_energy": -19.02, 
			 "cosmo_repulsion_energy": 1.49, 
			 "cosmo_total_nonelectrostatic_energy": 7.54, 
			 "SMD_solvation_energy": 3.93 
		},
		"coords": [
			{
				"x": -2.7574907234,
				"y": 1.710064702,
				"z": 1.9727398333,
				"element": "N" 
			},
			{
				"x": -1.7240695124,
				"y": 1.1769332045,
				"z": 1.1816013837,
				"element": "C" 
			},
			{
				"x": -1.7456947483,
				"y": -0.0995280644,
				"z": 0.6623804232,
				"element": "C" 
			},
			{
				"x": -0.6639961436,
				"y": -0.6111186173,
				"z": -0.103198782,
				"element": "C" 
			},
			{
				"x": 0.4650991593,
				"y": 0.2350811927,
				"z": -0.3512712942,
				"element": "C" 
			},
			{
				"x": 1.5395002714,
				"y": -0.2681967524,
				"z": -1.1307057241,
				"element": "C" 
			},
			{
				"x": 1.5048433835,
				"y": -1.5466333315,
				"z": -1.6456457394,
				"element": "C" 
			},
			{
				"x": 0.3885649162,
				"y": -2.3816151328,
				"z": -1.4025922081,
				"element": "C" 
			},
			{
				"x": -0.6699278144,
				"y": -1.9218278584,
				"z": -0.6482996882,
				"element": "C" 
			},
			{
				"x": 0.4767556238,
				"y": 1.5401361564,
				"z": 0.2096159096,
				"element": "C" 
			},
			{
				"x": -0.5742611579,
				"y": 2.0113042211,
				"z": 0.9664452284,
				"element": "C" 
			},
			{
				"x": -0.6183089443,
				"y": 3.3073534583,
				"z": 1.5108666393,
				"element": "N" 
			},
			{
				"x": -2.9823986889,
				"y": 2.6673606285,
				"z": 1.7188093555,
				"element": "H" 
			},
			{
				"x": -3.5936490725,
				"y": 1.1388430819,
				"z": 1.9741673361,
				"element": "H" 
			},
			{
				"x": -2.6166968692,
				"y": -0.7304211463,
				"z": 0.8287178602,
				"element": "H" 
			},
			{
				"x": 2.396610852,
				"y": 0.3750225235,
				"z": -1.3160079589,
				"element": "H" 
			},
			{
				"x": 2.3353965059,
				"y": -1.9166710049,
				"z": -2.240125492,
				"element": "H" 
			},
			{
				"x": 0.3683862542,
				"y": -3.3873817847,
				"z": -1.8126870431,
				"element": "H" 
			},
			{
				"x": -1.528953424,
				"y": -2.5617908141,
				"z": -0.4606113011,
				"element": "H" 
			},
			{
				"x": 1.3455067372,
				"y": 2.17484756,
				"z": 0.0460699461,
				"element": "H" 
			},
			{
				"x": 0.2664736498,
				"y": 3.7960220705,
				"z": 1.4490967864,
				"element": "H" 
			},
			{
				"x": -0.9600902544,
				"y": 3.3121157074,
				"z": 2.4672345294,
				"element": "H" 
			}
		],
		 "valence_orbital": [ 
			{
				"type": "occ",
				"energy": -0.31379,
				"method": "rhf"
			},
			{
				"type": "occ",
				"energy": -0.272,
				"method": "rhf"
			},
			{
				"type": "occ",
				"energy": -0.25958,
				"method": "rhf"
			},
			{
				"type": "occ",
				"energy": -0.19363,
				"method": "rhf"
			},
			{
				"type": "occ",
				"energy": -0.19099,
				"method": "rhf"
			},
			{
				"type": "unocc",
				"energy": -0.01892,
				"method": "rhf"
			},
			{
				"type": "unocc",
				"energy": 0.01425,
				"method": "rhf"
			},
			{
				"type": "unocc",
				"energy": 0.04729,
				"method": "rhf"
			},
			{
				"type": "unocc",
				"energy": 0.0729,
				"method": "rhf"
			},
			{
				"type": "unocc",
				"energy": 0.1016,
				"method": "rhf"
			}
		],
		"cosmo_sigma_profile": { 
			"-0.025": 0.0,
			"-0.024": 0.0,
			"-0.023": 0.0,
			"-0.022": 0.0,
			"-0.021": 0.0,
			"-0.02": 0.0,
			"-0.019": 0.0,
			"-0.018": 0.0,
			"-0.017": 0.0,
			"-0.016": 0.0,
			"-0.015": 0.0,
			"-0.014": 0.0,
			"-0.013": 0.080324180213,
			"-0.012": 1.85000836707,
			"-0.011": 4.43897392456,
			"-0.01": 5.07422671044,
			"-0.009": 5.32251883495,
			"-0.008": 5.43452883175,
			"-0.007": 5.18553207985,
			"-0.006": 5.54200670807,
			"-0.005": 13.6063438546,
			"-0.004": 13.6734924882,
			"-0.003": 13.4281846605,
			"-0.002": 11.2893290158,
			"-0.001": 10.3201475152,
			"0.0": 8.30378839778,
			"0.001": 8.87041356586,
			"0.002": 7.87339343603,
			"0.003": 9.15202862939,
			"0.004": 12.2809076159,
			"0.005": 17.1221678615,
			"0.006": 23.2625554291,
			"0.007": 8.40499703121,
			"0.008": 1.27793698648,
			"0.009": 1.26745441478,
			"0.01": 1.46956207344,
			"0.011": 1.38312680635,
			"0.012": 1.15811825479,
			"0.013": 0.757203275966,
			"0.014": 0.974123134594,
			"0.015": 0.149687437724,
			"0.016": 0.0,
			"0.017": 0.0,
			"0.018": 0.0,
			"0.019": 0.0,
			"0.02": 0.0,
			"0.021": 0.0,
			"0.022": 0.0,
			"0.023": 0.0,
			"0.024": 0.0,
			"0.025": 0.0
		}
	}
}
