{
	 "smiles": "BrC1=CC2=C(NCCO2)N=C1", 
	 "Tm": 391.15, 
	 "num_atms": 18, 
	 "gaussian": { 
		 "optdone": 1, 
		 "sigma_profile": "yes", 
		 "theory": "DFT", 
		 "functional": "B3LYP", 
		 "basiset": "6-31G**", 
		 "properties": { 
			 "R2extent": 5189.194, 
			 "electric_dipole_moment_norm": 4.13100209271, 
			 "electric_quadrupole_moment_norm": 3.54481892062, 
			 "total_energy": -3027.08395309, 
			 "HOMO_LUMO_gap": 0.18218, 
			 "cosmo_polarized_energy": -9.04, 
			 "cosmo_cavitation_energy": 23.69, 
			 "cosmo_dispersion_energy": -18.77, 
			 "cosmo_repulsion_energy": 1.51, 
			 "cosmo_total_nonelectrostatic_energy": 6.42, 
			 "SMD_solvation_energy": 0.57 
		},
		"coords": [
			{
				"x": -1.6528398056,
				"y": -2.8188309187,
				"z": 4.3111021026,
				"element": "Br" 
			},
			{
				"x": -1.3645363158,
				"y": -1.6787995533,
				"z": 2.8064803028,
				"element": "C" 
			},
			{
				"x": -0.4125345363,
				"y": -2.0176724926,
				"z": 1.8404569412,
				"element": "C" 
			},
			{
				"x": -0.2397484564,
				"y": -1.1633335482,
				"z": 0.7632166067,
				"element": "C" 
			},
			{
				"x": -1.032791686,
				"y": 0.0103784106,
				"z": 0.6923852552,
				"element": "C" 
			},
			{
				"x": -0.8525960803,
				"y": 0.8848995084,
				"z": -0.3655751241,
				"element": "N" 
			},
			{
				"x": -0.1813108466,
				"y": 0.3710484704,
				"z": -1.5464745226,
				"element": "C" 
			},
			{
				"x": 1.0419428931,
				"y": -0.4142111756,
				"z": -1.079422622,
				"element": "C" 
			},
			{
				"x": 0.666590708,
				"y": -1.490036336,
				"z": -0.2115418335,
				"element": "O" 
			},
			{
				"x": -1.9369167439,
				"y": 0.3163123882,
				"z": 1.6228456212,
				"element": "N" 
			},
			{
				"x": -2.101034885,
				"y": -0.5089786052,
				"z": 2.6657285978,
				"element": "C" 
			},
			{
				"x": 0.1816443809,
				"y": -2.9210182103,
				"z": 1.9124037367,
				"element": "H" 
			},
			{
				"x": -1.6079837029,
				"y": 1.5465225021,
				"z": -0.4842290243,
				"element": "H" 
			},
			{
				"x": 0.1395929377,
				"y": 1.2058210174,
				"z": -2.1780550641,
				"element": "H" 
			},
			{
				"x": -0.824061381,
				"y": -0.2871427585,
				"z": -2.1527030575,
				"element": "H" 
			},
			{
				"x": 1.737013556,
				"y": 0.2550141707,
				"z": -0.5566060235,
				"element": "H" 
			},
			{
				"x": 1.5582428198,
				"y": -0.879266372,
				"z": -1.9218060165,
				"element": "H" 
			},
			{
				"x": -2.8471728555,
				"y": -0.2278064974,
				"z": 3.4030941238,
				"element": "H" 
			}
		],
		 "valence_orbital": [ 
			{
				"type": "occ",
				"energy": -0.28604,
				"method": "rhf"
			},
			{
				"type": "occ",
				"energy": -0.28212,
				"method": "rhf"
			},
			{
				"type": "occ",
				"energy": -0.26343,
				"method": "rhf"
			},
			{
				"type": "occ",
				"energy": -0.25519,
				"method": "rhf"
			},
			{
				"type": "occ",
				"energy": -0.20237,
				"method": "rhf"
			},
			{
				"type": "unocc",
				"energy": -0.02019,
				"method": "rhf"
			},
			{
				"type": "unocc",
				"energy": 0.00346,
				"method": "rhf"
			},
			{
				"type": "unocc",
				"energy": 0.01271,
				"method": "rhf"
			},
			{
				"type": "unocc",
				"energy": 0.07492,
				"method": "rhf"
			},
			{
				"type": "unocc",
				"energy": 0.10368,
				"method": "rhf"
			}
		],
		"cosmo_sigma_profile": { 
			"-0.025": 0.0,
			"-0.024": 0.0,
			"-0.023": 0.0,
			"-0.022": 0.0,
			"-0.021": 0.0,
			"-0.02": 0.0,
			"-0.019": 0.0,
			"-0.018": 0.0,
			"-0.017": 0.0,
			"-0.016": 0.0,
			"-0.015": 0.0,
			"-0.014": 0.147996820809,
			"-0.013": 0.906811453937,
			"-0.012": 1.13794936474,
			"-0.011": 1.02240763034,
			"-0.01": 0.926900176572,
			"-0.009": 0.888313090323,
			"-0.008": 1.29950565259,
			"-0.007": 5.35002109642,
			"-0.006": 13.05251414,
			"-0.005": 15.1654051618,
			"-0.004": 15.0877534086,
			"-0.003": 14.2388157223,
			"-0.002": 8.44346195606,
			"-0.001": 9.53323564079,
			"0.0": 11.6051983832,
			"0.001": 13.451777707,
			"0.002": 20.3416978341,
			"0.003": 14.1268277562,
			"0.004": 13.5240458494,
			"0.005": 12.6618589104,
			"0.006": 3.76420498641,
			"0.007": 2.51605243455,
			"0.008": 3.75902695089,
			"0.009": 2.71327101171,
			"0.01": 2.16425159677,
			"0.011": 1.44383816632,
			"0.012": 0.852874268797,
			"0.013": 0.685408439095,
			"0.014": 0.875442397087,
			"0.015": 0.458717037812,
			"0.016": 0.0,
			"0.017": 0.0,
			"0.018": 0.0,
			"0.019": 0.0,
			"0.02": 0.0,
			"0.021": 0.0,
			"0.022": 0.0,
			"0.023": 0.0,
			"0.024": 0.0,
			"0.025": 0.0
		}
	}
}
