{
	 "smiles": "CN(C)C(=O)COC1=CC=C(N)C=C1", 
	 "Tm": 403.15, 
	 "num_atms": 28, 
	 "gaussian": { 
		 "optdone": 1, 
		 "sigma_profile": "yes", 
		 "theory": "DFT", 
		 "functional": "B3LYP", 
		 "basiset": "6-31G**", 
		 "properties": { 
			 "R2extent": 4433.9167, 
			 "electric_dipole_moment_norm": 4.64670302365, 
			 "electric_quadrupole_moment_norm": 22.6964100534, 
			 "total_energy": -649.442972736, 
			 "HOMO_LUMO_gap": 0.18795, 
			 "cosmo_polarized_energy": -20.38, 
			 "cosmo_cavitation_energy": 31.23, 
			 "cosmo_dispersion_energy": -22.67, 
			 "cosmo_repulsion_energy": 1.81, 
			 "cosmo_total_nonelectrostatic_energy": 10.36, 
			 "SMD_solvation_energy": 5.98 
		},
		"coords": [
			{
				"x": -2.830453942,
				"y": 2.9378982948,
				"z": -0.0303868124,
				"element": "C" 
			},
			{
				"x": -1.716277812,
				"y": 2.3404136939,
				"z": -0.7537427741,
				"element": "N" 
			},
			{
				"x": -0.7519428705,
				"y": 3.2764152479,
				"z": -1.3069665313,
				"element": "C" 
			},
			{
				"x": -1.7374173305,
				"y": 0.9858405776,
				"z": -0.9987674186,
				"element": "C" 
			},
			{
				"x": -2.6216156617,
				"y": 0.2517165648,
				"z": -0.5830798689,
				"element": "O" 
			},
			{
				"x": -0.5682929735,
				"y": 0.4157022612,
				"z": -1.8317088441,
				"element": "C" 
			},
			{
				"x": -0.7069423899,
				"y": -0.9602781816,
				"z": -2.0703573496,
				"element": "O" 
			},
			{
				"x": -0.3154540183,
				"y": -1.8533863621,
				"z": -1.0969377993,
				"element": "C" 
			},
			{
				"x": -0.273390684,
				"y": -3.1948876471,
				"z": -1.4922767609,
				"element": "C" 
			},
			{
				"x": 0.129606318,
				"y": -4.1827426376,
				"z": -0.602059129,
				"element": "C" 
			},
			{
				"x": 0.5107084258,
				"y": -3.8592127016,
				"z": 0.7116152398,
				"element": "C" 
			},
			{
				"x": 0.8633568321,
				"y": -4.8655108416,
				"z": 1.6277847056,
				"element": "N" 
			},
			{
				"x": 0.4618502082,
				"y": -2.5136149843,
				"z": 1.0967139364,
				"element": "C" 
			},
			{
				"x": 0.0494328721,
				"y": -1.5177403852,
				"z": 0.2081456908,
				"element": "C" 
			},
			{
				"x": -3.4127445246,
				"y": 3.6001322238,
				"z": -0.6849407168,
				"element": "H" 
			},
			{
				"x": -2.4604734435,
				"y": 3.5284996934,
				"z": 0.8164185369,
				"element": "H" 
			},
			{
				"x": -3.4719806676,
				"y": 2.1364934405,
				"z": 0.3322746105,
				"element": "H" 
			},
			{
				"x": -0.4045946482,
				"y": 3.9593605136,
				"z": -0.5223095174,
				"element": "H" 
			},
			{
				"x": 0.1216329333,
				"y": 2.7654498157,
				"z": -1.7089718405,
				"element": "H" 
			},
			{
				"x": -1.1945688356,
				"y": 3.8848298716,
				"z": -2.1087675441,
				"element": "H" 
			},
			{
				"x": -0.5619533475,
				"y": 0.8867810341,
				"z": -2.8208251779,
				"element": "H" 
			},
			{
				"x": 0.3951600015,
				"y": 0.6396570053,
				"z": -1.3505223316,
				"element": "H" 
			},
			{
				"x": -0.5596408016,
				"y": -3.4455032635,
				"z": -2.5086355682,
				"element": "H" 
			},
			{
				"x": 0.1495818048,
				"y": -5.2204509468,
				"z": -0.9265864587,
				"element": "H" 
			},
			{
				"x": 1.4622226934,
				"y": -4.5469496677,
				"z": 2.3784283307,
				"element": "H" 
			},
			{
				"x": 1.2449635864,
				"y": -5.697776634,
				"z": 1.1972016683,
				"element": "H" 
			},
			{
				"x": 0.7339894253,
				"y": -2.2368360985,
				"z": 2.1125461991,
				"element": "H" 
			},
			{
				"x": -0.0020611496,
				"y": -0.4941998865,
				"z": 0.5601135256,
				"element": "H" 
			}
		],
		 "valence_orbital": [ 
			{
				"type": "occ",
				"energy": -0.27202,
				"method": "rhf"
			},
			{
				"type": "occ",
				"energy": -0.24633,
				"method": "rhf"
			},
			{
				"type": "occ",
				"energy": -0.24076,
				"method": "rhf"
			},
			{
				"type": "occ",
				"energy": -0.23663,
				"method": "rhf"
			},
			{
				"type": "occ",
				"energy": -0.17786,
				"method": "rhf"
			},
			{
				"type": "unocc",
				"energy": 0.01009,
				"method": "rhf"
			},
			{
				"type": "unocc",
				"energy": 0.02758,
				"method": "rhf"
			},
			{
				"type": "unocc",
				"energy": 0.03909,
				"method": "rhf"
			},
			{
				"type": "unocc",
				"energy": 0.07672,
				"method": "rhf"
			},
			{
				"type": "unocc",
				"energy": 0.08879,
				"method": "rhf"
			}
		],
		"cosmo_sigma_profile": { 
			"-0.025": 0.0,
			"-0.024": 0.0,
			"-0.023": 0.0,
			"-0.022": 0.0,
			"-0.021": 0.0,
			"-0.02": 0.0,
			"-0.019": 0.0,
			"-0.018": 0.0,
			"-0.017": 0.0,
			"-0.016": 0.0,
			"-0.015": 0.0,
			"-0.014": 0.0,
			"-0.013": 0.0,
			"-0.012": 1.38141526281,
			"-0.011": 2.88596690507,
			"-0.01": 2.57546636967,
			"-0.009": 3.13274420408,
			"-0.008": 7.15531422287,
			"-0.007": 10.9960575503,
			"-0.006": 10.8805874749,
			"-0.005": 20.343623146,
			"-0.004": 22.8413510888,
			"-0.003": 24.3817674494,
			"-0.002": 21.3530354968,
			"-0.001": 13.5248749445,
			"0.0": 10.255987963,
			"0.001": 7.31557155455,
			"0.002": 9.36947811463,
			"0.003": 7.04949773194,
			"0.004": 8.69760125599,
			"0.005": 9.85832503278,
			"0.006": 12.0447517715,
			"0.007": 9.61503471095,
			"0.008": 4.53944573128,
			"0.009": 2.95908510743,
			"0.01": 3.83831853038,
			"0.011": 3.85920821918,
			"0.012": 3.33527083533,
			"0.013": 4.60827711828,
			"0.014": 5.18459720134,
			"0.015": 1.8585078873,
			"0.016": 0.347970013725,
			"0.017": 0.0,
			"0.018": 0.0,
			"0.019": 0.0,
			"0.02": 0.0,
			"0.021": 0.0,
			"0.022": 0.0,
			"0.023": 0.0,
			"0.024": 0.0,
			"0.025": 0.0
		}
	}
}
