{
	 "smiles": "C1=CC=C(N=C1)C1=CC=CC(=N1)C1=CC=CC=N1", 
	 "Tm": 363.65, 
	 "num_atms": 29, 
	 "gaussian": { 
		 "optdone": 1, 
		 "sigma_profile": "yes", 
		 "theory": "DFT", 
		 "functional": "B3LYP", 
		 "basiset": "6-31G**", 
		 "properties": { 
			 "R2extent": 6681.7716, 
			 "electric_dipole_moment_norm": 2.0057360619, 
			 "electric_quadrupole_moment_norm": 13.1234782851, 
			 "total_energy": -742.490096938, 
			 "HOMO_LUMO_gap": 0.17453, 
			 "cosmo_polarized_energy": -9.18, 
			 "cosmo_cavitation_energy": 33.86, 
			 "cosmo_dispersion_energy": -24.93, 
			 "cosmo_repulsion_energy": 1.88, 
			 "cosmo_total_nonelectrostatic_energy": 10.81, 
			 "SMD_solvation_energy": 3.03 
		},
		"coords": [
			{
				"x": 3.0153127254,
				"y": -0.742970769,
				"z": -2.4082332769,
				"element": "C" 
			},
			{
				"x": 2.4980286869,
				"y": 0.477983996,
				"z": -1.9754731619,
				"element": "C" 
			},
			{
				"x": 1.7209026022,
				"y": 0.5111933276,
				"z": -0.8216329778,
				"element": "C" 
			},
			{
				"x": 1.4830639205,
				"y": -0.6859911336,
				"z": -0.1308529603,
				"element": "C" 
			},
			{
				"x": 1.9807867192,
				"y": -1.8652329398,
				"z": -0.5460315855,
				"element": "N" 
			},
			{
				"x": 2.7243673767,
				"y": -1.8815920201,
				"z": -1.6543469524,
				"element": "C" 
			},
			{
				"x": 0.657248252,
				"y": -0.7071049047,
				"z": 1.1109204621,
				"element": "C" 
			},
			{
				"x": 0.4274311566,
				"y": -1.9120766697,
				"z": 1.7915411977,
				"element": "C" 
			},
			{
				"x": -0.3495074473,
				"y": -1.8829572666,
				"z": 2.9457717456,
				"element": "C" 
			},
			{
				"x": -0.8717043472,
				"y": -0.6712864705,
				"z": 3.3883578966,
				"element": "C" 
			},
			{
				"x": -0.5924535728,
				"y": 0.4865599803,
				"z": 2.6471088392,
				"element": "C" 
			},
			{
				"x": 0.1560339411,
				"y": 0.4634423979,
				"z": 1.5338088983,
				"element": "N" 
			},
			{
				"x": -1.1289505668,
				"y": 1.8090667102,
				"z": 3.080222666,
				"element": "C" 
			},
			{
				"x": -0.8572656254,
				"y": 2.9748570189,
				"z": 2.3493830352,
				"element": "C" 
			},
			{
				"x": -1.3812058217,
				"y": 4.1844919335,
				"z": 2.7950769126,
				"element": "C" 
			},
			{
				"x": -2.1589445077,
				"y": 4.1996789386,
				"z": 3.9528728549,
				"element": "C" 
			},
			{
				"x": -2.3746328125,
				"y": 2.9883328264,
				"z": 4.6128436292,
				"element": "C" 
			},
			{
				"x": -1.8788342767,
				"y": 1.8207698115,
				"z": 4.1974665441,
				"element": "N" 
			},
			{
				"x": 3.626283555,
				"y": -0.8160272636,
				"z": -3.3022671726,
				"element": "H" 
			},
			{
				"x": 2.6970919235,
				"y": 1.3914685638,
				"z": -2.5289322749,
				"element": "H" 
			},
			{
				"x": 1.2957907214,
				"y": 1.4322005646,
				"z": -0.4430060487,
				"element": "H" 
			},
			{
				"x": 3.1087687998,
				"y": -2.8543228256,
				"z": -1.9576398368,
				"element": "H" 
			},
			{
				"x": 0.8575358476,
				"y": -2.8269186377,
				"z": 1.4037153027,
				"element": "H" 
			},
			{
				"x": -0.5467111916,
				"y": -2.79843061,
				"z": 3.4966861195,
				"element": "H" 
			},
			{
				"x": -1.4819651669,
				"y": -0.592464545,
				"z": 4.2792568698,
				"element": "H" 
			},
			{
				"x": -0.2476057324,
				"y": 2.9081023823,
				"z": 1.4570894134,
				"element": "H" 
			},
			{
				"x": -1.1855246267,
				"y": 5.1019357221,
				"z": 2.2469845698,
				"element": "H" 
			},
			{
				"x": -2.5876839376,
				"y": 5.119769564,
				"z": 4.3369763706,
				"element": "H" 
			},
			{
				"x": -2.9759565949,
				"y": 2.956522318,
				"z": 5.5202329205,
				"element": "H" 
			}
		],
		 "valence_orbital": [ 
			{
				"type": "occ",
				"energy": -0.2695,
				"method": "rhf"
			},
			{
				"type": "occ",
				"energy": -0.2546,
				"method": "rhf"
			},
			{
				"type": "occ",
				"energy": -0.25192,
				"method": "rhf"
			},
			{
				"type": "occ",
				"energy": -0.24636,
				"method": "rhf"
			},
			{
				"type": "occ",
				"energy": -0.22552,
				"method": "rhf"
			},
			{
				"type": "unocc",
				"energy": -0.05099,
				"method": "rhf"
			},
			{
				"type": "unocc",
				"energy": -0.04762,
				"method": "rhf"
			},
			{
				"type": "unocc",
				"energy": -0.02058,
				"method": "rhf"
			},
			{
				"type": "unocc",
				"energy": -0.01523,
				"method": "rhf"
			},
			{
				"type": "unocc",
				"energy": 0.01678,
				"method": "rhf"
			}
		],
		"cosmo_sigma_profile": { 
			"-0.025": 0.0,
			"-0.024": 0.0,
			"-0.023": 0.0,
			"-0.022": 0.0,
			"-0.021": 0.0,
			"-0.02": 0.0,
			"-0.019": 0.0,
			"-0.018": 0.0,
			"-0.017": 0.0,
			"-0.016": 0.0,
			"-0.015": 0.0,
			"-0.014": 0.0,
			"-0.013": 0.0,
			"-0.012": 0.0,
			"-0.011": 0.0,
			"-0.01": 0.0,
			"-0.009": 0.0,
			"-0.008": 0.259257221262,
			"-0.007": 9.71199709068,
			"-0.006": 16.6332854438,
			"-0.005": 24.0026874863,
			"-0.004": 19.1463118941,
			"-0.003": 14.8003833185,
			"-0.002": 13.3797567461,
			"-0.001": 13.8251661753,
			"0.0": 16.9518256878,
			"0.001": 30.3953707749,
			"0.002": 49.0635909787,
			"0.003": 29.8483755754,
			"0.004": 8.0691767068,
			"0.005": 7.59543353951,
			"0.006": 4.93169307775,
			"0.007": 4.00210487686,
			"0.008": 3.06352159167,
			"0.009": 2.5887915915,
			"0.01": 2.25690841858,
			"0.011": 2.99452109924,
			"0.012": 0.398543891206,
			"0.013": 0.0,
			"0.014": 0.0,
			"0.015": 0.0,
			"0.016": 0.0,
			"0.017": 0.0,
			"0.018": 0.0,
			"0.019": 0.0,
			"0.02": 0.0,
			"0.021": 0.0,
			"0.022": 0.0,
			"0.023": 0.0,
			"0.024": 0.0,
			"0.025": 0.0
		}
	}
}
