{
	 "smiles": "CSC1=C(N)C=NC=C1", 
	 "Tm": 352.15, 
	 "num_atms": 17, 
	 "gaussian": { 
		 "optdone": 1, 
		 "sigma_profile": "yes", 
		 "theory": "DFT", 
		 "functional": "B3LYP", 
		 "basiset": "6-31G**", 
		 "properties": { 
			 "R2extent": 1490.0727, 
			 "electric_dipole_moment_norm": 3.04201086619, 
			 "electric_quadrupole_moment_norm": 12.6635730388, 
			 "total_energy": -741.146112537, 
			 "HOMO_LUMO_gap": 0.19025, 
			 "cosmo_polarized_energy": -11.7, 
			 "cosmo_cavitation_energy": 21.8, 
			 "cosmo_dispersion_energy": -16.96, 
			 "cosmo_repulsion_energy": 1.33, 
			 "cosmo_total_nonelectrostatic_energy": 6.17, 
			 "SMD_solvation_energy": 2.42 
		},
		"coords": [
			{
				"x": -2.4651588346,
				"y": -0.4446326791,
				"z": -1.2351042348,
				"element": "C" 
			},
			{
				"x": -1.4791519376,
				"y": 0.7404071214,
				"z": -0.2615721582,
				"element": "S" 
			},
			{
				"x": -0.0565583115,
				"y": -0.2223574123,
				"z": 0.2133560312,
				"element": "C" 
			},
			{
				"x": 0.7122233042,
				"y": 0.2443258024,
				"z": 1.304715763,
				"element": "C" 
			},
			{
				"x": 0.390365067,
				"y": 1.4250751663,
				"z": 1.9703789598,
				"element": "N" 
			},
			{
				"x": 1.8466799701,
				"y": -0.5046690739,
				"z": 1.6580572094,
				"element": "C" 
			},
			{
				"x": 2.2473842419,
				"y": -1.6171337432,
				"z": 1.0417154902,
				"element": "N" 
			},
			{
				"x": 1.5049618136,
				"y": -2.0497114843,
				"z": 0.0174414761,
				"element": "C" 
			},
			{
				"x": 0.3578387486,
				"y": -1.3919514311,
				"z": -0.4276094679,
				"element": "C" 
			},
			{
				"x": -2.6421812371,
				"y": -1.3630169145,
				"z": -0.671624746,
				"element": "H" 
			},
			{
				"x": -3.4191013958,
				"y": 0.0512293576,
				"z": -1.4256617008,
				"element": "H" 
			},
			{
				"x": -1.9911290888,
				"y": -0.6727165949,
				"z": -2.1920224409,
				"element": "H" 
			},
			{
				"x": 0.851480096,
				"y": 1.5392326412,
				"z": 2.8633311667,
				"element": "H" 
			},
			{
				"x": -0.601815824,
				"y": 1.6235885833,
				"z": 2.0294874455,
				"element": "H" 
			},
			{
				"x": 2.4549117916,
				"y": -0.1676776541,
				"z": 2.4988485352,
				"element": "H" 
			},
			{
				"x": 1.8367833003,
				"y": -2.9606174089,
				"z": -0.4765589931,
				"element": "H" 
			},
			{
				"x": -0.1932317039,
				"y": -1.793374276,
				"z": -1.2704783355,
				"element": "H" 
			}
		],
		 "valence_orbital": [ 
			{
				"type": "occ",
				"energy": -0.32668,
				"method": "rhf"
			},
			{
				"type": "occ",
				"energy": -0.29842,
				"method": "rhf"
			},
			{
				"type": "occ",
				"energy": -0.2467,
				"method": "rhf"
			},
			{
				"type": "occ",
				"energy": -0.23655,
				"method": "rhf"
			},
			{
				"type": "occ",
				"energy": -0.20635,
				"method": "rhf"
			},
			{
				"type": "unocc",
				"energy": -0.0161,
				"method": "rhf"
			},
			{
				"type": "unocc",
				"energy": 0.00698,
				"method": "rhf"
			},
			{
				"type": "unocc",
				"energy": 0.03196,
				"method": "rhf"
			},
			{
				"type": "unocc",
				"energy": 0.06352,
				"method": "rhf"
			},
			{
				"type": "unocc",
				"energy": 0.09056,
				"method": "rhf"
			}
		],
		"cosmo_sigma_profile": { 
			"-0.025": 0.0,
			"-0.024": 0.0,
			"-0.023": 0.0,
			"-0.022": 0.0,
			"-0.021": 0.0,
			"-0.02": 0.0,
			"-0.019": 0.0,
			"-0.018": 0.0,
			"-0.017": 0.0,
			"-0.016": 0.0,
			"-0.015": 0.0,
			"-0.014": 0.00282384863628,
			"-0.013": 0.839420541622,
			"-0.012": 1.69853840822,
			"-0.011": 2.62983611297,
			"-0.01": 2.64206452729,
			"-0.009": 2.45419334526,
			"-0.008": 3.17705798096,
			"-0.007": 7.0078752753,
			"-0.006": 10.8888750263,
			"-0.005": 12.9696854113,
			"-0.004": 11.6261319349,
			"-0.003": 11.9260094585,
			"-0.002": 11.7637790173,
			"-0.001": 8.27658121586,
			"0.0": 6.60418394485,
			"0.001": 7.28897060786,
			"0.002": 9.85836105635,
			"0.003": 14.5035198226,
			"0.004": 14.1055952679,
			"0.005": 7.00081144687,
			"0.006": 6.6024620589,
			"0.007": 4.40909298587,
			"0.008": 3.3667884073,
			"0.009": 3.17163818055,
			"0.01": 1.33307567709,
			"0.011": 1.4269581588,
			"0.012": 2.28300152335,
			"0.013": 1.35545764888,
			"0.014": 1.0593479177,
			"0.015": 1.03840669387,
			"0.016": 1.00517599956,
			"0.017": 0.712742464708,
			"0.018": 0.132938201609,
			"0.019": 0.0,
			"0.02": 0.0,
			"0.021": 0.0,
			"0.022": 0.0,
			"0.023": 0.0,
			"0.024": 0.0,
			"0.025": 0.0
		}
	}
}
