{
	 "smiles": "OC(=O)C(=O)C1=CC2=C(CCCC2)C=C1", 
	 "Tm": 344.15, 
	 "num_atms": 27, 
	 "gaussian": { 
		 "optdone": 1, 
		 "sigma_profile": "yes", 
		 "theory": "DFT", 
		 "functional": "B3LYP", 
		 "basiset": "6-31G**", 
		 "properties": { 
			 "R2extent": 4610.271, 
			 "electric_dipole_moment_norm": 5.03787506495, 
			 "electric_quadrupole_moment_norm": 15.6162341241, 
			 "total_energy": -690.204121502, 
			 "HOMO_LUMO_gap": 0.16129, 
			 "cosmo_polarized_energy": -9.26, 
			 "cosmo_cavitation_energy": 29.87, 
			 "cosmo_dispersion_energy": -22.34, 
			 "cosmo_repulsion_energy": 1.73, 
			 "cosmo_total_nonelectrostatic_energy": 9.26, 
			 "SMD_solvation_energy": 6.11 
		},
		"coords": [
			{
				"x": -2.5611303433,
				"y": 2.1996021629,
				"z": -4.7246212892,
				"element": "O" 
			},
			{
				"x": -1.9038385252,
				"y": 1.2555282225,
				"z": -4.0477888495,
				"element": "C" 
			},
			{
				"x": -1.3543435728,
				"y": 0.3181001256,
				"z": -4.5786404312,
				"element": "O" 
			},
			{
				"x": -1.9564485105,
				"y": 1.5454787377,
				"z": -2.5153034249,
				"element": "C" 
			},
			{
				"x": -2.5774728763,
				"y": 2.5650513485,
				"z": -2.2093238106,
				"element": "O" 
			},
			{
				"x": -1.3168295154,
				"y": 0.6727039938,
				"z": -1.519848805,
				"element": "C" 
			},
			{
				"x": -1.4358076835,
				"y": 1.0483076907,
				"z": -0.1646110784,
				"element": "C" 
			},
			{
				"x": -0.8662202531,
				"y": 0.2814570746,
				"z": 0.8419751729,
				"element": "C" 
			},
			{
				"x": -0.1484902081,
				"y": -0.8870436654,
				"z": 0.5017870439,
				"element": "C" 
			},
			{
				"x": 0.4553249781,
				"y": -1.6679954828,
				"z": 1.6395584767,
				"element": "C" 
			},
			{
				"x": 1.2251899396,
				"y": -0.7408329654,
				"z": 2.6111452395,
				"element": "C" 
			},
			{
				"x": 0.4390529517,
				"y": 0.5513882352,
				"z": 2.9793683558,
				"element": "C" 
			},
			{
				"x": -0.952154916,
				"y": 0.6277038873,
				"z": 2.3082302901,
				"element": "C" 
			},
			{
				"x": -0.0222868945,
				"y": -1.2565745119,
				"z": -0.8399919339,
				"element": "C" 
			},
			{
				"x": -0.6011615665,
				"y": -0.4936340722,
				"z": -1.8511966193,
				"element": "C" 
			},
			{
				"x": -2.8965137437,
				"y": 2.820113327,
				"z": -4.0402815825,
				"element": "H" 
			},
			{
				"x": -1.985166884,
				"y": 1.953817144,
				"z": 0.0737739563,
				"element": "H" 
			},
			{
				"x": -0.3541134063,
				"y": -2.1678424567,
				"z": 2.1918392181,
				"element": "H" 
			},
			{
				"x": 1.1106583362,
				"y": -2.4613266733,
				"z": 1.2663477066,
				"element": "H" 
			},
			{
				"x": 2.1764237071,
				"y": -0.4675585062,
				"z": 2.1429043652,
				"element": "H" 
			},
			{
				"x": 1.4773163363,
				"y": -1.3079607597,
				"z": 3.5130562949,
				"element": "H" 
			},
			{
				"x": 0.3160867438,
				"y": 0.6290500821,
				"z": 4.0645514953,
				"element": "H" 
			},
			{
				"x": 1.0174073434,
				"y": 1.4283756664,
				"z": 2.6706138748,
				"element": "H" 
			},
			{
				"x": -1.3898308128,
				"y": 1.6211386316,
				"z": 2.4481101082,
				"element": "H" 
			},
			{
				"x": -1.6287555056,
				"y": -0.0819915998,
				"z": 2.8062711509,
				"element": "H" 
			},
			{
				"x": 0.5356380847,
				"y": -2.1528908887,
				"z": -1.098162839,
				"element": "H" 
			},
			{
				"x": -0.5038332033,
				"y": -0.784064748,
				"z": -2.8886620855,
				"element": "H" 
			}
		],
		 "valence_orbital": [ 
			{
				"type": "occ",
				"energy": -0.32148,
				"method": "rhf"
			},
			{
				"type": "occ",
				"energy": -0.32051,
				"method": "rhf"
			},
			{
				"type": "occ",
				"energy": -0.26176,
				"method": "rhf"
			},
			{
				"type": "occ",
				"energy": -0.25821,
				"method": "rhf"
			},
			{
				"type": "occ",
				"energy": -0.25626,
				"method": "rhf"
			},
			{
				"type": "unocc",
				"energy": -0.09497,
				"method": "rhf"
			},
			{
				"type": "unocc",
				"energy": -0.01283,
				"method": "rhf"
			},
			{
				"type": "unocc",
				"energy": -0.00757,
				"method": "rhf"
			},
			{
				"type": "unocc",
				"energy": 0.07489,
				"method": "rhf"
			},
			{
				"type": "unocc",
				"energy": 0.075,
				"method": "rhf"
			}
		],
		"cosmo_sigma_profile": { 
			"-0.025": 0.0,
			"-0.024": 0.0,
			"-0.023": 0.0,
			"-0.022": 0.0,
			"-0.021": 0.0,
			"-0.02": 0.0,
			"-0.019": 0.0,
			"-0.018": 0.0,
			"-0.017": 0.0,
			"-0.016": 0.0,
			"-0.015": 0.0706585967861,
			"-0.014": 0.477385838147,
			"-0.013": 0.492529576337,
			"-0.012": 0.498935990582,
			"-0.011": 0.904536227813,
			"-0.01": 0.69219470564,
			"-0.009": 0.345274480261,
			"-0.008": 2.83295828369,
			"-0.007": 4.26524130079,
			"-0.006": 4.56282732754,
			"-0.005": 9.70061351504,
			"-0.004": 19.2897535199,
			"-0.003": 23.0215905055,
			"-0.002": 28.3149981093,
			"-0.001": 30.1243828188,
			"0.0": 23.3410839209,
			"0.001": 17.392811492,
			"0.002": 13.5228500537,
			"0.003": 14.8073303838,
			"0.004": 7.83965061151,
			"0.005": 3.36113095106,
			"0.006": 3.61775337128,
			"0.007": 5.13850840772,
			"0.008": 6.09340498791,
			"0.009": 6.78949635489,
			"0.01": 5.49785184982,
			"0.011": 2.50880428624,
			"0.012": 1.11268054028,
			"0.013": 0.00128779985531,
			"0.014": 0.0,
			"0.015": 0.0,
			"0.016": 0.0,
			"0.017": 0.0,
			"0.018": 0.0,
			"0.019": 0.0,
			"0.02": 0.0,
			"0.021": 0.0,
			"0.022": 0.0,
			"0.023": 0.0,
			"0.024": 0.0,
			"0.025": 0.0
		}
	}
}
