{
	 "smiles": "CC1=CC=CC(C)=C1NC(N)=S", 
	 "Tm": 468.15, 
	 "num_atms": 24, 
	 "gaussian": { 
		 "optdone": 1, 
		 "sigma_profile": "yes", 
		 "theory": "DFT", 
		 "functional": "B3LYP", 
		 "basiset": "6-31G**", 
		 "properties": { 
			 "R2extent": 3317.2938, 
			 "electric_dipole_moment_norm": 5.61800682271, 
			 "electric_quadrupole_moment_norm": 25.0705118107, 
			 "total_energy": -857.912962262, 
			 "HOMO_LUMO_gap": 0.17503, 
			 "cosmo_polarized_energy": -16.55, 
			 "cosmo_cavitation_energy": 28.61, 
			 "cosmo_dispersion_energy": -20.49, 
			 "cosmo_repulsion_energy": 1.6, 
			 "cosmo_total_nonelectrostatic_energy": 9.72, 
			 "SMD_solvation_energy": 4.43 
		},
		"coords": [
			{
				"x": 0.9063462986,
				"y": 0.2770955903,
				"z": 2.7480256413,
				"element": "C" 
			},
			{
				"x": 1.0347190651,
				"y": -0.4575566132,
				"z": 1.4351629233,
				"element": "C" 
			},
			{
				"x": 0.7061406009,
				"y": -1.813837397,
				"z": 1.3354484823,
				"element": "C" 
			},
			{
				"x": 0.8256905773,
				"y": -2.4899756685,
				"z": 0.122311309,
				"element": "C" 
			},
			{
				"x": 1.290001387,
				"y": -1.8209439602,
				"z": -1.0082509517,
				"element": "C" 
			},
			{
				"x": 1.6446287518,
				"y": -0.4671284347,
				"z": -0.9514553032,
				"element": "C" 
			},
			{
				"x": 2.1874323833,
				"y": 0.2398844259,
				"z": -2.1697098788,
				"element": "C" 
			},
			{
				"x": 1.4958656408,
				"y": 0.2054692211,
				"z": 0.279307703,
				"element": "C" 
			},
			{
				"x": 1.8552900394,
				"y": 1.5889154622,
				"z": 0.375900527,
				"element": "N" 
			},
			{
				"x": 1.1320958627,
				"y": 2.6540325376,
				"z": -0.0827198502,
				"element": "C" 
			},
			{
				"x": -0.0085663361,
				"y": 2.3522394829,
				"z": -0.7564457511,
				"element": "N" 
			},
			{
				"x": 1.6466433528,
				"y": 4.2382596669,
				"z": 0.1572263049,
				"element": "S" 
			},
			{
				"x": 0.3392426399,
				"y": 1.2066585357,
				"z": 2.6377953253,
				"element": "H" 
			},
			{
				"x": 1.8869520722,
				"y": 0.5540706132,
				"z": 3.1545999517,
				"element": "H" 
			},
			{
				"x": 0.4062898262,
				"y": -0.3456463721,
				"z": 3.493892772,
				"element": "H" 
			},
			{
				"x": 0.3482618359,
				"y": -2.3385253488,
				"z": 2.217091372,
				"element": "H" 
			},
			{
				"x": 0.5620014875,
				"y": -3.541856615,
				"z": 0.0596743946,
				"element": "H" 
			},
			{
				"x": 1.3970575842,
				"y": -2.3547808551,
				"z": -1.9485783526,
				"element": "H" 
			},
			{
				"x": 2.4087051478,
				"y": -0.4760207707,
				"z": -2.9651162346,
				"element": "H" 
			},
			{
				"x": 3.1033465585,
				"y": 0.7893672091,
				"z": -1.931910458,
				"element": "H" 
			},
			{
				"x": 1.4756965814,
				"y": 0.9748012134,
				"z": -2.5612985978,
				"element": "H" 
			},
			{
				"x": 2.6419388492,
				"y": 1.8562564468,
				"z": 0.9522054353,
				"element": "H" 
			},
			{
				"x": -0.6029289217,
				"y": 3.1264745659,
				"z": -1.0039058427,
				"element": "H" 
			},
			{
				"x": -0.4056512846,
				"y": 1.4238470644,
				"z": -0.7144509209,
				"element": "H" 
			}
		],
		 "valence_orbital": [ 
			{
				"type": "occ",
				"energy": -0.282,
				"method": "rhf"
			},
			{
				"type": "occ",
				"energy": -0.25633,
				"method": "rhf"
			},
			{
				"type": "occ",
				"energy": -0.253,
				"method": "rhf"
			},
			{
				"type": "occ",
				"energy": -0.20669,
				"method": "rhf"
			},
			{
				"type": "occ",
				"energy": -0.1997,
				"method": "rhf"
			},
			{
				"type": "unocc",
				"energy": -0.02467,
				"method": "rhf"
			},
			{
				"type": "unocc",
				"energy": -0.01182,
				"method": "rhf"
			},
			{
				"type": "unocc",
				"energy": 0.00875,
				"method": "rhf"
			},
			{
				"type": "unocc",
				"energy": 0.06701,
				"method": "rhf"
			},
			{
				"type": "unocc",
				"energy": 0.0873,
				"method": "rhf"
			}
		],
		"cosmo_sigma_profile": { 
			"-0.025": 0.0,
			"-0.024": 0.0,
			"-0.023": 0.0,
			"-0.022": 0.0,
			"-0.021": 0.0,
			"-0.02": 0.0,
			"-0.019": 0.0,
			"-0.018": 0.0,
			"-0.017": 0.0,
			"-0.016": 0.0,
			"-0.015": 0.106620948653,
			"-0.014": 2.14311096866,
			"-0.013": 2.2265234769,
			"-0.012": 2.95943849791,
			"-0.011": 2.59033816556,
			"-0.01": 3.28631241749,
			"-0.009": 2.55691720796,
			"-0.008": 3.13813026618,
			"-0.007": 2.86938533966,
			"-0.006": 6.19839590071,
			"-0.005": 14.1771370138,
			"-0.004": 16.7187737409,
			"-0.003": 19.3069154209,
			"-0.002": 19.2251049293,
			"-0.001": 19.7018494013,
			"0.0": 22.2283723354,
			"0.001": 14.1153682003,
			"0.002": 10.1351745674,
			"0.003": 9.09979206961,
			"0.004": 9.78918794568,
			"0.005": 10.104474187,
			"0.006": 3.87581753858,
			"0.007": 2.76623831797,
			"0.008": 2.79638402542,
			"0.009": 3.8775497454,
			"0.01": 4.83860042716,
			"0.011": 5.55039410488,
			"0.012": 8.63648443384,
			"0.013": 3.59161797474,
			"0.014": 0.0407278835574,
			"0.015": 0.0,
			"0.016": 0.0,
			"0.017": 0.0,
			"0.018": 0.0,
			"0.019": 0.0,
			"0.02": 0.0,
			"0.021": 0.0,
			"0.022": 0.0,
			"0.023": 0.0,
			"0.024": 0.0,
			"0.025": 0.0
		}
	}
}
