{
	 "smiles": "CCC1(CC)C(=O)NC(=O)N(C)C1=O", 
	 "Tm": 428.15, 
	 "num_atms": 28, 
	 "gaussian": { 
		 "optdone": 1, 
		 "sigma_profile": "yes", 
		 "theory": "DFT", 
		 "functional": "B3LYP", 
		 "basiset": "6-31G**", 
		 "properties": { 
			 "R2extent": 2719.7637, 
			 "electric_dipole_moment_norm": 1.08714308626, 
			 "electric_quadrupole_moment_norm": 8.16256451797, 
			 "total_energy": -686.635626408, 
			 "HOMO_LUMO_gap": 0.21888, 
			 "cosmo_polarized_energy": -13.09, 
			 "cosmo_cavitation_energy": 29.87, 
			 "cosmo_dispersion_energy": -20.94, 
			 "cosmo_repulsion_energy": 1.65, 
			 "cosmo_total_nonelectrostatic_energy": 10.57, 
			 "SMD_solvation_energy": 6.97 
		},
		"coords": [
			{
				"x": -2.6326252323,
				"y": 1.1986621842,
				"z": 0.9084798791,
				"element": "C" 
			},
			{
				"x": -2.1833886554,
				"y": 1.3031556582,
				"z": -0.552960345,
				"element": "C" 
			},
			{
				"x": -0.6663958691,
				"y": 1.0945885288,
				"z": -0.7717617374,
				"element": "C" 
			},
			{
				"x": -0.2712422838,
				"y": 1.3171773497,
				"z": -2.2821767036,
				"element": "C" 
			},
			{
				"x": -0.9990988856,
				"y": 0.4435982318,
				"z": -3.3076219702,
				"element": "C" 
			},
			{
				"x": 0.1126102045,
				"y": 2.1648818718,
				"z": -0.0117772497,
				"element": "C" 
			},
			{
				"x": -0.2206173321,
				"y": 3.3347779414,
				"z": 0.0229407668,
				"element": "O" 
			},
			{
				"x": 1.290631431,
				"y": 1.7487576065,
				"z": 0.588848617,
				"element": "N" 
			},
			{
				"x": 1.7786874019,
				"y": 0.4540067756,
				"z": 0.7339584196,
				"element": "C" 
			},
			{
				"x": 2.8343224824,
				"y": 0.2394632142,
				"z": 1.2990237331,
				"element": "O" 
			},
			{
				"x": 0.9680699304,
				"y": -0.5534589787,
				"z": 0.2048110321,
				"element": "N" 
			},
			{
				"x": 1.379266862,
				"y": -1.9482124057,
				"z": 0.414743342,
				"element": "C" 
			},
			{
				"x": -0.2759251659,
				"y": -0.3364812028,
				"z": -0.3951108904,
				"element": "C" 
			},
			{
				"x": -0.9858818463,
				"y": -1.2892769246,
				"z": -0.6706157971,
				"element": "O" 
			},
			{
				"x": -2.4127143548,
				"y": 0.210328307,
				"z": 1.3250883532,
				"element": "H" 
			},
			{
				"x": -3.7137799164,
				"y": 1.3500399119,
				"z": 0.9819803163,
				"element": "H" 
			},
			{
				"x": -2.1526086247,
				"y": 1.9579902517,
				"z": 1.5335853471,
				"element": "H" 
			},
			{
				"x": -2.43513095,
				"y": 2.2917965733,
				"z": -0.9477345166,
				"element": "H" 
			},
			{
				"x": -2.710813273,
				"y": 0.5550334613,
				"z": -1.1477634135,
				"element": "H" 
			},
			{
				"x": -0.4606037493,
				"y": 2.3757822252,
				"z": -2.4895133279,
				"element": "H" 
			},
			{
				"x": 0.8119584765,
				"y": 1.1690269722,
				"z": -2.3778537042,
				"element": "H" 
			},
			{
				"x": -2.0705810643,
				"y": 0.6583212959,
				"z": -3.3356938131,
				"element": "H" 
			},
			{
				"x": -0.5962896326,
				"y": 0.6484946716,
				"z": -4.3047075959,
				"element": "H" 
			},
			{
				"x": -0.8763317077,
				"y": -0.6219537944,
				"z": -3.1005389402,
				"element": "H" 
			},
			{
				"x": 1.8544652818,
				"y": 2.4650054355,
				"z": 1.0318210586,
				"element": "H" 
			},
			{
				"x": 2.4091621599,
				"y": -1.9431714811,
				"z": 0.7627594421,
				"element": "H" 
			},
			{
				"x": 1.2873261162,
				"y": -2.4938853106,
				"z": -0.5249007963,
				"element": "H" 
			},
			{
				"x": 0.7337281967,
				"y": -2.4253483697,
				"z": 1.1561904942,
				"element": "H" 
			}
		],
		 "valence_orbital": [ 
			{
				"type": "occ",
				"energy": -0.30995,
				"method": "rhf"
			},
			{
				"type": "occ",
				"energy": -0.29906,
				"method": "rhf"
			},
			{
				"type": "occ",
				"energy": -0.29146,
				"method": "rhf"
			},
			{
				"type": "occ",
				"energy": -0.28548,
				"method": "rhf"
			},
			{
				"type": "occ",
				"energy": -0.26351,
				"method": "rhf"
			},
			{
				"type": "unocc",
				"energy": -0.04463,
				"method": "rhf"
			},
			{
				"type": "unocc",
				"energy": -0.00406,
				"method": "rhf"
			},
			{
				"type": "unocc",
				"energy": 0.05209,
				"method": "rhf"
			},
			{
				"type": "unocc",
				"energy": 0.08243,
				"method": "rhf"
			},
			{
				"type": "unocc",
				"energy": 0.09024,
				"method": "rhf"
			}
		],
		"cosmo_sigma_profile": { 
			"-0.025": 0.0,
			"-0.024": 0.0,
			"-0.023": 0.0,
			"-0.022": 0.0,
			"-0.021": 0.0,
			"-0.02": 0.0,
			"-0.019": 0.0,
			"-0.018": 0.0,
			"-0.017": 0.071419001434,
			"-0.016": 0.873241190946,
			"-0.015": 0.767413308838,
			"-0.014": 1.04483769747,
			"-0.013": 0.760610723929,
			"-0.012": 0.535625641626,
			"-0.011": 0.995318875865,
			"-0.01": 0.717461051655,
			"-0.009": 1.39023716693,
			"-0.008": 2.09659077375,
			"-0.007": 2.73159168028,
			"-0.006": 7.02063271738,
			"-0.005": 12.3524894786,
			"-0.004": 20.7678576455,
			"-0.003": 31.2894946279,
			"-0.002": 31.2703113154,
			"-0.001": 22.0240442341,
			"0.0": 19.9356730558,
			"0.001": 13.8468123164,
			"0.002": 6.35550077372,
			"0.003": 5.49142914457,
			"0.004": 4.91586077436,
			"0.005": 4.12332280048,
			"0.006": 4.21794967901,
			"0.007": 4.31414580052,
			"0.008": 4.14304893743,
			"0.009": 4.80029106252,
			"0.01": 5.32595552673,
			"0.011": 11.5206106736,
			"0.012": 7.82828524175,
			"0.013": 0.124898933433,
			"0.014": 0.0,
			"0.015": 0.0,
			"0.016": 0.0,
			"0.017": 0.0,
			"0.018": 0.0,
			"0.019": 0.0,
			"0.02": 0.0,
			"0.021": 0.0,
			"0.022": 0.0,
			"0.023": 0.0,
			"0.024": 0.0,
			"0.025": 0.0
		}
	}
}
