{
	 "smiles": "CC(=C)C1=CC=C(C)C=C1", 
	 "Tm": 253.15, 
	 "num_atms": 22, 
	 "gaussian": { 
		 "optdone": 1, 
		 "sigma_profile": "yes", 
		 "theory": "DFT", 
		 "functional": "B3LYP", 
		 "basiset": "6-31G**", 
		 "properties": { 
			 "R2extent": 2087.9923, 
			 "electric_dipole_moment_norm": 0.557974891908, 
			 "electric_quadrupole_moment_norm": 5.37556468755, 
			 "total_energy": -388.292150142, 
			 "HOMO_LUMO_gap": 0.19492, 
			 "cosmo_polarized_energy": -3.85, 
			 "cosmo_cavitation_energy": 24.81, 
			 "cosmo_dispersion_energy": -17.99, 
			 "cosmo_repulsion_energy": 1.44, 
			 "cosmo_total_nonelectrostatic_energy": 8.26, 
			 "SMD_solvation_energy": 4.93 
		},
		"coords": [
			{
				"x": -0.5475010628,
				"y": 3.766591626,
				"z": 1.7236399105,
				"element": "C" 
			},
			{
				"x": -1.0903697501,
				"y": 2.9857786571,
				"z": 0.5470852845,
				"element": "C" 
			},
			{
				"x": -2.1132721924,
				"y": 3.4711744948,
				"z": -0.1742318492,
				"element": "C" 
			},
			{
				"x": -0.4606408696,
				"y": 1.6734010989,
				"z": 0.2388557776,
				"element": "C" 
			},
			{
				"x": 0.1830915139,
				"y": 0.9189691258,
				"z": 1.233151674,
				"element": "C" 
			},
			{
				"x": 0.7561495424,
				"y": -0.3202824086,
				"z": 0.9462746116,
				"element": "C" 
			},
			{
				"x": 0.7251679592,
				"y": -0.8538053886,
				"z": -0.3459744356,
				"element": "C" 
			},
			{
				"x": 1.3688246552,
				"y": -2.1816963526,
				"z": -0.6667946229,
				"element": "C" 
			},
			{
				"x": 0.0966658472,
				"y": -0.0961244477,
				"z": -1.3458665987,
				"element": "C" 
			},
			{
				"x": -0.4769364505,
				"y": 1.1383817784,
				"z": -1.0633238292,
				"element": "C" 
			},
			{
				"x": -1.0046974128,
				"y": 4.7575915215,
				"z": 1.7778880779,
				"element": "H" 
			},
			{
				"x": 0.5396337371,
				"y": 3.8883404618,
				"z": 1.6565687955,
				"element": "H" 
			},
			{
				"x": -0.752655162,
				"y": 3.2581581288,
				"z": 2.6737018518,
				"element": "H" 
			},
			{
				"x": -2.5472408138,
				"y": 4.4410953296,
				"z": 0.0491203686,
				"element": "H" 
			},
			{
				"x": -2.5627332686,
				"y": 2.9167902591,
				"z": -0.9914959003,
				"element": "H" 
			},
			{
				"x": 0.226462269,
				"y": 1.2902295441,
				"z": 2.2519810269,
				"element": "H" 
			},
			{
				"x": 1.2358940102,
				"y": -0.8817451362,
				"z": 1.7445389403,
				"element": "H" 
			},
			{
				"x": 2.3101799962,
				"y": -2.0467219371,
				"z": -1.2140929492,
				"element": "H" 
			},
			{
				"x": 0.7190472637,
				"y": -2.8005636271,
				"z": -1.2948984704,
				"element": "H" 
			},
			{
				"x": 1.5958050432,
				"y": -2.7460475164,
				"z": 0.2421789248,
				"element": "H" 
			},
			{
				"x": 0.0675013408,
				"y": -0.4757932002,
				"z": -2.3648222483,
				"element": "H" 
			},
			{
				"x": -0.9261761956,
				"y": 1.7108779888,
				"z": -1.8688843401,
				"element": "H" 
			}
		],
		 "valence_orbital": [ 
			{
				"type": "occ",
				"energy": -0.3326,
				"method": "rhf"
			},
			{
				"type": "occ",
				"energy": -0.32567,
				"method": "rhf"
			},
			{
				"type": "occ",
				"energy": -0.27157,
				"method": "rhf"
			},
			{
				"type": "occ",
				"energy": -0.24512,
				"method": "rhf"
			},
			{
				"type": "occ",
				"energy": -0.21483,
				"method": "rhf"
			},
			{
				"type": "unocc",
				"energy": -0.01991,
				"method": "rhf"
			},
			{
				"type": "unocc",
				"energy": 0.00324,
				"method": "rhf"
			},
			{
				"type": "unocc",
				"energy": 0.05435,
				"method": "rhf"
			},
			{
				"type": "unocc",
				"energy": 0.09628,
				"method": "rhf"
			},
			{
				"type": "unocc",
				"energy": 0.11381,
				"method": "rhf"
			}
		],
		"cosmo_sigma_profile": { 
			"-0.025": 0.0,
			"-0.024": 0.0,
			"-0.023": 0.0,
			"-0.022": 0.0,
			"-0.021": 0.0,
			"-0.02": 0.0,
			"-0.019": 0.0,
			"-0.018": 0.0,
			"-0.017": 0.0,
			"-0.016": 0.0,
			"-0.015": 0.0,
			"-0.014": 0.0,
			"-0.013": 0.0,
			"-0.012": 0.0,
			"-0.011": 0.0,
			"-0.01": 0.0,
			"-0.009": 0.0,
			"-0.008": 0.0,
			"-0.007": 0.0,
			"-0.006": 0.640553937077,
			"-0.005": 10.5142040473,
			"-0.004": 21.6873805421,
			"-0.003": 22.2677957906,
			"-0.002": 20.1002548029,
			"-0.001": 20.9151510375,
			"0.0": 24.1468674599,
			"0.001": 15.9933077291,
			"0.002": 10.1168015823,
			"0.003": 12.0161229806,
			"0.004": 10.5733460224,
			"0.005": 12.7423376514,
			"0.006": 11.5720529603,
			"0.007": 2.97965994966,
			"0.008": 0.0,
			"0.009": 0.0,
			"0.01": 0.0,
			"0.011": 0.0,
			"0.012": 0.0,
			"0.013": 0.0,
			"0.014": 0.0,
			"0.015": 0.0,
			"0.016": 0.0,
			"0.017": 0.0,
			"0.018": 0.0,
			"0.019": 0.0,
			"0.02": 0.0,
			"0.021": 0.0,
			"0.022": 0.0,
			"0.023": 0.0,
			"0.024": 0.0,
			"0.025": 0.0
		}
	}
}
