{
	 "smiles": "CN1C2=C(C=C(Cl)C=C2)N=C1C(C)=O", 
	 "Tm": 370.15, 
	 "num_atms": 23, 
	 "gaussian": { 
		 "optdone": 1, 
		 "sigma_profile": "yes", 
		 "theory": "DFT", 
		 "functional": "B3LYP", 
		 "basiset": "6-31G**", 
		 "properties": { 
			 "R2extent": 4459.6458, 
			 "electric_dipole_moment_norm": 2.29031042874, 
			 "electric_quadrupole_moment_norm": 17.1130847944, 
			 "total_energy": -1031.42352333, 
			 "HOMO_LUMO_gap": 0.16029, 
			 "cosmo_polarized_energy": -9.98, 
			 "cosmo_cavitation_energy": 29.03, 
			 "cosmo_dispersion_energy": -21.44, 
			 "cosmo_repulsion_energy": 1.67, 
			 "cosmo_total_nonelectrostatic_energy": 9.26, 
			 "SMD_solvation_energy": 3.67 
		},
		"coords": [
			{
				"x": 2.0898504655,
				"y": 0.6632145003,
				"z": -1.3145884136,
				"element": "C" 
			},
			{
				"x": 0.749137083,
				"y": 0.5281669463,
				"z": -0.7517107956,
				"element": "N" 
			},
			{
				"x": -0.4214884246,
				"y": 0.9725757552,
				"z": -1.3306294102,
				"element": "C" 
			},
			{
				"x": -1.4533190038,
				"y": 0.6192045609,
				"z": -0.4225132804,
				"element": "C" 
			},
			{
				"x": -2.7937604491,
				"y": 0.9299546679,
				"z": -0.708030221,
				"element": "C" 
			},
			{
				"x": -3.0464782133,
				"y": 1.5864413267,
				"z": -1.8998493127,
				"element": "C" 
			},
			{
				"x": -4.7044866257,
				"y": 2.0055212748,
				"z": -2.3189298934,
				"element": "Cl" 
			},
			{
				"x": -2.0211445191,
				"y": 1.9396355812,
				"z": -2.806143201,
				"element": "C" 
			},
			{
				"x": -0.6944661519,
				"y": 1.6371823847,
				"z": -2.5332886755,
				"element": "C" 
			},
			{
				"x": -0.9236154809,
				"y": -0.0190456579,
				"z": 0.6716499564,
				"element": "N" 
			},
			{
				"x": 0.3794121857,
				"y": -0.0581634575,
				"z": 0.4488998825,
				"element": "C" 
			},
			{
				"x": 1.349783847,
				"y": -0.6691742669,
				"z": 1.391155225,
				"element": "C" 
			},
			{
				"x": 0.7726131094,
				"y": -1.263691846,
				"z": 2.6549349241,
				"element": "C" 
			},
			{
				"x": 2.5479085641,
				"y": -0.6807731239,
				"z": 1.1402400606,
				"element": "O" 
			},
			{
				"x": 2.0084571517,
				"y": 1.1762127842,
				"z": -2.273555031,
				"element": "H" 
			},
			{
				"x": 2.7316164396,
				"y": 1.2386783018,
				"z": -0.6461651439,
				"element": "H" 
			},
			{
				"x": 2.5455846751,
				"y": -0.3167065906,
				"z": -1.4624299458,
				"element": "H" 
			},
			{
				"x": -3.5868921555,
				"y": 0.6634982047,
				"z": -0.01979896,
				"element": "H" 
			},
			{
				"x": -2.2844481686,
				"y": 2.4533012707,
				"z": -3.7236958159,
				"element": "H" 
			},
			{
				"x": 0.085026148,
				"y": 1.9128477333,
				"z": -3.2357758169,
				"element": "H" 
			},
			{
				"x": 0.2290856711,
				"y": -0.5009110756,
				"z": 3.2206690086,
				"element": "H" 
			},
			{
				"x": 1.5844126984,
				"y": -1.6759787211,
				"z": 3.2549851408,
				"element": "H" 
			},
			{
				"x": 0.0444111537,
				"y": -2.0430905532,
				"z": 2.410869719,
				"element": "H" 
			}
		],
		 "valence_orbital": [ 
			{
				"type": "occ",
				"energy": -0.30875,
				"method": "rhf"
			},
			{
				"type": "occ",
				"energy": -0.29298,
				"method": "rhf"
			},
			{
				"type": "occ",
				"energy": -0.26224,
				"method": "rhf"
			},
			{
				"type": "occ",
				"energy": -0.24394,
				"method": "rhf"
			},
			{
				"type": "occ",
				"energy": -0.23376,
				"method": "rhf"
			},
			{
				"type": "unocc",
				"energy": -0.07347,
				"method": "rhf"
			},
			{
				"type": "unocc",
				"energy": -0.00633,
				"method": "rhf"
			},
			{
				"type": "unocc",
				"energy": 0.00548,
				"method": "rhf"
			},
			{
				"type": "unocc",
				"energy": 0.0285,
				"method": "rhf"
			},
			{
				"type": "unocc",
				"energy": 0.06948,
				"method": "rhf"
			}
		],
		"cosmo_sigma_profile": { 
			"-0.025": 0.0,
			"-0.024": 0.0,
			"-0.023": 0.0,
			"-0.022": 0.0,
			"-0.021": 0.0,
			"-0.02": 0.0,
			"-0.019": 0.0,
			"-0.018": 0.0,
			"-0.017": 0.0,
			"-0.016": 0.0,
			"-0.015": 0.0,
			"-0.014": 0.0,
			"-0.013": 0.0,
			"-0.012": 0.0,
			"-0.011": 0.0,
			"-0.01": 0.1567151849,
			"-0.009": 1.95291140605,
			"-0.008": 3.49601602075,
			"-0.007": 6.26577129675,
			"-0.006": 12.131439986,
			"-0.005": 17.5208780209,
			"-0.004": 18.8415028126,
			"-0.003": 21.5501054123,
			"-0.002": 17.1415641613,
			"-0.001": 18.5242411653,
			"0.0": 12.045914415,
			"0.001": 16.4735647129,
			"0.002": 22.3023252842,
			"0.003": 18.9150245724,
			"0.004": 12.7557895137,
			"0.005": 11.8144224137,
			"0.006": 3.35978499818,
			"0.007": 2.24570533308,
			"0.008": 3.40363908297,
			"0.009": 2.75548223888,
			"0.01": 2.81819564149,
			"0.011": 3.37021855099,
			"0.012": 2.53307728996,
			"0.013": 1.37377500814,
			"0.014": 0.766440369212,
			"0.015": 0.199555548386,
			"0.016": 0.0,
			"0.017": 0.0,
			"0.018": 0.0,
			"0.019": 0.0,
			"0.02": 0.0,
			"0.021": 0.0,
			"0.022": 0.0,
			"0.023": 0.0,
			"0.024": 0.0,
			"0.025": 0.0
		}
	}
}
