{
	 "smiles": "ClCC(=O)NC(=O)NCC=C", 
	 "Tm": 387.15, 
	 "num_atms": 20, 
	 "gaussian": { 
		 "optdone": 1, 
		 "sigma_profile": "yes", 
		 "theory": "DFT", 
		 "functional": "B3LYP", 
		 "basiset": "6-31G**", 
		 "properties": { 
			 "R2extent": 3181.012, 
			 "electric_dipole_moment_norm": 2.41036830796, 
			 "electric_quadrupole_moment_norm": 9.76685536035, 
			 "total_energy": -954.209935806, 
			 "HOMO_LUMO_gap": 0.23474, 
			 "cosmo_polarized_energy": -13.73, 
			 "cosmo_cavitation_energy": 26.35, 
			 "cosmo_dispersion_energy": -19.04, 
			 "cosmo_repulsion_energy": 1.57, 
			 "cosmo_total_nonelectrostatic_energy": 8.88, 
			 "SMD_solvation_energy": 6.03 
		},
		"coords": [
			{
				"x": -1.6676670253,
				"y": 2.3298689793,
				"z": -3.3344312529,
				"element": "Cl" 
			},
			{
				"x": -1.8263070897,
				"y": 0.5491926574,
				"z": -3.0500822509,
				"element": "C" 
			},
			{
				"x": -0.8543824534,
				"y": -0.0943353888,
				"z": -2.0529576342,
				"element": "C" 
			},
			{
				"x": -0.9703565784,
				"y": -1.2946573848,
				"z": -1.8690703078,
				"element": "O" 
			},
			{
				"x": 0.0531958213,
				"y": 0.7330854796,
				"z": -1.4422884374,
				"element": "N" 
			},
			{
				"x": 1.2634480486,
				"y": 0.3668791258,
				"z": -0.7656093398,
				"element": "C" 
			},
			{
				"x": 2.2805650633,
				"y": 0.9908432371,
				"z": -1.0237070516,
				"element": "O" 
			},
			{
				"x": 1.207224373,
				"y": -0.6485237316,
				"z": 0.1342527352,
				"element": "N" 
			},
			{
				"x": 0.0662133972,
				"y": -1.1780936516,
				"z": 0.8868160553,
				"element": "C" 
			},
			{
				"x": 0.0141038397,
				"y": -2.6809284649,
				"z": 0.8241464679,
				"element": "C" 
			},
			{
				"x": 0.0980867172,
				"y": -3.4689318613,
				"z": 1.8953986242,
				"element": "C" 
			},
			{
				"x": -2.8412205405,
				"y": 0.3643400369,
				"z": -2.6970048357,
				"element": "H" 
			},
			{
				"x": -1.6941891601,
				"y": 0.0523966332,
				"z": -4.0117765443,
				"element": "H" 
			},
			{
				"x": 0.1455906644,
				"y": 1.6586795718,
				"z": -1.8473483882,
				"element": "H" 
			},
			{
				"x": 2.1225936925,
				"y": -0.8506920768,
				"z": 0.5149407691,
				"element": "H" 
			},
			{
				"x": 0.1393150845,
				"y": -0.8445357816,
				"z": 1.9306569284,
				"element": "H" 
			},
			{
				"x": -0.8451954521,
				"y": -0.7523990258,
				"z": 0.4672394421,
				"element": "H" 
			},
			{
				"x": -0.0983866298,
				"y": -3.0942382353,
				"z": -0.1748462363,
				"element": "H" 
			},
			{
				"x": 0.0471579674,
				"y": -4.5505355839,
				"z": 1.8140332669,
				"element": "H" 
			},
			{
				"x": 0.2122102601,
				"y": -3.0617145349,
				"z": 2.8980379899,
				"element": "H" 
			}
		],
		 "valence_orbital": [ 
			{
				"type": "occ",
				"energy": -0.30528,
				"method": "rhf"
			},
			{
				"type": "occ",
				"energy": -0.28626,
				"method": "rhf"
			},
			{
				"type": "occ",
				"energy": -0.27476,
				"method": "rhf"
			},
			{
				"type": "occ",
				"energy": -0.26896,
				"method": "rhf"
			},
			{
				"type": "occ",
				"energy": -0.25599,
				"method": "rhf"
			},
			{
				"type": "unocc",
				"energy": -0.02125,
				"method": "rhf"
			},
			{
				"type": "unocc",
				"energy": 0.00424,
				"method": "rhf"
			},
			{
				"type": "unocc",
				"energy": 0.00877,
				"method": "rhf"
			},
			{
				"type": "unocc",
				"energy": 0.04366,
				"method": "rhf"
			},
			{
				"type": "unocc",
				"energy": 0.0859,
				"method": "rhf"
			}
		],
		"cosmo_sigma_profile": { 
			"-0.025": 0.0,
			"-0.024": 0.0,
			"-0.023": 0.0,
			"-0.022": 0.0,
			"-0.021": 0.0,
			"-0.02": 0.0,
			"-0.019": 0.0,
			"-0.018": 0.0,
			"-0.017": 0.0,
			"-0.016": 0.0,
			"-0.015": 0.0156066590219,
			"-0.014": 0.718603950237,
			"-0.013": 1.35256322211,
			"-0.012": 0.644304628972,
			"-0.011": 1.51094402668,
			"-0.01": 2.9316302149,
			"-0.009": 6.21573061633,
			"-0.008": 6.7981811353,
			"-0.007": 6.93180173696,
			"-0.006": 8.43630252858,
			"-0.005": 15.7888301488,
			"-0.004": 11.5775118297,
			"-0.003": 16.0341927588,
			"-0.002": 15.7433554955,
			"-0.001": 12.2752474453,
			"0.0": 12.6927709648,
			"0.001": 11.8109323022,
			"0.002": 11.5017727908,
			"0.003": 11.2851355485,
			"0.004": 10.8828878836,
			"0.005": 12.5087040602,
			"0.006": 5.18780050429,
			"0.007": 4.41527298367,
			"0.008": 2.24014791355,
			"0.009": 2.80243016337,
			"0.01": 3.39332222558,
			"0.011": 3.72379844561,
			"0.012": 4.71538220593,
			"0.013": 5.97825528775,
			"0.014": 1.03876990386,
			"0.015": 0.0,
			"0.016": 0.0,
			"0.017": 0.0,
			"0.018": 0.0,
			"0.019": 0.0,
			"0.02": 0.0,
			"0.021": 0.0,
			"0.022": 0.0,
			"0.023": 0.0,
			"0.024": 0.0,
			"0.025": 0.0
		}
	}
}
