{
	 "smiles": "COC1=CC=C2C(C[C@]3(CC[C@](O)(CC3)C3=CC=C(C=C3)C(C)(C)C)C2=O)=C1", 
	 "Tm": 457.15, 
	 "num_atms": 58, 
	 "gaussian": { 
		 "optdone": 1, 
		 "sigma_profile": "yes", 
		 "theory": "DFT", 
		 "functional": "B3LYP", 
		 "basiset": "6-31G**", 
		 "properties": { 
			 "R2extent": 19456.5557, 
			 "electric_dipole_moment_norm": 5.72360837584, 
			 "electric_quadrupole_moment_norm": 32.1794164904, 
			 "total_energy": -1196.42908947, 
			 "HOMO_LUMO_gap": 0.18499, 
			 "cosmo_polarized_energy": -18.32, 
			 "cosmo_cavitation_energy": 56.23, 
			 "cosmo_dispersion_energy": -38.9, 
			 "cosmo_repulsion_energy": 2.88, 
			 "cosmo_total_nonelectrostatic_energy": 20.21, 
			 "SMD_solvation_energy": 9.83 
		},
		"coords": [
			{
				"x": 6.3542394299,
				"y": -4.7151477882,
				"z": -0.5773248771,
				"element": "C" 
			},
			{
				"x": 6.1397845708,
				"y": -4.787132053,
				"z": 0.8251882893,
				"element": "O" 
			},
			{
				"x": 5.0929090553,
				"y": -4.1052928271,
				"z": 1.3607928142,
				"element": "C" 
			},
			{
				"x": 4.956279835,
				"y": -4.233875007,
				"z": 2.7623456744,
				"element": "C" 
			},
			{
				"x": 3.9266941,
				"y": -3.5891833529,
				"z": 3.4237976607,
				"element": "C" 
			},
			{
				"x": 3.0257761058,
				"y": -2.813981594,
				"z": 2.6790605058,
				"element": "C" 
			},
			{
				"x": 3.1624153791,
				"y": -2.678770965,
				"z": 1.2964671571,
				"element": "C" 
			},
			{
				"x": 2.1045760265,
				"y": -1.7522830632,
				"z": 0.7337175213,
				"element": "C" 
			},
			{
				"x": 1.1226629584,
				"y": -1.4789896934,
				"z": 1.911924061,
				"element": "C" 
			},
			{
				"x": 0.8195056337,
				"y": 0.0357471664,
				"z": 2.0972187336,
				"element": "C" 
			},
			{
				"x": -0.5362671916,
				"y": 0.2828297664,
				"z": 2.7650347826,
				"element": "C" 
			},
			{
				"x": -1.7278385681,
				"y": -0.2355930352,
				"z": 1.9061426634,
				"element": "C" 
			},
			{
				"x": -2.6667965551,
				"y": -0.7288074732,
				"z": 2.8746328283,
				"element": "O" 
			},
			{
				"x": -1.2655759295,
				"y": -1.4242433337,
				"z": 1.0196499968,
				"element": "C" 
			},
			{
				"x": -0.2156081031,
				"y": -2.2649281008,
				"z": 1.7505304009,
				"element": "C" 
			},
			{
				"x": -2.3601039316,
				"y": 0.9008326693,
				"z": 1.0899116836,
				"element": "C" 
			},
			{
				"x": -1.837017606,
				"y": 1.3466661646,
				"z": -0.1337304572,
				"element": "C" 
			},
			{
				"x": -2.4136584122,
				"y": 2.4122731265,
				"z": -0.8210283554,
				"element": "C" 
			},
			{
				"x": -3.5414722161,
				"y": 3.0899774407,
				"z": -0.3294745315,
				"element": "C" 
			},
			{
				"x": -4.0543617215,
				"y": 2.6467700132,
				"z": 0.8958644919,
				"element": "C" 
			},
			{
				"x": -3.4755281331,
				"y": 1.5821775302,
				"z": 1.5903566391,
				"element": "C" 
			},
			{
				"x": -4.1507423862,
				"y": 4.2573409671,
				"z": -1.1265357407,
				"element": "C" 
			},
			{
				"x": -3.090121023,
				"y": 5.3701985171,
				"z": -1.3026646058,
				"element": "C" 
			},
			{
				"x": -5.3760230512,
				"y": 4.8694437052,
				"z": -0.4215719264,
				"element": "C" 
			},
			{
				"x": -4.5979252181,
				"y": 3.752565676,
				"z": -2.5192218371,
				"element": "C" 
			},
			{
				"x": 1.8535273505,
				"y": -2.0579087621,
				"z": 3.1498397334,
				"element": "C" 
			},
			{
				"x": 1.4869781481,
				"y": -1.9191753883,
				"z": 4.3062801538,
				"element": "O" 
			},
			{
				"x": 4.1967965587,
				"y": -3.323630461,
				"z": 0.6170279853,
				"element": "C" 
			},
			{
				"x": 7.2326750299,
				"y": -5.3297868702,
				"z": -0.7781586655,
				"element": "H" 
			},
			{
				"x": 6.5505503261,
				"y": -3.6859155406,
				"z": -0.9027109713,
				"element": "H" 
			},
			{
				"x": 5.4984073754,
				"y": -5.112912519,
				"z": -1.1368393497,
				"element": "H" 
			},
			{
				"x": 5.6776903791,
				"y": -4.8506470335,
				"z": 3.2879312944,
				"element": "H" 
			},
			{
				"x": 3.8033273774,
				"y": -3.6773551422,
				"z": 4.4990399157,
				"element": "H" 
			},
			{
				"x": 1.599045259,
				"y": -2.184683697,
				"z": -0.1384122076,
				"element": "H" 
			},
			{
				"x": 2.5748629827,
				"y": -0.8219397024,
				"z": 0.3892860853,
				"element": "H" 
			},
			{
				"x": 1.6141053322,
				"y": 0.5022650267,
				"z": 2.6899369295,
				"element": "H" 
			},
			{
				"x": 0.8414291921,
				"y": 0.5290036692,
				"z": 1.1169387596,
				"element": "H" 
			},
			{
				"x": -0.5648656816,
				"y": -0.2495240341,
				"z": 3.7194401032,
				"element": "H" 
			},
			{
				"x": -0.6715990296,
				"y": 1.3464584007,
				"z": 2.9808501769,
				"element": "H" 
			},
			{
				"x": -3.453252441,
				"y": -1.0218453211,
				"z": 2.392529956,
				"element": "H" 
			},
			{
				"x": -2.1452271302,
				"y": -2.0302119367,
				"z": 0.7687460594,
				"element": "H" 
			},
			{
				"x": -0.8589168223,
				"y": -1.0733309771,
				"z": 0.0657168959,
				"element": "H" 
			},
			{
				"x": -0.6058145233,
				"y": -2.5181872626,
				"z": 2.7416839461,
				"element": "H" 
			},
			{
				"x": -0.0303460741,
				"y": -3.2099241165,
				"z": 1.2275113643,
				"element": "H" 
			},
			{
				"x": -0.9659083336,
				"y": 0.866489433,
				"z": -0.5685384055,
				"element": "H" 
			},
			{
				"x": -1.970469719,
				"y": 2.7160151339,
				"z": -1.7653861865,
				"element": "H" 
			},
			{
				"x": -4.9199313005,
				"y": 3.1320014731,
				"z": 1.3330636949,
				"element": "H" 
			},
			{
				"x": -3.8898273662,
				"y": 1.2776985888,
				"z": 2.5456114325,
				"element": "H" 
			},
			{
				"x": -2.2066057855,
				"y": 5.009511267,
				"z": -1.8377992927,
				"element": "H" 
			},
			{
				"x": -2.7589144138,
				"y": 5.7521266328,
				"z": -0.3314184044,
				"element": "H" 
			},
			{
				"x": -3.5063968702,
				"y": 6.2079979876,
				"z": -1.8737190939,
				"element": "H" 
			},
			{
				"x": -6.1793529439,
				"y": 4.136873786,
				"z": -0.2911984512,
				"element": "H" 
			},
			{
				"x": -5.7749222399,
				"y": 5.6927211924,
				"z": -1.0231954885,
				"element": "H" 
			},
			{
				"x": -5.1196062337,
				"y": 5.2745035638,
				"z": 0.5628296501,
				"element": "H" 
			},
			{
				"x": -5.3563018771,
				"y": 2.9681457581,
				"z": -2.4262897874,
				"element": "H" 
			},
			{
				"x": -5.0282658649,
				"y": 4.5739158169,
				"z": -3.1036064561,
				"element": "H" 
			},
			{
				"x": -3.760761042,
				"y": 3.3407138227,
				"z": -3.090742487,
				"element": "H" 
			},
			{
				"x": 4.301387333,
				"y": -3.2168572443,
				"z": -0.4567324615,
				"element": "H" 
			}
		],
		 "valence_orbital": [ 
			{
				"type": "occ",
				"energy": -0.25601,
				"method": "rhf"
			},
			{
				"type": "occ",
				"energy": -0.24386,
				"method": "rhf"
			},
			{
				"type": "occ",
				"energy": -0.23013,
				"method": "rhf"
			},
			{
				"type": "occ",
				"energy": -0.22859,
				"method": "rhf"
			},
			{
				"type": "occ",
				"energy": -0.22654,
				"method": "rhf"
			},
			{
				"type": "unocc",
				"energy": -0.04155,
				"method": "rhf"
			},
			{
				"type": "unocc",
				"energy": -0.01025,
				"method": "rhf"
			},
			{
				"type": "unocc",
				"energy": 0.00129,
				"method": "rhf"
			},
			{
				"type": "unocc",
				"energy": 0.00381,
				"method": "rhf"
			},
			{
				"type": "unocc",
				"energy": 0.05763,
				"method": "rhf"
			}
		],
		"cosmo_sigma_profile": { 
			"-0.025": 0.0,
			"-0.024": 0.0,
			"-0.023": 0.0,
			"-0.022": 0.0,
			"-0.021": 0.0,
			"-0.02": 0.0,
			"-0.019": 0.0,
			"-0.018": 0.0,
			"-0.017": 0.0,
			"-0.016": 0.0,
			"-0.015": 0.0509342152838,
			"-0.014": 0.902283614183,
			"-0.013": 0.637087029837,
			"-0.012": 0.978449421549,
			"-0.011": 0.704151515173,
			"-0.01": 1.28289155248,
			"-0.009": 0.718411261273,
			"-0.008": 1.17249624806,
			"-0.007": 3.50592751286,
			"-0.006": 14.4090722195,
			"-0.005": 22.2369159328,
			"-0.004": 37.0178813645,
			"-0.003": 48.6025441171,
			"-0.002": 48.2747935662,
			"-0.001": 43.4390956947,
			"0.0": 40.5914205281,
			"0.001": 41.1411469395,
			"0.002": 30.8770528575,
			"0.003": 24.5451983043,
			"0.004": 20.220749041,
			"0.005": 13.074712788,
			"0.006": 11.3041826115,
			"0.007": 8.75467117203,
			"0.008": 3.32362228008,
			"0.009": 4.51068441757,
			"0.01": 3.90279461172,
			"0.011": 2.77810313117,
			"0.012": 4.77824923816,
			"0.013": 4.72594660281,
			"0.014": 1.2016983829,
			"0.015": 0.00408941908715,
			"0.016": 0.0,
			"0.017": 0.0,
			"0.018": 0.0,
			"0.019": 0.0,
			"0.02": 0.0,
			"0.021": 0.0,
			"0.022": 0.0,
			"0.023": 0.0,
			"0.024": 0.0,
			"0.025": 0.0
		}
	}
}
