{
	 "smiles": "CC(C)(C)OC(=O)N1CCOCC1C#N", 
	 "Tm": 369.15, 
	 "num_atms": 31, 
	 "gaussian": { 
		 "optdone": 1, 
		 "sigma_profile": "yes", 
		 "theory": "DFT", 
		 "functional": "B3LYP", 
		 "basiset": "6-31G**", 
		 "properties": { 
			 "R2extent": 4200.4516, 
			 "electric_dipole_moment_norm": 4.99907344215, 
			 "electric_quadrupole_moment_norm": 13.6067807603, 
			 "total_energy": -725.879121155, 
			 "HOMO_LUMO_gap": 0.27623, 
			 "cosmo_polarized_energy": -13.83, 
			 "cosmo_cavitation_energy": 33.38, 
			 "cosmo_dispersion_energy": -22.77, 
			 "cosmo_repulsion_energy": 1.82, 
			 "cosmo_total_nonelectrostatic_energy": 12.42, 
			 "SMD_solvation_energy": 7.6 
		},
		"coords": [
			{
				"x": 1.1276241822,
				"y": -2.1369746663,
				"z": 1.8514580268,
				"element": "C" 
			},
			{
				"x": 1.0898925399,
				"y": -2.1444809322,
				"z": 0.3215432612,
				"element": "C" 
			},
			{
				"x": -0.0079866095,
				"y": -3.0800374416,
				"z": -0.1931897506,
				"element": "C" 
			},
			{
				"x": 2.4668454354,
				"y": -2.4826905762,
				"z": -0.257496848,
				"element": "C" 
			},
			{
				"x": 0.7422023776,
				"y": -0.7425590549,
				"z": 0.0071146836,
				"element": "O" 
			},
			{
				"x": 0.6115196635,
				"y": -0.3316109708,
				"z": -1.2683825501,
				"element": "C" 
			},
			{
				"x": 0.7495427633,
				"y": -1.0190273713,
				"z": -2.2685813731,
				"element": "O" 
			},
			{
				"x": 0.3198487509,
				"y": 1.0190491168,
				"z": -1.3238439267,
				"element": "N" 
			},
			{
				"x": -0.0096710722,
				"y": 1.8578139669,
				"z": -0.1683758231,
				"element": "C" 
			},
			{
				"x": 0.5773030263,
				"y": 3.2523737433,
				"z": -0.3846635628,
				"element": "C" 
			},
			{
				"x": 0.15170094,
				"y": 3.806654258,
				"z": -1.6251903992,
				"element": "O" 
			},
			{
				"x": 0.5628233868,
				"y": 3.0095775764,
				"z": -2.7174121673,
				"element": "C" 
			},
			{
				"x": -0.018112035,
				"y": 1.5839690633,
				"z": -2.6271056144,
				"element": "C" 
			},
			{
				"x": -1.4843489204,
				"y": 1.5875891236,
				"z": -2.8443289995,
				"element": "C" 
			},
			{
				"x": -2.633583091,
				"y": 1.5885562375,
				"z": -3.0058502842,
				"element": "N" 
			},
			{
				"x": 1.3751609921,
				"y": -3.1352703015,
				"z": 2.2237760011,
				"element": "H" 
			},
			{
				"x": 1.8826653343,
				"y": -1.4350389165,
				"z": 2.2176117394,
				"element": "H" 
			},
			{
				"x": 0.1559491066,
				"y": -1.8464680852,
				"z": 2.2611947742,
				"element": "H" 
			},
			{
				"x": -0.0528120403,
				"y": -3.0718190709,
				"z": -1.2822842878,
				"element": "H" 
			},
			{
				"x": -0.9820479818,
				"y": -2.779414978,
				"z": 0.2050890531,
				"element": "H" 
			},
			{
				"x": 0.1961305868,
				"y": -4.1012221764,
				"z": 0.1443728862,
				"element": "H" 
			},
			{
				"x": 3.2152858775,
				"y": -1.7659758638,
				"z": 0.0953479125,
				"element": "H" 
			},
			{
				"x": 2.7684811193,
				"y": -3.4799263925,
				"z": 0.0785434009,
				"element": "H" 
			},
			{
				"x": 2.4481024438,
				"y": -2.4696590687,
				"z": -1.3473596003,
				"element": "H" 
			},
			{
				"x": -1.1002602641,
				"y": 1.9280493996,
				"z": -0.051824871,
				"element": "H" 
			},
			{
				"x": 0.4063289213,
				"y": 1.3996269617,
				"z": 0.7275982504,
				"element": "H" 
			},
			{
				"x": 1.6776157929,
				"y": 3.2006218358,
				"z": -0.3524611398,
				"element": "H" 
			},
			{
				"x": 0.2332697224,
				"y": 3.9373563074,
				"z": 0.3946740845,
				"element": "H" 
			},
			{
				"x": 1.6603081694,
				"y": 2.9196767229,
				"z": -2.7482802076,
				"element": "H" 
			},
			{
				"x": 0.2172275169,
				"y": 3.5079419795,
				"z": -3.6261502793,
				"element": "H" 
			},
			{
				"x": 0.433593365,
				"y": 0.9420195741,
				"z": -3.3884423892,
				"element": "H" 
			}
		],
		 "valence_orbital": [ 
			{
				"type": "occ",
				"energy": -0.32039,
				"method": "rhf"
			},
			{
				"type": "occ",
				"energy": -0.30148,
				"method": "rhf"
			},
			{
				"type": "occ",
				"energy": -0.2863,
				"method": "rhf"
			},
			{
				"type": "occ",
				"energy": -0.27765,
				"method": "rhf"
			},
			{
				"type": "occ",
				"energy": -0.25492,
				"method": "rhf"
			},
			{
				"type": "unocc",
				"energy": 0.02131,
				"method": "rhf"
			},
			{
				"type": "unocc",
				"energy": 0.03271,
				"method": "rhf"
			},
			{
				"type": "unocc",
				"energy": 0.04072,
				"method": "rhf"
			},
			{
				"type": "unocc",
				"energy": 0.07618,
				"method": "rhf"
			},
			{
				"type": "unocc",
				"energy": 0.09101,
				"method": "rhf"
			}
		],
		"cosmo_sigma_profile": { 
			"-0.025": 0.0,
			"-0.024": 0.0,
			"-0.023": 0.0,
			"-0.022": 0.0,
			"-0.021": 0.0,
			"-0.02": 0.0,
			"-0.019": 0.0,
			"-0.018": 0.0,
			"-0.017": 0.0,
			"-0.016": 0.0,
			"-0.015": 0.0,
			"-0.014": 0.0,
			"-0.013": 0.0,
			"-0.012": 0.0,
			"-0.011": 0.0,
			"-0.01": 0.90836502105,
			"-0.009": 2.01395631829,
			"-0.008": 3.82194036136,
			"-0.007": 4.96531394232,
			"-0.006": 12.3357252834,
			"-0.005": 18.2028044774,
			"-0.004": 25.1341522865,
			"-0.003": 26.5494718571,
			"-0.002": 21.8338073334,
			"-0.001": 25.3748050838,
			"0.0": 29.3090336147,
			"0.001": 19.3287430134,
			"0.002": 8.57988421575,
			"0.003": 7.76435977625,
			"0.004": 7.29446427806,
			"0.005": 7.06533646465,
			"0.006": 4.66525491089,
			"0.007": 5.40271691487,
			"0.008": 5.93578137834,
			"0.009": 5.70561281199,
			"0.01": 6.48648800948,
			"0.011": 4.61154439188,
			"0.012": 6.77123840062,
			"0.013": 1.62194373237,
			"0.014": 0.0,
			"0.015": 0.0,
			"0.016": 0.0,
			"0.017": 0.0,
			"0.018": 0.0,
			"0.019": 0.0,
			"0.02": 0.0,
			"0.021": 0.0,
			"0.022": 0.0,
			"0.023": 0.0,
			"0.024": 0.0,
			"0.025": 0.0
		}
	}
}
