{
	 "smiles": "NC(=O)C1=CC(=C(Cl)C=C1)[N+]([O-])=O", 
	 "Tm": 425.15, 
	 "num_atms": 18, 
	 "gaussian": { 
		 "optdone": 1, 
		 "sigma_profile": "yes", 
		 "theory": "DFT", 
		 "functional": "B3LYP", 
		 "basiset": "6-31G**", 
		 "properties": { 
			 "R2extent": 3137.965, 
			 "electric_dipole_moment_norm": 2.64045176816, 
			 "electric_quadrupole_moment_norm": 21.9532403346, 
			 "total_energy": -1065.02928521, 
			 "HOMO_LUMO_gap": 0.17175, 
			 "cosmo_polarized_energy": -16.32, 
			 "cosmo_cavitation_energy": 25.58, 
			 "cosmo_dispersion_energy": -18.92, 
			 "cosmo_repulsion_energy": 1.5, 
			 "cosmo_total_nonelectrostatic_energy": 8.16, 
			 "SMD_solvation_energy": 7.19 
		},
		"coords": [
			{
				"x": -2.590034465,
				"y": 2.260988543,
				"z": -1.0146038277,
				"element": "N" 
			},
			{
				"x": -1.5171555021,
				"y": 2.5290750436,
				"z": -0.2079204778,
				"element": "C" 
			},
			{
				"x": -1.4776966927,
				"y": 3.5068775534,
				"z": 0.5274334278,
				"element": "O" 
			},
			{
				"x": -0.3811926988,
				"y": 1.5405415903,
				"z": -0.2449808877,
				"element": "C" 
			},
			{
				"x": -0.4851785836,
				"y": 0.2587200341,
				"z": -0.7812393681,
				"element": "C" 
			},
			{
				"x": 0.6134218915,
				"y": -0.6030535515,
				"z": -0.78544878,
				"element": "C" 
			},
			{
				"x": 1.8347625359,
				"y": -0.2049986815,
				"z": -0.2188172185,
				"element": "C" 
			},
			{
				"x": 3.234024383,
				"y": -1.2308299669,
				"z": -0.1060204419,
				"element": "Cl" 
			},
			{
				"x": 1.9236060258,
				"y": 1.0727071115,
				"z": 0.3467818632,
				"element": "C" 
			},
			{
				"x": 0.834565189,
				"y": 1.9338443083,
				"z": 0.3303034383,
				"element": "C" 
			},
			{
				"x": 0.3999261896,
				"y": -1.9195156969,
				"z": -1.4155277649,
				"element": "N" 
			},
			{
				"x": 1.3575896241,
				"y": -2.4700805197,
				"z": -1.9462794554,
				"element": "O" 
			},
			{
				"x": -0.7492952818,
				"y": -2.3622983322,
				"z": -1.3930265326,
				"element": "O" 
			},
			{
				"x": -2.5169321151,
				"y": 1.6418144386,
				"z": -1.8058544863,
				"element": "H" 
			},
			{
				"x": -3.3060561318,
				"y": 2.9720997666,
				"z": -1.0469289161,
				"element": "H" 
			},
			{
				"x": -1.4144076298,
				"y": -0.1273405428,
				"z": -1.1822560691,
				"element": "H" 
			},
			{
				"x": 2.8594309982,
				"y": 1.3743368747,
				"z": 0.8033257767,
				"element": "H" 
			},
			{
				"x": 0.8983222637,
				"y": 2.9227120272,
				"z": 0.7710597203,
				"element": "H" 
			}
		],
		 "valence_orbital": [ 
			{
				"type": "occ",
				"energy": -0.30611,
				"method": "rhf"
			},
			{
				"type": "occ",
				"energy": -0.29297,
				"method": "rhf"
			},
			{
				"type": "occ",
				"energy": -0.28807,
				"method": "rhf"
			},
			{
				"type": "occ",
				"energy": -0.27949,
				"method": "rhf"
			},
			{
				"type": "occ",
				"energy": -0.27124,
				"method": "rhf"
			},
			{
				"type": "unocc",
				"energy": -0.09949,
				"method": "rhf"
			},
			{
				"type": "unocc",
				"energy": -0.0669,
				"method": "rhf"
			},
			{
				"type": "unocc",
				"energy": -0.02728,
				"method": "rhf"
			},
			{
				"type": "unocc",
				"energy": 0.00431,
				"method": "rhf"
			},
			{
				"type": "unocc",
				"energy": 0.03461,
				"method": "rhf"
			}
		],
		"cosmo_sigma_profile": { 
			"-0.025": 0.0,
			"-0.024": 0.0,
			"-0.023": 0.0,
			"-0.022": 0.0,
			"-0.021": 0.0,
			"-0.02": 0.0,
			"-0.019": 0.0,
			"-0.018": 0.0,
			"-0.017": 0.0,
			"-0.016": 0.282154350973,
			"-0.015": 1.48371129321,
			"-0.014": 2.55687367632,
			"-0.013": 2.45686913889,
			"-0.012": 2.92689352415,
			"-0.011": 2.40478397029,
			"-0.01": 2.91953728409,
			"-0.009": 3.13194811221,
			"-0.008": 5.73549180643,
			"-0.007": 7.67938626869,
			"-0.006": 6.87932933414,
			"-0.005": 7.78858231776,
			"-0.004": 7.70117829667,
			"-0.003": 10.4274667813,
			"-0.002": 17.7278219727,
			"-0.001": 20.8328400843,
			"0.0": 15.8596055619,
			"0.001": 9.70019362705,
			"0.002": 10.1059228232,
			"0.003": 12.2891389413,
			"0.004": 5.8552486959,
			"0.005": 6.0003241025,
			"0.006": 6.95648799475,
			"0.007": 12.4734644277,
			"0.008": 8.07266784876,
			"0.009": 4.87351501515,
			"0.01": 1.81004930889,
			"0.011": 1.63901249537,
			"0.012": 3.1436393095,
			"0.013": 4.90673498529,
			"0.014": 1.0107605636,
			"0.015": 0.0,
			"0.016": 0.0,
			"0.017": 0.0,
			"0.018": 0.0,
			"0.019": 0.0,
			"0.02": 0.0,
			"0.021": 0.0,
			"0.022": 0.0,
			"0.023": 0.0,
			"0.024": 0.0,
			"0.025": 0.0
		}
	}
}
