{
	 "smiles": "OC1=CC(CNCC2CC2)=CC=C1", 
	 "Tm": 373.15, 
	 "num_atms": 28, 
	 "gaussian": { 
		 "optdone": 1, 
		 "sigma_profile": "yes", 
		 "theory": "DFT", 
		 "functional": "B3LYP", 
		 "basiset": "6-31G**", 
		 "properties": { 
			 "R2extent": 3733.3517, 
			 "electric_dipole_moment_norm": 0.643711053191, 
			 "electric_quadrupole_moment_norm": 10.7659267088, 
			 "total_energy": -558.144513163, 
			 "HOMO_LUMO_gap": 0.21197, 
			 "cosmo_polarized_energy": -10.59, 
			 "cosmo_cavitation_energy": 30.66, 
			 "cosmo_dispersion_energy": -21.84, 
			 "cosmo_repulsion_energy": 1.76, 
			 "cosmo_total_nonelectrostatic_energy": 10.58, 
			 "SMD_solvation_energy": 3.49 
		},
		"coords": [
			{
				"x": -3.278656366,
				"y": -2.7061456163,
				"z": -1.0178720176,
				"element": "O" 
			},
			{
				"x": -2.5659707825,
				"y": -2.2775607744,
				"z": 0.0671156169,
				"element": "C" 
			},
			{
				"x": -2.3114958879,
				"y": -0.923537601,
				"z": 0.3117151867,
				"element": "C" 
			},
			{
				"x": -1.5785422586,
				"y": -0.5248387543,
				"z": 1.4354469053,
				"element": "C" 
			},
			{
				"x": -1.2577218652,
				"y": 0.9437608538,
				"z": 1.6788024785,
				"element": "C" 
			},
			{
				"x": 0.0812840414,
				"y": 1.3853061919,
				"z": 1.2681448747,
				"element": "N" 
			},
			{
				"x": 0.3514847068,
				"y": 1.2908660989,
				"z": -0.1660741197,
				"element": "C" 
			},
			{
				"x": 1.6054394267,
				"y": 2.0508164507,
				"z": -0.5746577873,
				"element": "C" 
			},
			{
				"x": 2.7741948685,
				"y": 2.2620805485,
				"z": 0.3595424891,
				"element": "C" 
			},
			{
				"x": 1.897865182,
				"y": 3.4273720749,
				"z": -0.038033885,
				"element": "C" 
			},
			{
				"x": -1.1066661309,
				"y": -1.5058283233,
				"z": 2.3174230902,
				"element": "C" 
			},
			{
				"x": -1.3614198322,
				"y": -2.8561573609,
				"z": 2.0704314805,
				"element": "C" 
			},
			{
				"x": -2.0879306261,
				"y": -3.2517279612,
				"z": 0.9494708509,
				"element": "C" 
			},
			{
				"x": -3.5495326534,
				"y": -1.939965806,
				"z": -1.5400360634,
				"element": "H" 
			},
			{
				"x": -2.6935363874,
				"y": -0.1708698228,
				"z": -0.377124744,
				"element": "H" 
			},
			{
				"x": -1.9890671803,
				"y": 1.5737470984,
				"z": 1.15845935,
				"element": "H" 
			},
			{
				"x": -1.3561314904,
				"y": 1.1602827454,
				"z": 2.7491215207,
				"element": "H" 
			},
			{
				"x": 0.772854278,
				"y": 0.8352885151,
				"z": 1.7721628667,
				"element": "H" 
			},
			{
				"x": -0.5083099407,
				"y": 1.732606588,
				"z": -0.6896646356,
				"element": "H" 
			},
			{
				"x": 0.4261892538,
				"y": 0.2490254654,
				"z": -0.5238860041,
				"element": "H" 
			},
			{
				"x": 1.8724226597,
				"y": 1.8812290516,
				"z": -1.6165242427,
				"element": "H" 
			},
			{
				"x": 2.695470704,
				"y": 1.9149009021,
				"z": 1.3852390212,
				"element": "H" 
			},
			{
				"x": 3.7763841841,
				"y": 2.1957369897,
				"z": -0.0536646364,
				"element": "H" 
			},
			{
				"x": 1.2219139779,
				"y": 3.8072189078,
				"z": 0.7214764108,
				"element": "H" 
			},
			{
				"x": 2.3002568261,
				"y": 4.1753943018,
				"z": -0.7149455579,
				"element": "H" 
			},
			{
				"x": -0.5479968611,
				"y": -1.2114012531,
				"z": 3.2026458766,
				"element": "H" 
			},
			{
				"x": -0.9972245741,
				"y": -3.610849139,
				"z": 2.7620279273,
				"element": "H" 
			},
			{
				"x": -2.2981572719,
				"y": -4.2962503719,
				"z": 0.7453577476,
				"element": "H" 
			}
		],
		 "valence_orbital": [ 
			{
				"type": "occ",
				"energy": -0.2826,
				"method": "rhf"
			},
			{
				"type": "occ",
				"energy": -0.27229,
				"method": "rhf"
			},
			{
				"type": "occ",
				"energy": -0.24839,
				"method": "rhf"
			},
			{
				"type": "occ",
				"energy": -0.22636,
				"method": "rhf"
			},
			{
				"type": "occ",
				"energy": -0.21505,
				"method": "rhf"
			},
			{
				"type": "unocc",
				"energy": -0.00308,
				"method": "rhf"
			},
			{
				"type": "unocc",
				"energy": 0.01098,
				"method": "rhf"
			},
			{
				"type": "unocc",
				"energy": 0.0704,
				"method": "rhf"
			},
			{
				"type": "unocc",
				"energy": 0.0869,
				"method": "rhf"
			},
			{
				"type": "unocc",
				"energy": 0.09676,
				"method": "rhf"
			}
		],
		"cosmo_sigma_profile": { 
			"-0.025": 0.0,
			"-0.024": 0.0,
			"-0.023": 0.0,
			"-0.022": 0.0,
			"-0.021": 0.0,
			"-0.02": 0.0,
			"-0.019": 0.0,
			"-0.018": 0.0765729039124,
			"-0.017": 0.893408107375,
			"-0.016": 1.34718385457,
			"-0.015": 0.92055985974,
			"-0.014": 0.919715708367,
			"-0.013": 1.13925512217,
			"-0.012": 0.920436408823,
			"-0.011": 1.0966275986,
			"-0.01": 0.781298456649,
			"-0.009": 1.81044828735,
			"-0.008": 2.29929576726,
			"-0.007": 2.78052996658,
			"-0.006": 5.26322392046,
			"-0.005": 11.3758501179,
			"-0.004": 19.0893993351,
			"-0.003": 22.0475976166,
			"-0.002": 22.121303382,
			"-0.001": 20.6242200631,
			"0.0": 19.0624265712,
			"0.001": 16.902160906,
			"0.002": 15.7697945548,
			"0.003": 13.4310041562,
			"0.004": 16.0440900529,
			"0.005": 15.2784121241,
			"0.006": 11.1715622444,
			"0.007": 4.51203307384,
			"0.008": 2.65169717879,
			"0.009": 2.39536040001,
			"0.01": 1.97854145757,
			"0.011": 3.04744830375,
			"0.012": 1.60556316373,
			"0.013": 0.670255292602,
			"0.014": 0.447644450984,
			"0.015": 0.0135399395475,
			"0.016": 0.0,
			"0.017": 0.0,
			"0.018": 0.0,
			"0.019": 0.0,
			"0.02": 0.0,
			"0.021": 0.0,
			"0.022": 0.0,
			"0.023": 0.0,
			"0.024": 0.0,
			"0.025": 0.0
		}
	}
}
