{
	 "smiles": "ClC1=C2C(NC(=O)C2=O)=CC=C1", 
	 "Tm": 529.15, 
	 "num_atms": 16, 
	 "gaussian": { 
		 "optdone": 1, 
		 "sigma_profile": "yes", 
		 "theory": "DFT", 
		 "functional": "B3LYP", 
		 "basiset": "6-31G**", 
		 "properties": { 
			 "R2extent": 2466.4314, 
			 "electric_dipole_moment_norm": 6.51921131886, 
			 "electric_quadrupole_moment_norm": 9.89028901297, 
			 "total_energy": -972.649808855, 
			 "HOMO_LUMO_gap": 0.14422, 
			 "cosmo_polarized_energy": -16.74, 
			 "cosmo_cavitation_energy": 23.23, 
			 "cosmo_dispersion_energy": -17.37, 
			 "cosmo_repulsion_energy": 1.38, 
			 "cosmo_total_nonelectrostatic_energy": 7.24, 
			 "SMD_solvation_energy": 5.04 
		},
		"coords": [
			{
				"x": 2.5881455495,
				"y": -0.5329612967,
				"z": 2.2908720894,
				"element": "Cl" 
			},
			{
				"x": 1.080574091,
				"y": -0.5148242765,
				"z": 1.4192699345,
				"element": "C" 
			},
			{
				"x": 0.9944857833,
				"y": 0.0773189396,
				"z": 0.1591037351,
				"element": "C" 
			},
			{
				"x": -0.2441250232,
				"y": 0.0756612307,
				"z": -0.5231107527,
				"element": "C" 
			},
			{
				"x": -0.1150474271,
				"y": 0.7153762848,
				"z": -1.7612318843,
				"element": "N" 
			},
			{
				"x": 1.1742416161,
				"y": 1.1735721944,
				"z": -1.9850431415,
				"element": "C" 
			},
			{
				"x": 1.583081571,
				"y": 1.7600758468,
				"z": -2.9597918993,
				"element": "O" 
			},
			{
				"x": 1.9783308352,
				"y": 0.763531601,
				"z": -0.7019184292,
				"element": "C" 
			},
			{
				"x": 3.1527831398,
				"y": 1.000826032,
				"z": -0.53702195,
				"element": "O" 
			},
			{
				"x": -1.3819654629,
				"y": -0.4999112245,
				"z": 0.0253667251,
				"element": "C" 
			},
			{
				"x": -1.2610244209,
				"y": -1.0857249839,
				"z": 1.2917516954,
				"element": "C" 
			},
			{
				"x": -0.0528851185,
				"y": -1.100988927,
				"z": 1.9919314091,
				"element": "C" 
			},
			{
				"x": -0.8634464518,
				"y": 0.8384472293,
				"z": -2.4275487825,
				"element": "H" 
			},
			{
				"x": -2.3294242602,
				"y": -0.4979711122,
				"z": -0.5030898118,
				"element": "H" 
			},
			{
				"x": -2.1346624878,
				"y": -1.543815005,
				"z": 1.746017713,
				"element": "H" 
			},
			{
				"x": 0.0158380664,
				"y": -1.5605125329,
				"z": 2.9708433499,
				"element": "H" 
			}
		],
		 "valence_orbital": [ 
			{
				"type": "occ",
				"energy": -0.32661,
				"method": "rhf"
			},
			{
				"type": "occ",
				"energy": -0.3125,
				"method": "rhf"
			},
			{
				"type": "occ",
				"energy": -0.27535,
				"method": "rhf"
			},
			{
				"type": "occ",
				"energy": -0.25204,
				"method": "rhf"
			},
			{
				"type": "occ",
				"energy": -0.24826,
				"method": "rhf"
			},
			{
				"type": "unocc",
				"energy": -0.10404,
				"method": "rhf"
			},
			{
				"type": "unocc",
				"energy": -0.03279,
				"method": "rhf"
			},
			{
				"type": "unocc",
				"energy": -0.00288,
				"method": "rhf"
			},
			{
				"type": "unocc",
				"energy": 0.02016,
				"method": "rhf"
			},
			{
				"type": "unocc",
				"energy": 0.06919,
				"method": "rhf"
			}
		],
		"cosmo_sigma_profile": { 
			"-0.025": 0.0,
			"-0.024": 0.0,
			"-0.023": 0.0,
			"-0.022": 0.0,
			"-0.021": 0.0,
			"-0.02": 0.0,
			"-0.019": 0.0,
			"-0.018": 0.0,
			"-0.017": 0.88299924949,
			"-0.016": 1.51165472478,
			"-0.015": 1.62886823784,
			"-0.014": 1.22399816268,
			"-0.013": 0.692046476195,
			"-0.012": 1.38636049672,
			"-0.011": 1.31892728971,
			"-0.01": 1.4282444533,
			"-0.009": 1.65326656695,
			"-0.008": 6.70535189193,
			"-0.007": 9.75638215265,
			"-0.006": 8.91916839514,
			"-0.005": 6.76704947127,
			"-0.004": 7.79105845516,
			"-0.003": 8.87262328697,
			"-0.002": 12.5075311398,
			"-0.001": 14.1250485634,
			"0.0": 17.4262872626,
			"0.001": 15.365677024,
			"0.002": 13.6004911912,
			"0.003": 9.82242757998,
			"0.004": 7.14749631247,
			"0.005": 3.555165534,
			"0.006": 2.62512941581,
			"0.007": 3.70078460967,
			"0.008": 3.96472902072,
			"0.009": 5.92699754693,
			"0.01": 9.17255352705,
			"0.011": 8.06265783358,
			"0.012": 2.44641354386,
			"0.013": 0.100889663105,
			"0.014": 0.0,
			"0.015": 0.0,
			"0.016": 0.0,
			"0.017": 0.0,
			"0.018": 0.0,
			"0.019": 0.0,
			"0.02": 0.0,
			"0.021": 0.0,
			"0.022": 0.0,
			"0.023": 0.0,
			"0.024": 0.0,
			"0.025": 0.0
		}
	}
}
