{
	 "smiles": "OC(=O)C(N1C(=O)CCC1=O)C1=CC=CC=C1", 
	 "Tm": 468.15, 
	 "num_atms": 28, 
	 "gaussian": { 
		 "optdone": 1, 
		 "sigma_profile": "yes", 
		 "theory": "DFT", 
		 "functional": "B3LYP", 
		 "basiset": "6-31G**", 
		 "properties": { 
			 "R2extent": 4463.6313, 
			 "electric_dipole_moment_norm": 3.03411053688, 
			 "electric_quadrupole_moment_norm": 16.0557559022, 
			 "total_energy": -819.597554949, 
			 "HOMO_LUMO_gap": 0.22042, 
			 "cosmo_polarized_energy": -18.42, 
			 "cosmo_cavitation_energy": 32.41, 
			 "cosmo_dispersion_energy": -22.57, 
			 "cosmo_repulsion_energy": 1.78, 
			 "cosmo_total_nonelectrostatic_energy": 11.62, 
			 "SMD_solvation_energy": 7.78 
		},
		"coords": [
			{
				"x": 2.3185742635,
				"y": 3.1527668312,
				"z": 0.712829888,
				"element": "O" 
			},
			{
				"x": 2.1084982384,
				"y": 1.9060198985,
				"z": 0.2325739705,
				"element": "C" 
			},
			{
				"x": 3.0020847378,
				"y": 1.1499479316,
				"z": -0.0612446288,
				"element": "O" 
			},
			{
				"x": 0.6154095702,
				"y": 1.6387726972,
				"z": 0.0088838328,
				"element": "C" 
			},
			{
				"x": -0.1960446808,
				"y": 2.2422103311,
				"z": 1.0712659265,
				"element": "N" 
			},
			{
				"x": -1.2810481161,
				"y": 3.0748714664,
				"z": 0.7854235584,
				"element": "C" 
			},
			{
				"x": -1.6367113143,
				"y": 3.3773925665,
				"z": -0.3343382961,
				"element": "O" 
			},
			{
				"x": -1.8977010198,
				"y": 3.5068097007,
				"z": 2.1110908894,
				"element": "C" 
			},
			{
				"x": -1.0386551227,
				"y": 2.8342554434,
				"z": 3.1942972678,
				"element": "C" 
			},
			{
				"x": 0.0286184872,
				"y": 2.0536890627,
				"z": 2.4341967579,
				"element": "C" 
			},
			{
				"x": 0.9299709458,
				"y": 1.3860793678,
				"z": 2.8974321067,
				"element": "O" 
			},
			{
				"x": 0.2658946919,
				"y": 0.1815246821,
				"z": -0.2427255294,
				"element": "C" 
			},
			{
				"x": -0.6282048858,
				"y": -0.1220793118,
				"z": -1.2762509839,
				"element": "C" 
			},
			{
				"x": -1.0130341137,
				"y": -1.4421289179,
				"z": -1.5161631952,
				"element": "C" 
			},
			{
				"x": -0.5051390265,
				"y": -2.4700888934,
				"z": -0.7214655482,
				"element": "C" 
			},
			{
				"x": 0.3853729197,
				"y": -2.1718963968,
				"z": 0.3127909933,
				"element": "C" 
			},
			{
				"x": 0.7710727219,
				"y": -0.8540163906,
				"z": 0.5549437846,
				"element": "C" 
			},
			{
				"x": 3.2822479025,
				"y": 3.2472382106,
				"z": 0.7956131921,
				"element": "H" 
			},
			{
				"x": 0.3450573914,
				"y": 2.218076271,
				"z": -0.8827112938,
				"element": "H" 
			},
			{
				"x": -1.8874326232,
				"y": 4.5991764451,
				"z": 2.1614204026,
				"element": "H" 
			},
			{
				"x": -2.9459193875,
				"y": 3.1953353618,
				"z": 2.1278294302,
				"element": "H" 
			},
			{
				"x": -1.5983556562,
				"y": 2.1382505388,
				"z": 3.8254792987,
				"element": "H" 
			},
			{
				"x": -0.5424517265,
				"y": 3.5444165099,
				"z": 3.8614641452,
				"element": "H" 
			},
			{
				"x": -1.0298647498,
				"y": 0.6801639351,
				"z": -1.8898580485,
				"element": "H" 
			},
			{
				"x": -1.7051402987,
				"y": -1.6645419394,
				"z": -2.3231977139,
				"element": "H" 
			},
			{
				"x": -0.799507224,
				"y": -3.4991769529,
				"z": -0.90727806,
				"element": "H" 
			},
			{
				"x": 0.784938246,
				"y": -2.9692228092,
				"z": 0.9328719192,
				"element": "H" 
			},
			{
				"x": 1.4607698293,
				"y": -0.6249456394,
				"z": 1.3583259338,
				"element": "H" 
			}
		],
		 "valence_orbital": [ 
			{
				"type": "occ",
				"energy": -0.29441,
				"method": "rhf"
			},
			{
				"type": "occ",
				"energy": -0.27535,
				"method": "rhf"
			},
			{
				"type": "occ",
				"energy": -0.26722,
				"method": "rhf"
			},
			{
				"type": "occ",
				"energy": -0.24943,
				"method": "rhf"
			},
			{
				"type": "occ",
				"energy": -0.24622,
				"method": "rhf"
			},
			{
				"type": "unocc",
				"energy": -0.0258,
				"method": "rhf"
			},
			{
				"type": "unocc",
				"energy": -0.01018,
				"method": "rhf"
			},
			{
				"type": "unocc",
				"energy": -0.00056,
				"method": "rhf"
			},
			{
				"type": "unocc",
				"energy": 0.00163,
				"method": "rhf"
			},
			{
				"type": "unocc",
				"energy": 0.0196,
				"method": "rhf"
			}
		],
		"cosmo_sigma_profile": { 
			"-0.025": 0.0,
			"-0.024": 0.0,
			"-0.023": 0.0,
			"-0.022": 0.0,
			"-0.021": 0.0,
			"-0.02": 0.0,
			"-0.019": 0.601171095955,
			"-0.018": 0.666092042492,
			"-0.017": 1.06524997253,
			"-0.016": 0.788474971154,
			"-0.015": 0.931300428603,
			"-0.014": 0.645071189796,
			"-0.013": 0.167207407677,
			"-0.012": 0.701028589098,
			"-0.011": 0.937645640344,
			"-0.01": 1.11600752272,
			"-0.009": 1.81614862505,
			"-0.008": 4.25145156276,
			"-0.007": 19.1723214826,
			"-0.006": 20.0729692626,
			"-0.005": 16.2034464322,
			"-0.004": 18.5467325753,
			"-0.003": 18.4715351185,
			"-0.002": 13.0239802072,
			"-0.001": 10.819399423,
			"0.0": 12.3546076531,
			"0.001": 11.7118365765,
			"0.002": 12.2983404174,
			"0.003": 11.528540581,
			"0.004": 14.2372565139,
			"0.005": 16.3393059219,
			"0.006": 8.25412365975,
			"0.007": 5.92955619757,
			"0.008": 5.33585336597,
			"0.009": 4.84359630754,
			"0.01": 7.45329950863,
			"0.011": 11.5035336734,
			"0.012": 5.32749802277,
			"0.013": 0.866573712112,
			"0.014": 0.0,
			"0.015": 0.0,
			"0.016": 0.0,
			"0.017": 0.0,
			"0.018": 0.0,
			"0.019": 0.0,
			"0.02": 0.0,
			"0.021": 0.0,
			"0.022": 0.0,
			"0.023": 0.0,
			"0.024": 0.0,
			"0.025": 0.0
		}
	}
}
