{
	 "smiles": "CC(=O)NC1C(O)C(O)C(CO)OC1OC1=C(C=CC=C1)[N+]([O-])=O", 
	 "Tm": 479.15, 
	 "num_atms": 42, 
	 "gaussian": { 
		 "optdone": 1, 
		 "sigma_profile": "yes", 
		 "theory": "DFT", 
		 "functional": "B3LYP", 
		 "basiset": "6-31G**", 
		 "properties": { 
			 "R2extent": 8195.4921, 
			 "electric_dipole_moment_norm": 3.54365853462, 
			 "electric_quadrupole_moment_norm": 24.8689562111, 
			 "total_energy": -1255.50785279, 
			 "HOMO_LUMO_gap": 0.15577, 
			 "cosmo_polarized_energy": -26.78, 
			 "cosmo_cavitation_energy": 44.1, 
			 "cosmo_dispersion_energy": -30.13, 
			 "cosmo_repulsion_energy": 2.3, 
			 "cosmo_total_nonelectrostatic_energy": 16.27, 
			 "SMD_solvation_energy": 9.67 
		},
		"coords": [
			{
				"x": 1.6325086188,
				"y": -4.5538504787,
				"z": -3.3642974382,
				"element": "C" 
			},
			{
				"x": 0.7052081902,
				"y": -3.747242329,
				"z": -2.4673450655,
				"element": "C" 
			},
			{
				"x": -0.5120522645,
				"y": -3.8032597574,
				"z": -2.5753261675,
				"element": "O" 
			},
			{
				"x": 1.3383356406,
				"y": -2.9532489043,
				"z": -1.5417618472,
				"element": "N" 
			},
			{
				"x": 0.6112940026,
				"y": -2.2403808439,
				"z": -0.5076968257,
				"element": "C" 
			},
			{
				"x": 1.0106738134,
				"y": -2.7551680186,
				"z": 0.8797354501,
				"element": "C" 
			},
			{
				"x": 2.4126928253,
				"y": -2.5996457364,
				"z": 0.9959515031,
				"element": "O" 
			},
			{
				"x": 0.2749048915,
				"y": -1.9711695366,
				"z": 2.0177975054,
				"element": "C" 
			},
			{
				"x": 1.1728809245,
				"y": -1.897047959,
				"z": 3.1209603884,
				"element": "O" 
			},
			{
				"x": -0.2177118647,
				"y": -0.6069078139,
				"z": 1.4909651156,
				"element": "C" 
			},
			{
				"x": -0.5417595902,
				"y": 0.4233302034,
				"z": 2.5646836015,
				"element": "C" 
			},
			{
				"x": 0.6434501636,
				"y": 0.7010647008,
				"z": 3.3235894633,
				"element": "O" 
			},
			{
				"x": 0.7562026371,
				"y": -0.0402085164,
				"z": 0.6050480152,
				"element": "O" 
			},
			{
				"x": 0.8866051075,
				"y": -0.7263531485,
				"z": -0.6086214444,
				"element": "C" 
			},
			{
				"x": -0.0425170484,
				"y": -0.2276026631,
				"z": -1.5916935455,
				"element": "O" 
			},
			{
				"x": 0.2587654563,
				"y": 0.9815477796,
				"z": -2.1481302857,
				"element": "C" 
			},
			{
				"x": -0.2091075895,
				"y": 2.2013966095,
				"z": -1.6265114467,
				"element": "C" 
			},
			{
				"x": 0.1358128697,
				"y": 3.4214642861,
				"z": -2.2116268,
				"element": "C" 
			},
			{
				"x": 0.9306256801,
				"y": 3.4400388464,
				"z": -3.3523563106,
				"element": "C" 
			},
			{
				"x": 1.3960186203,
				"y": 2.2364061841,
				"z": -3.8901960084,
				"element": "C" 
			},
			{
				"x": 1.0715426481,
				"y": 1.0237215784,
				"z": -3.2864571656,
				"element": "C" 
			},
			{
				"x": -1.0762637185,
				"y": 2.2456828658,
				"z": -0.4487318247,
				"element": "N" 
			},
			{
				"x": -0.9199675792,
				"y": 3.1906331321,
				"z": 0.3294597418,
				"element": "O" 
			},
			{
				"x": -1.9164088138,
				"y": 1.3596679824,
				"z": -0.3062309425,
				"element": "O" 
			},
			{
				"x": 2.6913339413,
				"y": -4.3144031372,
				"z": -3.2332694021,
				"element": "H" 
			},
			{
				"x": 1.3503715621,
				"y": -4.3787717689,
				"z": -4.4053835276,
				"element": "H" 
			},
			{
				"x": 1.4815336016,
				"y": -5.6182990087,
				"z": -3.1613395151,
				"element": "H" 
			},
			{
				"x": 2.3260620274,
				"y": -3.0839961631,
				"z": -1.36939956,
				"element": "H" 
			},
			{
				"x": -0.4506257085,
				"y": -2.4206906856,
				"z": -0.7002610184,
				"element": "H" 
			},
			{
				"x": 0.7433384506,
				"y": -3.8205382128,
				"z": 0.9466581838,
				"element": "H" 
			},
			{
				"x": 2.5453436396,
				"y": -2.3471980468,
				"z": 1.9295833356,
				"element": "H" 
			},
			{
				"x": -0.6121729123,
				"y": -2.5452294725,
				"z": 2.3225151515,
				"element": "H" 
			},
			{
				"x": 1.2031357544,
				"y": -0.9690597545,
				"z": 3.4261033876,
				"element": "H" 
			},
			{
				"x": -1.1547285873,
				"y": -0.7711243696,
				"z": 0.9415000339,
				"element": "H" 
			},
			{
				"x": -1.3338448554,
				"y": 0.0098176367,
				"z": 3.2065605304,
				"element": "H" 
			},
			{
				"x": -0.9195270863,
				"y": 1.3342302572,
				"z": 2.0902233496,
				"element": "H" 
			},
			{
				"x": 0.4244733616,
				"y": 1.3254093404,
				"z": 4.0255874319,
				"element": "H" 
			},
			{
				"x": 1.9061917779,
				"y": -0.5302238667,
				"z": -0.9524516745,
				"element": "H" 
			},
			{
				"x": -0.2308535681,
				"y": 4.3352053167,
				"z": -1.7591693975,
				"element": "H" 
			},
			{
				"x": 1.1841774325,
				"y": 4.3862490512,
				"z": -3.8187252,
				"element": "H" 
			},
			{
				"x": 2.0169967992,
				"y": 2.2424861797,
				"z": -4.7809273511,
				"element": "H" 
			},
			{
				"x": 1.4294607492,
				"y": 0.0796682417,
				"z": -3.683912424,
				"element": "H" 
			}
		],
		 "valence_orbital": [ 
			{
				"type": "occ",
				"energy": -0.27319,
				"method": "rhf"
			},
			{
				"type": "occ",
				"energy": -0.2647,
				"method": "rhf"
			},
			{
				"type": "occ",
				"energy": -0.26137,
				"method": "rhf"
			},
			{
				"type": "occ",
				"energy": -0.24631,
				"method": "rhf"
			},
			{
				"type": "occ",
				"energy": -0.24114,
				"method": "rhf"
			},
			{
				"type": "unocc",
				"energy": -0.08537,
				"method": "rhf"
			},
			{
				"type": "unocc",
				"energy": -0.0243,
				"method": "rhf"
			},
			{
				"type": "unocc",
				"energy": -0.00952,
				"method": "rhf"
			},
			{
				"type": "unocc",
				"energy": 0.03094,
				"method": "rhf"
			},
			{
				"type": "unocc",
				"energy": 0.05033,
				"method": "rhf"
			}
		],
		"cosmo_sigma_profile": { 
			"-0.025": 0.0,
			"-0.024": 0.0,
			"-0.023": 0.0,
			"-0.022": 0.0,
			"-0.021": 0.0,
			"-0.02": 0.0,
			"-0.019": 0.0,
			"-0.018": 0.158830589232,
			"-0.017": 1.27945412459,
			"-0.016": 1.08511314619,
			"-0.015": 0.683618052987,
			"-0.014": 1.26711204391,
			"-0.013": 1.22119716974,
			"-0.012": 1.67627601202,
			"-0.011": 1.55583379166,
			"-0.01": 1.88821571008,
			"-0.009": 3.79090971586,
			"-0.008": 6.39083009318,
			"-0.007": 17.150544211,
			"-0.006": 25.6061459418,
			"-0.005": 28.4196616275,
			"-0.004": 22.4852846021,
			"-0.003": 22.1879016288,
			"-0.002": 22.5535976266,
			"-0.001": 23.1839389208,
			"0.0": 18.6778846764,
			"0.001": 20.8688738976,
			"0.002": 21.3377665074,
			"0.003": 12.6440342483,
			"0.004": 8.47685657008,
			"0.005": 8.73356893242,
			"0.006": 8.67840312008,
			"0.007": 13.1868117023,
			"0.008": 13.9868837098,
			"0.009": 8.5815457725,
			"0.01": 6.06214343743,
			"0.011": 5.71462324235,
			"0.012": 5.56624336124,
			"0.013": 6.2236846564,
			"0.014": 4.76794413528,
			"0.015": 1.16987016014,
			"0.016": 0.00249092612355,
			"0.017": 0.0,
			"0.018": 0.0,
			"0.019": 0.0,
			"0.02": 0.0,
			"0.021": 0.0,
			"0.022": 0.0,
			"0.023": 0.0,
			"0.024": 0.0,
			"0.025": 0.0
		}
	}
}
