{
	 "smiles": "CC1=CC(C)=C(C)C(C)=C1C", 
	 "Tm": 327.35, 
	 "num_atms": 27, 
	 "gaussian": { 
		 "optdone": 1, 
		 "sigma_profile": "yes", 
		 "theory": "DFT", 
		 "functional": "B3LYP", 
		 "basiset": "6-31G**", 
		 "properties": { 
			 "R2extent": 2561.7726, 
			 "electric_dipole_moment_norm": 0.358357112389, 
			 "electric_quadrupole_moment_norm": 3.64432374797, 
			 "total_energy": -428.842475953, 
			 "HOMO_LUMO_gap": 0.2275, 
			 "cosmo_polarized_energy": -3.26, 
			 "cosmo_cavitation_energy": 27.52, 
			 "cosmo_dispersion_energy": -20.15, 
			 "cosmo_repulsion_energy": 1.6, 
			 "cosmo_total_nonelectrostatic_energy": 8.96, 
			 "SMD_solvation_energy": 4.68 
		},
		"coords": [
			{
				"x": 2.7005499528,
				"y": -1.4636996571,
				"z": -3.2432713083,
				"element": "C" 
			},
			{
				"x": 1.8791519256,
				"y": -1.1173290337,
				"z": -2.019526178,
				"element": "C" 
			},
			{
				"x": 1.4314975811,
				"y": -2.148174681,
				"z": -1.1908266111,
				"element": "C" 
			},
			{
				"x": 0.6625382404,
				"y": -1.9173092672,
				"z": -0.0483849595,
				"element": "C" 
			},
			{
				"x": 0.2141038723,
				"y": -3.0987065564,
				"z": 0.7855601702,
				"element": "C" 
			},
			{
				"x": 0.3337548858,
				"y": -0.5905714999,
				"z": 0.2897626363,
				"element": "C" 
			},
			{
				"x": -0.5109332042,
				"y": -0.2929127496,
				"z": 1.5123797238,
				"element": "C" 
			},
			{
				"x": 0.7960397711,
				"y": 0.4676681776,
				"z": -0.5214082849,
				"element": "C" 
			},
			{
				"x": 0.4627036097,
				"y": 1.8983045292,
				"z": -0.1465924245,
				"element": "C" 
			},
			{
				"x": 1.5526947586,
				"y": 0.2108016269,
				"z": -1.684648289,
				"element": "C" 
			},
			{
				"x": 2.0048331187,
				"y": 1.3609694183,
				"z": -2.5619003543,
				"element": "C" 
			},
			{
				"x": 3.6832217691,
				"y": -0.9779226762,
				"z": -3.2327257444,
				"element": "H" 
			},
			{
				"x": 2.2044705223,
				"y": -1.1614003633,
				"z": -4.1735592206,
				"element": "H" 
			},
			{
				"x": 2.8689411262,
				"y": -2.5426019483,
				"z": -3.299858651,
				"element": "H" 
			},
			{
				"x": 1.6881407702,
				"y": -3.1736094268,
				"z": -1.4485889498,
				"element": "H" 
			},
			{
				"x": -0.8783742053,
				"y": -3.1889232578,
				"z": 0.8213343566,
				"element": "H" 
			},
			{
				"x": 0.6043610252,
				"y": -4.0319282979,
				"z": 0.3703608258,
				"element": "H" 
			},
			{
				"x": 0.5630669639,
				"y": -3.0291668247,
				"z": 1.8224433627,
				"element": "H" 
			},
			{
				"x": 0.0750013446,
				"y": 0.1889908124,
				"z": 2.3062148263,
				"element": "H" 
			},
			{
				"x": -0.9438282654,
				"y": -1.1983468341,
				"z": 1.9391584192,
				"element": "H" 
			},
			{
				"x": -1.3394189157,
				"y": 0.3835739747,
				"z": 1.2766057245,
				"element": "H" 
			},
			{
				"x": -0.4836795558,
				"y": 2.2262821933,
				"z": -0.5993694715,
				"element": "H" 
			},
			{
				"x": 0.3582413409,
				"y": 2.023063204,
				"z": 0.9332551973,
				"element": "H" 
			},
			{
				"x": 1.2330726725,
				"y": 2.5969921827,
				"z": -0.4796881785,
				"element": "H" 
			},
			{
				"x": 2.4231147144,
				"y": 1.0130581272,
				"z": -3.5070658064,
				"element": "H" 
			},
			{
				"x": 2.7771452316,
				"y": 1.968855167,
				"z": -2.0723111109,
				"element": "H" 
			},
			{
				"x": 1.1766889494,
				"y": 2.0364436605,
				"z": -2.8019497001,
				"element": "H" 
			}
		],
		 "valence_orbital": [ 
			{
				"type": "occ",
				"energy": -0.31501,
				"method": "rhf"
			},
			{
				"type": "occ",
				"energy": -0.31371,
				"method": "rhf"
			},
			{
				"type": "occ",
				"energy": -0.31318,
				"method": "rhf"
			},
			{
				"type": "occ",
				"energy": -0.21937,
				"method": "rhf"
			},
			{
				"type": "occ",
				"energy": -0.21351,
				"method": "rhf"
			},
			{
				"type": "unocc",
				"energy": 0.01399,
				"method": "rhf"
			},
			{
				"type": "unocc",
				"energy": 0.0151,
				"method": "rhf"
			},
			{
				"type": "unocc",
				"energy": 0.09299,
				"method": "rhf"
			},
			{
				"type": "unocc",
				"energy": 0.10921,
				"method": "rhf"
			},
			{
				"type": "unocc",
				"energy": 0.11457,
				"method": "rhf"
			}
		],
		"cosmo_sigma_profile": { 
			"-0.025": 0.0,
			"-0.024": 0.0,
			"-0.023": 0.0,
			"-0.022": 0.0,
			"-0.021": 0.0,
			"-0.02": 0.0,
			"-0.019": 0.0,
			"-0.018": 0.0,
			"-0.017": 0.0,
			"-0.016": 0.0,
			"-0.015": 0.0,
			"-0.014": 0.0,
			"-0.013": 0.0,
			"-0.012": 0.0,
			"-0.011": 0.0,
			"-0.01": 0.0,
			"-0.009": 0.0,
			"-0.008": 0.0,
			"-0.007": 0.0,
			"-0.006": 0.0,
			"-0.005": 0.0145011837132,
			"-0.004": 11.1257052704,
			"-0.003": 31.7794145488,
			"-0.002": 31.152411649,
			"-0.001": 33.226755715,
			"0.0": 32.3662167282,
			"0.001": 29.1611434384,
			"0.002": 11.5918278472,
			"0.003": 7.19656202282,
			"0.004": 6.80996892847,
			"0.005": 5.19361385739,
			"0.006": 5.34085990006,
			"0.007": 5.70209225363,
			"0.008": 3.96671925936,
			"0.009": 0.213448581584,
			"0.01": 0.0,
			"0.011": 0.0,
			"0.012": 0.0,
			"0.013": 0.0,
			"0.014": 0.0,
			"0.015": 0.0,
			"0.016": 0.0,
			"0.017": 0.0,
			"0.018": 0.0,
			"0.019": 0.0,
			"0.02": 0.0,
			"0.021": 0.0,
			"0.022": 0.0,
			"0.023": 0.0,
			"0.024": 0.0,
			"0.025": 0.0
		}
	}
}
