{
	 "smiles": "NC1=NC2=C(S1)C=CC=C2C(F)(F)F", 
	 "Tm": 322.15, 
	 "num_atms": 19, 
	 "gaussian": { 
		 "optdone": 1, 
		 "sigma_profile": "yes", 
		 "theory": "DFT", 
		 "functional": "B3LYP", 
		 "basiset": "6-31G**", 
		 "properties": { 
			 "R2extent": 3168.715, 
			 "electric_dipole_moment_norm": 3.94019704203, 
			 "electric_quadrupole_moment_norm": 13.535163702, 
			 "total_energy": -1115.09497183, 
			 "HOMO_LUMO_gap": 0.19203, 
			 "cosmo_polarized_energy": -12.15, 
			 "cosmo_cavitation_energy": 26.45, 
			 "cosmo_dispersion_energy": -19.75, 
			 "cosmo_repulsion_energy": 1.45, 
			 "cosmo_total_nonelectrostatic_energy": 8.16, 
			 "SMD_solvation_energy": 3.99 
		},
		"coords": [
			{
				"x": -0.5377692445,
				"y": -2.6641635773,
				"z": -1.7687207936,
				"element": "N" 
			},
			{
				"x": -0.8483340762,
				"y": -1.49515476,
				"z": -1.1360002585,
				"element": "C" 
			},
			{
				"x": -0.2023290309,
				"y": -1.03324932,
				"z": -0.1109816683,
				"element": "N" 
			},
			{
				"x": -0.7863374454,
				"y": 0.1301316909,
				"z": 0.3527709834,
				"element": "C" 
			},
			{
				"x": -1.9257299856,
				"y": 0.5797321053,
				"z": -0.3597076164,
				"element": "C" 
			},
			{
				"x": -2.2711034773,
				"y": -0.5499627693,
				"z": -1.6670235838,
				"element": "S" 
			},
			{
				"x": -2.606918763,
				"y": 1.7430473124,
				"z": -0.0120641853,
				"element": "C" 
			},
			{
				"x": -2.1409532625,
				"y": 2.4772951133,
				"z": 1.078546317,
				"element": "C" 
			},
			{
				"x": -1.0182659998,
				"y": 2.0526239473,
				"z": 1.7985491047,
				"element": "C" 
			},
			{
				"x": -0.3350965452,
				"y": 0.8886291055,
				"z": 1.4490053304,
				"element": "C" 
			},
			{
				"x": 0.8735114948,
				"y": 0.4391211406,
				"z": 2.226239627,
				"element": "C" 
			},
			{
				"x": 1.9777737104,
				"y": 0.3770319135,
				"z": 1.4515153683,
				"element": "F" 
			},
			{
				"x": 0.6995232876,
				"y": -0.7840575374,
				"z": 2.7695793532,
				"element": "F" 
			},
			{
				"x": 1.1527639751,
				"y": 1.2884902518,
				"z": 3.2445956358,
				"element": "F" 
			},
			{
				"x": 0.3661333384,
				"y": -3.0445938328,
				"z": -1.5231951235,
				"element": "H" 
			},
			{
				"x": -0.8152045909,
				"y": -2.7808252625,
				"z": -2.7312988705,
				"element": "H" 
			},
			{
				"x": -3.477404781,
				"y": 2.0716771091,
				"z": -0.5707193891,
				"element": "H" 
			},
			{
				"x": -2.6543717904,
				"y": 3.3871462113,
				"z": 1.3720678029,
				"element": "H" 
			},
			{
				"x": -0.6669868135,
				"y": 2.6324811582,
				"z": 2.6437419662,
				"element": "H" 
			}
		],
		 "valence_orbital": [ 
			{
				"type": "occ",
				"energy": -0.31014,
				"method": "rhf"
			},
			{
				"type": "occ",
				"energy": -0.30595,
				"method": "rhf"
			},
			{
				"type": "occ",
				"energy": -0.28333,
				"method": "rhf"
			},
			{
				"type": "occ",
				"energy": -0.24475,
				"method": "rhf"
			},
			{
				"type": "occ",
				"energy": -0.22328,
				"method": "rhf"
			},
			{
				"type": "unocc",
				"energy": -0.03125,
				"method": "rhf"
			},
			{
				"type": "unocc",
				"energy": -0.01504,
				"method": "rhf"
			},
			{
				"type": "unocc",
				"energy": -0.00732,
				"method": "rhf"
			},
			{
				"type": "unocc",
				"energy": 0.0368,
				"method": "rhf"
			},
			{
				"type": "unocc",
				"energy": 0.0604,
				"method": "rhf"
			}
		],
		"cosmo_sigma_profile": { 
			"-0.025": 0.0,
			"-0.024": 0.0,
			"-0.023": 0.0,
			"-0.022": 0.0,
			"-0.021": 0.0,
			"-0.02": 0.0,
			"-0.019": 0.0,
			"-0.018": 0.0,
			"-0.017": 0.0,
			"-0.016": 0.484177167546,
			"-0.015": 1.46256878729,
			"-0.014": 2.5945404544,
			"-0.013": 3.07233810009,
			"-0.012": 2.53113584941,
			"-0.011": 2.38595393402,
			"-0.01": 2.39280594202,
			"-0.009": 1.50645362794,
			"-0.008": 2.71613495322,
			"-0.007": 5.40901437679,
			"-0.006": 8.13882053501,
			"-0.005": 8.18107438967,
			"-0.004": 6.83801447795,
			"-0.003": 7.48055689804,
			"-0.002": 7.94263691785,
			"-0.001": 13.0676098507,
			"0.0": 13.5932219291,
			"0.001": 18.4674335715,
			"0.002": 27.1139587975,
			"0.003": 40.1178111054,
			"0.004": 18.517108303,
			"0.005": 5.42597489567,
			"0.006": 2.8419422749,
			"0.007": 2.8403876064,
			"0.008": 3.21988898702,
			"0.009": 2.01303524987,
			"0.01": 1.73358882392,
			"0.011": 1.80359426002,
			"0.012": 0.974821890188,
			"0.013": 0.135018584622,
			"0.014": 0.0,
			"0.015": 0.0,
			"0.016": 0.0,
			"0.017": 0.0,
			"0.018": 0.0,
			"0.019": 0.0,
			"0.02": 0.0,
			"0.021": 0.0,
			"0.022": 0.0,
			"0.023": 0.0,
			"0.024": 0.0,
			"0.025": 0.0
		}
	}
}
