{
	 "smiles": "FS(=O)(=O)CC1=CN=C(Cl)C=C1", 
	 "Tm": 355.15, 
	 "num_atms": 17, 
	 "gaussian": { 
		 "optdone": 1, 
		 "sigma_profile": "yes", 
		 "theory": "DFT", 
		 "functional": "B3LYP", 
		 "basiset": "6-31G**", 
		 "properties": { 
			 "R2extent": 4017.2256, 
			 "electric_dipole_moment_norm": 3.77239985951, 
			 "electric_quadrupole_moment_norm": 14.7605045568, 
			 "total_energy": -1395.0044238, 
			 "HOMO_LUMO_gap": 0.2151, 
			 "cosmo_polarized_energy": -14.35, 
			 "cosmo_cavitation_energy": 25.83, 
			 "cosmo_dispersion_energy": -19.32, 
			 "cosmo_repulsion_energy": 1.48, 
			 "cosmo_total_nonelectrostatic_energy": 7.98, 
			 "SMD_solvation_energy": 2.1 
		},
		"coords": [
			{
				"x": 1.5225221535,
				"y": 2.8857177949,
				"z": 0.0046339617,
				"element": "F" 
			},
			{
				"x": 0.2470092312,
				"y": 2.1184301606,
				"z": -0.6462265309,
				"element": "S" 
			},
			{
				"x": 0.3511982262,
				"y": 2.2925484944,
				"z": -2.0837352615,
				"element": "O" 
			},
			{
				"x": -0.9192521213,
				"y": 2.5357573575,
				"z": 0.1066540548,
				"element": "O" 
			},
			{
				"x": 0.7525428486,
				"y": 0.4345146896,
				"z": -0.1806292413,
				"element": "C" 
			},
			{
				"x": -0.2401294212,
				"y": -0.587384962,
				"z": -0.658235843,
				"element": "C" 
			},
			{
				"x": -1.1211081187,
				"y": -1.1980580559,
				"z": 0.2383174089,
				"element": "C" 
			},
			{
				"x": -2.0237439969,
				"y": -2.1185757681,
				"z": -0.1185272696,
				"element": "N" 
			},
			{
				"x": -2.081166419,
				"y": -2.4498428513,
				"z": -1.3957521694,
				"element": "C" 
			},
			{
				"x": -3.2704056361,
				"y": -3.6609766446,
				"z": -1.8469724054,
				"element": "Cl" 
			},
			{
				"x": -1.2659704326,
				"y": -1.906092529,
				"z": -2.3951130019,
				"element": "C" 
			},
			{
				"x": -0.3305310861,
				"y": -0.9553138642,
				"z": -2.008871142,
				"element": "C" 
			},
			{
				"x": 1.7425314821,
				"y": 0.3036775811,
				"z": -0.6249865299,
				"element": "H" 
			},
			{
				"x": 0.8459171954,
				"y": 0.4446963073,
				"z": 0.9074426775,
				"element": "H" 
			},
			{
				"x": -1.0972165392,
				"y": -0.9406606146,
				"z": 1.2958058393,
				"element": "H" 
			},
			{
				"x": -1.3682572396,
				"y": -2.2197148721,
				"z": -3.426788911,
				"element": "H" 
			},
			{
				"x": 0.3183598736,
				"y": -0.4959222237,
				"z": -2.7484156364,
				"element": "H" 
			}
		],
		 "valence_orbital": [ 
			{
				"type": "occ",
				"energy": -0.33634,
				"method": "rhf"
			},
			{
				"type": "occ",
				"energy": -0.32673,
				"method": "rhf"
			},
			{
				"type": "occ",
				"energy": -0.3175,
				"method": "rhf"
			},
			{
				"type": "occ",
				"energy": -0.2929,
				"method": "rhf"
			},
			{
				"type": "occ",
				"energy": -0.27649,
				"method": "rhf"
			},
			{
				"type": "unocc",
				"energy": -0.06139,
				"method": "rhf"
			},
			{
				"type": "unocc",
				"energy": -0.05239,
				"method": "rhf"
			},
			{
				"type": "unocc",
				"energy": 0.00811,
				"method": "rhf"
			},
			{
				"type": "unocc",
				"energy": 0.02009,
				"method": "rhf"
			},
			{
				"type": "unocc",
				"energy": 0.02851,
				"method": "rhf"
			}
		],
		"cosmo_sigma_profile": { 
			"-0.025": 0.0,
			"-0.024": 0.0,
			"-0.023": 0.0,
			"-0.022": 0.0,
			"-0.021": 0.0,
			"-0.02": 0.0,
			"-0.019": 0.0,
			"-0.018": 0.0,
			"-0.017": 0.0,
			"-0.016": 0.0,
			"-0.015": 0.0,
			"-0.014": 0.0,
			"-0.013": 0.0,
			"-0.012": 0.516694168572,
			"-0.011": 5.13769340416,
			"-0.01": 5.63368405836,
			"-0.009": 6.0887885267,
			"-0.008": 9.40997556963,
			"-0.007": 9.07268332748,
			"-0.006": 6.59872795199,
			"-0.005": 6.11581947491,
			"-0.004": 6.86997365335,
			"-0.003": 8.01990144725,
			"-0.002": 11.5257088364,
			"-0.001": 18.9630940656,
			"0.0": 16.9936239356,
			"0.001": 12.0305490402,
			"0.002": 16.3396794877,
			"0.003": 14.7569123122,
			"0.004": 13.6325596953,
			"0.005": 7.13757678178,
			"0.006": 3.82147093001,
			"0.007": 6.3889208765,
			"0.008": 11.9677255891,
			"0.009": 8.50925581967,
			"0.01": 1.38873849867,
			"0.011": 0.966691590882,
			"0.012": 0.785647266621,
			"0.013": 0.846977430606,
			"0.014": 0.654957993838,
			"0.015": 0.00179405287825,
			"0.016": 0.0,
			"0.017": 0.0,
			"0.018": 0.0,
			"0.019": 0.0,
			"0.02": 0.0,
			"0.021": 0.0,
			"0.022": 0.0,
			"0.023": 0.0,
			"0.024": 0.0,
			"0.025": 0.0
		}
	}
}
