{
	 "smiles": "ClCC(CCl)(CCl)CCl", 
	 "Tm": 369.15, 
	 "num_atms": 17, 
	 "gaussian": { 
		 "optdone": 1, 
		 "sigma_profile": "yes", 
		 "theory": "DFT", 
		 "functional": "B3LYP", 
		 "basiset": "6-31G**", 
		 "properties": { 
			 "R2extent": 3332.5218, 
			 "electric_dipole_moment_norm": 2.80157023471, 
			 "electric_quadrupole_moment_norm": 13.7348049517, 
			 "total_energy": -2036.12956299, 
			 "HOMO_LUMO_gap": 0.27117, 
			 "cosmo_polarized_energy": -10.93, 
			 "cosmo_cavitation_energy": 25.34, 
			 "cosmo_dispersion_energy": -18.72, 
			 "cosmo_repulsion_energy": 1.52, 
			 "cosmo_total_nonelectrostatic_energy": 8.15, 
			 "SMD_solvation_energy": 3.0 
		},
		"coords": [
			{
				"x": 1.6836657389,
				"y": 3.043552078,
				"z": 1.5240315323,
				"element": "Cl" 
			},
			{
				"x": 0.2743343213,
				"y": 2.9483300018,
				"z": 0.3890204088,
				"element": "C" 
			},
			{
				"x": -0.566648934,
				"y": 1.6462858512,
				"z": 0.4273819849,
				"element": "C" 
			},
			{
				"x": -1.4404610718,
				"y": 1.6424311248,
				"z": -0.8568466708,
				"element": "C" 
			},
			{
				"x": -0.5004951636,
				"y": 1.5746791091,
				"z": -2.4056767024,
				"element": "Cl" 
			},
			{
				"x": 0.3581733434,
				"y": 0.4193365358,
				"z": 0.4880232562,
				"element": "C" 
			},
			{
				"x": -0.5389146487,
				"y": -1.1561992045,
				"z": 0.3767893086,
				"element": "Cl" 
			},
			{
				"x": -1.6145178831,
				"y": 1.6474475412,
				"z": 1.5657929136,
				"element": "C" 
			},
			{
				"x": -0.9450641258,
				"y": 1.5803312439,
				"z": 3.2434154663,
				"element": "Cl" 
			},
			{
				"x": -0.361002449,
				"y": 3.806679147,
				"z": 0.6160947582,
				"element": "H" 
			},
			{
				"x": 0.7012875871,
				"y": 3.0773956905,
				"z": -0.6043222221,
				"element": "H" 
			},
			{
				"x": -2.0498237924,
				"y": 2.546556136,
				"z": -0.9114561026,
				"element": "H" 
			},
			{
				"x": -2.0895351635,
				"y": 0.7677123248,
				"z": -0.8663151789,
				"element": "H" 
			},
			{
				"x": 1.0645359808,
				"y": 0.4291983151,
				"z": -0.3412889935,
				"element": "H" 
			},
			{
				"x": 0.8986953257,
				"y": 0.3967643599,
				"z": 1.4312120796,
				"element": "H" 
			},
			{
				"x": -2.222294873,
				"y": 2.553077575,
				"z": 1.5161209202,
				"element": "H" 
			},
			{
				"x": -2.2637341921,
				"y": 0.7768221704,
				"z": 1.4735232413,
				"element": "H" 
			}
		],
		 "valence_orbital": [ 
			{
				"type": "occ",
				"energy": -0.31371,
				"method": "rhf"
			},
			{
				"type": "occ",
				"energy": -0.30921,
				"method": "rhf"
			},
			{
				"type": "occ",
				"energy": -0.30765,
				"method": "rhf"
			},
			{
				"type": "occ",
				"energy": -0.30239,
				"method": "rhf"
			},
			{
				"type": "occ",
				"energy": -0.28959,
				"method": "rhf"
			},
			{
				"type": "unocc",
				"energy": -0.01842,
				"method": "rhf"
			},
			{
				"type": "unocc",
				"energy": 0.00872,
				"method": "rhf"
			},
			{
				"type": "unocc",
				"energy": 0.01171,
				"method": "rhf"
			},
			{
				"type": "unocc",
				"energy": 0.04704,
				"method": "rhf"
			},
			{
				"type": "unocc",
				"energy": 0.06104,
				"method": "rhf"
			}
		],
		"cosmo_sigma_profile": { 
			"-0.025": 0.0,
			"-0.024": 0.0,
			"-0.023": 0.0,
			"-0.022": 0.0,
			"-0.021": 0.0,
			"-0.02": 0.0,
			"-0.019": 0.0,
			"-0.018": 0.0,
			"-0.017": 0.0,
			"-0.016": 0.0,
			"-0.015": 0.0,
			"-0.014": 0.0,
			"-0.013": 0.0659261673895,
			"-0.012": 0.637687029753,
			"-0.011": 1.27245771414,
			"-0.01": 2.62597380279,
			"-0.009": 5.13655554614,
			"-0.008": 7.76527322156,
			"-0.007": 10.3560102937,
			"-0.006": 10.7112556057,
			"-0.005": 10.914121029,
			"-0.004": 9.23875608888,
			"-0.003": 7.72319375202,
			"-0.002": 6.46071224274,
			"-0.001": 11.5199636093,
			"0.0": 12.1647598595,
			"0.001": 13.4424951991,
			"0.002": 14.5148863354,
			"0.003": 18.5026163183,
			"0.004": 18.6797741984,
			"0.005": 21.703113033,
			"0.006": 20.2135430689,
			"0.007": 3.07418761673,
			"0.008": 1.05060954278,
			"0.009": 0.011100101824,
			"0.01": 0.0,
			"0.011": 0.0,
			"0.012": 0.0,
			"0.013": 0.0,
			"0.014": 0.0,
			"0.015": 0.0,
			"0.016": 0.0,
			"0.017": 0.0,
			"0.018": 0.0,
			"0.019": 0.0,
			"0.02": 0.0,
			"0.021": 0.0,
			"0.022": 0.0,
			"0.023": 0.0,
			"0.024": 0.0,
			"0.025": 0.0
		}
	}
}
