{
	 "smiles": "CC(C)S(=O)(=O)N1C(N)=NC2=C1C=C(C=C2)C(=NO)C1=CC=CC=C1", 
	 "Tm": 471.15, 
	 "num_atms": 43, 
	 "gaussian": { 
		 "optdone": 1, 
		 "sigma_profile": "yes", 
		 "theory": "DFT", 
		 "functional": "B3LYP", 
		 "basiset": "6-31G**", 
		 "properties": { 
			 "R2extent": 9907.4861, 
			 "electric_dipole_moment_norm": 3.82131912957, 
			 "electric_quadrupole_moment_norm": 14.4744885644, 
			 "total_energy": -1501.42611107, 
			 "HOMO_LUMO_gap": 0.16319, 
			 "cosmo_polarized_energy": -21.83, 
			 "cosmo_cavitation_energy": 47.5, 
			 "cosmo_dispersion_energy": -31.95, 
			 "cosmo_repulsion_energy": 2.4, 
			 "cosmo_total_nonelectrostatic_energy": 17.95, 
			 "SMD_solvation_energy": 5.3 
		},
		"coords": [
			{
				"x": 2.5272221579,
				"y": -1.7095489629,
				"z": 1.2567634112,
				"element": "C" 
			},
			{
				"x": 1.0045758011,
				"y": -1.8298931181,
				"z": 1.3011976774,
				"element": "C" 
			},
			{
				"x": 0.5118016379,
				"y": -3.2254065093,
				"z": 1.6986092079,
				"element": "C" 
			},
			{
				"x": 0.2906103091,
				"y": -0.6199086991,
				"z": 2.4813661244,
				"element": "S" 
			},
			{
				"x": -1.1621725316,
				"y": -0.7648798865,
				"z": 2.4727171785,
				"element": "O" 
			},
			{
				"x": 1.042221573,
				"y": -0.6561389033,
				"z": 3.7428884303,
				"element": "O" 
			},
			{
				"x": 0.6493169707,
				"y": 0.8931097567,
				"z": 1.7617933056,
				"element": "N" 
			},
			{
				"x": 1.6984340817,
				"y": 1.7975205395,
				"z": 2.0620971221,
				"element": "C" 
			},
			{
				"x": 2.6226487179,
				"y": 1.535342647,
				"z": 3.0277090462,
				"element": "N" 
			},
			{
				"x": 1.707100961,
				"y": 2.8420496937,
				"z": 1.27822481,
				"element": "N" 
			},
			{
				"x": 0.6489836681,
				"y": 2.6622644703,
				"z": 0.3961950228,
				"element": "C" 
			},
			{
				"x": -0.0431177211,
				"y": 1.4626888263,
				"z": 0.6602617744,
				"element": "C" 
			},
			{
				"x": -1.1442730192,
				"y": 1.0441442528,
				"z": -0.0719392529,
				"element": "C" 
			},
			{
				"x": -1.5660773841,
				"y": 1.8692378081,
				"z": -1.131614763,
				"element": "C" 
			},
			{
				"x": -0.8781153857,
				"y": 3.072988364,
				"z": -1.4045751421,
				"element": "C" 
			},
			{
				"x": 0.2181911541,
				"y": 3.4801609973,
				"z": -0.6527446473,
				"element": "C" 
			},
			{
				"x": -2.7574218463,
				"y": 1.4875396866,
				"z": -1.9353045382,
				"element": "C" 
			},
			{
				"x": -3.4040656124,
				"y": 2.4661133414,
				"z": -2.4766074183,
				"element": "N" 
			},
			{
				"x": -4.4787014614,
				"y": 2.0446555097,
				"z": -3.2737859227,
				"element": "O" 
			},
			{
				"x": -3.1191657227,
				"y": 0.0451108528,
				"z": -2.0761796155,
				"element": "C" 
			},
			{
				"x": -4.413120804,
				"y": -0.4149010691,
				"z": -1.7887099119,
				"element": "C" 
			},
			{
				"x": -4.7262772913,
				"y": -1.7674904729,
				"z": -1.9146329078,
				"element": "C" 
			},
			{
				"x": -3.7582138471,
				"y": -2.6779556587,
				"z": -2.3439997204,
				"element": "C" 
			},
			{
				"x": -2.4698410013,
				"y": -2.2291900702,
				"z": -2.640266928,
				"element": "C" 
			},
			{
				"x": -2.1504074113,
				"y": -0.878810863,
				"z": -2.4986123376,
				"element": "C" 
			},
			{
				"x": 2.9651824736,
				"y": -1.9673956333,
				"z": 2.2242923254,
				"element": "H" 
			},
			{
				"x": 2.8568050301,
				"y": -0.7045093206,
				"z": 0.9838218141,
				"element": "H" 
			},
			{
				"x": 2.9122736434,
				"y": -2.4067588677,
				"z": 0.5063919561,
				"element": "H" 
			},
			{
				"x": 0.5605900695,
				"y": -1.5304291771,
				"z": 0.3450783904,
				"element": "H" 
			},
			{
				"x": -0.5785340625,
				"y": -3.2750917574,
				"z": 1.7156193221,
				"element": "H" 
			},
			{
				"x": 0.8829625087,
				"y": -3.9498791087,
				"z": 0.9675709721,
				"element": "H" 
			},
			{
				"x": 0.894392437,
				"y": -3.5085439737,
				"z": 2.6836046292,
				"element": "H" 
			},
			{
				"x": 2.345096006,
				"y": 0.9140546013,
				"z": 3.7761704572,
				"element": "H" 
			},
			{
				"x": 3.1862882159,
				"y": 2.3365478647,
				"z": 3.2710147617,
				"element": "H" 
			},
			{
				"x": -1.6836699385,
				"y": 0.1396394059,
				"z": 0.178103175,
				"element": "H" 
			},
			{
				"x": -1.2291489307,
				"y": 3.6849134126,
				"z": -2.2273837381,
				"element": "H" 
			},
			{
				"x": 0.7424527575,
				"y": 4.4044584575,
				"z": -0.8718450707,
				"element": "H" 
			},
			{
				"x": -4.8335672458,
				"y": 2.8883625923,
				"z": -3.5838617524,
				"element": "H" 
			},
			{
				"x": -5.1701700575,
				"y": 0.2926121154,
				"z": -1.470314035,
				"element": "H" 
			},
			{
				"x": -5.729870536,
				"y": -2.1107015077,
				"z": -1.6802615306,
				"element": "H" 
			},
			{
				"x": -4.0071261475,
				"y": -3.7302910857,
				"z": -2.4477956523,
				"element": "H" 
			},
			{
				"x": -1.7131474179,
				"y": -2.9299707558,
				"z": -2.9821893203,
				"element": "H" 
			},
			{
				"x": -1.1470447983,
				"y": -0.5305197949,
				"z": -2.7254667089,
				"element": "H" 
			}
		],
		 "valence_orbital": [ 
			{
				"type": "occ",
				"energy": -0.26432,
				"method": "rhf"
			},
			{
				"type": "occ",
				"energy": -0.2512,
				"method": "rhf"
			},
			{
				"type": "occ",
				"energy": -0.23929,
				"method": "rhf"
			},
			{
				"type": "occ",
				"energy": -0.23474,
				"method": "rhf"
			},
			{
				"type": "occ",
				"energy": -0.19932,
				"method": "rhf"
			},
			{
				"type": "unocc",
				"energy": -0.03613,
				"method": "rhf"
			},
			{
				"type": "unocc",
				"energy": -0.0122,
				"method": "rhf"
			},
			{
				"type": "unocc",
				"energy": -0.00395,
				"method": "rhf"
			},
			{
				"type": "unocc",
				"energy": 0.00708,
				"method": "rhf"
			},
			{
				"type": "unocc",
				"energy": 0.02211,
				"method": "rhf"
			}
		],
		"cosmo_sigma_profile": { 
			"-0.025": 0.0,
			"-0.024": 0.0,
			"-0.023": 0.0,
			"-0.022": 0.0,
			"-0.021": 0.0,
			"-0.02": 0.0,
			"-0.019": 0.0,
			"-0.018": 0.0,
			"-0.017": 0.985313937428,
			"-0.016": 0.748884477564,
			"-0.015": 1.40359232239,
			"-0.014": 1.85336935592,
			"-0.013": 2.13152830458,
			"-0.012": 2.12668386034,
			"-0.011": 1.96634001104,
			"-0.01": 2.35334435702,
			"-0.009": 2.35870777442,
			"-0.008": 2.77075319044,
			"-0.007": 5.05796566309,
			"-0.006": 19.9633844221,
			"-0.005": 28.902790509,
			"-0.004": 31.0900632161,
			"-0.003": 27.6091900964,
			"-0.002": 30.8146537206,
			"-0.001": 29.544514318,
			"0.0": 22.0778577085,
			"0.001": 18.6648956303,
			"0.002": 20.162773227,
			"0.003": 23.3914348875,
			"0.004": 25.1454131176,
			"0.005": 21.0677965671,
			"0.006": 11.8574805121,
			"0.007": 9.70704277743,
			"0.008": 7.67020784127,
			"0.009": 8.95590300132,
			"0.01": 8.209150211,
			"0.011": 3.87614376531,
			"0.012": 1.98842862936,
			"0.013": 1.02949835696,
			"0.014": 0.602030453505,
			"0.015": 1.08215374916,
			"0.016": 0.748717133868,
			"0.017": 0.0625103112685,
			"0.018": 0.0,
			"0.019": 0.0,
			"0.02": 0.0,
			"0.021": 0.0,
			"0.022": 0.0,
			"0.023": 0.0,
			"0.024": 0.0,
			"0.025": 0.0
		}
	}
}
