{
	 "smiles": "OC(=O)COC1=CC=C(C=C1)C1SCCCS1", 
	 "Tm": 475.15, 
	 "num_atms": 31, 
	 "gaussian": { 
		 "optdone": 1, 
		 "sigma_profile": "yes", 
		 "theory": "DFT", 
		 "functional": "B3LYP", 
		 "basiset": "6-31G**", 
		 "properties": { 
			 "R2extent": 6688.4364, 
			 "electric_dipole_moment_norm": 1.84462899793, 
			 "electric_quadrupole_moment_norm": 18.9145476517, 
			 "total_energy": -1487.75803166, 
			 "HOMO_LUMO_gap": 0.19902, 
			 "cosmo_polarized_energy": -15.66, 
			 "cosmo_cavitation_energy": 36.2, 
			 "cosmo_dispersion_energy": -27.01, 
			 "cosmo_repulsion_energy": 2.03, 
			 "cosmo_total_nonelectrostatic_energy": 11.22, 
			 "SMD_solvation_energy": 6.13 
		},
		"coords": [
			{
				"x": -0.9485261284,
				"y": -3.8470163772,
				"z": -2.8560550858,
				"element": "O" 
			},
			{
				"x": -1.606014251,
				"y": -2.8375604626,
				"z": -3.4539616164,
				"element": "C" 
			},
			{
				"x": -2.7973801017,
				"y": -2.8377390891,
				"z": -3.6698044094,
				"element": "O" 
			},
			{
				"x": -0.6827752008,
				"y": -1.7029201484,
				"z": -3.8920369884,
				"element": "C" 
			},
			{
				"x": 0.5371904742,
				"y": -1.6062938302,
				"z": -3.19277191,
				"element": "O" 
			},
			{
				"x": 0.5174704336,
				"y": -1.1295459649,
				"z": -1.905887866,
				"element": "C" 
			},
			{
				"x": -0.6333405467,
				"y": -0.7595907068,
				"z": -1.2060383697,
				"element": "C" 
			},
			{
				"x": -0.5215167781,
				"y": -0.2738748045,
				"z": 0.1005001292,
				"element": "C" 
			},
			{
				"x": 0.7177576772,
				"y": -0.1411313014,
				"z": 0.7352720535,
				"element": "C" 
			},
			{
				"x": 1.8611832208,
				"y": -0.52613922,
				"z": 0.0117685178,
				"element": "C" 
			},
			{
				"x": 1.7671600569,
				"y": -1.012034567,
				"z": -1.2857678882,
				"element": "C" 
			},
			{
				"x": 0.8317788366,
				"y": 0.3118528804,
				"z": 2.1963963181,
				"element": "C" 
			},
			{
				"x": -0.6283479825,
				"y": 1.2365246738,
				"z": 2.8484455598,
				"element": "S" 
			},
			{
				"x": -0.4303397197,
				"y": 2.8199770877,
				"z": 1.9376202023,
				"element": "C" 
			},
			{
				"x": 0.8942439401,
				"y": 3.5408919554,
				"z": 2.2057604308,
				"element": "C" 
			},
			{
				"x": 2.1254487473,
				"y": 2.7680060385,
				"z": 1.7229840232,
				"element": "C" 
			},
			{
				"x": 2.4108184073,
				"y": 1.184229757,
				"z": 2.6073116788,
				"element": "S" 
			},
			{
				"x": -1.6191365831,
				"y": -4.51499131,
				"z": -2.6328918198,
				"element": "H" 
			},
			{
				"x": -1.2624385491,
				"y": -0.7736737656,
				"z": -3.8604584888,
				"element": "H" 
			},
			{
				"x": -0.412075089,
				"y": -1.8930447451,
				"z": -4.9360145436,
				"element": "H" 
			},
			{
				"x": -1.6195347238,
				"y": -0.8444074984,
				"z": -1.6486727153,
				"element": "H" 
			},
			{
				"x": -1.4240084882,
				"y": 0.0010123131,
				"z": 0.6355307965,
				"element": "H" 
			},
			{
				"x": 2.8382810175,
				"y": -0.4361781222,
				"z": 0.4738512482,
				"element": "H" 
			},
			{
				"x": 2.6527990049,
				"y": -1.3056914471,
				"z": -1.8397403828,
				"element": "H" 
			},
			{
				"x": 0.8690253892,
				"y": -0.5701278424,
				"z": 2.845248292,
				"element": "H" 
			},
			{
				"x": -0.5595469592,
				"y": 2.6293302816,
				"z": 0.866674028,
				"element": "H" 
			},
			{
				"x": -1.2743882895,
				"y": 3.4316565854,
				"z": 2.2689103555,
				"element": "H" 
			},
			{
				"x": 0.9889905943,
				"y": 3.7562909934,
				"z": 3.2751847163,
				"element": "H" 
			},
			{
				"x": 0.8683346644,
				"y": 4.5043134607,
				"z": 1.6771610478,
				"element": "H" 
			},
			{
				"x": 3.0362780151,
				"y": 3.3474645673,
				"z": 1.8985752848,
				"element": "H" 
			},
			{
				"x": 2.0640089112,
				"y": 2.5653106086,
				"z": 0.6481074016,
				"element": "H" 
			}
		],
		 "valence_orbital": [ 
			{
				"type": "occ",
				"energy": -0.28484,
				"method": "rhf"
			},
			{
				"type": "occ",
				"energy": -0.25544,
				"method": "rhf"
			},
			{
				"type": "occ",
				"energy": -0.24043,
				"method": "rhf"
			},
			{
				"type": "occ",
				"energy": -0.22352,
				"method": "rhf"
			},
			{
				"type": "occ",
				"energy": -0.21275,
				"method": "rhf"
			},
			{
				"type": "unocc",
				"energy": -0.01373,
				"method": "rhf"
			},
			{
				"type": "unocc",
				"energy": -0.00446,
				"method": "rhf"
			},
			{
				"type": "unocc",
				"energy": -0.0,
				"method": "rhf"
			},
			{
				"type": "unocc",
				"energy": 0.01988,
				"method": "rhf"
			},
			{
				"type": "unocc",
				"energy": 0.05056,
				"method": "rhf"
			}
		],
		"cosmo_sigma_profile": { 
			"-0.025": 0.0,
			"-0.024": 0.0,
			"-0.023": 0.0,
			"-0.022": 0.0,
			"-0.021": 0.0,
			"-0.02": 0.0,
			"-0.019": 0.383355100754,
			"-0.018": 1.13930739136,
			"-0.017": 0.621891734276,
			"-0.016": 0.78174887236,
			"-0.015": 0.897960329782,
			"-0.014": 1.1285123106,
			"-0.013": 0.630796890787,
			"-0.012": 0.7831131939,
			"-0.011": 0.595257572432,
			"-0.01": 0.872392660416,
			"-0.009": 3.38630696188,
			"-0.008": 5.81147564567,
			"-0.007": 8.67540672617,
			"-0.006": 13.3651955068,
			"-0.005": 16.652296205,
			"-0.004": 23.0412790539,
			"-0.003": 26.189086094,
			"-0.002": 24.3761577379,
			"-0.001": 21.0215515745,
			"0.0": 14.4561689515,
			"0.001": 13.5435050852,
			"0.002": 13.0944523928,
			"0.003": 15.8360298904,
			"0.004": 16.4596447695,
			"0.005": 18.4375662764,
			"0.006": 8.33209852144,
			"0.007": 8.52251111331,
			"0.008": 7.80534800204,
			"0.009": 7.36280843091,
			"0.01": 5.57417078455,
			"0.011": 6.96420163338,
			"0.012": 2.88406116198,
			"0.013": 0.0674343821914,
			"0.014": 0.0,
			"0.015": 0.0,
			"0.016": 0.0,
			"0.017": 0.0,
			"0.018": 0.0,
			"0.019": 0.0,
			"0.02": 0.0,
			"0.021": 0.0,
			"0.022": 0.0,
			"0.023": 0.0,
			"0.024": 0.0,
			"0.025": 0.0
		}
	}
}
