{
	 "smiles": "CC(=O)C1=CC2=C(OCCCO2)C=C1Br", 
	 "Tm": 330.15, 
	 "num_atms": 26, 
	 "gaussian": { 
		 "optdone": 1, 
		 "sigma_profile": "yes", 
		 "theory": "DFT", 
		 "functional": "B3LYP", 
		 "basiset": "6-31G**", 
		 "properties": { 
			 "R2extent": 6596.8644, 
			 "electric_dipole_moment_norm": 3.99993409321, 
			 "electric_quadrupole_moment_norm": 11.579266206, 
			 "total_energy": -3222.84878672, 
			 "HOMO_LUMO_gap": 0.17363, 
			 "cosmo_polarized_energy": -9.63, 
			 "cosmo_cavitation_energy": 30.86, 
			 "cosmo_dispersion_energy": -23.47, 
			 "cosmo_repulsion_energy": 1.82, 
			 "cosmo_total_nonelectrostatic_energy": 9.21, 
			 "SMD_solvation_energy": 5.05 
		},
		"coords": [
			{
				"x": -2.5074855119,
				"y": -0.0440370668,
				"z": -3.3852218856,
				"element": "C" 
			},
			{
				"x": -1.2419023032,
				"y": 0.1718320416,
				"z": -2.5809462374,
				"element": "C" 
			},
			{
				"x": -0.1762893568,
				"y": -0.216852357,
				"z": -3.0380415297,
				"element": "O" 
			},
			{
				"x": -1.2500343364,
				"y": 0.8137834777,
				"z": -1.2102131339,
				"element": "C" 
			},
			{
				"x": -0.0387055836,
				"y": 0.6775355776,
				"z": -0.5066645462,
				"element": "C" 
			},
			{
				"x": 0.1678582199,
				"y": 1.1756666178,
				"z": 0.771216646,
				"element": "C" 
			},
			{
				"x": -0.8925652807,
				"y": 1.8487834969,
				"z": 1.4165630746,
				"element": "C" 
			},
			{
				"x": -0.82592368,
				"y": 2.3648464832,
				"z": 2.6796663838,
				"element": "O" 
			},
			{
				"x": -0.0329968969,
				"y": 1.6375230538,
				"z": 3.6357942739,
				"element": "C" 
			},
			{
				"x": 1.4454569421,
				"y": 2.0171464068,
				"z": 3.563504324,
				"element": "C" 
			},
			{
				"x": 1.9257925655,
				"y": 2.0634478455,
				"z": 2.1106084927,
				"element": "C" 
			},
			{
				"x": 1.4002241461,
				"y": 0.9699088617,
				"z": 1.342611022,
				"element": "O" 
			},
			{
				"x": -2.0926154603,
				"y": 2.0314502455,
				"z": 0.7277477681,
				"element": "C" 
			},
			{
				"x": -2.2723859531,
				"y": 1.5311051738,
				"z": -0.5594686999,
				"element": "C" 
			},
			{
				"x": -3.9878714207,
				"y": 1.9324244157,
				"z": -1.3262969017,
				"element": "Br" 
			},
			{
				"x": -2.2536949865,
				"y": -0.6990673807,
				"z": -4.2199219723,
				"element": "H" 
			},
			{
				"x": -2.8894983426,
				"y": 0.9045090566,
				"z": -3.7735959092,
				"element": "H" 
			},
			{
				"x": -3.3065614677,
				"y": -0.4861656573,
				"z": -2.7847038349,
				"element": "H" 
			},
			{
				"x": 0.7762201491,
				"y": 0.1648031427,
				"z": -1.0045233897,
				"element": "H" 
			},
			{
				"x": -0.1642398843,
				"y": 0.5630798909,
				"z": 3.4685244853,
				"element": "H" 
			},
			{
				"x": -0.4574245293,
				"y": 1.8858297246,
				"z": 4.6117797134,
				"element": "H" 
			},
			{
				"x": 2.0172931986,
				"y": 1.2794593099,
				"z": 4.1386225065,
				"element": "H" 
			},
			{
				"x": 1.6184009165,
				"y": 2.996792468,
				"z": 4.0238311615,
				"element": "H" 
			},
			{
				"x": 1.6385659877,
				"y": 3.0098592427,
				"z": 1.6382768531,
				"element": "H" 
			},
			{
				"x": 3.0135800826,
				"y": 1.9722982133,
				"z": 2.0518983443,
				"element": "H" 
			},
			{
				"x": -2.8903972143,
				"y": 2.5649377154,
				"z": 1.229552991,
				"element": "H" 
			}
		],
		 "valence_orbital": [ 
			{
				"type": "occ",
				"energy": -0.28879,
				"method": "rhf"
			},
			{
				"type": "occ",
				"energy": -0.28785,
				"method": "rhf"
			},
			{
				"type": "occ",
				"energy": -0.25079,
				"method": "rhf"
			},
			{
				"type": "occ",
				"energy": -0.24547,
				"method": "rhf"
			},
			{
				"type": "occ",
				"energy": -0.22646,
				"method": "rhf"
			},
			{
				"type": "unocc",
				"energy": -0.05283,
				"method": "rhf"
			},
			{
				"type": "unocc",
				"energy": -0.01296,
				"method": "rhf"
			},
			{
				"type": "unocc",
				"energy": -0.00053,
				"method": "rhf"
			},
			{
				"type": "unocc",
				"energy": 0.0372,
				"method": "rhf"
			},
			{
				"type": "unocc",
				"energy": 0.0682,
				"method": "rhf"
			}
		],
		"cosmo_sigma_profile": { 
			"-0.025": 0.0,
			"-0.024": 0.0,
			"-0.023": 0.0,
			"-0.022": 0.0,
			"-0.021": 0.0,
			"-0.02": 0.0,
			"-0.019": 0.0,
			"-0.018": 0.0,
			"-0.017": 0.0,
			"-0.016": 0.0,
			"-0.015": 0.0,
			"-0.014": 0.0,
			"-0.013": 0.0,
			"-0.012": 0.0,
			"-0.011": 0.0,
			"-0.01": 0.0,
			"-0.009": 0.0,
			"-0.008": 0.157163390542,
			"-0.007": 1.55570713831,
			"-0.006": 8.04153218926,
			"-0.005": 24.3673822456,
			"-0.004": 29.584971654,
			"-0.003": 22.8713195728,
			"-0.002": 19.1848188428,
			"-0.001": 21.4383841317,
			"0.0": 18.2381044188,
			"0.001": 22.3322265074,
			"0.002": 23.3540849135,
			"0.003": 12.5533290949,
			"0.004": 11.407238621,
			"0.005": 5.00061222267,
			"0.006": 4.46944668446,
			"0.007": 3.9194685291,
			"0.008": 3.08746683066,
			"0.009": 4.03872580879,
			"0.01": 4.50840176499,
			"0.011": 3.63783743861,
			"0.012": 3.05219591654,
			"0.013": 1.11217093618,
			"0.014": 0.00074889139659,
			"0.015": 0.0,
			"0.016": 0.0,
			"0.017": 0.0,
			"0.018": 0.0,
			"0.019": 0.0,
			"0.02": 0.0,
			"0.021": 0.0,
			"0.022": 0.0,
			"0.023": 0.0,
			"0.024": 0.0,
			"0.025": 0.0
		}
	}
}
