{
	 "smiles": "ClCC1=CC(=O)OC2=C1C1=C(C=CC=C1)C=C2", 
	 "Tm": 393.15, 
	 "num_atms": 26, 
	 "gaussian": { 
		 "optdone": 1, 
		 "sigma_profile": "yes", 
		 "theory": "DFT", 
		 "functional": "B3LYP", 
		 "basiset": "6-31G**", 
		 "properties": { 
			 "R2extent": 4697.663, 
			 "electric_dipole_moment_norm": 6.27363505075, 
			 "electric_quadrupole_moment_norm": 17.1613509305, 
			 "total_energy": -1149.56060946, 
			 "HOMO_LUMO_gap": 0.14757, 
			 "cosmo_polarized_energy": -13.71, 
			 "cosmo_cavitation_energy": 31.25, 
			 "cosmo_dispersion_energy": -23.57, 
			 "cosmo_repulsion_energy": 1.78, 
			 "cosmo_total_nonelectrostatic_energy": 9.45, 
			 "SMD_solvation_energy": 5.73 
		},
		"coords": [
			{
				"x": -2.179288774,
				"y": 1.6586290239,
				"z": 2.7475933731,
				"element": "Cl" 
			},
			{
				"x": -0.9063086772,
				"y": 0.6455913607,
				"z": 1.9523382263,
				"element": "C" 
			},
			{
				"x": -0.1644764328,
				"y": 1.3140254411,
				"z": 0.8101054817,
				"element": "C" 
			},
			{
				"x": -0.2372399124,
				"y": 2.6632185668,
				"z": 0.6641343892,
				"element": "C" 
			},
			{
				"x": 0.3649183385,
				"y": 3.3830151397,
				"z": -0.437923312,
				"element": "C" 
			},
			{
				"x": 0.4000714928,
				"y": 4.5801819142,
				"z": -0.5951899292,
				"element": "O" 
			},
			{
				"x": 0.916796567,
				"y": 2.5730513147,
				"z": -1.4288017857,
				"element": "O" 
			},
			{
				"x": 1.0240128904,
				"y": 1.225831287,
				"z": -1.3007136005,
				"element": "C" 
			},
			{
				"x": 0.5808497644,
				"y": 0.5185937246,
				"z": -0.173583774,
				"element": "C" 
			},
			{
				"x": 0.8642376923,
				"y": -0.9075498287,
				"z": -0.1342299822,
				"element": "C" 
			},
			{
				"x": 1.428802235,
				"y": -1.5365969064,
				"z": -1.2977213177,
				"element": "C" 
			},
			{
				"x": 1.6817329144,
				"y": -2.9315137114,
				"z": -1.3071533936,
				"element": "C" 
			},
			{
				"x": 1.4327678932,
				"y": -3.712412473,
				"z": -0.2015620753,
				"element": "C" 
			},
			{
				"x": 0.9410416525,
				"y": -3.0994095924,
				"z": 0.9667459104,
				"element": "C" 
			},
			{
				"x": 0.6705629358,
				"y": -1.7450596932,
				"z": 0.9992030421,
				"element": "C" 
			},
			{
				"x": 1.7723340331,
				"y": -0.7539821271,
				"z": -2.4352526646,
				"element": "C" 
			},
			{
				"x": 1.6042478829,
				"y": 0.6005165702,
				"z": -2.4290088753,
				"element": "C" 
			},
			{
				"x": -1.4213660001,
				"y": -0.2485121178,
				"z": 1.6034471491,
				"element": "H" 
			},
			{
				"x": -0.2239140479,
				"y": 0.3685029382,
				"z": 2.758073384,
				"element": "H" 
			},
			{
				"x": -0.792811659,
				"y": 3.2743394209,
				"z": 1.362076011,
				"element": "H" 
			},
			{
				"x": 2.0948886987,
				"y": -3.3710266337,
				"z": -2.2111378922,
				"element": "H" 
			},
			{
				"x": 1.6340345412,
				"y": -4.7788919443,
				"z": -0.2193406796,
				"element": "H" 
			},
			{
				"x": 0.7821679863,
				"y": -3.6922961237,
				"z": 1.8627051163,
				"element": "H" 
			},
			{
				"x": 0.3427324047,
				"y": -1.3312778522,
				"z": 1.9394562407,
				"element": "H" 
			},
			{
				"x": 2.1971381108,
				"y": -1.2507448397,
				"z": -3.3028040871,
				"element": "H" 
			},
			{
				"x": 1.8869674694,
				"y": 1.2284771413,
				"z": -3.2662549549,
				"element": "H" 
			}
		],
		 "valence_orbital": [ 
			{
				"type": "occ",
				"energy": -0.3085,
				"method": "rhf"
			},
			{
				"type": "occ",
				"energy": -0.28135,
				"method": "rhf"
			},
			{
				"type": "occ",
				"energy": -0.274,
				"method": "rhf"
			},
			{
				"type": "occ",
				"energy": -0.25424,
				"method": "rhf"
			},
			{
				"type": "occ",
				"energy": -0.2262,
				"method": "rhf"
			},
			{
				"type": "unocc",
				"energy": -0.07863,
				"method": "rhf"
			},
			{
				"type": "unocc",
				"energy": -0.04191,
				"method": "rhf"
			},
			{
				"type": "unocc",
				"energy": -0.02458,
				"method": "rhf"
			},
			{
				"type": "unocc",
				"energy": 0.00327,
				"method": "rhf"
			},
			{
				"type": "unocc",
				"energy": 0.01445,
				"method": "rhf"
			}
		],
		"cosmo_sigma_profile": { 
			"-0.025": 0.0,
			"-0.024": 0.0,
			"-0.023": 0.0,
			"-0.022": 0.0,
			"-0.021": 0.0,
			"-0.02": 0.0,
			"-0.019": 0.0,
			"-0.018": 0.0,
			"-0.017": 0.0,
			"-0.016": 0.0,
			"-0.015": 0.0,
			"-0.014": 0.0,
			"-0.013": 0.0,
			"-0.012": 0.0,
			"-0.011": 0.548851216334,
			"-0.01": 2.70139761039,
			"-0.009": 2.81682717259,
			"-0.008": 5.99438276612,
			"-0.007": 11.0377844291,
			"-0.006": 14.5147664335,
			"-0.005": 15.8558827633,
			"-0.004": 15.5905086339,
			"-0.003": 13.1383868545,
			"-0.002": 16.2852545338,
			"-0.001": 18.6914094913,
			"0.0": 22.0315752329,
			"0.001": 21.1807750703,
			"0.002": 20.6069478645,
			"0.003": 19.7921336842,
			"0.004": 15.6076894689,
			"0.005": 10.2754957156,
			"0.006": 6.44795242358,
			"0.007": 1.69089896262,
			"0.008": 1.49009359443,
			"0.009": 2.90336698398,
			"0.01": 2.47511431042,
			"0.011": 3.1730366246,
			"0.012": 6.51079308872,
			"0.013": 2.87705608424,
			"0.014": 0.0668248681313,
			"0.015": 0.0,
			"0.016": 0.0,
			"0.017": 0.0,
			"0.018": 0.0,
			"0.019": 0.0,
			"0.02": 0.0,
			"0.021": 0.0,
			"0.022": 0.0,
			"0.023": 0.0,
			"0.024": 0.0,
			"0.025": 0.0
		}
	}
}
