{
	 "smiles": "NC(CCCNC(=N)N[N+]([O-])=O)C(O)=O", 
	 "Tm": 530.15, 
	 "num_atms": 28, 
	 "gaussian": { 
		 "optdone": 1, 
		 "sigma_profile": "yes", 
		 "theory": "DFT", 
		 "functional": "B3LYP", 
		 "basiset": "6-31G**", 
		 "properties": { 
			 "R2extent": 5025.3438, 
			 "electric_dipole_moment_norm": 2.39680095335, 
			 "electric_quadrupole_moment_norm": 26.1728148333, 
			 "total_energy": -811.002515505, 
			 "HOMO_LUMO_gap": 0.18462, 
			 "cosmo_polarized_energy": -28.82, 
			 "cosmo_cavitation_energy": 33.17, 
			 "cosmo_dispersion_energy": -22.83, 
			 "cosmo_repulsion_energy": 1.87, 
			 "cosmo_total_nonelectrostatic_energy": 12.21, 
			 "SMD_solvation_energy": 6.29 
		},
		"coords": [
			{
				"x": 1.5425812321,
				"y": 3.6995322787,
				"z": -0.7018257299,
				"element": "N" 
			},
			{
				"x": 0.4909961254,
				"y": 2.6905397728,
				"z": -0.7608028628,
				"element": "C" 
			},
			{
				"x": 1.1276174444,
				"y": 1.2901305727,
				"z": -0.605418122,
				"element": "C" 
			},
			{
				"x": 0.1390665158,
				"y": 0.1212034791,
				"z": -0.5055482306,
				"element": "C" 
			},
			{
				"x": 0.8612194323,
				"y": -1.214052831,
				"z": -0.2675725471,
				"element": "C" 
			},
			{
				"x": -0.0311292641,
				"y": -2.3706573164,
				"z": -0.2170390882,
				"element": "N" 
			},
			{
				"x": -0.8432053252,
				"y": -2.7176642814,
				"z": 0.8274664384,
				"element": "C" 
			},
			{
				"x": -1.9199434352,
				"y": -3.4100061954,
				"z": 0.8298227278,
				"element": "N" 
			},
			{
				"x": -0.4699715554,
				"y": -2.1825362747,
				"z": 2.1106835946,
				"element": "N" 
			},
			{
				"x": 0.6774238827,
				"y": -2.6772291286,
				"z": 2.7759437729,
				"element": "N" 
			},
			{
				"x": 1.628894607,
				"y": -3.0310136168,
				"z": 2.0957194657,
				"element": "O" 
			},
			{
				"x": 0.6091212611,
				"y": -2.6472960946,
				"z": 3.9971232524,
				"element": "O" 
			},
			{
				"x": -0.3069014018,
				"y": 2.755929004,
				"z": -2.077639426,
				"element": "C" 
			},
			{
				"x": -1.6042232863,
				"y": 2.3494263333,
				"z": -2.0336474932,
				"element": "O" 
			},
			{
				"x": 0.1805705377,
				"y": 3.1142754552,
				"z": -3.1217228804,
				"element": "O" 
			},
			{
				"x": 2.0478970159,
				"y": 3.6722005387,
				"z": -1.5870651488,
				"element": "H" 
			},
			{
				"x": 1.1238881562,
				"y": 4.626530704,
				"z": -0.6632172486,
				"element": "H" 
			},
			{
				"x": -0.189823502,
				"y": 2.8599377919,
				"z": 0.0858758027,
				"element": "H" 
			},
			{
				"x": 1.7541533748,
				"y": 1.3351256651,
				"z": 0.2917940269,
				"element": "H" 
			},
			{
				"x": 1.8048325894,
				"y": 1.13221223,
				"z": -1.455500094,
				"element": "H" 
			},
			{
				"x": -0.5584644123,
				"y": 0.2889048766,
				"z": 0.3272246957,
				"element": "H" 
			},
			{
				"x": -0.4632209731,
				"y": 0.044397835,
				"z": -1.4191341686,
				"element": "H" 
			},
			{
				"x": 1.4423610119,
				"y": -1.1814525596,
				"z": 0.6548003394,
				"element": "H" 
			},
			{
				"x": 1.577639979,
				"y": -1.401516686,
				"z": -1.0745522153,
				"element": "H" 
			},
			{
				"x": -0.3216196797,
				"y": -2.7484611423,
				"z": -1.1075233901,
				"element": "H" 
			},
			{
				"x": -2.2251001219,
				"y": -3.6396203201,
				"z": -0.1172716307,
				"element": "H" 
			},
			{
				"x": -1.2434332505,
				"y": -2.2746440984,
				"z": 2.7631673204,
				"element": "H" 
			},
			{
				"x": -1.8488269581,
				"y": 2.1194040081,
				"z": -1.1258411605,
				"element": "H" 
			}
		],
		 "valence_orbital": [ 
			{
				"type": "occ",
				"energy": -0.30562,
				"method": "rhf"
			},
			{
				"type": "occ",
				"energy": -0.29288,
				"method": "rhf"
			},
			{
				"type": "occ",
				"energy": -0.28809,
				"method": "rhf"
			},
			{
				"type": "occ",
				"energy": -0.25777,
				"method": "rhf"
			},
			{
				"type": "occ",
				"energy": -0.25084,
				"method": "rhf"
			},
			{
				"type": "unocc",
				"energy": -0.06622,
				"method": "rhf"
			},
			{
				"type": "unocc",
				"energy": -0.00538,
				"method": "rhf"
			},
			{
				"type": "unocc",
				"energy": 0.00226,
				"method": "rhf"
			},
			{
				"type": "unocc",
				"energy": 0.03928,
				"method": "rhf"
			},
			{
				"type": "unocc",
				"energy": 0.04933,
				"method": "rhf"
			}
		],
		"cosmo_sigma_profile": { 
			"-0.025": 0.0,
			"-0.024": 0.0,
			"-0.023": 0.0,
			"-0.022": 0.0,
			"-0.021": 0.0,
			"-0.02": 0.0,
			"-0.019": 0.12479003458,
			"-0.018": 0.65740832917,
			"-0.017": 0.856713768771,
			"-0.016": 1.39365952474,
			"-0.015": 2.69761180897,
			"-0.014": 4.20165999479,
			"-0.013": 3.48989986974,
			"-0.012": 3.41763755027,
			"-0.011": 4.57570358033,
			"-0.01": 5.81492138302,
			"-0.009": 6.13941916362,
			"-0.008": 8.17775397442,
			"-0.007": 8.87052723727,
			"-0.006": 9.57056672459,
			"-0.005": 12.4031379091,
			"-0.004": 19.9422909508,
			"-0.003": 16.0158381582,
			"-0.002": 14.7142433331,
			"-0.001": 12.7744339095,
			"0.0": 9.28814048766,
			"0.001": 9.20099755875,
			"0.002": 7.68177660438,
			"0.003": 7.59761860676,
			"0.004": 7.02427314443,
			"0.005": 7.52822206253,
			"0.006": 8.91870339908,
			"0.007": 15.0669090895,
			"0.008": 11.1134046687,
			"0.009": 9.45189186077,
			"0.01": 7.87264790879,
			"0.011": 6.62512842701,
			"0.012": 6.268479572,
			"0.013": 3.29845008015,
			"0.014": 1.25151607391,
			"0.015": 0.979318802997,
			"0.016": 2.08563120514,
			"0.017": 1.30800009551,
			"0.018": 0.429869862437,
			"0.019": 0.0568025174885,
			"0.02": 0.0,
			"0.021": 0.0,
			"0.022": 0.0,
			"0.023": 0.0,
			"0.024": 0.0,
			"0.025": 0.0
		}
	}
}
