{
	 "smiles": "CC(C)(C)OC(=O)NC1=C(F)C=CC(N)=C1", 
	 "Tm": 366.15, 
	 "num_atms": 31, 
	 "gaussian": { 
		 "optdone": 1, 
		 "sigma_profile": "yes", 
		 "theory": "DFT", 
		 "functional": "B3LYP", 
		 "basiset": "6-31G**", 
		 "properties": { 
			 "R2extent": 4348.6183, 
			 "electric_dipole_moment_norm": 4.01384197621, 
			 "electric_quadrupole_moment_norm": 12.4017624139, 
			 "total_energy": -788.032974651, 
			 "HOMO_LUMO_gap": 0.19049, 
			 "cosmo_polarized_energy": -14.97, 
			 "cosmo_cavitation_energy": 34.42, 
			 "cosmo_dispersion_energy": -23.75, 
			 "cosmo_repulsion_energy": 1.85, 
			 "cosmo_total_nonelectrostatic_energy": 12.52, 
			 "SMD_solvation_energy": 7.25 
		},
		"coords": [
			{
				"x": -3.2066633007,
				"y": -0.4426774306,
				"z": -0.4528483764,
				"element": "C" 
			},
			{
				"x": -2.1896409284,
				"y": 0.1595258581,
				"z": 0.5213912322,
				"element": "C" 
			},
			{
				"x": -2.2431273643,
				"y": 1.6890744292,
				"z": 0.5019259023,
				"element": "C" 
			},
			{
				"x": -2.3600206233,
				"y": -0.3715295254,
				"z": 1.9485183517,
				"element": "C" 
			},
			{
				"x": -0.8227757794,
				"y": -0.1119171162,
				"z": 0.0479901501,
				"element": "O" 
			},
			{
				"x": -0.3319536213,
				"y": -1.3622884381,
				"z": 0.0319647614,
				"element": "C" 
			},
			{
				"x": -0.9566915811,
				"y": -2.4002769346,
				"z": 0.1714022736,
				"element": "O" 
			},
			{
				"x": 1.0289313353,
				"y": -1.3556910085,
				"z": -0.2054307884,
				"element": "N" 
			},
			{
				"x": 1.8972147244,
				"y": -0.2452333251,
				"z": -0.3022450081,
				"element": "C" 
			},
			{
				"x": 1.9591081367,
				"y": 0.7322272592,
				"z": 0.698290701,
				"element": "C" 
			},
			{
				"x": 1.1592795478,
				"y": 0.6386674143,
				"z": 1.7846095905,
				"element": "F" 
			},
			{
				"x": 2.8437373913,
				"y": 1.7962407353,
				"z": 0.6014594889,
				"element": "C" 
			},
			{
				"x": 3.7145951229,
				"y": 1.8870118969,
				"z": -0.4820309396,
				"element": "C" 
			},
			{
				"x": 3.6977765394,
				"y": 0.9083406232,
				"z": -1.4893092674,
				"element": "C" 
			},
			{
				"x": 4.6113241078,
				"y": 0.9525379425,
				"z": -2.5486288106,
				"element": "N" 
			},
			{
				"x": 2.7746425628,
				"y": -0.1435600034,
				"z": -1.3866900579,
				"element": "C" 
			},
			{
				"x": -4.219390478,
				"y": -0.1509330316,
				"z": -0.155343862,
				"element": "H" 
			},
			{
				"x": -3.1382461242,
				"y": -1.5307767542,
				"z": -0.4601710569,
				"element": "H" 
			},
			{
				"x": -3.0290176861,
				"y": -0.0689946627,
				"z": -1.4662833105,
				"element": "H" 
			},
			{
				"x": -2.0738694466,
				"y": 2.0680840691,
				"z": -0.5102180566,
				"element": "H" 
			},
			{
				"x": -3.2225478725,
				"y": 2.0365857161,
				"z": 0.8440025968,
				"element": "H" 
			},
			{
				"x": -1.4730040601,
				"y": 2.1030531743,
				"z": 1.1586269168,
				"element": "H" 
			},
			{
				"x": -2.3228046448,
				"y": -1.46131774,
				"z": 1.9694779082,
				"element": "H" 
			},
			{
				"x": -1.567127713,
				"y": 0.0232171922,
				"z": 2.5907504819,
				"element": "H" 
			},
			{
				"x": -3.3246625553,
				"y": -0.0442431392,
				"z": 2.3495292323,
				"element": "H" 
			},
			{
				"x": 1.4033139087,
				"y": -2.2751939913,
				"z": -0.3880869887,
				"element": "H" 
			},
			{
				"x": 2.8559939638,
				"y": 2.5377095545,
				"z": 1.393324518,
				"element": "H" 
			},
			{
				"x": 4.41579965,
				"y": 2.7145741421,
				"z": -0.5431111279,
				"element": "H" 
			},
			{
				"x": 4.964844894,
				"y": 1.8756011719,
				"z": -2.7613438873,
				"element": "H" 
			},
			{
				"x": 4.3125188482,
				"y": 0.4723484902,
				"z": -3.3867233164,
				"element": "H" 
			},
			{
				"x": 2.7253630461,
				"y": -0.9003665685,
				"z": -2.165399251,
				"element": "H" 
			}
		],
		 "valence_orbital": [ 
			{
				"type": "occ",
				"energy": -0.28662,
				"method": "rhf"
			},
			{
				"type": "occ",
				"energy": -0.28031,
				"method": "rhf"
			},
			{
				"type": "occ",
				"energy": -0.25931,
				"method": "rhf"
			},
			{
				"type": "occ",
				"energy": -0.23584,
				"method": "rhf"
			},
			{
				"type": "occ",
				"energy": -0.20228,
				"method": "rhf"
			},
			{
				"type": "unocc",
				"energy": -0.01179,
				"method": "rhf"
			},
			{
				"type": "unocc",
				"energy": 0.01629,
				"method": "rhf"
			},
			{
				"type": "unocc",
				"energy": 0.06188,
				"method": "rhf"
			},
			{
				"type": "unocc",
				"energy": 0.07275,
				"method": "rhf"
			},
			{
				"type": "unocc",
				"energy": 0.08821,
				"method": "rhf"
			}
		],
		"cosmo_sigma_profile": { 
			"-0.025": 0.0,
			"-0.024": 0.0,
			"-0.023": 0.0,
			"-0.022": 0.0,
			"-0.021": 0.0,
			"-0.02": 0.0,
			"-0.019": 0.0,
			"-0.018": 0.0,
			"-0.017": 0.0,
			"-0.016": 0.0,
			"-0.015": 0.266495994093,
			"-0.014": 1.18882864143,
			"-0.013": 1.33635958916,
			"-0.012": 3.3361588873,
			"-0.011": 3.55098372038,
			"-0.01": 5.0497808288,
			"-0.009": 4.42444369945,
			"-0.008": 3.31238027804,
			"-0.007": 6.90621753207,
			"-0.006": 7.34913967601,
			"-0.005": 7.440272404,
			"-0.004": 16.180809178,
			"-0.003": 17.9532006288,
			"-0.002": 19.175541113,
			"-0.001": 20.5193698243,
			"0.0": 30.0850149231,
			"0.001": 26.2416047518,
			"0.002": 17.8893637856,
			"0.003": 14.8173272756,
			"0.004": 16.7818181645,
			"0.005": 17.6622447621,
			"0.006": 5.88629063148,
			"0.007": 3.84768041332,
			"0.008": 3.73495543028,
			"0.009": 1.81475842354,
			"0.01": 2.05812855631,
			"0.011": 2.53524960605,
			"0.012": 2.716887505,
			"0.013": 4.44932764719,
			"0.014": 1.61854389402,
			"0.015": 0.349275842247,
			"0.016": 0.0,
			"0.017": 0.0,
			"0.018": 0.0,
			"0.019": 0.0,
			"0.02": 0.0,
			"0.021": 0.0,
			"0.022": 0.0,
			"0.023": 0.0,
			"0.024": 0.0,
			"0.025": 0.0
		}
	}
}
