{
	 "smiles": "OC(=O)C1CN(C(=O)C1)C1=CC(Cl)=CC=C1", 
	 "Tm": 407.15, 
	 "num_atms": 26, 
	 "gaussian": { 
		 "optdone": 1, 
		 "sigma_profile": "yes", 
		 "theory": "DFT", 
		 "functional": "B3LYP", 
		 "basiset": "6-31G**", 
		 "properties": { 
			 "R2extent": 5574.1912, 
			 "electric_dipole_moment_norm": 5.47901617264, 
			 "electric_quadrupole_moment_norm": 21.0779135037, 
			 "total_energy": -1165.84554202, 
			 "HOMO_LUMO_gap": 0.20232, 
			 "cosmo_polarized_energy": -17.09, 
			 "cosmo_cavitation_energy": 31.74, 
			 "cosmo_dispersion_energy": -23.28, 
			 "cosmo_repulsion_energy": 1.82, 
			 "cosmo_total_nonelectrostatic_energy": 10.27, 
			 "SMD_solvation_energy": 6.34 
		},
		"coords": [
			{
				"x": 1.376577737,
				"y": 4.0540305073,
				"z": 0.5641471712,
				"element": "O" 
			},
			{
				"x": 1.3139796689,
				"y": 2.7980704052,
				"z": 0.067474247,
				"element": "C" 
			},
			{
				"x": 1.4921610652,
				"y": 2.5461228635,
				"z": -1.1030692773,
				"element": "O" 
			},
			{
				"x": 1.0372856876,
				"y": 1.7812463975,
				"z": 1.1706838492,
				"element": "C" 
			},
			{
				"x": 0.7689573586,
				"y": 0.3827860482,
				"z": 0.5881833699,
				"element": "C" 
			},
			{
				"x": -0.6940319081,
				"y": 0.2582879081,
				"z": 0.5774889793,
				"element": "N" 
			},
			{
				"x": -1.3174601365,
				"y": 1.2172393883,
				"z": 1.3669270218,
				"element": "C" 
			},
			{
				"x": -2.513225874,
				"y": 1.3389202216,
				"z": 1.5674277967,
				"element": "O" 
			},
			{
				"x": -0.2337771492,
				"y": 2.0996896703,
				"z": 1.9789364593,
				"element": "C" 
			},
			{
				"x": -1.3268761396,
				"y": -0.8182859225,
				"z": -0.0873033266,
				"element": "C" 
			},
			{
				"x": -2.7281985671,
				"y": -0.8845550587,
				"z": -0.2026657462,
				"element": "C" 
			},
			{
				"x": -3.2976829019,
				"y": -1.961271991,
				"z": -0.8736888817,
				"element": "C" 
			},
			{
				"x": -5.0510929903,
				"y": -2.0312975115,
				"z": -1.0124514346,
				"element": "Cl" 
			},
			{
				"x": -2.5351684218,
				"y": -2.9815553283,
				"z": -1.4405769435,
				"element": "C" 
			},
			{
				"x": -1.1498926588,
				"y": -2.9034651442,
				"z": -1.3180137774,
				"element": "C" 
			},
			{
				"x": -0.5433567044,
				"y": -1.8407461721,
				"z": -0.6510616156,
				"element": "C" 
			},
			{
				"x": 1.5711940837,
				"y": 4.6388886753,
				"z": -0.187662345,
				"element": "H" 
			},
			{
				"x": 1.9262162187,
				"y": 1.779469865,
				"z": 1.810067723,
				"element": "H" 
			},
			{
				"x": 1.2181995691,
				"y": -0.4009181099,
				"z": 1.2115387991,
				"element": "H" 
			},
			{
				"x": 1.1691471185,
				"y": 0.3041573312,
				"z": -0.424789537,
				"element": "H" 
			},
			{
				"x": -0.1204226279,
				"y": 1.8195779953,
				"z": 3.0320903854,
				"element": "H" 
			},
			{
				"x": -0.5327401879,
				"y": 3.1479881229,
				"z": 1.9507418263,
				"element": "H" 
			},
			{
				"x": -3.3449501206,
				"y": -0.1132527431,
				"z": 0.2327649752,
				"element": "H" 
			},
			{
				"x": -3.0127468632,
				"y": -3.8053865458,
				"z": -1.9577742198,
				"element": "H" 
			},
			{
				"x": -0.5288402728,
				"y": -3.6837393239,
				"z": -1.747705898,
				"element": "H" 
			},
			{
				"x": 0.5361450168,
				"y": -1.8195015486,
				"z": -0.5726096006,
				"element": "H" 
			}
		],
		 "valence_orbital": [ 
			{
				"type": "occ",
				"energy": -0.29905,
				"method": "rhf"
			},
			{
				"type": "occ",
				"energy": -0.29414,
				"method": "rhf"
			},
			{
				"type": "occ",
				"energy": -0.26012,
				"method": "rhf"
			},
			{
				"type": "occ",
				"energy": -0.24663,
				"method": "rhf"
			},
			{
				"type": "occ",
				"energy": -0.22706,
				"method": "rhf"
			},
			{
				"type": "unocc",
				"energy": -0.02474,
				"method": "rhf"
			},
			{
				"type": "unocc",
				"energy": -0.01128,
				"method": "rhf"
			},
			{
				"type": "unocc",
				"energy": -0.01021,
				"method": "rhf"
			},
			{
				"type": "unocc",
				"energy": 0.03251,
				"method": "rhf"
			},
			{
				"type": "unocc",
				"energy": 0.0357,
				"method": "rhf"
			}
		],
		"cosmo_sigma_profile": { 
			"-0.025": 0.0,
			"-0.024": 0.0,
			"-0.023": 0.0,
			"-0.022": 0.0,
			"-0.021": 0.0,
			"-0.02": 0.0,
			"-0.019": 0.169475687465,
			"-0.018": 0.976096956898,
			"-0.017": 0.957077573934,
			"-0.016": 0.870978752091,
			"-0.015": 0.845026392118,
			"-0.014": 0.680444778377,
			"-0.013": 0.171778417241,
			"-0.012": 1.06984996959,
			"-0.011": 0.841971907739,
			"-0.01": 0.522048559161,
			"-0.009": 0.415694858581,
			"-0.008": 4.90949335098,
			"-0.007": 16.9698688353,
			"-0.006": 20.7590260369,
			"-0.005": 15.0866921323,
			"-0.004": 13.9216295946,
			"-0.003": 10.8819735577,
			"-0.002": 13.2511897991,
			"-0.001": 12.6169479783,
			"0.0": 13.011906711,
			"0.001": 17.4852956021,
			"0.002": 19.8447432517,
			"0.003": 23.3283096409,
			"0.004": 19.6211333988,
			"0.005": 12.2316228109,
			"0.006": 4.26342899891,
			"0.007": 4.38479856983,
			"0.008": 3.72522832791,
			"0.009": 3.62024660973,
			"0.01": 4.21978094482,
			"0.011": 6.75187896958,
			"0.012": 4.06898781589,
			"0.013": 2.36146517419,
			"0.014": 0.512682439501,
			"0.015": 0.0,
			"0.016": 0.0,
			"0.017": 0.0,
			"0.018": 0.0,
			"0.019": 0.0,
			"0.02": 0.0,
			"0.021": 0.0,
			"0.022": 0.0,
			"0.023": 0.0,
			"0.024": 0.0,
			"0.025": 0.0
		}
	}
}
