{
	 "smiles": "OC(=O)C1CCCN(C1)C1=NC2=C(S1)C=CC=C2", 
	 "Tm": 440.15, 
	 "num_atms": 32, 
	 "gaussian": { 
		 "optdone": 1, 
		 "sigma_profile": "yes", 
		 "theory": "DFT", 
		 "functional": "B3LYP", 
		 "basiset": "6-31G**", 
		 "properties": { 
			 "R2extent": 6186.6773, 
			 "electric_dipole_moment_norm": 2.96799904987, 
			 "electric_quadrupole_moment_norm": 12.0528486201, 
			 "total_energy": -1161.98724705, 
			 "HOMO_LUMO_gap": 0.18756, 
			 "cosmo_polarized_energy": -14.28, 
			 "cosmo_cavitation_energy": 35.59, 
			 "cosmo_dispersion_energy": -26.45, 
			 "cosmo_repulsion_energy": 1.99, 
			 "cosmo_total_nonelectrostatic_energy": 11.13, 
			 "SMD_solvation_energy": 4.37 
		},
		"coords": [
			{
				"x": -2.3174939634,
				"y": -0.4110303731,
				"z": -3.4512452584,
				"element": "O" 
			},
			{
				"x": -1.8430008433,
				"y": -1.6773007492,
				"z": -3.3840095886,
				"element": "C" 
			},
			{
				"x": -2.565706338,
				"y": -2.6339091754,
				"z": -3.2128445452,
				"element": "O" 
			},
			{
				"x": -0.3258499468,
				"y": -1.7080584802,
				"z": -3.5636177637,
				"element": "C" 
			},
			{
				"x": 0.2202855849,
				"y": -3.1551446296,
				"z": -3.6113366369,
				"element": "C" 
			},
			{
				"x": 0.8581805472,
				"y": -3.5759000933,
				"z": -2.2716299167,
				"element": "C" 
			},
			{
				"x": 0.1143903802,
				"y": -2.9886308385,
				"z": -1.0716597997,
				"element": "C" 
			},
			{
				"x": 0.1236760776,
				"y": -1.5140591475,
				"z": -1.1499642971,
				"element": "N" 
			},
			{
				"x": 0.345795843,
				"y": -0.8824020434,
				"z": -2.4472961674,
				"element": "C" 
			},
			{
				"x": 0.0895857388,
				"y": -0.8016305007,
				"z": 0.0078211248,
				"element": "C" 
			},
			{
				"x": -0.0699842752,
				"y": -1.3345942913,
				"z": 1.185235756,
				"element": "N" 
			},
			{
				"x": -0.0667012521,
				"y": -0.3675717229,
				"z": 2.1750307222,
				"element": "C" 
			},
			{
				"x": 0.1051208472,
				"y": 0.9691149828,
				"z": 1.7384278864,
				"element": "C" 
			},
			{
				"x": 0.2808839221,
				"y": 0.9899311273,
				"z": -0.0153850056,
				"element": "S" 
			},
			{
				"x": 0.1214492496,
				"y": 2.0404335179,
				"z": 2.6285798893,
				"element": "C" 
			},
			{
				"x": -0.034754919,
				"y": 1.7698322104,
				"z": 3.9892131688,
				"element": "C" 
			},
			{
				"x": -0.2054435678,
				"y": 0.4525727451,
				"z": 4.4393360642,
				"element": "C" 
			},
			{
				"x": -0.2234885755,
				"y": -0.6155202946,
				"z": 3.5460066182,
				"element": "C" 
			},
			{
				"x": -3.2770192336,
				"y": -0.4681456012,
				"z": -3.307155366,
				"element": "H" 
			},
			{
				"x": -0.1247478291,
				"y": -1.1877815626,
				"z": -4.5077421853,
				"element": "H" 
			},
			{
				"x": 0.9591758471,
				"y": -3.2422407648,
				"z": -4.41405615,
				"element": "H" 
			},
			{
				"x": -0.6071050035,
				"y": -3.8259427472,
				"z": -3.8553817163,
				"element": "H" 
			},
			{
				"x": 0.8658931526,
				"y": -4.6670658351,
				"z": -2.1848738742,
				"element": "H" 
			},
			{
				"x": 1.9055418689,
				"y": -3.2528727425,
				"z": -2.2301723826,
				"element": "H" 
			},
			{
				"x": 0.5846500831,
				"y": -3.2747758283,
				"z": -0.1286342816,
				"element": "H" 
			},
			{
				"x": -0.920871479,
				"y": -3.3518963649,
				"z": -1.0458280985,
				"element": "H" 
			},
			{
				"x": -0.0828878996,
				"y": 0.1223220398,
				"z": -2.4343347696,
				"element": "H" 
			},
			{
				"x": 1.4188584215,
				"y": -0.7836489688,
				"z": -2.6704421993,
				"element": "H" 
			},
			{
				"x": 0.2534336982,
				"y": 3.059390832,
				"z": 2.2779893658,
				"element": "H" 
			},
			{
				"x": -0.0232065424,
				"y": 2.5888807174,
				"z": 4.7019386788,
				"element": "H" 
			},
			{
				"x": -0.3262492253,
				"y": 0.2620860139,
				"z": 5.5018771239,
				"element": "H" 
			},
			{
				"x": -0.3574103686,
				"y": -1.6373414315,
				"z": 3.8858536042,
				"element": "H" 
			}
		],
		 "valence_orbital": [ 
			{
				"type": "occ",
				"energy": -0.28601,
				"method": "rhf"
			},
			{
				"type": "occ",
				"energy": -0.26932,
				"method": "rhf"
			},
			{
				"type": "occ",
				"energy": -0.2644,
				"method": "rhf"
			},
			{
				"type": "occ",
				"energy": -0.22357,
				"method": "rhf"
			},
			{
				"type": "occ",
				"energy": -0.19591,
				"method": "rhf"
			},
			{
				"type": "unocc",
				"energy": -0.00835,
				"method": "rhf"
			},
			{
				"type": "unocc",
				"energy": -0.00011,
				"method": "rhf"
			},
			{
				"type": "unocc",
				"energy": 0.00702,
				"method": "rhf"
			},
			{
				"type": "unocc",
				"energy": 0.01357,
				"method": "rhf"
			},
			{
				"type": "unocc",
				"energy": 0.05611,
				"method": "rhf"
			}
		],
		"cosmo_sigma_profile": { 
			"-0.025": 0.0,
			"-0.024": 0.0,
			"-0.023": 0.0,
			"-0.022": 0.0,
			"-0.021": 0.0,
			"-0.02": 0.0,
			"-0.019": 0.102814192883,
			"-0.018": 1.10935467625,
			"-0.017": 0.575545104883,
			"-0.016": 0.662311790011,
			"-0.015": 1.06205094329,
			"-0.014": 0.949547534111,
			"-0.013": 0.229786389963,
			"-0.012": 0.462334888301,
			"-0.011": 0.915481977721,
			"-0.01": 0.434046660754,
			"-0.009": 0.655129039513,
			"-0.008": 1.1815109315,
			"-0.007": 4.56300539029,
			"-0.006": 11.6202830733,
			"-0.005": 18.8110387951,
			"-0.004": 27.1194162554,
			"-0.003": 27.9997413928,
			"-0.002": 23.9729523106,
			"-0.001": 22.3724458848,
			"0.0": 17.7422356257,
			"0.001": 17.5890553273,
			"0.002": 14.9579288154,
			"0.003": 16.3207805662,
			"0.004": 18.0348226932,
			"0.005": 17.3983461472,
			"0.006": 12.5415006503,
			"0.007": 3.55056937261,
			"0.008": 3.64055638287,
			"0.009": 4.37639611495,
			"0.01": 3.51970065494,
			"0.011": 5.00942004568,
			"0.012": 3.06378772673,
			"0.013": 0.671852254882,
			"0.014": 0.585656193569,
			"0.015": 0.0,
			"0.016": 0.0,
			"0.017": 0.0,
			"0.018": 0.0,
			"0.019": 0.0,
			"0.02": 0.0,
			"0.021": 0.0,
			"0.022": 0.0,
			"0.023": 0.0,
			"0.024": 0.0,
			"0.025": 0.0
		}
	}
}
