{
	 "smiles": "CC1=C(C=C(N)C=C1)S(=O)(=O)NC1=CC(Cl)=CC=C1", 
	 "Tm": 432.15, 
	 "num_atms": 32, 
	 "gaussian": { 
		 "optdone": 1, 
		 "sigma_profile": "yes", 
		 "theory": "DFT", 
		 "functional": "B3LYP", 
		 "basiset": "6-31G**", 
		 "properties": { 
			 "R2extent": 7054.6598, 
			 "electric_dipole_moment_norm": 5.44377971083, 
			 "electric_quadrupole_moment_norm": 24.2988780004, 
			 "total_energy": -1621.48877319, 
			 "HOMO_LUMO_gap": 0.17844, 
			 "cosmo_polarized_energy": -19.96, 
			 "cosmo_cavitation_energy": 38.75, 
			 "cosmo_dispersion_energy": -27.15, 
			 "cosmo_repulsion_energy": 2.06, 
			 "cosmo_total_nonelectrostatic_energy": 13.66, 
			 "SMD_solvation_energy": 5.37 
		},
		"coords": [
			{
				"x": -1.7599060453,
				"y": -2.1578449265,
				"z": -0.3299401337,
				"element": "C" 
			},
			{
				"x": -1.3286529485,
				"y": -0.7818315037,
				"z": 0.1208988418,
				"element": "C" 
			},
			{
				"x": -0.2263139328,
				"y": -0.5233785563,
				"z": 0.9599969858,
				"element": "C" 
			},
			{
				"x": 0.1420409578,
				"y": 0.7651450463,
				"z": 1.3444641767,
				"element": "C" 
			},
			{
				"x": -0.5884379834,
				"y": 1.8769921989,
				"z": 0.8960618407,
				"element": "C" 
			},
			{
				"x": -0.1947889426,
				"y": 3.1679706678,
				"z": 1.2304838226,
				"element": "N" 
			},
			{
				"x": -1.6902939573,
				"y": 1.642756801,
				"z": 0.0587178976,
				"element": "C" 
			},
			{
				"x": -2.0380357219,
				"y": 0.3470130263,
				"z": -0.3095916071,
				"element": "C" 
			},
			{
				"x": 0.7797344729,
				"y": -1.8554069628,
				"z": 1.6466741973,
				"element": "S" 
			},
			{
				"x": -0.0854986822,
				"y": -2.9067414909,
				"z": 2.1849540662,
				"element": "O" 
			},
			{
				"x": 1.8237171329,
				"y": -1.2401110101,
				"z": 2.4671278485,
				"element": "O" 
			},
			{
				"x": 1.5442904537,
				"y": -2.6101300784,
				"z": 0.331781496,
				"element": "N" 
			},
			{
				"x": 2.3596527936,
				"y": -1.9626435147,
				"z": -0.6263033102,
				"element": "C" 
			},
			{
				"x": 3.2933868813,
				"y": -0.9878715899,
				"z": -0.2459674775,
				"element": "C" 
			},
			{
				"x": 4.0871633903,
				"y": -0.4043595477,
				"z": -1.2295102432,
				"element": "C" 
			},
			{
				"x": 5.2491586027,
				"y": 0.8270182142,
				"z": -0.7529883098,
				"element": "Cl" 
			},
			{
				"x": 4.005452358,
				"y": -0.774947037,
				"z": -2.5712862225,
				"element": "C" 
			},
			{
				"x": 3.0852511944,
				"y": -1.7607829637,
				"z": -2.9274538866,
				"element": "C" 
			},
			{
				"x": 2.2578526703,
				"y": -2.3454720453,
				"z": -1.9717697016,
				"element": "C" 
			},
			{
				"x": -1.8433965463,
				"y": -2.8535411183,
				"z": 0.508010078,
				"element": "H" 
			},
			{
				"x": -1.0513410546,
				"y": -2.5867310684,
				"z": -1.0505221784,
				"element": "H" 
			},
			{
				"x": -2.7285854386,
				"y": -2.101505264,
				"z": -0.8327777908,
				"element": "H" 
			},
			{
				"x": 0.9961703777,
				"y": 0.894916987,
				"z": 1.9996215643,
				"element": "H" 
			},
			{
				"x": -0.9159049763,
				"y": 3.8739043938,
				"z": 1.1886335413,
				"element": "H" 
			},
			{
				"x": 0.3841589254,
				"y": 3.2528772306,
				"z": 2.0538666985,
				"element": "H" 
			},
			{
				"x": -2.2763012884,
				"y": 2.4822346927,
				"z": -0.3066483575,
				"element": "H" 
			},
			{
				"x": -2.9001190043,
				"y": 0.2010344351,
				"z": -0.9551814621,
				"element": "H" 
			},
			{
				"x": 0.9728693718,
				"y": -3.372323072,
				"z": -0.0137945545,
				"element": "H" 
			},
			{
				"x": 3.4012462104,
				"y": -0.7085558179,
				"z": 0.793756425,
				"element": "H" 
			},
			{
				"x": 4.6449988913,
				"y": -0.3069244493,
				"z": -3.3102315887,
				"element": "H" 
			},
			{
				"x": 3.0040329221,
				"y": -2.0682768688,
				"z": -3.9656546394,
				"element": "H" 
			},
			{
				"x": 1.5355989159,
				"y": -3.1024848081,
				"z": -2.2653280165,
				"element": "H" 
			}
		],
		 "valence_orbital": [ 
			{
				"type": "occ",
				"energy": -0.30445,
				"method": "rhf"
			},
			{
				"type": "occ",
				"energy": -0.26869,
				"method": "rhf"
			},
			{
				"type": "occ",
				"energy": -0.25373,
				"method": "rhf"
			},
			{
				"type": "occ",
				"energy": -0.23415,
				"method": "rhf"
			},
			{
				"type": "occ",
				"energy": -0.21587,
				"method": "rhf"
			},
			{
				"type": "unocc",
				"energy": -0.03743,
				"method": "rhf"
			},
			{
				"type": "unocc",
				"energy": -0.0181,
				"method": "rhf"
			},
			{
				"type": "unocc",
				"energy": -0.01377,
				"method": "rhf"
			},
			{
				"type": "unocc",
				"energy": -0.0031,
				"method": "rhf"
			},
			{
				"type": "unocc",
				"energy": 0.03005,
				"method": "rhf"
			}
		],
		"cosmo_sigma_profile": { 
			"-0.025": 0.0,
			"-0.024": 0.0,
			"-0.023": 0.0,
			"-0.022": 0.0,
			"-0.021": 0.0,
			"-0.02": 0.0,
			"-0.019": 0.0,
			"-0.018": 0.0,
			"-0.017": 0.0,
			"-0.016": 0.0627159085396,
			"-0.015": 0.629185330942,
			"-0.014": 0.936573648507,
			"-0.013": 2.84057747682,
			"-0.012": 4.202972152,
			"-0.011": 4.28274653844,
			"-0.01": 5.03783104573,
			"-0.009": 4.82797909305,
			"-0.008": 5.41274418992,
			"-0.007": 9.35115193848,
			"-0.006": 13.8863585545,
			"-0.005": 15.4836998559,
			"-0.004": 15.0109390556,
			"-0.003": 13.409244501,
			"-0.002": 17.6958797473,
			"-0.001": 19.7981678065,
			"0.0": 20.0390957892,
			"0.001": 22.2875136259,
			"0.002": 27.5065844965,
			"0.003": 32.6806286419,
			"0.004": 27.3266695666,
			"0.005": 13.1312382827,
			"0.006": 5.41859797226,
			"0.007": 3.94263844246,
			"0.008": 4.82827020508,
			"0.009": 5.05541142507,
			"0.01": 7.04927475383,
			"0.011": 7.10043982356,
			"0.012": 1.39361580086,
			"0.013": 0.759898843255,
			"0.014": 0.162698530633,
			"0.015": 0.0,
			"0.016": 0.0,
			"0.017": 0.0,
			"0.018": 0.0,
			"0.019": 0.0,
			"0.02": 0.0,
			"0.021": 0.0,
			"0.022": 0.0,
			"0.023": 0.0,
			"0.024": 0.0,
			"0.025": 0.0
		}
	}
}
