{
	 "smiles": "BrC1=C(C=CC=C1)C1=NC2=C(N1)N=CC=C2", 
	 "Tm": 470.15, 
	 "num_atms": 24, 
	 "gaussian": { 
		 "optdone": 1, 
		 "sigma_profile": "yes", 
		 "theory": "DFT", 
		 "functional": "B3LYP", 
		 "basiset": "6-31G**", 
		 "properties": { 
			 "R2extent": 5972.3437, 
			 "electric_dipole_moment_norm": 2.01522076458, 
			 "electric_quadrupole_moment_norm": 13.719361851, 
			 "total_energy": -3197.77402231, 
			 "HOMO_LUMO_gap": 0.16161, 
			 "cosmo_polarized_energy": -9.52, 
			 "cosmo_cavitation_energy": 30.44, 
			 "cosmo_dispersion_energy": -23.46, 
			 "cosmo_repulsion_energy": 1.78, 
			 "cosmo_total_nonelectrostatic_energy": 8.76, 
			 "SMD_solvation_energy": 0.49 
		},
		"coords": [
			{
				"x": 2.2621252688,
				"y": -1.800743928,
				"z": 2.7835393371,
				"element": "Br" 
			},
			{
				"x": 2.3756701377,
				"y": -2.2029571313,
				"z": 0.9012954994,
				"element": "C" 
			},
			{
				"x": 1.4945264637,
				"y": -1.6869226443,
				"z": -0.0681365849,
				"element": "C" 
			},
			{
				"x": 1.7257787181,
				"y": -2.0879586018,
				"z": -1.4032145093,
				"element": "C" 
			},
			{
				"x": 2.760719882,
				"y": -2.9425862247,
				"z": -1.7517871525,
				"element": "C" 
			},
			{
				"x": 3.6171162454,
				"y": -3.4368267573,
				"z": -0.7657817966,
				"element": "C" 
			},
			{
				"x": 3.4205463282,
				"y": -3.0640042159,
				"z": 0.5600392142,
				"element": "C" 
			},
			{
				"x": 0.3522208755,
				"y": -0.7749044741,
				"z": 0.1292061348,
				"element": "C" 
			},
			{
				"x": -0.3977183704,
				"y": -0.365692362,
				"z": -0.8850264934,
				"element": "N" 
			},
			{
				"x": -1.3480318812,
				"y": 0.4578745227,
				"z": -0.3286438593,
				"element": "C" 
			},
			{
				"x": -1.1614393683,
				"y": 0.5463901617,
				"z": 1.0731139388,
				"element": "C" 
			},
			{
				"x": -0.0694571433,
				"y": -0.2509295044,
				"z": 1.3338478648,
				"element": "N" 
			},
			{
				"x": -1.8807112832,
				"y": 1.2446159224,
				"z": 1.94603316,
				"element": "N" 
			},
			{
				"x": -2.8873763168,
				"y": 1.9262509194,
				"z": 1.3829518305,
				"element": "C" 
			},
			{
				"x": -3.1822721108,
				"y": 1.9250211945,
				"z": 0.0048987984,
				"element": "C" 
			},
			{
				"x": -2.4082651486,
				"y": 1.1820877597,
				"z": -0.8835706915,
				"element": "C" 
			},
			{
				"x": 1.0504517556,
				"y": -1.6936454753,
				"z": -2.153457077,
				"element": "H" 
			},
			{
				"x": 2.8992800853,
				"y": -3.2229217628,
				"z": -2.7912776361,
				"element": "H" 
			},
			{
				"x": 4.4325647875,
				"y": -4.106817291,
				"z": -1.0202202982,
				"element": "H" 
			},
			{
				"x": 4.0744643694,
				"y": -3.4368417621,
				"z": 1.3396866639,
				"element": "H" 
			},
			{
				"x": 0.3441868656,
				"y": -0.4191780246,
				"z": 2.2393605826,
				"element": "H" 
			},
			{
				"x": -3.5019818936,
				"y": 2.511977578,
				"z": 2.0630725858,
				"element": "H" 
			},
			{
				"x": -4.0218246432,
				"y": 2.5118811943,
				"z": -0.3536196434,
				"element": "H" 
			},
			{
				"x": -2.6106736234,
				"y": 1.1613309066,
				"z": -1.9497098683,
				"element": "H" 
			}
		],
		 "valence_orbital": [ 
			{
				"type": "occ",
				"energy": -0.28558,
				"method": "rhf"
			},
			{
				"type": "occ",
				"energy": -0.25825,
				"method": "rhf"
			},
			{
				"type": "occ",
				"energy": -0.25253,
				"method": "rhf"
			},
			{
				"type": "occ",
				"energy": -0.24952,
				"method": "rhf"
			},
			{
				"type": "occ",
				"energy": -0.22241,
				"method": "rhf"
			},
			{
				"type": "unocc",
				"energy": -0.0608,
				"method": "rhf"
			},
			{
				"type": "unocc",
				"energy": -0.02188,
				"method": "rhf"
			},
			{
				"type": "unocc",
				"energy": -0.01253,
				"method": "rhf"
			},
			{
				"type": "unocc",
				"energy": -0.00798,
				"method": "rhf"
			},
			{
				"type": "unocc",
				"energy": 0.01682,
				"method": "rhf"
			}
		],
		"cosmo_sigma_profile": { 
			"-0.025": 0.0,
			"-0.024": 0.0,
			"-0.023": 0.0,
			"-0.022": 0.0,
			"-0.021": 0.0,
			"-0.02": 0.0,
			"-0.019": 0.0,
			"-0.018": 0.0,
			"-0.017": 0.0,
			"-0.016": 0.0,
			"-0.015": 0.0,
			"-0.014": 0.0,
			"-0.013": 0.0650836245268,
			"-0.012": 0.835224380161,
			"-0.011": 0.604528631776,
			"-0.01": 0.577649957532,
			"-0.009": 1.14914667574,
			"-0.008": 2.02267971188,
			"-0.007": 8.71214488391,
			"-0.006": 13.9754277733,
			"-0.005": 18.3444190212,
			"-0.004": 16.556467547,
			"-0.003": 14.6763529624,
			"-0.002": 12.9016664144,
			"-0.001": 17.7303697012,
			"0.0": 22.1736978111,
			"0.001": 23.3014576007,
			"0.002": 32.2029453187,
			"0.003": 28.5836849627,
			"0.004": 10.0661022423,
			"0.005": 4.34762581263,
			"0.006": 2.21110653613,
			"0.007": 3.32845096344,
			"0.008": 3.03295299828,
			"0.009": 1.83155588955,
			"0.01": 2.380403557,
			"0.011": 1.96216983293,
			"0.012": 2.06562363328,
			"0.013": 1.89190516391,
			"0.014": 1.18126769194,
			"0.015": 0.664909345432,
			"0.016": 0.252351823929,
			"0.017": 0.0,
			"0.018": 0.0,
			"0.019": 0.0,
			"0.02": 0.0,
			"0.021": 0.0,
			"0.022": 0.0,
			"0.023": 0.0,
			"0.024": 0.0,
			"0.025": 0.0
		}
	}
}
