{
	 "smiles": "CC(=O)NC1=CC=CC=C1C1=CC=CC=C1", 
	 "Tm": 394.15, 
	 "num_atms": 29, 
	 "gaussian": { 
		 "optdone": 1, 
		 "sigma_profile": "yes", 
		 "theory": "DFT", 
		 "functional": "B3LYP", 
		 "basiset": "6-31G**", 
		 "properties": { 
			 "R2extent": 3618.1924, 
			 "electric_dipole_moment_norm": 3.62394993481, 
			 "electric_quadrupole_moment_norm": 19.4442033264, 
			 "total_energy": -671.320500585, 
			 "HOMO_LUMO_gap": 0.19443, 
			 "cosmo_polarized_energy": -12.19, 
			 "cosmo_cavitation_energy": 32.42, 
			 "cosmo_dispersion_energy": -22.41, 
			 "cosmo_repulsion_energy": 1.75, 
			 "cosmo_total_nonelectrostatic_energy": 11.77, 
			 "SMD_solvation_energy": 6.71 
		},
		"coords": [
			{
				"x": 3.1435680243,
				"y": -0.2257625494,
				"z": 0.2203972863,
				"element": "C" 
			},
			{
				"x": 2.8133302905,
				"y": -0.4709819528,
				"z": -1.2388085419,
				"element": "C" 
			},
			{
				"x": 3.512426692,
				"y": -1.1550539356,
				"z": -1.9715320986,
				"element": "O" 
			},
			{
				"x": 1.6620504039,
				"y": 0.1193976267,
				"z": -1.7357987327,
				"element": "N" 
			},
			{
				"x": 0.7822585683,
				"y": 1.0431024113,
				"z": -1.0959941091,
				"element": "C" 
			},
			{
				"x": 0.8122447492,
				"y": 2.3793753746,
				"z": -1.5173621196,
				"element": "C" 
			},
			{
				"x": -0.024922592,
				"y": 3.334591534,
				"z": -0.9463336918,
				"element": "C" 
			},
			{
				"x": -0.8959884124,
				"y": 2.9575249095,
				"z": 0.0762054498,
				"element": "C" 
			},
			{
				"x": -0.9333704798,
				"y": 1.6308211208,
				"z": 0.4978828936,
				"element": "C" 
			},
			{
				"x": -0.117727145,
				"y": 0.6422555116,
				"z": -0.0814235827,
				"element": "C" 
			},
			{
				"x": -0.2554938119,
				"y": -0.7650903869,
				"z": 0.3887303019,
				"element": "C" 
			},
			{
				"x": -0.2958346436,
				"y": -1.0440450328,
				"z": 1.7658148873,
				"element": "C" 
			},
			{
				"x": -0.4707004158,
				"y": -2.3484926061,
				"z": 2.2291059715,
				"element": "C" 
			},
			{
				"x": -0.6129187829,
				"y": -3.4001302125,
				"z": 1.3231484105,
				"element": "C" 
			},
			{
				"x": -0.5790058285,
				"y": -3.1366296994,
				"z": -0.0479921112,
				"element": "C" 
			},
			{
				"x": -0.4009094742,
				"y": -1.8341677399,
				"z": -0.5114457775,
				"element": "C" 
			},
			{
				"x": 2.4902770048,
				"y": -0.823465998,
				"z": 0.8631497199,
				"element": "H" 
			},
			{
				"x": 4.1770981104,
				"y": -0.5307515238,
				"z": 0.383718807,
				"element": "H" 
			},
			{
				"x": 3.0135552884,
				"y": 0.8238816001,
				"z": 0.4987753514,
				"element": "H" 
			},
			{
				"x": 1.5820813321,
				"y": 0.0126829719,
				"z": -2.7398248138,
				"element": "H" 
			},
			{
				"x": 1.5178092632,
				"y": 2.6595930245,
				"z": -2.29438873,
				"element": "H" 
			},
			{
				"x": 0.0115607617,
				"y": 4.3640315612,
				"z": -1.2899338775,
				"element": "H" 
			},
			{
				"x": -1.553439156,
				"y": 3.6895761698,
				"z": 0.5357841342,
				"element": "H" 
			},
			{
				"x": -1.6367710575,
				"y": 1.3332823058,
				"z": 1.269639805,
				"element": "H" 
			},
			{
				"x": -0.1728435746,
				"y": -0.2316756512,
				"z": 2.4766030722,
				"element": "H" 
			},
			{
				"x": -0.4914045081,
				"y": -2.5416432662,
				"z": 3.2979196872,
				"element": "H" 
			},
			{
				"x": -0.74774115,
				"y": -4.4165537201,
				"z": 1.6812953694,
				"element": "H" 
			},
			{
				"x": -0.6944829388,
				"y": -3.94781187,
				"z": -0.7610412245,
				"element": "H" 
			},
			{
				"x": -0.3834065177,
				"y": -1.6408599769,
				"z": -1.5781917364,
				"element": "H" 
			}
		],
		 "valence_orbital": [ 
			{
				"type": "occ",
				"energy": -0.2745,
				"method": "rhf"
			},
			{
				"type": "occ",
				"energy": -0.25486,
				"method": "rhf"
			},
			{
				"type": "occ",
				"energy": -0.24839,
				"method": "rhf"
			},
			{
				"type": "occ",
				"energy": -0.24063,
				"method": "rhf"
			},
			{
				"type": "occ",
				"energy": -0.22777,
				"method": "rhf"
			},
			{
				"type": "unocc",
				"energy": -0.03334,
				"method": "rhf"
			},
			{
				"type": "unocc",
				"energy": -0.01759,
				"method": "rhf"
			},
			{
				"type": "unocc",
				"energy": -0.0054,
				"method": "rhf"
			},
			{
				"type": "unocc",
				"energy": 0.01559,
				"method": "rhf"
			},
			{
				"type": "unocc",
				"energy": 0.03585,
				"method": "rhf"
			}
		],
		"cosmo_sigma_profile": { 
			"-0.025": 0.0,
			"-0.024": 0.0,
			"-0.023": 0.0,
			"-0.022": 0.0,
			"-0.021": 0.0,
			"-0.02": 0.0,
			"-0.019": 0.0,
			"-0.018": 0.0,
			"-0.017": 0.0,
			"-0.016": 0.0,
			"-0.015": 0.0,
			"-0.014": 0.359638809648,
			"-0.013": 0.837816743342,
			"-0.012": 0.883440676915,
			"-0.011": 1.19543335687,
			"-0.01": 0.938088742557,
			"-0.009": 0.825609230991,
			"-0.008": 0.911989943193,
			"-0.007": 1.83200331224,
			"-0.006": 11.5462799124,
			"-0.005": 22.6941086224,
			"-0.004": 24.7587827149,
			"-0.003": 23.5256499859,
			"-0.002": 21.3865472899,
			"-0.001": 25.128469724,
			"0.0": 18.6756258509,
			"0.001": 13.4091619595,
			"0.002": 16.6685530508,
			"0.003": 18.005270368,
			"0.004": 17.2700060933,
			"0.005": 14.7695364613,
			"0.006": 3.66840352334,
			"0.007": 1.27924247921,
			"0.008": 1.61358959422,
			"0.009": 1.1261545834,
			"0.01": 0.819328685544,
			"0.011": 1.81334568319,
			"0.012": 1.863464307,
			"0.013": 3.91146618885,
			"0.014": 5.43016961122,
			"0.015": 1.37376428009,
			"0.016": 0.0,
			"0.017": 0.0,
			"0.018": 0.0,
			"0.019": 0.0,
			"0.02": 0.0,
			"0.021": 0.0,
			"0.022": 0.0,
			"0.023": 0.0,
			"0.024": 0.0,
			"0.025": 0.0
		}
	}
}
