{
	 "smiles": "OC(=O)CCOC1=C(F)C=CC=C1", 
	 "Tm": 386.15, 
	 "num_atms": 22, 
	 "gaussian": { 
		 "optdone": 1, 
		 "sigma_profile": "yes", 
		 "theory": "DFT", 
		 "functional": "B3LYP", 
		 "basiset": "6-31G**", 
		 "properties": { 
			 "R2extent": 3380.8083, 
			 "electric_dipole_moment_norm": 3.3295742806, 
			 "electric_quadrupole_moment_norm": 13.8313516198, 
			 "total_energy": -673.877960125, 
			 "HOMO_LUMO_gap": 0.21683, 
			 "cosmo_polarized_energy": -17.05, 
			 "cosmo_cavitation_energy": 27.15, 
			 "cosmo_dispersion_energy": -19.54, 
			 "cosmo_repulsion_energy": 1.55, 
			 "cosmo_total_nonelectrostatic_energy": 9.16, 
			 "SMD_solvation_energy": 6.54 
		},
		"coords": [
			{
				"x": 1.5981443176,
				"y": 2.7526170942,
				"z": 1.999853543,
				"element": "O" 
			},
			{
				"x": 1.0335852902,
				"y": 2.5310615054,
				"z": 0.7842093338,
				"element": "C" 
			},
			{
				"x": 1.3909253357,
				"y": 3.1668350687,
				"z": -0.1763567338,
				"element": "O" 
			},
			{
				"x": -0.036366342,
				"y": 1.4506524227,
				"z": 0.7408240347,
				"element": "C" 
			},
			{
				"x": -0.6811509059,
				"y": 1.3518331579,
				"z": -0.6443171313,
				"element": "C" 
			},
			{
				"x": -1.6978024951,
				"y": 0.3539499835,
				"z": -0.6752380824,
				"element": "O" 
			},
			{
				"x": -1.3443001913,
				"y": -0.9586164617,
				"z": -0.7933972776,
				"element": "C" 
			},
			{
				"x": -2.4025239329,
				"y": -1.8806905458,
				"z": -0.7084344586,
				"element": "C" 
			},
			{
				"x": -3.6467897955,
				"y": -1.4056801202,
				"z": -0.5050803672,
				"element": "F" 
			},
			{
				"x": -2.1978819167,
				"y": -3.2440884283,
				"z": -0.8286371835,
				"element": "C" 
			},
			{
				"x": -0.9027645637,
				"y": -3.7302940467,
				"z": -1.0384355453,
				"element": "C" 
			},
			{
				"x": 0.1596499388,
				"y": -2.8352446445,
				"z": -1.1242076594,
				"element": "C" 
			},
			{
				"x": -0.0540174904,
				"y": -1.4568602283,
				"z": -1.0023086654,
				"element": "C" 
			},
			{
				"x": 1.2045917603,
				"y": 2.1717938024,
				"z": 2.6666855068,
				"element": "H" 
			},
			{
				"x": -0.8097146258,
				"y": 1.6633481912,
				"z": 1.4897654997,
				"element": "H" 
			},
			{
				"x": 0.4154553269,
				"y": 0.491292401,
				"z": 1.0241002737,
				"element": "H" 
			},
			{
				"x": -1.1887731406,
				"y": 2.287085519,
				"z": -0.8867387973,
				"element": "H" 
			},
			{
				"x": 0.074887073,
				"y": 1.1838001943,
				"z": -1.4172493745,
				"element": "H" 
			},
			{
				"x": -3.0546757538,
				"y": -3.905692379,
				"z": -0.7561966932,
				"element": "H" 
			},
			{
				"x": -0.7347922904,
				"y": -4.7981270263,
				"z": -1.1325280403,
				"element": "H" 
			},
			{
				"x": 1.1691694323,
				"y": -3.1996117681,
				"z": -1.2878680402,
				"element": "H" 
			},
			{
				"x": 0.7894449689,
				"y": -0.7806636914,
				"z": -1.0798441416,
				"element": "H" 
			}
		],
		 "valence_orbital": [ 
			{
				"type": "occ",
				"energy": -0.33009,
				"method": "rhf"
			},
			{
				"type": "occ",
				"energy": -0.32601,
				"method": "rhf"
			},
			{
				"type": "occ",
				"energy": -0.28359,
				"method": "rhf"
			},
			{
				"type": "occ",
				"energy": -0.25486,
				"method": "rhf"
			},
			{
				"type": "occ",
				"energy": -0.22577,
				"method": "rhf"
			},
			{
				"type": "unocc",
				"energy": -0.00894,
				"method": "rhf"
			},
			{
				"type": "unocc",
				"energy": -0.00136,
				"method": "rhf"
			},
			{
				"type": "unocc",
				"energy": 0.00466,
				"method": "rhf"
			},
			{
				"type": "unocc",
				"energy": 0.04504,
				"method": "rhf"
			},
			{
				"type": "unocc",
				"energy": 0.07142,
				"method": "rhf"
			}
		],
		"cosmo_sigma_profile": { 
			"-0.025": 0.0,
			"-0.024": 0.0,
			"-0.023": 0.0,
			"-0.022": 0.0,
			"-0.021": 0.0,
			"-0.02": 0.0843984062118,
			"-0.019": 1.12612541211,
			"-0.018": 0.99224471878,
			"-0.017": 0.962201817952,
			"-0.016": 1.18043987697,
			"-0.015": 1.05068562367,
			"-0.014": 0.809824839287,
			"-0.013": 1.44529430931,
			"-0.012": 1.60649139417,
			"-0.011": 0.85916730062,
			"-0.01": 1.55205142054,
			"-0.009": 1.94326843763,
			"-0.008": 5.23811198829,
			"-0.007": 9.07705496628,
			"-0.006": 14.8588596519,
			"-0.005": 13.7696378842,
			"-0.004": 12.2552083939,
			"-0.003": 11.7539989017,
			"-0.002": 9.37740161865,
			"-0.001": 8.32930376247,
			"0.0": 9.48226292644,
			"0.001": 13.4151201586,
			"0.002": 13.5238937341,
			"0.003": 12.8978628302,
			"0.004": 17.4781567114,
			"0.005": 13.9649518756,
			"0.006": 5.90353384952,
			"0.007": 4.77762802376,
			"0.008": 4.09741997774,
			"0.009": 4.60890908803,
			"0.01": 6.49708546137,
			"0.011": 5.61967264927,
			"0.012": 4.43940531524,
			"0.013": 1.11491069972,
			"0.014": 0.00544705832599,
			"0.015": 0.0,
			"0.016": 0.0,
			"0.017": 0.0,
			"0.018": 0.0,
			"0.019": 0.0,
			"0.02": 0.0,
			"0.021": 0.0,
			"0.022": 0.0,
			"0.023": 0.0,
			"0.024": 0.0,
			"0.0": 0.0
		}
	}
}
