{
	 "smiles": "CC1=NN(C(C)=N1)C1=CC=C(C=C1)C(O)=O", 
	 "Tm": 563.15, 
	 "num_atms": 27, 
	 "gaussian": { 
		 "optdone": 1, 
		 "sigma_profile": "yes", 
		 "theory": "DFT", 
		 "functional": "B3LYP", 
		 "basiset": "6-31G**", 
		 "properties": { 
			 "R2extent": 5414.4891, 
			 "electric_dipole_moment_norm": 2.74317119225, 
			 "electric_quadrupole_moment_norm": 27.9409438216, 
			 "total_energy": -740.515519246, 
			 "HOMO_LUMO_gap": 0.18219, 
			 "cosmo_polarized_energy": -18.94, 
			 "cosmo_cavitation_energy": 31.72, 
			 "cosmo_dispersion_energy": -23.22, 
			 "cosmo_repulsion_energy": 1.8, 
			 "cosmo_total_nonelectrostatic_energy": 10.3, 
			 "SMD_solvation_energy": 4.2 
		},
		"coords": [
			{
				"x": -3.9208533057,
				"y": -2.6252628563,
				"z": 2.4155453467,
				"element": "C" 
			},
			{
				"x": -3.1056450178,
				"y": -1.6733041006,
				"z": 1.604123468,
				"element": "C" 
			},
			{
				"x": -1.9237836748,
				"y": -1.2340270999,
				"z": 1.9996204052,
				"element": "N" 
			},
			{
				"x": -1.5365207261,
				"y": -0.4190024497,
				"z": 0.9649790192,
				"element": "N" 
			},
			{
				"x": -2.5248448988,
				"y": -0.4001467553,
				"z": 0.0108497911,
				"element": "C" 
			},
			{
				"x": -2.5268149109,
				"y": 0.4085949826,
				"z": -1.2455708228,
				"element": "C" 
			},
			{
				"x": -3.5158711893,
				"y": -1.1842748713,
				"z": 0.3919778851,
				"element": "N" 
			},
			{
				"x": -0.3144167363,
				"y": 0.2894672302,
				"z": 1.0621225115,
				"element": "C" 
			},
			{
				"x": 0.4362445462,
				"y": 0.6106455658,
				"z": -0.0770442913,
				"element": "C" 
			},
			{
				"x": 1.6251712403,
				"y": 1.3189439351,
				"z": 0.0565265322,
				"element": "C" 
			},
			{
				"x": 2.1050274877,
				"y": 1.6844170116,
				"z": 1.3201493646,
				"element": "C" 
			},
			{
				"x": 1.3500309842,
				"y": 1.3472774323,
				"z": 2.4538129703,
				"element": "C" 
			},
			{
				"x": 0.1486492896,
				"y": 0.6590801922,
				"z": 2.3321675858,
				"element": "C" 
			},
			{
				"x": 3.3941601696,
				"y": 2.4451002166,
				"z": 1.3814189767,
				"element": "C" 
			},
			{
				"x": 4.050614827,
				"y": 2.4473538423,
				"z": 2.5724688508,
				"element": "O" 
			},
			{
				"x": 3.8566753524,
				"y": 3.03924631,
				"z": 0.4357942753,
				"element": "O" 
			},
			{
				"x": -3.4079968283,
				"y": -2.8609990375,
				"z": 3.34959358,
				"element": "H" 
			},
			{
				"x": -4.9007280828,
				"y": -2.1938146045,
				"z": 2.6432196732,
				"element": "H" 
			},
			{
				"x": -4.0950720178,
				"y": -3.5527860859,
				"z": 1.8608179048,
				"element": "H" 
			},
			{
				"x": -1.9505496453,
				"y": -0.0733625755,
				"z": -2.0434342379,
				"element": "H" 
			},
			{
				"x": -3.5596556402,
				"y": 0.4934946907,
				"z": -1.5861935591,
				"element": "H" 
			},
			{
				"x": -2.1158325395,
				"y": 1.4097952841,
				"z": -1.089870863,
				"element": "H" 
			},
			{
				"x": 0.1097579683,
				"y": 0.2908095126,
				"z": -1.0584414186,
				"element": "H" 
			},
			{
				"x": 2.211645571,
				"y": 1.5855490553,
				"z": -0.8158260303,
				"element": "H" 
			},
			{
				"x": 1.6664375748,
				"y": 1.6569476259,
				"z": 3.4469204459,
				"element": "H" 
			},
			{
				"x": -0.4421032196,
				"y": 0.3999712623,
				"z": 3.2017151703,
				"element": "H" 
			},
			{
				"x": 3.6575734219,
				"y": 1.8009862872,
				"z": 3.1748574661,
				"element": "H" 
			}
		],
		 "valence_orbital": [ 
			{
				"type": "occ",
				"energy": -0.28368,
				"method": "rhf"
			},
			{
				"type": "occ",
				"energy": -0.2809,
				"method": "rhf"
			},
			{
				"type": "occ",
				"energy": -0.27614,
				"method": "rhf"
			},
			{
				"type": "occ",
				"energy": -0.27126,
				"method": "rhf"
			},
			{
				"type": "occ",
				"energy": -0.24649,
				"method": "rhf"
			},
			{
				"type": "unocc",
				"energy": -0.0643,
				"method": "rhf"
			},
			{
				"type": "unocc",
				"energy": -0.03307,
				"method": "rhf"
			},
			{
				"type": "unocc",
				"energy": 0.00185,
				"method": "rhf"
			},
			{
				"type": "unocc",
				"energy": 0.04662,
				"method": "rhf"
			},
			{
				"type": "unocc",
				"energy": 0.04947,
				"method": "rhf"
			}
		],
		"cosmo_sigma_profile": { 
			"-0.025": 0.0,
			"-0.024": 0.0,
			"-0.023": 0.0,
			"-0.022": 0.0,
			"-0.021": 0.0,
			"-0.02": 0.0,
			"-0.019": 0.357253464567,
			"-0.018": 1.10464282887,
			"-0.017": 0.810402918263,
			"-0.016": 0.642276281623,
			"-0.015": 1.12102172843,
			"-0.014": 0.845127884455,
			"-0.013": 1.48199044036,
			"-0.012": 1.51892990437,
			"-0.011": 0.877729410638,
			"-0.01": 1.43138413379,
			"-0.009": 2.19477614023,
			"-0.008": 4.76575596021,
			"-0.007": 6.7987864518,
			"-0.006": 13.5381427197,
			"-0.005": 16.3387464899,
			"-0.004": 16.3531983756,
			"-0.003": 20.3049158535,
			"-0.002": 22.0420680887,
			"-0.001": 21.3394702292,
			"0.0": 17.1133418478,
			"0.001": 16.7393340417,
			"0.002": 18.8815791256,
			"0.003": 7.6508458831,
			"0.004": 6.22469189456,
			"0.005": 5.77261970219,
			"0.006": 5.44110330332,
			"0.007": 5.29355600004,
			"0.008": 5.24979339562,
			"0.009": 4.67085263045,
			"0.01": 7.06773938381,
			"0.011": 7.33663637742,
			"0.012": 6.07281232718,
			"0.013": 3.20794725358,
			"0.014": 0.819360289094,
			"0.015": 1.14477806662,
			"0.016": 0.696989929322,
			"0.017": 0.377331111489,
			"0.018": 0.0,
			"0.019": 0.0,
			"0.02": 0.0,
			"0.021": 0.0,
			"0.022": 0.0,
			"0.023": 0.0,
			"0.024": 0.0,
			"0.025": 0.0
		}
	}
}
