{
	 "smiles": "C1C=CCC2=C1C=CC=C2", 
	 "Tm": 298.15, 
	 "num_atms": 20, 
	 "gaussian": { 
		 "optdone": 1, 
		 "sigma_profile": "yes", 
		 "theory": "DFT", 
		 "functional": "B3LYP", 
		 "basiset": "6-31G**", 
		 "properties": { 
			 "R2extent": 1549.8097, 
			 "electric_dipole_moment_norm": 0.265159932871, 
			 "electric_quadrupole_moment_norm": 5.04561022177, 
			 "total_energy": -387.083213523, 
			 "HOMO_LUMO_gap": 0.22697, 
			 "cosmo_polarized_energy": -3.7, 
			 "cosmo_cavitation_energy": 22.29, 
			 "cosmo_dispersion_energy": -16.99, 
			 "cosmo_repulsion_energy": 1.37, 
			 "cosmo_total_nonelectrostatic_energy": 6.67, 
			 "SMD_solvation_energy": 3.25 
		},
		"coords": [
			{
				"x": -0.2899496489,
				"y": 1.0456993994,
				"z": 0.2536821663,
				"element": "C" 
			},
			{
				"x": 0.8313393831,
				"y": 1.127251189,
				"z": 1.250680958,
				"element": "C" 
			},
			{
				"x": 1.6635468751,
				"y": 0.1197277431,
				"z": 1.5151507624,
				"element": "C" 
			},
			{
				"x": 1.5859248959,
				"y": -1.2254129554,
				"z": 0.8499099332,
				"element": "C" 
			},
			{
				"x": 0.4670806838,
				"y": -1.3564215723,
				"z": -0.1669095938,
				"element": "C" 
			},
			{
				"x": -0.4087570176,
				"y": -0.2960360938,
				"z": -0.4452432913,
				"element": "C" 
			},
			{
				"x": -1.4230495078,
				"y": -0.4806503348,
				"z": -1.3962135401,
				"element": "C" 
			},
			{
				"x": -1.577160791,
				"y": -1.6906762171,
				"z": -2.0667020664,
				"element": "C" 
			},
			{
				"x": -0.7050354203,
				"y": -2.746556059,
				"z": -1.7895448178,
				"element": "C" 
			},
			{
				"x": 0.3044629408,
				"y": -2.5721177594,
				"z": -0.8472270088,
				"element": "C" 
			},
			{
				"x": -1.2415754504,
				"y": 1.2822415195,
				"z": 0.7543252581,
				"element": "H" 
			},
			{
				"x": -0.1678146286,
				"y": 1.8400054111,
				"z": -0.4988830031,
				"element": "H" 
			},
			{
				"x": 0.9483626824,
				"y": 2.075063564,
				"z": 1.7728221635,
				"element": "H" 
			},
			{
				"x": 2.454202622,
				"y": 0.2519892881,
				"z": 2.2513896995,
				"element": "H" 
			},
			{
				"x": 2.5485961733,
				"y": -1.4487488178,
				"z": 0.3645508823,
				"element": "H" 
			},
			{
				"x": 1.474917888,
				"y": -2.0065678236,
				"z": 1.6178117771,
				"element": "H" 
			},
			{
				"x": -2.1008724299,
				"y": 0.3431699391,
				"z": -1.6102242134,
				"element": "H" 
			},
			{
				"x": -2.3702802227,
				"y": -1.8105097621,
				"z": -2.7993743779,
				"element": "H" 
			},
			{
				"x": -0.8117828727,
				"y": -3.6973796478,
				"z": -2.3040800646,
				"element": "H" 
			},
			{
				"x": 0.9849438455,
				"y": -3.3927710104,
				"z": -0.6295216233,
				"element": "H" 
			}
		],
		 "valence_orbital": [ 
			{
				"type": "occ",
				"energy": -0.32447,
				"method": "rhf"
			},
			{
				"type": "occ",
				"energy": -0.31064,
				"method": "rhf"
			},
			{
				"type": "occ",
				"energy": -0.24843,
				"method": "rhf"
			},
			{
				"type": "occ",
				"energy": -0.23829,
				"method": "rhf"
			},
			{
				"type": "occ",
				"energy": -0.2254,
				"method": "rhf"
			},
			{
				"type": "unocc",
				"energy": 0.00157,
				"method": "rhf"
			},
			{
				"type": "unocc",
				"energy": 0.00776,
				"method": "rhf"
			},
			{
				"type": "unocc",
				"energy": 0.0339,
				"method": "rhf"
			},
			{
				"type": "unocc",
				"energy": 0.09947,
				"method": "rhf"
			},
			{
				"type": "unocc",
				"energy": 0.11397,
				"method": "rhf"
			}
		],
		"cosmo_sigma_profile": { 
			"-0.025": 0.0,
			"-0.024": 0.0,
			"-0.023": 0.0,
			"-0.022": 0.0,
			"-0.021": 0.0,
			"-0.02": 0.0,
			"-0.019": 0.0,
			"-0.018": 0.0,
			"-0.017": 0.0,
			"-0.016": 0.0,
			"-0.015": 0.0,
			"-0.014": 0.0,
			"-0.013": 0.0,
			"-0.012": 0.0,
			"-0.011": 0.0,
			"-0.01": 0.0,
			"-0.009": 0.0,
			"-0.008": 0.0,
			"-0.007": 0.0,
			"-0.006": 0.50649921053,
			"-0.005": 8.11888098636,
			"-0.004": 19.7129494072,
			"-0.003": 25.9822458624,
			"-0.002": 23.684014442,
			"-0.001": 18.4852399343,
			"0.0": 10.8204283796,
			"0.001": 9.36059946575,
			"0.002": 11.5338727078,
			"0.003": 11.6011619371,
			"0.004": 9.61834366861,
			"0.005": 10.7623673432,
			"0.006": 9.32110248382,
			"0.007": 7.04056610866,
			"0.008": 0.192789522686,
			"0.009": 0.0,
			"0.01": 0.0,
			"0.011": 0.0,
			"0.012": 0.0,
			"0.013": 0.0,
			"0.014": 0.0,
			"0.015": 0.0,
			"0.016": 0.0,
			"0.017": 0.0,
			"0.018": 0.0,
			"0.019": 0.0,
			"0.02": 0.0,
			"0.021": 0.0,
			"0.022": 0.0,
			"0.023": 0.0,
			"0.024": 0.0,
			"0.025": 0.0
		}
	}
}
