{
	 "smiles": "OC(=O)C1CN(C(=O)C1)C1=CC=C(Br)C=C1", 
	 "Tm": 447.15, 
	 "num_atms": 26, 
	 "gaussian": { 
		 "optdone": 1, 
		 "sigma_profile": "yes", 
		 "theory": "DFT", 
		 "functional": "B3LYP", 
		 "basiset": "6-31G**", 
		 "properties": { 
			 "R2extent": 8755.3719, 
			 "electric_dipole_moment_norm": 4.68093181322, 
			 "electric_quadrupole_moment_norm": 16.5836946857, 
			 "total_energy": -3277.05700295, 
			 "HOMO_LUMO_gap": 0.19755, 
			 "cosmo_polarized_energy": -16.53, 
			 "cosmo_cavitation_energy": 32.49, 
			 "cosmo_dispersion_energy": -24.25, 
			 "cosmo_repulsion_energy": 1.89, 
			 "cosmo_total_nonelectrostatic_energy": 10.13, 
			 "SMD_solvation_energy": 5.49 
		},
		"coords": [
			{
				"x": -0.5673447262,
				"y": -4.4680937076,
				"z": -1.8482756497,
				"element": "O" 
			},
			{
				"x": -1.401377509,
				"y": -3.4018157538,
				"z": -1.8226494076,
				"element": "C" 
			},
			{
				"x": -2.5515448168,
				"y": -3.4735496305,
				"z": -1.4538427273,
				"element": "O" 
			},
			{
				"x": -0.6893590594,
				"y": -2.1450177143,
				"z": -2.281521149,
				"element": "C" 
			},
			{
				"x": 0.3515728001,
				"y": -1.6632797034,
				"z": -1.23688091,
				"element": "C" 
			},
			{
				"x": 0.3770413893,
				"y": -0.2095567994,
				"z": -1.4111107835,
				"element": "N" 
			},
			{
				"x": -0.7348668429,
				"y": 0.2620899239,
				"z": -2.1075652362,
				"element": "C" 
			},
			{
				"x": -0.9854693351,
				"y": 1.4240103543,
				"z": -2.3723243354,
				"element": "O" 
			},
			{
				"x": -1.6031655818,
				"y": -0.9363088532,
				"z": -2.4690490653,
				"element": "C" 
			},
			{
				"x": 1.3703295351,
				"y": 0.5824257373,
				"z": -0.7872528293,
				"element": "C" 
			},
			{
				"x": 1.5068554411,
				"y": 1.955117,
				"z": -1.0677459036,
				"element": "C" 
			},
			{
				"x": 2.504861888,
				"y": 2.701462704,
				"z": -0.4474115841,
				"element": "C" 
			},
			{
				"x": 3.3772079625,
				"y": 2.0942511831,
				"z": 0.4539669477,
				"element": "C" 
			},
			{
				"x": 4.7468295697,
				"y": 3.1272959595,
				"z": 1.2964218862,
				"element": "Br" 
			},
			{
				"x": 3.2565798379,
				"y": 0.7395695332,
				"z": 0.7450825221,
				"element": "C" 
			},
			{
				"x": 2.256923753,
				"y": -0.0109623457,
				"z": 0.1278516601,
				"element": "C" 
			},
			{
				"x": -1.0784355349,
				"y": -5.2279066095,
				"z": -1.5208679078,
				"element": "H" 
			},
			{
				"x": -0.158832114,
				"y": -2.3792439653,
				"z": -3.2102528539,
				"element": "H" 
			},
			{
				"x": 1.3378248273,
				"y": -2.0974425442,
				"z": -1.4184164353,
				"element": "H" 
			},
			{
				"x": 0.0471476205,
				"y": -1.9270969089,
				"z": -0.2142363121,
				"element": "H" 
			},
			{
				"x": -2.455405195,
				"y": -0.9837958332,
				"z": -1.7815302334,
				"element": "H" 
			},
			{
				"x": -2.0010220864,
				"y": -0.824202353,
				"z": -3.4791631827,
				"element": "H" 
			},
			{
				"x": 0.825004086,
				"y": 2.4274342502,
				"z": -1.7595586933,
				"element": "H" 
			},
			{
				"x": 2.6017403518,
				"y": 3.7579444696,
				"z": -0.670719484,
				"element": "H" 
			},
			{
				"x": 3.9320252958,
				"y": 0.2676327687,
				"z": 1.4494131171,
				"element": "H" 
			},
			{
				"x": 2.1762784436,
				"y": -1.0615611618,
				"z": 0.3797385504,
				"element": "H" 
			}
		],
		 "valence_orbital": [ 
			{
				"type": "occ",
				"energy": -0.28542,
				"method": "rhf"
			},
			{
				"type": "occ",
				"energy": -0.28267,
				"method": "rhf"
			},
			{
				"type": "occ",
				"energy": -0.2655,
				"method": "rhf"
			},
			{
				"type": "occ",
				"energy": -0.26086,
				"method": "rhf"
			},
			{
				"type": "occ",
				"energy": -0.22244,
				"method": "rhf"
			},
			{
				"type": "unocc",
				"energy": -0.02489,
				"method": "rhf"
			},
			{
				"type": "unocc",
				"energy": -0.01558,
				"method": "rhf"
			},
			{
				"type": "unocc",
				"energy": -0.01366,
				"method": "rhf"
			},
			{
				"type": "unocc",
				"energy": 0.00966,
				"method": "rhf"
			},
			{
				"type": "unocc",
				"energy": 0.02907,
				"method": "rhf"
			}
		],
		"cosmo_sigma_profile": { 
			"-0.025": 0.0,
			"-0.024": 0.0,
			"-0.023": 0.0,
			"-0.022": 0.0,
			"-0.021": 0.0,
			"-0.02": 0.0,
			"-0.019": 0.146925851363,
			"-0.018": 0.941243079255,
			"-0.017": 0.953098249542,
			"-0.016": 0.912600655314,
			"-0.015": 0.697594255264,
			"-0.014": 0.841952509222,
			"-0.013": 0.98842495576,
			"-0.012": 0.374682339038,
			"-0.011": 0.846720172906,
			"-0.01": 0.604067320435,
			"-0.009": 0.397242261462,
			"-0.008": 3.36430687539,
			"-0.007": 18.4687794693,
			"-0.006": 21.9509548603,
			"-0.005": 15.9303821117,
			"-0.004": 13.7298924235,
			"-0.003": 13.969199105,
			"-0.002": 13.063074068,
			"-0.001": 11.6792507229,
			"0.0": 14.141986174,
			"0.001": 16.3750755225,
			"0.002": 18.4407738333,
			"0.003": 24.2538377841,
			"0.004": 22.3124142271,
			"0.005": 11.8823471559,
			"0.006": 4.01385887761,
			"0.007": 3.68177589174,
			"0.008": 4.62060813297,
			"0.009": 4.01213070678,
			"0.01": 4.14219252842,
			"0.011": 7.08176346333,
			"0.012": 4.68749123305,
			"0.013": 2.14563867415,
			"0.014": 0.550872995548,
			"0.015": 0.0,
			"0.016": 0.0,
			"0.017": 0.0,
			"0.018": 0.0,
			"0.019": 0.0,
			"0.02": 0.0,
			"0.021": 0.0,
			"0.022": 0.0,
			"0.023": 0.0,
			"0.024": 0.0,
			"0.025": 0.0
		}
	}
}
