{
	 "smiles": "CC(Cl)C(=O)NC1=C2C=CC=CC2=CC=C1", 
	 "Tm": 420.15, 
	 "num_atms": 28, 
	 "gaussian": { 
		 "optdone": 1, 
		 "sigma_profile": "yes", 
		 "theory": "DFT", 
		 "functional": "B3LYP", 
		 "basiset": "6-31G**", 
		 "properties": { 
			 "R2extent": 5142.425, 
			 "electric_dipole_moment_norm": 1.40772124371, 
			 "electric_quadrupole_moment_norm": 12.509859209, 
			 "total_energy": -1092.82008099, 
			 "HOMO_LUMO_gap": 0.16286, 
			 "cosmo_polarized_energy": -9.84, 
			 "cosmo_cavitation_energy": 32.92, 
			 "cosmo_dispersion_energy": -24.04, 
			 "cosmo_repulsion_energy": 1.84, 
			 "cosmo_total_nonelectrostatic_energy": 10.71, 
			 "SMD_solvation_energy": 5.36 
		},
		"coords": [
			{
				"x": -1.7071409155,
				"y": 4.2026528447,
				"z": -0.2649754057,
				"element": "C" 
			},
			{
				"x": -1.1474550544,
				"y": 3.3161745693,
				"z": -1.3735963796,
				"element": "C" 
			},
			{
				"x": 0.6847241514,
				"y": 3.4783082324,
				"z": -1.4339049434,
				"element": "Cl" 
			},
			{
				"x": -1.6606596932,
				"y": 1.8684542601,
				"z": -1.2358320327,
				"element": "C" 
			},
			{
				"x": -2.8724313317,
				"y": 1.7116878269,
				"z": -1.3238389445,
				"element": "O" 
			},
			{
				"x": -0.7368194955,
				"y": 0.8932831264,
				"z": -1.0152238521,
				"element": "N" 
			},
			{
				"x": -0.94970891,
				"y": -0.4929771196,
				"z": -0.8354118322,
				"element": "C" 
			},
			{
				"x": 0.2003244411,
				"y": -1.3545799831,
				"z": -0.8886061967,
				"element": "C" 
			},
			{
				"x": 1.5162546732,
				"y": -0.8992482181,
				"z": -1.1805750194,
				"element": "C" 
			},
			{
				"x": 2.5863542648,
				"y": -1.7672858168,
				"z": -1.1986629259,
				"element": "C" 
			},
			{
				"x": 2.3991209806,
				"y": -3.1422924086,
				"z": -0.9293840237,
				"element": "C" 
			},
			{
				"x": 1.136903646,
				"y": -3.6200596327,
				"z": -0.6634163614,
				"element": "C" 
			},
			{
				"x": 0.009508544,
				"y": -2.7552864548,
				"z": -0.6411183592,
				"element": "C" 
			},
			{
				"x": -1.295308189,
				"y": -3.2551003352,
				"z": -0.3887813887,
				"element": "C" 
			},
			{
				"x": -2.3731735396,
				"y": -2.4028962265,
				"z": -0.3812629679,
				"element": "C" 
			},
			{
				"x": -2.2087395208,
				"y": -1.0170285988,
				"z": -0.5984759858,
				"element": "C" 
			},
			{
				"x": -2.7952598002,
				"y": 4.1007353373,
				"z": -0.2636484318,
				"element": "H" 
			},
			{
				"x": -1.3222885347,
				"y": 3.8969986439,
				"z": 0.7117517369,
				"element": "H" 
			},
			{
				"x": -1.4425702526,
				"y": 5.2480716103,
				"z": -0.4363591538,
				"element": "H" 
			},
			{
				"x": -1.4824981733,
				"y": 3.6669672249,
				"z": -2.3510578251,
				"element": "H" 
			},
			{
				"x": 0.2183249862,
				"y": 1.2155526648,
				"z": -0.9556983704,
				"element": "H" 
			},
			{
				"x": 1.7013868469,
				"y": 0.1418040522,
				"z": -1.4277005899,
				"element": "H" 
			},
			{
				"x": 3.5790736276,
				"y": -1.3925357143,
				"z": -1.4296680303,
				"element": "H" 
			},
			{
				"x": 3.2497610529,
				"y": -3.817196234,
				"z": -0.9431066269,
				"element": "H" 
			},
			{
				"x": 0.9785373943,
				"y": -4.6774998849,
				"z": -0.4681494259,
				"element": "H" 
			},
			{
				"x": -1.4240418916,
				"y": -4.3187824627,
				"z": -0.2090919207,
				"element": "H" 
			},
			{
				"x": -3.3722072014,
				"y": -2.7862513152,
				"z": -0.1959289636,
				"element": "H" 
			},
			{
				"x": -3.0621721059,
				"y": -0.3544699879,
				"z": -0.5833757796,
				"element": "H" 
			}
		],
		 "valence_orbital": [ 
			{
				"type": "occ",
				"energy": -0.30879,
				"method": "rhf"
			},
			{
				"type": "occ",
				"energy": -0.26644,
				"method": "rhf"
			},
			{
				"type": "occ",
				"energy": -0.26324,
				"method": "rhf"
			},
			{
				"type": "occ",
				"energy": -0.24708,
				"method": "rhf"
			},
			{
				"type": "occ",
				"energy": -0.20853,
				"method": "rhf"
			},
			{
				"type": "unocc",
				"energy": -0.04567,
				"method": "rhf"
			},
			{
				"type": "unocc",
				"energy": -0.01248,
				"method": "rhf"
			},
			{
				"type": "unocc",
				"energy": -0.00092,
				"method": "rhf"
			},
			{
				"type": "unocc",
				"energy": 0.00765,
				"method": "rhf"
			},
			{
				"type": "unocc",
				"energy": 0.04876,
				"method": "rhf"
			}
		],
		"cosmo_sigma_profile": { 
			"-0.025": 0.0,
			"-0.024": 0.0,
			"-0.023": 0.0,
			"-0.022": 0.0,
			"-0.021": 0.0,
			"-0.02": 0.0,
			"-0.019": 0.0,
			"-0.018": 0.0,
			"-0.017": 0.0,
			"-0.016": 0.0,
			"-0.015": 0.0,
			"-0.014": 0.0,
			"-0.013": 0.0,
			"-0.012": 0.0,
			"-0.011": 0.0404681307039,
			"-0.01": 0.784075062641,
			"-0.009": 1.87122561027,
			"-0.008": 3.38224025458,
			"-0.007": 4.05289438445,
			"-0.006": 15.4641875444,
			"-0.005": 22.475197569,
			"-0.004": 22.2131093579,
			"-0.003": 19.4657009421,
			"-0.002": 18.0271576889,
			"-0.001": 20.0022671344,
			"0.0": 16.2170958402,
			"0.001": 17.4339521436,
			"0.002": 16.8497192027,
			"0.003": 21.9836816176,
			"0.004": 27.1795353057,
			"0.005": 20.9584183989,
			"0.006": 4.8118794044,
			"0.007": 0.893943107053,
			"0.008": 1.53685030185,
			"0.009": 1.7809477129,
			"0.01": 1.82737122709,
			"0.011": 2.00668810212,
			"0.012": 3.09840363274,
			"0.013": 1.12316889956,
			"0.014": 0.0,
			"0.015": 0.0,
			"0.016": 0.0,
			"0.017": 0.0,
			"0.018": 0.0,
			"0.019": 0.0,
			"0.02": 0.0,
			"0.021": 0.0,
			"0.022": 0.0,
			"0.023": 0.0,
			"0.024": 0.0,
			"0.025": 0.0
		}
	}
}
