{
	 "smiles": "BrC1=C2OCCOC2=C(S1)C#N", 
	 "Tm": 423.15, 
	 "num_atms": 16, 
	 "gaussian": { 
		 "optdone": 1, 
		 "sigma_profile": "yes", 
		 "theory": "DFT", 
		 "functional": "B3LYP", 
		 "basiset": "6-31G**", 
		 "properties": { 
			 "R2extent": 7610.0059, 
			 "electric_dipole_moment_norm": 5.5414139802, 
			 "electric_quadrupole_moment_norm": 17.9048402749, 
			 "total_energy": -3443.87307329, 
			 "HOMO_LUMO_gap": 0.17408, 
			 "cosmo_polarized_energy": -11.81, 
			 "cosmo_cavitation_energy": 25.35, 
			 "cosmo_dispersion_energy": -19.45, 
			 "cosmo_repulsion_energy": 1.52, 
			 "cosmo_total_nonelectrostatic_energy": 7.42, 
			 "SMD_solvation_energy": 4.8 
		},
		"coords": [
			{
				"x": 3.5175354008,
				"y": 1.9020242502,
				"z": -3.6160119631,
				"element": "Br" 
			},
			{
				"x": 1.9926847385,
				"y": 0.8356723451,
				"z": -3.3924620911,
				"element": "C" 
			},
			{
				"x": 1.3414628965,
				"y": 0.5980094785,
				"z": -2.2113002695,
				"element": "C" 
			},
			{
				"x": 1.6980038751,
				"y": 1.1108155091,
				"z": -1.0038481285,
				"element": "O" 
			},
			{
				"x": 1.0967206131,
				"y": 0.3989161391,
				"z": 0.0899078508,
				"element": "C" 
			},
			{
				"x": -0.3842276562,
				"y": 0.1674956054,
				"z": -0.1676297815,
				"element": "C" 
			},
			{
				"x": -0.5790139752,
				"y": -0.636330072,
				"z": -1.3459693974,
				"element": "O" 
			},
			{
				"x": 0.2095340038,
				"y": -0.2624225407,
				"z": -2.3800490003,
				"element": "C" 
			},
			{
				"x": 0.0228094727,
				"y": -0.6713678152,
				"z": -3.684346547,
				"element": "C" 
			},
			{
				"x": 1.2531755694,
				"y": 0.0192640673,
				"z": -4.7383022659,
				"element": "S" 
			},
			{
				"x": -0.9941885518,
				"y": -1.5105255666,
				"z": -4.1832638538,
				"element": "C" 
			},
			{
				"x": -1.8309479621,
				"y": -2.2022188766,
				"z": -4.6080235805,
				"element": "N" 
			},
			{
				"x": 1.6123618744,
				"y": -0.5594340599,
				"z": 0.2324067257,
				"element": "H" 
			},
			{
				"x": 1.2447368011,
				"y": 1.0215071463,
				"z": 0.9745498774,
				"element": "H" 
			},
			{
				"x": -0.9040793216,
				"y": 1.1252553314,
				"z": -0.293252246,
				"element": "H" 
			},
			{
				"x": -0.8436677786,
				"y": -0.3868609414,
				"z": 0.6529946708,
				"element": "H" 
			}
		],
		 "valence_orbital": [ 
			{
				"type": "occ",
				"energy": -0.32781,
				"method": "rhf"
			},
			{
				"type": "occ",
				"energy": -0.31313,
				"method": "rhf"
			},
			{
				"type": "occ",
				"energy": -0.30954,
				"method": "rhf"
			},
			{
				"type": "occ",
				"energy": -0.24605,
				"method": "rhf"
			},
			{
				"type": "occ",
				"energy": -0.23395,
				"method": "rhf"
			},
			{
				"type": "unocc",
				"energy": -0.05987,
				"method": "rhf"
			},
			{
				"type": "unocc",
				"energy": -0.02055,
				"method": "rhf"
			},
			{
				"type": "unocc",
				"energy": -0.01219,
				"method": "rhf"
			},
			{
				"type": "unocc",
				"energy": 0.01452,
				"method": "rhf"
			},
			{
				"type": "unocc",
				"energy": 0.03695,
				"method": "rhf"
			}
		],
		"cosmo_sigma_profile": { 
			"-0.025": 0.0,
			"-0.024": 0.0,
			"-0.023": 0.0,
			"-0.022": 0.0,
			"-0.021": 0.0,
			"-0.02": 0.0,
			"-0.019": 0.0,
			"-0.018": 0.0,
			"-0.017": 0.0,
			"-0.016": 0.0,
			"-0.015": 0.0,
			"-0.014": 0.0,
			"-0.013": 0.0,
			"-0.012": 0.0,
			"-0.011": 0.0,
			"-0.01": 0.0,
			"-0.009": 0.862086684899,
			"-0.008": 9.11443211091,
			"-0.007": 14.9002819711,
			"-0.006": 11.9246743427,
			"-0.005": 9.71366846415,
			"-0.004": 9.38902220773,
			"-0.003": 10.199980706,
			"-0.002": 12.5347860053,
			"-0.001": 19.7614738197,
			"0.0": 22.2844576668,
			"0.001": 14.0618528197,
			"0.002": 17.8794952002,
			"0.003": 14.5302671825,
			"0.004": 6.23296416782,
			"0.005": 5.88186654757,
			"0.006": 5.89226351645,
			"0.007": 5.86313831971,
			"0.008": 5.78498710417,
			"0.009": 4.29044515053,
			"0.01": 2.9754469955,
			"0.011": 2.80830850567,
			"0.012": 2.30158796555,
			"0.013": 1.25670317834,
			"0.014": 0.0,
			"0.015": 0.0,
			"0.016": 0.0,
			"0.017": 0.0,
			"0.018": 0.0,
			"0.019": 0.0,
			"0.02": 0.0,
			"0.021": 0.0,
			"0.022": 0.0,
			"0.023": 0.0,
			"0.024": 0.0,
			"0.025": 0.0
		}
	}
}
