{
	 "smiles": "COC(=O)CC(O)(CC(=O)OC)C(=O)OC", 
	 "Tm": 352.45, 
	 "num_atms": 30, 
	 "gaussian": { 
		 "optdone": 1, 
		 "sigma_profile": "yes", 
		 "theory": "DFT", 
		 "functional": "B3LYP", 
		 "basiset": "6-31G**", 
		 "properties": { 
			 "R2extent": 3716.2533, 
			 "electric_dipole_moment_norm": 2.61874651885, 
			 "electric_quadrupole_moment_norm": 6.61604159222, 
			 "total_energy": -877.976084348, 
			 "HOMO_LUMO_gap": 0.26353, 
			 "cosmo_polarized_energy": -15.81, 
			 "cosmo_cavitation_energy": 33.87, 
			 "cosmo_dispersion_energy": -22.8, 
			 "cosmo_repulsion_energy": 1.81, 
			 "cosmo_total_nonelectrostatic_energy": 12.88, 
			 "SMD_solvation_energy": 9.57 
		},
		"coords": [
			{
				"x": -3.3257808,
				"y": 2.9017887717,
				"z": 0.9725082854,
				"element": "C" 
			},
			{
				"x": -3.2219564691,
				"y": 1.5301305693,
				"z": 0.5595687038,
				"element": "O" 
			},
			{
				"x": -2.23775685,
				"y": 1.2696924758,
				"z": -0.3181622578,
				"element": "C" 
			},
			{
				"x": -1.5302307888,
				"y": 2.124773183,
				"z": -0.8125902507,
				"element": "O" 
			},
			{
				"x": -2.2138047919,
				"y": -0.1986106065,
				"z": -0.6932863523,
				"element": "C" 
			},
			{
				"x": -0.8269705774,
				"y": -0.8410822281,
				"z": -0.9788178908,
				"element": "C" 
			},
			{
				"x": -1.0560987517,
				"y": -2.0516900083,
				"z": -1.693023748,
				"element": "O" 
			},
			{
				"x": -0.0514238195,
				"y": -1.2778853651,
				"z": 0.2777353564,
				"element": "C" 
			},
			{
				"x": 0.222151652,
				"y": -0.2118422737,
				"z": 1.3170187776,
				"element": "C" 
			},
			{
				"x": -0.5913733279,
				"y": 0.5809472537,
				"z": 1.7463171303,
				"element": "O" 
			},
			{
				"x": 1.4875801985,
				"y": -0.2910198795,
				"z": 1.7724040992,
				"element": "O" 
			},
			{
				"x": 1.8270774058,
				"y": 0.6484918068,
				"z": 2.8059511327,
				"element": "C" 
			},
			{
				"x": -0.0110403168,
				"y": 0.0706080793,
				"z": -1.9143205524,
				"element": "C" 
			},
			{
				"x": -0.2384629916,
				"y": 0.1002804826,
				"z": -3.1084603748,
				"element": "O" 
			},
			{
				"x": 0.957846279,
				"y": 0.7510961039,
				"z": -1.3013952649,
				"element": "O" 
			},
			{
				"x": 1.6280802229,
				"y": 1.7414130179,
				"z": -2.1046645516,
				"element": "C" 
			},
			{
				"x": -3.4757192539,
				"y": 3.5569631217,
				"z": 0.1107657248,
				"element": "H" 
			},
			{
				"x": -2.4165624606,
				"y": 3.2034148337,
				"z": 1.4980526304,
				"element": "H" 
			},
			{
				"x": -4.1853618329,
				"y": 2.9435103278,
				"z": 1.6414213773,
				"element": "H" 
			},
			{
				"x": -2.7377379684,
				"y": -0.792005157,
				"z": 0.0578240746,
				"element": "H" 
			},
			{
				"x": -2.7798477612,
				"y": -0.282177794,
				"z": -1.628921245,
				"element": "H" 
			},
			{
				"x": -1.1227080937,
				"y": -1.7913766169,
				"z": -2.6270958563,
				"element": "H" 
			},
			{
				"x": 0.8859587124,
				"y": -1.7425825585,
				"z": -0.0301875594,
				"element": "H" 
			},
			{
				"x": -0.6554036763,
				"y": -2.0546839333,
				"z": 0.7621711413,
				"element": "H" 
			},
			{
				"x": 1.1836764703,
				"y": 0.5114501229,
				"z": 3.6787014228,
				"element": "H" 
			},
			{
				"x": 1.7150161922,
				"y": 1.6730377438,
				"z": 2.44293964,
				"element": "H" 
			},
			{
				"x": 2.8666947975,
				"y": 0.4425999318,
				"z": 3.0599791744,
				"element": "H" 
			},
			{
				"x": 0.9215537541,
				"y": 2.5353505949,
				"z": -2.3554030079,
				"element": "H" 
			},
			{
				"x": 2.4356763628,
				"y": 2.125961022,
				"z": -1.4828338785,
				"element": "H" 
			},
			{
				"x": 2.0204284841,
				"y": 1.2912469783,
				"z": -3.0185958805,
				"element": "H" 
			}
		],
		 "valence_orbital": [ 
			{
				"type": "occ",
				"energy": -0.29367,
				"method": "rhf"
			},
			{
				"type": "occ",
				"energy": -0.29119,
				"method": "rhf"
			},
			{
				"type": "occ",
				"energy": -0.27857,
				"method": "rhf"
			},
			{
				"type": "occ",
				"energy": -0.27146,
				"method": "rhf"
			},
			{
				"type": "occ",
				"energy": -0.26534,
				"method": "rhf"
			},
			{
				"type": "unocc",
				"energy": -0.00181,
				"method": "rhf"
			},
			{
				"type": "unocc",
				"energy": 0.01174,
				"method": "rhf"
			},
			{
				"type": "unocc",
				"energy": 0.02254,
				"method": "rhf"
			},
			{
				"type": "unocc",
				"energy": 0.09306,
				"method": "rhf"
			},
			{
				"type": "unocc",
				"energy": 0.11042,
				"method": "rhf"
			}
		],
		"cosmo_sigma_profile": { 
			"-0.025": 0.0,
			"-0.024": 0.0,
			"-0.023": 0.0,
			"-0.022": 0.0,
			"-0.021": 0.0,
			"-0.02": 0.0,
			"-0.019": 0.0,
			"-0.018": 0.0,
			"-0.017": 0.0,
			"-0.016": 0.0,
			"-0.015": 0.0,
			"-0.014": 0.0,
			"-0.013": 0.260214605756,
			"-0.012": 0.457397729473,
			"-0.011": 0.567872597829,
			"-0.01": 0.743500689746,
			"-0.009": 0.682730587757,
			"-0.008": 2.98915408237,
			"-0.007": 11.4146486714,
			"-0.006": 20.9270432315,
			"-0.005": 25.0596241929,
			"-0.004": 30.2271868829,
			"-0.003": 27.4173356379,
			"-0.002": 17.9222131688,
			"-0.001": 12.144336849,
			"0.0": 10.8070450664,
			"0.001": 8.63981699146,
			"0.002": 10.3892859443,
			"0.003": 9.73441786792,
			"0.004": 8.4587204776,
			"0.005": 7.96641571655,
			"0.006": 9.59456997089,
			"0.007": 9.87849946845,
			"0.008": 10.1538396819,
			"0.009": 9.45359808661,
			"0.01": 7.49505716057,
			"0.011": 8.28434966808,
			"0.012": 3.16683304328,
			"0.013": 0.549870468767,
			"0.014": 0.0,
			"0.015": 0.0,
			"0.016": 0.0,
			"0.017": 0.0,
			"0.018": 0.0,
			"0.019": 0.0,
			"0.02": 0.0,
			"0.021": 0.0,
			"0.022": 0.0,
			"0.023": 0.0,
			"0.024": 0.0,
			"0.025": 0.0
		}
	}
}
