{
	 "smiles": "NC1=C(CC(F)(F)F)C=CC=C1", 
	 "Tm": 318.15, 
	 "num_atms": 20, 
	 "gaussian": { 
		 "optdone": 1, 
		 "sigma_profile": "yes", 
		 "theory": "DFT", 
		 "functional": "B3LYP", 
		 "basiset": "6-31G**", 
		 "properties": { 
			 "R2extent": 2222.0331, 
			 "electric_dipole_moment_norm": 1.42192416816, 
			 "electric_quadrupole_moment_norm": 9.07230349085, 
			 "total_energy": -663.965584003, 
			 "HOMO_LUMO_gap": 0.20417, 
			 "cosmo_polarized_energy": -7.57, 
			 "cosmo_cavitation_energy": 24.45, 
			 "cosmo_dispersion_energy": -17.62, 
			 "cosmo_repulsion_energy": 1.35, 
			 "cosmo_total_nonelectrostatic_energy": 8.18, 
			 "SMD_solvation_energy": 5.0 
		},
		"coords": [
			{
				"x": 2.2112282142,
				"y": -0.1811272088,
				"z": -1.238694182,
				"element": "N" 
			},
			{
				"x": 1.0832168515,
				"y": 0.6194506779,
				"z": -1.4644196956,
				"element": "C" 
			},
			{
				"x": -0.2177588334,
				"y": 0.0820309021,
				"z": -1.3292327841,
				"element": "C" 
			},
			{
				"x": -0.4233328737,
				"y": -1.3675990392,
				"z": -0.9502494789,
				"element": "C" 
			},
			{
				"x": -0.4470602177,
				"y": -1.6355795043,
				"z": 0.5423846529,
				"element": "C" 
			},
			{
				"x": -0.6592289419,
				"y": -2.9446713348,
				"z": 0.7992602073,
				"element": "F" 
			},
			{
				"x": 0.7350064395,
				"y": -1.306357333,
				"z": 1.137969188,
				"element": "F" 
			},
			{
				"x": -1.4105812211,
				"y": -0.937016341,
				"z": 1.1717314592,
				"element": "F" 
			},
			{
				"x": -1.3216301483,
				"y": 0.8990555746,
				"z": -1.5922354057,
				"element": "C" 
			},
			{
				"x": -1.1736103255,
				"y": 2.2206399179,
				"z": -2.0095965438,
				"element": "C" 
			},
			{
				"x": 0.1129105324,
				"y": 2.7374534597,
				"z": -2.1712083379,
				"element": "C" 
			},
			{
				"x": 1.2261763982,
				"y": 1.9480088045,
				"z": -1.8985907378,
				"element": "C" 
			},
			{
				"x": 3.0800423138,
				"y": 0.3372264922,
				"z": -1.2404054583,
				"element": "H" 
			},
			{
				"x": 2.1459096362,
				"y": -0.7654530967,
				"z": -0.4155372875,
				"element": "H" 
			},
			{
				"x": 0.3633285481,
				"y": -1.9989039028,
				"z": -1.3771615708,
				"element": "H" 
			},
			{
				"x": -1.3794679442,
				"y": -1.729996258,
				"z": -1.338767951,
				"element": "H" 
			},
			{
				"x": -2.318012163,
				"y": 0.479353946,
				"z": -1.4774038577,
				"element": "H" 
			},
			{
				"x": -2.0465189318,
				"y": 2.8326586157,
				"z": -2.2126421007,
				"element": "H" 
			},
			{
				"x": 0.2535022898,
				"y": 3.7624377789,
				"z": -2.5028540043,
				"element": "H" 
			},
			{
				"x": 2.2260803768,
				"y": 2.360387849,
				"z": -2.0132461113,
				"element": "H" 
			}
		],
		 "valence_orbital": [ 
			{
				"type": "occ",
				"energy": -0.35283,
				"method": "rhf"
			},
			{
				"type": "occ",
				"energy": -0.34183,
				"method": "rhf"
			},
			{
				"type": "occ",
				"energy": -0.30726,
				"method": "rhf"
			},
			{
				"type": "occ",
				"energy": -0.24737,
				"method": "rhf"
			},
			{
				"type": "occ",
				"energy": -0.20851,
				"method": "rhf"
			},
			{
				"type": "unocc",
				"energy": -0.00434,
				"method": "rhf"
			},
			{
				"type": "unocc",
				"energy": 0.01235,
				"method": "rhf"
			},
			{
				"type": "unocc",
				"energy": 0.08251,
				"method": "rhf"
			},
			{
				"type": "unocc",
				"energy": 0.09915,
				"method": "rhf"
			},
			{
				"type": "unocc",
				"energy": 0.1087,
				"method": "rhf"
			}
		],
		"cosmo_sigma_profile": { 
			"-0.025": 0.0,
			"-0.024": 0.0,
			"-0.023": 0.0,
			"-0.022": 0.0,
			"-0.021": 0.0,
			"-0.02": 0.0,
			"-0.019": 0.0,
			"-0.018": 0.0,
			"-0.017": 0.0,
			"-0.016": 0.0,
			"-0.015": 0.0,
			"-0.014": 0.0,
			"-0.013": 0.0683934390367,
			"-0.012": 0.996301661324,
			"-0.011": 1.63365910193,
			"-0.01": 1.74954548589,
			"-0.009": 3.13067286379,
			"-0.008": 3.28585163078,
			"-0.007": 6.31600089926,
			"-0.006": 9.36420267566,
			"-0.005": 11.7144916831,
			"-0.004": 12.459383378,
			"-0.003": 12.4909492282,
			"-0.002": 9.51089759811,
			"-0.001": 9.66679440436,
			"0.0": 9.94008391961,
			"0.001": 11.1790594409,
			"0.002": 18.6504591041,
			"0.003": 33.3597307105,
			"0.004": 12.2971381646,
			"0.005": 8.56177505089,
			"0.006": 8.59807591442,
			"0.007": 5.19727180296,
			"0.008": 0.685240902648,
			"0.009": 0.468848386744,
			"0.01": 0.65889817693,
			"0.011": 0.790501152187,
			"0.012": 0.628395257283,
			"0.013": 0.408263451242,
			"0.014": 0.49248091294,
			"0.015": 0.122748509437,
			"0.016": 0.0,
			"0.017": 0.0,
			"0.018": 0.0,
			"0.019": 0.0,
			"0.02": 0.0,
			"0.021": 0.0,
			"0.022": 0.0,
			"0.023": 0.0,
			"0.024": 0.0,
			"0.025": 0.0
		}
	}
}
