{
	 "smiles": "NC(=S)CCN1CCCCC1", 
	 "Tm": 378.15, 
	 "num_atms": 27, 
	 "gaussian": { 
		 "optdone": 1, 
		 "sigma_profile": "yes", 
		 "theory": "DFT", 
		 "functional": "B3LYP", 
		 "basiset": "6-31G**", 
		 "properties": { 
			 "R2extent": 3349.7752, 
			 "electric_dipole_moment_norm": 4.28897266604, 
			 "electric_quadrupole_moment_norm": 18.905874234, 
			 "total_energy": -822.186779984, 
			 "HOMO_LUMO_gap": 0.17256, 
			 "cosmo_polarized_energy": -15.46, 
			 "cosmo_cavitation_energy": 29.46, 
			 "cosmo_dispersion_energy": -21.89, 
			 "cosmo_repulsion_energy": 1.75, 
			 "cosmo_total_nonelectrostatic_energy": 9.32, 
			 "SMD_solvation_energy": 1.38 
		},
		"coords": [
			{
				"x": 1.4142884692,
				"y": 3.1647713928,
				"z": -0.040787795,
				"element": "N" 
			},
			{
				"x": 0.3476216889,
				"y": 2.720403866,
				"z": 0.6525180675,
				"element": "C" 
			},
			{
				"x": -0.8715686981,
				"y": 3.7395082774,
				"z": 1.1535466326,
				"element": "S" 
			},
			{
				"x": 0.3321411872,
				"y": 1.2266223675,
				"z": 0.9067278772,
				"element": "C" 
			},
			{
				"x": -0.7667671013,
				"y": 0.5147762899,
				"z": 0.0870622937,
				"element": "C" 
			},
			{
				"x": -0.6819207399,
				"y": -0.9349654591,
				"z": 0.2076078213,
				"element": "N" 
			},
			{
				"x": -1.4417162513,
				"y": -1.6449779663,
				"z": -0.8241743113,
				"element": "C" 
			},
			{
				"x": -0.96824553,
				"y": -3.1121562541,
				"z": -0.9125451075,
				"element": "C" 
			},
			{
				"x": -0.5078946714,
				"y": -3.6315907118,
				"z": 0.4670095642,
				"element": "C" 
			},
			{
				"x": -1.2996561973,
				"y": -2.9307749212,
				"z": 1.5752828744,
				"element": "C" 
			},
			{
				"x": -1.0335279404,
				"y": -1.4100828286,
				"z": 1.556617597,
				"element": "C" 
			},
			{
				"x": 2.1563766813,
				"y": 2.5461775928,
				"z": -0.3325635071,
				"element": "H" 
			},
			{
				"x": 1.482172762,
				"y": 4.1480843395,
				"z": -0.2611457843,
				"element": "H" 
			},
			{
				"x": 1.2982443141,
				"y": 0.7712280361,
				"z": 0.6548788877,
				"element": "H" 
			},
			{
				"x": 0.1592850052,
				"y": 1.0718684397,
				"z": 1.9746765502,
				"element": "H" 
			},
			{
				"x": -1.7478358167,
				"y": 0.9157962065,
				"z": 0.397643121,
				"element": "H" 
			},
			{
				"x": -0.6334195543,
				"y": 0.7750987172,
				"z": -0.9694764415,
				"element": "H" 
			},
			{
				"x": -2.5317116917,
				"y": -1.6021985807,
				"z": -0.6332350628,
				"element": "H" 
			},
			{
				"x": -1.2809168646,
				"y": -1.1405390955,
				"z": -1.7824838729,
				"element": "H" 
			},
			{
				"x": -0.1459357366,
				"y": -3.1961641284,
				"z": -1.6312389945,
				"element": "H" 
			},
			{
				"x": -1.7905462514,
				"y": -3.7271946367,
				"z": -1.2977321947,
				"element": "H" 
			},
			{
				"x": 0.5594131445,
				"y": -3.4237093495,
				"z": 0.6030274535,
				"element": "H" 
			},
			{
				"x": -0.6299748716,
				"y": -4.71851017,
				"z": 0.5288318654,
				"element": "H" 
			},
			{
				"x": -1.0462203674,
				"y": -3.3323744537,
				"z": 2.5621746057,
				"element": "H" 
			},
			{
				"x": -2.3694322734,
				"y": -3.1256842814,
				"z": 1.4290340791,
				"element": "H" 
			},
			{
				"x": -0.1999828892,
				"y": -1.1781245253,
				"z": 2.230688684,
				"element": "H" 
			},
			{
				"x": -1.9191698058,
				"y": -0.8745881631,
				"z": 1.9498550971,
				"element": "H" 
			}
		],
		 "valence_orbital": [ 
			{
				"type": "occ",
				"energy": -0.31188,
				"method": "rhf"
			},
			{
				"type": "occ",
				"energy": -0.30923,
				"method": "rhf"
			},
			{
				"type": "occ",
				"energy": -0.22728,
				"method": "rhf"
			},
			{
				"type": "occ",
				"energy": -0.21292,
				"method": "rhf"
			},
			{
				"type": "occ",
				"energy": -0.19998,
				"method": "rhf"
			},
			{
				"type": "unocc",
				"energy": -0.02742,
				"method": "rhf"
			},
			{
				"type": "unocc",
				"energy": 0.06112,
				"method": "rhf"
			},
			{
				"type": "unocc",
				"energy": 0.07843,
				"method": "rhf"
			},
			{
				"type": "unocc",
				"energy": 0.09144,
				"method": "rhf"
			},
			{
				"type": "unocc",
				"energy": 0.11114,
				"method": "rhf"
			}
		],
		"cosmo_sigma_profile": { 
			"-0.025": 0.0,
			"-0.024": 0.0,
			"-0.023": 0.0,
			"-0.022": 0.0,
			"-0.021": 0.0,
			"-0.02": 0.0,
			"-0.019": 0.0,
			"-0.018": 0.0,
			"-0.017": 0.0,
			"-0.016": 0.267152455072,
			"-0.015": 2.20907250442,
			"-0.014": 2.47600013417,
			"-0.013": 2.9026304362,
			"-0.012": 3.01998399465,
			"-0.011": 2.2593747434,
			"-0.01": 1.50598198929,
			"-0.009": 2.30053795403,
			"-0.008": 2.04339900045,
			"-0.007": 1.68601163101,
			"-0.006": 2.17922476437,
			"-0.005": 4.684528757,
			"-0.004": 9.65985584971,
			"-0.003": 14.0662363873,
			"-0.002": 27.0182063103,
			"-0.001": 40.7030719815,
			"0.0": 33.5284095474,
			"0.001": 18.1658581665,
			"0.002": 7.22928640314,
			"0.003": 4.02289257028,
			"0.004": 4.53377013419,
			"0.005": 5.28866843604,
			"0.006": 4.36793392158,
			"0.007": 5.02461918679,
			"0.008": 5.04876889611,
			"0.009": 7.01260636899,
			"0.01": 7.0499745986,
			"0.011": 4.49693136917,
			"0.012": 3.50393266902,
			"0.013": 1.68272020747,
			"0.014": 0.34485003685,
			"0.015": 0.109184287045,
			"0.016": 0.0,
			"0.017": 0.0,
			"0.018": 0.0,
			"0.019": 0.0,
			"0.02": 0.0,
			"0.021": 0.0,
			"0.022": 0.0,
			"0.023": 0.0,
			"0.024": 0.0,
			"0.025": 0.0
		}
	}
}
