{
	 "smiles": "OC1=CC=C(NC(=O)CCl)C=C1", 
	 "Tm": 419.15, 
	 "num_atms": 20, 
	 "gaussian": { 
		 "optdone": 1, 
		 "sigma_profile": "yes", 
		 "theory": "DFT", 
		 "functional": "B3LYP", 
		 "basiset": "6-31G**", 
		 "properties": { 
			 "R2extent": 4566.4082, 
			 "electric_dipole_moment_norm": 2.94096812291, 
			 "electric_quadrupole_moment_norm": 9.37846125012, 
			 "total_energy": -975.077917134, 
			 "HOMO_LUMO_gap": 0.19626, 
			 "cosmo_polarized_energy": -14.88, 
			 "cosmo_cavitation_energy": 26.19, 
			 "cosmo_dispersion_energy": -19.69, 
			 "cosmo_repulsion_energy": 1.58, 
			 "cosmo_total_nonelectrostatic_energy": 8.08, 
			 "SMD_solvation_energy": 5.07 
		},
		"coords": [
			{
				"x": -1.4964492253,
				"y": 2.3181564826,
				"z": -2.1780201173,
				"element": "O" 
			},
			{
				"x": -0.5539841905,
				"y": 1.8027883195,
				"z": -1.3321102471,
				"element": "C" 
			},
			{
				"x": -0.130516064,
				"y": 2.4608584727,
				"z": -0.1735914035,
				"element": "C" 
			},
			{
				"x": 0.8343373985,
				"y": 1.8781868334,
				"z": 0.6443309082,
				"element": "C" 
			},
			{
				"x": 1.3906010472,
				"y": 0.6344496963,
				"z": 0.3213764793,
				"element": "C" 
			},
			{
				"x": 2.3662291106,
				"y": 0.1070390839,
				"z": 1.2022374016,
				"element": "N" 
			},
			{
				"x": 3.0404703543,
				"y": -1.0676143183,
				"z": 1.1076433581,
				"element": "C" 
			},
			{
				"x": 2.9263506949,
				"y": -1.9061261916,
				"z": 0.2219316444,
				"element": "O" 
			},
			{
				"x": 4.0500561592,
				"y": -1.3869167466,
				"z": 2.2175187623,
				"element": "C" 
			},
			{
				"x": 4.2442020142,
				"y": -0.1621860322,
				"z": 3.5479061114,
				"element": "Cl" 
			},
			{
				"x": 0.9642918244,
				"y": -0.0251072614,
				"z": -0.842582662,
				"element": "C" 
			},
			{
				"x": 0.0000283935,
				"y": 0.5604296833,
				"z": -1.6569295885,
				"element": "C" 
			},
			{
				"x": -1.7938510051,
				"y": 3.1724952519,
				"z": -1.8398268615,
				"element": "H" 
			},
			{
				"x": -0.5511807502,
				"y": 3.4277446715,
				"z": 0.0936328731,
				"element": "H" 
			},
			{
				"x": 1.1555960473,
				"y": 2.3996544721,
				"z": 1.5429428731,
				"element": "H" 
			},
			{
				"x": 2.5899733338,
				"y": 0.6788074779,
				"z": 2.0065281889,
				"element": "H" 
			},
			{
				"x": 5.0303244516,
				"y": -1.5172161652,
				"z": 1.7587706109,
				"element": "H" 
			},
			{
				"x": 3.7532612856,
				"y": -2.3243367944,
				"z": 2.6881864213,
				"element": "H" 
			},
			{
				"x": 1.3910234372,
				"y": -0.9854646376,
				"z": -1.0956729327,
				"element": "H" 
			},
			{
				"x": -0.3360643173,
				"y": 0.058857702,
				"z": -2.5583718202,
				"element": "H" 
			}
		],
		 "valence_orbital": [ 
			{
				"type": "occ",
				"energy": -0.31616,
				"method": "rhf"
			},
			{
				"type": "occ",
				"energy": -0.29257,
				"method": "rhf"
			},
			{
				"type": "occ",
				"energy": -0.26353,
				"method": "rhf"
			},
			{
				"type": "occ",
				"energy": -0.25803,
				"method": "rhf"
			},
			{
				"type": "occ",
				"energy": -0.20894,
				"method": "rhf"
			},
			{
				"type": "unocc",
				"energy": -0.01268,
				"method": "rhf"
			},
			{
				"type": "unocc",
				"energy": -0.0085,
				"method": "rhf"
			},
			{
				"type": "unocc",
				"energy": 0.00852,
				"method": "rhf"
			},
			{
				"type": "unocc",
				"energy": 0.04496,
				"method": "rhf"
			},
			{
				"type": "unocc",
				"energy": 0.0669,
				"method": "rhf"
			}
		],
		"cosmo_sigma_profile": { 
			"-0.025": 0.0,
			"-0.024": 0.0,
			"-0.023": 0.0,
			"-0.022": 0.0,
			"-0.021": 0.0,
			"-0.02": 0.0,
			"-0.019": 0.0,
			"-0.018": 0.235473536807,
			"-0.017": 1.51392810487,
			"-0.016": 0.548200102918,
			"-0.015": 1.51544073747,
			"-0.014": 1.12808906936,
			"-0.013": 1.49807993893,
			"-0.012": 1.90800739788,
			"-0.011": 1.51328726322,
			"-0.01": 2.94182906858,
			"-0.009": 5.53240141104,
			"-0.008": 7.04208564262,
			"-0.007": 6.85605692989,
			"-0.006": 9.59726447703,
			"-0.005": 11.4335943806,
			"-0.004": 10.9871757485,
			"-0.003": 8.88172011066,
			"-0.002": 7.94317181158,
			"-0.001": 10.4946716301,
			"0.0": 10.7028830457,
			"0.001": 12.0275577495,
			"0.002": 13.1166320852,
			"0.003": 16.8830497579,
			"0.004": 19.6415997886,
			"0.005": 19.6412627353,
			"0.006": 5.76838448726,
			"0.007": 1.78108591534,
			"0.008": 2.95589848142,
			"0.009": 3.58687264289,
			"0.01": 2.80073910907,
			"0.011": 4.19584552793,
			"0.012": 3.94972128194,
			"0.013": 2.45119325748,
			"0.014": 0.248687306534,
			"0.015": 0.0,
			"0.016": 0.0,
			"0.017": 0.0,
			"0.018": 0.0,
			"0.019": 0.0,
			"0.02": 0.0,
			"0.021": 0.0,
			"0.022": 0.0,
			"0.023": 0.0,
			"0.024": 0.0,
			"0.025": 0.0
		}
	}
}
