{
	 "smiles": "CC1=CC(=O)NC=C1C(O)=O", 
	 "Tm": 580.15, 
	 "num_atms": 18, 
	 "gaussian": { 
		 "optdone": 1, 
		 "sigma_profile": "yes", 
		 "theory": "DFT", 
		 "functional": "B3LYP", 
		 "basiset": "6-31G**", 
		 "properties": { 
			 "R2extent": 2018.8918, 
			 "electric_dipole_moment_norm": 2.66093022456, 
			 "electric_quadrupole_moment_norm": 11.842239064, 
			 "total_energy": -551.415879989, 
			 "HOMO_LUMO_gap": 0.17939, 
			 "cosmo_polarized_energy": -16.46, 
			 "cosmo_cavitation_energy": 22.52, 
			 "cosmo_dispersion_energy": -16.87, 
			 "cosmo_repulsion_energy": 1.35, 
			 "cosmo_total_nonelectrostatic_energy": 7.0, 
			 "SMD_solvation_energy": 6.2 
		},
		"coords": [
			{
				"x": 1.6133963538,
				"y": 1.3664175269,
				"z": -1.2710912946,
				"element": "C" 
			},
			{
				"x": 0.9459752052,
				"y": 0.5090216059,
				"z": -0.2245354468,
				"element": "C" 
			},
			{
				"x": 1.1363892245,
				"y": -0.8474342088,
				"z": -0.2613812474,
				"element": "C" 
			},
			{
				"x": 0.55270877,
				"y": -1.7772271661,
				"z": 0.6832853534,
				"element": "C" 
			},
			{
				"x": 0.6803080288,
				"y": -2.9946140044,
				"z": 0.7094633341,
				"element": "O" 
			},
			{
				"x": -0.2471741677,
				"y": -1.1343296307,
				"z": 1.6635730084,
				"element": "N" 
			},
			{
				"x": -0.4556371324,
				"y": 0.1944125471,
				"z": 1.7296494825,
				"element": "C" 
			},
			{
				"x": 0.1075086714,
				"y": 1.0634756669,
				"z": 0.8230978782,
				"element": "C" 
			},
			{
				"x": -0.2360960087,
				"y": 2.483199374,
				"z": 1.0581014495,
				"element": "C" 
			},
			{
				"x": 0.3103668467,
				"y": 3.3525529831,
				"z": 0.172430727,
				"element": "O" 
			},
			{
				"x": -0.9507420947,
				"y": 2.8747569508,
				"z": 1.9652953239,
				"element": "O" 
			},
			{
				"x": 2.2805850481,
				"y": 2.1021821021,
				"z": -0.8138451993,
				"element": "H" 
			},
			{
				"x": 2.1916129194,
				"y": 0.7422050133,
				"z": -1.9556808984,
				"element": "H" 
			},
			{
				"x": 0.8774053677,
				"y": 1.9347954119,
				"z": -1.8462049059,
				"element": "H" 
			},
			{
				"x": 1.755701201,
				"y": -1.2980961738,
				"z": -1.028766865,
				"element": "H" 
			},
			{
				"x": -0.6707100554,
				"y": -1.758003176,
				"z": 2.3405161364,
				"element": "H" 
			},
			{
				"x": -1.0877922025,
				"y": 0.5685691769,
				"z": 2.5267977688,
				"element": "H" 
			},
			{
				"x": -0.0013059753,
				"y": 4.229516001,
				"z": 0.4522953954,
				"element": "H" 
			}
		],
		 "valence_orbital": [ 
			{
				"type": "occ",
				"energy": -0.32513,
				"method": "rhf"
			},
			{
				"type": "occ",
				"energy": -0.29993,
				"method": "rhf"
			},
			{
				"type": "occ",
				"energy": -0.28573,
				"method": "rhf"
			},
			{
				"type": "occ",
				"energy": -0.25871,
				"method": "rhf"
			},
			{
				"type": "occ",
				"energy": -0.22945,
				"method": "rhf"
			},
			{
				"type": "unocc",
				"energy": -0.05006,
				"method": "rhf"
			},
			{
				"type": "unocc",
				"energy": -0.03592,
				"method": "rhf"
			},
			{
				"type": "unocc",
				"energy": 0.05813,
				"method": "rhf"
			},
			{
				"type": "unocc",
				"energy": 0.06263,
				"method": "rhf"
			},
			{
				"type": "unocc",
				"energy": 0.07836,
				"method": "rhf"
			}
		],
		"cosmo_sigma_profile": { 
			"-0.025": 0.0,
			"-0.024": 0.0,
			"-0.023": 0.0,
			"-0.022": 0.0,
			"-0.021": 0.0,
			"-0.02": 0.0,
			"-0.019": 0.0,
			"-0.018": 0.651014462768,
			"-0.017": 1.42704255035,
			"-0.016": 2.60742424615,
			"-0.015": 1.67300456304,
			"-0.014": 2.28497472314,
			"-0.013": 1.97417775961,
			"-0.012": 1.9169446817,
			"-0.011": 1.65853949634,
			"-0.01": 3.14647235438,
			"-0.009": 2.15932183647,
			"-0.008": 1.77772792118,
			"-0.007": 2.36089778835,
			"-0.006": 5.57976209602,
			"-0.005": 6.24040520312,
			"-0.004": 9.23007263414,
			"-0.003": 10.0961643089,
			"-0.002": 17.4971172916,
			"-0.001": 20.0702175444,
			"0.0": 17.6966028338,
			"0.001": 10.0791299995,
			"0.002": 8.90600941317,
			"0.003": 6.13339234497,
			"0.004": 4.33975686955,
			"0.005": 4.44924974002,
			"0.006": 3.15666828824,
			"0.007": 1.94469464584,
			"0.008": 3.13595841008,
			"0.009": 2.30576849687,
			"0.01": 2.38358107497,
			"0.011": 4.45251008995,
			"0.012": 6.6841816918,
			"0.013": 4.85049413784,
			"0.014": 5.23918430317,
			"0.015": 1.03937331048,
			"0.016": 0.0,
			"0.017": 0.0,
			"0.018": 0.0,
			"0.019": 0.0,
			"0.02": 0.0,
			"0.021": 0.0,
			"0.022": 0.0,
			"0.023": 0.0,
			"0.024": 0.0,
			"0.025": 0.0
		}
	}
}
