{
	 "smiles": "OC(=O)C1=NC(OCC(F)F)=CC=C1", 
	 "Tm": 368.15, 
	 "num_atms": 21, 
	 "gaussian": { 
		 "optdone": 1, 
		 "sigma_profile": "yes", 
		 "theory": "DFT", 
		 "functional": "B3LYP", 
		 "basiset": "6-31G**", 
		 "properties": { 
			 "R2extent": 3978.8741, 
			 "electric_dipole_moment_norm": 4.3283372535, 
			 "electric_quadrupole_moment_norm": 17.653921802, 
			 "total_energy": -789.17752839, 
			 "HOMO_LUMO_gap": 0.18896, 
			 "cosmo_polarized_energy": -13.69, 
			 "cosmo_cavitation_energy": 27.31, 
			 "cosmo_dispersion_energy": -19.18, 
			 "cosmo_repulsion_energy": 1.47, 
			 "cosmo_total_nonelectrostatic_energy": 9.6, 
			 "SMD_solvation_energy": 6.95 
		},
		"coords": [
			{
				"x": -0.9290873073,
				"y": 0.9017143333,
				"z": 2.2899842417,
				"element": "O" 
			},
			{
				"x": -0.3359413019,
				"y": 2.092683846,
				"z": 2.1000232091,
				"element": "C" 
			},
			{
				"x": -0.6510759713,
				"y": 3.0887508065,
				"z": 2.7092863126,
				"element": "O" 
			},
			{
				"x": 0.7560456112,
				"y": 2.0775570135,
				"z": 1.0591570197,
				"element": "C" 
			},
			{
				"x": 1.0011085783,
				"y": 0.8837055844,
				"z": 0.4752341632,
				"element": "N" 
			},
			{
				"x": 1.9511377108,
				"y": 0.8279826526,
				"z": -0.449839706,
				"element": "C" 
			},
			{
				"x": 2.2339121749,
				"y": -0.3386820247,
				"z": -1.0758292331,
				"element": "O" 
			},
			{
				"x": 1.4550618855,
				"y": -1.4935337707,
				"z": -0.7679527146,
				"element": "C" 
			},
			{
				"x": 1.9570464649,
				"y": -2.2001538489,
				"z": 0.4819170097,
				"element": "C" 
			},
			{
				"x": 1.1672182481,
				"y": -3.3008296087,
				"z": 0.6714120625,
				"element": "F" 
			},
			{
				"x": 3.2391343468,
				"y": -2.6190236802,
				"z": 0.2891823343,
				"element": "F" 
			},
			{
				"x": 2.7127501641,
				"y": 1.9464178743,
				"z": -0.8401048933,
				"element": "C" 
			},
			{
				"x": 2.4501141115,
				"y": 3.1596132527,
				"z": -0.2258254623,
				"element": "C" 
			},
			{
				"x": 1.4466468656,
				"y": 3.2388678291,
				"z": 0.7497719731,
				"element": "C" 
			},
			{
				"x": -0.496577891,
				"y": 0.2751290069,
				"z": 1.6778367466,
				"element": "H" 
			},
			{
				"x": 0.3988666319,
				"y": -1.2419251793,
				"z": -0.6477269193,
				"element": "H" 
			},
			{
				"x": 1.5810468299,
				"y": -2.1708172684,
				"z": -1.6152608606,
				"element": "H" 
			},
			{
				"x": 1.9253810832,
				"y": -1.5817934052,
				"z": 1.3846426274,
				"element": "H" 
			},
			{
				"x": 3.4742213129,
				"y": 1.8296561376,
				"z": -1.6020847866,
				"element": "H" 
			},
			{
				"x": 3.0185132778,
				"y": 4.0423107541,
				"z": -0.5024885302,
				"element": "H" 
			},
			{
				"x": 1.1963771741,
				"y": 4.1587696953,
				"z": 1.2632654061,
				"element": "H" 
			}
		],
		 "valence_orbital": [ 
			{
				"type": "occ",
				"energy": -0.32219,
				"method": "rhf"
			},
			{
				"type": "occ",
				"energy": -0.31773,
				"method": "rhf"
			},
			{
				"type": "occ",
				"energy": -0.31597,
				"method": "rhf"
			},
			{
				"type": "occ",
				"energy": -0.27478,
				"method": "rhf"
			},
			{
				"type": "occ",
				"energy": -0.2628,
				"method": "rhf"
			},
			{
				"type": "unocc",
				"energy": -0.07384,
				"method": "rhf"
			},
			{
				"type": "unocc",
				"energy": -0.03529,
				"method": "rhf"
			},
			{
				"type": "unocc",
				"energy": 0.04585,
				"method": "rhf"
			},
			{
				"type": "unocc",
				"energy": 0.06203,
				"method": "rhf"
			},
			{
				"type": "unocc",
				"energy": 0.08181,
				"method": "rhf"
			}
		],
		"cosmo_sigma_profile": { 
			"-0.025": 0.0,
			"-0.024": 0.0,
			"-0.023": 0.0,
			"-0.022": 0.0,
			"-0.021": 0.0,
			"-0.02": 0.0,
			"-0.019": 0.0,
			"-0.018": 0.0,
			"-0.017": 0.0,
			"-0.016": 0.0,
			"-0.015": 0.0,
			"-0.014": 0.0,
			"-0.013": 0.0999512559022,
			"-0.012": 0.530374666392,
			"-0.011": 0.697465908149,
			"-0.01": 1.429469838,
			"-0.009": 1.47828071122,
			"-0.008": 10.6437930316,
			"-0.007": 13.9875674614,
			"-0.006": 13.7124489859,
			"-0.005": 11.9504320537,
			"-0.004": 11.8958534391,
			"-0.003": 12.4451442463,
			"-0.002": 11.9120512287,
			"-0.001": 16.112108654,
			"0.0": 16.6295203141,
			"0.001": 14.6573343936,
			"0.002": 7.76788041922,
			"0.003": 7.84635004727,
			"0.004": 21.4292636201,
			"0.005": 12.5378319395,
			"0.006": 3.61330537936,
			"0.007": 4.21167133149,
			"0.008": 3.67719371237,
			"0.009": 4.41186050442,
			"0.01": 5.06023430944,
			"0.011": 4.97377018324,
			"0.012": 4.01298623484,
			"0.013": 1.05089708663,
			"0.014": 0.0,
			"0.015": 0.0,
			"0.016": 0.0,
			"0.017": 0.0,
			"0.018": 0.0,
			"0.019": 0.0,
			"0.02": 0.0,
			"0.021": 0.0,
			"0.022": 0.0,
			"0.023": 0.0,
			"0.024": 0.0,
			"0.025": 0.0
		}
	}
}
