{
	 "smiles": "COC1=CC=C(C=C1)C1(C)CCC2=C(C3=C1C=C(C)O3)C1=C(O2)C=CC(C)=C1", 
	 "Tm": 443.15, 
	 "num_atms": 52, 
	 "gaussian": { 
		 "optdone": 1, 
		 "sigma_profile": "yes", 
		 "theory": "DFT", 
		 "functional": "B3LYP", 
		 "basiset": "6-31G**", 
		 "properties": { 
			 "R2extent": 14160.6623, 
			 "electric_dipole_moment_norm": 2.52433375171, 
			 "electric_quadrupole_moment_norm": 18.9600769144, 
			 "total_energy": -1192.79165383, 
			 "HOMO_LUMO_gap": 0.16338, 
			 "cosmo_polarized_energy": -10.42, 
			 "cosmo_cavitation_energy": 52.67, 
			 "cosmo_dispersion_energy": -36.78, 
			 "cosmo_repulsion_energy": 2.75, 
			 "cosmo_total_nonelectrostatic_energy": 18.64, 
			 "SMD_solvation_energy": 9.67 
		},
		"coords": [
			{
				"x": 6.0162546513,
				"y": 0.2700101364,
				"z": -5.4431425583,
				"element": "C" 
			},
			{
				"x": 5.8289175078,
				"y": 0.1061086215,
				"z": -4.047558543,
				"element": "O" 
			},
			{
				"x": 4.5532144636,
				"y": -0.048857831,
				"z": -3.5837584021,
				"element": "C" 
			},
			{
				"x": 3.4066650856,
				"y": -0.0548862817,
				"z": -4.3806461942,
				"element": "C" 
			},
			{
				"x": 2.1480652585,
				"y": -0.2217805341,
				"z": -3.7880649669,
				"element": "C" 
			},
			{
				"x": 1.9938005335,
				"y": -0.3814261082,
				"z": -2.40941356,
				"element": "C" 
			},
			{
				"x": 3.1661122695,
				"y": -0.3688436969,
				"z": -1.6284192008,
				"element": "C" 
			},
			{
				"x": 4.4214148818,
				"y": -0.2073176823,
				"z": -2.1955978222,
				"element": "C" 
			},
			{
				"x": 0.6285967904,
				"y": -0.626958538,
				"z": -1.7336529262,
				"element": "C" 
			},
			{
				"x": -0.5470090734,
				"y": -0.3863071731,
				"z": -2.7103326719,
				"element": "C" 
			},
			{
				"x": 0.6385112873,
				"y": -2.1265560741,
				"z": -1.2857517635,
				"element": "C" 
			},
			{
				"x": -0.6650795309,
				"y": -2.7490929037,
				"z": -0.7533985849,
				"element": "C" 
			},
			{
				"x": -1.1348960261,
				"y": -2.2003006749,
				"z": 0.5489651392,
				"element": "C" 
			},
			{
				"x": -0.9554192334,
				"y": -0.9873860312,
				"z": 1.1604338348,
				"element": "C" 
			},
			{
				"x": -0.2204658061,
				"y": 0.1303312727,
				"z": 0.6144421831,
				"element": "C" 
			},
			{
				"x": 0.4634588691,
				"y": 0.3331201901,
				"z": -0.5621350129,
				"element": "C" 
			},
			{
				"x": 0.9219863771,
				"y": 1.6951558033,
				"z": -0.5092760884,
				"element": "C" 
			},
			{
				"x": 0.5070216749,
				"y": 2.2232160358,
				"z": 0.675492059,
				"element": "C" 
			},
			{
				"x": 0.6651527418,
				"y": 3.5528203127,
				"z": 1.3240320341,
				"element": "C" 
			},
			{
				"x": -0.192048993,
				"y": 1.2762302944,
				"z": 1.3741915688,
				"element": "O" 
			},
			{
				"x": -1.6711258596,
				"y": -1.0659195382,
				"z": 2.4240221577,
				"element": "C" 
			},
			{
				"x": -2.2301042149,
				"y": -2.3526397053,
				"z": 2.4542118254,
				"element": "C" 
			},
			{
				"x": -1.9050177673,
				"y": -3.0449242665,
				"z": 1.3168612206,
				"element": "O" 
			},
			{
				"x": -2.998559159,
				"y": -2.8277091439,
				"z": 3.5093323856,
				"element": "C" 
			},
			{
				"x": -3.2044352403,
				"y": -1.9532921994,
				"z": 4.5735541841,
				"element": "C" 
			},
			{
				"x": -2.6628707636,
				"y": -0.6478595912,
				"z": 4.588137462,
				"element": "C" 
			},
			{
				"x": -2.922724734,
				"y": 0.256241621,
				"z": 5.7726882157,
				"element": "C" 
			},
			{
				"x": -1.8944263985,
				"y": -0.2049937813,
				"z": 3.5098956202,
				"element": "C" 
			},
			{
				"x": 5.5123096488,
				"y": 1.1707101022,
				"z": -5.8178021516,
				"element": "H" 
			},
			{
				"x": 5.6551206176,
				"y": -0.6004403337,
				"z": -6.0065293189,
				"element": "H" 
			},
			{
				"x": 7.092071997,
				"y": 0.3729136409,
				"z": -5.5943127557,
				"element": "H" 
			},
			{
				"x": 3.4709787516,
				"y": 0.068917218,
				"z": -5.4553773605,
				"element": "H" 
			},
			{
				"x": 1.2812872469,
				"y": -0.2221087491,
				"z": -4.4396137478,
				"element": "H" 
			},
			{
				"x": 3.0884952101,
				"y": -0.4737626119,
				"z": -0.5501208469,
				"element": "H" 
			},
			{
				"x": 5.3182614363,
				"y": -0.1958197527,
				"z": -1.5844445197,
				"element": "H" 
			},
			{
				"x": -0.5487254133,
				"y": -1.114227991,
				"z": -3.5300740756,
				"element": "H" 
			},
			{
				"x": -0.5004702261,
				"y": 0.6187852657,
				"z": -3.1390418978,
				"element": "H" 
			},
			{
				"x": -1.4998038195,
				"y": -0.4705081608,
				"z": -2.1825792443,
				"element": "H" 
			},
			{
				"x": 1.4263895976,
				"y": -2.2636564196,
				"z": -0.5377799641,
				"element": "H" 
			},
			{
				"x": 0.9409616296,
				"y": -2.7124675775,
				"z": -2.1605076974,
				"element": "H" 
			},
			{
				"x": -1.4633793253,
				"y": -2.6712103187,
				"z": -1.5049796779,
				"element": "H" 
			},
			{
				"x": -0.4983058848,
				"y": -3.8247683818,
				"z": -0.6182462117,
				"element": "H" 
			},
			{
				"x": 1.5058641525,
				"y": 2.2037032854,
				"z": -1.2627834367,
				"element": "H" 
			},
			{
				"x": 1.2337578757,
				"y": 4.2184023849,
				"z": 0.6704709992,
				"element": "H" 
			},
			{
				"x": -0.305747106,
				"y": 4.0200293553,
				"z": 1.5278281784,
				"element": "H" 
			},
			{
				"x": 1.1977590057,
				"y": 3.4748221248,
				"z": 2.2794530624,
				"element": "H" 
			},
			{
				"x": -3.4141786516,
				"y": -3.8296031859,
				"z": 3.4983213707,
				"element": "H" 
			},
			{
				"x": -3.8004586869,
				"y": -2.2845309972,
				"z": 5.4201944176,
				"element": "H" 
			},
			{
				"x": -2.436606554,
				"y": 1.227384935,
				"z": 5.6454801676,
				"element": "H" 
			},
			{
				"x": -2.5479053595,
				"y": -0.1844443591,
				"z": 6.7040822405,
				"element": "H" 
			},
			{
				"x": -3.9952072062,
				"y": 0.4365604921,
				"z": 5.9126298851,
				"element": "H" 
			},
			{
				"x": -1.4732585281,
				"y": 0.793937502,
				"z": 3.5075209901,
				"element": "H" 
			}
		],
		 "valence_orbital": [ 
			{
				"type": "occ",
				"energy": -0.24575,
				"method": "rhf"
			},
			{
				"type": "occ",
				"energy": -0.23261,
				"method": "rhf"
			},
			{
				"type": "occ",
				"energy": -0.21815,
				"method": "rhf"
			},
			{
				"type": "occ",
				"energy": -0.21283,
				"method": "rhf"
			},
			{
				"type": "occ",
				"energy": -0.17992,
				"method": "rhf"
			},
			{
				"type": "unocc",
				"energy": -0.01654,
				"method": "rhf"
			},
			{
				"type": "unocc",
				"energy": -0.00027,
				"method": "rhf"
			},
			{
				"type": "unocc",
				"energy": 0.0118,
				"method": "rhf"
			},
			{
				"type": "unocc",
				"energy": 0.01436,
				"method": "rhf"
			},
			{
				"type": "unocc",
				"energy": 0.02333,
				"method": "rhf"
			}
		],
		"cosmo_sigma_profile": { 
			"-0.025": 0.0,
			"-0.024": 0.0,
			"-0.023": 0.0,
			"-0.022": 0.0,
			"-0.021": 0.0,
			"-0.02": 0.0,
			"-0.019": 0.0,
			"-0.018": 0.0,
			"-0.017": 0.0,
			"-0.016": 0.0,
			"-0.015": 0.0,
			"-0.014": 0.0,
			"-0.013": 0.0,
			"-0.012": 0.0,
			"-0.011": 0.0,
			"-0.01": 0.0,
			"-0.009": 0.0,
			"-0.008": 0.0,
			"-0.007": 0.823792344653,
			"-0.006": 7.38987505054,
			"-0.005": 24.5358278776,
			"-0.004": 42.9119994851,
			"-0.003": 51.1356713223,
			"-0.002": 44.7997539895,
			"-0.001": 37.9885023162,
			"0.0": 32.9943697961,
			"0.001": 30.4806567986,
			"0.002": 25.1003392442,
			"0.003": 34.5702491358,
			"0.004": 31.6943531725,
			"0.005": 26.1109865332,
			"0.006": 16.3864898497,
			"0.007": 2.67096718797,
			"0.008": 2.98141998033,
			"0.009": 1.86108910636,
			"0.01": 1.89250805745,
			"0.011": 0.596111334723,
			"0.012": 0.0,
			"0.013": 0.0,
			"0.014": 0.0,
			"0.015": 0.0,
			"0.016": 0.0,
			"0.017": 0.0,
			"0.018": 0.0,
			"0.019": 0.0,
			"0.02": 0.0,
			"0.021": 0.0,
			"0.022": 0.0,
			"0.023": 0.0,
			"0.024": 0.0,
			"0.025": 0.0
		}
	}
}
