{
	 "smiles": "CC1=C(C=C(C(O)=O)C(=O)N1)C1=CC=CC=C1", 
	 "Tm": 532.15, 
	 "num_atms": 28, 
	 "gaussian": { 
		 "optdone": 1, 
		 "sigma_profile": "yes", 
		 "theory": "DFT", 
		 "functional": "B3LYP", 
		 "basiset": "6-31G**", 
		 "properties": { 
			 "R2extent": 5442.7592, 
			 "electric_dipole_moment_norm": 8.93387198811, 
			 "electric_quadrupole_moment_norm": 41.5609253025, 
			 "total_energy": -782.455340068, 
			 "HOMO_LUMO_gap": 0.15634, 
			 "cosmo_polarized_energy": -27.96, 
			 "cosmo_cavitation_energy": 32.87, 
			 "cosmo_dispersion_energy": -23.4, 
			 "cosmo_repulsion_energy": 1.82, 
			 "cosmo_total_nonelectrostatic_energy": 11.3, 
			 "SMD_solvation_energy": 7.25 
		},
		"coords": [
			{
				"x": 2.9995449707,
				"y": -0.0391783385,
				"z": -1.083886066,
				"element": "C" 
			},
			{
				"x": 1.6344479257,
				"y": -0.297764173,
				"z": -1.6593559169,
				"element": "C" 
			},
			{
				"x": 0.4613886417,
				"y": -0.4381511315,
				"z": -0.9392150063,
				"element": "C" 
			},
			{
				"x": -0.7180600649,
				"y": -0.7479727878,
				"z": -1.6831712426,
				"element": "C" 
			},
			{
				"x": -0.7535420147,
				"y": -0.8977921686,
				"z": -3.0478444433,
				"element": "C" 
			},
			{
				"x": -2.0060947258,
				"y": -1.3311399649,
				"z": -3.7452144268,
				"element": "C" 
			},
			{
				"x": -3.1587515595,
				"y": -0.761793568,
				"z": -3.2778324273,
				"element": "O" 
			},
			{
				"x": -2.0476966403,
				"y": -2.1548789328,
				"z": -4.621488561,
				"element": "O" 
			},
			{
				"x": 0.4673994402,
				"y": -0.7220040453,
				"z": -3.8320911276,
				"element": "C" 
			},
			{
				"x": 0.6050485492,
				"y": -0.7742443639,
				"z": -5.0443106536,
				"element": "O" 
			},
			{
				"x": 1.5876744346,
				"y": -0.4293593369,
				"z": -3.018045451,
				"element": "N" 
			},
			{
				"x": 0.3794581959,
				"y": -0.3089074987,
				"z": 0.540404386,
				"element": "C" 
			},
			{
				"x": -0.235544998,
				"y": -1.3175615909,
				"z": 1.3021669424,
				"element": "C" 
			},
			{
				"x": -0.3522393598,
				"y": -1.1984318988,
				"z": 2.6865810435,
				"element": "C" 
			},
			{
				"x": 0.1458853572,
				"y": -0.0690398003,
				"z": 3.3392877708,
				"element": "C" 
			},
			{
				"x": 0.7550893281,
				"y": 0.9430075707,
				"z": 2.5957950543,
				"element": "C" 
			},
			{
				"x": 0.8649638982,
				"y": 0.8272172583,
				"z": 1.2097338287,
				"element": "C" 
			},
			{
				"x": 3.317303664,
				"y": 0.9941158384,
				"z": -1.2683900822,
				"element": "H" 
			},
			{
				"x": 3.7385242118,
				"y": -0.6989948094,
				"z": -1.5517488751,
				"element": "H" 
			},
			{
				"x": 3.0127766305,
				"y": -0.2103408936,
				"z": -0.0082063223,
				"element": "H" 
			},
			{
				"x": -1.6358263244,
				"y": -0.891093875,
				"z": -1.1165973794,
				"element": "H" 
			},
			{
				"x": -2.9410026357,
				"y": -0.0032273403,
				"z": -2.718363694,
				"element": "H" 
			},
			{
				"x": 2.4422893811,
				"y": -0.3314297292,
				"z": -3.5548053653,
				"element": "H" 
			},
			{
				"x": -0.6084597463,
				"y": -2.2087034253,
				"z": 0.8046863008,
				"element": "H" 
			},
			{
				"x": -0.8261387103,
				"y": -1.9925489425,
				"z": 3.2562955188,
				"element": "H" 
			},
			{
				"x": 0.0566427746,
				"y": 0.0230301755,
				"z": 4.4176335882,
				"element": "H" 
			},
			{
				"x": 1.1342644198,
				"y": 1.831493547,
				"z": 3.092568863,
				"element": "H" 
			},
			{
				"x": 1.3097549564,
				"y": 1.6356942253,
				"z": 0.6367137443,
				"element": "H" 
			}
		],
		 "valence_orbital": [ 
			{
				"type": "occ",
				"energy": -0.27161,
				"method": "rhf"
			},
			{
				"type": "occ",
				"energy": -0.27001,
				"method": "rhf"
			},
			{
				"type": "occ",
				"energy": -0.26737,
				"method": "rhf"
			},
			{
				"type": "occ",
				"energy": -0.25285,
				"method": "rhf"
			},
			{
				"type": "occ",
				"energy": -0.22278,
				"method": "rhf"
			},
			{
				"type": "unocc",
				"energy": -0.06644,
				"method": "rhf"
			},
			{
				"type": "unocc",
				"energy": -0.03077,
				"method": "rhf"
			},
			{
				"type": "unocc",
				"energy": -0.01908,
				"method": "rhf"
			},
			{
				"type": "unocc",
				"energy": 0.00715,
				"method": "rhf"
			},
			{
				"type": "unocc",
				"energy": 0.03127,
				"method": "rhf"
			}
		],
		"cosmo_sigma_profile": { 
			"-0.025": 0.0,
			"-0.024": 0.0,
			"-0.023": 0.0,
			"-0.022": 0.0,
			"-0.021": 0.0,
			"-0.02": 0.0,
			"-0.019": 0.077814669279,
			"-0.018": 0.732691785637,
			"-0.017": 0.858753097147,
			"-0.016": 1.44746510332,
			"-0.015": 2.15087427045,
			"-0.014": 2.09381450464,
			"-0.013": 2.11798220858,
			"-0.012": 2.38253810151,
			"-0.011": 2.6198188502,
			"-0.01": 2.48589039646,
			"-0.009": 1.99248225135,
			"-0.008": 3.16168477617,
			"-0.007": 5.2168020317,
			"-0.006": 15.7033018924,
			"-0.005": 19.8966088753,
			"-0.004": 21.294978825,
			"-0.003": 18.8352157196,
			"-0.002": 21.941136581,
			"-0.001": 20.2333844397,
			"0.0": 12.9379523923,
			"0.001": 12.8795917875,
			"0.002": 9.82334921565,
			"0.003": 9.31228125017,
			"0.004": 10.5386042052,
			"0.005": 11.1347022842,
			"0.006": 5.7560062603,
			"0.007": 2.98151836972,
			"0.008": 2.7674105376,
			"0.009": 4.39389829581,
			"0.01": 6.03691623635,
			"0.011": 7.1934796867,
			"0.012": 6.79668368993,
			"0.013": 7.16502115184,
			"0.014": 4.922894111,
			"0.015": 1.97142679684,
			"0.016": 0.751165567297,
			"0.017": 0.0,
			"0.018": 0.0,
			"0.019": 0.0,
			"0.02": 0.0,
			"0.021": 0.0,
			"0.022": 0.0,
			"0.023": 0.0,
			"0.024": 0.0,
			"0.025": 0.0
		}
	}
}
