{
	 "smiles": "N[C@H]1CC[C@@H](CO)CC1", 
	 "Tm": 418.15, 
	 "num_atms": 24, 
	 "gaussian": { 
		 "optdone": 1, 
		 "sigma_profile": "yes", 
		 "theory": "DFT", 
		 "functional": "B3LYP", 
		 "basiset": "6-31G**", 
		 "properties": { 
			 "R2extent": 1461.2855, 
			 "electric_dipole_moment_norm": 2.09895915634, 
			 "electric_quadrupole_moment_norm": 4.44473927244, 
			 "total_energy": -405.751509377, 
			 "HOMO_LUMO_gap": 0.30272, 
			 "cosmo_polarized_energy": -8.33, 
			 "cosmo_cavitation_energy": 23.5, 
			 "cosmo_dispersion_energy": -17.83, 
			 "cosmo_repulsion_energy": 1.49, 
			 "cosmo_total_nonelectrostatic_energy": 7.15, 
			 "SMD_solvation_energy": 3.02 
		},
		"coords": [
			{
				"x": -0.0073526035,
				"y": 2.3426008618,
				"z": 0.1169645526,
				"element": "N" 
			},
			{
				"x": -0.0697597372,
				"y": 1.9620568169,
				"z": -1.3072058997,
				"element": "C" 
			},
			{
				"x": 1.1862049129,
				"y": 1.1513774943,
				"z": -1.6647149141,
				"element": "C" 
			},
			{
				"x": 1.2821909842,
				"y": -0.173772356,
				"z": -0.8874954334,
				"element": "C" 
			},
			{
				"x": -0.0491441507,
				"y": -0.9856604162,
				"z": -0.8889204759,
				"element": "C" 
			},
			{
				"x": -0.5836734342,
				"y": -1.122257383,
				"z": 0.5401461295,
				"element": "C" 
			},
			{
				"x": -1.7753676125,
				"y": -1.905999646,
				"z": 0.5108535122,
				"element": "O" 
			},
			{
				"x": -1.087178038,
				"y": -0.3618507257,
				"z": -1.8413870384,
				"element": "C" 
			},
			{
				"x": -1.3591417421,
				"y": 1.1275835802,
				"z": -1.5602909601,
				"element": "C" 
			},
			{
				"x": -0.8134573044,
				"y": 2.9183569542,
				"z": 0.3505018586,
				"element": "H" 
			},
			{
				"x": 0.8133043405,
				"y": 2.9228951156,
				"z": 0.283009825,
				"element": "H" 
			},
			{
				"x": -0.0920391099,
				"y": 2.8488774614,
				"z": -1.9643813282,
				"element": "H" 
			},
			{
				"x": 1.1721814778,
				"y": 0.9578944167,
				"z": -2.7443782162,
				"element": "H" 
			},
			{
				"x": 2.0836821887,
				"y": 1.7569172274,
				"z": -1.4796791051,
				"element": "H" 
			},
			{
				"x": 1.5711106492,
				"y": 0.0493692318,
				"z": 0.145403831,
				"element": "H" 
			},
			{
				"x": 2.0944509283,
				"y": -0.775413124,
				"z": -1.3106427851,
				"element": "H" 
			},
			{
				"x": 0.1478093461,
				"y": -2.0051067955,
				"z": -1.244042812,
				"element": "H" 
			},
			{
				"x": 0.1889332657,
				"y": -1.6071238032,
				"z": 1.1603180906,
				"element": "H" 
			},
			{
				"x": -0.7630298784,
				"y": -0.1229837268,
				"z": 0.9615747875,
				"element": "H" 
			},
			{
				"x": -2.1504910456,
				"y": -1.9093840186,
				"z": 1.3994732011,
				"element": "H" 
			},
			{
				"x": -2.0207662615,
				"y": -0.9276597616,
				"z": -1.7751718664,
				"element": "H" 
			},
			{
				"x": -0.7254740846,
				"y": -0.4757536189,
				"z": -2.8712838121,
				"element": "H" 
			},
			{
				"x": -2.0103971078,
				"y": 1.2200460618,
				"z": -0.6831453352,
				"element": "H" 
			},
			{
				"x": -1.9178959831,
				"y": 1.5515901534,
				"z": -2.4026058063,
				"element": "H" 
			}
		],
		 "valence_orbital": [ 
			{
				"type": "occ",
				"energy": -0.29486,
				"method": "rhf"
			},
			{
				"type": "occ",
				"energy": -0.29121,
				"method": "rhf"
			},
			{
				"type": "occ",
				"energy": -0.28467,
				"method": "rhf"
			},
			{
				"type": "occ",
				"energy": -0.25346,
				"method": "rhf"
			},
			{
				"type": "occ",
				"energy": -0.22915,
				"method": "rhf"
			},
			{
				"type": "unocc",
				"energy": 0.07357,
				"method": "rhf"
			},
			{
				"type": "unocc",
				"energy": 0.08834,
				"method": "rhf"
			},
			{
				"type": "unocc",
				"energy": 0.10794,
				"method": "rhf"
			},
			{
				"type": "unocc",
				"energy": 0.13065,
				"method": "rhf"
			},
			{
				"type": "unocc",
				"energy": 0.13567,
				"method": "rhf"
			}
		],
		"cosmo_sigma_profile": { 
			"-0.025": 0.0,
			"-0.024": 0.0,
			"-0.023": 0.0,
			"-0.022": 0.0,
			"-0.021": 0.0,
			"-0.02": 0.0,
			"-0.019": 0.0,
			"-0.018": 0.0,
			"-0.017": 0.0,
			"-0.016": 0.105113852238,
			"-0.015": 0.719317117709,
			"-0.014": 1.08735323157,
			"-0.013": 1.19542428627,
			"-0.012": 1.00318731582,
			"-0.011": 0.245881025638,
			"-0.01": 0.785633300653,
			"-0.009": 2.87878640725,
			"-0.008": 3.51759813184,
			"-0.007": 2.95357611991,
			"-0.006": 3.80547109595,
			"-0.005": 4.43395129543,
			"-0.004": 3.97489396466,
			"-0.003": 6.45345970125,
			"-0.002": 21.2909689591,
			"-0.001": 30.5751408401,
			"0.0": 30.4185539163,
			"0.001": 22.5296417583,
			"0.002": 10.2088249308,
			"0.003": 3.13546851593,
			"0.004": 3.56246686647,
			"0.005": 2.43064115663,
			"0.006": 1.92683376254,
			"0.007": 3.06572580756,
			"0.008": 2.37969435971,
			"0.009": 2.34803974172,
			"0.01": 2.34130989096,
			"0.011": 2.89526151779,
			"0.012": 2.12347141819,
			"0.013": 2.132288694,
			"0.014": 1.20416291241,
			"0.015": 1.23687294167,
			"0.016": 0.0452205486189,
			"0.017": 0.0,
			"0.018": 0.0,
			"0.019": 0.0,
			"0.02": 0.0,
			"0.021": 0.0,
			"0.022": 0.0,
			"0.023": 0.0,
			"0.024": 0.0,
			"0.025": 0.0
		}
	}
}
