{
	 "smiles": "FC(F)(F)CNC(=S)N1CCOCC1", 
	 "Tm": 377.15, 
	 "num_atms": 25, 
	 "gaussian": { 
		 "optdone": 1, 
		 "sigma_profile": "yes", 
		 "theory": "DFT", 
		 "functional": "B3LYP", 
		 "basiset": "6-31G**", 
		 "properties": { 
			 "R2extent": 3976.0535, 
			 "electric_dipole_moment_norm": 4.36999317734, 
			 "electric_quadrupole_moment_norm": 13.6832448356, 
			 "total_energy": -1155.79716402, 
			 "HOMO_LUMO_gap": 0.18477, 
			 "cosmo_polarized_energy": -16.79, 
			 "cosmo_cavitation_energy": 30.0, 
			 "cosmo_dispersion_energy": -21.36, 
			 "cosmo_repulsion_energy": 1.6, 
			 "cosmo_total_nonelectrostatic_energy": 10.24, 
			 "SMD_solvation_energy": 3.54 
		},
		"coords": [
			{
				"x": 0.0916078043,
				"y": 0.8376362677,
				"z": 3.2447943469,
				"element": "F" 
			},
			{
				"x": 1.2647730739,
				"y": 0.2356598482,
				"z": 3.5123909897,
				"element": "C" 
			},
			{
				"x": 1.0943618395,
				"y": -0.5420966141,
				"z": 4.603777474,
				"element": "F" 
			},
			{
				"x": 2.1618764621,
				"y": 1.194729193,
				"z": 3.8223014557,
				"element": "F" 
			},
			{
				"x": 1.7498378503,
				"y": -0.6110094949,
				"z": 2.3407203659,
				"element": "C" 
			},
			{
				"x": 2.0392797004,
				"y": 0.1704262069,
				"z": 1.1459445431,
				"element": "N" 
			},
			{
				"x": 1.0363403221,
				"y": 0.7094750077,
				"z": 0.3334045367,
				"element": "C" 
			},
			{
				"x": 1.0671665734,
				"y": 2.3360954622,
				"z": -0.0752539195,
				"element": "S" 
			},
			{
				"x": 0.1067038253,
				"y": -0.171565357,
				"z": -0.1276348965,
				"element": "N" 
			},
			{
				"x": 0.3706708244,
				"y": -1.6148272271,
				"z": -0.2684640077,
				"element": "C" 
			},
			{
				"x": -0.147331941,
				"y": -2.1015444982,
				"z": -1.6209744337,
				"element": "C" 
			},
			{
				"x": -1.5500364787,
				"y": -1.925653045,
				"z": -1.7629805275,
				"element": "O" 
			},
			{
				"x": -2.0669850051,
				"y": -0.7895176198,
				"z": -1.0694658658,
				"element": "C" 
			},
			{
				"x": -1.0442554946,
				"y": 0.3270427717,
				"z": -0.8969448304,
				"element": "C" 
			},
			{
				"x": 2.6605643368,
				"y": -1.1232847475,
				"z": 2.6648335037,
				"element": "H" 
			},
			{
				"x": 0.9922761941,
				"y": -1.3692609705,
				"z": 2.1486162639,
				"element": "H" 
			},
			{
				"x": 2.734842938,
				"y": 0.8868417247,
				"z": 1.3239201549,
				"element": "H" 
			},
			{
				"x": 1.448017872,
				"y": -1.7841851357,
				"z": -0.1988528952,
				"element": "H" 
			},
			{
				"x": -0.1215357998,
				"y": -2.189070233,
				"z": 0.5288154547,
				"element": "H" 
			},
			{
				"x": 0.0530686502,
				"y": -3.1731678149,
				"z": -1.7240004162,
				"element": "H" 
			},
			{
				"x": 0.3935458746,
				"y": -1.5795887154,
				"z": -2.4251520765,
				"element": "H" 
			},
			{
				"x": -2.9145576832,
				"y": -0.4164767218,
				"z": -1.652617797,
				"element": "H" 
			},
			{
				"x": -2.4497347885,
				"y": -1.0952334581,
				"z": -0.0835076942,
				"element": "H" 
			},
			{
				"x": -1.4878090507,
				"y": 1.1695966953,
				"z": -0.3606575007,
				"element": "H" 
			},
			{
				"x": -0.7133878999,
				"y": 0.7092784755,
				"z": -1.8706122283,
				"element": "H" 
			}
		],
		 "valence_orbital": [ 
			{
				"type": "occ",
				"energy": -0.32216,
				"method": "rhf"
			},
			{
				"type": "occ",
				"energy": -0.27114,
				"method": "rhf"
			},
			{
				"type": "occ",
				"energy": -0.26199,
				"method": "rhf"
			},
			{
				"type": "occ",
				"energy": -0.22592,
				"method": "rhf"
			},
			{
				"type": "occ",
				"energy": -0.20707,
				"method": "rhf"
			},
			{
				"type": "unocc",
				"energy": -0.0223,
				"method": "rhf"
			},
			{
				"type": "unocc",
				"energy": 0.06324,
				"method": "rhf"
			},
			{
				"type": "unocc",
				"energy": 0.07481,
				"method": "rhf"
			},
			{
				"type": "unocc",
				"energy": 0.0837,
				"method": "rhf"
			},
			{
				"type": "unocc",
				"energy": 0.09642,
				"method": "rhf"
			}
		],
		"cosmo_sigma_profile": { 
			"-0.025": 0.0,
			"-0.024": 0.0,
			"-0.023": 0.0,
			"-0.022": 0.0,
			"-0.021": 0.0,
			"-0.02": 0.0,
			"-0.019": 0.0,
			"-0.018": 0.0,
			"-0.017": 0.0,
			"-0.016": 0.0,
			"-0.015": 0.0,
			"-0.014": 0.0,
			"-0.013": 0.442400633634,
			"-0.012": 0.635543983158,
			"-0.011": 0.831132545113,
			"-0.01": 2.26341911563,
			"-0.009": 4.44265774348,
			"-0.008": 5.72431047794,
			"-0.007": 7.540345774,
			"-0.006": 18.2994212142,
			"-0.005": 26.7308471813,
			"-0.004": 18.5586534206,
			"-0.003": 11.7281894039,
			"-0.002": 10.1863238441,
			"-0.001": 8.55674908576,
			"0.0": 8.73215028649,
			"0.001": 9.75537832907,
			"0.002": 22.2405891123,
			"0.003": 27.1046161195,
			"0.004": 7.00364863803,
			"0.005": 6.89284171055,
			"0.006": 5.60985484393,
			"0.007": 5.53065020765,
			"0.008": 6.03121316482,
			"0.009": 6.68854002752,
			"0.01": 7.62534967987,
			"0.011": 5.22882481439,
			"0.012": 2.5918249633,
			"0.013": 1.4762807876,
			"0.014": 0.144646630221,
			"0.015": 0.0,
			"0.016": 0.0,
			"0.017": 0.0,
			"0.018": 0.0,
			"0.019": 0.0,
			"0.02": 0.0,
			"0.021": 0.0,
			"0.022": 0.0,
			"0.023": 0.0,
			"0.024": 0.0,
			"0.025": 0.0
		}
	}
}
