{
	 "smiles": "O=CC1=CC=C(C=C1)N1CCCC1", 
	 "Tm": 358.15, 
	 "num_atms": 26, 
	 "gaussian": { 
		 "optdone": 1, 
		 "sigma_profile": "yes", 
		 "theory": "DFT", 
		 "functional": "B3LYP", 
		 "basiset": "6-31G**", 
		 "properties": { 
			 "R2extent": 3303.899, 
			 "electric_dipole_moment_norm": 6.80426236561, 
			 "electric_quadrupole_moment_norm": 13.0435362333, 
			 "total_energy": -556.980092929, 
			 "HOMO_LUMO_gap": 0.16106, 
			 "cosmo_polarized_energy": -11.12, 
			 "cosmo_cavitation_energy": 28.37, 
			 "cosmo_dispersion_energy": -21.06, 
			 "cosmo_repulsion_energy": 1.65, 
			 "cosmo_total_nonelectrostatic_energy": 8.96, 
			 "SMD_solvation_energy": 4.54 
		},
		"coords": [
			{
				"x": -4.2571566124,
				"y": -2.1469115265,
				"z": -1.3533991334,
				"element": "O" 
			},
			{
				"x": -3.9314831021,
				"y": -1.1816321977,
				"z": -0.6803134907,
				"element": "C" 
			},
			{
				"x": -2.5520609032,
				"y": -0.785978307,
				"z": -0.3789152058,
				"element": "C" 
			},
			{
				"x": -1.4630944709,
				"y": -1.529488105,
				"z": -0.8685525931,
				"element": "C" 
			},
			{
				"x": -0.1610699102,
				"y": -1.1611223602,
				"z": -0.5863162767,
				"element": "C" 
			},
			{
				"x": 0.112472407,
				"y": -0.0149117866,
				"z": 0.2086761235,
				"element": "C" 
			},
			{
				"x": -0.9879157748,
				"y": 0.7327440817,
				"z": 0.7001478595,
				"element": "C" 
			},
			{
				"x": -2.2861448448,
				"y": 0.3456902215,
				"z": 0.4069991527,
				"element": "C" 
			},
			{
				"x": 1.4009654623,
				"y": 0.3549176736,
				"z": 0.4911971951,
				"element": "N" 
			},
			{
				"x": 2.5806445729,
				"y": -0.3073364388,
				"z": -0.0696694921,
				"element": "C" 
			},
			{
				"x": 3.7360174462,
				"y": 0.6348320151,
				"z": 0.2986592132,
				"element": "C" 
			},
			{
				"x": 3.2615272958,
				"y": 1.278867285,
				"z": 1.6107768103,
				"element": "C" 
			},
			{
				"x": 1.7519079864,
				"y": 1.4551816825,
				"z": 1.3910163097,
				"element": "C" 
			},
			{
				"x": -4.7067254689,
				"y": -0.5150154939,
				"z": -0.2356826048,
				"element": "H" 
			},
			{
				"x": -1.6717349246,
				"y": -2.4070792823,
				"z": -1.4730701377,
				"element": "H" 
			},
			{
				"x": 0.6572618737,
				"y": -1.7614952406,
				"z": -0.9667698511,
				"element": "H" 
			},
			{
				"x": -0.816830131,
				"y": 1.6197577654,
				"z": 1.2987511948,
				"element": "H" 
			},
			{
				"x": -3.1172300958,
				"y": 0.9341662143,
				"z": 0.790826783,
				"element": "H" 
			},
			{
				"x": 2.4809710158,
				"y": -0.4360628347,
				"z": -1.1536986281,
				"element": "H" 
			},
			{
				"x": 2.7209788072,
				"y": -1.3070095009,
				"z": 0.3699915557,
				"element": "H" 
			},
			{
				"x": 3.8533279645,
				"y": 1.4002985098,
				"z": -0.4764973966,
				"element": "H" 
			},
			{
				"x": 4.6885624212,
				"y": 0.1074538847,
				"z": 0.3950056233,
				"element": "H" 
			},
			{
				"x": 3.438049068,
				"y": 0.5977647794,
				"z": 2.4507139738,
				"element": "H" 
			},
			{
				"x": 3.7628251556,
				"y": 2.2239059143,
				"z": 1.8352413266,
				"element": "H" 
			},
			{
				"x": 1.5229339697,
				"y": 2.4302305337,
				"z": 0.9333362061,
				"element": "H" 
			},
			{
				"x": 1.1866007921,
				"y": 1.3914325134,
				"z": 2.328245483,
				"element": "H" 
			}
		],
		 "valence_orbital": [ 
			{
				"type": "occ",
				"energy": -0.33628,
				"method": "rhf"
			},
			{
				"type": "occ",
				"energy": -0.28722,
				"method": "rhf"
			},
			{
				"type": "occ",
				"energy": -0.25371,
				"method": "rhf"
			},
			{
				"type": "occ",
				"energy": -0.23281,
				"method": "rhf"
			},
			{
				"type": "occ",
				"energy": -0.19813,
				"method": "rhf"
			},
			{
				"type": "unocc",
				"energy": -0.03707,
				"method": "rhf"
			},
			{
				"type": "unocc",
				"energy": -0.00068,
				"method": "rhf"
			},
			{
				"type": "unocc",
				"energy": 0.06204,
				"method": "rhf"
			},
			{
				"type": "unocc",
				"energy": 0.06969,
				"method": "rhf"
			},
			{
				"type": "unocc",
				"energy": 0.10108,
				"method": "rhf"
			}
		],
		"cosmo_sigma_profile": { 
			"-0.025": 0.0,
			"-0.024": 0.0,
			"-0.023": 0.0,
			"-0.022": 0.0,
			"-0.021": 0.0,
			"-0.02": 0.0,
			"-0.019": 0.0,
			"-0.018": 0.0,
			"-0.017": 0.0,
			"-0.016": 0.0,
			"-0.015": 0.0,
			"-0.014": 0.0,
			"-0.013": 0.0,
			"-0.012": 0.0,
			"-0.011": 0.0,
			"-0.01": 0.0,
			"-0.009": 0.0,
			"-0.008": 0.0,
			"-0.007": 0.543470995698,
			"-0.006": 6.58633777705,
			"-0.005": 14.2419747732,
			"-0.004": 27.6306601712,
			"-0.003": 34.3980204415,
			"-0.002": 28.3766708556,
			"-0.001": 19.4361684404,
			"0.0": 16.5408100223,
			"0.001": 7.60212252997,
			"0.002": 10.1211432999,
			"0.003": 12.4465516804,
			"0.004": 10.940690886,
			"0.005": 12.53231935,
			"0.006": 3.52187395945,
			"0.007": 1.92428594974,
			"0.008": 1.59065945519,
			"0.009": 1.4781486793,
			"0.01": 1.92144113225,
			"0.011": 2.02631103264,
			"0.012": 4.00192430114,
			"0.013": 4.43549859905,
			"0.014": 1.54653557931,
			"0.015": 0.123377193849,
			"0.016": 0.0,
			"0.017": 0.0,
			"0.018": 0.0,
			"0.019": 0.0,
			"0.02": 0.0,
			"0.021": 0.0,
			"0.022": 0.0,
			"0.023": 0.0,
			"0.024": 0.0,
			"0.025": 0.0
		}
	}
}
