{
	 "smiles": "FC1=C(F)C=C2C(NC(=O)C2=O)=C1", 
	 "Tm": 503.15, 
	 "num_atms": 16, 
	 "gaussian": { 
		 "optdone": 1, 
		 "sigma_profile": "yes", 
		 "theory": "DFT", 
		 "functional": "B3LYP", 
		 "basiset": "6-31G**", 
		 "properties": { 
			 "R2extent": 2452.4511, 
			 "electric_dipole_moment_norm": 4.22461038559, 
			 "electric_quadrupole_moment_norm": 22.8437935838, 
			 "total_energy": -711.515251304, 
			 "HOMO_LUMO_gap": 0.13942, 
			 "cosmo_polarized_energy": -15.16, 
			 "cosmo_cavitation_energy": 23.06, 
			 "cosmo_dispersion_energy": -16.71, 
			 "cosmo_repulsion_energy": 1.27, 
			 "cosmo_total_nonelectrostatic_energy": 7.62, 
			 "SMD_solvation_energy": 6.35 
		},
		"coords": [
			{
				"x": -2.8258561538,
				"y": 0.7440356965,
				"z": 1.1929915802,
				"element": "F" 
			},
			{
				"x": -1.6672984617,
				"y": 0.3154087703,
				"z": 0.6812868864,
				"element": "C" 
			},
			{
				"x": -1.6823820344,
				"y": -0.8227419403,
				"z": -0.1365113409,
				"element": "C" 
			},
			{
				"x": -2.8577789364,
				"y": -1.4298069924,
				"z": -0.3683889865,
				"element": "F" 
			},
			{
				"x": -0.5058326633,
				"y": -1.3044585395,
				"z": -0.6895778161,
				"element": "C" 
			},
			{
				"x": 0.6771153002,
				"y": -0.6234679738,
				"z": -0.4056712965,
				"element": "C" 
			},
			{
				"x": 0.6813154638,
				"y": 0.5203389344,
				"z": 0.4178412617,
				"element": "C" 
			},
			{
				"x": 1.9826588859,
				"y": 1.0211800749,
				"z": 0.5505581683,
				"element": "N" 
			},
			{
				"x": 2.9060409778,
				"y": 0.2632931972,
				"z": -0.1583021257,
				"element": "C" 
			},
			{
				"x": 4.0977684616,
				"y": 0.449429615,
				"z": -0.232865945,
				"element": "O" 
			},
			{
				"x": 2.0618182373,
				"y": -0.8779548053,
				"z": -0.8308962106,
				"element": "C" 
			},
			{
				"x": 2.5207822151,
				"y": -1.7465995324,
				"z": -1.5385092655,
				"element": "O" 
			},
			{
				"x": -0.4934691026,
				"y": 1.0094045282,
				"z": 0.9760368025,
				"element": "C" 
			},
			{
				"x": -0.5135073696,
				"y": -2.1851343933,
				"z": -1.3228814139,
				"element": "H" 
			},
			{
				"x": 2.2414430175,
				"y": 1.8337609074,
				"z": 1.0907470072,
				"element": "H" 
			},
			{
				"x": -0.5354178375,
				"y": 1.8847124529,
				"z": 1.6141426943,
				"element": "H" 
			}
		],
		 "valence_orbital": [ 
			{
				"type": "occ",
				"energy": -0.32991,
				"method": "rhf"
			},
			{
				"type": "occ",
				"energy": -0.31975,
				"method": "rhf"
			},
			{
				"type": "occ",
				"energy": -0.28951,
				"method": "rhf"
			},
			{
				"type": "occ",
				"energy": -0.25704,
				"method": "rhf"
			},
			{
				"type": "occ",
				"energy": -0.24629,
				"method": "rhf"
			},
			{
				"type": "unocc",
				"energy": -0.10687,
				"method": "rhf"
			},
			{
				"type": "unocc",
				"energy": -0.03741,
				"method": "rhf"
			},
			{
				"type": "unocc",
				"energy": 0.00292,
				"method": "rhf"
			},
			{
				"type": "unocc",
				"energy": 0.05344,
				"method": "rhf"
			},
			{
				"type": "unocc",
				"energy": 0.06595,
				"method": "rhf"
			}
		],
		"cosmo_sigma_profile": { 
			"-0.025": 0.0,
			"-0.024": 0.0,
			"-0.023": 0.0,
			"-0.022": 0.0,
			"-0.021": 0.0,
			"-0.02": 0.0,
			"-0.019": 0.0,
			"-0.018": 0.0,
			"-0.017": 1.20291317354,
			"-0.016": 1.68928481547,
			"-0.015": 1.37563691899,
			"-0.014": 0.949471779932,
			"-0.013": 1.08295669977,
			"-0.012": 1.09850024174,
			"-0.011": 1.73397167477,
			"-0.01": 2.41386789158,
			"-0.009": 4.23276132232,
			"-0.008": 5.05913569171,
			"-0.007": 5.14690200134,
			"-0.006": 4.84221847686,
			"-0.005": 5.76335211108,
			"-0.004": 6.8976981869,
			"-0.003": 11.2235557431,
			"-0.002": 19.8586020931,
			"-0.001": 18.9364837842,
			"0.0": 14.2243675622,
			"0.001": 7.32057918835,
			"0.002": 9.85504118465,
			"0.003": 18.8093267668,
			"0.004": 7.03072543849,
			"0.005": 2.83148837995,
			"0.006": 2.4363489031,
			"0.007": 3.11310009358,
			"0.008": 3.64205599189,
			"0.009": 5.08094414712,
			"0.01": 9.09755590921,
			"0.011": 7.94748856813,
			"0.012": 2.24601864793,
			"0.013": 0.00880459333706,
			"0.014": 0.0,
			"0.015": 0.0,
			"0.016": 0.0,
			"0.017": 0.0,
			"0.018": 0.0,
			"0.019": 0.0,
			"0.02": 0.0,
			"0.021": 0.0,
			"0.022": 0.0,
			"0.023": 0.0,
			"0.024": 0.0,
			"0.025": 0.0
		}
	}
}
