{
	 "smiles": "OC1=CC=CC=C1C1NN2C(S1)=NN=C2C1=CC=CC(=C1)[N+]([O-])=O", 
	 "Tm": 483.15, 
	 "num_atms": 35, 
	 "gaussian": { 
		 "optdone": 1, 
		 "sigma_profile": "yes", 
		 "theory": "DFT", 
		 "functional": "B3LYP", 
		 "basiset": "6-31G**", 
		 "properties": { 
			 "R2extent": 10148.0042, 
			 "electric_dipole_moment_norm": 5.11033484813, 
			 "electric_quadrupole_moment_norm": 46.3211356171, 
			 "total_energy": -1475.67061387, 
			 "HOMO_LUMO_gap": 0.13639, 
			 "cosmo_polarized_energy": -24.93, 
			 "cosmo_cavitation_energy": 42.5, 
			 "cosmo_dispersion_energy": -30.47, 
			 "cosmo_repulsion_energy": 2.24, 
			 "cosmo_total_nonelectrostatic_energy": 14.28, 
			 "SMD_solvation_energy": 6.64 
		},
		"coords": [
			{
				"x": -3.2167871562,
				"y": 0.4981660542,
				"z": 1.6956431429,
				"element": "O" 
			},
			{
				"x": -3.5749517776,
				"y": -0.4720837879,
				"z": 0.807946754,
				"element": "C" 
			},
			{
				"x": -4.765738958,
				"y": -0.4106359238,
				"z": 0.0763801909,
				"element": "C" 
			},
			{
				"x": -5.0866233027,
				"y": -1.4237948966,
				"z": -0.8242557019,
				"element": "C" 
			},
			{
				"x": -4.2270219811,
				"y": -2.5094308308,
				"z": -1.0011227914,
				"element": "C" 
			},
			{
				"x": -3.0439667756,
				"y": -2.569728513,
				"z": -0.267259493,
				"element": "C" 
			},
			{
				"x": -2.6970568101,
				"y": -1.5609784818,
				"z": 0.6407362622,
				"element": "C" 
			},
			{
				"x": -1.4018709238,
				"y": -1.5845748382,
				"z": 1.4001112599,
				"element": "C" 
			},
			{
				"x": -0.2529339405,
				"y": -1.2571484746,
				"z": 0.5438318628,
				"element": "N" 
			},
			{
				"x": 0.8685980947,
				"y": -1.7722323022,
				"z": 1.2215648553,
				"element": "N" 
			},
			{
				"x": 0.6848501857,
				"y": -2.8274075587,
				"z": 2.0779222593,
				"element": "C" 
			},
			{
				"x": -1.0079788192,
				"y": -3.2834296815,
				"z": 2.2076662622,
				"element": "S" 
			},
			{
				"x": 1.8241879951,
				"y": -3.2101756498,
				"z": 2.5974877595,
				"element": "N" 
			},
			{
				"x": 2.7929899965,
				"y": -2.3843591425,
				"z": 2.0513628502,
				"element": "N" 
			},
			{
				"x": 2.220684395,
				"y": -1.5129532795,
				"z": 1.2372909708,
				"element": "C" 
			},
			{
				"x": 2.9271493364,
				"y": -0.4631040723,
				"z": 0.5018508097,
				"element": "C" 
			},
			{
				"x": 4.3330416664,
				"y": -0.426040848,
				"z": 0.5733764064,
				"element": "C" 
			},
			{
				"x": 5.0509615339,
				"y": 0.5578075208,
				"z": -0.100432679,
				"element": "C" 
			},
			{
				"x": 4.3897685482,
				"y": 1.523803947,
				"z": -0.8599881317,
				"element": "C" 
			},
			{
				"x": 2.9995456461,
				"y": 1.4731502031,
				"z": -0.9186533397,
				"element": "C" 
			},
			{
				"x": 2.2527455728,
				"y": 0.5034687419,
				"z": -0.2549848578,
				"element": "C" 
			},
			{
				"x": 2.2850491821,
				"y": 2.4857025725,
				"z": -1.7160616299,
				"element": "N" 
			},
			{
				"x": 2.9589424214,
				"y": 3.3451269742,
				"z": -2.2827758148,
				"element": "O" 
			},
			{
				"x": 1.0576742361,
				"y": 2.4109809465,
				"z": -1.7692849096,
				"element": "O" 
			},
			{
				"x": -3.8933111368,
				"y": 1.187307058,
				"z": 1.714267278,
				"element": "H" 
			},
			{
				"x": -5.4368178067,
				"y": 0.4342043198,
				"z": 0.2141038279,
				"element": "H" 
			},
			{
				"x": -6.0142290517,
				"y": -1.3635378175,
				"z": -1.3855298765,
				"element": "H" 
			},
			{
				"x": -4.478814895,
				"y": -3.3038497012,
				"z": -1.6956245016,
				"element": "H" 
			},
			{
				"x": -2.3812119637,
				"y": -3.4232790716,
				"z": -0.3792390906,
				"element": "H" 
			},
			{
				"x": -1.4156726681,
				"y": -0.8747335869,
				"z": 2.2256330813,
				"element": "H" 
			},
			{
				"x": -0.3392669289,
				"y": -1.7638521532,
				"z": -0.3414475941,
				"element": "H" 
			},
			{
				"x": 4.8391053554,
				"y": -1.1793090519,
				"z": 1.1670570978,
				"element": "H" 
			},
			{
				"x": 6.1342096853,
				"y": 0.5733943688,
				"z": -0.0361122689,
				"element": "H" 
			},
			{
				"x": 4.9204771207,
				"y": 2.2995164674,
				"z": -1.3970056794,
				"element": "H" 
			},
			{
				"x": 1.1727739239,
				"y": 0.5205104892,
				"z": -0.3263545712,
				"element": "H" 
			}
		],
		 "valence_orbital": [ 
			{
				"type": "occ",
				"energy": -0.27605,
				"method": "rhf"
			},
			{
				"type": "occ",
				"energy": -0.27216,
				"method": "rhf"
			},
			{
				"type": "occ",
				"energy": -0.25923,
				"method": "rhf"
			},
			{
				"type": "occ",
				"energy": -0.24902,
				"method": "rhf"
			},
			{
				"type": "occ",
				"energy": -0.2264,
				"method": "rhf"
			},
			{
				"type": "unocc",
				"energy": -0.09001,
				"method": "rhf"
			},
			{
				"type": "unocc",
				"energy": -0.05388,
				"method": "rhf"
			},
			{
				"type": "unocc",
				"energy": -0.04313,
				"method": "rhf"
			},
			{
				"type": "unocc",
				"energy": -0.01705,
				"method": "rhf"
			},
			{
				"type": "unocc",
				"energy": -0.00837,
				"method": "rhf"
			}
		],
		"cosmo_sigma_profile": { 
			"-0.025": 0.0,
			"-0.024": 0.0,
			"-0.023": 0.0,
			"-0.022": 0.0,
			"-0.021": 0.0,
			"-0.02": 0.0,
			"-0.019": 0.0959819873488,
			"-0.018": 1.12671557543,
			"-0.017": 1.00624382417,
			"-0.016": 1.46700857192,
			"-0.015": 2.0788590094,
			"-0.014": 1.62511101021,
			"-0.013": 2.2787330422,
			"-0.012": 2.28951110878,
			"-0.011": 3.7862036379,
			"-0.01": 2.22826871371,
			"-0.009": 2.23492481387,
			"-0.008": 6.02430391385,
			"-0.007": 11.3513764958,
			"-0.006": 18.8728206265,
			"-0.005": 16.0417074707,
			"-0.004": 19.8042706399,
			"-0.003": 18.0703365556,
			"-0.002": 22.1399271311,
			"-0.001": 25.2420596355,
			"0.0": 29.9701372353,
			"0.001": 29.0313358181,
			"0.002": 21.3704081505,
			"0.003": 17.0497463736,
			"0.004": 18.7242520045,
			"0.005": 14.1331111644,
			"0.006": 8.561292952,
			"0.007": 12.9335492827,
			"0.008": 9.89782216257,
			"0.009": 6.68866848809,
			"0.01": 3.80807174398,
			"0.011": 2.47048943479,
			"0.012": 3.5863115601,
			"0.013": 3.48148705112,
			"0.014": 2.5312009612,
			"0.015": 1.6915098527,
			"0.016": 0.855075252452,
			"0.017": 0.0114955251161,
			"0.018": 0.0,
			"0.019": 0.0,
			"0.02": 0.0,
			"0.021": 0.0,
			"0.022": 0.0,
			"0.023": 0.0,
			"0.024": 0.0,
			"0.025": 0.0
		}
	}
}
