{
	 "smiles": "CC1=NN(C(N)=N1)C1=CC=C(C=C1)C#N", 
	 "Tm": 544.15, 
	 "num_atms": 24, 
	 "gaussian": { 
		 "optdone": 1, 
		 "sigma_profile": "yes", 
		 "theory": "DFT", 
		 "functional": "B3LYP", 
		 "basiset": "6-31G**", 
		 "properties": { 
			 "R2extent": 4982.2394, 
			 "electric_dipole_moment_norm": 4.16767887798, 
			 "electric_quadrupole_moment_norm": 36.1088439869, 
			 "total_energy": -660.231844848, 
			 "HOMO_LUMO_gap": 0.17146, 
			 "cosmo_polarized_energy": -17.43, 
			 "cosmo_cavitation_energy": 29.82, 
			 "cosmo_dispersion_energy": -21.49, 
			 "cosmo_repulsion_energy": 1.69, 
			 "cosmo_total_nonelectrostatic_energy": 10.02, 
			 "SMD_solvation_energy": 4.15 
		},
		"coords": [
			{
				"x": 1.4205871748,
				"y": 2.8890389945,
				"z": 1.1089854462,
				"element": "C" 
			},
			{
				"x": 0.7895856186,
				"y": 1.7373896666,
				"z": 0.3997877347,
				"element": "C" 
			},
			{
				"x": -0.4217819656,
				"y": 1.3079103211,
				"z": 0.6929489874,
				"element": "N" 
			},
			{
				"x": -0.5843185042,
				"y": 0.2364623028,
				"z": -0.1696798684,
				"element": "N" 
			},
			{
				"x": 0.543601402,
				"y": 0.1306834414,
				"z": -0.9450106437,
				"element": "C" 
			},
			{
				"x": 0.7402956987,
				"y": -0.8290483679,
				"z": -1.9174768821,
				"element": "N" 
			},
			{
				"x": 1.4241205144,
				"y": 1.0507565081,
				"z": -0.606164346,
				"element": "N" 
			},
			{
				"x": -1.7865852489,
				"y": -0.5002612338,
				"z": -0.1691808782,
				"element": "C" 
			},
			{
				"x": -2.9622137055,
				"y": 0.1245395417,
				"z": 0.275398051,
				"element": "C" 
			},
			{
				"x": -4.1580180672,
				"y": -0.5788863713,
				"z": 0.2846464667,
				"element": "C" 
			},
			{
				"x": -4.2014269582,
				"y": -1.9156056387,
				"z": -0.1516478697,
				"element": "C" 
			},
			{
				"x": -3.0184354286,
				"y": -2.5395613225,
				"z": -0.5783656062,
				"element": "C" 
			},
			{
				"x": -1.8154616909,
				"y": -1.8417201944,
				"z": -0.5806236983,
				"element": "C" 
			},
			{
				"x": -5.4391222828,
				"y": -2.6369924672,
				"z": -0.1533680409,
				"element": "C" 
			},
			{
				"x": -6.4444605087,
				"y": -3.2228029166,
				"z": -0.1578284344,
				"element": "N" 
			},
			{
				"x": 2.3401052205,
				"y": 2.572261423,
				"z": 1.6117003183,
				"element": "H" 
			},
			{
				"x": 0.7321799886,
				"y": 3.2981144794,
				"z": 1.8502908649,
				"element": "H" 
			},
			{
				"x": 1.6930722473,
				"y": 3.6755434762,
				"z": 0.3980598863,
				"element": "H" 
			},
			{
				"x": 1.5616967846,
				"y": -0.6150116981,
				"z": -2.4696749068,
				"element": "H" 
			},
			{
				"x": -0.0672636563,
				"y": -1.0391353844,
				"z": -2.4913908311,
				"element": "H" 
			},
			{
				"x": -2.9124476613,
				"y": 1.1515853919,
				"z": 0.6142334954,
				"element": "H" 
			},
			{
				"x": -5.0684835763,
				"y": -0.0966436144,
				"z": 0.6239964728,
				"element": "H" 
			},
			{
				"x": -3.0422982339,
				"y": -3.5777028886,
				"z": -0.8919696998,
				"element": "H" 
			},
			{
				"x": -0.899527161,
				"y": -2.345213449,
				"z": -0.866166018,
				"element": "H" 
			}
		],
		 "valence_orbital": [ 
			{
				"type": "occ",
				"energy": -0.30549,
				"method": "rhf"
			},
			{
				"type": "occ",
				"energy": -0.28536,
				"method": "rhf"
			},
			{
				"type": "occ",
				"energy": -0.27936,
				"method": "rhf"
			},
			{
				"type": "occ",
				"energy": -0.2589,
				"method": "rhf"
			},
			{
				"type": "occ",
				"energy": -0.23286,
				"method": "rhf"
			},
			{
				"type": "unocc",
				"energy": -0.0614,
				"method": "rhf"
			},
			{
				"type": "unocc",
				"energy": -0.0343,
				"method": "rhf"
			},
			{
				"type": "unocc",
				"energy": 0.01714,
				"method": "rhf"
			},
			{
				"type": "unocc",
				"energy": 0.03406,
				"method": "rhf"
			},
			{
				"type": "unocc",
				"energy": 0.05232,
				"method": "rhf"
			}
		],
		"cosmo_sigma_profile": { 
			"-0.025": 0.0,
			"-0.024": 0.0,
			"-0.023": 0.0,
			"-0.022": 0.0,
			"-0.021": 0.0,
			"-0.02": 0.0,
			"-0.019": 0.0,
			"-0.018": 0.0,
			"-0.017": 0.0,
			"-0.016": 0.0,
			"-0.015": 0.0661761001115,
			"-0.014": 2.27783384477,
			"-0.013": 2.4420575673,
			"-0.012": 2.69943652356,
			"-0.011": 3.39189989125,
			"-0.01": 2.30573094813,
			"-0.009": 2.34874064082,
			"-0.008": 6.4652187056,
			"-0.007": 9.3093589394,
			"-0.006": 10.1441473921,
			"-0.005": 12.1520266064,
			"-0.004": 11.8268675352,
			"-0.003": 14.2523922793,
			"-0.002": 17.2271400817,
			"-0.001": 22.8570788016,
			"0.0": 19.6771917004,
			"0.001": 19.8554819401,
			"0.002": 15.3415506378,
			"0.003": 7.64204396248,
			"0.004": 5.90983331077,
			"0.005": 5.96456359671,
			"0.006": 7.14487076883,
			"0.007": 5.12984004889,
			"0.008": 6.34280419333,
			"0.009": 6.68495552701,
			"0.01": 6.07018145546,
			"0.011": 4.12609193789,
			"0.012": 4.51248197346,
			"0.013": 2.8714159754,
			"0.014": 1.59450636064,
			"0.015": 0.562339057277,
			"0.016": 0.92896737439,
			"0.017": 0.0635734698375,
			"0.018": 0.0,
			"0.019": 0.0,
			"0.02": 0.0,
			"0.021": 0.0,
			"0.022": 0.0,
			"0.023": 0.0,
			"0.024": 0.0,
			"0.025": 0.0
		}
	}
}
