{
	 "smiles": "FC1=CC=CC(OCC2=CC=C(Cl)C=C2)=C1C#N", 
	 "Tm": 420.15, 
	 "num_atms": 27, 
	 "gaussian": { 
		 "optdone": 1, 
		 "sigma_profile": "yes", 
		 "theory": "DFT", 
		 "functional": "B3LYP", 
		 "basiset": "6-31G**", 
		 "properties": { 
			 "R2extent": 6297.0105, 
			 "electric_dipole_moment_norm": 3.71399268847, 
			 "electric_quadrupole_moment_norm": 25.6923278786, 
			 "total_energy": -1228.88477111, 
			 "HOMO_LUMO_gap": 0.19477, 
			 "cosmo_polarized_energy": -11.43, 
			 "cosmo_cavitation_energy": 35.58, 
			 "cosmo_dispersion_energy": -23.84, 
			 "cosmo_repulsion_energy": 1.84, 
			 "cosmo_total_nonelectrostatic_energy": 13.57, 
			 "SMD_solvation_energy": 7.4 
		},
		"coords": [
			{
				"x": 2.2087009051,
				"y": 1.3562884573,
				"z": 3.749660137,
				"element": "F" 
			},
			{
				"x": 1.2907449368,
				"y": 0.4652961312,
				"z": 3.3461775496,
				"element": "C" 
			},
			{
				"x": 0.1201653956,
				"y": 0.3153057247,
				"z": 4.0729932315,
				"element": "C" 
			},
			{
				"x": -0.8108697828,
				"y": -0.6301882696,
				"z": 3.639286667,
				"element": "C" 
			},
			{
				"x": -0.5796041721,
				"y": -1.3970262212,
				"z": 2.4974329091,
				"element": "C" 
			},
			{
				"x": 0.5996899561,
				"y": -1.2361238075,
				"z": 1.7684108513,
				"element": "C" 
			},
			{
				"x": 0.8313910235,
				"y": -2.0508980834,
				"z": 0.6976891884,
				"element": "O" 
			},
			{
				"x": 0.8589654823,
				"y": -1.4474930081,
				"z": -0.6213961953,
				"element": "C" 
			},
			{
				"x": -0.5157736166,
				"y": -1.0423417529,
				"z": -1.0956995877,
				"element": "C" 
			},
			{
				"x": -0.8112830411,
				"y": 0.2926802704,
				"z": -1.3877188782,
				"element": "C" 
			},
			{
				"x": -2.0808936718,
				"y": 0.6696010203,
				"z": -1.8302820128,
				"element": "C" 
			},
			{
				"x": -3.0639525989,
				"y": -0.3071219223,
				"z": -1.97083395,
				"element": "C" 
			},
			{
				"x": -4.6676223159,
				"y": 0.152324641,
				"z": -2.522580055,
				"element": "Cl" 
			},
			{
				"x": -2.7977547084,
				"y": -1.6472952827,
				"z": -1.6811363607,
				"element": "C" 
			},
			{
				"x": -1.5239466904,
				"y": -2.0049631041,
				"z": -1.2472470997,
				"element": "C" 
			},
			{
				"x": 1.5654593572,
				"y": -0.2935230646,
				"z": 2.1973450018,
				"element": "C" 
			},
			{
				"x": 2.8111507423,
				"y": -0.1274647052,
				"z": 1.5195062429,
				"element": "C" 
			},
			{
				"x": 3.820613735,
				"y": 0.0070194282,
				"z": 0.9570056699,
				"element": "N" 
			},
			{
				"x": -0.0413306024,
				"y": 0.9246911074,
				"z": 4.954406434,
				"element": "H" 
			},
			{
				"x": -1.7330428611,
				"y": -0.7638649779,
				"z": 4.1960285635,
				"element": "H" 
			},
			{
				"x": -1.3012026118,
				"y": -2.1279491942,
				"z": 2.1523724597,
				"element": "H" 
			},
			{
				"x": 1.2799745466,
				"y": -2.2344871531,
				"z": -1.2520651088,
				"element": "H" 
			},
			{
				"x": 1.5475168022,
				"y": -0.5978726256,
				"z": -0.639444484,
				"element": "H" 
			},
			{
				"x": -0.0424644415,
				"y": 1.0523560567,
				"z": -1.2735688901,
				"element": "H" 
			},
			{
				"x": -2.3052142008,
				"y": 1.705569382,
				"z": -2.0585333438,
				"element": "H" 
			},
			{
				"x": -3.5757322996,
				"y": -2.3932332249,
				"z": -1.8006073788,
				"element": "H" 
			},
			{
				"x": -1.3091852675,
				"y": -3.0455858219,
				"z": -1.0199015608,
				"element": "H" 
			}
		],
		 "valence_orbital": [ 
			{
				"type": "occ",
				"energy": -0.30606,
				"method": "rhf"
			},
			{
				"type": "occ",
				"energy": -0.27458,
				"method": "rhf"
			},
			{
				"type": "occ",
				"energy": -0.26939,
				"method": "rhf"
			},
			{
				"type": "occ",
				"energy": -0.26176,
				"method": "rhf"
			},
			{
				"type": "occ",
				"energy": -0.25391,
				"method": "rhf"
			},
			{
				"type": "unocc",
				"energy": -0.05914,
				"method": "rhf"
			},
			{
				"type": "unocc",
				"energy": -0.0321,
				"method": "rhf"
			},
			{
				"type": "unocc",
				"energy": -0.0267,
				"method": "rhf"
			},
			{
				"type": "unocc",
				"energy": -0.01767,
				"method": "rhf"
			},
			{
				"type": "unocc",
				"energy": 0.0218,
				"method": "rhf"
			}
		],
		"cosmo_sigma_profile": { 
			"-0.025": 0.0,
			"-0.024": 0.0,
			"-0.023": 0.0,
			"-0.022": 0.0,
			"-0.021": 0.0,
			"-0.02": 0.0,
			"-0.019": 0.0,
			"-0.018": 0.0,
			"-0.017": 0.0,
			"-0.016": 0.0,
			"-0.015": 0.0,
			"-0.014": 0.0,
			"-0.013": 0.0,
			"-0.012": 0.0,
			"-0.011": 0.0,
			"-0.01": 0.0,
			"-0.009": 0.318711960262,
			"-0.008": 4.81391351077,
			"-0.007": 15.1194138311,
			"-0.006": 19.129729844,
			"-0.005": 17.0141863285,
			"-0.004": 15.1230148731,
			"-0.003": 15.3527309068,
			"-0.002": 19.1508652767,
			"-0.001": 22.6440988986,
			"0.0": 21.9132723293,
			"0.001": 26.7221930587,
			"0.002": 28.8344010155,
			"0.003": 33.2431565525,
			"0.004": 16.1152868316,
			"0.005": 10.0832451353,
			"0.006": 3.26024131974,
			"0.007": 3.80489019843,
			"0.008": 3.61404402546,
			"0.009": 4.13148935579,
			"0.01": 3.69434869833,
			"0.011": 2.57315189179,
			"0.012": 2.28672441272,
			"0.013": 0.629456799115,
			"0.014": 0.0,
			"0.015": 0.0,
			"0.016": 0.0,
			"0.017": 0.0,
			"0.018": 0.0,
			"0.019": 0.0,
			"0.02": 0.0,
			"0.021": 0.0,
			"0.022": 0.0,
			"0.023": 0.0,
			"0.024": 0.0,
			"0.025": 0.0
		}
	}
}
