{
	 "smiles": "OCC1=C(F)C(F)=CC(F)=C1F", 
	 "Tm": 309.15, 
	 "num_atms": 16, 
	 "gaussian": { 
		 "optdone": 1, 
		 "sigma_profile": "yes", 
		 "theory": "DFT", 
		 "functional": "B3LYP", 
		 "basiset": "6-31G**", 
		 "properties": { 
			 "R2extent": 3537.5428, 
			 "electric_dipole_moment_norm": 1.48587819824, 
			 "electric_quadrupole_moment_norm": 6.4179494568, 
			 "total_energy": -743.685562566, 
			 "HOMO_LUMO_gap": 0.21791, 
			 "cosmo_polarized_energy": -6.53, 
			 "cosmo_cavitation_energy": 22.36, 
			 "cosmo_dispersion_energy": -16.11, 
			 "cosmo_repulsion_energy": 1.21, 
			 "cosmo_total_nonelectrostatic_energy": 7.45, 
			 "SMD_solvation_energy": 5.7 
		},
		"coords": [
			{
				"x": 1.5920856011,
				"y": -3.5448480928,
				"z": 1.6442235951,
				"element": "O" 
			},
			{
				"x": 1.1221554247,
				"y": -2.2259280029,
				"z": 1.4312458211,
				"element": "C" 
			},
			{
				"x": 0.8249842873,
				"y": -1.9274565941,
				"z": -0.0286862112,
				"element": "C" 
			},
			{
				"x": -0.4285297159,
				"y": -1.5042234673,
				"z": -0.4672279453,
				"element": "C" 
			},
			{
				"x": -1.4274028561,
				"y": -1.3293711005,
				"z": 0.4163096477,
				"element": "F" 
			},
			{
				"x": -0.6760203009,
				"y": -1.2475949359,
				"z": -1.8160794254,
				"element": "C" 
			},
			{
				"x": -1.8987420048,
				"y": -0.8403718699,
				"z": -2.1879671281,
				"element": "F" 
			},
			{
				"x": 0.3225944733,
				"y": -1.4124138889,
				"z": -2.7666777166,
				"element": "C" 
			},
			{
				"x": 1.5776236407,
				"y": -1.8364697747,
				"z": -2.3438086794,
				"element": "C" 
			},
			{
				"x": 2.5690203558,
				"y": -2.0068436581,
				"z": -3.2314393473,
				"element": "F" 
			},
			{
				"x": 1.8160146032,
				"y": -2.0856122638,
				"z": -0.9969887551,
				"element": "C" 
			},
			{
				"x": 3.0475361061,
				"y": -2.4965585988,
				"z": -0.6116018735,
				"element": "F" 
			},
			{
				"x": 2.4473917611,
				"y": -3.6223164181,
				"z": 1.2012352388,
				"element": "H" 
			},
			{
				"x": 0.2022540267,
				"y": -2.1234948496,
				"z": 2.0085677161,
				"element": "H" 
			},
			{
				"x": 1.8350260473,
				"y": -1.4765578771,
				"z": 1.807958994,
				"element": "H" 
			},
			{
				"x": 0.1285085506,
				"y": -1.2153386074,
				"z": -3.8138639309,
				"element": "H" 
			}
		],
		 "valence_orbital": [ 
			{
				"type": "occ",
				"energy": -0.36086,
				"method": "rhf"
			},
			{
				"type": "occ",
				"energy": -0.34308,
				"method": "rhf"
			},
			{
				"type": "occ",
				"energy": -0.2846,
				"method": "rhf"
			},
			{
				"type": "occ",
				"energy": -0.27358,
				"method": "rhf"
			},
			{
				"type": "occ",
				"energy": -0.25305,
				"method": "rhf"
			},
			{
				"type": "unocc",
				"energy": -0.03514,
				"method": "rhf"
			},
			{
				"type": "unocc",
				"energy": -0.01211,
				"method": "rhf"
			},
			{
				"type": "unocc",
				"energy": 0.03549,
				"method": "rhf"
			},
			{
				"type": "unocc",
				"energy": 0.08288,
				"method": "rhf"
			},
			{
				"type": "unocc",
				"energy": 0.10776,
				"method": "rhf"
			}
		],
		"cosmo_sigma_profile": { 
			"-0.025": 0.0,
			"-0.024": 0.0,
			"-0.023": 0.0,
			"-0.022": 0.0,
			"-0.021": 0.0,
			"-0.02": 0.0,
			"-0.019": 0.0,
			"-0.018": 0.0,
			"-0.017": 0.0,
			"-0.016": 0.0,
			"-0.015": 0.0,
			"-0.014": 0.104988201082,
			"-0.013": 0.565065662817,
			"-0.012": 0.628977116301,
			"-0.011": 0.954482005704,
			"-0.01": 1.65450086982,
			"-0.009": 2.91123047689,
			"-0.008": 1.77433299799,
			"-0.007": 3.53524611264,
			"-0.006": 5.18061981732,
			"-0.005": 8.39244000113,
			"-0.004": 8.4299621897,
			"-0.003": 9.74967644661,
			"-0.002": 21.9203528877,
			"-0.001": 21.3219656207,
			"0.0": 13.4508854474,
			"0.001": 8.69319787309,
			"0.002": 15.0993212618,
			"0.003": 32.2535389271,
			"0.004": 10.0106315849,
			"0.005": 0.992328213567,
			"0.006": 1.46117007027,
			"0.007": 0.994795053733,
			"0.008": 1.80007076437,
			"0.009": 0.934209584462,
			"0.01": 0.690717212696,
			"0.011": 1.56240205624,
			"0.012": 1.83399715873,
			"0.013": 2.18184220007,
			"0.014": 0.933528547298,
			"0.015": 0.0,
			"0.016": 0.0,
			"0.017": 0.0,
			"0.018": 0.0,
			"0.019": 0.0,
			"0.02": 0.0,
			"0.021": 0.0,
			"0.022": 0.0,
			"0.023": 0.0,
			"0.024": 0.0,
			"0.025": 0.0
		}
	}
}
