{
	 "smiles": "COC(=O)C1=C(N)OC2=C(C1C1=CC(=CC=C1)[N+]([O-])=O)C(=O)N(CCC1=CC=CC=C1)C(C)=C2", 
	 "Tm": 489.15, 
	 "num_atms": 57, 
	 "gaussian": { 
		 "optdone": 1, 
		 "sigma_profile": "yes", 
		 "theory": "DFT", 
		 "functional": "B3LYP", 
		 "basiset": "6-31G**", 
		 "properties": { 
			 "R2extent": 15552.1201, 
			 "electric_dipole_moment_norm": 6.74461392075, 
			 "electric_quadrupole_moment_norm": 34.6771720097, 
			 "total_energy": -1582.06004874, 
			 "HOMO_LUMO_gap": 0.14015, 
			 "cosmo_polarized_energy": -22.46, 
			 "cosmo_cavitation_energy": 60.37, 
			 "cosmo_dispersion_energy": -38.18, 
			 "cosmo_repulsion_energy": 2.89, 
			 "cosmo_total_nonelectrostatic_energy": 25.07, 
			 "SMD_solvation_energy": 13.96 
		},
		"coords": [
			{
				"x": 6.033026274,
				"y": -0.839976348,
				"z": 0.6571867937,
				"element": "C" 
			},
			{
				"x": 4.6693108591,
				"y": -0.4170693584,
				"z": 0.5306936518,
				"element": "O" 
			},
			{
				"x": 4.3053336555,
				"y": 0.6235942604,
				"z": 1.3214059115,
				"element": "C" 
			},
			{
				"x": 5.112765184,
				"y": 1.1641265214,
				"z": 2.0825450747,
				"element": "O" 
			},
			{
				"x": 2.9119288438,
				"y": 0.9909390856,
				"z": 1.1413186567,
				"element": "C" 
			},
			{
				"x": 2.4275682463,
				"y": 2.0615089414,
				"z": 1.8555889899,
				"element": "C" 
			},
			{
				"x": 3.0915497601,
				"y": 2.7590297953,
				"z": 2.7982380896,
				"element": "N" 
			},
			{
				"x": 1.1583518118,
				"y": 2.5485793121,
				"z": 1.6963275905,
				"element": "O" 
			},
			{
				"x": 0.4043674164,
				"y": 2.0901716101,
				"z": 0.6399377195,
				"element": "C" 
			},
			{
				"x": 0.778259602,
				"y": 1.0128010494,
				"z": -0.1111671124,
				"element": "C" 
			},
			{
				"x": 2.0155880164,
				"y": 0.2015132429,
				"z": 0.2043430979,
				"element": "C" 
			},
			{
				"x": 1.6240962616,
				"y": -1.1785953621,
				"z": 0.7586204297,
				"element": "C" 
			},
			{
				"x": 1.2035915561,
				"y": -1.3240111564,
				"z": 2.0827002285,
				"element": "C" 
			},
			{
				"x": 0.8325516769,
				"y": -2.5834827002,
				"z": 2.5483352665,
				"element": "C" 
			},
			{
				"x": 0.8673525096,
				"y": -3.7189936119,
				"z": 1.7400105563,
				"element": "C" 
			},
			{
				"x": 1.2833544571,
				"y": -3.5674048228,
				"z": 0.4200134877,
				"element": "C" 
			},
			{
				"x": 1.6539433638,
				"y": -2.3110445148,
				"z": -0.0662582611,
				"element": "C" 
			},
			{
				"x": 0.3875828677,
				"y": -2.7197495562,
				"z": 3.9438169167,
				"element": "N" 
			},
			{
				"x": 0.3435190105,
				"y": -1.7018752308,
				"z": 4.6359840827,
				"element": "O" 
			},
			{
				"x": 0.0800161876,
				"y": -3.8445128216,
				"z": 4.3406001797,
				"element": "O" 
			},
			{
				"x": -0.0373660399,
				"y": 0.6277105069,
				"z": -1.2397174029,
				"element": "C" 
			},
			{
				"x": 0.245057409,
				"y": -0.2946420506,
				"z": -2.0127671039,
				"element": "O" 
			},
			{
				"x": -1.23572514,
				"y": 1.369360447,
				"z": -1.4407108516,
				"element": "N" 
			},
			{
				"x": -2.0608140915,
				"y": 0.8963335281,
				"z": -2.5684652257,
				"element": "C" 
			},
			{
				"x": -2.8416060821,
				"y": -0.4008956699,
				"z": -2.2585094273,
				"element": "C" 
			},
			{
				"x": -3.8880882317,
				"y": -0.2674164208,
				"z": -1.1744612633,
				"element": "C" 
			},
			{
				"x": -5.193274742,
				"y": 0.1458508848,
				"z": -1.4827291796,
				"element": "C" 
			},
			{
				"x": -6.153997271,
				"y": 0.2985193134,
				"z": -0.4816831983,
				"element": "C" 
			},
			{
				"x": -5.824186637,
				"y": 0.037246021,
				"z": 0.8501214092,
				"element": "C" 
			},
			{
				"x": -4.5315270429,
				"y": -0.3809619529,
				"z": 1.1705407837,
				"element": "C" 
			},
			{
				"x": -3.5737093226,
				"y": -0.533147941,
				"z": 0.1660683897,
				"element": "C" 
			},
			{
				"x": -1.5924885848,
				"y": 2.441641295,
				"z": -0.6508871826,
				"element": "C" 
			},
			{
				"x": -2.8559026108,
				"y": 3.2035890067,
				"z": -0.9484114937,
				"element": "C" 
			},
			{
				"x": -0.7800646587,
				"y": 2.8205465106,
				"z": 0.3859721496,
				"element": "C" 
			},
			{
				"x": 6.1404968211,
				"y": -1.6872226178,
				"z": -0.0205470061,
				"element": "H" 
			},
			{
				"x": 6.7176038784,
				"y": -0.0356972307,
				"z": 0.3749512513,
				"element": "H" 
			},
			{
				"x": 6.2520428546,
				"y": -1.1413462168,
				"z": 1.6846557635,
				"element": "H" 
			},
			{
				"x": 2.7292047084,
				"y": 3.6574033398,
				"z": 3.0745241455,
				"element": "H" 
			},
			{
				"x": 4.0742918184,
				"y": 2.5159259186,
				"z": 2.9021831604,
				"element": "H" 
			},
			{
				"x": 2.5451822531,
				"y": 0.0193015891,
				"z": -0.7357885856,
				"element": "H" 
			},
			{
				"x": 1.1676193637,
				"y": -0.481430831,
				"z": 2.7624009146,
				"element": "H" 
			},
			{
				"x": 0.5742838545,
				"y": -4.6774302219,
				"z": 2.148951635,
				"element": "H" 
			},
			{
				"x": 1.3181899411,
				"y": -4.4323892962,
				"z": -0.2352755147,
				"element": "H" 
			},
			{
				"x": 1.9553869928,
				"y": -2.1964778601,
				"z": -1.1017172416,
				"element": "H" 
			},
			{
				"x": -2.7407391624,
				"y": 1.6942406005,
				"z": -2.8636079456,
				"element": "H" 
			},
			{
				"x": -1.3748475294,
				"y": 0.6970734787,
				"z": -3.393758469,
				"element": "H" 
			},
			{
				"x": -2.1115510936,
				"y": -1.1718872004,
				"z": -2.0003373226,
				"element": "H" 
			},
			{
				"x": -3.3161588913,
				"y": -0.7117454456,
				"z": -3.1971262743,
				"element": "H" 
			},
			{
				"x": -5.4610667675,
				"y": 0.340140475,
				"z": -2.5193105639,
				"element": "H" 
			},
			{
				"x": -7.1608643162,
				"y": 0.6128988052,
				"z": -0.7423507996,
				"element": "H" 
			},
			{
				"x": -6.5711673376,
				"y": 0.1508178198,
				"z": 1.630402156,
				"element": "H" 
			},
			{
				"x": -4.268158619,
				"y": -0.5950580758,
				"z": 2.2024570453,
				"element": "H" 
			},
			{
				"x": -2.5723397026,
				"y": -0.8683500819,
				"z": 0.4234530179,
				"element": "H" 
			},
			{
				"x": -2.81535723,
				"y": 3.6855000541,
				"z": -1.9321905564,
				"element": "H" 
			},
			{
				"x": -2.9886412654,
				"y": 3.9864455233,
				"z": -0.1999171454,
				"element": "H" 
			},
			{
				"x": -3.7368462943,
				"y": 2.5560812427,
				"z": -0.9268352183,
				"element": "H" 
			},
			{
				"x": -1.035128791,
				"y": 3.6674244177,
				"z": 1.0087818006,
				"element": "H" 
			}
		],
		 "valence_orbital": [ 
			{
				"type": "occ",
				"energy": -0.25493,
				"method": "rhf"
			},
			{
				"type": "occ",
				"energy": -0.25127,
				"method": "rhf"
			},
			{
				"type": "occ",
				"energy": -0.24736,
				"method": "rhf"
			},
			{
				"type": "occ",
				"energy": -0.21753,
				"method": "rhf"
			},
			{
				"type": "occ",
				"energy": -0.21537,
				"method": "rhf"
			},
			{
				"type": "unocc",
				"energy": -0.07522,
				"method": "rhf"
			},
			{
				"type": "unocc",
				"energy": -0.0441,
				"method": "rhf"
			},
			{
				"type": "unocc",
				"energy": -0.00984,
				"method": "rhf"
			},
			{
				"type": "unocc",
				"energy": -0.00916,
				"method": "rhf"
			},
			{
				"type": "unocc",
				"energy": -0.0065,
				"method": "rhf"
			}
		],
		"cosmo_sigma_profile": { 
			"-0.025": 0.0,
			"-0.024": 0.0,
			"-0.023": 0.0,
			"-0.022": 0.0,
			"-0.021": 0.0,
			"-0.02": 0.0,
			"-0.019": 0.0,
			"-0.018": 0.0,
			"-0.017": 0.0,
			"-0.016": 0.0,
			"-0.015": 0.559907090764,
			"-0.014": 1.35065133935,
			"-0.013": 0.68993037194,
			"-0.012": 1.29067393722,
			"-0.011": 0.940096487179,
			"-0.01": 1.35279793385,
			"-0.009": 1.95365028006,
			"-0.008": 2.57313345963,
			"-0.007": 9.70357343006,
			"-0.006": 20.1978316703,
			"-0.005": 35.0863911648,
			"-0.004": 41.334193575,
			"-0.003": 45.8823865725,
			"-0.002": 36.5469172397,
			"-0.001": 39.6981103677,
			"0.0": 40.4951068709,
			"0.001": 41.5423579581,
			"0.002": 31.6940024221,
			"0.003": 27.0034980296,
			"0.004": 18.4122633247,
			"0.005": 17.7633153935,
			"0.006": 14.4734417086,
			"0.007": 12.8423512513,
			"0.008": 11.4545335452,
			"0.009": 7.76266402989,
			"0.01": 6.65623662748,
			"0.011": 3.11746321688,
			"0.012": 3.62197396227,
			"0.013": 2.9296527011,
			"0.014": 1.82967861742,
			"0.015": 0.0233091411259,
			"0.016": 0.0,
			"0.017": 0.0,
			"0.018": 0.0,
			"0.019": 0.0,
			"0.02": 0.0,
			"0.021": 0.0,
			"0.022": 0.0,
			"0.023": 0.0,
			"0.024": 0.0,
			"0.025": 0.0
		}
	}
}
