{
	 "smiles": "CC1=C(C)C2=C(S1)N=CN=C2Cl", 
	 "Tm": 385.15, 
	 "num_atms": 19, 
	 "gaussian": { 
		 "optdone": 1, 
		 "sigma_profile": "yes", 
		 "theory": "DFT", 
		 "functional": "B3LYP", 
		 "basiset": "6-31G**", 
		 "properties": { 
			 "R2extent": 2774.6842, 
			 "electric_dipole_moment_norm": 3.63597189346, 
			 "electric_quadrupole_moment_norm": 6.69209539009, 
			 "total_energy": -1276.95831356, 
			 "HOMO_LUMO_gap": 0.17983, 
			 "cosmo_polarized_energy": -6.88, 
			 "cosmo_cavitation_energy": 25.81, 
			 "cosmo_dispersion_energy": -19.91, 
			 "cosmo_repulsion_energy": 1.51, 
			 "cosmo_total_nonelectrostatic_energy": 7.41, 
			 "SMD_solvation_energy": 0.84 
		},
		"coords": [
			{
				"x": -0.6314112136,
				"y": -2.8270970472,
				"z": 2.1107309682,
				"element": "C" 
			},
			{
				"x": -0.074258287,
				"y": -1.5069082165,
				"z": 1.6529867927,
				"element": "C" 
			},
			{
				"x": 0.1462374268,
				"y": -1.0883976317,
				"z": 0.3677541626,
				"element": "C" 
			},
			{
				"x": -0.1560478547,
				"y": -1.9413916548,
				"z": -0.8362489261,
				"element": "C" 
			},
			{
				"x": 0.6952119966,
				"y": 0.2516409013,
				"z": 0.3337651788,
				"element": "C" 
			},
			{
				"x": 0.8724491855,
				"y": 0.8072677941,
				"z": 1.630617107,
				"element": "C" 
			},
			{
				"x": 0.3670073132,
				"y": -0.3126733429,
				"z": 2.8705644698,
				"element": "S" 
			},
			{
				"x": 1.3569078946,
				"y": 2.0179909896,
				"z": 1.9016889919,
				"element": "N" 
			},
			{
				"x": 1.6885556658,
				"y": 2.7283356559,
				"z": 0.827510336,
				"element": "C" 
			},
			{
				"x": 1.5788096337,
				"y": 2.3393003773,
				"z": -0.4549128653,
				"element": "N" 
			},
			{
				"x": 1.0960338599,
				"y": 1.1364035636,
				"z": -0.6866057382,
				"element": "C" 
			},
			{
				"x": 0.9760730156,
				"y": 0.6835916375,
				"z": -2.3848285439,
				"element": "Cl" 
			},
			{
				"x": -0.0029653329,
				"y": -3.6599038107,
				"z": 1.776812094,
				"element": "H" 
			},
			{
				"x": -1.6393773181,
				"y": -2.9910160446,
				"z": 1.7143010785,
				"element": "H" 
			},
			{
				"x": -0.6941700251,
				"y": -2.8788102868,
				"z": 3.2003677027,
				"element": "H" 
			},
			{
				"x": -0.5622471226,
				"y": -2.9086304204,
				"z": -0.5331491754,
				"element": "H" 
			},
			{
				"x": -0.8852458456,
				"y": -1.4613650543,
				"z": -1.4958655141,
				"element": "H" 
			},
			{
				"x": 0.741782882,
				"y": -2.1252524799,
				"z": -1.4340109151,
				"element": "H" 
			},
			{
				"x": 2.0892541259,
				"y": 3.7243150706,
				"z": 0.995622796,
				"element": "H" 
			}
		],
		 "valence_orbital": [ 
			{
				"type": "occ",
				"energy": -0.31432,
				"method": "rhf"
			},
			{
				"type": "occ",
				"energy": -0.30506,
				"method": "rhf"
			},
			{
				"type": "occ",
				"energy": -0.27201,
				"method": "rhf"
			},
			{
				"type": "occ",
				"energy": -0.26902,
				"method": "rhf"
			},
			{
				"type": "occ",
				"energy": -0.23411,
				"method": "rhf"
			},
			{
				"type": "unocc",
				"energy": -0.05428,
				"method": "rhf"
			},
			{
				"type": "unocc",
				"energy": -0.03808,
				"method": "rhf"
			},
			{
				"type": "unocc",
				"energy": -0.00033,
				"method": "rhf"
			},
			{
				"type": "unocc",
				"energy": 0.0202,
				"method": "rhf"
			},
			{
				"type": "unocc",
				"energy": 0.03552,
				"method": "rhf"
			}
		],
		"cosmo_sigma_profile": { 
			"-0.025": 0.0,
			"-0.024": 0.0,
			"-0.023": 0.0,
			"-0.022": 0.0,
			"-0.021": 0.0,
			"-0.02": 0.0,
			"-0.019": 0.0,
			"-0.018": 0.0,
			"-0.017": 0.0,
			"-0.016": 0.0,
			"-0.015": 0.0,
			"-0.014": 0.0,
			"-0.013": 0.0,
			"-0.012": 0.0,
			"-0.011": 0.0,
			"-0.01": 0.0,
			"-0.009": 0.228418525556,
			"-0.008": 1.79585604511,
			"-0.007": 1.9872550918,
			"-0.006": 5.01181693405,
			"-0.005": 10.0865484294,
			"-0.004": 15.5418320231,
			"-0.003": 19.6418157422,
			"-0.002": 26.7321342648,
			"-0.001": 26.6817592844,
			"0.0": 23.3179930886,
			"0.001": 20.9920491744,
			"0.002": 16.5256229927,
			"0.003": 11.6314724566,
			"0.004": 8.88165343509,
			"0.005": 4.14826905326,
			"0.006": 3.69712068247,
			"0.007": 3.11733813181,
			"0.008": 1.6522135469,
			"0.009": 2.27065424702,
			"0.01": 1.2841142791,
			"0.011": 2.172502469,
			"0.012": 1.6334232885,
			"0.013": 1.65839420299,
			"0.014": 0.625505929296,
			"0.015": 0.0,
			"0.016": 0.0,
			"0.017": 0.0,
			"0.018": 0.0,
			"0.019": 0.0,
			"0.02": 0.0,
			"0.021": 0.0,
			"0.022": 0.0,
			"0.023": 0.0,
			"0.024": 0.0,
			"0.025": 0.0
		}
	}
}
