{
	 "smiles": "NC1=C(C=NN1)C1=NC2=C(S1)C=CC(Cl)=C2", 
	 "Tm": 548.15, 
	 "num_atms": 23, 
	 "gaussian": { 
		 "optdone": 1, 
		 "sigma_profile": "yes", 
		 "theory": "DFT", 
		 "functional": "B3LYP", 
		 "basiset": "6-31G**", 
		 "properties": { 
			 "R2extent": 6236.1284, 
			 "electric_dipole_moment_norm": 2.52870790919, 
			 "electric_quadrupole_moment_norm": 22.1479403103, 
			 "total_energy": -1462.66826979, 
			 "HOMO_LUMO_gap": 0.16012, 
			 "cosmo_polarized_energy": -15.07, 
			 "cosmo_cavitation_energy": 31.23, 
			 "cosmo_dispersion_energy": -24.05, 
			 "cosmo_repulsion_energy": 1.81, 
			 "cosmo_total_nonelectrostatic_energy": 9.0, 
			 "SMD_solvation_energy": 2.46 
		},
		"coords": [
			{
				"x": -0.3172775447,
				"y": -1.1687669616,
				"z": -2.0356949769,
				"element": "N" 
			},
			{
				"x": 0.8007604125,
				"y": -1.694384251,
				"z": -1.449256917,
				"element": "C" 
			},
			{
				"x": 1.5123979912,
				"y": -1.232612207,
				"z": -0.3267172288,
				"element": "C" 
			},
			{
				"x": 2.6209873667,
				"y": -2.1237436983,
				"z": -0.2279926236,
				"element": "C" 
			},
			{
				"x": 2.6152726972,
				"y": -3.0477656754,
				"z": -1.1692161376,
				"element": "N" 
			},
			{
				"x": 1.4889625291,
				"y": -2.7668623211,
				"z": -1.90662247,
				"element": "N" 
			},
			{
				"x": 1.098749575,
				"y": -0.1284254263,
				"z": 0.489134067,
				"element": "C" 
			},
			{
				"x": 0.0154476992,
				"y": 0.5749095652,
				"z": 0.2625978185,
				"element": "N" 
			},
			{
				"x": -0.1523618315,
				"y": 1.569799962,
				"z": 1.2060152907,
				"element": "C" 
			},
			{
				"x": 0.8497950777,
				"y": 1.6372467957,
				"z": 2.2050457046,
				"element": "C" 
			},
			{
				"x": 2.0398138459,
				"y": 0.3809425602,
				"z": 1.9177699413,
				"element": "S" 
			},
			{
				"x": 0.8017404627,
				"y": 2.5954003784,
				"z": 3.2169601669,
				"element": "C" 
			},
			{
				"x": -0.259298556,
				"y": 3.4985455468,
				"z": 3.2347369146,
				"element": "C" 
			},
			{
				"x": -1.249787858,
				"y": 3.428770081,
				"z": 2.2439611212,
				"element": "C" 
			},
			{
				"x": -2.5775016415,
				"y": 4.5831659126,
				"z": 2.2929874081,
				"element": "Cl" 
			},
			{
				"x": -1.2176280603,
				"y": 2.4820085962,
				"z": 1.2285900293,
				"element": "C" 
			},
			{
				"x": -0.9585506355,
				"y": -1.8097332764,
				"z": -2.4811637281,
				"element": "H" 
			},
			{
				"x": -0.7428689003,
				"y": -0.4460220156,
				"z": -1.4592235199,
				"element": "H" 
			},
			{
				"x": 3.4145291741,
				"y": -2.1158619363,
				"z": 0.5082559121,
				"element": "H" 
			},
			{
				"x": 1.2967432565,
				"y": -3.314987861,
				"z": -2.730154472,
				"element": "H" 
			},
			{
				"x": 1.5703719329,
				"y": 2.6454749375,
				"z": 3.9812278941,
				"element": "H" 
			},
			{
				"x": -0.3244367054,
				"y": 4.2545246386,
				"z": 4.0085930804,
				"element": "H" 
			},
			{
				"x": -1.9885602874,
				"y": 2.4402766559,
				"z": 0.4685667249,
				"element": "H" 
			}
		],
		 "valence_orbital": [ 
			{
				"type": "occ",
				"energy": -0.28775,
				"method": "rhf"
			},
			{
				"type": "occ",
				"energy": -0.27932,
				"method": "rhf"
			},
			{
				"type": "occ",
				"energy": -0.24517,
				"method": "rhf"
			},
			{
				"type": "occ",
				"energy": -0.23612,
				"method": "rhf"
			},
			{
				"type": "occ",
				"energy": -0.20702,
				"method": "rhf"
			},
			{
				"type": "unocc",
				"energy": -0.0469,
				"method": "rhf"
			},
			{
				"type": "unocc",
				"energy": -0.01437,
				"method": "rhf"
			},
			{
				"type": "unocc",
				"energy": 0.00361,
				"method": "rhf"
			},
			{
				"type": "unocc",
				"energy": 0.01651,
				"method": "rhf"
			},
			{
				"type": "unocc",
				"energy": 0.02371,
				"method": "rhf"
			}
		],
		"cosmo_sigma_profile": { 
			"-0.025": 0.0,
			"-0.024": 0.0,
			"-0.023": 0.0,
			"-0.022": 0.0,
			"-0.021": 0.0,
			"-0.02": 0.0,
			"-0.019": 0.0,
			"-0.018": 0.0,
			"-0.017": 1.00191433045,
			"-0.016": 2.70310333435,
			"-0.015": 2.21710498759,
			"-0.014": 2.71255753296,
			"-0.013": 2.41266663234,
			"-0.012": 1.41719736081,
			"-0.011": 1.92490843543,
			"-0.01": 2.40746887046,
			"-0.009": 2.53206750315,
			"-0.008": 4.69307255012,
			"-0.007": 9.92086198981,
			"-0.006": 9.71084873213,
			"-0.005": 8.67193912909,
			"-0.004": 7.29588898233,
			"-0.003": 8.75425036823,
			"-0.002": 10.1311250976,
			"-0.001": 13.1965249585,
			"0.0": 17.1817119029,
			"0.001": 25.690351876,
			"0.002": 34.7800159143,
			"0.003": 31.4857767588,
			"0.004": 20.7864305314,
			"0.005": 13.6703238773,
			"0.006": 3.33481645481,
			"0.007": 3.69609496029,
			"0.008": 2.16396540691,
			"0.009": 1.97798620636,
			"0.01": 2.23038752174,
			"0.011": 1.9265211108,
			"0.012": 1.52196503239,
			"0.013": 0.8363984579,
			"0.014": 1.63459979143,
			"0.015": 0.918379617851,
			"0.016": 0.585737003424,
			"0.017": 0.0,
			"0.018": 0.0,
			"0.019": 0.0,
			"0.02": 0.0,
			"0.021": 0.0,
			"0.022": 0.0,
			"0.023": 0.0,
			"0.024": 0.0,
			"0.025": 0.0
		}
	}
}
