{
	 "smiles": "O=C1N=NC=C2NC=CC=C12", 
	 "Tm": 543.15, 
	 "num_atms": 16, 
	 "gaussian": { 
		 "optdone": 1, 
		 "sigma_profile": "yes", 
		 "theory": "DFT", 
		 "functional": "B3LYP", 
		 "basiset": "6-31G**", 
		 "properties": { 
			 "R2extent": 1588.7999, 
			 "electric_dipole_moment_norm": 10.9956801068, 
			 "electric_quadrupole_moment_norm": 11.29290717, 
			 "total_energy": -509.164518492, 
			 "HOMO_LUMO_gap": 0.09639, 
			 "cosmo_polarized_energy": -38.56, 
			 "cosmo_cavitation_energy": 20.79, 
			 "cosmo_dispersion_energy": -15.84, 
			 "cosmo_repulsion_energy": 1.24, 
			 "cosmo_total_nonelectrostatic_energy": 6.19, 
			 "SMD_solvation_energy": 2.69 
		},
		"coords": [
			{
				"x": 0.4066767385,
				"y": -2.9277261284,
				"z": 1.0326481329,
				"element": "O" 
			},
			{
				"x": 0.9681937619,
				"y": -1.8838464752,
				"z": 0.7140206479,
				"element": "C" 
			},
			{
				"x": 2.3786919278,
				"y": -1.7771996347,
				"z": 0.7446914214,
				"element": "N" 
			},
			{
				"x": 2.9621189967,
				"y": -0.6684446156,
				"z": 0.4055750028,
				"element": "N" 
			},
			{
				"x": 2.2991754005,
				"y": 0.4501179948,
				"z": 0.0049390704,
				"element": "C" 
			},
			{
				"x": 0.9199763016,
				"y": 0.4814028674,
				"z": -0.0698999682,
				"element": "C" 
			},
			{
				"x": 0.1787362674,
				"y": 1.5819098354,
				"z": -0.468288011,
				"element": "N" 
			},
			{
				"x": -1.1771716162,
				"y": 1.5800954557,
				"z": -0.5311947216,
				"element": "C" 
			},
			{
				"x": -1.894018902,
				"y": 0.4569284218,
				"z": -0.1935770948,
				"element": "C" 
			},
			{
				"x": -1.1890915289,
				"y": -0.6964206613,
				"z": 0.2205834301,
				"element": "C" 
			},
			{
				"x": 0.1895269427,
				"y": -0.6926974184,
				"z": 0.2839207879,
				"element": "C" 
			},
			{
				"x": 2.921201461,
				"y": 1.3037738547,
				"z": -0.2481361428,
				"element": "H" 
			},
			{
				"x": 0.6809218425,
				"y": 2.4232465093,
				"z": -0.722877028,
				"element": "H" 
			},
			{
				"x": -1.6390951717,
				"y": 2.5043791237,
				"z": -0.8583042742,
				"element": "H" 
			},
			{
				"x": -2.9753351292,
				"y": 0.4734970828,
				"z": -0.2496777227,
				"element": "H" 
			},
			{
				"x": -1.7048072926,
				"y": -1.611016212,
				"z": 0.4986764699,
				"element": "H" 
			}
		],
		 "valence_orbital": [ 
			{
				"type": "occ",
				"energy": -0.3134,
				"method": "rhf"
			},
			{
				"type": "occ",
				"energy": -0.31113,
				"method": "rhf"
			},
			{
				"type": "occ",
				"energy": -0.25787,
				"method": "rhf"
			},
			{
				"type": "occ",
				"energy": -0.20994,
				"method": "rhf"
			},
			{
				"type": "occ",
				"energy": -0.19728,
				"method": "rhf"
			},
			{
				"type": "unocc",
				"energy": -0.10089,
				"method": "rhf"
			},
			{
				"type": "unocc",
				"energy": -0.05361,
				"method": "rhf"
			},
			{
				"type": "unocc",
				"energy": 0.02199,
				"method": "rhf"
			},
			{
				"type": "unocc",
				"energy": 0.02494,
				"method": "rhf"
			},
			{
				"type": "unocc",
				"energy": 0.05191,
				"method": "rhf"
			}
		],
		"cosmo_sigma_profile": { 
			"-0.025": 0.0,
			"-0.024": 0.0,
			"-0.023": 0.0,
			"-0.022": 0.0,
			"-0.021": 0.0,
			"-0.02": 0.127458233928,
			"-0.019": 1.78428487652,
			"-0.018": 2.27298909019,
			"-0.017": 1.76004179935,
			"-0.016": 1.28221463323,
			"-0.015": 1.73678077167,
			"-0.014": 1.43057355305,
			"-0.013": 1.33782480188,
			"-0.012": 3.14284710905,
			"-0.011": 3.47627428929,
			"-0.01": 3.03042498721,
			"-0.009": 5.52867410863,
			"-0.008": 6.90767875103,
			"-0.007": 7.80533759468,
			"-0.006": 5.68495785675,
			"-0.005": 6.6911909126,
			"-0.004": 10.3332671269,
			"-0.003": 9.81818942711,
			"-0.002": 12.368223121,
			"-0.001": 12.2526243847,
			"0.0": 6.38627997936,
			"0.001": 3.29968004052,
			"0.002": 3.71014434233,
			"0.003": 3.48694149948,
			"0.004": 3.48457106565,
			"0.005": 2.08180224551,
			"0.006": 2.98603015509,
			"0.007": 2.53186571019,
			"0.008": 2.67077436154,
			"0.009": 2.29042229461,
			"0.01": 3.07639388428,
			"0.011": 3.08882820753,
			"0.012": 2.94750090615,
			"0.013": 5.20114843917,
			"0.014": 7.12058860819,
			"0.015": 5.46780852881,
			"0.016": 4.54862605523,
			"0.017": 3.18369848043,
			"0.018": 1.55208532808,
			"0.019": 0.184703402114,
			"0.02": 0.0,
			"0.021": 0.0,
			"0.022": 0.0,
			"0.023": 0.0,
			"0.024": 0.0,
			"0.025": 0.0
		}
	}
}
