{
	 "smiles": "CC(Cl)C(=O)NC(=O)NC1=C(F)C=CC=C1", 
	 "Tm": 409.15, 
	 "num_atms": 26, 
	 "gaussian": { 
		 "optdone": 1, 
		 "sigma_profile": "yes", 
		 "theory": "DFT", 
		 "functional": "B3LYP", 
		 "basiset": "6-31G**", 
		 "properties": { 
			 "R2extent": 3955.7378, 
			 "electric_dipole_moment_norm": 5.03958216224, 
			 "electric_quadrupole_moment_norm": 6.62480556922, 
			 "total_energy": -1207.0858896, 
			 "HOMO_LUMO_gap": 0.21075, 
			 "cosmo_polarized_energy": -15.89, 
			 "cosmo_cavitation_energy": 32.12, 
			 "cosmo_dispersion_energy": -21.68, 
			 "cosmo_repulsion_energy": 1.68, 
			 "cosmo_total_nonelectrostatic_energy": 12.12, 
			 "SMD_solvation_energy": 7.54 
		},
		"coords": [
			{
				"x": 2.9363878011,
				"y": -1.3238715203,
				"z": -0.2976977604,
				"element": "C" 
			},
			{
				"x": 2.069785252,
				"y": -2.5268302757,
				"z": 0.0714007249,
				"element": "C" 
			},
			{
				"x": 1.3137231004,
				"y": -3.2712040851,
				"z": -1.4145743751,
				"element": "Cl" 
			},
			{
				"x": 1.1219590273,
				"y": -2.2137039504,
				"z": 1.2396762931,
				"element": "C" 
			},
			{
				"x": 1.6461305792,
				"y": -2.1483125784,
				"z": 2.3411817241,
				"element": "O" 
			},
			{
				"x": -0.2411133051,
				"y": -2.026496559,
				"z": 1.1217018604,
				"element": "N" 
			},
			{
				"x": -1.1920126632,
				"y": -2.1215072591,
				"z": 0.0548667205,
				"element": "C" 
			},
			{
				"x": -2.0589986271,
				"y": -2.9705629941,
				"z": 0.0562339802,
				"element": "O" 
			},
			{
				"x": -1.1006547747,
				"y": -1.1526244744,
				"z": -0.9157940016,
				"element": "N" 
			},
			{
				"x": -0.4988209808,
				"y": 0.1251768228,
				"z": -0.8465589205,
				"element": "C" 
			},
			{
				"x": -0.6711630589,
				"y": 0.9607159125,
				"z": 0.2658518177,
				"element": "C" 
			},
			{
				"x": -1.4108948115,
				"y": 0.5247836099,
				"z": 1.3049226118,
				"element": "F" 
			},
			{
				"x": -0.1148284948,
				"y": 2.2312243592,
				"z": 0.3230091321,
				"element": "C" 
			},
			{
				"x": 0.5994773015,
				"y": 2.7130678618,
				"z": -0.7749021165,
				"element": "C" 
			},
			{
				"x": 0.7532734725,
				"y": 1.9164860246,
				"z": -1.9114207701,
				"element": "C" 
			},
			{
				"x": 0.2156308313,
				"y": 0.6294916898,
				"z": -1.9410104581,
				"element": "C" 
			},
			{
				"x": 2.3453397893,
				"y": -0.523008212,
				"z": -0.7453698205,
				"element": "H" 
			},
			{
				"x": 3.4110561859,
				"y": -0.9505058741,
				"z": 0.6141750403,
				"element": "H" 
			},
			{
				"x": 3.7134636357,
				"y": -1.6258361315,
				"z": -1.003389117,
				"element": "H" 
			},
			{
				"x": 2.7019741263,
				"y": -3.3202349947,
				"z": 0.4701632348,
				"element": "H" 
			},
			{
				"x": -0.6833072764,
				"y": -2.0908974524,
				"z": 2.0322047446,
				"element": "H" 
			},
			{
				"x": -1.7003994595,
				"y": -1.3427389137,
				"z": -1.7082203193,
				"element": "H" 
			},
			{
				"x": -0.2708794965,
				"y": 2.8298490857,
				"z": 1.2138661553,
				"element": "H" 
			},
			{
				"x": 1.0276278031,
				"y": 3.7097628044,
				"z": -0.7411308668,
				"element": "H" 
			},
			{
				"x": 1.3011514894,
				"y": 2.2895150039,
				"z": -2.7707433303,
				"element": "H" 
			},
			{
				"x": 0.3489925536,
				"y": -0.0080378999,
				"z": -2.8097421837,
				"element": "H" 
			}
		],
		 "valence_orbital": [ 
			{
				"type": "occ",
				"energy": -0.29653,
				"method": "rhf"
			},
			{
				"type": "occ",
				"energy": -0.27497,
				"method": "rhf"
			},
			{
				"type": "occ",
				"energy": -0.26927,
				"method": "rhf"
			},
			{
				"type": "occ",
				"energy": -0.26128,
				"method": "rhf"
			},
			{
				"type": "occ",
				"energy": -0.24771,
				"method": "rhf"
			},
			{
				"type": "unocc",
				"energy": -0.03696,
				"method": "rhf"
			},
			{
				"type": "unocc",
				"energy": -0.02035,
				"method": "rhf"
			},
			{
				"type": "unocc",
				"energy": -0.0145,
				"method": "rhf"
			},
			{
				"type": "unocc",
				"energy": 0.02038,
				"method": "rhf"
			},
			{
				"type": "unocc",
				"energy": 0.02906,
				"method": "rhf"
			}
		],
		"cosmo_sigma_profile": { 
			"-0.025": 0.0,
			"-0.024": 0.0,
			"-0.023": 0.0,
			"-0.022": 0.0,
			"-0.021": 0.0,
			"-0.02": 0.0,
			"-0.019": 0.0,
			"-0.018": 0.0,
			"-0.017": 0.0,
			"-0.016": 0.483499204946,
			"-0.015": 1.44208829912,
			"-0.014": 2.53753801017,
			"-0.013": 1.59058160557,
			"-0.012": 1.00166596013,
			"-0.011": 1.13323278506,
			"-0.01": 2.52335634446,
			"-0.009": 2.02180282616,
			"-0.008": 4.73284380798,
			"-0.007": 7.82085034741,
			"-0.006": 13.9261607604,
			"-0.005": 15.6665324177,
			"-0.004": 15.1670970888,
			"-0.003": 14.574394849,
			"-0.002": 16.4361319718,
			"-0.001": 21.1353733211,
			"0.0": 19.9907421662,
			"0.001": 20.7481931016,
			"0.002": 17.5272736555,
			"0.003": 18.05550471,
			"0.004": 14.4782850635,
			"0.005": 8.82711443235,
			"0.006": 5.21385734254,
			"0.007": 2.0924248934,
			"0.008": 2.31130188805,
			"0.009": 3.17193746284,
			"0.01": 3.71313865141,
			"0.011": 6.55838272485,
			"0.012": 10.3116962653,
			"0.013": 2.24505406164,
			"0.014": 0.0,
			"0.015": 0.0,
			"0.016": 0.0,
			"0.017": 0.0,
			"0.018": 0.0,
			"0.019": 0.0,
			"0.02": 0.0,
			"0.021": 0.0,
			"0.022": 0.0,
			"0.023": 0.0,
			"0.024": 0.0,
			"0.025": 0.0
		}
	}
}
