{
	 "smiles": "SC1=NC(=C(N1)C1=CC=CC=C1)C1=CC=CC=C1", 
	 "Tm": 573.15, 
	 "num_atms": 30, 
	 "gaussian": { 
		 "optdone": 1, 
		 "sigma_profile": "yes", 
		 "theory": "DFT", 
		 "functional": "B3LYP", 
		 "basiset": "6-31G**", 
		 "properties": { 
			 "R2extent": 5628.3331, 
			 "electric_dipole_moment_norm": 2.5317064344, 
			 "electric_quadrupole_moment_norm": 11.258984515, 
			 "total_energy": -1086.52579981, 
			 "HOMO_LUMO_gap": 0.16014, 
			 "cosmo_polarized_energy": -13.47, 
			 "cosmo_cavitation_energy": 36.09, 
			 "cosmo_dispersion_energy": -26.19, 
			 "cosmo_repulsion_energy": 1.99, 
			 "cosmo_total_nonelectrostatic_energy": 11.89, 
			 "SMD_solvation_energy": 3.8 
		},
		"coords": [
			{
				"x": -0.0937537117,
				"y": -3.5396650499,
				"z": 3.2531252025,
				"element": "S" 
			},
			{
				"x": 0.0349302194,
				"y": -2.2094466248,
				"z": 2.0895830707,
				"element": "C" 
			},
			{
				"x": -0.2413548008,
				"y": -0.9484516096,
				"z": 2.3138783004,
				"element": "N" 
			},
			{
				"x": 0.0049922629,
				"y": -0.2862689934,
				"z": 1.118510591,
				"element": "C" 
			},
			{
				"x": 0.4525474378,
				"y": -1.186510486,
				"z": 0.1583857931,
				"element": "C" 
			},
			{
				"x": 0.4395909842,
				"y": -2.4213594038,
				"z": 0.8050781114,
				"element": "N" 
			},
			{
				"x": 0.926294555,
				"y": -1.0865181563,
				"z": -1.2277429664,
				"element": "C" 
			},
			{
				"x": 0.6007465351,
				"y": -2.0838086946,
				"z": -2.1658662051,
				"element": "C" 
			},
			{
				"x": 1.0879889302,
				"y": -2.0236270237,
				"z": -3.471141371,
				"element": "C" 
			},
			{
				"x": 1.9016165457,
				"y": -0.9617349227,
				"z": -3.8685479951,
				"element": "C" 
			},
			{
				"x": 2.2280513999,
				"y": 0.0373443329,
				"z": -2.9473765423,
				"element": "C" 
			},
			{
				"x": 1.7539258416,
				"y": -0.0258156912,
				"z": -1.639360288,
				"element": "C" 
			},
			{
				"x": -0.2598054408,
				"y": 1.1603718656,
				"z": 1.0275869058,
				"element": "C" 
			},
			{
				"x": -0.1725641589,
				"y": 1.9467516021,
				"z": 2.1895347125,
				"element": "C" 
			},
			{
				"x": -0.4325899145,
				"y": 3.3147781094,
				"z": 2.1444725933,
				"element": "C" 
			},
			{
				"x": -0.7906117412,
				"y": 3.9255004721,
				"z": 0.9404490269,
				"element": "C" 
			},
			{
				"x": -0.8961286317,
				"y": 3.1511513577,
				"z": -0.2168418465,
				"element": "C" 
			},
			{
				"x": -0.6396591262,
				"y": 1.7814884731,
				"z": -0.1745741469,
				"element": "C" 
			},
			{
				"x": -0.4294068583,
				"y": -2.7221743197,
				"z": 4.2674070116,
				"element": "H" 
			},
			{
				"x": 0.8060903533,
				"y": -3.2783767854,
				"z": 0.4185923281,
				"element": "H" 
			},
			{
				"x": -0.0601418005,
				"y": -2.8970237617,
				"z": -1.8768998496,
				"element": "H" 
			},
			{
				"x": 0.8214789833,
				"y": -2.8020888119,
				"z": -4.1804101157,
				"element": "H" 
			},
			{
				"x": 2.2780182884,
				"y": -0.9119803543,
				"z": -4.8859756599,
				"element": "H" 
			},
			{
				"x": 2.8668809075,
				"y": 0.8638582792,
				"z": -3.2453322799,
				"element": "H" 
			},
			{
				"x": 2.0272708815,
				"y": 0.7421877051,
				"z": -0.9236936778,
				"element": "H" 
			},
			{
				"x": 0.0959540642,
				"y": 1.4656469919,
				"z": 3.1238426768,
				"element": "H" 
			},
			{
				"x": -0.3556817303,
				"y": 3.906185951,
				"z": 3.0527783347,
				"element": "H" 
			},
			{
				"x": -0.993252977,
				"y": 4.992164409,
				"z": 0.9057756889,
				"element": "H" 
			},
			{
				"x": -1.1918451736,
				"y": 3.611863265,
				"z": -1.1554141871,
				"element": "H" 
			},
			{
				"x": -0.7494821245,
				"y": 1.1876578749,
				"z": -1.0756232165,
				"element": "H" 
			}
		],
		 "valence_orbital": [ 
			{
				"type": "occ",
				"energy": -0.26098,
				"method": "rhf"
			},
			{
				"type": "occ",
				"energy": -0.25861,
				"method": "rhf"
			},
			{
				"type": "occ",
				"energy": -0.24249,
				"method": "rhf"
			},
			{
				"type": "occ",
				"energy": -0.23953,
				"method": "rhf"
			},
			{
				"type": "occ",
				"energy": -0.19337,
				"method": "rhf"
			},
			{
				"type": "unocc",
				"energy": -0.03323,
				"method": "rhf"
			},
			{
				"type": "unocc",
				"energy": -0.01077,
				"method": "rhf"
			},
			{
				"type": "unocc",
				"energy": 0.004,
				"method": "rhf"
			},
			{
				"type": "unocc",
				"energy": 0.005,
				"method": "rhf"
			},
			{
				"type": "unocc",
				"energy": 0.01005,
				"method": "rhf"
			}
		],
		"cosmo_sigma_profile": { 
			"-0.025": 0.0,
			"-0.024": 0.0,
			"-0.023": 0.0,
			"-0.022": 0.0,
			"-0.021": 0.0,
			"-0.02": 0.0,
			"-0.019": 0.0,
			"-0.018": 0.0,
			"-0.017": 0.157600293401,
			"-0.016": 0.799315507422,
			"-0.015": 1.09836190344,
			"-0.014": 1.5306512013,
			"-0.013": 0.876181393869,
			"-0.012": 2.15384479783,
			"-0.011": 2.27876336578,
			"-0.01": 2.37258530024,
			"-0.009": 2.78428777131,
			"-0.008": 3.67209197919,
			"-0.007": 3.15083915738,
			"-0.006": 10.0541150089,
			"-0.005": 18.2983499307,
			"-0.004": 23.0989827006,
			"-0.003": 22.3289739544,
			"-0.002": 16.6596571631,
			"-0.001": 18.0663374374,
			"0.0": 16.5708357949,
			"0.001": 20.8717344235,
			"0.002": 25.7314696778,
			"0.003": 24.2565941932,
			"0.004": 24.0798636283,
			"0.005": 22.5283664979,
			"0.006": 14.7431578784,
			"0.007": 4.8521723346,
			"0.008": 2.20816378453,
			"0.009": 2.15378386472,
			"0.01": 1.05327386165,
			"0.011": 1.08372845246,
			"0.012": 0.83416503769,
			"0.013": 0.933163699365,
			"0.014": 0.722638495872,
			"0.015": 0.322992482752,
			"0.016": 0.0,
			"0.017": 0.0,
			"0.018": 0.0,
			"0.019": 0.0,
			"0.02": 0.0,
			"0.021": 0.0,
			"0.022": 0.0,
			"0.023": 0.0,
			"0.024": 0.0,
			"0.025": 0.0
		}
	}
}
