{
	 "smiles": "CC(O)C1CC1", 
	 "Tm": 241.05, 
	 "num_atms": 16, 
	 "gaussian": { 
		 "optdone": 1, 
		 "sigma_profile": "yes", 
		 "theory": "DFT", 
		 "functional": "B3LYP", 
		 "basiset": "6-31G**", 
		 "properties": { 
			 "R2extent": 1423.8881, 
			 "electric_dipole_moment_norm": 1.44261372169, 
			 "electric_quadrupole_moment_norm": 5.04553140412, 
			 "total_energy": -271.747966417, 
			 "HOMO_LUMO_gap": 0.33769, 
			 "cosmo_polarized_energy": -6.7, 
			 "cosmo_cavitation_energy": 18.33, 
			 "cosmo_dispersion_energy": -13.41, 
			 "cosmo_repulsion_energy": 1.17, 
			 "cosmo_total_nonelectrostatic_energy": 6.09, 
			 "SMD_solvation_energy": 2.97 
		},
		"coords": [
			{
				"x": -2.4759911353,
				"y": -1.4880564136,
				"z": 0.73909541,
				"element": "C" 
			},
			{
				"x": -1.1792407021,
				"y": -1.5259387549,
				"z": -0.073930227,
				"element": "C" 
			},
			{
				"x": -1.4467188505,
				"y": -1.7783987995,
				"z": -1.4553886845,
				"element": "O" 
			},
			{
				"x": -0.2413042796,
				"y": -2.6127457994,
				"z": 0.3979423124,
				"element": "C" 
			},
			{
				"x": 1.2339666098,
				"y": -2.5137617918,
				"z": 0.1120185759,
				"element": "C" 
			},
			{
				"x": 0.7268709469,
				"y": -2.3355840384,
				"z": 1.5227183254,
				"element": "C" 
			},
			{
				"x": -2.2715415021,
				"y": -1.3048397172,
				"z": 1.7987233134,
				"element": "H" 
			},
			{
				"x": -3.0084231499,
				"y": -2.4403539498,
				"z": 0.6465496215,
				"element": "H" 
			},
			{
				"x": -3.1408784709,
				"y": -0.6908272288,
				"z": 0.3842982729,
				"element": "H" 
			},
			{
				"x": -0.6618981144,
				"y": -0.5560244578,
				"z": 0.0380882565,
				"element": "H" 
			},
			{
				"x": -2.1063311347,
				"y": -1.1365744779,
				"z": -1.7492393168,
				"element": "H" 
			},
			{
				"x": -0.678174029,
				"y": -3.6091283742,
				"z": 0.3613202667,
				"element": "H" 
			},
			{
				"x": 1.7717860766,
				"y": -3.4239323963,
				"z": -0.1346088387,
				"element": "H" 
			},
			{
				"x": 1.5851290789,
				"y": -1.6334375948,
				"z": -0.4188132237,
				"element": "H" 
			},
			{
				"x": 0.9138498553,
				"y": -3.1227653891,
				"z": 2.2467604495,
				"element": "H" 
			},
			{
				"x": 0.7444988011,
				"y": -1.3343308166,
				"z": 1.9456654864,
				"element": "H" 
			}
		],
		 "valence_orbital": [ 
			{
				"type": "occ",
				"energy": -0.35385,
				"method": "rhf"
			},
			{
				"type": "occ",
				"energy": -0.31815,
				"method": "rhf"
			},
			{
				"type": "occ",
				"energy": -0.28731,
				"method": "rhf"
			},
			{
				"type": "occ",
				"energy": -0.28175,
				"method": "rhf"
			},
			{
				"type": "occ",
				"energy": -0.2594,
				"method": "rhf"
			},
			{
				"type": "unocc",
				"energy": 0.07829,
				"method": "rhf"
			},
			{
				"type": "unocc",
				"energy": 0.10591,
				"method": "rhf"
			},
			{
				"type": "unocc",
				"energy": 0.10867,
				"method": "rhf"
			},
			{
				"type": "unocc",
				"energy": 0.1259,
				"method": "rhf"
			},
			{
				"type": "unocc",
				"energy": 0.14028,
				"method": "rhf"
			}
		],
		"cosmo_sigma_profile": { 
			"-0.025": 0.0,
			"-0.024": 0.0,
			"-0.023": 0.0,
			"-0.022": 0.0,
			"-0.021": 0.0,
			"-0.02": 0.0,
			"-0.019": 0.0,
			"-0.018": 0.0,
			"-0.017": 0.0,
			"-0.016": 0.0,
			"-0.015": 0.415995119761,
			"-0.014": 0.87665973048,
			"-0.013": 1.23106882854,
			"-0.012": 0.679181764239,
			"-0.011": 0.85784260453,
			"-0.01": 0.894297763452,
			"-0.009": 1.01714244815,
			"-0.008": 1.08170691028,
			"-0.007": 0.832839285866,
			"-0.006": 1.29787425196,
			"-0.005": 2.3034026918,
			"-0.004": 10.8809227801,
			"-0.003": 19.2471438885,
			"-0.002": 17.7084362965,
			"-0.001": 16.0853409158,
			"0.0": 14.5024660382,
			"0.001": 14.2436859779,
			"0.002": 7.70439179832,
			"0.003": 4.86913325968,
			"0.004": 5.33555908567,
			"0.005": 2.72189458609,
			"0.006": 2.70745831402,
			"0.007": 1.83114118305,
			"0.008": 1.23955254191,
			"0.009": 1.06506758661,
			"0.01": 1.23959408637,
			"0.011": 1.79106292361,
			"0.012": 1.86162022099,
			"0.013": 1.37902316424,
			"0.014": 2.02225216423,
			"0.015": 1.90781864054,
			"0.016": 0.0252371627161,
			"0.017": 0.0,
			"0.018": 0.0,
			"0.019": 0.0,
			"0.02": 0.0,
			"0.021": 0.0,
			"0.022": 0.0,
			"0.023": 0.0,
			"0.024": 0.0,
			"0.025": 0.0
		}
	}
}
