{
	 "smiles": "BrC1=CC2=C(NC3=CC=CC=C23)C=C1", 
	 "Tm": 469.15, 
	 "num_atms": 22, 
	 "gaussian": { 
		 "optdone": 1, 
		 "sigma_profile": "yes", 
		 "theory": "DFT", 
		 "functional": "B3LYP", 
		 "basiset": "6-31G**", 
		 "properties": { 
			 "R2extent": 6758.9636, 
			 "electric_dipole_moment_norm": 3.52716897384, 
			 "electric_quadrupole_moment_norm": 15.3575006469, 
			 "total_energy": -3088.27774471, 
			 "HOMO_LUMO_gap": 0.17064, 
			 "cosmo_polarized_energy": -9.63, 
			 "cosmo_cavitation_energy": 28.3, 
			 "cosmo_dispersion_energy": -21.63, 
			 "cosmo_repulsion_energy": 1.67, 
			 "cosmo_total_nonelectrostatic_energy": 8.34, 
			 "SMD_solvation_energy": 2.91 
		},
		"coords": [
			{
				"x": 4.3821942847,
				"y": -2.8434837373,
				"z": -1.72754496,
				"element": "Br" 
			},
			{
				"x": 3.5312852326,
				"y": -1.7152750425,
				"z": -0.4330969894,
				"element": "C" 
			},
			{
				"x": 2.1449027096,
				"y": -1.6219451304,
				"z": -0.4216632956,
				"element": "C" 
			},
			{
				"x": 1.5454337503,
				"y": -0.7917523232,
				"z": 0.5326758621,
				"element": "C" 
			},
			{
				"x": 2.3600769746,
				"y": -0.0766920954,
				"z": 1.4513971319,
				"element": "C" 
			},
			{
				"x": 1.5372243512,
				"y": 0.664968239,
				"z": 2.2829352833,
				"element": "N" 
			},
			{
				"x": 0.2111097413,
				"y": 0.4546227835,
				"z": 1.9336343329,
				"element": "C" 
			},
			{
				"x": -0.9523581627,
				"y": 0.9895069541,
				"z": 2.4917957549,
				"element": "C" 
			},
			{
				"x": -2.1704963265,
				"y": 0.602534308,
				"z": 1.9380652002,
				"element": "C" 
			},
			{
				"x": -2.2315538911,
				"y": -0.2940755835,
				"z": 0.8560324962,
				"element": "C" 
			},
			{
				"x": -1.0687215975,
				"y": -0.8236966105,
				"z": 0.304119959,
				"element": "C" 
			},
			{
				"x": 0.1701677349,
				"y": -0.4521123076,
				"z": 0.8408658683,
				"element": "C" 
			},
			{
				"x": 3.7526258689,
				"y": -0.1785829746,
				"z": 1.4301544106,
				"element": "C" 
			},
			{
				"x": 4.334737496,
				"y": -1.0083024233,
				"z": 0.4751008284,
				"element": "C" 
			},
			{
				"x": 1.5495126453,
				"y": -2.1798887778,
				"z": -1.1356364472,
				"element": "H" 
			},
			{
				"x": 1.8530327902,
				"y": 1.2649688655,
				"z": 3.0270850678,
				"element": "H" 
			},
			{
				"x": -0.9109446576,
				"y": 1.6822474865,
				"z": 3.3273291824,
				"element": "H" 
			},
			{
				"x": -3.0914866585,
				"y": 1.0026526302,
				"z": 2.3519105324,
				"element": "H" 
			},
			{
				"x": -3.1979386733,
				"y": -0.5745866324,
				"z": 0.4485753013,
				"element": "H" 
			},
			{
				"x": -1.1216295113,
				"y": -1.5157978269,
				"z": -0.5315429009,
				"element": "H" 
			},
			{
				"x": 4.3727086279,
				"y": 0.3691046151,
				"z": 2.1335064918,
				"element": "H" 
			},
			{
				"x": 5.4126172711,
				"y": -1.1115144166,
				"z": 0.4293008896,
				"element": "H" 
			}
		],
		 "valence_orbital": [ 
			{
				"type": "occ",
				"energy": -0.2835,
				"method": "rhf"
			},
			{
				"type": "occ",
				"energy": -0.27951,
				"method": "rhf"
			},
			{
				"type": "occ",
				"energy": -0.25013,
				"method": "rhf"
			},
			{
				"type": "occ",
				"energy": -0.21979,
				"method": "rhf"
			},
			{
				"type": "occ",
				"energy": -0.20625,
				"method": "rhf"
			},
			{
				"type": "unocc",
				"energy": -0.03561,
				"method": "rhf"
			},
			{
				"type": "unocc",
				"energy": -0.00231,
				"method": "rhf"
			},
			{
				"type": "unocc",
				"energy": 0.01411,
				"method": "rhf"
			},
			{
				"type": "unocc",
				"energy": 0.02238,
				"method": "rhf"
			},
			{
				"type": "unocc",
				"energy": 0.03572,
				"method": "rhf"
			}
		],
		"cosmo_sigma_profile": { 
			"-0.025": 0.0,
			"-0.024": 0.0,
			"-0.023": 0.0,
			"-0.022": 0.0,
			"-0.021": 0.0,
			"-0.02": 0.0,
			"-0.019": 0.0,
			"-0.018": 0.0,
			"-0.017": 0.0,
			"-0.016": 0.430420129193,
			"-0.015": 1.75496237373,
			"-0.014": 1.268910337,
			"-0.013": 1.36233728283,
			"-0.012": 1.35298035005,
			"-0.011": 1.30517387984,
			"-0.01": 1.40600082484,
			"-0.009": 1.54676261076,
			"-0.008": 1.6475981025,
			"-0.007": 5.33844299993,
			"-0.006": 11.65548797,
			"-0.005": 12.796967105,
			"-0.004": 14.1649650998,
			"-0.003": 14.6394222493,
			"-0.002": 11.2952127993,
			"-0.001": 11.5556620373,
			"0.0": 11.456873539,
			"0.001": 12.5880855619,
			"0.002": 20.3325218889,
			"0.003": 28.0109126967,
			"0.004": 31.6805641554,
			"0.005": 23.0906121772,
			"0.006": 9.54910274585,
			"0.007": 0.974513813758,
			"0.008": 0.0,
			"0.009": 0.0,
			"0.01": 0.0,
			"0.011": 0.0,
			"0.012": 0.0,
			"0.013": 0.0,
			"0.014": 0.0,
			"0.015": 0.0,
			"0.016": 0.0,
			"0.017": 0.0,
			"0.018": 0.0,
			"0.019": 0.0,
			"0.02": 0.0,
			"0.021": 0.0,
			"0.022": 0.0,
			"0.023": 0.0,
			"0.024": 0.0,
			"0.025": 0.0
		}
	}
}
