{
	 "smiles": "CCOC(=O)C1=C(N)N=C(SC)S1", 
	 "Tm": 354.15, 
	 "num_atms": 23, 
	 "gaussian": { 
		 "optdone": 1, 
		 "sigma_profile": "yes", 
		 "theory": "DFT", 
		 "functional": "B3LYP", 
		 "basiset": "6-31G**", 
		 "properties": { 
			 "R2extent": 4874.7833, 
			 "electric_dipole_moment_norm": 4.30517846901, 
			 "electric_quadrupole_moment_norm": 14.6072460091, 
			 "total_energy": -1329.11641714, 
			 "HOMO_LUMO_gap": 0.16003, 
			 "cosmo_polarized_energy": -12.13, 
			 "cosmo_cavitation_energy": 30.43, 
			 "cosmo_dispersion_energy": -23.15, 
			 "cosmo_repulsion_energy": 1.79, 
			 "cosmo_total_nonelectrostatic_energy": 9.07, 
			 "SMD_solvation_energy": 4.86 
		},
		"coords": [
			{
				"x": -3.0568989263,
				"y": 3.6049159772,
				"z": -0.5732133041,
				"element": "C" 
			},
			{
				"x": -2.8819898283,
				"y": 2.3588126484,
				"z": 0.2816972372,
				"element": "C" 
			},
			{
				"x": -1.6432011852,
				"y": 1.6757249823,
				"z": -0.0256612314,
				"element": "O" 
			},
			{
				"x": -1.6862625728,
				"y": 0.7999858617,
				"z": -1.0824709272,
				"element": "C" 
			},
			{
				"x": -2.701289488,
				"y": 0.5795724894,
				"z": -1.7226769247,
				"element": "O" 
			},
			{
				"x": -0.4019104288,
				"y": 0.1810591726,
				"z": -1.3210827235,
				"element": "C" 
			},
			{
				"x": 0.8233319204,
				"y": 0.3343147624,
				"z": -0.6780909489,
				"element": "C" 
			},
			{
				"x": 1.1111725044,
				"y": 1.2025382424,
				"z": 0.3312800102,
				"element": "N" 
			},
			{
				"x": 1.8460793622,
				"y": -0.457387787,
				"z": -1.151655296,
				"element": "N" 
			},
			{
				"x": 1.4329275066,
				"y": -1.1996203815,
				"z": -2.1461369254,
				"element": "C" 
			},
			{
				"x": 2.4543323115,
				"y": -2.341567235,
				"z": -3.0103170335,
				"element": "S" 
			},
			{
				"x": 4.0386793596,
				"y": -2.0710326354,
				"z": -2.1444179449,
				"element": "C" 
			},
			{
				"x": -0.2437797554,
				"y": -1.0092211319,
				"z": -2.6083017252,
				"element": "S" 
			},
			{
				"x": -2.2038107668,
				"y": 4.2806479234,
				"z": -0.4597578396,
				"element": "H" 
			},
			{
				"x": -3.962795299,
				"y": 4.1402904904,
				"z": -0.2692504748,
				"element": "H" 
			},
			{
				"x": -3.1559065132,
				"y": 3.3328229738,
				"z": -1.6265949567,
				"element": "H" 
			},
			{
				"x": -2.8001342128,
				"y": 2.6081367768,
				"z": 1.3429084775,
				"element": "H" 
			},
			{
				"x": -3.7107032649,
				"y": 1.6625868359,
				"z": 0.1360255379,
				"element": "H" 
			},
			{
				"x": 1.9504476916,
				"y": 1.0167922421,
				"z": 0.857136067,
				"element": "H" 
			},
			{
				"x": 0.3293688213,
				"y": 1.637845713,
				"z": 0.7968480314,
				"element": "H" 
			},
			{
				"x": 3.9402913428,
				"y": -2.3149063981,
				"z": -1.0866123161,
				"element": "H" 
			},
			{
				"x": 4.7536892743,
				"y": -2.7434212798,
				"z": -2.6224752651,
				"element": "H" 
			},
			{
				"x": 4.3604621467,
				"y": -1.0355902429,
				"z": -2.2565795242,
				"element": "H" 
			}
		],
		 "valence_orbital": [ 
			{
				"type": "occ",
				"energy": -0.29504,
				"method": "rhf"
			},
			{
				"type": "occ",
				"energy": -0.28316,
				"method": "rhf"
			},
			{
				"type": "occ",
				"energy": -0.2632,
				"method": "rhf"
			},
			{
				"type": "occ",
				"energy": -0.25499,
				"method": "rhf"
			},
			{
				"type": "occ",
				"energy": -0.20314,
				"method": "rhf"
			},
			{
				"type": "unocc",
				"energy": -0.04311,
				"method": "rhf"
			},
			{
				"type": "unocc",
				"energy": 0.00113,
				"method": "rhf"
			},
			{
				"type": "unocc",
				"energy": 0.02487,
				"method": "rhf"
			},
			{
				"type": "unocc",
				"energy": 0.03486,
				"method": "rhf"
			},
			{
				"type": "unocc",
				"energy": 0.05602,
				"method": "rhf"
			}
		],
		"cosmo_sigma_profile": { 
			"-0.025": 0.0,
			"-0.024": 0.0,
			"-0.023": 0.0,
			"-0.022": 0.0,
			"-0.021": 0.0,
			"-0.02": 0.0,
			"-0.019": 0.0,
			"-0.018": 0.0,
			"-0.017": 0.0,
			"-0.016": 0.0,
			"-0.015": 0.0,
			"-0.014": 1.02571335423,
			"-0.013": 0.680986158389,
			"-0.012": 1.35064884348,
			"-0.011": 1.54368472595,
			"-0.01": 2.07844348682,
			"-0.009": 2.36605030125,
			"-0.008": 2.49032698915,
			"-0.007": 4.06942610102,
			"-0.006": 6.86222462528,
			"-0.005": 10.9969567156,
			"-0.004": 17.9044280395,
			"-0.003": 21.5154269658,
			"-0.002": 21.6166687774,
			"-0.001": 18.9225047811,
			"0.0": 26.1921906159,
			"0.001": 22.8460816691,
			"0.002": 19.9510601197,
			"0.003": 16.8144694534,
			"0.004": 11.1481625004,
			"0.005": 7.93029484141,
			"0.006": 5.91291977727,
			"0.007": 4.32390031528,
			"0.008": 4.42810440421,
			"0.009": 2.07387735033,
			"0.01": 2.37325007889,
			"0.011": 1.98741726875,
			"0.012": 3.60211219097,
			"0.013": 2.61312755937,
			"0.014": 0.0,
			"0.015": 0.0,
			"0.016": 0.0,
			"0.017": 0.0,
			"0.018": 0.0,
			"0.019": 0.0,
			"0.02": 0.0,
			"0.021": 0.0,
			"0.022": 0.0,
			"0.023": 0.0,
			"0.024": 0.0,
			"0.025": 0.0
		}
	}
}
