{
	 "smiles": "CC1=C(SC2=C1C=C(Cl)C=C2)C(=O)CCl", 
	 "Tm": 432.15, 
	 "num_atms": 23, 
	 "gaussian": { 
		 "optdone": 1, 
		 "sigma_profile": "yes", 
		 "theory": "DFT", 
		 "functional": "B3LYP", 
		 "basiset": "6-31G**", 
		 "properties": { 
			 "R2extent": 5687.2495, 
			 "electric_dipole_moment_norm": 2.10469297048, 
			 "electric_quadrupole_moment_norm": 11.0334299857, 
			 "total_energy": -1817.79307733, 
			 "HOMO_LUMO_gap": 0.14709, 
			 "cosmo_polarized_energy": -9.22, 
			 "cosmo_cavitation_energy": 32.05, 
			 "cosmo_dispersion_energy": -23.99, 
			 "cosmo_repulsion_energy": 1.83, 
			 "cosmo_total_nonelectrostatic_energy": 9.89, 
			 "SMD_solvation_energy": 4.88 
		},
		"coords": [
			{
				"x": -0.8064257796,
				"y": 1.8695523829,
				"z": 2.4208512186,
				"element": "C" 
			},
			{
				"x": -0.2258442378,
				"y": 0.9413266675,
				"z": 1.3922367652,
				"element": "C" 
			},
			{
				"x": 0.8433473128,
				"y": 0.0916517353,
				"z": 1.6029186913,
				"element": "C" 
			},
			{
				"x": 1.2654007491,
				"y": -0.8533834631,
				"z": 0.1674200586,
				"element": "S" 
			},
			{
				"x": -0.0298354091,
				"y": -0.1160467396,
				"z": -0.7348987945,
				"element": "C" 
			},
			{
				"x": -0.7392538723,
				"y": 0.8287629177,
				"z": 0.0481356231,
				"element": "C" 
			},
			{
				"x": -1.8223843795,
				"y": 1.5202645447,
				"z": -0.533760034,
				"element": "C" 
			},
			{
				"x": -2.1542632709,
				"y": 1.254802062,
				"z": -1.8503075095,
				"element": "C" 
			},
			{
				"x": -3.5022717363,
				"y": 2.1069728907,
				"z": -2.5891351299,
				"element": "Cl" 
			},
			{
				"x": -1.4440164514,
				"y": 0.3172526968,
				"z": -2.624320962,
				"element": "C" 
			},
			{
				"x": -0.3770837909,
				"y": -0.3720829706,
				"z": -2.0670861956,
				"element": "C" 
			},
			{
				"x": 1.5709166478,
				"y": -0.0794559616,
				"z": 2.8712550262,
				"element": "C" 
			},
			{
				"x": 1.2111317228,
				"y": 0.468050442,
				"z": 3.9049142629,
				"element": "O" 
			},
			{
				"x": 2.8027404327,
				"y": -0.9889898756,
				"z": 2.9127097379,
				"element": "C" 
			},
			{
				"x": 4.2322639005,
				"y": -0.1864405261,
				"z": 2.1353234069,
				"element": "Cl" 
			},
			{
				"x": -0.0214979689,
				"y": 2.3615400709,
				"z": 2.9969203466,
				"element": "H" 
			},
			{
				"x": -1.4144089586,
				"y": 1.316437434,
				"z": 3.1454736528,
				"element": "H" 
			},
			{
				"x": -1.4375743069,
				"y": 2.6287199949,
				"z": 1.9533019213,
				"element": "H" 
			},
			{
				"x": -2.392627577,
				"y": 2.2456357669,
				"z": 0.0343830967,
				"element": "H" 
			},
			{
				"x": -1.7371521045,
				"y": 0.1404100557,
				"z": -3.6529200664,
				"element": "H" 
			},
			{
				"x": 0.1743173218,
				"y": -1.0956205698,
				"z": -2.6587784357,
				"element": "H" 
			},
			{
				"x": 3.0567759555,
				"y": -1.1633497735,
				"z": 3.9566542419,
				"element": "H" 
			},
			{
				"x": 2.6464458008,
				"y": -1.936609782,
				"z": 2.3929090777,
				"element": "H" 
			}
		],
		 "valence_orbital": [ 
			{
				"type": "occ",
				"energy": -0.30764,
				"method": "rhf"
			},
			{
				"type": "occ",
				"energy": -0.29835,
				"method": "rhf"
			},
			{
				"type": "occ",
				"energy": -0.26641,
				"method": "rhf"
			},
			{
				"type": "occ",
				"energy": -0.2511,
				"method": "rhf"
			},
			{
				"type": "occ",
				"energy": -0.23491,
				"method": "rhf"
			},
			{
				"type": "unocc",
				"energy": -0.08782,
				"method": "rhf"
			},
			{
				"type": "unocc",
				"energy": -0.02727,
				"method": "rhf"
			},
			{
				"type": "unocc",
				"energy": -0.01969,
				"method": "rhf"
			},
			{
				"type": "unocc",
				"energy": -0.00077,
				"method": "rhf"
			},
			{
				"type": "unocc",
				"energy": 0.01937,
				"method": "rhf"
			}
		],
		"cosmo_sigma_profile": { 
			"-0.025": 0.0,
			"-0.024": 0.0,
			"-0.023": 0.0,
			"-0.022": 0.0,
			"-0.021": 0.0,
			"-0.02": 0.0,
			"-0.019": 0.0,
			"-0.018": 0.0,
			"-0.017": 0.0,
			"-0.016": 0.0,
			"-0.015": 0.0,
			"-0.014": 0.0,
			"-0.013": 0.0,
			"-0.012": 0.0,
			"-0.011": 0.0,
			"-0.01": 0.0264653977043,
			"-0.009": 2.97706616114,
			"-0.008": 10.0196330942,
			"-0.007": 11.0110658963,
			"-0.006": 11.1592744909,
			"-0.005": 11.4155255178,
			"-0.004": 11.2763980709,
			"-0.003": 13.3865305193,
			"-0.002": 16.4506884304,
			"-0.001": 19.9306375042,
			"0.0": 26.2407143329,
			"0.001": 30.3744500255,
			"0.002": 28.4221325866,
			"0.003": 18.5056149726,
			"0.004": 18.7281853599,
			"0.005": 17.7111966234,
			"0.006": 4.52527903117,
			"0.007": 1.54987979801,
			"0.008": 2.01697392082,
			"0.009": 1.53449073238,
			"0.01": 2.42089183618,
			"0.011": 2.87427920186,
			"0.012": 1.04436505681,
			"0.013": 0.0,
			"0.014": 0.0,
			"0.015": 0.0,
			"0.016": 0.0,
			"0.017": 0.0,
			"0.018": 0.0,
			"0.019": 0.0,
			"0.02": 0.0,
			"0.021": 0.0,
			"0.022": 0.0,
			"0.023": 0.0,
			"0.024": 0.0,
			"0.025": 0.0
		}
	}
}
