{
	 "smiles": "CNC1=C(C(=O)OC)C(C)=NS1", 
	 "Tm": 330.15, 
	 "num_atms": 22, 
	 "gaussian": { 
		 "optdone": 1, 
		 "sigma_profile": "yes", 
		 "theory": "DFT", 
		 "functional": "B3LYP", 
		 "basiset": "6-31G**", 
		 "properties": { 
			 "R2extent": 3229.549, 
			 "electric_dipole_moment_norm": 2.63594631584, 
			 "electric_quadrupole_moment_norm": 20.446550119, 
			 "total_energy": -930.919188997, 
			 "HOMO_LUMO_gap": 0.19356, 
			 "cosmo_polarized_energy": -9.69, 
			 "cosmo_cavitation_energy": 27.11, 
			 "cosmo_dispersion_energy": -20.51, 
			 "cosmo_repulsion_energy": 1.6, 
			 "cosmo_total_nonelectrostatic_energy": 8.19, 
			 "SMD_solvation_energy": 4.23 
		},
		"coords": [
			{
				"x": -0.2857793531,
				"y": -0.7552324201,
				"z": -4.6664417631,
				"element": "C" 
			},
			{
				"x": -0.0604321056,
				"y": -0.7457127337,
				"z": -3.2359608343,
				"element": "N" 
			},
			{
				"x": -0.9411351218,
				"y": -0.2728279054,
				"z": -2.3413718938,
				"element": "C" 
			},
			{
				"x": -0.7938310569,
				"y": -0.2295035422,
				"z": -0.9430400045,
				"element": "C" 
			},
			{
				"x": 0.4233097132,
				"y": -0.7366100249,
				"z": -0.3314844873,
				"element": "C" 
			},
			{
				"x": 1.3663151786,
				"y": -1.2172548746,
				"z": -0.962880887,
				"element": "O" 
			},
			{
				"x": 0.4486957909,
				"y": -0.6409821673,
				"z": 1.0178737013,
				"element": "O" 
			},
			{
				"x": 1.6400735667,
				"y": -1.1349352247,
				"z": 1.6480891426,
				"element": "C" 
			},
			{
				"x": -1.9648857115,
				"y": 0.3532061248,
				"z": -0.3339743407,
				"element": "C" 
			},
			{
				"x": -2.1755200438,
				"y": 0.5661173468,
				"z": 1.1398223362,
				"element": "C" 
			},
			{
				"x": -2.9303782047,
				"y": 0.7298872007,
				"z": -1.1424653263,
				"element": "N" 
			},
			{
				"x": -2.4938790728,
				"y": 0.4031845261,
				"z": -2.7561408286,
				"element": "S" 
			},
			{
				"x": 0.5844640743,
				"y": -1.1929126095,
				"z": -5.1575087115,
				"element": "H" 
			},
			{
				"x": -0.428546909,
				"y": 0.2605249389,
				"z": -5.0580398861,
				"element": "H" 
			},
			{
				"x": -1.1680102639,
				"y": -1.353055548,
				"z": -4.9305263479,
				"element": "H" 
			},
			{
				"x": 0.796779402,
				"y": -1.1033378524,
				"z": -2.8187400645,
				"element": "H" 
			},
			{
				"x": 1.7828826151,
				"y": -2.1961601771,
				"z": 1.429524558,
				"element": "H" 
			},
			{
				"x": 2.5184319803,
				"y": -0.584048535,
				"z": 1.3025551568,
				"element": "H" 
			},
			{
				"x": 1.4891222506,
				"y": -0.981853989,
				"z": 2.7167886252,
				"element": "H" 
			},
			{
				"x": -1.3995106751,
				"y": 1.214827628,
				"z": 1.556400002,
				"element": "H" 
			},
			{
				"x": -3.1542829916,
				"y": 1.022306624,
				"z": 1.2963166243,
				"element": "H" 
			},
			{
				"x": -2.1225830616,
				"y": -0.3813267854,
				"z": 1.6838052292,
				"element": "H" 
			}
		],
		 "valence_orbital": [ 
			{
				"type": "occ",
				"energy": -0.30075,
				"method": "rhf"
			},
			{
				"type": "occ",
				"energy": -0.28767,
				"method": "rhf"
			},
			{
				"type": "occ",
				"energy": -0.27048,
				"method": "rhf"
			},
			{
				"type": "occ",
				"energy": -0.25099,
				"method": "rhf"
			},
			{
				"type": "occ",
				"energy": -0.21335,
				"method": "rhf"
			},
			{
				"type": "unocc",
				"energy": -0.01979,
				"method": "rhf"
			},
			{
				"type": "unocc",
				"energy": 0.00704,
				"method": "rhf"
			},
			{
				"type": "unocc",
				"energy": 0.00914,
				"method": "rhf"
			},
			{
				"type": "unocc",
				"energy": 0.07564,
				"method": "rhf"
			},
			{
				"type": "unocc",
				"energy": 0.10686,
				"method": "rhf"
			}
		],
		"cosmo_sigma_profile": { 
			"-0.025": 0.0,
			"-0.024": 0.0,
			"-0.023": 0.0,
			"-0.022": 0.0,
			"-0.021": 0.0,
			"-0.02": 0.0,
			"-0.019": 0.0,
			"-0.018": 0.0,
			"-0.017": 0.0,
			"-0.016": 0.0,
			"-0.015": 0.0,
			"-0.014": 0.0,
			"-0.013": 0.0,
			"-0.012": 0.0326420706493,
			"-0.011": 0.605342150154,
			"-0.01": 0.75568124102,
			"-0.009": 0.919641109632,
			"-0.008": 1.19536591009,
			"-0.007": 2.7182990825,
			"-0.006": 8.33531088559,
			"-0.005": 15.7382558718,
			"-0.004": 20.2407443506,
			"-0.003": 23.4191775549,
			"-0.002": 17.5812823157,
			"-0.001": 17.8277497669,
			"0.0": 20.842545452,
			"0.001": 22.4291830086,
			"0.002": 14.9230653257,
			"0.003": 9.79495619238,
			"0.004": 10.5126414574,
			"0.005": 4.6443069164,
			"0.006": 3.55416700195,
			"0.007": 3.3583368562,
			"0.008": 2.91177499615,
			"0.009": 1.67363498112,
			"0.01": 3.19557312522,
			"0.011": 3.33668454992,
			"0.012": 3.07221162774,
			"0.013": 1.47858086467,
			"0.014": 0.953203010471,
			"0.015": 0.832093179856,
			"0.016": 0.247517782681,
			"0.017": 0.0,
			"0.018": 0.0,
			"0.019": 0.0,
			"0.02": 0.0,
			"0.021": 0.0,
			"0.022": 0.0,
			"0.023": 0.0,
			"0.024": 0.0,
			"0.025": 0.0
		}
	}
}
