{
	 "smiles": "N#CCCNC1=CC=CC=C1", 
	 "Tm": 325.65, 
	 "num_atms": 21, 
	 "gaussian": { 
		 "optdone": 1, 
		 "sigma_profile": "yes", 
		 "theory": "DFT", 
		 "functional": "B3LYP", 
		 "basiset": "6-31G**", 
		 "properties": { 
			 "R2extent": 2098.038, 
			 "electric_dipole_moment_norm": 2.96521167035, 
			 "electric_quadrupole_moment_norm": 18.2030170535, 
			 "total_energy": -458.470295419, 
			 "HOMO_LUMO_gap": 0.20255, 
			 "cosmo_polarized_energy": -12.99, 
			 "cosmo_cavitation_energy": 25.37, 
			 "cosmo_dispersion_energy": -17.74, 
			 "cosmo_repulsion_energy": 1.44, 
			 "cosmo_total_nonelectrostatic_energy": 9.07, 
			 "SMD_solvation_energy": 4.71 
		},
		"coords": [
			{
				"x": -0.5536082261,
				"y": -3.4014456268,
				"z": -1.5332346254,
				"element": "N" 
			},
			{
				"x": -0.8687277987,
				"y": -2.2840083032,
				"z": -1.5423871453,
				"element": "C" 
			},
			{
				"x": -1.2056842166,
				"y": -0.8598138983,
				"z": -1.5681252149,
				"element": "C" 
			},
			{
				"x": 0.0394528205,
				"y": 0.0150738924,
				"z": -1.8892005639,
				"element": "C" 
			},
			{
				"x": 1.1074525159,
				"y": -0.0657118689,
				"z": -0.9185397774,
				"element": "N" 
			},
			{
				"x": 0.9806876974,
				"y": 0.4283676501,
				"z": 0.3845567265,
				"element": "C" 
			},
			{
				"x": 1.8551084341,
				"y": -0.0443247549,
				"z": 1.3825536601,
				"element": "C" 
			},
			{
				"x": 1.7972761164,
				"y": 0.4603386968,
				"z": 2.676792012,
				"element": "C" 
			},
			{
				"x": 0.8664700471,
				"y": 1.4461040992,
				"z": 3.018382296,
				"element": "C" 
			},
			{
				"x": -0.0036227567,
				"y": 1.9164672989,
				"z": 2.0363345945,
				"element": "C" 
			},
			{
				"x": 0.0437377369,
				"y": 1.4180445069,
				"z": 0.7330488434,
				"element": "C" 
			},
			{
				"x": -1.6163187051,
				"y": -0.5764219796,
				"z": -0.592931453,
				"element": "H" 
			},
			{
				"x": -1.9880687639,
				"y": -0.6923676897,
				"z": -2.3177527001,
				"element": "H" 
			},
			{
				"x": 0.4439210785,
				"y": -0.2808841988,
				"z": -2.8614596398,
				"element": "H" 
			},
			{
				"x": -0.289977689,
				"y": 1.0534033808,
				"z": -1.9901136887,
				"element": "H" 
			},
			{
				"x": 1.6450518965,
				"y": -0.9206804812,
				"z": -0.9761864333,
				"element": "H" 
			},
			{
				"x": 2.5836293028,
				"y": -0.8113976865,
				"z": 1.1299646937,
				"element": "H" 
			},
			{
				"x": 2.4837821331,
				"y": 0.0763092294,
				"z": 3.4262922275,
				"element": "H" 
			},
			{
				"x": 0.8211066425,
				"y": 1.8360362859,
				"z": 4.0301758955,
				"element": "H" 
			},
			{
				"x": -0.7353370336,
				"y": 2.6820914486,
				"z": 2.2798306886,
				"element": "H" 
			},
			{
				"x": -0.6426312317,
				"y": 1.8139199987,
				"z": -0.008200396,
				"element": "H" 
			}
		],
		 "valence_orbital": [ 
			{
				"type": "occ",
				"energy": -0.33207,
				"method": "rhf"
			},
			{
				"type": "occ",
				"energy": -0.32689,
				"method": "rhf"
			},
			{
				"type": "occ",
				"energy": -0.29989,
				"method": "rhf"
			},
			{
				"type": "occ",
				"energy": -0.24977,
				"method": "rhf"
			},
			{
				"type": "occ",
				"energy": -0.20427,
				"method": "rhf"
			},
			{
				"type": "unocc",
				"energy": -0.00172,
				"method": "rhf"
			},
			{
				"type": "unocc",
				"energy": 0.01288,
				"method": "rhf"
			},
			{
				"type": "unocc",
				"energy": 0.02711,
				"method": "rhf"
			},
			{
				"type": "unocc",
				"energy": 0.03652,
				"method": "rhf"
			},
			{
				"type": "unocc",
				"energy": 0.07885,
				"method": "rhf"
			}
		],
		"cosmo_sigma_profile": { 
			"-0.025": 0.0,
			"-0.024": 0.0,
			"-0.023": 0.0,
			"-0.022": 0.0,
			"-0.021": 0.0,
			"-0.02": 0.0,
			"-0.019": 0.0,
			"-0.018": 0.0,
			"-0.017": 0.0,
			"-0.016": 0.0,
			"-0.015": 0.0,
			"-0.014": 0.0,
			"-0.013": 0.0781211840891,
			"-0.012": 1.10517086951,
			"-0.011": 1.00144275146,
			"-0.01": 1.47023721051,
			"-0.009": 1.63400512505,
			"-0.008": 5.85529687767,
			"-0.007": 11.0539591029,
			"-0.006": 15.4911648439,
			"-0.005": 17.285402548,
			"-0.004": 16.0654224952,
			"-0.003": 15.3801298878,
			"-0.002": 11.3700239356,
			"-0.001": 9.88938487291,
			"0.0": 8.02124505843,
			"0.001": 8.41877386872,
			"0.002": 7.30316220695,
			"0.003": 7.7832320462,
			"0.004": 9.34434216829,
			"0.005": 10.4147961144,
			"0.006": 12.1996649782,
			"0.007": 10.1009173791,
			"0.008": 3.94081585471,
			"0.009": 4.41462892611,
			"0.01": 3.47372080789,
			"0.011": 4.06803559264,
			"0.012": 2.49846474801,
			"0.013": 2.29325716643,
			"0.014": 0.495021767375,
			"0.015": 0.0,
			"0.016": 0.0,
			"0.017": 0.0,
			"0.018": 0.0,
			"0.019": 0.0,
			"0.02": 0.0,
			"0.021": 0.0,
			"0.022": 0.0,
			"0.023": 0.0,
			"0.024": 0.0,
			"0.025": 0.0
		}
	}
}
