{
	 "smiles": "ClC1=NC2=C(C=CC=C2)C(=O)N1C1=CC=CC=C1", 
	 "Tm": 401.15, 
	 "num_atms": 27, 
	 "gaussian": { 
		 "optdone": 1, 
		 "sigma_profile": "yes", 
		 "theory": "DFT", 
		 "functional": "B3LYP", 
		 "basiset": "6-31G**", 
		 "properties": { 
			 "R2extent": 4968.3814, 
			 "electric_dipole_moment_norm": 0.164685579211, 
			 "electric_quadrupole_moment_norm": 16.9984242708, 
			 "total_energy": -1183.84996868, 
			 "HOMO_LUMO_gap": 0.18651, 
			 "cosmo_polarized_energy": -11.42, 
			 "cosmo_cavitation_energy": 33.65, 
			 "cosmo_dispersion_energy": -24.09, 
			 "cosmo_repulsion_energy": 1.84, 
			 "cosmo_total_nonelectrostatic_energy": 11.4, 
			 "SMD_solvation_energy": 4.71 
		},
		"coords": [
			{
				"x": 2.2734539175,
				"y": 1.0054175111,
				"z": -1.1401772599,
				"element": "Cl" 
			},
			{
				"x": 0.828347851,
				"y": 0.8989973301,
				"z": -0.1504582382,
				"element": "C" 
			},
			{
				"x": 0.4243060655,
				"y": 1.9663535699,
				"z": 0.4253515167,
				"element": "N" 
			},
			{
				"x": -0.7192061668,
				"y": 1.8851766757,
				"z": 1.20926005,
				"element": "C" 
			},
			{
				"x": -1.4226187068,
				"y": 0.6739826734,
				"z": 1.374694255,
				"element": "C" 
			},
			{
				"x": -2.5757287342,
				"y": 0.6259231615,
				"z": 2.1743432974,
				"element": "C" 
			},
			{
				"x": -3.0255110821,
				"y": 1.7760183848,
				"z": 2.8050575433,
				"element": "C" 
			},
			{
				"x": -2.3261578113,
				"y": 2.9856392256,
				"z": 2.6420381162,
				"element": "C" 
			},
			{
				"x": -1.1858841843,
				"y": 3.0453131073,
				"z": 1.854601227,
				"element": "C" 
			},
			{
				"x": -0.9458968041,
				"y": -0.5408899183,
				"z": 0.7074348409,
				"element": "C" 
			},
			{
				"x": -1.4670597295,
				"y": -1.640267458,
				"z": 0.774990898,
				"element": "O" 
			},
			{
				"x": 0.2388966697,
				"y": -0.3505139057,
				"z": -0.0756396726,
				"element": "N" 
			},
			{
				"x": 0.7595811449,
				"y": -1.5149303031,
				"z": -0.760012748,
				"element": "C" 
			},
			{
				"x": 1.6780528727,
				"y": -2.3394096973,
				"z": -0.1113355325,
				"element": "C" 
			},
			{
				"x": 2.1658366925,
				"y": -3.4690682157,
				"z": -0.7677055378,
				"element": "C" 
			},
			{
				"x": 1.7305584208,
				"y": -3.7714456277,
				"z": -2.0595126887,
				"element": "C" 
			},
			{
				"x": 0.8027477416,
				"y": -2.9448751701,
				"z": -2.6964083266,
				"element": "C" 
			},
			{
				"x": 0.3108617219,
				"y": -1.8135977415,
				"z": -2.0459296619,
				"element": "C" 
			},
			{
				"x": -3.0906114209,
				"y": -0.323266003,
				"z": 2.2784063841,
				"element": "H" 
			},
			{
				"x": -3.9164666702,
				"y": 1.7447383452,
				"z": 3.4245000149,
				"element": "H" 
			},
			{
				"x": -2.6828446243,
				"y": 3.883614738,
				"z": 3.1383759074,
				"element": "H" 
			},
			{
				"x": -0.6329856693,
				"y": 3.9682945842,
				"z": 1.7166160201,
				"element": "H" 
			},
			{
				"x": 2.0036613935,
				"y": -2.0944327895,
				"z": 0.8944294375,
				"element": "H" 
			},
			{
				"x": 2.883398092,
				"y": -4.1129293624,
				"z": -0.268406893,
				"element": "H" 
			},
			{
				"x": 2.1114366391,
				"y": -4.6521105335,
				"z": -2.5680485486,
				"element": "H" 
			},
			{
				"x": 0.4589209782,
				"y": -3.1806081872,
				"z": -3.698886756,
				"element": "H" 
			},
			{
				"x": -0.4139885969,
				"y": -1.1646243937,
				"z": -2.5265776446,
				"element": "H" 
			}
		],
		 "valence_orbital": [ 
			{
				"type": "occ",
				"energy": -0.27283,
				"method": "rhf"
			},
			{
				"type": "occ",
				"energy": -0.2668,
				"method": "rhf"
			},
			{
				"type": "occ",
				"energy": -0.26278,
				"method": "rhf"
			},
			{
				"type": "occ",
				"energy": -0.25856,
				"method": "rhf"
			},
			{
				"type": "occ",
				"energy": -0.23578,
				"method": "rhf"
			},
			{
				"type": "unocc",
				"energy": -0.04927,
				"method": "rhf"
			},
			{
				"type": "unocc",
				"energy": -0.04169,
				"method": "rhf"
			},
			{
				"type": "unocc",
				"energy": -0.01975,
				"method": "rhf"
			},
			{
				"type": "unocc",
				"energy": -0.01349,
				"method": "rhf"
			},
			{
				"type": "unocc",
				"energy": 0.01977,
				"method": "rhf"
			}
		],
		"cosmo_sigma_profile": { 
			"-0.025": 0.0,
			"-0.024": 0.0,
			"-0.023": 0.0,
			"-0.022": 0.0,
			"-0.021": 0.0,
			"-0.02": 0.0,
			"-0.019": 0.0,
			"-0.018": 0.0,
			"-0.017": 0.0,
			"-0.016": 0.0,
			"-0.015": 0.0,
			"-0.014": 0.0,
			"-0.013": 0.0,
			"-0.012": 0.0,
			"-0.011": 0.0,
			"-0.01": 0.0,
			"-0.009": 0.0,
			"-0.008": 0.467765118033,
			"-0.007": 10.6999976212,
			"-0.006": 24.0303403593,
			"-0.005": 24.3347277876,
			"-0.004": 20.501411902,
			"-0.003": 16.0789842974,
			"-0.002": 16.8362208904,
			"-0.001": 13.9288490282,
			"0.0": 18.5992705293,
			"0.001": 21.581703858,
			"0.002": 27.4936882228,
			"0.003": 27.3961681606,
			"0.004": 16.6695394259,
			"0.005": 7.29672530963,
			"0.006": 3.76525036033,
			"0.007": 3.48790858,
			"0.008": 3.1859835513,
			"0.009": 3.33763237686,
			"0.01": 3.2683168093,
			"0.011": 3.47411112596,
			"0.012": 6.29225147436,
			"0.013": 1.08694159483,
			"0.014": 0.00725787259119,
			"0.015": 0.0,
			"0.016": 0.0,
			"0.017": 0.0,
			"0.018": 0.0,
			"0.019": 0.0,
			"0.02": 0.0,
			"0.021": 0.0,
			"0.022": 0.0,
			"0.023": 0.0,
			"0.024": 0.0,
			"0.025": 0.0
		}
	}
}
