{
	 "smiles": "CC(C)(C)OC(=O)N1CCN(CC1)C1=CC=C(I)C=C1", 
	 "Tm": 423.15, 
	 "num_atms": 41, 
	 "gaussian": { 
		 "optdone": 1, 
		 "sigma_profile": "no", 
		 "theory": "DFT", 
		 "functional": "B3LYP", 
		 "basiset": "6-31G**", 
		 "properties": { 
			 "R2extent": 9870.1947, 
			 "electric_dipole_moment_norm": 3.49671178252, 
			 "electric_quadrupole_moment_norm": 22.6250807868, 
			 "total_energy": -855.618312516, 
			 "HOMO_LUMO_gap": 0.16656, 
			 "cosmo_polarized_energy": -108145.33, 
			 "cosmo_cavitation_energy": 44.77, 
			 "cosmo_dispersion_energy": -33.23, 
			 "cosmo_repulsion_energy": 2.52, 
			 "cosmo_total_nonelectrostatic_energy": 14.07, 
			 "SMD_solvation_energy": 5.79 
		},
		"coords": [
			{
				"x": 2.8369254211,
				"y": 1.90148816,
				"z": 3.2977977708,
				"element": "C" 
			},
			{
				"x": 1.3690540125,
				"y": 1.5661444057,
				"z": 3.582433414,
				"element": "C" 
			},
			{
				"x": 0.5730935902,
				"y": 2.8358589185,
				"z": 3.8957349337,
				"element": "C" 
			},
			{
				"x": 1.2151287822,
				"y": 0.5364666141,
				"z": 4.7066963336,
				"element": "C" 
			},
			{
				"x": 0.7179386693,
				"y": 1.0763618647,
				"z": 2.3559345471,
				"element": "O" 
			},
			{
				"x": 1.1366307449,
				"y": -0.0638951836,
				"z": 1.7547337838,
				"element": "C" 
			},
			{
				"x": 2.0659639024,
				"y": -0.7703595834,
				"z": 2.1212608864,
				"element": "O" 
			},
			{
				"x": 0.3641238463,
				"y": -0.332748624,
				"z": 0.6545824672,
				"element": "N" 
			},
			{
				"x": 0.712354623,
				"y": -1.4727868486,
				"z": -0.1879701059,
				"element": "C" 
			},
			{
				"x": 0.5612165088,
				"y": -1.1172226089,
				"z": -1.6663415548,
				"element": "C" 
			},
			{
				"x": -0.7962156153,
				"y": -0.6551755125,
				"z": -1.954073551,
				"element": "N" 
			},
			{
				"x": -1.5865417802,
				"y": -0.1644917334,
				"z": -0.8323597414,
				"element": "C" 
			},
			{
				"x": -0.7084536431,
				"y": 0.5511714256,
				"z": 0.1958021034,
				"element": "C" 
			},
			{
				"x": -1.3445612513,
				"y": -0.7994498138,
				"z": -3.2195958924,
				"element": "C" 
			},
			{
				"x": -0.523003809,
				"y": -1.037844925,
				"z": -4.3448148934,
				"element": "C" 
			},
			{
				"x": -1.0652312274,
				"y": -1.1809242462,
				"z": -5.6190333384,
				"element": "C" 
			},
			{
				"x": -2.4438343235,
				"y": -1.0834990132,
				"z": -5.8091514264,
				"element": "C" 
			},
			{
				"x": -3.2688678382,
				"y": -1.2962385271,
				"z": -7.7515598743,
				"element": "I" 
			},
			{
				"x": -3.2776115988,
				"y": -0.8477840036,
				"z": -4.716143036,
				"element": "C" 
			},
			{
				"x": -2.7377580238,
				"y": -0.7130267926,
				"z": -3.4395610104,
				"element": "C" 
			},
			{
				"x": 2.9103254666,
				"y": 2.6078677759,
				"z": 2.4646805028,
				"element": "H" 
			},
			{
				"x": 3.2840873515,
				"y": 2.3705584637,
				"z": 4.1802766876,
				"element": "H" 
			},
			{
				"x": 3.4013208381,
				"y": 1.0021585368,
				"z": 3.0510615589,
				"element": "H" 
			},
			{
				"x": 0.9646577541,
				"y": 3.3106849814,
				"z": 4.8001672722,
				"element": "H" 
			},
			{
				"x": 0.6448461949,
				"y": 3.5506086608,
				"z": 3.0707151508,
				"element": "H" 
			},
			{
				"x": -0.4829234545,
				"y": 2.6007008207,
				"z": 4.0583067915,
				"element": "H" 
			},
			{
				"x": 0.1586528851,
				"y": 0.2905783442,
				"z": 4.854726194,
				"element": "H" 
			},
			{
				"x": 1.5998985686,
				"y": 0.9548976144,
				"z": 5.6424162726,
				"element": "H" 
			},
			{
				"x": 1.7629762458,
				"y": -0.3774801892,
				"z": 4.476824933,
				"element": "H" 
			},
			{
				"x": 1.7438010885,
				"y": -1.7510760525,
				"z": 0.0324762467,
				"element": "H" 
			},
			{
				"x": 0.0792615239,
				"y": -2.3395248898,
				"z": 0.0485335909,
				"element": "H" 
			},
			{
				"x": 1.3132475902,
				"y": -0.3609146796,
				"z": -1.9414575793,
				"element": "H" 
			},
			{
				"x": 0.7717604183,
				"y": -2.0161160171,
				"z": -2.2568917213,
				"element": "H" 
			},
			{
				"x": -2.1541721795,
				"y": -0.9714549576,
				"z": -0.3402107444,
				"element": "H" 
			},
			{
				"x": -2.3156867052,
				"y": 0.5630089926,
				"z": -1.2004101708,
				"element": "H" 
			},
			{
				"x": -0.294960203,
				"y": 1.4657741091,
				"z": -0.2509863965,
				"element": "H" 
			},
			{
				"x": -1.3244980106,
				"y": 0.8543772885,
				"z": 1.0458879736,
				"element": "H" 
			},
			{
				"x": 0.5541311746,
				"y": -1.0860112673,
				"z": -4.2357223765,
				"element": "H" 
			},
			{
				"x": -0.4036162098,
				"y": -1.3565164396,
				"z": -6.4603398952,
				"element": "H" 
			},
			{
				"x": -4.3522852468,
				"y": -0.7814422948,
				"z": -4.846792598,
				"element": "H" 
			},
			{
				"x": -3.4181760811,
				"y": -0.5674227735,
				"z": -2.608833508,
				"element": "H" 
			}
		],
		 "valence_orbital": [ 
			{
				"type": "occ",
				"energy": -0.26011,
				"method": "rhf"
			},
			{
				"type": "occ",
				"energy": -0.25758,
				"method": "rhf"
			},
			{
				"type": "occ",
				"energy": -0.25593,
				"method": "rhf"
			},
			{
				"type": "occ",
				"energy": -0.24247,
				"method": "rhf"
			},
			{
				"type": "occ",
				"energy": -0.19575,
				"method": "rhf"
			},
			{
				"type": "unocc",
				"energy": -0.02919,
				"method": "rhf"
			},
			{
				"type": "unocc",
				"energy": -0.00907,
				"method": "rhf"
			},
			{
				"type": "unocc",
				"energy": 0.0029,
				"method": "rhf"
			},
			{
				"type": "unocc",
				"energy": 0.04728,
				"method": "rhf"
			},
			{
				"type": "unocc",
				"energy": 0.049,
				"method": "rhf"
			}
		],
		"cosmo_sigma_profile": { 
			"0.0": 0.0,
			"0.0": 0.0,
			"0.0": 0.0,
			"0.0": 0.0,
			"0.0": 0.0,
			"0.0": 0.0,
			"0.0": 0.0,
			"0.0": 0.0,
			"0.0": 0.0,
			"0.0": 0.0,
			"0.0": 0.0,
			"0.0": 0.0,
			"0.0": 0.0,
			"0.0": 0.0,
			"0.0": 0.0,
			"0.0": 0.0,
			"0.0": 0.0,
			"0.0": 0.0,
			"0.0": 0.0,
			"0.0": 0.0,
			"0.0": 0.0,
			"0.0": 0.0,
			"0.0": 0.0,
			"0.0": 0.0,
			"0.0": 0.0,
			"0.0": 0.0,
			"0.0": 0.0,
			"0.0": 0.0,
			"0.0": 0.0,
			"0.0": 0.0,
			"0.0": 0.0,
			"0.0": 0.0,
			"0.0": 0.0,
			"0.0": 0.0,
			"0.0": 0.0,
			"0.0": 0.0,
			"0.0": 0.0,
			"0.0": 0.0,
			"0.0": 0.0,
			"0.0": 0.0,
			"0.0": 0.0,
			"0.0": 0.0,
			"0.0": 0.0,
			"0.0": 0.0,
			"0.0": 0.0,
			"0.0": 0.0,
			"0.0": 0.0,
			"0.0": 0.0,
			"0.0": 0.0,
			"0.0": 0.0,
			"0.0": 0.0
		}
	}
}
