{
	 "smiles": "NCCCC1=CNC2=C1C=CC=C2", 
	 "Tm": 336.15, 
	 "num_atms": 27, 
	 "gaussian": { 
		 "optdone": 1, 
		 "sigma_profile": "yes", 
		 "theory": "DFT", 
		 "functional": "B3LYP", 
		 "basiset": "6-31G**", 
		 "properties": { 
			 "R2extent": 3685.7437, 
			 "electric_dipole_moment_norm": 2.7751536498, 
			 "electric_quadrupole_moment_norm": 17.5466983906, 
			 "total_energy": -537.116257555, 
			 "HOMO_LUMO_gap": 0.1912, 
			 "cosmo_polarized_energy": -12.08, 
			 "cosmo_cavitation_energy": 29.29, 
			 "cosmo_dispersion_energy": -21.08, 
			 "cosmo_repulsion_energy": 1.69, 
			 "cosmo_total_nonelectrostatic_energy": 9.89, 
			 "SMD_solvation_energy": 3.14 
		},
		"coords": [
			{
				"x": -4.2278007267,
				"y": -0.3689936739,
				"z": -0.3230286976,
				"element": "N" 
			},
			{
				"x": -2.9243979448,
				"y": -0.7741287462,
				"z": 0.2245787335,
				"element": "C" 
			},
			{
				"x": -2.0312269469,
				"y": 0.4400810181,
				"z": 0.4974406082,
				"element": "C" 
			},
			{
				"x": -1.7008532265,
				"y": 1.2900078904,
				"z": -0.7508682058,
				"element": "C" 
			},
			{
				"x": -1.0041490687,
				"y": 0.5471459278,
				"z": -1.857499983,
				"element": "C" 
			},
			{
				"x": -1.519236189,
				"y": 0.2481333547,
				"z": -3.0948308219,
				"element": "C" 
			},
			{
				"x": -0.5904911494,
				"y": -0.4526001618,
				"z": -3.8462613387,
				"element": "N" 
			},
			{
				"x": 0.5595004823,
				"y": -0.6154634147,
				"z": -3.1026592776,
				"element": "C" 
			},
			{
				"x": 0.3350874819,
				"y": 0.0026818409,
				"z": -1.840592606,
				"element": "C" 
			},
			{
				"x": 1.3724744301,
				"y": -0.0092394816,
				"z": -0.8905455175,
				"element": "C" 
			},
			{
				"x": 2.5760716581,
				"y": -0.6262292549,
				"z": -1.2083313168,
				"element": "C" 
			},
			{
				"x": 2.7713644954,
				"y": -1.2376452891,
				"z": -2.4639594284,
				"element": "C" 
			},
			{
				"x": 1.768962491,
				"y": -1.239754624,
				"z": -3.4271660576,
				"element": "C" 
			},
			{
				"x": -4.8601156584,
				"y": -1.1657087672,
				"z": -0.3190353458,
				"element": "H" 
			},
			{
				"x": -4.1173273022,
				"y": -0.113589734,
				"z": -1.3015989188,
				"element": "H" 
			},
			{
				"x": -3.1097900899,
				"y": -1.2869146617,
				"z": 1.1757716592,
				"element": "H" 
			},
			{
				"x": -2.3782831773,
				"y": -1.4858822809,
				"z": -0.4169522453,
				"element": "H" 
			},
			{
				"x": -2.5301019701,
				"y": 1.0850763004,
				"z": 1.2304576115,
				"element": "H" 
			},
			{
				"x": -1.0998862855,
				"y": 0.0853126996,
				"z": 0.9559484754,
				"element": "H" 
			},
			{
				"x": -1.0824363976,
				"y": 2.139894879,
				"z": -0.4321664136,
				"element": "H" 
			},
			{
				"x": -2.6297620718,
				"y": 1.7265612834,
				"z": -1.1371321494,
				"element": "H" 
			},
			{
				"x": -2.485036871,
				"y": 0.4964197211,
				"z": -3.514130645,
				"element": "H" 
			},
			{
				"x": -0.7244274102,
				"y": -0.767395013,
				"z": -4.7927083974,
				"element": "H" 
			},
			{
				"x": 1.2372037224,
				"y": 0.4619791564,
				"z": 0.0789119152,
				"element": "H" 
			},
			{
				"x": 3.3822614771,
				"y": -0.6392556611,
				"z": -0.4806031003,
				"element": "H" 
			},
			{
				"x": 3.7227220432,
				"y": -1.713407034,
				"z": -2.6838275583,
				"element": "H" 
			},
			{
				"x": 1.9214742044,
				"y": -1.7069862738,
				"z": -4.3963109781,
				"element": "H" 
			}
		],
		 "valence_orbital": [ 
			{
				"type": "occ",
				"energy": -0.31595,
				"method": "rhf"
			},
			{
				"type": "occ",
				"energy": -0.26473,
				"method": "rhf"
			},
			{
				"type": "occ",
				"energy": -0.22663,
				"method": "rhf"
			},
			{
				"type": "occ",
				"energy": -0.21615,
				"method": "rhf"
			},
			{
				"type": "occ",
				"energy": -0.19629,
				"method": "rhf"
			},
			{
				"type": "unocc",
				"energy": -0.00509,
				"method": "rhf"
			},
			{
				"type": "unocc",
				"energy": 0.03137,
				"method": "rhf"
			},
			{
				"type": "unocc",
				"energy": 0.07028,
				"method": "rhf"
			},
			{
				"type": "unocc",
				"energy": 0.07676,
				"method": "rhf"
			},
			{
				"type": "unocc",
				"energy": 0.08199,
				"method": "rhf"
			}
		],
		"cosmo_sigma_profile": { 
			"-0.025": 0.0,
			"-0.024": 0.0,
			"-0.023": 0.0,
			"-0.022": 0.0,
			"-0.021": 0.0,
			"-0.02": 0.0,
			"-0.019": 0.0,
			"-0.018": 0.0,
			"-0.017": 0.0,
			"-0.016": 0.075143106025,
			"-0.015": 1.27855326294,
			"-0.014": 1.30913191105,
			"-0.013": 1.92592093235,
			"-0.012": 0.557523252168,
			"-0.011": 1.28813557336,
			"-0.01": 1.53924814665,
			"-0.009": 2.4302263994,
			"-0.008": 4.69246056257,
			"-0.007": 7.23156207607,
			"-0.006": 7.4593437145,
			"-0.005": 10.3798731069,
			"-0.004": 11.3585275862,
			"-0.003": 17.5478046599,
			"-0.002": 20.9150287071,
			"-0.001": 20.9845971099,
			"0.0": 22.3753790106,
			"0.001": 16.5076027898,
			"0.002": 10.4326659096,
			"0.003": 10.5858257755,
			"0.004": 11.5589470465,
			"0.005": 14.471977853,
			"0.006": 12.6938505188,
			"0.007": 9.49246902908,
			"0.008": 3.3747397137,
			"0.009": 0.511923471874,
			"0.01": 1.29562926086,
			"0.011": 0.461995656028,
			"0.012": 0.555437958616,
			"0.013": 0.987483611069,
			"0.014": 0.694084927102,
			"0.015": 0.225702654161,
			"0.016": 0.29056960018,
			"0.017": 1.11698940928,
			"0.018": 0.503398775193,
			"0.019": 0.562494753568,
			"0.02": 0.36179922786,
			"0.021": 0.098959067212,
			"0.022": 0.0,
			"0.023": 0.0,
			"0.024": 0.0,
			"0.025": 0.0
		}
	}
}
