{
	 "smiles": "CN1CCN(CCC(=O)NN)CC1", 
	 "Tm": 361.15, 
	 "num_atms": 31, 
	 "gaussian": { 
		 "optdone": 1, 
		 "sigma_profile": "yes", 
		 "theory": "DFT", 
		 "functional": "B3LYP", 
		 "basiset": "6-31G**", 
		 "properties": { 
			 "R2extent": 2891.0867, 
			 "electric_dipole_moment_norm": 3.14914136552, 
			 "electric_quadrupole_moment_norm": 7.60103262919, 
			 "total_energy": -609.880910633, 
			 "HOMO_LUMO_gap": 0.20154, 
			 "cosmo_polarized_energy": -16.02, 
			 "cosmo_cavitation_energy": 30.93, 
			 "cosmo_dispersion_energy": -21.97, 
			 "cosmo_repulsion_energy": 1.74, 
			 "cosmo_total_nonelectrostatic_energy": 10.7, 
			 "SMD_solvation_energy": 1.93 
		},
		"coords": [
			{
				"x": 2.7587204992,
				"y": -3.0728980229,
				"z": 0.3864367408,
				"element": "C" 
			},
			{
				"x": 2.3342329512,
				"y": -1.6953665752,
				"z": 0.586377767,
				"element": "N" 
			},
			{
				"x": 2.3940167792,
				"y": -0.922495363,
				"z": -0.6577981298,
				"element": "C" 
			},
			{
				"x": 2.0805500792,
				"y": 0.549832652,
				"z": -0.3575978349,
				"element": "C" 
			},
			{
				"x": 0.8030357473,
				"y": 0.7181350103,
				"z": 0.3146943939,
				"element": "N" 
			},
			{
				"x": -0.2994757116,
				"y": 1.3341159445,
				"z": -0.3705108681,
				"element": "C" 
			},
			{
				"x": -0.9286692295,
				"y": 0.6104088721,
				"z": -1.607795608,
				"element": "C" 
			},
			{
				"x": -1.5904802208,
				"y": -0.7220176456,
				"z": -1.3125640789,
				"element": "C" 
			},
			{
				"x": -1.0533734895,
				"y": -1.799200803,
				"z": -1.5505266841,
				"element": "O" 
			},
			{
				"x": -2.8295341808,
				"y": -0.6942740586,
				"z": -0.7099650661,
				"element": "N" 
			},
			{
				"x": -3.6788530232,
				"y": 0.4075367371,
				"z": -0.527474827,
				"element": "N" 
			},
			{
				"x": 0.6213556329,
				"y": -0.1622674308,
				"z": 1.4579011364,
				"element": "C" 
			},
			{
				"x": 0.9889018713,
				"y": -1.6257193538,
				"z": 1.1675805291,
				"element": "C" 
			},
			{
				"x": 2.1161791269,
				"y": -3.6334848933,
				"z": -0.3186548588,
				"element": "H" 
			},
			{
				"x": 2.7508383767,
				"y": -3.6038162916,
				"z": 1.3447612086,
				"element": "H" 
			},
			{
				"x": 3.7831645869,
				"y": -3.0911345577,
				"z": -0.0015065037,
				"element": "H" 
			},
			{
				"x": 3.4085422508,
				"y": -1.003587776,
				"z": -1.0681501371,
				"element": "H" 
			},
			{
				"x": 1.6865388893,
				"y": -1.3119972322,
				"z": -1.41309518,
				"element": "H" 
			},
			{
				"x": 2.8866061914,
				"y": 0.9431696447,
				"z": 0.282830897,
				"element": "H" 
			},
			{
				"x": 2.0828378261,
				"y": 1.1337179874,
				"z": -1.2844348605,
				"element": "H" 
			},
			{
				"x": 0.0191448654,
				"y": 2.3217383121,
				"z": -0.7367275309,
				"element": "H" 
			},
			{
				"x": -1.0865781637,
				"y": 1.52885534,
				"z": 0.3686181063,
				"element": "H" 
			},
			{
				"x": -1.6479144098,
				"y": 1.3048863977,
				"z": -2.0605502136,
				"element": "H" 
			},
			{
				"x": -0.1522124515,
				"y": 0.4106987615,
				"z": -2.3493017798,
				"element": "H" 
			},
			{
				"x": -3.2632279603,
				"y": -1.5989967343,
				"z": -0.5767256741,
				"element": "H" 
			},
			{
				"x": -3.8256984853,
				"y": 0.9044343211,
				"z": -1.4028309469,
				"element": "H" 
			},
			{
				"x": -3.2866529534,
				"y": 1.0495462273,
				"z": 0.1550172358,
				"element": "H" 
			},
			{
				"x": -0.4170409263,
				"y": -0.1013023862,
				"z": 1.8003153739,
				"element": "H" 
			},
			{
				"x": 1.2635222356,
				"y": 0.185603849,
				"z": 2.2838981778,
				"element": "H" 
			},
			{
				"x": 0.2363268095,
				"y": -2.0818217193,
				"z": 0.5021164269,
				"element": "H" 
			},
			{
				"x": 0.9915964867,
				"y": -2.1856992131,
				"z": 2.1116627886,
				"element": "H" 
			}
		],
		 "valence_orbital": [ 
			{
				"type": "occ",
				"energy": -0.29171,
				"method": "rhf"
			},
			{
				"type": "occ",
				"energy": -0.25886,
				"method": "rhf"
			},
			{
				"type": "occ",
				"energy": -0.244,
				"method": "rhf"
			},
			{
				"type": "occ",
				"energy": -0.20307,
				"method": "rhf"
			},
			{
				"type": "occ",
				"energy": -0.18538,
				"method": "rhf"
			},
			{
				"type": "unocc",
				"energy": 0.01616,
				"method": "rhf"
			},
			{
				"type": "unocc",
				"energy": 0.04801,
				"method": "rhf"
			},
			{
				"type": "unocc",
				"energy": 0.09483,
				"method": "rhf"
			},
			{
				"type": "unocc",
				"energy": 0.097,
				"method": "rhf"
			},
			{
				"type": "unocc",
				"energy": 0.11067,
				"method": "rhf"
			}
		],
		"cosmo_sigma_profile": { 
			"-0.025": 0.0,
			"-0.024": 0.0,
			"-0.023": 0.0,
			"-0.022": 0.0,
			"-0.021": 0.0,
			"-0.02": 0.0,
			"-0.019": 0.0,
			"-0.018": 0.0,
			"-0.017": 0.0,
			"-0.016": 0.0,
			"-0.015": 0.0,
			"-0.014": 0.0,
			"-0.013": 0.507755367421,
			"-0.012": 2.04871342358,
			"-0.011": 3.94199657615,
			"-0.01": 5.04356146064,
			"-0.009": 4.92453955642,
			"-0.008": 3.2775240035,
			"-0.007": 4.35694864629,
			"-0.006": 4.63326380188,
			"-0.005": 5.63852838196,
			"-0.004": 15.012358043,
			"-0.003": 25.0937140274,
			"-0.002": 26.3736905251,
			"-0.001": 27.8753278495,
			"0.0": 27.1051234097,
			"0.001": 18.0109698735,
			"0.002": 9.52244305853,
			"0.003": 7.40229416996,
			"0.004": 4.41365743358,
			"0.005": 5.27722237985,
			"0.006": 4.70080030158,
			"0.007": 4.48786062269,
			"0.008": 3.47741609466,
			"0.009": 4.12490360016,
			"0.01": 3.22303679051,
			"0.011": 3.60071654794,
			"0.012": 3.44472970628,
			"0.013": 2.81008144371,
			"0.014": 4.53107974814,
			"0.015": 1.93420352188,
			"0.016": 1.39458423567,
			"0.017": 0.200201894743,
			"0.018": 0.0,
			"0.019": 0.0,
			"0.02": 0.0,
			"0.021": 0.0,
			"0.022": 0.0,
			"0.023": 0.0,
			"0.024": 0.0,
			"0.025": 0.0
		}
	}
}
