{
	 "smiles": "CC1=C(C=NN1C1CCOCC1)C(O)=O", 
	 "Tm": 481.15, 
	 "num_atms": 29, 
	 "gaussian": { 
		 "optdone": 1, 
		 "sigma_profile": "yes", 
		 "theory": "DFT", 
		 "functional": "B3LYP", 
		 "basiset": "6-31G**", 
		 "properties": { 
			 "R2extent": 4213.8818, 
			 "electric_dipole_moment_norm": 4.05013839887, 
			 "electric_quadrupole_moment_norm": 12.5669507817, 
			 "total_energy": -724.667940757, 
			 "HOMO_LUMO_gap": 0.22295, 
			 "cosmo_polarized_energy": -15.48, 
			 "cosmo_cavitation_energy": 31.21, 
			 "cosmo_dispersion_energy": -22.67, 
			 "cosmo_repulsion_energy": 1.78, 
			 "cosmo_total_nonelectrostatic_energy": 10.32, 
			 "SMD_solvation_energy": 5.79 
		},
		"coords": [
			{
				"x": 1.1284362131,
				"y": -0.3796454342,
				"z": -2.1401937748,
				"element": "C" 
			},
			{
				"x": 0.9984316033,
				"y": 0.6772667414,
				"z": -1.0877939221,
				"element": "C" 
			},
			{
				"x": 1.7500952263,
				"y": 1.8322492216,
				"z": -0.8352660932,
				"element": "C" 
			},
			{
				"x": 1.1382269005,
				"y": 2.4240232038,
				"z": 0.2979933437,
				"element": "C" 
			},
			{
				"x": 0.1035439573,
				"y": 1.7187012111,
				"z": 0.7217429309,
				"element": "N" 
			},
			{
				"x": 0.0321142001,
				"y": 0.6571572581,
				"z": -0.1318152821,
				"element": "N" 
			},
			{
				"x": -1.0348646623,
				"y": -0.3284920251,
				"z": 0.0711187037,
				"element": "C" 
			},
			{
				"x": -2.4167691193,
				"y": 0.3094733456,
				"z": -0.1896550118,
				"element": "C" 
			},
			{
				"x": -3.5174750368,
				"y": -0.5200188815,
				"z": 0.4708992125,
				"element": "C" 
			},
			{
				"x": -3.3852276732,
				"y": -0.6016651082,
				"z": 1.8884816412,
				"element": "O" 
			},
			{
				"x": -2.071719945,
				"y": -0.3590446926,
				"z": 2.3948368951,
				"element": "C" 
			},
			{
				"x": -0.9871408563,
				"y": -0.9489311732,
				"z": 1.4944539364,
				"element": "C" 
			},
			{
				"x": 2.914737096,
				"y": 2.4009367473,
				"z": -1.5098918461,
				"element": "C" 
			},
			{
				"x": 3.3497975905,
				"y": 1.6752823834,
				"z": -2.5802296729,
				"element": "O" 
			},
			{
				"x": 3.4727982408,
				"y": 3.4287497103,
				"z": -1.1739491392,
				"element": "O" 
			},
			{
				"x": 1.3016223543,
				"y": -1.3674175564,
				"z": -1.6978357054,
				"element": "H" 
			},
			{
				"x": 1.969558771,
				"y": -0.144292038,
				"z": -2.789650203,
				"element": "H" 
			},
			{
				"x": 0.2252755189,
				"y": -0.4460218059,
				"z": -2.7574270431,
				"element": "H" 
			},
			{
				"x": 1.4338809768,
				"y": 3.3355403301,
				"z": 0.7983099497,
				"element": "H" 
			},
			{
				"x": -0.8546178082,
				"y": -1.1157782231,
				"z": -0.6643092072,
				"element": "H" 
			},
			{
				"x": -2.6038584665,
				"y": 0.3967874088,
				"z": -1.2654941038,
				"element": "H" 
			},
			{
				"x": -2.4185707074,
				"y": 1.3217340565,
				"z": 0.2253666597,
				"element": "H" 
			},
			{
				"x": -4.4993893642,
				"y": -0.0789171911,
				"z": 0.2658390345,
				"element": "H" 
			},
			{
				"x": -3.5241126053,
				"y": -1.5361552956,
				"z": 0.0403485845,
				"element": "H" 
			},
			{
				"x": -2.0434261262,
				"y": -0.8234732338,
				"z": 3.3854276414,
				"element": "H" 
			},
			{
				"x": -1.895664116,
				"y": 0.7178204588,
				"z": 2.5234673515,
				"element": "H" 
			},
			{
				"x": -1.1425092637,
				"y": -2.0309923164,
				"z": 1.417075582,
				"element": "H" 
			},
			{
				"x": -0.0016280206,
				"y": -0.7890181585,
				"z": 1.9406074572,
				"element": "H" 
			},
			{
				"x": 4.115755122,
				"y": 2.1641410566,
				"z": -2.9240579192,
				"element": "H" 
			}
		],
		 "valence_orbital": [ 
			{
				"type": "occ",
				"energy": -0.29097,
				"method": "rhf"
			},
			{
				"type": "occ",
				"energy": -0.27215,
				"method": "rhf"
			},
			{
				"type": "occ",
				"energy": -0.25781,
				"method": "rhf"
			},
			{
				"type": "occ",
				"energy": -0.25015,
				"method": "rhf"
			},
			{
				"type": "occ",
				"energy": -0.24414,
				"method": "rhf"
			},
			{
				"type": "unocc",
				"energy": -0.02119,
				"method": "rhf"
			},
			{
				"type": "unocc",
				"energy": 0.01347,
				"method": "rhf"
			},
			{
				"type": "unocc",
				"energy": 0.06592,
				"method": "rhf"
			},
			{
				"type": "unocc",
				"energy": 0.08201,
				"method": "rhf"
			},
			{
				"type": "unocc",
				"energy": 0.0958,
				"method": "rhf"
			}
		],
		"cosmo_sigma_profile": { 
			"-0.025": 0.0,
			"-0.024": 0.0,
			"-0.023": 0.0,
			"-0.022": 0.0,
			"-0.021": 0.0,
			"-0.02": 0.0,
			"-0.019": 0.0,
			"-0.018": 0.362043679023,
			"-0.017": 0.894372003135,
			"-0.016": 1.10547900241,
			"-0.015": 0.682849731275,
			"-0.014": 0.352137653173,
			"-0.013": 0.646387417975,
			"-0.012": 1.16419364064,
			"-0.011": 0.672237771744,
			"-0.01": 0.430093850981,
			"-0.009": 0.408310936137,
			"-0.008": 0.672460128322,
			"-0.007": 4.43371220028,
			"-0.006": 12.5656196967,
			"-0.005": 16.644174624,
			"-0.004": 22.092766949,
			"-0.003": 25.330443316,
			"-0.002": 24.8994114427,
			"-0.001": 24.459271777,
			"0.0": 14.8452520753,
			"0.001": 13.5381051164,
			"0.002": 12.1059253034,
			"0.003": 11.7529436795,
			"0.004": 8.11827669478,
			"0.005": 6.64161151105,
			"0.006": 6.88787015776,
			"0.007": 3.91264770665,
			"0.008": 4.21267200843,
			"0.009": 4.18945855807,
			"0.01": 3.96306503821,
			"0.011": 4.63915457716,
			"0.012": 7.30946823254,
			"0.013": 3.67821062196,
			"0.014": 1.52377657487,
			"0.015": 0.0434757823287,
			"0.016": 0.0,
			"0.017": 0.0,
			"0.018": 0.0,
			"0.019": 0.0,
			"0.02": 0.0,
			"0.021": 0.0,
			"0.022": 0.0,
			"0.023": 0.0,
			"0.024": 0.0,
			"0.025": 0.0
		}
	}
}
