{
	 "smiles": "CN(C)S(=O)(=O)C1=CC(=CC=C1)C(=O)NN", 
	 "Tm": 423.15, 
	 "num_atms": 29, 
	 "gaussian": { 
		 "optdone": 1, 
		 "sigma_profile": "yes", 
		 "theory": "DFT", 
		 "functional": "B3LYP", 
		 "basiset": "6-31G**", 
		 "properties": { 
			 "R2extent": 4865.5407, 
			 "electric_dipole_moment_norm": 6.48994586803, 
			 "electric_quadrupole_moment_norm": 19.3501432442, 
			 "total_energy": -1138.80679545, 
			 "HOMO_LUMO_gap": 0.20052, 
			 "cosmo_polarized_energy": -23.25, 
			 "cosmo_cavitation_energy": 33.79, 
			 "cosmo_dispersion_energy": -23.93, 
			 "cosmo_repulsion_energy": 1.83, 
			 "cosmo_total_nonelectrostatic_energy": 11.69, 
			 "SMD_solvation_energy": 5.64 
		},
		"coords": [
			{
				"x": -0.3091390842,
				"y": 0.5416223471,
				"z": 1.8775670108,
				"element": "C" 
			},
			{
				"x": -0.250138693,
				"y": -0.8791194594,
				"z": 2.2287049906,
				"element": "N" 
			},
			{
				"x": 0.9535405755,
				"y": -1.2891486246,
				"z": 2.9549662052,
				"element": "C" 
			},
			{
				"x": -0.8138574426,
				"y": -1.9588305304,
				"z": 1.0538560926,
				"element": "S" 
			},
			{
				"x": -2.0554130271,
				"y": -1.3819008092,
				"z": 0.5339159799,
				"element": "O" 
			},
			{
				"x": -0.7667305871,
				"y": -3.2889550256,
				"z": 1.6643184554,
				"element": "O" 
			},
			{
				"x": 0.3943114116,
				"y": -1.9369941405,
				"z": -0.2800196647,
				"element": "C" 
			},
			{
				"x": 0.2736137466,
				"y": -0.9771875263,
				"z": -1.2864588857,
				"element": "C" 
			},
			{
				"x": 1.2350623407,
				"y": -0.9248092268,
				"z": -2.3033486576,
				"element": "C" 
			},
			{
				"x": 2.2872347566,
				"y": -1.8531070926,
				"z": -2.3000155622,
				"element": "C" 
			},
			{
				"x": 2.3979497116,
				"y": -2.8041573922,
				"z": -1.2879479036,
				"element": "C" 
			},
			{
				"x": 1.4496251977,
				"y": -2.8530826663,
				"z": -0.2655727933,
				"element": "C" 
			},
			{
				"x": 1.1789361112,
				"y": 0.0033376892,
				"z": -3.4843830316,
				"element": "C" 
			},
			{
				"x": 1.7311264035,
				"y": -0.2870789239,
				"z": -4.5404741882,
				"element": "O" 
			},
			{
				"x": 0.4688438382,
				"y": 1.1849965463,
				"z": -3.4117760966,
				"element": "N" 
			},
			{
				"x": 0.1369226156,
				"y": 1.8335900982,
				"z": -2.2116177452,
				"element": "N" 
			},
			{
				"x": 0.4876115306,
				"y": 0.8454469371,
				"z": 1.1811672818,
				"element": "H" 
			},
			{
				"x": -1.2802019846,
				"y": 0.7623908163,
				"z": 1.4354327755,
				"element": "H" 
			},
			{
				"x": -0.2063396231,
				"y": 1.1203469102,
				"z": 2.8002018199,
				"element": "H" 
			},
			{
				"x": 0.8676232878,
				"y": -2.3396621866,
				"z": 3.2314810715,
				"element": "H" 
			},
			{
				"x": 1.0156718118,
				"y": -0.6934820181,
				"z": 3.870398916,
				"element": "H" 
			},
			{
				"x": 1.8766902899,
				"y": -1.1341485001,
				"z": 2.3749332978,
				"element": "H" 
			},
			{
				"x": -0.5688240374,
				"y": -0.3014379168,
				"z": -1.2810692609,
				"element": "H" 
			},
			{
				"x": 3.0004323535,
				"y": -1.8198303642,
				"z": -3.1163193986,
				"element": "H" 
			},
			{
				"x": 3.2150018466,
				"y": -3.5189690078,
				"z": -1.3019474677,
				"element": "H" 
			},
			{
				"x": 1.4998740574,
				"y": -3.6038157012,
				"z": 0.5153870721,
				"element": "H" 
			},
			{
				"x": 0.5575499295,
				"y": 1.7286570085,
				"z": -4.2663686422,
				"element": "H" 
			},
			{
				"x": 0.7387089652,
				"y": 2.6420009276,
				"z": -2.066385366,
				"element": "H" 
			},
			{
				"x": -0.8275863022,
				"y": 2.151127832,
				"z": -2.257526305,
				"element": "H" 
			}
		],
		 "valence_orbital": [ 
			{
				"type": "occ",
				"energy": -0.28011,
				"method": "rhf"
			},
			{
				"type": "occ",
				"energy": -0.27472,
				"method": "rhf"
			},
			{
				"type": "occ",
				"energy": -0.26935,
				"method": "rhf"
			},
			{
				"type": "occ",
				"energy": -0.25682,
				"method": "rhf"
			},
			{
				"type": "occ",
				"energy": -0.25252,
				"method": "rhf"
			},
			{
				"type": "unocc",
				"energy": -0.052,
				"method": "rhf"
			},
			{
				"type": "unocc",
				"energy": -0.03233,
				"method": "rhf"
			},
			{
				"type": "unocc",
				"energy": 0.03549,
				"method": "rhf"
			},
			{
				"type": "unocc",
				"energy": 0.0517,
				"method": "rhf"
			},
			{
				"type": "unocc",
				"energy": 0.06745,
				"method": "rhf"
			}
		],
		"cosmo_sigma_profile": { 
			"-0.025": 0.0,
			"-0.024": 0.0,
			"-0.023": 0.0,
			"-0.022": 0.0,
			"-0.021": 0.0,
			"-0.02": 0.0,
			"-0.019": 0.0,
			"-0.018": 0.0,
			"-0.017": 0.0,
			"-0.016": 0.0,
			"-0.015": 0.0,
			"-0.014": 0.161023201543,
			"-0.013": 1.6144991856,
			"-0.012": 4.42275336441,
			"-0.011": 5.86441980265,
			"-0.01": 4.63768775209,
			"-0.009": 3.90161022335,
			"-0.008": 3.26280775839,
			"-0.007": 7.31327172629,
			"-0.006": 13.5787884569,
			"-0.005": 15.0492126983,
			"-0.004": 19.3081631838,
			"-0.003": 24.2738770719,
			"-0.002": 24.2845186512,
			"-0.001": 13.9693747917,
			"0.0": 12.8563635467,
			"0.001": 16.6644279603,
			"0.002": 16.8577077701,
			"0.003": 8.85033942563,
			"0.004": 8.7818558577,
			"0.005": 6.72686074277,
			"0.006": 6.39027415849,
			"0.007": 6.76786220758,
			"0.008": 6.25191318763,
			"0.009": 5.15202679801,
			"0.01": 8.06986937211,
			"0.011": 9.05713298668,
			"0.012": 6.04109199618,
			"0.013": 5.10325204812,
			"0.014": 2.00613870781,
			"0.015": 0.0,
			"0.016": 0.0,
			"0.017": 0.0,
			"0.018": 0.0,
			"0.019": 0.0,
			"0.02": 0.0,
			"0.021": 0.0,
			"0.022": 0.0,
			"0.023": 0.0,
			"0.024": 0.0,
			"0.025": 0.0
		}
	}
}
