{
	 "smiles": "OC1OC2(CCCCC2)CC2=CC=CC=C12", 
	 "Tm": 362.15, 
	 "num_atms": 34, 
	 "gaussian": { 
		 "optdone": 1, 
		 "sigma_profile": "yes", 
		 "theory": "DFT", 
		 "functional": "B3LYP", 
		 "basiset": "6-31G**", 
		 "properties": { 
			 "R2extent": 3753.7189, 
			 "electric_dipole_moment_norm": 2.42498281437, 
			 "electric_quadrupole_moment_norm": 4.64485079846, 
			 "total_energy": -694.802086, 
			 "HOMO_LUMO_gap": 0.23184, 
			 "cosmo_polarized_energy": -8.94, 
			 "cosmo_cavitation_energy": 32.71, 
			 "cosmo_dispersion_energy": -24.12, 
			 "cosmo_repulsion_energy": 1.85, 
			 "cosmo_total_nonelectrostatic_energy": 10.44, 
			 "SMD_solvation_energy": 4.2 
		},
		"coords": [
			{
				"x": -1.6277279242,
				"y": -1.5642525383,
				"z": 1.3117538127,
				"element": "O" 
			},
			{
				"x": -1.8058392862,
				"y": -0.2006480118,
				"z": 0.9601778197,
				"element": "C" 
			},
			{
				"x": -0.7442800378,
				"y": 0.6204504104,
				"z": 1.3963663544,
				"element": "O" 
			},
			{
				"x": 0.3275505844,
				"y": 0.9525990832,
				"z": 0.4835949228,
				"element": "C" 
			},
			{
				"x": 1.21738933,
				"y": 1.9226113645,
				"z": 1.2805235784,
				"element": "C" 
			},
			{
				"x": 1.8761992232,
				"y": 1.2556869524,
				"z": 2.4975508182,
				"element": "C" 
			},
			{
				"x": 2.6735474888,
				"y": 0.006045592,
				"z": 2.0964088303,
				"element": "C" 
			},
			{
				"x": 1.8005088364,
				"y": -0.9772624012,
				"z": 1.3026309124,
				"element": "C" 
			},
			{
				"x": 1.1589390402,
				"y": -0.2902488214,
				"z": 0.087911177,
				"element": "C" 
			},
			{
				"x": -0.2959791704,
				"y": 1.6495917053,
				"z": -0.7350253383,
				"element": "C" 
			},
			{
				"x": -1.4192600751,
				"y": 0.834216854,
				"z": -1.3333484473,
				"element": "C" 
			},
			{
				"x": -1.7600948832,
				"y": 0.9357434441,
				"z": -2.6883117777,
				"element": "C" 
			},
			{
				"x": -2.8025861703,
				"y": 0.1816691303,
				"z": -3.2236194916,
				"element": "C" 
			},
			{
				"x": -3.5136894165,
				"y": -0.701746283,
				"z": -2.4068841004,
				"element": "C" 
			},
			{
				"x": -3.1744580796,
				"y": -0.820020789,
				"z": -1.0611200615,
				"element": "C" 
			},
			{
				"x": -2.1369754299,
				"y": -0.0515347502,
				"z": -0.5167274443,
				"element": "C" 
			},
			{
				"x": -1.0853210363,
				"y": -1.9830411602,
				"z": 0.6296491218,
				"element": "H" 
			},
			{
				"x": -2.657359528,
				"y": 0.1159859299,
				"z": 1.5725835738,
				"element": "H" 
			},
			{
				"x": 1.9895237903,
				"y": 2.311762937,
				"z": 0.6026862659,
				"element": "H" 
			},
			{
				"x": 0.60570375,
				"y": 2.7748335744,
				"z": 1.5975324946,
				"element": "H" 
			},
			{
				"x": 1.0919466095,
				"y": 0.9744671985,
				"z": 3.2090793123,
				"element": "H" 
			},
			{
				"x": 2.5267112597,
				"y": 1.9776967549,
				"z": 3.00537172,
				"element": "H" 
			},
			{
				"x": 3.0828130735,
				"y": -0.4845398105,
				"z": 2.9875060895,
				"element": "H" 
			},
			{
				"x": 3.5349984304,
				"y": 0.3041882349,
				"z": 1.4806100598,
				"element": "H" 
			},
			{
				"x": 2.3984020843,
				"y": -1.8341142274,
				"z": 0.9691060196,
				"element": "H" 
			},
			{
				"x": 1.006384036,
				"y": -1.3681110461,
				"z": 1.9487961289,
				"element": "H" 
			},
			{
				"x": 0.5436049074,
				"y": -0.9941672585,
				"z": -0.4850351835,
				"element": "H" 
			},
			{
				"x": 1.9462485431,
				"y": 0.0433994433,
				"z": -0.6022775069,
				"element": "H" 
			},
			{
				"x": -0.6844311713,
				"y": 2.62345513,
				"z": -0.4060690296,
				"element": "H" 
			},
			{
				"x": 0.4694143231,
				"y": 1.8550166075,
				"z": -1.4922083272,
				"element": "H" 
			},
			{
				"x": -1.1970242043,
				"y": 1.6122863115,
				"z": -3.3270234873,
				"element": "H" 
			},
			{
				"x": -3.0552543034,
				"y": 0.2764421961,
				"z": -4.2759274388,
				"element": "H" 
			},
			{
				"x": -4.3239104583,
				"y": -1.2966989792,
				"z": -2.8183316402,
				"element": "H" 
			},
			{
				"x": -3.7088941354,
				"y": -1.5141627775,
				"z": -0.4187297374,
				"element": "H" 
			}
		],
		 "valence_orbital": [ 
			{
				"type": "occ",
				"energy": -0.30019,
				"method": "rhf"
			},
			{
				"type": "occ",
				"energy": -0.27449,
				"method": "rhf"
			},
			{
				"type": "occ",
				"energy": -0.26062,
				"method": "rhf"
			},
			{
				"type": "occ",
				"energy": -0.24866,
				"method": "rhf"
			},
			{
				"type": "occ",
				"energy": -0.24272,
				"method": "rhf"
			},
			{
				"type": "unocc",
				"energy": -0.01088,
				"method": "rhf"
			},
			{
				"type": "unocc",
				"energy": -0.00429,
				"method": "rhf"
			},
			{
				"type": "unocc",
				"energy": 0.07351,
				"method": "rhf"
			},
			{
				"type": "unocc",
				"energy": 0.08836,
				"method": "rhf"
			},
			{
				"type": "unocc",
				"energy": 0.09974,
				"method": "rhf"
			}
		],
		"cosmo_sigma_profile": { 
			"-0.025": 0.0,
			"-0.024": 0.0,
			"-0.023": 0.0,
			"-0.022": 0.0,
			"-0.021": 0.0,
			"-0.02": 0.0,
			"-0.019": 0.0,
			"-0.018": 0.0,
			"-0.017": 0.0,
			"-0.016": 0.0,
			"-0.015": 0.0107072448886,
			"-0.014": 0.493311668097,
			"-0.013": 0.654998150207,
			"-0.012": 1.12261108451,
			"-0.011": 0.671198549467,
			"-0.01": 0.804217727498,
			"-0.009": 0.878146853796,
			"-0.008": 1.17587924811,
			"-0.007": 0.921682582244,
			"-0.006": 3.98962532426,
			"-0.005": 12.0654132051,
			"-0.004": 18.4105211605,
			"-0.003": 24.9356499401,
			"-0.002": 29.6730002948,
			"-0.001": 31.4371197632,
			"0.0": 34.4654279738,
			"0.001": 26.0433418313,
			"0.002": 13.2416887321,
			"0.003": 9.57143961386,
			"0.004": 9.17881706562,
			"0.005": 9.66160833082,
			"0.006": 7.28850268017,
			"0.007": 2.34204815658,
			"0.008": 2.46272344366,
			"0.009": 2.56525240344,
			"0.01": 1.98068234834,
			"0.011": 3.09502973758,
			"0.012": 2.76514116969,
			"0.013": 1.80697864974,
			"0.014": 0.847491516409,
			"0.015": 0.0,
			"0.016": 0.0,
			"0.017": 0.0,
			"0.018": 0.0,
			"0.019": 0.0,
			"0.02": 0.0,
			"0.021": 0.0,
			"0.022": 0.0,
			"0.023": 0.0,
			"0.024": 0.0,
			"0.025": 0.0
		}
	}
}
