{
	 "smiles": "OCCCCOC(=O)C=C", 
	 "Tm": 161.15, 
	 "num_atms": 22, 
	 "gaussian": { 
		 "optdone": 1, 
		 "sigma_profile": "yes", 
		 "theory": "DFT", 
		 "functional": "B3LYP", 
		 "basiset": "6-31G**", 
		 "properties": { 
			 "R2extent": 2501.503, 
			 "electric_dipole_moment_norm": 3.36821079804, 
			 "electric_quadrupole_moment_norm": 12.7046045236, 
			 "total_energy": -499.628593069, 
			 "HOMO_LUMO_gap": 0.22561, 
			 "cosmo_polarized_energy": -11.43, 
			 "cosmo_cavitation_energy": 25.49, 
			 "cosmo_dispersion_energy": -17.69, 
			 "cosmo_repulsion_energy": 1.46, 
			 "cosmo_total_nonelectrostatic_energy": 9.26, 
			 "SMD_solvation_energy": 6.09 
		},
		"coords": [
			{
				"x": -0.1641715252,
				"y": 1.044482803,
				"z": -1.835338394,
				"element": "O" 
			},
			{
				"x": -1.5047983844,
				"y": 0.7689140571,
				"z": -2.2301336223,
				"element": "C" 
			},
			{
				"x": -1.7092533863,
				"y": -0.6620196949,
				"z": -2.743204255,
				"element": "C" 
			},
			{
				"x": -1.2426875594,
				"y": -1.7813168999,
				"z": -1.7970816937,
				"element": "C" 
			},
			{
				"x": -2.0057963867,
				"y": -1.9031760113,
				"z": -0.4840051721,
				"element": "C" 
			},
			{
				"x": -1.6344136315,
				"y": -0.7886069409,
				"z": 0.350212914,
				"element": "O" 
			},
			{
				"x": -2.1387426941,
				"y": -0.7671202696,
				"z": 1.6042023552,
				"element": "C" 
			},
			{
				"x": -2.8872508168,
				"y": -1.6188493358,
				"z": 2.0438137562,
				"element": "O" 
			},
			{
				"x": -1.6740236252,
				"y": 0.4107697535,
				"z": 2.3782242745,
				"element": "C" 
			},
			{
				"x": -0.832788455,
				"y": 1.3356619889,
				"z": 1.9059728342,
				"element": "C" 
			},
			{
				"x": 0.3999289643,
				"y": 0.9686574372,
				"z": -2.6159371092,
				"element": "H" 
			},
			{
				"x": -2.1074430575,
				"y": 0.9422921398,
				"z": -1.3365581547,
				"element": "H" 
			},
			{
				"x": -1.8426216823,
				"y": 1.4798868491,
				"z": -3.0008933444,
				"element": "H" 
			},
			{
				"x": -2.7751464236,
				"y": -0.7918334851,
				"z": -2.97833785,
				"element": "H" 
			},
			{
				"x": -1.1757427358,
				"y": -0.7742934736,
				"z": -3.6983486919,
				"element": "H" 
			},
			{
				"x": -0.18035907,
				"y": -1.6457962763,
				"z": -1.5668073124,
				"element": "H" 
			},
			{
				"x": -1.3361859282,
				"y": -2.7419128807,
				"z": -2.3188134642,
				"element": "H" 
			},
			{
				"x": -1.7557363265,
				"y": -2.8325393502,
				"z": 0.0378973409,
				"element": "H" 
			},
			{
				"x": -3.0922665215,
				"y": -1.8946234622,
				"z": -0.6338325386,
				"element": "H" 
			},
			{
				"x": -2.0792145826,
				"y": 0.4578860235,
				"z": 3.3845509082,
				"element": "H" 
			},
			{
				"x": -0.5271508157,
				"y": 2.1757362415,
				"z": 2.5229947497,
				"element": "H" 
			},
			{
				"x": -0.4296353558,
				"y": 1.2787007869,
				"z": 0.8989224695,
				"element": "H" 
			}
		],
		 "valence_orbital": [ 
			{
				"type": "occ",
				"energy": -0.31908,
				"method": "rhf"
			},
			{
				"type": "occ",
				"energy": -0.2921,
				"method": "rhf"
			},
			{
				"type": "occ",
				"energy": -0.27657,
				"method": "rhf"
			},
			{
				"type": "occ",
				"energy": -0.26921,
				"method": "rhf"
			},
			{
				"type": "occ",
				"energy": -0.26404,
				"method": "rhf"
			},
			{
				"type": "unocc",
				"energy": -0.03843,
				"method": "rhf"
			},
			{
				"type": "unocc",
				"energy": 0.06546,
				"method": "rhf"
			},
			{
				"type": "unocc",
				"energy": 0.09134,
				"method": "rhf"
			},
			{
				"type": "unocc",
				"energy": 0.10192,
				"method": "rhf"
			},
			{
				"type": "unocc",
				"energy": 0.11428,
				"method": "rhf"
			}
		],
		"cosmo_sigma_profile": { 
			"-0.025": 0.0,
			"-0.024": 0.0,
			"-0.023": 0.0,
			"-0.022": 0.0,
			"-0.021": 0.0,
			"-0.02": 0.0,
			"-0.019": 0.0,
			"-0.018": 0.0,
			"-0.017": 0.0,
			"-0.016": 0.0550163982282,
			"-0.015": 0.818556978785,
			"-0.014": 0.919775143594,
			"-0.013": 0.935259716773,
			"-0.012": 1.06217066875,
			"-0.011": 1.1222851884,
			"-0.01": 0.499028353591,
			"-0.009": 0.593542175741,
			"-0.008": 1.15851272211,
			"-0.007": 3.84166058543,
			"-0.006": 4.45429642296,
			"-0.005": 9.14860924195,
			"-0.004": 16.6060721442,
			"-0.003": 23.677571336,
			"-0.002": 27.3395351712,
			"-0.001": 22.3933177798,
			"0.0": 18.0447374937,
			"0.001": 10.3476565381,
			"0.002": 9.48563155349,
			"0.003": 6.86295538245,
			"0.004": 5.11189721684,
			"0.005": 3.13141309063,
			"0.006": 3.67683724178,
			"0.007": 3.63870535657,
			"0.008": 3.11101217162,
			"0.009": 2.80319787179,
			"0.01": 3.7195479939,
			"0.011": 4.92907423844,
			"0.012": 6.51442963959,
			"0.013": 3.04955312219,
			"0.014": 0.377542700492,
			"0.015": 0.0,
			"0.016": 0.0,
			"0.017": 0.0,
			"0.018": 0.0,
			"0.019": 0.0,
			"0.02": 0.0,
			"0.021": 0.0,
			"0.022": 0.0,
			"0.023": 0.0,
			"0.024": 0.0,
			"0.025": 0.0
		}
	}
}
