{
	 "smiles": "CC1=C(C=NO1)C(=O)NCC(O)=O", 
	 "Tm": 418.15, 
	 "num_atms": 21, 
	 "gaussian": { 
		 "optdone": 1, 
		 "sigma_profile": "yes", 
		 "theory": "DFT", 
		 "functional": "B3LYP", 
		 "basiset": "6-31G**", 
		 "properties": { 
			 "R2extent": 3997.1514, 
			 "electric_dipole_moment_norm": 3.55726401185, 
			 "electric_quadrupole_moment_norm": 20.9425041953, 
			 "total_energy": -681.937398009, 
			 "HOMO_LUMO_gap": 0.2162, 
			 "cosmo_polarized_energy": -23.26, 
			 "cosmo_cavitation_energy": 26.57, 
			 "cosmo_dispersion_energy": -19.25, 
			 "cosmo_repulsion_energy": 1.54, 
			 "cosmo_total_nonelectrostatic_energy": 8.86, 
			 "SMD_solvation_energy": 6.92 
		},
		"coords": [
			{
				"x": -0.7975055426,
				"y": -3.3716302472,
				"z": 3.3052708286,
				"element": "C" 
			},
			{
				"x": -1.5416742032,
				"y": -2.7974859788,
				"z": 2.153476569,
				"element": "C" 
			},
			{
				"x": -1.4839467556,
				"y": -1.589567254,
				"z": 1.492273959,
				"element": "C" 
			},
			{
				"x": -2.4854902215,
				"y": -1.7227264301,
				"z": 0.4801016533,
				"element": "C" 
			},
			{
				"x": -3.0903180823,
				"y": -2.8807634313,
				"z": 0.5201386587,
				"element": "N" 
			},
			{
				"x": -2.4892530836,
				"y": -3.5629554453,
				"z": 1.5919722008,
				"element": "O" 
			},
			{
				"x": -0.5762928528,
				"y": -0.468489919,
				"z": 1.8050516046,
				"element": "C" 
			},
			{
				"x": 0.3424171804,
				"y": -0.555837916,
				"z": 2.6110936657,
				"element": "O" 
			},
			{
				"x": -0.8091264014,
				"y": 0.7028258048,
				"z": 1.0877463441,
				"element": "N" 
			},
			{
				"x": -0.1147973777,
				"y": 1.933873425,
				"z": 1.4470017579,
				"element": "C" 
			},
			{
				"x": 0.6106751672,
				"y": 2.5977988813,
				"z": 0.2709726846,
				"element": "C" 
			},
			{
				"x": 0.8652269209,
				"y": 1.7921226236,
				"z": -0.7801211333,
				"element": "O" 
			},
			{
				"x": 0.9517477897,
				"y": 3.7530262948,
				"z": 0.2970111021,
				"element": "O" 
			},
			{
				"x": -1.4875119571,
				"y": -3.6225642171,
				"z": 4.1176551141,
				"element": "H" 
			},
			{
				"x": -0.0602357781,
				"y": -2.6492587821,
				"z": 3.6527267752,
				"element": "H" 
			},
			{
				"x": -0.2908101698,
				"y": -4.2948040124,
				"z": 3.0051431747,
				"element": "H" 
			},
			{
				"x": -2.778393046,
				"y": -1.0218623594,
				"z": -0.2926807976,
				"element": "H" 
			},
			{
				"x": -1.7280214206,
				"y": 0.8092494853,
				"z": 0.6790376573,
				"element": "H" 
			},
			{
				"x": -0.7900744435,
				"y": 2.6744175358,
				"z": 1.8844208397,
				"element": "H" 
			},
			{
				"x": 0.630633346,
				"y": 1.6702550491,
				"z": 2.2035937886,
				"element": "H" 
			},
			{
				"x": 0.4863509316,
				"y": 0.917676893,
				"z": -0.5817864471,
				"element": "H" 
			}
		],
		 "valence_orbital": [ 
			{
				"type": "occ",
				"energy": -0.31859,
				"method": "rhf"
			},
			{
				"type": "occ",
				"energy": -0.31053,
				"method": "rhf"
			},
			{
				"type": "occ",
				"energy": -0.29134,
				"method": "rhf"
			},
			{
				"type": "occ",
				"energy": -0.28154,
				"method": "rhf"
			},
			{
				"type": "occ",
				"energy": -0.26934,
				"method": "rhf"
			},
			{
				"type": "unocc",
				"energy": -0.05314,
				"method": "rhf"
			},
			{
				"type": "unocc",
				"energy": -0.02814,
				"method": "rhf"
			},
			{
				"type": "unocc",
				"energy": 0.00515,
				"method": "rhf"
			},
			{
				"type": "unocc",
				"energy": 0.039,
				"method": "rhf"
			},
			{
				"type": "unocc",
				"energy": 0.0814,
				"method": "rhf"
			}
		],
		"cosmo_sigma_profile": { 
			"-0.025": 0.0,
			"-0.024": 0.0,
			"-0.023": 0.0,
			"-0.022": 0.0,
			"-0.021": 0.0,
			"-0.02": 0.0,
			"-0.019": 0.0,
			"-0.018": 0.0,
			"-0.017": 0.0625143125317,
			"-0.016": 1.93651020888,
			"-0.015": 2.06113262123,
			"-0.014": 2.77778209705,
			"-0.013": 2.39181536049,
			"-0.012": 2.78454186184,
			"-0.011": 4.97848896903,
			"-0.01": 4.01132834184,
			"-0.009": 3.50373305703,
			"-0.008": 5.25407702751,
			"-0.007": 10.0606819865,
			"-0.006": 10.8689551176,
			"-0.005": 10.0785266493,
			"-0.004": 10.5167737642,
			"-0.003": 13.9762657688,
			"-0.002": 15.5501548809,
			"-0.001": 13.0968655799,
			"0.0": 8.84288835511,
			"0.001": 6.8510448806,
			"0.002": 6.11832505462,
			"0.003": 5.61123237442,
			"0.004": 5.42743798358,
			"0.005": 5.93986391801,
			"0.006": 6.91328801591,
			"0.007": 8.80119903534,
			"0.008": 7.26556194263,
			"0.009": 6.45080774827,
			"0.01": 8.37699111461,
			"0.011": 8.39181178103,
			"0.012": 10.0761637052,
			"0.013": 2.96063712042,
			"0.014": 0.239845018488,
			"0.015": 0.0,
			"0.016": 0.0,
			"0.017": 0.0,
			"0.018": 0.0,
			"0.019": 0.0,
			"0.02": 0.0,
			"0.021": 0.0,
			"0.022": 0.0,
			"0.023": 0.0,
			"0.024": 0.0,
			"0.025": 0.0
		}
	}
}
