{
	 "smiles": "CC(C)N1C(N)=NN=C1S", 
	 "Tm": 463.15, 
	 "num_atms": 20, 
	 "gaussian": { 
		 "optdone": 1, 
		 "sigma_profile": "yes", 
		 "theory": "DFT", 
		 "functional": "B3LYP", 
		 "basiset": "6-31G**", 
		 "properties": { 
			 "R2extent": 2061.413, 
			 "electric_dipole_moment_norm": 4.71680519526, 
			 "electric_quadrupole_moment_norm": 12.5230812938, 
			 "total_energy": -813.732715712, 
			 "HOMO_LUMO_gap": 0.21939, 
			 "cosmo_polarized_energy": -17.4, 
			 "cosmo_cavitation_energy": 24.46, 
			 "cosmo_dispersion_energy": -18.17, 
			 "cosmo_repulsion_energy": 1.44, 
			 "cosmo_total_nonelectrostatic_energy": 7.73, 
			 "SMD_solvation_energy": 2.27 
		},
		"coords": [
			{
				"x": -0.8991235786,
				"y": 0.7201950054,
				"z": 0.8231739841,
				"element": "C" 
			},
			{
				"x": 0.5560207494,
				"y": 0.3112721088,
				"z": 0.5634744848,
				"element": "C" 
			},
			{
				"x": 1.5047717231,
				"y": 1.511285615,
				"z": 0.4543448366,
				"element": "C" 
			},
			{
				"x": 0.6523622675,
				"y": -0.5717901794,
				"z": -0.6159142649,
				"element": "N" 
			},
			{
				"x": 0.3359515397,
				"y": -0.3107012535,
				"z": -1.9354033773,
				"element": "C" 
			},
			{
				"x": -0.1123992678,
				"y": 0.9346973832,
				"z": -2.3852773831,
				"element": "N" 
			},
			{
				"x": 0.4307192427,
				"y": -1.3922216832,
				"z": -2.6677377644,
				"element": "N" 
			},
			{
				"x": 0.8132093727,
				"y": -2.4302291501,
				"z": -1.8279030176,
				"element": "N" 
			},
			{
				"x": 0.9447959263,
				"y": -1.9197467549,
				"z": -0.631527346,
				"element": "C" 
			},
			{
				"x": 1.4570595607,
				"y": -2.8094988565,
				"z": 0.8136929477,
				"element": "S" 
			},
			{
				"x": -1.5283705113,
				"y": -0.1627047761,
				"z": 0.96517758,
				"element": "H" 
			},
			{
				"x": -1.2932907343,
				"y": 1.2958089065,
				"z": -0.0178834332,
				"element": "H" 
			},
			{
				"x": -0.9567845005,
				"y": 1.3333875444,
				"z": 1.7278926102,
				"element": "H" 
			},
			{
				"x": 0.8981033641,
				"y": -0.3029113177,
				"z": 1.4025724983,
				"element": "H" 
			},
			{
				"x": 1.5366422214,
				"y": 2.041317342,
				"z": 1.4109728859,
				"element": "H" 
			},
			{
				"x": 2.5204650571,
				"y": 1.1903151481,
				"z": 0.2068659901,
				"element": "H" 
			},
			{
				"x": 1.1647023194,
				"y": 2.2269590932,
				"z": -0.3001540582,
				"element": "H" 
			},
			{
				"x": 0.6077414446,
				"y": 1.650606021,
				"z": -2.3501312191,
				"element": "H" 
			},
			{
				"x": -0.4222270683,
				"y": 0.8292963422,
				"z": -3.3467157036,
				"element": "H" 
			},
			{
				"x": 1.593550872,
				"y": -3.9586365384,
				"z": 0.1260797498,
				"element": "H" 
			}
		],
		 "valence_orbital": [ 
			{
				"type": "occ",
				"energy": -0.30058,
				"method": "rhf"
			},
			{
				"type": "occ",
				"energy": -0.28684,
				"method": "rhf"
			},
			{
				"type": "occ",
				"energy": -0.27515,
				"method": "rhf"
			},
			{
				"type": "occ",
				"energy": -0.24911,
				"method": "rhf"
			},
			{
				"type": "occ",
				"energy": -0.2119,
				"method": "rhf"
			},
			{
				"type": "unocc",
				"energy": 0.00749,
				"method": "rhf"
			},
			{
				"type": "unocc",
				"energy": 0.0293,
				"method": "rhf"
			},
			{
				"type": "unocc",
				"energy": 0.05357,
				"method": "rhf"
			},
			{
				"type": "unocc",
				"energy": 0.05587,
				"method": "rhf"
			},
			{
				"type": "unocc",
				"energy": 0.06885,
				"method": "rhf"
			}
		],
		"cosmo_sigma_profile": { 
			"-0.025": 0.0,
			"-0.024": 0.0,
			"-0.023": 0.0,
			"-0.022": 0.0,
			"-0.021": 0.0,
			"-0.02": 0.0,
			"-0.019": 0.0,
			"-0.018": 0.0,
			"-0.017": 0.0,
			"-0.016": 0.0,
			"-0.015": 0.0,
			"-0.014": 0.050262951975,
			"-0.013": 1.91045259706,
			"-0.012": 3.37462077086,
			"-0.011": 4.90570442066,
			"-0.01": 4.70050788454,
			"-0.009": 2.67090391393,
			"-0.008": 3.14451261419,
			"-0.007": 3.23800045352,
			"-0.006": 5.43693803433,
			"-0.005": 9.63282048767,
			"-0.004": 17.6746360238,
			"-0.003": 16.1368176201,
			"-0.002": 15.8584448076,
			"-0.001": 17.9189150117,
			"0.0": 16.8117932621,
			"0.001": 9.84127389378,
			"0.002": 8.40999799807,
			"0.003": 6.85461209233,
			"0.004": 5.24311509481,
			"0.005": 5.60808362626,
			"0.006": 5.11126576463,
			"0.007": 4.89476878604,
			"0.008": 2.76141620021,
			"0.009": 2.01571125117,
			"0.01": 2.34084473497,
			"0.011": 2.35165511426,
			"0.012": 2.16339757846,
			"0.013": 2.82317422625,
			"0.014": 3.99138103344,
			"0.015": 3.31014819837,
			"0.016": 2.44855584571,
			"0.017": 1.49190992867,
			"0.018": 0.0506302585256,
			"0.019": 0.0,
			"0.02": 0.0,
			"0.021": 0.0,
			"0.022": 0.0,
			"0.023": 0.0,
			"0.024": 0.0,
			"0.025": 0.0
		}
	}
}
