{
	 "smiles": "CC(C)NCC(O)C1=CC(O)=CC(O)=C1", 
	 "Tm": 373.15, 
	 "num_atms": 32, 
	 "gaussian": { 
		 "optdone": 1, 
		 "sigma_profile": "yes", 
		 "theory": "DFT", 
		 "functional": "B3LYP", 
		 "basiset": "6-31G**", 
		 "properties": { 
			 "R2extent": 4492.551, 
			 "electric_dipole_moment_norm": 3.93509294935, 
			 "electric_quadrupole_moment_norm": 20.6070731558, 
			 "total_energy": -709.824242963, 
			 "HOMO_LUMO_gap": 0.19863, 
			 "cosmo_polarized_energy": -18.8, 
			 "cosmo_cavitation_energy": 34.39, 
			 "cosmo_dispersion_energy": -23.89, 
			 "cosmo_repulsion_energy": 1.9, 
			 "cosmo_total_nonelectrostatic_energy": 12.4, 
			 "SMD_solvation_energy": 4.65 
		},
		"coords": [
			{
				"x": 3.3252302298,
				"y": -0.2993960041,
				"z": -0.481247454,
				"element": "C" 
			},
			{
				"x": 2.6581743985,
				"y": -0.4933160377,
				"z": -1.8583052865,
				"element": "C" 
			},
			{
				"x": 3.3740527191,
				"y": 0.3403715247,
				"z": -2.9277768151,
				"element": "C" 
			},
			{
				"x": 1.2256292379,
				"y": -0.1980445551,
				"z": -1.9299427463,
				"element": "N" 
			},
			{
				"x": 0.2893560587,
				"y": -1.0255082565,
				"z": -1.1904765824,
				"element": "C" 
			},
			{
				"x": -0.1131402378,
				"y": -0.5614374189,
				"z": 0.2346948243,
				"element": "C" 
			},
			{
				"x": -0.954995077,
				"y": -1.6018480684,
				"z": 0.7265099043,
				"element": "O" 
			},
			{
				"x": -0.815387111,
				"y": 0.7868605896,
				"z": 0.2191193163,
				"element": "C" 
			},
			{
				"x": -0.0828646408,
				"y": 1.9618423884,
				"z": 0.4214575515,
				"element": "C" 
			},
			{
				"x": -0.7289028465,
				"y": 3.200416701,
				"z": 0.3599732129,
				"element": "C" 
			},
			{
				"x": 0.0335907605,
				"y": 4.3148003742,
				"z": 0.5672263923,
				"element": "O" 
			},
			{
				"x": -2.1019154395,
				"y": 3.2737188001,
				"z": 0.1062637272,
				"element": "C" 
			},
			{
				"x": -2.8258518153,
				"y": 2.0912462095,
				"z": -0.0879053609,
				"element": "C" 
			},
			{
				"x": -4.1691030576,
				"y": 2.0976184347,
				"z": -0.334110025,
				"element": "O" 
			},
			{
				"x": -2.18988951,
				"y": 0.8491457397,
				"z": -0.0342335745,
				"element": "C" 
			},
			{
				"x": 4.3923877699,
				"y": -0.5468767589,
				"z": -0.5257325968,
				"element": "H" 
			},
			{
				"x": 2.872293512,
				"y": -0.9391659761,
				"z": 0.2821103376,
				"element": "H" 
			},
			{
				"x": 3.239031609,
				"y": 0.7427113492,
				"z": -0.1495002027,
				"element": "H" 
			},
			{
				"x": 2.7637001305,
				"y": -1.5533178926,
				"z": -2.1308486392,
				"element": "H" 
			},
			{
				"x": 2.927104711,
				"y": 0.1674410361,
				"z": -3.910259408,
				"element": "H" 
			},
			{
				"x": 3.293205985,
				"y": 1.4115306651,
				"z": -2.7023013472,
				"element": "H" 
			},
			{
				"x": 4.4396027532,
				"y": 0.093746262,
				"z": -2.974249552,
				"element": "H" 
			},
			{
				"x": 1.0386390522,
				"y": 0.7923620959,
				"z": -1.8020013152,
				"element": "H" 
			},
			{
				"x": 0.704061223,
				"y": -2.0355310681,
				"z": -1.098776337,
				"element": "H" 
			},
			{
				"x": -0.6479141819,
				"y": -1.1218869484,
				"z": -1.7554561669,
				"element": "H" 
			},
			{
				"x": 0.79094989,
				"y": -0.4744264514,
				"z": 0.8549304392,
				"element": "H" 
			},
			{
				"x": -1.3346777033,
				"y": -1.3036471554,
				"z": 1.5635783026,
				"element": "H" 
			},
			{
				"x": 0.9775424301,
				"y": 1.935104959,
				"z": 0.6488683563,
				"element": "H" 
			},
			{
				"x": -0.5243522661,
				"y": 5.1006426772,
				"z": 0.5055780606,
				"element": "H" 
			},
			{
				"x": -2.6038306182,
				"y": 4.2397237689,
				"z": 0.0673729484,
				"element": "H" 
			},
			{
				"x": -4.4867116426,
				"y": 3.0092997759,
				"z": -0.3580453871,
				"element": "H" 
			},
			{
				"x": -2.7663163229,
				"y": -0.0554807598,
				"z": -0.1881145769,
				"element": "H" 
			}
		],
		 "valence_orbital": [ 
			{
				"type": "occ",
				"energy": -0.30852,
				"method": "rhf"
			},
			{
				"type": "occ",
				"energy": -0.27063,
				"method": "rhf"
			},
			{
				"type": "occ",
				"energy": -0.23702,
				"method": "rhf"
			},
			{
				"type": "occ",
				"energy": -0.21616,
				"method": "rhf"
			},
			{
				"type": "occ",
				"energy": -0.20132,
				"method": "rhf"
			},
			{
				"type": "unocc",
				"energy": -0.00269,
				"method": "rhf"
			},
			{
				"type": "unocc",
				"energy": 0.01455,
				"method": "rhf"
			},
			{
				"type": "unocc",
				"energy": 0.05987,
				"method": "rhf"
			},
			{
				"type": "unocc",
				"energy": 0.06641,
				"method": "rhf"
			},
			{
				"type": "unocc",
				"energy": 0.08598,
				"method": "rhf"
			}
		],
		"cosmo_sigma_profile": { 
			"-0.025": 0.0,
			"-0.024": 0.0,
			"-0.023": 0.0,
			"-0.022": 0.0,
			"-0.021": 0.0,
			"-0.02": 0.0,
			"-0.019": 0.0,
			"-0.018": 0.846452670981,
			"-0.017": 2.04839802217,
			"-0.016": 2.77677608305,
			"-0.015": 3.02577454446,
			"-0.014": 2.14190631432,
			"-0.013": 2.19159292311,
			"-0.012": 2.68186351817,
			"-0.011": 3.13778345844,
			"-0.01": 3.20666037823,
			"-0.009": 3.3806076262,
			"-0.008": 3.13823004808,
			"-0.007": 1.99107168816,
			"-0.006": 4.26574904377,
			"-0.005": 4.44661483384,
			"-0.004": 10.766740555,
			"-0.003": 25.9818296669,
			"-0.002": 27.2156994187,
			"-0.001": 22.2810316623,
			"0.0": 21.075898763,
			"0.001": 23.5419306751,
			"0.002": 17.3967369076,
			"0.003": 10.8900845898,
			"0.004": 13.5594431223,
			"0.005": 15.4142870276,
			"0.006": 6.36015059907,
			"0.007": 5.40617521936,
			"0.008": 3.86181667894,
			"0.009": 5.04528592544,
			"0.01": 5.10180645095,
			"0.011": 5.56826625883,
			"0.012": 3.91400808585,
			"0.013": 2.51902497873,
			"0.014": 1.41558493525,
			"0.015": 0.489543845605,
			"0.016": 0.397369730566,
			"0.017": 0.258611376129,
			"0.018": 0.0,
			"0.019": 0.0,
			"0.02": 0.0,
			"0.021": 0.0,
			"0.022": 0.0,
			"0.023": 0.0,
			"0.024": 0.0,
			"0.025": 0.0
		}
	}
}
