{
	 "smiles": "CC1=NN2C(=C1)N=CC(=C2N)S(=O)(=O)C(C)(C)C", 
	 "Tm": 480.15, 
	 "num_atms": 34, 
	 "gaussian": { 
		 "optdone": 1, 
		 "sigma_profile": "yes", 
		 "theory": "DFT", 
		 "functional": "B3LYP", 
		 "basiset": "6-31G**", 
		 "properties": { 
			 "R2extent": 5901.7379, 
			 "electric_dipole_moment_norm": 4.28830039176, 
			 "electric_quadrupole_moment_norm": 17.8873062927, 
			 "total_energy": -1196.40425096, 
			 "HOMO_LUMO_gap": 0.18467, 
			 "cosmo_polarized_energy": -15.84, 
			 "cosmo_cavitation_energy": 36.63, 
			 "cosmo_dispersion_energy": -26.62, 
			 "cosmo_repulsion_energy": 1.98, 
			 "cosmo_total_nonelectrostatic_energy": 11.99, 
			 "SMD_solvation_energy": 3.14 
		},
		"coords": [
			{
				"x": 3.0690848142,
				"y": -3.8178155769,
				"z": -3.3554940322,
				"element": "C" 
			},
			{
				"x": 2.0553864142,
				"y": -3.2606473441,
				"z": -2.4022582319,
				"element": "C" 
			},
			{
				"x": 2.4506459515,
				"y": -2.4626792229,
				"z": -1.3974763942,
				"element": "N" 
			},
			{
				"x": 1.294153312,
				"y": -2.1538871165,
				"z": -0.7529731819,
				"element": "N" 
			},
			{
				"x": 0.1642377645,
				"y": -2.7519955984,
				"z": -1.3280843995,
				"element": "C" 
			},
			{
				"x": 0.6602742374,
				"y": -3.4712938262,
				"z": -2.4088544072,
				"element": "C" 
			},
			{
				"x": -1.0732826962,
				"y": -2.5872172962,
				"z": -0.8030595718,
				"element": "N" 
			},
			{
				"x": -1.1485367282,
				"y": -1.819160823,
				"z": 0.2639624035,
				"element": "C" 
			},
			{
				"x": -0.0485763299,
				"y": -1.1524707572,
				"z": 0.8728875255,
				"element": "C" 
			},
			{
				"x": 1.2426444098,
				"y": -1.3537605213,
				"z": 0.3535737809,
				"element": "C" 
			},
			{
				"x": 2.4074181023,
				"y": -0.8553305381,
				"z": 0.7928740035,
				"element": "N" 
			},
			{
				"x": -0.324117014,
				"y": -0.1549668975,
				"z": 2.3207294796,
				"element": "S" 
			},
			{
				"x": -1.4923865962,
				"y": -0.7056193638,
				"z": 3.0284788569,
				"element": "O" 
			},
			{
				"x": 0.9813249623,
				"y": -0.0389008234,
				"z": 3.02215214,
				"element": "O" 
			},
			{
				"x": -0.7839639852,
				"y": 1.5671463252,
				"z": 1.7541028489,
				"element": "C" 
			},
			{
				"x": -2.0929236491,
				"y": 1.489993592,
				"z": 0.9602599703,
				"element": "C" 
			},
			{
				"x": -0.9696900719,
				"y": 2.3688013596,
				"z": 3.0533211632,
				"element": "C" 
			},
			{
				"x": 0.3615632337,
				"y": 2.1349457118,
				"z": 0.9092716739,
				"element": "C" 
			},
			{
				"x": 3.7980993638,
				"y": -4.4424483771,
				"z": -2.8291588315,
				"element": "H" 
			},
			{
				"x": 3.6237057691,
				"y": -3.013913691,
				"z": -3.8498857637,
				"element": "H" 
			},
			{
				"x": 2.5857197086,
				"y": -4.4262046269,
				"z": -4.1229348717,
				"element": "H" 
			},
			{
				"x": 0.0827241036,
				"y": -4.0697439082,
				"z": -3.0958107583,
				"element": "H" 
			},
			{
				"x": -2.128497457,
				"y": -1.7012154417,
				"z": 0.7196512964,
				"element": "H" 
			},
			{
				"x": 3.2420923857,
				"y": -1.2099176257,
				"z": 0.3455551457,
				"element": "H" 
			},
			{
				"x": 2.4165717478,
				"y": -0.4559987146,
				"z": 1.7247763363,
				"element": "H" 
			},
			{
				"x": -2.8906703096,
				"y": 1.039361904,
				"z": 1.5552440489,
				"element": "H" 
			},
			{
				"x": -2.3993492475,
				"y": 2.505408243,
				"z": 0.6873822649,
				"element": "H" 
			},
			{
				"x": -1.9765658472,
				"y": 0.9194709323,
				"z": 0.034300448,
				"element": "H" 
			},
			{
				"x": -0.0484048094,
				"y": 2.3902619012,
				"z": 3.640379934,
				"element": "H" 
			},
			{
				"x": -1.7668804108,
				"y": 1.944321631,
				"z": 3.6682600698,
				"element": "H" 
			},
			{
				"x": -1.241139157,
				"y": 3.3976181987,
				"z": 2.794624594,
				"element": "H" 
			},
			{
				"x": 0.5190230291,
				"y": 1.5571954359,
				"z": -0.0061360093,
				"element": "H" 
			},
			{
				"x": 0.1084316163,
				"y": 3.1591228847,
				"z": 0.6154814829,
				"element": "H" 
			},
			{
				"x": 1.2967833833,
				"y": 2.1640399715,
				"z": 1.4729569859,
				"element": "H" 
			}
		],
		 "valence_orbital": [ 
			{
				"type": "occ",
				"energy": -0.28726,
				"method": "rhf"
			},
			{
				"type": "occ",
				"energy": -0.27902,
				"method": "rhf"
			},
			{
				"type": "occ",
				"energy": -0.26644,
				"method": "rhf"
			},
			{
				"type": "occ",
				"energy": -0.26145,
				"method": "rhf"
			},
			{
				"type": "occ",
				"energy": -0.22044,
				"method": "rhf"
			},
			{
				"type": "unocc",
				"energy": -0.03577,
				"method": "rhf"
			},
			{
				"type": "unocc",
				"energy": -0.03095,
				"method": "rhf"
			},
			{
				"type": "unocc",
				"energy": 0.04524,
				"method": "rhf"
			},
			{
				"type": "unocc",
				"energy": 0.05669,
				"method": "rhf"
			},
			{
				"type": "unocc",
				"energy": 0.06657,
				"method": "rhf"
			}
		],
		"cosmo_sigma_profile": { 
			"-0.025": 0.0,
			"-0.024": 0.0,
			"-0.023": 0.0,
			"-0.022": 0.0,
			"-0.021": 0.0,
			"-0.02": 0.0,
			"-0.019": 0.0,
			"-0.018": 0.0,
			"-0.017": 0.0,
			"-0.016": 0.0,
			"-0.015": 0.0296663295623,
			"-0.014": 0.431033111382,
			"-0.013": 0.916832940403,
			"-0.012": 0.99308543743,
			"-0.011": 2.01921520385,
			"-0.01": 1.62917344841,
			"-0.009": 1.35828700642,
			"-0.008": 1.29721445877,
			"-0.007": 3.0828865085,
			"-0.006": 5.98975744943,
			"-0.005": 21.8350562281,
			"-0.004": 28.9993709516,
			"-0.003": 31.1263756546,
			"-0.002": 30.602797145,
			"-0.001": 37.0136146067,
			"0.0": 24.570326254,
			"0.001": 12.1059012596,
			"0.002": 12.8354881221,
			"0.003": 11.6953399695,
			"0.004": 9.84232324994,
			"0.005": 6.32695354266,
			"0.006": 5.25342452507,
			"0.007": 5.94223134767,
			"0.008": 4.63448482084,
			"0.009": 6.25551293754,
			"0.01": 6.57291541131,
			"0.011": 7.1164888592,
			"0.012": 5.65967370257,
			"0.013": 1.19232294927,
			"0.014": 0.95442702257,
			"0.015": 0.743100699324,
			"0.016": 0.284600321679,
			"0.017": 0.0,
			"0.018": 0.0,
			"0.019": 0.0,
			"0.02": 0.0,
			"0.021": 0.0,
			"0.022": 0.0,
			"0.023": 0.0,
			"0.024": 0.0,
			"0.025": 0.0
		}
	}
}
