{
	 "smiles": "COC1=C(C=C(CC#N)C=C1)[N+]([O-])=O", 
	 "Tm": 358.15, 
	 "num_atms": 22, 
	 "gaussian": { 
		 "optdone": 1, 
		 "sigma_profile": "yes", 
		 "theory": "DFT", 
		 "functional": "B3LYP", 
		 "basiset": "6-31G**", 
		 "properties": { 
			 "R2extent": 3293.8729, 
			 "electric_dipole_moment_norm": 2.62961288976, 
			 "electric_quadrupole_moment_norm": 36.6314590874, 
			 "total_energy": -682.8130296, 
			 "HOMO_LUMO_gap": 0.16566, 
			 "cosmo_polarized_energy": -17.53, 
			 "cosmo_cavitation_energy": 28.14, 
			 "cosmo_dispersion_energy": -19.88, 
			 "cosmo_repulsion_energy": 1.57, 
			 "cosmo_total_nonelectrostatic_energy": 9.83, 
			 "SMD_solvation_energy": 9.21 
		},
		"coords": [
			{
				"x": -3.551339153,
				"y": -0.6162291925,
				"z": 1.3265573776,
				"element": "C" 
			},
			{
				"x": -2.1881523336,
				"y": -0.8010583214,
				"z": 1.6966213369,
				"element": "O" 
			},
			{
				"x": -1.226659153,
				"y": -0.2389984696,
				"z": 0.9412288611,
				"element": "C" 
			},
			{
				"x": 0.1310446379,
				"y": -0.4710263486,
				"z": 1.2705301297,
				"element": "C" 
			},
			{
				"x": 1.1610884052,
				"y": 0.0447176703,
				"z": 0.4883508277,
				"element": "C" 
			},
			{
				"x": 0.8918878327,
				"y": 0.8316972314,
				"z": -0.6297563029,
				"element": "C" 
			},
			{
				"x": 2.0590159061,
				"y": 1.4088541847,
				"z": -1.423226019,
				"element": "C" 
			},
			{
				"x": 1.6810041428,
				"y": 1.9716180927,
				"z": -2.7215946285,
				"element": "C" 
			},
			{
				"x": 1.36815629,
				"y": 2.4223355473,
				"z": -3.7440636147,
				"element": "N" 
			},
			{
				"x": -0.4444614985,
				"y": 1.0733742518,
				"z": -0.9584316235,
				"element": "C" 
			},
			{
				"x": -1.4826716678,
				"y": 0.5436948242,
				"z": -0.1956381884,
				"element": "C" 
			},
			{
				"x": 0.5304665846,
				"y": -1.2590848215,
				"z": 2.4452822871,
				"element": "N" 
			},
			{
				"x": -0.2491272537,
				"y": -1.3380760863,
				"z": 3.3892759594,
				"element": "O" 
			},
			{
				"x": 1.6512038872,
				"y": -1.7754043394,
				"z": 2.4151450061,
				"element": "O" 
			},
			{
				"x": -3.7552547338,
				"y": -1.0209315484,
				"z": 0.328134894,
				"element": "H" 
			},
			{
				"x": -4.1295049954,
				"y": -1.1677937087,
				"z": 2.0677547333,
				"element": "H" 
			},
			{
				"x": -3.8348368355,
				"y": 0.4422549524,
				"z": 1.3587914367,
				"element": "H" 
			},
			{
				"x": 2.1770587722,
				"y": -0.1916417232,
				"z": 0.7840060376,
				"element": "H" 
			},
			{
				"x": 2.5559272008,
				"y": 2.2013604334,
				"z": -0.8477867587,
				"element": "H" 
			},
			{
				"x": 2.8166317602,
				"y": 0.6349089643,
				"z": -1.5951260046,
				"element": "H" 
			},
			{
				"x": -0.6862023613,
				"y": 1.6745022136,
				"z": -1.8298052703,
				"element": "H" 
			},
			{
				"x": -2.5041754341,
				"y": 0.7411261936,
				"z": -0.4943504766,
				"element": "H" 
			}
		],
		 "valence_orbital": [ 
			{
				"type": "occ",
				"energy": -0.3057,
				"method": "rhf"
			},
			{
				"type": "occ",
				"energy": -0.30402,
				"method": "rhf"
			},
			{
				"type": "occ",
				"energy": -0.29437,
				"method": "rhf"
			},
			{
				"type": "occ",
				"energy": -0.27897,
				"method": "rhf"
			},
			{
				"type": "occ",
				"energy": -0.25158,
				"method": "rhf"
			},
			{
				"type": "unocc",
				"energy": -0.08592,
				"method": "rhf"
			},
			{
				"type": "unocc",
				"energy": -0.02841,
				"method": "rhf"
			},
			{
				"type": "unocc",
				"energy": -0.00946,
				"method": "rhf"
			},
			{
				"type": "unocc",
				"energy": 0.0187,
				"method": "rhf"
			},
			{
				"type": "unocc",
				"energy": 0.02987,
				"method": "rhf"
			}
		],
		"cosmo_sigma_profile": { 
			"-0.025": 0.0,
			"-0.024": 0.0,
			"-0.023": 0.0,
			"-0.022": 0.0,
			"-0.021": 0.0,
			"-0.02": 0.0,
			"-0.019": 0.0,
			"-0.018": 0.0,
			"-0.017": 0.0,
			"-0.016": 0.0,
			"-0.015": 0.0,
			"-0.014": 0.0,
			"-0.013": 0.0,
			"-0.012": 0.0,
			"-0.011": 0.0,
			"-0.01": 0.907223281281,
			"-0.009": 7.70888755841,
			"-0.008": 9.37435448115,
			"-0.007": 13.1490187558,
			"-0.006": 18.4685244702,
			"-0.005": 16.2300564057,
			"-0.004": 15.8492865106,
			"-0.003": 14.3826524977,
			"-0.002": 9.09800217689,
			"-0.001": 12.6789915909,
			"0.0": 13.8501566491,
			"0.001": 14.0504544133,
			"0.002": 9.69780678317,
			"0.003": 5.92644423706,
			"0.004": 5.26318097036,
			"0.005": 4.84751037758,
			"0.006": 5.87889059033,
			"0.007": 8.59325055629,
			"0.008": 12.603511535,
			"0.009": 10.408014031,
			"0.01": 7.7465957857,
			"0.011": 4.57634483969,
			"0.012": 3.37918802094,
			"0.013": 1.44096543622,
			"0.014": 0.00483915266135,
			"0.015": 0.0,
			"0.016": 0.0,
			"0.017": 0.0,
			"0.018": 0.0,
			"0.019": 0.0,
			"0.02": 0.0,
			"0.021": 0.0,
			"0.022": 0.0,
			"0.023": 0.0,
			"0.024": 0.0,
			"0.025": 0.0
		}
	}
}
