{
	 "smiles": "C=CC(=O)NC1=CC=CC=C1", 
	 "Tm": 377.15, 
	 "num_atms": 20, 
	 "gaussian": { 
		 "optdone": 1, 
		 "sigma_profile": "yes", 
		 "theory": "DFT", 
		 "functional": "B3LYP", 
		 "basiset": "6-31G**", 
		 "properties": { 
			 "R2extent": 2310.9757, 
			 "electric_dipole_moment_norm": 3.19535642613, 
			 "electric_quadrupole_moment_norm": 11.6358867303, 
			 "total_energy": -478.345809347, 
			 "HOMO_LUMO_gap": 0.18686, 
			 "cosmo_polarized_energy": -10.55, 
			 "cosmo_cavitation_energy": 24.49, 
			 "cosmo_dispersion_energy": -17.66, 
			 "cosmo_repulsion_energy": 1.42, 
			 "cosmo_total_nonelectrostatic_energy": 8.25, 
			 "SMD_solvation_energy": 5.67 
		},
		"coords": [
			{
				"x": 0.2457261869,
				"y": 1.6958473351,
				"z": 4.2125883895,
				"element": "C" 
			},
			{
				"x": -0.0478258861,
				"y": 1.0580243806,
				"z": 3.0772162237,
				"element": "C" 
			},
			{
				"x": -1.0596284476,
				"y": 1.6316430315,
				"z": 2.1419224235,
				"element": "C" 
			},
			{
				"x": -1.7888059177,
				"y": 2.5684424452,
				"z": 2.4488352631,
				"element": "O" 
			},
			{
				"x": -1.2074351705,
				"y": 1.0275760062,
				"z": 0.9032022879,
				"element": "N" 
			},
			{
				"x": -0.4022341579,
				"y": 0.0827203716,
				"z": 0.226440517,
				"element": "C" 
			},
			{
				"x": -1.0300065031,
				"y": -0.9051801219,
				"z": -0.5475571026,
				"element": "C" 
			},
			{
				"x": -0.2694142766,
				"y": -1.8279677409,
				"z": -1.2622416781,
				"element": "C" 
			},
			{
				"x": 1.125592342,
				"y": -1.7910494346,
				"z": -1.2021906921,
				"element": "C" 
			},
			{
				"x": 1.752326505,
				"y": -0.8067165384,
				"z": -0.4366956192,
				"element": "C" 
			},
			{
				"x": 0.9993174185,
				"y": 0.1383571714,
				"z": 0.2603755697,
				"element": "C" 
			},
			{
				"x": -0.2332867396,
				"y": 2.6424343006,
				"z": 4.4437225105,
				"element": "H" 
			},
			{
				"x": 0.9546525011,
				"y": 1.2909952698,
				"z": 4.9276897088,
				"element": "H" 
			},
			{
				"x": 0.4152672615,
				"y": 0.1089606741,
				"z": 2.8278384648,
				"element": "H" 
			},
			{
				"x": -2.0178902398,
				"y": 1.3798012024,
				"z": 0.4084512904,
				"element": "H" 
			},
			{
				"x": -2.1153609445,
				"y": -0.9483518631,
				"z": -0.5750843387,
				"element": "H" 
			},
			{
				"x": -0.7699610235,
				"y": -2.5854922132,
				"z": -1.8583585527,
				"element": "H" 
			},
			{
				"x": 1.7169401495,
				"y": -2.5162547254,
				"z": -1.7525916933,
				"element": "H" 
			},
			{
				"x": 2.8366191878,
				"y": -0.7554140745,
				"z": -0.3976211361,
				"element": "H" 
			},
			{
				"x": 1.4930077545,
				"y": 0.9302245236,
				"z": 0.813258164,
				"element": "H" 
			}
		],
		 "valence_orbital": [ 
			{
				"type": "occ",
				"energy": -0.29993,
				"method": "rhf"
			},
			{
				"type": "occ",
				"energy": -0.27474,
				"method": "rhf"
			},
			{
				"type": "occ",
				"energy": -0.26115,
				"method": "rhf"
			},
			{
				"type": "occ",
				"energy": -0.25265,
				"method": "rhf"
			},
			{
				"type": "occ",
				"energy": -0.22846,
				"method": "rhf"
			},
			{
				"type": "unocc",
				"energy": -0.0416,
				"method": "rhf"
			},
			{
				"type": "unocc",
				"energy": -0.01235,
				"method": "rhf"
			},
			{
				"type": "unocc",
				"energy": -0.00473,
				"method": "rhf"
			},
			{
				"type": "unocc",
				"energy": 0.08619,
				"method": "rhf"
			},
			{
				"type": "unocc",
				"energy": 0.09083,
				"method": "rhf"
			}
		],
		"cosmo_sigma_profile": { 
			"-0.025": 0.0,
			"-0.024": 0.0,
			"-0.023": 0.0,
			"-0.022": 0.0,
			"-0.021": 0.0,
			"-0.02": 0.0,
			"-0.019": 0.0,
			"-0.018": 0.0,
			"-0.017": 0.0,
			"-0.016": 0.0,
			"-0.015": 0.0912896786567,
			"-0.014": 0.759029966762,
			"-0.013": 0.96041820611,
			"-0.012": 1.20528769142,
			"-0.011": 0.79475981295,
			"-0.01": 1.00449081361,
			"-0.009": 1.06823671958,
			"-0.008": 0.960080388955,
			"-0.007": 3.50077645269,
			"-0.006": 11.8991310472,
			"-0.005": 16.0737794671,
			"-0.004": 17.7132781166,
			"-0.003": 15.5558905887,
			"-0.002": 14.4715686133,
			"-0.001": 12.2982711826,
			"0.0": 13.3427109579,
			"0.001": 13.537761477,
			"0.002": 13.1513133284,
			"0.003": 12.1495819324,
			"0.004": 13.322034497,
			"0.005": 10.8289675823,
			"0.006": 3.12009737658,
			"0.007": 1.5188539335,
			"0.008": 1.61605854858,
			"0.009": 1.22309476666,
			"0.01": 1.46146240935,
			"0.011": 1.77278018667,
			"0.012": 2.17163928121,
			"0.013": 4.80359954076,
			"0.014": 3.44984557473,
			"0.015": 0.0786716037656,
			"0.016": 0.0,
			"0.017": 0.0,
			"0.018": 0.0,
			"0.019": 0.0,
			"0.02": 0.0,
			"0.021": 0.0,
			"0.022": 0.0,
			"0.023": 0.0,
			"0.024": 0.0,
			"0.025": 0.0
		}
	}
}
