{
	 "smiles": "CC1=CC(CCN2CCN(CC2)C2=CC=CC(Cl)=C2)=NN1", 
	 "Tm": 379.15, 
	 "num_atms": 42, 
	 "gaussian": { 
		 "optdone": 1, 
		 "sigma_profile": "yes", 
		 "theory": "DFT", 
		 "functional": "B3LYP", 
		 "basiset": "6-31G**", 
		 "properties": { 
			 "R2extent": 14067.3717, 
			 "electric_dipole_moment_norm": 6.18297108921, 
			 "electric_quadrupole_moment_norm": 15.8264202232, 
			 "total_energy": -1301.52791312, 
			 "HOMO_LUMO_gap": 0.19014, 
			 "cosmo_polarized_energy": -14.84, 
			 "cosmo_cavitation_energy": 45.34, 
			 "cosmo_dispersion_energy": -32.55, 
			 "cosmo_repulsion_energy": 2.5, 
			 "cosmo_total_nonelectrostatic_energy": 15.3, 
			 "SMD_solvation_energy": 2.69 
		},
		"coords": [
			{
				"x": -1.5042488009,
				"y": -0.6907750676,
				"z": -6.9494069402,
				"element": "C" 
			},
			{
				"x": -1.4274727812,
				"y": -0.8037915603,
				"z": -5.4595749463,
				"element": "C" 
			},
			{
				"x": -0.5659795532,
				"y": -0.2438617879,
				"z": -4.5331797348,
				"element": "C" 
			},
			{
				"x": -0.9910148473,
				"y": -0.7328969143,
				"z": -3.2698660541,
				"element": "C" 
			},
			{
				"x": -0.4449213096,
				"y": -0.409444041,
				"z": -1.9104768251,
				"element": "C" 
			},
			{
				"x": -1.0182645081,
				"y": 0.9233819567,
				"z": -1.3546260315,
				"element": "C" 
			},
			{
				"x": -0.5709752972,
				"y": 1.3288867695,
				"z": -0.0297926738,
				"element": "N" 
			},
			{
				"x": -1.0233225923,
				"y": 0.5016840851,
				"z": 1.0949746957,
				"element": "C" 
			},
			{
				"x": 0.1213860391,
				"y": -0.1540388519,
				"z": 1.8782863601,
				"element": "C" 
			},
			{
				"x": 1.0686179367,
				"y": 0.8601985891,
				"z": 2.3314107162,
				"element": "N" 
			},
			{
				"x": 1.2080932198,
				"y": 2.0545473755,
				"z": 1.500823345,
				"element": "C" 
			},
			{
				"x": 0.822818692,
				"y": 1.7439205091,
				"z": 0.0551719232,
				"element": "C" 
			},
			{
				"x": 1.8211925746,
				"y": 0.6899437344,
				"z": 3.4801076848,
				"element": "C" 
			},
			{
				"x": 1.9330296345,
				"y": -0.5708772528,
				"z": 4.1121780333,
				"element": "C" 
			},
			{
				"x": 2.6914935567,
				"y": -0.7199778977,
				"z": 5.2687101575,
				"element": "C" 
			},
			{
				"x": 3.3749036943,
				"y": 0.3533420156,
				"z": 5.8431006306,
				"element": "C" 
			},
			{
				"x": 3.2632888644,
				"y": 1.5902827694,
				"z": 5.2130373598,
				"element": "C" 
			},
			{
				"x": 4.0984075368,
				"y": 2.9825226504,
				"z": 5.9061609293,
				"element": "Cl" 
			},
			{
				"x": 2.5071152128,
				"y": 1.7814908749,
				"z": 4.0622891145,
				"element": "C" 
			},
			{
				"x": -2.0471833613,
				"y": -1.5388139715,
				"z": -3.398057411,
				"element": "N" 
			},
			{
				"x": -2.2911865999,
				"y": -1.5639233862,
				"z": -4.730053377,
				"element": "N" 
			},
			{
				"x": -1.3823151768,
				"y": -1.6639647419,
				"z": -7.4396145874,
				"element": "H" 
			},
			{
				"x": -2.4630057333,
				"y": -0.2724488201,
				"z": -7.278041467,
				"element": "H" 
			},
			{
				"x": -0.7126216103,
				"y": -0.0335670783,
				"z": -7.3153226501,
				"element": "H" 
			},
			{
				"x": 0.2599164401,
				"y": 0.4208548617,
				"z": -4.7429017075,
				"element": "H" 
			},
			{
				"x": -0.7019754307,
				"y": -1.2289832629,
				"z": -1.2308831373,
				"element": "H" 
			},
			{
				"x": 0.6486083418,
				"y": -0.3530180443,
				"z": -1.9568544537,
				"element": "H" 
			},
			{
				"x": -0.7743441292,
				"y": 1.7334147072,
				"z": -2.0542793546,
				"element": "H" 
			},
			{
				"x": -2.1117952611,
				"y": 0.8469906047,
				"z": -1.3424385718,
				"element": "H" 
			},
			{
				"x": -1.6899822912,
				"y": -0.2881684572,
				"z": 0.7323120409,
				"element": "H" 
			},
			{
				"x": -1.6102162269,
				"y": 1.1123025989,
				"z": 1.7974558796,
				"element": "H" 
			},
			{
				"x": 0.6117594753,
				"y": -0.9263042466,
				"z": 1.2632446796,
				"element": "H" 
			},
			{
				"x": -0.3066489669,
				"y": -0.6594167979,
				"z": 2.750245212,
				"element": "H" 
			},
			{
				"x": 0.5919265227,
				"y": 2.887855594,
				"z": 1.8746256302,
				"element": "H" 
			},
			{
				"x": 2.2524996493,
				"y": 2.3836700671,
				"z": 1.5171700221,
				"element": "H" 
			},
			{
				"x": 1.5332777316,
				"y": 0.9896766167,
				"z": -0.3317867511,
				"element": "H" 
			},
			{
				"x": 0.9633360611,
				"y": 2.6486834259,
				"z": -0.550768985,
				"element": "H" 
			},
			{
				"x": 1.4507121062,
				"y": -1.4409661462,
				"z": 3.683695873,
				"element": "H" 
			},
			{
				"x": 2.763598412,
				"y": -1.7021579076,
				"z": 5.7277798928,
				"element": "H" 
			},
			{
				"x": 3.9715335312,
				"y": 0.2368231691,
				"z": 6.7395261394,
				"element": "H" 
			},
			{
				"x": 2.430781125,
				"y": 2.7762218743,
				"z": 3.6440838025,
				"element": "H" 
			},
			{
				"x": -3.0482218807,
				"y": -2.133398615,
				"z": -5.0750644628,
				"element": "H" 
			}
		],
		 "valence_orbital": [ 
			{
				"type": "occ",
				"energy": -0.24782,
				"method": "rhf"
			},
			{
				"type": "occ",
				"energy": -0.23612,
				"method": "rhf"
			},
			{
				"type": "occ",
				"energy": -0.23537,
				"method": "rhf"
			},
			{
				"type": "occ",
				"energy": -0.20003,
				"method": "rhf"
			},
			{
				"type": "occ",
				"energy": -0.18959,
				"method": "rhf"
			},
			{
				"type": "unocc",
				"energy": 0.00055,
				"method": "rhf"
			},
			{
				"type": "unocc",
				"energy": 0.01623,
				"method": "rhf"
			},
			{
				"type": "unocc",
				"energy": 0.02104,
				"method": "rhf"
			},
			{
				"type": "unocc",
				"energy": 0.04109,
				"method": "rhf"
			},
			{
				"type": "unocc",
				"energy": 0.06763,
				"method": "rhf"
			}
		],
		"cosmo_sigma_profile": { 
			"-0.025": 0.0,
			"-0.024": 0.0,
			"-0.023": 0.0,
			"-0.022": 0.0,
			"-0.021": 0.0,
			"-0.02": 0.0,
			"-0.019": 0.0,
			"-0.018": 0.0,
			"-0.017": 0.0,
			"-0.016": 0.40305611299,
			"-0.015": 1.54057888416,
			"-0.014": 1.23256748227,
			"-0.013": 0.752976491243,
			"-0.012": 0.76160471365,
			"-0.011": 1.04322434195,
			"-0.01": 1.21882639755,
			"-0.009": 1.3272719875,
			"-0.008": 0.856763377334,
			"-0.007": 1.16651764962,
			"-0.006": 7.63851027158,
			"-0.005": 22.6905933923,
			"-0.004": 32.8478828714,
			"-0.003": 46.8899198955,
			"-0.002": 40.1750856075,
			"-0.001": 32.4635473546,
			"0.0": 22.7343667322,
			"0.001": 16.9970628873,
			"0.002": 17.8469255085,
			"0.003": 22.4122762633,
			"0.004": 23.1479654182,
			"0.005": 26.6586119538,
			"0.006": 16.1180160781,
			"0.007": 4.20497484607,
			"0.008": 2.69876260642,
			"0.009": 2.12383561394,
			"0.01": 1.24879925136,
			"0.011": 2.36389105788,
			"0.012": 1.75219758583,
			"0.013": 1.2182760543,
			"0.014": 1.404086749,
			"0.015": 0.851530306847,
			"0.016": 1.2295982352,
			"0.017": 0.821203204537,
			"0.018": 0.0720083050429,
			"0.019": 0.0,
			"0.02": 0.0,
			"0.021": 0.0,
			"0.022": 0.0,
			"0.023": 0.0,
			"0.024": 0.0,
			"0.025": 0.0
		}
	}
}
