{
	 "smiles": "CC1(C)OC(=O)C(=NNC2=CC=C(Cl)C=C2)C(=O)O1", 
	 "Tm": 429.15, 
	 "num_atms": 30, 
	 "gaussian": { 
		 "optdone": 1, 
		 "sigma_profile": "yes", 
		 "theory": "DFT", 
		 "functional": "B3LYP", 
		 "basiset": "6-31G**", 
		 "properties": { 
			 "R2extent": 10549.1691, 
			 "electric_dipole_moment_norm": 3.11445983278, 
			 "electric_quadrupole_moment_norm": 9.34671144574, 
			 "total_energy": -1334.49302085, 
			 "HOMO_LUMO_gap": 0.13814, 
			 "cosmo_polarized_energy": -16.23, 
			 "cosmo_cavitation_energy": 37.0, 
			 "cosmo_dispersion_energy": -26.84, 
			 "cosmo_repulsion_energy": 2.07, 
			 "cosmo_total_nonelectrostatic_energy": 12.22, 
			 "SMD_solvation_energy": 7.44 
		},
		"coords": [
			{
				"x": -1.4725163893,
				"y": -1.520988706,
				"z": -1.9093274799,
				"element": "C" 
			},
			{
				"x": -0.1186503621,
				"y": -0.9062525441,
				"z": -2.2602230074,
				"element": "C" 
			},
			{
				"x": 0.2061725917,
				"y": -0.9592483364,
				"z": -3.7421318855,
				"element": "C" 
			},
			{
				"x": 0.9326167405,
				"y": -1.6022622172,
				"z": -1.5926563996,
				"element": "O" 
			},
			{
				"x": 1.1275170216,
				"y": -1.4256107654,
				"z": -0.2414013703,
				"element": "C" 
			},
			{
				"x": 1.7547385684,
				"y": -2.2432916652,
				"z": 0.3819518441,
				"element": "O" 
			},
			{
				"x": 0.5855802747,
				"y": -0.1525935241,
				"z": 0.2889012956,
				"element": "C" 
			},
			{
				"x": 0.7280203012,
				"y": 0.033255393,
				"z": 1.5869068071,
				"element": "N" 
			},
			{
				"x": 0.3626635024,
				"y": 1.1486966913,
				"z": 2.1460613972,
				"element": "N" 
			},
			{
				"x": 0.5011629665,
				"y": 1.3440196278,
				"z": 3.5322030998,
				"element": "C" 
			},
			{
				"x": 1.0365421285,
				"y": 0.3516596294,
				"z": 4.3636480679,
				"element": "C" 
			},
			{
				"x": 1.1544630875,
				"y": 0.5915097334,
				"z": 5.7283836589,
				"element": "C" 
			},
			{
				"x": 0.7390730729,
				"y": 1.8161675374,
				"z": 6.2574207696,
				"element": "C" 
			},
			{
				"x": 0.8902900713,
				"y": 2.110404318,
				"z": 7.9806256293,
				"element": "Cl" 
			},
			{
				"x": 0.2059357108,
				"y": 2.8077996324,
				"z": 5.4345847894,
				"element": "C" 
			},
			{
				"x": 0.0870596958,
				"y": 2.5693181316,
				"z": 4.0678345387,
				"element": "C" 
			},
			{
				"x": 0.024389125,
				"y": 0.8561966214,
				"z": -0.6179424769,
				"element": "C" 
			},
			{
				"x": -0.2794206249,
				"y": 1.9916865356,
				"z": -0.2687307347,
				"element": "O" 
			},
			{
				"x": -0.1305547432,
				"y": 0.5004685162,
				"z": -1.9120543937,
				"element": "O" 
			},
			{
				"x": -2.2705100871,
				"y": -0.9955198113,
				"z": -2.4392502541,
				"element": "H" 
			},
			{
				"x": -1.6661316028,
				"y": -1.4570181304,
				"z": -0.8348273414,
				"element": "H" 
			},
			{
				"x": -1.482412522,
				"y": -2.5744407912,
				"z": -2.1986745348,
				"element": "H" 
			},
			{
				"x": 1.180789711,
				"y": -0.4998955244,
				"z": -3.9188957476,
				"element": "H" 
			},
			{
				"x": -0.553543233,
				"y": -0.4190529581,
				"z": -4.3113660861,
				"element": "H" 
			},
			{
				"x": 0.2366637282,
				"y": -1.9986918125,
				"z": -4.0758361643,
				"element": "H" 
			},
			{
				"x": -0.0075744819,
				"y": 1.8921656349,
				"z": 1.5395386473,
				"element": "H" 
			},
			{
				"x": 1.3548843542,
				"y": -0.5901965454,
				"z": 3.9328990088,
				"element": "H" 
			},
			{
				"x": 1.5681656169,
				"y": -0.1681794956,
				"z": 6.3820401292,
				"element": "H" 
			},
			{
				"x": -0.1123690759,
				"y": 3.7541799831,
				"z": 5.856596701,
				"element": "H" 
			},
			{
				"x": -0.3274451471,
				"y": 3.335914842,
				"z": 3.4190214922,
				"element": "H" 
			}
		],
		 "valence_orbital": [ 
			{
				"type": "occ",
				"energy": -0.29368,
				"method": "rhf"
			},
			{
				"type": "occ",
				"energy": -0.28892,
				"method": "rhf"
			},
			{
				"type": "occ",
				"energy": -0.27954,
				"method": "rhf"
			},
			{
				"type": "occ",
				"energy": -0.27451,
				"method": "rhf"
			},
			{
				"type": "occ",
				"energy": -0.23169,
				"method": "rhf"
			},
			{
				"type": "unocc",
				"energy": -0.09355,
				"method": "rhf"
			},
			{
				"type": "unocc",
				"energy": -0.02873,
				"method": "rhf"
			},
			{
				"type": "unocc",
				"energy": -0.0128,
				"method": "rhf"
			},
			{
				"type": "unocc",
				"energy": -0.00457,
				"method": "rhf"
			},
			{
				"type": "unocc",
				"energy": 0.02168,
				"method": "rhf"
			}
		],
		"cosmo_sigma_profile": { 
			"-0.025": 0.0,
			"-0.024": 0.0,
			"-0.023": 0.0,
			"-0.022": 0.0,
			"-0.021": 0.0,
			"-0.02": 0.0,
			"-0.019": 0.0,
			"-0.018": 0.0,
			"-0.017": 0.0,
			"-0.016": 0.0,
			"-0.015": 0.000129258040749,
			"-0.014": 0.237921816243,
			"-0.013": 0.721749862711,
			"-0.012": 1.04699615449,
			"-0.011": 1.00799713952,
			"-0.01": 0.980563368776,
			"-0.009": 1.22184424883,
			"-0.008": 5.00288740148,
			"-0.007": 9.49441823615,
			"-0.006": 22.163648101,
			"-0.005": 21.9684172657,
			"-0.004": 20.2061364291,
			"-0.003": 21.0898728092,
			"-0.002": 26.4298248161,
			"-0.001": 22.9270092611,
			"0.0": 17.6974785096,
			"0.001": 20.9371241431,
			"0.002": 24.3490770725,
			"0.003": 14.9134496516,
			"0.004": 14.0443424246,
			"0.005": 8.78671564412,
			"0.006": 4.36319200328,
			"0.007": 4.67316159966,
			"0.008": 5.2053695801,
			"0.009": 6.48766109286,
			"0.01": 6.0982874543,
			"0.011": 8.01201251643,
			"0.012": 6.61102704035,
			"0.013": 1.57259848401,
			"0.014": 0.0,
			"0.015": 0.0,
			"0.016": 0.0,
			"0.017": 0.0,
			"0.018": 0.0,
			"0.019": 0.0,
			"0.02": 0.0,
			"0.021": 0.0,
			"0.022": 0.0,
			"0.023": 0.0,
			"0.024": 0.0,
			"0.025": 0.0
		}
	}
}
