{
	 "smiles": "ClC(Cl)N(C(Cl)Cl)C(Cl)Cl", 
	 "Tm": 445.15, 
	 "num_atms": 13, 
	 "gaussian": { 
		 "optdone": 1, 
		 "sigma_profile": "yes", 
		 "theory": "DFT", 
		 "functional": "B3LYP", 
		 "basiset": "6-31G**", 
		 "properties": { 
			 "R2extent": 3614.2861, 
			 "electric_dipole_moment_norm": 0.00331963853454, 
			 "electric_quadrupole_moment_norm": 1.66183440812, 
			 "total_energy": -2932.00443217, 
			 "HOMO_LUMO_gap": 0.25391, 
			 "cosmo_polarized_energy": -7.12, 
			 "cosmo_cavitation_energy": 27.42, 
			 "cosmo_dispersion_energy": -19.28, 
			 "cosmo_repulsion_energy": 1.57, 
			 "cosmo_total_nonelectrostatic_energy": 9.71, 
			 "SMD_solvation_energy": 2.48 
		},
		"coords": [
			{
				"x": -2.1873788925,
				"y": 1.3124577974,
				"z": -2.3994799906,
				"element": "Cl" 
			},
			{
				"x": -0.9734556343,
				"y": 0.0216307771,
				"z": -2.0099327395,
				"element": "C" 
			},
			{
				"x": 0.6212490899,
				"y": 0.4713862262,
				"z": -2.747461611,
				"element": "Cl" 
			},
			{
				"x": -0.8777216753,
				"y": -0.2344709309,
				"z": -0.6154912247,
				"element": "N" 
			},
			{
				"x": -0.4592226362,
				"y": 0.7955350721,
				"z": 0.2689827822,
				"element": "C" 
			},
			{
				"x": -1.7303653316,
				"y": 1.22600411,
				"z": 1.489312079,
				"element": "Cl" 
			},
			{
				"x": 1.0780247694,
				"y": 0.3839935668,
				"z": 1.1408371542,
				"element": "Cl" 
			},
			{
				"x": -1.1992473331,
				"y": -1.5214166971,
				"z": -0.1057627347,
				"element": "C" 
			},
			{
				"x": -0.1174741392,
				"y": -2.821207558,
				"z": -0.7617248064,
				"element": "Cl" 
			},
			{
				"x": -2.9264412148,
				"y": -1.9817253513,
				"z": -0.4143594973,
				"element": "Cl" 
			},
			{
				"x": -1.3065482973,
				"y": -0.8815725871,
				"z": -2.5122599433,
				"element": "H" 
			},
			{
				"x": -0.2604599684,
				"y": 1.6950759531,
				"z": -0.3058077623,
				"element": "H" 
			},
			{
				"x": -1.0648587367,
				"y": -1.5172903783,
				"z": 0.9717482944,
				"element": "H" 
			}
		],
		 "valence_orbital": [ 
			{
				"type": "occ",
				"energy": -0.32967,
				"method": "rhf"
			},
			{
				"type": "occ",
				"energy": -0.32833,
				"method": "rhf"
			},
			{
				"type": "occ",
				"energy": -0.31951,
				"method": "rhf"
			},
			{
				"type": "occ",
				"energy": -0.31947,
				"method": "rhf"
			},
			{
				"type": "occ",
				"energy": -0.29801,
				"method": "rhf"
			},
			{
				"type": "unocc",
				"energy": -0.0441,
				"method": "rhf"
			},
			{
				"type": "unocc",
				"energy": -0.04393,
				"method": "rhf"
			},
			{
				"type": "unocc",
				"energy": -0.04387,
				"method": "rhf"
			},
			{
				"type": "unocc",
				"energy": -0.01297,
				"method": "rhf"
			},
			{
				"type": "unocc",
				"energy": -0.0129,
				"method": "rhf"
			}
		],
		"cosmo_sigma_profile": { 
			"-0.025": 0.0,
			"-0.024": 0.0,
			"-0.023": 0.0,
			"-0.022": 0.0,
			"-0.021": 0.0,
			"-0.02": 0.0,
			"-0.019": 0.0,
			"-0.018": 0.0,
			"-0.017": 0.0,
			"-0.016": 0.0,
			"-0.015": 0.0,
			"-0.014": 0.0198245895574,
			"-0.013": 1.62508148051,
			"-0.012": 2.80304410515,
			"-0.011": 2.83783965437,
			"-0.01": 3.34612234871,
			"-0.009": 3.45500497754,
			"-0.008": 4.01590923732,
			"-0.007": 3.97647879646,
			"-0.006": 2.9570885649,
			"-0.005": 3.82319796256,
			"-0.004": 5.56101672004,
			"-0.003": 11.7412863079,
			"-0.002": 14.1372588044,
			"-0.001": 15.7366184457,
			"0.0": 19.165621154,
			"0.001": 24.2699823096,
			"0.002": 36.6878918537,
			"0.003": 48.5056636233,
			"0.004": 27.3886422322,
			"0.005": 0.0,
			"0.006": 0.0,
			"0.007": 0.0,
			"0.008": 0.0,
			"0.009": 0.0,
			"0.01": 0.0,
			"0.011": 0.0,
			"0.012": 0.0,
			"0.013": 0.0,
			"0.014": 0.0,
			"0.015": 0.0,
			"0.016": 0.0,
			"0.017": 0.0,
			"0.018": 0.0,
			"0.019": 0.0,
			"0.02": 0.0,
			"0.021": 0.0,
			"0.022": 0.0,
			"0.023": 0.0,
			"0.024": 0.0,
			"0.025": 0.0
		}
	}
}
