{
	 "smiles": "CC(C)C1=NC=NC(O)=C1", 
	 "Tm": 405.15, 
	 "num_atms": 20, 
	 "gaussian": { 
		 "optdone": 1, 
		 "sigma_profile": "yes", 
		 "theory": "DFT", 
		 "functional": "B3LYP", 
		 "basiset": "6-31G**", 
		 "properties": { 
			 "R2extent": 1855.5461, 
			 "electric_dipole_moment_norm": 1.16671074821, 
			 "electric_quadrupole_moment_norm": 5.85152677171, 
			 "total_energy": -457.515658862, 
			 "HOMO_LUMO_gap": 0.22796, 
			 "cosmo_polarized_energy": -8.17, 
			 "cosmo_cavitation_energy": 23.4, 
			 "cosmo_dispersion_energy": -17.11, 
			 "cosmo_repulsion_energy": 1.4, 
			 "cosmo_total_nonelectrostatic_energy": 7.7, 
			 "SMD_solvation_energy": 1.99 
		},
		"coords": [
			{
				"x": -2.4588979296,
				"y": 0.4754095072,
				"z": 1.2115599999,
				"element": "C" 
			},
			{
				"x": -1.1996103219,
				"y": 0.5683333102,
				"z": 2.0932901716,
				"element": "C" 
			},
			{
				"x": -1.2821468203,
				"y": -0.3957328445,
				"z": 3.2914352491,
				"element": "C" 
			},
			{
				"x": 0.0663596498,
				"y": 0.3465303773,
				"z": 1.2839924528,
				"element": "C" 
			},
			{
				"x": 0.9354872002,
				"y": 1.3795984337,
				"z": 1.2233405737,
				"element": "N" 
			},
			{
				"x": 2.0440479756,
				"y": 1.1812409382,
				"z": 0.5126109726,
				"element": "C" 
			},
			{
				"x": 2.3963504365,
				"y": 0.0735032591,
				"z": -0.1492253779,
				"element": "N" 
			},
			{
				"x": 1.5276092789,
				"y": -0.9368428062,
				"z": -0.0792855468,
				"element": "C" 
			},
			{
				"x": 1.8389362244,
				"y": -2.072465511,
				"z": -0.7297927127,
				"element": "O" 
			},
			{
				"x": 0.3277163848,
				"y": -0.8575421572,
				"z": 0.6330668836,
				"element": "C" 
			},
			{
				"x": -2.5859690596,
				"y": -0.5313014615,
				"z": 0.7982208063,
				"element": "H" 
			},
			{
				"x": -3.3523280585,
				"y": 0.707589256,
				"z": 1.8005630895,
				"element": "H" 
			},
			{
				"x": -2.4117780404,
				"y": 1.179522115,
				"z": 0.3751863182,
				"element": "H" 
			},
			{
				"x": -1.120615558,
				"y": 1.590869236,
				"z": 2.4768121057,
				"element": "H" 
			},
			{
				"x": -1.3605419343,
				"y": -1.4380879552,
				"z": 2.9630884244,
				"element": "H" 
			},
			{
				"x": -2.165501817,
				"y": -0.1716109296,
				"z": 3.8984735664,
				"element": "H" 
			},
			{
				"x": -0.3995103087,
				"y": -0.3099693944,
				"z": 3.9326195109,
				"element": "H" 
			},
			{
				"x": 2.7461887332,
				"y": 2.011861488,
				"z": 0.4625184687,
				"element": "H" 
			},
			{
				"x": 2.6996583115,
				"y": -1.914626975,
				"z": -1.1510735573,
				"element": "H" 
			},
			{
				"x": -0.3502543468,
				"y": -1.702077886,
				"z": 0.6641986011,
				"element": "H" 
			}
		],
		 "valence_orbital": [ 
			{
				"type": "occ",
				"energy": -0.33668,
				"method": "rhf"
			},
			{
				"type": "occ",
				"energy": -0.30187,
				"method": "rhf"
			},
			{
				"type": "occ",
				"energy": -0.28949,
				"method": "rhf"
			},
			{
				"type": "occ",
				"energy": -0.25957,
				"method": "rhf"
			},
			{
				"type": "occ",
				"energy": -0.2561,
				"method": "rhf"
			},
			{
				"type": "unocc",
				"energy": -0.02814,
				"method": "rhf"
			},
			{
				"type": "unocc",
				"energy": -0.01236,
				"method": "rhf"
			},
			{
				"type": "unocc",
				"energy": 0.0834,
				"method": "rhf"
			},
			{
				"type": "unocc",
				"energy": 0.08755,
				"method": "rhf"
			},
			{
				"type": "unocc",
				"energy": 0.1183,
				"method": "rhf"
			}
		],
		"cosmo_sigma_profile": { 
			"-0.025": 0.0,
			"-0.024": 0.0,
			"-0.023": 0.0,
			"-0.022": 0.0,
			"-0.021": 0.0,
			"-0.02": 0.0,
			"-0.019": 0.0,
			"-0.018": 0.177079223206,
			"-0.017": 0.683617538241,
			"-0.016": 1.24433977336,
			"-0.015": 0.468607466,
			"-0.014": 0.386849801391,
			"-0.013": 0.746070661056,
			"-0.012": 0.506630698109,
			"-0.011": 0.842161969792,
			"-0.01": 1.19246741116,
			"-0.009": 0.503886072399,
			"-0.008": 0.438262493411,
			"-0.007": 3.94075349756,
			"-0.006": 6.15572732546,
			"-0.005": 5.09919999678,
			"-0.004": 7.39618087454,
			"-0.003": 17.4570356986,
			"-0.002": 17.4456247458,
			"-0.001": 23.5409999615,
			"0.0": 27.8800128397,
			"0.001": 22.7557899573,
			"0.002": 7.87074078274,
			"0.003": 5.05817700576,
			"0.004": 4.05762588734,
			"0.005": 3.83025872121,
			"0.006": 3.22218712316,
			"0.007": 3.98849854592,
			"0.008": 3.60988912009,
			"0.009": 3.66012729676,
			"0.01": 2.95966610264,
			"0.011": 1.71359052168,
			"0.012": 1.79687561498,
			"0.013": 1.55591718328,
			"0.014": 0.924694846391,
			"0.015": 0.916402054769,
			"0.016": 0.332248348558,
			"0.017": 0.00607297341705,
			"0.018": 0.0,
			"0.019": 0.0,
			"0.02": 0.0,
			"0.021": 0.0,
			"0.022": 0.0,
			"0.023": 0.0,
			"0.024": 0.0,
			"0.025": 0.0
		}
	}
}
