{
	 "smiles": "CCC(C)N1N=CC=C1N", 
	 "Tm": 304.15, 
	 "num_atms": 23, 
	 "gaussian": { 
		 "optdone": 1, 
		 "sigma_profile": "yes", 
		 "theory": "DFT", 
		 "functional": "B3LYP", 
		 "basiset": "6-31G**", 
		 "properties": { 
			 "R2extent": 1647.2162, 
			 "electric_dipole_moment_norm": 3.16535900807, 
			 "electric_quadrupole_moment_norm": 9.2984936479, 
			 "total_energy": -438.817522519, 
			 "HOMO_LUMO_gap": 0.24089, 
			 "cosmo_polarized_energy": -11.13, 
			 "cosmo_cavitation_energy": 24.47, 
			 "cosmo_dispersion_energy": -17.82, 
			 "cosmo_repulsion_energy": 1.45, 
			 "cosmo_total_nonelectrostatic_energy": 8.1, 
			 "SMD_solvation_energy": 3.48 
		},
		"coords": [
			{
				"x": -0.7156480902,
				"y": -0.9968092328,
				"z": 1.3601315898,
				"element": "C" 
			},
			{
				"x": 0.3768734859,
				"y": -1.5448252987,
				"z": 0.4362046488,
				"element": "C" 
			},
			{
				"x": 0.592672297,
				"y": -0.8023569763,
				"z": -0.901111387,
				"element": "C" 
			},
			{
				"x": -0.6036796961,
				"y": -0.8557371561,
				"z": -1.858354293,
				"element": "C" 
			},
			{
				"x": 1.1111268363,
				"y": 0.5613202673,
				"z": -0.7026300033,
				"element": "N" 
			},
			{
				"x": 2.472159346,
				"y": 0.6989495091,
				"z": -0.6864325609,
				"element": "N" 
			},
			{
				"x": 2.684073881,
				"y": 1.9934859361,
				"z": -0.4824885259,
				"element": "C" 
			},
			{
				"x": 1.4808773183,
				"y": 2.7132272589,
				"z": -0.3384834578,
				"element": "C" 
			},
			{
				"x": 0.4841874036,
				"y": 1.7570638556,
				"z": -0.476618797,
				"element": "C" 
			},
			{
				"x": -0.9114643574,
				"y": 1.9109897759,
				"z": -0.4901675251,
				"element": "N" 
			},
			{
				"x": -0.8047588288,
				"y": -1.6169696467,
				"z": 2.2575825425,
				"element": "H" 
			},
			{
				"x": -0.479351068,
				"y": 0.0181564148,
				"z": 1.6985913396,
				"element": "H" 
			},
			{
				"x": -1.6995658049,
				"y": -0.987398951,
				"z": 0.877423372,
				"element": "H" 
			},
			{
				"x": 0.1556065808,
				"y": -2.5921764829,
				"z": 0.1931491092,
				"element": "H" 
			},
			{
				"x": 1.3343597267,
				"y": -1.5428588505,
				"z": 0.9687694914,
				"element": "H" 
			},
			{
				"x": 1.4316313486,
				"y": -1.3000380949,
				"z": -1.3948752925,
				"element": "H" 
			},
			{
				"x": -1.4992762849,
				"y": -0.3773188603,
				"z": -1.4604389998,
				"element": "H" 
			},
			{
				"x": -0.8391293522,
				"y": -1.9032926009,
				"z": -2.0720077821,
				"element": "H" 
			},
			{
				"x": -0.3591098823,
				"y": -0.3598588637,
				"z": -2.8014279423,
				"element": "H" 
			},
			{
				"x": 3.6988799444,
				"y": 2.368262808,
				"z": -0.4417242216,
				"element": "H" 
			},
			{
				"x": 1.3422847864,
				"y": 3.7691000442,
				"z": -0.1557327764,
				"element": "H" 
			},
			{
				"x": -1.3873103536,
				"y": 1.3384792777,
				"z": 0.1986067608,
				"element": "H" 
			},
			{
				"x": -1.1632392367,
				"y": 2.8812058674,
				"z": -0.3451652896,
				"element": "H" 
			}
		],
		 "valence_orbital": [ 
			{
				"type": "occ",
				"energy": -0.33114,
				"method": "rhf"
			},
			{
				"type": "occ",
				"energy": -0.30572,
				"method": "rhf"
			},
			{
				"type": "occ",
				"energy": -0.2679,
				"method": "rhf"
			},
			{
				"type": "occ",
				"energy": -0.23162,
				"method": "rhf"
			},
			{
				"type": "occ",
				"energy": -0.20153,
				"method": "rhf"
			},
			{
				"type": "unocc",
				"energy": 0.03936,
				"method": "rhf"
			},
			{
				"type": "unocc",
				"energy": 0.06639,
				"method": "rhf"
			},
			{
				"type": "unocc",
				"energy": 0.09086,
				"method": "rhf"
			},
			{
				"type": "unocc",
				"energy": 0.10018,
				"method": "rhf"
			},
			{
				"type": "unocc",
				"energy": 0.10584,
				"method": "rhf"
			}
		],
		"cosmo_sigma_profile": { 
			"-0.025": 0.0,
			"-0.024": 0.0,
			"-0.023": 0.0,
			"-0.022": 0.0,
			"-0.021": 0.0,
			"-0.02": 0.0,
			"-0.019": 0.0,
			"-0.018": 0.0,
			"-0.017": 0.0,
			"-0.016": 0.0,
			"-0.015": 0.0,
			"-0.014": 0.0,
			"-0.013": 0.33557717545,
			"-0.012": 1.48287528041,
			"-0.011": 1.69299698362,
			"-0.01": 2.89261426151,
			"-0.009": 2.86394234812,
			"-0.008": 3.36408906197,
			"-0.007": 3.31945024517,
			"-0.006": 5.74870543633,
			"-0.005": 6.49290605165,
			"-0.004": 12.4066815235,
			"-0.003": 20.3867493134,
			"-0.002": 18.6695210347,
			"-0.001": 21.2594581226,
			"0.0": 21.7253050067,
			"0.001": 14.724875075,
			"0.002": 6.06929904188,
			"0.003": 4.30072788433,
			"0.004": 5.37352407807,
			"0.005": 6.852872709,
			"0.006": 6.56060678283,
			"0.007": 7.2694033257,
			"0.008": 3.28237447724,
			"0.009": 2.57015025131,
			"0.01": 2.6783492251,
			"0.011": 1.59832043891,
			"0.012": 1.96650060772,
			"0.013": 1.08513099387,
			"0.014": 1.88346065069,
			"0.015": 0.883443611301,
			"0.016": 1.04068443105,
			"0.017": 0.445041840663,
			"0.018": 0.0289070183059,
			"0.019": 0.0,
			"0.02": 0.0,
			"0.021": 0.0,
			"0.022": 0.0,
			"0.023": 0.0,
			"0.024": 0.0,
			"0.025": 0.0
		}
	}
}
