{
	 "smiles": "CC(C)NS(=O)(=O)C1=CC(C(O)=O)=C(C)C=C1", 
	 "Tm": 436.15, 
	 "num_atms": 32, 
	 "gaussian": { 
		 "optdone": 1, 
		 "sigma_profile": "yes", 
		 "theory": "DFT", 
		 "functional": "B3LYP", 
		 "basiset": "6-31G**", 
		 "properties": { 
			 "R2extent": 5193.7946, 
			 "electric_dipole_moment_norm": 6.27002609723, 
			 "electric_quadrupole_moment_norm": 15.1427719051, 
			 "total_energy": -1181.99644242, 
			 "HOMO_LUMO_gap": 0.20019, 
			 "cosmo_polarized_energy": -21.18, 
			 "cosmo_cavitation_energy": 36.24, 
			 "cosmo_dispersion_energy": -25.53, 
			 "cosmo_repulsion_energy": 1.94, 
			 "cosmo_total_nonelectrostatic_energy": 12.66, 
			 "SMD_solvation_energy": 6.28 
		},
		"coords": [
			{
				"x": -0.4679484462,
				"y": 3.3156995159,
				"z": -3.3478814155,
				"element": "C" 
			},
			{
				"x": 0.4395753463,
				"y": 2.8323904463,
				"z": -2.2085925436,
				"element": "C" 
			},
			{
				"x": 1.194572283,
				"y": 1.5481730055,
				"z": -2.5608944761,
				"element": "C" 
			},
			{
				"x": -0.2677529339,
				"y": 2.7090876321,
				"z": -0.9040233588,
				"element": "N" 
			},
			{
				"x": -1.4213025254,
				"y": 1.5207294027,
				"z": -0.5904819501,
				"element": "S" 
			},
			{
				"x": -1.9318226398,
				"y": 0.906761252,
				"z": -1.8250399559,
				"element": "O" 
			},
			{
				"x": -2.3333100433,
				"y": 2.1435765927,
				"z": 0.3748712635,
				"element": "O" 
			},
			{
				"x": -0.4756101747,
				"y": 0.2482797212,
				"z": 0.2536002216,
				"element": "C" 
			},
			{
				"x": -0.6287515891,
				"y": -1.074692468,
				"z": -0.1463552667,
				"element": "C" 
			},
			{
				"x": 0.0307033911,
				"y": -2.1051755117,
				"z": 0.5398660458,
				"element": "C" 
			},
			{
				"x": -0.1721576931,
				"y": -3.5277497652,
				"z": 0.0994669971,
				"element": "C" 
			},
			{
				"x": -0.4248593647,
				"y": -3.7178346531,
				"z": -1.2228970321,
				"element": "O" 
			},
			{
				"x": -0.1317736195,
				"y": -4.4799523931,
				"z": 0.8427783484,
				"element": "O" 
			},
			{
				"x": 0.842013229,
				"y": -1.8047337886,
				"z": 1.6596354242,
				"element": "C" 
			},
			{
				"x": 1.5603003702,
				"y": -2.8623295419,
				"z": 2.4600036804,
				"element": "C" 
			},
			{
				"x": 0.9798839705,
				"y": -0.4572162115,
				"z": 2.0269388927,
				"element": "C" 
			},
			{
				"x": 0.3295072971,
				"y": 0.5676460481,
				"z": 1.3466126006,
				"element": "C" 
			},
			{
				"x": -1.2339525822,
				"y": 2.5715741081,
				"z": -3.576842948,
				"element": "H" 
			},
			{
				"x": 0.1253330761,
				"y": 3.5001877323,
				"z": -4.2498531622,
				"element": "H" 
			},
			{
				"x": -0.9669454253,
				"y": 4.2533786042,
				"z": -3.0797318617,
				"element": "H" 
			},
			{
				"x": 1.1879510609,
				"y": 3.6097143232,
				"z": -2.0077686623,
				"element": "H" 
			},
			{
				"x": 1.8250848661,
				"y": 1.7270033525,
				"z": -3.436657585,
				"element": "H" 
			},
			{
				"x": 0.5032792737,
				"y": 0.7378114885,
				"z": -2.8061053139,
				"element": "H" 
			},
			{
				"x": 1.8364534177,
				"y": 1.2300707919,
				"z": -1.7347170928,
				"element": "H" 
			},
			{
				"x": -0.6785912313,
				"y": 3.5851398224,
				"z": -0.5895009353,
				"element": "H" 
			},
			{
				"x": -1.2941600644,
				"y": -1.2843994516,
				"z": -0.9781429855,
				"element": "H" 
			},
			{
				"x": -0.2866697566,
				"y": -2.897351905,
				"z": -1.7161961208,
				"element": "H" 
			},
			{
				"x": 0.8467764491,
				"y": -3.486862624,
				"z": 3.0038057671,
				"element": "H" 
			},
			{
				"x": 2.2449491489,
				"y": -2.398735339,
				"z": 3.1746788538,
				"element": "H" 
			},
			{
				"x": 2.1269821702,
				"y": -3.5432370815,
				"z": 1.819256667,
				"element": "H" 
			},
			{
				"x": 1.6128343757,
				"y": -0.2103726294,
				"z": 2.8743862612,
				"element": "H" 
			},
			{
				"x": 0.452308364,
				"y": 1.6010195238,
				"z": 1.6519816431,
				"element": "H" 
			}
		],
		 "valence_orbital": [ 
			{
				"type": "occ",
				"energy": -0.30879,
				"method": "rhf"
			},
			{
				"type": "occ",
				"energy": -0.28947,
				"method": "rhf"
			},
			{
				"type": "occ",
				"energy": -0.28493,
				"method": "rhf"
			},
			{
				"type": "occ",
				"energy": -0.27663,
				"method": "rhf"
			},
			{
				"type": "occ",
				"energy": -0.26424,
				"method": "rhf"
			},
			{
				"type": "unocc",
				"energy": -0.06405,
				"method": "rhf"
			},
			{
				"type": "unocc",
				"energy": -0.04509,
				"method": "rhf"
			},
			{
				"type": "unocc",
				"energy": 0.02562,
				"method": "rhf"
			},
			{
				"type": "unocc",
				"energy": 0.04689,
				"method": "rhf"
			},
			{
				"type": "unocc",
				"energy": 0.06012,
				"method": "rhf"
			}
		],
		"cosmo_sigma_profile": { 
			"-0.025": 0.0,
			"-0.024": 0.0,
			"-0.023": 0.0,
			"-0.022": 0.0,
			"-0.021": 0.0,
			"-0.02": 0.0,
			"-0.019": 0.0664918106616,
			"-0.018": 0.931198085787,
			"-0.017": 0.803433813635,
			"-0.016": 1.13704348426,
			"-0.015": 0.992673081205,
			"-0.014": 1.81220872073,
			"-0.013": 1.63931602424,
			"-0.012": 2.4088308507,
			"-0.011": 1.78652953821,
			"-0.01": 2.0240029462,
			"-0.009": 2.0796021013,
			"-0.008": 4.27375731475,
			"-0.007": 7.73443144547,
			"-0.006": 8.73027392485,
			"-0.005": 13.542996052,
			"-0.004": 20.8249318704,
			"-0.003": 23.0960315155,
			"-0.002": 23.8864673445,
			"-0.001": 28.0763325947,
			"0.0": 32.7088599392,
			"0.001": 23.7155517442,
			"0.002": 10.9709519511,
			"0.003": 6.34063570035,
			"0.004": 5.6129173227,
			"0.005": 5.03310875037,
			"0.006": 6.70236704964,
			"0.007": 4.73949228163,
			"0.008": 7.12266333452,
			"0.009": 6.57477408025,
			"0.01": 10.7884685839,
			"0.011": 13.1235372553,
			"0.012": 5.68089128408,
			"0.013": 0.994099730453,
			"0.014": 0.0,
			"0.015": 0.0,
			"0.016": 0.0,
			"0.017": 0.0,
			"0.018": 0.0,
			"0.019": 0.0,
			"0.02": 0.0,
			"0.021": 0.0,
			"0.022": 0.0,
			"0.023": 0.0,
			"0.024": 0.0,
			"0.025": 0.0
		}
	}
}
