{
	 "smiles": "ClC1=CC=C(SC2=C(C=O)C=CS2)C=C1", 
	 "Tm": 331.65, 
	 "num_atms": 22, 
	 "gaussian": { 
		 "optdone": 1, 
		 "sigma_profile": "yes", 
		 "theory": "DFT", 
		 "functional": "B3LYP", 
		 "basiset": "6-31G**", 
		 "properties": { 
			 "R2extent": 5790.4395, 
			 "electric_dipole_moment_norm": 2.4562361165, 
			 "electric_quadrupole_moment_norm": 16.7641728206, 
			 "total_energy": -1755.14950804, 
			 "HOMO_LUMO_gap": 0.15664, 
			 "cosmo_polarized_energy": -9.19, 
			 "cosmo_cavitation_energy": 32.57, 
			 "cosmo_dispersion_energy": -23.8, 
			 "cosmo_repulsion_energy": 1.78, 
			 "cosmo_total_nonelectrostatic_energy": 10.55, 
			 "SMD_solvation_energy": 5.83 
		},
		"coords": [
			{
				"x": 4.3647498809,
				"y": 3.1540304725,
				"z": -0.1831931558,
				"element": "Cl" 
			},
			{
				"x": 2.7511812826,
				"y": 2.5166775104,
				"z": -0.4530894976,
				"element": "C" 
			},
			{
				"x": 1.8418228946,
				"y": 3.2483670885,
				"z": -1.2154986358,
				"element": "C" 
			},
			{
				"x": 0.5661272116,
				"y": 2.7309777494,
				"z": -1.4388200874,
				"element": "C" 
			},
			{
				"x": 0.1970501576,
				"y": 1.4993019676,
				"z": -0.8857949071,
				"element": "C" 
			},
			{
				"x": -1.4969120953,
				"y": 0.9499393663,
				"z": -1.1434352441,
				"element": "S" 
			},
			{
				"x": -1.3398494492,
				"y": -0.8050763569,
				"z": -1.2692763744,
				"element": "C" 
			},
			{
				"x": -1.8075136597,
				"y": -1.7593858724,
				"z": -0.3775747816,
				"element": "C" 
			},
			{
				"x": -2.441096221,
				"y": -1.4659363463,
				"z": 0.9233706227,
				"element": "C" 
			},
			{
				"x": -2.8470109041,
				"y": -2.3356783459,
				"z": 1.6735553559,
				"element": "O" 
			},
			{
				"x": -1.5951170084,
				"y": -3.0984464924,
				"z": -0.8389248532,
				"element": "C" 
			},
			{
				"x": -0.9751863807,
				"y": -3.1491535912,
				"z": -2.0518041183,
				"element": "C" 
			},
			{
				"x": -0.6529547331,
				"y": -1.563681819,
				"z": -2.6830765952,
				"element": "S" 
			},
			{
				"x": 1.115788312,
				"y": 0.7813212865,
				"z": -0.1122708486,
				"element": "C" 
			},
			{
				"x": 2.3990892163,
				"y": 1.2832684941,
				"z": 0.0962055748,
				"element": "C" 
			},
			{
				"x": 2.131412057,
				"y": 4.2021684486,
				"z": -1.6422768002,
				"element": "H" 
			},
			{
				"x": -0.1381535031,
				"y": 3.2858294279,
				"z": -2.0511172667,
				"element": "H" 
			},
			{
				"x": -2.5218826729,
				"y": -0.3929722662,
				"z": 1.184161371,
				"element": "H" 
			},
			{
				"x": -1.8954191316,
				"y": -3.962038528,
				"z": -0.2585543596,
				"element": "H" 
			},
			{
				"x": -0.6805677452,
				"y": -4.0231367253,
				"z": -2.6171379339,
				"element": "H" 
			},
			{
				"x": 0.8356069309,
				"y": -0.171709605,
				"z": 0.3241637802,
				"element": "H" 
			},
			{
				"x": 3.1167355605,
				"y": 0.7273341368,
				"z": 0.6893887547,
				"element": "H" 
			}
		],
		 "valence_orbital": [ 
			{
				"type": "occ",
				"energy": -0.27786,
				"method": "rhf"
			},
			{
				"type": "occ",
				"energy": -0.27347,
				"method": "rhf"
			},
			{
				"type": "occ",
				"energy": -0.26432,
				"method": "rhf"
			},
			{
				"type": "occ",
				"energy": -0.26011,
				"method": "rhf"
			},
			{
				"type": "occ",
				"energy": -0.2313,
				"method": "rhf"
			},
			{
				"type": "unocc",
				"energy": -0.07466,
				"method": "rhf"
			},
			{
				"type": "unocc",
				"energy": -0.03307,
				"method": "rhf"
			},
			{
				"type": "unocc",
				"energy": -0.02778,
				"method": "rhf"
			},
			{
				"type": "unocc",
				"energy": -0.02014,
				"method": "rhf"
			},
			{
				"type": "unocc",
				"energy": 0.00781,
				"method": "rhf"
			}
		],
		"cosmo_sigma_profile": { 
			"-0.025": 0.0,
			"-0.024": 0.0,
			"-0.023": 0.0,
			"-0.022": 0.0,
			"-0.021": 0.0,
			"-0.02": 0.0,
			"-0.019": 0.0,
			"-0.018": 0.0,
			"-0.017": 0.0,
			"-0.016": 0.0,
			"-0.015": 0.0,
			"-0.014": 0.0,
			"-0.013": 0.0,
			"-0.012": 0.0,
			"-0.011": 0.0,
			"-0.01": 0.681893129609,
			"-0.009": 2.59545576035,
			"-0.008": 3.5422955592,
			"-0.007": 10.5698796581,
			"-0.006": 13.7727475013,
			"-0.005": 16.3239524621,
			"-0.004": 14.6251352206,
			"-0.003": 14.0923979572,
			"-0.002": 15.991685992,
			"-0.001": 19.376090747,
			"0.0": 24.9437630604,
			"0.001": 32.2887581987,
			"0.002": 32.7486546325,
			"0.003": 27.4848597285,
			"0.004": 14.8059387202,
			"0.005": 7.75284926496,
			"0.006": 1.9794869226,
			"0.007": 2.00460709615,
			"0.008": 1.49849100151,
			"0.009": 2.51865084855,
			"0.01": 2.56096737155,
			"0.011": 4.32230737869,
			"0.012": 2.2039766242,
			"0.013": 0.557644970162,
			"0.014": 0.0,
			"0.015": 0.0,
			"0.016": 0.0,
			"0.017": 0.0,
			"0.018": 0.0,
			"0.019": 0.0,
			"0.02": 0.0,
			"0.021": 0.0,
			"0.022": 0.0,
			"0.023": 0.0,
			"0.024": 0.0,
			"0.025": 0.0
		}
	}
}
