{
	 "smiles": "S=C1NC=CC(=S)N1", 
	 "Tm": 553.15, 
	 "num_atms": 12, 
	 "gaussian": { 
		 "optdone": 1, 
		 "sigma_profile": "yes", 
		 "theory": "DFT", 
		 "functional": "B3LYP", 
		 "basiset": "6-31G**", 
		 "properties": { 
			 "R2extent": 2119.1596, 
			 "electric_dipole_moment_norm": 5.0792389361, 
			 "electric_quadrupole_moment_norm": 11.6058410686, 
			 "total_energy": -1060.72753194, 
			 "HOMO_LUMO_gap": 0.14476, 
			 "cosmo_polarized_energy": -19.44, 
			 "cosmo_cavitation_energy": 20.03, 
			 "cosmo_dispersion_energy": -16.06, 
			 "cosmo_repulsion_energy": 1.23, 
			 "cosmo_total_nonelectrostatic_energy": 5.21, 
			 "SMD_solvation_energy": 1.77 
		},
		"coords": [
			{
				"x": 0.9193234777,
				"y": -1.2621921113,
				"z": -2.9798825332,
				"element": "S" 
			},
			{
				"x": 0.1392286996,
				"y": -0.2899221167,
				"z": -1.8807008748,
				"element": "C" 
			},
			{
				"x": 0.7990402255,
				"y": 0.6317712418,
				"z": -1.0982673036,
				"element": "N" 
			},
			{
				"x": 0.1702967534,
				"y": 1.4440461531,
				"z": -0.1842800246,
				"element": "C" 
			},
			{
				"x": -1.1699138058,
				"y": 1.3807472287,
				"z": 0.0022232782,
				"element": "C" 
			},
			{
				"x": -1.960206161,
				"y": 0.4491688212,
				"z": -0.7655672662,
				"element": "C" 
			},
			{
				"x": -3.6047214274,
				"y": 0.2602068548,
				"z": -0.6459670687,
				"element": "S" 
			},
			{
				"x": -1.2175921296,
				"y": -0.3205617946,
				"z": -1.65900221,
				"element": "N" 
			},
			{
				"x": 1.799047098,
				"y": 0.6788150027,
				"z": -1.2375887453,
				"element": "H" 
			},
			{
				"x": 0.8165556436,
				"y": 2.1218634558,
				"z": 0.361178957,
				"element": "H" 
			},
			{
				"x": -1.6697684548,
				"y": 2.0163849443,
				"z": 0.7189163038,
				"element": "H" 
			},
			{
				"x": -1.7352899192,
				"y": -0.9892276799,
				"z": -2.2193625124,
				"element": "H" 
			}
		],
		 "valence_orbital": [ 
			{
				"type": "occ",
				"energy": -0.35357,
				"method": "rhf"
			},
			{
				"type": "occ",
				"energy": -0.2462,
				"method": "rhf"
			},
			{
				"type": "occ",
				"energy": -0.24251,
				"method": "rhf"
			},
			{
				"type": "occ",
				"energy": -0.24045,
				"method": "rhf"
			},
			{
				"type": "occ",
				"energy": -0.22714,
				"method": "rhf"
			},
			{
				"type": "unocc",
				"energy": -0.08238,
				"method": "rhf"
			},
			{
				"type": "unocc",
				"energy": -0.05757,
				"method": "rhf"
			},
			{
				"type": "unocc",
				"energy": 0.02865,
				"method": "rhf"
			},
			{
				"type": "unocc",
				"energy": 0.06467,
				"method": "rhf"
			},
			{
				"type": "unocc",
				"energy": 0.07658,
				"method": "rhf"
			}
		],
		"cosmo_sigma_profile": { 
			"-0.025": 0.0,
			"-0.024": 0.0,
			"-0.023": 0.0,
			"-0.022": 0.0,
			"-0.021": 0.0,
			"-0.02": 0.0,
			"-0.019": 0.526636226137,
			"-0.018": 1.3780144367,
			"-0.017": 0.961072612583,
			"-0.016": 1.26929305597,
			"-0.015": 1.73707225865,
			"-0.014": 2.32494056015,
			"-0.013": 1.98815921267,
			"-0.012": 2.29038783645,
			"-0.011": 4.04740891437,
			"-0.01": 3.60549178896,
			"-0.009": 3.76890339704,
			"-0.008": 5.99342099641,
			"-0.007": 5.85124255548,
			"-0.006": 4.34077568622,
			"-0.005": 6.80491163121,
			"-0.004": 7.77419658742,
			"-0.003": 10.191754618,
			"-0.002": 6.33999266512,
			"-0.001": 5.67198274282,
			"0.0": 5.95537363854,
			"0.001": 5.06797553814,
			"0.002": 5.66335375656,
			"0.003": 6.82228580872,
			"0.004": 6.88882325577,
			"0.005": 7.72857325629,
			"0.006": 7.11836277392,
			"0.007": 11.3820538608,
			"0.008": 13.9515468888,
			"0.009": 10.277945209,
			"0.01": 6.69341857428,
			"0.011": 2.24749990634,
			"0.012": 0.104229717455,
			"0.013": 0.0,
			"0.014": 0.0,
			"0.015": 0.0,
			"0.016": 0.0,
			"0.017": 0.0,
			"0.018": 0.0,
			"0.019": 0.0,
			"0.02": 0.0,
			"0.021": 0.0,
			"0.022": 0.0,
			"0.023": 0.0,
			"0.024": 0.0,
			"0.025": 0.0
		}
	}
}
