{
	 "smiles": "CC1=CC2=C(C=C1)N=C(C)C(=C2)C(O)=O", 
	 "Tm": 448.15, 
	 "num_atms": 26, 
	 "gaussian": { 
		 "optdone": 1, 
		 "sigma_profile": "yes", 
		 "theory": "DFT", 
		 "functional": "B3LYP", 
		 "basiset": "6-31G**", 
		 "properties": { 
			 "R2extent": 4586.035, 
			 "electric_dipole_moment_norm": 5.30292011914, 
			 "electric_quadrupole_moment_norm": 16.5314171716, 
			 "total_energy": -669.135569178, 
			 "HOMO_LUMO_gap": 0.16904, 
			 "cosmo_polarized_energy": -15.72, 
			 "cosmo_cavitation_energy": 30.01, 
			 "cosmo_dispersion_energy": -22.04, 
			 "cosmo_repulsion_energy": 1.7, 
			 "cosmo_total_nonelectrostatic_energy": 9.68, 
			 "SMD_solvation_energy": 4.65 
		},
		"coords": [
			{
				"x": -1.9362882607,
				"y": 0.5915846481,
				"z": -2.5238269305,
				"element": "C" 
			},
			{
				"x": -1.23134588,
				"y": 0.6139321503,
				"z": -1.1899255689,
				"element": "C" 
			},
			{
				"x": -0.508495534,
				"y": -0.4686368602,
				"z": -0.7316681783,
				"element": "C" 
			},
			{
				"x": 0.1503489598,
				"y": -0.433540724,
				"z": 0.5252521341,
				"element": "C" 
			},
			{
				"x": 0.0648122895,
				"y": 0.7360481979,
				"z": 1.3376503769,
				"element": "C" 
			},
			{
				"x": -0.6813336989,
				"y": 1.8423256917,
				"z": 0.8537308952,
				"element": "C" 
			},
			{
				"x": -1.3057897516,
				"y": 1.7773575381,
				"z": -0.369914671,
				"element": "C" 
			},
			{
				"x": 0.6653020018,
				"y": 0.8299740113,
				"z": 2.5581897641,
				"element": "N" 
			},
			{
				"x": 1.3537002225,
				"y": -0.1914231631,
				"z": 3.0342113247,
				"element": "C" 
			},
			{
				"x": 1.9728101403,
				"y": -0.0088419523,
				"z": 4.39620365,
				"element": "C" 
			},
			{
				"x": 1.5161819517,
				"y": -1.408464552,
				"z": 2.2797619715,
				"element": "C" 
			},
			{
				"x": 0.9091752749,
				"y": -1.5079931479,
				"z": 1.042186246,
				"element": "C" 
			},
			{
				"x": 2.2689370344,
				"y": -2.5767644926,
				"z": 2.8415157251,
				"element": "C" 
			},
			{
				"x": 2.9330720895,
				"y": -3.3458469414,
				"z": 1.9323704888,
				"element": "O" 
			},
			{
				"x": 2.2985769302,
				"y": -2.8746945592,
				"z": 4.0117813745,
				"element": "O" 
			},
			{
				"x": -3.0145409716,
				"y": 0.7492149419,
				"z": -2.404360904,
				"element": "H" 
			},
			{
				"x": -1.7914313883,
				"y": -0.3618042714,
				"z": -3.0385403955,
				"element": "H" 
			},
			{
				"x": -1.5677045002,
				"y": 1.3884374184,
				"z": -3.1803449913,
				"element": "H" 
			},
			{
				"x": -0.4354239939,
				"y": -1.3701924448,
				"z": -1.3362269102,
				"element": "H" 
			},
			{
				"x": -0.7396108733,
				"y": 2.7266445857,
				"z": 1.4797027484,
				"element": "H" 
			},
			{
				"x": -1.8749609106,
				"y": 2.6319413567,
				"z": -0.7278349929,
				"element": "H" 
			},
			{
				"x": 3.0466692463,
				"y": -0.2212725831,
				"z": 4.3844542943,
				"element": "H" 
			},
			{
				"x": 1.5331943657,
				"y": -0.7016037191,
				"z": 5.1185553329,
				"element": "H" 
			},
			{
				"x": 1.8068451746,
				"y": 1.0196190712,
				"z": 4.7186735614,
				"element": "H" 
			},
			{
				"x": 0.9756471541,
				"y": -2.4276149977,
				"z": 0.4637580741,
				"element": "H" 
			},
			{
				"x": 2.9589529279,
				"y": -2.8936852023,
				"z": 1.0775455804,
				"element": "H" 
			}
		],
		 "valence_orbital": [ 
			{
				"type": "occ",
				"energy": -0.31412,
				"method": "rhf"
			},
			{
				"type": "occ",
				"energy": -0.27856,
				"method": "rhf"
			},
			{
				"type": "occ",
				"energy": -0.25898,
				"method": "rhf"
			},
			{
				"type": "occ",
				"energy": -0.25411,
				"method": "rhf"
			},
			{
				"type": "occ",
				"energy": -0.2396,
				"method": "rhf"
			},
			{
				"type": "unocc",
				"energy": -0.07056,
				"method": "rhf"
			},
			{
				"type": "unocc",
				"energy": -0.03825,
				"method": "rhf"
			},
			{
				"type": "unocc",
				"energy": 0.0063,
				"method": "rhf"
			},
			{
				"type": "unocc",
				"energy": 0.02326,
				"method": "rhf"
			},
			{
				"type": "unocc",
				"energy": 0.066,
				"method": "rhf"
			}
		],
		"cosmo_sigma_profile": { 
			"-0.025": 0.0,
			"-0.024": 0.0,
			"-0.023": 0.0,
			"-0.022": 0.0,
			"-0.021": 0.0,
			"-0.02": 0.0,
			"-0.019": 0.0840157777552,
			"-0.018": 0.903119999362,
			"-0.017": 1.06401108541,
			"-0.016": 0.95223811938,
			"-0.015": 0.896516360231,
			"-0.014": 0.659258341344,
			"-0.013": 1.40256704812,
			"-0.012": 1.52274712895,
			"-0.011": 0.875301969677,
			"-0.01": 1.31231378507,
			"-0.009": 2.17856251673,
			"-0.008": 3.02674399993,
			"-0.007": 3.13802649443,
			"-0.006": 8.60237907475,
			"-0.005": 13.0067321283,
			"-0.004": 18.6258751424,
			"-0.003": 17.71926729,
			"-0.002": 17.8171965378,
			"-0.001": 19.8068123851,
			"0.0": 27.1864744398,
			"0.001": 17.3619187982,
			"0.002": 14.7811030459,
			"0.003": 16.2211044052,
			"0.004": 9.77393174448,
			"0.005": 4.36843773373,
			"0.006": 4.51334345983,
			"0.007": 4.13918210396,
			"0.008": 3.91521594746,
			"0.009": 4.32274339566,
			"0.01": 6.21142562014,
			"0.011": 5.7842831269,
			"0.012": 4.0086346058,
			"0.013": 2.05580482473,
			"0.014": 0.529883598708,
			"0.015": 0.358272003808,
			"0.016": 0.0,
			"0.017": 0.0,
			"0.018": 0.0,
			"0.019": 0.0,
			"0.02": 0.0,
			"0.021": 0.0,
			"0.022": 0.0,
			"0.023": 0.0,
			"0.024": 0.0,
			"0.025": 0.0
		}
	}
}
