{
	 "smiles": "CC(C)N1C=NC(=C1)S(Cl)(=O)=O", 
	 "Tm": 336.15, 
	 "num_atms": 21, 
	 "gaussian": { 
		 "optdone": 1, 
		 "sigma_profile": "yes", 
		 "theory": "DFT", 
		 "functional": "B3LYP", 
		 "basiset": "6-31G**", 
		 "properties": { 
			 "R2extent": 3368.6343, 
			 "electric_dipole_moment_norm": 8.70951074745, 
			 "electric_quadrupole_moment_norm": 6.2699579879, 
			 "total_energy": -1352.31669953, 
			 "HOMO_LUMO_gap": 0.19646, 
			 "cosmo_polarized_energy": -16.92, 
			 "cosmo_cavitation_energy": 28.49, 
			 "cosmo_dispersion_energy": -20.81, 
			 "cosmo_repulsion_energy": 1.64, 
			 "cosmo_total_nonelectrostatic_energy": 9.32, 
			 "SMD_solvation_energy": 3.02 
		},
		"coords": [
			{
				"x": -1.4019450704,
				"y": -1.5093498419,
				"z": -2.8605261215,
				"element": "C" 
			},
			{
				"x": -2.0807542918,
				"y": -0.3965407093,
				"z": -2.0546101605,
				"element": "C" 
			},
			{
				"x": -3.4178094922,
				"y": -0.8329235122,
				"z": -1.4459897608,
				"element": "C" 
			},
			{
				"x": -1.1741982105,
				"y": 0.1216500753,
				"z": -1.0105034862,
				"element": "N" 
			},
			{
				"x": -0.6839488296,
				"y": 1.3977782176,
				"z": -0.9240149694,
				"element": "C" 
			},
			{
				"x": 0.1037720487,
				"y": 1.568208366,
				"z": 0.1175883866,
				"element": "N" 
			},
			{
				"x": 0.1193446598,
				"y": 0.35113596,
				"z": 0.7233927672,
				"element": "C" 
			},
			{
				"x": -0.6583853211,
				"y": -0.5711175828,
				"z": 0.0570109909,
				"element": "C" 
			},
			{
				"x": 1.0280742882,
				"y": -0.0372783899,
				"z": 2.2062838774,
				"element": "S" 
			},
			{
				"x": 1.9518793226,
				"y": 1.8038136087,
				"z": 2.6295505252,
				"element": "Cl" 
			},
			{
				"x": 0.0879500729,
				"y": -0.3123817144,
				"z": 3.2880850682,
				"element": "O" 
			},
			{
				"x": 2.0843823616,
				"y": -0.992023787,
				"z": 1.8861339536,
				"element": "O" 
			},
			{
				"x": -2.0520421016,
				"y": -1.8215689974,
				"z": -3.6830055146,
				"element": "H" 
			},
			{
				"x": -1.2056546566,
				"y": -2.3873983869,
				"z": -2.2370867954,
				"element": "H" 
			},
			{
				"x": -0.4522795845,
				"y": -1.1675114993,
				"z": -3.2806266258,
				"element": "H" 
			},
			{
				"x": -2.2580343888,
				"y": 0.458359968,
				"z": -2.7160513473,
				"element": "H" 
			},
			{
				"x": -3.8756363147,
				"y": -0.0188730596,
				"z": -0.8777299876,
				"element": "H" 
			},
			{
				"x": -4.1077435565,
				"y": -1.1312439401,
				"z": -2.2407096056,
				"element": "H" 
			},
			{
				"x": -3.2882722338,
				"y": -1.6890537659,
				"z": -0.7763327162,
				"element": "H" 
			},
			{
				"x": -0.9364127512,
				"y": 2.1590709539,
				"z": -1.6492728516,
				"element": "H" 
			},
			{
				"x": -0.8722859503,
				"y": -1.6098519625,
				"z": 0.2500143734,
				"element": "H" 
			}
		],
		 "valence_orbital": [ 
			{
				"type": "occ",
				"energy": -0.32512,
				"method": "rhf"
			},
			{
				"type": "occ",
				"energy": -0.30339,
				"method": "rhf"
			},
			{
				"type": "occ",
				"energy": -0.30044,
				"method": "rhf"
			},
			{
				"type": "occ",
				"energy": -0.29943,
				"method": "rhf"
			},
			{
				"type": "occ",
				"energy": -0.26111,
				"method": "rhf"
			},
			{
				"type": "unocc",
				"energy": -0.06465,
				"method": "rhf"
			},
			{
				"type": "unocc",
				"energy": -0.01374,
				"method": "rhf"
			},
			{
				"type": "unocc",
				"energy": 0.01341,
				"method": "rhf"
			},
			{
				"type": "unocc",
				"energy": 0.04611,
				"method": "rhf"
			},
			{
				"type": "unocc",
				"energy": 0.05644,
				"method": "rhf"
			}
		],
		"cosmo_sigma_profile": { 
			"-0.025": 0.0,
			"-0.024": 0.0,
			"-0.023": 0.0,
			"-0.022": 0.0,
			"-0.021": 0.0,
			"-0.02": 0.0,
			"-0.019": 0.0,
			"-0.018": 0.0,
			"-0.017": 0.0,
			"-0.016": 0.0,
			"-0.015": 0.0,
			"-0.014": 0.0,
			"-0.013": 0.0,
			"-0.012": 0.0335434010377,
			"-0.011": 1.9340424892,
			"-0.01": 5.91434231881,
			"-0.009": 4.94427084272,
			"-0.008": 5.01089531932,
			"-0.007": 5.90685974476,
			"-0.006": 5.43898179817,
			"-0.005": 13.3369736235,
			"-0.004": 17.3794023385,
			"-0.003": 15.1848284576,
			"-0.002": 19.1547037824,
			"-0.001": 24.4789902648,
			"0.0": 18.2357866277,
			"0.001": 12.1818748019,
			"0.002": 11.2820681079,
			"0.003": 15.119880089,
			"0.004": 6.74855879915,
			"0.005": 4.99909940243,
			"0.006": 5.88272921043,
			"0.007": 4.64939827549,
			"0.008": 12.5093263488,
			"0.009": 11.4465579252,
			"0.01": 2.50179016477,
			"0.011": 1.45054962577,
			"0.012": 1.16329383553,
			"0.013": 1.1513856232,
			"0.014": 0.660625892683,
			"0.015": 0.0355119793137,
			"0.016": 0.0,
			"0.017": 0.0,
			"0.018": 0.0,
			"0.019": 0.0,
			"0.02": 0.0,
			"0.021": 0.0,
			"0.022": 0.0,
			"0.023": 0.0,
			"0.024": 0.0,
			"0.025": 0.0
		}
	}
}
