{
	 "smiles": "NNC(=O)C1=CC(Br)=CN1", 
	 "Tm": 490.15, 
	 "num_atms": 16, 
	 "gaussian": { 
		 "optdone": 1, 
		 "sigma_profile": "yes", 
		 "theory": "DFT", 
		 "functional": "B3LYP", 
		 "basiset": "6-31G**", 
		 "properties": { 
			 "R2extent": 3503.6727, 
			 "electric_dipole_moment_norm": 0.606899159663, 
			 "electric_quadrupole_moment_norm": 10.8997630158, 
			 "total_energy": -3004.99878631, 
			 "HOMO_LUMO_gap": 0.19847, 
			 "cosmo_polarized_energy": -14.21, 
			 "cosmo_cavitation_energy": 22.92, 
			 "cosmo_dispersion_energy": -17.59, 
			 "cosmo_repulsion_energy": 1.44, 
			 "cosmo_total_nonelectrostatic_energy": 6.77, 
			 "SMD_solvation_energy": 4.11 
		},
		"coords": [
			{
				"x": -1.2308301325,
				"y": 1.9893242452,
				"z": -2.3657526159,
				"element": "N" 
			},
			{
				"x": -0.5144522619,
				"y": 2.4495920651,
				"z": -1.2555862979,
				"element": "N" 
			},
			{
				"x": -0.2372853391,
				"y": 1.798199375,
				"z": -0.0853919252,
				"element": "C" 
			},
			{
				"x": 0.415655937,
				"y": 2.3551931408,
				"z": 0.8022808566,
				"element": "O" 
			},
			{
				"x": -0.7196361815,
				"y": 0.4168234813,
				"z": 0.1256403854,
				"element": "C" 
			},
			{
				"x": -1.4514298104,
				"y": -0.5521577839,
				"z": -0.5601795393,
				"element": "C" 
			},
			{
				"x": -1.5248784524,
				"y": -1.6784285029,
				"z": 0.2898445789,
				"element": "C" 
			},
			{
				"x": -2.3949593426,
				"y": -3.309875199,
				"z": -0.0970255166,
				"element": "Br" 
			},
			{
				"x": -0.8493607985,
				"y": -1.3898046588,
				"z": 1.4637670074,
				"element": "C" 
			},
			{
				"x": -0.3729255446,
				"y": -0.1227501018,
				"z": 1.3420794679,
				"element": "N" 
			},
			{
				"x": -2.1836784724,
				"y": 1.7545306232,
				"z": -2.099206475,
				"element": "H" 
			},
			{
				"x": -0.7838579976,
				"y": 1.1643293996,
				"z": -2.7577643621,
				"element": "H" 
			},
			{
				"x": -0.1493597842,
				"y": 3.3901071148,
				"z": -1.322203088,
				"element": "H" 
			},
			{
				"x": -1.8870841287,
				"y": -0.4849132419,
				"z": -1.5429352375,
				"element": "H" 
			},
			{
				"x": -0.6873609356,
				"y": -1.9916001588,
				"z": 2.3440870928,
				"element": "H" 
			},
			{
				"x": 0.1675432451,
				"y": 0.4200302022,
				"z": 2.0037456684,
				"element": "H" 
			}
		],
		 "valence_orbital": [ 
			{
				"type": "occ",
				"energy": -0.28998,
				"method": "rhf"
			},
			{
				"type": "occ",
				"energy": -0.26514,
				"method": "rhf"
			},
			{
				"type": "occ",
				"energy": -0.2604,
				"method": "rhf"
			},
			{
				"type": "occ",
				"energy": -0.25637,
				"method": "rhf"
			},
			{
				"type": "occ",
				"energy": -0.22812,
				"method": "rhf"
			},
			{
				"type": "unocc",
				"energy": -0.02965,
				"method": "rhf"
			},
			{
				"type": "unocc",
				"energy": 0.01345,
				"method": "rhf"
			},
			{
				"type": "unocc",
				"energy": 0.04278,
				"method": "rhf"
			},
			{
				"type": "unocc",
				"energy": 0.06283,
				"method": "rhf"
			},
			{
				"type": "unocc",
				"energy": 0.09713,
				"method": "rhf"
			}
		],
		"cosmo_sigma_profile": { 
			"-0.025": 0.0,
			"-0.024": 0.0,
			"-0.023": 0.0,
			"-0.022": 0.0,
			"-0.021": 0.0,
			"-0.02": 0.0,
			"-0.019": 0.0,
			"-0.018": 0.0,
			"-0.017": 0.0,
			"-0.016": 0.0267597644526,
			"-0.015": 0.621527902191,
			"-0.014": 1.1208621648,
			"-0.013": 2.28329596023,
			"-0.012": 3.93029729344,
			"-0.011": 5.6497429928,
			"-0.01": 5.1125496398,
			"-0.009": 7.00465029797,
			"-0.008": 5.76661256398,
			"-0.007": 6.02053877479,
			"-0.006": 5.44843593958,
			"-0.005": 4.89218625767,
			"-0.004": 5.44332529627,
			"-0.003": 6.25968868743,
			"-0.002": 8.06030378105,
			"-0.001": 8.97780024355,
			"0.0": 11.6815877062,
			"0.001": 11.2024397523,
			"0.002": 13.3229741527,
			"0.003": 16.4755446356,
			"0.004": 20.3692021253,
			"0.005": 13.8046873024,
			"0.006": 1.68757132805,
			"0.007": 1.29224081551,
			"0.008": 2.12940945723,
			"0.009": 2.26262091294,
			"0.01": 1.41708418283,
			"0.011": 1.93765843506,
			"0.012": 2.90636631091,
			"0.013": 4.0984722795,
			"0.014": 3.62933964153,
			"0.015": 0.960399424118,
			"0.016": 0.142609719798,
			"0.017": 0.0,
			"0.018": 0.0,
			"0.019": 0.0,
			"0.02": 0.0,
			"0.021": 0.0,
			"0.022": 0.0,
			"0.023": 0.0,
			"0.024": 0.0,
			"0.025": 0.0
		}
	}
}
