{
	 "smiles": "CC(C)(C)OC(=O)NC(CC#C)C(O)=O", 
	 "Tm": 358.65, 
	 "num_atms": 30, 
	 "gaussian": { 
		 "optdone": 1, 
		 "sigma_profile": "yes", 
		 "theory": "DFT", 
		 "functional": "B3LYP", 
		 "basiset": "6-31G**", 
		 "properties": { 
			 "R2extent": 4203.7073, 
			 "electric_dipole_moment_norm": 5.27594273851, 
			 "electric_quadrupole_moment_norm": 14.8821301765, 
			 "total_energy": -745.718764361, 
			 "HOMO_LUMO_gap": 0.24804, 
			 "cosmo_polarized_energy": -21.31, 
			 "cosmo_cavitation_energy": 34.34, 
			 "cosmo_dispersion_energy": -22.35, 
			 "cosmo_repulsion_energy": 1.77, 
			 "cosmo_total_nonelectrostatic_energy": 13.76, 
			 "SMD_solvation_energy": 9.18 
		},
		"coords": [
			{
				"x": 1.7468049901,
				"y": -2.8670243993,
				"z": -1.3400969413,
				"element": "C" 
			},
			{
				"x": 1.4594030088,
				"y": -1.492311674,
				"z": -1.9528201484,
				"element": "C" 
			},
			{
				"x": 2.7068625849,
				"y": -0.9347598989,
				"z": -2.6430508348,
				"element": "C" 
			},
			{
				"x": 0.2702641973,
				"y": -1.5225044455,
				"z": -2.9184023283,
				"element": "C" 
			},
			{
				"x": 1.2148235569,
				"y": -0.5062677269,
				"z": -0.8845665211,
				"element": "O" 
			},
			{
				"x": 0.172690314,
				"y": -0.6614034524,
				"z": -0.0235685388,
				"element": "C" 
			},
			{
				"x": -0.647054417,
				"y": -1.5619568744,
				"z": -0.0387751379,
				"element": "O" 
			},
			{
				"x": 0.1561265236,
				"y": 0.3588269232,
				"z": 0.888189669,
				"element": "N" 
			},
			{
				"x": 1.1459808333,
				"y": 1.3969890466,
				"z": 1.0228852884,
				"element": "C" 
			},
			{
				"x": 0.9753734966,
				"y": 2.5404525606,
				"z": -0.0264541789,
				"element": "C" 
			},
			{
				"x": -0.2730322599,
				"y": 3.2835856099,
				"z": 0.1142070617,
				"element": "C" 
			},
			{
				"x": -1.30395676,
				"y": 3.8960181863,
				"z": 0.2517774909,
				"element": "C" 
			},
			{
				"x": 1.060124545,
				"y": 1.9372843323,
				"z": 2.4586225098,
				"element": "C" 
			},
			{
				"x": 2.0157047774,
				"y": 2.8279272445,
				"z": 2.809147299,
				"element": "O" 
			},
			{
				"x": 0.2053951387,
				"y": 1.610618362,
				"z": 3.2424239415,
				"element": "O" 
			},
			{
				"x": 2.5735649197,
				"y": -2.8000516965,
				"z": -0.6255829487,
				"element": "H" 
			},
			{
				"x": 0.8672631455,
				"y": -3.2577525922,
				"z": -0.8284258729,
				"element": "H" 
			},
			{
				"x": 2.037637223,
				"y": -3.5667284245,
				"z": -2.1302869888,
				"element": "H" 
			},
			{
				"x": 2.5137199193,
				"y": 0.06295481,
				"z": -3.0488576743,
				"element": "H" 
			},
			{
				"x": 3.0028105125,
				"y": -1.5894408305,
				"z": -3.4679093773,
				"element": "H" 
			},
			{
				"x": 3.542291105,
				"y": -0.8678860654,
				"z": -1.9396437666,
				"element": "H" 
			},
			{
				"x": 0.5038162712,
				"y": -2.173253452,
				"z": -3.7673124509,
				"element": "H" 
			},
			{
				"x": 0.0687014752,
				"y": -0.5187581594,
				"z": -3.3062233432,
				"element": "H" 
			},
			{
				"x": -0.6251702478,
				"y": -1.8962429288,
				"z": -2.4218963844,
				"element": "H" 
			},
			{
				"x": -0.5396835807,
				"y": 0.2994416829,
				"z": 1.6203731152,
				"element": "H" 
			},
			{
				"x": 2.1481907869,
				"y": 0.9742386164,
				"z": 0.8716728375,
				"element": "H" 
			},
			{
				"x": 1.829520098,
				"y": 3.2302976196,
				"z": 0.0324655492,
				"element": "H" 
			},
			{
				"x": 1.0335747133,
				"y": 2.0680046207,
				"z": -1.012288986,
				"element": "H" 
			},
			{
				"x": -2.217232039,
				"y": 4.4312053157,
				"z": 0.3737371773,
				"element": "H" 
			},
			{
				"x": 2.6381851683,
				"y": 2.9722976901,
				"z": 2.082360483,
				"element": "H" 
			}
		],
		 "valence_orbital": [ 
			{
				"type": "occ",
				"energy": -0.29393,
				"method": "rhf"
			},
			{
				"type": "occ",
				"energy": -0.2799,
				"method": "rhf"
			},
			{
				"type": "occ",
				"energy": -0.27476,
				"method": "rhf"
			},
			{
				"type": "occ",
				"energy": -0.26648,
				"method": "rhf"
			},
			{
				"type": "occ",
				"energy": -0.25698,
				"method": "rhf"
			},
			{
				"type": "unocc",
				"energy": -0.00894,
				"method": "rhf"
			},
			{
				"type": "unocc",
				"energy": 0.01769,
				"method": "rhf"
			},
			{
				"type": "unocc",
				"energy": 0.03933,
				"method": "rhf"
			},
			{
				"type": "unocc",
				"energy": 0.05261,
				"method": "rhf"
			},
			{
				"type": "unocc",
				"energy": 0.06049,
				"method": "rhf"
			}
		],
		"cosmo_sigma_profile": { 
			"-0.025": 0.0,
			"-0.024": 0.0,
			"-0.023": 0.0,
			"-0.022": 0.0,
			"-0.021": 0.0,
			"-0.02": 0.639384475854,
			"-0.019": 1.4443963714,
			"-0.018": 1.27735951913,
			"-0.017": 1.42745025754,
			"-0.016": 1.24470170323,
			"-0.015": 0.594082741651,
			"-0.014": 1.28655989518,
			"-0.013": 1.36986897762,
			"-0.012": 2.01290764451,
			"-0.011": 2.70971537188,
			"-0.01": 2.83798849264,
			"-0.009": 3.69393420774,
			"-0.008": 5.19508166373,
			"-0.007": 4.16774626407,
			"-0.006": 3.70365927859,
			"-0.005": 7.10880617374,
			"-0.004": 18.8280600185,
			"-0.003": 21.6317041227,
			"-0.002": 19.8597888974,
			"-0.001": 25.1917285639,
			"0.0": 31.4884750359,
			"0.001": 22.4484930476,
			"0.002": 10.3233656429,
			"0.003": 10.1474020115,
			"0.004": 10.926610338,
			"0.005": 9.46706402913,
			"0.006": 11.0480188009,
			"0.007": 8.05276479273,
			"0.008": 4.93232534445,
			"0.009": 6.50985216812,
			"0.01": 6.05793278235,
			"0.011": 4.21780677608,
			"0.012": 3.62218497745,
			"0.013": 3.49717388809,
			"0.014": 1.40257523576,
			"0.015": 0.0,
			"0.016": 0.0,
			"0.017": 0.0,
			"0.018": 0.0,
			"0.019": 0.0,
			"0.02": 0.0,
			"0.021": 0.0,
			"0.022": 0.0,
			"0.023": 0.0,
			"0.024": 0.0,
			"0.025": 0.0
		}
	}
}
