{
	 "smiles": "CCOC(=O)C1=C(NC(=S)NC2=CC=C(OC)C=C2)SC2=C1CCCC2", 
	 "Tm": 437.15, 
	 "num_atms": 48, 
	 "gaussian": { 
		 "optdone": 1, 
		 "sigma_profile": "yes", 
		 "theory": "DFT", 
		 "functional": "B3LYP", 
		 "basiset": "6-31G**", 
		 "properties": { 
			 "R2extent": 11159.6669, 
			 "electric_dipole_moment_norm": 4.18485144061, 
			 "electric_quadrupole_moment_norm": 22.3960947355, 
			 "total_energy": -1868.85157699, 
			 "HOMO_LUMO_gap": 0.14102, 
			 "cosmo_polarized_energy": -17.76, 
			 "cosmo_cavitation_energy": 53.12, 
			 "cosmo_dispersion_energy": -35.94, 
			 "cosmo_repulsion_energy": 2.74, 
			 "cosmo_total_nonelectrostatic_energy": 19.92, 
			 "SMD_solvation_energy": 8.5 
		},
		"coords": [
			{
				"x": -1.3711855218,
				"y": 4.9352487405,
				"z": 1.5360626836,
				"element": "C" 
			},
			{
				"x": 0.0382732295,
				"y": 4.4109873983,
				"z": 1.3378050989,
				"element": "C" 
			},
			{
				"x": -0.0471662174,
				"y": 3.2290452622,
				"z": 0.5049112516,
				"element": "O" 
			},
			{
				"x": 1.1359807382,
				"y": 2.606299654,
				"z": 0.2260077369,
				"element": "C" 
			},
			{
				"x": 2.1967398799,
				"y": 3.0287115218,
				"z": 0.6488879493,
				"element": "O" 
			},
			{
				"x": 0.9769855753,
				"y": 1.4162513086,
				"z": -0.6271592354,
				"element": "C" 
			},
			{
				"x": -0.2293538292,
				"y": 0.7939850386,
				"z": -0.9407692007,
				"element": "C" 
			},
			{
				"x": -1.4936788264,
				"y": 1.2426914291,
				"z": -0.5821143474,
				"element": "N" 
			},
			{
				"x": -2.7269892339,
				"y": 0.6421454705,
				"z": -0.6847688984,
				"element": "C" 
			},
			{
				"x": -4.1041277962,
				"y": 1.5711174789,
				"z": -0.9096215952,
				"element": "S" 
			},
			{
				"x": -2.7872626811,
				"y": -0.7271340177,
				"z": -0.6116690248,
				"element": "N" 
			},
			{
				"x": -2.0794348096,
				"y": -1.6003665371,
				"z": 0.2670750686,
				"element": "C" 
			},
			{
				"x": -2.1019405242,
				"y": -2.9740791933,
				"z": -0.0194704176,
				"element": "C" 
			},
			{
				"x": -1.4816364835,
				"y": -3.8822542496,
				"z": 0.8251146994,
				"element": "C" 
			},
			{
				"x": -0.8051425243,
				"y": -3.4357029756,
				"z": 1.9705633776,
				"element": "C" 
			},
			{
				"x": -0.2165120037,
				"y": -4.4053342954,
				"z": 2.7287618081,
				"element": "O" 
			},
			{
				"x": 0.4758046188,
				"y": -4.0102841008,
				"z": 3.9026063862,
				"element": "C" 
			},
			{
				"x": -0.7771502079,
				"y": -2.0670929724,
				"z": 2.2588834093,
				"element": "C" 
			},
			{
				"x": -1.4215099556,
				"y": -1.1578361139,
				"z": 1.4159707592,
				"element": "C" 
			},
			{
				"x": 0.0162131039,
				"y": -0.5757937906,
				"z": -1.9915874011,
				"element": "S" 
			},
			{
				"x": 1.7490562116,
				"y": -0.3248379158,
				"z": -1.9934647128,
				"element": "C" 
			},
			{
				"x": 2.1115664614,
				"y": 0.7570510513,
				"z": -1.2435455503,
				"element": "C" 
			},
			{
				"x": 3.5615845984,
				"y": 1.163203899,
				"z": -1.1037757806,
				"element": "C" 
			},
			{
				"x": 4.453460991,
				"y": 0.4521689762,
				"z": -2.1357423774,
				"element": "C" 
			},
			{
				"x": 4.1218639486,
				"y": -1.0420441068,
				"z": -2.2450733361,
				"element": "C" 
			},
			{
				"x": 2.6776351361,
				"y": -1.2469199269,
				"z": -2.735965779,
				"element": "C" 
			},
			{
				"x": -1.3452814949,
				"y": 5.8322711442,
				"z": 2.1625183983,
				"element": "H" 
			},
			{
				"x": -2.0038865606,
				"y": 4.191542474,
				"z": 2.0291010535,
				"element": "H" 
			},
			{
				"x": -1.8325185358,
				"y": 5.199030696,
				"z": 0.579974741,
				"element": "H" 
			},
			{
				"x": 0.6847158683,
				"y": 5.1410536679,
				"z": 0.841618346,
				"element": "H" 
			},
			{
				"x": 0.5155722208,
				"y": 4.138047151,
				"z": 2.2837214713,
				"element": "H" 
			},
			{
				"x": -1.531869145,
				"y": 2.2362013092,
				"z": -0.3824448333,
				"element": "H" 
			},
			{
				"x": -3.7024362632,
				"y": -1.0621155694,
				"z": -0.8862405568,
				"element": "H" 
			},
			{
				"x": -2.607778893,
				"y": -3.3258422313,
				"z": -0.9143677053,
				"element": "H" 
			},
			{
				"x": -1.4988103718,
				"y": -4.9460177119,
				"z": 0.6130046345,
				"element": "H" 
			},
			{
				"x": 1.3130873961,
				"y": -3.3386689006,
				"z": 3.6726123114,
				"element": "H" 
			},
			{
				"x": -0.1922983639,
				"y": -3.5170533885,
				"z": 4.6205120166,
				"element": "H" 
			},
			{
				"x": 0.8640391133,
				"y": -4.927921061,
				"z": 4.3469711415,
				"element": "H" 
			},
			{
				"x": -0.2714909266,
				"y": -1.6926924061,
				"z": 3.14075236,
				"element": "H" 
			},
			{
				"x": -1.4094370511,
				"y": -0.1032981717,
				"z": 1.6658728543,
				"element": "H" 
			},
			{
				"x": 3.6562997244,
				"y": 2.2484808471,
				"z": -1.1963348852,
				"element": "H" 
			},
			{
				"x": 3.902249436,
				"y": 0.9361093235,
				"z": -0.0850809244,
				"element": "H" 
			},
			{
				"x": 4.3181269871,
				"y": 0.9206862907,
				"z": -3.119936257,
				"element": "H" 
			},
			{
				"x": 5.5059366354,
				"y": 0.5908463855,
				"z": -1.8648917555,
				"element": "H" 
			},
			{
				"x": 4.2405132282,
				"y": -1.514454652,
				"z": -1.2613574185,
				"element": "H" 
			},
			{
				"x": 4.816406073,
				"y": -1.5452694856,
				"z": -2.9267953433,
				"element": "H" 
			},
			{
				"x": 2.6218212343,
				"y": -1.048694378,
				"z": -3.8162675761,
				"element": "H" 
			},
			{
				"x": 2.373365811,
				"y": -2.2922683662,
				"z": -2.6011646448,
				"element": "H" 
			}
		],
		 "valence_orbital": [ 
			{
				"type": "occ",
				"energy": -0.25499,
				"method": "rhf"
			},
			{
				"type": "occ",
				"energy": -0.24332,
				"method": "rhf"
			},
			{
				"type": "occ",
				"energy": -0.21803,
				"method": "rhf"
			},
			{
				"type": "occ",
				"energy": -0.20931,
				"method": "rhf"
			},
			{
				"type": "occ",
				"energy": -0.19906,
				"method": "rhf"
			},
			{
				"type": "unocc",
				"energy": -0.05804,
				"method": "rhf"
			},
			{
				"type": "unocc",
				"energy": -0.01395,
				"method": "rhf"
			},
			{
				"type": "unocc",
				"energy": -0.01119,
				"method": "rhf"
			},
			{
				"type": "unocc",
				"energy": 0.01427,
				"method": "rhf"
			},
			{
				"type": "unocc",
				"energy": 0.01979,
				"method": "rhf"
			}
		],
		"cosmo_sigma_profile": { 
			"-0.025": 0.0,
			"-0.024": 0.0,
			"-0.023": 0.0,
			"-0.022": 0.0,
			"-0.021": 0.0,
			"-0.02": 0.0,
			"-0.019": 0.0,
			"-0.018": 0.0,
			"-0.017": 0.0,
			"-0.016": 0.0,
			"-0.015": 0.251864957604,
			"-0.014": 0.943504453625,
			"-0.013": 1.026217903,
			"-0.012": 0.660482963429,
			"-0.011": 1.11947721732,
			"-0.01": 1.15814110631,
			"-0.009": 1.29339849512,
			"-0.008": 1.14904640286,
			"-0.007": 4.37498103383,
			"-0.006": 13.0966656509,
			"-0.005": 26.0979947006,
			"-0.004": 36.4891905828,
			"-0.003": 45.9387840634,
			"-0.002": 50.2020166174,
			"-0.001": 45.7089517888,
			"0.0": 36.5302168452,
			"0.001": 24.8995725309,
			"0.002": 24.4003571308,
			"0.003": 22.9108573447,
			"0.004": 20.2269659751,
			"0.005": 14.4299898167,
			"0.006": 7.44402121705,
			"0.007": 5.75744485632,
			"0.008": 8.63646042311,
			"0.009": 10.164450432,
			"0.01": 8.59993049188,
			"0.011": 5.91243407488,
			"0.012": 4.42785562194,
			"0.013": 0.36096019929,
			"0.014": 0.0,
			"0.015": 0.0,
			"0.016": 0.0,
			"0.017": 0.0,
			"0.018": 0.0,
			"0.019": 0.0,
			"0.02": 0.0,
			"0.021": 0.0,
			"0.022": 0.0,
			"0.023": 0.0,
			"0.024": 0.0,
			"0.025": 0.0
		}
	}
}
