{
	 "smiles": "CN(C)CCOC1=CC=CC=C1N", 
	 "Tm": 311.65, 
	 "num_atms": 29, 
	 "gaussian": { 
		 "optdone": 1, 
		 "sigma_profile": "yes", 
		 "theory": "DFT", 
		 "functional": "B3LYP", 
		 "basiset": "6-31G**", 
		 "properties": { 
			 "R2extent": 3306.236, 
			 "electric_dipole_moment_norm": 1.80286582418, 
			 "electric_quadrupole_moment_norm": 8.15322299217, 
			 "total_energy": -575.412420392, 
			 "HOMO_LUMO_gap": 0.2041, 
			 "cosmo_polarized_energy": -9.42, 
			 "cosmo_cavitation_energy": 30.88, 
			 "cosmo_dispersion_energy": -21.91, 
			 "cosmo_repulsion_energy": 1.75, 
			 "cosmo_total_nonelectrostatic_energy": 10.72, 
			 "SMD_solvation_energy": 5.27 
		},
		"coords": [
			{
				"x": -3.5476839672,
				"y": 1.3777485695,
				"z": 1.3989594589,
				"element": "C" 
			},
			{
				"x": -2.112026624,
				"y": 1.5602695092,
				"z": 1.2173240241,
				"element": "N" 
			},
			{
				"x": -1.6436486359,
				"y": 2.7502045485,
				"z": 1.9187953975,
				"element": "C" 
			},
			{
				"x": -1.734593277,
				"y": 1.5708689912,
				"z": -0.1960807143,
				"element": "C" 
			},
			{
				"x": -0.2839980439,
				"y": 1.1689819093,
				"z": -0.4662879866,
				"element": "C" 
			},
			{
				"x": -0.1100096275,
				"y": -0.2525008533,
				"z": -0.4252514817,
				"element": "O" 
			},
			{
				"x": 0.6770538104,
				"y": -0.7945335843,
				"z": 0.577060722,
				"element": "C" 
			},
			{
				"x": 0.4088006043,
				"y": -0.6061841979,
				"z": 1.9299136831,
				"element": "C" 
			},
			{
				"x": 1.2139144066,
				"y": -1.2188572635,
				"z": 2.8950753675,
				"element": "C" 
			},
			{
				"x": 2.2744639876,
				"y": -2.0304848499,
				"z": 2.4913462011,
				"element": "C" 
			},
			{
				"x": 2.536046974,
				"y": -2.2292321151,
				"z": 1.1352442821,
				"element": "C" 
			},
			{
				"x": 1.7481266934,
				"y": -1.610709156,
				"z": 0.153851937,
				"element": "C" 
			},
			{
				"x": 2.0182525613,
				"y": -1.736715409,
				"z": -1.2101162506,
				"element": "N" 
			},
			{
				"x": -3.8645913799,
				"y": 0.4405662129,
				"z": 0.9319988378,
				"element": "H" 
			},
			{
				"x": -4.1522551811,
				"y": 2.1996199705,
				"z": 0.9691532006,
				"element": "H" 
			},
			{
				"x": -3.777608332,
				"y": 1.3178686704,
				"z": 2.4675374797,
				"element": "H" 
			},
			{
				"x": -2.0964759176,
				"y": 3.6836995058,
				"z": 1.5314048977,
				"element": "H" 
			},
			{
				"x": -0.5571869557,
				"y": 2.8426566506,
				"z": 1.8343067117,
				"element": "H" 
			},
			{
				"x": -1.885894235,
				"y": 2.6708236887,
				"z": 2.9830662761,
				"element": "H" 
			},
			{
				"x": -2.3672826862,
				"y": 0.8553756239,
				"z": -0.7314066904,
				"element": "H" 
			},
			{
				"x": -1.9154071548,
				"y": 2.5632902861,
				"z": -0.6562661459,
				"element": "H" 
			},
			{
				"x": 0.4094145707,
				"y": 1.65110877,
				"z": 0.2310423244,
				"element": "H" 
			},
			{
				"x": -0.0179792366,
				"y": 1.4927656842,
				"z": -1.4810339568,
				"element": "H" 
			},
			{
				"x": -0.4505098291,
				"y": 0.001687684,
				"z": 2.1984314434,
				"element": "H" 
			},
			{
				"x": 1.0035320296,
				"y": -1.0705287537,
				"z": 3.9499379582,
				"element": "H" 
			},
			{
				"x": 2.9027487137,
				"y": -2.5177804014,
				"z": 3.231747496,
				"element": "H" 
			},
			{
				"x": 3.3685683549,
				"y": -2.8562838001,
				"z": 0.8246111923,
				"element": "H" 
			},
			{
				"x": 2.455689359,
				"y": -2.6080417184,
				"z": -1.4763350888,
				"element": "H" 
			},
			{
				"x": 1.2225390179,
				"y": -1.5058841722,
				"z": -1.7901305762,
				"element": "H" 
			}
		],
		 "valence_orbital": [ 
			{
				"type": "occ",
				"energy": -0.29434,
				"method": "rhf"
			},
			{
				"type": "occ",
				"energy": -0.27635,
				"method": "rhf"
			},
			{
				"type": "occ",
				"energy": -0.22127,
				"method": "rhf"
			},
			{
				"type": "occ",
				"energy": -0.21743,
				"method": "rhf"
			},
			{
				"type": "occ",
				"energy": -0.18557,
				"method": "rhf"
			},
			{
				"type": "unocc",
				"energy": 0.01853,
				"method": "rhf"
			},
			{
				"type": "unocc",
				"energy": 0.03139,
				"method": "rhf"
			},
			{
				"type": "unocc",
				"energy": 0.08172,
				"method": "rhf"
			},
			{
				"type": "unocc",
				"energy": 0.09182,
				"method": "rhf"
			},
			{
				"type": "unocc",
				"energy": 0.10871,
				"method": "rhf"
			}
		],
		"cosmo_sigma_profile": { 
			"-0.025": 0.0,
			"-0.024": 0.0,
			"-0.023": 0.0,
			"-0.022": 0.0,
			"-0.021": 0.0,
			"-0.02": 0.0,
			"-0.019": 0.0,
			"-0.018": 0.0,
			"-0.017": 0.0,
			"-0.016": 0.0,
			"-0.015": 0.0,
			"-0.014": 0.0,
			"-0.013": 0.00116732178438,
			"-0.012": 1.13912763097,
			"-0.011": 1.13143698922,
			"-0.01": 2.05924626937,
			"-0.009": 2.05250799166,
			"-0.008": 2.87421288793,
			"-0.007": 2.45686688002,
			"-0.006": 3.32447627411,
			"-0.005": 9.54978164996,
			"-0.004": 20.7451761206,
			"-0.003": 26.0096673531,
			"-0.002": 28.0026347507,
			"-0.001": 31.7996133939,
			"0.0": 26.5271579903,
			"0.001": 11.712438069,
			"0.002": 9.25476609526,
			"0.003": 8.31534612924,
			"0.004": 9.03233250805,
			"0.005": 10.3558931328,
			"0.006": 10.5218164578,
			"0.007": 10.4475859432,
			"0.008": 5.73253142906,
			"0.009": 2.93041561596,
			"0.01": 1.85459038338,
			"0.011": 1.63287838761,
			"0.012": 0.493506143131,
			"0.013": 0.579168402138,
			"0.014": 0.657870562816,
			"0.015": 0.593016560944,
			"0.016": 0.0747777058427,
			"0.017": 0.0,
			"0.018": 0.0,
			"0.019": 0.0,
			"0.02": 0.0,
			"0.021": 0.0,
			"0.022": 0.0,
			"0.023": 0.0,
			"0.024": 0.0,
			"0.025": 0.0
		}
	}
}
