{
	 "smiles": "CC1=CC(=CC(C)=C1)C(N)C1=CN=CC=C1", 
	 "Tm": 321.15, 
	 "num_atms": 32, 
	 "gaussian": { 
		 "optdone": 1, 
		 "sigma_profile": "yes", 
		 "theory": "DFT", 
		 "functional": "B3LYP", 
		 "basiset": "6-31G**", 
		 "properties": { 
			 "R2extent": 4564.9522, 
			 "electric_dipole_moment_norm": 1.5626928713, 
			 "electric_quadrupole_moment_norm": 14.4039202372, 
			 "total_energy": -652.641510521, 
			 "HOMO_LUMO_gap": 0.20439, 
			 "cosmo_polarized_energy": -11.14, 
			 "cosmo_cavitation_energy": 34.9, 
			 "cosmo_dispersion_energy": -24.38, 
			 "cosmo_repulsion_energy": 1.93, 
			 "cosmo_total_nonelectrostatic_energy": 12.45, 
			 "SMD_solvation_energy": 3.65 
		},
		"coords": [
			{
				"x": -4.3009527078,
				"y": -1.0415811986,
				"z": -1.2458946394,
				"element": "C" 
			},
			{
				"x": -2.9669743077,
				"y": -0.4117256181,
				"z": -1.5751823804,
				"element": "C" 
			},
			{
				"x": -2.0614714958,
				"y": -0.0780801863,
				"z": -0.5658657375,
				"element": "C" 
			},
			{
				"x": -0.8144451689,
				"y": 0.4913891732,
				"z": -0.8645663348,
				"element": "C" 
			},
			{
				"x": -0.4855228093,
				"y": 0.7315233964,
				"z": -2.2002178143,
				"element": "C" 
			},
			{
				"x": -1.3723549156,
				"y": 0.4000693618,
				"z": -3.2356450507,
				"element": "C" 
			},
			{
				"x": -0.9858260363,
				"y": 0.6432570917,
				"z": -4.6766737848,
				"element": "C" 
			},
			{
				"x": -2.605547189,
				"y": -0.1666111522,
				"z": -2.907752782,
				"element": "C" 
			},
			{
				"x": 0.1353415493,
				"y": 0.9061422427,
				"z": 0.2628099599,
				"element": "C" 
			},
			{
				"x": 1.4884255033,
				"y": 1.1631633437,
				"z": -0.262863296,
				"element": "N" 
			},
			{
				"x": 0.1361811644,
				"y": -0.0659015075,
				"z": 1.4417361377,
				"element": "C" 
			},
			{
				"x": 0.4126847606,
				"y": -1.4314541542,
				"z": 1.2645155147,
				"element": "C" 
			},
			{
				"x": 0.5037718404,
				"y": -2.3208300537,
				"z": 2.2568940703,
				"element": "N" 
			},
			{
				"x": 0.3083464019,
				"y": -1.8721781621,
				"z": 3.5055209747,
				"element": "C" 
			},
			{
				"x": 0.017329532,
				"y": -0.5423877957,
				"z": 3.804275786,
				"element": "C" 
			},
			{
				"x": -0.0679839317,
				"y": 0.3711986063,
				"z": 2.7527409395,
				"element": "C" 
			},
			{
				"x": -5.1149178031,
				"y": -0.5732297518,
				"z": -1.8096954869,
				"element": "H" 
			},
			{
				"x": -4.5333840337,
				"y": -0.9531136287,
				"z": -0.1808972663,
				"element": "H" 
			},
			{
				"x": -4.3092702378,
				"y": -2.1095163845,
				"z": -1.4967828406,
				"element": "H" 
			},
			{
				"x": -2.3325106442,
				"y": -0.2652021988,
				"z": 0.4697985834,
				"element": "H" 
			},
			{
				"x": 0.467629557,
				"y": 1.1968508982,
				"z": -2.4293511819,
				"element": "H" 
			},
			{
				"x": -0.5024990374,
				"y": 1.6177840886,
				"z": -4.8017096379,
				"element": "H" 
			},
			{
				"x": -1.8574540959,
				"y": 0.6101600091,
				"z": -5.336753182,
				"element": "H" 
			},
			{
				"x": -0.2761848512,
				"y": -0.114836758,
				"z": -5.0311361191,
				"element": "H" 
			},
			{
				"x": -3.3037277089,
				"y": -0.4207346756,
				"z": -3.7032436063,
				"element": "H" 
			},
			{
				"x": -0.2213424137,
				"y": 1.8721295155,
				"z": 0.6485386707,
				"element": "H" 
			},
			{
				"x": 1.8999814997,
				"y": 0.2875794997,
				"z": -0.5818999374,
				"element": "H" 
			},
			{
				"x": 2.0816830757,
				"y": 1.4960985384,
				"z": 0.4935408927,
				"element": "H" 
			},
			{
				"x": 0.55944276,
				"y": -1.8246505462,
				"z": 0.2587097981,
				"element": "H" 
			},
			{
				"x": 0.3862418385,
				"y": -2.6129648028,
				"z": 4.2993716811,
				"element": "H" 
			},
			{
				"x": -0.1388452839,
				"y": -0.2310212964,
				"z": 4.8326736854,
				"element": "H" 
			},
			{
				"x": -0.2924448111,
				"y": 1.4177741058,
				"z": 2.9482043838,
				"element": "H" 
			}
		],
		 "valence_orbital": [ 
			{
				"type": "occ",
				"energy": -0.27014,
				"method": "rhf"
			},
			{
				"type": "occ",
				"energy": -0.2538,
				"method": "rhf"
			},
			{
				"type": "occ",
				"energy": -0.23583,
				"method": "rhf"
			},
			{
				"type": "occ",
				"energy": -0.23006,
				"method": "rhf"
			},
			{
				"type": "occ",
				"energy": -0.22843,
				"method": "rhf"
			},
			{
				"type": "unocc",
				"energy": -0.02404,
				"method": "rhf"
			},
			{
				"type": "unocc",
				"energy": -0.01384,
				"method": "rhf"
			},
			{
				"type": "unocc",
				"energy": 0.00341,
				"method": "rhf"
			},
			{
				"type": "unocc",
				"energy": 0.00963,
				"method": "rhf"
			},
			{
				"type": "unocc",
				"energy": 0.08836,
				"method": "rhf"
			}
		],
		"cosmo_sigma_profile": { 
			"-0.025": 0.0,
			"-0.024": 0.0,
			"-0.023": 0.0,
			"-0.022": 0.0,
			"-0.021": 0.0,
			"-0.02": 0.0,
			"-0.019": 0.0,
			"-0.018": 0.0,
			"-0.017": 0.0,
			"-0.016": 0.0,
			"-0.015": 0.0,
			"-0.014": 0.0,
			"-0.013": 0.0,
			"-0.012": 0.0,
			"-0.011": 0.0863819175006,
			"-0.01": 1.31061215932,
			"-0.009": 2.89368762014,
			"-0.008": 3.23358695521,
			"-0.007": 5.92114130881,
			"-0.006": 12.747275998,
			"-0.005": 13.4937120908,
			"-0.004": 22.8846063296,
			"-0.003": 24.6462738215,
			"-0.002": 26.558650765,
			"-0.001": 24.073987081,
			"0.0": 28.9759030986,
			"0.001": 21.5209156514,
			"0.002": 18.1284189472,
			"0.003": 16.85147866,
			"0.004": 11.0131090197,
			"0.005": 9.54595434258,
			"0.006": 9.12753594726,
			"0.007": 6.07039152129,
			"0.008": 2.76035440008,
			"0.009": 2.18812635871,
			"0.01": 1.46925681609,
			"0.011": 2.29744570682,
			"0.012": 1.03421235283,
			"0.013": 1.42099041561,
			"0.014": 1.86906385676,
			"0.015": 1.45851672548,
			"0.016": 1.28766708033,
			"0.017": 0.78304674777,
			"0.018": 0.00226858154735,
			"0.019": 0.0,
			"0.02": 0.0,
			"0.021": 0.0,
			"0.022": 0.0,
			"0.023": 0.0,
			"0.024": 0.0,
			"0.025": 0.0
		}
	}
}
