{
	 "smiles": "CC(C=CC=C(/C)C=CC1=C(C)CC(O)CC1(C)C)=CC=CC=C(/C)C=CC=C(/C)C1OC2(C)CC(O)CC(C)(C)C2=C1", 
	 "Tm": 457.15, 
	 "num_atms": 99, 
	 "gaussian": { 
		 "optdone": 1, 
		 "sigma_profile": "yes", 
		 "theory": "DFT", 
		 "functional": "B3LYP", 
		 "basiset": "6-31G**", 
		 "properties": { 
			 "R2extent": 54177.1514, 
			 "electric_dipole_moment_norm": 3.52048622352, 
			 "electric_quadrupole_moment_norm": 28.1513123215, 
			 "total_energy": -1783.55259523, 
			 "HOMO_LUMO_gap": 0.10072, 
			 "cosmo_polarized_energy": -22.65, 
			 "cosmo_cavitation_energy": 94.48, 
			 "cosmo_dispersion_energy": -60.33, 
			 "cosmo_repulsion_energy": 4.53, 
			 "cosmo_total_nonelectrostatic_energy": 38.68, 
			 "SMD_solvation_energy": 15.45 
		},
		"coords": [
			{
				"x": -6.2746307389,
				"y": 2.318874939,
				"z": 4.4638974738,
				"element": "C" 
			},
			{
				"x": -5.1408984552,
				"y": 1.9006703969,
				"z": 3.5512106883,
				"element": "C" 
			},
			{
				"x": -3.8189716567,
				"y": 2.360103929,
				"z": 3.9758811298,
				"element": "C" 
			},
			{
				"x": -2.79133729,
				"y": 2.7380213338,
				"z": 3.1707447732,
				"element": "C" 
			},
			{
				"x": -1.4720934285,
				"y": 3.216438749,
				"z": 3.5424848931,
				"element": "C" 
			},
			{
				"x": -1.0393183471,
				"y": 3.8172122503,
				"z": 4.6872806631,
				"element": "C" 
			},
			{
				"x": -1.959122525,
				"y": 4.2216324531,
				"z": 5.8162847348,
				"element": "C" 
			},
			{
				"x": 0.3754364031,
				"y": 4.1675362733,
				"z": 4.8721982842,
				"element": "C" 
			},
			{
				"x": 1.43882129,
				"y": 3.53595047,
				"z": 4.3311799548,
				"element": "C" 
			},
			{
				"x": 2.8580926194,
				"y": 3.9223629788,
				"z": 4.4790935519,
				"element": "C" 
			},
			{
				"x": 3.4361966785,
				"y": 4.1569904025,
				"z": 5.6816711712,
				"element": "C" 
			},
			{
				"x": 2.7348683181,
				"y": 4.0165676876,
				"z": 7.0127323406,
				"element": "C" 
			},
			{
				"x": 4.8793978497,
				"y": 4.6010368556,
				"z": 5.8187538114,
				"element": "C" 
			},
			{
				"x": 5.7639591869,
				"y": 4.3338366515,
				"z": 4.5994826009,
				"element": "C" 
			},
			{
				"x": 6.1690921637,
				"y": 2.9661476329,
				"z": 4.5146011587,
				"element": "O" 
			},
			{
				"x": 5.0069506825,
				"y": 4.6910168754,
				"z": 3.3268564273,
				"element": "C" 
			},
			{
				"x": 3.6422591754,
				"y": 3.9814210704,
				"z": 3.1474510504,
				"element": "C" 
			},
			{
				"x": 3.8497927124,
				"y": 2.5462185485,
				"z": 2.5998502887,
				"element": "C" 
			},
			{
				"x": 2.8462559181,
				"y": 4.794933403,
				"z": 2.0993333625,
				"element": "C" 
			},
			{
				"x": -5.4098529554,
				"y": 1.1283314423,
				"z": 2.4567337597,
				"element": "C" 
			},
			{
				"x": -4.4803942268,
				"y": 0.4849972893,
				"z": 1.5656796455,
				"element": "C" 
			},
			{
				"x": -4.8908047436,
				"y": -0.2435407919,
				"z": 0.4861584736,
				"element": "C" 
			},
			{
				"x": -4.1111229685,
				"y": -0.9871851735,
				"z": -0.4727686846,
				"element": "C" 
			},
			{
				"x": -2.7838332647,
				"y": -0.8943509081,
				"z": -0.7964646306,
				"element": "C" 
			},
			{
				"x": -1.8746432991,
				"y": 0.1733608724,
				"z": -0.2338786697,
				"element": "C" 
			},
			{
				"x": -2.1740804347,
				"y": -1.8088458901,
				"z": -1.7554545447,
				"element": "C" 
			},
			{
				"x": -2.5935201529,
				"y": -3.0586599644,
				"z": -2.0800132536,
				"element": "C" 
			},
			{
				"x": -1.9325824224,
				"y": -3.8777239433,
				"z": -3.0715376214,
				"element": "C" 
			},
			{
				"x": -2.2606003523,
				"y": -5.1361809688,
				"z": -3.4449805737,
				"element": "C" 
			},
			{
				"x": -3.3755827304,
				"y": -5.9554382751,
				"z": -2.8529091708,
				"element": "C" 
			},
			{
				"x": -1.4483531643,
				"y": -5.8832912843,
				"z": -4.4967202082,
				"element": "C" 
			},
			{
				"x": -0.5653279419,
				"y": -6.8262988973,
				"z": -3.8452136543,
				"element": "O" 
			},
			{
				"x": 0.8046125211,
				"y": -6.5907118067,
				"z": -4.2269048584,
				"element": "C" 
			},
			{
				"x": 1.3078538769,
				"y": -7.9158411091,
				"z": -4.8265388623,
				"element": "C" 
			},
			{
				"x": 1.6571068016,
				"y": -6.1714489395,
				"z": -2.9958714783,
				"element": "C" 
			},
			{
				"x": 2.6990177437,
				"y": -5.0706705023,
				"z": -3.2912156375,
				"element": "C" 
			},
			{
				"x": 2.1014379152,
				"y": -3.8215274671,
				"z": -2.9180273355,
				"element": "O" 
			},
			{
				"x": 3.1548919062,
				"y": -5.0658552208,
				"z": -4.7603647188,
				"element": "C" 
			},
			{
				"x": 2.0038461014,
				"y": -4.834616393,
				"z": -5.7918558037,
				"element": "C" 
			},
			{
				"x": 2.3788278339,
				"y": -5.5105060141,
				"z": -7.1335011762,
				"element": "C" 
			},
			{
				"x": 1.8128233613,
				"y": -3.3258525853,
				"z": -6.0548687762,
				"element": "C" 
			},
			{
				"x": 0.734173871,
				"y": -5.440739217,
				"z": -5.218314824,
				"element": "C" 
			},
			{
				"x": -0.5359660426,
				"y": -5.0591759387,
				"z": -5.3614276525,
				"element": "C" 
			},
			{
				"x": -6.1046160652,
				"y": 1.9592087634,
				"z": 5.4876287076,
				"element": "H" 
			},
			{
				"x": -6.3574712045,
				"y": 3.4114070566,
				"z": 4.5269928452,
				"element": "H" 
			},
			{
				"x": -7.2355641113,
				"y": 1.9229277134,
				"z": 4.1251681156,
				"element": "H" 
			},
			{
				"x": -3.6907359582,
				"y": 2.4352849571,
				"z": 5.0538139664,
				"element": "H" 
			},
			{
				"x": -2.9549976053,
				"y": 2.6745391105,
				"z": 2.0966558111,
				"element": "H" 
			},
			{
				"x": -0.7325936166,
				"y": 3.1149418814,
				"z": 2.7498064693,
				"element": "H" 
			},
			{
				"x": -2.9656238576,
				"y": 4.4545061278,
				"z": 5.4578536551,
				"element": "H" 
			},
			{
				"x": -2.0523160369,
				"y": 3.4271378762,
				"z": 6.5689534613,
				"element": "H" 
			},
			{
				"x": -1.5647471009,
				"y": 5.1012328773,
				"z": 6.3361997142,
				"element": "H" 
			},
			{
				"x": 0.5629784817,
				"y": 5.0165597756,
				"z": 5.5289341114,
				"element": "H" 
			},
			{
				"x": 1.2425262796,
				"y": 2.6855770256,
				"z": 3.6783840095,
				"element": "H" 
			},
			{
				"x": 3.3674783296,
				"y": 3.4547444315,
				"z": 7.7121980291,
				"element": "H" 
			},
			{
				"x": 1.7743963796,
				"y": 3.5076772747,
				"z": 6.9330045052,
				"element": "H" 
			},
			{
				"x": 2.5588352809,
				"y": 4.9959680695,
				"z": 7.4798531277,
				"element": "H" 
			},
			{
				"x": 5.3278276384,
				"y": 4.1234873206,
				"z": 6.7030632816,
				"element": "H" 
			},
			{
				"x": 4.8998339055,
				"y": 5.679678028,
				"z": 6.0429008196,
				"element": "H" 
			},
			{
				"x": 6.6598130524,
				"y": 4.9735288364,
				"z": 4.6666122844,
				"element": "H" 
			},
			{
				"x": 6.5835268256,
				"y": 2.7271927813,
				"z": 5.353498524,
				"element": "H" 
			},
			{
				"x": 4.8422993873,
				"y": 5.7761175711,
				"z": 3.3493920604,
				"element": "H" 
			},
			{
				"x": 5.6391301781,
				"y": 4.4853062664,
				"z": 2.4553277014,
				"element": "H" 
			},
			{
				"x": 4.4325871103,
				"y": 1.9438333546,
				"z": 3.2967841247,
				"element": "H" 
			},
			{
				"x": 2.8939832683,
				"y": 2.0478918357,
				"z": 2.4078430883,
				"element": "H" 
			},
			{
				"x": 4.3915290006,
				"y": 2.5851053771,
				"z": 1.6474004998,
				"element": "H" 
			},
			{
				"x": 2.6127598966,
				"y": 5.7992295113,
				"z": 2.4690084655,
				"element": "H" 
			},
			{
				"x": 3.4334799201,
				"y": 4.8993847579,
				"z": 1.1794973646,
				"element": "H" 
			},
			{
				"x": 1.9015762512,
				"y": 4.3097836115,
				"z": 1.8375133159,
				"element": "H" 
			},
			{
				"x": -6.4612688361,
				"y": 0.9193237102,
				"z": 2.2557091475,
				"element": "H" 
			},
			{
				"x": -3.4280416426,
				"y": 0.5393489581,
				"z": 1.8161162057,
				"element": "H" 
			},
			{
				"x": -5.9694771999,
				"y": -0.3084214084,
				"z": 0.3328110783,
				"element": "H" 
			},
			{
				"x": -4.6919492891,
				"y": -1.7039605288,
				"z": -1.0504064354,
				"element": "H" 
			},
			{
				"x": -1.4440424903,
				"y": -0.1248005723,
				"z": 0.7315962381,
				"element": "H" 
			},
			{
				"x": -1.0343849133,
				"y": 0.3620738553,
				"z": -0.9096552406,
				"element": "H" 
			},
			{
				"x": -2.4097028172,
				"y": 1.1147509882,
				"z": -0.075565498,
				"element": "H" 
			},
			{
				"x": -1.2611684728,
				"y": -1.4504697458,
				"z": -2.23306144,
				"element": "H" 
			},
			{
				"x": -3.4565799506,
				"y": -3.4712053335,
				"z": -1.5633974902,
				"element": "H" 
			},
			{
				"x": -1.0682690994,
				"y": -3.4218151077,
				"z": -3.5516630595,
				"element": "H" 
			},
			{
				"x": -4.1157847585,
				"y": -6.2223539866,
				"z": -3.6195749093,
				"element": "H" 
			},
			{
				"x": -3.9001513118,
				"y": -5.453293633,
				"z": -2.0385023358,
				"element": "H" 
			},
			{
				"x": -2.9717275653,
				"y": -6.8992119582,
				"z": -2.4658545034,
				"element": "H" 
			},
			{
				"x": -2.1570573666,
				"y": -6.4659262549,
				"z": -5.1113835195,
				"element": "H" 
			},
			{
				"x": 1.1444479922,
				"y": -8.7148950516,
				"z": -4.0964631959,
				"element": "H" 
			},
			{
				"x": 0.7522113017,
				"y": -8.1629033191,
				"z": -5.7355030365,
				"element": "H" 
			},
			{
				"x": 2.3759528876,
				"y": -7.8885515407,
				"z": -5.0626510793,
				"element": "H" 
			},
			{
				"x": 2.1636080402,
				"y": -7.0497718121,
				"z": -2.5800571127,
				"element": "H" 
			},
			{
				"x": 0.9808511004,
				"y": -5.789760396,
				"z": -2.2281361075,
				"element": "H" 
			},
			{
				"x": 3.5824116683,
				"y": -5.2486391926,
				"z": -2.6580690051,
				"element": "H" 
			},
			{
				"x": 2.7601916091,
				"y": -3.1279963078,
				"z": -3.0571407803,
				"element": "H" 
			},
			{
				"x": 3.9285608658,
				"y": -4.2997011012,
				"z": -4.9051980411,
				"element": "H" 
			},
			{
				"x": 3.6487349938,
				"y": -6.0252094785,
				"z": -4.9592235875,
				"element": "H" 
			},
			{
				"x": 1.6047957664,
				"y": -5.3284236407,
				"z": -7.885928301,
				"element": "H" 
			},
			{
				"x": 3.3233345835,
				"y": -5.1029661476,
				"z": -7.5130925098,
				"element": "H" 
			},
			{
				"x": 2.49839501,
				"y": -6.5921971367,
				"z": -7.0295159042,
				"element": "H" 
			},
			{
				"x": 1.0299781033,
				"y": -3.1513382425,
				"z": -6.8001405474,
				"element": "H" 
			},
			{
				"x": 1.5378560852,
				"y": -2.8039833133,
				"z": -5.1366292986,
				"element": "H" 
			},
			{
				"x": 2.7389355945,
				"y": -2.8892579288,
				"z": -6.4468468703,
				"element": "H" 
			},
			{
				"x": -0.9041333069,
				"y": -4.2467977805,
				"z": -5.9772890222,
				"element": "H" 
			}
		],
		 "valence_orbital": [ 
			{
				"type": "occ",
				"energy": -0.23554,
				"method": "rhf"
			},
			{
				"type": "occ",
				"energy": -0.22109,
				"method": "rhf"
			},
			{
				"type": "occ",
				"energy": -0.2176,
				"method": "rhf"
			},
			{
				"type": "occ",
				"energy": -0.19383,
				"method": "rhf"
			},
			{
				"type": "occ",
				"energy": -0.16684,
				"method": "rhf"
			},
			{
				"type": "unocc",
				"energy": -0.06612,
				"method": "rhf"
			},
			{
				"type": "unocc",
				"energy": -0.03858,
				"method": "rhf"
			},
			{
				"type": "unocc",
				"energy": 0.00087,
				"method": "rhf"
			},
			{
				"type": "unocc",
				"energy": 0.02108,
				"method": "rhf"
			},
			{
				"type": "unocc",
				"energy": 0.02172,
				"method": "rhf"
			}
		],
		"cosmo_sigma_profile": { 
			"-0.025": 0.0,
			"-0.024": 0.0,
			"-0.023": 0.0,
			"-0.022": 0.0,
			"-0.021": 0.0,
			"-0.02": 0.0,
			"-0.019": 0.0,
			"-0.018": 0.0,
			"-0.017": 0.0,
			"-0.016": 0.00172757278834,
			"-0.015": 0.83211746471,
			"-0.014": 2.15360485969,
			"-0.013": 1.43108818514,
			"-0.012": 1.4338925907,
			"-0.011": 2.67189349691,
			"-0.01": 2.01750635143,
			"-0.009": 1.50288192055,
			"-0.008": 1.74837018931,
			"-0.007": 2.29231641226,
			"-0.006": 4.59711578255,
			"-0.005": 18.1048660489,
			"-0.004": 56.6968028953,
			"-0.003": 87.755333892,
			"-0.002": 98.4694099483,
			"-0.001": 84.3316011357,
			"0.0": 86.4677081699,
			"0.001": 74.6662160286,
			"0.002": 46.9411633497,
			"0.003": 31.5565062064,
			"0.004": 32.0397135162,
			"0.005": 38.1808961061,
			"0.006": 25.9061751383,
			"0.007": 6.7877615877,
			"0.008": 6.92140722298,
			"0.009": 5.73430660375,
			"0.01": 3.88654767578,
			"0.011": 2.63491097864,
			"0.012": 2.71896519321,
			"0.013": 2.5955234224,
			"0.014": 1.71875516611,
			"0.015": 0.285537998044,
			"0.016": 0.0,
			"0.017": 0.0,
			"0.018": 0.0,
			"0.019": 0.0,
			"0.02": 0.0,
			"0.021": 0.0,
			"0.022": 0.0,
			"0.023": 0.0,
			"0.024": 0.0,
			"0.025": 0.0
		}
	}
}
