{
	 "smiles": "NC1=NC(S)=C(C#N)C(N)=C1", 
	 "Tm": 623.15, 
	 "num_atms": 17, 
	 "gaussian": { 
		 "optdone": 1, 
		 "sigma_profile": "yes", 
		 "theory": "DFT", 
		 "functional": "B3LYP", 
		 "basiset": "6-31G**", 
		 "properties": { 
			 "R2extent": 2468.4137, 
			 "electric_dipole_moment_norm": 6.62513185227, 
			 "electric_quadrupole_moment_norm": 20.0495686642, 
			 "total_energy": -849.44983552, 
			 "HOMO_LUMO_gap": 0.18964, 
			 "cosmo_polarized_energy": -18.83, 
			 "cosmo_cavitation_energy": 24.04, 
			 "cosmo_dispersion_energy": -18.02, 
			 "cosmo_repulsion_energy": 1.43, 
			 "cosmo_total_nonelectrostatic_energy": 7.45, 
			 "SMD_solvation_energy": 3.53 
		},
		"coords": [
			{
				"x": 0.9661430064,
				"y": 0.2657135877,
				"z": 2.0669497534,
				"element": "N" 
			},
			{
				"x": 0.2276278622,
				"y": 0.4103566325,
				"z": 0.9198769144,
				"element": "C" 
			},
			{
				"x": 0.9279626335,
				"y": 0.8079955344,
				"z": -0.1649483037,
				"element": "N" 
			},
			{
				"x": 0.2739832053,
				"y": 0.9201956715,
				"z": -1.3140987057,
				"element": "C" 
			},
			{
				"x": 1.2105476507,
				"y": 1.4377487495,
				"z": -2.739635496,
				"element": "S" 
			},
			{
				"x": -1.103580853,
				"y": 0.6593625556,
				"z": -1.467883828,
				"element": "C" 
			},
			{
				"x": -1.7777057265,
				"y": 0.7787940622,
				"z": -2.7115504861,
				"element": "C" 
			},
			{
				"x": -2.3939478209,
				"y": 0.8497958524,
				"z": -3.6998181651,
				"element": "N" 
			},
			{
				"x": -1.8360620758,
				"y": 0.2501032175,
				"z": -0.3131717163,
				"element": "C" 
			},
			{
				"x": -3.1785122418,
				"y": 0.0224502493,
				"z": -0.3998646076,
				"element": "N" 
			},
			{
				"x": -1.1436484321,
				"y": 0.1236418224,
				"z": 0.8941255359,
				"element": "C" 
			},
			{
				"x": 0.4896733167,
				"y": 0.2737424953,
				"z": 2.9547554761,
				"element": "H" 
			},
			{
				"x": 1.8828122903,
				"y": 0.6872248682,
				"z": 2.0450769381,
				"element": "H" 
			},
			{
				"x": 2.3662538702,
				"y": 1.5153716243,
				"z": -2.053621119,
				"element": "H" 
			},
			{
				"x": -3.606894918,
				"y": -0.033525366,
				"z": -1.3119552451,
				"element": "H" 
			},
			{
				"x": -3.6437942997,
				"y": -0.4605554786,
				"z": 0.351012001,
				"element": "H" 
			},
			{
				"x": -1.6611574676,
				"y": -0.1919160783,
				"z": 1.7945510538,
				"element": "H" 
			}
		],
		 "valence_orbital": [ 
			{
				"type": "occ",
				"energy": -0.32695,
				"method": "rhf"
			},
			{
				"type": "occ",
				"energy": -0.27397,
				"method": "rhf"
			},
			{
				"type": "occ",
				"energy": -0.25876,
				"method": "rhf"
			},
			{
				"type": "occ",
				"energy": -0.23664,
				"method": "rhf"
			},
			{
				"type": "occ",
				"energy": -0.21958,
				"method": "rhf"
			},
			{
				"type": "unocc",
				"energy": -0.02994,
				"method": "rhf"
			},
			{
				"type": "unocc",
				"energy": -0.0096,
				"method": "rhf"
			},
			{
				"type": "unocc",
				"energy": 0.00707,
				"method": "rhf"
			},
			{
				"type": "unocc",
				"energy": 0.04771,
				"method": "rhf"
			},
			{
				"type": "unocc",
				"energy": 0.06682,
				"method": "rhf"
			}
		],
		"cosmo_sigma_profile": { 
			"-0.025": 0.0,
			"-0.024": 0.0,
			"-0.023": 0.0,
			"-0.022": 0.0,
			"-0.021": 0.0,
			"-0.02": 0.0,
			"-0.019": 0.0,
			"-0.018": 0.0,
			"-0.017": 0.0,
			"-0.016": 0.0,
			"-0.015": 0.326460727185,
			"-0.014": 2.63305281906,
			"-0.013": 4.61511436251,
			"-0.012": 4.83409087758,
			"-0.011": 5.89703884331,
			"-0.01": 6.15996070043,
			"-0.009": 6.0569526605,
			"-0.008": 6.23870060224,
			"-0.007": 5.20383077266,
			"-0.006": 5.73866720929,
			"-0.005": 4.97009542919,
			"-0.004": 5.21609183945,
			"-0.003": 4.11204897454,
			"-0.002": 5.25439643971,
			"-0.001": 7.36871827345,
			"0.0": 11.1734156018,
			"0.001": 18.1127783209,
			"0.002": 14.5945637472,
			"0.003": 15.7790157003,
			"0.004": 12.9467556191,
			"0.005": 8.64936521427,
			"0.006": 7.77160201174,
			"0.007": 6.83336516109,
			"0.008": 5.22070343655,
			"0.009": 4.84751730322,
			"0.01": 5.5546754325,
			"0.011": 3.57490223294,
			"0.012": 2.72168797946,
			"0.013": 2.14292090594,
			"0.014": 0.414928477828,
			"0.015": 0.0,
			"0.016": 0.0,
			"0.017": 0.0,
			"0.018": 0.0,
			"0.019": 0.0,
			"0.02": 0.0,
			"0.021": 0.0,
			"0.022": 0.0,
			"0.023": 0.0,
			"0.024": 0.0,
			"0.025": 0.0
		}
	}
}
