{
	 "smiles": "CC1=CC=C(C=C1)S(=O)(=O)CC#N", 
	 "Tm": 422.65, 
	 "num_atms": 22, 
	 "gaussian": { 
		 "optdone": 1, 
		 "sigma_profile": "yes", 
		 "theory": "DFT", 
		 "functional": "B3LYP", 
		 "basiset": "6-31G**", 
		 "properties": { 
			 "R2extent": 3633.5645, 
			 "electric_dipole_moment_norm": 8.71749328821, 
			 "electric_quadrupole_moment_norm": 21.3705137954, 
			 "total_energy": -951.679847971, 
			 "HOMO_LUMO_gap": 0.22242, 
			 "cosmo_polarized_energy": -19.62, 
			 "cosmo_cavitation_energy": 28.89, 
			 "cosmo_dispersion_energy": -20.46, 
			 "cosmo_repulsion_energy": 1.58, 
			 "cosmo_total_nonelectrostatic_energy": 10.01, 
			 "SMD_solvation_energy": 5.84 
		},
		"coords": [
			{
				"x": 1.8939926129,
				"y": 3.1037917797,
				"z": -1.4634645378,
				"element": "C" 
			},
			{
				"x": 1.240895096,
				"y": 1.8090565847,
				"z": -1.0457428014,
				"element": "C" 
			},
			{
				"x": 0.1406712595,
				"y": 1.8101360704,
				"z": -0.1748140467,
				"element": "C" 
			},
			{
				"x": -0.4501020006,
				"y": 0.6192003955,
				"z": 0.2414292792,
				"element": "C" 
			},
			{
				"x": 0.0667912986,
				"y": -0.5904826666,
				"z": -0.2276313783,
				"element": "C" 
			},
			{
				"x": 1.1652251284,
				"y": -0.6249466698,
				"z": -1.0894776684,
				"element": "C" 
			},
			{
				"x": 1.7415168896,
				"y": 0.5771315393,
				"z": -1.4937981147,
				"element": "C" 
			},
			{
				"x": -0.6897908493,
				"y": -2.1296822764,
				"z": 0.29281654,
				"element": "S" 
			},
			{
				"x": 0.2920336623,
				"y": -3.2093425236,
				"z": 0.1449032135,
				"element": "O" 
			},
			{
				"x": -1.4120567956,
				"y": -1.8972948782,
				"z": 1.5481452949,
				"element": "O" 
			},
			{
				"x": -1.9693656018,
				"y": -2.3737071639,
				"z": -1.0329143212,
				"element": "C" 
			},
			{
				"x": -2.733083966,
				"y": -3.5922891371,
				"z": -0.8207692698,
				"element": "C" 
			},
			{
				"x": -3.3460028241,
				"y": -4.5636886121,
				"z": -0.6570114317,
				"element": "N" 
			},
			{
				"x": 2.6878866261,
				"y": 3.3824563867,
				"z": -0.7595765755,
				"element": "H" 
			},
			{
				"x": 1.1744866726,
				"y": 3.9270723999,
				"z": -1.4850697886,
				"element": "H" 
			},
			{
				"x": 2.3511197334,
				"y": 3.0210924543,
				"z": -2.4534838733,
				"element": "H" 
			},
			{
				"x": -0.2538084207,
				"y": 2.7558204737,
				"z": 0.1868231508,
				"element": "H" 
			},
			{
				"x": -1.2862117681,
				"y": 0.6195663718,
				"z": 0.9328907637,
				"element": "H" 
			},
			{
				"x": 1.5668800022,
				"y": -1.5778900493,
				"z": -1.4177648549,
				"element": "H" 
			},
			{
				"x": 2.5977377616,
				"y": 0.559504239,
				"z": -2.1625943391,
				"element": "H" 
			},
			{
				"x": -2.6235707658,
				"y": -1.497852116,
				"z": -1.0112720664,
				"element": "H" 
			},
			{
				"x": -1.4378437512,
				"y": -2.4110526017,
				"z": -1.9877231743,
				"element": "H" 
			}
		],
		 "valence_orbital": [ 
			{
				"type": "occ",
				"energy": -0.3296,
				"method": "rhf"
			},
			{
				"type": "occ",
				"energy": -0.31367,
				"method": "rhf"
			},
			{
				"type": "occ",
				"energy": -0.30125,
				"method": "rhf"
			},
			{
				"type": "occ",
				"energy": -0.28496,
				"method": "rhf"
			},
			{
				"type": "occ",
				"energy": -0.28025,
				"method": "rhf"
			},
			{
				"type": "unocc",
				"energy": -0.05783,
				"method": "rhf"
			},
			{
				"type": "unocc",
				"energy": -0.0365,
				"method": "rhf"
			},
			{
				"type": "unocc",
				"energy": -0.00598,
				"method": "rhf"
			},
			{
				"type": "unocc",
				"energy": 0.02336,
				"method": "rhf"
			},
			{
				"type": "unocc",
				"energy": 0.04983,
				"method": "rhf"
			}
		],
		"cosmo_sigma_profile": { 
			"-0.025": 0.0,
			"-0.024": 0.0,
			"-0.023": 0.0,
			"-0.022": 0.0,
			"-0.021": 0.0,
			"-0.02": 0.0,
			"-0.019": 0.0,
			"-0.018": 0.0,
			"-0.017": 0.0,
			"-0.016": 0.0,
			"-0.015": 0.0,
			"-0.014": 0.0,
			"-0.013": 0.0,
			"-0.012": 2.8045366476,
			"-0.011": 4.92555901114,
			"-0.01": 4.81639691669,
			"-0.009": 4.45961581758,
			"-0.008": 4.77814185186,
			"-0.007": 8.04702157855,
			"-0.006": 12.8788006461,
			"-0.005": 15.9645783688,
			"-0.004": 13.6918069599,
			"-0.003": 14.2325089496,
			"-0.002": 12.6214083581,
			"-0.001": 17.1221143235,
			"0.0": 13.916096103,
			"0.001": 13.6250099135,
			"0.002": 15.4042186536,
			"0.003": 13.9103474637,
			"0.004": 5.71887133527,
			"0.005": 4.18124403673,
			"0.006": 5.48772412642,
			"0.007": 6.41000142077,
			"0.008": 6.53446806182,
			"0.009": 8.04741919081,
			"0.01": 11.8308643283,
			"0.011": 8.65948820485,
			"0.012": 1.56633061658,
			"0.013": 0.074736449129,
			"0.014": 0.0,
			"0.015": 0.0,
			"0.016": 0.0,
			"0.017": 0.0,
			"0.018": 0.0,
			"0.019": 0.0,
			"0.02": 0.0,
			"0.021": 0.0,
			"0.022": 0.0,
			"0.023": 0.0,
			"0.024": 0.0,
			"0.025": 0.0
		}
	}
}
