{
	 "smiles": "CCOC(=O)C1C(C(C(=O)OCC)C(O)(NC1(O)C(F)(F)F)C(F)(F)F)C1=CC=CC=C1O", 
	 "Tm": 364.15, 
	 "num_atms": 54, 
	 "gaussian": { 
		 "optdone": 1, 
		 "sigma_profile": "yes", 
		 "theory": "DFT", 
		 "functional": "B3LYP", 
		 "basiset": "6-31G**", 
		 "properties": { 
			 "R2extent": 11974.4968, 
			 "electric_dipole_moment_norm": 5.96388467192, 
			 "electric_quadrupole_moment_norm": 22.8728285369, 
			 "total_energy": -1917.05516322, 
			 "HOMO_LUMO_gap": 0.21529, 
			 "cosmo_polarized_energy": -22.57, 
			 "cosmo_cavitation_energy": 55.34, 
			 "cosmo_dispersion_energy": -33.95, 
			 "cosmo_repulsion_energy": 2.39, 
			 "cosmo_total_nonelectrostatic_energy": 23.78, 
			 "SMD_solvation_energy": 11.83 
		},
		"coords": [
			{
				"x": -4.4497147859,
				"y": 1.0450004357,
				"z": -1.1866545078,
				"element": "C" 
			},
			{
				"x": -3.660472401,
				"y": -0.1349812125,
				"z": -0.653220207,
				"element": "C" 
			},
			{
				"x": -2.3203939067,
				"y": -0.0353526619,
				"z": -1.1953214592,
				"element": "O" 
			},
			{
				"x": -1.4596303108,
				"y": -1.0015576275,
				"z": -0.8587210694,
				"element": "C" 
			},
			{
				"x": -1.7755888803,
				"y": -1.9301578119,
				"z": -0.1295122011,
				"element": "O" 
			},
			{
				"x": -0.1380253216,
				"y": -0.8328077877,
				"z": -1.6120782964,
				"element": "C" 
			},
			{
				"x": 0.623694976,
				"y": 0.5334151583,
				"z": -1.4373799454,
				"element": "C" 
			},
			{
				"x": 1.4375560055,
				"y": 0.6460831228,
				"z": -0.12055408,
				"element": "C" 
			},
			{
				"x": 0.6935512136,
				"y": 0.8593912251,
				"z": 1.1990047072,
				"element": "C" 
			},
			{
				"x": 1.0321162292,
				"y": 1.6976123808,
				"z": 2.0102256592,
				"element": "O" 
			},
			{
				"x": -0.3356180658,
				"y": 0.0209733967,
				"z": 1.3659899518,
				"element": "O" 
			},
			{
				"x": -0.9760832722,
				"y": 0.0033511084,
				"z": 2.6695936747,
				"element": "C" 
			},
			{
				"x": -1.929332001,
				"y": 1.1709656724,
				"z": 2.8730834191,
				"element": "C" 
			},
			{
				"x": 2.4315576189,
				"y": -0.5630210692,
				"z": -0.0820473171,
				"element": "C" 
			},
			{
				"x": 3.4619585169,
				"y": -0.3436690105,
				"z": -1.0495774559,
				"element": "O" 
			},
			{
				"x": 1.7636962389,
				"y": -1.7999424473,
				"z": -0.3175466643,
				"element": "N" 
			},
			{
				"x": 0.8344500442,
				"y": -2.0402800279,
				"z": -1.4175843485,
				"element": "C" 
			},
			{
				"x": 0.1985155334,
				"y": -3.2595369465,
				"z": -1.1743768271,
				"element": "O" 
			},
			{
				"x": 1.5680431595,
				"y": -2.3472685985,
				"z": -2.7643586713,
				"element": "C" 
			},
			{
				"x": 2.2017043213,
				"y": -1.2810407498,
				"z": -3.2938643629,
				"element": "F" 
			},
			{
				"x": 0.69306152,
				"y": -2.7774319914,
				"z": -3.6954105517,
				"element": "F" 
			},
			{
				"x": 2.4875519543,
				"y": -3.3128983242,
				"z": -2.5759630847,
				"element": "F" 
			},
			{
				"x": 3.1676395294,
				"y": -0.7076618145,
				"z": 1.2772722259,
				"element": "C" 
			},
			{
				"x": 3.9077368932,
				"y": 0.4005724577,
				"z": 1.5176161085,
				"element": "F" 
			},
			{
				"x": 2.3452990854,
				"y": -0.8951118741,
				"z": 2.3223636014,
				"element": "F" 
			},
			{
				"x": 4.0104305377,
				"y": -1.7586916996,
				"z": 1.237486468,
				"element": "F" 
			},
			{
				"x": -0.1734509707,
				"y": 1.7758313519,
				"z": -1.8220090373,
				"element": "C" 
			},
			{
				"x": -0.5082105383,
				"y": 2.8093269563,
				"z": -0.9420038585,
				"element": "C" 
			},
			{
				"x": -1.2102694309,
				"y": 3.9426813877,
				"z": -1.3644855635,
				"element": "C" 
			},
			{
				"x": -1.5909890249,
				"y": 4.0640710299,
				"z": -2.6981964314,
				"element": "C" 
			},
			{
				"x": -1.254902474,
				"y": 3.0586495858,
				"z": -3.6047580698,
				"element": "C" 
			},
			{
				"x": -0.5481953153,
				"y": 1.9358068626,
				"z": -3.1731039747,
				"element": "C" 
			},
			{
				"x": -0.1805901767,
				"y": 0.9419898141,
				"z": -4.0434326682,
				"element": "O" 
			},
			{
				"x": -3.9828786825,
				"y": 1.9897880622,
				"z": -0.8952675065,
				"element": "H" 
			},
			{
				"x": -5.4683397408,
				"y": 1.0190136866,
				"z": -0.7871753115,
				"element": "H" 
			},
			{
				"x": -4.5066154763,
				"y": 1.0148230928,
				"z": -2.278276086,
				"element": "H" 
			},
			{
				"x": -4.0884235529,
				"y": -1.0952093697,
				"z": -0.9568942269,
				"element": "H" 
			},
			{
				"x": -3.5993927683,
				"y": -0.1321696723,
				"z": 0.4387775012,
				"element": "H" 
			},
			{
				"x": -0.4467800448,
				"y": -0.8497280156,
				"z": -2.6617516333,
				"element": "H" 
			},
			{
				"x": 1.4044515731,
				"y": 0.4624528869,
				"z": -2.1989635109,
				"element": "H" 
			},
			{
				"x": 2.0613579484,
				"y": 1.5394456364,
				"z": -0.2029608767,
				"element": "H" 
			},
			{
				"x": -0.1910178202,
				"y": -0.0015156127,
				"z": 3.4296155679,
				"element": "H" 
			},
			{
				"x": -1.5002133052,
				"y": -0.9538216687,
				"z": 2.6791218343,
				"element": "H" 
			},
			{
				"x": -2.6750424142,
				"y": 1.2157155723,
				"z": 2.0739290869,
				"element": "H" 
			},
			{
				"x": -2.4578996425,
				"y": 1.045639841,
				"z": 3.8240869988,
				"element": "H" 
			},
			{
				"x": -1.3842493127,
				"y": 2.1159965989,
				"z": 2.902419868,
				"element": "H" 
			},
			{
				"x": 4.0043998972,
				"y": 0.4040999116,
				"z": -0.7578967146,
				"element": "H" 
			},
			{
				"x": 2.3975474091,
				"y": -2.5888815941,
				"z": -0.2374358619,
				"element": "H" 
			},
			{
				"x": -0.5008362432,
				"y": -3.0774188971,
				"z": -0.5145905191,
				"element": "H" 
			},
			{
				"x": -0.2034099975,
				"y": 2.7579648042,
				"z": 0.0958476319,
				"element": "H" 
			},
			{
				"x": -1.4463689343,
				"y": 4.7258184172,
				"z": -0.6509182305,
				"element": "H" 
			},
			{
				"x": -2.1363383354,
				"y": 4.9382658936,
				"z": -3.0412626806,
				"element": "H" 
			},
			{
				"x": -1.5322547799,
				"y": 3.146790542,
				"z": -4.6534957315,
				"element": "H" 
			},
			{
				"x": -0.4575922781,
				"y": 1.1774195932,
				"z": -4.9380847615,
				"element": "H" 
			}
		],
		 "valence_orbital": [ 
			{
				"type": "occ",
				"energy": -0.28455,
				"method": "rhf"
			},
			{
				"type": "occ",
				"energy": -0.27375,
				"method": "rhf"
			},
			{
				"type": "occ",
				"energy": -0.25779,
				"method": "rhf"
			},
			{
				"type": "occ",
				"energy": -0.25476,
				"method": "rhf"
			},
			{
				"type": "occ",
				"energy": -0.22913,
				"method": "rhf"
			},
			{
				"type": "unocc",
				"energy": -0.01384,
				"method": "rhf"
			},
			{
				"type": "unocc",
				"energy": -0.00441,
				"method": "rhf"
			},
			{
				"type": "unocc",
				"energy": 0.00065,
				"method": "rhf"
			},
			{
				"type": "unocc",
				"energy": 0.00456,
				"method": "rhf"
			},
			{
				"type": "unocc",
				"energy": 0.05843,
				"method": "rhf"
			}
		],
		"cosmo_sigma_profile": { 
			"-0.025": 0.0,
			"-0.024": 0.0,
			"-0.023": 0.0,
			"-0.022": 0.0,
			"-0.021": 0.0,
			"-0.02": 0.0,
			"-0.019": 0.0247245018269,
			"-0.018": 0.728866974939,
			"-0.017": 0.913620682234,
			"-0.016": 2.43072291881,
			"-0.015": 1.66736704752,
			"-0.014": 1.69181913157,
			"-0.013": 2.36882265423,
			"-0.012": 1.68407017141,
			"-0.011": 2.38105299858,
			"-0.01": 3.08907521277,
			"-0.009": 3.3150707627,
			"-0.008": 2.92476450315,
			"-0.007": 4.78343228845,
			"-0.006": 11.0512334622,
			"-0.005": 24.2927174595,
			"-0.004": 33.2439411392,
			"-0.003": 31.4603389249,
			"-0.002": 30.3505608435,
			"-0.001": 32.8401631397,
			"0.0": 33.7260058155,
			"0.001": 32.087050885,
			"0.002": 50.6317220869,
			"0.003": 39.2236233905,
			"0.004": 22.1284146214,
			"0.005": 18.5311983593,
			"0.006": 13.8220959632,
			"0.007": 9.96127171845,
			"0.008": 6.71261945812,
			"0.009": 5.38390014358,
			"0.01": 5.67395937814,
			"0.011": 5.70752494511,
			"0.012": 1.58536193465,
			"0.013": 0.0,
			"0.014": 0.0,
			"0.015": 0.0,
			"0.016": 0.0,
			"0.017": 0.0,
			"0.018": 0.0,
			"0.019": 0.0,
			"0.02": 0.0,
			"0.021": 0.0,
			"0.022": 0.0,
			"0.023": 0.0,
			"0.024": 0.0,
			"0.025": 0.0
		}
	}
}
