{
	 "smiles": "CC(NC(=O)OCC1=CC=CC=C1)C(=O)N1CCNC(=O)C1", 
	 "Tm": 428.15, 
	 "num_atms": 41, 
	 "gaussian": { 
		 "optdone": 1, 
		 "sigma_profile": "yes", 
		 "theory": "DFT", 
		 "functional": "B3LYP", 
		 "basiset": "6-31G**", 
		 "properties": { 
			 "R2extent": 9823.8529, 
			 "electric_dipole_moment_norm": 4.02600151515, 
			 "electric_quadrupole_moment_norm": 34.2751432588, 
			 "total_energy": -1048.24555739, 
			 "HOMO_LUMO_gap": 0.23284, 
			 "cosmo_polarized_energy": -24.35, 
			 "cosmo_cavitation_energy": 44.76, 
			 "cosmo_dispersion_energy": -30.69, 
			 "cosmo_repulsion_energy": 2.4, 
			 "cosmo_total_nonelectrostatic_energy": 16.47, 
			 "SMD_solvation_energy": 8.11 
		},
		"coords": [
			{
				"x": -0.9071151797,
				"y": -0.7324817432,
				"z": -2.3344360757,
				"element": "C" 
			},
			{
				"x": -1.6473788993,
				"y": -0.8121389646,
				"z": -0.9821976715,
				"element": "C" 
			},
			{
				"x": -2.5291298903,
				"y": 0.3208460006,
				"z": -0.7734154044,
				"element": "N" 
			},
			{
				"x": -2.1604322493,
				"y": 1.5610064202,
				"z": -0.3513960144,
				"element": "C" 
			},
			{
				"x": -2.9232115568,
				"y": 2.4919926414,
				"z": -0.164443154,
				"element": "O" 
			},
			{
				"x": -0.8084806581,
				"y": 1.6288635271,
				"z": -0.1630965516,
				"element": "O" 
			},
			{
				"x": -0.32763649,
				"y": 2.9111412565,
				"z": 0.3081219532,
				"element": "C" 
			},
			{
				"x": 1.1767308333,
				"y": 2.8642291122,
				"z": 0.3158922661,
				"element": "C" 
			},
			{
				"x": 1.9065856812,
				"y": 3.2754721624,
				"z": -0.806256512,
				"element": "C" 
			},
			{
				"x": 3.3004510579,
				"y": 3.2129412657,
				"z": -0.8099904571,
				"element": "C" 
			},
			{
				"x": 3.9808416744,
				"y": 2.7360208716,
				"z": 0.3122760209,
				"element": "C" 
			},
			{
				"x": 3.2625504073,
				"y": 2.3236871474,
				"z": 1.4367187231,
				"element": "C" 
			},
			{
				"x": 1.8689912284,
				"y": 2.3886139153,
				"z": 1.4364944053,
				"element": "C" 
			},
			{
				"x": -2.5381058792,
				"y": -2.0673695261,
				"z": -0.935009956,
				"element": "C" 
			},
			{
				"x": -3.7483426231,
				"y": -1.9683499715,
				"z": -1.1315913279,
				"element": "O" 
			},
			{
				"x": -1.9403033365,
				"y": -3.2827221523,
				"z": -0.7188363455,
				"element": "N" 
			},
			{
				"x": -2.7563142368,
				"y": -4.4936454925,
				"z": -0.7535409683,
				"element": "C" 
			},
			{
				"x": -2.7264258498,
				"y": -5.1640525166,
				"z": 0.6159408031,
				"element": "C" 
			},
			{
				"x": -1.3429979681,
				"y": -5.3275346516,
				"z": 1.0549754435,
				"element": "N" 
			},
			{
				"x": -0.2821664872,
				"y": -4.5608587576,
				"z": 0.6715869727,
				"element": "C" 
			},
			{
				"x": 0.8417996398,
				"y": -4.6965960335,
				"z": 1.1328093699,
				"element": "O" 
			},
			{
				"x": -0.5311683432,
				"y": -3.5248004817,
				"z": -0.433530116,
				"element": "C" 
			},
			{
				"x": -0.2295984881,
				"y": -1.5793356433,
				"z": -2.4808559487,
				"element": "H" 
			},
			{
				"x": -1.6298588518,
				"y": -0.7174009013,
				"z": -3.1552926628,
				"element": "H" 
			},
			{
				"x": -0.3186036875,
				"y": 0.1868900265,
				"z": -2.3630410922,
				"element": "H" 
			},
			{
				"x": -0.9104904961,
				"y": -0.8270772498,
				"z": -0.1739691481,
				"element": "H" 
			},
			{
				"x": -3.5157145143,
				"y": 0.1534210351,
				"z": -0.9237186964,
				"element": "H" 
			},
			{
				"x": -0.7086020955,
				"y": 3.6952459299,
				"z": -0.3514107721,
				"element": "H" 
			},
			{
				"x": -0.732021407,
				"y": 3.0931630986,
				"z": 1.3086992619,
				"element": "H" 
			},
			{
				"x": 1.3776599245,
				"y": 3.6497499013,
				"z": -1.6792945214,
				"element": "H" 
			},
			{
				"x": 3.8548718306,
				"y": 3.5393017664,
				"z": -1.685291828,
				"element": "H" 
			},
			{
				"x": 5.0661394934,
				"y": 2.6897951255,
				"z": 0.3123762658,
				"element": "H" 
			},
			{
				"x": 3.787450017,
				"y": 1.9552295615,
				"z": 2.3134459014,
				"element": "H" 
			},
			{
				"x": 1.3108415513,
				"y": 2.069501106,
				"z": 2.3131873414,
				"element": "H" 
			},
			{
				"x": -2.3573089163,
				"y": -5.1761729427,
				"z": -1.5161019562,
				"element": "H" 
			},
			{
				"x": -3.771656952,
				"y": -4.2079767784,
				"z": -1.0250842418,
				"element": "H" 
			},
			{
				"x": -3.199956358,
				"y": -6.1501613111,
				"z": 0.556620535,
				"element": "H" 
			},
			{
				"x": -3.2974221013,
				"y": -4.559219585,
				"z": 1.3336475961,
				"element": "H" 
			},
			{
				"x": -1.1379287085,
				"y": -5.9618768549,
				"z": 1.816376871,
				"element": "H" 
			},
			{
				"x": -0.0281624376,
				"y": -2.6143648195,
				"z": -0.1121682089,
				"element": "H" 
			},
			{
				"x": -0.0023786778,
				"y": -3.8871754937,
				"z": -1.3276000992,
				"element": "H" 
			}
		],
		 "valence_orbital": [ 
			{
				"type": "occ",
				"energy": -0.26302,
				"method": "rhf"
			},
			{
				"type": "occ",
				"energy": -0.25321,
				"method": "rhf"
			},
			{
				"type": "occ",
				"energy": -0.25044,
				"method": "rhf"
			},
			{
				"type": "occ",
				"energy": -0.24854,
				"method": "rhf"
			},
			{
				"type": "occ",
				"energy": -0.24425,
				"method": "rhf"
			},
			{
				"type": "unocc",
				"energy": -0.01141,
				"method": "rhf"
			},
			{
				"type": "unocc",
				"energy": -0.00448,
				"method": "rhf"
			},
			{
				"type": "unocc",
				"energy": 0.00537,
				"method": "rhf"
			},
			{
				"type": "unocc",
				"energy": 0.01153,
				"method": "rhf"
			},
			{
				"type": "unocc",
				"energy": 0.0603,
				"method": "rhf"
			}
		],
		"cosmo_sigma_profile": { 
			"-0.025": 0.0,
			"-0.024": 0.0,
			"-0.023": 0.0,
			"-0.022": 0.0,
			"-0.021": 0.0,
			"-0.02": 0.0,
			"-0.019": 0.0,
			"-0.018": 0.0,
			"-0.017": 0.0,
			"-0.016": 0.0,
			"-0.015": 0.0,
			"-0.014": 1.10722606924,
			"-0.013": 0.980310937452,
			"-0.012": 1.55443346961,
			"-0.011": 0.753802957698,
			"-0.01": 3.07759003718,
			"-0.009": 3.09389920581,
			"-0.008": 3.97158033111,
			"-0.007": 8.81762053741,
			"-0.006": 26.8261815426,
			"-0.005": 32.6862838682,
			"-0.004": 34.4812676241,
			"-0.003": 30.3096676747,
			"-0.002": 24.2870376685,
			"-0.001": 23.7701384566,
			"0.0": 23.8007729669,
			"0.001": 15.1250072046,
			"0.002": 16.844712149,
			"0.003": 14.6278620941,
			"0.004": 14.1915823277,
			"0.005": 14.7432624149,
			"0.006": 10.3742988454,
			"0.007": 4.38824064447,
			"0.008": 3.19503575469,
			"0.009": 3.53855747127,
			"0.01": 4.52666329076,
			"0.011": 4.34750102411,
			"0.012": 7.60001274296,
			"0.013": 10.8935768556,
			"0.014": 8.45847361577,
			"0.015": 0.997857867509,
			"0.016": 0.0,
			"0.017": 0.0,
			"0.018": 0.0,
			"0.019": 0.0,
			"0.02": 0.0,
			"0.021": 0.0,
			"0.022": 0.0,
			"0.023": 0.0,
			"0.024": 0.0,
			"0.025": 0.0
		}
	}
}
