{
	 "smiles": "[O-][N+](=O)C1=NC=C(Cl)C=C1", 
	 "Tm": 394.65, 
	 "num_atms": 13, 
	 "gaussian": { 
		 "optdone": 1, 
		 "sigma_profile": "yes", 
		 "theory": "DFT", 
		 "functional": "B3LYP", 
		 "basiset": "6-31G**", 
		 "properties": { 
			 "R2extent": 2436.0901, 
			 "electric_dipole_moment_norm": 4.31051153925, 
			 "electric_quadrupole_moment_norm": 13.7702396137, 
			 "total_energy": -912.367010223, 
			 "HOMO_LUMO_gap": 0.1884, 
			 "cosmo_polarized_energy": -10.49, 
			 "cosmo_cavitation_energy": 20.62, 
			 "cosmo_dispersion_energy": -15.49, 
			 "cosmo_repulsion_energy": 1.26, 
			 "cosmo_total_nonelectrostatic_energy": 6.39, 
			 "SMD_solvation_energy": 4.65 
		},
		"coords": [
			{
				"x": 0.1146011617,
				"y": 3.4629832086,
				"z": -1.6007868204,
				"element": "O" 
			},
			{
				"x": -0.4034090038,
				"y": 2.7406030252,
				"z": -0.7649651452,
				"element": "N" 
			},
			{
				"x": -0.9287356397,
				"y": 3.1124542299,
				"z": 0.286188315,
				"element": "O" 
			},
			{
				"x": -0.4125668375,
				"y": 1.2677107119,
				"z": -1.0185229381,
				"element": "C" 
			},
			{
				"x": 0.1517187289,
				"y": 0.8750392268,
				"z": -2.1465180172,
				"element": "N" 
			},
			{
				"x": 0.1618122887,
				"y": -0.4313720167,
				"z": -2.4057358122,
				"element": "C" 
			},
			{
				"x": -0.3997044384,
				"y": -1.367733787,
				"z": -1.5273586647,
				"element": "C" 
			},
			{
				"x": -0.3527640664,
				"y": -3.0634156135,
				"z": -1.9271202202,
				"element": "Cl" 
			},
			{
				"x": -0.9908858924,
				"y": -0.9335255356,
				"z": -0.341352105,
				"element": "C" 
			},
			{
				"x": -1.0005294184,
				"y": 0.4329755553,
				"z": -0.0719820456,
				"element": "C" 
			},
			{
				"x": 0.6259559674,
				"y": -0.7542331961,
				"z": -3.3335138619,
				"element": "H" 
			},
			{
				"x": -1.4299969029,
				"y": -1.6445623899,
				"z": 0.3494719898,
				"element": "H" 
			},
			{
				"x": -1.440295947,
				"y": 0.844876581,
				"z": 0.8264953258,
				"element": "H" 
			}
		],
		 "valence_orbital": [ 
			{
				"type": "occ",
				"energy": -0.31979,
				"method": "rhf"
			},
			{
				"type": "occ",
				"energy": -0.31459,
				"method": "rhf"
			},
			{
				"type": "occ",
				"energy": -0.30658,
				"method": "rhf"
			},
			{
				"type": "occ",
				"energy": -0.29203,
				"method": "rhf"
			},
			{
				"type": "occ",
				"energy": -0.29084,
				"method": "rhf"
			},
			{
				"type": "unocc",
				"energy": -0.10244,
				"method": "rhf"
			},
			{
				"type": "unocc",
				"energy": -0.0641,
				"method": "rhf"
			},
			{
				"type": "unocc",
				"energy": -0.02157,
				"method": "rhf"
			},
			{
				"type": "unocc",
				"energy": 0.0028,
				"method": "rhf"
			},
			{
				"type": "unocc",
				"energy": 0.08992,
				"method": "rhf"
			}
		],
		"cosmo_sigma_profile": { 
			"-0.025": 0.0,
			"-0.024": 0.0,
			"-0.023": 0.0,
			"-0.022": 0.0,
			"-0.021": 0.0,
			"-0.02": 0.0,
			"-0.019": 0.0,
			"-0.018": 0.0,
			"-0.017": 0.0,
			"-0.016": 0.0,
			"-0.015": 0.0,
			"-0.014": 0.0,
			"-0.013": 0.0,
			"-0.012": 0.0,
			"-0.011": 0.0,
			"-0.01": 1.79166203999,
			"-0.009": 5.37699729181,
			"-0.008": 6.99362038511,
			"-0.007": 5.58333388696,
			"-0.006": 6.9543955182,
			"-0.005": 6.44975452658,
			"-0.004": 10.8090841412,
			"-0.003": 16.3824187253,
			"-0.002": 19.2115348529,
			"-0.001": 10.8201254823,
			"0.0": 7.47198591257,
			"0.001": 8.61693119553,
			"0.002": 8.89684264227,
			"0.003": 12.4702588902,
			"0.004": 3.74734036051,
			"0.005": 3.89263684032,
			"0.006": 5.27721681775,
			"0.007": 10.1471454079,
			"0.008": 6.68200026175,
			"0.009": 5.02170362591,
			"0.01": 2.38677318192,
			"0.011": 0.941893000931,
			"0.012": 0.918805839709,
			"0.013": 1.09661035114,
			"0.014": 0.92123354406,
			"0.015": 0.280262210147,
			"0.016": 0.0,
			"0.017": 0.0,
			"0.018": 0.0,
			"0.019": 0.0,
			"0.02": 0.0,
			"0.021": 0.0,
			"0.022": 0.0,
			"0.023": 0.0,
			"0.024": 0.0,
			"0.025": 0.0
		}
	}
}
