{
	 "smiles": "CCOP(=O)(OCC)ON1C(=O)C2=CC=CC3=CC=CC(C1=O)=C23", 
	 "Tm": 450.15, 
	 "num_atms": 40, 
	 "gaussian": { 
		 "optdone": 1, 
		 "sigma_profile": "yes", 
		 "theory": "DFT", 
		 "functional": "B3LYP", 
		 "basiset": "6-31G**", 
		 "properties": { 
			 "R2extent": 8703.6956, 
			 "electric_dipole_moment_norm": 5.53762130251, 
			 "electric_quadrupole_moment_norm": 18.4433547876, 
			 "total_energy": -1466.86613792, 
			 "HOMO_LUMO_gap": 0.14888, 
			 "cosmo_polarized_energy": -17.86, 
			 "cosmo_cavitation_energy": 44.64, 
			 "cosmo_dispersion_energy": -31.6, 
			 "cosmo_repulsion_energy": 2.35, 
			 "cosmo_total_nonelectrostatic_energy": 15.39, 
			 "SMD_solvation_energy": 10.69 
		},
		"coords": [
			{
				"x": 3.5292531537,
				"y": 0.0438330397,
				"z": -3.8505740328,
				"element": "C" 
			},
			{
				"x": 2.0248541963,
				"y": 0.2105342383,
				"z": -3.7818428348,
				"element": "C" 
			},
			{
				"x": 1.4433970579,
				"y": -1.0705347688,
				"z": -3.402134466,
				"element": "O" 
			},
			{
				"x": 0.2060030761,
				"y": -1.16244201,
				"z": -2.4088132264,
				"element": "P" 
			},
			{
				"x": -0.6567177,
				"y": 0.0260120337,
				"z": -2.236294515,
				"element": "O" 
			},
			{
				"x": -0.3906616537,
				"y": -2.5394699257,
				"z": -2.9340359599,
				"element": "O" 
			},
			{
				"x": -1.5595024929,
				"y": -3.1529418974,
				"z": -2.3083855762,
				"element": "C" 
			},
			{
				"x": -2.8437860584,
				"y": -2.5731054463,
				"z": -2.8764418044,
				"element": "C" 
			},
			{
				"x": 0.8712565932,
				"y": -1.6585548165,
				"z": -0.9387302137,
				"element": "O" 
			},
			{
				"x": 0.7041139221,
				"y": -0.7785992773,
				"z": 0.115966794,
				"element": "N" 
			},
			{
				"x": 1.617401944,
				"y": 0.2868996984,
				"z": 0.1855069163,
				"element": "C" 
			},
			{
				"x": 2.446466325,
				"y": 0.4618760279,
				"z": -0.6918365645,
				"element": "O" 
			},
			{
				"x": 1.481674954,
				"y": 1.1452622885,
				"z": 1.3849104044,
				"element": "C" 
			},
			{
				"x": 2.3653201801,
				"y": 2.1953942964,
				"z": 1.564416286,
				"element": "C" 
			},
			{
				"x": 2.2577625172,
				"y": 3.0307823289,
				"z": 2.6954362864,
				"element": "C" 
			},
			{
				"x": 1.2679072816,
				"y": 2.8122449681,
				"z": 3.6320184734,
				"element": "C" 
			},
			{
				"x": 0.3413314737,
				"y": 1.7471599836,
				"z": 3.4786712248,
				"element": "C" 
			},
			{
				"x": -0.6958146425,
				"y": 1.4900152045,
				"z": 4.4138670804,
				"element": "C" 
			},
			{
				"x": -1.5782059955,
				"y": 0.4461357372,
				"z": 4.2234286561,
				"element": "C" 
			},
			{
				"x": -1.4628202033,
				"y": -0.387187994,
				"z": 3.0915742121,
				"element": "C" 
			},
			{
				"x": -0.462319501,
				"y": -0.1674274541,
				"z": 2.1607024524,
				"element": "C" 
			},
			{
				"x": -0.3662670789,
				"y": -1.0634052955,
				"z": 0.9833832323,
				"element": "C" 
			},
			{
				"x": -1.1294420335,
				"y": -1.9893807021,
				"z": 0.7703086771,
				"element": "O" 
			},
			{
				"x": 0.4557293385,
				"y": 0.9005099443,
				"z": 2.3341799607,
				"element": "C" 
			},
			{
				"x": 3.8025895214,
				"y": -0.7533950778,
				"z": -4.5478746843,
				"element": "H" 
			},
			{
				"x": 3.9870239449,
				"y": 0.9771599726,
				"z": -4.1957523435,
				"element": "H" 
			},
			{
				"x": 3.9238473754,
				"y": -0.1951621085,
				"z": -2.8607750083,
				"element": "H" 
			},
			{
				"x": 1.5986500365,
				"y": 0.472021546,
				"z": -4.7556078401,
				"element": "H" 
			},
			{
				"x": 1.7416997331,
				"y": 0.9736820599,
				"z": -3.0557036339,
				"element": "H" 
			},
			{
				"x": -1.4959102144,
				"y": -3.0246255606,
				"z": -1.2258767003,
				"element": "H" 
			},
			{
				"x": -1.4587967981,
				"y": -4.2148311943,
				"z": -2.5451647909,
				"element": "H" 
			},
			{
				"x": -2.8813302477,
				"y": -2.6983646303,
				"z": -3.9626095173,
				"element": "H" 
			},
			{
				"x": -3.7043006681,
				"y": -3.0906355798,
				"z": -2.4386479822,
				"element": "H" 
			},
			{
				"x": -2.9217185134,
				"y": -1.5083018478,
				"z": -2.6433509968,
				"element": "H" 
			},
			{
				"x": 3.1359641974,
				"y": 2.3577565872,
				"z": 0.8185159957,
				"element": "H" 
			},
			{
				"x": 2.9586657129,
				"y": 3.8493908343,
				"z": 2.8244461469,
				"element": "H" 
			},
			{
				"x": 1.1841624446,
				"y": 3.457552048,
				"z": 4.5024026513,
				"element": "H" 
			},
			{
				"x": -0.7856365961,
				"y": 2.1323739032,
				"z": 5.2858164842,
				"element": "H" 
			},
			{
				"x": -2.3674241184,
				"y": 0.2613797393,
				"z": 4.9452605775,
				"element": "H" 
			},
			{
				"x": -2.1500204638,
				"y": -1.2105108933,
				"z": 2.9288401794,
				"element": "H" 
			}
		],
		 "valence_orbital": [ 
			{
				"type": "occ",
				"energy": -0.28266,
				"method": "rhf"
			},
			{
				"type": "occ",
				"energy": -0.27696,
				"method": "rhf"
			},
			{
				"type": "occ",
				"energy": -0.27467,
				"method": "rhf"
			},
			{
				"type": "occ",
				"energy": -0.26997,
				"method": "rhf"
			},
			{
				"type": "occ",
				"energy": -0.2465,
				"method": "rhf"
			},
			{
				"type": "unocc",
				"energy": -0.09762,
				"method": "rhf"
			},
			{
				"type": "unocc",
				"energy": -0.03559,
				"method": "rhf"
			},
			{
				"type": "unocc",
				"energy": -0.03243,
				"method": "rhf"
			},
			{
				"type": "unocc",
				"energy": 0.00131,
				"method": "rhf"
			},
			{
				"type": "unocc",
				"energy": 0.04506,
				"method": "rhf"
			}
		],
		"cosmo_sigma_profile": { 
			"-0.025": 0.0,
			"-0.024": 0.0,
			"-0.023": 0.0,
			"-0.022": 0.0,
			"-0.021": 0.0,
			"-0.02": 0.0,
			"-0.019": 0.0,
			"-0.018": 0.0,
			"-0.017": 0.0,
			"-0.016": 0.0,
			"-0.015": 0.0,
			"-0.014": 0.0,
			"-0.013": 0.0,
			"-0.012": 0.0,
			"-0.011": 0.0,
			"-0.01": 0.0,
			"-0.009": 0.0883086500973,
			"-0.008": 4.91598521147,
			"-0.007": 12.9906482973,
			"-0.006": 18.5156839614,
			"-0.005": 22.5782438763,
			"-0.004": 29.6250831118,
			"-0.003": 25.9790635311,
			"-0.002": 25.6611006566,
			"-0.001": 31.3147499131,
			"0.0": 42.8190371853,
			"0.001": 34.9166929284,
			"0.002": 22.3463129813,
			"0.003": 11.6634653908,
			"0.004": 10.3668146423,
			"0.005": 9.10024457376,
			"0.006": 8.36340487347,
			"0.007": 10.5439238866,
			"0.008": 9.40421553068,
			"0.009": 8.88296607738,
			"0.01": 5.16354916333,
			"0.011": 2.46549104808,
			"0.012": 2.39742687331,
			"0.013": 3.46877852898,
			"0.014": 0.4513957181,
			"0.015": 0.0,
			"0.016": 0.0,
			"0.017": 0.0,
			"0.018": 0.0,
			"0.019": 0.0,
			"0.02": 0.0,
			"0.021": 0.0,
			"0.022": 0.0,
			"0.023": 0.0,
			"0.024": 0.0,
			"0.025": 0.0
		}
	}
}
