{
	 "smiles": "CC1=C(NS(C)(=O)=O)C=CC(N)=C1", 
	 "Tm": 415.15, 
	 "num_atms": 25, 
	 "gaussian": { 
		 "optdone": 1, 
		 "sigma_profile": "yes", 
		 "theory": "DFT", 
		 "functional": "B3LYP", 
		 "basiset": "6-31G**", 
		 "properties": { 
			 "R2extent": 3775.2514, 
			 "electric_dipole_moment_norm": 6.31329675051, 
			 "electric_quadrupole_moment_norm": 18.8107965903, 
			 "total_energy": -970.165414248, 
			 "HOMO_LUMO_gap": 0.20049, 
			 "cosmo_polarized_energy": -20.58, 
			 "cosmo_cavitation_energy": 29.29, 
			 "cosmo_dispersion_energy": -21.61, 
			 "cosmo_repulsion_energy": 1.66, 
			 "cosmo_total_nonelectrostatic_energy": 9.34, 
			 "SMD_solvation_energy": 4.72 
		},
		"coords": [
			{
				"x": 1.8221922415,
				"y": -2.7467034481,
				"z": -0.2161923968,
				"element": "C" 
			},
			{
				"x": 1.0964361191,
				"y": -1.4483955656,
				"z": -0.4629173001,
				"element": "C" 
			},
			{
				"x": 0.4375864082,
				"y": -0.7604683753,
				"z": 0.577975347,
				"element": "C" 
			},
			{
				"x": 0.4601768277,
				"y": -1.2876671876,
				"z": 1.9136707916,
				"element": "N" 
			},
			{
				"x": -0.7086949574,
				"y": -2.3841382661,
				"z": 2.457505397,
				"element": "S" 
			},
			{
				"x": -2.3058067425,
				"y": -1.5501729728,
				"z": 2.3046874831,
				"element": "C" 
			},
			{
				"x": -0.7377975829,
				"y": -3.511188765,
				"z": 1.5257933078,
				"element": "O" 
			},
			{
				"x": -0.4263576776,
				"y": -2.5619258312,
				"z": 3.8830184503,
				"element": "O" 
			},
			{
				"x": -0.1850642518,
				"y": 0.4656215801,
				"z": 0.3132887778,
				"element": "C" 
			},
			{
				"x": -0.180155208,
				"y": 1.0224211019,
				"z": -0.960000193,
				"element": "C" 
			},
			{
				"x": 0.4465203505,
				"y": 0.3396472734,
				"z": -2.0158570653,
				"element": "C" 
			},
			{
				"x": 0.4070303109,
				"y": 0.8416325088,
				"z": -3.3138421285,
				"element": "N" 
			},
			{
				"x": 1.0768650464,
				"y": -0.886004929,
				"z": -1.7405459617,
				"element": "C" 
			},
			{
				"x": 2.4278904409,
				"y": -2.6855795159,
				"z": 0.6927530633,
				"element": "H" 
			},
			{
				"x": 1.1154658698,
				"y": -3.5667506259,
				"z": -0.0630262604,
				"element": "H" 
			},
			{
				"x": 2.4730672649,
				"y": -2.9932417057,
				"z": -1.0593255971,
				"element": "H" 
			},
			{
				"x": 0.6697798095,
				"y": -0.6241050378,
				"z": 2.6532884755,
				"element": "H" 
			},
			{
				"x": -2.3319997752,
				"y": -0.6970977686,
				"z": 2.984192761,
				"element": "H" 
			},
			{
				"x": -2.4448412001,
				"y": -1.2363543522,
				"z": 1.2696171934,
				"element": "H" 
			},
			{
				"x": -3.0675232228,
				"y": -2.2797432345,
				"z": 2.5847838124,
				"element": "H" 
			},
			{
				"x": -0.6702905734,
				"y": 1.0003456992,
				"z": 1.1265837806,
				"element": "H" 
			},
			{
				"x": -0.6654101136,
				"y": 1.9778196652,
				"z": -1.1409459235,
				"element": "H" 
			},
			{
				"x": 1.1255758388,
				"y": 0.5003533844,
				"z": -3.9366771532,
				"element": "H" 
			},
			{
				"x": 0.2704832017,
				"y": 1.8393355681,
				"z": -3.3943218026,
				"element": "H" 
			},
			{
				"x": 1.5789715753,
				"y": -1.4113391998,
				"z": -2.5500068588,
				"element": "H" 
			}
		],
		 "valence_orbital": [ 
			{
				"type": "occ",
				"energy": -0.29507,
				"method": "rhf"
			},
			{
				"type": "occ",
				"energy": -0.29352,
				"method": "rhf"
			},
			{
				"type": "occ",
				"energy": -0.28011,
				"method": "rhf"
			},
			{
				"type": "occ",
				"energy": -0.2481,
				"method": "rhf"
			},
			{
				"type": "occ",
				"energy": -0.20762,
				"method": "rhf"
			},
			{
				"type": "unocc",
				"energy": -0.00713,
				"method": "rhf"
			},
			{
				"type": "unocc",
				"energy": -0.0008,
				"method": "rhf"
			},
			{
				"type": "unocc",
				"energy": 0.06554,
				"method": "rhf"
			},
			{
				"type": "unocc",
				"energy": 0.07281,
				"method": "rhf"
			},
			{
				"type": "unocc",
				"energy": 0.08363,
				"method": "rhf"
			}
		],
		"cosmo_sigma_profile": { 
			"-0.025": 0.0,
			"-0.024": 0.0,
			"-0.023": 0.0,
			"-0.022": 0.0,
			"-0.021": 0.0,
			"-0.02": 0.0,
			"-0.019": 0.0,
			"-0.018": 0.0,
			"-0.017": 0.0,
			"-0.016": 0.0,
			"-0.015": 0.450884736644,
			"-0.014": 1.16762366315,
			"-0.013": 1.96635670438,
			"-0.012": 3.70554780808,
			"-0.011": 3.98711758729,
			"-0.01": 4.03616348959,
			"-0.009": 6.15819729008,
			"-0.008": 8.454364316,
			"-0.007": 9.05910601942,
			"-0.006": 12.0317744485,
			"-0.005": 12.0739050626,
			"-0.004": 15.9310601165,
			"-0.003": 14.144875363,
			"-0.002": 9.50271670321,
			"-0.001": 10.2435868284,
			"0.0": 12.9922352294,
			"0.001": 11.9538543065,
			"0.002": 9.17617936453,
			"0.003": 9.79799957614,
			"0.004": 9.33584253096,
			"0.005": 13.9530834526,
			"0.006": 12.4570990095,
			"0.007": 4.88246578241,
			"0.008": 4.28394312278,
			"0.009": 3.88944935498,
			"0.01": 6.49045593184,
			"0.011": 9.65207773754,
			"0.012": 7.70383652139,
			"0.013": 1.03679851601,
			"0.014": 0.524403315616,
			"0.015": 0.0,
			"0.016": 0.0,
			"0.017": 0.0,
			"0.018": 0.0,
			"0.019": 0.0,
			"0.02": 0.0,
			"0.021": 0.0,
			"0.022": 0.0,
			"0.023": 0.0,
			"0.024": 0.0,
			"0.025": 0.0
		}
	}
}
