{
	 "smiles": "CC(NC(=O)COCCN1C(=O)C2=CC=CC=C2C1=O)C(=O)NC(CCC(O)=O)C(O)=O", 
	 "Tm": 467.15, 
	 "num_atms": 55, 
	 "gaussian": { 
		 "optdone": 1, 
		 "sigma_profile": "yes", 
		 "theory": "DFT", 
		 "functional": "B3LYP", 
		 "basiset": "6-31G**", 
		 "properties": { 
			 "R2extent": 16083.324, 
			 "electric_dipole_moment_norm": 7.74097902529, 
			 "electric_quadrupole_moment_norm": 26.2022446311, 
			 "total_energy": -1617.33628112, 
			 "HOMO_LUMO_gap": 0.14468, 
			 "cosmo_polarized_energy": -39.64, 
			 "cosmo_cavitation_energy": 59.53, 
			 "cosmo_dispersion_energy": -37.49, 
			 "cosmo_repulsion_energy": 2.83, 
			 "cosmo_total_nonelectrostatic_energy": 24.87, 
			 "SMD_solvation_energy": 13.04 
		},
		"coords": [
			{
				"x": -0.6039714217,
				"y": -2.8989262315,
				"z": 0.5884076438,
				"element": "C" 
			},
			{
				"x": -1.5735564715,
				"y": -2.1396283058,
				"z": -0.3284259047,
				"element": "C" 
			},
			{
				"x": -0.8888329516,
				"y": -1.5583517516,
				"z": -1.4772885546,
				"element": "N" 
			},
			{
				"x": -0.760890571,
				"y": -2.2586267647,
				"z": -2.6306933997,
				"element": "C" 
			},
			{
				"x": -1.1341703747,
				"y": -3.4176680967,
				"z": -2.7847641197,
				"element": "O" 
			},
			{
				"x": -0.0750972914,
				"y": -1.5253396051,
				"z": -3.7799178854,
				"element": "C" 
			},
			{
				"x": 0.1878067436,
				"y": -0.1718240604,
				"z": -3.4623541686,
				"element": "O" 
			},
			{
				"x": 0.9132259647,
				"y": 0.4942572865,
				"z": -4.4792081462,
				"element": "C" 
			},
			{
				"x": 1.107045185,
				"y": 1.9564243018,
				"z": -4.0937557873,
				"element": "C" 
			},
			{
				"x": 1.8500518529,
				"y": 2.1479282516,
				"z": -2.8544196879,
				"element": "N" 
			},
			{
				"x": 3.1506267831,
				"y": 1.6846101014,
				"z": -2.6223699365,
				"element": "C" 
			},
			{
				"x": 3.8341927073,
				"y": 1.057467127,
				"z": -3.4091362999,
				"element": "O" 
			},
			{
				"x": 3.5025103023,
				"y": 2.1385441465,
				"z": -1.2412782939,
				"element": "C" 
			},
			{
				"x": 4.6618570836,
				"y": 1.9432044984,
				"z": -0.5031824377,
				"element": "C" 
			},
			{
				"x": 4.7128885695,
				"y": 2.5035520992,
				"z": 0.7797600658,
				"element": "C" 
			},
			{
				"x": 3.6345598016,
				"y": 3.2414691587,
				"z": 1.2896404988,
				"element": "C" 
			},
			{
				"x": 2.4690712329,
				"y": 3.4370898122,
				"z": 0.5320825712,
				"element": "C" 
			},
			{
				"x": 2.4264918901,
				"y": 2.8660447104,
				"z": -0.7339700511,
				"element": "C" 
			},
			{
				"x": 1.3484424694,
				"y": 2.8941329999,
				"z": -1.7696332247,
				"element": "C" 
			},
			{
				"x": 0.2748035518,
				"y": 3.455119934,
				"z": -1.7340781337,
				"element": "O" 
			},
			{
				"x": -2.5228048815,
				"y": -1.0731797898,
				"z": 0.2590476033,
				"element": "C" 
			},
			{
				"x": -3.5371924185,
				"y": -0.7899686597,
				"z": -0.3593951618,
				"element": "O" 
			},
			{
				"x": -2.3077624686,
				"y": -0.471453533,
				"z": 1.4908341629,
				"element": "N" 
			},
			{
				"x": -1.0917632902,
				"y": -0.2497294603,
				"z": 2.253195975,
				"element": "C" 
			},
			{
				"x": -1.4396542881,
				"y": 0.4298646498,
				"z": 3.5921484136,
				"element": "C" 
			},
			{
				"x": -2.3007705163,
				"y": -0.4582665102,
				"z": 4.4919467694,
				"element": "C" 
			},
			{
				"x": -2.6952496915,
				"y": 0.2410895756,
				"z": 5.7746745674,
				"element": "C" 
			},
			{
				"x": -3.3848309492,
				"y": -0.585017827,
				"z": 6.5954213678,
				"element": "O" 
			},
			{
				"x": -2.4460649081,
				"y": 1.3921009956,
				"z": 6.0592260556,
				"element": "O" 
			},
			{
				"x": -0.0458065391,
				"y": 0.5431139699,
				"z": 1.4531814032,
				"element": "C" 
			},
			{
				"x": 0.9800976699,
				"y": 0.9466526836,
				"z": 2.2250670328,
				"element": "O" 
			},
			{
				"x": -0.0965300768,
				"y": 0.7465169933,
				"z": 0.2588880445,
				"element": "O" 
			},
			{
				"x": 0.2659152681,
				"y": -2.2993948159,
				"z": 0.8687962185,
				"element": "H" 
			},
			{
				"x": -1.1042442328,
				"y": -3.2612435383,
				"z": 1.4932068744,
				"element": "H" 
			},
			{
				"x": -0.2350495842,
				"y": -3.7680615315,
				"z": 0.0375285796,
				"element": "H" 
			},
			{
				"x": -2.2650150496,
				"y": -2.8768714065,
				"z": -0.7474632017,
				"element": "H" 
			},
			{
				"x": -0.5603427765,
				"y": -0.6013078152,
				"z": -1.4351380266,
				"element": "H" 
			},
			{
				"x": 0.8546892013,
				"y": -2.0683870503,
				"z": -4.0116900567,
				"element": "H" 
			},
			{
				"x": -0.7305012848,
				"y": -1.6129445124,
				"z": -4.6593675006,
				"element": "H" 
			},
			{
				"x": 1.8861018978,
				"y": 0.0107669386,
				"z": -4.6400354384,
				"element": "H" 
			},
			{
				"x": 0.3594516265,
				"y": 0.4691825879,
				"z": -5.4321687442,
				"element": "H" 
			},
			{
				"x": 0.1409436693,
				"y": 2.4427187058,
				"z": -3.9408588178,
				"element": "H" 
			},
			{
				"x": 1.6289324103,
				"y": 2.4635357065,
				"z": -4.9136004324,
				"element": "H" 
			},
			{
				"x": 5.4924114865,
				"y": 1.3765059123,
				"z": -0.9115233283,
				"element": "H" 
			},
			{
				"x": 5.6019465411,
				"y": 2.3718810416,
				"z": 1.388947229,
				"element": "H" 
			},
			{
				"x": 3.7078051141,
				"y": 3.6744152385,
				"z": 2.2829360389,
				"element": "H" 
			},
			{
				"x": 1.6333930616,
				"y": 4.0190309487,
				"z": 0.9085479385,
				"element": "H" 
			},
			{
				"x": -3.014715215,
				"y": 0.2452375737,
				"z": 1.6217336319,
				"element": "H" 
			},
			{
				"x": -0.6141092256,
				"y": -1.2083013768,
				"z": 2.4816358758,
				"element": "H" 
			},
			{
				"x": -1.9587595959,
				"y": 1.3764911254,
				"z": 3.4008059384,
				"element": "H" 
			},
			{
				"x": -0.5138076636,
				"y": 0.691317509,
				"z": 4.1072155185,
				"element": "H" 
			},
			{
				"x": -1.7761226958,
				"y": -1.3844496309,
				"z": 4.7576676343,
				"element": "H" 
			},
			{
				"x": -3.2181741991,
				"y": -0.7779936509,
				"z": 3.9843802113,
				"element": "H" 
			},
			{
				"x": -3.6083585282,
				"y": -0.0624138932,
				"z": 7.3840360492,
				"element": "H" 
			},
			{
				"x": 1.6093870771,
				"y": 1.4231832341,
				"z": 1.6517568265,
				"element": "H" 
			}
		],
		 "valence_orbital": [ 
			{
				"type": "occ",
				"energy": -0.26739,
				"method": "rhf"
			},
			{
				"type": "occ",
				"energy": -0.26378,
				"method": "rhf"
			},
			{
				"type": "occ",
				"energy": -0.25352,
				"method": "rhf"
			},
			{
				"type": "occ",
				"energy": -0.2413,
				"method": "rhf"
			},
			{
				"type": "occ",
				"energy": -0.23539,
				"method": "rhf"
			},
			{
				"type": "unocc",
				"energy": -0.09071,
				"method": "rhf"
			},
			{
				"type": "unocc",
				"energy": -0.05598,
				"method": "rhf"
			},
			{
				"type": "unocc",
				"energy": -0.01906,
				"method": "rhf"
			},
			{
				"type": "unocc",
				"energy": -0.00208,
				"method": "rhf"
			},
			{
				"type": "unocc",
				"energy": 0.01259,
				"method": "rhf"
			}
		],
		"cosmo_sigma_profile": { 
			"-0.025": 0.0,
			"-0.024": 0.0,
			"-0.023": 0.0,
			"-0.022": 0.0,
			"-0.021": 0.0,
			"-0.02": 0.0,
			"-0.019": 0.0,
			"-0.018": 0.581471788346,
			"-0.017": 1.33271628671,
			"-0.016": 0.461635598881,
			"-0.015": 0.802788565298,
			"-0.014": 0.841726795961,
			"-0.013": 1.56170610896,
			"-0.012": 2.15027776048,
			"-0.011": 2.05751719703,
			"-0.01": 3.69213940109,
			"-0.009": 3.79936509633,
			"-0.008": 9.4663992461,
			"-0.007": 22.2603163027,
			"-0.006": 39.1984926993,
			"-0.005": 41.3490736938,
			"-0.004": 35.325870758,
			"-0.003": 30.6185396259,
			"-0.002": 27.5757836445,
			"-0.001": 29.0724994517,
			"0.0": 29.7923618951,
			"0.001": 26.6045167039,
			"0.002": 21.1166207646,
			"0.003": 17.3360357334,
			"0.004": 16.3360633738,
			"0.005": 11.2245640657,
			"0.006": 9.52879100146,
			"0.007": 10.6845315486,
			"0.008": 9.96633936821,
			"0.009": 11.5324098195,
			"0.01": 11.4695957403,
			"0.011": 15.5994030387,
			"0.012": 10.9769932145,
			"0.013": 8.81294186602,
			"0.014": 6.75132067549,
			"0.015": 0.661875990415,
			"0.016": 0.0,
			"0.017": 0.0,
			"0.018": 0.0,
			"0.019": 0.0,
			"0.02": 0.0,
			"0.021": 0.0,
			"0.022": 0.0,
			"0.023": 0.0,
			"0.024": 0.0,
			"0.025": 0.0
		}
	}
}
