{
	 "smiles": "OC(=O)CCSSCCC(O)=O", 
	 "Tm": 431.15, 
	 "num_atms": 22, 
	 "gaussian": { 
		 "optdone": 1, 
		 "sigma_profile": "yes", 
		 "theory": "DFT", 
		 "functional": "B3LYP", 
		 "basiset": "6-31G**", 
		 "properties": { 
			 "R2extent": 3052.7055, 
			 "electric_dipole_moment_norm": 3.67771684337, 
			 "electric_quadrupole_moment_norm": 20.7016656282, 
			 "total_energy": -1331.96247106, 
			 "HOMO_LUMO_gap": 0.2042, 
			 "cosmo_polarized_energy": -23.6, 
			 "cosmo_cavitation_energy": 28.96, 
			 "cosmo_dispersion_energy": -20.77, 
			 "cosmo_repulsion_energy": 1.6, 
			 "cosmo_total_nonelectrostatic_energy": 9.78, 
			 "SMD_solvation_energy": 5.79 
		},
		"coords": [
			{
				"x": 1.6179827807,
				"y": 2.2959960297,
				"z": 2.3167167769,
				"element": "O" 
			},
			{
				"x": 0.7401991515,
				"y": 1.2937938962,
				"z": 2.0450652129,
				"element": "C" 
			},
			{
				"x": -0.3968348571,
				"y": 1.3728641476,
				"z": 2.4401949181,
				"element": "O" 
			},
			{
				"x": 1.2907653717,
				"y": 0.1278983212,
				"z": 1.2337207604,
				"element": "C" 
			},
			{
				"x": 1.7113683865,
				"y": 0.5043522619,
				"z": -0.1942072046,
				"element": "C" 
			},
			{
				"x": 0.4260601383,
				"y": 1.2770582727,
				"z": -1.2714267892,
				"element": "S" 
			},
			{
				"x": -0.7888882493,
				"y": -0.3157283558,
				"z": -1.8683302327,
				"element": "S" 
			},
			{
				"x": -2.3756414404,
				"y": -0.0946466207,
				"z": -0.9441345917,
				"element": "C" 
			},
			{
				"x": -2.3918097284,
				"y": -0.5887294747,
				"z": 0.498716346,
				"element": "C" 
			},
			{
				"x": -2.1603644052,
				"y": -2.0824580342,
				"z": 0.582521568,
				"element": "C" 
			},
			{
				"x": -1.476716011,
				"y": -2.4326852824,
				"z": 1.6998400708,
				"element": "O" 
			},
			{
				"x": -2.5431914555,
				"y": -2.8984934985,
				"z": -0.226965496,
				"element": "O" 
			},
			{
				"x": 2.4971777171,
				"y": 2.0831168008,
				"z": 1.9735862817,
				"element": "H" 
			},
			{
				"x": 0.5338645635,
				"y": -0.6574721112,
				"z": 1.2182496903,
				"element": "H" 
			},
			{
				"x": 2.1686313448,
				"y": -0.2832899958,
				"z": 1.7531902433,
				"element": "H" 
			},
			{
				"x": 2.5082081712,
				"y": 1.2586515771,
				"z": -0.1942367653,
				"element": "H" 
			},
			{
				"x": 2.1064317834,
				"y": -0.3744569507,
				"z": -0.7089106718,
				"element": "H" 
			},
			{
				"x": -2.659353224,
				"y": 0.9577640744,
				"z": -1.0014275693,
				"element": "H" 
			},
			{
				"x": -3.0782457514,
				"y": -0.6766891264,
				"z": -1.5485616028,
				"element": "H" 
			},
			{
				"x": -3.3925002694,
				"y": -0.4035179918,
				"z": 0.9159081376,
				"element": "H" 
			},
			{
				"x": -1.6948425205,
				"y": -0.0421942514,
				"z": 1.1378925553,
				"element": "H" 
			},
			{
				"x": -1.4099014965,
				"y": -3.4030336882,
				"z": 1.6802983623,
				"element": "H" 
			}
		],
		 "valence_orbital": [ 
			{
				"type": "occ",
				"energy": -0.32001,
				"method": "rhf"
			},
			{
				"type": "occ",
				"energy": -0.28533,
				"method": "rhf"
			},
			{
				"type": "occ",
				"energy": -0.27781,
				"method": "rhf"
			},
			{
				"type": "occ",
				"energy": -0.25909,
				"method": "rhf"
			},
			{
				"type": "occ",
				"energy": -0.23751,
				"method": "rhf"
			},
			{
				"type": "unocc",
				"energy": -0.03331,
				"method": "rhf"
			},
			{
				"type": "unocc",
				"energy": -0.00535,
				"method": "rhf"
			},
			{
				"type": "unocc",
				"energy": 0.00188,
				"method": "rhf"
			},
			{
				"type": "unocc",
				"energy": 0.02781,
				"method": "rhf"
			},
			{
				"type": "unocc",
				"energy": 0.03725,
				"method": "rhf"
			}
		],
		"cosmo_sigma_profile": { 
			"-0.025": 0.0,
			"-0.024": 0.0,
			"-0.023": 0.0,
			"-0.022": 0.0,
			"-0.021": 0.0,
			"-0.02": 0.230429150874,
			"-0.019": 0.807336358981,
			"-0.018": 1.94100557353,
			"-0.017": 2.0815705575,
			"-0.016": 2.26036146657,
			"-0.015": 1.78560483645,
			"-0.014": 2.12687728728,
			"-0.013": 1.34662814412,
			"-0.012": 2.6380499524,
			"-0.011": 2.18947320896,
			"-0.01": 2.57142447494,
			"-0.009": 2.48502673651,
			"-0.008": 4.58007924641,
			"-0.007": 9.84968836068,
			"-0.006": 13.536846745,
			"-0.005": 14.6005440901,
			"-0.004": 13.597615401,
			"-0.003": 11.7525406823,
			"-0.002": 9.34328354026,
			"-0.001": 10.5183274065,
			"0.0": 7.66949863176,
			"0.001": 9.43652016052,
			"0.002": 10.0685211514,
			"0.003": 9.56244794529,
			"0.004": 13.9210183395,
			"0.005": 13.4880368368,
			"0.006": 11.6506487713,
			"0.007": 8.80973316937,
			"0.008": 6.60646930688,
			"0.009": 8.39525773211,
			"0.01": 7.27160721338,
			"0.011": 7.82820696442,
			"0.012": 6.07549983939,
			"0.013": 0.927498477521,
			"0.014": 0.0,
			"0.015": 0.0,
			"0.016": 0.0,
			"0.017": 0.0,
			"0.018": 0.0,
			"0.019": 0.0,
			"0.02": 0.0,
			"0.021": 0.0,
			"0.022": 0.0,
			"0.023": 0.0,
			"0.024": 0.0,
			"0.025": 0.0
		}
	}
}
