{
	 "smiles": "FC(F)(F)COC(=O)NC1=C2C=CC=CC2=CC=C1", 
	 "Tm": 383.15, 
	 "num_atms": 29, 
	 "gaussian": { 
		 "optdone": 1, 
		 "sigma_profile": "yes", 
		 "theory": "DFT", 
		 "functional": "B3LYP", 
		 "basiset": "6-31G**", 
		 "properties": { 
			 "R2extent": 5088.2852, 
			 "electric_dipole_moment_norm": 2.80799464565, 
			 "electric_quadrupole_moment_norm": 7.10042439295, 
			 "total_energy": -1006.16341895, 
			 "HOMO_LUMO_gap": 0.17161, 
			 "cosmo_polarized_energy": -11.98, 
			 "cosmo_cavitation_energy": 34.44, 
			 "cosmo_dispersion_energy": -23.7, 
			 "cosmo_repulsion_energy": 1.75, 
			 "cosmo_total_nonelectrostatic_energy": 12.48, 
			 "SMD_solvation_energy": 7.75 
		},
		"coords": [
			{
				"x": 0.0445514351,
				"y": 1.643167098,
				"z": -2.8968977903,
				"element": "F" 
			},
			{
				"x": -0.0057983355,
				"y": 2.815225825,
				"z": -2.2383394287,
				"element": "C" 
			},
			{
				"x": 0.2440244709,
				"y": 3.8020275806,
				"z": -3.1243215442,
				"element": "F" 
			},
			{
				"x": -1.2659298852,
				"y": 2.9706124087,
				"z": -1.7803953318,
				"element": "F" 
			},
			{
				"x": 1.0079162419,
				"y": 2.8792955215,
				"z": -1.1074357138,
				"element": "C" 
			},
			{
				"x": 0.7182763467,
				"y": 1.8710786452,
				"z": -0.14970356,
				"element": "O" 
			},
			{
				"x": 0.060195761,
				"y": 2.2948297327,
				"z": 0.9737478711,
				"element": "C" 
			},
			{
				"x": -0.1331704875,
				"y": 3.4587060032,
				"z": 1.2627866375,
				"element": "O" 
			},
			{
				"x": -0.3485199318,
				"y": 1.233577564,
				"z": 1.7343263879,
				"element": "N" 
			},
			{
				"x": -0.0447261521,
				"y": -0.1523479562,
				"z": 1.5494701076,
				"element": "C" 
			},
			{
				"x": -0.6346467809,
				"y": -0.8935497205,
				"z": 0.4772832092,
				"element": "C" 
			},
			{
				"x": -1.5182850377,
				"y": -0.3186319399,
				"z": -0.4750799303,
				"element": "C" 
			},
			{
				"x": -2.0507217908,
				"y": -1.0802748459,
				"z": -1.4908646321,
				"element": "C" 
			},
			{
				"x": -1.729133798,
				"y": -2.4537589699,
				"z": -1.607370824,
				"element": "C" 
			},
			{
				"x": -0.8859385124,
				"y": -3.0427633618,
				"z": -0.6940319896,
				"element": "C" 
			},
			{
				"x": -0.3215221121,
				"y": -2.290120342,
				"z": 0.3715894423,
				"element": "C" 
			},
			{
				"x": 0.5255076453,
				"y": -2.8959859877,
				"z": 1.3378355582,
				"element": "C" 
			},
			{
				"x": 1.0507425799,
				"y": -2.1586516994,
				"z": 2.3727852281,
				"element": "C" 
			},
			{
				"x": 0.7684893577,
				"y": -0.7774359959,
				"z": 2.4726651806,
				"element": "C" 
			},
			{
				"x": 0.9691479776,
				"y": 3.8696385993,
				"z": -0.6502944891,
				"element": "H" 
			},
			{
				"x": 2.0010022391,
				"y": 2.6794410075,
				"z": -1.5142640455,
				"element": "H" 
			},
			{
				"x": -0.7040011875,
				"y": 1.5218483754,
				"z": 2.6351559945,
				"element": "H" 
			},
			{
				"x": -1.7734932775,
				"y": 0.7309622014,
				"z": -0.3999100071,
				"element": "H" 
			},
			{
				"x": -2.7227403882,
				"y": -0.6224046401,
				"z": -2.210559297,
				"element": "H" 
			},
			{
				"x": -2.1535860842,
				"y": -3.0402892798,
				"z": -2.4169403,
				"element": "H" 
			},
			{
				"x": -0.6396326164,
				"y": -4.0986202492,
				"z": -0.7707795227,
				"element": "H" 
			},
			{
				"x": 0.7462889548,
				"y": -3.9562066331,
				"z": 1.2475356957,
				"element": "H" 
			},
			{
				"x": 1.6936898723,
				"y": -2.6265485435,
				"z": 3.1120484058,
				"element": "H" 
			},
			{
				"x": 1.2022134956,
				"y": -0.1917203978,
				"z": 3.2781586877,
				"element": "H" 
			}
		],
		 "valence_orbital": [ 
			{
				"type": "occ",
				"energy": -0.29965,
				"method": "rhf"
			},
			{
				"type": "occ",
				"energy": -0.28645,
				"method": "rhf"
			},
			{
				"type": "occ",
				"energy": -0.26775,
				"method": "rhf"
			},
			{
				"type": "occ",
				"energy": -0.24897,
				"method": "rhf"
			},
			{
				"type": "occ",
				"energy": -0.21799,
				"method": "rhf"
			},
			{
				"type": "unocc",
				"energy": -0.04638,
				"method": "rhf"
			},
			{
				"type": "unocc",
				"energy": -0.01478,
				"method": "rhf"
			},
			{
				"type": "unocc",
				"energy": 0.0229,
				"method": "rhf"
			},
			{
				"type": "unocc",
				"energy": 0.04453,
				"method": "rhf"
			},
			{
				"type": "unocc",
				"energy": 0.0756,
				"method": "rhf"
			}
		],
		"cosmo_sigma_profile": { 
			"-0.025": 0.0,
			"-0.024": 0.0,
			"-0.023": 0.0,
			"-0.022": 0.0,
			"-0.021": 0.0,
			"-0.02": 0.0,
			"-0.019": 0.0,
			"-0.018": 0.0,
			"-0.017": 0.0,
			"-0.016": 0.101474167172,
			"-0.015": 0.888663640185,
			"-0.014": 0.885256969798,
			"-0.013": 1.11233197333,
			"-0.012": 0.726795884688,
			"-0.011": 0.994953296877,
			"-0.01": 1.8638693358,
			"-0.009": 3.65105770498,
			"-0.008": 4.28039235745,
			"-0.007": 6.87099678629,
			"-0.006": 15.9790723489,
			"-0.005": 17.3876208533,
			"-0.004": 17.0996366628,
			"-0.003": 15.4188169096,
			"-0.002": 16.434723783,
			"-0.001": 14.2882908017,
			"0.0": 13.1922939152,
			"0.001": 18.358722054,
			"0.002": 34.2958887807,
			"0.003": 34.0113942514,
			"0.004": 24.0058969279,
			"0.005": 13.4340097293,
			"0.006": 4.04753346372,
			"0.007": 3.68527163082,
			"0.008": 1.88545900215,
			"0.009": 0.855018091234,
			"0.01": 1.93714854399,
			"0.011": 2.34981218529,
			"0.012": 4.76333983225,
			"0.013": 1.10669480511,
			"0.014": 0.0,
			"0.015": 0.0,
			"0.016": 0.0,
			"0.017": 0.0,
			"0.018": 0.0,
			"0.019": 0.0,
			"0.02": 0.0,
			"0.021": 0.0,
			"0.022": 0.0,
			"0.023": 0.0,
			"0.024": 0.0,
			"0.025": 0.0
		}
	}
}
