{
	 "smiles": "SC1=NN=C(O1)C1CCS(=O)(=O)C1", 
	 "Tm": 455.15, 
	 "num_atms": 21, 
	 "gaussian": { 
		 "optdone": 1, 
		 "sigma_profile": "yes", 
		 "theory": "DFT", 
		 "functional": "B3LYP", 
		 "basiset": "6-31G**", 
		 "properties": { 
			 "R2extent": 3970.8718, 
			 "electric_dipole_moment_norm": 1.80627528633, 
			 "electric_quadrupole_moment_norm": 24.8699373218, 
			 "total_energy": -1364.90006341, 
			 "HOMO_LUMO_gap": 0.22988, 
			 "cosmo_polarized_energy": -23.19, 
			 "cosmo_cavitation_energy": 28.05, 
			 "cosmo_dispersion_energy": -21.16, 
			 "cosmo_repulsion_energy": 1.59, 
			 "cosmo_total_nonelectrostatic_energy": 8.47, 
			 "SMD_solvation_energy": 1.47 
		},
		"coords": [
			{
				"x": -0.4950346808,
				"y": 4.4688734408,
				"z": -1.2484545282,
				"element": "S" 
			},
			{
				"x": -0.0742598126,
				"y": 3.1867854815,
				"z": -0.127076448,
				"element": "C" 
			},
			{
				"x": 0.7800554089,
				"y": 3.2478044233,
				"z": 0.843058386,
				"element": "N" 
			},
			{
				"x": 0.7964401052,
				"y": 1.9699873311,
				"z": 1.4189507789,
				"element": "N" 
			},
			{
				"x": -0.0482531855,
				"y": 1.2500028747,
				"z": 0.7572082856,
				"element": "C" 
			},
			{
				"x": -0.6480618726,
				"y": 1.9538821941,
				"z": -0.2592106396,
				"element": "O" 
			},
			{
				"x": -0.4120866159,
				"y": -0.1828864481,
				"z": 0.9708219976,
				"element": "C" 
			},
			{
				"x": 0.13840931,
				"y": -1.1184662344,
				"z": -0.1528360504,
				"element": "C" 
			},
			{
				"x": -0.7977370559,
				"y": -1.0161542389,
				"z": -1.3564198373,
				"element": "C" 
			},
			{
				"x": -2.4775792664,
				"y": -1.0097376068,
				"z": -0.6246728975,
				"element": "S" 
			},
			{
				"x": -3.3280953288,
				"y": -0.0109935889,
				"z": -1.2876776002,
				"element": "O" 
			},
			{
				"x": -2.9264462352,
				"y": -2.4033838812,
				"z": -0.4751708301,
				"element": "O" 
			},
			{
				"x": -1.9408504951,
				"y": -0.4049142853,
				"z": 1.0381807066,
				"element": "C" 
			},
			{
				"x": -1.5868828485,
				"y": 3.8391798988,
				"z": -1.7252049859,
				"element": "H" 
			},
			{
				"x": 0.0490517826,
				"y": -0.4539883302,
				"z": 1.9235248505,
				"element": "H" 
			},
			{
				"x": 0.1438841778,
				"y": -2.1459375945,
				"z": 0.2247305423,
				"element": "H" 
			},
			{
				"x": 1.1660038946,
				"y": -0.853188253,
				"z": -0.4136723091,
				"element": "H" 
			},
			{
				"x": -0.747684574,
				"y": -1.8669539092,
				"z": -2.03739337,
				"element": "H" 
			},
			{
				"x": -0.6800801281,
				"y": -0.0816459853,
				"z": -1.9079101945,
				"element": "H" 
			},
			{
				"x": -2.2019968535,
				"y": -1.2009477436,
				"z": 1.7372569821,
				"element": "H" 
			},
			{
				"x": -2.5149957264,
				"y": 0.4933824552,
				"z": 1.2666671608,
				"element": "H" 
			}
		],
		 "valence_orbital": [ 
			{
				"type": "occ",
				"energy": -0.31703,
				"method": "rhf"
			},
			{
				"type": "occ",
				"energy": -0.30388,
				"method": "rhf"
			},
			{
				"type": "occ",
				"energy": -0.29749,
				"method": "rhf"
			},
			{
				"type": "occ",
				"energy": -0.29161,
				"method": "rhf"
			},
			{
				"type": "occ",
				"energy": -0.26241,
				"method": "rhf"
			},
			{
				"type": "unocc",
				"energy": -0.03253,
				"method": "rhf"
			},
			{
				"type": "unocc",
				"energy": -0.01144,
				"method": "rhf"
			},
			{
				"type": "unocc",
				"energy": 0.01179,
				"method": "rhf"
			},
			{
				"type": "unocc",
				"energy": 0.03777,
				"method": "rhf"
			},
			{
				"type": "unocc",
				"energy": 0.04165,
				"method": "rhf"
			}
		],
		"cosmo_sigma_profile": { 
			"-0.025": 0.0,
			"-0.024": 0.0,
			"-0.023": 0.0,
			"-0.022": 0.0,
			"-0.021": 0.0,
			"-0.02": 0.0,
			"-0.019": 0.0,
			"-0.018": 0.0,
			"-0.017": 0.0,
			"-0.016": 0.0,
			"-0.015": 0.0,
			"-0.014": 0.228370344149,
			"-0.013": 1.92112924009,
			"-0.012": 1.59646481531,
			"-0.011": 1.57193887515,
			"-0.01": 1.77599514577,
			"-0.009": 6.14026455775,
			"-0.008": 14.5935952052,
			"-0.007": 17.7250664431,
			"-0.006": 19.2314406908,
			"-0.005": 17.7958904509,
			"-0.004": 14.1029178719,
			"-0.003": 9.8249852849,
			"-0.002": 8.20486560646,
			"-0.001": 7.90063184164,
			"0.0": 8.87794774619,
			"0.001": 8.92936283693,
			"0.002": 8.33860848182,
			"0.003": 6.44460744663,
			"0.004": 6.73546912141,
			"0.005": 6.25630184282,
			"0.006": 4.4045166884,
			"0.007": 4.48320565874,
			"0.008": 4.42637140868,
			"0.009": 5.4659758636,
			"0.01": 7.07627575209,
			"0.011": 13.7981536562,
			"0.012": 12.2228865068,
			"0.013": 3.28517806397,
			"0.014": 2.10057721858,
			"0.015": 0.403102349004,
			"0.016": 0.0,
			"0.017": 0.0,
			"0.018": 0.0,
			"0.019": 0.0,
			"0.02": 0.0,
			"0.021": 0.0,
			"0.022": 0.0,
			"0.023": 0.0,
			"0.024": 0.0,
			"0.025": 0.0
		}
	}
}
