{
	 "smiles": "NC(=O)NC(CCC(O)=O)C(O)=O", 
	 "Tm": 435.15, 
	 "num_atms": 23, 
	 "gaussian": { 
		 "optdone": 1, 
		 "sigma_profile": "yes", 
		 "theory": "DFT", 
		 "functional": "B3LYP", 
		 "basiset": "6-31G**", 
		 "properties": { 
			 "R2extent": 3080.8095, 
			 "electric_dipole_moment_norm": 4.50901624082, 
			 "electric_quadrupole_moment_norm": 20.6299886272, 
			 "total_energy": -720.339921315, 
			 "HOMO_LUMO_gap": 0.23521, 
			 "cosmo_polarized_energy": -25.64, 
			 "cosmo_cavitation_energy": 27.45, 
			 "cosmo_dispersion_energy": -19.32, 
			 "cosmo_repulsion_energy": 1.56, 
			 "cosmo_total_nonelectrostatic_energy": 9.69, 
			 "SMD_solvation_energy": 7.08 
		},
		"coords": [
			{
				"x": -2.2218344257,
				"y": -2.7596788675,
				"z": 0.9848501683,
				"element": "N" 
			},
			{
				"x": -2.4152088392,
				"y": -1.5339041592,
				"z": 0.3704740221,
				"element": "C" 
			},
			{
				"x": -3.4947425551,
				"y": -0.9551453212,
				"z": 0.3587835487,
				"element": "O" 
			},
			{
				"x": -1.2866429984,
				"y": -1.0234107127,
				"z": -0.2479396509,
				"element": "N" 
			},
			{
				"x": -1.4348446959,
				"y": 0.1378423209,
				"z": -1.1098386216,
				"element": "C" 
			},
			{
				"x": -1.3343897035,
				"y": 1.4680547442,
				"z": -0.3144409779,
				"element": "C" 
			},
			{
				"x": 0.0316898979,
				"y": 1.7161974952,
				"z": 0.3667676196,
				"element": "C" 
			},
			{
				"x": 1.019229205,
				"y": 2.4772051231,
				"z": -0.5178975173,
				"element": "C" 
			},
			{
				"x": 1.9697980128,
				"y": 1.7535742606,
				"z": -1.1671236722,
				"element": "O" 
			},
			{
				"x": 0.9718040169,
				"y": 3.673606533,
				"z": -0.6658524731,
				"element": "O" 
			},
			{
				"x": -0.3636125713,
				"y": 0.063801375,
				"z": -2.1793696792,
				"element": "C" 
			},
			{
				"x": -0.5667517999,
				"y": 0.943029933,
				"z": -3.1660209129,
				"element": "O" 
			},
			{
				"x": 0.6100253379,
				"y": -0.6697925848,
				"z": -2.122418113,
				"element": "O" 
			},
			{
				"x": -2.979162521,
				"y": -3.0198639199,
				"z": 1.5997959092,
				"element": "H" 
			},
			{
				"x": -1.2986290258,
				"y": -2.9914487398,
				"z": 1.3229552698,
				"element": "H" 
			},
			{
				"x": -0.5361826543,
				"y": -1.6520407761,
				"z": -0.5066706982,
				"element": "H" 
			},
			{
				"x": -2.4208408944,
				"y": 0.1217971176,
				"z": -1.5880540208,
				"element": "H" 
			},
			{
				"x": -2.115778277,
				"y": 1.4058625658,
				"z": 0.4467773598,
				"element": "H" 
			},
			{
				"x": -1.5836486674,
				"y": 2.3075219179,
				"z": -0.970291711,
				"element": "H" 
			},
			{
				"x": 0.4445306294,
				"y": 0.7674652352,
				"z": 0.7286668269,
				"element": "H" 
			},
			{
				"x": -0.1264849241,
				"y": 2.3564635903,
				"z": 1.2378078307,
				"element": "H" 
			},
			{
				"x": 1.8440171879,
				"y": 0.8017808513,
				"z": -1.0315037043,
				"element": "H" 
			},
			{
				"x": 0.2103602651,
				"y": 0.912182018,
				"z": -3.7508568028,
				"element": "H" 
			}
		],
		 "valence_orbital": [ 
			{
				"type": "occ",
				"energy": -0.3087,
				"method": "rhf"
			},
			{
				"type": "occ",
				"energy": -0.284,
				"method": "rhf"
			},
			{
				"type": "occ",
				"energy": -0.27155,
				"method": "rhf"
			},
			{
				"type": "occ",
				"energy": -0.26671,
				"method": "rhf"
			},
			{
				"type": "occ",
				"energy": -0.265,
				"method": "rhf"
			},
			{
				"type": "unocc",
				"energy": -0.02979,
				"method": "rhf"
			},
			{
				"type": "unocc",
				"energy": 0.00958,
				"method": "rhf"
			},
			{
				"type": "unocc",
				"energy": 0.04009,
				"method": "rhf"
			},
			{
				"type": "unocc",
				"energy": 0.05441,
				"method": "rhf"
			},
			{
				"type": "unocc",
				"energy": 0.06198,
				"method": "rhf"
			}
		],
		"cosmo_sigma_profile": { 
			"-0.025": 0.0,
			"-0.024": 0.0,
			"-0.023": 0.0,
			"-0.022": 0.0,
			"-0.021": 0.0,
			"-0.02": 0.0341232035852,
			"-0.019": 1.02179637603,
			"-0.018": 0.719656494667,
			"-0.017": 0.82716489378,
			"-0.016": 1.03277778859,
			"-0.015": 0.845062510884,
			"-0.014": 3.34842062618,
			"-0.013": 4.27147892396,
			"-0.012": 5.15786494199,
			"-0.011": 4.2717763749,
			"-0.01": 4.43599394787,
			"-0.009": 4.43075019575,
			"-0.008": 3.62625149352,
			"-0.007": 5.98410420775,
			"-0.006": 9.64383493983,
			"-0.005": 13.5777489008,
			"-0.004": 14.1817786264,
			"-0.003": 12.4183139761,
			"-0.002": 12.4190739161,
			"-0.001": 9.24425586528,
			"0.0": 10.5233015627,
			"0.001": 7.65566770969,
			"0.002": 6.63715797167,
			"0.003": 6.94433888277,
			"0.004": 6.37628286359,
			"0.005": 6.08416797774,
			"0.006": 5.60775330568,
			"0.007": 6.64749038839,
			"0.008": 6.787601679,
			"0.009": 5.94892198928,
			"0.01": 8.18114703409,
			"0.011": 7.61459780404,
			"0.012": 6.96481876352,
			"0.013": 4.81760489226,
			"0.014": 5.67114265919,
			"0.015": 1.05633031553,
			"0.016": 0.0,
			"0.017": 0.0,
			"0.018": 0.0,
			"0.019": 0.0,
			"0.02": 0.0,
			"0.021": 0.0,
			"0.022": 0.0,
			"0.023": 0.0,
			"0.024": 0.0,
			"0.025": 0.0
		}
	}
}
