{
	 "smiles": "OC(=O)C1=CC=C(NC(=O)C2=CC(Br)=CC=C2)C=C1", 
	 "Tm": 545.15, 
	 "num_atms": 29, 
	 "gaussian": { 
		 "optdone": 1, 
		 "sigma_profile": "yes", 
		 "theory": "DFT", 
		 "functional": "B3LYP", 
		 "basiset": "6-31G**", 
		 "properties": { 
			 "R2extent": 9981.0073, 
			 "electric_dipole_moment_norm": 3.50419827065, 
			 "electric_quadrupole_moment_norm": 18.444352668, 
			 "total_energy": -3391.37717669, 
			 "HOMO_LUMO_gap": 0.17488, 
			 "cosmo_polarized_energy": -17.36, 
			 "cosmo_cavitation_energy": 37.17, 
			 "cosmo_dispersion_energy": -26.63, 
			 "cosmo_repulsion_energy": 2.06, 
			 "cosmo_total_nonelectrostatic_energy": 12.6, 
			 "SMD_solvation_energy": 6.94 
		},
		"coords": [
			{
				"x": -2.044803817,
				"y": 2.4015760004,
				"z": -4.831726273,
				"element": "O" 
			},
			{
				"x": -0.9082957259,
				"y": 2.3333547144,
				"z": -4.0915290818,
				"element": "C" 
			},
			{
				"x": 0.1941030117,
				"y": 2.4472597064,
				"z": -4.5915442325,
				"element": "O" 
			},
			{
				"x": -1.1674925419,
				"y": 2.110033237,
				"z": -2.6486412478,
				"element": "C" 
			},
			{
				"x": -0.0688699194,
				"y": 2.0360082533,
				"z": -1.7812267769,
				"element": "C" 
			},
			{
				"x": -0.2482311763,
				"y": 1.8377173807,
				"z": -0.4184826059,
				"element": "C" 
			},
			{
				"x": -1.5446507058,
				"y": 1.6832723787,
				"z": 0.1015784935,
				"element": "C" 
			},
			{
				"x": -1.7996676153,
				"y": 1.5043991201,
				"z": 1.4768090231,
				"element": "N" 
			},
			{
				"x": -1.0021439638,
				"y": 1.0341914023,
				"z": 2.5137376052,
				"element": "C" 
			},
			{
				"x": -1.244091107,
				"y": 1.3818584508,
				"z": 3.6619693319,
				"element": "O" 
			},
			{
				"x": 0.080588702,
				"y": 0.0385574688,
				"z": 2.2185646616,
				"element": "C" 
			},
			{
				"x": 1.1933465299,
				"y": 0.0412719967,
				"z": 3.0706191346,
				"element": "C" 
			},
			{
				"x": 2.1925397351,
				"y": -0.9087361677,
				"z": 2.8898375742,
				"element": "C" 
			},
			{
				"x": 3.7245922292,
				"y": -0.8884496453,
				"z": 4.0311612234,
				"element": "Br" 
			},
			{
				"x": 2.093784592,
				"y": -1.8833802662,
				"z": 1.896227504,
				"element": "C" 
			},
			{
				"x": 0.968145035,
				"y": -1.8977106759,
				"z": 1.0711120823,
				"element": "C" 
			},
			{
				"x": -0.0343377642,
				"y": -0.9406928289,
				"z": 1.2226528613,
				"element": "C" 
			},
			{
				"x": -2.6472870156,
				"y": 1.7641993208,
				"z": -0.7656984232,
				"element": "C" 
			},
			{
				"x": -2.4617328176,
				"y": 1.9814144787,
				"z": -2.1254205244,
				"element": "C" 
			},
			{
				"x": -1.7536975598,
				"y": 2.5480789085,
				"z": -5.7465599913,
				"element": "H" 
			},
			{
				"x": 0.9266050081,
				"y": 2.1571434459,
				"z": -2.1947697128,
				"element": "H" 
			},
			{
				"x": 0.6093757632,
				"y": 1.8157109719,
				"z": 0.2427832477,
				"element": "H" 
			},
			{
				"x": -2.6088189339,
				"y": 1.9938255094,
				"z": 1.8417376542,
				"element": "H" 
			},
			{
				"x": 1.2540762735,
				"y": 0.7771592745,
				"z": 3.8632297936,
				"element": "H" 
			},
			{
				"x": 2.8799098189,
				"y": -2.6200256514,
				"z": 1.775831769,
				"element": "H" 
			},
			{
				"x": 0.8759623629,
				"y": -2.6630025176,
				"z": 0.3065391947,
				"element": "H" 
			},
			{
				"x": -0.9070735402,
				"y": -0.9647548798,
				"z": 0.5799005137,
				"element": "H" 
			},
			{
				"x": -3.6497748377,
				"y": 1.6460136578,
				"z": -0.363993396,
				"element": "H" 
			},
			{
				"x": -3.3177600199,
				"y": 2.0421069559,
				"z": -2.7875994024,
				"element": "H" 
			}
		],
		 "valence_orbital": [ 
			{
				"type": "occ",
				"energy": -0.28047,
				"method": "rhf"
			},
			{
				"type": "occ",
				"energy": -0.27425,
				"method": "rhf"
			},
			{
				"type": "occ",
				"energy": -0.26436,
				"method": "rhf"
			},
			{
				"type": "occ",
				"energy": -0.25375,
				"method": "rhf"
			},
			{
				"type": "occ",
				"energy": -0.24033,
				"method": "rhf"
			},
			{
				"type": "unocc",
				"energy": -0.06545,
				"method": "rhf"
			},
			{
				"type": "unocc",
				"energy": -0.0443,
				"method": "rhf"
			},
			{
				"type": "unocc",
				"energy": -0.03015,
				"method": "rhf"
			},
			{
				"type": "unocc",
				"energy": -0.01665,
				"method": "rhf"
			},
			{
				"type": "unocc",
				"energy": 0.00092,
				"method": "rhf"
			}
		],
		"cosmo_sigma_profile": { 
			"-0.025": 0.0,
			"-0.024": 0.0,
			"-0.023": 0.0,
			"-0.022": 0.0,
			"-0.021": 0.0,
			"-0.02": 0.0,
			"-0.019": 0.0495900785787,
			"-0.018": 0.665046946054,
			"-0.017": 1.08271214303,
			"-0.016": 0.785902934562,
			"-0.015": 0.908537983791,
			"-0.014": 2.30319236433,
			"-0.013": 1.26569544701,
			"-0.012": 2.31283090786,
			"-0.011": 1.60127631852,
			"-0.01": 2.16871029895,
			"-0.009": 1.74901128818,
			"-0.008": 2.89820277534,
			"-0.007": 10.9032032113,
			"-0.006": 17.0172626242,
			"-0.005": 15.359190436,
			"-0.004": 15.6047071718,
			"-0.003": 16.3226109219,
			"-0.002": 17.7175733451,
			"-0.001": 21.5621971789,
			"0.0": 21.7720029282,
			"0.001": 30.3201864115,
			"0.002": 31.1194768091,
			"0.003": 25.9062053693,
			"0.004": 15.6491079741,
			"0.005": 7.83901853486,
			"0.006": 4.80692582689,
			"0.007": 4.01253324712,
			"0.008": 3.23600756206,
			"0.009": 3.1109209716,
			"0.01": 3.21067813,
			"0.011": 5.84822482535,
			"0.012": 9.2356271961,
			"0.013": 3.21916599698,
			"0.014": 0.0212737395721,
			"0.015": 0.0,
			"0.016": 0.0,
			"0.017": 0.0,
			"0.018": 0.0,
			"0.019": 0.0,
			"0.02": 0.0,
			"0.021": 0.0,
			"0.022": 0.0,
			"0.023": 0.0,
			"0.024": 0.0,
			"0.025": 0.0
		}
	}
}
