{
	 "smiles": "COC1=CC2=C(C(C)N(C)CC2)C(O)=C1OC", 
	 "Tm": 385.15, 
	 "num_atms": 36, 
	 "gaussian": { 
		 "optdone": 1, 
		 "sigma_profile": "yes", 
		 "theory": "DFT", 
		 "functional": "B3LYP", 
		 "basiset": "6-31G**", 
		 "properties": { 
			 "R2extent": 4879.6137, 
			 "electric_dipole_moment_norm": 1.71125989259, 
			 "electric_quadrupole_moment_norm": 8.6930223743, 
			 "total_energy": -787.224011735, 
			 "HOMO_LUMO_gap": 0.20656, 
			 "cosmo_polarized_energy": -8.52, 
			 "cosmo_cavitation_energy": 36.1, 
			 "cosmo_dispersion_energy": -25.85, 
			 "cosmo_repulsion_energy": 2.01, 
			 "cosmo_total_nonelectrostatic_energy": 12.26, 
			 "SMD_solvation_energy": 5.83 
		},
		"coords": [
			{
				"x": -0.9187315933,
				"y": 2.1165980582,
				"z": -2.6711536703,
				"element": "C" 
			},
			{
				"x": -1.2367262625,
				"y": 0.7494957317,
				"z": -2.3888008716,
				"element": "O" 
			},
			{
				"x": -0.5664847086,
				"y": 0.2198272037,
				"z": -1.3055050777,
				"element": "C" 
			},
			{
				"x": -1.2725061473,
				"y": -0.1119569265,
				"z": -0.1517523039,
				"element": "C" 
			},
			{
				"x": -0.620275626,
				"y": -0.6760787571,
				"z": 0.9512343546,
				"element": "C" 
			},
			{
				"x": 0.7644230112,
				"y": -0.9018425278,
				"z": 0.928736962,
				"element": "C" 
			},
			{
				"x": 1.531902434,
				"y": -1.4592343948,
				"z": 2.1213342995,
				"element": "C" 
			},
			{
				"x": 2.4983467359,
				"y": -0.3937872132,
				"z": 2.6818844605,
				"element": "C" 
			},
			{
				"x": 0.6537354624,
				"y": -1.9276077965,
				"z": 3.215891977,
				"element": "N" 
			},
			{
				"x": 1.2903762758,
				"y": -2.970446546,
				"z": 4.0059415605,
				"element": "C" 
			},
			{
				"x": -0.6984497662,
				"y": -2.3030956795,
				"z": 2.8215919506,
				"element": "C" 
			},
			{
				"x": -1.3945290209,
				"y": -1.109688929,
				"z": 2.1730566637,
				"element": "C" 
			},
			{
				"x": 1.4595592208,
				"y": -0.6038457627,
				"z": -0.2553309375,
				"element": "C" 
			},
			{
				"x": 2.7968340895,
				"y": -0.8598731716,
				"z": -0.34822685,
				"element": "O" 
			},
			{
				"x": 0.8050143635,
				"y": -0.0527412127,
				"z": -1.3652851308,
				"element": "C" 
			},
			{
				"x": 1.5938991422,
				"y": 0.2146376474,
				"z": -2.4760608042,
				"element": "O" 
			},
			{
				"x": 1.2858898808,
				"y": -0.5850296959,
				"z": -3.6311503464,
				"element": "C" 
			},
			{
				"x": -1.1762558904,
				"y": 2.7593775435,
				"z": -1.8200951445,
				"element": "H" 
			},
			{
				"x": -1.5246814072,
				"y": 2.4009209332,
				"z": -3.5341223279,
				"element": "H" 
			},
			{
				"x": 0.1430271435,
				"y": 2.2404517707,
				"z": -2.9096050405,
				"element": "H" 
			},
			{
				"x": -2.3436667276,
				"y": 0.0642886451,
				"z": -0.1327475781,
				"element": "H" 
			},
			{
				"x": 2.1399962512,
				"y": -2.3016497057,
				"z": 1.7417101064,
				"element": "H" 
			},
			{
				"x": 3.0617020446,
				"y": -0.7871282554,
				"z": 3.5335317421,
				"element": "H" 
			},
			{
				"x": 1.9288433436,
				"y": 0.4744126161,
				"z": 3.0252135615,
				"element": "H" 
			},
			{
				"x": 3.2131738282,
				"y": -0.0790268302,
				"z": 1.9192437572,
				"element": "H" 
			},
			{
				"x": 1.437665293,
				"y": -3.9144918237,
				"z": 3.4454707988,
				"element": "H" 
			},
			{
				"x": 2.2699455931,
				"y": -2.6386174141,
				"z": 4.3604372975,
				"element": "H" 
			},
			{
				"x": 0.6777037632,
				"y": -3.1922624852,
				"z": 4.8861918677,
				"element": "H" 
			},
			{
				"x": -1.2366125762,
				"y": -2.608454647,
				"z": 3.7265618873,
				"element": "H" 
			},
			{
				"x": -0.7214187532,
				"y": -3.1673171072,
				"z": 2.1270163825,
				"element": "H" 
			},
			{
				"x": -2.4214066535,
				"y": -1.3705899501,
				"z": 1.8938030994,
				"element": "H" 
			},
			{
				"x": -1.4522178551,
				"y": -0.2964994287,
				"z": 2.908444164,
				"element": "H" 
			},
			{
				"x": 3.0640176158,
				"y": -0.5372505506,
				"z": -1.2257854708,
				"element": "H" 
			},
			{
				"x": 1.9923352541,
				"y": -0.2856900966,
				"z": -4.4082257995,
				"element": "H" 
			},
			{
				"x": 0.261538228,
				"y": -0.4016681638,
				"z": -3.9654650859,
				"element": "H" 
			},
			{
				"x": 1.4121340134,
				"y": -1.651735078,
				"z": -3.4101844534,
				"element": "H" 
			}
		],
		 "valence_orbital": [ 
			{
				"type": "occ",
				"energy": -0.29266,
				"method": "rhf"
			},
			{
				"type": "occ",
				"energy": -0.26718,
				"method": "rhf"
			},
			{
				"type": "occ",
				"energy": -0.22137,
				"method": "rhf"
			},
			{
				"type": "occ",
				"energy": -0.21171,
				"method": "rhf"
			},
			{
				"type": "occ",
				"energy": -0.19875,
				"method": "rhf"
			},
			{
				"type": "unocc",
				"energy": 0.00781,
				"method": "rhf"
			},
			{
				"type": "unocc",
				"energy": 0.01603,
				"method": "rhf"
			},
			{
				"type": "unocc",
				"energy": 0.06645,
				"method": "rhf"
			},
			{
				"type": "unocc",
				"energy": 0.09697,
				"method": "rhf"
			},
			{
				"type": "unocc",
				"energy": 0.11422,
				"method": "rhf"
			}
		],
		"cosmo_sigma_profile": { 
			"-0.025": 0.0,
			"-0.024": 0.0,
			"-0.023": 0.0,
			"-0.022": 0.0,
			"-0.021": 0.0,
			"-0.02": 0.0,
			"-0.019": 0.0,
			"-0.018": 0.0,
			"-0.017": 0.0,
			"-0.016": 0.0,
			"-0.015": 0.0,
			"-0.014": 0.121381218324,
			"-0.013": 0.487796601197,
			"-0.012": 0.513149381951,
			"-0.011": 0.577648263457,
			"-0.01": 0.542935349938,
			"-0.009": 0.938558593579,
			"-0.008": 0.832151448548,
			"-0.007": 0.963604564782,
			"-0.006": 3.30545840165,
			"-0.005": 11.1388487859,
			"-0.004": 23.3165711184,
			"-0.003": 31.6230858404,
			"-0.002": 34.1485349028,
			"-0.001": 39.0703541573,
			"0.0": 33.3038635212,
			"0.001": 20.8609158852,
			"0.002": 17.1062550849,
			"0.003": 14.099120819,
			"0.004": 12.7831348691,
			"0.005": 11.2546517837,
			"0.006": 6.26351268262,
			"0.007": 3.82266950335,
			"0.008": 3.67990727027,
			"0.009": 3.40858082973,
			"0.01": 3.22603980624,
			"0.011": 2.0917479988,
			"0.012": 1.50473320378,
			"0.013": 0.26988131483,
			"0.014": 0.600774375461,
			"0.015": 0.167749112407,
			"0.016": 0.107842628132,
			"0.017": 0.0,
			"0.018": 0.0,
			"0.019": 0.0,
			"0.02": 0.0,
			"0.021": 0.0,
			"0.022": 0.0,
			"0.023": 0.0,
			"0.024": 0.0,
			"0.025": 0.0
		}
	}
}
