{
	 "smiles": "CNC(=O)C1CC2=C(CN1)C=CC=C2", 
	 "Tm": 371.15, 
	 "num_atms": 28, 
	 "gaussian": { 
		 "optdone": 1, 
		 "sigma_profile": "yes", 
		 "theory": "DFT", 
		 "functional": "B3LYP", 
		 "basiset": "6-31G**", 
		 "properties": { 
			 "R2extent": 3652.4955, 
			 "electric_dipole_moment_norm": 3.16832587497, 
			 "electric_quadrupole_moment_norm": 13.5648714741, 
			 "total_energy": -612.353159736, 
			 "HOMO_LUMO_gap": 0.23011, 
			 "cosmo_polarized_energy": -12.95, 
			 "cosmo_cavitation_energy": 30.16, 
			 "cosmo_dispersion_energy": -22.2, 
			 "cosmo_repulsion_energy": 1.75, 
			 "cosmo_total_nonelectrostatic_energy": 9.71, 
			 "SMD_solvation_energy": 3.9 
		},
		"coords": [
			{
				"x": 0.5635064018,
				"y": 4.0073544812,
				"z": 1.0966625835,
				"element": "C" 
			},
			{
				"x": 0.1623544024,
				"y": 2.797334967,
				"z": 0.4054041695,
				"element": "N" 
			},
			{
				"x": 0.7934802697,
				"y": 2.3483910327,
				"z": -0.7160761541,
				"element": "C" 
			},
			{
				"x": 1.7218006257,
				"y": 2.928485021,
				"z": -1.2680980427,
				"element": "O" 
			},
			{
				"x": 0.2789007011,
				"y": 0.998163134,
				"z": -1.231989878,
				"element": "C" 
			},
			{
				"x": 1.1640075832,
				"y": -0.1244139285,
				"z": -0.6605859928,
				"element": "C" 
			},
			{
				"x": 0.5941983734,
				"y": -1.5042776355,
				"z": -0.9134249711,
				"element": "C" 
			},
			{
				"x": -0.7625342459,
				"y": -1.6683581648,
				"z": -1.2279244485,
				"element": "C" 
			},
			{
				"x": -1.6662664585,
				"y": -0.466963357,
				"z": -1.4127887308,
				"element": "C" 
			},
			{
				"x": -1.1089970766,
				"y": 0.7540931024,
				"z": -0.8186155991,
				"element": "N" 
			},
			{
				"x": -1.2746303498,
				"y": -2.9573547755,
				"z": -1.4256622256,
				"element": "C" 
			},
			{
				"x": -0.4566309823,
				"y": -4.0783845324,
				"z": -1.3130842273,
				"element": "C" 
			},
			{
				"x": 0.8960734559,
				"y": -3.9174630393,
				"z": -1.000866051,
				"element": "C" 
			},
			{
				"x": 1.4107384468,
				"y": -2.6386741688,
				"z": -0.8042532535,
				"element": "C" 
			},
			{
				"x": 0.9995147344,
				"y": 3.7860707317,
				"z": 2.0782548684,
				"element": "H" 
			},
			{
				"x": -0.2879639661,
				"y": 4.6821875151,
				"z": 1.237185152,
				"element": "H" 
			},
			{
				"x": 1.3162245611,
				"y": 4.5015820558,
				"z": 0.4809333279,
				"element": "H" 
			},
			{
				"x": -0.548683816,
				"y": 2.1899698245,
				"z": 0.7928787341,
				"element": "H" 
			},
			{
				"x": 0.4008936565,
				"y": 1.025942371,
				"z": -2.327345753,
				"element": "H" 
			},
			{
				"x": 2.1694335521,
				"y": -0.0345281467,
				"z": -1.0841596907,
				"element": "H" 
			},
			{
				"x": 1.2612767279,
				"y": 0.0310700574,
				"z": 0.4225118825,
				"element": "H" 
			},
			{
				"x": -1.8548783476,
				"y": -0.3431741185,
				"z": -2.496175523,
				"element": "H" 
			},
			{
				"x": -2.6401725961,
				"y": -0.6615648212,
				"z": -0.947936546,
				"element": "H" 
			},
			{
				"x": -1.6832393965,
				"y": 1.539469313,
				"z": -1.116923911,
				"element": "H" 
			},
			{
				"x": -2.3278613051,
				"y": -3.0794375813,
				"z": -1.6698574532,
				"element": "H" 
			},
			{
				"x": -0.8699274741,
				"y": -5.0711338499,
				"z": -1.466223457,
				"element": "H" 
			},
			{
				"x": 1.5449294284,
				"y": -4.7842102696,
				"z": -0.9133012532,
				"element": "H" 
			},
			{
				"x": 2.4633530941,
				"y": -2.5101752174,
				"z": -0.5624375563,
				"element": "H" 
			}
		],
		 "valence_orbital": [ 
			{
				"type": "occ",
				"energy": -0.25188,
				"method": "rhf"
			},
			{
				"type": "occ",
				"energy": -0.24753,
				"method": "rhf"
			},
			{
				"type": "occ",
				"energy": -0.24037,
				"method": "rhf"
			},
			{
				"type": "occ",
				"energy": -0.23809,
				"method": "rhf"
			},
			{
				"type": "occ",
				"energy": -0.23393,
				"method": "rhf"
			},
			{
				"type": "unocc",
				"energy": -0.00382,
				"method": "rhf"
			},
			{
				"type": "unocc",
				"energy": 0.00218,
				"method": "rhf"
			},
			{
				"type": "unocc",
				"energy": 0.03412,
				"method": "rhf"
			},
			{
				"type": "unocc",
				"energy": 0.08065,
				"method": "rhf"
			},
			{
				"type": "unocc",
				"energy": 0.10051,
				"method": "rhf"
			}
		],
		"cosmo_sigma_profile": { 
			"-0.025": 0.0,
			"-0.024": 0.0,
			"-0.023": 0.0,
			"-0.022": 0.0,
			"-0.021": 0.0,
			"-0.02": 0.0,
			"-0.019": 0.0,
			"-0.018": 0.0,
			"-0.017": 0.0,
			"-0.016": 0.0,
			"-0.015": 0.0,
			"-0.014": 0.0,
			"-0.013": 0.0,
			"-0.012": 0.0756132063808,
			"-0.011": 1.38682052213,
			"-0.01": 2.27012410838,
			"-0.009": 2.48024280012,
			"-0.008": 1.57997730549,
			"-0.007": 2.32203091927,
			"-0.006": 5.78710310691,
			"-0.005": 15.7256874797,
			"-0.004": 27.9618161519,
			"-0.003": 32.9027108937,
			"-0.002": 26.1094463657,
			"-0.001": 20.6125024711,
			"0.0": 12.0243040142,
			"0.001": 10.9055108123,
			"0.002": 9.66871104858,
			"0.003": 10.2875184823,
			"0.004": 10.3936472145,
			"0.005": 9.70723055753,
			"0.006": 10.37360173,
			"0.007": 4.82253553963,
			"0.008": 2.61807620506,
			"0.009": 1.17430334962,
			"0.01": 1.91545109637,
			"0.011": 1.73700214399,
			"0.012": 2.16027082858,
			"0.013": 1.8870897663,
			"0.014": 5.53431441179,
			"0.015": 2.57297924868,
			"0.016": 0.184137138669,
			"0.017": 0.0,
			"0.018": 0.0,
			"0.019": 0.0,
			"0.02": 0.0,
			"0.021": 0.0,
			"0.022": 0.0,
			"0.023": 0.0,
			"0.024": 0.0,
			"0.025": 0.0
		}
	}
}
