{
	 "smiles": "COC1=C(C=C(C=C1)C(N)=S)[N+]([O-])=O", 
	 "Tm": 465.15, 
	 "num_atms": 22, 
	 "gaussian": { 
		 "optdone": 1, 
		 "sigma_profile": "yes", 
		 "theory": "DFT", 
		 "functional": "B3LYP", 
		 "basiset": "6-31G**", 
		 "properties": { 
			 "R2extent": 4625.5363, 
			 "electric_dipole_moment_norm": 6.97691585229, 
			 "electric_quadrupole_moment_norm": 21.190494192, 
			 "total_energy": -1042.9166628, 
			 "HOMO_LUMO_gap": 0.12962, 
			 "cosmo_polarized_energy": -20.75, 
			 "cosmo_cavitation_energy": 28.97, 
			 "cosmo_dispersion_energy": -21.31, 
			 "cosmo_repulsion_energy": 1.65, 
			 "cosmo_total_nonelectrostatic_energy": 9.3, 
			 "SMD_solvation_energy": 7.03 
		},
		"coords": [
			{
				"x": 1.8075795655,
				"y": -1.3184889888,
				"z": 2.8234529456,
				"element": "C" 
			},
			{
				"x": 0.7838249646,
				"y": -1.2952224351,
				"z": 1.8159317893,
				"element": "O" 
			},
			{
				"x": 0.6047747766,
				"y": -0.1121816048,
				"z": 1.1707712072,
				"element": "C" 
			},
			{
				"x": -0.4344960481,
				"y": 0.780627915,
				"z": 1.5005737433,
				"element": "C" 
			},
			{
				"x": -0.6774023121,
				"y": 1.9269040551,
				"z": 0.7523273501,
				"element": "C" 
			},
			{
				"x": 0.1291274164,
				"y": 2.2364569126,
				"z": -0.347391934,
				"element": "C" 
			},
			{
				"x": 1.1758369626,
				"y": 1.3571415913,
				"z": -0.6785160576,
				"element": "C" 
			},
			{
				"x": 1.4035987407,
				"y": 0.2046802845,
				"z": 0.0659980663,
				"element": "C" 
			},
			{
				"x": -0.1227768039,
				"y": 3.4785694446,
				"z": -1.1323173223,
				"element": "C" 
			},
			{
				"x": 0.201049479,
				"y": 3.3980200697,
				"z": -2.4449239409,
				"element": "N" 
			},
			{
				"x": -0.7112300838,
				"y": 4.8803487183,
				"z": -0.4533753421,
				"element": "S" 
			},
			{
				"x": -1.3183403081,
				"y": 0.5319898348,
				"z": 2.6496456685,
				"element": "N" 
			},
			{
				"x": -0.8394392619,
				"y": -0.0271676882,
				"z": 3.6342162249,
				"element": "O" 
			},
			{
				"x": -2.4800333504,
				"y": 0.923237919,
				"z": 2.5564388668,
				"element": "O" 
			},
			{
				"x": 1.852621803,
				"y": -2.3485351325,
				"z": 3.1787713267,
				"element": "H" 
			},
			{
				"x": 1.5427003493,
				"y": -0.6533774188,
				"z": 3.6489959028,
				"element": "H" 
			},
			{
				"x": 2.7789576114,
				"y": -1.033783334,
				"z": 2.4012122893,
				"element": "H" 
			},
			{
				"x": -1.4937269085,
				"y": 2.5823920255,
				"z": 1.0296394954,
				"element": "H" 
			},
			{
				"x": 1.8379807049,
				"y": 1.5893023599,
				"z": -1.5070878738,
				"element": "H" 
			},
			{
				"x": 2.1987868188,
				"y": -0.4830267242,
				"z": -0.2029516344,
				"element": "H" 
			},
			{
				"x": 0.0205704811,
				"y": 4.2054026563,
				"z": -3.0242090381,
				"element": "H" 
			},
			{
				"x": 0.3235354027,
				"y": 2.5049095397,
				"z": -2.899601733,
				"element": "H" 
			}
		],
		 "valence_orbital": [ 
			{
				"type": "occ",
				"energy": -0.29179,
				"method": "rhf"
			},
			{
				"type": "occ",
				"energy": -0.28201,
				"method": "rhf"
			},
			{
				"type": "occ",
				"energy": -0.27533,
				"method": "rhf"
			},
			{
				"type": "occ",
				"energy": -0.24264,
				"method": "rhf"
			},
			{
				"type": "occ",
				"energy": -0.21979,
				"method": "rhf"
			},
			{
				"type": "unocc",
				"energy": -0.09017,
				"method": "rhf"
			},
			{
				"type": "unocc",
				"energy": -0.07175,
				"method": "rhf"
			},
			{
				"type": "unocc",
				"energy": -0.02532,
				"method": "rhf"
			},
			{
				"type": "unocc",
				"energy": 0.00529,
				"method": "rhf"
			},
			{
				"type": "unocc",
				"energy": 0.05736,
				"method": "rhf"
			}
		],
		"cosmo_sigma_profile": { 
			"-0.025": 0.0,
			"-0.024": 0.0,
			"-0.023": 0.0,
			"-0.022": 0.0,
			"-0.021": 0.0,
			"-0.02": 0.0,
			"-0.019": 0.0,
			"-0.018": 0.0,
			"-0.017": 0.0,
			"-0.016": 0.708542998379,
			"-0.015": 2.30723471231,
			"-0.014": 3.10914713792,
			"-0.013": 2.98938271804,
			"-0.012": 2.38222093843,
			"-0.011": 1.98186499209,
			"-0.01": 2.6601287102,
			"-0.009": 2.62386635103,
			"-0.008": 4.7481441399,
			"-0.007": 6.94160143609,
			"-0.006": 9.86682298155,
			"-0.005": 11.8225615599,
			"-0.004": 14.9289507576,
			"-0.003": 19.1028285984,
			"-0.002": 14.9667279304,
			"-0.001": 14.7864276009,
			"0.0": 14.9050273656,
			"0.001": 11.9659356162,
			"0.002": 7.24290738764,
			"0.003": 9.51946515637,
			"0.004": 8.34211418038,
			"0.005": 7.99829098649,
			"0.006": 9.72126686131,
			"0.007": 15.1478082257,
			"0.008": 13.9646549289,
			"0.009": 10.2141719723,
			"0.01": 6.55124192248,
			"0.011": 2.42827635851,
			"0.012": 0.344597133852,
			"0.013": 0.0,
			"0.014": 0.0,
			"0.015": 0.0,
			"0.016": 0.0,
			"0.017": 0.0,
			"0.018": 0.0,
			"0.019": 0.0,
			"0.02": 0.0,
			"0.021": 0.0,
			"0.022": 0.0,
			"0.023": 0.0,
			"0.024": 0.0,
			"0.025": 0.0
		}
	}
}
