{
	 "smiles": "COC1=CC(NC2=CC=CC=C2)=CC=C1", 
	 "Tm": 346.15, 
	 "num_atms": 28, 
	 "gaussian": { 
		 "optdone": 1, 
		 "sigma_profile": "yes", 
		 "theory": "DFT", 
		 "functional": "B3LYP", 
		 "basiset": "6-31G**", 
		 "properties": { 
			 "R2extent": 4857.2916, 
			 "electric_dipole_moment_norm": 1.23768197046, 
			 "electric_quadrupole_moment_norm": 10.7450739956, 
			 "total_energy": -633.183945276, 
			 "HOMO_LUMO_gap": 0.1829, 
			 "cosmo_polarized_energy": -9.45, 
			 "cosmo_cavitation_energy": 31.45, 
			 "cosmo_dispersion_energy": -23.31, 
			 "cosmo_repulsion_energy": 1.81, 
			 "cosmo_total_nonelectrostatic_energy": 9.95, 
			 "SMD_solvation_energy": 5.87 
		},
		"coords": [
			{
				"x": 4.4088501539,
				"y": 0.9806126658,
				"z": -1.2151782302,
				"element": "C" 
			},
			{
				"x": 3.292343404,
				"y": 0.1132542109,
				"z": -1.3226739675,
				"element": "O" 
			},
			{
				"x": 2.21000304,
				"y": 0.3531731646,
				"z": -0.5236456558,
				"element": "C" 
			},
			{
				"x": 1.153698412,
				"y": -0.5525090308,
				"z": -0.6659643344,
				"element": "C" 
			},
			{
				"x": -0.017414618,
				"y": -0.4149106943,
				"z": 0.0901055754,
				"element": "C" 
			},
			{
				"x": -1.0598977921,
				"y": -1.3182205992,
				"z": -0.1398407716,
				"element": "N" 
			},
			{
				"x": -2.1105499802,
				"y": -1.7035259006,
				"z": 0.6996782138,
				"element": "C" 
			},
			{
				"x": -2.0477155813,
				"y": -1.609977091,
				"z": 2.1015201006,
				"element": "C" 
			},
			{
				"x": -3.120139567,
				"y": -2.0427748442,
				"z": 2.880395663,
				"element": "C" 
			},
			{
				"x": -4.2618884211,
				"y": -2.5916361249,
				"z": 2.2944270829,
				"element": "C" 
			},
			{
				"x": -4.318558976,
				"y": -2.704948412,
				"z": 0.9033026235,
				"element": "C" 
			},
			{
				"x": -3.2622625317,
				"y": -2.2609061755,
				"z": 0.1133342464,
				"element": "C" 
			},
			{
				"x": -0.120204371,
				"y": 0.653767267,
				"z": 1.003487365,
				"element": "C" 
			},
			{
				"x": 0.9464091557,
				"y": 1.5341521752,
				"z": 1.1447181546,
				"element": "C" 
			},
			{
				"x": 2.1196861906,
				"y": 1.4056245017,
				"z": 0.3956727441,
				"element": "C" 
			},
			{
				"x": 5.148400408,
				"y": 0.6102155462,
				"z": -1.9271000725,
				"element": "H" 
			},
			{
				"x": 4.1466404916,
				"y": 2.0147030984,
				"z": -1.4739346053,
				"element": "H" 
			},
			{
				"x": 4.8406294058,
				"y": 0.9640025033,
				"z": -0.2060695851,
				"element": "H" 
			},
			{
				"x": 1.2675528449,
				"y": -1.3703365083,
				"z": -1.3714079337,
				"element": "H" 
			},
			{
				"x": -1.0345018452,
				"y": -1.7817503778,
				"z": -1.0354061779,
				"element": "H" 
			},
			{
				"x": -1.1547422169,
				"y": -1.222812716,
				"z": 2.5776193559,
				"element": "H" 
			},
			{
				"x": -3.050566475,
				"y": -1.9620195438,
				"z": 3.9618466444,
				"element": "H" 
			},
			{
				"x": -5.0902934729,
				"y": -2.9287139664,
				"z": 2.9095505851,
				"element": "H" 
			},
			{
				"x": -5.1956807052,
				"y": -3.1329715588,
				"z": 0.4257615414,
				"element": "H" 
			},
			{
				"x": -3.3229013975,
				"y": -2.3359290538,
				"z": -0.9699678148,
				"element": "H" 
			},
			{
				"x": -1.0323544675,
				"y": 0.8060967029,
				"z": 1.566545238,
				"element": "H" 
			},
			{
				"x": 0.8591906477,
				"y": 2.3579178627,
				"z": 1.8479586148,
				"element": "H" 
			},
			{
				"x": 2.9285682641,
				"y": 2.1128228985,
				"z": 0.5287653998,
				"element": "H" 
			}
		],
		 "valence_orbital": [ 
			{
				"type": "occ",
				"energy": -0.29842,
				"method": "rhf"
			},
			{
				"type": "occ",
				"energy": -0.24808,
				"method": "rhf"
			},
			{
				"type": "occ",
				"energy": -0.24556,
				"method": "rhf"
			},
			{
				"type": "occ",
				"energy": -0.21732,
				"method": "rhf"
			},
			{
				"type": "occ",
				"energy": -0.18576,
				"method": "rhf"
			},
			{
				"type": "unocc",
				"energy": -0.00286,
				"method": "rhf"
			},
			{
				"type": "unocc",
				"energy": 0.00302,
				"method": "rhf"
			},
			{
				"type": "unocc",
				"energy": 0.01048,
				"method": "rhf"
			},
			{
				"type": "unocc",
				"energy": 0.03895,
				"method": "rhf"
			},
			{
				"type": "unocc",
				"energy": 0.08807,
				"method": "rhf"
			}
		],
		"cosmo_sigma_profile": { 
			"-0.025": 0.0,
			"-0.024": 0.0,
			"-0.023": 0.0,
			"-0.022": 0.0,
			"-0.021": 0.0,
			"-0.02": 0.0,
			"-0.019": 0.0,
			"-0.018": 0.0,
			"-0.017": 0.0,
			"-0.016": 0.0,
			"-0.015": 0.0,
			"-0.014": 0.291764710236,
			"-0.013": 0.961404195475,
			"-0.012": 1.79481622096,
			"-0.011": 0.943155920451,
			"-0.01": 1.6315982877,
			"-0.009": 1.58532874097,
			"-0.008": 1.89067645322,
			"-0.007": 1.84911464741,
			"-0.006": 7.67310191612,
			"-0.005": 22.3741434588,
			"-0.004": 22.8252336264,
			"-0.003": 27.7511855022,
			"-0.002": 18.7631279895,
			"-0.001": 13.7443648508,
			"0.0": 13.4688052749,
			"0.001": 11.8584767395,
			"0.002": 13.028322135,
			"0.003": 15.1145665243,
			"0.004": 20.2927671445,
			"0.005": 20.8728412473,
			"0.006": 18.7161890692,
			"0.007": 7.94900243902,
			"0.008": 1.44455210206,
			"0.009": 1.78463536893,
			"0.01": 1.52989296918,
			"0.011": 0.723275328821,
			"0.012": 0.0,
			"0.013": 0.0,
			"0.014": 0.0,
			"0.015": 0.0,
			"0.016": 0.0,
			"0.017": 0.0,
			"0.018": 0.0,
			"0.019": 0.0,
			"0.02": 0.0,
			"0.021": 0.0,
			"0.022": 0.0,
			"0.023": 0.0,
			"0.024": 0.0,
			"0.025": 0.0
		}
	}
}
