{
	 "smiles": "NC1=CC2=C(C=CC=C2)C(=O)N1", 
	 "Tm": 593.15, 
	 "num_atms": 20, 
	 "gaussian": { 
		 "optdone": 1, 
		 "sigma_profile": "yes", 
		 "theory": "DFT", 
		 "functional": "B3LYP", 
		 "basiset": "6-31G**", 
		 "properties": { 
			 "R2extent": 2357.1874, 
			 "electric_dipole_moment_norm": 4.67265357158, 
			 "electric_quadrupole_moment_norm": 19.5624514169, 
			 "total_energy": -532.535664716, 
			 "HOMO_LUMO_gap": 0.16497, 
			 "cosmo_polarized_energy": -17.43, 
			 "cosmo_cavitation_energy": 23.99, 
			 "cosmo_dispersion_energy": -18.15, 
			 "cosmo_repulsion_energy": 1.43, 
			 "cosmo_total_nonelectrostatic_energy": 7.26, 
			 "SMD_solvation_energy": 4.53 
		},
		"coords": [
			{
				"x": 2.5202171189,
				"y": 2.9009831899,
				"z": -0.6183036068,
				"element": "N" 
			},
			{
				"x": 1.711327754,
				"y": 1.933908422,
				"z": -0.0251278557,
				"element": "C" 
			},
			{
				"x": 0.4897217346,
				"y": 1.5373328094,
				"z": -0.4848320176,
				"element": "C" 
			},
			{
				"x": -0.2819634225,
				"y": 0.5878568574,
				"z": 0.2682764397,
				"element": "C" 
			},
			{
				"x": 0.2422174387,
				"y": 0.0451699123,
				"z": 1.4718876374,
				"element": "C" 
			},
			{
				"x": -0.4922992087,
				"y": -0.8923961467,
				"z": 2.2155640385,
				"element": "C" 
			},
			{
				"x": -1.7414126536,
				"y": -1.3069651131,
				"z": 1.7814483812,
				"element": "C" 
			},
			{
				"x": -2.2701464437,
				"y": -0.7789911468,
				"z": 0.5895371717,
				"element": "C" 
			},
			{
				"x": -1.558090941,
				"y": 0.1488756919,
				"z": -0.1533258856,
				"element": "C" 
			},
			{
				"x": 1.5589419512,
				"y": 0.4687829374,
				"z": 1.966680821,
				"element": "C" 
			},
			{
				"x": 2.0994923414,
				"y": 0.0868483536,
				"z": 2.9999470836,
				"element": "O" 
			},
			{
				"x": 2.2063027354,
				"y": 1.4063785522,
				"z": 1.1507595203,
				"element": "N" 
			},
			{
				"x": 2.1891431249,
				"y": 3.1926406853,
				"z": -1.5284002882,
				"element": "H" 
			},
			{
				"x": 3.5055090798,
				"y": 2.6637066962,
				"z": -0.6516963124,
				"element": "H" 
			},
			{
				"x": 0.1090821751,
				"y": 1.9295214948,
				"z": -1.4211926853,
				"element": "H" 
			},
			{
				"x": -0.0493319583,
				"y": -1.2740263276,
				"z": 3.1296582128,
				"element": "H" 
			},
			{
				"x": -2.3091012166,
				"y": -2.0333525057,
				"z": 2.354729843,
				"element": "H" 
			},
			{
				"x": -3.2496834047,
				"y": -1.1011063998,
				"z": 0.2462653742,
				"element": "H" 
			},
			{
				"x": -1.977314388,
				"y": 0.5508234399,
				"z": -1.0719667794,
				"element": "H" 
			},
			{
				"x": 3.0659881831,
				"y": 1.7713085974,
				"z": 1.5413909074,
				"element": "H" 
			}
		],
		 "valence_orbital": [ 
			{
				"type": "occ",
				"energy": -0.28523,
				"method": "rhf"
			},
			{
				"type": "occ",
				"energy": -0.27269,
				"method": "rhf"
			},
			{
				"type": "occ",
				"energy": -0.24983,
				"method": "rhf"
			},
			{
				"type": "occ",
				"energy": -0.24815,
				"method": "rhf"
			},
			{
				"type": "occ",
				"energy": -0.19323,
				"method": "rhf"
			},
			{
				"type": "unocc",
				"energy": -0.02826,
				"method": "rhf"
			},
			{
				"type": "unocc",
				"energy": -0.01347,
				"method": "rhf"
			},
			{
				"type": "unocc",
				"energy": 0.04949,
				"method": "rhf"
			},
			{
				"type": "unocc",
				"energy": 0.05856,
				"method": "rhf"
			},
			{
				"type": "unocc",
				"energy": 0.08706,
				"method": "rhf"
			}
		],
		"cosmo_sigma_profile": { 
			"-0.025": 0.0,
			"-0.024": 0.0,
			"-0.023": 0.0,
			"-0.022": 0.0,
			"-0.021": 0.0,
			"-0.02": 0.0,
			"-0.019": 0.0,
			"-0.018": 0.0,
			"-0.017": 0.0,
			"-0.016": 0.337164430438,
			"-0.015": 1.77212856263,
			"-0.014": 3.58453550059,
			"-0.013": 3.54309681982,
			"-0.012": 3.45781049174,
			"-0.011": 3.47548745703,
			"-0.01": 2.60854789452,
			"-0.009": 3.44768739343,
			"-0.008": 2.26704671719,
			"-0.007": 3.13906690481,
			"-0.006": 8.22278265739,
			"-0.005": 11.6735224166,
			"-0.004": 9.86111468266,
			"-0.003": 9.51814886296,
			"-0.002": 8.23037710052,
			"-0.001": 10.3495093495,
			"0.0": 11.3549414317,
			"0.001": 10.0293669362,
			"0.002": 10.9431638395,
			"0.003": 14.2941517446,
			"0.004": 16.7756074433,
			"0.005": 15.4563044694,
			"0.006": 4.38935780148,
			"0.007": 1.77721059565,
			"0.008": 1.7581911678,
			"0.009": 2.29231061828,
			"0.01": 2.21260442576,
			"0.011": 2.41335720225,
			"0.012": 1.52352132999,
			"0.013": 4.61391431345,
			"0.014": 5.5181550164,
			"0.015": 0.520269783407,
			"0.016": 0.0,
			"0.017": 0.0,
			"0.018": 0.0,
			"0.019": 0.0,
			"0.02": 0.0,
			"0.021": 0.0,
			"0.022": 0.0,
			"0.023": 0.0,
			"0.024": 0.0,
			"0.025": 0.0
		}
	}
}
