{
	 "smiles": "OC(=O)C1=NOC(=C1)C1=C(F)C=CC=C1", 
	 "Tm": 456.15, 
	 "num_atms": 21, 
	 "gaussian": { 
		 "optdone": 1, 
		 "sigma_profile": "yes", 
		 "theory": "DFT", 
		 "functional": "B3LYP", 
		 "basiset": "6-31G**", 
		 "properties": { 
			 "R2extent": 3955.401, 
			 "electric_dipole_moment_norm": 7.43819015218, 
			 "electric_quadrupole_moment_norm": 20.8777715676, 
			 "total_energy": -764.886109338, 
			 "HOMO_LUMO_gap": 0.17923, 
			 "cosmo_polarized_energy": -17.64, 
			 "cosmo_cavitation_energy": 27.45, 
			 "cosmo_dispersion_energy": -20.18, 
			 "cosmo_repulsion_energy": 1.54, 
			 "cosmo_total_nonelectrostatic_energy": 8.8, 
			 "SMD_solvation_energy": 6.12 
		},
		"coords": [
			{
				"x": 2.6191139157,
				"y": 3.351578602,
				"z": -2.1652234785,
				"element": "O" 
			},
			{
				"x": 1.9594406686,
				"y": 3.6590646175,
				"z": -1.0171846761,
				"element": "C" 
			},
			{
				"x": 2.1142437533,
				"y": 4.7194671436,
				"z": -0.4730063632,
				"element": "O" 
			},
			{
				"x": 1.0678775404,
				"y": 2.5672886189,
				"z": -0.5049921483,
				"element": "C" 
			},
			{
				"x": 0.0246104322,
				"y": 2.8807877537,
				"z": 0.2373851073,
				"element": "N" 
			},
			{
				"x": -0.5743664158,
				"y": 1.6718057713,
				"z": 0.5483270598,
				"element": "O" 
			},
			{
				"x": 0.1213170693,
				"y": 0.6453781406,
				"z": -0.003473852,
				"element": "C" 
			},
			{
				"x": 1.1837396441,
				"y": 1.1616521334,
				"z": -0.6989263256,
				"element": "C" 
			},
			{
				"x": -0.3814824021,
				"y": -0.6988222467,
				"z": 0.2524424269,
				"element": "C" 
			},
			{
				"x": 0.2417548828,
				"y": -1.8301179566,
				"z": -0.2931124383,
				"element": "C" 
			},
			{
				"x": 1.3328440546,
				"y": -1.6663789184,
				"z": -1.0753472015,
				"element": "F" 
			},
			{
				"x": -0.2155139181,
				"y": -3.1193503219,
				"z": -0.0656092636,
				"element": "C" 
			},
			{
				"x": -1.3411366169,
				"y": -3.3030470471,
				"z": 0.7376545389,
				"element": "C" 
			},
			{
				"x": -1.9892744876,
				"y": -2.198923296,
				"z": 1.2985338438,
				"element": "C" 
			},
			{
				"x": -1.5150392526,
				"y": -0.9130872896,
				"z": 1.0592539279,
				"element": "C" 
			},
			{
				"x": 2.2862680318,
				"y": 2.521806443,
				"z": -2.5360877054,
				"element": "H" 
			},
			{
				"x": 1.9483811636,
				"y": 0.6093086005,
				"z": -1.2192010154,
				"element": "H" 
			},
			{
				"x": 0.312340913,
				"y": -3.9519886051,
				"z": -0.5171465781,
				"element": "H" 
			},
			{
				"x": -1.7087204887,
				"y": -4.3072771476,
				"z": 0.9235856668,
				"element": "H" 
			},
			{
				"x": -2.864566539,
				"y": -2.3404853661,
				"z": 1.9239417794,
				"element": "H" 
			},
			{
				"x": -2.0140319487,
				"y": -0.0542596293,
				"z": 1.4935866954,
				"element": "H" 
			}
		],
		 "valence_orbital": [ 
			{
				"type": "occ",
				"energy": -0.31948,
				"method": "rhf"
			},
			{
				"type": "occ",
				"energy": -0.315,
				"method": "rhf"
			},
			{
				"type": "occ",
				"energy": -0.28306,
				"method": "rhf"
			},
			{
				"type": "occ",
				"energy": -0.27503,
				"method": "rhf"
			},
			{
				"type": "occ",
				"energy": -0.2532,
				"method": "rhf"
			},
			{
				"type": "unocc",
				"energy": -0.07397,
				"method": "rhf"
			},
			{
				"type": "unocc",
				"energy": -0.04052,
				"method": "rhf"
			},
			{
				"type": "unocc",
				"energy": -0.02511,
				"method": "rhf"
			},
			{
				"type": "unocc",
				"energy": 0.0267,
				"method": "rhf"
			},
			{
				"type": "unocc",
				"energy": 0.06087,
				"method": "rhf"
			}
		],
		"cosmo_sigma_profile": { 
			"-0.025": 0.0,
			"-0.024": 0.0,
			"-0.023": 0.0,
			"-0.022": 0.0,
			"-0.021": 0.0,
			"-0.02": 0.033265668016,
			"-0.019": 0.795571928697,
			"-0.018": 1.28177290219,
			"-0.017": 0.889546360998,
			"-0.016": 1.22100362097,
			"-0.015": 1.26604898239,
			"-0.014": 0.918245399523,
			"-0.013": 1.27960727509,
			"-0.012": 1.43965697183,
			"-0.011": 1.24244965505,
			"-0.01": 1.09060942089,
			"-0.009": 1.10179723471,
			"-0.008": 3.57437112536,
			"-0.007": 9.02669507202,
			"-0.006": 11.1455190737,
			"-0.005": 11.3712562966,
			"-0.004": 8.55353933951,
			"-0.003": 10.2387305441,
			"-0.002": 19.4816838374,
			"-0.001": 20.1400659024,
			"0.0": 17.2906404519,
			"0.001": 15.524504772,
			"0.002": 15.3480754628,
			"0.003": 15.4973070497,
			"0.004": 7.42486376947,
			"0.005": 4.79257682463,
			"0.006": 5.92841602619,
			"0.007": 4.38361202262,
			"0.008": 4.86846967408,
			"0.009": 6.59157042844,
			"0.01": 7.83845084748,
			"0.011": 7.01218861471,
			"0.012": 2.97577605306,
			"0.013": 0.492820151553,
			"0.014": 0.0,
			"0.015": 0.0,
			"0.016": 0.0,
			"0.017": 0.0,
			"0.018": 0.0,
			"0.019": 0.0,
			"0.02": 0.0,
			"0.021": 0.0,
			"0.022": 0.0,
			"0.023": 0.0,
			"0.024": 0.0,
			"0.025": 0.0
		}
	}
}
