{
	 "smiles": "NC(=S)NCCC1=NC=CC=C1", 
	 "Tm": 369.15, 
	 "num_atms": 23, 
	 "gaussian": { 
		 "optdone": 1, 
		 "sigma_profile": "yes", 
		 "theory": "DFT", 
		 "functional": "B3LYP", 
		 "basiset": "6-31G**", 
		 "properties": { 
			 "R2extent": 3177.0717, 
			 "electric_dipole_moment_norm": 7.80475004148, 
			 "electric_quadrupole_moment_norm": 30.3959594527, 
			 "total_energy": -873.946273427, 
			 "HOMO_LUMO_gap": 0.14135, 
			 "cosmo_polarized_energy": -18.92, 
			 "cosmo_cavitation_energy": 27.86, 
			 "cosmo_dispersion_energy": -20.7, 
			 "cosmo_repulsion_energy": 1.62, 
			 "cosmo_total_nonelectrostatic_energy": 8.78, 
			 "SMD_solvation_energy": 2.82 
		},
		"coords": [
			{
				"x": -1.313250061,
				"y": 1.7295288004,
				"z": 0.0683714896,
				"element": "N" 
			},
			{
				"x": -0.5827173797,
				"y": 2.4594252718,
				"z": 0.9545984721,
				"element": "C" 
			},
			{
				"x": -0.1966600179,
				"y": 4.0840357233,
				"z": 0.7091809908,
				"element": "S" 
			},
			{
				"x": -0.1829453648,
				"y": 1.8065087599,
				"z": 2.0846097574,
				"element": "N" 
			},
			{
				"x": -0.721944025,
				"y": 0.557119424,
				"z": 2.6104599506,
				"element": "C" 
			},
			{
				"x": 0.2858116108,
				"y": -0.6008077721,
				"z": 2.6513066571,
				"element": "C" 
			},
			{
				"x": 0.7467933395,
				"y": -1.1473354246,
				"z": 1.3128117271,
				"element": "C" 
			},
			{
				"x": -0.0604688331,
				"y": -1.0009278562,
				"z": 0.2494962294,
				"element": "N" 
			},
			{
				"x": 0.3137791597,
				"y": -1.5426170471,
				"z": -0.919726742,
				"element": "C" 
			},
			{
				"x": 1.4958220144,
				"y": -2.2553854809,
				"z": -1.0952935693,
				"element": "C" 
			},
			{
				"x": 2.3419814547,
				"y": -2.3994716403,
				"z": 0.0049151574,
				"element": "C" 
			},
			{
				"x": 1.9642384844,
				"y": -1.8373212206,
				"z": 1.2199568461,
				"element": "C" 
			},
			{
				"x": -1.146218732,
				"y": 0.7225128666,
				"z": 0.0264465024,
				"element": "H" 
			},
			{
				"x": -1.4966248626,
				"y": 2.2057647679,
				"z": -0.8016367039,
				"element": "H" 
			},
			{
				"x": 0.3087876201,
				"y": 2.4111152584,
				"z": 2.7273146476,
				"element": "H" 
			},
			{
				"x": -1.5980764496,
				"y": 0.2765097786,
				"z": 2.0239194915,
				"element": "H" 
			},
			{
				"x": -1.0724133733,
				"y": 0.735975408,
				"z": 3.6345673785,
				"element": "H" 
			},
			{
				"x": 1.1643799905,
				"y": -0.3025327576,
				"z": 3.2354046358,
				"element": "H" 
			},
			{
				"x": -0.1806761198,
				"y": -1.4242592356,
				"z": 3.2122264202,
				"element": "H" 
			},
			{
				"x": -0.3681922754,
				"y": -1.3922599122,
				"z": -1.7543076515,
				"element": "H" 
			},
			{
				"x": 1.7473508727,
				"y": -2.6732988562,
				"z": -2.0643087651,
				"element": "H" 
			},
			{
				"x": 3.2816493541,
				"y": -2.9368555741,
				"z": -0.0842760761,
				"element": "H" 
			},
			{
				"x": 2.6004935933,
				"y": -1.9285232816,
				"z": 2.0951631542,
				"element": "H" 
			}
		],
		 "valence_orbital": [ 
			{
				"type": "occ",
				"energy": -0.283,
				"method": "rhf"
			},
			{
				"type": "occ",
				"energy": -0.27363,
				"method": "rhf"
			},
			{
				"type": "occ",
				"energy": -0.25652,
				"method": "rhf"
			},
			{
				"type": "occ",
				"energy": -0.19529,
				"method": "rhf"
			},
			{
				"type": "occ",
				"energy": -0.18548,
				"method": "rhf"
			},
			{
				"type": "unocc",
				"energy": -0.04413,
				"method": "rhf"
			},
			{
				"type": "unocc",
				"energy": -0.02962,
				"method": "rhf"
			},
			{
				"type": "unocc",
				"energy": 0.01699,
				"method": "rhf"
			},
			{
				"type": "unocc",
				"energy": 0.07176,
				"method": "rhf"
			},
			{
				"type": "unocc",
				"energy": 0.0826,
				"method": "rhf"
			}
		],
		"cosmo_sigma_profile": { 
			"-0.025": 0.0,
			"-0.024": 0.0,
			"-0.023": 0.0,
			"-0.022": 0.0,
			"-0.021": 0.0,
			"-0.02": 0.0,
			"-0.019": 0.0,
			"-0.018": 0.0,
			"-0.017": 0.0,
			"-0.016": 0.0,
			"-0.015": 0.0,
			"-0.014": 0.423293616791,
			"-0.013": 1.63499362221,
			"-0.012": 2.31940498185,
			"-0.011": 2.45064172652,
			"-0.01": 1.11875629123,
			"-0.009": 1.63395581749,
			"-0.008": 3.08510452705,
			"-0.007": 7.32244286333,
			"-0.006": 17.0722814222,
			"-0.005": 22.5495478311,
			"-0.004": 19.2511758708,
			"-0.003": 14.970362724,
			"-0.002": 12.9250457836,
			"-0.001": 10.0199545301,
			"0.0": 10.666172438,
			"0.001": 12.1748979538,
			"0.002": 18.0035393929,
			"0.003": 14.0238156491,
			"0.004": 5.1626357575,
			"0.005": 5.35180927959,
			"0.006": 3.9921428801,
			"0.007": 4.50801306494,
			"0.008": 5.31759494417,
			"0.009": 3.1961592672,
			"0.01": 4.56616766641,
			"0.011": 5.47185878244,
			"0.012": 7.89389870955,
			"0.013": 6.1854354507,
			"0.014": 0.601989072425,
			"0.015": 0.0,
			"0.016": 0.0,
			"0.017": 0.0,
			"0.018": 0.0,
			"0.019": 0.0,
			"0.02": 0.0,
			"0.021": 0.0,
			"0.022": 0.0,
			"0.023": 0.0,
			"0.024": 0.0,
			"0.025": 0.0
		}
	}
}
