{
	 "smiles": "CC(C)(C)NS(=O)(=O)C1=CC(=CC=C1)C(O)=O", 
	 "Tm": 419.15, 
	 "num_atms": 32, 
	 "gaussian": { 
		 "optdone": 1, 
		 "sigma_profile": "yes", 
		 "theory": "DFT", 
		 "functional": "B3LYP", 
		 "basiset": "6-31G**", 
		 "properties": { 
			 "R2extent": 5298.0317, 
			 "electric_dipole_moment_norm": 5.06367793407, 
			 "electric_quadrupole_moment_norm": 25.125222157, 
			 "total_energy": -1181.99516988, 
			 "HOMO_LUMO_gap": 0.20297, 
			 "cosmo_polarized_energy": -21.86, 
			 "cosmo_cavitation_energy": 36.55, 
			 "cosmo_dispersion_energy": -25.13, 
			 "cosmo_repulsion_energy": 1.9, 
			 "cosmo_total_nonelectrostatic_energy": 13.32, 
			 "SMD_solvation_energy": 6.62 
		},
		"coords": [
			{
				"x": -2.3819350879,
				"y": -1.6242831732,
				"z": 1.0762476741,
				"element": "C" 
			},
			{
				"x": -0.953354203,
				"y": -2.0442878783,
				"z": 0.6889350007,
				"element": "C" 
			},
			{
				"x": -0.8503612954,
				"y": -2.1783159585,
				"z": -0.8373052384,
				"element": "C" 
			},
			{
				"x": -0.5866971262,
				"y": -3.3695567908,
				"z": 1.382531788,
				"element": "C" 
			},
			{
				"x": -0.0863723638,
				"y": -0.9163719154,
				"z": 1.1609645213,
				"element": "N" 
			},
			{
				"x": 1.5657949423,
				"y": -0.7901809646,
				"z": 0.8423187325,
				"element": "S" 
			},
			{
				"x": 2.0948412002,
				"y": -0.0472340037,
				"z": 1.9916929072,
				"element": "O" 
			},
			{
				"x": 2.1581592033,
				"y": -2.0684354175,
				"z": 0.4271871176,
				"element": "O" 
			},
			{
				"x": 1.6214342562,
				"y": 0.2924379454,
				"z": -0.594557743,
				"element": "C" 
			},
			{
				"x": 1.0368862391,
				"y": 1.5577154518,
				"z": -0.5199527122,
				"element": "C" 
			},
			{
				"x": 1.1327171691,
				"y": 2.4243936185,
				"z": -1.6124694796,
				"element": "C" 
			},
			{
				"x": 1.8444863713,
				"y": 2.0210263681,
				"z": -2.7538325696,
				"element": "C" 
			},
			{
				"x": 2.4267801784,
				"y": 0.7593557032,
				"z": -2.813093583,
				"element": "C" 
			},
			{
				"x": 2.3182951871,
				"y": -0.1174565316,
				"z": -1.7291796249,
				"element": "C" 
			},
			{
				"x": 0.5372599155,
				"y": 3.8041188237,
				"z": -1.6194627404,
				"element": "C" 
			},
			{
				"x": -0.438303352,
				"y": 4.0606544178,
				"z": -0.7107242185,
				"element": "O" 
			},
			{
				"x": 0.8895357598,
				"y": 4.6649267718,
				"z": -2.3900093293,
				"element": "O" 
			},
			{
				"x": -3.0940929719,
				"y": -2.3990149363,
				"z": 0.7766260772,
				"element": "H" 
			},
			{
				"x": -2.4761108226,
				"y": -1.4897778842,
				"z": 2.1600868055,
				"element": "H" 
			},
			{
				"x": -2.6610827274,
				"y": -0.6863051642,
				"z": 0.587907948,
				"element": "H" 
			},
			{
				"x": 0.1466133008,
				"y": -2.5017401143,
				"z": -1.1444942654,
				"element": "H" 
			},
			{
				"x": -1.0838490114,
				"y": -1.2302341739,
				"z": -1.3307120909,
				"element": "H" 
			},
			{
				"x": -1.5669551133,
				"y": -2.9289112262,
				"z": -1.1834631769,
				"element": "H" 
			},
			{
				"x": -1.2677451292,
				"y": -4.1656984876,
				"z": 1.0635995738,
				"element": "H" 
			},
			{
				"x": -0.6723144544,
				"y": -3.2735461524,
				"z": 2.4709029466,
				"element": "H" 
			},
			{
				"x": 0.4356805692,
				"y": -3.6661903618,
				"z": 1.1418821859,
				"element": "H" 
			},
			{
				"x": -0.1836583345,
				"y": -0.7446747607,
				"z": 2.1601031424,
				"element": "H" 
			},
			{
				"x": 0.5448890857,
				"y": 1.8512897187,
				"z": 0.4026228103,
				"element": "H" 
			},
			{
				"x": 1.9259537511,
				"y": 2.7197418624,
				"z": -3.5792617631,
				"element": "H" 
			},
			{
				"x": 2.9712900855,
				"y": 0.4533222287,
				"z": -3.7007862127,
				"element": "H" 
			},
			{
				"x": 2.7680239044,
				"y": -1.1038420838,
				"z": -1.7497281974,
				"element": "H" 
			},
			{
				"x": -0.7198091262,
				"y": 3.2467750689,
				"z": -0.2710762855,
				"element": "H" 
			}
		],
		 "valence_orbital": [ 
			{
				"type": "occ",
				"energy": -0.31108,
				"method": "rhf"
			},
			{
				"type": "occ",
				"energy": -0.29635,
				"method": "rhf"
			},
			{
				"type": "occ",
				"energy": -0.29097,
				"method": "rhf"
			},
			{
				"type": "occ",
				"energy": -0.28129,
				"method": "rhf"
			},
			{
				"type": "occ",
				"energy": -0.2698,
				"method": "rhf"
			},
			{
				"type": "unocc",
				"energy": -0.06683,
				"method": "rhf"
			},
			{
				"type": "unocc",
				"energy": -0.05296,
				"method": "rhf"
			},
			{
				"type": "unocc",
				"energy": 0.02881,
				"method": "rhf"
			},
			{
				"type": "unocc",
				"energy": 0.03677,
				"method": "rhf"
			},
			{
				"type": "unocc",
				"energy": 0.05703,
				"method": "rhf"
			}
		],
		"cosmo_sigma_profile": { 
			"-0.025": 0.0,
			"-0.024": 0.0,
			"-0.023": 0.0,
			"-0.022": 0.0,
			"-0.021": 0.0,
			"-0.02": 0.139205533631,
			"-0.019": 0.89815183787,
			"-0.018": 0.749302208308,
			"-0.017": 1.29634795155,
			"-0.016": 0.915970693682,
			"-0.015": 0.794873868684,
			"-0.014": 1.26063887663,
			"-0.013": 1.62168750823,
			"-0.012": 1.75342727599,
			"-0.011": 2.60090407046,
			"-0.01": 2.19844772929,
			"-0.009": 2.6850010441,
			"-0.008": 3.88387358736,
			"-0.007": 8.66343492559,
			"-0.006": 9.16676288778,
			"-0.005": 9.00126024307,
			"-0.004": 19.1941349162,
			"-0.003": 22.5045726978,
			"-0.002": 23.1982261625,
			"-0.001": 30.7484973629,
			"0.0": 36.9818161277,
			"0.001": 26.0932384331,
			"0.002": 9.47054867742,
			"0.003": 6.60810490934,
			"0.004": 6.19756332629,
			"0.005": 5.30780980485,
			"0.006": 5.07523680778,
			"0.007": 4.5647582535,
			"0.008": 6.65979697897,
			"0.009": 7.52899471816,
			"0.01": 10.9253293822,
			"0.011": 13.2842311202,
			"0.012": 5.54668683835,
			"0.013": 0.740248427413,
			"0.014": 0.0,
			"0.015": 0.0,
			"0.016": 0.0,
			"0.017": 0.0,
			"0.018": 0.0,
			"0.019": 0.0,
			"0.02": 0.0,
			"0.021": 0.0,
			"0.022": 0.0,
			"0.023": 0.0,
			"0.024": 0.0,
			"0.025": 0.0
		}
	}
}
