{
	 "smiles": "OCC1=CN2C=CC=CC2=N1", 
	 "Tm": 375.15, 
	 "num_atms": 19, 
	 "gaussian": { 
		 "optdone": 1, 
		 "sigma_profile": "yes", 
		 "theory": "DFT", 
		 "functional": "B3LYP", 
		 "basiset": "6-31G**", 
		 "properties": { 
			 "R2extent": 2534.0551, 
			 "electric_dipole_moment_norm": 4.79390083752, 
			 "electric_quadrupole_moment_norm": 16.3808339583, 
			 "total_energy": -494.382358443, 
			 "HOMO_LUMO_gap": 0.1767, 
			 "cosmo_polarized_energy": -11.2, 
			 "cosmo_cavitation_energy": 22.78, 
			 "cosmo_dispersion_energy": -17.41, 
			 "cosmo_repulsion_energy": 1.39, 
			 "cosmo_total_nonelectrostatic_energy": 6.77, 
			 "SMD_solvation_energy": 3.15 
		},
		"coords": [
			{
				"x": -3.354603358,
				"y": 3.8695988336,
				"z": -0.5695513121,
				"element": "O" 
			},
			{
				"x": -2.1485523395,
				"y": 3.9540492855,
				"z": 0.1617462248,
				"element": "C" 
			},
			{
				"x": -1.3452803854,
				"y": 2.6863434738,
				"z": 0.0403265818,
				"element": "C" 
			},
			{
				"x": -0.4614800252,
				"y": 2.1049793807,
				"z": 0.9279174139,
				"element": "C" 
			},
			{
				"x": 0.0145069395,
				"y": 0.9758355033,
				"z": 0.2893579009,
				"element": "N" 
			},
			{
				"x": 0.9101452159,
				"y": 0.0151159912,
				"z": 0.689980171,
				"element": "C" 
			},
			{
				"x": 1.2017390408,
				"y": -1.0218345962,
				"z": -0.1521123177,
				"element": "C" 
			},
			{
				"x": 0.5826170747,
				"y": -1.1058930931,
				"z": -1.4309601422,
				"element": "C" 
			},
			{
				"x": -0.3156888206,
				"y": -0.1455791752,
				"z": -1.8319505035,
				"element": "C" 
			},
			{
				"x": -0.620656801,
				"y": 0.9292861078,
				"z": -0.966615648,
				"element": "C" 
			},
			{
				"x": -1.4405176286,
				"y": 1.9678624769,
				"z": -1.1166214584,
				"element": "N" 
			},
			{
				"x": -3.1648801321,
				"y": 3.2712683122,
				"z": -1.3100794167,
				"element": "H" 
			},
			{
				"x": -2.3931015269,
				"y": 4.1544803566,
				"z": 1.2117811108,
				"element": "H" 
			},
			{
				"x": -1.5331275606,
				"y": 4.8013818313,
				"z": -0.1902206415,
				"element": "H" 
			},
			{
				"x": -0.1431985877,
				"y": 2.3758109017,
				"z": 1.9224195036,
				"element": "H" 
			},
			{
				"x": 1.3443666685,
				"y": 0.1392269227,
				"z": 1.6746963311,
				"element": "H" 
			},
			{
				"x": 1.9102230078,
				"y": -1.7763900991,
				"z": 0.169617565,
				"element": "H" 
			},
			{
				"x": 0.824534289,
				"y": -1.9346456002,
				"z": -2.0880076961,
				"element": "H" 
			},
			{
				"x": -0.8073450706,
				"y": -0.1765968132,
				"z": -2.7973236666,
				"element": "H" 
			}
		],
		 "valence_orbital": [ 
			{
				"type": "occ",
				"energy": -0.32198,
				"method": "rhf"
			},
			{
				"type": "occ",
				"energy": -0.28307,
				"method": "rhf"
			},
			{
				"type": "occ",
				"energy": -0.25491,
				"method": "rhf"
			},
			{
				"type": "occ",
				"energy": -0.24182,
				"method": "rhf"
			},
			{
				"type": "occ",
				"energy": -0.21473,
				"method": "rhf"
			},
			{
				"type": "unocc",
				"energy": -0.03803,
				"method": "rhf"
			},
			{
				"type": "unocc",
				"energy": -0.00149,
				"method": "rhf"
			},
			{
				"type": "unocc",
				"energy": 0.05994,
				"method": "rhf"
			},
			{
				"type": "unocc",
				"energy": 0.08248,
				"method": "rhf"
			},
			{
				"type": "unocc",
				"energy": 0.11103,
				"method": "rhf"
			}
		],
		"cosmo_sigma_profile": { 
			"-0.025": 0.0,
			"-0.024": 0.0,
			"-0.023": 0.0,
			"-0.022": 0.0,
			"-0.021": 0.0,
			"-0.02": 0.0,
			"-0.019": 0.0,
			"-0.018": 0.0,
			"-0.017": 0.0,
			"-0.016": 0.0,
			"-0.015": 0.0,
			"-0.014": 0.0,
			"-0.013": 0.0,
			"-0.012": 0.0,
			"-0.011": 0.0105766167841,
			"-0.01": 1.2033271778,
			"-0.009": 4.77470673698,
			"-0.008": 4.75791097415,
			"-0.007": 7.91242162314,
			"-0.006": 10.9309030712,
			"-0.005": 13.3042599946,
			"-0.004": 12.3056129801,
			"-0.003": 11.3382974793,
			"-0.002": 11.1519813644,
			"-0.001": 10.7727975918,
			"0.0": 12.2476018534,
			"0.001": 13.6895335285,
			"0.002": 13.2440088922,
			"0.003": 15.9804001923,
			"0.004": 10.0789698839,
			"0.005": 4.02991329241,
			"0.006": 3.02971877659,
			"0.007": 2.68657057987,
			"0.008": 2.96870130023,
			"0.009": 3.01913460671,
			"0.01": 2.37406662834,
			"0.011": 1.79059908664,
			"0.012": 2.12204569591,
			"0.013": 3.02629173307,
			"0.014": 2.6388542873,
			"0.015": 0.917149463269,
			"0.016": 0.0,
			"0.017": 0.0,
			"0.018": 0.0,
			"0.019": 0.0,
			"0.02": 0.0,
			"0.021": 0.0,
			"0.022": 0.0,
			"0.023": 0.0,
			"0.024": 0.0,
			"0.025": 0.0
		}
	}
}
