{
	 "smiles": "CC1=CC(NC(=O)NCC(O)=O)=CC=C1", 
	 "Tm": 456.15, 
	 "num_atms": 27, 
	 "gaussian": { 
		 "optdone": 1, 
		 "sigma_profile": "yes", 
		 "theory": "DFT", 
		 "functional": "B3LYP", 
		 "basiset": "6-31G**", 
		 "properties": { 
			 "R2extent": 4339.4309, 
			 "electric_dipole_moment_norm": 5.22812060496, 
			 "electric_quadrupole_moment_norm": 20.7629077923, 
			 "total_energy": -723.503155883, 
			 "HOMO_LUMO_gap": 0.20642, 
			 "cosmo_polarized_energy": -18.41, 
			 "cosmo_cavitation_energy": 31.02, 
			 "cosmo_dispersion_energy": -22.23, 
			 "cosmo_repulsion_energy": 1.76, 
			 "cosmo_total_nonelectrostatic_energy": 10.55, 
			 "SMD_solvation_energy": 6.59 
		},
		"coords": [
			{
				"x": 2.0539749586,
				"y": -2.7556552583,
				"z": 1.5768724215,
				"element": "C" 
			},
			{
				"x": 2.0130006266,
				"y": -1.5512100159,
				"z": 0.6660458111,
				"element": "C" 
			},
			{
				"x": 1.2372812239,
				"y": -0.4362362562,
				"z": 0.9924956121,
				"element": "C" 
			},
			{
				"x": 1.1709028667,
				"y": 0.6799655704,
				"z": 0.1457992435,
				"element": "C" 
			},
			{
				"x": 0.3920662296,
				"y": 1.779909234,
				"z": 0.5906650438,
				"element": "N" 
			},
			{
				"x": -0.1683925595,
				"y": 2.8423292239,
				"z": -0.0664894552,
				"element": "C" 
			},
			{
				"x": -0.5940541976,
				"y": 3.8210397209,
				"z": 0.5534076302,
				"element": "O" 
			},
			{
				"x": -0.284155161,
				"y": 2.7611619736,
				"z": -1.4629416233,
				"element": "N" 
			},
			{
				"x": -1.1785757425,
				"y": 1.7436254162,
				"z": -2.0210656076,
				"element": "C" 
			},
			{
				"x": -2.6830570814,
				"y": 1.9229696111,
				"z": -1.7306788959,
				"element": "C" 
			},
			{
				"x": -3.0586867437,
				"y": 2.8732274206,
				"z": -0.851506427,
				"element": "O" 
			},
			{
				"x": -3.4951578889,
				"y": 1.2228977744,
				"z": -2.2837740265,
				"element": "O" 
			},
			{
				"x": 1.8966033726,
				"y": 0.6869652612,
				"z": -1.0515360259,
				"element": "C" 
			},
			{
				"x": 2.6632841741,
				"y": -0.4304337502,
				"z": -1.3835742878,
				"element": "C" 
			},
			{
				"x": 2.7281105477,
				"y": -1.5373490433,
				"z": -0.5398211195,
				"element": "C" 
			},
			{
				"x": 3.0646802351,
				"y": -3.1704910762,
				"z": 1.6420671085,
				"element": "H" 
			},
			{
				"x": 1.7237938947,
				"y": -2.50672494,
				"z": 2.5892156988,
				"element": "H" 
			},
			{
				"x": 1.4002021476,
				"y": -3.5535513188,
				"z": 1.2041661843,
				"element": "H" 
			},
			{
				"x": 0.6687207397,
				"y": -0.4321828565,
				"z": 1.9200151006,
				"element": "H" 
			},
			{
				"x": 0.2856713629,
				"y": 1.8719853805,
				"z": 1.5925272238,
				"element": "H" 
			},
			{
				"x": -0.5106146239,
				"y": 3.6903322068,
				"z": -1.8042140322,
				"element": "H" 
			},
			{
				"x": -1.0664209466,
				"y": 1.7206418338,
				"z": -3.1078991497,
				"element": "H" 
			},
			{
				"x": -0.8862220313,
				"y": 0.7543309511,
				"z": -1.6603690778,
				"element": "H" 
			},
			{
				"x": -2.3168297372,
				"y": 3.347847841,
				"z": -0.4278975877,
				"element": "H" 
			},
			{
				"x": 1.8642249601,
				"y": 1.5516180799,
				"z": -1.7018573553,
				"element": "H" 
			},
			{
				"x": 3.229062396,
				"y": -0.4250460155,
				"z": -2.3108170229,
				"element": "H" 
			},
			{
				"x": 3.3373869776,
				"y": -2.3942669686,
				"z": -0.8139353839,
				"element": "H" 
			}
		],
		 "valence_orbital": [ 
			{
				"type": "occ",
				"energy": -0.30856,
				"method": "rhf"
			},
			{
				"type": "occ",
				"energy": -0.28212,
				"method": "rhf"
			},
			{
				"type": "occ",
				"energy": -0.26003,
				"method": "rhf"
			},
			{
				"type": "occ",
				"energy": -0.25692,
				"method": "rhf"
			},
			{
				"type": "occ",
				"energy": -0.23614,
				"method": "rhf"
			},
			{
				"type": "unocc",
				"energy": -0.02972,
				"method": "rhf"
			},
			{
				"type": "unocc",
				"energy": -0.0164,
				"method": "rhf"
			},
			{
				"type": "unocc",
				"energy": 0.01086,
				"method": "rhf"
			},
			{
				"type": "unocc",
				"energy": 0.02531,
				"method": "rhf"
			},
			{
				"type": "unocc",
				"energy": 0.06247,
				"method": "rhf"
			}
		],
		"cosmo_sigma_profile": { 
			"-0.025": 0.0,
			"-0.024": 0.0,
			"-0.023": 0.0,
			"-0.022": 0.0,
			"-0.021": 0.0,
			"-0.02": 0.0,
			"-0.019": 0.0,
			"-0.018": 0.0,
			"-0.017": 0.0,
			"-0.016": 0.0,
			"-0.015": 1.10840507071,
			"-0.014": 3.12785400037,
			"-0.013": 2.30382312459,
			"-0.012": 2.77119580886,
			"-0.011": 2.18186454196,
			"-0.01": 2.54032128997,
			"-0.009": 2.52167578586,
			"-0.008": 5.36587737914,
			"-0.007": 6.8465498533,
			"-0.006": 9.21000299181,
			"-0.005": 13.1716555728,
			"-0.004": 20.9370937454,
			"-0.003": 18.490539484,
			"-0.002": 18.0550575492,
			"-0.001": 18.4270989154,
			"0.0": 18.4849271734,
			"0.001": 12.8914990838,
			"0.002": 11.5805552359,
			"0.003": 10.8413534015,
			"0.004": 10.9369394418,
			"0.005": 10.6003696424,
			"0.006": 5.49082927136,
			"0.007": 3.44413760592,
			"0.008": 3.87489587618,
			"0.009": 3.7563731156,
			"0.01": 6.01063086587,
			"0.011": 6.7808309088,
			"0.012": 9.60777401263,
			"0.013": 4.39721005957,
			"0.014": 0.162090903845,
			"0.015": 0.0,
			"0.016": 0.0,
			"0.017": 0.0,
			"0.018": 0.0,
			"0.019": 0.0,
			"0.02": 0.0,
			"0.021": 0.0,
			"0.022": 0.0,
			"0.023": 0.0,
			"0.024": 0.0,
			"0.025": 0.0
		}
	}
}
