{
	 "smiles": "OC(=O)C1=C2C=NN(CC3=CC=CC=C3)C2=NC(=C1)C1CC1", 
	 "Tm": 483.15, 
	 "num_atms": 37, 
	 "gaussian": { 
		 "optdone": 1, 
		 "sigma_profile": "yes", 
		 "theory": "DFT", 
		 "functional": "B3LYP", 
		 "basiset": "6-31G**", 
		 "properties": { 
			 "R2extent": 7706.3083, 
			 "electric_dipole_moment_norm": 0.901419430676, 
			 "electric_quadrupole_moment_norm": 10.4831943452, 
			 "total_energy": -971.536111379, 
			 "HOMO_LUMO_gap": 0.15722, 
			 "cosmo_polarized_energy": -13.46, 
			 "cosmo_cavitation_energy": 41.91, 
			 "cosmo_dispersion_energy": -28.71, 
			 "cosmo_repulsion_energy": 2.17, 
			 "cosmo_total_nonelectrostatic_energy": 15.38, 
			 "SMD_solvation_energy": 6.0 
		},
		"coords": [
			{
				"x": -1.7096642924,
				"y": 1.7363832799,
				"z": -4.2341895147,
				"element": "O" 
			},
			{
				"x": -0.4744394494,
				"y": 1.1820460769,
				"z": -4.2811551536,
				"element": "C" 
			},
			{
				"x": 0.1795751866,
				"y": 1.1357228137,
				"z": -5.3027730173,
				"element": "O" 
			},
			{
				"x": -0.0306280063,
				"y": 0.6514377433,
				"z": -2.9614486965,
				"element": "C" 
			},
			{
				"x": -0.7984388745,
				"y": 0.7132488914,
				"z": -1.7804225206,
				"element": "C" 
			},
			{
				"x": -2.0649135904,
				"y": 1.1823704115,
				"z": -1.328207133,
				"element": "C" 
			},
			{
				"x": -2.2324322793,
				"y": 0.9326417274,
				"z": -0.038295899,
				"element": "N" 
			},
			{
				"x": -1.1095793195,
				"y": 0.2962325009,
				"z": 0.3926649371,
				"element": "N" 
			},
			{
				"x": -0.9338347703,
				"y": -0.0407281456,
				"z": 1.8007887702,
				"element": "C" 
			},
			{
				"x": -0.3285587708,
				"y": 1.0814593936,
				"z": 2.6252167474,
				"element": "C" 
			},
			{
				"x": -1.0405901672,
				"y": 2.2704850281,
				"z": 2.8339825856,
				"element": "C" 
			},
			{
				"x": -0.4865139768,
				"y": 3.2990433186,
				"z": 3.594742939,
				"element": "C" 
			},
			{
				"x": 0.7832807522,
				"y": 3.1498378493,
				"z": 4.1594906625,
				"element": "C" 
			},
			{
				"x": 1.4974379541,
				"y": 1.9689704918,
				"z": 3.9556916067,
				"element": "C" 
			},
			{
				"x": 0.9434592679,
				"y": 0.9410187865,
				"z": 3.1891729289,
				"element": "C" 
			},
			{
				"x": -0.2042026868,
				"y": 0.1484998158,
				"z": -0.619473587,
				"element": "C" 
			},
			{
				"x": 0.9950409275,
				"y": -0.4294880054,
				"z": -0.522090812,
				"element": "N" 
			},
			{
				"x": 1.706239559,
				"y": -0.4717161769,
				"z": -1.6551986152,
				"element": "C" 
			},
			{
				"x": 1.2224875211,
				"y": 0.0565002145,
				"z": -2.8798119928,
				"element": "C" 
			},
			{
				"x": 3.0528255659,
				"y": -1.0976893584,
				"z": -1.6009620744,
				"element": "C" 
			},
			{
				"x": 3.9114568009,
				"y": -0.9262385147,
				"z": -0.3578224344,
				"element": "C" 
			},
			{
				"x": 3.3077667487,
				"y": -2.2616743365,
				"z": -0.6579877988,
				"element": "C" 
			},
			{
				"x": -1.8980937985,
				"y": 2.0468562323,
				"z": -5.1355043767,
				"element": "H" 
			},
			{
				"x": -2.8406873572,
				"y": 1.6759315735,
				"z": -1.8937048282,
				"element": "H" 
			},
			{
				"x": -0.2956521492,
				"y": -0.9264551777,
				"z": 1.8389981341,
				"element": "H" 
			},
			{
				"x": -1.9250172341,
				"y": -0.3102859316,
				"z": 2.1752711191,
				"element": "H" 
			},
			{
				"x": -2.0242611168,
				"y": 2.3867859375,
				"z": 2.3876162169,
				"element": "H" 
			},
			{
				"x": -1.0464383049,
				"y": 4.2169028059,
				"z": 3.7504929152,
				"element": "H" 
			},
			{
				"x": 1.2123915626,
				"y": 3.9508389457,
				"z": 4.7547440788,
				"element": "H" 
			},
			{
				"x": 2.4858882285,
				"y": 1.8471177936,
				"z": 4.389616823,
				"element": "H" 
			},
			{
				"x": 1.5035237756,
				"y": 0.023949537,
				"z": 3.0248785318,
				"element": "H" 
			},
			{
				"x": 1.8314048045,
				"y": 0.000746159,
				"z": -3.774889429,
				"element": "H" 
			},
			{
				"x": 3.5751549252,
				"y": -1.1188186957,
				"z": -2.552685472,
				"element": "H" 
			},
			{
				"x": 3.4709279065,
				"y": -0.3449807861,
				"z": 0.4458158933,
				"element": "H" 
			},
			{
				"x": 4.9783824511,
				"y": -0.7866052715,
				"z": -0.5026493979,
				"element": "H" 
			},
			{
				"x": 2.4633174826,
				"y": -2.5773566608,
				"z": -0.0540877771,
				"element": "H" 
			},
			{
				"x": 3.9504847239,
				"y": -3.061090267,
				"z": -1.0138243593,
				"element": "H" 
			}
		],
		 "valence_orbital": [ 
			{
				"type": "occ",
				"energy": -0.27372,
				"method": "rhf"
			},
			{
				"type": "occ",
				"energy": -0.25048,
				"method": "rhf"
			},
			{
				"type": "occ",
				"energy": -0.24901,
				"method": "rhf"
			},
			{
				"type": "occ",
				"energy": -0.23847,
				"method": "rhf"
			},
			{
				"type": "occ",
				"energy": -0.2324,
				"method": "rhf"
			},
			{
				"type": "unocc",
				"energy": -0.07518,
				"method": "rhf"
			},
			{
				"type": "unocc",
				"energy": -0.00942,
				"method": "rhf"
			},
			{
				"type": "unocc",
				"energy": -0.0025,
				"method": "rhf"
			},
			{
				"type": "unocc",
				"energy": 0.00167,
				"method": "rhf"
			},
			{
				"type": "unocc",
				"energy": 0.03636,
				"method": "rhf"
			}
		],
		"cosmo_sigma_profile": { 
			"-0.025": 0.0,
			"-0.024": 0.0,
			"-0.023": 0.0,
			"-0.022": 0.0,
			"-0.021": 0.0,
			"-0.02": 0.0,
			"-0.019": 0.362899238586,
			"-0.018": 1.26636678989,
			"-0.017": 0.416489367789,
			"-0.016": 1.04521053154,
			"-0.015": 0.644147906863,
			"-0.014": 0.675459343836,
			"-0.013": 0.625559503972,
			"-0.012": 0.713542001163,
			"-0.011": 0.662714191999,
			"-0.01": 0.565884574876,
			"-0.009": 0.594609237034,
			"-0.008": 1.23994642604,
			"-0.007": 5.54922651757,
			"-0.006": 13.1477806872,
			"-0.005": 21.2479615051,
			"-0.004": 26.2891006601,
			"-0.003": 26.6962328604,
			"-0.002": 21.7769137092,
			"-0.001": 24.9560749936,
			"0.0": 32.4536940377,
			"0.001": 31.8480338454,
			"0.002": 27.1147285301,
			"0.003": 25.7661633097,
			"0.004": 20.5793734359,
			"0.005": 18.5407271615,
			"0.006": 9.47003586972,
			"0.007": 2.68970671882,
			"0.008": 3.14353053984,
			"0.009": 2.77786179254,
			"0.01": 3.44453012455,
			"0.011": 5.77745211864,
			"0.012": 2.13322041491,
			"0.013": 0.4537425131,
			"0.014": 0.436534818478,
			"0.015": 0.025091941419,
			"0.016": 0.0,
			"0.017": 0.0,
			"0.018": 0.0,
			"0.019": 0.0,
			"0.02": 0.0,
			"0.021": 0.0,
			"0.022": 0.0,
			"0.023": 0.0,
			"0.024": 0.0,
			"0.025": 0.0
		}
	}
}
