{
	 "smiles": "OC1=CC=C(C(=O)C2=CC=CC=C2)C(O)=C1", 
	 "Tm": 418.15, 
	 "num_atms": 26, 
	 "gaussian": { 
		 "optdone": 1, 
		 "sigma_profile": "yes", 
		 "theory": "DFT", 
		 "functional": "B3LYP", 
		 "basiset": "6-31G**", 
		 "properties": { 
			 "R2extent": 4766.0285, 
			 "electric_dipole_moment_norm": 4.90937920108, 
			 "electric_quadrupole_moment_norm": 10.9379507711, 
			 "total_energy": -727.091102713, 
			 "HOMO_LUMO_gap": 0.16096, 
			 "cosmo_polarized_energy": -13.75, 
			 "cosmo_cavitation_energy": 30.2, 
			 "cosmo_dispersion_energy": -22.51, 
			 "cosmo_repulsion_energy": 1.73, 
			 "cosmo_total_nonelectrostatic_energy": 9.42, 
			 "SMD_solvation_energy": 6.09 
		},
		"coords": [
			{
				"x": -2.7795855402,
				"y": 2.9609861918,
				"z": -2.0440968381,
				"element": "O" 
			},
			{
				"x": -1.7044923692,
				"y": 2.1569595957,
				"z": -1.8374409674,
				"element": "C" 
			},
			{
				"x": -1.8311495351,
				"y": 0.8800639418,
				"z": -1.2528005658,
				"element": "C" 
			},
			{
				"x": -0.6981680777,
				"y": 0.1131000068,
				"z": -1.0568581281,
				"element": "C" 
			},
			{
				"x": 0.5863806054,
				"y": 0.5692409121,
				"z": -1.4252991856,
				"element": "C" 
			},
			{
				"x": 1.8081672445,
				"y": -0.2141931983,
				"z": -1.2292598119,
				"element": "C" 
			},
			{
				"x": 2.8790130439,
				"y": 0.1274321998,
				"z": -1.7748121473,
				"element": "O" 
			},
			{
				"x": 1.8340455819,
				"y": -1.4474246355,
				"z": -0.3781102118,
				"element": "C" 
			},
			{
				"x": 1.1789486885,
				"y": -1.5330035949,
				"z": 0.8602131704,
				"element": "C" 
			},
			{
				"x": 1.3044251506,
				"y": -2.6801721427,
				"z": 1.6449367869,
				"element": "C" 
			},
			{
				"x": 2.0735410767,
				"y": -3.7551568236,
				"z": 1.1969056472,
				"element": "C" 
			},
			{
				"x": 2.7383662653,
				"y": -3.6726309154,
				"z": -0.0299946409,
				"element": "C" 
			},
			{
				"x": 2.6324091977,
				"y": -2.5206864178,
				"z": -0.8045498738,
				"element": "C" 
			},
			{
				"x": 0.6804929169,
				"y": 1.847292536,
				"z": -2.0670916728,
				"element": "C" 
			},
			{
				"x": 1.8453014611,
				"y": 2.3276277661,
				"z": -2.5100614925,
				"element": "O" 
			},
			{
				"x": -0.4625949127,
				"y": 2.6345003065,
				"z": -2.2426500473,
				"element": "C" 
			},
			{
				"x": -3.5779837604,
				"y": 2.514294494,
				"z": -1.7330237581,
				"element": "H" 
			},
			{
				"x": -2.8103982586,
				"y": 0.5022136177,
				"z": -0.9700934325,
				"element": "H" 
			},
			{
				"x": -0.8023681914,
				"y": -0.8768540945,
				"z": -0.6287168558,
				"element": "H" 
			},
			{
				"x": 0.5996103587,
				"y": -0.6913599906,
				"z": 1.2251213955,
				"element": "H" 
			},
			{
				"x": 0.8060329913,
				"y": -2.7304713206,
				"z": 2.6086080908,
				"element": "H" 
			},
			{
				"x": 2.1632445323,
				"y": -4.6505310895,
				"z": 1.8053171369,
				"element": "H" 
			},
			{
				"x": 3.3456372628,
				"y": -4.5035053781,
				"z": -0.3770298801,
				"element": "H" 
			},
			{
				"x": 3.1643378523,
				"y": -2.4325636773,
				"z": -1.7459910719,
				"element": "H" 
			},
			{
				"x": 2.5130100354,
				"y": 1.6015473497,
				"z": -2.3660621736,
				"element": "H" 
			},
			{
				"x": -0.3752236201,
				"y": 3.6053943608,
				"z": -2.7154594725,
				"element": "H" 
			}
		],
		 "valence_orbital": [ 
			{
				"type": "occ",
				"energy": -0.26862,
				"method": "rhf"
			},
			{
				"type": "occ",
				"energy": -0.26239,
				"method": "rhf"
			},
			{
				"type": "occ",
				"energy": -0.25385,
				"method": "rhf"
			},
			{
				"type": "occ",
				"energy": -0.24033,
				"method": "rhf"
			},
			{
				"type": "occ",
				"energy": -0.22586,
				"method": "rhf"
			},
			{
				"type": "unocc",
				"energy": -0.0649,
				"method": "rhf"
			},
			{
				"type": "unocc",
				"energy": -0.01551,
				"method": "rhf"
			},
			{
				"type": "unocc",
				"energy": -0.01068,
				"method": "rhf"
			},
			{
				"type": "unocc",
				"energy": 0.00501,
				"method": "rhf"
			},
			{
				"type": "unocc",
				"energy": 0.05625,
				"method": "rhf"
			}
		],
		"cosmo_sigma_profile": { 
			"-0.025": 0.0,
			"-0.024": 0.0,
			"-0.023": 0.0,
			"-0.022": 0.0,
			"-0.021": 0.0,
			"-0.02": 0.0,
			"-0.019": 0.123457735394,
			"-0.018": 1.2521140174,
			"-0.017": 0.87354799019,
			"-0.016": 1.18468269625,
			"-0.015": 1.18099828773,
			"-0.014": 1.31536590406,
			"-0.013": 0.643003345217,
			"-0.012": 0.550714220896,
			"-0.011": 1.27710236721,
			"-0.01": 1.18544581784,
			"-0.009": 1.0410727187,
			"-0.008": 1.22795138191,
			"-0.007": 3.67140707387,
			"-0.006": 13.7884864075,
			"-0.005": 16.8095878834,
			"-0.004": 17.3847998975,
			"-0.003": 14.3466610977,
			"-0.002": 16.5943155302,
			"-0.001": 15.5716536501,
			"0.0": 14.3617462648,
			"0.001": 15.789735132,
			"0.002": 20.305619313,
			"0.003": 25.6679917986,
			"0.004": 19.1990686128,
			"0.005": 8.47974541579,
			"0.006": 4.33034786233,
			"0.007": 4.11309977108,
			"0.008": 4.37498782054,
			"0.009": 4.81642231963,
			"0.01": 4.63729142653,
			"0.011": 4.33830540537,
			"0.012": 1.76780755083,
			"0.013": 0.262380386617,
			"0.014": 0.0,
			"0.015": 0.0,
			"0.016": 0.0,
			"0.017": 0.0,
			"0.018": 0.0,
			"0.019": 0.0,
			"0.02": 0.0,
			"0.021": 0.0,
			"0.022": 0.0,
			"0.023": 0.0,
			"0.024": 0.0,
			"0.025": 0.0
		}
	}
}
