{
	 "smiles": "CC(O)C1=C(Cl)N=C2C=CC=CN12", 
	 "Tm": 406.15, 
	 "num_atms": 22, 
	 "gaussian": { 
		 "optdone": 1, 
		 "sigma_profile": "yes", 
		 "theory": "DFT", 
		 "functional": "B3LYP", 
		 "basiset": "6-31G**", 
		 "properties": { 
			 "R2extent": 3121.7559, 
			 "electric_dipole_moment_norm": 4.79951569744, 
			 "electric_quadrupole_moment_norm": 11.416509379, 
			 "total_energy": -993.28674936, 
			 "HOMO_LUMO_gap": 0.17786, 
			 "cosmo_polarized_energy": -13.44, 
			 "cosmo_cavitation_energy": 26.97, 
			 "cosmo_dispersion_energy": -20.19, 
			 "cosmo_repulsion_energy": 1.58, 
			 "cosmo_total_nonelectrostatic_energy": 8.35, 
			 "SMD_solvation_energy": 2.78 
		},
		"coords": [
			{
				"x": 0.9378021474,
				"y": -2.1038148877,
				"z": 0.8033375504,
				"element": "C" 
			},
			{
				"x": -0.1754204759,
				"y": -1.060880935,
				"z": 0.7424401796,
				"element": "C" 
			},
			{
				"x": -1.4571343685,
				"y": -1.667529986,
				"z": 0.9950791081,
				"element": "O" 
			},
			{
				"x": -0.2963133566,
				"y": -0.3206679088,
				"z": -0.5555623625,
				"element": "C" 
			},
			{
				"x": 0.3853262099,
				"y": -0.2838339085,
				"z": -1.768387453,
				"element": "C" 
			},
			{
				"x": 1.7205412969,
				"y": -1.2875680706,
				"z": -2.2528791111,
				"element": "Cl" 
			},
			{
				"x": -0.0682372834,
				"y": 0.6535749771,
				"z": -2.6235497591,
				"element": "N" 
			},
			{
				"x": -1.0692578692,
				"y": 1.2471825116,
				"z": -1.9737868697,
				"element": "C" 
			},
			{
				"x": -1.9135276315,
				"y": 2.3069033761,
				"z": -2.3721152616,
				"element": "C" 
			},
			{
				"x": -2.8840346199,
				"y": 2.7563484182,
				"z": -1.5086970776,
				"element": "C" 
			},
			{
				"x": -3.0450214043,
				"y": 2.1481374868,
				"z": -0.2331249584,
				"element": "C" 
			},
			{
				"x": -2.2358250153,
				"y": 1.1156404362,
				"z": 0.1540429872,
				"element": "C" 
			},
			{
				"x": -1.2498627937,
				"y": 0.6822555817,
				"z": -0.7015441405,
				"element": "N" 
			},
			{
				"x": 0.7765037087,
				"y": -2.8888940685,
				"z": 0.0622292355,
				"element": "H" 
			},
			{
				"x": 1.9206929032,
				"y": -1.6579529423,
				"z": 0.6347245602,
				"element": "H" 
			},
			{
				"x": 0.9418086958,
				"y": -2.5607258616,
				"z": 1.7996521892,
				"element": "H" 
			},
			{
				"x": 0.0162446292,
				"y": -0.3088515313,
				"z": 1.530405871,
				"element": "H" 
			},
			{
				"x": -1.4023760561,
				"y": -2.1065230174,
				"z": 1.8550468577,
				"element": "H" 
			},
			{
				"x": -1.7620081467,
				"y": 2.7338874973,
				"z": -3.3564726079,
				"element": "H" 
			},
			{
				"x": -3.5393938069,
				"y": 3.5704087195,
				"z": -1.8003299111,
				"element": "H" 
			},
			{
				"x": -3.8219763031,
				"y": 2.4841908974,
				"z": 0.4439258889,
				"element": "H" 
			},
			{
				"x": -2.3356304602,
				"y": 0.568813216,
				"z": 1.0806650846,
				"element": "H" 
			}
		],
		 "valence_orbital": [ 
			{
				"type": "occ",
				"energy": -0.30807,
				"method": "rhf"
			},
			{
				"type": "occ",
				"energy": -0.28725,
				"method": "rhf"
			},
			{
				"type": "occ",
				"energy": -0.27874,
				"method": "rhf"
			},
			{
				"type": "occ",
				"energy": -0.23935,
				"method": "rhf"
			},
			{
				"type": "occ",
				"energy": -0.21271,
				"method": "rhf"
			},
			{
				"type": "unocc",
				"energy": -0.03485,
				"method": "rhf"
			},
			{
				"type": "unocc",
				"energy": -0.00566,
				"method": "rhf"
			},
			{
				"type": "unocc",
				"energy": 0.04501,
				"method": "rhf"
			},
			{
				"type": "unocc",
				"energy": 0.04882,
				"method": "rhf"
			},
			{
				"type": "unocc",
				"energy": 0.08007,
				"method": "rhf"
			}
		],
		"cosmo_sigma_profile": { 
			"-0.025": 0.0,
			"-0.024": 0.0,
			"-0.023": 0.0,
			"-0.022": 0.0,
			"-0.021": 0.0,
			"-0.02": 0.0,
			"-0.019": 0.0,
			"-0.018": 0.0,
			"-0.017": 0.0,
			"-0.016": 0.404542148421,
			"-0.015": 0.993850807063,
			"-0.014": 1.11111432036,
			"-0.013": 1.20932380328,
			"-0.012": 0.829362610628,
			"-0.011": 0.867497045665,
			"-0.01": 1.1451820214,
			"-0.009": 0.837682746799,
			"-0.008": 1.97143328219,
			"-0.007": 8.84875649035,
			"-0.006": 10.9309444243,
			"-0.005": 14.4665139108,
			"-0.004": 11.8692898004,
			"-0.003": 13.7055142754,
			"-0.002": 13.8968838654,
			"-0.001": 16.6942829153,
			"0.0": 18.243336574,
			"0.001": 17.9369192593,
			"0.002": 20.7849681366,
			"0.003": 16.5436698497,
			"0.004": 11.436619669,
			"0.005": 6.49276912499,
			"0.006": 4.6708780915,
			"0.007": 3.5388563931,
			"0.008": 2.51361458631,
			"0.009": 2.24716178585,
			"0.01": 2.3774768299,
			"0.011": 2.59075462203,
			"0.012": 2.51279648867,
			"0.013": 1.70569083939,
			"0.014": 1.54457270541,
			"0.015": 1.06288500938,
			"0.016": 0.953488873632,
			"0.017": 0.156273889451,
			"0.018": 0.0,
			"0.019": 0.0,
			"0.02": 0.0,
			"0.021": 0.0,
			"0.022": 0.0,
			"0.023": 0.0,
			"0.024": 0.0,
			"0.025": 0.0
		}
	}
}
