{
	 "smiles": "CC1=CC=NC=C1C#N", 
	 "Tm": 316.15, 
	 "num_atms": 15, 
	 "gaussian": { 
		 "optdone": 1, 
		 "sigma_profile": "yes", 
		 "theory": "DFT", 
		 "functional": "B3LYP", 
		 "basiset": "6-31G**", 
		 "properties": { 
			 "R2extent": 1201.4197, 
			 "electric_dipole_moment_norm": 3.91344022313, 
			 "electric_quadrupole_moment_norm": 9.08754215286, 
			 "total_energy": -379.846654379, 
			 "HOMO_LUMO_gap": 0.21093, 
			 "cosmo_polarized_energy": -9.71, 
			 "cosmo_cavitation_energy": 20.16, 
			 "cosmo_dispersion_energy": -14.27, 
			 "cosmo_repulsion_energy": 1.16, 
			 "cosmo_total_nonelectrostatic_energy": 7.05, 
			 "SMD_solvation_energy": 3.5 
		},
		"coords": [
			{
				"x": -1.7067074766,
				"y": -0.7941515952,
				"z": 1.2403132337,
				"element": "C" 
			},
			{
				"x": -0.8571777663,
				"y": 0.158881947,
				"z": 0.4441721939,
				"element": "C" 
			},
			{
				"x": -1.3680617577,
				"y": 0.8990511102,
				"z": -0.6231700537,
				"element": "C" 
			},
			{
				"x": -0.5361596659,
				"y": 1.7692825128,
				"z": -1.3286619564,
				"element": "C" 
			},
			{
				"x": 0.7606063179,
				"y": 1.9543287767,
				"z": -1.0491763492,
				"element": "N" 
			},
			{
				"x": 1.2634749485,
				"y": 1.254552891,
				"z": -0.032433312,
				"element": "C" 
			},
			{
				"x": 0.510291497,
				"y": 0.3533445601,
				"z": 0.7396482947,
				"element": "C" 
			},
			{
				"x": 1.1377715415,
				"y": -0.3554212629,
				"z": 1.8144516771,
				"element": "C" 
			},
			{
				"x": 1.6441377443,
				"y": -0.9327143437,
				"z": 2.6886746978,
				"element": "N" 
			},
			{
				"x": -2.7331608023,
				"y": -0.811996701,
				"z": 0.8676173557,
				"element": "H" 
			},
			{
				"x": -1.7266662185,
				"y": -0.5113215787,
				"z": 2.2982920478,
				"element": "H" 
			},
			{
				"x": -1.3031007244,
				"y": -1.8113376412,
				"z": 1.1940254117,
				"element": "H" 
			},
			{
				"x": -2.4117358481,
				"y": 0.7989098418,
				"z": -0.9055645697,
				"element": "H" 
			},
			{
				"x": -0.9330905306,
				"y": 2.3470952357,
				"z": -2.1611528154,
				"element": "H" 
			},
			{
				"x": 2.3165787413,
				"y": 1.4043962474,
				"z": 0.1949641442,
				"element": "H" 
			}
		],
		 "valence_orbital": [ 
			{
				"type": "occ",
				"energy": -0.36524,
				"method": "rhf"
			},
			{
				"type": "occ",
				"energy": -0.34277,
				"method": "rhf"
			},
			{
				"type": "occ",
				"energy": -0.29603,
				"method": "rhf"
			},
			{
				"type": "occ",
				"energy": -0.27673,
				"method": "rhf"
			},
			{
				"type": "occ",
				"energy": -0.27485,
				"method": "rhf"
			},
			{
				"type": "unocc",
				"energy": -0.06392,
				"method": "rhf"
			},
			{
				"type": "unocc",
				"energy": -0.03914,
				"method": "rhf"
			},
			{
				"type": "unocc",
				"energy": 0.026,
				"method": "rhf"
			},
			{
				"type": "unocc",
				"energy": 0.06427,
				"method": "rhf"
			},
			{
				"type": "unocc",
				"energy": 0.08626,
				"method": "rhf"
			}
		],
		"cosmo_sigma_profile": { 
			"-0.025": 0.0,
			"-0.024": 0.0,
			"-0.023": 0.0,
			"-0.022": 0.0,
			"-0.021": 0.0,
			"-0.02": 0.0,
			"-0.019": 0.0,
			"-0.018": 0.0,
			"-0.017": 0.0,
			"-0.016": 0.0,
			"-0.015": 0.0,
			"-0.014": 0.0,
			"-0.013": 0.0,
			"-0.012": 0.0,
			"-0.011": 0.0,
			"-0.01": 0.0,
			"-0.009": 0.235096261754,
			"-0.008": 3.79208202776,
			"-0.007": 8.34328392752,
			"-0.006": 11.6402135946,
			"-0.005": 12.9304030129,
			"-0.004": 10.4530845544,
			"-0.003": 12.5007392545,
			"-0.002": 17.9815819435,
			"-0.001": 17.809174763,
			"0.0": 12.2265763956,
			"0.001": 8.26588109129,
			"0.002": 3.67085574482,
			"0.003": 5.22699773321,
			"0.004": 3.41891869579,
			"0.005": 2.8503068013,
			"0.006": 3.90755626922,
			"0.007": 4.72981810034,
			"0.008": 3.49494599119,
			"0.009": 4.57936011304,
			"0.01": 4.03391903889,
			"0.011": 3.54276147444,
			"0.012": 2.85641647631,
			"0.013": 2.27967266457,
			"0.014": 0.869422670079,
			"0.015": 0.71765780979,
			"0.016": 0.2900351322,
			"0.017": 0.0,
			"0.018": 0.0,
			"0.019": 0.0,
			"0.02": 0.0,
			"0.021": 0.0,
			"0.022": 0.0,
			"0.023": 0.0,
			"0.024": 0.0,
			"0.025": 0.0
		}
	}
}
