{
	 "smiles": "C(OC1=CC2=C(C=CC=C2)C=C1)C1CO1", 
	 "Tm": 336.15, 
	 "num_atms": 27, 
	 "gaussian": { 
		 "optdone": 1, 
		 "sigma_profile": "yes", 
		 "theory": "DFT", 
		 "functional": "B3LYP", 
		 "basiset": "6-31G**", 
		 "properties": { 
			 "R2extent": 4527.8163, 
			 "electric_dipole_moment_norm": 0.672939269177, 
			 "electric_quadrupole_moment_norm": 7.01664592095, 
			 "total_energy": -653.011231272, 
			 "HOMO_LUMO_gap": 0.16582, 
			 "cosmo_polarized_energy": -9.5, 
			 "cosmo_cavitation_energy": 30.72, 
			 "cosmo_dispersion_energy": -22.62, 
			 "cosmo_repulsion_energy": 1.75, 
			 "cosmo_total_nonelectrostatic_energy": 9.84, 
			 "SMD_solvation_energy": 5.12 
		},
		"coords": [
			{
				"x": 0.3649229516,
				"y": 2.5149254987,
				"z": -0.9062191274,
				"element": "C" 
			},
			{
				"x": -0.7035367635,
				"y": 1.7286865065,
				"z": -0.3866181942,
				"element": "O" 
			},
			{
				"x": -0.6770434559,
				"y": 0.3625389576,
				"z": -0.5005001399,
				"element": "C" 
			},
			{
				"x": -1.78836436,
				"y": -0.3050138046,
				"z": -0.0192534871,
				"element": "C" 
			},
			{
				"x": -1.8772215331,
				"y": -1.7154888445,
				"z": -0.0849996142,
				"element": "C" 
			},
			{
				"x": -0.7960507212,
				"y": -2.459976936,
				"z": -0.663306254,
				"element": "C" 
			},
			{
				"x": -0.886942026,
				"y": -3.8768192096,
				"z": -0.7293733053,
				"element": "C" 
			},
			{
				"x": -1.9952514279,
				"y": -4.5350553257,
				"z": -0.2482491963,
				"element": "C" 
			},
			{
				"x": -3.0657282149,
				"y": -3.8004422807,
				"z": 0.3230598274,
				"element": "C" 
			},
			{
				"x": -3.0090930997,
				"y": -2.4281478221,
				"z": 0.402858488,
				"element": "C" 
			},
			{
				"x": 0.3279657046,
				"y": -1.7444594824,
				"z": -1.1462480238,
				"element": "C" 
			},
			{
				"x": 0.3979186225,
				"y": -0.3700632287,
				"z": -1.0708826938,
				"element": "C" 
			},
			{
				"x": 1.5259209468,
				"y": 2.6124357676,
				"z": 0.0621308461,
				"element": "C" 
			},
			{
				"x": 1.6297204287,
				"y": 3.7354203928,
				"z": 1.0024589882,
				"element": "C" 
			},
			{
				"x": 2.4251479222,
				"y": 3.6971359955,
				"z": -0.1914628945,
				"element": "O" 
			},
			{
				"x": -0.0500653722,
				"y": 3.5137773699,
				"z": -1.0661277201,
				"element": "H" 
			},
			{
				"x": 0.7001812797,
				"y": 2.1364009433,
				"z": -1.8797947809,
				"element": "H" 
			},
			{
				"x": -2.5993897974,
				"y": 0.2743687632,
				"z": 0.4111418125,
				"element": "H" 
			},
			{
				"x": -0.0624883932,
				"y": -4.4330490651,
				"z": -1.1687935412,
				"element": "H" 
			},
			{
				"x": -2.0554188645,
				"y": -5.6179716325,
				"z": -0.3038312625,
				"element": "H" 
			},
			{
				"x": -3.9364446133,
				"y": -4.3296481402,
				"z": 0.699947615,
				"element": "H" 
			},
			{
				"x": -3.8306273285,
				"y": -1.8673837803,
				"z": 0.8410498089,
				"element": "H" 
			},
			{
				"x": 1.1547879962,
				"y": -2.298788898,
				"z": -1.5830111907,
				"element": "H" 
			},
			{
				"x": 1.2788826871,
				"y": 0.1367269807,
				"z": -1.4467291601,
				"element": "H" 
			},
			{
				"x": 2.0090542549,
				"y": 1.6712213541,
				"z": 0.3294197878,
				"element": "H" 
			},
			{
				"x": 2.17963567,
				"y": 3.6096371215,
				"z": 1.9344486612,
				"element": "H" 
			},
			{
				"x": 0.8468275069,
				"y": 4.4937327988,
				"z": 1.0198847507,
				"element": "H" 
			}
		],
		 "valence_orbital": [ 
			{
				"type": "occ",
				"energy": -0.30542,
				"method": "rhf"
			},
			{
				"type": "occ",
				"energy": -0.28038,
				"method": "rhf"
			},
			{
				"type": "occ",
				"energy": -0.2731,
				"method": "rhf"
			},
			{
				"type": "occ",
				"energy": -0.23279,
				"method": "rhf"
			},
			{
				"type": "occ",
				"energy": -0.20357,
				"method": "rhf"
			},
			{
				"type": "unocc",
				"energy": -0.03775,
				"method": "rhf"
			},
			{
				"type": "unocc",
				"energy": -0.00151,
				"method": "rhf"
			},
			{
				"type": "unocc",
				"energy": 0.03381,
				"method": "rhf"
			},
			{
				"type": "unocc",
				"energy": 0.07552,
				"method": "rhf"
			},
			{
				"type": "unocc",
				"energy": 0.09286,
				"method": "rhf"
			}
		],
		"cosmo_sigma_profile": { 
			"-0.025": 0.0,
			"-0.024": 0.0,
			"-0.023": 0.0,
			"-0.022": 0.0,
			"-0.021": 0.0,
			"-0.02": 0.0,
			"-0.019": 0.0,
			"-0.018": 0.0,
			"-0.017": 0.0,
			"-0.016": 0.0,
			"-0.015": 0.0,
			"-0.014": 0.0,
			"-0.013": 0.0,
			"-0.012": 0.0,
			"-0.011": 0.0,
			"-0.01": 0.0,
			"-0.009": 0.0678719562182,
			"-0.008": 1.85649302401,
			"-0.007": 6.36748591204,
			"-0.006": 21.1726906207,
			"-0.005": 24.584766462,
			"-0.004": 21.9315035836,
			"-0.003": 20.5116530017,
			"-0.002": 12.953605084,
			"-0.001": 14.1001028631,
			"0.0": 11.7493741172,
			"0.001": 11.2489733466,
			"0.002": 12.2622055018,
			"0.003": 15.3704499821,
			"0.004": 26.5027540873,
			"0.005": 19.6657636542,
			"0.006": 7.87224998512,
			"0.007": 2.56379775524,
			"0.008": 1.94052283314,
			"0.009": 3.0933974078,
			"0.01": 3.52354346385,
			"0.011": 3.54380695856,
			"0.012": 2.08619903012,
			"0.013": 0.154746020703,
			"0.014": 0.0,
			"0.015": 0.0,
			"0.016": 0.0,
			"0.017": 0.0,
			"0.018": 0.0,
			"0.019": 0.0,
			"0.02": 0.0,
			"0.021": 0.0,
			"0.022": 0.0,
			"0.023": 0.0,
			"0.024": 0.0,
			"0.025": 0.0
		}
	}
}
