{
	 "smiles": "OC(=O)CN1C=C(Br)C=CC1=O", 
	 "Tm": 513.15, 
	 "num_atms": 18, 
	 "gaussian": { 
		 "optdone": 1, 
		 "sigma_profile": "yes", 
		 "theory": "DFT", 
		 "functional": "B3LYP", 
		 "basiset": "6-31G**", 
		 "properties": { 
			 "R2extent": 4531.9866, 
			 "electric_dipole_moment_norm": 5.04461256193, 
			 "electric_quadrupole_moment_norm": 14.2370296091, 
			 "total_energy": -3122.19794742, 
			 "HOMO_LUMO_gap": 0.16837, 
			 "cosmo_polarized_energy": -15.77, 
			 "cosmo_cavitation_energy": 25.0, 
			 "cosmo_dispersion_energy": -18.88, 
			 "cosmo_repulsion_energy": 1.5, 
			 "cosmo_total_nonelectrostatic_energy": 7.62, 
			 "SMD_solvation_energy": 5.07 
		},
		"coords": [
			{
				"x": -0.2407467394,
				"y": -2.5600585503,
				"z": -1.436789309,
				"element": "O" 
			},
			{
				"x": 0.8299361147,
				"y": -1.8508180052,
				"z": -1.7927938506,
				"element": "C" 
			},
			{
				"x": 1.7719960422,
				"y": -2.318758411,
				"z": -2.3873306039,
				"element": "O" 
			},
			{
				"x": 0.7867346316,
				"y": -0.3511712694,
				"z": -1.4228450784,
				"element": "C" 
			},
			{
				"x": 0.7336302301,
				"y": -0.0934532057,
				"z": 0.028402101,
				"element": "N" 
			},
			{
				"x": 1.8577326178,
				"y": 0.3296527117,
				"z": 0.6853953916,
				"element": "C" 
			},
			{
				"x": 1.8146439586,
				"y": 0.6416298443,
				"z": 2.0144278103,
				"element": "C" 
			},
			{
				"x": 3.3872402011,
				"y": 1.2268883128,
				"z": 2.9038266347,
				"element": "Br" 
			},
			{
				"x": 0.5855120563,
				"y": 0.5336173065,
				"z": 2.7148196767,
				"element": "C" 
			},
			{
				"x": -0.5343391509,
				"y": 0.101073309,
				"z": 2.0600557664,
				"element": "C" 
			},
			{
				"x": -0.5055645189,
				"y": -0.2724127217,
				"z": 0.6710821877,
				"element": "C" 
			},
			{
				"x": -1.4707591831,
				"y": -0.7275275183,
				"z": 0.0275985049,
				"element": "O" 
			},
			{
				"x": -0.8863142577,
				"y": -1.972996343,
				"z": -0.9612806167,
				"element": "H" 
			},
			{
				"x": -0.1013591653,
				"y": 0.1075344993,
				"z": -1.8679585265,
				"element": "H" 
			},
			{
				"x": 1.6841588218,
				"y": 0.1143074269,
				"z": -1.825819772,
				"element": "H" 
			},
			{
				"x": 2.7626056151,
				"y": 0.4028069237,
				"z": 0.0957958612,
				"element": "H" 
			},
			{
				"x": 0.5462659407,
				"y": 0.7916702621,
				"z": 3.767747124,
				"element": "H" 
			},
			{
				"x": -1.4881732148,
				"y": -0.0025845718,
				"z": 2.5631666985,
				"element": "H" 
			}
		],
		 "valence_orbital": [ 
			{
				"type": "occ",
				"energy": -0.31324,
				"method": "rhf"
			},
			{
				"type": "occ",
				"energy": -0.30911,
				"method": "rhf"
			},
			{
				"type": "occ",
				"energy": -0.29312,
				"method": "rhf"
			},
			{
				"type": "occ",
				"energy": -0.27183,
				"method": "rhf"
			},
			{
				"type": "occ",
				"energy": -0.24458,
				"method": "rhf"
			},
			{
				"type": "unocc",
				"energy": -0.07621,
				"method": "rhf"
			},
			{
				"type": "unocc",
				"energy": -0.02685,
				"method": "rhf"
			},
			{
				"type": "unocc",
				"energy": -0.02427,
				"method": "rhf"
			},
			{
				"type": "unocc",
				"energy": 0.0034,
				"method": "rhf"
			},
			{
				"type": "unocc",
				"energy": 0.08158,
				"method": "rhf"
			}
		],
		"cosmo_sigma_profile": { 
			"-0.025": 0.0,
			"-0.024": 0.0,
			"-0.023": 0.0,
			"-0.022": 0.0,
			"-0.021": 0.0,
			"-0.02": 0.0,
			"-0.019": 0.0,
			"-0.018": 0.0,
			"-0.017": 0.0,
			"-0.016": 0.0,
			"-0.015": 0.0,
			"-0.014": 0.0,
			"-0.013": 0.198246479165,
			"-0.012": 1.67511687807,
			"-0.011": 2.42661720767,
			"-0.01": 2.78294149977,
			"-0.009": 5.1994077473,
			"-0.008": 8.98685442334,
			"-0.007": 9.26277232634,
			"-0.006": 12.1816969458,
			"-0.005": 12.1176419275,
			"-0.004": 11.6143887792,
			"-0.003": 10.7023736458,
			"-0.002": 11.8819707214,
			"-0.001": 13.9123032631,
			"0.0": 16.6310304256,
			"0.001": 11.6586545657,
			"0.002": 8.77157169803,
			"0.003": 11.9062773349,
			"0.004": 10.3839532806,
			"0.005": 3.45469293554,
			"0.006": 2.91246404306,
			"0.007": 3.23550375684,
			"0.008": 4.14639122935,
			"0.009": 3.89804922405,
			"0.01": 6.00277834307,
			"0.011": 8.26787824997,
			"0.012": 6.52100663967,
			"0.013": 3.02936497993,
			"0.014": 0.339982883079,
			"0.015": 0.0,
			"0.016": 0.0,
			"0.017": 0.0,
			"0.018": 0.0,
			"0.019": 0.0,
			"0.02": 0.0,
			"0.021": 0.0,
			"0.022": 0.0,
			"0.023": 0.0,
			"0.024": 0.0,
			"0.025": 0.0
		}
	}
}
