{
	 "smiles": "FC1=CC=C(C=C1)C(=O)C1=CC2=C(C=CC=C2)N=C1", 
	 "Tm": 363.15, 
	 "num_atms": 29, 
	 "gaussian": { 
		 "optdone": 1, 
		 "sigma_profile": "yes", 
		 "theory": "DFT", 
		 "functional": "B3LYP", 
		 "basiset": "6-31G**", 
		 "properties": { 
			 "R2extent": 7444.3993, 
			 "electric_dipole_moment_norm": 1.85343181693, 
			 "electric_quadrupole_moment_norm": 10.5106918902, 
			 "total_energy": -845.546517989, 
			 "HOMO_LUMO_gap": 0.16028, 
			 "cosmo_polarized_energy": -10.77, 
			 "cosmo_cavitation_energy": 34.51, 
			 "cosmo_dispersion_energy": -25.05, 
			 "cosmo_repulsion_energy": 1.85, 
			 "cosmo_total_nonelectrostatic_energy": 11.31, 
			 "SMD_solvation_energy": 4.95 
		},
		"coords": [
			{
				"x": 2.5161156281,
				"y": -3.4825114287,
				"z": 4.7794326941,
				"element": "F" 
			},
			{
				"x": 2.4569205825,
				"y": -2.5638334109,
				"z": 3.7981236845,
				"element": "C" 
			},
			{
				"x": 3.5682077972,
				"y": -1.756453117,
				"z": 3.5642166366,
				"element": "C" 
			},
			{
				"x": 3.4968860871,
				"y": -0.8065100503,
				"z": 2.5528456503,
				"element": "C" 
			},
			{
				"x": 2.3406558322,
				"y": -0.6766255777,
				"z": 1.7636259277,
				"element": "C" 
			},
			{
				"x": 1.2364894171,
				"y": -1.5017281377,
				"z": 2.0330918835,
				"element": "C" 
			},
			{
				"x": 1.2868338444,
				"y": -2.4473116398,
				"z": 3.0557965914,
				"element": "C" 
			},
			{
				"x": 2.3253482651,
				"y": 0.4045363863,
				"z": 0.7290838745,
				"element": "C" 
			},
			{
				"x": 3.0605523988,
				"y": 1.3796705747,
				"z": 0.8502340841,
				"element": "O" 
			},
			{
				"x": 1.4142710532,
				"y": 0.3129299262,
				"z": -0.4585374529,
				"element": "C" 
			},
			{
				"x": 1.000365546,
				"y": 1.4860793997,
				"z": -1.0629951585,
				"element": "C" 
			},
			{
				"x": 0.1744708866,
				"y": 1.4375460232,
				"z": -2.2072373527,
				"element": "C" 
			},
			{
				"x": -0.1773165645,
				"y": 0.1439890466,
				"z": -2.7139963821,
				"element": "C" 
			},
			{
				"x": -1.0086171323,
				"y": 0.0567432173,
				"z": -3.8610997815,
				"element": "C" 
			},
			{
				"x": -1.4660704826,
				"y": 1.2008887433,
				"z": -4.4759855543,
				"element": "C" 
			},
			{
				"x": -1.1150200069,
				"y": 2.4818455259,
				"z": -3.977413553,
				"element": "C" 
			},
			{
				"x": -0.3115182958,
				"y": 2.5993360838,
				"z": -2.8667053921,
				"element": "C" 
			},
			{
				"x": 0.2663658197,
				"y": -1.011886624,
				"z": -2.1375907995,
				"element": "N" 
			},
			{
				"x": 1.0190037283,
				"y": -0.9176760902,
				"z": -1.0614870392,
				"element": "C" 
			},
			{
				"x": 4.45704308,
				"y": -1.8797534783,
				"z": 4.1733350704,
				"element": "H" 
			},
			{
				"x": 4.3327682691,
				"y": -0.1445391726,
				"z": 2.3542038776,
				"element": "H" 
			},
			{
				"x": 0.3204743142,
				"y": -1.3914240155,
				"z": 1.4629672128,
				"element": "H" 
			},
			{
				"x": 0.4401061354,
				"y": -3.084553734,
				"z": 3.2856596173,
				"element": "H" 
			},
			{
				"x": 1.31741219,
				"y": 2.4383565316,
				"z": -0.6472356041,
				"element": "H" 
			},
			{
				"x": -1.2617327786,
				"y": -0.9327769817,
				"z": -4.2270945786,
				"element": "H" 
			},
			{
				"x": -2.101564003,
				"y": 1.1273765827,
				"z": -5.3537789462,
				"element": "H" 
			},
			{
				"x": -1.4847269643,
				"y": 3.3712241646,
				"z": -4.478904649,
				"element": "H" 
			},
			{
				"x": -0.0378926562,
				"y": 3.5769069435,
				"z": -2.4786756335,
				"element": "H" 
			},
			{
				"x": 1.3725680093,
				"y": -1.8574456909,
				"z": -0.6419789278,
				"element": "H" 
			}
		],
		 "valence_orbital": [ 
			{
				"type": "occ",
				"energy": -0.27263,
				"method": "rhf"
			},
			{
				"type": "occ",
				"energy": -0.26007,
				"method": "rhf"
			},
			{
				"type": "occ",
				"energy": -0.25717,
				"method": "rhf"
			},
			{
				"type": "occ",
				"energy": -0.25088,
				"method": "rhf"
			},
			{
				"type": "occ",
				"energy": -0.23952,
				"method": "rhf"
			},
			{
				"type": "unocc",
				"energy": -0.07924,
				"method": "rhf"
			},
			{
				"type": "unocc",
				"energy": -0.05,
				"method": "rhf"
			},
			{
				"type": "unocc",
				"energy": -0.02591,
				"method": "rhf"
			},
			{
				"type": "unocc",
				"energy": -0.02025,
				"method": "rhf"
			},
			{
				"type": "unocc",
				"energy": 0.01193,
				"method": "rhf"
			}
		],
		"cosmo_sigma_profile": { 
			"-0.025": 0.0,
			"-0.024": 0.0,
			"-0.023": 0.0,
			"-0.022": 0.0,
			"-0.021": 0.0,
			"-0.02": 0.0,
			"-0.019": 0.0,
			"-0.018": 0.0,
			"-0.017": 0.0,
			"-0.016": 0.0,
			"-0.015": 0.0,
			"-0.014": 0.0,
			"-0.013": 0.0,
			"-0.012": 0.0,
			"-0.011": 0.0,
			"-0.01": 0.0,
			"-0.009": 0.0,
			"-0.008": 3.09332551803,
			"-0.007": 12.2107767386,
			"-0.006": 18.1214366104,
			"-0.005": 21.0074009302,
			"-0.004": 18.5535227049,
			"-0.003": 16.6476143083,
			"-0.002": 15.5480844953,
			"-0.001": 19.8408990652,
			"0.0": 26.705178401,
			"0.001": 26.4802943813,
			"0.002": 30.5031317834,
			"0.003": 23.1559431853,
			"0.004": 17.8708377134,
			"0.005": 3.21210302402,
			"0.006": 3.28295194874,
			"0.007": 2.95419670839,
			"0.008": 3.19962050645,
			"0.009": 2.72799686404,
			"0.01": 2.51777175626,
			"0.011": 3.98787587135,
			"0.012": 4.67652091087,
			"0.013": 0.9175522215,
			"0.014": 0.920598457679,
			"0.015": 0.560394461098,
			"0.016": 0.297665729323,
			"0.017": 0.0,
			"0.018": 0.0,
			"0.019": 0.0,
			"0.02": 0.0,
			"0.021": 0.0,
			"0.022": 0.0,
			"0.023": 0.0,
			"0.024": 0.0,
			"0.025": 0.0
		}
	}
}
