{
	 "smiles": "NC(=S)N1CCCCC1", 
	 "Tm": 401.15, 
	 "num_atms": 21, 
	 "gaussian": { 
		 "optdone": 1, 
		 "sigma_profile": "yes", 
		 "theory": "DFT", 
		 "functional": "B3LYP", 
		 "basiset": "6-31G**", 
		 "properties": { 
			 "R2extent": 2483.198, 
			 "electric_dipole_moment_norm": 5.78494820202, 
			 "electric_quadrupole_moment_norm": 24.4568277548, 
			 "total_energy": -743.578990002, 
			 "HOMO_LUMO_gap": 0.19951, 
			 "cosmo_polarized_energy": -16.17, 
			 "cosmo_cavitation_energy": 23.55, 
			 "cosmo_dispersion_energy": -18.38, 
			 "cosmo_repulsion_energy": 1.47, 
			 "cosmo_total_nonelectrostatic_energy": 6.64, 
			 "SMD_solvation_energy": 2.02 
		},
		"coords": [
			{
				"x": 1.1978135671,
				"y": -2.4039648869,
				"z": -0.2920542424,
				"element": "N" 
			},
			{
				"x": 0.2790638085,
				"y": -2.4371283827,
				"z": 0.7348763681,
				"element": "C" 
			},
			{
				"x": -0.0768365531,
				"y": -3.9038063646,
				"z": 1.4938614047,
				"element": "S" 
			},
			{
				"x": -0.3156464159,
				"y": -1.2509977582,
				"z": 1.0275168625,
				"element": "N" 
			},
			{
				"x": -1.240890492,
				"y": -1.1271023101,
				"z": 2.165142545,
				"element": "C" 
			},
			{
				"x": -1.1339453159,
				"y": 0.269988264,
				"z": 2.7814253788,
				"element": "C" 
			},
			{
				"x": -1.4937999297,
				"y": 1.3866035498,
				"z": 1.7717284228,
				"element": "C" 
			},
			{
				"x": -1.2962751167,
				"y": 0.9066596749,
				"z": 0.3203589136,
				"element": "C" 
			},
			{
				"x": -0.1150822906,
				"y": -0.0583159996,
				"z": 0.1864716488,
				"element": "C" 
			},
			{
				"x": 1.7557079277,
				"y": -1.5715746209,
				"z": -0.4287880489,
				"element": "H" 
			},
			{
				"x": 1.6957715373,
				"y": -3.2753299596,
				"z": -0.4016593385,
				"element": "H" 
			},
			{
				"x": -2.269126274,
				"y": -1.3363667348,
				"z": 1.8387840756,
				"element": "H" 
			},
			{
				"x": -0.9771353195,
				"y": -1.9028348514,
				"z": 2.884578235,
				"element": "H" 
			},
			{
				"x": -1.7820801338,
				"y": 0.3178106973,
				"z": 3.6623549593,
				"element": "H" 
			},
			{
				"x": -0.1080722071,
				"y": 0.4054260318,
				"z": 3.1437616076,
				"element": "H" 
			},
			{
				"x": -2.5333185465,
				"y": 1.7050536252,
				"z": 1.9046229509,
				"element": "H" 
			},
			{
				"x": -0.8737167943,
				"y": 2.2695476232,
				"z": 1.9634422333,
				"element": "H" 
			},
			{
				"x": -1.1366597205,
				"y": 1.754648717,
				"z": -0.3539262605,
				"element": "H" 
			},
			{
				"x": -2.1973378343,
				"y": 0.3930212515,
				"z": -0.0335221106,
				"element": "H" 
			},
			{
				"x": 0.8200106601,
				"y": 0.457762866,
				"z": 0.4613178157,
				"element": "H" 
			},
			{
				"x": -0.018744557,
				"y": -0.382100432,
				"z": -0.8543934209,
				"element": "H" 
			}
		],
		 "valence_orbital": [ 
			{
				"type": "occ",
				"energy": -0.3321,
				"method": "rhf"
			},
			{
				"type": "occ",
				"energy": -0.33007,
				"method": "rhf"
			},
			{
				"type": "occ",
				"energy": -0.25605,
				"method": "rhf"
			},
			{
				"type": "occ",
				"energy": -0.20387,
				"method": "rhf"
			},
			{
				"type": "occ",
				"energy": -0.19202,
				"method": "rhf"
			},
			{
				"type": "unocc",
				"energy": 0.00749,
				"method": "rhf"
			},
			{
				"type": "unocc",
				"energy": 0.06188,
				"method": "rhf"
			},
			{
				"type": "unocc",
				"energy": 0.08053,
				"method": "rhf"
			},
			{
				"type": "unocc",
				"energy": 0.09661,
				"method": "rhf"
			},
			{
				"type": "unocc",
				"energy": 0.10475,
				"method": "rhf"
			}
		],
		"cosmo_sigma_profile": { 
			"-0.025": 0.0,
			"-0.024": 0.0,
			"-0.023": 0.0,
			"-0.022": 0.0,
			"-0.021": 0.0,
			"-0.02": 0.0,
			"-0.019": 0.0,
			"-0.018": 0.0,
			"-0.017": 0.0,
			"-0.016": 0.0,
			"-0.015": 0.0,
			"-0.014": 0.769430994631,
			"-0.013": 2.15313974191,
			"-0.012": 2.65374819474,
			"-0.011": 2.49022787963,
			"-0.01": 2.56232669419,
			"-0.009": 1.88817883175,
			"-0.008": 2.60559352401,
			"-0.007": 1.86144438139,
			"-0.006": 2.44201598155,
			"-0.005": 5.7834005521,
			"-0.004": 15.9441244096,
			"-0.003": 28.5289480551,
			"-0.002": 26.9222143644,
			"-0.001": 15.9100655885,
			"0.0": 14.5189798919,
			"0.001": 6.04178107761,
			"0.002": 3.15553285803,
			"0.003": 2.33585916132,
			"0.004": 3.20750182784,
			"0.005": 4.69721877829,
			"0.006": 3.94269773495,
			"0.007": 4.65283614258,
			"0.008": 4.8232371075,
			"0.009": 4.3250952331,
			"0.01": 4.38245298952,
			"0.011": 5.77921801457,
			"0.012": 7.42129988767,
			"0.013": 3.72700710902,
			"0.014": 0.135500212666,
			"0.015": 0.0,
			"0.016": 0.0,
			"0.017": 0.0,
			"0.018": 0.0,
			"0.019": 0.0,
			"0.02": 0.0,
			"0.021": 0.0,
			"0.022": 0.0,
			"0.023": 0.0,
			"0.024": 0.0,
			"0.025": 0.0
		}
	}
}
