{
	 "smiles": "CC(=O)C1=CC(CN2CCOCC2)=C(O)C=C1", 
	 "Tm": 344.15, 
	 "num_atms": 34, 
	 "gaussian": { 
		 "optdone": 1, 
		 "sigma_profile": "yes", 
		 "theory": "DFT", 
		 "functional": "B3LYP", 
		 "basiset": "6-31G**", 
		 "properties": { 
			 "R2extent": 5719.8444, 
			 "electric_dipole_moment_norm": 3.23933850963, 
			 "electric_quadrupole_moment_norm": 29.0552265319, 
			 "total_energy": -786.022006114, 
			 "HOMO_LUMO_gap": 0.17058, 
			 "cosmo_polarized_energy": -16.18, 
			 "cosmo_cavitation_energy": 35.92, 
			 "cosmo_dispersion_energy": -25.46, 
			 "cosmo_repulsion_energy": 1.99, 
			 "cosmo_total_nonelectrostatic_energy": 12.45, 
			 "SMD_solvation_energy": 5.38 
		},
		"coords": [
			{
				"x": -2.4304607654,
				"y": 2.0123829395,
				"z": 2.272773408,
				"element": "C" 
			},
			{
				"x": -1.1614728693,
				"y": 2.3023800977,
				"z": 3.0591281108,
				"element": "C" 
			},
			{
				"x": -1.2118833697,
				"y": 2.9478972371,
				"z": 4.09773737,
				"element": "O" 
			},
			{
				"x": 0.1403459201,
				"y": 1.7856415109,
				"z": 2.5415434045,
				"element": "C" 
			},
			{
				"x": 0.2516228323,
				"y": 1.0436751157,
				"z": 1.3548909317,
				"element": "C" 
			},
			{
				"x": 1.4788219919,
				"y": 0.573951616,
				"z": 0.8889122243,
				"element": "C" 
			},
			{
				"x": 1.5922056009,
				"y": -0.2508554838,
				"z": -0.3814477603,
				"element": "C" 
			},
			{
				"x": 0.4766711621,
				"y": -0.0459968078,
				"z": -1.3011905171,
				"element": "N" 
			},
			{
				"x": 0.5052652963,
				"y": 1.2603019261,
				"z": -1.9972692655,
				"element": "C" 
			},
			{
				"x": 0.9028682496,
				"y": 1.1264567781,
				"z": -3.4662477815,
				"element": "C" 
			},
			{
				"x": 0.0065162864,
				"y": 0.283119391,
				"z": -4.1869183986,
				"element": "O" 
			},
			{
				"x": -0.5696576561,
				"y": -0.7590764015,
				"z": -3.3999166545,
				"element": "C" 
			},
			{
				"x": 0.3244432663,
				"y": -1.1679265053,
				"z": -2.2364979653,
				"element": "C" 
			},
			{
				"x": 2.6262954661,
				"y": 0.8546668259,
				"z": 1.6535799661,
				"element": "C" 
			},
			{
				"x": 3.8177217269,
				"y": 0.3697238681,
				"z": 1.1951121891,
				"element": "O" 
			},
			{
				"x": 2.5361619164,
				"y": 1.5965128634,
				"z": 2.839013454,
				"element": "C" 
			},
			{
				"x": 1.3034884618,
				"y": 2.057967375,
				"z": 3.277529293,
				"element": "C" 
			},
			{
				"x": -2.3685511985,
				"y": 2.4229738067,
				"z": 1.2589974895,
				"element": "H" 
			},
			{
				"x": -3.2745010911,
				"y": 2.4632481273,
				"z": 2.7954504536,
				"element": "H" 
			},
			{
				"x": -2.5959810079,
				"y": 0.9337413197,
				"z": 2.1761256509,
				"element": "H" 
			},
			{
				"x": -0.621423375,
				"y": 0.8130248645,
				"z": 0.7541935615,
				"element": "H" 
			},
			{
				"x": 1.6042126224,
				"y": -1.3148490317,
				"z": -0.1081157012,
				"element": "H" 
			},
			{
				"x": 2.5711231115,
				"y": -0.0582209838,
				"z": -0.8545159698,
				"element": "H" 
			},
			{
				"x": -0.484899941,
				"y": 1.732233604,
				"z": -1.9417306773,
				"element": "H" 
			},
			{
				"x": 1.2028149992,
				"y": 1.9314306993,
				"z": -1.4860355038,
				"element": "H" 
			},
			{
				"x": 0.8815633185,
				"y": 2.1043301915,
				"z": -3.9596251726,
				"element": "H" 
			},
			{
				"x": 1.9326051244,
				"y": 0.7411441857,
				"z": -3.542004688,
				"element": "H" 
			},
			{
				"x": -0.7336806296,
				"y": -1.6104854106,
				"z": -4.0687836997,
				"element": "H" 
			},
			{
				"x": -1.5501796421,
				"y": -0.443367131,
				"z": -3.010081287,
				"element": "H" 
			},
			{
				"x": -0.1203722295,
				"y": -2.0220029082,
				"z": -1.7098281003,
				"element": "H" 
			},
			{
				"x": 1.2932964467,
				"y": -1.5113742738,
				"z": -2.6448965097,
				"element": "H" 
			},
			{
				"x": 4.5243945939,
				"y": 0.6446648655,
				"z": 1.794066689,
				"element": "H" 
			},
			{
				"x": 3.4379306721,
				"y": 1.8051380669,
				"z": 3.4118771101,
				"element": "H" 
			},
			{
				"x": 1.2124947095,
				"y": 2.6342476617,
				"z": 4.1919743462,
				"element": "H" 
			}
		],
		 "valence_orbital": [ 
			{
				"type": "occ",
				"energy": -0.25668,
				"method": "rhf"
			},
			{
				"type": "occ",
				"energy": -0.24763,
				"method": "rhf"
			},
			{
				"type": "occ",
				"energy": -0.23972,
				"method": "rhf"
			},
			{
				"type": "occ",
				"energy": -0.23034,
				"method": "rhf"
			},
			{
				"type": "occ",
				"energy": -0.21377,
				"method": "rhf"
			},
			{
				"type": "unocc",
				"energy": -0.04319,
				"method": "rhf"
			},
			{
				"type": "unocc",
				"energy": -0.00945,
				"method": "rhf"
			},
			{
				"type": "unocc",
				"energy": 0.0495,
				"method": "rhf"
			},
			{
				"type": "unocc",
				"energy": 0.05822,
				"method": "rhf"
			},
			{
				"type": "unocc",
				"energy": 0.07602,
				"method": "rhf"
			}
		],
		"cosmo_sigma_profile": { 
			"-0.025": 0.0,
			"-0.024": 0.0,
			"-0.023": 0.0,
			"-0.022": 0.0,
			"-0.021": 0.0,
			"-0.02": 0.0,
			"-0.019": 0.0694808579135,
			"-0.018": 0.946508830246,
			"-0.017": 1.34790845896,
			"-0.016": 0.567335316896,
			"-0.015": 1.20908453389,
			"-0.014": 1.08314829656,
			"-0.013": 1.52204324454,
			"-0.012": 0.670261090042,
			"-0.011": 0.946494027771,
			"-0.01": 0.539831787728,
			"-0.009": 1.44725877982,
			"-0.008": 1.34354853928,
			"-0.007": 1.30553252302,
			"-0.006": 3.75805532825,
			"-0.005": 15.8473116398,
			"-0.004": 30.8870319265,
			"-0.003": 36.3467303209,
			"-0.002": 32.581053644,
			"-0.001": 24.5057193835,
			"0.0": 17.7515712294,
			"0.001": 12.751237827,
			"0.002": 15.1831803201,
			"0.003": 14.3937523006,
			"0.004": 15.5111974448,
			"0.005": 8.01301208718,
			"0.006": 5.02425253236,
			"0.007": 5.80443593465,
			"0.008": 4.86366573689,
			"0.009": 5.51760364,
			"0.01": 4.04330938406,
			"0.011": 3.22868940808,
			"0.012": 5.93518448144,
			"0.013": 4.29226456607,
			"0.014": 2.30130860372,
			"0.015": 0.0,
			"0.016": 0.0,
			"0.017": 0.0,
			"0.018": 0.0,
			"0.019": 0.0,
			"0.02": 0.0,
			"0.021": 0.0,
			"0.022": 0.0,
			"0.023": 0.0,
			"0.024": 0.0,
			"0.025": 0.0
		}
	}
}
