{
	 "smiles": "OC(=O)C1CC1C(=O)NC1=C(Cl)C=C(Cl)C=C1", 
	 "Tm": 469.15, 
	 "num_atms": 26, 
	 "gaussian": { 
		 "optdone": 1, 
		 "sigma_profile": "yes", 
		 "theory": "DFT", 
		 "functional": "B3LYP", 
		 "basiset": "6-31G**", 
		 "properties": { 
			 "R2extent": 7042.449, 
			 "electric_dipole_moment_norm": 5.89429764942, 
			 "electric_quadrupole_moment_norm": 25.6050729884, 
			 "total_energy": -1625.40218945, 
			 "HOMO_LUMO_gap": 0.19795, 
			 "cosmo_polarized_energy": -18.55, 
			 "cosmo_cavitation_energy": 34.32, 
			 "cosmo_dispersion_energy": -24.74, 
			 "cosmo_repulsion_energy": 1.94, 
			 "cosmo_total_nonelectrostatic_energy": 11.51, 
			 "SMD_solvation_energy": 6.59 
		},
		"coords": [
			{
				"x": -4.1466854682,
				"y": -0.0169640489,
				"z": 1.7072804499,
				"element": "O" 
			},
			{
				"x": -3.745780008,
				"y": -0.7834056621,
				"z": 0.6872686842,
				"element": "C" 
			},
			{
				"x": -4.1731132953,
				"y": -1.9059302744,
				"z": 0.5290540844,
				"element": "O" 
			},
			{
				"x": -2.7839100597,
				"y": -0.2128879435,
				"z": -0.334855822,
				"element": "C" 
			},
			{
				"x": -2.8732094658,
				"y": 1.1968663327,
				"z": -0.8416859236,
				"element": "C" 
			},
			{
				"x": -1.6280968479,
				"y": 0.7831973188,
				"z": -0.0918027194,
				"element": "C" 
			},
			{
				"x": -1.3823725936,
				"y": 1.4100805481,
				"z": 1.2357468815,
				"element": "C" 
			},
			{
				"x": -2.296251498,
				"y": 1.8630127266,
				"z": 1.9378485059,
				"element": "O" 
			},
			{
				"x": -0.0895784788,
				"y": 1.5515965199,
				"z": 1.6735459984,
				"element": "N" 
			},
			{
				"x": 1.1146652565,
				"y": 1.0375693954,
				"z": 1.1500304427,
				"element": "C" 
			},
			{
				"x": 2.2610174261,
				"y": 1.850067299,
				"z": 1.0839636648,
				"element": "C" 
			},
			{
				"x": 2.1793999353,
				"y": 3.5171599289,
				"z": 1.6168761551,
				"element": "Cl" 
			},
			{
				"x": 3.4745674516,
				"y": 1.3580526186,
				"z": 0.6090370537,
				"element": "C" 
			},
			{
				"x": 3.5452719208,
				"y": 0.0338052974,
				"z": 0.1801470778,
				"element": "C" 
			},
			{
				"x": 5.0630688046,
				"y": -0.5857580671,
				"z": -0.4336683317,
				"element": "Cl" 
			},
			{
				"x": 2.4304190171,
				"y": -0.8015528995,
				"z": 0.2444103084,
				"element": "C" 
			},
			{
				"x": 1.2326516536,
				"y": -0.3003612752,
				"z": 0.7457527324,
				"element": "C" 
			},
			{
				"x": -3.6054760742,
				"y": 0.8056482872,
				"z": 1.7943334173,
				"element": "H" 
			},
			{
				"x": -2.5425502976,
				"y": -0.9750377317,
				"z": -1.0678679179,
				"element": "H" 
			},
			{
				"x": -3.5404182386,
				"y": 1.872319504,
				"z": -0.3161545702,
				"element": "H" 
			},
			{
				"x": -2.7838746599,
				"y": 1.3689825588,
				"z": -1.9090888115,
				"element": "H" 
			},
			{
				"x": -0.7457912899,
				"y": 0.5846478776,
				"z": -0.6880472781,
				"element": "H" 
			},
			{
				"x": -0.0229865515,
				"y": 2.1467976434,
				"z": 2.492251058,
				"element": "H" 
			},
			{
				"x": 4.34394074,
				"y": 2.0024632788,
				"z": 0.5673867133,
				"element": "H" 
			},
			{
				"x": 2.5040184768,
				"y": -1.8363143051,
				"z": -0.0692649617,
				"element": "H" 
			},
			{
				"x": 0.3754741443,
				"y": -0.9574549275,
				"z": 0.8441031081,
				"element": "H" 
			}
		],
		 "valence_orbital": [ 
			{
				"type": "occ",
				"energy": -0.29764,
				"method": "rhf"
			},
			{
				"type": "occ",
				"energy": -0.29261,
				"method": "rhf"
			},
			{
				"type": "occ",
				"energy": -0.28728,
				"method": "rhf"
			},
			{
				"type": "occ",
				"energy": -0.26094,
				"method": "rhf"
			},
			{
				"type": "occ",
				"energy": -0.25546,
				"method": "rhf"
			},
			{
				"type": "unocc",
				"energy": -0.05751,
				"method": "rhf"
			},
			{
				"type": "unocc",
				"energy": -0.05078,
				"method": "rhf"
			},
			{
				"type": "unocc",
				"energy": -0.01945,
				"method": "rhf"
			},
			{
				"type": "unocc",
				"energy": -0.01384,
				"method": "rhf"
			},
			{
				"type": "unocc",
				"energy": 0.01849,
				"method": "rhf"
			}
		],
		"cosmo_sigma_profile": { 
			"-0.025": 0.0,
			"-0.024": 0.0,
			"-0.023": 0.0,
			"-0.022": 0.0,
			"-0.021": 0.0,
			"-0.02": 0.0,
			"-0.019": 0.0,
			"-0.018": 0.0,
			"-0.017": 0.0,
			"-0.016": 0.0,
			"-0.015": 0.221001353018,
			"-0.014": 0.743603068495,
			"-0.013": 0.477824043255,
			"-0.012": 0.770953964294,
			"-0.011": 1.42860091715,
			"-0.01": 0.966544903653,
			"-0.009": 2.04024608431,
			"-0.008": 10.1470760952,
			"-0.007": 15.9780182043,
			"-0.006": 14.3564418841,
			"-0.005": 14.5943017225,
			"-0.004": 13.5003167266,
			"-0.003": 16.7287091768,
			"-0.002": 20.6214735742,
			"-0.001": 20.3323673378,
			"0.0": 28.3487967349,
			"0.001": 27.3000274897,
			"0.002": 15.5112099645,
			"0.003": 16.2748839635,
			"0.004": 16.6134725734,
			"0.005": 4.29175387018,
			"0.006": 2.9421286095,
			"0.007": 2.86740350097,
			"0.008": 3.72399027392,
			"0.009": 3.90202511297,
			"0.01": 5.43488398236,
			"0.011": 6.11068724619,
			"0.012": 7.72648002935,
			"0.013": 4.4516636346,
			"0.014": 1.12053648444,
			"0.015": 0.0024601198619,
			"0.016": 0.0,
			"0.017": 0.0,
			"0.018": 0.0,
			"0.019": 0.0,
			"0.02": 0.0,
			"0.021": 0.0,
			"0.022": 0.0,
			"0.023": 0.0,
			"0.024": 0.0,
			"0.025": 0.0
		}
	}
}
