{
	 "smiles": "CC1=CC(Br)=CC(Cl)=C1N", 
	 "Tm": 311.65, 
	 "num_atms": 17, 
	 "gaussian": { 
		 "optdone": 1, 
		 "sigma_profile": "yes", 
		 "theory": "DFT", 
		 "functional": "B3LYP", 
		 "basiset": "6-31G**", 
		 "properties": { 
			 "R2extent": 3726.2466, 
			 "electric_dipole_moment_norm": 3.40195701325, 
			 "electric_quadrupole_moment_norm": 8.00469299599, 
			 "total_energy": -3357.32383712, 
			 "HOMO_LUMO_gap": 0.19498, 
			 "cosmo_polarized_energy": -7.53, 
			 "cosmo_cavitation_energy": 24.46, 
			 "cosmo_dispersion_energy": -18.85, 
			 "cosmo_repulsion_energy": 1.53, 
			 "cosmo_total_nonelectrostatic_energy": 7.13, 
			 "SMD_solvation_energy": 2.64 
		},
		"coords": [
			{
				"x": -0.4424775164,
				"y": -1.7269049931,
				"z": -2.3778375747,
				"element": "C" 
			},
			{
				"x": -0.7727838711,
				"y": -1.1336694704,
				"z": -1.0307698256,
				"element": "C" 
			},
			{
				"x": -0.4170732292,
				"y": -1.7931735721,
				"z": 0.1452456979,
				"element": "C" 
			},
			{
				"x": -0.7358943863,
				"y": -1.2548381731,
				"z": 1.3904014988,
				"element": "C" 
			},
			{
				"x": -0.2365970466,
				"y": -2.1849496825,
				"z": 2.984034826,
				"element": "Br" 
			},
			{
				"x": -1.4158331024,
				"y": -0.0467362843,
				"z": 1.4867069438,
				"element": "C" 
			},
			{
				"x": -1.7663754365,
				"y": 0.6133955782,
				"z": 0.3124556666,
				"element": "C" 
			},
			{
				"x": -2.6180766423,
				"y": 2.1534818824,
				"z": 0.4371704064,
				"element": "Cl" 
			},
			{
				"x": -1.4634444835,
				"y": 0.102026595,
				"z": -0.9628892573,
				"element": "C" 
			},
			{
				"x": -1.8723861034,
				"y": 0.7457395669,
				"z": -2.1212363738,
				"element": "N" 
			},
			{
				"x": 0.0346911271,
				"y": -2.7033472026,
				"z": -2.2694236428,
				"element": "H" 
			},
			{
				"x": -1.3445339837,
				"y": -1.8558174933,
				"z": -2.9883205727,
				"element": "H" 
			},
			{
				"x": 0.24773695,
				"y": -1.0896797207,
				"z": -2.9485916828,
				"element": "H" 
			},
			{
				"x": 0.1109644872,
				"y": -2.7387004777,
				"z": 0.0869618016,
				"element": "H" 
			},
			{
				"x": -1.6680194265,
				"y": 0.3824508177,
				"z": 2.44807478,
				"element": "H" 
			},
			{
				"x": -2.1420631659,
				"y": 1.7128448919,
				"z": -2.0085908465,
				"element": "H" 
			},
			{
				"x": -1.3096341704,
				"y": 0.5802777378,
				"z": -2.9422918448,
				"element": "H" 
			}
		],
		 "valence_orbital": [ 
			{
				"type": "occ",
				"energy": -0.32239,
				"method": "rhf"
			},
			{
				"type": "occ",
				"energy": -0.2842,
				"method": "rhf"
			},
			{
				"type": "occ",
				"energy": -0.28262,
				"method": "rhf"
			},
			{
				"type": "occ",
				"energy": -0.25128,
				"method": "rhf"
			},
			{
				"type": "occ",
				"energy": -0.2097,
				"method": "rhf"
			},
			{
				"type": "unocc",
				"energy": -0.01472,
				"method": "rhf"
			},
			{
				"type": "unocc",
				"energy": -0.00172,
				"method": "rhf"
			},
			{
				"type": "unocc",
				"energy": -0.00091,
				"method": "rhf"
			},
			{
				"type": "unocc",
				"energy": 0.04288,
				"method": "rhf"
			},
			{
				"type": "unocc",
				"energy": 0.06963,
				"method": "rhf"
			}
		],
		"cosmo_sigma_profile": { 
			"-0.025": 0.0,
			"-0.024": 0.0,
			"-0.023": 0.0,
			"-0.022": 0.0,
			"-0.021": 0.0,
			"-0.02": 0.0,
			"-0.019": 0.0,
			"-0.018": 0.0,
			"-0.017": 0.0,
			"-0.016": 0.0,
			"-0.015": 0.0,
			"-0.014": 0.0,
			"-0.013": 0.35476146639,
			"-0.012": 1.5649872577,
			"-0.011": 2.05452756296,
			"-0.01": 2.98329612053,
			"-0.009": 2.48526281975,
			"-0.008": 2.32540306735,
			"-0.007": 4.43053668359,
			"-0.006": 6.60576258229,
			"-0.005": 8.59023531691,
			"-0.004": 10.9595184673,
			"-0.003": 11.1645370337,
			"-0.002": 12.6747377627,
			"-0.001": 14.5463231806,
			"0.0": 15.761497996,
			"0.001": 16.0558942897,
			"0.002": 18.5852100656,
			"0.003": 25.8410714882,
			"0.004": 23.3056804317,
			"0.005": 14.742942471,
			"0.006": 1.46603248109,
			"0.007": 0.497893812362,
			"0.008": 0.926630640275,
			"0.009": 0.521538511335,
			"0.01": 0.366227148921,
			"0.011": 0.634816126859,
			"0.012": 0.621515140714,
			"0.013": 0.238425583506,
			"0.014": 0.0,
			"0.015": 0.0,
			"0.016": 0.0,
			"0.017": 0.0,
			"0.018": 0.0,
			"0.019": 0.0,
			"0.02": 0.0,
			"0.021": 0.0,
			"0.022": 0.0,
			"0.023": 0.0,
			"0.024": 0.0,
			"0.025": 0.0
		}
	}
}
