{
	 "smiles": "ON=CC1=NC2=C(O1)C=CC(Cl)=C2", 
	 "Tm": 480.15, 
	 "num_atms": 18, 
	 "gaussian": { 
		 "optdone": 1, 
		 "sigma_profile": "yes", 
		 "theory": "DFT", 
		 "functional": "B3LYP", 
		 "basiset": "6-31G**", 
		 "properties": { 
			 "R2extent": 3781.1593, 
			 "electric_dipole_moment_norm": 2.58897212422, 
			 "electric_quadrupole_moment_norm": 7.69308920135, 
			 "total_energy": -1027.93523414, 
			 "HOMO_LUMO_gap": 0.16451, 
			 "cosmo_polarized_energy": -10.18, 
			 "cosmo_cavitation_energy": 25.66, 
			 "cosmo_dispersion_energy": -19.37, 
			 "cosmo_repulsion_energy": 1.54, 
			 "cosmo_total_nonelectrostatic_energy": 7.83, 
			 "SMD_solvation_energy": 2.76 
		},
		"coords": [
			{
				"x": -2.0057577957,
				"y": -4.0218193062,
				"z": -0.2481199891,
				"element": "O" 
			},
			{
				"x": -2.8418903553,
				"y": -3.2917015059,
				"z": 0.5794488895,
				"element": "N" 
			},
			{
				"x": -2.5524359006,
				"y": -2.0403165432,
				"z": 0.6421840676,
				"element": "C" 
			},
			{
				"x": -1.5074665486,
				"y": -1.2601289437,
				"z": 0.0009001631,
				"element": "C" 
			},
			{
				"x": -1.3595732068,
				"y": 0.0246029677,
				"z": 0.1828159361,
				"element": "N" 
			},
			{
				"x": -0.265314022,
				"y": 0.3576729408,
				"z": -0.6011034154,
				"element": "C" 
			},
			{
				"x": 0.202195812,
				"y": -0.8017513284,
				"z": -1.2382690857,
				"element": "C" 
			},
			{
				"x": -0.5979783889,
				"y": -1.8409685671,
				"z": -0.8497885636,
				"element": "O" 
			},
			{
				"x": 1.2903038308,
				"y": -0.8202462466,
				"z": -2.0989403856,
				"element": "C" 
			},
			{
				"x": 1.9223964648,
				"y": 0.4046181765,
				"z": -2.3120040727,
				"element": "C" 
			},
			{
				"x": 1.4612196323,
				"y": 1.5748633909,
				"z": -1.6773213106,
				"element": "C" 
			},
			{
				"x": 2.3101508375,
				"y": 3.0825745232,
				"z": -1.995427517,
				"element": "Cl" 
			},
			{
				"x": 0.3697551475,
				"y": 1.586529182,
				"z": -0.8155950598,
				"element": "C" 
			},
			{
				"x": -2.3677395818,
				"y": -4.9156624427,
				"z": -0.1707544671,
				"element": "H" 
			},
			{
				"x": -3.2008710226,
				"y": -1.4563112224,
				"z": 1.2881308435,
				"element": "H" 
			},
			{
				"x": 1.632184131,
				"y": -1.7297482991,
				"z": -2.5791896768,
				"element": "H" 
			},
			{
				"x": 2.7795931653,
				"y": 0.466162845,
				"z": -2.9723698919,
				"element": "H" 
			},
			{
				"x": 0.0276278012,
				"y": 2.4950303791,
				"z": -0.3353964644,
				"element": "H" 
			}
		],
		 "valence_orbital": [ 
			{
				"type": "occ",
				"energy": -0.30643,
				"method": "rhf"
			},
			{
				"type": "occ",
				"energy": -0.29359,
				"method": "rhf"
			},
			{
				"type": "occ",
				"energy": -0.29217,
				"method": "rhf"
			},
			{
				"type": "occ",
				"energy": -0.25326,
				"method": "rhf"
			},
			{
				"type": "occ",
				"energy": -0.23993,
				"method": "rhf"
			},
			{
				"type": "unocc",
				"energy": -0.07542,
				"method": "rhf"
			},
			{
				"type": "unocc",
				"energy": -0.01428,
				"method": "rhf"
			},
			{
				"type": "unocc",
				"energy": -0.00061,
				"method": "rhf"
			},
			{
				"type": "unocc",
				"energy": 0.02378,
				"method": "rhf"
			},
			{
				"type": "unocc",
				"energy": 0.06136,
				"method": "rhf"
			}
		],
		"cosmo_sigma_profile": { 
			"-0.025": 0.0,
			"-0.024": 0.0,
			"-0.023": 0.0,
			"-0.022": 0.0,
			"-0.021": 0.0,
			"-0.02": 0.0,
			"-0.019": 0.28926957647,
			"-0.018": 0.913022167488,
			"-0.017": 1.02596697923,
			"-0.016": 1.03479069352,
			"-0.015": 0.953448184505,
			"-0.014": 0.469585227788,
			"-0.013": 0.366542718632,
			"-0.012": 1.00607825267,
			"-0.011": 0.802689423122,
			"-0.01": 0.554051524863,
			"-0.009": 3.27913642097,
			"-0.008": 6.3719754031,
			"-0.007": 7.82271335431,
			"-0.006": 6.33079474668,
			"-0.005": 7.87485440724,
			"-0.004": 8.78789807343,
			"-0.003": 11.0995775699,
			"-0.002": 13.0938024395,
			"-0.001": 14.6748685121,
			"0.0": 18.1998177346,
			"0.001": 22.6992220453,
			"0.002": 20.6081679296,
			"0.003": 12.0651385298,
			"0.004": 15.8636036305,
			"0.005": 8.90273583682,
			"0.006": 4.05194889975,
			"0.007": 3.25724177612,
			"0.008": 3.40006925257,
			"0.009": 4.26501348233,
			"0.01": 3.31987775439,
			"0.011": 3.18709646759,
			"0.012": 1.05799575217,
			"0.013": 1.20647680822,
			"0.014": 0.665291970372,
			"0.015": 0.0755954864023,
			"0.016": 0.0,
			"0.017": 0.0,
			"0.018": 0.0,
			"0.019": 0.0,
			"0.02": 0.0,
			"0.021": 0.0,
			"0.022": 0.0,
			"0.023": 0.0,
			"0.024": 0.0,
			"0.025": 0.0
		}
	}
}
