{
	 "smiles": "CSC1=CC=C(O1)C(O)=O", 
	 "Tm": 400.15, 
	 "num_atms": 16, 
	 "gaussian": { 
		 "optdone": 1, 
		 "sigma_profile": "yes", 
		 "theory": "DFT", 
		 "functional": "B3LYP", 
		 "basiset": "6-31G**", 
		 "properties": { 
			 "R2extent": 2007.7214, 
			 "electric_dipole_moment_norm": 5.04593914351, 
			 "electric_quadrupole_moment_norm": 13.0932997109, 
			 "total_energy": -856.092514286, 
			 "HOMO_LUMO_gap": 0.17518, 
			 "cosmo_polarized_energy": -13.93, 
			 "cosmo_cavitation_energy": 22.81, 
			 "cosmo_dispersion_energy": -17.05, 
			 "cosmo_repulsion_energy": 1.34, 
			 "cosmo_total_nonelectrostatic_energy": 7.11, 
			 "SMD_solvation_energy": 5.8 
		},
		"coords": [
			{
				"x": 0.8607400557,
				"y": -0.3872834661,
				"z": 3.3567268545,
				"element": "C" 
			},
			{
				"x": -0.8571401946,
				"y": -0.8767561065,
				"z": 2.9711280473,
				"element": "S" 
			},
			{
				"x": -0.9732881506,
				"y": -0.4258377736,
				"z": 1.2771461572,
				"element": "C" 
			},
			{
				"x": -2.0235351131,
				"y": -0.5374147437,
				"z": 0.3983006605,
				"element": "C" 
			},
			{
				"x": -1.5612537747,
				"y": -0.0162834569,
				"z": -0.8421254831,
				"element": "C" 
			},
			{
				"x": -0.267569764,
				"y": 0.3805281452,
				"z": -0.6539917662,
				"element": "C" 
			},
			{
				"x": 0.1039378798,
				"y": 0.1291501455,
				"z": 0.659705201,
				"element": "O" 
			},
			{
				"x": 0.7177661279,
				"y": 0.9855320025,
				"z": -1.5543905089,
				"element": "C" 
			},
			{
				"x": 1.9331101908,
				"y": 1.2507681073,
				"z": -1.0067803481,
				"element": "O" 
			},
			{
				"x": 0.4780783253,
				"y": 1.2380325002,
				"z": -2.713322348,
				"element": "O" 
			},
			{
				"x": 1.5729058252,
				"y": -0.945718582,
				"z": 2.7478047703,
				"element": "H" 
			},
			{
				"x": 1.0033888921,
				"y": -0.6426231716,
				"z": 4.4081790677,
				"element": "H" 
			},
			{
				"x": 1.0017112697,
				"y": 0.6858735334,
				"z": 3.2215064071,
				"element": "H" 
			},
			{
				"x": -2.9998744016,
				"y": -0.9422203537,
				"z": 0.6195143432,
				"element": "H" 
			},
			{
				"x": -2.1062155071,
				"y": 0.0630502057,
				"z": -1.7711597919,
				"element": "H" 
			},
			{
				"x": 1.9369383394,
				"y": 0.9820030142,
				"z": -0.0755412626,
				"element": "H" 
			}
		],
		 "valence_orbital": [ 
			{
				"type": "occ",
				"energy": -0.3163,
				"method": "rhf"
			},
			{
				"type": "occ",
				"energy": -0.31438,
				"method": "rhf"
			},
			{
				"type": "occ",
				"energy": -0.29405,
				"method": "rhf"
			},
			{
				"type": "occ",
				"energy": -0.27417,
				"method": "rhf"
			},
			{
				"type": "occ",
				"energy": -0.22186,
				"method": "rhf"
			},
			{
				"type": "unocc",
				"energy": -0.04668,
				"method": "rhf"
			},
			{
				"type": "unocc",
				"energy": 0.00063,
				"method": "rhf"
			},
			{
				"type": "unocc",
				"energy": 0.03035,
				"method": "rhf"
			},
			{
				"type": "unocc",
				"energy": 0.05927,
				"method": "rhf"
			},
			{
				"type": "unocc",
				"energy": 0.07029,
				"method": "rhf"
			}
		],
		"cosmo_sigma_profile": { 
			"-0.025": 0.0,
			"-0.024": 0.0,
			"-0.023": 0.0,
			"-0.022": 0.0,
			"-0.021": 0.0,
			"-0.02": 0.0,
			"-0.019": 0.0,
			"-0.018": 0.0,
			"-0.017": 0.0,
			"-0.016": 0.282888565055,
			"-0.015": 0.653655246026,
			"-0.014": 0.706647523545,
			"-0.013": 0.694871476585,
			"-0.012": 1.05018484776,
			"-0.011": 0.904561438597,
			"-0.01": 0.741398894112,
			"-0.009": 2.29995090109,
			"-0.008": 5.87559414842,
			"-0.007": 8.02423488444,
			"-0.006": 10.2231660462,
			"-0.005": 11.7024280188,
			"-0.004": 12.7188594969,
			"-0.003": 14.0995158601,
			"-0.002": 13.0747965043,
			"-0.001": 9.89456527777,
			"0.0": 12.9243286111,
			"0.001": 11.1122764154,
			"0.002": 12.3410201238,
			"0.003": 11.4891357935,
			"0.004": 5.72843950421,
			"0.005": 4.77605849222,
			"0.006": 5.15832673813,
			"0.007": 4.2183682464,
			"0.008": 2.55332303972,
			"0.009": 3.63209400008,
			"0.01": 4.50015064873,
			"0.011": 4.49145957154,
			"0.012": 6.17397379897,
			"0.013": 2.51039602305,
			"0.014": 0.218200741398,
			"0.015": 0.0,
			"0.016": 0.0,
			"0.017": 0.0,
			"0.018": 0.0,
			"0.019": 0.0,
			"0.02": 0.0,
			"0.021": 0.0,
			"0.022": 0.0,
			"0.023": 0.0,
			"0.024": 0.0,
			"0.025": 0.0
		}
	}
}
