{
	 "smiles": "CS(=O)(=O)C1=CC=C(CCN)C=C1", 
	 "Tm": 350.15, 
	 "num_atms": 26, 
	 "gaussian": { 
		 "optdone": 1, 
		 "sigma_profile": "yes", 
		 "theory": "DFT", 
		 "functional": "B3LYP", 
		 "basiset": "6-31G**", 
		 "properties": { 
			 "R2extent": 4003.356, 
			 "electric_dipole_moment_norm": 4.38155823538, 
			 "electric_quadrupole_moment_norm": 29.7101702843, 
			 "total_energy": -954.11765539, 
			 "HOMO_LUMO_gap": 0.19943, 
			 "cosmo_polarized_energy": -18.64, 
			 "cosmo_cavitation_energy": 30.57, 
			 "cosmo_dispersion_energy": -22.12, 
			 "cosmo_repulsion_energy": 1.73, 
			 "cosmo_total_nonelectrostatic_energy": 10.17, 
			 "SMD_solvation_energy": 3.38 
		},
		"coords": [
			{
				"x": 0.2788584917,
				"y": -2.8030369929,
				"z": -1.0048051571,
				"element": "C" 
			},
			{
				"x": -0.3078752072,
				"y": -1.6606230196,
				"z": -2.2798197523,
				"element": "S" 
			},
			{
				"x": -1.7393409528,
				"y": -1.9314925797,
				"z": -2.4858132109,
				"element": "O" 
			},
			{
				"x": 0.6488069536,
				"y": -1.7205169551,
				"z": -3.396212683,
				"element": "O" 
			},
			{
				"x": -0.1550786338,
				"y": -0.0445898185,
				"z": -1.5051735792,
				"element": "C" 
			},
			{
				"x": 1.0243578584,
				"y": 0.6832453541,
				"z": -1.6640814985,
				"element": "C" 
			},
			{
				"x": 1.1332874531,
				"y": 1.9367325461,
				"z": -1.0619907046,
				"element": "C" 
			},
			{
				"x": 0.079035687,
				"y": 2.4742621631,
				"z": -0.3067572763,
				"element": "C" 
			},
			{
				"x": 0.2198075,
				"y": 3.8072995104,
				"z": 0.3885934838,
				"element": "C" 
			},
			{
				"x": 0.7507490206,
				"y": 3.681692669,
				"z": 1.8438114796,
				"element": "C" 
			},
			{
				"x": 2.093841753,
				"y": 3.1378187683,
				"z": 2.0111445898,
				"element": "N" 
			},
			{
				"x": -1.0993887585,
				"y": 1.7218450395,
				"z": -0.1748676091,
				"element": "C" 
			},
			{
				"x": -1.2264225397,
				"y": 0.4696019665,
				"z": -0.7712126232,
				"element": "C" 
			},
			{
				"x": 0.2011413423,
				"y": -3.8043187747,
				"z": -1.433592348,
				"element": "H" 
			},
			{
				"x": -0.3581918859,
				"y": -2.7169271648,
				"z": -0.1235245878,
				"element": "H" 
			},
			{
				"x": 1.3176965461,
				"y": -2.5720728557,
				"z": -0.7653239565,
				"element": "H" 
			},
			{
				"x": 1.8279394235,
				"y": 0.2807748557,
				"z": -2.2720095689,
				"element": "H" 
			},
			{
				"x": 2.0420045236,
				"y": 2.5166152539,
				"z": -1.1989752265,
				"element": "H" 
			},
			{
				"x": 0.8990019379,
				"y": 4.4551105262,
				"z": -0.1796745369,
				"element": "H" 
			},
			{
				"x": -0.7529261814,
				"y": 4.3136486178,
				"z": 0.4162906433,
				"element": "H" 
			},
			{
				"x": 0.0578922835,
				"y": 3.0565627306,
				"z": 2.4201164344,
				"element": "H" 
			},
			{
				"x": 0.7276673871,
				"y": 4.6765493464,
				"z": 2.303787984,
				"element": "H" 
			},
			{
				"x": 2.7747599798,
				"y": 3.7198652637,
				"z": 1.5286266669,
				"element": "H" 
			},
			{
				"x": 2.1559049133,
				"y": 2.211487555,
				"z": 1.5956107354,
				"element": "H" 
			},
			{
				"x": -1.9327732563,
				"y": 2.1307029089,
				"z": 0.39070799,
				"element": "H" 
			},
			{
				"x": -2.1487556387,
				"y": -0.0968369142,
				"z": -0.6952556886,
				"element": "H" 
			}
		],
		 "valence_orbital": [ 
			{
				"type": "occ",
				"energy": -0.29386,
				"method": "rhf"
			},
			{
				"type": "occ",
				"energy": -0.28705,
				"method": "rhf"
			},
			{
				"type": "occ",
				"energy": -0.27474,
				"method": "rhf"
			},
			{
				"type": "occ",
				"energy": -0.27129,
				"method": "rhf"
			},
			{
				"type": "occ",
				"energy": -0.24095,
				"method": "rhf"
			},
			{
				"type": "unocc",
				"energy": -0.04152,
				"method": "rhf"
			},
			{
				"type": "unocc",
				"energy": -0.02611,
				"method": "rhf"
			},
			{
				"type": "unocc",
				"energy": 0.06084,
				"method": "rhf"
			},
			{
				"type": "unocc",
				"energy": 0.07696,
				"method": "rhf"
			},
			{
				"type": "unocc",
				"energy": 0.07959,
				"method": "rhf"
			}
		],
		"cosmo_sigma_profile": { 
			"-0.025": 0.0,
			"-0.024": 0.0,
			"-0.023": 0.0,
			"-0.022": 0.0,
			"-0.021": 0.0,
			"-0.02": 0.0,
			"-0.019": 0.0,
			"-0.018": 0.0,
			"-0.017": 0.0,
			"-0.016": 0.0,
			"-0.015": 0.0,
			"-0.014": 0.0,
			"-0.013": 0.0,
			"-0.012": 0.0,
			"-0.011": 0.0,
			"-0.01": 0.216942048437,
			"-0.009": 2.53061989988,
			"-0.008": 7.76126841528,
			"-0.007": 11.4422244473,
			"-0.006": 16.9377882352,
			"-0.005": 21.9995439317,
			"-0.004": 24.093942599,
			"-0.003": 21.5399760725,
			"-0.002": 18.458777423,
			"-0.001": 14.1677609282,
			"0.0": 13.146881364,
			"0.001": 9.96079796091,
			"0.002": 12.382104694,
			"0.003": 13.3842212721,
			"0.004": 4.70107378435,
			"0.005": 3.30598023319,
			"0.006": 3.64105014981,
			"0.007": 2.71939254296,
			"0.008": 3.44824767057,
			"0.009": 4.82678662289,
			"0.01": 4.3242764389,
			"0.011": 8.80555654005,
			"0.012": 10.3853478389,
			"0.013": 2.53864736682,
			"0.014": 0.484524673318,
			"0.015": 0.588581127511,
			"0.016": 1.04468205397,
			"0.017": 0.547566723941,
			"0.018": 0.50119301974,
			"0.019": 0.786022481856,
			"0.02": 0.203459811718,
			"0.021": 0.0,
			"0.022": 0.0,
			"0.023": 0.0,
			"0.024": 0.0,
			"0.025": 0.0
		}
	}
}
