{
	 "smiles": "OC(=O)C1=CC=C(OC2=NC=CC=C2)C=C1", 
	 "Tm": 447.15, 
	 "num_atms": 25, 
	 "gaussian": { 
		 "optdone": 1, 
		 "sigma_profile": "yes", 
		 "theory": "DFT", 
		 "functional": "B3LYP", 
		 "basiset": "6-31G**", 
		 "properties": { 
			 "R2extent": 5794.9357, 
			 "electric_dipole_moment_norm": 6.92302611146, 
			 "electric_quadrupole_moment_norm": 24.768154279, 
			 "total_energy": -743.12398268, 
			 "HOMO_LUMO_gap": 0.18995, 
			 "cosmo_polarized_energy": -16.5, 
			 "cosmo_cavitation_energy": 30.58, 
			 "cosmo_dispersion_energy": -22.48, 
			 "cosmo_repulsion_energy": 1.74, 
			 "cosmo_total_nonelectrostatic_energy": 9.83, 
			 "SMD_solvation_energy": 5.99 
		},
		"coords": [
			{
				"x": -0.5858539684,
				"y": 1.0527245435,
				"z": -6.078738749,
				"element": "O" 
			},
			{
				"x": -1.117555971,
				"y": 1.8582231406,
				"z": -5.1174676058,
				"element": "C" 
			},
			{
				"x": -1.6666285515,
				"y": 2.8882729078,
				"z": -5.4330033407,
				"element": "O" 
			},
			{
				"x": -0.9781805856,
				"y": 1.3980350633,
				"z": -3.7009508642,
				"element": "C" 
			},
			{
				"x": -1.1327609524,
				"y": 2.3518442889,
				"z": -2.6855068926,
				"element": "C" 
			},
			{
				"x": -1.010855459,
				"y": 1.987469876,
				"z": -1.3505769405,
				"element": "C" 
			},
			{
				"x": -0.7524365615,
				"y": 0.6551646895,
				"z": -1.0155335721,
				"element": "C" 
			},
			{
				"x": -0.7468015977,
				"y": 0.36906347,
				"z": 0.3349987687,
				"element": "O" 
			},
			{
				"x": 0.1315341391,
				"y": -0.5121380175,
				"z": 0.9098960341,
				"element": "C" 
			},
			{
				"x": 1.188215757,
				"y": -0.9334851199,
				"z": 0.2335332403,
				"element": "N" 
			},
			{
				"x": 2.0339826756,
				"y": -1.7626946711,
				"z": 0.8673488282,
				"element": "C" 
			},
			{
				"x": 1.8565143453,
				"y": -2.1883654155,
				"z": 2.1788478536,
				"element": "C" 
			},
			{
				"x": 0.7301932612,
				"y": -1.7276957891,
				"z": 2.8719484444,
				"element": "C" 
			},
			{
				"x": -0.1580504079,
				"y": -0.8734181828,
				"z": 2.2343858797,
				"element": "C" 
			},
			{
				"x": -0.6277517232,
				"y": -0.3185622019,
				"z": -2.010613998,
				"element": "C" 
			},
			{
				"x": -0.7383229628,
				"y": 0.0621724644,
				"z": -3.344831052,
				"element": "C" 
			},
			{
				"x": -0.0349979231,
				"y": 0.3700204586,
				"z": -5.6718117593,
				"element": "H" 
			},
			{
				"x": -1.3433006267,
				"y": 3.3778440274,
				"z": -2.9667450052,
				"element": "H" 
			},
			{
				"x": -1.1176102228,
				"y": 2.7161765044,
				"z": -0.5542204619,
				"element": "H" 
			},
			{
				"x": 2.8935376573,
				"y": -2.0927822473,
				"z": 0.2875626508,
				"element": "H" 
			},
			{
				"x": 2.5724747453,
				"y": -2.8575369877,
				"z": 2.6433035525,
				"element": "H" 
			},
			{
				"x": 0.5483135323,
				"y": -2.0341285546,
				"z": 3.8978360949,
				"element": "H" 
			},
			{
				"x": -1.0460284387,
				"y": -0.4848385029,
				"z": 2.7192853178,
				"element": "H" 
			},
			{
				"x": -0.4474217993,
				"y": -1.3517910757,
				"z": -1.7457339125,
				"element": "H" 
			},
			{
				"x": -0.6773083618,
				"y": -0.7128746683,
				"z": -4.1052125113,
				"element": "H" 
			}
		],
		 "valence_orbital": [ 
			{
				"type": "occ",
				"energy": -0.28447,
				"method": "rhf"
			},
			{
				"type": "occ",
				"energy": -0.2727,
				"method": "rhf"
			},
			{
				"type": "occ",
				"energy": -0.26846,
				"method": "rhf"
			},
			{
				"type": "occ",
				"energy": -0.26427,
				"method": "rhf"
			},
			{
				"type": "occ",
				"energy": -0.23725,
				"method": "rhf"
			},
			{
				"type": "unocc",
				"energy": -0.0473,
				"method": "rhf"
			},
			{
				"type": "unocc",
				"energy": -0.03536,
				"method": "rhf"
			},
			{
				"type": "unocc",
				"energy": -0.01901,
				"method": "rhf"
			},
			{
				"type": "unocc",
				"energy": -0.01191,
				"method": "rhf"
			},
			{
				"type": "unocc",
				"energy": 0.05494,
				"method": "rhf"
			}
		],
		"cosmo_sigma_profile": { 
			"-0.025": 0.0,
			"-0.024": 0.0,
			"-0.023": 0.0,
			"-0.022": 0.0,
			"-0.021": 0.0,
			"-0.02": 0.0,
			"-0.019": 0.177433258988,
			"-0.018": 1.15232280677,
			"-0.017": 0.693975388825,
			"-0.016": 0.921342479104,
			"-0.015": 0.941721059315,
			"-0.014": 0.48424681737,
			"-0.013": 1.21632605954,
			"-0.012": 1.78428970404,
			"-0.011": 0.774492834587,
			"-0.01": 1.02119216501,
			"-0.009": 1.80089905271,
			"-0.008": 2.85070958298,
			"-0.007": 11.5164953355,
			"-0.006": 15.3145839039,
			"-0.005": 16.1280981118,
			"-0.004": 13.9812549423,
			"-0.003": 12.4576659292,
			"-0.002": 12.7395430603,
			"-0.001": 12.8512622567,
			"0.0": 17.1949745685,
			"0.001": 22.6247385757,
			"0.002": 28.2802329278,
			"0.003": 20.2732983856,
			"0.004": 5.67619198892,
			"0.005": 4.95243833939,
			"0.006": 5.90787984211,
			"0.007": 4.71358249866,
			"0.008": 2.87646753257,
			"0.009": 5.00175675501,
			"0.01": 5.3265057932,
			"0.011": 6.12475991996,
			"0.012": 6.1956156727,
			"0.013": 2.27390805541,
			"0.014": 0.10687736178,
			"0.015": 0.0,
			"0.016": 0.0,
			"0.017": 0.0,
			"0.018": 0.0,
			"0.019": 0.0,
			"0.02": 0.0,
			"0.021": 0.0,
			"0.022": 0.0,
			"0.023": 0.0,
			"0.024": 0.0,
			"0.025": 0.0
		}
	}
}
