{
	 "smiles": "CCCC1=C(C=NN1C1CCCC1)C(O)=O", 
	 "Tm": 387.15, 
	 "num_atms": 34, 
	 "gaussian": { 
		 "optdone": 1, 
		 "sigma_profile": "yes", 
		 "theory": "DFT", 
		 "functional": "B3LYP", 
		 "basiset": "6-31G**", 
		 "properties": { 
			 "R2extent": 4065.6408, 
			 "electric_dipole_moment_norm": 4.58749331444, 
			 "electric_quadrupole_moment_norm": 11.7113179152, 
			 "total_energy": -728.091014369, 
			 "HOMO_LUMO_gap": 0.22359, 
			 "cosmo_polarized_energy": -12.23, 
			 "cosmo_cavitation_energy": 34.27, 
			 "cosmo_dispersion_energy": -24.17, 
			 "cosmo_repulsion_energy": 1.89, 
			 "cosmo_total_nonelectrostatic_energy": 11.99, 
			 "SMD_solvation_energy": 5.23 
		},
		"coords": [
			{
				"x": 2.6757435179,
				"y": -0.5484111419,
				"z": -0.6667807014,
				"element": "C" 
			},
			{
				"x": 2.3725536781,
				"y": 0.7977859668,
				"z": -0.0045142962,
				"element": "C" 
			},
			{
				"x": 0.9387269338,
				"y": 0.95314026,
				"z": 0.5594974962,
				"element": "C" 
			},
			{
				"x": -0.1585981899,
				"y": 0.9203089357,
				"z": -0.4722587716,
				"element": "C" 
			},
			{
				"x": -0.4046343104,
				"y": 1.786175209,
				"z": -1.5496412183,
				"element": "C" 
			},
			{
				"x": -1.5411854462,
				"y": 1.2516126767,
				"z": -2.2018061529,
				"element": "C" 
			},
			{
				"x": -1.9898725932,
				"y": 0.1696167874,
				"z": -1.5940893585,
				"element": "N" 
			},
			{
				"x": -1.1372161721,
				"y": -0.0295913494,
				"z": -0.5414107719,
				"element": "N" 
			},
			{
				"x": -1.5225671686,
				"y": -1.1019402904,
				"z": 0.3881362085,
				"element": "C" 
			},
			{
				"x": -1.9722895232,
				"y": -0.6086170824,
				"z": 1.7857802163,
				"element": "C" 
			},
			{
				"x": -1.759599816,
				"y": -1.836962241,
				"z": 2.682901578,
				"element": "C" 
			},
			{
				"x": -0.422850555,
				"y": -2.4154802635,
				"z": 2.1800516676,
				"element": "C" 
			},
			{
				"x": -0.4668401421,
				"y": -2.2226464767,
				"z": 0.6453716622,
				"element": "C" 
			},
			{
				"x": 0.2271615926,
				"y": 3.0372680512,
				"z": -1.960672722,
				"element": "C" 
			},
			{
				"x": 1.1638498024,
				"y": 3.5042926931,
				"z": -1.0836795431,
				"element": "O" 
			},
			{
				"x": -0.0529581937,
				"y": 3.6555052906,
				"z": -2.9711511704,
				"element": "O" 
			},
			{
				"x": 2.615623088,
				"y": -1.3765534067,
				"z": 0.0483918781,
				"element": "H" 
			},
			{
				"x": 1.9831578661,
				"y": -0.7585168673,
				"z": -1.4888287312,
				"element": "H" 
			},
			{
				"x": 3.688715176,
				"y": -0.552495779,
				"z": -1.0822765224,
				"element": "H" 
			},
			{
				"x": 2.554258592,
				"y": 1.6086418644,
				"z": -0.7134463601,
				"element": "H" 
			},
			{
				"x": 3.0679419947,
				"y": 0.9574446244,
				"z": 0.829172141,
				"element": "H" 
			},
			{
				"x": 0.7630451887,
				"y": 0.1831295508,
				"z": 1.3147650474,
				"element": "H" 
			},
			{
				"x": 0.885888734,
				"y": 1.91867483,
				"z": 1.0748655705,
				"element": "H" 
			},
			{
				"x": -2.0339685928,
				"y": 1.6427881713,
				"z": -3.0809091485,
				"element": "H" 
			},
			{
				"x": -2.3835872065,
				"y": -1.5393097787,
				"z": -0.1181551619,
				"element": "H" 
			},
			{
				"x": -3.0019249705,
				"y": -0.2402037276,
				"z": 1.7722729632,
				"element": "H" 
			},
			{
				"x": -1.3357488097,
				"y": 0.2162137111,
				"z": 2.1236325695,
				"element": "H" 
			},
			{
				"x": -1.7489226339,
				"y": -1.5903643738,
				"z": 3.748887008,
				"element": "H" 
			},
			{
				"x": -2.5675884622,
				"y": -2.5625358715,
				"z": 2.524131244,
				"element": "H" 
			},
			{
				"x": -0.2718359145,
				"y": -3.4598702796,
				"z": 2.4682848068,
				"element": "H" 
			},
			{
				"x": 0.4072204418,
				"y": -1.8427066577,
				"z": 2.6123434369,
				"element": "H" 
			},
			{
				"x": -0.7919217862,
				"y": -3.1410799421,
				"z": 0.1471159027,
				"element": "H" 
			},
			{
				"x": 0.5066934694,
				"y": -1.9704047769,
				"z": 0.2249894759,
				"element": "H" 
			},
			{
				"x": 1.4819304111,
				"y": 4.3356916837,
				"z": -1.4733702424,
				"element": "H" 
			}
		],
		 "valence_orbital": [ 
			{
				"type": "occ",
				"energy": -0.30919,
				"method": "rhf"
			},
			{
				"type": "occ",
				"energy": -0.28605,
				"method": "rhf"
			},
			{
				"type": "occ",
				"energy": -0.26801,
				"method": "rhf"
			},
			{
				"type": "occ",
				"energy": -0.25012,
				"method": "rhf"
			},
			{
				"type": "occ",
				"energy": -0.24241,
				"method": "rhf"
			},
			{
				"type": "unocc",
				"energy": -0.01882,
				"method": "rhf"
			},
			{
				"type": "unocc",
				"energy": 0.02451,
				"method": "rhf"
			},
			{
				"type": "unocc",
				"energy": 0.06062,
				"method": "rhf"
			},
			{
				"type": "unocc",
				"energy": 0.0736,
				"method": "rhf"
			},
			{
				"type": "unocc",
				"energy": 0.08219,
				"method": "rhf"
			}
		],
		"cosmo_sigma_profile": { 
			"-0.025": 0.0,
			"-0.024": 0.0,
			"-0.023": 0.0,
			"-0.022": 0.0,
			"-0.021": 0.0,
			"-0.02": 0.0,
			"-0.019": 0.0,
			"-0.018": 0.465770554231,
			"-0.017": 0.683985307025,
			"-0.016": 0.892850046447,
			"-0.015": 1.05783279135,
			"-0.014": 0.455377333226,
			"-0.013": 0.445794439299,
			"-0.012": 0.588556585696,
			"-0.011": 0.614317537749,
			"-0.01": 0.856322515125,
			"-0.009": 0.898539476392,
			"-0.008": 0.534468359955,
			"-0.007": 2.12025741244,
			"-0.006": 2.09781470485,
			"-0.005": 7.68544079825,
			"-0.004": 16.1157374387,
			"-0.003": 32.3425530413,
			"-0.002": 34.4862309005,
			"-0.001": 39.3527845984,
			"0.0": 37.5799137045,
			"0.001": 25.6968775306,
			"0.002": 11.9453100789,
			"0.003": 8.17183533739,
			"0.004": 6.23728933349,
			"0.005": 5.55842456341,
			"0.006": 4.80241608387,
			"0.007": 2.89274195772,
			"0.008": 2.9797982332,
			"0.009": 3.38117137347,
			"0.01": 2.7381802012,
			"0.011": 2.80066163021,
			"0.012": 6.85995362706,
			"0.013": 3.11082882381,
			"0.014": 0.911028054511,
			"0.015": 0.664159993943,
			"0.016": 0.0235704227174,
			"0.017": 0.0,
			"0.018": 0.0,
			"0.019": 0.0,
			"0.02": 0.0,
			"0.021": 0.0,
			"0.022": 0.0,
			"0.023": 0.0,
			"0.024": 0.0,
			"0.025": 0.0
		}
	}
}
