{
	 "smiles": "COC(C)=C(/C#N)C1=CC=CC=C1[N+]([O-])=O", 
	 "Tm": 340.65, 
	 "num_atms": 26, 
	 "gaussian": { 
		 "optdone": 1, 
		 "sigma_profile": "yes", 
		 "theory": "DFT", 
		 "functional": "B3LYP", 
		 "basiset": "6-31G**", 
		 "properties": { 
			 "R2extent": 4404.6681, 
			 "electric_dipole_moment_norm": 5.25277481528, 
			 "electric_quadrupole_moment_norm": 33.28484917, 
			 "total_energy": -760.220407147, 
			 "HOMO_LUMO_gap": 0.13572, 
			 "cosmo_polarized_energy": -18.19, 
			 "cosmo_cavitation_energy": 31.41, 
			 "cosmo_dispersion_energy": -21.41, 
			 "cosmo_repulsion_energy": 1.67, 
			 "cosmo_total_nonelectrostatic_energy": 11.67, 
			 "SMD_solvation_energy": 9.67 
		},
		"coords": [
			{
				"x": -1.227783896,
				"y": -0.6558041035,
				"z": 3.4546036502,
				"element": "C" 
			},
			{
				"x": -1.2212921859,
				"y": 0.3495107651,
				"z": 2.442708184,
				"element": "O" 
			},
			{
				"x": -1.096738342,
				"y": 0.0271005089,
				"z": 1.1382160456,
				"element": "C" 
			},
			{
				"x": -1.0088100756,
				"y": -1.4173524439,
				"z": 0.7511250277,
				"element": "C" 
			},
			{
				"x": -1.0492600728,
				"y": 1.0773037023,
				"z": 0.2645165692,
				"element": "C" 
			},
			{
				"x": -1.0434452408,
				"y": 2.4038593794,
				"z": 0.7991282701,
				"element": "C" 
			},
			{
				"x": -1.0145116995,
				"y": 3.5011888114,
				"z": 1.1893117822,
				"element": "N" 
			},
			{
				"x": -0.9245567158,
				"y": 0.9837641898,
				"z": -1.216084414,
				"element": "C" 
			},
			{
				"x": 0.071203941,
				"y": 1.7620453281,
				"z": -1.8368897565,
				"element": "C" 
			},
			{
				"x": 0.2866662581,
				"y": 1.7329016767,
				"z": -3.2110222866,
				"element": "C" 
			},
			{
				"x": -0.4839095227,
				"y": 0.9007332814,
				"z": -4.0264200842,
				"element": "C" 
			},
			{
				"x": -1.4793628259,
				"y": 0.120456508,
				"z": -3.4519657284,
				"element": "C" 
			},
			{
				"x": -1.7083444019,
				"y": 0.185140018,
				"z": -2.0747453154,
				"element": "C" 
			},
			{
				"x": -2.8573175239,
				"y": -0.6065668595,
				"z": -1.5922364222,
				"element": "N" 
			},
			{
				"x": -3.1017016541,
				"y": -1.6572494188,
				"z": -2.1884838555,
				"element": "O" 
			},
			{
				"x": -3.5138067484,
				"y": -0.1729117341,
				"z": -0.6487793298,
				"element": "O" 
			},
			{
				"x": -1.4295240409,
				"y": -0.1239045557,
				"z": 4.3845135365,
				"element": "H" 
			},
			{
				"x": -2.0140905705,
				"y": -1.3982701523,
				"z": 3.2860806059,
				"element": "H" 
			},
			{
				"x": -0.2567890435,
				"y": -1.1574143681,
				"z": 3.5332975584,
				"element": "H" 
			},
			{
				"x": -1.9730309086,
				"y": -1.9193755195,
				"z": 0.8906159198,
				"element": "H" 
			},
			{
				"x": -0.2667395026,
				"y": -1.9392339332,
				"z": 1.3629413471,
				"element": "H" 
			},
			{
				"x": -0.7173123714,
				"y": -1.5288739644,
				"z": -0.2924758568,
				"element": "H" 
			},
			{
				"x": 0.6857132317,
				"y": 2.3990884088,
				"z": -1.209168862,
				"element": "H" 
			},
			{
				"x": 1.0654455786,
				"y": 2.3536344534,
				"z": -3.643463685,
				"element": "H" 
			},
			{
				"x": -0.3177286871,
				"y": 0.8650194436,
				"z": -5.0980926586,
				"element": "H" 
			},
			{
				"x": -2.1050729794,
				"y": -0.5307894218,
				"z": -4.0496302415,
				"element": "H" 
			}
		],
		 "valence_orbital": [ 
			{
				"type": "occ",
				"energy": -0.31155,
				"method": "rhf"
			},
			{
				"type": "occ",
				"energy": -0.30559,
				"method": "rhf"
			},
			{
				"type": "occ",
				"energy": -0.28379,
				"method": "rhf"
			},
			{
				"type": "occ",
				"energy": -0.27672,
				"method": "rhf"
			},
			{
				"type": "occ",
				"energy": -0.22728,
				"method": "rhf"
			},
			{
				"type": "unocc",
				"energy": -0.09156,
				"method": "rhf"
			},
			{
				"type": "unocc",
				"energy": -0.04438,
				"method": "rhf"
			},
			{
				"type": "unocc",
				"energy": -0.01865,
				"method": "rhf"
			},
			{
				"type": "unocc",
				"energy": -0.00912,
				"method": "rhf"
			},
			{
				"type": "unocc",
				"energy": 0.04384,
				"method": "rhf"
			}
		],
		"cosmo_sigma_profile": { 
			"-0.025": 0.0,
			"-0.024": 0.0,
			"-0.023": 0.0,
			"-0.022": 0.0,
			"-0.021": 0.0,
			"-0.02": 0.0,
			"-0.019": 0.0,
			"-0.018": 0.0,
			"-0.017": 0.0,
			"-0.016": 0.0,
			"-0.015": 0.0,
			"-0.014": 0.0,
			"-0.013": 0.0,
			"-0.012": 0.0,
			"-0.011": 0.0,
			"-0.01": 0.0,
			"-0.009": 0.460881695712,
			"-0.008": 5.52982205803,
			"-0.007": 18.743062495,
			"-0.006": 22.1110495929,
			"-0.005": 22.0361869157,
			"-0.004": 21.2383028015,
			"-0.003": 16.2725584665,
			"-0.002": 13.3061337122,
			"-0.001": 10.8761699161,
			"0.0": 15.1203076194,
			"0.001": 16.2333239781,
			"0.002": 15.9105663161,
			"0.003": 7.97731492431,
			"0.004": 6.45087327414,
			"0.005": 5.95640405882,
			"0.006": 6.33690322667,
			"0.007": 12.5952388604,
			"0.008": 11.1872661972,
			"0.009": 8.38912387647,
			"0.01": 5.39766173268,
			"0.011": 3.01544356232,
			"0.012": 2.93424835923,
			"0.013": 2.63742228259,
			"0.014": 1.11675609985,
			"0.015": 0.0,
			"0.016": 0.0,
			"0.017": 0.0,
			"0.018": 0.0,
			"0.019": 0.0,
			"0.02": 0.0,
			"0.021": 0.0,
			"0.022": 0.0,
			"0.023": 0.0,
			"0.024": 0.0,
			"0.025": 0.0
		}
	}
}
