{
	 "smiles": "CC(C)C1=NN(C)C2=C1C=C(S2)C(O)=O", 
	 "Tm": 483.15, 
	 "num_atms": 27, 
	 "gaussian": { 
		 "optdone": 1, 
		 "sigma_profile": "yes", 
		 "theory": "DFT", 
		 "functional": "B3LYP", 
		 "basiset": "6-31G**", 
		 "properties": { 
			 "R2extent": 4112.3353, 
			 "electric_dipole_moment_norm": 2.31497936492, 
			 "electric_quadrupole_moment_norm": 9.23440919117, 
			 "total_energy": -1046.42996889, 
			 "HOMO_LUMO_gap": 0.17292, 
			 "cosmo_polarized_energy": -12.56, 
			 "cosmo_cavitation_energy": 32.75, 
			 "cosmo_dispersion_energy": -23.54, 
			 "cosmo_repulsion_energy": 1.83, 
			 "cosmo_total_nonelectrostatic_energy": 11.04, 
			 "SMD_solvation_energy": 5.62 
		},
		"coords": [
			{
				"x": 2.9264988683,
				"y": 0.3128682862,
				"z": -1.1711114504,
				"element": "C" 
			},
			{
				"x": 1.8458012965,
				"y": -0.5760566369,
				"z": -1.8152028317,
				"element": "C" 
			},
			{
				"x": 2.1109555603,
				"y": -2.0680265939,
				"z": -1.5382387383,
				"element": "C" 
			},
			{
				"x": 0.4633882958,
				"y": -0.1706288281,
				"z": -1.3737251097,
				"element": "C" 
			},
			{
				"x": -0.4215619483,
				"y": 0.2689210433,
				"z": -2.2634598233,
				"element": "N" 
			},
			{
				"x": -1.5745995731,
				"y": 0.5581216726,
				"z": -1.5766879539,
				"element": "N" 
			},
			{
				"x": -2.7290821189,
				"y": 1.06289778,
				"z": -2.2912994811,
				"element": "C" 
			},
			{
				"x": -1.4164615028,
				"y": 0.3021192094,
				"z": -0.26177224,
				"element": "C" 
			},
			{
				"x": -0.1136957508,
				"y": -0.1742757683,
				"z": -0.0634979726,
				"element": "C" 
			},
			{
				"x": 0.1313912021,
				"y": -0.4685796631,
				"z": 1.3069223914,
				"element": "C" 
			},
			{
				"x": -0.9604255626,
				"y": -0.2165766624,
				"z": 2.1000550743,
				"element": "C" 
			},
			{
				"x": -2.3648110237,
				"y": 0.4039104492,
				"z": 1.190030516,
				"element": "S" 
			},
			{
				"x": -1.0115955581,
				"y": -0.42103531,
				"z": 3.546983486,
				"element": "C" 
			},
			{
				"x": -2.2192909384,
				"y": -0.0884581617,
				"z": 4.0760417942,
				"element": "O" 
			},
			{
				"x": -0.091130519,
				"y": -0.8397198087,
				"z": 4.2232382945,
				"element": "O" 
			},
			{
				"x": 3.9198300534,
				"y": 0.0376511674,
				"z": -1.5410667366,
				"element": "H" 
			},
			{
				"x": 2.757875997,
				"y": 1.3694683121,
				"z": -1.3997734325,
				"element": "H" 
			},
			{
				"x": 2.9353265034,
				"y": 0.2026439058,
				"z": -0.081039192,
				"element": "H" 
			},
			{
				"x": 1.8706992507,
				"y": -0.4174091943,
				"z": -2.8995969403,
				"element": "H" 
			},
			{
				"x": 3.0994193106,
				"y": -2.357294794,
				"z": -1.9105104207,
				"element": "H" 
			},
			{
				"x": 2.0833768827,
				"y": -2.2849334987,
				"z": -0.4646134462,
				"element": "H" 
			},
			{
				"x": 1.3637223181,
				"y": -2.7002430096,
				"z": -2.0271823113,
				"element": "H" 
			},
			{
				"x": -3.5399319513,
				"y": 1.2309553607,
				"z": -1.5804262529,
				"element": "H" 
			},
			{
				"x": -2.4832266798,
				"y": 2.0057770776,
				"z": -2.7872306012,
				"element": "H" 
			},
			{
				"x": -3.0534363267,
				"y": 0.3387371491,
				"z": -3.0434918104,
				"element": "H" 
			},
			{
				"x": 1.0527921236,
				"y": -0.8490710969,
				"z": 1.730615165,
				"element": "H" 
			},
			{
				"x": -2.150628209,
				"y": -0.2580623868,
				"z": 5.0296400237,
				"element": "H" 
			}
		],
		 "valence_orbital": [ 
			{
				"type": "occ",
				"energy": -0.29577,
				"method": "rhf"
			},
			{
				"type": "occ",
				"energy": -0.28566,
				"method": "rhf"
			},
			{
				"type": "occ",
				"energy": -0.27578,
				"method": "rhf"
			},
			{
				"type": "occ",
				"energy": -0.23953,
				"method": "rhf"
			},
			{
				"type": "occ",
				"energy": -0.22216,
				"method": "rhf"
			},
			{
				"type": "unocc",
				"energy": -0.04924,
				"method": "rhf"
			},
			{
				"type": "unocc",
				"energy": 0.00877,
				"method": "rhf"
			},
			{
				"type": "unocc",
				"energy": 0.0114,
				"method": "rhf"
			},
			{
				"type": "unocc",
				"energy": 0.06102,
				"method": "rhf"
			},
			{
				"type": "unocc",
				"energy": 0.06868,
				"method": "rhf"
			}
		],
		"cosmo_sigma_profile": { 
			"-0.025": 0.0,
			"-0.024": 0.0,
			"-0.023": 0.0,
			"-0.022": 0.0,
			"-0.021": 0.0,
			"-0.02": 0.0,
			"-0.019": 0.130211729349,
			"-0.018": 0.915903601688,
			"-0.017": 0.861037774818,
			"-0.016": 0.736786424012,
			"-0.015": 0.760813207607,
			"-0.014": 0.83781529848,
			"-0.013": 0.281672174274,
			"-0.012": 0.897389569109,
			"-0.011": 1.11191590358,
			"-0.01": 0.517857504814,
			"-0.009": 0.324924485874,
			"-0.008": 3.5050643437,
			"-0.007": 6.05450732259,
			"-0.006": 10.2323330832,
			"-0.005": 11.1184085301,
			"-0.004": 15.8119239467,
			"-0.003": 22.5448119269,
			"-0.002": 21.8001548461,
			"-0.001": 22.6237447285,
			"0.0": 25.3832038982,
			"0.001": 31.5570643537,
			"0.002": 22.9459155336,
			"0.003": 15.2591571447,
			"0.004": 8.60267955309,
			"0.005": 5.20856931518,
			"0.006": 4.64302700674,
			"0.007": 4.84577406663,
			"0.008": 2.62068035068,
			"0.009": 2.8883760388,
			"0.01": 2.8413284649,
			"0.011": 4.20667158458,
			"0.012": 6.32308344454,
			"0.013": 1.49101215916,
			"0.014": 0.720676963629,
			"0.015": 0.708844770862,
			"0.016": 0.0322173317359,
			"0.017": 0.0,
			"0.018": 0.0,
			"0.019": 0.0,
			"0.02": 0.0,
			"0.021": 0.0,
			"0.022": 0.0,
			"0.023": 0.0,
			"0.024": 0.0,
			"0.025": 0.0
		}
	}
}
