{
	 "smiles": "CC1=CC(F)=C(F)C=C1N", 
	 "Tm": 330.15, 
	 "num_atms": 17, 
	 "gaussian": { 
		 "optdone": 1, 
		 "sigma_profile": "yes", 
		 "theory": "DFT", 
		 "functional": "B3LYP", 
		 "basiset": "6-31G**", 
		 "properties": { 
			 "R2extent": 2402.8631, 
			 "electric_dipole_moment_norm": 3.86708541928, 
			 "electric_quadrupole_moment_norm": 10.8891072669, 
			 "total_energy": -525.384535846, 
			 "HOMO_LUMO_gap": 0.20117, 
			 "cosmo_polarized_energy": -8.32, 
			 "cosmo_cavitation_energy": 21.6, 
			 "cosmo_dispersion_energy": -15.81, 
			 "cosmo_repulsion_energy": 1.24, 
			 "cosmo_total_nonelectrostatic_energy": 7.03, 
			 "SMD_solvation_energy": 4.7 
		},
		"coords": [
			{
				"x": -1.0250185235,
				"y": -1.4205105106,
				"z": -0.810643159,
				"element": "C" 
			},
			{
				"x": 0.2914476851,
				"y": -1.1987372999,
				"z": -0.108468133,
				"element": "C" 
			},
			{
				"x": 1.2562227331,
				"y": -2.2088262353,
				"z": -0.0530796061,
				"element": "C" 
			},
			{
				"x": 2.4771868497,
				"y": -2.0072201302,
				"z": 0.5754121906,
				"element": "C" 
			},
			{
				"x": 3.4006049802,
				"y": -2.989953733,
				"z": 0.6204530662,
				"element": "F" 
			},
			{
				"x": 2.7495504773,
				"y": -0.7773373284,
				"z": 1.1644231288,
				"element": "C" 
			},
			{
				"x": 3.9333504248,
				"y": -0.5832191743,
				"z": 1.7751715701,
				"element": "F" 
			},
			{
				"x": 1.811359545,
				"y": 0.2435869305,
				"z": 1.1334947385,
				"element": "C" 
			},
			{
				"x": 0.5750978236,
				"y": 0.0469215971,
				"z": 0.4982612253,
				"element": "C" 
			},
			{
				"x": -0.3442298852,
				"y": 1.0984992921,
				"z": 0.4111865213,
				"element": "N" 
			},
			{
				"x": -1.8777338738,
				"y": -1.3572738316,
				"z": -0.1193483437,
				"element": "H" 
			},
			{
				"x": -1.1910070243,
				"y": -0.6719772913,
				"z": -1.5951629198,
				"element": "H" 
			},
			{
				"x": -1.0615539961,
				"y": -2.4086154979,
				"z": -1.2753436292,
				"element": "H" 
			},
			{
				"x": 1.0658492357,
				"y": -3.1755771754,
				"z": -0.5088242951,
				"element": "H" 
			},
			{
				"x": 2.0573841864,
				"y": 1.1900209733,
				"z": 1.6049296069,
				"element": "H" 
			},
			{
				"x": -1.3148149614,
				"y": 0.81903495,
				"z": 0.3733726731,
				"element": "H" 
			},
			{
				"x": -0.2001956767,
				"y": 1.8402844649,
				"z": 1.0826653652,
				"element": "H" 
			}
		],
		 "valence_orbital": [ 
			{
				"type": "occ",
				"energy": -0.36171,
				"method": "rhf"
			},
			{
				"type": "occ",
				"energy": -0.34609,
				"method": "rhf"
			},
			{
				"type": "occ",
				"energy": -0.30086,
				"method": "rhf"
			},
			{
				"type": "occ",
				"energy": -0.24488,
				"method": "rhf"
			},
			{
				"type": "occ",
				"energy": -0.20279,
				"method": "rhf"
			},
			{
				"type": "unocc",
				"energy": -0.00162,
				"method": "rhf"
			},
			{
				"type": "unocc",
				"energy": 0.01807,
				"method": "rhf"
			},
			{
				"type": "unocc",
				"energy": 0.06795,
				"method": "rhf"
			},
			{
				"type": "unocc",
				"energy": 0.08025,
				"method": "rhf"
			},
			{
				"type": "unocc",
				"energy": 0.1072,
				"method": "rhf"
			}
		],
		"cosmo_sigma_profile": { 
			"-0.025": 0.0,
			"-0.024": 0.0,
			"-0.023": 0.0,
			"-0.022": 0.0,
			"-0.021": 0.0,
			"-0.02": 0.0,
			"-0.019": 0.0,
			"-0.018": 0.0,
			"-0.017": 0.0,
			"-0.016": 0.0,
			"-0.015": 0.0,
			"-0.014": 0.0,
			"-0.013": 0.376651007342,
			"-0.012": 2.15025714409,
			"-0.011": 2.85117720527,
			"-0.01": 3.05114040894,
			"-0.009": 3.13359344264,
			"-0.008": 3.28751924954,
			"-0.007": 4.98852074032,
			"-0.006": 5.506740798,
			"-0.005": 6.66112434991,
			"-0.004": 9.19379845691,
			"-0.003": 7.47320197515,
			"-0.002": 9.9656981063,
			"-0.001": 8.38274669365,
			"0.0": 12.8713638569,
			"0.001": 14.2281547701,
			"0.002": 14.3745495966,
			"0.003": 14.6035480959,
			"0.004": 27.8069736898,
			"0.005": 14.1871991976,
			"0.006": 1.25550718057,
			"0.007": 0.861295247716,
			"0.008": 0.70340032514,
			"0.009": 0.694676947863,
			"0.01": 0.57270360446,
			"0.011": 0.75188736539,
			"0.012": 0.567582304726,
			"0.013": 0.649702064614,
			"0.014": 0.391865077581,
			"0.015": 0.222441378042,
			"0.016": 0.0,
			"0.017": 0.0,
			"0.018": 0.0,
			"0.019": 0.0,
			"0.02": 0.0,
			"0.021": 0.0,
			"0.022": 0.0,
			"0.023": 0.0,
			"0.024": 0.0,
			"0.025": 0.0
		}
	}
}
