{
	 "smiles": "COC1=CC=C(C(C)=O)C(F)=C1", 
	 "Tm": 325.15, 
	 "num_atms": 21, 
	 "gaussian": { 
		 "optdone": 1, 
		 "sigma_profile": "yes", 
		 "theory": "DFT", 
		 "functional": "B3LYP", 
		 "basiset": "6-31G**", 
		 "properties": { 
			 "R2extent": 2634.8452, 
			 "electric_dipole_moment_norm": 3.59421297644, 
			 "electric_quadrupole_moment_norm": 13.3030197741, 
			 "total_energy": -598.656401796, 
			 "HOMO_LUMO_gap": 0.18889, 
			 "cosmo_polarized_energy": -8.89, 
			 "cosmo_cavitation_energy": 25.38, 
			 "cosmo_dispersion_energy": -18.67, 
			 "cosmo_repulsion_energy": 1.45, 
			 "cosmo_total_nonelectrostatic_energy": 8.17, 
			 "SMD_solvation_energy": 6.32 
		},
		"coords": [
			{
				"x": -1.4795583663,
				"y": -2.1386952446,
				"z": 2.5748049984,
				"element": "C" 
			},
			{
				"x": -0.2090286125,
				"y": -1.6488345209,
				"z": 2.1621209659,
				"element": "O" 
			},
			{
				"x": -0.0999243458,
				"y": -1.0828662221,
				"z": 0.934732701,
				"element": "C" 
			},
			{
				"x": -1.1580423124,
				"y": -0.9387493825,
				"z": 0.0214355033,
				"element": "C" 
			},
			{
				"x": -0.9154210234,
				"y": -0.3392882174,
				"z": -1.207671934,
				"element": "C" 
			},
			{
				"x": 0.3516367381,
				"y": 0.1349879496,
				"z": -1.5852594815,
				"element": "C" 
			},
			{
				"x": 0.4860793575,
				"y": 0.7632744505,
				"z": -2.93891584,
				"element": "C" 
			},
			{
				"x": 1.8282864009,
				"y": 1.2941284072,
				"z": -3.4033510893,
				"element": "C" 
			},
			{
				"x": -0.4946052277,
				"y": 0.8447481231,
				"z": -3.6662907747,
				"element": "O" 
			},
			{
				"x": 1.3776004012,
				"y": -0.0308666962,
				"z": -0.6407857116,
				"element": "C" 
			},
			{
				"x": 2.6307878055,
				"y": 0.3956080413,
				"z": -0.9177782359,
				"element": "F" 
			},
			{
				"x": 1.1795646077,
				"y": -0.6219646289,
				"z": 0.5940568018,
				"element": "C" 
			},
			{
				"x": -1.8377959635,
				"y": -2.9353054163,
				"z": 1.9117037853,
				"element": "H" 
			},
			{
				"x": -1.331600642,
				"y": -2.5429704737,
				"z": 3.5767842894,
				"element": "H" 
			},
			{
				"x": -2.2260775018,
				"y": -1.3363288935,
				"z": 2.614156164,
				"element": "H" 
			},
			{
				"x": -2.1551285304,
				"y": -1.2865931062,
				"z": 0.2608819681,
				"element": "H" 
			},
			{
				"x": -1.7161144292,
				"y": -0.2166303859,
				"z": -1.9294678223,
				"element": "H" 
			},
			{
				"x": 2.5812078994,
				"y": 0.5001012807,
				"z": -3.4132962058,
				"element": "H" 
			},
			{
				"x": 1.7054541964,
				"y": 1.7054174147,
				"z": -4.4057743707,
				"element": "H" 
			},
			{
				"x": 2.2000296233,
				"y": 2.0670002579,
				"z": -2.7236929191,
				"element": "H" 
			},
			{
				"x": 2.0026499249,
				"y": -0.727972737,
				"z": 1.2904072078,
				"element": "H" 
			}
		],
		 "valence_orbital": [ 
			{
				"type": "occ",
				"energy": -0.34326,
				"method": "rhf"
			},
			{
				"type": "occ",
				"energy": -0.32106,
				"method": "rhf"
			},
			{
				"type": "occ",
				"energy": -0.25853,
				"method": "rhf"
			},
			{
				"type": "occ",
				"energy": -0.24523,
				"method": "rhf"
			},
			{
				"type": "occ",
				"energy": -0.23644,
				"method": "rhf"
			},
			{
				"type": "unocc",
				"energy": -0.04755,
				"method": "rhf"
			},
			{
				"type": "unocc",
				"energy": -0.00847,
				"method": "rhf"
			},
			{
				"type": "unocc",
				"energy": 0.0445,
				"method": "rhf"
			},
			{
				"type": "unocc",
				"energy": 0.0836,
				"method": "rhf"
			},
			{
				"type": "unocc",
				"energy": 0.09452,
				"method": "rhf"
			}
		],
		"cosmo_sigma_profile": { 
			"-0.025": 0.0,
			"-0.024": 0.0,
			"-0.023": 0.0,
			"-0.022": 0.0,
			"-0.021": 0.0,
			"-0.02": 0.0,
			"-0.019": 0.0,
			"-0.018": 0.0,
			"-0.017": 0.0,
			"-0.016": 0.0,
			"-0.015": 0.0,
			"-0.014": 0.0,
			"-0.013": 0.0,
			"-0.012": 0.0,
			"-0.011": 0.0,
			"-0.01": 0.0,
			"-0.009": 0.0,
			"-0.008": 0.732934769307,
			"-0.007": 4.3908568195,
			"-0.006": 13.6181609039,
			"-0.005": 18.0956995131,
			"-0.004": 18.3596899407,
			"-0.003": 15.6439234882,
			"-0.002": 13.5536966834,
			"-0.001": 15.5322546153,
			"0.0": 16.7472110422,
			"0.001": 15.9051994318,
			"0.002": 20.5222597149,
			"0.003": 13.2905072085,
			"0.004": 9.79948603701,
			"0.005": 3.35038166287,
			"0.006": 3.07090829285,
			"0.007": 2.47259923693,
			"0.008": 3.2516699802,
			"0.009": 2.63304256421,
			"0.01": 2.19778741773,
			"0.011": 2.70594640948,
			"0.012": 4.22539330086,
			"0.013": 1.95763805085,
			"0.014": 0.328154723211,
			"0.015": 0.0,
			"0.016": 0.0,
			"0.017": 0.0,
			"0.018": 0.0,
			"0.019": 0.0,
			"0.02": 0.0,
			"0.021": 0.0,
			"0.022": 0.0,
			"0.023": 0.0,
			"0.024": 0.0,
			"0.025": 0.0
		}
	}
}
