{
	 "smiles": "BrC1=CC2=C(C=C1)C(=O)CCCO2", 
	 "Tm": 313.15, 
	 "num_atms": 22, 
	 "gaussian": { 
		 "optdone": 1, 
		 "sigma_profile": "yes", 
		 "theory": "DFT", 
		 "functional": "B3LYP", 
		 "basiset": "6-31G**", 
		 "properties": { 
			 "R2extent": 4824.0462, 
			 "electric_dipole_moment_norm": 2.38421401304, 
			 "electric_quadrupole_moment_norm": 11.8779819418, 
			 "total_energy": -3108.33205437, 
			 "HOMO_LUMO_gap": 0.18252, 
			 "cosmo_polarized_energy": -8.36, 
			 "cosmo_cavitation_energy": 27.41, 
			 "cosmo_dispersion_energy": -20.86, 
			 "cosmo_repulsion_energy": 1.65, 
			 "cosmo_total_nonelectrostatic_energy": 8.2, 
			 "SMD_solvation_energy": 3.86 
		},
		"coords": [
			{
				"x": -2.8519342926,
				"y": 3.1088027409,
				"z": 2.1747077683,
				"element": "Br" 
			},
			{
				"x": -1.8828294826,
				"y": 1.7251112834,
				"z": 1.286411982,
				"element": "C" 
			},
			{
				"x": -1.3959730142,
				"y": 1.9567652823,
				"z": 0.0068577377,
				"element": "C" 
			},
			{
				"x": -0.6887958756,
				"y": 0.9435342434,
				"z": -0.653376659,
				"element": "C" 
			},
			{
				"x": -0.4905182812,
				"y": -0.3087653934,
				"z": -0.0334728442,
				"element": "C" 
			},
			{
				"x": -0.9624152615,
				"y": -0.48272466,
				"z": 1.2796104736,
				"element": "C" 
			},
			{
				"x": -1.660362636,
				"y": 0.5129563093,
				"z": 1.9476243605,
				"element": "C" 
			},
			{
				"x": 0.1081463955,
				"y": -1.5041667054,
				"z": -0.7126524864,
				"element": "C" 
			},
			{
				"x": 0.4978796108,
				"y": -2.4629498669,
				"z": -0.0627682105,
				"element": "O" 
			},
			{
				"x": 0.1068463296,
				"y": -1.5310806091,
				"z": -2.2356713113,
				"element": "C" 
			},
			{
				"x": 1.1091015482,
				"y": -0.5614053521,
				"z": -2.8933929921,
				"element": "C" 
			},
			{
				"x": 1.1151820122,
				"y": 0.8060760582,
				"z": -2.2145526859,
				"element": "C" 
			},
			{
				"x": -0.2117677885,
				"y": 1.2662358004,
				"z": -1.8926087266,
				"element": "O" 
			},
			{
				"x": -1.5319190487,
				"y": 2.9096972586,
				"z": -0.4893757789,
				"element": "H" 
			},
			{
				"x": -0.7851619109,
				"y": -1.4454529971,
				"z": 1.7479986986,
				"element": "H" 
			},
			{
				"x": -2.0363308509,
				"y": 0.3574954944,
				"z": 2.9516591472,
				"element": "H" 
			},
			{
				"x": -0.9018738354,
				"y": -1.2622126091,
				"z": -2.5718313182,
				"element": "H" 
			},
			{
				"x": 0.3093060211,
				"y": -2.5592327073,
				"z": -2.543632141,
				"element": "H" 
			},
			{
				"x": 2.1247165543,
				"y": -0.9719045867,
				"z": -2.8452108532,
				"element": "H" 
			},
			{
				"x": 0.8532703551,
				"y": -0.4589920457,
				"z": -3.9531811495,
				"element": "H" 
			},
			{
				"x": 1.5385683298,
				"y": 1.5715050369,
				"z": -2.8707042701,
				"element": "H" 
			},
			{
				"x": 1.7096651216,
				"y": 0.7797080251,
				"z": -1.2930387411,
				"element": "H" 
			}
		],
		 "valence_orbital": [ 
			{
				"type": "occ",
				"energy": -0.30321,
				"method": "rhf"
			},
			{
				"type": "occ",
				"energy": -0.29264,
				"method": "rhf"
			},
			{
				"type": "occ",
				"energy": -0.25633,
				"method": "rhf"
			},
			{
				"type": "occ",
				"energy": -0.25142,
				"method": "rhf"
			},
			{
				"type": "occ",
				"energy": -0.24288,
				"method": "rhf"
			},
			{
				"type": "unocc",
				"energy": -0.06036,
				"method": "rhf"
			},
			{
				"type": "unocc",
				"energy": -0.01478,
				"method": "rhf"
			},
			{
				"type": "unocc",
				"energy": 0.00127,
				"method": "rhf"
			},
			{
				"type": "unocc",
				"energy": 0.0214,
				"method": "rhf"
			},
			{
				"type": "unocc",
				"energy": 0.0846,
				"method": "rhf"
			}
		],
		"cosmo_sigma_profile": { 
			"-0.025": 0.0,
			"-0.024": 0.0,
			"-0.023": 0.0,
			"-0.022": 0.0,
			"-0.021": 0.0,
			"-0.02": 0.0,
			"-0.019": 0.0,
			"-0.018": 0.0,
			"-0.017": 0.0,
			"-0.016": 0.0,
			"-0.015": 0.0,
			"-0.014": 0.0,
			"-0.013": 0.0,
			"-0.012": 0.0,
			"-0.011": 0.0,
			"-0.01": 0.0,
			"-0.009": 0.0,
			"-0.008": 0.631767833955,
			"-0.007": 3.73229332633,
			"-0.006": 10.8636695863,
			"-0.005": 19.3611081792,
			"-0.004": 23.3109940865,
			"-0.003": 20.2371236127,
			"-0.002": 17.1573337562,
			"-0.001": 15.6836861137,
			"0.0": 13.3566712016,
			"0.001": 21.3413771582,
			"0.002": 20.3135605999,
			"0.003": 14.9562684756,
			"0.004": 14.1358651994,
			"0.005": 4.2521869456,
			"0.006": 2.84866877915,
			"0.007": 2.22072366349,
			"0.008": 2.87658157272,
			"0.009": 2.60213908418,
			"0.01": 3.19343802261,
			"0.011": 3.37155304038,
			"0.012": 3.58737696674,
			"0.013": 1.36541546487,
			"0.014": 0.059421604764,
			"0.015": 0.0,
			"0.016": 0.0,
			"0.017": 0.0,
			"0.018": 0.0,
			"0.019": 0.0,
			"0.02": 0.0,
			"0.021": 0.0,
			"0.022": 0.0,
			"0.023": 0.0,
			"0.024": 0.0,
			"0.025": 0.0
		}
	}
}
