{
	 "smiles": "OC(=O)CNC(=O)C1=CC2=C(OCO2)C=C1", 
	 "Tm": 432.15, 
	 "num_atms": 25, 
	 "gaussian": { 
		 "optdone": 1, 
		 "sigma_profile": "yes", 
		 "theory": "DFT", 
		 "functional": "B3LYP", 
		 "basiset": "6-31G**", 
		 "properties": { 
			 "R2extent": 4247.397, 
			 "electric_dipole_moment_norm": 2.79510553826, 
			 "electric_quadrupole_moment_norm": 13.7971252861, 
			 "total_energy": -817.351015989, 
			 "HOMO_LUMO_gap": 0.18528, 
			 "cosmo_polarized_energy": -19.62, 
			 "cosmo_cavitation_energy": 30.1, 
			 "cosmo_dispersion_energy": -22.07, 
			 "cosmo_repulsion_energy": 1.75, 
			 "cosmo_total_nonelectrostatic_energy": 9.78, 
			 "SMD_solvation_energy": 7.61 
		},
		"coords": [
			{
				"x": 2.939387205,
				"y": 0.0498803522,
				"z": 0.2487784542,
				"element": "O" 
			},
			{
				"x": 3.0558889731,
				"y": 0.2660434145,
				"z": -1.0801559451,
				"element": "C" 
			},
			{
				"x": 3.9301201382,
				"y": -0.2236182086,
				"z": -1.7581538882,
				"element": "O" 
			},
			{
				"x": 1.9511857436,
				"y": 1.1514520716,
				"z": -1.6505362835,
				"element": "C" 
			},
			{
				"x": 1.3151940515,
				"y": 2.0591662007,
				"z": -0.7210197457,
				"element": "N" 
			},
			{
				"x": -0.0344168347,
				"y": 2.1771448139,
				"z": -0.43600008,
				"element": "C" 
			},
			{
				"x": -0.4840329008,
				"y": 3.247476214,
				"z": -0.0424222936,
				"element": "O" 
			},
			{
				"x": -0.9100482197,
				"y": 0.9697094778,
				"z": -0.5901897065,
				"element": "C" 
			},
			{
				"x": -0.4732606476,
				"y": -0.3297339208,
				"z": -0.2370374502,
				"element": "C" 
			},
			{
				"x": -1.3955992709,
				"y": -1.3483644595,
				"z": -0.3515528854,
				"element": "C" 
			},
			{
				"x": -2.697601941,
				"y": -1.1257628429,
				"z": -0.7972838874,
				"element": "C" 
			},
			{
				"x": -3.3860432769,
				"y": -2.3096808139,
				"z": -0.8266283007,
				"element": "O" 
			},
			{
				"x": -2.5076559468,
				"y": -3.2914678353,
				"z": -0.2587043495,
				"element": "C" 
			},
			{
				"x": -1.2233594088,
				"y": -2.68450696,
				"z": -0.0786057681,
				"element": "O" 
			},
			{
				"x": -3.1465826075,
				"y": 0.1368203699,
				"z": -1.1378707372,
				"element": "C" 
			},
			{
				"x": -2.2269123238,
				"y": 1.1887056722,
				"z": -1.01303515,
				"element": "C" 
			},
			{
				"x": 3.6679536349,
				"y": -0.5483187838,
				"z": 0.4882447738,
				"element": "H" 
			},
			{
				"x": 1.1997097219,
				"y": 0.4808295889,
				"z": -2.0773436021,
				"element": "H" 
			},
			{
				"x": 2.4002316777,
				"y": 1.6897437652,
				"z": -2.4926529414,
				"element": "H" 
			},
			{
				"x": 1.7982867067,
				"y": 2.9310585365,
				"z": -0.5428449036,
				"element": "H" 
			},
			{
				"x": 0.5242449729,
				"y": -0.5135444807,
				"z": 0.1442403499,
				"element": "H" 
			},
			{
				"x": -2.4186460129,
				"y": -4.1399178039,
				"z": -0.9448933595,
				"element": "H" 
			},
			{
				"x": -2.9028823786,
				"y": -3.6154050095,
				"z": 0.7138187767,
				"element": "H" 
			},
			{
				"x": -4.163444274,
				"y": 0.3022494025,
				"z": -1.4748524986,
				"element": "H" 
			},
			{
				"x": -2.5314167814,
				"y": 2.2053412389,
				"z": -1.2345985782,
				"element": "H" 
			}
		],
		 "valence_orbital": [ 
			{
				"type": "occ",
				"energy": -0.29735,
				"method": "rhf"
			},
			{
				"type": "occ",
				"energy": -0.26351,
				"method": "rhf"
			},
			{
				"type": "occ",
				"energy": -0.25764,
				"method": "rhf"
			},
			{
				"type": "occ",
				"energy": -0.24698,
				"method": "rhf"
			},
			{
				"type": "occ",
				"energy": -0.21556,
				"method": "rhf"
			},
			{
				"type": "unocc",
				"energy": -0.03028,
				"method": "rhf"
			},
			{
				"type": "unocc",
				"energy": -0.00876,
				"method": "rhf"
			},
			{
				"type": "unocc",
				"energy": -0.00313,
				"method": "rhf"
			},
			{
				"type": "unocc",
				"energy": 0.0547,
				"method": "rhf"
			},
			{
				"type": "unocc",
				"energy": 0.06068,
				"method": "rhf"
			}
		],
		"cosmo_sigma_profile": { 
			"-0.025": 0.0,
			"-0.024": 0.0,
			"-0.023": 0.0,
			"-0.022": 0.0,
			"-0.021": 0.0,
			"-0.02": 0.0,
			"-0.019": 0.21418082313,
			"-0.018": 1.22984156718,
			"-0.017": 0.672936655561,
			"-0.016": 0.886545337508,
			"-0.015": 1.03443064516,
			"-0.014": 1.67972783704,
			"-0.013": 1.70132746479,
			"-0.012": 1.66954932183,
			"-0.011": 2.61271875614,
			"-0.01": 1.66124405877,
			"-0.009": 1.61646607123,
			"-0.008": 9.32789552939,
			"-0.007": 16.3188398282,
			"-0.006": 14.3669327073,
			"-0.005": 12.852359072,
			"-0.004": 13.3864688526,
			"-0.003": 11.3062311598,
			"-0.002": 11.217507259,
			"-0.001": 14.7655034662,
			"0.0": 10.6840369408,
			"0.001": 14.7714709057,
			"0.002": 15.457779093,
			"0.003": 12.6969779652,
			"0.004": 9.86298182887,
			"0.005": 6.78977403912,
			"0.006": 5.92002340479,
			"0.007": 6.22319143347,
			"0.008": 7.25646192465,
			"0.009": 6.77814655556,
			"0.01": 4.73177551022,
			"0.011": 6.80848797899,
			"0.012": 5.43100282069,
			"0.013": 4.87583054658,
			"0.014": 3.40964025572,
			"0.015": 0.140750749888,
			"0.016": 0.0,
			"0.017": 0.0,
			"0.018": 0.0,
			"0.019": 0.0,
			"0.02": 0.0,
			"0.021": 0.0,
			"0.022": 0.0,
			"0.023": 0.0,
			"0.024": 0.0,
			"0.025": 0.0
		}
	}
}
