{
	 "smiles": "NC(CC(=O)NC1CCCC1)=NO", 
	 "Tm": 393.15, 
	 "num_atms": 28, 
	 "gaussian": { 
		 "optdone": 1, 
		 "sigma_profile": "yes", 
		 "theory": "DFT", 
		 "functional": "B3LYP", 
		 "basiset": "6-31G**", 
		 "properties": { 
			 "R2extent": 3426.9501, 
			 "electric_dipole_moment_norm": 3.43221512292, 
			 "electric_quadrupole_moment_norm": 5.78890165489, 
			 "total_energy": -628.568004517, 
			 "HOMO_LUMO_gap": 0.21763, 
			 "cosmo_polarized_energy": -14.72, 
			 "cosmo_cavitation_energy": 30.13, 
			 "cosmo_dispersion_energy": -21.71, 
			 "cosmo_repulsion_energy": 1.78, 
			 "cosmo_total_nonelectrostatic_energy": 10.2, 
			 "SMD_solvation_energy": 4.66 
		},
		"coords": [
			{
				"x": -0.5996050779,
				"y": 2.4877078136,
				"z": -2.9404928233,
				"element": "N" 
			},
			{
				"x": -0.2628903284,
				"y": 1.2113749391,
				"z": -2.5761854485,
				"element": "C" 
			},
			{
				"x": 0.5081999729,
				"y": 1.0517829942,
				"z": -1.2875536895,
				"element": "C" 
			},
			{
				"x": -0.3370686354,
				"y": 1.5610490295,
				"z": -0.1180303836,
				"element": "C" 
			},
			{
				"x": -0.4995203114,
				"y": 2.7718473502,
				"z": 0.0435377246,
				"element": "O" 
			},
			{
				"x": -0.9287876562,
				"y": 0.6458678378,
				"z": 0.6965725519,
				"element": "N" 
			},
			{
				"x": -0.9645716808,
				"y": -0.8168624033,
				"z": 0.5541140335,
				"element": "C" 
			},
			{
				"x": 0.2152961425,
				"y": -1.5076095704,
				"z": 1.2703495037,
				"element": "C" 
			},
			{
				"x": -0.1730382634,
				"y": -1.4594966331,
				"z": 2.7614261099,
				"element": "C" 
			},
			{
				"x": -1.7252688155,
				"y": -1.5697905025,
				"z": 2.7835396882,
				"element": "C" 
			},
			{
				"x": -2.1846951417,
				"y": -1.3841978398,
				"z": 1.3089430978,
				"element": "C" 
			},
			{
				"x": -0.522303727,
				"y": 0.1328259203,
				"z": -3.2386206169,
				"element": "N" 
			},
			{
				"x": -1.2790793429,
				"y": 0.4747466722,
				"z": -4.4045381848,
				"element": "O" 
			},
			{
				"x": -1.3026016147,
				"y": 2.5559726015,
				"z": -3.6625946238,
				"element": "H" 
			},
			{
				"x": -0.6621197552,
				"y": 3.1469205192,
				"z": -2.1730991133,
				"element": "H" 
			},
			{
				"x": 1.4003636597,
				"y": 1.6857098934,
				"z": -1.3191653753,
				"element": "H" 
			},
			{
				"x": 0.8163618245,
				"y": 0.0118398008,
				"z": -1.1919727198,
				"element": "H" 
			},
			{
				"x": -1.4983360786,
				"y": 1.071401786,
				"z": 1.4177547935,
				"element": "H" 
			},
			{
				"x": -1.00852992,
				"y": -1.0554988575,
				"z": -0.5117029403,
				"element": "H" 
			},
			{
				"x": 1.1776036183,
				"y": -1.0318205499,
				"z": 1.059784681,
				"element": "H" 
			},
			{
				"x": 0.2754302828,
				"y": -2.5461080005,
				"z": 0.9211547463,
				"element": "H" 
			},
			{
				"x": 0.1438716495,
				"y": -0.5039354542,
				"z": 3.1922321677,
				"element": "H" 
			},
			{
				"x": 0.3137037977,
				"y": -2.2471430701,
				"z": 3.3433128992,
				"element": "H" 
			},
			{
				"x": -2.055714328,
				"y": -2.5383566402,
				"z": 3.1701005173,
				"element": "H" 
			},
			{
				"x": -2.1628853912,
				"y": -0.8111818983,
				"z": 3.440428713,
				"element": "H" 
			},
			{
				"x": -2.4382939189,
				"y": -2.3528629463,
				"z": 0.8671041169,
				"element": "H" 
			},
			{
				"x": -3.0680188182,
				"y": -0.7469420439,
				"z": 1.2015075123,
				"element": "H" 
			},
			{
				"x": -1.3987021425,
				"y": -0.3869407475,
				"z": -4.8206069376,
				"element": "H" 
			}
		],
		 "valence_orbital": [ 
			{
				"type": "occ",
				"energy": -0.3044,
				"method": "rhf"
			},
			{
				"type": "occ",
				"energy": -0.2679,
				"method": "rhf"
			},
			{
				"type": "occ",
				"energy": -0.25539,
				"method": "rhf"
			},
			{
				"type": "occ",
				"energy": -0.24983,
				"method": "rhf"
			},
			{
				"type": "occ",
				"energy": -0.20503,
				"method": "rhf"
			},
			{
				"type": "unocc",
				"energy": 0.0126,
				"method": "rhf"
			},
			{
				"type": "unocc",
				"energy": 0.05377,
				"method": "rhf"
			},
			{
				"type": "unocc",
				"energy": 0.06408,
				"method": "rhf"
			},
			{
				"type": "unocc",
				"energy": 0.0808,
				"method": "rhf"
			},
			{
				"type": "unocc",
				"energy": 0.08416,
				"method": "rhf"
			}
		],
		"cosmo_sigma_profile": { 
			"-0.025": 0.0,
			"-0.024": 0.0,
			"-0.023": 0.0,
			"-0.022": 0.0,
			"-0.021": 0.0,
			"-0.02": 0.0,
			"-0.019": 0.0,
			"-0.018": 0.0,
			"-0.017": 0.172170356391,
			"-0.016": 0.797401685912,
			"-0.015": 1.1728025167,
			"-0.014": 0.670609049718,
			"-0.013": 0.86896279074,
			"-0.012": 1.97256938607,
			"-0.011": 2.29343758453,
			"-0.01": 2.82766548992,
			"-0.009": 3.75189840497,
			"-0.008": 2.69185913884,
			"-0.007": 3.53669984895,
			"-0.006": 5.54022695594,
			"-0.005": 9.37710477751,
			"-0.004": 13.5343440452,
			"-0.003": 26.3132836822,
			"-0.002": 26.1478295333,
			"-0.001": 24.8755488338,
			"0.0": 25.5284064556,
			"0.001": 17.7924015769,
			"0.002": 7.46605402272,
			"0.003": 5.87593731666,
			"0.004": 5.25220048701,
			"0.005": 4.74426028893,
			"0.006": 2.9845913611,
			"0.007": 5.31883468381,
			"0.008": 7.02237697776,
			"0.009": 5.06295768649,
			"0.01": 5.23964293227,
			"0.011": 3.60902148412,
			"0.012": 2.68411028882,
			"0.013": 4.34709168489,
			"0.014": 3.92589992024,
			"0.015": 0.789466737991,
			"0.016": 0.0,
			"0.017": 0.0,
			"0.018": 0.0,
			"0.019": 0.0,
			"0.02": 0.0,
			"0.021": 0.0,
			"0.022": 0.0,
			"0.023": 0.0,
			"0.024": 0.0,
			"0.025": 0.0
		}
	}
}
