{
	 "smiles": "FC1=CC=C(C=C1)C1=NC(Cl)=CN=C1", 
	 "Tm": 369.15, 
	 "num_atms": 20, 
	 "gaussian": { 
		 "optdone": 1, 
		 "sigma_profile": "yes", 
		 "theory": "DFT", 
		 "functional": "B3LYP", 
		 "basiset": "6-31G**", 
		 "properties": { 
			 "R2extent": 4422.5415, 
			 "electric_dipole_moment_norm": 1.38797127852, 
			 "electric_quadrupole_moment_norm": 2.72650108931, 
			 "total_energy": -1054.20308361, 
			 "HOMO_LUMO_gap": 0.17031, 
			 "cosmo_polarized_energy": -7.09, 
			 "cosmo_cavitation_energy": 27.42, 
			 "cosmo_dispersion_energy": -20.32, 
			 "cosmo_repulsion_energy": 1.55, 
			 "cosmo_total_nonelectrostatic_energy": 8.65, 
			 "SMD_solvation_energy": 2.42 
		},
		"coords": [
			{
				"x": -4.387942042,
				"y": -2.8933722304,
				"z": 0.5426443649,
				"element": "F" 
			},
			{
				"x": -3.1783662794,
				"y": -2.3324240788,
				"z": 0.3561329812,
				"element": "C" 
			},
			{
				"x": -3.0233694301,
				"y": -1.3820950527,
				"z": -0.6474338082,
				"element": "C" 
			},
			{
				"x": -1.7699268297,
				"y": -0.8062340707,
				"z": -0.8363271973,
				"element": "C" 
			},
			{
				"x": -0.6754390542,
				"y": -1.174541379,
				"z": -0.0345435557,
				"element": "C" 
			},
			{
				"x": -0.8747303466,
				"y": -2.1306528238,
				"z": 0.9772022199,
				"element": "C" 
			},
			{
				"x": -2.1210529833,
				"y": -2.7150316416,
				"z": 1.1757713856,
				"element": "C" 
			},
			{
				"x": 0.6669153419,
				"y": -0.5804322795,
				"z": -0.2241915631,
				"element": "C" 
			},
			{
				"x": 1.5585237356,
				"y": -0.7319804215,
				"z": 0.7779227499,
				"element": "N" 
			},
			{
				"x": 2.7507394553,
				"y": -0.2015406097,
				"z": 0.6174355383,
				"element": "C" 
			},
			{
				"x": 3.9173689648,
				"y": -0.4066401347,
				"z": 1.9170066475,
				"element": "Cl" 
			},
			{
				"x": 3.1264220902,
				"y": 0.5107014759,
				"z": -0.5283098493,
				"element": "C" 
			},
			{
				"x": 2.2638180902,
				"y": 0.6506759812,
				"z": -1.5346135213,
				"element": "N" 
			},
			{
				"x": 1.0532435266,
				"y": 0.1055142486,
				"z": -1.3896612097,
				"element": "C" 
			},
			{
				"x": -3.8755837423,
				"y": -1.1001598895,
				"z": -1.25576076,
				"element": "H" 
			},
			{
				"x": -1.6596694451,
				"y": -0.047114247,
				"z": -1.603324822,
				"element": "H" 
			},
			{
				"x": -0.0353597094,
				"y": -2.4076287966,
				"z": 1.6045730868,
				"element": "H" 
			},
			{
				"x": -2.2839479136,
				"y": -3.4574697587,
				"z": 1.9493707063,
				"element": "H" 
			},
			{
				"x": 4.1135867629,
				"y": 0.9520810972,
				"z": -0.6264190791,
				"element": "H" 
			},
			{
				"x": 0.3791698081,
				"y": 0.2050446113,
				"z": -2.2349743146,
				"element": "H" 
			}
		],
		 "valence_orbital": [ 
			{
				"type": "occ",
				"energy": -0.31549,
				"method": "rhf"
			},
			{
				"type": "occ",
				"energy": -0.28599,
				"method": "rhf"
			},
			{
				"type": "occ",
				"energy": -0.27351,
				"method": "rhf"
			},
			{
				"type": "occ",
				"energy": -0.26799,
				"method": "rhf"
			},
			{
				"type": "occ",
				"energy": -0.24209,
				"method": "rhf"
			},
			{
				"type": "unocc",
				"energy": -0.07178,
				"method": "rhf"
			},
			{
				"type": "unocc",
				"energy": -0.05135,
				"method": "rhf"
			},
			{
				"type": "unocc",
				"energy": -0.02101,
				"method": "rhf"
			},
			{
				"type": "unocc",
				"energy": 0.01203,
				"method": "rhf"
			},
			{
				"type": "unocc",
				"energy": 0.02726,
				"method": "rhf"
			}
		],
		"cosmo_sigma_profile": { 
			"-0.025": 0.0,
			"-0.024": 0.0,
			"-0.023": 0.0,
			"-0.022": 0.0,
			"-0.021": 0.0,
			"-0.02": 0.0,
			"-0.019": 0.0,
			"-0.018": 0.0,
			"-0.017": 0.0,
			"-0.016": 0.0,
			"-0.015": 0.0,
			"-0.014": 0.0,
			"-0.013": 0.0,
			"-0.012": 0.0,
			"-0.011": 0.0,
			"-0.01": 0.627796356855,
			"-0.009": 2.9734723109,
			"-0.008": 5.64606419739,
			"-0.007": 8.03094356267,
			"-0.006": 8.97529020864,
			"-0.005": 9.93977021031,
			"-0.004": 10.3529443338,
			"-0.003": 13.5219474951,
			"-0.002": 18.8725047906,
			"-0.001": 17.8591752775,
			"0.0": 20.212455069,
			"0.001": 19.5486827093,
			"0.002": 22.5617396804,
			"0.003": 24.5018302341,
			"0.004": 20.9423898418,
			"0.005": 6.00425325827,
			"0.006": 3.71034541922,
			"0.007": 2.00181793493,
			"0.008": 2.06490263509,
			"0.009": 1.74856697201,
			"0.01": 1.33301369677,
			"0.011": 0.945640251857,
			"0.012": 0.730361876851,
			"0.013": 0.792500917092,
			"0.014": 0.632630132037,
			"0.015": 0.0792334034451,
			"0.016": 0.0,
			"0.017": 0.0,
			"0.018": 0.0,
			"0.019": 0.0,
			"0.02": 0.0,
			"0.021": 0.0,
			"0.022": 0.0,
			"0.023": 0.0,
			"0.024": 0.0,
			"0.025": 0.0
		}
	}
}
