{
	 "smiles": "O=C1CCCC2=C1C1=C(N2)C=CC=C1", 
	 "Tm": 489.15, 
	 "num_atms": 25, 
	 "gaussian": { 
		 "optdone": 1, 
		 "sigma_profile": "yes", 
		 "theory": "DFT", 
		 "functional": "B3LYP", 
		 "basiset": "6-31G**", 
		 "properties": { 
			 "R2extent": 3110.4433, 
			 "electric_dipole_moment_norm": 5.54683723666, 
			 "electric_quadrupole_moment_norm": 9.43016559505, 
			 "total_energy": -593.908257778, 
			 "HOMO_LUMO_gap": 0.18135, 
			 "cosmo_polarized_energy": -16.31, 
			 "cosmo_cavitation_energy": 27.62, 
			 "cosmo_dispersion_energy": -20.84, 
			 "cosmo_repulsion_energy": 1.62, 
			 "cosmo_total_nonelectrostatic_energy": 8.41, 
			 "SMD_solvation_energy": 4.15 
		},
		"coords": [
			{
				"x": 0.4537121469,
				"y": -0.0483438312,
				"z": -3.0291907777,
				"element": "O" 
			},
			{
				"x": 0.198065062,
				"y": -0.7355770727,
				"z": -2.0457076445,
				"element": "C" 
			},
			{
				"x": -0.6838198704,
				"y": -1.9875255252,
				"z": -2.151666733,
				"element": "C" 
			},
			{
				"x": -1.4459003904,
				"y": -2.3220810989,
				"z": -0.8577144781,
				"element": "C" 
			},
			{
				"x": -0.5032809644,
				"y": -2.4404066902,
				"z": 0.3566120288,
				"element": "C" 
			},
			{
				"x": 0.4088275024,
				"y": -1.2562245002,
				"z": 0.3798131969,
				"element": "C" 
			},
			{
				"x": 0.727116257,
				"y": -0.4685521218,
				"z": -0.7151762787,
				"element": "C" 
			},
			{
				"x": 1.637309954,
				"y": 0.556260173,
				"z": -0.257507381,
				"element": "C" 
			},
			{
				"x": 1.8346355286,
				"y": 0.3299864516,
				"z": 1.128311006,
				"element": "C" 
			},
			{
				"x": 1.0729971343,
				"y": -0.7837776227,
				"z": 1.4807205629,
				"element": "N" 
			},
			{
				"x": 2.6628240233,
				"y": 1.1382114709,
				"z": 1.9090117862,
				"element": "C" 
			},
			{
				"x": 3.3048454379,
				"y": 2.1955530964,
				"z": 1.2689456988,
				"element": "C" 
			},
			{
				"x": 3.1235312618,
				"y": 2.4357389317,
				"z": -0.1069637315,
				"element": "C" 
			},
			{
				"x": 2.2954557846,
				"y": 1.6270616682,
				"z": -0.8791770333,
				"element": "C" 
			},
			{
				"x": -0.0231191676,
				"y": -2.8250302716,
				"z": -2.4212971498,
				"element": "H" 
			},
			{
				"x": -1.3670976352,
				"y": -1.8447330179,
				"z": -2.9935873272,
				"element": "H" 
			},
			{
				"x": -2.1782008342,
				"y": -1.5307344058,
				"z": -0.6571910034,
				"element": "H" 
			},
			{
				"x": -2.0091223168,
				"y": -3.2532474609,
				"z": -0.9808657767,
				"element": "H" 
			},
			{
				"x": -1.0785173549,
				"y": -2.5135298091,
				"z": 1.2881591646,
				"element": "H" 
			},
			{
				"x": 0.0881411118,
				"y": -3.365660913,
				"z": 0.2828287026,
				"element": "H" 
			},
			{
				"x": 0.998938942,
				"y": -1.1660128743,
				"z": 2.4106930599,
				"element": "H" 
			},
			{
				"x": 2.8036388696,
				"y": 0.9532087749,
				"z": 2.9702561482,
				"element": "H" 
			},
			{
				"x": 3.9578973879,
				"y": 2.8461315208,
				"z": 1.8432318372,
				"element": "H" 
			},
			{
				"x": 3.6415921638,
				"y": 3.2700695054,
				"z": -0.5708005745,
				"element": "H" 
			},
			{
				"x": 2.1479299659,
				"y": 1.8028156226,
				"z": -1.9387373027,
				"element": "H" 
			}
		],
		 "valence_orbital": [ 
			{
				"type": "occ",
				"energy": -0.32929,
				"method": "rhf"
			},
			{
				"type": "occ",
				"energy": -0.27319,
				"method": "rhf"
			},
			{
				"type": "occ",
				"energy": -0.22719,
				"method": "rhf"
			},
			{
				"type": "occ",
				"energy": -0.22475,
				"method": "rhf"
			},
			{
				"type": "occ",
				"energy": -0.20934,
				"method": "rhf"
			},
			{
				"type": "unocc",
				"energy": -0.02799,
				"method": "rhf"
			},
			{
				"type": "unocc",
				"energy": -6e-05,
				"method": "rhf"
			},
			{
				"type": "unocc",
				"energy": 0.0255,
				"method": "rhf"
			},
			{
				"type": "unocc",
				"energy": 0.07037,
				"method": "rhf"
			},
			{
				"type": "unocc",
				"energy": 0.08066,
				"method": "rhf"
			}
		],
		"cosmo_sigma_profile": { 
			"-0.025": 0.0,
			"-0.024": 0.0,
			"-0.023": 0.0,
			"-0.022": 0.0,
			"-0.021": 0.0,
			"-0.02": 0.0,
			"-0.019": 0.0,
			"-0.018": 0.0,
			"-0.017": 0.0831127931678,
			"-0.016": 1.13085079095,
			"-0.015": 1.69236888103,
			"-0.014": 1.19758432049,
			"-0.013": 1.0577646304,
			"-0.012": 1.40104495729,
			"-0.011": 1.51008662963,
			"-0.01": 1.57691292928,
			"-0.009": 1.04078890643,
			"-0.008": 1.62234537729,
			"-0.007": 2.76748721375,
			"-0.006": 4.74182253557,
			"-0.005": 13.9550005602,
			"-0.004": 21.5137347781,
			"-0.003": 24.6231408805,
			"-0.002": 21.467149166,
			"-0.001": 16.9917995579,
			"0.0": 11.5826656564,
			"0.001": 7.80255245288,
			"0.002": 10.6302838264,
			"0.003": 11.7541883713,
			"0.004": 12.5943859413,
			"0.005": 12.9393802977,
			"0.006": 11.0488358872,
			"0.007": 4.97907041376,
			"0.008": 2.49761349802,
			"0.009": 1.57384001167,
			"0.01": 1.82601611984,
			"0.011": 1.97345927581,
			"0.012": 2.38359902628,
			"0.013": 3.661285334,
			"0.014": 2.70705050337,
			"0.015": 0.983832341212,
			"0.016": 0.0,
			"0.017": 0.0,
			"0.018": 0.0,
			"0.019": 0.0,
			"0.02": 0.0,
			"0.021": 0.0,
			"0.022": 0.0,
			"0.023": 0.0,
			"0.024": 0.0,
			"0.025": 0.0
		}
	}
}
