{
	 "smiles": "NS(=O)(=O)C1=CC2=C(CCNC2=O)C=C1", 
	 "Tm": 514.15, 
	 "num_atms": 25, 
	 "gaussian": { 
		 "optdone": 1, 
		 "sigma_profile": "yes", 
		 "theory": "DFT", 
		 "functional": "B3LYP", 
		 "basiset": "6-31G**", 
		 "properties": { 
			 "R2extent": 5127.1996, 
			 "electric_dipole_moment_norm": 6.53644075319, 
			 "electric_quadrupole_moment_norm": 27.0789684826, 
			 "total_energy": -1082.30382684, 
			 "HOMO_LUMO_gap": 0.20009, 
			 "cosmo_polarized_energy": -23.3, 
			 "cosmo_cavitation_energy": 30.04, 
			 "cosmo_dispersion_energy": -22.87, 
			 "cosmo_repulsion_energy": 1.75, 
			 "cosmo_total_nonelectrostatic_energy": 8.92, 
			 "SMD_solvation_energy": 4.23 
		},
		"coords": [
			{
				"x": -0.8581531716,
				"y": -3.163115443,
				"z": 3.3489499258,
				"element": "N" 
			},
			{
				"x": -1.5093202931,
				"y": -3.6206546078,
				"z": 1.8507063865,
				"element": "S" 
			},
			{
				"x": -0.8697084132,
				"y": -4.8883383901,
				"z": 1.4839096605,
				"element": "O" 
			},
			{
				"x": -2.9637209329,
				"y": -3.4707485071,
				"z": 1.9386274948,
				"element": "O" 
			},
			{
				"x": -0.8948879404,
				"y": -2.3608775634,
				"z": 0.7320061771,
				"element": "C" 
			},
			{
				"x": -1.5816308382,
				"y": -1.1573653008,
				"z": 0.60786611,
				"element": "C" 
			},
			{
				"x": -1.0884191019,
				"y": -0.1798827511,
				"z": -0.2596256649,
				"element": "C" 
			},
			{
				"x": 0.0755903711,
				"y": -0.4142560719,
				"z": -1.0150437671,
				"element": "C" 
			},
			{
				"x": 0.542416292,
				"y": 0.6500517127,
				"z": -1.9815142788,
				"element": "C" 
			},
			{
				"x": 0.1851182206,
				"y": 2.0466468534,
				"z": -1.469548895,
				"element": "C" 
			},
			{
				"x": -1.2292271797,
				"y": 2.0887797572,
				"z": -1.1100448704,
				"element": "N" 
			},
			{
				"x": -1.845444887,
				"y": 1.1112693254,
				"z": -0.3690412832,
				"element": "C" 
			},
			{
				"x": -2.9427587374,
				"y": 1.2778026577,
				"z": 0.151457751,
				"element": "O" 
			},
			{
				"x": 0.7382282688,
				"y": -1.6388651436,
				"z": -0.8811250129,
				"element": "C" 
			},
			{
				"x": 0.2617375152,
				"y": -2.6155206241,
				"z": -0.0089634161,
				"element": "C" 
			},
			{
				"x": -1.6131007845,
				"y": -2.9114375973,
				"z": 3.981962856,
				"element": "H" 
			},
			{
				"x": -0.3081443211,
				"y": -3.9344408662,
				"z": 3.7181626938,
				"element": "H" 
			},
			{
				"x": -2.4977433049,
				"y": -0.9608949448,
				"z": 1.1537730363,
				"element": "H" 
			},
			{
				"x": 0.0557834713,
				"y": 0.4909057247,
				"z": -2.9536297769,
				"element": "H" 
			},
			{
				"x": 1.6221771999,
				"y": 0.5769749515,
				"z": -2.1462738509,
				"element": "H" 
			},
			{
				"x": 0.8225762479,
				"y": 2.3030153257,
				"z": -0.6091868365,
				"element": "H" 
			},
			{
				"x": 0.3673780658,
				"y": 2.7940753673,
				"z": -2.2467858272,
				"element": "H" 
			},
			{
				"x": -1.6976023551,
				"y": 2.9846147406,
				"z": -1.0702398879,
				"element": "H" 
			},
			{
				"x": 1.6332666815,
				"y": -1.8321214087,
				"z": -1.4663125712,
				"element": "H" 
			},
			{
				"x": 0.7647899268,
				"y": -3.5708171961,
				"z": 0.0923138472,
				"element": "H" 
			}
		],
		 "valence_orbital": [ 
			{
				"type": "occ",
				"energy": -0.29923,
				"method": "rhf"
			},
			{
				"type": "occ",
				"energy": -0.27261,
				"method": "rhf"
			},
			{
				"type": "occ",
				"energy": -0.26765,
				"method": "rhf"
			},
			{
				"type": "occ",
				"energy": -0.26022,
				"method": "rhf"
			},
			{
				"type": "occ",
				"energy": -0.25369,
				"method": "rhf"
			},
			{
				"type": "unocc",
				"energy": -0.0536,
				"method": "rhf"
			},
			{
				"type": "unocc",
				"energy": -0.03685,
				"method": "rhf"
			},
			{
				"type": "unocc",
				"energy": 0.04081,
				"method": "rhf"
			},
			{
				"type": "unocc",
				"energy": 0.05504,
				"method": "rhf"
			},
			{
				"type": "unocc",
				"energy": 0.07286,
				"method": "rhf"
			}
		],
		"cosmo_sigma_profile": { 
			"-0.025": 0.0,
			"-0.024": 0.0,
			"-0.023": 0.0,
			"-0.022": 0.0,
			"-0.021": 0.0,
			"-0.02": 0.0,
			"-0.019": 0.0,
			"-0.018": 0.0,
			"-0.017": 0.0,
			"-0.016": 0.0,
			"-0.015": 0.937363765883,
			"-0.014": 3.23105740281,
			"-0.013": 3.8162073028,
			"-0.012": 3.50306599391,
			"-0.011": 3.39720310657,
			"-0.01": 2.44279222107,
			"-0.009": 3.54934265119,
			"-0.008": 2.83324083031,
			"-0.007": 7.11907136131,
			"-0.006": 13.0555854162,
			"-0.005": 18.0309849429,
			"-0.004": 20.4856082598,
			"-0.003": 17.7046026387,
			"-0.002": 12.9688645646,
			"-0.001": 9.84473661673,
			"0.0": 13.3166807662,
			"0.001": 15.5265500919,
			"0.002": 14.8174130187,
			"0.003": 7.15731629638,
			"0.004": 5.91669044346,
			"0.005": 5.44997224662,
			"0.006": 4.07204881759,
			"0.007": 4.18398613447,
			"0.008": 5.92556004446,
			"0.009": 5.3241164763,
			"0.01": 9.47947775746,
			"0.011": 10.6883177568,
			"0.012": 5.35408526879,
			"0.013": 4.82946252287,
			"0.014": 3.34721307924,
			"0.015": 0.143238425002,
			"0.016": 0.0,
			"0.017": 0.0,
			"0.018": 0.0,
			"0.019": 0.0,
			"0.02": 0.0,
			"0.021": 0.0,
			"0.022": 0.0,
			"0.023": 0.0,
			"0.024": 0.0,
			"0.025": 0.0
		}
	}
}
