{
	 "smiles": "COC(=O)C1=CC(OCC(F)(F)F)=CC=C1", 
	 "Tm": 330.15, 
	 "num_atms": 25, 
	 "gaussian": { 
		 "optdone": 1, 
		 "sigma_profile": "yes", 
		 "theory": "DFT", 
		 "functional": "B3LYP", 
		 "basiset": "6-31G**", 
		 "properties": { 
			 "R2extent": 4399.4017, 
			 "electric_dipole_moment_norm": 1.98130594558, 
			 "electric_quadrupole_moment_norm": 11.7596560035, 
			 "total_energy": -911.684336906, 
			 "HOMO_LUMO_gap": 0.18909, 
			 "cosmo_polarized_energy": -9.82, 
			 "cosmo_cavitation_energy": 31.27, 
			 "cosmo_dispersion_energy": -21.87, 
			 "cosmo_repulsion_energy": 1.66, 
			 "cosmo_total_nonelectrostatic_energy": 11.06, 
			 "SMD_solvation_energy": 8.34 
		},
		"coords": [
			{
				"x": 1.0412161123,
				"y": 0.7260550428,
				"z": -3.8351901125,
				"element": "C" 
			},
			{
				"x": 0.5043790043,
				"y": 0.4290287815,
				"z": -2.5371787995,
				"element": "O" 
			},
			{
				"x": -0.5303913289,
				"y": 1.2103717007,
				"z": -2.149383491,
				"element": "C" 
			},
			{
				"x": -0.9879353433,
				"y": 2.0962636184,
				"z": -2.8444752734,
				"element": "O" 
			},
			{
				"x": -1.0349620859,
				"y": 0.8579241457,
				"z": -0.7903310652,
				"element": "C" 
			},
			{
				"x": -0.4475301837,
				"y": -0.1679418633,
				"z": -0.0336971006,
				"element": "C" 
			},
			{
				"x": -0.9604844983,
				"y": -0.4591301228,
				"z": 1.2301042251,
				"element": "C" 
			},
			{
				"x": -0.4827772837,
				"y": -1.4459798259,
				"z": 2.0645178277,
				"element": "O" 
			},
			{
				"x": 0.2895403795,
				"y": -2.504664367,
				"z": 1.5436457032,
				"element": "C" 
			},
			{
				"x": 1.7840444901,
				"y": -2.2812089347,
				"z": 1.7383806786,
				"element": "C" 
			},
			{
				"x": 2.4512438384,
				"y": -3.3761934434,
				"z": 1.3107902178,
				"element": "F" 
			},
			{
				"x": 2.2437269479,
				"y": -1.2213993042,
				"z": 1.0413251095,
				"element": "F" 
			},
			{
				"x": 2.0898521472,
				"y": -2.0830759472,
				"z": 3.0307711532,
				"element": "F" 
			},
			{
				"x": -2.0339025437,
				"y": 0.2797027856,
				"z": 1.7449578646,
				"element": "C" 
			},
			{
				"x": -2.5986160953,
				"y": 1.3037412534,
				"z": 0.9898970381,
				"element": "C" 
			},
			{
				"x": -2.1090998367,
				"y": 1.5948309136,
				"z": -0.2832636864,
				"element": "C" 
			},
			{
				"x": 1.8556315629,
				"y": 0.0175611872,
				"z": -3.9859572979,
				"element": "H" 
			},
			{
				"x": 0.2759998058,
				"y": 0.6026351445,
				"z": -4.6056865596,
				"element": "H" 
			},
			{
				"x": 1.4135763367,
				"y": 1.7528614533,
				"z": -3.8716930051,
				"element": "H" 
			},
			{
				"x": 0.4121101004,
				"y": -0.6876400763,
				"z": -0.4320767184,
				"element": "H" 
			},
			{
				"x": 0.0949073256,
				"y": -2.6870106056,
				"z": 0.4819088496,
				"element": "H" 
			},
			{
				"x": 0.0254075189,
				"y": -3.4030685725,
				"z": 2.108786735,
				"element": "H" 
			},
			{
				"x": -2.4074683528,
				"y": 0.0310045601,
				"z": 2.7328033252,
				"element": "H" 
			},
			{
				"x": -3.4306800198,
				"y": 1.8711106411,
				"z": 1.3956654519,
				"element": "H" 
			},
			{
				"x": -2.5366879979,
				"y": 2.3833218351,
				"z": -0.8917210701,
				"element": "H" 
			}
		],
		 "valence_orbital": [ 
			{
				"type": "occ",
				"energy": -0.32907,
				"method": "rhf"
			},
			{
				"type": "occ",
				"energy": -0.30349,
				"method": "rhf"
			},
			{
				"type": "occ",
				"energy": -0.27522,
				"method": "rhf"
			},
			{
				"type": "occ",
				"energy": -0.26486,
				"method": "rhf"
			},
			{
				"type": "occ",
				"energy": -0.2379,
				"method": "rhf"
			},
			{
				"type": "unocc",
				"energy": -0.04881,
				"method": "rhf"
			},
			{
				"type": "unocc",
				"energy": -0.00429,
				"method": "rhf"
			},
			{
				"type": "unocc",
				"energy": 0.05717,
				"method": "rhf"
			},
			{
				"type": "unocc",
				"energy": 0.07912,
				"method": "rhf"
			},
			{
				"type": "unocc",
				"energy": 0.09193,
				"method": "rhf"
			}
		],
		"cosmo_sigma_profile": { 
			"-0.025": 0.0,
			"-0.024": 0.0,
			"-0.023": 0.0,
			"-0.022": 0.0,
			"-0.021": 0.0,
			"-0.02": 0.0,
			"-0.019": 0.0,
			"-0.018": 0.0,
			"-0.017": 0.0,
			"-0.016": 0.0,
			"-0.015": 0.0,
			"-0.014": 0.0,
			"-0.013": 0.0,
			"-0.012": 0.0,
			"-0.011": 0.214359505307,
			"-0.01": 1.45161706378,
			"-0.009": 3.70936117098,
			"-0.008": 4.5855130718,
			"-0.007": 7.31417963642,
			"-0.006": 14.0702126199,
			"-0.005": 15.517257768,
			"-0.004": 16.6007486916,
			"-0.003": 16.2180013178,
			"-0.002": 10.4362839732,
			"-0.001": 13.3732086814,
			"0.0": 15.7864207886,
			"0.001": 22.7875733551,
			"0.002": 38.3204370324,
			"0.003": 35.3942607557,
			"0.004": 9.07590690382,
			"0.005": 5.84885970391,
			"0.006": 3.30535091385,
			"0.007": 2.02783061837,
			"0.008": 2.91923484491,
			"0.009": 2.12363330573,
			"0.01": 1.67490732707,
			"0.011": 3.08220003882,
			"0.012": 4.07567223249,
			"0.013": 0.103690752135,
			"0.014": 0.0,
			"0.015": 0.0,
			"0.016": 0.0,
			"0.017": 0.0,
			"0.018": 0.0,
			"0.019": 0.0,
			"0.02": 0.0,
			"0.021": 0.0,
			"0.022": 0.0,
			"0.023": 0.0,
			"0.024": 0.0,
			"0.025": 0.0
		}
	}
}
