{
	 "smiles": "ClCC(=O)NCCOC1=CC=CC=C1", 
	 "Tm": 341.15, 
	 "num_atms": 26, 
	 "gaussian": { 
		 "optdone": 1, 
		 "sigma_profile": "yes", 
		 "theory": "DFT", 
		 "functional": "B3LYP", 
		 "basiset": "6-31G**", 
		 "properties": { 
			 "R2extent": 5109.6437, 
			 "electric_dipole_moment_norm": 1.66360737555, 
			 "electric_quadrupole_moment_norm": 5.57395177859, 
			 "total_energy": -1053.69906893, 
			 "HOMO_LUMO_gap": 0.22054, 
			 "cosmo_polarized_energy": -11.92, 
			 "cosmo_cavitation_energy": 32.02, 
			 "cosmo_dispersion_energy": -23.03, 
			 "cosmo_repulsion_energy": 1.86, 
			 "cosmo_total_nonelectrostatic_energy": 10.86, 
			 "SMD_solvation_energy": 5.43 
		},
		"coords": [
			{
				"x": -1.0799579505,
				"y": -3.4090430451,
				"z": -2.8199423226,
				"element": "Cl" 
			},
			{
				"x": 0.14224365,
				"y": -4.2240228279,
				"z": -1.7513363139,
				"element": "C" 
			},
			{
				"x": 0.4447499458,
				"y": -3.5549090408,
				"z": -0.4084151528,
				"element": "C" 
			},
			{
				"x": 1.2749116816,
				"y": -4.101057259,
				"z": 0.3095262292,
				"element": "O" 
			},
			{
				"x": -0.2204378502,
				"y": -2.4181144355,
				"z": -0.0989870599,
				"element": "N" 
			},
			{
				"x": 0.0105153715,
				"y": -1.700332379,
				"z": 1.1423655398,
				"element": "C" 
			},
			{
				"x": 0.4070452496,
				"y": -0.2539360605,
				"z": 0.8882355796,
				"element": "C" 
			},
			{
				"x": -0.6762729619,
				"y": 0.3522944273,
				"z": 0.1887442494,
				"element": "O" 
			},
			{
				"x": -0.5641015004,
				"y": 1.6613424882,
				"z": -0.2015000017,
				"element": "C" 
			},
			{
				"x": -1.6566319808,
				"y": 2.1777744372,
				"z": -0.9124023941,
				"element": "C" 
			},
			{
				"x": -1.6391886315,
				"y": 3.4981618788,
				"z": -1.3481469778,
				"element": "C" 
			},
			{
				"x": -0.5378139027,
				"y": 4.3195593946,
				"z": -1.0832052879,
				"element": "C" 
			},
			{
				"x": 0.5438209687,
				"y": 3.8000867406,
				"z": -0.375977705,
				"element": "C" 
			},
			{
				"x": 0.5419234405,
				"y": 2.4740327433,
				"z": 0.0698109267,
				"element": "C" 
			},
			{
				"x": -0.2232861038,
				"y": -5.2323540746,
				"z": -1.5561759195,
				"element": "H" 
			},
			{
				"x": 1.0713712645,
				"y": -4.2902037754,
				"z": -2.3175701675,
				"element": "H" 
			},
			{
				"x": -0.8702003818,
				"y": -2.0238254362,
				"z": -0.765221138,
				"element": "H" 
			},
			{
				"x": -0.8932999845,
				"y": -1.72236201,
				"z": 1.7635309197,
				"element": "H" 
			},
			{
				"x": 0.807935932,
				"y": -2.2236911348,
				"z": 1.6747274231,
				"element": "H" 
			},
			{
				"x": 0.5865487217,
				"y": 0.2593886301,
				"z": 1.8433041889,
				"element": "H" 
			},
			{
				"x": 1.3248334218,
				"y": -0.2075032301,
				"z": 0.2868401297,
				"element": "H" 
			},
			{
				"x": -2.5024499701,
				"y": 1.5269221632,
				"z": -1.1092557544,
				"element": "H" 
			},
			{
				"x": -2.4904553879,
				"y": 3.8886495911,
				"z": -1.8985377054,
				"element": "H" 
			},
			{
				"x": -0.5265630436,
				"y": 5.349790998,
				"z": -1.4248699824,
				"element": "H" 
			},
			{
				"x": 1.4058523199,
				"y": 4.4258576118,
				"z": -0.1624614095,
				"element": "H" 
			},
			{
				"x": 1.394907682,
				"y": 2.093493605,
				"z": 0.6191201062,
				"element": "H" 
			}
		],
		 "valence_orbital": [ 
			{
				"type": "occ",
				"energy": -0.31008,
				"method": "rhf"
			},
			{
				"type": "occ",
				"energy": -0.26342,
				"method": "rhf"
			},
			{
				"type": "occ",
				"energy": -0.261,
				"method": "rhf"
			},
			{
				"type": "occ",
				"energy": -0.25387,
				"method": "rhf"
			},
			{
				"type": "occ",
				"energy": -0.22512,
				"method": "rhf"
			},
			{
				"type": "unocc",
				"energy": -0.00458,
				"method": "rhf"
			},
			{
				"type": "unocc",
				"energy": 0.00897,
				"method": "rhf"
			},
			{
				"type": "unocc",
				"energy": 0.01491,
				"method": "rhf"
			},
			{
				"type": "unocc",
				"energy": 0.01742,
				"method": "rhf"
			},
			{
				"type": "unocc",
				"energy": 0.08643,
				"method": "rhf"
			}
		],
		"cosmo_sigma_profile": { 
			"-0.025": 0.0,
			"-0.024": 0.0,
			"-0.023": 0.0,
			"-0.022": 0.0,
			"-0.021": 0.0,
			"-0.02": 0.0,
			"-0.019": 0.0,
			"-0.018": 0.0,
			"-0.017": 0.0,
			"-0.016": 0.0,
			"-0.015": 0.0,
			"-0.014": 0.0,
			"-0.013": 0.0,
			"-0.012": 0.0,
			"-0.011": 0.0,
			"-0.01": 0.0178029239674,
			"-0.009": 2.97074110383,
			"-0.008": 4.84307404729,
			"-0.007": 4.35462369228,
			"-0.006": 17.119300634,
			"-0.005": 28.3395244074,
			"-0.004": 23.1499747308,
			"-0.003": 19.5854660782,
			"-0.002": 15.2580990681,
			"-0.001": 16.1204954967,
			"0.0": 14.2803095909,
			"0.001": 13.1224785767,
			"0.002": 13.0308733231,
			"0.003": 16.5818914505,
			"0.004": 16.6745943478,
			"0.005": 17.70573536,
			"0.006": 14.2514275061,
			"0.007": 3.51152249744,
			"0.008": 1.35839160392,
			"0.009": 0.889895501237,
			"0.01": 2.28407393165,
			"0.011": 1.16373501696,
			"0.012": 2.28949670986,
			"0.013": 5.51697158264,
			"0.014": 2.00874216807,
			"0.015": 0.0276054427109,
			"0.016": 0.0,
			"0.017": 0.0,
			"0.018": 0.0,
			"0.019": 0.0,
			"0.02": 0.0,
			"0.021": 0.0,
			"0.022": 0.0,
			"0.023": 0.0,
			"0.024": 0.0,
			"0.025": 0.0
		}
	}
}
