{
	 "smiles": "COC1=CC(C=CC(O)=O)=CC(Br)=C1O", 
	 "Tm": 529.15, 
	 "num_atms": 24, 
	 "gaussian": { 
		 "optdone": 1, 
		 "sigma_profile": "yes", 
		 "theory": "DFT", 
		 "functional": "B3LYP", 
		 "basiset": "6-31G**", 
		 "properties": { 
			 "R2extent": 6304.3634, 
			 "electric_dipole_moment_norm": 7.549407337, 
			 "electric_quadrupole_moment_norm": 37.2231837944, 
			 "total_energy": -3258.76155108, 
			 "HOMO_LUMO_gap": 0.15251, 
			 "cosmo_polarized_energy": -21.51, 
			 "cosmo_cavitation_energy": 31.73, 
			 "cosmo_dispersion_energy": -23.51, 
			 "cosmo_repulsion_energy": 1.85, 
			 "cosmo_total_nonelectrostatic_energy": 10.08, 
			 "SMD_solvation_energy": 6.73 
		},
		"coords": [
			{
				"x": -2.514972756,
				"y": 0.3868788586,
				"z": -3.2656169735,
				"element": "C" 
			},
			{
				"x": -2.2881935689,
				"y": -0.5359607948,
				"z": -2.2073726491,
				"element": "O" 
			},
			{
				"x": -1.5631176103,
				"y": -0.1182416839,
				"z": -1.1217115843,
				"element": "C" 
			},
			{
				"x": -1.0013991715,
				"y": 1.1373672622,
				"z": -0.9443964217,
				"element": "C" 
			},
			{
				"x": -0.2784541864,
				"y": 1.4371238896,
				"z": 0.2303551822,
				"element": "C" 
			},
			{
				"x": 0.2933980317,
				"y": 2.7754656193,
				"z": 0.3761715543,
				"element": "C" 
			},
			{
				"x": 0.9103640191,
				"y": 3.297354106,
				"z": 1.4545824714,
				"element": "C" 
			},
			{
				"x": 1.4137032894,
				"y": 4.690151645,
				"z": 1.5462233706,
				"element": "C" 
			},
			{
				"x": 1.7020759944,
				"y": 5.3320169592,
				"z": 0.375601199,
				"element": "O" 
			},
			{
				"x": 1.5593754112,
				"y": 5.2632345337,
				"z": 2.6012095547,
				"element": "O" 
			},
			{
				"x": -0.1339861872,
				"y": 0.4399594032,
				"z": 1.2061383014,
				"element": "C" 
			},
			{
				"x": -0.69794274,
				"y": -0.8183191139,
				"z": 1.0205358662,
				"element": "C" 
			},
			{
				"x": -0.4857489882,
				"y": -2.1572244719,
				"z": 2.3543365475,
				"element": "Br" 
			},
			{
				"x": -1.419440523,
				"y": -1.1211162381,
				"z": -0.1367441009,
				"element": "C" 
			},
			{
				"x": -1.9684885517,
				"y": -2.3396755071,
				"z": -0.3235842197,
				"element": "O" 
			},
			{
				"x": -1.5701715539,
				"y": 0.7112284554,
				"z": -3.7181844788,
				"element": "H" 
			},
			{
				"x": -3.1085857151,
				"y": -0.145420994,
				"z": -4.0094288228,
				"element": "H" 
			},
			{
				"x": -3.0717539811,
				"y": 1.2638303051,
				"z": -2.9142989119,
				"element": "H" 
			},
			{
				"x": -1.1187582074,
				"y": 1.9016050996,
				"z": -1.7044170737,
				"element": "H" 
			},
			{
				"x": 0.1596393873,
				"y": 3.4119638402,
				"z": -0.499878543,
				"element": "H" 
			},
			{
				"x": 0.9967862631,
				"y": 2.7477404217,
				"z": 2.3862004681,
				"element": "H" 
			},
			{
				"x": 1.7336370066,
				"y": 4.6909910199,
				"z": -0.3477319499,
				"element": "H" 
			},
			{
				"x": 0.4228012518,
				"y": 0.6309895891,
				"z": 2.1150461954,
				"element": "H" 
			},
			{
				"x": -2.4167669139,
				"y": -2.3213422043,
				"z": -1.1845349817,
				"element": "H" 
			}
		],
		 "valence_orbital": [ 
			{
				"type": "occ",
				"energy": -0.28974,
				"method": "rhf"
			},
			{
				"type": "occ",
				"energy": -0.28683,
				"method": "rhf"
			},
			{
				"type": "occ",
				"energy": -0.26727,
				"method": "rhf"
			},
			{
				"type": "occ",
				"energy": -0.25043,
				"method": "rhf"
			},
			{
				"type": "occ",
				"energy": -0.22399,
				"method": "rhf"
			},
			{
				"type": "unocc",
				"energy": -0.07148,
				"method": "rhf"
			},
			{
				"type": "unocc",
				"energy": -0.01996,
				"method": "rhf"
			},
			{
				"type": "unocc",
				"energy": 0.00044,
				"method": "rhf"
			},
			{
				"type": "unocc",
				"energy": 0.01506,
				"method": "rhf"
			},
			{
				"type": "unocc",
				"energy": 0.05566,
				"method": "rhf"
			}
		],
		"cosmo_sigma_profile": { 
			"-0.025": 0.0,
			"-0.024": 0.0,
			"-0.023": 0.0,
			"-0.022": 0.0,
			"-0.021": 0.0,
			"-0.02": 0.0,
			"-0.019": 0.129275074952,
			"-0.018": 0.765523547966,
			"-0.017": 1.05727235,
			"-0.016": 1.02162526902,
			"-0.015": 1.56429920249,
			"-0.014": 0.892584865194,
			"-0.013": 1.12248850677,
			"-0.012": 2.55962091454,
			"-0.011": 1.9906953403,
			"-0.01": 2.18236126488,
			"-0.009": 4.04890285648,
			"-0.008": 6.32572383422,
			"-0.007": 9.27344830811,
			"-0.006": 14.0276049945,
			"-0.005": 13.38593825,
			"-0.004": 15.7696515627,
			"-0.003": 13.5618852523,
			"-0.002": 10.9905702339,
			"-0.001": 13.4372257816,
			"0.0": 16.8784050349,
			"0.001": 21.4892273776,
			"0.002": 24.872496113,
			"0.003": 17.5233711681,
			"0.004": 13.1723072231,
			"0.005": 7.55126762072,
			"0.006": 4.75453070464,
			"0.007": 4.56416174691,
			"0.008": 4.21127733997,
			"0.009": 5.49645583839,
			"0.01": 5.99540764399,
			"0.011": 5.76267233434,
			"0.012": 5.99946623779,
			"0.013": 3.99458140986,
			"0.014": 0.511738984778,
			"0.015": 0.0,
			"0.016": 0.0,
			"0.017": 0.0,
			"0.018": 0.0,
			"0.019": 0.0,
			"0.02": 0.0,
			"0.021": 0.0,
			"0.022": 0.0,
			"0.023": 0.0,
			"0.024": 0.0,
			"0.025": 0.0
		}
	}
}
