{
	 "smiles": "COC1=CC2=C(C=C1)C(C)=CC(Cl)=N2", 
	 "Tm": 385.15, 
	 "num_atms": 24, 
	 "gaussian": { 
		 "optdone": 1, 
		 "sigma_profile": "yes", 
		 "theory": "DFT", 
		 "functional": "B3LYP", 
		 "basiset": "6-31G**", 
		 "properties": { 
			 "R2extent": 4531.7403, 
			 "electric_dipole_moment_norm": 3.21832705765, 
			 "electric_quadrupole_moment_norm": 17.9970071631, 
			 "total_energy": -1015.3740632, 
			 "HOMO_LUMO_gap": 0.17262, 
			 "cosmo_polarized_energy": -9.19, 
			 "cosmo_cavitation_energy": 29.49, 
			 "cosmo_dispersion_energy": -22.0, 
			 "cosmo_repulsion_energy": 1.71, 
			 "cosmo_total_nonelectrostatic_energy": 9.2, 
			 "SMD_solvation_energy": 3.91 
		},
		"coords": [
			{
				"x": -3.450911255,
				"y": 1.151348016,
				"z": 0.7956000471,
				"element": "C" 
			},
			{
				"x": -2.9428055588,
				"y": 1.3377637421,
				"z": -0.5189475699,
				"element": "O" 
			},
			{
				"x": -1.8832898434,
				"y": 0.5797825393,
				"z": -0.907097418,
				"element": "C" 
			},
			{
				"x": -1.2521277407,
				"y": -0.3669273973,
				"z": -0.1219573933,
				"element": "C" 
			},
			{
				"x": -0.152920628,
				"y": -1.0972970731,
				"z": -0.6396510536,
				"element": "C" 
			},
			{
				"x": 0.3072086904,
				"y": -0.8593585586,
				"z": -1.9723456281,
				"element": "C" 
			},
			{
				"x": -0.3694693912,
				"y": 0.1227754534,
				"z": -2.7466052867,
				"element": "C" 
			},
			{
				"x": -1.4325410712,
				"y": 0.8230545545,
				"z": -2.2334215261,
				"element": "C" 
			},
			{
				"x": 1.4185336849,
				"y": -1.6207830631,
				"z": -2.4486387587,
				"element": "C" 
			},
			{
				"x": 1.9620488454,
				"y": -1.428301034,
				"z": -3.8412153379,
				"element": "C" 
			},
			{
				"x": 1.9857507485,
				"y": -2.5440401357,
				"z": -1.5941888791,
				"element": "C" 
			},
			{
				"x": 1.4393748493,
				"y": -2.6874655074,
				"z": -0.2972101088,
				"element": "C" 
			},
			{
				"x": 2.1945703293,
				"y": -3.8819306977,
				"z": 0.7690276635,
				"element": "Cl" 
			},
			{
				"x": 0.4326535286,
				"y": -2.0213712605,
				"z": 0.1827001222,
				"element": "N" 
			},
			{
				"x": -3.8111866308,
				"y": 0.1259311348,
				"z": 0.9441265393,
				"element": "H" 
			},
			{
				"x": -2.6919711215,
				"y": 1.3784605732,
				"z": 1.5543999831,
				"element": "H" 
			},
			{
				"x": -4.2848269783,
				"y": 1.8469815393,
				"z": 0.8972903381,
				"element": "H" 
			},
			{
				"x": -1.5573955374,
				"y": -0.588291468,
				"z": 0.8924554003,
				"element": "H" 
			},
			{
				"x": -0.0420643979,
				"y": 0.3244133758,
				"z": -3.7611801955,
				"element": "H" 
			},
			{
				"x": -1.9533374977,
				"y": 1.5737256323,
				"z": -2.8185455005,
				"element": "H" 
			},
			{
				"x": 1.1971389909,
				"y": -1.634243827,
				"z": -4.5983950354,
				"element": "H" 
			},
			{
				"x": 2.8080712216,
				"y": -2.0938826877,
				"z": -4.0265477895,
				"element": "H" 
			},
			{
				"x": 2.3015199853,
				"y": -0.3980259872,
				"z": -3.9965048984,
				"element": "H" 
			},
			{
				"x": 2.8303767779,
				"y": -3.1515178633,
				"z": -1.8970477141,
				"element": "H" 
			}
		],
		 "valence_orbital": [ 
			{
				"type": "occ",
				"energy": -0.30426,
				"method": "rhf"
			},
			{
				"type": "occ",
				"energy": -0.2895,
				"method": "rhf"
			},
			{
				"type": "occ",
				"energy": -0.26775,
				"method": "rhf"
			},
			{
				"type": "occ",
				"energy": -0.23873,
				"method": "rhf"
			},
			{
				"type": "occ",
				"energy": -0.22539,
				"method": "rhf"
			},
			{
				"type": "unocc",
				"energy": -0.05277,
				"method": "rhf"
			},
			{
				"type": "unocc",
				"energy": -0.01641,
				"method": "rhf"
			},
			{
				"type": "unocc",
				"energy": 0.01905,
				"method": "rhf"
			},
			{
				"type": "unocc",
				"energy": 0.04004,
				"method": "rhf"
			},
			{
				"type": "unocc",
				"energy": 0.08796,
				"method": "rhf"
			}
		],
		"cosmo_sigma_profile": { 
			"-0.025": 0.0,
			"-0.024": 0.0,
			"-0.023": 0.0,
			"-0.022": 0.0,
			"-0.021": 0.0,
			"-0.02": 0.0,
			"-0.019": 0.0,
			"-0.018": 0.0,
			"-0.017": 0.0,
			"-0.016": 0.0,
			"-0.015": 0.0,
			"-0.014": 0.0,
			"-0.013": 0.0,
			"-0.012": 0.0,
			"-0.011": 0.0,
			"-0.01": 0.0,
			"-0.009": 0.0,
			"-0.008": 0.121701867582,
			"-0.007": 3.65078500611,
			"-0.006": 15.6482060016,
			"-0.005": 22.3744298178,
			"-0.004": 19.997953917,
			"-0.003": 17.3471636563,
			"-0.002": 15.6403537691,
			"-0.001": 15.815610649,
			"0.0": 18.6212941673,
			"0.001": 19.7018984963,
			"0.002": 23.1943085754,
			"0.003": 20.0646745757,
			"0.004": 15.6786330012,
			"0.005": 10.0948531356,
			"0.006": 5.12463249973,
			"0.007": 3.46343930475,
			"0.008": 2.71547211313,
			"0.009": 2.88631166166,
			"0.01": 2.13519037448,
			"0.011": 1.01376681551,
			"0.012": 0.937565448758,
			"0.013": 0.82950487532,
			"0.014": 0.75315333237,
			"0.015": 0.0806309844156,
			"0.016": 0.0,
			"0.017": 0.0,
			"0.018": 0.0,
			"0.019": 0.0,
			"0.02": 0.0,
			"0.021": 0.0,
			"0.022": 0.0,
			"0.023": 0.0,
			"0.024": 0.0,
			"0.025": 0.0
		}
	}
}
