{
	 "smiles": "OC(=O)C1COC2=C1C=C(Br)C=C2", 
	 "Tm": 388.15, 
	 "num_atms": 20, 
	 "gaussian": { 
		 "optdone": 1, 
		 "sigma_profile": "yes", 
		 "theory": "DFT", 
		 "functional": "B3LYP", 
		 "basiset": "6-31G**", 
		 "properties": { 
			 "R2extent": 6525.8445, 
			 "electric_dipole_moment_norm": 3.07173672537, 
			 "electric_quadrupole_moment_norm": 7.62043058757, 
			 "total_energy": -3144.24771616, 
			 "HOMO_LUMO_gap": 0.19135, 
			 "cosmo_polarized_energy": -13.6, 
			 "cosmo_cavitation_energy": 26.41, 
			 "cosmo_dispersion_energy": -19.97, 
			 "cosmo_repulsion_energy": 1.58, 
			 "cosmo_total_nonelectrostatic_energy": 8.03, 
			 "SMD_solvation_energy": 4.63 
		},
		"coords": [
			{
				"x": 1.1036833776,
				"y": -1.2306632262,
				"z": -1.8522534094,
				"element": "O" 
			},
			{
				"x": -0.0845801057,
				"y": -0.7092405162,
				"z": -1.4925080365,
				"element": "C" 
			},
			{
				"x": -1.1130636476,
				"y": -1.3190652916,
				"z": -1.651922289,
				"element": "O" 
			},
			{
				"x": -0.0825428023,
				"y": 0.723073256,
				"z": -0.9084152143,
				"element": "C" 
			},
			{
				"x": -0.9631720885,
				"y": 0.8056590814,
				"z": 0.3652703671,
				"element": "C" 
			},
			{
				"x": -0.050579788,
				"y": 0.8276140535,
				"z": 1.4944748105,
				"element": "O" 
			},
			{
				"x": 1.1695038108,
				"y": 1.1978747459,
				"z": 1.0245967307,
				"element": "C" 
			},
			{
				"x": 1.2425132137,
				"y": 1.2181806141,
				"z": -0.3740796945,
				"element": "C" 
			},
			{
				"x": 2.4196269783,
				"y": 1.6007983144,
				"z": -1.0129043443,
				"element": "C" 
			},
			{
				"x": 3.5189032097,
				"y": 1.9440602787,
				"z": -0.2159217644,
				"element": "C" 
			},
			{
				"x": 5.1463408922,
				"y": 2.4855794062,
				"z": -1.0580349506,
				"element": "Br" 
			},
			{
				"x": 3.44718393,
				"y": 1.9048503158,
				"z": 1.1777361831,
				"element": "C" 
			},
			{
				"x": 2.2614688275,
				"y": 1.5312295728,
				"z": 1.8192019474,
				"element": "C" 
			},
			{
				"x": 1.8232420293,
				"y": -0.6462662369,
				"z": -1.5611111067,
				"element": "H" 
			},
			{
				"x": -0.4921083701,
				"y": 1.3591925279,
				"z": -1.7009793821,
				"element": "H" 
			},
			{
				"x": -1.5469169065,
				"y": 1.7319971447,
				"z": 0.3860517361,
				"element": "H" 
			},
			{
				"x": -1.6283612324,
				"y": -0.0514835876,
				"z": 0.4687333468,
				"element": "H" 
			},
			{
				"x": 2.4906360892,
				"y": 1.6540679925,
				"z": -2.0949520728,
				"element": "H" 
			},
			{
				"x": 4.3157540844,
				"y": 2.1773192105,
				"z": 1.766280836,
				"element": "H" 
			},
			{
				"x": 2.1905684985,
				"y": 1.508922344,
				"z": 2.900836307,
				"element": "H" 
			}
		],
		 "valence_orbital": [ 
			{
				"type": "occ",
				"energy": -0.30478,
				"method": "rhf"
			},
			{
				"type": "occ",
				"energy": -0.2981,
				"method": "rhf"
			},
			{
				"type": "occ",
				"energy": -0.29443,
				"method": "rhf"
			},
			{
				"type": "occ",
				"energy": -0.27192,
				"method": "rhf"
			},
			{
				"type": "occ",
				"energy": -0.23252,
				"method": "rhf"
			},
			{
				"type": "unocc",
				"energy": -0.04117,
				"method": "rhf"
			},
			{
				"type": "unocc",
				"energy": -0.02228,
				"method": "rhf"
			},
			{
				"type": "unocc",
				"energy": -0.00519,
				"method": "rhf"
			},
			{
				"type": "unocc",
				"energy": -0.00074,
				"method": "rhf"
			},
			{
				"type": "unocc",
				"energy": 0.08095,
				"method": "rhf"
			}
		],
		"cosmo_sigma_profile": { 
			"-0.025": 0.0,
			"-0.024": 0.0,
			"-0.023": 0.0,
			"-0.022": 0.0,
			"-0.021": 0.0,
			"-0.02": 0.0,
			"-0.019": 0.0,
			"-0.018": 0.0,
			"-0.017": 0.0,
			"-0.016": 0.0,
			"-0.015": 0.0192816013199,
			"-0.014": 0.405564920042,
			"-0.013": 0.844860701278,
			"-0.012": 1.77520532515,
			"-0.011": 1.79683028292,
			"-0.01": 1.97375816596,
			"-0.009": 5.25122304635,
			"-0.008": 7.79943119281,
			"-0.007": 10.835220648,
			"-0.006": 13.4743322837,
			"-0.005": 11.2464608548,
			"-0.004": 12.0244022448,
			"-0.003": 9.83292128318,
			"-0.002": 10.4753444943,
			"-0.001": 9.53996791407,
			"0.0": 12.0097764828,
			"0.001": 14.1992069739,
			"0.002": 19.4239477949,
			"0.003": 15.7401866794,
			"0.004": 14.2517580232,
			"0.005": 9.64361504041,
			"0.006": 3.55707064069,
			"0.007": 3.33634734156,
			"0.008": 4.34733165938,
			"0.009": 5.09799579589,
			"0.01": 6.07047903381,
			"0.011": 5.14403757946,
			"0.012": 3.85565632385,
			"0.013": 0.825048841033,
			"0.014": 0.0,
			"0.015": 0.0,
			"0.016": 0.0,
			"0.017": 0.0,
			"0.018": 0.0,
			"0.019": 0.0,
			"0.02": 0.0,
			"0.021": 0.0,
			"0.022": 0.0,
			"0.023": 0.0,
			"0.024": 0.0,
			"0.025": 0.0
		}
	}
}
