{
	 "smiles": "OC(O)C(Cl)(Cl)Cl", 
	 "Tm": 330.15, 
	 "num_atms": 10, 
	 "gaussian": { 
		 "optdone": 1, 
		 "sigma_profile": "yes", 
		 "theory": "DFT", 
		 "functional": "B3LYP", 
		 "basiset": "6-31G**", 
		 "properties": { 
			 "R2extent": 3753.3206, 
			 "electric_dipole_moment_norm": 2.23064758759, 
			 "electric_quadrupole_moment_norm": 8.38530266061, 
			 "total_energy": -1609.01779888, 
			 "HOMO_LUMO_gap": 0.25779, 
			 "cosmo_polarized_energy": -9.74, 
			 "cosmo_cavitation_energy": 19.0, 
			 "cosmo_dispersion_energy": -14.5, 
			 "cosmo_repulsion_energy": 1.23, 
			 "cosmo_total_nonelectrostatic_energy": 5.72, 
			 "SMD_solvation_energy": 2.57 
		},
		"coords": [
			{
				"x": 0.3116768238,
				"y": 0.6191937103,
				"z": -0.6145664346,
				"element": "O" 
			},
			{
				"x": -0.2738485552,
				"y": 1.2544955631,
				"z": -1.70349284,
				"element": "C" 
			},
			{
				"x": -1.5737818165,
				"y": 0.8122187064,
				"z": -1.9536831918,
				"element": "O" 
			},
			{
				"x": -0.3605405985,
				"y": 2.8041810957,
				"z": -1.5067327221,
				"element": "C" 
			},
			{
				"x": -1.3790773274,
				"y": 3.1727615903,
				"z": -0.0635243028,
				"element": "Cl" 
			},
			{
				"x": -1.0691074863,
				"y": 3.5704641694,
				"z": -2.9623752359,
				"element": "Cl" 
			},
			{
				"x": 1.2954859371,
				"y": 3.443198568,
				"z": -1.2439528909,
				"element": "Cl" 
			},
			{
				"x": -0.2681287531,
				"y": 0.7585323066,
				"z": 0.1514119163,
				"element": "H" 
			},
			{
				"x": 0.4040762841,
				"y": 1.0883626683,
				"z": -2.5504438914,
				"element": "H" 
			},
			{
				"x": -1.5240545079,
				"y": -0.1395083782,
				"z": -2.1162404068,
				"element": "H" 
			}
		],
		 "valence_orbital": [ 
			{
				"type": "occ",
				"energy": -0.32857,
				"method": "rhf"
			},
			{
				"type": "occ",
				"energy": -0.32723,
				"method": "rhf"
			},
			{
				"type": "occ",
				"energy": -0.32304,
				"method": "rhf"
			},
			{
				"type": "occ",
				"energy": -0.30985,
				"method": "rhf"
			},
			{
				"type": "occ",
				"energy": -0.29932,
				"method": "rhf"
			},
			{
				"type": "unocc",
				"energy": -0.04153,
				"method": "rhf"
			},
			{
				"type": "unocc",
				"energy": -0.00329,
				"method": "rhf"
			},
			{
				"type": "unocc",
				"energy": 0.00116,
				"method": "rhf"
			},
			{
				"type": "unocc",
				"energy": 0.07029,
				"method": "rhf"
			},
			{
				"type": "unocc",
				"energy": 0.08689,
				"method": "rhf"
			}
		],
		"cosmo_sigma_profile": { 
			"-0.025": 0.0,
			"-0.024": 0.0,
			"-0.023": 0.0,
			"-0.022": 0.0,
			"-0.021": 0.0,
			"-0.02": 0.0,
			"-0.019": 0.00941428212916,
			"-0.018": 0.61296150466,
			"-0.017": 1.03029173967,
			"-0.016": 1.3482795577,
			"-0.015": 1.65212956039,
			"-0.014": 1.4012799592,
			"-0.013": 1.10841211768,
			"-0.012": 1.40436566248,
			"-0.011": 1.98555820324,
			"-0.01": 1.43982170379,
			"-0.009": 3.13882022282,
			"-0.008": 3.68465263883,
			"-0.007": 2.54487913087,
			"-0.006": 3.88346037426,
			"-0.005": 3.17571255186,
			"-0.004": 6.89313598832,
			"-0.003": 5.58719023298,
			"-0.002": 9.05524747824,
			"-0.001": 8.83096884647,
			"0.0": 10.2209317042,
			"0.001": 11.9383634927,
			"0.002": 17.6351820153,
			"0.003": 27.3442554069,
			"0.004": 7.29469361854,
			"0.005": 2.94451628186,
			"0.006": 3.3484352355,
			"0.007": 3.10278759839,
			"0.008": 3.42659943641,
			"0.009": 3.33724958413,
			"0.01": 3.62912202644,
			"0.011": 2.75265403039,
			"0.012": 0.750101321626,
			"0.013": 0.0,
			"0.014": 0.0,
			"0.015": 0.0,
			"0.016": 0.0,
			"0.017": 0.0,
			"0.018": 0.0,
			"0.019": 0.0,
			"0.02": 0.0,
			"0.021": 0.0,
			"0.022": 0.0,
			"0.023": 0.0,
			"0.024": 0.0,
			"0.025": 0.0
		}
	}
}
