{
	 "smiles": "CC1=CC(=O)NC(=S)N1", 
	 "Tm": 591.15, 
	 "num_atms": 15, 
	 "gaussian": { 
		 "optdone": 1, 
		 "sigma_profile": "yes", 
		 "theory": "DFT", 
		 "functional": "B3LYP", 
		 "basiset": "6-31G**", 
		 "properties": { 
			 "R2extent": 1945.3416, 
			 "electric_dipole_moment_norm": 5.37975505855, 
			 "electric_quadrupole_moment_norm": 8.29235341263, 
			 "total_energy": -777.096706945, 
			 "HOMO_LUMO_gap": 0.1759, 
			 "cosmo_polarized_energy": -18.33, 
			 "cosmo_cavitation_energy": 21.18, 
			 "cosmo_dispersion_energy": -16.29, 
			 "cosmo_repulsion_energy": 1.3, 
			 "cosmo_total_nonelectrostatic_energy": 6.19, 
			 "SMD_solvation_energy": 3.63 
		},
		"coords": [
			{
				"x": 1.2306001094,
				"y": 1.2199036031,
				"z": -0.7070412786,
				"element": "C" 
			},
			{
				"x": 0.0989935754,
				"y": 0.5921491639,
				"z": 0.0519163686,
				"element": "C" 
			},
			{
				"x": -1.214360585,
				"y": 0.7730893011,
				"z": -0.2299753543,
				"element": "C" 
			},
			{
				"x": -2.2443425816,
				"y": 0.1206039877,
				"z": 0.5643013161,
				"element": "C" 
			},
			{
				"x": -3.4498105995,
				"y": 0.2084063112,
				"z": 0.4064604256,
				"element": "O" 
			},
			{
				"x": -1.7243337525,
				"y": -0.6822622348,
				"z": 1.6113839865,
				"element": "N" 
			},
			{
				"x": -0.4119334988,
				"y": -0.8925458951,
				"z": 1.9308994852,
				"element": "C" 
			},
			{
				"x": 0.1057246958,
				"y": -1.8587044248,
				"z": 3.1867899482,
				"element": "S" 
			},
			{
				"x": 0.4664475975,
				"y": -0.2231118866,
				"z": 1.1085009388,
				"element": "N" 
			},
			{
				"x": 1.8840961074,
				"y": 0.4520886514,
				"z": -1.137032324,
				"element": "H" 
			},
			{
				"x": 0.8504895121,
				"y": 1.8425341471,
				"z": -1.5176226091,
				"element": "H" 
			},
			{
				"x": 1.842088961,
				"y": 1.8457638006,
				"z": -0.0468391888,
				"element": "H" 
			},
			{
				"x": -1.5344503401,
				"y": 1.4035369345,
				"z": -1.0482496517,
				"element": "H" 
			},
			{
				"x": -2.4106235833,
				"y": -1.1541287455,
				"z": 2.1885936115,
				"element": "H" 
			},
			{
				"x": 1.4431143821,
				"y": -0.3654227137,
				"z": 1.328214326,
				"element": "H" 
			}
		],
		 "valence_orbital": [ 
			{
				"type": "occ",
				"energy": -0.34393,
				"method": "rhf"
			},
			{
				"type": "occ",
				"energy": -0.27553,
				"method": "rhf"
			},
			{
				"type": "occ",
				"energy": -0.27074,
				"method": "rhf"
			},
			{
				"type": "occ",
				"energy": -0.23157,
				"method": "rhf"
			},
			{
				"type": "occ",
				"energy": -0.22783,
				"method": "rhf"
			},
			{
				"type": "unocc",
				"energy": -0.05193,
				"method": "rhf"
			},
			{
				"type": "unocc",
				"energy": -0.03442,
				"method": "rhf"
			},
			{
				"type": "unocc",
				"energy": 0.04474,
				"method": "rhf"
			},
			{
				"type": "unocc",
				"energy": 0.08227,
				"method": "rhf"
			},
			{
				"type": "unocc",
				"energy": 0.0974,
				"method": "rhf"
			}
		],
		"cosmo_sigma_profile": { 
			"-0.025": 0.0,
			"-0.024": 0.0,
			"-0.023": 0.0,
			"-0.022": 0.0,
			"-0.021": 0.0,
			"-0.02": 0.0,
			"-0.019": 0.0,
			"-0.018": 0.0,
			"-0.017": 0.231880998333,
			"-0.016": 1.11793852398,
			"-0.015": 1.80945353496,
			"-0.014": 2.19269633986,
			"-0.013": 2.12669279247,
			"-0.012": 1.31738827455,
			"-0.011": 1.80499761492,
			"-0.01": 2.03379451653,
			"-0.009": 1.86463729841,
			"-0.008": 5.0297617889,
			"-0.007": 9.01841346493,
			"-0.006": 9.90075489436,
			"-0.005": 8.82705805242,
			"-0.004": 11.4103876928,
			"-0.003": 14.1861748294,
			"-0.002": 14.793223975,
			"-0.001": 8.09457018006,
			"0.0": 6.01779561941,
			"0.001": 6.00611872408,
			"0.002": 4.69327485587,
			"0.003": 3.54393020798,
			"0.004": 4.71827337127,
			"0.005": 4.13851470322,
			"0.006": 4.84172351449,
			"0.007": 5.14195402825,
			"0.008": 6.5472316569,
			"0.009": 8.39007123117,
			"0.01": 7.26442880266,
			"0.011": 4.80537527702,
			"0.012": 4.220271609,
			"0.013": 4.89151353812,
			"0.014": 0.692595406544,
			"0.015": 0.0,
			"0.016": 0.0,
			"0.017": 0.0,
			"0.018": 0.0,
			"0.019": 0.0,
			"0.02": 0.0,
			"0.021": 0.0,
			"0.022": 0.0,
			"0.023": 0.0,
			"0.024": 0.0,
			"0.025": 0.0
		}
	}
}
