{
	 "smiles": "CC1=C(N=C(N)S1)C1=C(C)C=CC(C)=C1", 
	 "Tm": 366.15, 
	 "num_atms": 29, 
	 "gaussian": { 
		 "optdone": 1, 
		 "sigma_profile": "yes", 
		 "theory": "DFT", 
		 "functional": "B3LYP", 
		 "basiset": "6-31G**", 
		 "properties": { 
			 "R2extent": 4364.1137, 
			 "electric_dipole_moment_norm": 1.50961558352, 
			 "electric_quadrupole_moment_norm": 11.1570165174, 
			 "total_energy": -973.42492107, 
			 "HOMO_LUMO_gap": 0.18478, 
			 "cosmo_polarized_energy": -10.81, 
			 "cosmo_cavitation_energy": 33.49, 
			 "cosmo_dispersion_energy": -24.1, 
			 "cosmo_repulsion_energy": 1.88, 
			 "cosmo_total_nonelectrostatic_energy": 11.27, 
			 "SMD_solvation_energy": 4.27 
		},
		"coords": [
			{
				"x": 1.6095979768,
				"y": 2.2889405674,
				"z": 0.1507591103,
				"element": "C" 
			},
			{
				"x": 1.4364196357,
				"y": 0.8270286168,
				"z": 0.4295048922,
				"element": "C" 
			},
			{
				"x": 0.8102496498,
				"y": -0.1505056925,
				"z": -0.3002460812,
				"element": "C" 
			},
			{
				"x": 0.8613720744,
				"y": -1.4376405624,
				"z": 0.2289381197,
				"element": "N" 
			},
			{
				"x": 1.5131279623,
				"y": -1.4613457724,
				"z": 1.3502132067,
				"element": "C" 
			},
			{
				"x": 1.7748142847,
				"y": -2.6105130638,
				"z": 2.0685253036,
				"element": "N" 
			},
			{
				"x": 2.1459401083,
				"y": 0.1030637724,
				"z": 1.8738599811,
				"element": "S" 
			},
			{
				"x": 0.0736551337,
				"y": 0.0734851837,
				"z": -1.5723023448,
				"element": "C" 
			},
			{
				"x": 0.3855700363,
				"y": -0.6572707196,
				"z": -2.7422281477,
				"element": "C" 
			},
			{
				"x": 1.5007293676,
				"y": -1.6750064315,
				"z": -2.773721288,
				"element": "C" 
			},
			{
				"x": -0.3645333403,
				"y": -0.399802549,
				"z": -3.8939201635,
				"element": "C" 
			},
			{
				"x": -1.3904449709,
				"y": 0.5456022257,
				"z": -3.9109709141,
				"element": "C" 
			},
			{
				"x": -1.7049998595,
				"y": 1.2764888975,
				"z": -2.7621332648,
				"element": "C" 
			},
			{
				"x": -2.7973007245,
				"y": 2.3206223271,
				"z": -2.7680506435,
				"element": "C" 
			},
			{
				"x": -0.9624575346,
				"y": 1.0175537774,
				"z": -1.6040426587,
				"element": "C" 
			},
			{
				"x": 1.063284292,
				"y": 2.9160110329,
				"z": 0.866185655,
				"element": "H" 
			},
			{
				"x": 2.663898001,
				"y": 2.5856994418,
				"z": 0.1959056822,
				"element": "H" 
			},
			{
				"x": 1.2363625559,
				"y": 2.5191110623,
				"z": -0.8494440906,
				"element": "H" 
			},
			{
				"x": 1.8283853224,
				"y": -2.5096244779,
				"z": 3.072573586,
				"element": "H" 
			},
			{
				"x": 1.1961162138,
				"y": -3.3869871142,
				"z": 1.7734262461,
				"element": "H" 
			},
			{
				"x": 1.6284387894,
				"y": -2.0800905208,
				"z": -3.7815127647,
				"element": "H" 
			},
			{
				"x": 2.4535725377,
				"y": -1.2311094353,
				"z": -2.4629469669,
				"element": "H" 
			},
			{
				"x": 1.302891023,
				"y": -2.5000065512,
				"z": -2.0838228755,
				"element": "H" 
			},
			{
				"x": -0.137274715,
				"y": -0.9537237015,
				"z": -4.8016963102,
				"element": "H" 
			},
			{
				"x": -1.952330268,
				"y": 0.7122240012,
				"z": -4.8271091249,
				"element": "H" 
			},
			{
				"x": -3.5700180688,
				"y": 2.0865400132,
				"z": -3.5067251691,
				"element": "H" 
			},
			{
				"x": -3.2798252269,
				"y": 2.4016734349,
				"z": -1.7890088275,
				"element": "H" 
			},
			{
				"x": -2.4006320477,
				"y": 3.3133136419,
				"z": -3.0170142074,
				"element": "H" 
			},
			{
				"x": -1.2084082086,
				"y": 1.547868596,
				"z": -0.6873959399,
				"element": "H" 
			}
		],
		 "valence_orbital": [ 
			{
				"type": "occ",
				"energy": -0.26843,
				"method": "rhf"
			},
			{
				"type": "occ",
				"energy": -0.26485,
				"method": "rhf"
			},
			{
				"type": "occ",
				"energy": -0.23957,
				"method": "rhf"
			},
			{
				"type": "occ",
				"energy": -0.22401,
				"method": "rhf"
			},
			{
				"type": "occ",
				"energy": -0.19771,
				"method": "rhf"
			},
			{
				"type": "unocc",
				"energy": -0.01293,
				"method": "rhf"
			},
			{
				"type": "unocc",
				"energy": 0.01058,
				"method": "rhf"
			},
			{
				"type": "unocc",
				"energy": 0.01262,
				"method": "rhf"
			},
			{
				"type": "unocc",
				"energy": 0.01805,
				"method": "rhf"
			},
			{
				"type": "unocc",
				"energy": 0.07271,
				"method": "rhf"
			}
		],
		"cosmo_sigma_profile": { 
			"-0.025": 0.0,
			"-0.024": 0.0,
			"-0.023": 0.0,
			"-0.022": 0.0,
			"-0.021": 0.0,
			"-0.02": 0.0,
			"-0.019": 0.0,
			"-0.018": 0.0,
			"-0.017": 0.0,
			"-0.016": 0.0,
			"-0.015": 0.0942041938649,
			"-0.014": 1.42153429446,
			"-0.013": 2.07909519595,
			"-0.012": 3.29189275339,
			"-0.011": 2.47599064611,
			"-0.01": 2.61876899828,
			"-0.009": 1.6842144173,
			"-0.008": 1.92703701188,
			"-0.007": 1.83964538065,
			"-0.006": 1.40715177913,
			"-0.005": 7.1354872062,
			"-0.004": 20.900667391,
			"-0.003": 23.8545954038,
			"-0.002": 25.0848198393,
			"-0.001": 26.5641328215,
			"0.0": 28.8478168885,
			"0.001": 22.5357693939,
			"0.002": 18.9777457626,
			"0.003": 18.3756328478,
			"0.004": 15.6226506938,
			"0.005": 12.5299369356,
			"0.006": 11.7822805756,
			"0.007": 5.79602416271,
			"0.008": 2.25567833385,
			"0.009": 1.67804769835,
			"0.01": 1.22791968085,
			"0.011": 2.28184027363,
			"0.012": 1.04125572339,
			"0.013": 0.718562234368,
			"0.014": 0.585920925496,
			"0.015": 0.317114904836,
			"0.016": 0.0,
			"0.017": 0.0,
			"0.018": 0.0,
			"0.019": 0.0,
			"0.02": 0.0,
			"0.021": 0.0,
			"0.022": 0.0,
			"0.023": 0.0,
			"0.024": 0.0,
			"0.025": 0.0
		}
	}
}
