{
	 "smiles": "CCCCCCCCCCCCCCCCCC1=CC=CC=C1", 
	 "Tm": 305.15, 
	 "num_atms": 63, 
	 "gaussian": { 
		 "optdone": 1, 
		 "sigma_profile": "yes", 
		 "theory": "DFT", 
		 "functional": "B3LYP", 
		 "basiset": "6-31G**", 
		 "properties": { 
			 "R2extent": 14779.1989, 
			 "electric_dipole_moment_norm": 0.245387917388, 
			 "electric_quadrupole_moment_norm": 4.95039426208, 
			 "total_energy": -900.603104017, 
			 "HOMO_LUMO_gap": 0.23544, 
			 "cosmo_polarized_energy": -3.64, 
			 "cosmo_cavitation_energy": 60.21, 
			 "cosmo_dispersion_energy": -38.97, 
			 "cosmo_repulsion_energy": 3.15, 
			 "cosmo_total_nonelectrostatic_energy": 24.38, 
			 "SMD_solvation_energy": 7.7 
		},
		"coords": [
			{
				"x": -2.6016819567,
				"y": 4.5712562988,
				"z": 2.273476285,
				"element": "C" 
			},
			{
				"x": -3.0799241979,
				"y": 5.8652702697,
				"z": 1.604935727,
				"element": "C" 
			},
			{
				"x": -2.3136817047,
				"y": 6.2795107273,
				"z": 0.3356586763,
				"element": "C" 
			},
			{
				"x": -2.4253393747,
				"y": 5.2956106192,
				"z": -0.8529820615,
				"element": "C" 
			},
			{
				"x": -1.2804675383,
				"y": 4.2711247039,
				"z": -0.9874014886,
				"element": "C" 
			},
			{
				"x": 0.0329575386,
				"y": 4.8863720178,
				"z": -1.4930756817,
				"element": "C" 
			},
			{
				"x": 1.2473946816,
				"y": 3.9412056272,
				"z": -1.5438736332,
				"element": "C" 
			},
			{
				"x": 1.1325289616,
				"y": 2.7409220749,
				"z": -2.5108180262,
				"element": "C" 
			},
			{
				"x": 0.5993909023,
				"y": 1.4426873889,
				"z": -1.8848783866,
				"element": "C" 
			},
			{
				"x": 0.4776924385,
				"y": 0.2956123563,
				"z": -2.9002325386,
				"element": "C" 
			},
			{
				"x": -0.0240303709,
				"y": -1.0463796874,
				"z": -2.3208319836,
				"element": "C" 
			},
			{
				"x": 1.0643302716,
				"y": -2.0351324398,
				"z": -1.8653114421,
				"element": "C" 
			},
			{
				"x": 1.9532360713,
				"y": -1.5774728326,
				"z": -0.7003552107,
				"element": "C" 
			},
			{
				"x": 2.9267566612,
				"y": -2.6718138799,
				"z": -0.2397126723,
				"element": "C" 
			},
			{
				"x": 3.9183952814,
				"y": -2.2322715213,
				"z": 0.8528924696,
				"element": "C" 
			},
			{
				"x": 3.334579123,
				"y": -1.8160076644,
				"z": 2.2167169583,
				"element": "C" 
			},
			{
				"x": 2.7872713129,
				"y": -2.957803761,
				"z": 3.1044920221,
				"element": "C" 
			},
			{
				"x": 1.454341049,
				"y": -3.557184031,
				"z": 2.6969892622,
				"element": "C" 
			},
			{
				"x": 0.2895971844,
				"y": -2.7741753266,
				"z": 2.6857426222,
				"element": "C" 
			},
			{
				"x": -0.9426683127,
				"y": -3.3218973077,
				"z": 2.3290881278,
				"element": "C" 
			},
			{
				"x": -1.0373659394,
				"y": -4.6714343596,
				"z": 1.9806110233,
				"element": "C" 
			},
			{
				"x": 0.1096223022,
				"y": -5.4655117833,
				"z": 1.9975132584,
				"element": "C" 
			},
			{
				"x": 1.341045153,
				"y": -4.9111771019,
				"z": 2.3543492265,
				"element": "C" 
			},
			{
				"x": -3.1569557984,
				"y": 4.3806532405,
				"z": 3.1982288329,
				"element": "H" 
			},
			{
				"x": -2.7412544571,
				"y": 3.701081609,
				"z": 1.624063809,
				"element": "H" 
			},
			{
				"x": -1.5375107171,
				"y": 4.6263008083,
				"z": 2.5313047958,
				"element": "H" 
			},
			{
				"x": -4.146420441,
				"y": 5.7693965367,
				"z": 1.3577851138,
				"element": "H" 
			},
			{
				"x": -3.01253895,
				"y": 6.6850560565,
				"z": 2.3322561498,
				"element": "H" 
			},
			{
				"x": -2.695215546,
				"y": 7.2599242499,
				"z": 0.0244939614,
				"element": "H" 
			},
			{
				"x": -1.2572018016,
				"y": 6.4418858174,
				"z": 0.5894167404,
				"element": "H" 
			},
			{
				"x": -2.4778445693,
				"y": 5.8653495996,
				"z": -1.7903404946,
				"element": "H" 
			},
			{
				"x": -3.382285352,
				"y": 4.7612384337,
				"z": -0.7805551461,
				"element": "H" 
			},
			{
				"x": -1.5998114567,
				"y": 3.4844991384,
				"z": -1.6820676446,
				"element": "H" 
			},
			{
				"x": -1.103777065,
				"y": 3.7752464812,
				"z": -0.0244490592,
				"element": "H" 
			},
			{
				"x": 0.2973505281,
				"y": 5.7433268761,
				"z": -0.8592280747,
				"element": "H" 
			},
			{
				"x": -0.1365340399,
				"y": 5.2999975443,
				"z": -2.4980656737,
				"element": "H" 
			},
			{
				"x": 2.1171483689,
				"y": 4.5442179299,
				"z": -1.8335685091,
				"element": "H" 
			},
			{
				"x": 1.4664048453,
				"y": 3.5728871551,
				"z": -0.5313922786,
				"element": "H" 
			},
			{
				"x": 0.503275592,
				"y": 3.0219965947,
				"z": -3.3679459057,
				"element": "H" 
			},
			{
				"x": 2.1240267943,
				"y": 2.5270765966,
				"z": -2.931989199,
				"element": "H" 
			},
			{
				"x": -0.3839986814,
				"y": 1.6162630909,
				"z": -1.4304702349,
				"element": "H" 
			},
			{
				"x": 1.2622287524,
				"y": 1.1509273907,
				"z": -1.0608366967,
				"element": "H" 
			},
			{
				"x": 1.4465136975,
				"y": 0.1394069595,
				"z": -3.3968278979,
				"element": "H" 
			},
			{
				"x": -0.2096719753,
				"y": 0.6213543754,
				"z": -3.6925831767,
				"element": "H" 
			},
			{
				"x": -0.7098790847,
				"y": -0.8481741286,
				"z": -1.48485294,
				"element": "H" 
			},
			{
				"x": -0.6270694062,
				"y": -1.5549099395,
				"z": -3.083622342,
				"element": "H" 
			},
			{
				"x": 1.7023622449,
				"y": -2.2807659144,
				"z": -2.7268952923,
				"element": "H" 
			},
			{
				"x": 0.5737287859,
				"y": -2.9748566011,
				"z": -1.5768260865,
				"element": "H" 
			},
			{
				"x": 1.3126192143,
				"y": -1.2716282282,
				"z": 0.1368905023,
				"element": "H" 
			},
			{
				"x": 2.5285482337,
				"y": -0.6887635552,
				"z": -0.9933432277,
				"element": "H" 
			},
			{
				"x": 2.3552790149,
				"y": -3.5441592307,
				"z": 0.0963377481,
				"element": "H" 
			},
			{
				"x": 3.5108241941,
				"y": -3.0078250758,
				"z": -1.1081236087,
				"element": "H" 
			},
			{
				"x": 4.502229503,
				"y": -1.3857429682,
				"z": 0.464873539,
				"element": "H" 
			},
			{
				"x": 4.6434257645,
				"y": -3.0412967297,
				"z": 1.0197321824,
				"element": "H" 
			},
			{
				"x": 2.5583294829,
				"y": -1.0530952545,
				"z": 2.0798387661,
				"element": "H" 
			},
			{
				"x": 4.135407315,
				"y": -1.3235710686,
				"z": 2.7831558311,
				"element": "H" 
			},
			{
				"x": 3.539095814,
				"y": -3.7550139329,
				"z": 3.1605323542,
				"element": "H" 
			},
			{
				"x": 2.6875749226,
				"y": -2.5653278792,
				"z": 4.1257035572,
				"element": "H" 
			},
			{
				"x": 0.3475283349,
				"y": -1.7249015111,
				"z": 2.9659762539,
				"element": "H" 
			},
			{
				"x": -1.8310912833,
				"y": -2.6961824254,
				"z": 2.328152104,
				"element": "H" 
			},
			{
				"x": -1.9966138633,
				"y": -5.099423262,
				"z": 1.7039424192,
				"element": "H" 
			},
			{
				"x": 0.0481599583,
				"y": -6.5179133902,
				"z": 1.7340635462,
				"element": "H" 
			},
			{
				"x": 2.2295335896,
				"y": -5.5381457766,
				"z": 2.3662427486,
				"element": "H" 
			}
		],
		 "valence_orbital": [ 
			{
				"type": "occ",
				"energy": -0.29628,
				"method": "rhf"
			},
			{
				"type": "occ",
				"energy": -0.29148,
				"method": "rhf"
			},
			{
				"type": "occ",
				"energy": -0.28793,
				"method": "rhf"
			},
			{
				"type": "occ",
				"energy": -0.24527,
				"method": "rhf"
			},
			{
				"type": "occ",
				"energy": -0.23485,
				"method": "rhf"
			},
			{
				"type": "unocc",
				"energy": 0.00059,
				"method": "rhf"
			},
			{
				"type": "unocc",
				"energy": 0.00433,
				"method": "rhf"
			},
			{
				"type": "unocc",
				"energy": 0.08324,
				"method": "rhf"
			},
			{
				"type": "unocc",
				"energy": 0.08802,
				"method": "rhf"
			},
			{
				"type": "unocc",
				"energy": 0.09492,
				"method": "rhf"
			}
		],
		"cosmo_sigma_profile": { 
			"-0.025": 0.0,
			"-0.024": 0.0,
			"-0.023": 0.0,
			"-0.022": 0.0,
			"-0.021": 0.0,
			"-0.02": 0.0,
			"-0.019": 0.0,
			"-0.018": 0.0,
			"-0.017": 0.0,
			"-0.016": 0.0,
			"-0.015": 0.0,
			"-0.014": 0.0,
			"-0.013": 0.0,
			"-0.012": 0.0,
			"-0.011": 0.0,
			"-0.01": 0.0,
			"-0.009": 0.0,
			"-0.008": 0.0,
			"-0.007": 0.0,
			"-0.006": 0.711575370946,
			"-0.005": 7.71180246288,
			"-0.004": 12.5509776027,
			"-0.003": 18.7230243019,
			"-0.002": 47.4943357726,
			"-0.001": 96.3693079157,
			"0.0": 111.328488197,
			"0.001": 87.2049600164,
			"0.002": 44.7220956549,
			"0.003": 9.92656073311,
			"0.004": 8.50628008653,
			"0.005": 9.23577472839,
			"0.006": 6.91061280742,
			"0.007": 1.85849757918,
			"0.008": 0.0,
			"0.009": 0.0,
			"0.01": 0.0,
			"0.011": 0.0,
			"0.012": 0.0,
			"0.013": 0.0,
			"0.014": 0.0,
			"0.015": 0.0,
			"0.016": 0.0,
			"0.017": 0.0,
			"0.018": 0.0,
			"0.019": 0.0,
			"0.02": 0.0,
			"0.021": 0.0,
			"0.022": 0.0,
			"0.023": 0.0,
			"0.024": 0.0,
			"0.025": 0.0
		}
	}
}
