{
	 "smiles": "CCCS(=O)(=O)N1CCC(CC1)C(O)=O", 
	 "Tm": 420.15, 
	 "num_atms": 32, 
	 "gaussian": { 
		 "optdone": 1, 
		 "sigma_profile": "yes", 
		 "theory": "DFT", 
		 "functional": "B3LYP", 
		 "basiset": "6-31G**", 
		 "properties": { 
			 "R2extent": 4784.6269, 
			 "electric_dipole_moment_norm": 0.583561316401, 
			 "electric_quadrupole_moment_norm": 29.8985204258, 
			 "total_energy": -1106.99514399, 
			 "HOMO_LUMO_gap": 0.26178, 
			 "cosmo_polarized_energy": -24.02, 
			 "cosmo_cavitation_energy": 34.72, 
			 "cosmo_dispersion_energy": -24.67, 
			 "cosmo_repulsion_energy": 1.91, 
			 "cosmo_total_nonelectrostatic_energy": 11.96, 
			 "SMD_solvation_energy": 5.28 
		},
		"coords": [
			{
				"x": -0.0207092953,
				"y": -2.0940896239,
				"z": 4.5629420335,
				"element": "C" 
			},
			{
				"x": 0.5937476363,
				"y": -1.2134347207,
				"z": 3.4685134481,
				"element": "C" 
			},
			{
				"x": 0.0786564139,
				"y": 0.2228041669,
				"z": 3.5469804802,
				"element": "C" 
			},
			{
				"x": 0.8105084709,
				"y": 1.3354001959,
				"z": 2.3154079351,
				"element": "S" 
			},
			{
				"x": 0.2573094965,
				"y": 2.6757420518,
				"z": 2.5532050721,
				"element": "O" 
			},
			{
				"x": 2.2626356272,
				"y": 1.1191086161,
				"z": 2.2944760926,
				"element": "O" 
			},
			{
				"x": 0.1975179978,
				"y": 0.6972973064,
				"z": 0.8527432222,
				"element": "N" 
			},
			{
				"x": -1.1144248642,
				"y": 1.2360662342,
				"z": 0.442766462,
				"element": "C" 
			},
			{
				"x": -1.7244558128,
				"y": 0.3347858,
				"z": -0.6336647474,
				"element": "C" 
			},
			{
				"x": -0.7782936093,
				"y": 0.1726105896,
				"z": -1.8297555653,
				"element": "C" 
			},
			{
				"x": 0.6125003908,
				"y": -0.3019518841,
				"z": -1.3444833386,
				"element": "C" 
			},
			{
				"x": 1.1633153796,
				"y": 0.6264821636,
				"z": -0.2591033958,
				"element": "C" 
			},
			{
				"x": -1.3563356161,
				"y": -0.7910905451,
				"z": -2.8650434755,
				"element": "C" 
			},
			{
				"x": -0.7059885085,
				"y": -0.8270798912,
				"z": -4.0605041911,
				"element": "O" 
			},
			{
				"x": -2.3066724954,
				"y": -1.5084508309,
				"z": -2.6765547042,
				"element": "O" 
			},
			{
				"x": 0.3597578244,
				"y": -3.1174930931,
				"z": 4.4926459005,
				"element": "H" 
			},
			{
				"x": 0.2211806602,
				"y": -1.7170298592,
				"z": 5.5625787285,
				"element": "H" 
			},
			{
				"x": -1.1120697496,
				"y": -2.1383262531,
				"z": 4.4776088116,
				"element": "H" 
			},
			{
				"x": 1.6844526582,
				"y": -1.2024079923,
				"z": 3.5585886607,
				"element": "H" 
			},
			{
				"x": 0.3578299714,
				"y": -1.621596592,
				"z": 2.480033223,
				"element": "H" 
			},
			{
				"x": -1.0060794235,
				"y": 0.2861130437,
				"z": 3.4159236541,
				"element": "H" 
			},
			{
				"x": 0.3266128775,
				"y": 0.6979926665,
				"z": 4.5020491812,
				"element": "H" 
			},
			{
				"x": -1.0117393372,
				"y": 2.2685930885,
				"z": 0.0759022003,
				"element": "H" 
			},
			{
				"x": -1.7735513631,
				"y": 1.2736240367,
				"z": 1.3134301562,
				"element": "H" 
			},
			{
				"x": -1.9398299661,
				"y": -0.6537426045,
				"z": -0.2169652394,
				"element": "H" 
			},
			{
				"x": -2.6795396935,
				"y": 0.7564218674,
				"z": -0.9624291709,
				"element": "H" 
			},
			{
				"x": -0.6500330278,
				"y": 1.1520998806,
				"z": -2.3180962177,
				"element": "H" 
			},
			{
				"x": 0.5261560929,
				"y": -1.3181878012,
				"z": -0.9431539805,
				"element": "H" 
			},
			{
				"x": 1.3310198459,
				"y": -0.3399728439,
				"z": -2.1722315439,
				"element": "H" 
			},
			{
				"x": 2.1099170268,
				"y": 0.2509839498,
				"z": 0.1293465878,
				"element": "H" 
			},
			{
				"x": 1.3495937577,
				"y": 1.6265509367,
				"z": -0.6846179193,
				"element": "H" 
			},
			{
				"x": 0.0147106346,
				"y": -0.1814220593,
				"z": -4.0725383602,
				"element": "H" 
			}
		],
		 "valence_orbital": [ 
			{
				"type": "occ",
				"energy": -0.31555,
				"method": "rhf"
			},
			{
				"type": "occ",
				"energy": -0.30491,
				"method": "rhf"
			},
			{
				"type": "occ",
				"energy": -0.29636,
				"method": "rhf"
			},
			{
				"type": "occ",
				"energy": -0.27721,
				"method": "rhf"
			},
			{
				"type": "occ",
				"energy": -0.26147,
				"method": "rhf"
			},
			{
				"type": "unocc",
				"energy": 0.00031,
				"method": "rhf"
			},
			{
				"type": "unocc",
				"energy": 0.03459,
				"method": "rhf"
			},
			{
				"type": "unocc",
				"energy": 0.05498,
				"method": "rhf"
			},
			{
				"type": "unocc",
				"energy": 0.06546,
				"method": "rhf"
			},
			{
				"type": "unocc",
				"energy": 0.07866,
				"method": "rhf"
			}
		],
		"cosmo_sigma_profile": { 
			"-0.025": 0.0,
			"-0.024": 0.0,
			"-0.023": 0.0,
			"-0.022": 0.0,
			"-0.021": 0.0,
			"-0.02": 0.0,
			"-0.019": 0.204554917549,
			"-0.018": 1.05611545684,
			"-0.017": 1.10628237055,
			"-0.016": 1.43027714421,
			"-0.015": 1.08728663624,
			"-0.014": 0.91157150264,
			"-0.013": 0.812100700393,
			"-0.012": 0.801932187507,
			"-0.011": 1.76858625689,
			"-0.01": 1.17389580888,
			"-0.009": 2.30922916161,
			"-0.008": 4.71728535464,
			"-0.007": 6.49172388489,
			"-0.006": 12.2891667795,
			"-0.005": 19.9535301959,
			"-0.004": 29.1417042255,
			"-0.003": 28.7810394581,
			"-0.002": 23.9317030112,
			"-0.001": 19.8762723663,
			"0.0": 17.1550483124,
			"0.001": 10.9906881451,
			"0.002": 6.42986578042,
			"0.003": 6.07510508887,
			"0.004": 5.48578305434,
			"0.005": 4.74648416425,
			"0.006": 4.95925106689,
			"0.007": 4.82920332467,
			"0.008": 5.7042300636,
			"0.009": 7.04195695801,
			"0.01": 9.21963376714,
			"0.011": 14.7828960575,
			"0.012": 12.1926215999,
			"0.013": 2.28971098947,
			"0.014": 0.0848854381289,
			"0.015": 0.0,
			"0.016": 0.0,
			"0.017": 0.0,
			"0.018": 0.0,
			"0.019": 0.0,
			"0.02": 0.0,
			"0.021": 0.0,
			"0.022": 0.0,
			"0.023": 0.0,
			"0.024": 0.0,
			"0.025": 0.0
		}
	}
}
