{
	 "smiles": "OC(=O)C1=CC(NC(=O)NC2=CC(Cl)=C(Cl)C=C2)=CC=C1", 
	 "Tm": 553.15, 
	 "num_atms": 31, 
	 "gaussian": { 
		 "optdone": 1, 
		 "sigma_profile": "yes", 
		 "theory": "DFT", 
		 "functional": "B3LYP", 
		 "basiset": "6-31G**", 
		 "properties": { 
			 "R2extent": 8894.5886, 
			 "electric_dipole_moment_norm": 4.85797439372, 
			 "electric_quadrupole_moment_norm": 15.1590884383, 
			 "total_energy": -1795.09901484, 
			 "HOMO_LUMO_gap": 0.17986, 
			 "cosmo_polarized_energy": -25.95, 
			 "cosmo_cavitation_energy": 40.32, 
			 "cosmo_dispersion_energy": -27.44, 
			 "cosmo_repulsion_energy": 2.14, 
			 "cosmo_total_nonelectrostatic_energy": 15.02, 
			 "SMD_solvation_energy": 8.46 
		},
		"coords": [
			{
				"x": -0.5708970687,
				"y": 3.0231709318,
				"z": 3.4999404244,
				"element": "O" 
			},
			{
				"x": 0.3705637014,
				"y": 2.3538759169,
				"z": 2.7812795522,
				"element": "C" 
			},
			{
				"x": 1.3645306095,
				"y": 1.9371476236,
				"z": 3.3257318293,
				"element": "O" 
			},
			{
				"x": 0.1015835014,
				"y": 2.1768270087,
				"z": 1.3146166953,
				"element": "C" 
			},
			{
				"x": -1.1893280525,
				"y": 2.2220402559,
				"z": 0.7759178456,
				"element": "C" 
			},
			{
				"x": -1.3967800637,
				"y": 2.0447578495,
				"z": -0.5989435263,
				"element": "C" 
			},
			{
				"x": -2.7267953011,
				"y": 2.1373222367,
				"z": -1.0794067878,
				"element": "N" 
			},
			{
				"x": -3.2565905892,
				"y": 1.7985825559,
				"z": -2.3218491626,
				"element": "C" 
			},
			{
				"x": -4.1468426723,
				"y": 2.4653552988,
				"z": -2.8277733045,
				"element": "O" 
			},
			{
				"x": -2.7454720382,
				"y": 0.6785454,
				"z": -2.9708678259,
				"element": "N" 
			},
			{
				"x": -2.2796664452,
				"y": -0.5503992133,
				"z": -2.4464647008,
				"element": "C" 
			},
			{
				"x": -2.5174557372,
				"y": -0.9534879837,
				"z": -1.1285003461,
				"element": "C" 
			},
			{
				"x": -2.0521045823,
				"y": -2.1892109571,
				"z": -0.677125736,
				"element": "C" 
			},
			{
				"x": -2.373171916,
				"y": -2.6342967586,
				"z": 0.9797740013,
				"element": "Cl" 
			},
			{
				"x": -1.3641803048,
				"y": -3.0499501118,
				"z": -1.5419360263,
				"element": "C" 
			},
			{
				"x": -0.77291836,
				"y": -4.605249017,
				"z": -1.0169179054,
				"element": "Cl" 
			},
			{
				"x": -1.146140436,
				"y": -2.6502135074,
				"z": -2.8624530488,
				"element": "C" 
			},
			{
				"x": -1.5889993731,
				"y": -1.412013856,
				"z": -3.3107395483,
				"element": "C" 
			},
			{
				"x": -0.2931303606,
				"y": 1.8217000528,
				"z": -1.4331799781,
				"element": "C" 
			},
			{
				"x": 0.9881369977,
				"y": 1.7457323637,
				"z": -0.8861394588,
				"element": "C" 
			},
			{
				"x": 1.1945600045,
				"y": 1.9149405414,
				"z": 0.4798403097,
				"element": "C" 
			},
			{
				"x": -1.2083267967,
				"y": 3.4426961461,
				"z": 2.9059599518,
				"element": "H" 
			},
			{
				"x": -2.0585564353,
				"y": 2.3447893071,
				"z": 1.4181362275,
				"element": "H" 
			},
			{
				"x": -3.2833495009,
				"y": 2.8771127338,
				"z": -0.6699217999,
				"element": "H" 
			},
			{
				"x": -3.1221345299,
				"y": 0.6301672736,
				"z": -3.9092818241,
				"element": "H" 
			},
			{
				"x": -3.0688249377,
				"y": -0.319067827,
				"z": -0.44757706,
				"element": "H" 
			},
			{
				"x": -0.6144860445,
				"y": -3.3160444027,
				"z": -3.5329583684,
				"element": "H" 
			},
			{
				"x": -1.3964722714,
				"y": -1.1082620683,
				"z": -4.3353794398,
				"element": "H" 
			},
			{
				"x": -0.4374446778,
				"y": 1.7078727643,
				"z": -2.5006882566,
				"element": "H" 
			},
			{
				"x": 1.8336538013,
				"y": 1.563166436,
				"z": -1.5423207433,
				"element": "H" 
			},
			{
				"x": 2.1836398795,
				"y": 1.8535930066,
				"z": 0.9189280108,
				"element": "H" 
			}
		],
		 "valence_orbital": [ 
			{
				"type": "occ",
				"energy": -0.28429,
				"method": "rhf"
			},
			{
				"type": "occ",
				"energy": -0.27507,
				"method": "rhf"
			},
			{
				"type": "occ",
				"energy": -0.27054,
				"method": "rhf"
			},
			{
				"type": "occ",
				"energy": -0.24727,
				"method": "rhf"
			},
			{
				"type": "occ",
				"energy": -0.24081,
				"method": "rhf"
			},
			{
				"type": "unocc",
				"energy": -0.06095,
				"method": "rhf"
			},
			{
				"type": "unocc",
				"energy": -0.04285,
				"method": "rhf"
			},
			{
				"type": "unocc",
				"energy": -0.03532,
				"method": "rhf"
			},
			{
				"type": "unocc",
				"energy": -0.02519,
				"method": "rhf"
			},
			{
				"type": "unocc",
				"energy": -0.00393,
				"method": "rhf"
			}
		],
		"cosmo_sigma_profile": { 
			"-0.025": 0.0,
			"-0.024": 0.0,
			"-0.023": 0.0,
			"-0.022": 0.0,
			"-0.021": 0.0,
			"-0.02": 0.0,
			"-0.019": 0.246242403845,
			"-0.018": 0.7116138825,
			"-0.017": 1.12086091349,
			"-0.016": 1.22589768389,
			"-0.015": 2.19055775125,
			"-0.014": 3.26827546114,
			"-0.013": 3.06845886428,
			"-0.012": 3.85147281168,
			"-0.011": 4.30065543032,
			"-0.01": 2.8876584808,
			"-0.009": 4.13198994577,
			"-0.008": 5.41547277284,
			"-0.007": 10.6160194011,
			"-0.006": 12.9036725306,
			"-0.005": 13.905755114,
			"-0.004": 14.6470658737,
			"-0.003": 17.0903875526,
			"-0.002": 19.2040881667,
			"-0.001": 20.6397843124,
			"0.0": 23.4732224581,
			"0.001": 28.5380042352,
			"0.002": 31.8162491994,
			"0.003": 27.5800581855,
			"0.004": 20.8776081512,
			"0.005": 8.37653523669,
			"0.006": 4.1904577135,
			"0.007": 3.66445084722,
			"0.008": 4.50427318635,
			"0.009": 4.42757336822,
			"0.01": 6.00526997286,
			"0.011": 6.92002007145,
			"0.012": 8.2905478955,
			"0.013": 7.025561683,
			"0.014": 0.692636954997,
			"0.015": 0.0,
			"0.016": 0.0,
			"0.017": 0.0,
			"0.018": 0.0,
			"0.019": 0.0,
			"0.02": 0.0,
			"0.021": 0.0,
			"0.022": 0.0,
			"0.023": 0.0,
			"0.024": 0.0,
			"0.025": 0.0
		}
	}
}
