{
	 "smiles": "CN(C)CCC1=CNC2=C1C=CC=C2", 
	 "Tm": 319.15, 
	 "num_atms": 30, 
	 "gaussian": { 
		 "optdone": 1, 
		 "sigma_profile": "yes", 
		 "theory": "DFT", 
		 "functional": "B3LYP", 
		 "basiset": "6-31G**", 
		 "properties": { 
			 "R2extent": 4049.7786, 
			 "electric_dipole_moment_norm": 2.23934024436, 
			 "electric_quadrupole_moment_norm": 12.7996285809, 
			 "total_energy": -576.418895445, 
			 "HOMO_LUMO_gap": 0.18291, 
			 "cosmo_polarized_energy": -9.72, 
			 "cosmo_cavitation_energy": 32.24, 
			 "cosmo_dispersion_energy": -22.85, 
			 "cosmo_repulsion_energy": 1.8, 
			 "cosmo_total_nonelectrostatic_energy": 11.18, 
			 "SMD_solvation_energy": 2.85 
		},
		"coords": [
			{
				"x": -2.4638892698,
				"y": -0.5390352213,
				"z": 4.6379972448,
				"element": "C" 
			},
			{
				"x": -1.1591453887,
				"y": -0.9897494998,
				"z": 4.1831189425,
				"element": "N" 
			},
			{
				"x": -1.0943154562,
				"y": -2.4320157185,
				"z": 4.0143573574,
				"element": "C" 
			},
			{
				"x": -0.6125068105,
				"y": -0.225220621,
				"z": 3.0661366123,
				"element": "C" 
			},
			{
				"x": -1.3710827371,
				"y": -0.2999773408,
				"z": 1.7116547457,
				"element": "C" 
			},
			{
				"x": -0.6917514964,
				"y": 0.4920523294,
				"z": 0.63239591,
				"element": "C" 
			},
			{
				"x": -1.0415005524,
				"y": 1.7408310538,
				"z": 0.1815114276,
				"element": "C" 
			},
			{
				"x": -0.1524240785,
				"y": 2.1647119721,
				"z": -0.7919889611,
				"element": "N" 
			},
			{
				"x": 0.7981387248,
				"y": 1.1859595198,
				"z": -0.993035332,
				"element": "C" 
			},
			{
				"x": 0.4906801134,
				"y": 0.1150770089,
				"z": -0.1077646513,
				"element": "C" 
			},
			{
				"x": 1.3125124641,
				"y": -1.0262098684,
				"z": -0.1180784256,
				"element": "C" 
			},
			{
				"x": 2.3963788009,
				"y": -1.0732656095,
				"z": -0.9860324267,
				"element": "C" 
			},
			{
				"x": 2.6821604226,
				"y": 0.0023845482,
				"z": -1.8521771694,
				"element": "C" 
			},
			{
				"x": 1.8884868307,
				"y": 1.1437412851,
				"z": -1.8688742547,
				"element": "C" 
			},
			{
				"x": -2.4425706283,
				"y": 0.5433277952,
				"z": 4.8050817605,
				"element": "H" 
			},
			{
				"x": -2.7045378703,
				"y": -1.0210092147,
				"z": 5.5925255456,
				"element": "H" 
			},
			{
				"x": -3.2944398291,
				"y": -0.7586426008,
				"z": 3.9404764251,
				"element": "H" 
			},
			{
				"x": -1.3312000394,
				"y": -2.9219215609,
				"z": 4.9658110173,
				"element": "H" 
			},
			{
				"x": -1.7889077949,
				"y": -2.8372919675,
				"z": 3.2543183327,
				"element": "H" 
			},
			{
				"x": -0.0776179187,
				"y": -2.724938326,
				"z": 3.731049699,
				"element": "H" 
			},
			{
				"x": 0.421692914,
				"y": -0.554911617,
				"z": 2.9084692084,
				"element": "H" 
			},
			{
				"x": -0.5592361384,
				"y": 0.8276099809,
				"z": 3.3710210611,
				"element": "H" 
			},
			{
				"x": -2.3947753129,
				"y": 0.0682011842,
				"z": 1.8462850478,
				"element": "H" 
			},
			{
				"x": -1.4581176879,
				"y": -1.3487518955,
				"z": 1.4003482227,
				"element": "H" 
			},
			{
				"x": -1.8698824153,
				"y": 2.3699433663,
				"z": 0.4773999117,
				"element": "H" 
			},
			{
				"x": -0.2044516112,
				"y": 3.0395322771,
				"z": -1.2867486648,
				"element": "H" 
			},
			{
				"x": 1.1021236868,
				"y": -1.8626314355,
				"z": 0.5430738246,
				"element": "H" 
			},
			{
				"x": 3.036297068,
				"y": -1.9507865788,
				"z": -1.0005552132,
				"element": "H" 
			},
			{
				"x": 3.5367665515,
				"y": -0.0622201898,
				"z": -2.5194228183,
				"element": "H" 
			},
			{
				"x": 2.1080154592,
				"y": 1.9712069447,
				"z": -2.5381543799,
				"element": "H" 
			}
		],
		 "valence_orbital": [ 
			{
				"type": "occ",
				"energy": -0.3194,
				"method": "rhf"
			},
			{
				"type": "occ",
				"energy": -0.26627,
				"method": "rhf"
			},
			{
				"type": "occ",
				"energy": -0.21486,
				"method": "rhf"
			},
			{
				"type": "occ",
				"energy": -0.20745,
				"method": "rhf"
			},
			{
				"type": "occ",
				"energy": -0.18634,
				"method": "rhf"
			},
			{
				"type": "unocc",
				"energy": -0.00343,
				"method": "rhf"
			},
			{
				"type": "unocc",
				"energy": 0.03299,
				"method": "rhf"
			},
			{
				"type": "unocc",
				"energy": 0.07,
				"method": "rhf"
			},
			{
				"type": "unocc",
				"energy": 0.08011,
				"method": "rhf"
			},
			{
				"type": "unocc",
				"energy": 0.08608,
				"method": "rhf"
			}
		],
		"cosmo_sigma_profile": { 
			"-0.025": 0.0,
			"-0.024": 0.0,
			"-0.023": 0.0,
			"-0.022": 0.0,
			"-0.021": 0.0,
			"-0.02": 0.0,
			"-0.019": 0.0,
			"-0.018": 0.0,
			"-0.017": 0.0,
			"-0.016": 0.0683584272735,
			"-0.015": 1.14236903114,
			"-0.014": 1.73572827614,
			"-0.013": 1.00338245046,
			"-0.012": 1.33756034829,
			"-0.011": 1.0668599404,
			"-0.01": 1.27799036317,
			"-0.009": 1.16885692885,
			"-0.008": 1.89108452963,
			"-0.007": 3.32723125364,
			"-0.006": 4.17841873591,
			"-0.005": 6.85427020197,
			"-0.004": 12.1004600604,
			"-0.003": 27.0082687208,
			"-0.002": 33.5258949492,
			"-0.001": 30.2823817343,
			"0.0": 29.9319219552,
			"0.001": 16.1308815147,
			"0.002": 11.272717776,
			"0.003": 9.60611604414,
			"0.004": 10.2915424693,
			"0.005": 14.654598721,
			"0.006": 13.7662757763,
			"0.007": 11.0253355672,
			"0.008": 3.86431088512,
			"0.009": 0.968080349251,
			"0.01": 0.544777671767,
			"0.011": 0.36238530462,
			"0.012": 0.882256557987,
			"0.013": 0.767670418694,
			"0.014": 0.235592243675,
			"0.015": 0.471142462951,
			"0.016": 0.34855254216,
			"0.017": 0.152268754552,
			"0.018": 0.0,
			"0.019": 0.0,
			"0.02": 0.0,
			"0.021": 0.0,
			"0.022": 0.0,
			"0.023": 0.0,
			"0.024": 0.0,
			"0.025": 0.0
		}
	}
}
