{
	 "smiles": "C1CC2=C(N1)N=CC=C2", 
	 "Tm": 353.15, 
	 "num_atms": 17, 
	 "gaussian": { 
		 "optdone": 1, 
		 "sigma_profile": "yes", 
		 "theory": "DFT", 
		 "functional": "B3LYP", 
		 "basiset": "6-31G**", 
		 "properties": { 
			 "R2extent": 1404.5022, 
			 "electric_dipole_moment_norm": 2.44563056082, 
			 "electric_quadrupole_moment_norm": 7.03736601578, 
			 "total_energy": -381.069098053, 
			 "HOMO_LUMO_gap": 0.18798, 
			 "cosmo_polarized_energy": -7.97, 
			 "cosmo_cavitation_energy": 19.83, 
			 "cosmo_dispersion_energy": -15.43, 
			 "cosmo_repulsion_energy": 1.27, 
			 "cosmo_total_nonelectrostatic_energy": 5.66, 
			 "SMD_solvation_energy": 0.31 
		},
		"coords": [
			{
				"x": -1.3979197215,
				"y": -1.0926407671,
				"z": 0.064142635,
				"element": "C" 
			},
			{
				"x": -0.9282683963,
				"y": 0.1891898684,
				"z": -0.6798914623,
				"element": "C" 
			},
			{
				"x": -0.2396033338,
				"y": 0.9637867526,
				"z": 0.4205835427,
				"element": "C" 
			},
			{
				"x": 0.0000160516,
				"y": 0.0822595604,
				"z": 1.4984281659,
				"element": "C" 
			},
			{
				"x": -0.4672074219,
				"y": -1.1891997151,
				"z": 1.1982147944,
				"element": "N" 
			},
			{
				"x": 0.5994368733,
				"y": 0.3985521722,
				"z": 2.6413223661,
				"element": "N" 
			},
			{
				"x": 1.0117001191,
				"y": 1.6796971883,
				"z": 2.7342082251,
				"element": "C" 
			},
			{
				"x": 0.8404182605,
				"y": 2.6370119864,
				"z": 1.739479266,
				"element": "C" 
			},
			{
				"x": 0.1941106425,
				"y": 2.2677841725,
				"z": 0.5435363874,
				"element": "C" 
			},
			{
				"x": -1.3484062305,
				"y": -1.9857507704,
				"z": -0.5650584588,
				"element": "H" 
			},
			{
				"x": -2.4377409717,
				"y": -0.9732670982,
				"z": 0.4064600216,
				"element": "H" 
			},
			{
				"x": -0.2149504767,
				"y": -0.0693488992,
				"z": -1.4738118712,
				"element": "H" 
			},
			{
				"x": -1.7609308608,
				"y": 0.7213268864,
				"z": -1.1489361501,
				"element": "H" 
			},
			{
				"x": -0.7017431234,
				"y": -1.7863852324,
				"z": 1.9797544483,
				"element": "H" 
			},
			{
				"x": 1.5025113858,
				"y": 1.9468034026,
				"z": 3.6684257769,
				"element": "H" 
			},
			{
				"x": 1.1944232142,
				"y": 3.6510009224,
				"z": 1.8918822349,
				"element": "H" 
			},
			{
				"x": 0.0373539895,
				"y": 2.9943795702,
				"z": -0.2500399218,
				"element": "H" 
			}
		],
		 "valence_orbital": [ 
			{
				"type": "occ",
				"energy": -0.3534,
				"method": "rhf"
			},
			{
				"type": "occ",
				"energy": -0.29644,
				"method": "rhf"
			},
			{
				"type": "occ",
				"energy": -0.26741,
				"method": "rhf"
			},
			{
				"type": "occ",
				"energy": -0.24779,
				"method": "rhf"
			},
			{
				"type": "occ",
				"energy": -0.19861,
				"method": "rhf"
			},
			{
				"type": "unocc",
				"energy": -0.01063,
				"method": "rhf"
			},
			{
				"type": "unocc",
				"energy": 0.01735,
				"method": "rhf"
			},
			{
				"type": "unocc",
				"energy": 0.09146,
				"method": "rhf"
			},
			{
				"type": "unocc",
				"energy": 0.11233,
				"method": "rhf"
			},
			{
				"type": "unocc",
				"energy": 0.12012,
				"method": "rhf"
			}
		],
		"cosmo_sigma_profile": { 
			"-0.025": 0.0,
			"-0.024": 0.0,
			"-0.023": 0.0,
			"-0.022": 0.0,
			"-0.021": 0.0,
			"-0.02": 0.0,
			"-0.019": 0.0,
			"-0.018": 0.0,
			"-0.017": 0.0,
			"-0.016": 0.0,
			"-0.015": 0.0,
			"-0.014": 0.0,
			"-0.013": 0.459085510152,
			"-0.012": 1.23408443687,
			"-0.011": 1.33088018789,
			"-0.01": 0.634826210552,
			"-0.009": 0.788396429414,
			"-0.008": 1.15053780836,
			"-0.007": 1.02306975867,
			"-0.006": 4.51909672928,
			"-0.005": 9.63806559652,
			"-0.004": 18.5439800542,
			"-0.003": 20.4672231048,
			"-0.002": 16.8090116901,
			"-0.001": 13.7009778418,
			"0.0": 6.69539654584,
			"0.001": 6.12445726372,
			"0.002": 6.79806565718,
			"0.003": 8.83904911288,
			"0.004": 10.9042841499,
			"0.005": 8.0482304953,
			"0.006": 3.60338932131,
			"0.007": 2.49586716996,
			"0.008": 1.69800779795,
			"0.009": 3.05507388273,
			"0.01": 2.09950203247,
			"0.011": 1.15692843323,
			"0.012": 1.09306527806,
			"0.013": 1.41319285499,
			"0.014": 0.745279253739,
			"0.015": 0.497186859358,
			"0.016": 1.2648868398,
			"0.017": 0.518339109557,
			"0.018": 0.00891578441451,
			"0.019": 0.0,
			"0.02": 0.0,
			"0.021": 0.0,
			"0.022": 0.0,
			"0.023": 0.0,
			"0.024": 0.0,
			"0.025": 0.0
		}
	}
}
