{
	 "smiles": "BrC1=CC=C(C=C1)C1=CSC(NC(=O)C2=CC=CC=C2)=N1", 
	 "Tm": 388.15, 
	 "num_atms": 32, 
	 "gaussian": { 
		 "optdone": 1, 
		 "sigma_profile": "yes", 
		 "theory": "DFT", 
		 "functional": "B3LYP", 
		 "basiset": "6-31G**", 
		 "properties": { 
			 "R2extent": 15896.6326, 
			 "electric_dipole_moment_norm": 4.00346297847, 
			 "electric_quadrupole_moment_norm": 12.6798174395, 
			 "total_energy": -3770.65977583, 
			 "HOMO_LUMO_gap": 0.1542, 
			 "cosmo_polarized_energy": -13.45, 
			 "cosmo_cavitation_energy": 41.32, 
			 "cosmo_dispersion_energy": -30.51, 
			 "cosmo_repulsion_energy": 2.28, 
			 "cosmo_total_nonelectrostatic_energy": 13.09, 
			 "SMD_solvation_energy": 5.05 
		},
		"coords": [
			{
				"x": -6.9922602172,
				"y": 2.5233026814,
				"z": 1.6608370477,
				"element": "Br" 
			},
			{
				"x": -5.2883989435,
				"y": 1.7923902192,
				"z": 1.1981973633,
				"element": "C" 
			},
			{
				"x": -5.1003356788,
				"y": 0.4121037048,
				"z": 1.2223693117,
				"element": "C" 
			},
			{
				"x": -3.85506282,
				"y": -0.1129519843,
				"z": 0.8842814964,
				"element": "C" 
			},
			{
				"x": -2.7886537253,
				"y": 0.7254590273,
				"z": 0.5212235088,
				"element": "C" 
			},
			{
				"x": -3.0098798863,
				"y": 2.112627351,
				"z": 0.5006199237,
				"element": "C" 
			},
			{
				"x": -4.2488365505,
				"y": 2.6496681782,
				"z": 0.8374641236,
				"element": "C" 
			},
			{
				"x": -1.480388361,
				"y": 0.1395636769,
				"z": 0.1743065146,
				"element": "C" 
			},
			{
				"x": -0.3214582602,
				"y": 0.8211342049,
				"z": -0.0879708406,
				"element": "C" 
			},
			{
				"x": 0.9803150065,
				"y": -0.2778082246,
				"z": -0.4353537296,
				"element": "S" 
			},
			{
				"x": -0.152247039,
				"y": -1.6072804818,
				"z": -0.1875045255,
				"element": "C" 
			},
			{
				"x": 0.1381082731,
				"y": -2.951885175,
				"z": -0.3856961622,
				"element": "N" 
			},
			{
				"x": 1.3103724254,
				"y": -3.6223594853,
				"z": -0.7484748624,
				"element": "C" 
			},
			{
				"x": 1.2210109347,
				"y": -4.6667061623,
				"z": -1.3755830311,
				"element": "O" 
			},
			{
				"x": 2.626961856,
				"y": -3.0815707349,
				"z": -0.295475405,
				"element": "C" 
			},
			{
				"x": 3.7280511328,
				"y": -3.2293143051,
				"z": -1.1514385041,
				"element": "C" 
			},
			{
				"x": 4.9932302152,
				"y": -2.8199988044,
				"z": -0.7387344513,
				"element": "C" 
			},
			{
				"x": 5.1736027265,
				"y": -2.2922585175,
				"z": 0.5432156101,
				"element": "C" 
			},
			{
				"x": 4.0863636532,
				"y": -2.1730087914,
				"z": 1.4109977929,
				"element": "C" 
			},
			{
				"x": 2.8133551386,
				"y": -2.5598225894,
				"z": 0.9930465195,
				"element": "C" 
			},
			{
				"x": -1.3639306635,
				"y": -1.2396367855,
				"z": 0.1102057652,
				"element": "N" 
			},
			{
				"x": -5.9161020566,
				"y": -0.2447829649,
				"z": 1.5022695236,
				"element": "H" 
			},
			{
				"x": -3.6952660658,
				"y": -1.1848870221,
				"z": 0.8985524561,
				"element": "H" 
			},
			{
				"x": -2.2124171406,
				"y": 2.7899866227,
				"z": 0.2110306648,
				"element": "H" 
			},
			{
				"x": -4.4080457464,
				"y": 3.7217105757,
				"z": 0.816678909,
				"element": "H" 
			},
			{
				"x": -0.1330004909,
				"y": 1.8839418975,
				"z": -0.0618997615,
				"element": "H" 
			},
			{
				"x": -0.6930960139,
				"y": -3.4999141891,
				"z": -0.5834288453,
				"element": "H" 
			},
			{
				"x": 3.574672789,
				"y": -3.6699286585,
				"z": -2.1309761015,
				"element": "H" 
			},
			{
				"x": 5.8405487992,
				"y": -2.9216467379,
				"z": -1.4101217695,
				"element": "H" 
			},
			{
				"x": 6.1627879644,
				"y": -1.9827776493,
				"z": 0.8680695246,
				"element": "H" 
			},
			{
				"x": 4.2289290902,
				"y": -1.7818152467,
				"z": 2.4137829744,
				"element": "H" 
			},
			{
				"x": 1.9706696546,
				"y": -2.4785336296,
				"z": 1.6722089595,
				"element": "H" 
			}
		],
		 "valence_orbital": [ 
			{
				"type": "occ",
				"energy": -0.26755,
				"method": "rhf"
			},
			{
				"type": "occ",
				"energy": -0.26415,
				"method": "rhf"
			},
			{
				"type": "occ",
				"energy": -0.2619,
				"method": "rhf"
			},
			{
				"type": "occ",
				"energy": -0.25208,
				"method": "rhf"
			},
			{
				"type": "occ",
				"energy": -0.215,
				"method": "rhf"
			},
			{
				"type": "unocc",
				"energy": -0.0608,
				"method": "rhf"
			},
			{
				"type": "unocc",
				"energy": -0.0406,
				"method": "rhf"
			},
			{
				"type": "unocc",
				"energy": -0.01889,
				"method": "rhf"
			},
			{
				"type": "unocc",
				"energy": -0.01635,
				"method": "rhf"
			},
			{
				"type": "unocc",
				"energy": -0.00687,
				"method": "rhf"
			}
		],
		"cosmo_sigma_profile": { 
			"-0.025": 0.0,
			"-0.024": 0.0,
			"-0.023": 0.0,
			"-0.022": 0.0,
			"-0.021": 0.0,
			"-0.02": 0.0,
			"-0.019": 0.0,
			"-0.018": 0.0,
			"-0.017": 0.0,
			"-0.016": 0.0,
			"-0.015": 0.431672084161,
			"-0.014": 0.932369466839,
			"-0.013": 0.639174289893,
			"-0.012": 0.671515153482,
			"-0.011": 0.709402617836,
			"-0.01": 2.12248356705,
			"-0.009": 3.68794689074,
			"-0.008": 3.50369529939,
			"-0.007": 10.1054232997,
			"-0.006": 17.6466855516,
			"-0.005": 22.9854200407,
			"-0.004": 22.2414601171,
			"-0.003": 18.6296397024,
			"-0.002": 20.5442303062,
			"-0.001": 19.3749273682,
			"0.0": 22.2067375169,
			"0.001": 26.3014481893,
			"0.002": 39.4915294068,
			"0.003": 43.561093452,
			"0.004": 29.3605480368,
			"0.005": 9.77331797908,
			"0.006": 3.12277468145,
			"0.007": 2.73017756342,
			"0.008": 3.10379169761,
			"0.009": 3.04225601737,
			"0.01": 1.92433531314,
			"0.011": 3.17799884173,
			"0.012": 4.88596550969,
			"0.013": 1.20431813839,
			"0.014": 0.0,
			"0.015": 0.0,
			"0.016": 0.0,
			"0.017": 0.0,
			"0.018": 0.0,
			"0.019": 0.0,
			"0.02": 0.0,
			"0.021": 0.0,
			"0.022": 0.0,
			"0.023": 0.0,
			"0.024": 0.0,
			"0.025": 0.0
		}
	}
}
