{
	 "smiles": "CC(C)(C)C1=CC(=NC(N)=N1)C(F)(F)F", 
	 "Tm": 322.15, 
	 "num_atms": 27, 
	 "gaussian": { 
		 "optdone": 1, 
		 "sigma_profile": "yes", 
		 "theory": "DFT", 
		 "functional": "B3LYP", 
		 "basiset": "6-31G**", 
		 "properties": { 
			 "R2extent": 5198.815, 
			 "electric_dipole_moment_norm": 2.97424745944, 
			 "electric_quadrupole_moment_norm": 17.4719780388, 
			 "total_energy": -813.999602529, 
			 "HOMO_LUMO_gap": 0.19057, 
			 "cosmo_polarized_energy": -8.88, 
			 "cosmo_cavitation_energy": 31.4, 
			 "cosmo_dispersion_energy": -21.71, 
			 "cosmo_repulsion_energy": 1.68, 
			 "cosmo_total_nonelectrostatic_energy": 11.37, 
			 "SMD_solvation_energy": 4.54 
		},
		"coords": [
			{
				"x": -0.0014512233,
				"y": 1.4293588622,
				"z": -2.6089206432,
				"element": "C" 
			},
			{
				"x": -0.2769739417,
				"y": 0.4476525655,
				"z": -1.4451830072,
				"element": "C" 
			},
			{
				"x": 0.282894465,
				"y": -0.9373725383,
				"z": -1.8108794479,
				"element": "C" 
			},
			{
				"x": -1.8033739783,
				"y": 0.3335922537,
				"z": -1.2182117695,
				"element": "C" 
			},
			{
				"x": 0.3761486646,
				"y": 0.9895638446,
				"z": -0.1681621432,
				"element": "C" 
			},
			{
				"x": 0.0210075021,
				"y": 2.2503020781,
				"z": 0.3527895326,
				"element": "C" 
			},
			{
				"x": 0.6780483437,
				"y": 2.6487011451,
				"z": 1.5062009118,
				"element": "C" 
			},
			{
				"x": 1.5983224802,
				"y": 1.9145505197,
				"z": 2.1326106442,
				"element": "N" 
			},
			{
				"x": 1.8576281316,
				"y": 0.7263578788,
				"z": 1.5630961607,
				"element": "C" 
			},
			{
				"x": 2.7633361077,
				"y": -0.0747358399,
				"z": 2.1873865693,
				"element": "N" 
			},
			{
				"x": 1.2922132186,
				"y": 0.2355317107,
				"z": 0.4379447369,
				"element": "N" 
			},
			{
				"x": 0.3901071018,
				"y": 3.9913597221,
				"z": 2.1536514544,
				"element": "C" 
			},
			{
				"x": 1.4978509544,
				"y": 4.7549744511,
				"z": 2.2019349913,
				"element": "F" 
			},
			{
				"x": -0.5503168839,
				"y": 4.6802073183,
				"z": 1.4685587663,
				"element": "F" 
			},
			{
				"x": -0.0561443411,
				"y": 3.8385251541,
				"z": 3.4140570331,
				"element": "F" 
			},
			{
				"x": 1.0733520756,
				"y": 1.535759361,
				"z": -2.788530348,
				"element": "H" 
			},
			{
				"x": -0.4110373292,
				"y": 2.4249652687,
				"z": -2.4132392129,
				"element": "H" 
			},
			{
				"x": -0.4621318215,
				"y": 1.0548050265,
				"z": -3.5292688892,
				"element": "H" 
			},
			{
				"x": -0.202624497,
				"y": -1.2985919308,
				"z": -2.7236822289,
				"element": "H" 
			},
			{
				"x": 0.1058261108,
				"y": -1.6629186535,
				"z": -1.0130742531,
				"element": "H" 
			},
			{
				"x": 1.3613788253,
				"y": -0.8990870051,
				"z": -1.9840103726,
				"element": "H" 
			},
			{
				"x": -2.0288962145,
				"y": -0.3519808179,
				"z": -0.3949335934,
				"element": "H" 
			},
			{
				"x": -2.2865246482,
				"y": -0.052977657,
				"z": -2.1219381751,
				"element": "H" 
			},
			{
				"x": -2.2578530514,
				"y": 1.301421852,
				"z": -0.9856285616,
				"element": "H" 
			},
			{
				"x": -0.7173417061,
				"y": 2.8852099261,
				"z": -0.115691527,
				"element": "H" 
			},
			{
				"x": 3.3197858322,
				"y": 0.3243867589,
				"z": 2.9254269366,
				"element": "H" 
			},
			{
				"x": 3.0976698226,
				"y": -0.8852612545,
				"z": 1.6930964357,
				"element": "H" 
			}
		],
		 "valence_orbital": [ 
			{
				"type": "occ",
				"energy": -0.32909,
				"method": "rhf"
			},
			{
				"type": "occ",
				"energy": -0.31343,
				"method": "rhf"
			},
			{
				"type": "occ",
				"energy": -0.30696,
				"method": "rhf"
			},
			{
				"type": "occ",
				"energy": -0.25487,
				"method": "rhf"
			},
			{
				"type": "occ",
				"energy": -0.23477,
				"method": "rhf"
			},
			{
				"type": "unocc",
				"energy": -0.0442,
				"method": "rhf"
			},
			{
				"type": "unocc",
				"energy": -0.00868,
				"method": "rhf"
			},
			{
				"type": "unocc",
				"energy": 0.07791,
				"method": "rhf"
			},
			{
				"type": "unocc",
				"energy": 0.08844,
				"method": "rhf"
			},
			{
				"type": "unocc",
				"energy": 0.11687,
				"method": "rhf"
			}
		],
		"cosmo_sigma_profile": { 
			"-0.025": 0.0,
			"-0.024": 0.0,
			"-0.023": 0.0,
			"-0.022": 0.0,
			"-0.021": 0.0,
			"-0.02": 0.0,
			"-0.019": 0.0,
			"-0.018": 0.0,
			"-0.017": 0.0,
			"-0.016": 0.0,
			"-0.015": 0.0241728352768,
			"-0.014": 1.23456427552,
			"-0.013": 2.38219955217,
			"-0.012": 2.01923090228,
			"-0.011": 1.48564020905,
			"-0.01": 1.75613121654,
			"-0.009": 2.16322579927,
			"-0.008": 1.88530862238,
			"-0.007": 2.79986258662,
			"-0.006": 4.80069240792,
			"-0.005": 3.38121313979,
			"-0.004": 6.52742986893,
			"-0.003": 19.6272297575,
			"-0.002": 25.1228552963,
			"-0.001": 26.9621972948,
			"0.0": 29.2473112334,
			"0.001": 31.7014738049,
			"0.002": 27.479872988,
			"0.003": 25.7217850023,
			"0.004": 6.53321339541,
			"0.005": 5.47374642729,
			"0.006": 4.21382526183,
			"0.007": 4.15415485516,
			"0.008": 3.67673664375,
			"0.009": 2.4357541122,
			"0.01": 1.67041086036,
			"0.011": 1.41307985666,
			"0.012": 1.03424573096,
			"0.013": 0.112526367506,
			"0.014": 0.0,
			"0.015": 0.0,
			"0.016": 0.0,
			"0.017": 0.0,
			"0.018": 0.0,
			"0.019": 0.0,
			"0.02": 0.0,
			"0.021": 0.0,
			"0.022": 0.0,
			"0.023": 0.0,
			"0.024": 0.0,
			"0.025": 0.0
		}
	}
}
