{
	 "smiles": "CCCCOCCCC", 
	 "Tm": 176.65, 
	 "num_atms": 27, 
	 "gaussian": { 
		 "optdone": 1, 
		 "sigma_profile": "yes", 
		 "theory": "DFT", 
		 "functional": "B3LYP", 
		 "basiset": "6-31G**", 
		 "properties": { 
			 "R2extent": 2406.7565, 
			 "electric_dipole_moment_norm": 0.97401225865, 
			 "electric_quadrupole_moment_norm": 2.71871672853, 
			 "total_energy": -390.933346344, 
			 "HOMO_LUMO_gap": 0.32623, 
			 "cosmo_polarized_energy": -3.31, 
			 "cosmo_cavitation_energy": 28.03, 
			 "cosmo_dispersion_energy": -19.87, 
			 "cosmo_repulsion_energy": 1.69, 
			 "cosmo_total_nonelectrostatic_energy": 9.85, 
			 "SMD_solvation_energy": 4.56 
		},
		"coords": [
			{
				"x": 3.1914253747,
				"y": -0.0476839466,
				"z": -1.6636337174,
				"element": "C" 
			},
			{
				"x": 1.9457089014,
				"y": 0.8443751887,
				"z": -1.6134678812,
				"element": "C" 
			},
			{
				"x": 0.6172267414,
				"y": 0.0746391547,
				"z": -1.5380711871,
				"element": "C" 
			},
			{
				"x": 0.4094483446,
				"y": -0.7103090556,
				"z": -0.2453973145,
				"element": "C" 
			},
			{
				"x": 0.4243609037,
				"y": 0.2019918684,
				"z": 0.8422585642,
				"element": "O" 
			},
			{
				"x": 0.3908929597,
				"y": -0.4021844107,
				"z": 2.1279358584,
				"element": "C" 
			},
			{
				"x": -0.9963905518,
				"y": -0.9016607673,
				"z": 2.5463384483,
				"element": "C" 
			},
			{
				"x": -2.0572450954,
				"y": 0.20508506,
				"z": 2.5710115493,
				"element": "C" 
			},
			{
				"x": -3.450713529,
				"y": -0.3031467604,
				"z": 2.9520448062,
				"element": "C" 
			},
			{
				"x": 3.2996859012,
				"y": -0.6486536285,
				"z": -0.7545784843,
				"element": "H" 
			},
			{
				"x": 3.1541925136,
				"y": -0.7377044725,
				"z": -2.5152173681,
				"element": "H" 
			},
			{
				"x": 4.1008577476,
				"y": 0.5538092778,
				"z": -1.7647047563,
				"element": "H" 
			},
			{
				"x": 1.9257712455,
				"y": 1.4821699537,
				"z": -2.5061192924,
				"element": "H" 
			},
			{
				"x": 2.0078259043,
				"y": 1.5167343895,
				"z": -0.7509598911,
				"element": "H" 
			},
			{
				"x": 0.5422119579,
				"y": -0.6293615581,
				"z": -2.3783018405,
				"element": "H" 
			},
			{
				"x": -0.2163108748,
				"y": 0.7798537912,
				"z": -1.6429762171,
				"element": "H" 
			},
			{
				"x": -0.5471527655,
				"y": -1.253794897,
				"z": -0.296050908,
				"element": "H" 
			},
			{
				"x": 1.2014361034,
				"y": -1.4663473913,
				"z": -0.1108634079,
				"element": "H" 
			},
			{
				"x": 0.7265353078,
				"y": 0.3759847012,
				"z": 2.823916891,
				"element": "H" 
			},
			{
				"x": 1.1204175448,
				"y": -1.2276274332,
				"z": 2.1765995658,
				"element": "H" 
			},
			{
				"x": -0.904403851,
				"y": -1.3564244599,
				"z": 3.5428423114,
				"element": "H" 
			},
			{
				"x": -1.3201047392,
				"y": -1.7094476165,
				"z": 1.8761111818,
				"element": "H" 
			},
			{
				"x": -2.0883462215,
				"y": 0.6852819612,
				"z": 1.5862954786,
				"element": "H" 
			},
			{
				"x": -1.7438850017,
				"y": 0.9857004655,
				"z": 3.2780243967,
				"element": "H" 
			},
			{
				"x": -3.8050453146,
				"y": -1.0599280095,
				"z": 2.2424552992,
				"element": "H" 
			},
			{
				"x": -4.183969196,
				"y": 0.5100210166,
				"z": 2.9621855057,
				"element": "H" 
			},
			{
				"x": -3.449830311,
				"y": -0.7617724213,
				"z": 3.9478224095,
				"element": "H" 
			}
		],
		 "valence_orbital": [ 
			{
				"type": "occ",
				"energy": -0.32367,
				"method": "rhf"
			},
			{
				"type": "occ",
				"energy": -0.3217,
				"method": "rhf"
			},
			{
				"type": "occ",
				"energy": -0.31518,
				"method": "rhf"
			},
			{
				"type": "occ",
				"energy": -0.29595,
				"method": "rhf"
			},
			{
				"type": "occ",
				"energy": -0.24632,
				"method": "rhf"
			},
			{
				"type": "unocc",
				"energy": 0.07991,
				"method": "rhf"
			},
			{
				"type": "unocc",
				"energy": 0.10368,
				"method": "rhf"
			},
			{
				"type": "unocc",
				"energy": 0.11108,
				"method": "rhf"
			},
			{
				"type": "unocc",
				"energy": 0.12417,
				"method": "rhf"
			},
			{
				"type": "unocc",
				"energy": 0.13216,
				"method": "rhf"
			}
		],
		"cosmo_sigma_profile": { 
			"-0.025": 0.0,
			"-0.024": 0.0,
			"-0.023": 0.0,
			"-0.022": 0.0,
			"-0.021": 0.0,
			"-0.02": 0.0,
			"-0.019": 0.0,
			"-0.018": 0.0,
			"-0.017": 0.0,
			"-0.016": 0.0,
			"-0.015": 0.0,
			"-0.014": 0.0,
			"-0.013": 0.0,
			"-0.012": 0.0,
			"-0.011": 0.0,
			"-0.01": 0.0,
			"-0.009": 0.0,
			"-0.008": 0.0,
			"-0.007": 0.0,
			"-0.006": 0.0,
			"-0.005": 0.0,
			"-0.004": 1.13663337457,
			"-0.003": 20.0916495557,
			"-0.002": 43.7364116227,
			"-0.001": 42.3694771771,
			"0.0": 35.9113822002,
			"0.001": 35.4150549122,
			"0.002": 18.161434232,
			"0.003": 3.23925600335,
			"0.004": 2.42482138745,
			"0.005": 1.57684273752,
			"0.006": 1.66422978951,
			"0.007": 2.37874308013,
			"0.008": 1.59825864931,
			"0.009": 1.6679016903,
			"0.01": 1.41205573926,
			"0.011": 0.912558430365,
			"0.012": 0.855258139547,
			"0.013": 0.478079921063,
			"0.014": 0.161971750722,
			"0.015": 0.0,
			"0.016": 0.0,
			"0.017": 0.0,
			"0.018": 0.0,
			"0.019": 0.0,
			"0.02": 0.0,
			"0.021": 0.0,
			"0.022": 0.0,
			"0.023": 0.0,
			"0.024": 0.0,
			"0.025": 0.0
		}
	}
}
