{
	 "smiles": "C1CCN2C[C@H]3C[C@H](CN4CCCC[C@H]34)[C@@H]2C1", 
	 "Tm": 303.65, 
	 "num_atms": 43, 
	 "gaussian": { 
		 "optdone": 1, 
		 "sigma_profile": "yes", 
		 "theory": "DFT", 
		 "functional": "B3LYP", 
		 "basiset": "6-31G**", 
		 "properties": { 
			 "R2extent": 4441.955, 
			 "electric_dipole_moment_norm": 0.730769252227, 
			 "electric_quadrupole_moment_norm": 2.81892572446, 
			 "total_energy": -696.757673445, 
			 "HOMO_LUMO_gap": 0.25392, 
			 "cosmo_polarized_energy": -3.43, 
			 "cosmo_cavitation_energy": 36.46, 
			 "cosmo_dispersion_energy": -27.32, 
			 "cosmo_repulsion_energy": 2.08, 
			 "cosmo_total_nonelectrostatic_energy": 11.21, 
			 "SMD_solvation_energy": 1.79 
		},
		"coords": [
			{
				"x": 2.4351082302,
				"y": -1.8101897127,
				"z": 2.1911268392,
				"element": "C" 
			},
			{
				"x": 3.3979124453,
				"y": -0.6162888786,
				"z": 2.1140214678,
				"element": "C" 
			},
			{
				"x": 3.1967884919,
				"y": 0.1825645228,
				"z": 0.8016561062,
				"element": "C" 
			},
			{
				"x": 1.9447689109,
				"y": -0.1757212954,
				"z": 0.1340457091,
				"element": "N" 
			},
			{
				"x": 1.6316540427,
				"y": 0.7617904829,
				"z": -0.9437786943,
				"element": "C" 
			},
			{
				"x": 0.3025025872,
				"y": 0.428499649,
				"z": -1.6383521325,
				"element": "C" 
			},
			{
				"x": 0.3897181165,
				"y": -1.0034627503,
				"z": -2.1861490848,
				"element": "C" 
			},
			{
				"x": 0.608000179,
				"y": -1.9289234413,
				"z": -0.9820036846,
				"element": "C" 
			},
			{
				"x": -0.5975447133,
				"y": -1.7754293297,
				"z": 0.0103387835,
				"element": "C" 
			},
			{
				"x": -1.553564643,
				"y": -0.7265871247,
				"z": -0.3276985512,
				"element": "N" 
			},
			{
				"x": -2.7331871789,
				"y": -1.0836962774,
				"z": -1.1070542694,
				"element": "C" 
			},
			{
				"x": -3.884632716,
				"y": -0.1059517161,
				"z": -0.7865814333,
				"element": "C" 
			},
			{
				"x": -3.3441647816,
				"y": 1.3229149304,
				"z": -0.5374341642,
				"element": "C" 
			},
			{
				"x": -1.9994413364,
				"y": 1.5141002565,
				"z": -1.2454659145,
				"element": "C" 
			},
			{
				"x": -0.9302876358,
				"y": 0.5622315265,
				"z": -0.6722690501,
				"element": "C" 
			},
			{
				"x": 1.9653687146,
				"y": -1.5733565045,
				"z": -0.3302834331,
				"element": "C" 
			},
			{
				"x": 2.3546345277,
				"y": -2.5285790512,
				"z": 0.8388663903,
				"element": "C" 
			},
			{
				"x": 2.7600070302,
				"y": -2.5091921192,
				"z": 2.9706039544,
				"element": "H" 
			},
			{
				"x": 1.4407413264,
				"y": -1.4552578438,
				"z": 2.4790266653,
				"element": "H" 
			},
			{
				"x": 3.2476502984,
				"y": 0.0332875669,
				"z": 2.9831571949,
				"element": "H" 
			},
			{
				"x": 4.4343745777,
				"y": -0.9707136581,
				"z": 2.1660332797,
				"element": "H" 
			},
			{
				"x": 4.0584512084,
				"y": 0.023586042,
				"z": 0.1216615579,
				"element": "H" 
			},
			{
				"x": 3.1695786117,
				"y": 1.2572784349,
				"z": 1.0118181312,
				"element": "H" 
			},
			{
				"x": 2.4386352698,
				"y": 0.7808115152,
				"z": -1.7070288039,
				"element": "H" 
			},
			{
				"x": 1.5841870891,
				"y": 1.7693510364,
				"z": -0.5098940201,
				"element": "H" 
			},
			{
				"x": 0.1856463727,
				"y": 1.1392095788,
				"z": -2.4666097361,
				"element": "H" 
			},
			{
				"x": 1.2306250981,
				"y": -1.089141419,
				"z": -2.886730667,
				"element": "H" 
			},
			{
				"x": -0.513359332,
				"y": -1.2757759664,
				"z": -2.7406029351,
				"element": "H" 
			},
			{
				"x": 0.6778162146,
				"y": -2.9706605109,
				"z": -1.3193024445,
				"element": "H" 
			},
			{
				"x": -0.2060963243,
				"y": -1.5626139279,
				"z": 1.0118476246,
				"element": "H" 
			},
			{
				"x": -1.1507412567,
				"y": -2.7171487037,
				"z": 0.0795657385,
				"element": "H" 
			},
			{
				"x": -3.0240314422,
				"y": -2.1041875987,
				"z": -0.8370966449,
				"element": "H" 
			},
			{
				"x": -2.5605384805,
				"y": -1.0979797137,
				"z": -2.2001246624,
				"element": "H" 
			},
			{
				"x": -4.4304190078,
				"y": -0.451940388,
				"z": 0.0977204814,
				"element": "H" 
			},
			{
				"x": -4.5960509319,
				"y": -0.1085455755,
				"z": -1.6219642774,
				"element": "H" 
			},
			{
				"x": -3.2017195557,
				"y": 1.4830455073,
				"z": 0.5375502814,
				"element": "H" 
			},
			{
				"x": -4.0690348252,
				"y": 2.0728961471,
				"z": -0.8734400107,
				"element": "H" 
			},
			{
				"x": -1.641746713,
				"y": 2.5460350441,
				"z": -1.1526239136,
				"element": "H" 
			},
			{
				"x": -2.1241193735,
				"y": 1.3292900171,
				"z": -2.3215774478,
				"element": "H" 
			},
			{
				"x": -0.563662449,
				"y": 0.9913336243,
				"z": 0.272267428,
				"element": "H" 
			},
			{
				"x": 2.7348576187,
				"y": -1.6797580897,
				"z": -1.1252922242,
				"element": "H" 
			},
			{
				"x": 1.6398462384,
				"y": -3.3576209568,
				"z": 0.8955451176,
				"element": "H" 
			},
			{
				"x": 3.3288694967,
				"y": -2.9839033291,
				"z": 0.6219054484,
				"element": "H" 
			}
		],
		 "valence_orbital": [ 
			{
				"type": "occ",
				"energy": -0.29986,
				"method": "rhf"
			},
			{
				"type": "occ",
				"energy": -0.28558,
				"method": "rhf"
			},
			{
				"type": "occ",
				"energy": -0.27606,
				"method": "rhf"
			},
			{
				"type": "occ",
				"energy": -0.2093,
				"method": "rhf"
			},
			{
				"type": "occ",
				"energy": -0.17857,
				"method": "rhf"
			},
			{
				"type": "unocc",
				"energy": 0.07535,
				"method": "rhf"
			},
			{
				"type": "unocc",
				"energy": 0.08756,
				"method": "rhf"
			},
			{
				"type": "unocc",
				"energy": 0.10274,
				"method": "rhf"
			},
			{
				"type": "unocc",
				"energy": 0.10935,
				"method": "rhf"
			},
			{
				"type": "unocc",
				"energy": 0.11116,
				"method": "rhf"
			}
		],
		"cosmo_sigma_profile": { 
			"-0.025": 0.0,
			"-0.024": 0.0,
			"-0.023": 0.0,
			"-0.022": 0.0,
			"-0.021": 0.0,
			"-0.02": 0.0,
			"-0.019": 0.0,
			"-0.018": 0.0,
			"-0.017": 0.0,
			"-0.016": 0.0,
			"-0.015": 0.0,
			"-0.014": 0.0,
			"-0.013": 0.0,
			"-0.012": 0.0,
			"-0.011": 0.0,
			"-0.01": 0.0,
			"-0.009": 0.0,
			"-0.008": 0.0,
			"-0.007": 0.0,
			"-0.006": 0.0,
			"-0.005": 0.0,
			"-0.004": 1.09885144475,
			"-0.003": 12.1859792243,
			"-0.002": 46.754087466,
			"-0.001": 67.3285018634,
			"0.0": 75.9689156629,
			"0.001": 43.5151703016,
			"0.002": 12.2240598473,
			"0.003": 2.94740159834,
			"0.004": 2.19934462222,
			"0.005": 1.83205272464,
			"0.006": 1.60139536601,
			"0.007": 1.59190595592,
			"0.008": 2.03734141825,
			"0.009": 2.05169931812,
			"0.01": 1.39136856834,
			"0.011": 1.15337625301,
			"0.012": 0.913352676504,
			"0.013": 0.483558904796,
			"0.014": 0.422630596776,
			"0.015": 0.155526813797,
			"0.016": 0.0,
			"0.017": 0.0,
			"0.018": 0.0,
			"0.019": 0.0,
			"0.02": 0.0,
			"0.021": 0.0,
			"0.022": 0.0,
			"0.023": 0.0,
			"0.024": 0.0,
			"0.025": 0.0
		}
	}
}
