{
	 "smiles": "CC12C=CC3=C4CCC(=O)C=C4CCC3C1CCC2(O)C#C", 
	 "Tm": 442.15, 
	 "num_atms": 44, 
	 "gaussian": { 
		 "optdone": 1, 
		 "sigma_profile": "yes", 
		 "theory": "DFT", 
		 "functional": "B3LYP", 
		 "basiset": "6-31G**", 
		 "properties": { 
			 "R2extent": 7666.3782, 
			 "electric_dipole_moment_norm": 5.10610238342, 
			 "electric_quadrupole_moment_norm": 32.1601622784, 
			 "total_energy": -925.709251607, 
			 "HOMO_LUMO_gap": 0.14735, 
			 "cosmo_polarized_energy": -16.13, 
			 "cosmo_cavitation_energy": 42.64, 
			 "cosmo_dispersion_energy": -29.17, 
			 "cosmo_repulsion_energy": 2.18, 
			 "cosmo_total_nonelectrostatic_energy": 15.65, 
			 "SMD_solvation_energy": 7.93 
		},
		"coords": [
			{
				"x": -0.2244438863,
				"y": -1.0208231704,
				"z": 1.8784034771,
				"element": "C" 
			},
			{
				"x": 0.6322154817,
				"y": -1.1606638688,
				"z": 0.5958802268,
				"element": "C" 
			},
			{
				"x": -0.2564998635,
				"y": -1.5917164123,
				"z": -0.5488069716,
				"element": "C" 
			},
			{
				"x": -1.0509175124,
				"y": -0.6713606533,
				"z": -1.127095749,
				"element": "C" 
			},
			{
				"x": -1.0200765494,
				"y": 0.7188676539,
				"z": -0.6314771629,
				"element": "C" 
			},
			{
				"x": -2.1472986006,
				"y": 1.4626027471,
				"z": -0.4333790177,
				"element": "C" 
			},
			{
				"x": -3.4953634136,
				"y": 1.0651642171,
				"z": -1.020513879,
				"element": "C" 
			},
			{
				"x": -4.7046833936,
				"y": 1.6539559796,
				"z": -0.2822794183,
				"element": "C" 
			},
			{
				"x": -4.5271049139,
				"y": 3.1269319713,
				"z": 0.0635811636,
				"element": "C" 
			},
			{
				"x": -5.4672233157,
				"y": 3.9121548376,
				"z": 0.0770013754,
				"element": "O" 
			},
			{
				"x": -3.177515477,
				"y": 3.4992967542,
				"z": 0.5057751901,
				"element": "C" 
			},
			{
				"x": -2.0903083082,
				"y": 2.6969513228,
				"z": 0.3461123335,
				"element": "C" 
			},
			{
				"x": -0.8064487171,
				"y": 2.9797519224,
				"z": 1.0898311272,
				"element": "C" 
			},
			{
				"x": 0.4306371088,
				"y": 2.6663363524,
				"z": 0.2490518983,
				"element": "C" 
			},
			{
				"x": 0.3926732699,
				"y": 1.2593439299,
				"z": -0.3969233868,
				"element": "C" 
			},
			{
				"x": 1.3424846925,
				"y": 0.1496764171,
				"z": 0.164660857,
				"element": "C" 
			},
			{
				"x": 2.3483939537,
				"y": 0.4065342969,
				"z": 1.2991637295,
				"element": "C" 
			},
			{
				"x": 2.8363450275,
				"y": -1.0251636972,
				"z": 1.665962333,
				"element": "C" 
			},
			{
				"x": 1.8881893119,
				"y": -2.0437128037,
				"z": 0.9403757177,
				"element": "C" 
			},
			{
				"x": 1.6246558799,
				"y": -3.1101976834,
				"z": 1.8537385932,
				"element": "O" 
			},
			{
				"x": 2.5046796753,
				"y": -2.5932234104,
				"z": -0.2799842517,
				"element": "C" 
			},
			{
				"x": 2.9863970114,
				"y": -3.0867955665,
				"z": -1.2729563684,
				"element": "C" 
			},
			{
				"x": -0.6952662032,
				"y": -1.9766316957,
				"z": 2.1191994871,
				"element": "H" 
			},
			{
				"x": -1.0126430546,
				"y": -0.2792878417,
				"z": 1.7335257454,
				"element": "H" 
			},
			{
				"x": 0.3722600202,
				"y": -0.7325680418,
				"z": 2.7473776615,
				"element": "H" 
			},
			{
				"x": -0.2882621625,
				"y": -2.6329357652,
				"z": -0.8616218782,
				"element": "H" 
			},
			{
				"x": -1.7549769434,
				"y": -0.9602525706,
				"z": -1.9027317192,
				"element": "H" 
			},
			{
				"x": -3.5202299027,
				"y": 1.4183571814,
				"z": -2.0621308942,
				"element": "H" 
			},
			{
				"x": -3.5901907941,
				"y": -0.0225813764,
				"z": -1.0654391009,
				"element": "H" 
			},
			{
				"x": -4.8509219063,
				"y": 1.1280487665,
				"z": 0.6720216831,
				"element": "H" 
			},
			{
				"x": -5.6247165828,
				"y": 1.5331878642,
				"z": -0.8598401125,
				"element": "H" 
			},
			{
				"x": -3.0989227076,
				"y": 4.4340115518,
				"z": 1.055479339,
				"element": "H" 
			},
			{
				"x": -0.807260204,
				"y": 2.3518443137,
				"z": 1.9930788604,
				"element": "H" 
			},
			{
				"x": -0.7890613168,
				"y": 4.0184920983,
				"z": 1.4349236754,
				"element": "H" 
			},
			{
				"x": 0.4933307284,
				"y": 3.4116895262,
				"z": -0.5520084021,
				"element": "H" 
			},
			{
				"x": 1.3361092027,
				"y": 2.7891455484,
				"z": 0.8505384621,
				"element": "H" 
			},
			{
				"x": 0.7511074438,
				"y": 1.4132918475,
				"z": -1.4237198368,
				"element": "H" 
			},
			{
				"x": 1.9554070299,
				"y": -0.1583229909,
				"z": -0.690756448,
				"element": "H" 
			},
			{
				"x": 3.1732292771,
				"y": 1.0522743948,
				"z": 0.9832464706,
				"element": "H" 
			},
			{
				"x": 1.8759793711,
				"y": 0.888654729,
				"z": 2.1610907711,
				"element": "H" 
			},
			{
				"x": 2.7651536179,
				"y": -1.2236796153,
				"z": 2.7380326989,
				"element": "H" 
			},
			{
				"x": 3.8737021506,
				"y": -1.1972061507,
				"z": 1.3721963961,
				"element": "H" 
			},
			{
				"x": 1.2346686843,
				"y": -3.8407554155,
				"z": 1.3547304914,
				"element": "H" 
			},
			{
				"x": 3.423716791,
				"y": -3.5129874941,
				"z": -2.1463151671,
				"element": "H" 
			}
		],
		 "valence_orbital": [ 
			{
				"type": "occ",
				"energy": -0.27788,
				"method": "rhf"
			},
			{
				"type": "occ",
				"energy": -0.26807,
				"method": "rhf"
			},
			{
				"type": "occ",
				"energy": -0.26533,
				"method": "rhf"
			},
			{
				"type": "occ",
				"energy": -0.22642,
				"method": "rhf"
			},
			{
				"type": "occ",
				"energy": -0.21104,
				"method": "rhf"
			},
			{
				"type": "unocc",
				"energy": -0.06369,
				"method": "rhf"
			},
			{
				"type": "unocc",
				"energy": -0.00468,
				"method": "rhf"
			},
			{
				"type": "unocc",
				"energy": 0.0246,
				"method": "rhf"
			},
			{
				"type": "unocc",
				"energy": 0.03929,
				"method": "rhf"
			},
			{
				"type": "unocc",
				"energy": 0.04322,
				"method": "rhf"
			}
		],
		"cosmo_sigma_profile": { 
			"-0.025": 0.0,
			"-0.024": 0.0,
			"-0.023": 0.0,
			"-0.022": 0.0,
			"-0.021": 0.0,
			"-0.02": 0.0,
			"-0.019": 0.0,
			"-0.018": 0.0,
			"-0.017": 0.0,
			"-0.016": 0.119517363592,
			"-0.015": 0.794384519695,
			"-0.014": 0.940713796317,
			"-0.013": 0.674171977864,
			"-0.012": 1.17350417483,
			"-0.011": 1.90996546669,
			"-0.01": 2.09704850746,
			"-0.009": 1.88766489762,
			"-0.008": 3.35927005514,
			"-0.007": 1.25517342813,
			"-0.006": 3.52963615724,
			"-0.005": 12.0940011139,
			"-0.004": 24.9232951554,
			"-0.003": 46.4748322951,
			"-0.002": 46.3190362203,
			"-0.001": 40.4863112829,
			"0.0": 28.3298711271,
			"0.001": 23.5013803818,
			"0.002": 16.446636677,
			"0.003": 12.8871664307,
			"0.004": 12.8287666596,
			"0.005": 13.1753971546,
			"0.006": 8.52428717153,
			"0.007": 3.036998639,
			"0.008": 3.63383830936,
			"0.009": 2.6738595776,
			"0.01": 2.58289412553,
			"0.011": 2.91385206324,
			"0.012": 4.61098727503,
			"0.013": 5.92656052286,
			"0.014": 3.71906212824,
			"0.015": 1.20278083165,
			"0.016": 0.0,
			"0.017": 0.0,
			"0.018": 0.0,
			"0.019": 0.0,
			"0.02": 0.0,
			"0.021": 0.0,
			"0.022": 0.0,
			"0.023": 0.0,
			"0.024": 0.0,
			"0.025": 0.0
		}
	}
}
