{
	 "smiles": "CC1=CC(O)=C2C=CC=CC2=C1O", 
	 "Tm": 442.15, 
	 "num_atms": 23, 
	 "gaussian": { 
		 "optdone": 1, 
		 "sigma_profile": "yes", 
		 "theory": "DFT", 
		 "functional": "B3LYP", 
		 "basiset": "6-31G**", 
		 "properties": { 
			 "R2extent": 2603.1394, 
			 "electric_dipole_moment_norm": 0.831899561245, 
			 "electric_quadrupole_moment_norm": 12.4344917994, 
			 "total_energy": -575.65029376, 
			 "HOMO_LUMO_gap": 0.15544, 
			 "cosmo_polarized_energy": -12.03, 
			 "cosmo_cavitation_energy": 25.96, 
			 "cosmo_dispersion_energy": -19.72, 
			 "cosmo_repulsion_energy": 1.52, 
			 "cosmo_total_nonelectrostatic_energy": 7.76, 
			 "SMD_solvation_energy": 4.57 
		},
		"coords": [
			{
				"x": 2.6837924482,
				"y": 1.4599435031,
				"z": 1.6453946859,
				"element": "C" 
			},
			{
				"x": 1.4846445346,
				"y": 1.0364999801,
				"z": 0.8284654075,
				"element": "C" 
			},
			{
				"x": 1.2996374367,
				"y": -0.3222563199,
				"z": 0.4729185407,
				"element": "C" 
			},
			{
				"x": 0.2202877502,
				"y": -0.7395500837,
				"z": -0.2727610133,
				"element": "C" 
			},
			{
				"x": 0.1311812467,
				"y": -2.0761250495,
				"z": -0.5772491393,
				"element": "O" 
			},
			{
				"x": -0.7494683,
				"y": 0.2056343673,
				"z": -0.7241952493,
				"element": "C" 
			},
			{
				"x": -1.8590547098,
				"y": -0.1509027041,
				"z": -1.5368648359,
				"element": "C" 
			},
			{
				"x": -2.7854153071,
				"y": 0.7889421548,
				"z": -1.9314573983,
				"element": "C" 
			},
			{
				"x": -2.6413505204,
				"y": 2.1391221047,
				"z": -1.535301461,
				"element": "C" 
			},
			{
				"x": -1.5662605384,
				"y": 2.5253329061,
				"z": -0.766110111,
				"element": "C" 
			},
			{
				"x": -0.5931144589,
				"y": 1.5798719057,
				"z": -0.3469982178,
				"element": "C" 
			},
			{
				"x": 0.5375977546,
				"y": 1.9654292397,
				"z": 0.4290819794,
				"element": "C" 
			},
			{
				"x": 0.6270890653,
				"y": 3.298912551,
				"z": 0.7455065914,
				"element": "O" 
			},
			{
				"x": 3.3214805613,
				"y": 0.6033286688,
				"z": 1.8747060987,
				"element": "H" 
			},
			{
				"x": 2.3936426742,
				"y": 1.9089778707,
				"z": 2.6056060662,
				"element": "H" 
			},
			{
				"x": 3.308134438,
				"y": 2.1912841469,
				"z": 1.113751109,
				"element": "H" 
			},
			{
				"x": 2.0192426379,
				"y": -1.0666580904,
				"z": 0.7992727834,
				"element": "H" 
			},
			{
				"x": -0.7856249824,
				"y": -2.2946609233,
				"z": -0.7838042552,
				"element": "H" 
			},
			{
				"x": -1.971038235,
				"y": -1.1752496413,
				"z": -1.88440503,
				"element": "H" 
			},
			{
				"x": -3.6235837478,
				"y": 0.4950144862,
				"z": -2.5565242409,
				"element": "H" 
			},
			{
				"x": -3.3773475802,
				"y": 2.8738705997,
				"z": -1.8483879398,
				"element": "H" 
			},
			{
				"x": -1.440936851,
				"y": 3.5602521156,
				"z": -0.4689582986,
				"element": "H" 
			},
			{
				"x": 1.4198646835,
				"y": 3.4461862119,
				"z": 1.2750139281,
				"element": "H" 
			}
		],
		 "valence_orbital": [ 
			{
				"type": "occ",
				"energy": -0.3262,
				"method": "rhf"
			},
			{
				"type": "occ",
				"energy": -0.28883,
				"method": "rhf"
			},
			{
				"type": "occ",
				"energy": -0.25818,
				"method": "rhf"
			},
			{
				"type": "occ",
				"energy": -0.23849,
				"method": "rhf"
			},
			{
				"type": "occ",
				"energy": -0.18398,
				"method": "rhf"
			},
			{
				"type": "unocc",
				"energy": -0.02854,
				"method": "rhf"
			},
			{
				"type": "unocc",
				"energy": -0.00647,
				"method": "rhf"
			},
			{
				"type": "unocc",
				"energy": 0.05333,
				"method": "rhf"
			},
			{
				"type": "unocc",
				"energy": 0.0648,
				"method": "rhf"
			},
			{
				"type": "unocc",
				"energy": 0.0689,
				"method": "rhf"
			}
		],
		"cosmo_sigma_profile": { 
			"-0.025": 0.0,
			"-0.024": 0.0,
			"-0.023": 0.0,
			"-0.022": 0.0,
			"-0.021": 0.0,
			"-0.02": 0.0,
			"-0.019": 0.0,
			"-0.018": 0.0,
			"-0.017": 0.524289388776,
			"-0.016": 1.28004584505,
			"-0.015": 1.62422445936,
			"-0.014": 1.7596324314,
			"-0.013": 2.67722975221,
			"-0.012": 1.12966933333,
			"-0.011": 1.4526766474,
			"-0.01": 2.21935187385,
			"-0.009": 2.85137136958,
			"-0.008": 2.66408478099,
			"-0.007": 2.72537218428,
			"-0.006": 5.79800045304,
			"-0.005": 14.4914372794,
			"-0.004": 13.7549795618,
			"-0.003": 14.1528378052,
			"-0.002": 11.2255427849,
			"-0.001": 11.8743341279,
			"0.0": 12.8609701618,
			"0.001": 8.96266334121,
			"0.002": 9.84822465714,
			"0.003": 14.4589833075,
			"0.004": 25.0956449052,
			"0.005": 19.6022526052,
			"0.006": 6.94388101047,
			"0.007": 2.97866948896,
			"0.008": 3.45905421563,
			"0.009": 3.67763006568,
			"0.01": 2.93768838595,
			"0.011": 2.15309918725,
			"0.012": 1.51543538154,
			"0.013": 0.0367094068642,
			"0.014": 0.0,
			"0.015": 0.0,
			"0.016": 0.0,
			"0.017": 0.0,
			"0.018": 0.0,
			"0.019": 0.0,
			"0.02": 0.0,
			"0.021": 0.0,
			"0.022": 0.0,
			"0.023": 0.0,
			"0.024": 0.0,
			"0.025": 0.0
		}
	}
}
