{
	 "smiles": "OC(=O)CC1=CC(F)=CC(F)=C1", 
	 "Tm": 342.15, 
	 "num_atms": 18, 
	 "gaussian": { 
		 "optdone": 1, 
		 "sigma_profile": "yes", 
		 "theory": "DFT", 
		 "functional": "B3LYP", 
		 "basiset": "6-31G**", 
		 "properties": { 
			 "R2extent": 2962.0159, 
			 "electric_dipole_moment_norm": 3.60384575974, 
			 "electric_quadrupole_moment_norm": 18.4518760862, 
			 "total_energy": -658.591346977, 
			 "HOMO_LUMO_gap": 0.22416, 
			 "cosmo_polarized_energy": -13.1, 
			 "cosmo_cavitation_energy": 23.97, 
			 "cosmo_dispersion_energy": -16.95, 
			 "cosmo_repulsion_energy": 1.32, 
			 "cosmo_total_nonelectrostatic_energy": 8.33, 
			 "SMD_solvation_energy": 6.31 
		},
		"coords": [
			{
				"x": 0.9131198616,
				"y": 1.7234458474,
				"z": -3.5805183456,
				"element": "O" 
			},
			{
				"x": 1.2267185037,
				"y": 2.5204909031,
				"z": -2.5343315823,
				"element": "C" 
			},
			{
				"x": 1.4389374832,
				"y": 3.6958211183,
				"z": -2.6899114161,
				"element": "O" 
			},
			{
				"x": 1.3515455771,
				"y": 1.83899121,
				"z": -1.1585429965,
				"element": "C" 
			},
			{
				"x": 0.5426067292,
				"y": 0.5751324057,
				"z": -0.9760977062,
				"element": "C" 
			},
			{
				"x": -0.7712362302,
				"y": 0.6411396939,
				"z": -0.4924478565,
				"element": "C" 
			},
			{
				"x": -1.5067425206,
				"y": -0.5317861108,
				"z": -0.3663863865,
				"element": "C" 
			},
			{
				"x": -2.7636988826,
				"y": -0.4617250924,
				"z": 0.1038127506,
				"element": "F" 
			},
			{
				"x": -0.9964238014,
				"y": -1.780261513,
				"z": -0.7084389849,
				"element": "C" 
			},
			{
				"x": 0.3065844719,
				"y": -1.8168038434,
				"z": -1.1877786507,
				"element": "C" 
			},
			{
				"x": 0.8384254648,
				"y": -3.0055378237,
				"z": -1.5212139086,
				"element": "F" 
			},
			{
				"x": 1.0850648003,
				"y": -0.6704936506,
				"z": -1.3301147021,
				"element": "C" 
			},
			{
				"x": 0.7324046702,
				"y": 0.8217471983,
				"z": -3.2697224543,
				"element": "H" 
			},
			{
				"x": 2.4190367174,
				"y": 1.6282810176,
				"z": -1.0198792251,
				"element": "H" 
			},
			{
				"x": 1.0826698819,
				"y": 2.5962292285,
				"z": -0.4193251701,
				"element": "H" 
			},
			{
				"x": -1.223406058,
				"y": 1.5861098108,
				"z": -0.2116939993,
				"element": "H" 
			},
			{
				"x": -1.5862373276,
				"y": -2.68191942,
				"z": -0.6002544108,
				"element": "H" 
			},
			{
				"x": 2.1074306592,
				"y": -0.7657609797,
				"z": -1.6820549549,
				"element": "H" 
			}
		],
		 "valence_orbital": [ 
			{
				"type": "occ",
				"energy": -0.37096,
				"method": "rhf"
			},
			{
				"type": "occ",
				"energy": -0.31778,
				"method": "rhf"
			},
			{
				"type": "occ",
				"energy": -0.29218,
				"method": "rhf"
			},
			{
				"type": "occ",
				"energy": -0.27021,
				"method": "rhf"
			},
			{
				"type": "occ",
				"energy": -0.2642,
				"method": "rhf"
			},
			{
				"type": "unocc",
				"energy": -0.04004,
				"method": "rhf"
			},
			{
				"type": "unocc",
				"energy": -0.02843,
				"method": "rhf"
			},
			{
				"type": "unocc",
				"energy": 0.00842,
				"method": "rhf"
			},
			{
				"type": "unocc",
				"energy": 0.06302,
				"method": "rhf"
			},
			{
				"type": "unocc",
				"energy": 0.08441,
				"method": "rhf"
			}
		],
		"cosmo_sigma_profile": { 
			"-0.025": 0.0,
			"-0.024": 0.0,
			"-0.023": 0.0,
			"-0.022": 0.0,
			"-0.021": 0.0,
			"-0.02": 0.0,
			"-0.019": 0.0,
			"-0.018": 0.0,
			"-0.017": 0.0,
			"-0.016": 0.0,
			"-0.015": 0.0,
			"-0.014": 0.621349209176,
			"-0.013": 0.687293326177,
			"-0.012": 0.837569767065,
			"-0.011": 1.78613612011,
			"-0.01": 2.12814243724,
			"-0.009": 4.29626856085,
			"-0.008": 10.2170820064,
			"-0.007": 10.4033633625,
			"-0.006": 8.74736281605,
			"-0.005": 7.80277253853,
			"-0.004": 8.87782930076,
			"-0.003": 8.63152730058,
			"-0.002": 8.34809264729,
			"-0.001": 11.2338895127,
			"0.0": 19.11065912,
			"0.001": 16.4271186966,
			"0.002": 10.0400374142,
			"0.003": 13.0963096664,
			"0.004": 18.4864376001,
			"0.005": 2.64355169567,
			"0.006": 1.88797613693,
			"0.007": 2.00402183061,
			"0.008": 3.07912322078,
			"0.009": 3.1400709823,
			"0.01": 5.2051295108,
			"0.011": 4.86726018019,
			"0.012": 5.63017666423,
			"0.013": 1.86832053069,
			"0.014": 0.0218601959599,
			"0.015": 0.0,
			"0.016": 0.0,
			"0.017": 0.0,
			"0.018": 0.0,
			"0.019": 0.0,
			"0.02": 0.0,
			"0.021": 0.0,
			"0.022": 0.0,
			"0.023": 0.0,
			"0.024": 0.0,
			"0.025": 0.0
		}
	}
}
