{
	 "smiles": "CCN(CC)CN1C(=S)SC(=CC2=CC=C(Cl)C=C2)C1=O", 
	 "Tm": 362.15, 
	 "num_atms": 38, 
	 "gaussian": { 
		 "optdone": 1, 
		 "sigma_profile": "yes", 
		 "theory": "DFT", 
		 "functional": "B3LYP", 
		 "basiset": "6-31G**", 
		 "properties": { 
			 "R2extent": 13096.6411, 
			 "electric_dipole_moment_norm": 1.77014456754, 
			 "electric_quadrupole_moment_norm": 27.5824481218, 
			 "total_energy": -2023.13750245, 
			 "HOMO_LUMO_gap": 0.11066, 
			 "cosmo_polarized_energy": -10.24, 
			 "cosmo_cavitation_energy": 45.4, 
			 "cosmo_dispersion_energy": -31.97, 
			 "cosmo_repulsion_energy": 2.35, 
			 "cosmo_total_nonelectrostatic_energy": 15.78, 
			 "SMD_solvation_energy": 5.94 
		},
		"coords": [
			{
				"x": -1.980783019,
				"y": -2.7746628101,
				"z": 0.2729499115,
				"element": "C" 
			},
			{
				"x": -1.805405864,
				"y": -3.1762347248,
				"z": -1.1988757359,
				"element": "C" 
			},
			{
				"x": -1.0565808036,
				"y": -2.2339433234,
				"z": -2.025311053,
				"element": "N" 
			},
			{
				"x": 0.3431717447,
				"y": -2.5264588362,
				"z": -2.3226286555,
				"element": "C" 
			},
			{
				"x": 1.3122691585,
				"y": -2.320046296,
				"z": -1.1527252531,
				"element": "C" 
			},
			{
				"x": -1.7521362798,
				"y": -1.241708284,
				"z": -2.7503666924,
				"element": "C" 
			},
			{
				"x": -1.9324742567,
				"y": 0.0878317796,
				"z": -2.0357840791,
				"element": "N" 
			},
			{
				"x": -3.1211365893,
				"y": 0.50061103,
				"z": -1.4875907387,
				"element": "C" 
			},
			{
				"x": -4.5753211584,
				"y": -0.2856408764,
				"z": -1.4931387915,
				"element": "S" 
			},
			{
				"x": -2.9105813101,
				"y": 2.0822255821,
				"z": -0.7248700814,
				"element": "S" 
			},
			{
				"x": -1.1936662339,
				"y": 2.18129384,
				"z": -1.1893554325,
				"element": "C" 
			},
			{
				"x": -0.4594596089,
				"y": 3.2715439802,
				"z": -0.8343148193,
				"element": "C" 
			},
			{
				"x": 0.9203375544,
				"y": 3.7033870863,
				"z": -1.0214527715,
				"element": "C" 
			},
			{
				"x": 1.2617496672,
				"y": 4.9460125497,
				"z": -0.4388653606,
				"element": "C" 
			},
			{
				"x": 2.5413002025,
				"y": 5.4761534473,
				"z": -0.5389062338,
				"element": "C" 
			},
			{
				"x": 3.5142288159,
				"y": 4.758692113,
				"z": -1.2364828359,
				"element": "C" 
			},
			{
				"x": 5.1344714217,
				"y": 5.411924207,
				"z": -1.3737729992,
				"element": "Cl" 
			},
			{
				"x": 3.2134195177,
				"y": 3.5295714596,
				"z": -1.8261485065,
				"element": "C" 
			},
			{
				"x": 1.9294651218,
				"y": 3.0059668699,
				"z": -1.7206395732,
				"element": "C" 
			},
			{
				"x": -0.8350840832,
				"y": 0.9566383518,
				"z": -1.9451464184,
				"element": "C" 
			},
			{
				"x": 0.2433804361,
				"y": 0.6786988913,
				"z": -2.4540541569,
				"element": "O" 
			},
			{
				"x": -2.5616401088,
				"y": -1.8525059304,
				"z": 0.3624747375,
				"element": "H" 
			},
			{
				"x": -2.5190940585,
				"y": -3.5598157082,
				"z": 0.8162695133,
				"element": "H" 
			},
			{
				"x": -1.0150333756,
				"y": -2.6217188089,
				"z": 0.7632740164,
				"element": "H" 
			},
			{
				"x": -2.798043106,
				"y": -3.3262857148,
				"z": -1.6443263052,
				"element": "H" 
			},
			{
				"x": -1.2908143419,
				"y": -4.1449877224,
				"z": -1.251271426,
				"element": "H" 
			},
			{
				"x": 0.4278298192,
				"y": -3.567130276,
				"z": -2.6767615373,
				"element": "H" 
			},
			{
				"x": 0.6498299008,
				"y": -1.8798923849,
				"z": -3.1484216351,
				"element": "H" 
			},
			{
				"x": 2.3359545315,
				"y": -2.5533036501,
				"z": -1.4673139485,
				"element": "H" 
			},
			{
				"x": 1.0704820413,
				"y": -2.9728543807,
				"z": -0.3079714503,
				"element": "H" 
			},
			{
				"x": 1.2859079399,
				"y": -1.2822112703,
				"z": -0.8101831982,
				"element": "H" 
			},
			{
				"x": -2.7743507231,
				"y": -1.5474772493,
				"z": -2.9848099265,
				"element": "H" 
			},
			{
				"x": -1.2185131294,
				"y": -0.9828429586,
				"z": -3.6667654065,
				"element": "H" 
			},
			{
				"x": -1.0319209726,
				"y": 4.0066359427,
				"z": -0.2682907746,
				"element": "H" 
			},
			{
				"x": 0.5047337119,
				"y": 5.5051784754,
				"z": 0.1043741642,
				"element": "H" 
			},
			{
				"x": 2.7853587734,
				"y": 6.4300854211,
				"z": -0.085310449,
				"element": "H" 
			},
			{
				"x": 3.9817279194,
				"y": 2.9866843338,
				"z": -2.3655002263,
				"element": "H" 
			},
			{
				"x": 1.6959207446,
				"y": 2.0545858448,
				"z": -2.1785858709,
				"element": "H" 
			}
		],
		 "valence_orbital": [ 
			{
				"type": "occ",
				"energy": -0.27616,
				"method": "rhf"
			},
			{
				"type": "occ",
				"energy": -0.26241,
				"method": "rhf"
			},
			{
				"type": "occ",
				"energy": -0.23491,
				"method": "rhf"
			},
			{
				"type": "occ",
				"energy": -0.22529,
				"method": "rhf"
			},
			{
				"type": "occ",
				"energy": -0.21152,
				"method": "rhf"
			},
			{
				"type": "unocc",
				"energy": -0.10086,
				"method": "rhf"
			},
			{
				"type": "unocc",
				"energy": -0.04312,
				"method": "rhf"
			},
			{
				"type": "unocc",
				"energy": -0.02419,
				"method": "rhf"
			},
			{
				"type": "unocc",
				"energy": -0.00863,
				"method": "rhf"
			},
			{
				"type": "unocc",
				"energy": -0.00109,
				"method": "rhf"
			}
		],
		"cosmo_sigma_profile": { 
			"-0.025": 0.0,
			"-0.024": 0.0,
			"-0.023": 0.0,
			"-0.022": 0.0,
			"-0.021": 0.0,
			"-0.02": 0.0,
			"-0.019": 0.0,
			"-0.018": 0.0,
			"-0.017": 0.0,
			"-0.016": 0.0,
			"-0.015": 0.0,
			"-0.014": 0.0,
			"-0.013": 0.0,
			"-0.012": 0.0,
			"-0.011": 0.000359836619701,
			"-0.01": 1.35774195434,
			"-0.009": 3.66745746031,
			"-0.008": 4.97970565628,
			"-0.007": 7.85691881218,
			"-0.006": 9.89482615378,
			"-0.005": 11.9997340572,
			"-0.004": 15.3487698003,
			"-0.003": 28.4773878358,
			"-0.002": 33.3072968987,
			"-0.001": 38.7943802105,
			"0.0": 42.072552153,
			"0.001": 46.7952806503,
			"0.002": 44.6256364826,
			"0.003": 25.2134211563,
			"0.004": 21.4908335476,
			"0.005": 9.67623856375,
			"0.006": 8.06585488413,
			"0.007": 7.31001827572,
			"0.008": 3.99686829979,
			"0.009": 2.7899674385,
			"0.01": 0.753410667457,
			"0.011": 0.0,
			"0.012": 0.0,
			"0.013": 0.0,
			"0.014": 0.0,
			"0.015": 0.0,
			"0.016": 0.0,
			"0.017": 0.0,
			"0.018": 0.0,
			"0.019": 0.0,
			"0.02": 0.0,
			"0.021": 0.0,
			"0.022": 0.0,
			"0.023": 0.0,
			"0.024": 0.0,
			"0.025": 0.0
		}
	}
}
