{
	 "smiles": "CN1C=CC2=C1C=CC(=C2)[N+]([O-])=O", 
	 "Tm": 441.15, 
	 "num_atms": 21, 
	 "gaussian": { 
		 "optdone": 1, 
		 "sigma_profile": "yes", 
		 "theory": "DFT", 
		 "functional": "B3LYP", 
		 "basiset": "6-31G**", 
		 "properties": { 
			 "R2extent": 3138.9555, 
			 "electric_dipole_moment_norm": 7.72571556621, 
			 "electric_quadrupole_moment_norm": 14.1908009471, 
			 "total_energy": -607.634982669, 
			 "HOMO_LUMO_gap": 0.15161, 
			 "cosmo_polarized_energy": -12.29, 
			 "cosmo_cavitation_energy": 25.63, 
			 "cosmo_dispersion_energy": -18.91, 
			 "cosmo_repulsion_energy": 1.46, 
			 "cosmo_total_nonelectrostatic_energy": 8.18, 
			 "SMD_solvation_energy": 6.83 
		},
		"coords": [
			{
				"x": -2.0113723533,
				"y": -0.3560070638,
				"z": 1.6145798979,
				"element": "C" 
			},
			{
				"x": -0.7617344402,
				"y": 0.3474606417,
				"z": 1.3934288267,
				"element": "N" 
			},
			{
				"x": -0.1168008964,
				"y": 1.1727807581,
				"z": 2.3044101931,
				"element": "C" 
			},
			{
				"x": 1.0370553971,
				"y": 1.670133005,
				"z": 1.7631354581,
				"element": "C" 
			},
			{
				"x": 1.1336451066,
				"y": 1.1332728205,
				"z": 0.4352824116,
				"element": "C" 
			},
			{
				"x": -0.0150198453,
				"y": 0.3069729114,
				"z": 0.2397624553,
				"element": "C" 
			},
			{
				"x": -0.2467982396,
				"y": -0.3829129667,
				"z": -0.9594774807,
				"element": "C" 
			},
			{
				"x": 0.6837716501,
				"y": -0.2435876211,
				"z": -1.9761876582,
				"element": "C" 
			},
			{
				"x": 1.8165706363,
				"y": 0.5717992899,
				"z": -1.782166569,
				"element": "C" 
			},
			{
				"x": 2.0633287752,
				"y": 1.2628692722,
				"z": -0.6016856363,
				"element": "C" 
			},
			{
				"x": 2.7802229086,
				"y": 0.6960344715,
				"z": -2.8793587102,
				"element": "N" 
			},
			{
				"x": 3.7689269876,
				"y": 1.410783119,
				"z": -2.7016414271,
				"element": "O" 
			},
			{
				"x": 2.5497581282,
				"y": 0.0777710195,
				"z": -3.9210858396,
				"element": "O" 
			},
			{
				"x": -2.7731026003,
				"y": -0.0382898427,
				"z": 0.894529399,
				"element": "H" 
			},
			{
				"x": -2.3711685375,
				"y": -0.1338320191,
				"z": 2.6203172602,
				"element": "H" 
			},
			{
				"x": -1.8728624241,
				"y": -1.4388811892,
				"z": 1.5260007168,
				"element": "H" 
			},
			{
				"x": -0.5508972459,
				"y": 1.3343833189,
				"z": 3.2812009873,
				"element": "H" 
			},
			{
				"x": 1.7343602564,
				"y": 2.3371946568,
				"z": 2.2487145584,
				"element": "H" 
			},
			{
				"x": -1.1233201343,
				"y": -1.0079173734,
				"z": -1.0964329263,
				"element": "H" 
			},
			{
				"x": 0.5642396843,
				"y": -0.748687425,
				"z": -2.9256888774,
				"element": "H" 
			},
			{
				"x": 2.9528971864,
				"y": 1.8742602164,
				"z": -0.5134370397,
				"element": "H" 
			}
		],
		 "valence_orbital": [ 
			{
				"type": "occ",
				"energy": -0.29228,
				"method": "rhf"
			},
			{
				"type": "occ",
				"energy": -0.29082,
				"method": "rhf"
			},
			{
				"type": "occ",
				"energy": -0.27428,
				"method": "rhf"
			},
			{
				"type": "occ",
				"energy": -0.24384,
				"method": "rhf"
			},
			{
				"type": "occ",
				"energy": -0.22234,
				"method": "rhf"
			},
			{
				"type": "unocc",
				"energy": -0.07073,
				"method": "rhf"
			},
			{
				"type": "unocc",
				"energy": -0.02685,
				"method": "rhf"
			},
			{
				"type": "unocc",
				"energy": 0.02849,
				"method": "rhf"
			},
			{
				"type": "unocc",
				"energy": 0.05547,
				"method": "rhf"
			},
			{
				"type": "unocc",
				"energy": 0.07277,
				"method": "rhf"
			}
		],
		"cosmo_sigma_profile": { 
			"-0.025": 0.0,
			"-0.024": 0.0,
			"-0.023": 0.0,
			"-0.022": 0.0,
			"-0.021": 0.0,
			"-0.02": 0.0,
			"-0.019": 0.0,
			"-0.018": 0.0,
			"-0.017": 0.0,
			"-0.016": 0.0,
			"-0.015": 0.0,
			"-0.014": 0.0,
			"-0.013": 0.0,
			"-0.012": 0.0,
			"-0.011": 0.0,
			"-0.01": 0.0089545648912,
			"-0.009": 2.07222199265,
			"-0.008": 3.49668768169,
			"-0.007": 7.32934959394,
			"-0.006": 16.8669282014,
			"-0.005": 16.0416040766,
			"-0.004": 16.1236961512,
			"-0.003": 17.1495335084,
			"-0.002": 10.907518244,
			"-0.001": 8.96890986689,
			"0.0": 12.7218243629,
			"0.001": 13.3512174406,
			"0.002": 16.562652361,
			"0.003": 16.6566572191,
			"0.004": 9.66892667914,
			"0.005": 6.86000399643,
			"0.006": 4.58374502909,
			"0.007": 3.75088176959,
			"0.008": 9.63381425505,
			"0.009": 6.29776517805,
			"0.01": 4.36807744694,
			"0.011": 2.19003516374,
			"0.012": 0.0141343247023,
			"0.013": 0.0,
			"0.014": 0.0,
			"0.015": 0.0,
			"0.016": 0.0,
			"0.017": 0.0,
			"0.018": 0.0,
			"0.019": 0.0,
			"0.02": 0.0,
			"0.021": 0.0,
			"0.022": 0.0,
			"0.023": 0.0,
			"0.024": 0.0,
			"0.025": 0.0
		}
	}
}
