{
	 "smiles": "CC1=C(SC(=N1)C1=CC=CC=C1)C(Cl)=O", 
	 "Tm": 396.15, 
	 "num_atms": 23, 
	 "gaussian": { 
		 "optdone": 1, 
		 "sigma_profile": "yes", 
		 "theory": "DFT", 
		 "functional": "B3LYP", 
		 "basiset": "6-31G**", 
		 "properties": { 
			 "R2extent": 5774.0119, 
			 "electric_dipole_moment_norm": 4.73086591651, 
			 "electric_quadrupole_moment_norm": 18.0557286275, 
			 "total_energy": -1412.36203675, 
			 "HOMO_LUMO_gap": 0.14676, 
			 "cosmo_polarized_energy": -7.39, 
			 "cosmo_cavitation_energy": 31.22, 
			 "cosmo_dispersion_energy": -23.38, 
			 "cosmo_repulsion_energy": 1.78, 
			 "cosmo_total_nonelectrostatic_energy": 9.61, 
			 "SMD_solvation_energy": 4.35 
		},
		"coords": [
			{
				"x": -0.5018523508,
				"y": -2.7522283042,
				"z": 2.3257403723,
				"element": "C" 
			},
			{
				"x": -0.2812432741,
				"y": -1.303552143,
				"z": 2.0127810602,
				"element": "C" 
			},
			{
				"x": -0.0843087578,
				"y": -0.2845309563,
				"z": 2.9430307944,
				"element": "C" 
			},
			{
				"x": 0.1299803786,
				"y": 1.2402938254,
				"z": 2.1210334398,
				"element": "S" 
			},
			{
				"x": -0.0600107525,
				"y": 0.4006214823,
				"z": 0.5959052693,
				"element": "C" 
			},
			{
				"x": -0.2634500004,
				"y": -0.8973876112,
				"z": 0.7139280077,
				"element": "N" 
			},
			{
				"x": 0.0027434236,
				"y": 1.0863946202,
				"z": -0.6984798749,
				"element": "C" 
			},
			{
				"x": 0.2201164638,
				"y": 2.4712947645,
				"z": -0.7992454073,
				"element": "C" 
			},
			{
				"x": 0.2733887217,
				"y": 3.0870097509,
				"z": -2.0465038686,
				"element": "C" 
			},
			{
				"x": 0.1107284511,
				"y": 2.3305462589,
				"z": -3.2098832047,
				"element": "C" 
			},
			{
				"x": -0.1058133389,
				"y": 0.9529727594,
				"z": -3.1188944346,
				"element": "C" 
			},
			{
				"x": -0.1600840589,
				"y": 0.3318544666,
				"z": -1.8749301677,
				"element": "C" 
			},
			{
				"x": -0.0614916882,
				"y": -0.4680978548,
				"z": 4.3788278545,
				"element": "C" 
			},
			{
				"x": 0.2213142541,
				"y": 1.0838177577,
				"z": 5.3208921156,
				"element": "Cl" 
			},
			{
				"x": -0.2049260549,
				"y": -1.4987998752,
				"z": 4.9736374155,
				"element": "O" 
			},
			{
				"x": 0.3395219116,
				"y": -3.1650989554,
				"z": 2.8902619737,
				"element": "H" 
			},
			{
				"x": -0.6239358855,
				"y": -3.3049899845,
				"z": 1.3934385136,
				"element": "H" 
			},
			{
				"x": -1.388245661,
				"y": -2.8885520738,
				"z": 2.9524735938,
				"element": "H" 
			},
			{
				"x": 0.3483479259,
				"y": 3.0725110544,
				"z": 0.0967379278,
				"element": "H" 
			},
			{
				"x": 0.4419068753,
				"y": 4.1576093824,
				"z": -2.110992739,
				"element": "H" 
			},
			{
				"x": 0.1526409658,
				"y": 2.8128029414,
				"z": -4.1820165198,
				"element": "H" 
			},
			{
				"x": -0.2327064708,
				"y": 0.3614918203,
				"z": -4.020709452,
				"element": "H" 
			},
			{
				"x": -0.327321078,
				"y": -0.7356831258,
				"z": -1.7883326694,
				"element": "H" 
			}
		],
		 "valence_orbital": [ 
			{
				"type": "occ",
				"energy": -0.29325,
				"method": "rhf"
			},
			{
				"type": "occ",
				"energy": -0.29216,
				"method": "rhf"
			},
			{
				"type": "occ",
				"energy": -0.28714,
				"method": "rhf"
			},
			{
				"type": "occ",
				"energy": -0.27022,
				"method": "rhf"
			},
			{
				"type": "occ",
				"energy": -0.24113,
				"method": "rhf"
			},
			{
				"type": "unocc",
				"energy": -0.09437,
				"method": "rhf"
			},
			{
				"type": "unocc",
				"energy": -0.03401,
				"method": "rhf"
			},
			{
				"type": "unocc",
				"energy": -0.01902,
				"method": "rhf"
			},
			{
				"type": "unocc",
				"energy": -0.00711,
				"method": "rhf"
			},
			{
				"type": "unocc",
				"energy": 0.02751,
				"method": "rhf"
			}
		],
		"cosmo_sigma_profile": { 
			"-0.025": 0.0,
			"-0.024": 0.0,
			"-0.023": 0.0,
			"-0.022": 0.0,
			"-0.021": 0.0,
			"-0.02": 0.0,
			"-0.019": 0.0,
			"-0.018": 0.0,
			"-0.017": 0.0,
			"-0.016": 0.0,
			"-0.015": 0.0,
			"-0.014": 0.0,
			"-0.013": 0.0,
			"-0.012": 0.0,
			"-0.011": 0.0,
			"-0.01": 0.0,
			"-0.009": 0.0,
			"-0.008": 0.61650746133,
			"-0.007": 4.47676939436,
			"-0.006": 10.9274947456,
			"-0.005": 16.8195034902,
			"-0.004": 17.6458125084,
			"-0.003": 19.7180067078,
			"-0.002": 26.4771592607,
			"-0.001": 25.4531445158,
			"0.0": 19.1907368525,
			"0.001": 23.1001463019,
			"0.002": 23.267252548,
			"0.003": 21.9686878297,
			"0.004": 19.8787867094,
			"0.005": 8.25930839783,
			"0.006": 3.64366802646,
			"0.007": 3.65633580788,
			"0.008": 3.83247790939,
			"0.009": 5.05702571125,
			"0.01": 1.35746083159,
			"0.011": 0.0,
			"0.012": 0.0,
			"0.013": 0.0,
			"0.014": 0.0,
			"0.015": 0.0,
			"0.016": 0.0,
			"0.017": 0.0,
			"0.018": 0.0,
			"0.019": 0.0,
			"0.02": 0.0,
			"0.021": 0.0,
			"0.022": 0.0,
			"0.023": 0.0,
			"0.024": 0.0,
			"0.025": 0.0
		}
	}
}
