{
	 "smiles": "CC(CNC(=O)OC(C)(C)C)C#N", 
	 "Tm": 351.15, 
	 "num_atms": 29, 
	 "gaussian": { 
		 "optdone": 1, 
		 "sigma_profile": "yes", 
		 "theory": "DFT", 
		 "functional": "B3LYP", 
		 "basiset": "6-31G**", 
		 "properties": { 
			 "R2extent": 3121.8037, 
			 "electric_dipole_moment_norm": 4.21683761366, 
			 "electric_quadrupole_moment_norm": 19.6035902648, 
			 "total_energy": -612.577276065, 
			 "HOMO_LUMO_gap": 0.28471, 
			 "cosmo_polarized_energy": -15.94, 
			 "cosmo_cavitation_energy": 31.9, 
			 "cosmo_dispersion_energy": -21.02, 
			 "cosmo_repulsion_energy": 1.68, 
			 "cosmo_total_nonelectrostatic_energy": 12.56, 
			 "SMD_solvation_energy": 7.42 
		},
		"coords": [
			{
				"x": 2.0504384826,
				"y": -1.8812115858,
				"z": -2.6921576921,
				"element": "C" 
			},
			{
				"x": 0.5298195275,
				"y": -1.9269475053,
				"z": -2.4482751398,
				"element": "C" 
			},
			{
				"x": -0.0800474082,
				"y": -0.5158648838,
				"z": -2.204841515,
				"element": "C" 
			},
			{
				"x": 0.4717451396,
				"y": 0.2008495101,
				"z": -1.0762355192,
				"element": "N" 
			},
			{
				"x": -0.0429233138,
				"y": 0.2591283624,
				"z": 0.2007914577,
				"element": "C" 
			},
			{
				"x": 0.5249799095,
				"y": 0.8498130088,
				"z": 1.1037507376,
				"element": "O" 
			},
			{
				"x": -1.2198734709,
				"y": -0.3923395446,
				"z": 0.2704588555,
				"element": "O" 
			},
			{
				"x": -1.9042084789,
				"y": -0.5956407944,
				"z": 1.5633014071,
				"element": "C" 
			},
			{
				"x": -3.1142564553,
				"y": -1.4429580389,
				"z": 1.1636155596,
				"element": "C" 
			},
			{
				"x": -2.3395363398,
				"y": 0.7572592385,
				"z": 2.1335838519,
				"element": "C" 
			},
			{
				"x": -0.9908477541,
				"y": -1.370646359,
				"z": 2.5179006754,
				"element": "C" 
			},
			{
				"x": 0.2088267464,
				"y": -2.850271851,
				"z": -1.3490253514,
				"element": "C" 
			},
			{
				"x": -0.0328208616,
				"y": -3.5895922046,
				"z": -0.4871333833,
				"element": "N" 
			},
			{
				"x": 2.5712859626,
				"y": -1.4889343967,
				"z": -1.8147126084,
				"element": "H" 
			},
			{
				"x": 2.2695717159,
				"y": -1.235934526,
				"z": -3.5489887365,
				"element": "H" 
			},
			{
				"x": 2.4455731482,
				"y": -2.8777568988,
				"z": -2.9028921575,
				"element": "H" 
			},
			{
				"x": 0.0402897783,
				"y": -2.3277508558,
				"z": -3.3465943323,
				"element": "H" 
			},
			{
				"x": -1.1577310839,
				"y": -0.603202093,
				"z": -2.064358579,
				"element": "H" 
			},
			{
				"x": 0.0930782409,
				"y": 0.0713158443,
				"z": -3.1143176208,
				"element": "H" 
			},
			{
				"x": 1.3464382199,
				"y": 0.6929491218,
				"z": -1.1732955233,
				"element": "H" 
			},
			{
				"x": -2.7889732006,
				"y": -2.3856590912,
				"z": 0.7152958794,
				"element": "H" 
			},
			{
				"x": -3.7211775785,
				"y": -1.6669238683,
				"z": 2.0459362725,
				"element": "H" 
			},
			{
				"x": -3.7397726231,
				"y": -0.9086888039,
				"z": 0.4418023012,
				"element": "H" 
			},
			{
				"x": -2.9575374571,
				"y": 1.2963192586,
				"z": 1.4082276873,
				"element": "H" 
			},
			{
				"x": -2.937281033,
				"y": 0.5986886926,
				"z": 3.0371780737,
				"element": "H" 
			},
			{
				"x": -1.473422658,
				"y": 1.3697341873,
				"z": 2.3856388913,
				"element": "H" 
			},
			{
				"x": -0.1231202453,
				"y": -0.7737700169,
				"z": 2.8007846514,
				"element": "H" 
			},
			{
				"x": -1.5491248954,
				"y": -1.6299679094,
				"z": 3.4234171718,
				"element": "H" 
			},
			{
				"x": -0.6511920143,
				"y": -2.2967959969,
				"z": 2.0452446853,
				"element": "H" 
			}
		],
		 "valence_orbital": [ 
			{
				"type": "occ",
				"energy": -0.32619,
				"method": "rhf"
			},
			{
				"type": "occ",
				"energy": -0.32272,
				"method": "rhf"
			},
			{
				"type": "occ",
				"energy": -0.2854,
				"method": "rhf"
			},
			{
				"type": "occ",
				"energy": -0.2615,
				"method": "rhf"
			},
			{
				"type": "occ",
				"energy": -0.25727,
				"method": "rhf"
			},
			{
				"type": "unocc",
				"energy": 0.02744,
				"method": "rhf"
			},
			{
				"type": "unocc",
				"energy": 0.03254,
				"method": "rhf"
			},
			{
				"type": "unocc",
				"energy": 0.05155,
				"method": "rhf"
			},
			{
				"type": "unocc",
				"energy": 0.07229,
				"method": "rhf"
			},
			{
				"type": "unocc",
				"energy": 0.09054,
				"method": "rhf"
			}
		],
		"cosmo_sigma_profile": { 
			"-0.025": 0.0,
			"-0.024": 0.0,
			"-0.023": 0.0,
			"-0.022": 0.0,
			"-0.021": 0.0,
			"-0.02": 0.0,
			"-0.019": 0.0,
			"-0.018": 0.0,
			"-0.017": 0.0,
			"-0.016": 0.0,
			"-0.015": 0.0,
			"-0.014": 0.382847573572,
			"-0.013": 0.951188219622,
			"-0.012": 0.916931468517,
			"-0.011": 1.28935667964,
			"-0.01": 0.938650011087,
			"-0.009": 1.31636000023,
			"-0.008": 4.51165185031,
			"-0.007": 8.96955213202,
			"-0.006": 9.7269154112,
			"-0.005": 12.5131841855,
			"-0.004": 20.4226584816,
			"-0.003": 20.1586256944,
			"-0.002": 19.5741105176,
			"-0.001": 23.7313575338,
			"0.0": 30.1955498584,
			"0.001": 23.1248357122,
			"0.002": 9.43463854165,
			"0.003": 8.43672045417,
			"0.004": 10.2426708479,
			"0.005": 7.28950582239,
			"0.006": 4.95208124093,
			"0.007": 4.43520119118,
			"0.008": 3.38599331032,
			"0.009": 3.90959577588,
			"0.01": 3.96648826643,
			"0.011": 3.70101288395,
			"0.012": 3.17874866845,
			"0.013": 5.14712617636,
			"0.014": 2.4209750413,
			"0.015": 0.000762154310139,
			"0.016": 0.0,
			"0.017": 0.0,
			"0.018": 0.0,
			"0.019": 0.0,
			"0.02": 0.0,
			"0.021": 0.0,
			"0.022": 0.0,
			"0.023": 0.0,
			"0.024": 0.0,
			"0.025": 0.0
		}
	}
}
