{
	 "smiles": "OC(=O)CC1=NN(C(=O)C1)C1=NN=C(Cl)C=C1", 
	 "Tm": 457.15, 
	 "num_atms": 24, 
	 "gaussian": { 
		 "optdone": 1, 
		 "sigma_profile": "yes", 
		 "theory": "DFT", 
		 "functional": "B3LYP", 
		 "basiset": "6-31G**", 
		 "properties": { 
			 "R2extent": 6366.5035, 
			 "electric_dipole_moment_norm": 7.26557988532, 
			 "electric_quadrupole_moment_norm": 22.0286409347, 
			 "total_energy": -1251.9910451, 
			 "HOMO_LUMO_gap": 0.18265, 
			 "cosmo_polarized_energy": -25.69, 
			 "cosmo_cavitation_energy": 31.83, 
			 "cosmo_dispersion_energy": -23.63, 
			 "cosmo_repulsion_energy": 1.83, 
			 "cosmo_total_nonelectrostatic_energy": 10.03, 
			 "SMD_solvation_energy": 5.03 
		},
		"coords": [
			{
				"x": -2.5032898197,
				"y": 0.5401474973,
				"z": 2.4026559803,
				"element": "O" 
			},
			{
				"x": -3.4473737495,
				"y": 0.8094858619,
				"z": 1.498844538,
				"element": "C" 
			},
			{
				"x": -4.5476881497,
				"y": 1.1983148052,
				"z": 1.8101720575,
				"element": "O" 
			},
			{
				"x": -3.1307310994,
				"y": 0.6146535666,
				"z": -0.0028785743,
				"element": "C" 
			},
			{
				"x": -1.7693910848,
				"y": 0.1629060554,
				"z": -0.430364731,
				"element": "C" 
			},
			{
				"x": -0.8413241863,
				"y": -0.1018990135,
				"z": 0.4192586683,
				"element": "N" 
			},
			{
				"x": 0.3096897284,
				"y": -0.4983148779,
				"z": -0.2612356098,
				"element": "N" 
			},
			{
				"x": 0.128458068,
				"y": -0.4950624166,
				"z": -1.6517429478,
				"element": "C" 
			},
			{
				"x": 0.9497374744,
				"y": -0.7921360674,
				"z": -2.4952067699,
				"element": "O" 
			},
			{
				"x": -1.3156065289,
				"y": -0.0388148574,
				"z": -1.8468457453,
				"element": "C" 
			},
			{
				"x": 1.462947306,
				"y": -0.839090872,
				"z": 0.4741185472,
				"element": "C" 
			},
			{
				"x": 1.3443971176,
				"y": -0.7482331759,
				"z": 1.7992609229,
				"element": "N" 
			},
			{
				"x": 2.3830019059,
				"y": -1.0507915823,
				"z": 2.5773622381,
				"element": "N" 
			},
			{
				"x": 3.5181757652,
				"y": -1.4374509589,
				"z": 2.0210533355,
				"element": "C" 
			},
			{
				"x": 4.8288966139,
				"y": -1.8149626969,
				"z": 3.1136216121,
				"element": "Cl" 
			},
			{
				"x": 3.7142679058,
				"y": -1.5553667578,
				"z": 0.6372894927,
				"element": "C" 
			},
			{
				"x": 2.6463006045,
				"y": -1.2448344882,
				"z": -0.1763292979,
				"element": "C" 
			},
			{
				"x": -1.66648028,
				"y": 0.2398817293,
				"z": 1.9792689747,
				"element": "H" 
			},
			{
				"x": -3.8819193155,
				"y": -0.0884901541,
				"z": -0.3850855128,
				"element": "H" 
			},
			{
				"x": -3.3680608288,
				"y": 1.5676416692,
				"z": -0.4919311703,
				"element": "H" 
			},
			{
				"x": -1.8922574506,
				"y": -0.8010598226,
				"z": -2.3828697621,
				"element": "H" 
			},
			{
				"x": -1.3533770006,
				"y": 0.8761024279,
				"z": -2.4487941443,
				"element": "H" 
			},
			{
				"x": 4.6668037922,
				"y": -1.8772140947,
				"z": 0.2330026477,
				"element": "H" 
			},
			{
				"x": 2.6959232117,
				"y": -1.3036117767,
				"z": -1.2551247495,
				"element": "H" 
			}
		],
		 "valence_orbital": [ 
			{
				"type": "occ",
				"energy": -0.30313,
				"method": "rhf"
			},
			{
				"type": "occ",
				"energy": -0.30187,
				"method": "rhf"
			},
			{
				"type": "occ",
				"energy": -0.26923,
				"method": "rhf"
			},
			{
				"type": "occ",
				"energy": -0.26054,
				"method": "rhf"
			},
			{
				"type": "occ",
				"energy": -0.25929,
				"method": "rhf"
			},
			{
				"type": "unocc",
				"energy": -0.07664,
				"method": "rhf"
			},
			{
				"type": "unocc",
				"energy": -0.06802,
				"method": "rhf"
			},
			{
				"type": "unocc",
				"energy": -0.05634,
				"method": "rhf"
			},
			{
				"type": "unocc",
				"energy": 0.00998,
				"method": "rhf"
			},
			{
				"type": "unocc",
				"energy": 0.01242,
				"method": "rhf"
			}
		],
		"cosmo_sigma_profile": { 
			"-0.025": 0.0,
			"-0.024": 0.0,
			"-0.023": 0.0,
			"-0.022": 0.0,
			"-0.021": 0.0,
			"-0.02": 0.0,
			"-0.019": 0.0,
			"-0.018": 0.0,
			"-0.017": 0.0,
			"-0.016": 0.0,
			"-0.015": 0.0,
			"-0.014": 0.0,
			"-0.013": 0.0,
			"-0.012": 0.0,
			"-0.011": 0.0244719011274,
			"-0.01": 9.56218723252,
			"-0.009": 15.237359127,
			"-0.008": 14.7259167707,
			"-0.007": 12.3574794571,
			"-0.006": 12.2904503576,
			"-0.005": 11.2065672343,
			"-0.004": 14.0304903255,
			"-0.003": 19.8151443321,
			"-0.002": 15.5074435458,
			"-0.001": 13.1181380849,
			"0.0": 10.2396238669,
			"0.001": 10.1150344138,
			"0.002": 10.7316241438,
			"0.003": 13.3455716064,
			"0.004": 9.97920502175,
			"0.005": 6.55830132737,
			"0.006": 6.81157135186,
			"0.007": 6.61165699109,
			"0.008": 5.77947478467,
			"0.009": 6.85328216859,
			"0.01": 9.72195726859,
			"0.011": 10.2008226707,
			"0.012": 9.18296042419,
			"0.013": 3.95934719939,
			"0.014": 0.953773761064,
			"0.015": 0.0,
			"0.016": 0.0,
			"0.017": 0.0,
			"0.018": 0.0,
			"0.019": 0.0,
			"0.02": 0.0,
			"0.021": 0.0,
			"0.022": 0.0,
			"0.023": 0.0,
			"0.024": 0.0,
			"0.025": 0.0
		}
	}
}
