{
	 "smiles": "CC(C)S(=O)(=O)CC#N", 
	 "Tm": 306.15, 
	 "num_atms": 18, 
	 "gaussian": { 
		 "optdone": 1, 
		 "sigma_profile": "yes", 
		 "theory": "DFT", 
		 "functional": "B3LYP", 
		 "basiset": "6-31G**", 
		 "properties": { 
			 "R2extent": 2335.3859, 
			 "electric_dipole_moment_norm": 3.82604155884, 
			 "electric_quadrupole_moment_norm": 16.3166439135, 
			 "total_energy": -799.262377006, 
			 "HOMO_LUMO_gap": 0.27506, 
			 "cosmo_polarized_energy": -16.93, 
			 "cosmo_cavitation_energy": 23.02, 
			 "cosmo_dispersion_energy": -16.39, 
			 "cosmo_repulsion_energy": 1.29, 
			 "cosmo_total_nonelectrostatic_energy": 7.92, 
			 "SMD_solvation_energy": 4.65 
		},
		"coords": [
			{
				"x": 0.6705587042,
				"y": 1.7775421637,
				"z": 0.6452295916,
				"element": "C" 
			},
			{
				"x": 0.4326039603,
				"y": 0.7787809683,
				"z": 1.779438505,
				"element": "C" 
			},
			{
				"x": 0.904342612,
				"y": -0.6452084828,
				"z": 1.4834029395,
				"element": "C" 
			},
			{
				"x": -1.3192350901,
				"y": 0.831753872,
				"z": 2.3532951196,
				"element": "S" 
			},
			{
				"x": -1.5714882248,
				"y": -0.3223511188,
				"z": 3.224378487,
				"element": "O" 
			},
			{
				"x": -1.597333485,
				"y": 2.2030236709,
				"z": 2.8068281534,
				"element": "O" 
			},
			{
				"x": -2.4013414189,
				"y": 0.6422458564,
				"z": 0.851945046,
				"element": "C" 
			},
			{
				"x": -2.2710133979,
				"y": -0.6202388645,
				"z": 0.1464060326,
				"element": "C" 
			},
			{
				"x": -2.1462358945,
				"y": -1.6223039635,
				"z": -0.4263561727,
				"element": "N" 
			},
			{
				"x": 0.2787907997,
				"y": 2.7671652493,
				"z": 0.8924457927,
				"element": "H" 
			},
			{
				"x": 1.747606686,
				"y": 1.8715203845,
				"z": 0.4766109338,
				"element": "H" 
			},
			{
				"x": 0.2253626016,
				"y": 1.4350530326,
				"z": -0.2946970785,
				"element": "H" 
			},
			{
				"x": 0.9158507863,
				"y": 1.148272373,
				"z": 2.6931489967,
				"element": "H" 
			},
			{
				"x": 0.6676791866,
				"y": -1.3180732794,
				"z": 2.3095205801,
				"element": "H" 
			},
			{
				"x": 0.4545001763,
				"y": -1.0430874169,
				"z": 0.5706540291,
				"element": "H" 
			},
			{
				"x": 1.9905999438,
				"y": -0.6312030145,
				"z": 1.347142049,
				"element": "H" 
			},
			{
				"x": -3.406077656,
				"y": 0.7536960067,
				"z": 1.271203413,
				"element": "H" 
			},
			{
				"x": -2.2029702896,
				"y": 1.4902125628,
				"z": 0.192603582,
				"element": "H" 
			}
		],
		 "valence_orbital": [ 
			{
				"type": "occ",
				"energy": -0.3492,
				"method": "rhf"
			},
			{
				"type": "occ",
				"energy": -0.33584,
				"method": "rhf"
			},
			{
				"type": "occ",
				"energy": -0.3306,
				"method": "rhf"
			},
			{
				"type": "occ",
				"energy": -0.31326,
				"method": "rhf"
			},
			{
				"type": "occ",
				"energy": -0.29673,
				"method": "rhf"
			},
			{
				"type": "unocc",
				"energy": -0.02167,
				"method": "rhf"
			},
			{
				"type": "unocc",
				"energy": 0.00998,
				"method": "rhf"
			},
			{
				"type": "unocc",
				"energy": 0.03816,
				"method": "rhf"
			},
			{
				"type": "unocc",
				"energy": 0.05332,
				"method": "rhf"
			},
			{
				"type": "unocc",
				"energy": 0.0636,
				"method": "rhf"
			}
		],
		"cosmo_sigma_profile": { 
			"-0.025": 0.0,
			"-0.024": 0.0,
			"-0.023": 0.0,
			"-0.022": 0.0,
			"-0.021": 0.0,
			"-0.02": 0.0,
			"-0.019": 0.0,
			"-0.018": 0.0,
			"-0.017": 0.0,
			"-0.016": 0.0,
			"-0.015": 0.0,
			"-0.014": 0.0,
			"-0.013": 0.363809765828,
			"-0.012": 2.97196839635,
			"-0.011": 3.70498439535,
			"-0.01": 4.71759291896,
			"-0.009": 5.41608390014,
			"-0.008": 7.2709751078,
			"-0.007": 5.6053925194,
			"-0.006": 8.98738684207,
			"-0.005": 11.5737133134,
			"-0.004": 11.6306316514,
			"-0.003": 14.2451958446,
			"-0.002": 12.5967101442,
			"-0.001": 13.4662196623,
			"0.0": 7.98898679036,
			"0.001": 4.56535156541,
			"0.002": 4.99674749203,
			"0.003": 4.85252151882,
			"0.004": 5.08255147813,
			"0.005": 4.86394137762,
			"0.006": 4.23684606478,
			"0.007": 5.25694960058,
			"0.008": 6.10482131862,
			"0.009": 6.05466161258,
			"0.01": 10.9831549508,
			"0.011": 11.3635779756,
			"0.012": 3.24285758573,
			"0.013": 0.0501733842434,
			"0.014": 0.0,
			"0.015": 0.0,
			"0.016": 0.0,
			"0.017": 0.0,
			"0.018": 0.0,
			"0.019": 0.0,
			"0.02": 0.0,
			"0.021": 0.0,
			"0.022": 0.0,
			"0.023": 0.0,
			"0.024": 0.0,
			"0.025": 0.0
		}
	}
}
