{
	 "smiles": "OC1=CC=CC=C1C1=CC=CC=C1O", 
	 "Tm": 382.15, 
	 "num_atms": 24, 
	 "gaussian": { 
		 "optdone": 1, 
		 "sigma_profile": "yes", 
		 "theory": "DFT", 
		 "functional": "B3LYP", 
		 "basiset": "6-31G**", 
		 "properties": { 
			 "R2extent": 2729.5149, 
			 "electric_dipole_moment_norm": 1.34908622779, 
			 "electric_quadrupole_moment_norm": 8.10949416672, 
			 "total_energy": -613.752648059, 
			 "HOMO_LUMO_gap": 0.20142, 
			 "cosmo_polarized_energy": -8.71, 
			 "cosmo_cavitation_energy": 27.69, 
			 "cosmo_dispersion_energy": -20.12, 
			 "cosmo_repulsion_energy": 1.57, 
			 "cosmo_total_nonelectrostatic_energy": 9.15, 
			 "SMD_solvation_energy": 5.11 
		},
		"coords": [
			{
				"x": -2.2913086234,
				"y": -0.3652415751,
				"z": -0.4939525891,
				"element": "O" 
			},
			{
				"x": -1.0846140379,
				"y": -0.9823926244,
				"z": -0.6364832382,
				"element": "C" 
			},
			{
				"x": -1.0694192632,
				"y": -2.2227870779,
				"z": -1.2854488076,
				"element": "C" 
			},
			{
				"x": 0.131267546,
				"y": -2.9078162477,
				"z": -1.4456207264,
				"element": "C" 
			},
			{
				"x": 1.3263824167,
				"y": -2.3680062803,
				"z": -0.9599269012,
				"element": "C" 
			},
			{
				"x": 1.3079090848,
				"y": -1.1301234309,
				"z": -0.3212847632,
				"element": "C" 
			},
			{
				"x": 0.1132313081,
				"y": -0.4112005146,
				"z": -0.1526906744,
				"element": "C" 
			},
			{
				"x": 0.0876863003,
				"y": 0.9102716095,
				"z": 0.5435019607,
				"element": "C" 
			},
			{
				"x": 0.3548288083,
				"y": 1.0222671686,
				"z": 1.9177699631,
				"element": "C" 
			},
			{
				"x": 0.3423095771,
				"y": 2.2575847325,
				"z": 2.5615059618,
				"element": "C" 
			},
			{
				"x": 0.056534486,
				"y": 3.4121277951,
				"z": 1.8260028391,
				"element": "C" 
			},
			{
				"x": -0.2033731854,
				"y": 3.3335279624,
				"z": 0.461145616,
				"element": "C" 
			},
			{
				"x": -0.1824721198,
				"y": 2.0908886314,
				"z": -0.183344154,
				"element": "C" 
			},
			{
				"x": -0.4280745498,
				"y": 2.0767032831,
				"z": -1.5237909054,
				"element": "O" 
			},
			{
				"x": -2.1728792285,
				"y": 0.4272861666,
				"z": 0.0518656362,
				"element": "H" 
			},
			{
				"x": -2.0089699703,
				"y": -2.6315082671,
				"z": -1.6425155952,
				"element": "H" 
			},
			{
				"x": 0.1330670495,
				"y": -3.8706727355,
				"z": -1.94848444,
				"element": "H" 
			},
			{
				"x": 2.2621135617,
				"y": -2.9041467072,
				"z": -1.0825253668,
				"element": "H" 
			},
			{
				"x": 2.2295143916,
				"y": -0.6933875954,
				"z": 0.0531090342,
				"element": "H" 
			},
			{
				"x": 0.5658527279,
				"y": 0.1153471172,
				"z": 2.4774385591,
				"element": "H" 
			},
			{
				"x": 0.5478587041,
				"y": 2.3198754619,
				"z": 3.6254329958,
				"element": "H" 
			},
			{
				"x": 0.040336521,
				"y": 4.3808759846,
				"z": 2.3171571782,
				"element": "H" 
			},
			{
				"x": -0.4129602335,
				"y": 4.219290429,
				"z": -0.1294509693,
				"element": "H" 
			},
			{
				"x": -0.2876212711,
				"y": 1.1768367141,
				"z": -1.8563106133,
				"element": "H" 
			}
		],
		 "valence_orbital": [ 
			{
				"type": "occ",
				"energy": -0.33362,
				"method": "rhf"
			},
			{
				"type": "occ",
				"energy": -0.26592,
				"method": "rhf"
			},
			{
				"type": "occ",
				"energy": -0.24997,
				"method": "rhf"
			},
			{
				"type": "occ",
				"energy": -0.22902,
				"method": "rhf"
			},
			{
				"type": "occ",
				"energy": -0.22222,
				"method": "rhf"
			},
			{
				"type": "unocc",
				"energy": -0.0208,
				"method": "rhf"
			},
			{
				"type": "unocc",
				"energy": -0.0074,
				"method": "rhf"
			},
			{
				"type": "unocc",
				"energy": 0.00912,
				"method": "rhf"
			},
			{
				"type": "unocc",
				"energy": 0.00969,
				"method": "rhf"
			},
			{
				"type": "unocc",
				"energy": 0.08508,
				"method": "rhf"
			}
		],
		"cosmo_sigma_profile": { 
			"-0.025": 0.0,
			"-0.024": 0.0,
			"-0.023": 0.0,
			"-0.022": 0.0,
			"-0.021": 0.0,
			"-0.02": 0.0,
			"-0.019": 0.0,
			"-0.018": 0.0,
			"-0.017": 0.0,
			"-0.016": 0.0,
			"-0.015": 0.283715983128,
			"-0.014": 0.900420516969,
			"-0.013": 1.34613938871,
			"-0.012": 1.44385880435,
			"-0.011": 0.446631931305,
			"-0.01": 1.57219164546,
			"-0.009": 2.24471656793,
			"-0.008": 1.40850834723,
			"-0.007": 1.46617927947,
			"-0.006": 11.2629631242,
			"-0.005": 17.7994279366,
			"-0.004": 17.430635165,
			"-0.003": 18.0854929583,
			"-0.002": 13.7130752059,
			"-0.001": 15.3194221274,
			"0.0": 15.1115945712,
			"0.001": 12.6196884583,
			"0.002": 14.6919769732,
			"0.003": 17.2347408013,
			"0.004": 17.6915878269,
			"0.005": 17.5701965323,
			"0.006": 6.8772897322,
			"0.007": 1.80639475212,
			"0.008": 3.08740194832,
			"0.009": 2.84488230741,
			"0.01": 3.60020104854,
			"0.011": 3.01964542132,
			"0.012": 0.641837365041,
			"0.013": 0.0,
			"0.014": 0.0,
			"0.015": 0.0,
			"0.016": 0.0,
			"0.017": 0.0,
			"0.018": 0.0,
			"0.019": 0.0,
			"0.02": 0.0,
			"0.021": 0.0,
			"0.022": 0.0,
			"0.023": 0.0,
			"0.024": 0.0,
			"0.025": 0.0
		}
	}
}
