{
	 "smiles": "OC(=O)CN(CC1=CC=CC=C1)CC1=CC=CC=C1", 
	 "Tm": 469.15, 
	 "num_atms": 36, 
	 "gaussian": { 
		 "optdone": 1, 
		 "sigma_profile": "yes", 
		 "theory": "DFT", 
		 "functional": "B3LYP", 
		 "basiset": "6-31G**", 
		 "properties": { 
			 "R2extent": 5948.0233, 
			 "electric_dipole_moment_norm": 1.71339456635, 
			 "electric_quadrupole_moment_norm": 11.4704767713, 
			 "total_energy": -825.151122063, 
			 "HOMO_LUMO_gap": 0.21187, 
			 "cosmo_polarized_energy": -13.27, 
			 "cosmo_cavitation_energy": 38.88, 
			 "cosmo_dispersion_energy": -26.57, 
			 "cosmo_repulsion_energy": 2.06, 
			 "cosmo_total_nonelectrostatic_energy": 14.37, 
			 "SMD_solvation_energy": 6.54 
		},
		"coords": [
			{
				"x": 3.1279787933,
				"y": -0.2284585907,
				"z": -2.4536736505,
				"element": "O" 
			},
			{
				"x": 2.5929636247,
				"y": 0.2120192089,
				"z": -1.2867942194,
				"element": "C" 
			},
			{
				"x": 3.0707264107,
				"y": 1.1262799576,
				"z": -0.6552933081,
				"element": "O" 
			},
			{
				"x": 1.3559521291,
				"y": -0.6045625117,
				"z": -0.9429645506,
				"element": "C" 
			},
			{
				"x": 0.7409317047,
				"y": -0.2155538824,
				"z": 0.3101694363,
				"element": "N" 
			},
			{
				"x": 0.0915466792,
				"y": 1.1148830283,
				"z": 0.2878889328,
				"element": "C" 
			},
			{
				"x": -1.109754681,
				"y": 1.2567122346,
				"z": -0.6344800585,
				"element": "C" 
			},
			{
				"x": -0.9508539562,
				"y": 1.6835855553,
				"z": -1.961537213,
				"element": "C" 
			},
			{
				"x": -2.04612305,
				"y": 1.7872396328,
				"z": -2.8210873462,
				"element": "C" 
			},
			{
				"x": -3.3261252829,
				"y": 1.4697017396,
				"z": -2.3635938443,
				"element": "C" 
			},
			{
				"x": -3.5030591043,
				"y": 1.0565442903,
				"z": -1.041560192,
				"element": "C" 
			},
			{
				"x": -2.4046466633,
				"y": 0.9532990128,
				"z": -0.1865208168,
				"element": "C" 
			},
			{
				"x": -0.0761058853,
				"y": -1.2806920235,
				"z": 0.8960229434,
				"element": "C" 
			},
			{
				"x": -0.3397470062,
				"y": -1.0819454747,
				"z": 2.3788624816,
				"element": "C" 
			},
			{
				"x": 0.6671889402,
				"y": -0.6008071758,
				"z": 3.2269553005,
				"element": "C" 
			},
			{
				"x": 0.4377888573,
				"y": -0.4718480264,
				"z": 4.596503959,
				"element": "C" 
			},
			{
				"x": -0.79971982,
				"y": -0.8266698202,
				"z": 5.140422654,
				"element": "C" 
			},
			{
				"x": -1.8078931701,
				"y": -1.3066699457,
				"z": 4.3039064621,
				"element": "C" 
			},
			{
				"x": -1.5781511537,
				"y": -1.4288611263,
				"z": 2.9313909763,
				"element": "C" 
			},
			{
				"x": 3.9117719225,
				"y": 0.3227652991,
				"z": -2.615445632,
				"element": "H" 
			},
			{
				"x": 0.684156912,
				"y": -0.569056144,
				"z": -1.8194553754,
				"element": "H" 
			},
			{
				"x": 1.6886315556,
				"y": -1.6465877921,
				"z": -0.871550517,
				"element": "H" 
			},
			{
				"x": 0.8634340297,
				"y": 1.8382951565,
				"z": 0.0159617893,
				"element": "H" 
			},
			{
				"x": -0.2068545121,
				"y": 1.3358425677,
				"z": 1.3165180371,
				"element": "H" 
			},
			{
				"x": 0.0393104416,
				"y": 1.9570517972,
				"z": -2.3192577319,
				"element": "H" 
			},
			{
				"x": -1.9009999197,
				"y": 2.1241928291,
				"z": -3.8438318522,
				"element": "H" 
			},
			{
				"x": -4.1806294438,
				"y": 1.5534829873,
				"z": -3.029078212,
				"element": "H" 
			},
			{
				"x": -4.4982764706,
				"y": 0.8223641569,
				"z": -0.6734886107,
				"element": "H" 
			},
			{
				"x": -2.5520720352,
				"y": 0.6494874355,
				"z": 0.8469229045,
				"element": "H" 
			},
			{
				"x": -1.0368137256,
				"y": -1.4267209097,
				"z": 0.3720205269,
				"element": "H" 
			},
			{
				"x": 0.4830687394,
				"y": -2.2173357653,
				"z": 0.7682230222,
				"element": "H" 
			},
			{
				"x": 1.6220570022,
				"y": -0.3176304627,
				"z": 2.7942299048,
				"element": "H" 
			},
			{
				"x": 1.2263955898,
				"y": -0.0942539466,
				"z": 5.241690737,
				"element": "H" 
			},
			{
				"x": -0.9769919972,
				"y": -0.7256316667,
				"z": 6.2074214796,
				"element": "H" 
			},
			{
				"x": -2.7750896543,
				"y": -1.5803742881,
				"z": 4.7163972445,
				"element": "H" 
			},
			{
				"x": -2.3676958007,
				"y": -1.801287337,
				"z": 2.2823043386,
				"element": "H" 
			}
		],
		 "valence_orbital": [ 
			{
				"type": "occ",
				"energy": -0.24891,
				"method": "rhf"
			},
			{
				"type": "occ",
				"energy": -0.24677,
				"method": "rhf"
			},
			{
				"type": "occ",
				"energy": -0.2455,
				"method": "rhf"
			},
			{
				"type": "occ",
				"energy": -0.24009,
				"method": "rhf"
			},
			{
				"type": "occ",
				"energy": -0.2162,
				"method": "rhf"
			},
			{
				"type": "unocc",
				"energy": -0.00433,
				"method": "rhf"
			},
			{
				"type": "unocc",
				"energy": -0.00282,
				"method": "rhf"
			},
			{
				"type": "unocc",
				"energy": -0.00108,
				"method": "rhf"
			},
			{
				"type": "unocc",
				"energy": 0.00196,
				"method": "rhf"
			},
			{
				"type": "unocc",
				"energy": 0.00958,
				"method": "rhf"
			}
		],
		"cosmo_sigma_profile": { 
			"-0.025": 0.0,
			"-0.024": 0.0,
			"-0.023": 0.0,
			"-0.022": 0.0,
			"-0.021": 0.0,
			"-0.02": 0.0,
			"-0.019": 0.00230239467501,
			"-0.018": 0.581431305705,
			"-0.017": 1.29254816689,
			"-0.016": 0.578429951999,
			"-0.015": 0.523013442804,
			"-0.014": 1.06530852083,
			"-0.013": 1.00821772971,
			"-0.012": 0.0601343553938,
			"-0.011": 0.732741278312,
			"-0.01": 1.02562439018,
			"-0.009": 0.339300282373,
			"-0.008": 1.1934023356,
			"-0.007": 4.54860638144,
			"-0.006": 9.39253704061,
			"-0.005": 22.4150894257,
			"-0.004": 25.7170578112,
			"-0.003": 35.8409528936,
			"-0.002": 28.3850307164,
			"-0.001": 23.8645372139,
			"0.0": 19.6649784265,
			"0.001": 19.1905920683,
			"0.002": 17.8730190193,
			"0.003": 16.2656664253,
			"0.004": 17.2858104908,
			"0.005": 18.0748045271,
			"0.006": 17.2995441863,
			"0.007": 5.88676276935,
			"0.008": 2.31818289198,
			"0.009": 3.57598588428,
			"0.01": 2.67065335186,
			"0.011": 4.21206476956,
			"0.012": 4.09928976867,
			"0.013": 1.06746894269,
			"0.014": 0.310324847606,
			"0.015": 0.0,
			"0.016": 0.0,
			"0.017": 0.0,
			"0.018": 0.0,
			"0.019": 0.0,
			"0.02": 0.0,
			"0.021": 0.0,
			"0.022": 0.0,
			"0.023": 0.0,
			"0.024": 0.0,
			"0.025": 0.0
		}
	}
}
