{
	 "smiles": "CC1=C(C=NC=C1)N1C=CN=C1", 
	 "Tm": 338.15, 
	 "num_atms": 21, 
	 "gaussian": { 
		 "optdone": 1, 
		 "sigma_profile": "yes", 
		 "theory": "DFT", 
		 "functional": "B3LYP", 
		 "basiset": "6-31G**", 
		 "properties": { 
			 "R2extent": 2121.5677, 
			 "electric_dipole_moment_norm": 4.00297505488, 
			 "electric_quadrupole_moment_norm": 9.97138962532, 
			 "total_energy": -512.621906259, 
			 "HOMO_LUMO_gap": 0.19294, 
			 "cosmo_polarized_energy": -12.28, 
			 "cosmo_cavitation_energy": 25.07, 
			 "cosmo_dispersion_energy": -18.02, 
			 "cosmo_repulsion_energy": 1.4, 
			 "cosmo_total_nonelectrostatic_energy": 8.45, 
			 "SMD_solvation_energy": 2.27 
		},
		"coords": [
			{
				"x": -0.7416003549,
				"y": -0.0978705481,
				"z": 2.0471671581,
				"element": "C" 
			},
			{
				"x": -0.9826819174,
				"y": -0.7597146026,
				"z": 0.7148526364,
				"element": "C" 
			},
			{
				"x": -0.0384498376,
				"y": -0.7368821516,
				"z": -0.32719126,
				"element": "C" 
			},
			{
				"x": -0.3198017512,
				"y": -1.4000293098,
				"z": -1.5277488172,
				"element": "C" 
			},
			{
				"x": -1.4491182418,
				"y": -2.0718895368,
				"z": -1.7601057714,
				"element": "N" 
			},
			{
				"x": -2.3560928131,
				"y": -2.084714481,
				"z": -0.7758496956,
				"element": "C" 
			},
			{
				"x": -2.1692101131,
				"y": -1.4530852477,
				"z": 0.4525117447,
				"element": "C" 
			},
			{
				"x": 1.2180079316,
				"y": -0.0818869117,
				"z": -0.1877954365,
				"element": "N" 
			},
			{
				"x": 1.4525999158,
				"y": 1.2643663042,
				"z": 0.056146073,
				"element": "C" 
			},
			{
				"x": 2.8161801818,
				"y": 1.4061186869,
				"z": 0.0576022749,
				"element": "C" 
			},
			{
				"x": 3.4348482366,
				"y": 0.1966966882,
				"z": -0.1736579608,
				"element": "N" 
			},
			{
				"x": 2.4578138632,
				"y": -0.6671991452,
				"z": -0.3213835961,
				"element": "C" 
			},
			{
				"x": -0.9393405943,
				"y": 0.9791620629,
				"z": 2.0012638376,
				"element": "H" 
			},
			{
				"x": 0.295549288,
				"y": -0.2188990302,
				"z": 2.3711706256,
				"element": "H" 
			},
			{
				"x": -1.400071675,
				"y": -0.5208223749,
				"z": 2.8098635347,
				"element": "H" 
			},
			{
				"x": 0.4140167665,
				"y": -1.372559069,
				"z": -2.3313336776,
				"element": "H" 
			},
			{
				"x": -3.2764501373,
				"y": -2.6299065036,
				"z": -0.976207749,
				"element": "H" 
			},
			{
				"x": -2.940483476,
				"y": -1.5135382159,
				"z": 1.2150762693,
				"element": "H" 
			},
			{
				"x": 0.6437297475,
				"y": 1.968732645,
				"z": 0.170215023,
				"element": "H" 
			},
			{
				"x": 3.3871983872,
				"y": 2.3120050845,
				"z": 0.2078707134,
				"element": "H" 
			},
			{
				"x": 2.5616565938,
				"y": -1.7280843437,
				"z": -0.5046659267,
				"element": "H" 
			}
		],
		 "valence_orbital": [ 
			{
				"type": "occ",
				"energy": -0.28593,
				"method": "rhf"
			},
			{
				"type": "occ",
				"energy": -0.27314,
				"method": "rhf"
			},
			{
				"type": "occ",
				"energy": -0.26568,
				"method": "rhf"
			},
			{
				"type": "occ",
				"energy": -0.25502,
				"method": "rhf"
			},
			{
				"type": "occ",
				"energy": -0.23145,
				"method": "rhf"
			},
			{
				"type": "unocc",
				"energy": -0.03851,
				"method": "rhf"
			},
			{
				"type": "unocc",
				"energy": -0.02846,
				"method": "rhf"
			},
			{
				"type": "unocc",
				"energy": 0.02567,
				"method": "rhf"
			},
			{
				"type": "unocc",
				"energy": 0.06525,
				"method": "rhf"
			},
			{
				"type": "unocc",
				"energy": 0.09162,
				"method": "rhf"
			}
		],
		"cosmo_sigma_profile": { 
			"-0.025": 0.0,
			"-0.024": 0.0,
			"-0.023": 0.0,
			"-0.022": 0.0,
			"-0.021": 0.0,
			"-0.02": 0.0,
			"-0.019": 0.0,
			"-0.018": 0.0,
			"-0.017": 0.0,
			"-0.016": 0.0,
			"-0.015": 0.0,
			"-0.014": 0.0,
			"-0.013": 0.0,
			"-0.012": 0.0,
			"-0.011": 0.0,
			"-0.01": 0.0164527456947,
			"-0.009": 1.4632308032,
			"-0.008": 4.12559435883,
			"-0.007": 9.44122928637,
			"-0.006": 15.8173453891,
			"-0.005": 15.9077872174,
			"-0.004": 13.7307206953,
			"-0.003": 16.0905193582,
			"-0.002": 16.1855954718,
			"-0.001": 17.9556975272,
			"0.0": 14.3528409658,
			"0.001": 12.8299092255,
			"0.002": 13.0129779441,
			"0.003": 7.36335726483,
			"0.004": 6.15842838595,
			"0.005": 6.80178504593,
			"0.006": 4.24035708811,
			"0.007": 3.10073003384,
			"0.008": 2.62386121279,
			"0.009": 3.45030738145,
			"0.01": 2.56250636919,
			"0.011": 1.58095910365,
			"0.012": 2.0353820638,
			"0.013": 2.6129563978,
			"0.014": 1.62423189738,
			"0.015": 2.43314159862,
			"0.016": 1.71596963895,
			"0.017": 1.29010750807,
			"0.018": 0.495531542216,
			"0.019": 0.0,
			"0.02": 0.0,
			"0.021": 0.0,
			"0.022": 0.0,
			"0.023": 0.0,
			"0.024": 0.0,
			"0.025": 0.0
		}
	}
}
