{
	 "smiles": "CC1=CC(C)=C(NC(=O)CN(CC(O)=O)CC(O)=O)C(C)=C1", 
	 "Tm": 493.15, 
	 "num_atms": 42, 
	 "gaussian": { 
		 "optdone": 1, 
		 "sigma_profile": "yes", 
		 "theory": "DFT", 
		 "functional": "B3LYP", 
		 "basiset": "6-31G**", 
		 "properties": { 
			 "R2extent": 7758.2842, 
			 "electric_dipole_moment_norm": 4.9970490682, 
			 "electric_quadrupole_moment_norm": 21.9679763902, 
			 "total_energy": -1069.3107918, 
			 "HOMO_LUMO_gap": 0.20706, 
			 "cosmo_polarized_energy": -26.74, 
			 "cosmo_cavitation_energy": 45.61, 
			 "cosmo_dispersion_energy": -29.22, 
			 "cosmo_repulsion_energy": 2.28, 
			 "cosmo_total_nonelectrostatic_energy": 18.68, 
			 "SMD_solvation_energy": 11.1 
		},
		"coords": [
			{
				"x": -3.8913581962,
				"y": -3.9899775066,
				"z": 0.333184855,
				"element": "C" 
			},
			{
				"x": -2.9869082232,
				"y": -2.813122435,
				"z": 0.6155239237,
				"element": "C" 
			},
			{
				"x": -2.2669696428,
				"y": -2.7341931719,
				"z": 1.8123302686,
				"element": "C" 
			},
			{
				"x": -1.4509645691,
				"y": -1.6383465906,
				"z": 2.1105436664,
				"element": "C" 
			},
			{
				"x": -0.6943308553,
				"y": -1.5775340282,
				"z": 3.416202092,
				"element": "C" 
			},
			{
				"x": -1.3485045697,
				"y": -0.6005861484,
				"z": 1.1645503474,
				"element": "C" 
			},
			{
				"x": -0.5252472246,
				"y": 0.5371865437,
				"z": 1.4589444375,
				"element": "N" 
			},
			{
				"x": 0.7962214356,
				"y": 0.7306909833,
				"z": 1.1428692215,
				"element": "C" 
			},
			{
				"x": 1.3496643027,
				"y": 1.805397527,
				"z": 1.3561422173,
				"element": "O" 
			},
			{
				"x": 1.5419767973,
				"y": -0.4329885053,
				"z": 0.4861475644,
				"element": "C" 
			},
			{
				"x": 1.5570117036,
				"y": -0.2328174025,
				"z": -0.9709395891,
				"element": "N" 
			},
			{
				"x": 2.4857504639,
				"y": 0.8017694918,
				"z": -1.4057355701,
				"element": "C" 
			},
			{
				"x": 2.0849110894,
				"y": 1.4250630644,
				"z": -2.7284583487,
				"element": "C" 
			},
			{
				"x": 2.9338968806,
				"y": 2.4242433624,
				"z": -3.0579297652,
				"element": "O" 
			},
			{
				"x": 1.1543842201,
				"y": 1.0986266166,
				"z": -3.4357765516,
				"element": "O" 
			},
			{
				"x": 1.5830334654,
				"y": -1.4497881888,
				"z": -1.7530465946,
				"element": "C" 
			},
			{
				"x": 2.8580640883,
				"y": -2.2968434324,
				"z": -1.6335022523,
				"element": "C" 
			},
			{
				"x": 2.8805141235,
				"y": -3.4118401975,
				"z": -2.4124780701,
				"element": "O" 
			},
			{
				"x": 3.7917910191,
				"y": -2.0391548313,
				"z": -0.914489378,
				"element": "O" 
			},
			{
				"x": -2.0659107336,
				"y": -0.6440584674,
				"z": -0.0464955155,
				"element": "C" 
			},
			{
				"x": -1.9652037808,
				"y": 0.4754339691,
				"z": -1.0542022765,
				"element": "C" 
			},
			{
				"x": -2.8727524696,
				"y": -1.7599017515,
				"z": -0.2975541108,
				"element": "C" 
			},
			{
				"x": -3.5038489837,
				"y": -4.9101805668,
				"z": 0.7808838608,
				"element": "H" 
			},
			{
				"x": -4.8939841705,
				"y": -3.8252566136,
				"z": 0.7472845343,
				"element": "H" 
			},
			{
				"x": -4.0080599238,
				"y": -4.1572489919,
				"z": -0.741660252,
				"element": "H" 
			},
			{
				"x": -2.3459457626,
				"y": -3.542344861,
				"z": 2.5360234861,
				"element": "H" 
			},
			{
				"x": 0.3902042425,
				"y": -1.6154306233,
				"z": 3.2617286899,
				"element": "H" 
			},
			{
				"x": -0.8985392372,
				"y": -0.6472359266,
				"z": 3.9560047722,
				"element": "H" 
			},
			{
				"x": -0.9677859073,
				"y": -2.4154867878,
				"z": 4.0623386218,
				"element": "H" 
			},
			{
				"x": -0.9678177962,
				"y": 1.3751893248,
				"z": 1.8210956292,
				"element": "H" 
			},
			{
				"x": 1.0409639676,
				"y": -1.3810193923,
				"z": 0.6907226509,
				"element": "H" 
			},
			{
				"x": 2.5490388455,
				"y": -0.4772618461,
				"z": 0.9192669607,
				"element": "H" 
			},
			{
				"x": 2.4923688061,
				"y": 1.5978194374,
				"z": -0.6546272468,
				"element": "H" 
			},
			{
				"x": 3.5251403807,
				"y": 0.4463359861,
				"z": -1.492242562,
				"element": "H" 
			},
			{
				"x": 2.6266120744,
				"y": 2.7740010313,
				"z": -3.9109600109,
				"element": "H" 
			},
			{
				"x": 0.7297017116,
				"y": -2.0782135996,
				"z": -1.4626491759,
				"element": "H" 
			},
			{
				"x": 1.4235368529,
				"y": -1.1865811454,
				"z": -2.8057805879,
				"element": "H" 
			},
			{
				"x": 2.0697109401,
				"y": -3.470937694,
				"z": -2.9390787101,
				"element": "H" 
			},
			{
				"x": -2.2110341164,
				"y": 1.4440469122,
				"z": -0.6047059438,
				"element": "H" 
			},
			{
				"x": -0.9497786912,
				"y": 0.5574112389,
				"z": -1.4574159181,
				"element": "H" 
			},
			{
				"x": -2.6532090606,
				"y": 0.3086237248,
				"z": -1.8870428042,
				"element": "H" 
			},
			{
				"x": -3.4292434967,
				"y": -1.8027885079,
				"z": -1.2312165657,
				"element": "H" 
			}
		],
		 "valence_orbital": [ 
			{
				"type": "occ",
				"energy": -0.25927,
				"method": "rhf"
			},
			{
				"type": "occ",
				"energy": -0.25886,
				"method": "rhf"
			},
			{
				"type": "occ",
				"energy": -0.24563,
				"method": "rhf"
			},
			{
				"type": "occ",
				"energy": -0.24038,
				"method": "rhf"
			},
			{
				"type": "occ",
				"energy": -0.22109,
				"method": "rhf"
			},
			{
				"type": "unocc",
				"energy": -0.01403,
				"method": "rhf"
			},
			{
				"type": "unocc",
				"energy": -0.00485,
				"method": "rhf"
			},
			{
				"type": "unocc",
				"energy": 0.00238,
				"method": "rhf"
			},
			{
				"type": "unocc",
				"energy": 0.00996,
				"method": "rhf"
			},
			{
				"type": "unocc",
				"energy": 0.01652,
				"method": "rhf"
			}
		],
		"cosmo_sigma_profile": { 
			"-0.025": 0.0,
			"-0.024": 0.0,
			"-0.023": 0.0,
			"-0.022": 0.0,
			"-0.021": 0.0,
			"-0.02": 0.0434999865615,
			"-0.019": 1.24952317593,
			"-0.018": 1.83827911331,
			"-0.017": 2.02152930172,
			"-0.016": 2.40962577757,
			"-0.015": 1.56983575492,
			"-0.014": 2.68500135777,
			"-0.013": 2.42129673546,
			"-0.012": 2.29697961346,
			"-0.011": 2.77731153324,
			"-0.01": 3.24495213056,
			"-0.009": 3.17326556371,
			"-0.008": 5.8932807176,
			"-0.007": 5.67663519231,
			"-0.006": 6.56767460798,
			"-0.005": 13.340538161,
			"-0.004": 32.5981690836,
			"-0.003": 30.5781206907,
			"-0.002": 29.9543869249,
			"-0.001": 28.0427320342,
			"0.0": 31.492919997,
			"0.001": 25.1377221853,
			"0.002": 17.3946993436,
			"0.003": 14.7572682774,
			"0.004": 13.4799847924,
			"0.005": 14.1433733086,
			"0.006": 7.82911006047,
			"0.007": 7.99116618019,
			"0.008": 7.6825892318,
			"0.009": 7.61968103256,
			"0.01": 8.1252451121,
			"0.011": 8.60996678066,
			"0.012": 7.14798217765,
			"0.013": 4.8170493548,
			"0.014": 3.33390355566,
			"0.015": 0.150839021048,
			"0.016": 0.0,
			"0.017": 0.0,
			"0.018": 0.0,
			"0.019": 0.0,
			"0.02": 0.0,
			"0.021": 0.0,
			"0.022": 0.0,
			"0.023": 0.0,
			"0.024": 0.0,
			"0.025": 0.0
		}
	}
}
