{
	 "smiles": "CC(C)N1N=NC(C(O)=O)=C1C(F)(F)F", 
	 "Tm": 373.15, 
	 "num_atms": 23, 
	 "gaussian": { 
		 "optdone": 1, 
		 "sigma_profile": "yes", 
		 "theory": "DFT", 
		 "functional": "B3LYP", 
		 "basiset": "6-31G**", 
		 "properties": { 
			 "R2extent": 3146.9794, 
			 "electric_dipole_moment_norm": 7.37639827423, 
			 "electric_quadrupole_moment_norm": 18.3559746767, 
			 "total_energy": -885.758895414, 
			 "HOMO_LUMO_gap": 0.21927, 
			 "cosmo_polarized_energy": -18.89, 
			 "cosmo_cavitation_energy": 28.45, 
			 "cosmo_dispersion_energy": -19.88, 
			 "cosmo_repulsion_energy": 1.5, 
			 "cosmo_total_nonelectrostatic_energy": 10.07, 
			 "SMD_solvation_energy": 5.92 
		},
		"coords": [
			{
				"x": 0.3855095869,
				"y": 0.8037605841,
				"z": -3.1885720569,
				"element": "C" 
			},
			{
				"x": 1.056987307,
				"y": 0.1973626532,
				"z": -1.9541639122,
				"element": "C" 
			},
			{
				"x": 2.5851083356,
				"y": 0.3032885863,
				"z": -1.9840751337,
				"element": "C" 
			},
			{
				"x": 0.5381109552,
				"y": 0.8547556825,
				"z": -0.7265512445,
				"element": "N" 
			},
			{
				"x": 0.4909544639,
				"y": 2.1982328289,
				"z": -0.6640810457,
				"element": "N" 
			},
			{
				"x": 0.0308405466,
				"y": 2.53900566,
				"z": 0.5007379652,
				"element": "N" 
			},
			{
				"x": -0.2201592825,
				"y": 1.4184996091,
				"z": 1.2404016345,
				"element": "C" 
			},
			{
				"x": -0.8015632594,
				"y": 1.6210665337,
				"z": 2.6131370698,
				"element": "C" 
			},
			{
				"x": -0.6180913891,
				"y": 0.6462430643,
				"z": 3.5297487954,
				"element": "O" 
			},
			{
				"x": -1.3904465163,
				"y": 2.6316606059,
				"z": 2.8966585117,
				"element": "O" 
			},
			{
				"x": 0.1136398383,
				"y": 0.318153226,
				"z": 0.451676574,
				"element": "C" 
			},
			{
				"x": 0.0696527752,
				"y": -1.164198293,
				"z": 0.634803202,
				"element": "C" 
			},
			{
				"x": 1.2829101323,
				"y": -1.7229484245,
				"z": 0.4298198264,
				"element": "F" 
			},
			{
				"x": -0.3189111904,
				"y": -1.5081216704,
				"z": 1.8866492029,
				"element": "F" 
			},
			{
				"x": -0.7874235377,
				"y": -1.7529569449,
				"z": -0.2218521546,
				"element": "F" 
			},
			{
				"x": 0.7330810367,
				"y": 0.2744272004,
				"z": -4.0802766772,
				"element": "H" 
			},
			{
				"x": -0.7020876246,
				"y": 0.7073459257,
				"z": -3.1322100346,
				"element": "H" 
			},
			{
				"x": 0.6348443644,
				"y": 1.8619376494,
				"z": -3.2883891298,
				"element": "H" 
			},
			{
				"x": 0.7655868721,
				"y": -0.850804824,
				"z": -1.8714990507,
				"element": "H" 
			},
			{
				"x": 2.894986475,
				"y": 1.3511152223,
				"z": -2.0199652341,
				"element": "H" 
			},
			{
				"x": 2.9716589933,
				"y": -0.2055224953,
				"z": -2.8718373894,
				"element": "H" 
			},
			{
				"x": 3.0258908501,
				"y": -0.1652986143,
				"z": -1.1002566429,
				"element": "H" 
			},
			{
				"x": -0.1423797325,
				"y": -0.1091037652,
				"z": 3.1593969245,
				"element": "H" 
			}
		],
		 "valence_orbital": [ 
			{
				"type": "occ",
				"energy": -0.32511,
				"method": "rhf"
			},
			{
				"type": "occ",
				"energy": -0.31806,
				"method": "rhf"
			},
			{
				"type": "occ",
				"energy": -0.29748,
				"method": "rhf"
			},
			{
				"type": "occ",
				"energy": -0.29201,
				"method": "rhf"
			},
			{
				"type": "occ",
				"energy": -0.27763,
				"method": "rhf"
			},
			{
				"type": "unocc",
				"energy": -0.05836,
				"method": "rhf"
			},
			{
				"type": "unocc",
				"energy": -0.02774,
				"method": "rhf"
			},
			{
				"type": "unocc",
				"energy": 0.05994,
				"method": "rhf"
			},
			{
				"type": "unocc",
				"energy": 0.06418,
				"method": "rhf"
			},
			{
				"type": "unocc",
				"energy": 0.07375,
				"method": "rhf"
			}
		],
		"cosmo_sigma_profile": { 
			"-0.025": 0.0,
			"-0.024": 0.0,
			"-0.023": 0.0,
			"-0.022": 0.0,
			"-0.021": 0.0,
			"-0.02": 0.0,
			"-0.019": 0.169741191329,
			"-0.018": 0.617027944148,
			"-0.017": 0.286311468005,
			"-0.016": 0.5731174342,
			"-0.015": 0.787647769739,
			"-0.014": 0.844031204465,
			"-0.013": 0.877224785469,
			"-0.012": 0.424253362982,
			"-0.011": 1.17680372397,
			"-0.01": 1.38355972502,
			"-0.009": 2.00581568111,
			"-0.008": 2.34362955959,
			"-0.007": 3.53296530295,
			"-0.006": 8.16813714855,
			"-0.005": 19.6499595113,
			"-0.004": 19.6122292114,
			"-0.003": 19.8640190604,
			"-0.002": 20.3234606303,
			"-0.001": 22.47910097,
			"0.0": 20.5663929213,
			"0.001": 18.3814246568,
			"0.002": 7.38201998524,
			"0.003": 4.19254753118,
			"0.004": 3.08146296594,
			"0.005": 3.22520132628,
			"0.006": 4.08956215772,
			"0.007": 5.25308010066,
			"0.008": 5.86703507298,
			"0.009": 6.68133488962,
			"0.01": 7.11954434276,
			"0.011": 7.07516532218,
			"0.012": 4.55621294883,
			"0.013": 2.0483972311,
			"0.014": 1.89614275524,
			"0.015": 0.328915722294,
			"0.016": 0.0,
			"0.017": 0.0,
			"0.018": 0.0,
			"0.019": 0.0,
			"0.02": 0.0,
			"0.021": 0.0,
			"0.022": 0.0,
			"0.023": 0.0,
			"0.024": 0.0,
			"0.025": 0.0
		}
	}
}
