{
	 "smiles": "OC(=O)CCCOC1=C(F)C=C(F)C=C1", 
	 "Tm": 348.15, 
	 "num_atms": 25, 
	 "gaussian": { 
		 "optdone": 1, 
		 "sigma_profile": "yes", 
		 "theory": "DFT", 
		 "functional": "B3LYP", 
		 "basiset": "6-31G**", 
		 "properties": { 
			 "R2extent": 6083.7159, 
			 "electric_dipole_moment_norm": 2.48068755993, 
			 "electric_quadrupole_moment_norm": 9.46742232923, 
			 "total_energy": -812.433988592, 
			 "HOMO_LUMO_gap": 0.21285, 
			 "cosmo_polarized_energy": -11.14, 
			 "cosmo_cavitation_energy": 30.87, 
			 "cosmo_dispersion_energy": -21.91, 
			 "cosmo_repulsion_energy": 1.71, 
			 "cosmo_total_nonelectrostatic_energy": 10.67, 
			 "SMD_solvation_energy": 7.34 
		},
		"coords": [
			{
				"x": -3.3803086263,
				"y": -3.7817240315,
				"z": 3.2722118218,
				"element": "O" 
			},
			{
				"x": -2.397913882,
				"y": -2.979614436,
				"z": 2.7970214783,
				"element": "C" 
			},
			{
				"x": -1.6858327989,
				"y": -2.3218859482,
				"z": 3.5249418657,
				"element": "O" 
			},
			{
				"x": -2.320689316,
				"y": -3.038196603,
				"z": 1.285117316,
				"element": "C" 
			},
			{
				"x": -1.2573903018,
				"y": -2.1155169054,
				"z": 0.6838757831,
				"element": "C" 
			},
			{
				"x": -1.6079381721,
				"y": -0.6378180252,
				"z": 0.8105876726,
				"element": "C" 
			},
			{
				"x": -0.5982248356,
				"y": 0.0916097647,
				"z": 0.0887484059,
				"element": "O" 
			},
			{
				"x": -0.4064706721,
				"y": 1.4106149062,
				"z": 0.3848411937,
				"element": "C" 
			},
			{
				"x": -1.4420051436,
				"y": 2.3442387241,
				"z": 0.5342518174,
				"element": "C" 
			},
			{
				"x": -2.7271026138,
				"y": 1.9381624165,
				"z": 0.4156631804,
				"element": "F" 
			},
			{
				"x": -1.1975182844,
				"y": 3.6862424362,
				"z": 0.7964379109,
				"element": "C" 
			},
			{
				"x": 0.1241527677,
				"y": 4.1069821835,
				"z": 0.8860148472,
				"element": "C" 
			},
			{
				"x": 0.3747874074,
				"y": 5.4097994297,
				"z": 1.1322474174,
				"element": "F" 
			},
			{
				"x": 1.1859725374,
				"y": 3.2244743099,
				"z": 0.7264569454,
				"element": "C" 
			},
			{
				"x": 0.9082111641,
				"y": 1.8797473882,
				"z": 0.4849068055,
				"element": "C" 
			},
			{
				"x": -3.3578285721,
				"y": -3.6938722948,
				"z": 4.2400783695,
				"element": "H" 
			},
			{
				"x": -3.3198936081,
				"y": -2.8188412088,
				"z": 0.887953454,
				"element": "H" 
			},
			{
				"x": -2.1239113674,
				"y": -4.0824286888,
				"z": 1.0141813993,
				"element": "H" 
			},
			{
				"x": -0.2923815739,
				"y": -2.2965445413,
				"z": 1.1668971228,
				"element": "H" 
			},
			{
				"x": -1.1406407234,
				"y": -2.3522979319,
				"z": -0.3792396365,
				"element": "H" 
			},
			{
				"x": -1.6120193973,
				"y": -0.3295182391,
				"z": 1.8610821902,
				"element": "H" 
			},
			{
				"x": -2.5951301614,
				"y": -0.4331237216,
				"z": 0.3810924224,
				"element": "H" 
			},
			{
				"x": -2.020295398,
				"y": 4.3816381904,
				"z": 0.9107285775,
				"element": "H" 
			},
			{
				"x": 2.2046107304,
				"y": 3.5871624519,
				"z": 0.802954613,
				"element": "H" 
			},
			{
				"x": 1.7097608412,
				"y": 1.1589103742,
				"z": 0.3646470265,
				"element": "H" 
			}
		],
		 "valence_orbital": [ 
			{
				"type": "occ",
				"energy": -0.32451,
				"method": "rhf"
			},
			{
				"type": "occ",
				"energy": -0.2966,
				"method": "rhf"
			},
			{
				"type": "occ",
				"energy": -0.28233,
				"method": "rhf"
			},
			{
				"type": "occ",
				"energy": -0.25761,
				"method": "rhf"
			},
			{
				"type": "occ",
				"energy": -0.22368,
				"method": "rhf"
			},
			{
				"type": "unocc",
				"energy": -0.01083,
				"method": "rhf"
			},
			{
				"type": "unocc",
				"energy": 0.00181,
				"method": "rhf"
			},
			{
				"type": "unocc",
				"energy": 0.00748,
				"method": "rhf"
			},
			{
				"type": "unocc",
				"energy": 0.06992,
				"method": "rhf"
			},
			{
				"type": "unocc",
				"energy": 0.07512,
				"method": "rhf"
			}
		],
		"cosmo_sigma_profile": { 
			"-0.025": 0.0,
			"-0.024": 0.0,
			"-0.023": 0.0,
			"-0.022": 0.0,
			"-0.021": 0.0,
			"-0.02": 0.0,
			"-0.019": 0.0710355293068,
			"-0.018": 0.756194089555,
			"-0.017": 0.635713520474,
			"-0.016": 0.827310223147,
			"-0.015": 1.35289848598,
			"-0.014": 0.62268915209,
			"-0.013": 0.205123711456,
			"-0.012": 0.351229126158,
			"-0.011": 0.973916247745,
			"-0.01": 0.687679099907,
			"-0.009": 0.899202058324,
			"-0.008": 2.64510269126,
			"-0.007": 7.41226872447,
			"-0.006": 13.5899778396,
			"-0.005": 13.1035413429,
			"-0.004": 16.1022571587,
			"-0.003": 19.2128786174,
			"-0.002": 14.1897535044,
			"-0.001": 13.583401731,
			"0.0": 18.5703351907,
			"0.001": 24.2087150329,
			"0.002": 22.1947136849,
			"0.003": 16.9163239284,
			"0.004": 22.0229793747,
			"0.005": 6.48024361641,
			"0.006": 4.21637055606,
			"0.007": 3.80049351634,
			"0.008": 4.48348867422,
			"0.009": 4.68410293209,
			"0.01": 2.99624449777,
			"0.011": 4.01649116764,
			"0.012": 3.22824992836,
			"0.013": 0.0486341495991,
			"0.014": 0.0,
			"0.015": 0.0,
			"0.016": 0.0,
			"0.017": 0.0,
			"0.018": 0.0,
			"0.019": 0.0,
			"0.02": 0.0,
			"0.021": 0.0,
			"0.022": 0.0,
			"0.023": 0.0,
			"0.024": 0.0,
			"0.025": 0.0
		}
	}
}
