{
	 "smiles": "CC(=O)OC1=CC(=CC=C1)N=[N+]([O-])C1=CC(OC(C)=O)=CC=C1", 
	 "Tm": 375.15, 
	 "num_atms": 37, 
	 "gaussian": { 
		 "optdone": 1, 
		 "sigma_profile": "yes", 
		 "theory": "DFT", 
		 "functional": "B3LYP", 
		 "basiset": "6-31G**", 
		 "properties": { 
			 "R2extent": 11433.483, 
			 "electric_dipole_moment_norm": 3.2570291586, 
			 "electric_quadrupole_moment_norm": 30.1277512254, 
			 "total_energy": -1103.69591666, 
			 "HOMO_LUMO_gap": 0.14286, 
			 "cosmo_polarized_energy": -16.4, 
			 "cosmo_cavitation_energy": 44.02, 
			 "cosmo_dispersion_energy": -30.94, 
			 "cosmo_repulsion_energy": 2.39, 
			 "cosmo_total_nonelectrostatic_energy": 15.47, 
			 "SMD_solvation_energy": 10.34 
		},
		"coords": [
			{
				"x": 5.4891615669,
				"y": -2.0108109798,
				"z": 2.468238488,
				"element": "C" 
			},
			{
				"x": 4.177521507,
				"y": -1.2658356127,
				"z": 2.4469525764,
				"element": "C" 
			},
			{
				"x": 4.033819089,
				"y": -0.072700818,
				"z": 2.5285293994,
				"element": "O" 
			},
			{
				"x": 3.1420565885,
				"y": -2.1612084585,
				"z": 2.3229848522,
				"element": "O" 
			},
			{
				"x": 1.8290131065,
				"y": -1.688053285,
				"z": 2.2531006998,
				"element": "C" 
			},
			{
				"x": 1.4330673023,
				"y": -0.8460501353,
				"z": 1.2176031947,
				"element": "C" 
			},
			{
				"x": 0.0783176956,
				"y": -0.457652562,
				"z": 1.1446521693,
				"element": "C" 
			},
			{
				"x": -0.829230067,
				"y": -0.9345704786,
				"z": 2.1169689495,
				"element": "C" 
			},
			{
				"x": -0.4044045523,
				"y": -1.7810634547,
				"z": 3.130714796,
				"element": "C" 
			},
			{
				"x": 0.9369758011,
				"y": -2.1656503793,
				"z": 3.2086500722,
				"element": "C" 
			},
			{
				"x": -0.5342238139,
				"y": 0.3778942331,
				"z": 0.2048599537,
				"element": "N" 
			},
			{
				"x": 0.1191038496,
				"y": 0.867972974,
				"z": -0.7806390917,
				"element": "N" 
			},
			{
				"x": 1.330990504,
				"y": 0.6954910208,
				"z": -1.0703223298,
				"element": "O" 
			},
			{
				"x": -0.6587769043,
				"y": 1.7301354554,
				"z": -1.6780925382,
				"element": "C" 
			},
			{
				"x": -2.0153371614,
				"y": 1.9546821134,
				"z": -1.4384951397,
				"element": "C" 
			},
			{
				"x": -2.700889443,
				"y": 2.7804526988,
				"z": -2.3259440446,
				"element": "C" 
			},
			{
				"x": -4.0696810168,
				"y": 3.0192705917,
				"z": -2.2360998594,
				"element": "O" 
			},
			{
				"x": -4.6826302968,
				"y": 3.2597972385,
				"z": -1.0290804455,
				"element": "C" 
			},
			{
				"x": -6.1551499441,
				"y": 3.4936836081,
				"z": -1.2541763229,
				"element": "C" 
			},
			{
				"x": -4.112669664,
				"y": 3.2793426816,
				"z": 0.0322607153,
				"element": "O" 
			},
			{
				"x": -2.0601864359,
				"y": 3.3603663963,
				"z": -3.4229324355,
				"element": "C" 
			},
			{
				"x": -0.7054728062,
				"y": 3.1130009887,
				"z": -3.6350698761,
				"element": "C" 
			},
			{
				"x": 0.010411637,
				"y": 2.2955713688,
				"z": -2.7616728884,
				"element": "C" 
			},
			{
				"x": 6.3056204466,
				"y": -1.3005023463,
				"z": 2.5928181689,
				"element": "H" 
			},
			{
				"x": 5.6163817475,
				"y": -2.566921093,
				"z": 1.5346498177,
				"element": "H" 
			},
			{
				"x": 5.4958530987,
				"y": -2.7388492203,
				"z": 3.2845211392,
				"element": "H" 
			},
			{
				"x": 2.1471344313,
				"y": -0.4937953006,
				"z": 0.4928375614,
				"element": "H" 
			},
			{
				"x": -1.8642847659,
				"y": -0.6194392575,
				"z": 2.044418527,
				"element": "H" 
			},
			{
				"x": -1.1136994117,
				"y": -2.1434084714,
				"z": 3.8682546572,
				"element": "H" 
			},
			{
				"x": 1.2959492403,
				"y": -2.8265414206,
				"z": 3.9903197923,
				"element": "H" 
			},
			{
				"x": -2.4973657296,
				"y": 1.5073343545,
				"z": -0.5838763625,
				"element": "H" 
			},
			{
				"x": -6.6022528565,
				"y": 2.6221355238,
				"z": -1.7412991087,
				"element": "H" 
			},
			{
				"x": -6.6409348245,
				"y": 3.6773714515,
				"z": -0.2966802911,
				"element": "H" 
			},
			{
				"x": -6.3018783449,
				"y": 4.349742958,
				"z": -1.9192266616,
				"element": "H" 
			},
			{
				"x": -2.6333083335,
				"y": 3.9915437578,
				"z": -4.0935444252,
				"element": "H" 
			},
			{
				"x": -0.2029133774,
				"y": 3.5610679368,
				"z": -4.4862157385,
				"element": "H" 
			},
			{
				"x": 1.063012138,
				"y": 2.0879959222,
				"z": -2.8986679707,
				"element": "H" 
			}
		],
		 "valence_orbital": [ 
			{
				"type": "occ",
				"energy": -0.27236,
				"method": "rhf"
			},
			{
				"type": "occ",
				"energy": -0.26644,
				"method": "rhf"
			},
			{
				"type": "occ",
				"energy": -0.25457,
				"method": "rhf"
			},
			{
				"type": "occ",
				"energy": -0.24768,
				"method": "rhf"
			},
			{
				"type": "occ",
				"energy": -0.2243,
				"method": "rhf"
			},
			{
				"type": "unocc",
				"energy": -0.08144,
				"method": "rhf"
			},
			{
				"type": "unocc",
				"energy": -0.02334,
				"method": "rhf"
			},
			{
				"type": "unocc",
				"energy": -0.00808,
				"method": "rhf"
			},
			{
				"type": "unocc",
				"energy": -0.0066,
				"method": "rhf"
			},
			{
				"type": "unocc",
				"energy": 0.00959,
				"method": "rhf"
			}
		],
		"cosmo_sigma_profile": { 
			"-0.025": 0.0,
			"-0.024": 0.0,
			"-0.023": 0.0,
			"-0.022": 0.0,
			"-0.021": 0.0,
			"-0.02": 0.0,
			"-0.019": 0.0,
			"-0.018": 0.0,
			"-0.017": 0.0,
			"-0.016": 0.0,
			"-0.015": 0.0,
			"-0.014": 0.0,
			"-0.013": 0.0,
			"-0.012": 0.0,
			"-0.011": 0.0,
			"-0.01": 0.0,
			"-0.009": 0.0,
			"-0.008": 1.0667454988,
			"-0.007": 14.8352099069,
			"-0.006": 25.8692007724,
			"-0.005": 27.0735209331,
			"-0.004": 25.9711207951,
			"-0.003": 28.4794556681,
			"-0.002": 29.5649054888,
			"-0.001": 21.5284258311,
			"0.0": 23.0840629494,
			"0.001": 30.1553689502,
			"0.002": 33.7688628206,
			"0.003": 24.3054783807,
			"0.004": 12.9605401813,
			"0.005": 8.63885716722,
			"0.006": 6.70529805301,
			"0.007": 6.90669195335,
			"0.008": 6.25781447536,
			"0.009": 7.43035496469,
			"0.01": 6.87941352291,
			"0.011": 8.26823523494,
			"0.012": 3.39773656498,
			"0.013": 0.0613849808876,
			"0.014": 0.0,
			"0.015": 0.0,
			"0.016": 0.0,
			"0.017": 0.0,
			"0.018": 0.0,
			"0.019": 0.0,
			"0.02": 0.0,
			"0.021": 0.0,
			"0.022": 0.0,
			"0.023": 0.0,
			"0.024": 0.0,
			"0.025": 0.0
		}
	}
}
