{
	 "smiles": "CCCCCCCCCCC1=CC=C(N)C=C1", 
	 "Tm": 297.65, 
	 "num_atms": 44, 
	 "gaussian": { 
		 "optdone": 1, 
		 "sigma_profile": "yes", 
		 "theory": "DFT", 
		 "functional": "B3LYP", 
		 "basiset": "6-31G**", 
		 "properties": { 
			 "R2extent": 6101.356, 
			 "electric_dipole_moment_norm": 1.4880985048, 
			 "electric_quadrupole_moment_norm": 12.1518574226, 
			 "total_energy": -680.75811126, 
			 "HOMO_LUMO_gap": 0.19942, 
			 "cosmo_polarized_energy": -7.7, 
			 "cosmo_cavitation_energy": 43.76, 
			 "cosmo_dispersion_energy": -28.51, 
			 "cosmo_repulsion_energy": 2.32, 
			 "cosmo_total_nonelectrostatic_energy": 17.57, 
			 "SMD_solvation_energy": 6.06 
		},
		"coords": [
			{
				"x": -3.085165701,
				"y": -2.2012363771,
				"z": -1.8914634402,
				"element": "C" 
			},
			{
				"x": -2.5347131569,
				"y": -2.8006568164,
				"z": -0.5933889395,
				"element": "C" 
			},
			{
				"x": -2.9962965091,
				"y": -2.0413766855,
				"z": 0.6601766094,
				"element": "C" 
			},
			{
				"x": -2.4684525851,
				"y": -2.6035817313,
				"z": 1.9987104063,
				"element": "C" 
			},
			{
				"x": -1.1550215889,
				"y": -2.0164089515,
				"z": 2.5536722928,
				"element": "C" 
			},
			{
				"x": 0.133235933,
				"y": -2.2320550187,
				"z": 1.7287190077,
				"element": "C" 
			},
			{
				"x": 0.4584519475,
				"y": -1.1153844568,
				"z": 0.7238329906,
				"element": "C" 
			},
			{
				"x": 1.7485727297,
				"y": -1.3888802589,
				"z": -0.0637761917,
				"element": "C" 
			},
			{
				"x": 2.1201524664,
				"y": -0.3498819526,
				"z": -1.1380218257,
				"element": "C" 
			},
			{
				"x": 2.7389016861,
				"y": 0.9742594927,
				"z": -0.6322997824,
				"element": "C" 
			},
			{
				"x": 1.8045843768,
				"y": 1.9352398524,
				"z": 0.0760717334,
				"element": "C" 
			},
			{
				"x": 1.9759483279,
				"y": 2.2684070371,
				"z": 1.4253964525,
				"element": "C" 
			},
			{
				"x": 1.1228192616,
				"y": 3.15748455,
				"z": 2.0773674152,
				"element": "C" 
			},
			{
				"x": 0.0565317771,
				"y": 3.7574265963,
				"z": 1.3896654785,
				"element": "C" 
			},
			{
				"x": -0.7697864232,
				"y": 4.6961261926,
				"z": 2.0181959702,
				"element": "N" 
			},
			{
				"x": -0.1188708603,
				"y": 3.4378417798,
				"z": 0.0321403301,
				"element": "C" 
			},
			{
				"x": 0.7414010987,
				"y": 2.547927136,
				"z": -0.6036956396,
				"element": "C" 
			},
			{
				"x": -2.7437567437,
				"y": -1.1683736455,
				"z": -2.027020988,
				"element": "H" 
			},
			{
				"x": -2.7637493191,
				"y": -2.7746075986,
				"z": -2.767357803,
				"element": "H" 
			},
			{
				"x": -4.1814080712,
				"y": -2.1865108498,
				"z": -1.8875481778,
				"element": "H" 
			},
			{
				"x": -2.8565811362,
				"y": -3.8476603605,
				"z": -0.5085623187,
				"element": "H" 
			},
			{
				"x": -1.4399101114,
				"y": -2.8263577341,
				"z": -0.6409301091,
				"element": "H" 
			},
			{
				"x": -4.0945801747,
				"y": -2.065159596,
				"z": 0.6755564216,
				"element": "H" 
			},
			{
				"x": -2.7258456292,
				"y": -0.9799454638,
				"z": 0.5719975205,
				"element": "H" 
			},
			{
				"x": -3.235342954,
				"y": -2.4433766042,
				"z": 2.7675376562,
				"element": "H" 
			},
			{
				"x": -2.3641984156,
				"y": -3.694775667,
				"z": 1.911750821,
				"element": "H" 
			},
			{
				"x": -1.2901782713,
				"y": -0.9395344868,
				"z": 2.7285515684,
				"element": "H" 
			},
			{
				"x": -1.007950997,
				"y": -2.4592998896,
				"z": 3.5472586309,
				"element": "H" 
			},
			{
				"x": 0.0834210514,
				"y": -3.2010850689,
				"z": 1.2119525361,
				"element": "H" 
			},
			{
				"x": 0.9824069305,
				"y": -2.31301561,
				"z": 2.4210379905,
				"element": "H" 
			},
			{
				"x": -0.3686563055,
				"y": -0.9849953661,
				"z": 0.0147435053,
				"element": "H" 
			},
			{
				"x": 0.5408834787,
				"y": -0.1668846043,
				"z": 1.2649888814,
				"element": "H" 
			},
			{
				"x": 1.6478423944,
				"y": -2.3661381205,
				"z": -0.5569487213,
				"element": "H" 
			},
			{
				"x": 2.5892466129,
				"y": -1.4974913098,
				"z": 0.6375240592,
				"element": "H" 
			},
			{
				"x": 2.8515278901,
				"y": -0.8087009118,
				"z": -1.8161263157,
				"element": "H" 
			},
			{
				"x": 1.2377220936,
				"y": -0.1296145433,
				"z": -1.7542214163,
				"element": "H" 
			},
			{
				"x": 3.5808511493,
				"y": 0.7374509471,
				"z": 0.0307992789,
				"element": "H" 
			},
			{
				"x": 3.1765646989,
				"y": 1.4860771541,
				"z": -1.5005728718,
				"element": "H" 
			},
			{
				"x": 2.7941293479,
				"y": 1.8197358095,
				"z": 1.9843847574,
				"element": "H" 
			},
			{
				"x": 1.2866431475,
				"y": 3.3957640812,
				"z": 3.1258929804,
				"element": "H" 
			},
			{
				"x": -0.8227338783,
				"y": 4.6060596822,
				"z": 3.0239001107,
				"element": "H" 
			},
			{
				"x": -1.6889043612,
				"y": 4.7920643291,
				"z": 1.6078625079,
				"element": "H" 
			},
			{
				"x": -0.930381192,
				"y": 3.9000784788,
				"z": -0.5254880056,
				"element": "H" 
			},
			{
				"x": 0.5805459849,
				"y": 2.3264465604,
				"z": -1.6565653666,
				"element": "H" 
			}
		],
		 "valence_orbital": [ 
			{
				"type": "occ",
				"energy": -0.29542,
				"method": "rhf"
			},
			{
				"type": "occ",
				"energy": -0.29023,
				"method": "rhf"
			},
			{
				"type": "occ",
				"energy": -0.28534,
				"method": "rhf"
			},
			{
				"type": "occ",
				"energy": -0.24036,
				"method": "rhf"
			},
			{
				"type": "occ",
				"energy": -0.19268,
				"method": "rhf"
			},
			{
				"type": "unocc",
				"energy": 0.00674,
				"method": "rhf"
			},
			{
				"type": "unocc",
				"energy": 0.02266,
				"method": "rhf"
			},
			{
				"type": "unocc",
				"energy": 0.08221,
				"method": "rhf"
			},
			{
				"type": "unocc",
				"energy": 0.08459,
				"method": "rhf"
			},
			{
				"type": "unocc",
				"energy": 0.09768,
				"method": "rhf"
			}
		],
		"cosmo_sigma_profile": { 
			"-0.025": 0.0,
			"-0.024": 0.0,
			"-0.023": 0.0,
			"-0.022": 0.0,
			"-0.021": 0.0,
			"-0.02": 0.0,
			"-0.019": 0.0,
			"-0.018": 0.0,
			"-0.017": 0.0,
			"-0.016": 0.0,
			"-0.015": 0.0,
			"-0.014": 0.0,
			"-0.013": 0.0189016386883,
			"-0.012": 1.4299673662,
			"-0.011": 2.62327301929,
			"-0.01": 2.77171097437,
			"-0.009": 3.22416640239,
			"-0.008": 2.6713129477,
			"-0.007": 3.15059603899,
			"-0.006": 3.66450056156,
			"-0.005": 5.21562360156,
			"-0.004": 9.38165262377,
			"-0.003": 13.0706782057,
			"-0.002": 33.4150325173,
			"-0.001": 60.6087107326,
			"0.0": 65.8547014473,
			"0.001": 51.09093191,
			"0.002": 31.4872029695,
			"0.003": 8.31270986027,
			"0.004": 6.99603903963,
			"0.005": 8.6528033882,
			"0.006": 8.96708436101,
			"0.007": 7.78566479804,
			"0.008": 2.22925876849,
			"0.009": 1.48736801624,
			"0.01": 0.520400602579,
			"0.011": 0.431882585578,
			"0.012": 0.705182329232,
			"0.013": 1.06795126367,
			"0.014": 0.535409916127,
			"0.015": 0.480034054758,
			"0.016": 0.0598444942088,
			"0.017": 0.0,
			"0.018": 0.0,
			"0.019": 0.0,
			"0.02": 0.0,
			"0.021": 0.0,
			"0.022": 0.0,
			"0.023": 0.0,
			"0.024": 0.0,
			"0.025": 0.0
		}
	}
}
