{
	 "smiles": "NC(=O)C1=C(N)C2=CC=NN=C2S1", 
	 "Tm": 588.15, 
	 "num_atms": 19, 
	 "gaussian": { 
		 "optdone": 1, 
		 "sigma_profile": "yes", 
		 "theory": "DFT", 
		 "functional": "B3LYP", 
		 "basiset": "6-31G**", 
		 "properties": { 
			 "R2extent": 3079.2246, 
			 "electric_dipole_moment_norm": 7.68038590372, 
			 "electric_quadrupole_moment_norm": 10.3737529506, 
			 "total_energy": -962.749447683, 
			 "HOMO_LUMO_gap": 0.14203, 
			 "cosmo_polarized_energy": -24.77, 
			 "cosmo_cavitation_energy": 25.2, 
			 "cosmo_dispersion_energy": -19.6, 
			 "cosmo_repulsion_energy": 1.49, 
			 "cosmo_total_nonelectrostatic_energy": 7.09, 
			 "SMD_solvation_energy": 2.86 
		},
		"coords": [
			{
				"x": 0.2764790813,
				"y": 1.8690364045,
				"z": 2.6434422863,
				"element": "N" 
			},
			{
				"x": 1.2844910717,
				"y": 1.9499235468,
				"z": 1.6870185373,
				"element": "C" 
			},
			{
				"x": 2.1932109461,
				"y": 2.7656964277,
				"z": 1.7664839272,
				"element": "O" 
			},
			{
				"x": 1.1659541406,
				"y": 1.0135561647,
				"z": 0.5522611209,
				"element": "C" 
			},
			{
				"x": 0.0757105132,
				"y": 0.2767640593,
				"z": 0.1331924403,
				"element": "C" 
			},
			{
				"x": -1.178059702,
				"y": 0.2438336755,
				"z": 0.7365907168,
				"element": "N" 
			},
			{
				"x": 0.396114087,
				"y": -0.5212249724,
				"z": -1.026398292,
				"element": "C" 
			},
			{
				"x": -0.3546138401,
				"y": -1.4267848596,
				"z": -1.7748362137,
				"element": "C" 
			},
			{
				"x": 0.290764609,
				"y": -2.0263357049,
				"z": -2.8525775121,
				"element": "C" 
			},
			{
				"x": 1.5693215467,
				"y": -1.7877715593,
				"z": -3.2058601696,
				"element": "N" 
			},
			{
				"x": 2.2995845228,
				"y": -0.9304504831,
				"z": -2.5028591722,
				"element": "N" 
			},
			{
				"x": 1.7329725677,
				"y": -0.3262148229,
				"z": -1.4578242842,
				"element": "C" 
			},
			{
				"x": 2.5980298485,
				"y": 0.8240216587,
				"z": -0.4630198973,
				"element": "S" 
			},
			{
				"x": -0.0958103953,
				"y": 0.9487704578,
				"z": 2.8468827278,
				"element": "H" 
			},
			{
				"x": 0.4765082884,
				"y": 2.4301709609,
				"z": 3.4627840552,
				"element": "H" 
			},
			{
				"x": -1.9223410716,
				"y": -0.0706080715,
				"z": 0.1277817313,
				"element": "H" 
			},
			{
				"x": -1.4259732081,
				"y": 1.1008131763,
				"z": 1.2185992938,
				"element": "H" 
			},
			{
				"x": -1.3864672504,
				"y": -1.6743669722,
				"z": -1.540731335,
				"element": "H" 
			},
			{
				"x": -0.2237757554,
				"y": -2.7449290861,
				"z": -3.4837299607,
				"element": "H" 
			}
		],
		 "valence_orbital": [ 
			{
				"type": "occ",
				"energy": -0.29429,
				"method": "rhf"
			},
			{
				"type": "occ",
				"energy": -0.27328,
				"method": "rhf"
			},
			{
				"type": "occ",
				"energy": -0.26441,
				"method": "rhf"
			},
			{
				"type": "occ",
				"energy": -0.24131,
				"method": "rhf"
			},
			{
				"type": "occ",
				"energy": -0.22406,
				"method": "rhf"
			},
			{
				"type": "unocc",
				"energy": -0.08203,
				"method": "rhf"
			},
			{
				"type": "unocc",
				"energy": -0.03359,
				"method": "rhf"
			},
			{
				"type": "unocc",
				"energy": -0.00482,
				"method": "rhf"
			},
			{
				"type": "unocc",
				"energy": 0.01577,
				"method": "rhf"
			},
			{
				"type": "unocc",
				"energy": 0.04848,
				"method": "rhf"
			}
		],
		"cosmo_sigma_profile": { 
			"-0.025": 0.0,
			"-0.024": 0.0,
			"-0.023": 0.0,
			"-0.022": 0.0,
			"-0.021": 0.0,
			"-0.02": 0.0,
			"-0.019": 0.0,
			"-0.018": 0.0,
			"-0.017": 0.0,
			"-0.016": 0.0,
			"-0.015": 0.340712687269,
			"-0.014": 2.64659648343,
			"-0.013": 3.9241494392,
			"-0.012": 4.54299819016,
			"-0.011": 5.42505201515,
			"-0.01": 6.56506363079,
			"-0.009": 5.46836895067,
			"-0.008": 7.31405158483,
			"-0.007": 7.66505660051,
			"-0.006": 6.10872189275,
			"-0.005": 5.55797442226,
			"-0.004": 6.31145403228,
			"-0.003": 6.84608795095,
			"-0.002": 13.167095634,
			"-0.001": 15.7221826439,
			"0.0": 14.2228808156,
			"0.001": 12.4935965059,
			"0.002": 11.7853743638,
			"0.003": 10.1943488377,
			"0.004": 8.58444723061,
			"0.005": 6.47291147585,
			"0.006": 4.21779089061,
			"0.007": 4.69594918974,
			"0.008": 3.12698634243,
			"0.009": 4.48221660009,
			"0.01": 4.3979013008,
			"0.011": 3.23566117859,
			"0.012": 6.48265297717,
			"0.013": 7.75402461108,
			"0.014": 3.13485850509,
			"0.015": 1.2771793146,
			"0.016": 0.301224574115,
			"0.017": 0.0,
			"0.018": 0.0,
			"0.019": 0.0,
			"0.02": 0.0,
			"0.021": 0.0,
			"0.022": 0.0,
			"0.023": 0.0,
			"0.024": 0.0,
			"0.025": 0.0
		}
	}
}
