{
	 "smiles": "CCOC1=C(C=NO)C=CC=C1", 
	 "Tm": 338.15, 
	 "num_atms": 23, 
	 "gaussian": { 
		 "optdone": 1, 
		 "sigma_profile": "yes", 
		 "theory": "DFT", 
		 "functional": "B3LYP", 
		 "basiset": "6-31G**", 
		 "properties": { 
			 "R2extent": 3198.4364, 
			 "electric_dipole_moment_norm": 2.09485457729, 
			 "electric_quadrupole_moment_norm": 11.8674883109, 
			 "total_energy": -554.719476104, 
			 "HOMO_LUMO_gap": 0.17715, 
			 "cosmo_polarized_energy": -9.48, 
			 "cosmo_cavitation_energy": 26.68, 
			 "cosmo_dispersion_energy": -19.71, 
			 "cosmo_repulsion_energy": 1.59, 
			 "cosmo_total_nonelectrostatic_energy": 8.56, 
			 "SMD_solvation_energy": 5.1 
		},
		"coords": [
			{
				"x": -3.7938628972,
				"y": 1.2834100734,
				"z": 0.3438243204,
				"element": "C" 
			},
			{
				"x": -2.6785463018,
				"y": 0.5488531528,
				"z": 1.0668119825,
				"element": "C" 
			},
			{
				"x": -1.4500261594,
				"y": 1.1896275322,
				"z": 0.7230099578,
				"element": "O" 
			},
			{
				"x": -0.2787965215,
				"y": 0.7225352445,
				"z": 1.244837638,
				"element": "C" 
			},
			{
				"x": 0.9049089955,
				"y": 1.4138788356,
				"z": 0.8573861339,
				"element": "C" 
			},
			{
				"x": 0.7539845931,
				"y": 2.5516060371,
				"z": -0.0564627336,
				"element": "C" 
			},
			{
				"x": 1.5904916193,
				"y": 3.3710002302,
				"z": -0.5918355374,
				"element": "N" 
			},
			{
				"x": 2.9310112283,
				"y": 3.1433105402,
				"z": -0.2390258401,
				"element": "O" 
			},
			{
				"x": 2.1305213119,
				"y": 0.9583363571,
				"z": 1.3769903557,
				"element": "C" 
			},
			{
				"x": 2.1927215658,
				"y": -0.1324541364,
				"z": 2.2429050005,
				"element": "C" 
			},
			{
				"x": 1.0231296433,
				"y": -0.7937099814,
				"z": 2.6086863742,
				"element": "C" 
			},
			{
				"x": -0.2119149878,
				"y": -0.3708486986,
				"z": 2.1133378738,
				"element": "C" 
			},
			{
				"x": -3.6446269399,
				"y": 1.2424782428,
				"z": -0.7386873668,
				"element": "H" 
			},
			{
				"x": -3.8257609575,
				"y": 2.3330620848,
				"z": 0.6487641377,
				"element": "H" 
			},
			{
				"x": -4.7589114742,
				"y": 0.8241231547,
				"z": 0.5788318399,
				"element": "H" 
			},
			{
				"x": -2.8259152164,
				"y": 0.5852233886,
				"z": 2.1550951684,
				"element": "H" 
			},
			{
				"x": -2.6448193576,
				"y": -0.5073960334,
				"z": 0.7657230951,
				"element": "H" 
			},
			{
				"x": -0.2640921467,
				"y": 2.7726895468,
				"z": -0.36228445,
				"element": "H" 
			},
			{
				"x": 3.3853136197,
				"y": 3.8410656293,
				"z": -0.7284356708,
				"element": "H" 
			},
			{
				"x": 3.0351775497,
				"y": 1.4737426622,
				"z": 1.0909813189,
				"element": "H" 
			},
			{
				"x": 3.1530186616,
				"y": -0.4610884378,
				"z": 2.6278587083,
				"element": "H" 
			},
			{
				"x": 1.060684394,
				"y": -1.6448584282,
				"z": 3.2828375131,
				"element": "H" 
			},
			{
				"x": -1.1122902219,
				"y": -0.8958869964,
				"z": 2.4071501806,
				"element": "H" 
			}
		],
		 "valence_orbital": [ 
			{
				"type": "occ",
				"energy": -0.31853,
				"method": "rhf"
			},
			{
				"type": "occ",
				"energy": -0.28148,
				"method": "rhf"
			},
			{
				"type": "occ",
				"energy": -0.25913,
				"method": "rhf"
			},
			{
				"type": "occ",
				"energy": -0.23661,
				"method": "rhf"
			},
			{
				"type": "occ",
				"energy": -0.21228,
				"method": "rhf"
			},
			{
				"type": "unocc",
				"energy": -0.03513,
				"method": "rhf"
			},
			{
				"type": "unocc",
				"energy": 0.01272,
				"method": "rhf"
			},
			{
				"type": "unocc",
				"energy": 0.06246,
				"method": "rhf"
			},
			{
				"type": "unocc",
				"energy": 0.07963,
				"method": "rhf"
			},
			{
				"type": "unocc",
				"energy": 0.09356,
				"method": "rhf"
			}
		],
		"cosmo_sigma_profile": { 
			"-0.025": 0.0,
			"-0.024": 0.0,
			"-0.023": 0.0,
			"-0.022": 0.0,
			"-0.021": 0.0,
			"-0.02": 0.0,
			"-0.019": 0.0,
			"-0.018": 0.00801636742602,
			"-0.017": 0.872963683879,
			"-0.016": 1.03459507464,
			"-0.015": 0.885764224787,
			"-0.014": 0.715814917712,
			"-0.013": 0.907478582753,
			"-0.012": 0.467965749374,
			"-0.011": 0.719199889791,
			"-0.01": 0.764462215563,
			"-0.009": 0.399990662995,
			"-0.008": 0.788157895029,
			"-0.007": 1.50016627046,
			"-0.006": 6.80946654642,
			"-0.005": 14.0325112643,
			"-0.004": 20.2631590656,
			"-0.003": 19.7997578152,
			"-0.002": 15.9367203135,
			"-0.001": 13.4279222949,
			"0.0": 14.946922521,
			"0.001": 13.0970115271,
			"0.002": 14.0866999121,
			"0.003": 16.685625206,
			"0.004": 17.7484299008,
			"0.005": 15.3533995483,
			"0.006": 7.25329788891,
			"0.007": 3.26501917982,
			"0.008": 3.28749563074,
			"0.009": 2.00937102536,
			"0.01": 1.2718081013,
			"0.011": 0.932950365514,
			"0.012": 0.930224551348,
			"0.013": 0.942792315214,
			"0.014": 0.584843579912,
			"0.015": 0.0204473472532,
			"0.016": 0.0,
			"0.017": 0.0,
			"0.018": 0.0,
			"0.019": 0.0,
			"0.02": 0.0,
			"0.021": 0.0,
			"0.022": 0.0,
			"0.023": 0.0,
			"0.024": 0.0,
			"0.025": 0.0
		}
	}
}
