{
	 "smiles": "NC1=NC(CC2=CC=C(Br)C=C2)=CS1", 
	 "Tm": 420.15, 
	 "num_atms": 23, 
	 "gaussian": { 
		 "optdone": 1, 
		 "sigma_profile": "yes", 
		 "theory": "DFT", 
		 "functional": "B3LYP", 
		 "basiset": "6-31G**", 
		 "properties": { 
			 "R2extent": 9270.2801, 
			 "electric_dipole_moment_norm": 3.83350490022, 
			 "electric_quadrupole_moment_norm": 20.4666120149, 
			 "total_energy": -3465.58366015, 
			 "HOMO_LUMO_gap": 0.20095, 
			 "cosmo_polarized_energy": -11.63, 
			 "cosmo_cavitation_energy": 31.5, 
			 "cosmo_dispersion_energy": -23.73, 
			 "cosmo_repulsion_energy": 1.85, 
			 "cosmo_total_nonelectrostatic_energy": 9.62, 
			 "SMD_solvation_energy": 2.79 
		},
		"coords": [
			{
				"x": 3.3769382858,
				"y": 1.9269664671,
				"z": -1.2490847655,
				"element": "N" 
			},
			{
				"x": 2.7962565536,
				"y": 0.6819848193,
				"z": -1.1686915619,
				"element": "C" 
			},
			{
				"x": 1.6502833725,
				"y": 0.4499060797,
				"z": -0.5956990557,
				"element": "N" 
			},
			{
				"x": 1.3558261021,
				"y": -0.9046474153,
				"z": -0.6016861151,
				"element": "C" 
			},
			{
				"x": 0.0660862224,
				"y": -1.3718878367,
				"z": 0.0290355243,
				"element": "C" 
			},
			{
				"x": 0.0575912527,
				"y": -1.3000685471,
				"z": 1.5489609166,
				"element": "C" 
			},
			{
				"x": 0.1519104899,
				"y": -0.0685705849,
				"z": 2.2129255225,
				"element": "C" 
			},
			{
				"x": 0.1369424441,
				"y": 0.0007048854,
				"z": 3.6050766021,
				"element": "C" 
			},
			{
				"x": 0.0247148518,
				"y": -1.1760876101,
				"z": 4.3445549803,
				"element": "C" 
			},
			{
				"x": -0.0017339363,
				"y": -1.088659142,
				"z": 6.2569270992,
				"element": "Br" 
			},
			{
				"x": -0.0691577799,
				"y": -2.413041337,
				"z": 3.7135562082,
				"element": "C" 
			},
			{
				"x": -0.0505227077,
				"y": -2.4635807541,
				"z": 2.3181225476,
				"element": "C" 
			},
			{
				"x": 2.2793831143,
				"y": -1.7083686695,
				"z": -1.1974041249,
				"element": "C" 
			},
			{
				"x": 3.627336393,
				"y": -0.7547426673,
				"z": -1.7791926298,
				"element": "S" 
			},
			{
				"x": 2.7302037434,
				"y": 2.6786892944,
				"z": -1.0492236769,
				"element": "H" 
			},
			{
				"x": 3.9797139241,
				"y": 2.1023833733,
				"z": -2.0400231809,
				"element": "H" 
			},
			{
				"x": -0.1333619954,
				"y": -2.4003849115,
				"z": -0.2860482543,
				"element": "H" 
			},
			{
				"x": -0.7488460844,
				"y": -0.7527805047,
				"z": -0.3670145457,
				"element": "H" 
			},
			{
				"x": 0.2552657851,
				"y": 0.8411211088,
				"z": 1.630036899,
				"element": "H" 
			},
			{
				"x": 0.2108823387,
				"y": 0.9569267954,
				"z": 4.1107886472,
				"element": "H" 
			},
			{
				"x": -0.1553146011,
				"y": -3.3214770829,
				"z": 4.2989509498,
				"element": "H" 
			},
			{
				"x": -0.1243324874,
				"y": -3.4298509224,
				"z": 1.8253001637,
				"element": "H" 
			},
			{
				"x": 2.2605347186,
				"y": -2.779634838,
				"z": -1.3335681499,
				"element": "H" 
			}
		],
		 "valence_orbital": [ 
			{
				"type": "occ",
				"energy": -0.27607,
				"method": "rhf"
			},
			{
				"type": "occ",
				"energy": -0.27406,
				"method": "rhf"
			},
			{
				"type": "occ",
				"energy": -0.25452,
				"method": "rhf"
			},
			{
				"type": "occ",
				"energy": -0.23111,
				"method": "rhf"
			},
			{
				"type": "occ",
				"energy": -0.21124,
				"method": "rhf"
			},
			{
				"type": "unocc",
				"energy": -0.01029,
				"method": "rhf"
			},
			{
				"type": "unocc",
				"energy": -0.00813,
				"method": "rhf"
			},
			{
				"type": "unocc",
				"energy": -0.00049,
				"method": "rhf"
			},
			{
				"type": "unocc",
				"energy": 0.01189,
				"method": "rhf"
			},
			{
				"type": "unocc",
				"energy": 0.01468,
				"method": "rhf"
			}
		],
		"cosmo_sigma_profile": { 
			"-0.025": 0.0,
			"-0.024": 0.0,
			"-0.023": 0.0,
			"-0.022": 0.0,
			"-0.021": 0.0,
			"-0.02": 0.0,
			"-0.019": 0.0,
			"-0.018": 0.0,
			"-0.017": 0.0,
			"-0.016": 0.0,
			"-0.015": 0.41819980333,
			"-0.014": 1.85621278576,
			"-0.013": 2.04615965632,
			"-0.012": 2.93660771601,
			"-0.011": 2.60908392432,
			"-0.01": 2.10122865057,
			"-0.009": 2.27044836584,
			"-0.008": 3.37246720505,
			"-0.007": 5.63731163419,
			"-0.006": 11.5915316905,
			"-0.005": 14.5282890517,
			"-0.004": 12.9767390602,
			"-0.003": 14.6189206763,
			"-0.002": 14.5472310052,
			"-0.001": 15.0548781113,
			"0.0": 13.6559567265,
			"0.001": 17.7431278422,
			"0.002": 23.7769690617,
			"0.003": 24.0837490052,
			"0.004": 34.3765078865,
			"0.005": 22.3129847832,
			"0.006": 3.8386932026,
			"0.007": 2.65177861226,
			"0.008": 2.86384110334,
			"0.009": 1.55393525593,
			"0.01": 1.33752060231,
			"0.011": 1.43045412443,
			"0.012": 0.600301915818,
			"0.013": 0.444438643391,
			"0.014": 0.145110822954,
			"0.015": 0.0,
			"0.016": 0.0,
			"0.017": 0.0,
			"0.018": 0.0,
			"0.019": 0.0,
			"0.02": 0.0,
			"0.021": 0.0,
			"0.022": 0.0,
			"0.023": 0.0,
			"0.024": 0.0,
			"0.025": 0.0
		}
	}
}
