{
	 "smiles": "COC1=CC=CC=C1OC1=CC=CC=C1OC", 
	 "Tm": 352.65, 
	 "num_atms": 31, 
	 "gaussian": { 
		 "optdone": 1, 
		 "sigma_profile": "yes", 
		 "theory": "DFT", 
		 "functional": "B3LYP", 
		 "basiset": "6-31G**", 
		 "properties": { 
			 "R2extent": 4006.5217, 
			 "electric_dipole_moment_norm": 1.27037009568, 
			 "electric_quadrupole_moment_norm": 6.7002901579, 
			 "total_energy": -767.550283345, 
			 "HOMO_LUMO_gap": 0.20592, 
			 "cosmo_polarized_energy": -9.75, 
			 "cosmo_cavitation_energy": 34.33, 
			 "cosmo_dispersion_energy": -23.49, 
			 "cosmo_repulsion_energy": 1.84, 
			 "cosmo_total_nonelectrostatic_energy": 12.67, 
			 "SMD_solvation_energy": 7.42 
		},
		"coords": [
			{
				"x": 1.7861897047,
				"y": 1.5804302896,
				"z": -1.6635101286,
				"element": "C" 
			},
			{
				"x": 1.4580658391,
				"y": 1.0180443533,
				"z": -0.403771459,
				"element": "O" 
			},
			{
				"x": 0.8887470504,
				"y": 1.8228417695,
				"z": 0.5359200784,
				"element": "C" 
			},
			{
				"x": 0.6739010789,
				"y": 3.1956443225,
				"z": 0.3888209553,
				"element": "C" 
			},
			{
				"x": 0.1159155462,
				"y": 3.9444380161,
				"z": 1.4309324955,
				"element": "C" 
			},
			{
				"x": -0.2319596532,
				"y": 3.3289376946,
				"z": 2.628949048,
				"element": "C" 
			},
			{
				"x": -0.0349906009,
				"y": 1.9528394257,
				"z": 2.7775083731,
				"element": "C" 
			},
			{
				"x": 0.5050906496,
				"y": 1.1983211027,
				"z": 1.7424762863,
				"element": "C" 
			},
			{
				"x": 0.7535519847,
				"y": -0.1359165554,
				"z": 2.0065650423,
				"element": "O" 
			},
			{
				"x": 0.4975553043,
				"y": -1.1485657139,
				"z": 1.1046745347,
				"element": "C" 
			},
			{
				"x": 1.4169448384,
				"y": -2.1980144981,
				"z": 1.0731416862,
				"element": "C" 
			},
			{
				"x": 1.2011843294,
				"y": -3.3020274891,
				"z": 0.2495623812,
				"element": "C" 
			},
			{
				"x": 0.0652834785,
				"y": -3.3597137887,
				"z": -0.5599444554,
				"element": "C" 
			},
			{
				"x": -0.8585292206,
				"y": -2.3148813648,
				"z": -0.5232337393,
				"element": "C" 
			},
			{
				"x": -0.6600383304,
				"y": -1.2123557374,
				"z": 0.3098281583,
				"element": "C" 
			},
			{
				"x": -1.5798980944,
				"y": -0.1856847109,
				"z": 0.308046189,
				"element": "O" 
			},
			{
				"x": -2.5553689775,
				"y": -0.2677412888,
				"z": 1.3477065035,
				"element": "C" 
			},
			{
				"x": 2.5460869579,
				"y": 2.3671986341,
				"z": -1.5698509773,
				"element": "H" 
			},
			{
				"x": 2.1891537379,
				"y": 0.7612704134,
				"z": -2.260662114,
				"element": "H" 
			},
			{
				"x": 0.9006931766,
				"y": 1.9926283769,
				"z": -2.1634292502,
				"element": "H" 
			},
			{
				"x": 0.951417522,
				"y": 3.69029401,
				"z": -0.5345299511,
				"element": "H" 
			},
			{
				"x": -0.0358408746,
				"y": 5.0111499536,
				"z": 1.2961003929,
				"element": "H" 
			},
			{
				"x": -0.6558747562,
				"y": 3.9056582079,
				"z": 3.4449611613,
				"element": "H" 
			},
			{
				"x": -0.2901636081,
				"y": 1.4410755796,
				"z": 3.700089658,
				"element": "H" 
			},
			{
				"x": 2.2986620148,
				"y": -2.1228418004,
				"z": 1.7011596204,
				"element": "H" 
			},
			{
				"x": 1.9271863559,
				"y": -4.109471249,
				"z": 0.2344812785,
				"element": "H" 
			},
			{
				"x": -0.1041212354,
				"y": -4.2113890168,
				"z": -1.2116996245,
				"element": "H" 
			},
			{
				"x": -1.7524082376,
				"y": -2.3291387047,
				"z": -1.1398157131,
				"element": "H" 
			},
			{
				"x": -3.1361711598,
				"y": -1.1961245801,
				"z": 1.2708343948,
				"element": "H" 
			},
			{
				"x": -2.0914976003,
				"y": -0.2169792131,
				"z": 2.3400243406,
				"element": "H" 
			},
			{
				"x": -3.2192672202,
				"y": 0.5893735617,
				"z": 1.2185648343,
				"element": "H" 
			}
		],
		 "valence_orbital": [ 
			{
				"type": "occ",
				"energy": -0.27092,
				"method": "rhf"
			},
			{
				"type": "occ",
				"energy": -0.24136,
				"method": "rhf"
			},
			{
				"type": "occ",
				"energy": -0.23768,
				"method": "rhf"
			},
			{
				"type": "occ",
				"energy": -0.21994,
				"method": "rhf"
			},
			{
				"type": "occ",
				"energy": -0.20425,
				"method": "rhf"
			},
			{
				"type": "unocc",
				"energy": 0.00167,
				"method": "rhf"
			},
			{
				"type": "unocc",
				"energy": 0.0075,
				"method": "rhf"
			},
			{
				"type": "unocc",
				"energy": 0.01418,
				"method": "rhf"
			},
			{
				"type": "unocc",
				"energy": 0.02038,
				"method": "rhf"
			},
			{
				"type": "unocc",
				"energy": 0.08272,
				"method": "rhf"
			}
		],
		"cosmo_sigma_profile": { 
			"-0.025": 0.0,
			"-0.024": 0.0,
			"-0.023": 0.0,
			"-0.022": 0.0,
			"-0.021": 0.0,
			"-0.02": 0.0,
			"-0.019": 0.0,
			"-0.018": 0.0,
			"-0.017": 0.0,
			"-0.016": 0.0,
			"-0.015": 0.0,
			"-0.014": 0.0,
			"-0.013": 0.0,
			"-0.012": 0.0,
			"-0.011": 0.0,
			"-0.01": 0.0,
			"-0.009": 0.0,
			"-0.008": 0.0,
			"-0.007": 0.686486558383,
			"-0.006": 14.9135998312,
			"-0.005": 26.5977718777,
			"-0.004": 30.4227708084,
			"-0.003": 32.5431263713,
			"-0.002": 22.218531856,
			"-0.001": 17.2585749205,
			"0.0": 12.6391270137,
			"0.001": 12.3402714136,
			"0.002": 14.9614655613,
			"0.003": 17.1861059996,
			"0.004": 18.2812598727,
			"0.005": 19.5200041365,
			"0.006": 15.3797495162,
			"0.007": 5.96587625944,
			"0.008": 5.39283488597,
			"0.009": 3.87874677213,
			"0.01": 1.67932591886,
			"0.011": 0.849276315915,
			"0.012": 0.583987612838,
			"0.013": 0.0191914526847,
			"0.014": 0.0,
			"0.015": 0.0,
			"0.016": 0.0,
			"0.017": 0.0,
			"0.018": 0.0,
			"0.019": 0.0,
			"0.02": 0.0,
			"0.021": 0.0,
			"0.022": 0.0,
			"0.023": 0.0,
			"0.024": 0.0,
			"0.025": 0.0
		}
	}
}
