{
	 "smiles": "C1CCC(CC1)NSC1=NC2=C(S1)C=CC=C2", 
	 "Tm": 371.15, 
	 "num_atms": 33, 
	 "gaussian": { 
		 "optdone": 1, 
		 "sigma_profile": "yes", 
		 "theory": "DFT", 
		 "functional": "B3LYP", 
		 "basiset": "6-31G**", 
		 "properties": { 
			 "R2extent": 6957.4833, 
			 "electric_dipole_moment_norm": 1.67804916197, 
			 "electric_quadrupole_moment_norm": 8.51095782389, 
			 "total_energy": -1410.90154619, 
			 "HOMO_LUMO_gap": 0.18689, 
			 "cosmo_polarized_energy": -6.44, 
			 "cosmo_cavitation_energy": 37.29, 
			 "cosmo_dispersion_energy": -27.88, 
			 "cosmo_repulsion_energy": 2.08, 
			 "cosmo_total_nonelectrostatic_energy": 11.49, 
			 "SMD_solvation_energy": 2.94 
		},
		"coords": [
			{
				"x": 3.4196339902,
				"y": 2.3579103469,
				"z": -1.2379660664,
				"element": "C" 
			},
			{
				"x": 2.7565686489,
				"y": 1.930372017,
				"z": -2.5533960408,
				"element": "C" 
			},
			{
				"x": 1.7783159188,
				"y": 0.7541164782,
				"z": -2.337783278,
				"element": "C" 
			},
			{
				"x": 1.0360555492,
				"y": 0.8079971991,
				"z": -0.9793785339,
				"element": "C" 
			},
			{
				"x": 0.9721714871,
				"y": 2.2493601439,
				"z": -0.4519531948,
				"element": "C" 
			},
			{
				"x": 2.3681842926,
				"y": 2.8784436351,
				"z": -0.2293415985,
				"element": "C" 
			},
			{
				"x": 1.7425712755,
				"y": -0.0098028267,
				"z": 0.0455004051,
				"element": "N" 
			},
			{
				"x": 1.727578736,
				"y": -1.7061311243,
				"z": -0.126236075,
				"element": "S" 
			},
			{
				"x": 0.0367488211,
				"y": -2.1515747277,
				"z": 0.2074086876,
				"element": "C" 
			},
			{
				"x": -0.8439654073,
				"y": -1.347465347,
				"z": 0.7073276555,
				"element": "N" 
			},
			{
				"x": -2.0607872114,
				"y": -1.9929889282,
				"z": 0.8906705648,
				"element": "C" 
			},
			{
				"x": -2.0862880152,
				"y": -3.3585850887,
				"z": 0.518212344,
				"element": "C" 
			},
			{
				"x": -0.5096944684,
				"y": -3.8214454729,
				"z": -0.109370425,
				"element": "S" 
			},
			{
				"x": -3.2385422515,
				"y": -4.1330470118,
				"z": 0.6606070807,
				"element": "C" 
			},
			{
				"x": -4.3789117266,
				"y": -3.5227468115,
				"z": 1.1805618442,
				"element": "C" 
			},
			{
				"x": -4.3677096226,
				"y": -2.1683692387,
				"z": 1.5520316253,
				"element": "C" 
			},
			{
				"x": -3.2181250746,
				"y": -1.398174402,
				"z": 1.4116291365,
				"element": "C" 
			},
			{
				"x": 3.9381637636,
				"y": 1.4936707246,
				"z": -0.8089273164,
				"element": "H" 
			},
			{
				"x": 4.1789097033,
				"y": 3.1265088415,
				"z": -1.4215632214,
				"element": "H" 
			},
			{
				"x": 2.2188358595,
				"y": 2.7880907191,
				"z": -2.9800680017,
				"element": "H" 
			},
			{
				"x": 3.5131513095,
				"y": 1.6487422566,
				"z": -3.294325099,
				"element": "H" 
			},
			{
				"x": 1.038036751,
				"y": 0.7383278025,
				"z": -3.1457640228,
				"element": "H" 
			},
			{
				"x": 2.3159445248,
				"y": -0.1980105139,
				"z": -2.4013309738,
				"element": "H" 
			},
			{
				"x": 0.011915964,
				"y": 0.4361669918,
				"z": -1.1044210263,
				"element": "H" 
			},
			{
				"x": 0.4119765135,
				"y": 2.8327366871,
				"z": -1.1924609087,
				"element": "H" 
			},
			{
				"x": 0.3780402769,
				"y": 2.2867661548,
				"z": 0.4697180316,
				"element": "H" 
			},
			{
				"x": 2.7130452851,
				"y": 2.6784962383,
				"z": 0.7906620023,
				"element": "H" 
			},
			{
				"x": 2.2736871987,
				"y": 3.9678663714,
				"z": -0.3112210118,
				"element": "H" 
			},
			{
				"x": 1.4178769522,
				"y": 0.2293168015,
				"z": 0.9799583013,
				"element": "H" 
			},
			{
				"x": -3.2509215109,
				"y": -5.1797631457,
				"z": 0.3742862842,
				"element": "H" 
			},
			{
				"x": -5.2875138852,
				"y": -4.1053988411,
				"z": 1.2986603652,
				"element": "H" 
			},
			{
				"x": -5.2694746835,
				"y": -1.7174094685,
				"z": 1.9551324305,
				"element": "H" 
			},
			{
				"x": -3.1948789646,
				"y": -0.3514764606,
				"z": 1.6964400356,
				"element": "H" 
			}
		],
		 "valence_orbital": [ 
			{
				"type": "occ",
				"energy": -0.28526,
				"method": "rhf"
			},
			{
				"type": "occ",
				"energy": -0.27718,
				"method": "rhf"
			},
			{
				"type": "occ",
				"energy": -0.25157,
				"method": "rhf"
			},
			{
				"type": "occ",
				"energy": -0.23736,
				"method": "rhf"
			},
			{
				"type": "occ",
				"energy": -0.22124,
				"method": "rhf"
			},
			{
				"type": "unocc",
				"energy": -0.03435,
				"method": "rhf"
			},
			{
				"type": "unocc",
				"energy": -0.00789,
				"method": "rhf"
			},
			{
				"type": "unocc",
				"energy": -0.00198,
				"method": "rhf"
			},
			{
				"type": "unocc",
				"energy": 0.01466,
				"method": "rhf"
			},
			{
				"type": "unocc",
				"energy": 0.03271,
				"method": "rhf"
			}
		],
		"cosmo_sigma_profile": { 
			"-0.025": 0.0,
			"-0.024": 0.0,
			"-0.023": 0.0,
			"-0.022": 0.0,
			"-0.021": 0.0,
			"-0.02": 0.0,
			"-0.019": 0.0,
			"-0.018": 0.0,
			"-0.017": 0.0,
			"-0.016": 0.0,
			"-0.015": 0.0,
			"-0.014": 0.0,
			"-0.013": 0.0,
			"-0.012": 0.106905174938,
			"-0.011": 0.681546132292,
			"-0.01": 0.837352580198,
			"-0.009": 0.917855122659,
			"-0.008": 1.19333140532,
			"-0.007": 4.32740060699,
			"-0.006": 8.73629694725,
			"-0.005": 11.2831315006,
			"-0.004": 12.815064631,
			"-0.003": 17.537565133,
			"-0.002": 33.0798680438,
			"-0.001": 34.3452395415,
			"0.0": 41.5165731048,
			"0.001": 39.7618783025,
			"0.002": 27.2075415812,
			"0.003": 21.937741833,
			"0.004": 19.1123975548,
			"0.005": 11.5159677472,
			"0.006": 4.03754125549,
			"0.007": 1.98691554533,
			"0.008": 2.46036701429,
			"0.009": 1.61180283625,
			"0.01": 1.13350309905,
			"0.011": 0.0670367184672,
			"0.012": 0.0,
			"0.013": 0.0,
			"0.014": 0.0,
			"0.015": 0.0,
			"0.016": 0.0,
			"0.017": 0.0,
			"0.018": 0.0,
			"0.019": 0.0,
			"0.02": 0.0,
			"0.021": 0.0,
			"0.022": 0.0,
			"0.023": 0.0,
			"0.024": 0.0,
			"0.025": 0.0
		}
	}
}
