{
	 "smiles": "ClCC(=O)NC1=C(I)C=CC=C1", 
	 "Tm": 312.15, 
	 "num_atms": 19, 
	 "gaussian": { 
		 "optdone": 1, 
		 "sigma_profile": "yes", 
		 "theory": "DFT", 
		 "functional": "B3LYP", 
		 "basiset": "6-31G**", 
		 "properties": { 
			 "R2extent": 3725.8686, 
			 "electric_dipole_moment_norm": 4.18640915822, 
			 "electric_quadrupole_moment_norm": 15.6480214935, 
			 "total_energy": -910.630140616, 
			 "HOMO_LUMO_gap": 0.19231, 
			 "cosmo_polarized_energy": -11.13, 
			 "cosmo_cavitation_energy": 27.95, 
			 "cosmo_dispersion_energy": -21.53, 
			 "cosmo_repulsion_energy": 1.7, 
			 "cosmo_total_nonelectrostatic_energy": 8.12, 
			 "SMD_solvation_energy": 4.41 
		},
		"coords": [
			{
				"x": -3.1353620299,
				"y": -2.9625064198,
				"z": 0.3526685971,
				"element": "Cl" 
			},
			{
				"x": -1.4514992737,
				"y": -2.9160913506,
				"z": 1.0258732725,
				"element": "C" 
			},
			{
				"x": -0.4538692769,
				"y": -3.5397124614,
				"z": 0.0528405218,
				"element": "C" 
			},
			{
				"x": -0.3157493172,
				"y": -4.7490547679,
				"z": -0.0116248751,
				"element": "O" 
			},
			{
				"x": 0.3318992149,
				"y": -2.7009292508,
				"z": -0.7146612735,
				"element": "N" 
			},
			{
				"x": 0.368666363,
				"y": -1.2951660515,
				"z": -0.8205708725,
				"element": "C" 
			},
			{
				"x": 1.5970185038,
				"y": -0.6044345703,
				"z": -0.8235810588,
				"element": "C" 
			},
			{
				"x": 3.4312596271,
				"y": -1.6520594205,
				"z": -0.6121989363,
				"element": "I" 
			},
			{
				"x": 1.639942194,
				"y": 0.7826711375,
				"z": -0.9686423776,
				"element": "C" 
			},
			{
				"x": 0.4548700739,
				"y": 1.5084575237,
				"z": -1.0917999368,
				"element": "C" 
			},
			{
				"x": -0.7684426157,
				"y": 0.8392189069,
				"z": -1.0956372387,
				"element": "C" 
			},
			{
				"x": -0.8098405097,
				"y": -0.5481672685,
				"z": -0.9829124101,
				"element": "C" 
			},
			{
				"x": -1.2328734937,
				"y": -1.8796265936,
				"z": 1.2781852778,
				"element": "H" 
			},
			{
				"x": -1.4601911256,
				"y": -3.5381564071,
				"z": 1.9192930555,
				"element": "H" 
			},
			{
				"x": 1.0639464264,
				"y": -3.2157169942,
				"z": -1.1926156059,
				"element": "H" 
			},
			{
				"x": 2.5957697297,
				"y": 1.2941496463,
				"z": -0.9725583226,
				"element": "H" 
			},
			{
				"x": 0.4952106413,
				"y": 2.5884668646,
				"z": -1.1923465086,
				"element": "H" 
			},
			{
				"x": -1.6957506052,
				"y": 1.3915643633,
				"z": -1.2113972416,
				"element": "H" 
			},
			{
				"x": -1.7579045263,
				"y": -1.071406886,
				"z": -1.0406140668,
				"element": "H" 
			}
		],
		 "valence_orbital": [ 
			{
				"type": "occ",
				"energy": -0.30618,
				"method": "rhf"
			},
			{
				"type": "occ",
				"energy": -0.2836,
				"method": "rhf"
			},
			{
				"type": "occ",
				"energy": -0.26945,
				"method": "rhf"
			},
			{
				"type": "occ",
				"energy": -0.2606,
				"method": "rhf"
			},
			{
				"type": "occ",
				"energy": -0.24427,
				"method": "rhf"
			},
			{
				"type": "unocc",
				"energy": -0.05196,
				"method": "rhf"
			},
			{
				"type": "unocc",
				"energy": -0.04388,
				"method": "rhf"
			},
			{
				"type": "unocc",
				"energy": -0.03199,
				"method": "rhf"
			},
			{
				"type": "unocc",
				"energy": -0.01667,
				"method": "rhf"
			},
			{
				"type": "unocc",
				"energy": 0.0352,
				"method": "rhf"
			}
		],
		"cosmo_sigma_profile": { 
			"-0.025": 0.0,
			"-0.024": 0.0,
			"-0.023": 0.0,
			"-0.022": 0.0,
			"-0.021": 0.0,
			"-0.02": 0.0,
			"-0.019": 0.0,
			"-0.018": 0.0,
			"-0.017": 0.0,
			"-0.016": 0.0,
			"-0.015": 0.0,
			"-0.014": 0.0,
			"-0.013": 0.125406846109,
			"-0.012": 1.26690623295,
			"-0.011": 0.760715672048,
			"-0.01": 0.737410061815,
			"-0.009": 1.92759680339,
			"-0.008": 5.54289266328,
			"-0.007": 10.8992461835,
			"-0.006": 14.2727454202,
			"-0.005": 15.2619743328,
			"-0.004": 12.8176889765,
			"-0.003": 11.6204853732,
			"-0.002": 13.1248628419,
			"-0.001": 14.923080323,
			"0.0": 15.719572908,
			"0.001": 20.7681203969,
			"0.002": 19.3869959294,
			"0.003": 23.6376091077,
			"0.004": 18.9823491574,
			"0.005": 9.13720585203,
			"0.006": 4.31434770298,
			"0.007": 0.822517328084,
			"0.008": 0.89433297447,
			"0.009": 1.45907280878,
			"0.01": 2.05151836652,
			"0.011": 2.06459928208,
			"0.012": 5.00428028436,
			"0.013": 3.50522510032,
			"0.014": 0.204466942427,
			"0.015": 0.0,
			"0.016": 0.0,
			"0.017": 0.0,
			"0.018": 0.0,
			"0.019": 0.0,
			"0.02": 0.0,
			"0.021": 0.0,
			"0.022": 0.0,
			"0.023": 0.0,
			"0.024": 0.0,
			"0.025": 0.0
		}
	}
}
