{
	 "smiles": "CC1=C(N=NN1C1=C(Cl)C=CC=C1)C(O)=O", 
	 "Tm": 439.15, 
	 "num_atms": 24, 
	 "gaussian": { 
		 "optdone": 1, 
		 "sigma_profile": "yes", 
		 "theory": "DFT", 
		 "functional": "B3LYP", 
		 "basiset": "6-31G**", 
		 "properties": { 
			 "R2extent": 4430.151, 
			 "electric_dipole_moment_norm": 7.09958302015, 
			 "electric_quadrupole_moment_norm": 21.9117463204, 
			 "total_energy": -1160.75398078, 
			 "HOMO_LUMO_gap": 0.21386, 
			 "cosmo_polarized_energy": -18.82, 
			 "cosmo_cavitation_energy": 31.07, 
			 "cosmo_dispersion_energy": -22.05, 
			 "cosmo_repulsion_energy": 1.71, 
			 "cosmo_total_nonelectrostatic_energy": 10.74, 
			 "SMD_solvation_energy": 5.17 
		},
		"coords": [
			{
				"x": -1.5631666171,
				"y": 0.6707894832,
				"z": 0.5552734916,
				"element": "C" 
			},
			{
				"x": -0.2073555503,
				"y": 1.035648099,
				"z": 1.0608948272,
				"element": "C" 
			},
			{
				"x": 0.2323336702,
				"y": 1.7550720051,
				"z": 2.1674431343,
				"element": "C" 
			},
			{
				"x": 1.6006606899,
				"y": 1.8280466445,
				"z": 2.140021001,
				"element": "N" 
			},
			{
				"x": 2.0456864989,
				"y": 1.2066123472,
				"z": 1.1047302498,
				"element": "N" 
			},
			{
				"x": 0.9514513419,
				"y": 0.702291089,
				"z": 0.4285304995,
				"element": "N" 
			},
			{
				"x": 1.1534627431,
				"y": 0.0121362141,
				"z": -0.8003320372,
				"element": "C" 
			},
			{
				"x": 0.8981989712,
				"y": -1.3607530191,
				"z": -0.9347258168,
				"element": "C" 
			},
			{
				"x": 0.3243903887,
				"y": -2.3057814873,
				"z": 0.4217519095,
				"element": "Cl" 
			},
			{
				"x": 1.1275917673,
				"y": -2.0008120736,
				"z": -2.1532471438,
				"element": "C" 
			},
			{
				"x": 1.6310613699,
				"y": -1.2767942152,
				"z": -3.2331003921,
				"element": "C" 
			},
			{
				"x": 1.9093939023,
				"y": 0.0846714111,
				"z": -3.1007236009,
				"element": "C" 
			},
			{
				"x": 1.6684800072,
				"y": 0.724748553,
				"z": -1.8880015813,
				"element": "C" 
			},
			{
				"x": -0.5260834681,
				"y": 2.3958912827,
				"z": 3.2539518245,
				"element": "C" 
			},
			{
				"x": -1.8696157823,
				"y": 2.1938180287,
				"z": 3.1269993195,
				"element": "O" 
			},
			{
				"x": -0.0516821416,
				"y": 3.0322708978,
				"z": 4.1673965099,
				"element": "O" 
			},
			{
				"x": -1.8812763249,
				"y": -0.2959164958,
				"z": 0.9592504401,
				"element": "H" 
			},
			{
				"x": -2.2898846926,
				"y": 1.4191102233,
				"z": 0.8694517739,
				"element": "H" 
			},
			{
				"x": -1.5652813505,
				"y": 0.5943709398,
				"z": -0.5354270754,
				"element": "H" 
			},
			{
				"x": 0.9227700185,
				"y": -3.0618152329,
				"z": -2.2408908305,
				"element": "H" 
			},
			{
				"x": 1.8116853686,
				"y": -1.7834751733,
				"z": -4.1760015364,
				"element": "H" 
			},
			{
				"x": 2.3102069262,
				"y": 0.6472606501,
				"z": -3.9374622003,
				"element": "H" 
			},
			{
				"x": 1.8793464779,
				"y": 1.780527641,
				"z": -1.757331305,
				"element": "H" 
			},
			{
				"x": -2.2705742143,
				"y": 2.6555821878,
				"z": 3.8820485391,
				"element": "H" 
			}
		],
		 "valence_orbital": [ 
			{
				"type": "occ",
				"energy": -0.28566,
				"method": "rhf"
			},
			{
				"type": "occ",
				"energy": -0.27588,
				"method": "rhf"
			},
			{
				"type": "occ",
				"energy": -0.27321,
				"method": "rhf"
			},
			{
				"type": "occ",
				"energy": -0.26672,
				"method": "rhf"
			},
			{
				"type": "occ",
				"energy": -0.26128,
				"method": "rhf"
			},
			{
				"type": "unocc",
				"energy": -0.04742,
				"method": "rhf"
			},
			{
				"type": "unocc",
				"energy": -0.03739,
				"method": "rhf"
			},
			{
				"type": "unocc",
				"energy": -0.02496,
				"method": "rhf"
			},
			{
				"type": "unocc",
				"energy": -0.00759,
				"method": "rhf"
			},
			{
				"type": "unocc",
				"energy": 0.00946,
				"method": "rhf"
			}
		],
		"cosmo_sigma_profile": { 
			"-0.025": 0.0,
			"-0.024": 0.0,
			"-0.023": 0.0,
			"-0.022": 0.0,
			"-0.021": 0.0,
			"-0.02": 0.0,
			"-0.019": 0.0655322921528,
			"-0.018": 0.784303306607,
			"-0.017": 1.07421714848,
			"-0.016": 0.885237836727,
			"-0.015": 0.406975693885,
			"-0.014": 0.635768507812,
			"-0.013": 0.72329613972,
			"-0.012": 1.09548383221,
			"-0.011": 0.864362221543,
			"-0.01": 0.493427210304,
			"-0.009": 0.57224164051,
			"-0.008": 4.488606225,
			"-0.007": 10.2577609777,
			"-0.006": 13.9741709185,
			"-0.005": 15.0107160266,
			"-0.004": 14.5787525813,
			"-0.003": 19.5214968638,
			"-0.002": 22.7690645856,
			"-0.001": 18.4140192657,
			"0.0": 20.5888006609,
			"0.001": 18.5025224531,
			"0.002": 19.5354600981,
			"0.003": 14.8913972058,
			"0.004": 7.67909007661,
			"0.005": 4.40545365363,
			"0.006": 3.30431429357,
			"0.007": 3.77561745624,
			"0.008": 3.02194669637,
			"0.009": 5.62216121847,
			"0.01": 5.11955072236,
			"0.011": 7.37488148567,
			"0.012": 5.60753663347,
			"0.013": 2.70070079808,
			"0.014": 2.35880302855,
			"0.015": 0.558376386966,
			"0.016": 0.0,
			"0.017": 0.0,
			"0.018": 0.0,
			"0.019": 0.0,
			"0.02": 0.0,
			"0.021": 0.0,
			"0.022": 0.0,
			"0.023": 0.0,
			"0.024": 0.0,
			"0.025": 0.0
		}
	}
}
