{
	 "smiles": "OC(=O)CNC(=O)C1=CC(O)=CC=C1", 
	 "Tm": 448.15, 
	 "num_atms": 23, 
	 "gaussian": { 
		 "optdone": 1, 
		 "sigma_profile": "yes", 
		 "theory": "DFT", 
		 "functional": "B3LYP", 
		 "basiset": "6-31G**", 
		 "properties": { 
			 "R2extent": 3690.4442, 
			 "electric_dipole_moment_norm": 6.04558563664, 
			 "electric_quadrupole_moment_norm": 22.4383766342, 
			 "total_energy": -704.054085853, 
			 "HOMO_LUMO_gap": 0.18605, 
			 "cosmo_polarized_energy": -22.97, 
			 "cosmo_cavitation_energy": 27.9, 
			 "cosmo_dispersion_energy": -20.67, 
			 "cosmo_repulsion_energy": 1.63, 
			 "cosmo_total_nonelectrostatic_energy": 8.86, 
			 "SMD_solvation_energy": 6.21 
		},
		"coords": [
			{
				"x": 0.5123437479,
				"y": 2.8150988219,
				"z": -2.4386500741,
				"element": "O" 
			},
			{
				"x": -0.4441224279,
				"y": 3.3694261537,
				"z": -1.6856011804,
				"element": "C" 
			},
			{
				"x": -1.2616516146,
				"y": 4.1408693408,
				"z": -2.1294499571,
				"element": "O" 
			},
			{
				"x": -0.4130633706,
				"y": 2.9875154711,
				"z": -0.1920508883,
				"element": "C" 
			},
			{
				"x": -0.5511624397,
				"y": 1.5537111308,
				"z": 0.0640371278,
				"element": "N" 
			},
			{
				"x": 0.4787112665,
				"y": 0.6885102188,
				"z": -0.1349174206,
				"element": "C" 
			},
			{
				"x": 1.5352740549,
				"y": 1.0681435293,
				"z": -0.6646217214,
				"element": "O" 
			},
			{
				"x": 0.293360005,
				"y": -0.7236866533,
				"z": 0.3191617,
				"element": "C" 
			},
			{
				"x": -0.9745716576,
				"y": -1.312822463,
				"z": 0.4444280243,
				"element": "C" 
			},
			{
				"x": -1.0884958572,
				"y": -2.6381300781,
				"z": 0.8720210675,
				"element": "C" 
			},
			{
				"x": -2.2879335889,
				"y": -3.2737524448,
				"z": 0.997828073,
				"element": "O" 
			},
			{
				"x": 0.0618232985,
				"y": -3.3740585905,
				"z": 1.185055913,
				"element": "C" 
			},
			{
				"x": 1.3155833237,
				"y": -2.7850337693,
				"z": 1.0486177578,
				"element": "C" 
			},
			{
				"x": 1.4421697597,
				"y": -1.4670563238,
				"z": 0.6081234872,
				"element": "C" 
			},
			{
				"x": 1.0787930939,
				"y": 2.2247053654,
				"z": -1.8833198213,
				"element": "H" 
			},
			{
				"x": -1.2389836006,
				"y": 3.5065149053,
				"z": 0.2919484566,
				"element": "H" 
			},
			{
				"x": 0.5336345794,
				"y": 3.3378168841,
				"z": 0.2389751747,
				"element": "H" 
			},
			{
				"x": -1.3487566644,
				"y": 1.2476754879,
				"z": 0.5988207316,
				"element": "H" 
			},
			{
				"x": -1.8729430124,
				"y": -0.7677883467,
				"z": 0.1618305833,
				"element": "H" 
			},
			{
				"x": -3.0017419696,
				"y": -2.68011573,
				"z": 0.7308816084,
				"element": "H" 
			},
			{
				"x": -0.0508891863,
				"y": -4.4005714412,
				"z": 1.5173742121,
				"element": "H" 
			},
			{
				"x": 2.2043507873,
				"y": -3.3625062201,
				"z": 1.2842290375,
				"element": "H" 
			},
			{
				"x": 2.4125714728,
				"y": -1.0011652484,
				"z": 0.4839781087,
				"element": "H" 
			}
		],
		 "valence_orbital": [ 
			{
				"type": "occ",
				"energy": -0.29803,
				"method": "rhf"
			},
			{
				"type": "occ",
				"energy": -0.28997,
				"method": "rhf"
			},
			{
				"type": "occ",
				"energy": -0.27685,
				"method": "rhf"
			},
			{
				"type": "occ",
				"energy": -0.25404,
				"method": "rhf"
			},
			{
				"type": "occ",
				"energy": -0.24452,
				"method": "rhf"
			},
			{
				"type": "unocc",
				"energy": -0.05847,
				"method": "rhf"
			},
			{
				"type": "unocc",
				"energy": -0.01451,
				"method": "rhf"
			},
			{
				"type": "unocc",
				"energy": 0.01271,
				"method": "rhf"
			},
			{
				"type": "unocc",
				"energy": 0.03437,
				"method": "rhf"
			},
			{
				"type": "unocc",
				"energy": 0.04847,
				"method": "rhf"
			}
		],
		"cosmo_sigma_profile": { 
			"-0.025": 0.0,
			"-0.024": 0.0,
			"-0.023": 0.0,
			"-0.022": 0.0,
			"-0.021": 0.0,
			"-0.02": 0.0,
			"-0.019": 0.036678363363,
			"-0.018": 0.875461037571,
			"-0.017": 1.58422719227,
			"-0.016": 1.56498627163,
			"-0.015": 2.7169182839,
			"-0.014": 2.04279580429,
			"-0.013": 2.89573972081,
			"-0.012": 2.43006515425,
			"-0.011": 2.85958818856,
			"-0.01": 2.84832153044,
			"-0.009": 3.32758883651,
			"-0.008": 5.51584277395,
			"-0.007": 6.37104560753,
			"-0.006": 10.8824473351,
			"-0.005": 12.7218567745,
			"-0.004": 12.2899719125,
			"-0.003": 12.9915193854,
			"-0.002": 13.9977049689,
			"-0.001": 8.66334892894,
			"0.0": 9.62299445301,
			"0.001": 10.1678935284,
			"0.002": 12.8203340868,
			"0.003": 15.1898950793,
			"0.004": 14.4437969961,
			"0.005": 6.01803930557,
			"0.006": 3.6417704067,
			"0.007": 4.99448621998,
			"0.008": 6.39773559333,
			"0.009": 5.12887555977,
			"0.01": 7.3197614506,
			"0.011": 10.0285730935,
			"0.012": 7.28002278126,
			"0.013": 2.6692148788,
			"0.014": 0.161720977556,
			"0.015": 0.0,
			"0.016": 0.0,
			"0.017": 0.0,
			"0.018": 0.0,
			"0.019": 0.0,
			"0.02": 0.0,
			"0.021": 0.0,
			"0.022": 0.0,
			"0.023": 0.0,
			"0.024": 0.0,
			"0.025": 0.0
		}
	}
}
