{
	 "smiles": "ClS(=O)(=O)C1=CC=C(C=C1)C#N", 
	 "Tm": 382.15, 
	 "num_atms": 16, 
	 "gaussian": { 
		 "optdone": 1, 
		 "sigma_profile": "yes", 
		 "theory": "DFT", 
		 "functional": "B3LYP", 
		 "basiset": "6-31G**", 
		 "properties": { 
			 "R2extent": 3304.9843, 
			 "electric_dipole_moment_norm": 0.924153829186, 
			 "electric_quadrupole_moment_norm": 22.4513364408, 
			 "total_energy": -1332.6424922, 
			 "HOMO_LUMO_gap": 0.1901, 
			 "cosmo_polarized_energy": -12.93, 
			 "cosmo_cavitation_energy": 25.7, 
			 "cosmo_dispersion_energy": -18.69, 
			 "cosmo_repulsion_energy": 1.45, 
			 "cosmo_total_nonelectrostatic_energy": 8.45, 
			 "SMD_solvation_energy": 4.58 
		},
		"coords": [
			{
				"x": -2.3033034416,
				"y": -2.9962734417,
				"z": 0.0546569316,
				"element": "Cl" 
			},
			{
				"x": -1.8874552357,
				"y": -1.1277606539,
				"z": -0.8725234324,
				"element": "S" 
			},
			{
				"x": -1.5919242372,
				"y": -1.4167798101,
				"z": -2.2692472959,
				"element": "O" 
			},
			{
				"x": -2.9505848328,
				"y": -0.2192110164,
				"z": -0.4650968689,
				"element": "O" 
			},
			{
				"x": -0.3700997735,
				"y": -0.66433907,
				"z": -0.0375488642,
				"element": "C" 
			},
			{
				"x": 0.8474919009,
				"y": -1.0543204804,
				"z": -0.596104618,
				"element": "C" 
			},
			{
				"x": 2.0238510296,
				"y": -0.6776966183,
				"z": 0.0441608174,
				"element": "C" 
			},
			{
				"x": 1.9652484568,
				"y": 0.0791539338,
				"z": 1.227318238,
				"element": "C" 
			},
			{
				"x": 0.726336488,
				"y": 0.4642750424,
				"z": 1.7685327153,
				"element": "C" 
			},
			{
				"x": -0.4534174851,
				"y": 0.0907051716,
				"z": 1.1327417498,
				"element": "C" 
			},
			{
				"x": 3.1803514476,
				"y": 0.4655074849,
				"z": 1.8857346325,
				"element": "C" 
			},
			{
				"x": 4.1648072352,
				"y": 0.778119214,
				"z": 2.4194012276,
				"element": "N" 
			},
			{
				"x": 0.8695619922,
				"y": -1.6298296344,
				"z": -1.5144537214,
				"element": "H" 
			},
			{
				"x": 2.9864167932,
				"y": -0.9619598054,
				"z": -0.3661588937,
				"element": "H" 
			},
			{
				"x": 0.6958758003,
				"y": 1.0539704335,
				"z": 2.6779464632,
				"element": "H" 
			},
			{
				"x": -1.4192561379,
				"y": 0.3848392503,
				"z": 1.5273409192,
				"element": "H" 
			}
		],
		 "valence_orbital": [ 
			{
				"type": "occ",
				"energy": -0.35076,
				"method": "rhf"
			},
			{
				"type": "occ",
				"energy": -0.34503,
				"method": "rhf"
			},
			{
				"type": "occ",
				"energy": -0.32731,
				"method": "rhf"
			},
			{
				"type": "occ",
				"energy": -0.3126,
				"method": "rhf"
			},
			{
				"type": "occ",
				"energy": -0.30244,
				"method": "rhf"
			},
			{
				"type": "unocc",
				"energy": -0.11234,
				"method": "rhf"
			},
			{
				"type": "unocc",
				"energy": -0.07739,
				"method": "rhf"
			},
			{
				"type": "unocc",
				"energy": -0.06111,
				"method": "rhf"
			},
			{
				"type": "unocc",
				"energy": 0.01034,
				"method": "rhf"
			},
			{
				"type": "unocc",
				"energy": 0.01841,
				"method": "rhf"
			}
		],
		"cosmo_sigma_profile": { 
			"-0.025": 0.0,
			"-0.024": 0.0,
			"-0.023": 0.0,
			"-0.022": 0.0,
			"-0.021": 0.0,
			"-0.02": 0.0,
			"-0.019": 0.0,
			"-0.018": 0.0,
			"-0.017": 0.0,
			"-0.016": 0.0,
			"-0.015": 0.0,
			"-0.014": 0.0,
			"-0.013": 0.0,
			"-0.012": 0.0,
			"-0.011": 0.0,
			"-0.01": 2.42744794295,
			"-0.009": 9.61048475749,
			"-0.008": 9.14325013538,
			"-0.007": 8.12929964038,
			"-0.006": 7.36979687631,
			"-0.005": 9.11124005971,
			"-0.004": 10.1132168642,
			"-0.003": 13.8522776905,
			"-0.002": 19.624925497,
			"-0.001": 21.0113866772,
			"0.0": 10.2544180832,
			"0.001": 8.36865277672,
			"0.002": 13.0963551509,
			"0.003": 15.3552790244,
			"0.004": 7.39846402809,
			"0.005": 5.61458113478,
			"0.006": 5.44427777092,
			"0.007": 11.3600889112,
			"0.008": 11.9788976854,
			"0.009": 5.10688010135,
			"0.01": 2.71709180692,
			"0.011": 2.42388348351,
			"0.012": 1.74860786778,
			"0.013": 0.157975794753,
			"0.014": 0.0,
			"0.015": 0.0,
			"0.016": 0.0,
			"0.017": 0.0,
			"0.018": 0.0,
			"0.019": 0.0,
			"0.02": 0.0,
			"0.021": 0.0,
			"0.022": 0.0,
			"0.023": 0.0,
			"0.024": 0.0,
			"0.025": 0.0
		}
	}
}
