{
	 "smiles": "FC(F)(F)C1(F)C(F)(F)C(F)(F)C(F)(F)C(F)(F)C1(F)C(F)(F)F", 
	 "Tm": 217.15, 
	 "num_atms": 24, 
	 "gaussian": { 
		 "optdone": 1, 
		 "sigma_profile": "yes", 
		 "theory": "DFT", 
		 "functional": "B3LYP", 
		 "basiset": "6-31G**", 
		 "properties": { 
			 "R2extent": 5846.8129, 
			 "electric_dipole_moment_norm": 0.258814103171, 
			 "electric_quadrupole_moment_norm": 0.68402660036, 
			 "total_energy": -1902.21804298, 
			 "HOMO_LUMO_gap": 0.3299, 
			 "cosmo_polarized_energy": -1.1, 
			 "cosmo_cavitation_energy": 31.21, 
			 "cosmo_dispersion_energy": -21.48, 
			 "cosmo_repulsion_energy": 1.29, 
			 "cosmo_total_nonelectrostatic_energy": 11.03, 
			 "SMD_solvation_energy": 10.17 
		},
		"coords": [
			{
				"x": 1.5643218018,
				"y": -0.1189743425,
				"z": 0.396236301,
				"element": "F" 
			},
			{
				"x": 1.0594416363,
				"y": -0.5549414391,
				"z": -0.7629702989,
				"element": "C" 
			},
			{
				"x": 1.6399260009,
				"y": -1.7204293539,
				"z": -1.0697372498,
				"element": "F" 
			},
			{
				"x": 1.3722979981,
				"y": 0.3089692899,
				"z": -1.7337766363,
				"element": "F" 
			},
			{
				"x": -0.4988516959,
				"y": -0.7290673029,
				"z": -0.6971221053,
				"element": "C" 
			},
			{
				"x": -0.8211763703,
				"y": -1.1362588673,
				"z": -1.9713867085,
				"element": "F" 
			},
			{
				"x": -0.9772761469,
				"y": -1.9173829758,
				"z": 0.2190181861,
				"element": "C" 
			},
			{
				"x": -2.2036059269,
				"y": -2.2852148416,
				"z": -0.2215044002,
				"element": "F" 
			},
			{
				"x": -0.1567634721,
				"y": -2.9799500668,
				"z": 0.0888864566,
				"element": "F" 
			},
			{
				"x": -1.1085782944,
				"y": -1.6086441621,
				"z": 1.7258619007,
				"element": "C" 
			},
			{
				"x": 0.127472533,
				"y": -1.4273716356,
				"z": 2.2453458298,
				"element": "F" 
			},
			{
				"x": -1.6894894837,
				"y": -2.6647049717,
				"z": 2.3296036203,
				"element": "F" 
			},
			{
				"x": -1.9530179336,
				"y": -0.348682744,
				"z": 1.985263567,
				"element": "C" 
			},
			{
				"x": -1.8986474288,
				"y": -0.0398252686,
				"z": 3.2963417063,
				"element": "F" 
			},
			{
				"x": -3.237753995,
				"y": -0.5994109498,
				"z": 1.6432200929,
				"element": "F" 
			},
			{
				"x": -1.4473531174,
				"y": 0.8646057957,
				"z": 1.1753735681,
				"element": "C" 
			},
			{
				"x": -0.2408107607,
				"y": 1.2089386492,
				"z": 1.6839835675,
				"element": "F" 
			},
			{
				"x": -2.2964659947,
				"y": 1.8883975735,
				"z": 1.3995665284,
				"element": "F" 
			},
			{
				"x": -1.2451340792,
				"y": 0.6370961283,
				"z": -0.3700910224,
				"element": "C" 
			},
			{
				"x": -0.4603999051,
				"y": 1.6957035666,
				"z": -0.7662337832,
				"element": "F" 
			},
			{
				"x": -2.5496011394,
				"y": 0.8227776858,
				"z": -1.2226783463,
				"element": "C" 
			},
			{
				"x": -3.4399090797,
				"y": -0.148788168,
				"z": -0.9941400123,
				"element": "F" 
			},
			{
				"x": -2.2368687568,
				"y": 0.8387143188,
				"z": -2.5221200731,
				"element": "F" 
			},
			{
				"x": -3.1198563893,
				"y": 1.9993440819,
				"z": -0.9399406886,
				"element": "F" 
			}
		],
		 "valence_orbital": [ 
			{
				"type": "occ",
				"energy": -0.41555,
				"method": "rhf"
			},
			{
				"type": "occ",
				"energy": -0.39918,
				"method": "rhf"
			},
			{
				"type": "occ",
				"energy": -0.38134,
				"method": "rhf"
			},
			{
				"type": "occ",
				"energy": -0.37801,
				"method": "rhf"
			},
			{
				"type": "occ",
				"energy": -0.36039,
				"method": "rhf"
			},
			{
				"type": "unocc",
				"energy": -0.03049,
				"method": "rhf"
			},
			{
				"type": "unocc",
				"energy": 0.01175,
				"method": "rhf"
			},
			{
				"type": "unocc",
				"energy": 0.03256,
				"method": "rhf"
			},
			{
				"type": "unocc",
				"energy": 0.03738,
				"method": "rhf"
			},
			{
				"type": "unocc",
				"energy": 0.06456,
				"method": "rhf"
			}
		],
		"cosmo_sigma_profile": { 
			"-0.025": 0.0,
			"-0.024": 0.0,
			"-0.023": 0.0,
			"-0.022": 0.0,
			"-0.021": 0.0,
			"-0.02": 0.0,
			"-0.019": 0.0,
			"-0.018": 0.0,
			"-0.017": 0.0,
			"-0.016": 0.0,
			"-0.015": 0.0,
			"-0.014": 0.0,
			"-0.013": 0.0,
			"-0.012": 0.0,
			"-0.011": 0.0,
			"-0.01": 0.0,
			"-0.009": 0.0,
			"-0.008": 0.0,
			"-0.007": 0.00572122148209,
			"-0.006": 0.228490097979,
			"-0.005": 0.7231018036,
			"-0.004": 2.5919101112,
			"-0.003": 7.573204563,
			"-0.002": 17.6490481145,
			"-0.001": 34.4034962908,
			"0.0": 80.7615846145,
			"0.001": 103.758784833,
			"0.002": 3.66837972584,
			"0.003": 0.0,
			"0.004": 0.0,
			"0.005": 0.0,
			"0.006": 0.0,
			"0.007": 0.0,
			"0.008": 0.0,
			"0.009": 0.0,
			"0.01": 0.0,
			"0.011": 0.0,
			"0.012": 0.0,
			"0.013": 0.0,
			"0.014": 0.0,
			"0.015": 0.0,
			"0.016": 0.0,
			"0.017": 0.0,
			"0.018": 0.0,
			"0.019": 0.0,
			"0.02": 0.0,
			"0.021": 0.0,
			"0.022": 0.0,
			"0.023": 0.0,
			"0.024": 0.0,
			"0.025": 0.0
		}
	}
}
