{
	 "smiles": "CC1=CN([C@@H]2O[C@H](CO)C=C2)C(=O)NC1=O", 
	 "Tm": 432.65, 
	 "num_atms": 28, 
	 "gaussian": { 
		 "optdone": 1, 
		 "sigma_profile": "yes", 
		 "theory": "DFT", 
		 "functional": "B3LYP", 
		 "basiset": "6-31G**", 
		 "properties": { 
			 "R2extent": 5001.1743, 
			 "electric_dipole_moment_norm": 4.89504519795, 
			 "electric_quadrupole_moment_norm": 13.7283708342, 
			 "total_energy": -798.690267956, 
			 "HOMO_LUMO_gap": 0.20031, 
			 "cosmo_polarized_energy": -20.05, 
			 "cosmo_cavitation_energy": 32.95, 
			 "cosmo_dispersion_energy": -22.84, 
			 "cosmo_repulsion_energy": 1.81, 
			 "cosmo_total_nonelectrostatic_energy": 11.92, 
			 "SMD_solvation_energy": 6.94 
		},
		"coords": [
			{
				"x": 1.4754725314,
				"y": -0.1155261691,
				"z": -2.2207328074,
				"element": "C" 
			},
			{
				"x": 0.2165569956,
				"y": -0.7295509321,
				"z": -1.6809870388,
				"element": "C" 
			},
			{
				"x": 0.1018158948,
				"y": -1.2447202581,
				"z": -0.4367046288,
				"element": "C" 
			},
			{
				"x": -1.0532282161,
				"y": -1.8232067293,
				"z": 0.0620528543,
				"element": "N" 
			},
			{
				"x": -1.114067526,
				"y": -2.2587531502,
				"z": 1.4637304219,
				"element": "C" 
			},
			{
				"x": -0.9810041666,
				"y": -1.1333427509,
				"z": 2.3325590356,
				"element": "O" 
			},
			{
				"x": 0.0155174821,
				"y": -1.3867406706,
				"z": 3.3328901921,
				"element": "C" 
			},
			{
				"x": 0.9873545481,
				"y": -0.2006458447,
				"z": 3.4172789695,
				"element": "C" 
			},
			{
				"x": 1.9429537286,
				"y": -0.3916450654,
				"z": 4.4487305763,
				"element": "O" 
			},
			{
				"x": 0.6442696708,
				"y": -2.6902267939,
				"z": 2.9236570428,
				"element": "C" 
			},
			{
				"x": 0.0057685615,
				"y": -3.1859307825,
				"z": 1.8660816951,
				"element": "C" 
			},
			{
				"x": -2.2284524916,
				"y": -1.8840494316,
				"z": -0.697958215,
				"element": "C" 
			},
			{
				"x": -3.2751021589,
				"y": -2.3629267285,
				"z": -0.291730892,
				"element": "O" 
			},
			{
				"x": -2.0879269714,
				"y": -1.3607982228,
				"z": -1.9712532844,
				"element": "N" 
			},
			{
				"x": -0.9555069132,
				"y": -0.7696895471,
				"z": -2.5583071859,
				"element": "C" 
			},
			{
				"x": -1.0004135703,
				"y": -0.3452388789,
				"z": -3.7034946269,
				"element": "O" 
			},
			{
				"x": 1.3047658327,
				"y": 0.9249589741,
				"z": -2.5162899787,
				"element": "H" 
			},
			{
				"x": 1.8118693039,
				"y": -0.6429229306,
				"z": -3.1195730491,
				"element": "H" 
			},
			{
				"x": 2.2789160989,
				"y": -0.1407319841,
				"z": -1.4796649762,
				"element": "H" 
			},
			{
				"x": 0.9335501492,
				"y": -1.2454209211,
				"z": 0.2585622373,
				"element": "H" 
			},
			{
				"x": -2.1082900763,
				"y": -2.7041486056,
				"z": 1.5662857708,
				"element": "H" 
			},
			{
				"x": -0.4832401957,
				"y": -1.4914484863,
				"z": 4.3126829201,
				"element": "H" 
			},
			{
				"x": 0.4117092318,
				"y": 0.7273408941,
				"z": 3.5419045351,
				"element": "H" 
			},
			{
				"x": 1.5491611429,
				"y": -0.1183316994,
				"z": 2.4817770219,
				"element": "H" 
			},
			{
				"x": 1.5025991407,
				"y": -0.2539549569,
				"z": 5.2972299748,
				"element": "H" 
			},
			{
				"x": 1.4843283928,
				"y": -3.1243173047,
				"z": 3.4517748179,
				"element": "H" 
			},
			{
				"x": 0.2060317267,
				"y": -4.1151928786,
				"z": 1.3458718931,
				"element": "H" 
			},
			{
				"x": -2.9211081466,
				"y": -1.3997381453,
				"z": -2.5460732752,
				"element": "H" 
			}
		],
		 "valence_orbital": [ 
			{
				"type": "occ",
				"energy": -0.29145,
				"method": "rhf"
			},
			{
				"type": "occ",
				"energy": -0.28174,
				"method": "rhf"
			},
			{
				"type": "occ",
				"energy": -0.26676,
				"method": "rhf"
			},
			{
				"type": "occ",
				"energy": -0.25477,
				"method": "rhf"
			},
			{
				"type": "occ",
				"energy": -0.23622,
				"method": "rhf"
			},
			{
				"type": "unocc",
				"energy": -0.03591,
				"method": "rhf"
			},
			{
				"type": "unocc",
				"energy": -0.01443,
				"method": "rhf"
			},
			{
				"type": "unocc",
				"energy": 0.01392,
				"method": "rhf"
			},
			{
				"type": "unocc",
				"energy": 0.05824,
				"method": "rhf"
			},
			{
				"type": "unocc",
				"energy": 0.07927,
				"method": "rhf"
			}
		],
		"cosmo_sigma_profile": { 
			"-0.025": 0.0,
			"-0.024": 0.0,
			"-0.023": 0.0,
			"-0.022": 0.0,
			"-0.021": 0.0,
			"-0.02": 0.0,
			"-0.019": 0.0,
			"-0.018": 0.0,
			"-0.017": 0.0153778834074,
			"-0.016": 1.23017389375,
			"-0.015": 2.14824448961,
			"-0.014": 1.97177389684,
			"-0.013": 2.01112431878,
			"-0.012": 1.63397170157,
			"-0.011": 1.31641309352,
			"-0.01": 1.81558773987,
			"-0.009": 1.45890807622,
			"-0.008": 3.28906919987,
			"-0.007": 9.73613452045,
			"-0.006": 13.839969983,
			"-0.005": 17.643491309,
			"-0.004": 19.843735883,
			"-0.003": 22.8322294987,
			"-0.002": 23.4726596388,
			"-0.001": 24.4129743478,
			"0.0": 17.8325902449,
			"0.001": 12.459493916,
			"0.002": 10.1943330744,
			"0.003": 8.1446147662,
			"0.004": 5.37113494449,
			"0.005": 4.87590705195,
			"0.006": 5.08853007344,
			"0.007": 5.39678838888,
			"0.008": 4.44101311014,
			"0.009": 3.96979403393,
			"0.01": 4.29194890102,
			"0.011": 6.83419648415,
			"0.012": 11.3290774003,
			"0.013": 8.71028651507,
			"0.014": 2.20099400468,
			"0.015": 0.0151539562764,
			"0.016": 0.0,
			"0.017": 0.0,
			"0.018": 0.0,
			"0.019": 0.0,
			"0.02": 0.0,
			"0.021": 0.0,
			"0.022": 0.0,
			"0.023": 0.0,
			"0.024": 0.0,
			"0.025": 0.0
		}
	}
}
