{
	 "smiles": "CC1=C2OC(C)(C)CC(=O)C2=CC=C1O", 
	 "Tm": 455.15, 
	 "num_atms": 29, 
	 "gaussian": { 
		 "optdone": 1, 
		 "sigma_profile": "yes", 
		 "theory": "DFT", 
		 "functional": "B3LYP", 
		 "basiset": "6-31G**", 
		 "properties": { 
			 "R2extent": 3708.6588, 
			 "electric_dipole_moment_norm": 4.25874970032, 
			 "electric_quadrupole_moment_norm": 6.63120510993, 
			 "total_energy": -691.406037487, 
			 "HOMO_LUMO_gap": 0.17949, 
			 "cosmo_polarized_energy": -13.0, 
			 "cosmo_cavitation_energy": 30.86, 
			 "cosmo_dispersion_energy": -22.1, 
			 "cosmo_repulsion_energy": 1.71, 
			 "cosmo_total_nonelectrostatic_energy": 10.47, 
			 "SMD_solvation_energy": 6.15 
		},
		"coords": [
			{
				"x": 1.2950450847,
				"y": -2.837908179,
				"z": 1.6222500494,
				"element": "C" 
			},
			{
				"x": 0.1238429798,
				"y": -1.965308073,
				"z": 1.2393218455,
				"element": "C" 
			},
			{
				"x": 0.1765504795,
				"y": -0.5650226241,
				"z": 1.3585493114,
				"element": "C" 
			},
			{
				"x": 1.3303184776,
				"y": -0.0373247744,
				"z": 1.85553705,
				"element": "O" 
			},
			{
				"x": 1.6167737537,
				"y": 1.3735926717,
				"z": 1.6077754502,
				"element": "C" 
			},
			{
				"x": 2.0616484734,
				"y": 1.5333821687,
				"z": 0.147505575,
				"element": "C" 
			},
			{
				"x": 2.7588474873,
				"y": 1.7009708614,
				"z": 2.5670249437,
				"element": "C" 
			},
			{
				"x": 0.364460917,
				"y": 2.2041054413,
				"z": 1.9212777812,
				"element": "C" 
			},
			{
				"x": -0.8747197981,
				"y": 1.6992769234,
				"z": 1.1923696603,
				"element": "C" 
			},
			{
				"x": -1.7738641126,
				"y": 2.457334601,
				"z": 0.8525736971,
				"element": "O" 
			},
			{
				"x": -0.9215960497,
				"y": 0.242218071,
				"z": 0.9928375148,
				"element": "C" 
			},
			{
				"x": -2.0785665998,
				"y": -0.3715633863,
				"z": 0.4816180623,
				"element": "C" 
			},
			{
				"x": -2.159822317,
				"y": -1.7437045146,
				"z": 0.354195655,
				"element": "C" 
			},
			{
				"x": -1.0617740093,
				"y": -2.5307757776,
				"z": 0.7432097337,
				"element": "C" 
			},
			{
				"x": -1.2007571312,
				"y": -3.8772533725,
				"z": 0.60054721,
				"element": "O" 
			},
			{
				"x": 1.0732907803,
				"y": -3.4656753105,
				"z": 2.4961538151,
				"element": "H" 
			},
			{
				"x": 1.5940942327,
				"y": -3.5023951851,
				"z": 0.799907242,
				"element": "H" 
			},
			{
				"x": 2.1588186078,
				"y": -2.2238710826,
				"z": 1.8754211416,
				"element": "H" 
			},
			{
				"x": 2.3374601186,
				"y": 2.5734067097,
				"z": -0.0522307925,
				"element": "H" 
			},
			{
				"x": 2.9307990922,
				"y": 0.9001019876,
				"z": -0.0513864428,
				"element": "H" 
			},
			{
				"x": 1.265992539,
				"y": 1.2556774186,
				"z": -0.549037006,
				"element": "H" 
			},
			{
				"x": 3.6277275877,
				"y": 1.0706748723,
				"z": 2.3559089334,
				"element": "H" 
			},
			{
				"x": 2.4516497356,
				"y": 1.5301447114,
				"z": 3.6025617078,
				"element": "H" 
			},
			{
				"x": 3.0564707856,
				"y": 2.7481919323,
				"z": 2.4593223272,
				"element": "H" 
			},
			{
				"x": 0.5168738298,
				"y": 3.2583178348,
				"z": 1.6750679604,
				"element": "H" 
			},
			{
				"x": 0.1549195634,
				"y": 2.1450497016,
				"z": 2.9984262052,
				"element": "H" 
			},
			{
				"x": -2.9072980892,
				"y": 0.2723273361,
				"z": 0.2056128738,
				"element": "H" 
			},
			{
				"x": -3.0461697275,
				"y": -2.2371885755,
				"z": -0.0283868585,
				"element": "H" 
			},
			{
				"x": -0.4018166913,
				"y": -4.3209823877,
				"z": 0.9134653537,
				"element": "H" 
			}
		],
		 "valence_orbital": [ 
			{
				"type": "occ",
				"energy": -0.31986,
				"method": "rhf"
			},
			{
				"type": "occ",
				"energy": -0.30484,
				"method": "rhf"
			},
			{
				"type": "occ",
				"energy": -0.23714,
				"method": "rhf"
			},
			{
				"type": "occ",
				"energy": -0.23226,
				"method": "rhf"
			},
			{
				"type": "occ",
				"energy": -0.22163,
				"method": "rhf"
			},
			{
				"type": "unocc",
				"energy": -0.04214,
				"method": "rhf"
			},
			{
				"type": "unocc",
				"energy": 0.00413,
				"method": "rhf"
			},
			{
				"type": "unocc",
				"energy": 0.05076,
				"method": "rhf"
			},
			{
				"type": "unocc",
				"energy": 0.06024,
				"method": "rhf"
			},
			{
				"type": "unocc",
				"energy": 0.08225,
				"method": "rhf"
			}
		],
		"cosmo_sigma_profile": { 
			"-0.025": 0.0,
			"-0.024": 0.0,
			"-0.023": 0.0,
			"-0.022": 0.0,
			"-0.021": 0.0,
			"-0.02": 0.0,
			"-0.019": 0.0,
			"-0.018": 0.0,
			"-0.017": 0.131113680498,
			"-0.016": 0.794980866753,
			"-0.015": 0.68475970659,
			"-0.014": 0.995529869449,
			"-0.013": 1.03185004045,
			"-0.012": 1.18152548709,
			"-0.011": 0.918805512718,
			"-0.01": 1.34516684761,
			"-0.009": 1.51274383023,
			"-0.008": 1.12496424947,
			"-0.007": 1.6033890186,
			"-0.006": 8.27404168886,
			"-0.005": 15.4193653896,
			"-0.004": 21.0995374621,
			"-0.003": 21.9399407731,
			"-0.002": 23.4214373571,
			"-0.001": 22.6910768698,
			"0.0": 22.5934785452,
			"0.001": 15.2861374781,
			"0.002": 14.951360043,
			"0.003": 16.5537147226,
			"0.004": 12.0611399166,
			"0.005": 6.35809115213,
			"0.006": 4.22933138807,
			"0.007": 4.12308821336,
			"0.008": 3.76967120886,
			"0.009": 3.28863182571,
			"0.01": 3.1060151791,
			"0.011": 3.51344437528,
			"0.012": 3.79950408179,
			"0.013": 3.9064706319,
			"0.014": 1.03619461328,
			"0.015": 0.0,
			"0.016": 0.0,
			"0.017": 0.0,
			"0.018": 0.0,
			"0.019": 0.0,
			"0.02": 0.0,
			"0.021": 0.0,
			"0.022": 0.0,
			"0.023": 0.0,
			"0.024": 0.0,
			"0.025": 0.0
		}
	}
}
