{
	 "smiles": "CS(=O)(=O)C1=C(F)C=CC=C1", 
	 "Tm": 324.15, 
	 "num_atms": 18, 
	 "gaussian": { 
		 "optdone": 1, 
		 "sigma_profile": "yes", 
		 "theory": "DFT", 
		 "functional": "B3LYP", 
		 "basiset": "6-31G**", 
		 "properties": { 
			 "R2extent": 2885.4738, 
			 "electric_dipole_moment_norm": 5.10630867653, 
			 "electric_quadrupole_moment_norm": 14.255865435, 
			 "total_energy": -919.364800937, 
			 "HOMO_LUMO_gap": 0.22333, 
			 "cosmo_polarized_energy": -13.86, 
			 "cosmo_cavitation_energy": 23.55, 
			 "cosmo_dispersion_energy": -17.8, 
			 "cosmo_repulsion_energy": 1.35, 
			 "cosmo_total_nonelectrostatic_energy": 7.1, 
			 "SMD_solvation_energy": 4.31 
		},
		"coords": [
			{
				"x": 3.0892873462,
				"y": -0.1378144688,
				"z": 0.9325901472,
				"element": "C" 
			},
			{
				"x": 1.4956605549,
				"y": 0.7012571796,
				"z": 0.8181623495,
				"element": "S" 
			},
			{
				"x": 1.6647004974,
				"y": 2.0700384315,
				"z": 1.3210394358,
				"element": "O" 
			},
			{
				"x": 0.4721270782,
				"y": -0.1856613788,
				"z": 1.3929576377,
				"element": "O" 
			},
			{
				"x": 1.1745323228,
				"y": 0.7685131891,
				"z": -0.9570054777,
				"element": "C" 
			},
			{
				"x": 2.0178200891,
				"y": 1.4508061692,
				"z": -1.8349641934,
				"element": "C" 
			},
			{
				"x": 3.1529345838,
				"y": 2.0101505714,
				"z": -1.3698170045,
				"element": "F" 
			},
			{
				"x": 1.7295499777,
				"y": 1.5477769253,
				"z": -3.1897852819,
				"element": "C" 
			},
			{
				"x": 0.560925375,
				"y": 0.9554572119,
				"z": -3.6719016442,
				"element": "C" 
			},
			{
				"x": -0.2975647825,
				"y": 0.2707943575,
				"z": -2.8083217209,
				"element": "C" 
			},
			{
				"x": 0.0100236408,
				"y": 0.1763477897,
				"z": -1.4512015528,
				"element": "C" 
			},
			{
				"x": 3.3361694497,
				"y": -0.1739011521,
				"z": 1.9955582782,
				"element": "H" 
			},
			{
				"x": 3.8312479384,
				"y": 0.4440942135,
				"z": 0.3861825748,
				"element": "H" 
			},
			{
				"x": 2.9901133371,
				"y": -1.1464667931,
				"z": 0.5292356523,
				"element": "H" 
			},
			{
				"x": 2.4142196502,
				"y": 2.0826327928,
				"z": -3.8388627981,
				"element": "H" 
			},
			{
				"x": 0.3247559851,
				"y": 1.0293099373,
				"z": -4.7290220455,
				"element": "H" 
			},
			{
				"x": -1.2039658883,
				"y": -0.1877365914,
				"z": -3.1897572282,
				"element": "H" 
			},
			{
				"x": -0.6359371554,
				"y": -0.3475983847,
				"z": -0.7547871283,
				"element": "H" 
			}
		],
		 "valence_orbital": [ 
			{
				"type": "occ",
				"energy": -0.31504,
				"method": "rhf"
			},
			{
				"type": "occ",
				"energy": -0.29948,
				"method": "rhf"
			},
			{
				"type": "occ",
				"energy": -0.29316,
				"method": "rhf"
			},
			{
				"type": "occ",
				"energy": -0.28093,
				"method": "rhf"
			},
			{
				"type": "occ",
				"energy": -0.26944,
				"method": "rhf"
			},
			{
				"type": "unocc",
				"energy": -0.04611,
				"method": "rhf"
			},
			{
				"type": "unocc",
				"energy": -0.02439,
				"method": "rhf"
			},
			{
				"type": "unocc",
				"energy": 0.04616,
				"method": "rhf"
			},
			{
				"type": "unocc",
				"energy": 0.07594,
				"method": "rhf"
			},
			{
				"type": "unocc",
				"energy": 0.08572,
				"method": "rhf"
			}
		],
		"cosmo_sigma_profile": { 
			"-0.025": 0.0,
			"-0.024": 0.0,
			"-0.023": 0.0,
			"-0.022": 0.0,
			"-0.021": 0.0,
			"-0.02": 0.0,
			"-0.019": 0.0,
			"-0.018": 0.0,
			"-0.017": 0.0,
			"-0.016": 0.0,
			"-0.015": 0.0,
			"-0.014": 0.0,
			"-0.013": 0.0,
			"-0.012": 0.0,
			"-0.011": 0.0,
			"-0.01": 0.176289040076,
			"-0.009": 3.04344841191,
			"-0.008": 6.99650997546,
			"-0.007": 12.7349011752,
			"-0.006": 14.3093382541,
			"-0.005": 15.1474077948,
			"-0.004": 12.4269827814,
			"-0.003": 10.3399737729,
			"-0.002": 9.41499514358,
			"-0.001": 12.0370941488,
			"0.0": 13.0269341539,
			"0.001": 12.5133194849,
			"0.002": 15.0091005248,
			"0.003": 10.2057803464,
			"0.004": 3.77845381824,
			"0.005": 3.08452589061,
			"0.006": 2.61959950677,
			"0.007": 2.39714769864,
			"0.008": 2.41612530494,
			"0.009": 4.12061511158,
			"0.01": 6.7020376286,
			"0.011": 9.96183718332,
			"0.012": 6.41170364846,
			"0.013": 0.0636469365207,
			"0.014": 0.0,
			"0.015": 0.0,
			"0.016": 0.0,
			"0.017": 0.0,
			"0.018": 0.0,
			"0.019": 0.0,
			"0.02": 0.0,
			"0.021": 0.0,
			"0.022": 0.0,
			"0.023": 0.0,
			"0.024": 0.0,
			"0.025": 0.0
		}
	}
}
