{
	 "smiles": "CC1=CC(N)=CC=C1N", 
	 "Tm": 337.15, 
	 "num_atms": 19, 
	 "gaussian": { 
		 "optdone": 1, 
		 "sigma_profile": "yes", 
		 "theory": "DFT", 
		 "functional": "B3LYP", 
		 "basiset": "6-31G**", 
		 "properties": { 
			 "R2extent": 1628.7902, 
			 "electric_dipole_moment_norm": 2.29973444771, 
			 "electric_quadrupole_moment_norm": 8.47472157714, 
			 "total_energy": -382.283406214, 
			 "HOMO_LUMO_gap": 0.18329, 
			 "cosmo_polarized_energy": -11.76, 
			 "cosmo_cavitation_energy": 21.87, 
			 "cosmo_dispersion_energy": -16.44, 
			 "cosmo_repulsion_energy": 1.35, 
			 "cosmo_total_nonelectrostatic_energy": 6.78, 
			 "SMD_solvation_energy": 3.61 
		},
		"coords": [
			{
				"x": 0.5776542267,
				"y": -1.1690486143,
				"z": -0.5497255492,
				"element": "C" 
			},
			{
				"x": 0.3177572066,
				"y": 0.090679778,
				"z": 0.238956636,
				"element": "C" 
			},
			{
				"x": 1.354437565,
				"y": 0.9804448928,
				"z": 0.5277881052,
				"element": "C" 
			},
			{
				"x": 1.144497865,
				"y": 2.1687069518,
				"z": 1.2428604523,
				"element": "C" 
			},
			{
				"x": 2.1989932838,
				"y": 3.0776166586,
				"z": 1.4588500807,
				"element": "N" 
			},
			{
				"x": -0.15720888,
				"y": 2.4521175137,
				"z": 1.6751308244,
				"element": "C" 
			},
			{
				"x": -1.2005076149,
				"y": 1.5696775835,
				"z": 1.4037176138,
				"element": "C" 
			},
			{
				"x": -0.9874600382,
				"y": 0.3853859769,
				"z": 0.6880104859,
				"element": "C" 
			},
			{
				"x": -2.0627301126,
				"y": -0.4673234148,
				"z": 0.3583883206,
				"element": "N" 
			},
			{
				"x": 0.3967230393,
				"y": -2.0750215825,
				"z": 0.0471317414,
				"element": "H" 
			},
			{
				"x": 1.6133083413,
				"y": -1.2134576482,
				"z": -0.896292436,
				"element": "H" 
			},
			{
				"x": -0.078597169,
				"y": -1.2302786241,
				"z": -1.4263598503,
				"element": "H" 
			},
			{
				"x": 2.3570798591,
				"y": 0.7456135981,
				"z": 0.1748636794,
				"element": "H" 
			},
			{
				"x": 3.1113716237,
				"y": 2.6403951738,
				"z": 1.4893808951,
				"element": "H" 
			},
			{
				"x": 2.0662162655,
				"y": 3.6656884632,
				"z": 2.2719268908,
				"element": "H" 
			},
			{
				"x": -0.3566280947,
				"y": 3.3668776351,
				"z": 2.2283578595,
				"element": "H" 
			},
			{
				"x": -2.2029068264,
				"y": 1.8066513438,
				"z": 1.7543574386,
				"element": "H" 
			},
			{
				"x": -2.8846902479,
				"y": -0.3057768997,
				"z": 0.9269804703,
				"element": "H" 
			},
			{
				"x": -1.8250102922,
				"y": -1.4516487855,
				"z": 0.3686763415,
				"element": "H" 
			}
		],
		 "valence_orbital": [ 
			{
				"type": "occ",
				"energy": -0.32706,
				"method": "rhf"
			},
			{
				"type": "occ",
				"energy": -0.32185,
				"method": "rhf"
			},
			{
				"type": "occ",
				"energy": -0.25473,
				"method": "rhf"
			},
			{
				"type": "occ",
				"energy": -0.22953,
				"method": "rhf"
			},
			{
				"type": "occ",
				"energy": -0.16857,
				"method": "rhf"
			},
			{
				"type": "unocc",
				"energy": 0.01472,
				"method": "rhf"
			},
			{
				"type": "unocc",
				"energy": 0.03999,
				"method": "rhf"
			},
			{
				"type": "unocc",
				"energy": 0.08252,
				"method": "rhf"
			},
			{
				"type": "unocc",
				"energy": 0.09308,
				"method": "rhf"
			},
			{
				"type": "unocc",
				"energy": 0.11309,
				"method": "rhf"
			}
		],
		"cosmo_sigma_profile": { 
			"-0.025": 0.0,
			"-0.024": 0.0,
			"-0.023": 0.0,
			"-0.022": 0.0,
			"-0.021": 0.0,
			"-0.02": 0.0,
			"-0.019": 0.0,
			"-0.018": 0.0,
			"-0.017": 0.0,
			"-0.016": 0.0,
			"-0.015": 0.0,
			"-0.014": 0.0,
			"-0.013": 0.0,
			"-0.012": 0.570965038395,
			"-0.011": 3.84683806973,
			"-0.01": 5.638754497,
			"-0.009": 5.59115826656,
			"-0.008": 6.21465366876,
			"-0.007": 5.86353649449,
			"-0.006": 5.848215671,
			"-0.005": 8.28690481959,
			"-0.004": 11.5509828709,
			"-0.003": 12.2697018097,
			"-0.002": 11.5760402719,
			"-0.001": 9.10346652344,
			"0.0": 12.6347759466,
			"0.001": 8.31013289209,
			"0.002": 7.1266938652,
			"0.003": 5.66475019584,
			"0.004": 6.48227137758,
			"0.005": 6.70848922584,
			"0.006": 7.30655305666,
			"0.007": 9.33605493086,
			"0.008": 8.87692818542,
			"0.009": 2.72857601811,
			"0.01": 1.76613824611,
			"0.011": 1.25462346626,
			"0.012": 1.61456174734,
			"0.013": 1.55299812233,
			"0.014": 0.864891747758,
			"0.015": 1.40068383684,
			"0.016": 1.28455672438,
			"0.017": 0.297500634266,
			"0.018": 0.0,
			"0.019": 0.0,
			"0.02": 0.0,
			"0.021": 0.0,
			"0.022": 0.0,
			"0.023": 0.0,
			"0.024": 0.0,
			"0.025": 0.0
		}
	}
}
