{
	 "smiles": "OC1=C(O)C=C2C(CCl)=CC(=O)OC2=C1", 
	 "Tm": 452.15, 
	 "num_atms": 22, 
	 "gaussian": { 
		 "optdone": 1, 
		 "sigma_profile": "yes", 
		 "theory": "DFT", 
		 "functional": "B3LYP", 
		 "basiset": "6-31G**", 
		 "properties": { 
			 "R2extent": 3897.2065, 
			 "electric_dipole_moment_norm": 6.25147344152, 
			 "electric_quadrupole_moment_norm": 11.6585048244, 
			 "total_energy": -1146.36890315, 
			 "HOMO_LUMO_gap": 0.1452, 
			 "cosmo_polarized_energy": -19.71, 
			 "cosmo_cavitation_energy": 28.56, 
			 "cosmo_dispersion_energy": -21.33, 
			 "cosmo_repulsion_energy": 1.66, 
			 "cosmo_total_nonelectrostatic_energy": 8.89, 
			 "SMD_solvation_energy": 6.32 
		},
		"coords": [
			{
				"x": 2.0003174223,
				"y": -2.6184983502,
				"z": -2.2165502295,
				"element": "O" 
			},
			{
				"x": 1.1018778536,
				"y": -1.8045684279,
				"z": -1.6163071486,
				"element": "C" 
			},
			{
				"x": 0.5075077381,
				"y": -0.7455117267,
				"z": -2.3448729108,
				"element": "C" 
			},
			{
				"x": 0.9285756352,
				"y": -0.6518466358,
				"z": -3.6499164377,
				"element": "O" 
			},
			{
				"x": -0.4104623276,
				"y": 0.091003692,
				"z": -1.7437718896,
				"element": "C" 
			},
			{
				"x": -0.7697872494,
				"y": -0.0912272237,
				"z": -0.3885766874,
				"element": "C" 
			},
			{
				"x": -1.7308670461,
				"y": 0.7239878402,
				"z": 0.3254929959,
				"element": "C" 
			},
			{
				"x": -2.4787045666,
				"y": 1.8302479969,
				"z": -0.3628947381,
				"element": "C" 
			},
			{
				"x": -1.4173353086,
				"y": 3.2696449635,
				"z": -0.7453578337,
				"element": "Cl" 
			},
			{
				"x": -1.9947986757,
				"y": 0.4564274064,
				"z": 1.6315057715,
				"element": "C" 
			},
			{
				"x": -1.3534576165,
				"y": -0.6296437827,
				"z": 2.3593107725,
				"element": "C" 
			},
			{
				"x": -1.5416612659,
				"y": -0.9181011799,
				"z": 3.5182277913,
				"element": "O" 
			},
			{
				"x": -0.4483993569,
				"y": -1.3960644504,
				"z": 1.6295883216,
				"element": "O" 
			},
			{
				"x": -0.1621694074,
				"y": -1.1475429778,
				"z": 0.318154026,
				"element": "C" 
			},
			{
				"x": 0.7635362043,
				"y": -2.0012606198,
				"z": -0.2850390914,
				"element": "C" 
			},
			{
				"x": 2.1130669034,
				"y": -2.3129709172,
				"z": -3.1302164597,
				"element": "H" 
			},
			{
				"x": 0.5488140679,
				"y": 0.1301184087,
				"z": -4.0691442331,
				"element": "H" 
			},
			{
				"x": -0.8380327458,
				"y": 0.9115854854,
				"z": -2.3113633943,
				"element": "H" 
			},
			{
				"x": -3.2816067911,
				"y": 2.2094295792,
				"z": 0.267254994,
				"element": "H" 
			},
			{
				"x": -2.894451205,
				"y": 1.5055867827,
				"z": -1.3181980157,
				"element": "H" 
			},
			{
				"x": -2.7055049609,
				"y": 1.0404151977,
				"z": 2.2048360928,
				"element": "H" 
			},
			{
				"x": 1.2144426989,
				"y": -2.8063110608,
				"z": 0.2823383041,
				"element": "H" 
			}
		],
		 "valence_orbital": [ 
			{
				"type": "occ",
				"energy": -0.31223,
				"method": "rhf"
			},
			{
				"type": "occ",
				"energy": -0.2912,
				"method": "rhf"
			},
			{
				"type": "occ",
				"energy": -0.27351,
				"method": "rhf"
			},
			{
				"type": "occ",
				"energy": -0.25257,
				"method": "rhf"
			},
			{
				"type": "occ",
				"energy": -0.22067,
				"method": "rhf"
			},
			{
				"type": "unocc",
				"energy": -0.07547,
				"method": "rhf"
			},
			{
				"type": "unocc",
				"energy": -0.01416,
				"method": "rhf"
			},
			{
				"type": "unocc",
				"energy": -0.00603,
				"method": "rhf"
			},
			{
				"type": "unocc",
				"energy": 0.02598,
				"method": "rhf"
			},
			{
				"type": "unocc",
				"energy": 0.03658,
				"method": "rhf"
			}
		],
		"cosmo_sigma_profile": { 
			"-0.025": 0.0,
			"-0.024": 0.0,
			"-0.023": 0.0,
			"-0.022": 0.0,
			"-0.021": 0.0,
			"-0.02": 0.0,
			"-0.019": 0.706957327989,
			"-0.018": 1.06692319393,
			"-0.017": 1.21114387552,
			"-0.016": 1.07151791481,
			"-0.015": 2.04018922276,
			"-0.014": 1.11137900319,
			"-0.013": 1.94895712339,
			"-0.012": 1.45046260584,
			"-0.011": 1.40589397812,
			"-0.01": 2.0880412064,
			"-0.009": 6.85749104685,
			"-0.008": 9.04516023531,
			"-0.007": 8.7814318141,
			"-0.006": 8.09022711997,
			"-0.005": 8.93354367669,
			"-0.004": 7.77623526898,
			"-0.003": 9.16251476352,
			"-0.002": 10.8819565996,
			"-0.001": 12.6882875625,
			"0.0": 15.4326353604,
			"0.001": 23.0408840939,
			"0.002": 18.8042961214,
			"0.003": 12.5728031075,
			"0.004": 12.2080326626,
			"0.005": 12.5213649449,
			"0.006": 10.5025706205,
			"0.007": 4.23000870215,
			"0.008": 3.03058141725,
			"0.009": 4.44178877536,
			"0.01": 4.27936914716,
			"0.011": 4.01103475911,
			"0.012": 6.31343704106,
			"0.013": 3.1415805321,
			"0.014": 0.140433291092,
			"0.015": 0.0,
			"0.016": 0.0,
			"0.017": 0.0,
			"0.018": 0.0,
			"0.019": 0.0,
			"0.02": 0.0,
			"0.021": 0.0,
			"0.022": 0.0,
			"0.023": 0.0,
			"0.024": 0.0,
			"0.025": 0.0
		}
	}
}
