{
	 "smiles": "CC1=CC=C(C=C1)C1=CN=NN1C1=CC=C(C=C1)C(O)=O", 
	 "Tm": 510.15, 
	 "num_atms": 34, 
	 "gaussian": { 
		 "optdone": 1, 
		 "sigma_profile": "yes", 
		 "theory": "DFT", 
		 "functional": "B3LYP", 
		 "basiset": "6-31G**", 
		 "properties": { 
			 "R2extent": 7358.2482, 
			 "electric_dipole_moment_norm": 6.43373221777, 
			 "electric_quadrupole_moment_norm": 24.9536903894, 
			 "total_energy": -932.216548406, 
			 "HOMO_LUMO_gap": 0.17207, 
			 "cosmo_polarized_energy": -21.75, 
			 "cosmo_cavitation_energy": 39.29, 
			 "cosmo_dispersion_energy": -27.45, 
			 "cosmo_repulsion_energy": 2.09, 
			 "cosmo_total_nonelectrostatic_energy": 13.93, 
			 "SMD_solvation_energy": 6.39 
		},
		"coords": [
			{
				"x": -0.1319467415,
				"y": -4.9439678611,
				"z": 2.3447815904,
				"element": "C" 
			},
			{
				"x": 0.0395217638,
				"y": -3.8828392183,
				"z": 1.2845914236,
				"element": "C" 
			},
			{
				"x": -0.5447508492,
				"y": -4.0236065892,
				"z": 0.0188921531,
				"element": "C" 
			},
			{
				"x": -0.365796528,
				"y": -3.0588480244,
				"z": -0.9700628732,
				"element": "C" 
			},
			{
				"x": 0.4092796134,
				"y": -1.9146385057,
				"z": -0.7220017296,
				"element": "C" 
			},
			{
				"x": 1.0000878179,
				"y": -1.7698310398,
				"z": 0.5445062902,
				"element": "C" 
			},
			{
				"x": 0.8114809911,
				"y": -2.7375789579,
				"z": 1.5272346758,
				"element": "C" 
			},
			{
				"x": 0.6278168437,
				"y": -0.9400546311,
				"z": -1.8011188029,
				"element": "C" 
			},
			{
				"x": 0.972276152,
				"y": -1.148781966,
				"z": -3.1237577754,
				"element": "C" 
			},
			{
				"x": 1.1506614369,
				"y": 0.0490256111,
				"z": -3.7449905674,
				"element": "N" 
			},
			{
				"x": 0.9345734639,
				"y": 1.0063873368,
				"z": -2.8971025434,
				"element": "N" 
			},
			{
				"x": 0.6128970756,
				"y": 0.4307718041,
				"z": -1.695258199,
				"element": "N" 
			},
			{
				"x": 0.2467816793,
				"y": 1.2838540168,
				"z": -0.6181110435,
				"element": "C" 
			},
			{
				"x": 0.9790789882,
				"y": 2.4599638288,
				"z": -0.4139747271,
				"element": "C" 
			},
			{
				"x": 0.6190761068,
				"y": 3.3211338306,
				"z": 0.6149645308,
				"element": "C" 
			},
			{
				"x": -0.4754341252,
				"y": 3.0299023616,
				"z": 1.4411139602,
				"element": "C" 
			},
			{
				"x": -1.1946719923,
				"y": 1.8456943529,
				"z": 1.2284832217,
				"element": "C" 
			},
			{
				"x": -0.8440974038,
				"y": 0.9748383173,
				"z": 0.2000409919,
				"element": "C" 
			},
			{
				"x": -0.7940378475,
				"y": 3.9945529549,
				"z": 2.5439671839,
				"element": "C" 
			},
			{
				"x": -2.0576458144,
				"y": 3.9554650942,
				"z": 3.0461027269,
				"element": "O" 
			},
			{
				"x": 0.0099804338,
				"y": 4.778769459,
				"z": 2.9889915637,
				"element": "O" 
			},
			{
				"x": -0.1040165847,
				"y": -4.514267743,
				"z": 3.3504900952,
				"element": "H" 
			},
			{
				"x": 0.6703795729,
				"y": -5.6902639449,
				"z": 2.2879855032,
				"element": "H" 
			},
			{
				"x": -1.080002815,
				"y": -5.4772237125,
				"z": 2.2283891939,
				"element": "H" 
			},
			{
				"x": -1.1543831264,
				"y": -4.8979034396,
				"z": -0.194717582,
				"element": "H" 
			},
			{
				"x": -0.8404088393,
				"y": -3.181062627,
				"z": -1.9391669127,
				"element": "H" 
			},
			{
				"x": 1.6183735843,
				"y": -0.9033282634,
				"z": 0.7566195367,
				"element": "H" 
			},
			{
				"x": 1.2792133976,
				"y": -2.6048047443,
				"z": 2.4994835315,
				"element": "H" 
			},
			{
				"x": 1.1335838321,
				"y": -2.086796878,
				"z": -3.6339633647,
				"element": "H" 
			},
			{
				"x": 1.8139376806,
				"y": 2.6829915563,
				"z": -1.067578615,
				"element": "H" 
			},
			{
				"x": 1.1809715136,
				"y": 4.2297293849,
				"z": 0.8011384512,
				"element": "H" 
			},
			{
				"x": -2.0210248957,
				"y": 1.5706502824,
				"z": 1.8789301984,
				"element": "H" 
			},
			{
				"x": -1.4093779024,
				"y": 0.0657510814,
				"z": 0.0344271453,
				"element": "H" 
			},
			{
				"x": -2.6270764821,
				"y": 3.4157168732,
				"z": 2.480670768,
				"element": "H" 
			}
		],
		 "valence_orbital": [ 
			{
				"type": "occ",
				"energy": -0.27983,
				"method": "rhf"
			},
			{
				"type": "occ",
				"energy": -0.27069,
				"method": "rhf"
			},
			{
				"type": "occ",
				"energy": -0.26907,
				"method": "rhf"
			},
			{
				"type": "occ",
				"energy": -0.25864,
				"method": "rhf"
			},
			{
				"type": "occ",
				"energy": -0.24047,
				"method": "rhf"
			},
			{
				"type": "unocc",
				"energy": -0.0684,
				"method": "rhf"
			},
			{
				"type": "unocc",
				"energy": -0.03817,
				"method": "rhf"
			},
			{
				"type": "unocc",
				"energy": -0.0352,
				"method": "rhf"
			},
			{
				"type": "unocc",
				"energy": -0.01826,
				"method": "rhf"
			},
			{
				"type": "unocc",
				"energy": 0.00397,
				"method": "rhf"
			}
		],
		"cosmo_sigma_profile": { 
			"-0.025": 0.0,
			"-0.024": 0.0,
			"-0.023": 0.0,
			"-0.022": 0.0,
			"-0.021": 0.0,
			"-0.02": 0.0,
			"-0.019": 0.267873730502,
			"-0.018": 1.05158790963,
			"-0.017": 1.26272783681,
			"-0.016": 1.04545091076,
			"-0.015": 0.774480060275,
			"-0.014": 0.497017940167,
			"-0.013": 1.48475040075,
			"-0.012": 1.61817467843,
			"-0.011": 1.40130289532,
			"-0.01": 0.613979933388,
			"-0.009": 2.04618006535,
			"-0.008": 4.38942105295,
			"-0.007": 8.8769483348,
			"-0.006": 16.7909168795,
			"-0.005": 20.4265328586,
			"-0.004": 24.8963616523,
			"-0.003": 22.5064428451,
			"-0.002": 23.8394470353,
			"-0.001": 24.2507269261,
			"0.0": 24.5219052791,
			"0.001": 26.5404098098,
			"0.002": 21.3166425852,
			"0.003": 12.9186894542,
			"0.004": 14.0832331845,
			"0.005": 8.44474305437,
			"0.006": 4.81578748824,
			"0.007": 4.18110300739,
			"0.008": 5.08635220587,
			"0.009": 6.50283848688,
			"0.01": 8.32168917333,
			"0.011": 8.32440079094,
			"0.012": 7.19730997311,
			"0.013": 2.58180998797,
			"0.014": 1.46917188075,
			"0.015": 0.855441749437,
			"0.016": 0.115783459793,
			"0.017": 0.0,
			"0.018": 0.0,
			"0.019": 0.0,
			"0.02": 0.0,
			"0.021": 0.0,
			"0.022": 0.0,
			"0.023": 0.0,
			"0.024": 0.0,
			"0.025": 0.0
		}
	}
}
