{
	 "smiles": "CC1=CC(C)=C(C)C=C1C(O)=O", 
	 "Tm": 425.15, 
	 "num_atms": 24, 
	 "gaussian": { 
		 "optdone": 1, 
		 "sigma_profile": "yes", 
		 "theory": "DFT", 
		 "functional": "B3LYP", 
		 "basiset": "6-31G**", 
		 "properties": { 
			 "R2extent": 3152.4417, 
			 "electric_dipole_moment_norm": 5.16601352399, 
			 "electric_quadrupole_moment_norm": 16.4884685347, 
			 "total_energy": -538.772370915, 
			 "HOMO_LUMO_gap": 0.2041, 
			 "cosmo_polarized_energy": -13.08, 
			 "cosmo_cavitation_energy": 26.9, 
			 "cosmo_dispersion_energy": -19.6, 
			 "cosmo_repulsion_energy": 1.55, 
			 "cosmo_total_nonelectrostatic_energy": 8.85, 
			 "SMD_solvation_energy": 5.68 
		},
		"coords": [
			{
				"x": 1.5886830555,
				"y": -0.8032031863,
				"z": -2.1154633869,
				"element": "C" 
			},
			{
				"x": 1.5840833794,
				"y": -0.2972748055,
				"z": -0.6853678985,
				"element": "C" 
			},
			{
				"x": 1.745504457,
				"y": 1.0773775275,
				"z": -0.4690082331,
				"element": "C" 
			},
			{
				"x": 1.733615907,
				"y": 1.6613869611,
				"z": 0.7997659751,
				"element": "C" 
			},
			{
				"x": 1.9252893251,
				"y": 3.1501324409,
				"z": 0.9519702518,
				"element": "C" 
			},
			{
				"x": 1.5254082817,
				"y": 0.8371444524,
				"z": 1.9267659734,
				"element": "C" 
			},
			{
				"x": 1.4850181044,
				"y": 1.4137279975,
				"z": 3.3212579318,
				"element": "C" 
			},
			{
				"x": 1.3473711472,
				"y": -0.528350816,
				"z": 1.7216745528,
				"element": "C" 
			},
			{
				"x": 1.3922984158,
				"y": -1.1155772162,
				"z": 0.44768479,
				"element": "C" 
			},
			{
				"x": 1.1797895173,
				"y": -2.6030964453,
				"z": 0.4277490908,
				"element": "C" 
			},
			{
				"x": 1.7618370641,
				"y": -3.3124212966,
				"z": -0.5787622168,
				"element": "O" 
			},
			{
				"x": 0.5406887103,
				"y": -3.1907278437,
				"z": 1.2695109077,
				"element": "O" 
			},
			{
				"x": 1.3673479409,
				"y": 0.0158484743,
				"z": -2.8044387409,
				"element": "H" 
			},
			{
				"x": 2.5719579629,
				"y": -1.1933879011,
				"z": -2.4194223566,
				"element": "H" 
			},
			{
				"x": 0.8507803978,
				"y": -1.5912538502,
				"z": -2.2857520667,
				"element": "H" 
			},
			{
				"x": 1.8781063752,
				"y": 1.7230065998,
				"z": -1.3345274768,
				"element": "H" 
			},
			{
				"x": 1.0600544573,
				"y": 3.6195607278,
				"z": 1.4353799188,
				"element": "H" 
			},
			{
				"x": 2.0708003359,
				"y": 3.6335723062,
				"z": -0.01730809,
				"element": "H" 
			},
			{
				"x": 2.7964841106,
				"y": 3.3807230438,
				"z": 1.5769304911,
				"element": "H" 
			},
			{
				"x": 0.6924103489,
				"y": 2.1644977712,
				"z": 3.4256629051,
				"element": "H" 
			},
			{
				"x": 1.3044917955,
				"y": 0.63264343,
				"z": 4.0636571306,
				"element": "H" 
			},
			{
				"x": 2.4271075901,
				"y": 1.9118491268,
				"z": 3.5809654273,
				"element": "H" 
			},
			{
				"x": 1.1621705425,
				"y": -1.1837971126,
				"z": 2.5668191307,
				"element": "H" 
			},
			{
				"x": 2.3444007775,
				"y": -2.7418803857,
				"z": -1.0968440105,
				"element": "H" 
			}
		],
		 "valence_orbital": [ 
			{
				"type": "occ",
				"energy": -0.34253,
				"method": "rhf"
			},
			{
				"type": "occ",
				"energy": -0.30742,
				"method": "rhf"
			},
			{
				"type": "occ",
				"energy": -0.26932,
				"method": "rhf"
			},
			{
				"type": "occ",
				"energy": -0.25041,
				"method": "rhf"
			},
			{
				"type": "occ",
				"energy": -0.24403,
				"method": "rhf"
			},
			{
				"type": "unocc",
				"energy": -0.03993,
				"method": "rhf"
			},
			{
				"type": "unocc",
				"energy": -0.00762,
				"method": "rhf"
			},
			{
				"type": "unocc",
				"energy": 0.04749,
				"method": "rhf"
			},
			{
				"type": "unocc",
				"energy": 0.06915,
				"method": "rhf"
			},
			{
				"type": "unocc",
				"energy": 0.08654,
				"method": "rhf"
			}
		],
		"cosmo_sigma_profile": { 
			"-0.025": 0.0,
			"-0.024": 0.0,
			"-0.023": 0.0,
			"-0.022": 0.0,
			"-0.021": 0.0,
			"-0.02": 0.0,
			"-0.019": 0.0,
			"-0.018": 0.0,
			"-0.017": 0.361243155839,
			"-0.016": 0.98091162154,
			"-0.015": 0.702148596063,
			"-0.014": 0.799314889353,
			"-0.013": 0.704324916589,
			"-0.012": 1.29330784452,
			"-0.011": 1.11374882144,
			"-0.01": 0.732273427034,
			"-0.009": 1.27687541225,
			"-0.008": 1.05107054391,
			"-0.007": 1.10264702366,
			"-0.006": 2.85816875906,
			"-0.005": 13.5891995736,
			"-0.004": 23.6102094304,
			"-0.003": 21.2292676573,
			"-0.002": 19.8595455308,
			"-0.001": 25.0131261816,
			"0.0": 20.8700107269,
			"0.001": 11.49395973,
			"0.002": 8.18772602805,
			"0.003": 8.63201078281,
			"0.004": 11.9294305883,
			"0.005": 6.50171854206,
			"0.006": 2.33727607308,
			"0.007": 1.99629262193,
			"0.008": 2.80378161461,
			"0.009": 3.47489996903,
			"0.01": 3.74111757923,
			"0.011": 5.15659951157,
			"0.012": 5.81373835976,
			"0.013": 2.59513761456,
			"0.014": 0.340244332303,
			"0.015": 0.0,
			"0.016": 0.0,
			"0.017": 0.0,
			"0.018": 0.0,
			"0.019": 0.0,
			"0.02": 0.0,
			"0.021": 0.0,
			"0.022": 0.0,
			"0.023": 0.0,
			"0.024": 0.0,
			"0.025": 0.0
		}
	}
}
