{
	 "smiles": "CC(C)CCCC(C)C1CCC2C3CC=C4C=CCCC4(C)C3CCC12C", 
	 "Tm": 353.15, 
	 "num_atms": 71, 
	 "gaussian": { 
		 "optdone": 1, 
		 "sigma_profile": "yes", 
		 "theory": "DFT", 
		 "functional": "B3LYP", 
		 "basiset": "6-31G**", 
		 "properties": { 
			 "R2extent": 11817.2548, 
			 "electric_dipole_moment_norm": 0.41855190837, 
			 "electric_quadrupole_moment_norm": 3.40732334979, 
			 "total_energy": -1055.40312163, 
			 "HOMO_LUMO_gap": 0.19798, 
			 "cosmo_polarized_energy": -3.02, 
			 "cosmo_cavitation_energy": 59.09, 
			 "cosmo_dispersion_energy": -38.75, 
			 "cosmo_repulsion_energy": 2.91, 
			 "cosmo_total_nonelectrostatic_energy": 23.25, 
			 "SMD_solvation_energy": 8.15 
		},
		"coords": [
			{
				"x": 3.3256147865,
				"y": 4.1957233333,
				"z": -0.7366959841,
				"element": "C" 
			},
			{
				"x": 3.5725532976,
				"y": 3.7150354357,
				"z": 0.7018192879,
				"element": "C" 
			},
			{
				"x": 2.6833177143,
				"y": 4.4889779629,
				"z": 1.6866757288,
				"element": "C" 
			},
			{
				"x": 3.3618969165,
				"y": 2.1952935434,
				"z": 0.8617498789,
				"element": "C" 
			},
			{
				"x": 4.3474458527,
				"y": 1.324104458,
				"z": 0.0654603889,
				"element": "C" 
			},
			{
				"x": 4.3224896602,
				"y": -0.1906321694,
				"z": 0.3730522882,
				"element": "C" 
			},
			{
				"x": 3.2797713956,
				"y": -1.088159247,
				"z": -0.3536447041,
				"element": "C" 
			},
			{
				"x": 3.4556826372,
				"y": -0.9761248795,
				"z": -1.8787569301,
				"element": "C" 
			},
			{
				"x": 1.8215281978,
				"y": -0.8724518519,
				"z": 0.1199867464,
				"element": "C" 
			},
			{
				"x": 1.6676935447,
				"y": -1.0187120495,
				"z": 1.6688950741,
				"element": "C" 
			},
			{
				"x": 0.2239668583,
				"y": -1.524592478,
				"z": 1.9409690168,
				"element": "C" 
			},
			{
				"x": -0.4555505934,
				"y": -1.4512787534,
				"z": 0.5663220026,
				"element": "C" 
			},
			{
				"x": -1.7452757527,
				"y": -2.2440562787,
				"z": 0.3183437192,
				"element": "C" 
			},
			{
				"x": -2.8278285785,
				"y": -2.0725252857,
				"z": 1.3983012755,
				"element": "C" 
			},
			{
				"x": -3.4845463656,
				"y": -0.7266112746,
				"z": 1.3201669713,
				"element": "C" 
			},
			{
				"x": -3.5805736815,
				"y": -0.0152706934,
				"z": 0.1826176749,
				"element": "C" 
			},
			{
				"x": -4.1368757252,
				"y": 1.3422114522,
				"z": 0.2121419787,
				"element": "C" 
			},
			{
				"x": -4.0188958419,
				"y": 2.2152625548,
				"z": -0.8010538648,
				"element": "C" 
			},
			{
				"x": -3.2699139442,
				"y": 1.8816316308,
				"z": -2.0611288134,
				"element": "C" 
			},
			{
				"x": -2.4024654601,
				"y": 0.6199143216,
				"z": -1.9019368238,
				"element": "C" 
			},
			{
				"x": -3.1423955874,
				"y": -0.5492666306,
				"z": -1.1863212398,
				"element": "C" 
			},
			{
				"x": -4.4260494926,
				"y": -0.888646177,
				"z": -1.995339815,
				"element": "C" 
			},
			{
				"x": -2.3151600526,
				"y": -1.9050749813,
				"z": -1.0857563902,
				"element": "C" 
			},
			{
				"x": -1.2109135851,
				"y": -2.1070793375,
				"z": -2.1564301445,
				"element": "C" 
			},
			{
				"x": 0.1643583012,
				"y": -1.4615930285,
				"z": -1.8593082995,
				"element": "C" 
			},
			{
				"x": 0.6839944944,
				"y": -1.7966722415,
				"z": -0.4433806432,
				"element": "C" 
			},
			{
				"x": 1.1156520545,
				"y": -3.2787854745,
				"z": -0.3736529872,
				"element": "C" 
			},
			{
				"x": 3.4721963402,
				"y": 5.2783405697,
				"z": -0.8188311832,
				"element": "H" 
			},
			{
				"x": 3.9999788459,
				"y": 3.7173066917,
				"z": -1.4533893727,
				"element": "H" 
			},
			{
				"x": 2.2964680524,
				"y": 3.9769474203,
				"z": -1.0485696023,
				"element": "H" 
			},
			{
				"x": 4.6218731367,
				"y": 3.9327496548,
				"z": 0.9542520834,
				"element": "H" 
			},
			{
				"x": 2.8518604308,
				"y": 5.5689209731,
				"z": 1.6118610713,
				"element": "H" 
			},
			{
				"x": 2.8785263232,
				"y": 4.189992551,
				"z": 2.7224834551,
				"element": "H" 
			},
			{
				"x": 1.6211182475,
				"y": 4.3051995162,
				"z": 1.4828243165,
				"element": "H" 
			},
			{
				"x": 3.4594716153,
				"y": 1.9443625209,
				"z": 1.9273998172,
				"element": "H" 
			},
			{
				"x": 2.3255738813,
				"y": 1.9577077446,
				"z": 0.5878899645,
				"element": "H" 
			},
			{
				"x": 5.3603831407,
				"y": 1.6875818458,
				"z": 0.2886240128,
				"element": "H" 
			},
			{
				"x": 4.2107160788,
				"y": 1.4849935282,
				"z": -1.0100273313,
				"element": "H" 
			},
			{
				"x": 4.2401636384,
				"y": -0.3321170554,
				"z": 1.4576940618,
				"element": "H" 
			},
			{
				"x": 5.3063947558,
				"y": -0.594552929,
				"z": 0.0997929408,
				"element": "H" 
			},
			{
				"x": 3.5553795566,
				"y": -2.1149053511,
				"z": -0.0719903745,
				"element": "H" 
			},
			{
				"x": 2.9703004551,
				"y": -1.8002895035,
				"z": -2.4066417949,
				"element": "H" 
			},
			{
				"x": 3.0355946736,
				"y": -0.0443704182,
				"z": -2.272825619,
				"element": "H" 
			},
			{
				"x": 4.5180395215,
				"y": -0.9991535233,
				"z": -2.1477312921,
				"element": "H" 
			},
			{
				"x": 1.5317370078,
				"y": 0.1507458325,
				"z": -0.1570641621,
				"element": "H" 
			},
			{
				"x": 2.4072213722,
				"y": -1.7276671562,
				"z": 2.0587919323,
				"element": "H" 
			},
			{
				"x": 1.8605959599,
				"y": -0.0675481054,
				"z": 2.1724464006,
				"element": "H" 
			},
			{
				"x": 0.2316543274,
				"y": -2.5537162707,
				"z": 2.3203761264,
				"element": "H" 
			},
			{
				"x": -0.2934011066,
				"y": -0.9176218387,
				"z": 2.6902748843,
				"element": "H" 
			},
			{
				"x": -0.6895753156,
				"y": -0.3902728173,
				"z": 0.396901243,
				"element": "H" 
			},
			{
				"x": -1.4846170324,
				"y": -3.3108917364,
				"z": 0.3055789936,
				"element": "H" 
			},
			{
				"x": -2.3997420215,
				"y": -2.2252439877,
				"z": 2.3959237493,
				"element": "H" 
			},
			{
				"x": -3.5789588364,
				"y": -2.869888735,
				"z": 1.278428248,
				"element": "H" 
			},
			{
				"x": -3.868496325,
				"y": -0.2913808072,
				"z": 2.2424281332,
				"element": "H" 
			},
			{
				"x": -4.6482705777,
				"y": 1.6399939278,
				"z": 1.1263907287,
				"element": "H" 
			},
			{
				"x": -4.4609584021,
				"y": 3.206116749,
				"z": -0.7177604607,
				"element": "H" 
			},
			{
				"x": -3.9758082966,
				"y": 1.7670125598,
				"z": -2.8975981113,
				"element": "H" 
			},
			{
				"x": -2.6277997015,
				"y": 2.7262686038,
				"z": -2.345257523,
				"element": "H" 
			},
			{
				"x": -2.0485639004,
				"y": 0.3040984116,
				"z": -2.8880110898,
				"element": "H" 
			},
			{
				"x": -1.5191243043,
				"y": 0.8924836912,
				"z": -1.3155420256,
				"element": "H" 
			},
			{
				"x": -5.0879043075,
				"y": -0.0267030982,
				"z": -2.1037721785,
				"element": "H" 
			},
			{
				"x": -4.1632895369,
				"y": -1.2475804433,
				"z": -2.9979517239,
				"element": "H" 
			},
			{
				"x": -4.9952879125,
				"y": -1.677161512,
				"z": -1.4935494931,
				"element": "H" 
			},
			{
				"x": -3.057262468,
				"y": -2.688758861,
				"z": -1.2846528922,
				"element": "H" 
			},
			{
				"x": -1.0634725534,
				"y": -3.1894385703,
				"z": -2.2606521558,
				"element": "H" 
			},
			{
				"x": -1.5639879816,
				"y": -1.7737539182,
				"z": -3.1392802735,
				"element": "H" 
			},
			{
				"x": 0.1013459593,
				"y": -0.3733625903,
				"z": -1.962187166,
				"element": "H" 
			},
			{
				"x": 0.8665636158,
				"y": -1.7994359912,
				"z": -2.6289623635,
				"element": "H" 
			},
			{
				"x": 1.4718125369,
				"y": -3.5630184857,
				"z": 0.6210606123,
				"element": "H" 
			},
			{
				"x": 0.3036205826,
				"y": -3.962558573,
				"z": -0.6334859516,
				"element": "H" 
			},
			{
				"x": 1.9305094739,
				"y": -3.4726523746,
				"z": -1.0783840273,
				"element": "H" 
			}
		],
		 "valence_orbital": [ 
			{
				"type": "occ",
				"energy": -0.28127,
				"method": "rhf"
			},
			{
				"type": "occ",
				"energy": -0.27412,
				"method": "rhf"
			},
			{
				"type": "occ",
				"energy": -0.26937,
				"method": "rhf"
			},
			{
				"type": "occ",
				"energy": -0.26513,
				"method": "rhf"
			},
			{
				"type": "occ",
				"energy": -0.20451,
				"method": "rhf"
			},
			{
				"type": "unocc",
				"energy": -0.00653,
				"method": "rhf"
			},
			{
				"type": "unocc",
				"energy": 0.06616,
				"method": "rhf"
			},
			{
				"type": "unocc",
				"energy": 0.07829,
				"method": "rhf"
			},
			{
				"type": "unocc",
				"energy": 0.08295,
				"method": "rhf"
			},
			{
				"type": "unocc",
				"energy": 0.08964,
				"method": "rhf"
			}
		],
		"cosmo_sigma_profile": { 
			"-0.025": 0.0,
			"-0.024": 0.0,
			"-0.023": 0.0,
			"-0.022": 0.0,
			"-0.021": 0.0,
			"-0.02": 0.0,
			"-0.019": 0.0,
			"-0.018": 0.0,
			"-0.017": 0.0,
			"-0.016": 0.0,
			"-0.015": 0.0,
			"-0.014": 0.0,
			"-0.013": 0.0,
			"-0.012": 0.0,
			"-0.011": 0.0,
			"-0.01": 0.0,
			"-0.009": 0.0,
			"-0.008": 0.0,
			"-0.007": 0.0,
			"-0.006": 0.0,
			"-0.005": 0.338728806403,
			"-0.004": 5.02206630636,
			"-0.003": 18.9502864034,
			"-0.002": 64.9963578087,
			"-0.001": 103.531027924,
			"0.0": 101.90571657,
			"0.001": 77.592010045,
			"0.002": 47.7946323318,
			"0.003": 11.3054955324,
			"0.004": 6.54588147031,
			"0.005": 6.14493961849,
			"0.006": 4.55911264363,
			"0.007": 2.54460328005,
			"0.008": 0.29833629486,
			"0.009": 0.0,
			"0.01": 0.0,
			"0.011": 0.0,
			"0.012": 0.0,
			"0.013": 0.0,
			"0.014": 0.0,
			"0.015": 0.0,
			"0.016": 0.0,
			"0.017": 0.0,
			"0.018": 0.0,
			"0.019": 0.0,
			"0.02": 0.0,
			"0.021": 0.0,
			"0.022": 0.0,
			"0.023": 0.0,
			"0.024": 0.0,
			"0.025": 0.0
		}
	}
}
