{
	 "smiles": "O=C1NC2=C(C=C3OCCOC3=C2)C1=O", 
	 "Tm": 484.15, 
	 "num_atms": 22, 
	 "gaussian": { 
		 "optdone": 1, 
		 "sigma_profile": "yes", 
		 "theory": "DFT", 
		 "functional": "B3LYP", 
		 "basiset": "6-31G**", 
		 "properties": { 
			 "R2extent": 3921.9816, 
			 "electric_dipole_moment_norm": 8.04603848673, 
			 "electric_quadrupole_moment_norm": 25.0330552846, 
			 "total_energy": -740.909480282, 
			 "HOMO_LUMO_gap": 0.12977, 
			 "cosmo_polarized_energy": -19.08, 
			 "cosmo_cavitation_energy": 26.89, 
			 "cosmo_dispersion_energy": -20.43, 
			 "cosmo_repulsion_energy": 1.58, 
			 "cosmo_total_nonelectrostatic_energy": 8.04, 
			 "SMD_solvation_energy": 6.23 
		},
		"coords": [
			{
				"x": 2.8739957876,
				"y": 4.1304579382,
				"z": -0.3616772926,
				"element": "O" 
			},
			{
				"x": 2.1041159512,
				"y": 3.2465039444,
				"z": -0.0618076278,
				"element": "C" 
			},
			{
				"x": 2.4088140996,
				"y": 1.911575626,
				"z": 0.1596143737,
				"element": "N" 
			},
			{
				"x": 1.2696474897,
				"y": 1.1616753292,
				"z": 0.4920465018,
				"element": "C" 
			},
			{
				"x": 0.1279247664,
				"y": 1.9900510365,
				"z": 0.5035186161,
				"element": "C" 
			},
			{
				"x": -1.1248812837,
				"y": 1.4706535142,
				"z": 0.8216289573,
				"element": "C" 
			},
			{
				"x": -1.2381134911,
				"y": 0.1145155866,
				"z": 1.1131306718,
				"element": "C" 
			},
			{
				"x": -2.4770473034,
				"y": -0.3937194744,
				"z": 1.4298694524,
				"element": "O" 
			},
			{
				"x": -2.4212463693,
				"y": -1.6460084101,
				"z": 2.1091369153,
				"element": "C" 
			},
			{
				"x": -1.4879606687,
				"y": -2.5905163167,
				"z": 1.3722285464,
				"element": "C" 
			},
			{
				"x": -0.1619666301,
				"y": -2.0467399391,
				"z": 1.3353699334,
				"element": "O" 
			},
			{
				"x": -0.0910719771,
				"y": -0.7115760141,
				"z": 1.0751551568,
				"element": "C" 
			},
			{
				"x": 1.1782397347,
				"y": -0.1901123695,
				"z": 0.7735147135,
				"element": "C" 
			},
			{
				"x": 0.5515650955,
				"y": 3.3510541756,
				"z": 0.1623858913,
				"element": "C" 
			},
			{
				"x": -0.0865571191,
				"y": 4.3774062312,
				"z": 0.0566353716,
				"element": "O" 
			},
			{
				"x": 3.345722778,
				"y": 1.5440403268,
				"z": 0.0847148504,
				"element": "H" 
			},
			{
				"x": -2.0050437157,
				"y": 2.1046070825,
				"z": 0.8485495288,
				"element": "H" 
			},
			{
				"x": -3.4416063134,
				"y": -2.0359677148,
				"z": 2.1295536329,
				"element": "H" 
			},
			{
				"x": -2.0723023593,
				"y": -1.5009796008,
				"z": 3.1410215499,
				"element": "H" 
			},
			{
				"x": -1.84464719,
				"y": -2.749903812,
				"z": 0.3468438366,
				"element": "H" 
			},
			{
				"x": -1.4071464816,
				"y": -3.55536485,
				"z": 1.8782276116,
				"element": "H" 
			},
			{
				"x": 2.0311651999,
				"y": -0.8598522898,
				"z": 0.7614388087,
				"element": "H" 
			}
		],
		 "valence_orbital": [ 
			{
				"type": "occ",
				"energy": -0.30192,
				"method": "rhf"
			},
			{
				"type": "occ",
				"energy": -0.294,
				"method": "rhf"
			},
			{
				"type": "occ",
				"energy": -0.25579,
				"method": "rhf"
			},
			{
				"type": "occ",
				"energy": -0.23929,
				"method": "rhf"
			},
			{
				"type": "occ",
				"energy": -0.21711,
				"method": "rhf"
			},
			{
				"type": "unocc",
				"energy": -0.08734,
				"method": "rhf"
			},
			{
				"type": "unocc",
				"energy": -0.01768,
				"method": "rhf"
			},
			{
				"type": "unocc",
				"energy": 0.02253,
				"method": "rhf"
			},
			{
				"type": "unocc",
				"energy": 0.06725,
				"method": "rhf"
			},
			{
				"type": "unocc",
				"energy": 0.08017,
				"method": "rhf"
			}
		],
		"cosmo_sigma_profile": { 
			"-0.025": 0.0,
			"-0.024": 0.0,
			"-0.023": 0.0,
			"-0.022": 0.0,
			"-0.021": 0.0,
			"-0.02": 0.0,
			"-0.019": 0.0,
			"-0.018": 0.0,
			"-0.017": 0.315081937392,
			"-0.016": 1.38696036141,
			"-0.015": 1.57754304731,
			"-0.014": 0.903156796608,
			"-0.013": 1.40616346624,
			"-0.012": 0.769702744218,
			"-0.011": 1.40273770276,
			"-0.01": 1.3757272206,
			"-0.009": 1.47575549064,
			"-0.008": 4.76802378351,
			"-0.007": 14.6458687587,
			"-0.006": 17.9213736555,
			"-0.005": 13.6325726486,
			"-0.004": 11.5365224308,
			"-0.003": 9.89980698476,
			"-0.002": 10.507762748,
			"-0.001": 11.5899798114,
			"0.0": 15.6168196818,
			"0.001": 16.9005459278,
			"0.002": 14.3371606783,
			"0.003": 6.34080075646,
			"0.004": 5.49230865831,
			"0.005": 5.51555201627,
			"0.006": 3.21488737327,
			"0.007": 5.06307382754,
			"0.008": 6.88637380621,
			"0.009": 6.0653260629,
			"0.01": 7.73240064295,
			"0.011": 10.4949180397,
			"0.012": 5.90356139025,
			"0.013": 1.03348125757,
			"0.014": 0.0,
			"0.015": 0.0,
			"0.016": 0.0,
			"0.017": 0.0,
			"0.018": 0.0,
			"0.019": 0.0,
			"0.02": 0.0,
			"0.021": 0.0,
			"0.022": 0.0,
			"0.023": 0.0,
			"0.024": 0.0,
			"0.025": 0.0
		}
	}
}
