{
	 "smiles": "CC1=CC(=CC(F)=C1)C(O)=O", 
	 "Tm": 415.15, 
	 "num_atms": 18, 
	 "gaussian": { 
		 "optdone": 1, 
		 "sigma_profile": "yes", 
		 "theory": "DFT", 
		 "functional": "B3LYP", 
		 "basiset": "6-31G**", 
		 "properties": { 
			 "R2extent": 2539.4371, 
			 "electric_dipole_moment_norm": 2.99789746322, 
			 "electric_quadrupole_moment_norm": 10.3712148744, 
			 "total_energy": -559.377710776, 
			 "HOMO_LUMO_gap": 0.19711, 
			 "cosmo_polarized_energy": -8.35, 
			 "cosmo_cavitation_energy": 23.19, 
			 "cosmo_dispersion_energy": -16.88, 
			 "cosmo_repulsion_energy": 1.34, 
			 "cosmo_total_nonelectrostatic_energy": 7.64, 
			 "SMD_solvation_energy": 5.88 
		},
		"coords": [
			{
				"x": 1.82976706,
				"y": -1.0770484684,
				"z": 1.6008124079,
				"element": "C" 
			},
			{
				"x": 1.4504275771,
				"y": -0.6949654738,
				"z": 0.1893833836,
				"element": "C" 
			},
			{
				"x": 0.8540950011,
				"y": 0.5387195356,
				"z": -0.0912593112,
				"element": "C" 
			},
			{
				"x": 0.5068233428,
				"y": 0.8842297527,
				"z": -1.4048279196,
				"element": "C" 
			},
			{
				"x": 0.7505699247,
				"y": -0.0000048028,
				"z": -2.4610404789,
				"element": "C" 
			},
			{
				"x": 1.3422223772,
				"y": -1.2189318736,
				"z": -2.1660314178,
				"element": "C" 
			},
			{
				"x": 1.5866362236,
				"y": -2.087654583,
				"z": -3.1685553989,
				"element": "F" 
			},
			{
				"x": 1.6937835103,
				"y": -1.5798489905,
				"z": -0.8707375629,
				"element": "C" 
			},
			{
				"x": -0.1289330084,
				"y": 2.1884554673,
				"z": -1.7379555536,
				"element": "C" 
			},
			{
				"x": -0.3261869807,
				"y": 2.9773052036,
				"z": -0.652290139,
				"element": "O" 
			},
			{
				"x": -0.4491283305,
				"y": 2.538151941,
				"z": -2.8564837407,
				"element": "O" 
			},
			{
				"x": 1.5654509493,
				"y": -0.288933531,
				"z": 2.310234379,
				"element": "H" 
			},
			{
				"x": 2.9069451777,
				"y": -1.259069848,
				"z": 1.686654838,
				"element": "H" 
			},
			{
				"x": 1.3212684518,
				"y": -1.9958254575,
				"z": 1.9136774972,
				"element": "H" 
			},
			{
				"x": 0.6558147398,
				"y": 1.2394432459,
				"z": 0.7117030257,
				"element": "H" 
			},
			{
				"x": 0.4824074673,
				"y": 0.266086184,
				"z": -3.4763436713,
				"element": "H" 
			},
			{
				"x": 2.1543140099,
				"y": -2.5484716048,
				"z": -0.7011922032,
				"element": "H" 
			},
			{
				"x": -0.7404774932,
				"y": 3.7886633034,
				"z": -0.9890481341,
				"element": "H" 
			}
		],
		 "valence_orbital": [ 
			{
				"type": "occ",
				"energy": -0.35482,
				"method": "rhf"
			},
			{
				"type": "occ",
				"energy": -0.32162,
				"method": "rhf"
			},
			{
				"type": "occ",
				"energy": -0.28046,
				"method": "rhf"
			},
			{
				"type": "occ",
				"energy": -0.26309,
				"method": "rhf"
			},
			{
				"type": "occ",
				"energy": -0.25136,
				"method": "rhf"
			},
			{
				"type": "unocc",
				"energy": -0.05425,
				"method": "rhf"
			},
			{
				"type": "unocc",
				"energy": -0.00636,
				"method": "rhf"
			},
			{
				"type": "unocc",
				"energy": 0.0528,
				"method": "rhf"
			},
			{
				"type": "unocc",
				"energy": 0.07367,
				"method": "rhf"
			},
			{
				"type": "unocc",
				"energy": 0.09652,
				"method": "rhf"
			}
		],
		"cosmo_sigma_profile": { 
			"-0.025": 0.0,
			"-0.024": 0.0,
			"-0.023": 0.0,
			"-0.022": 0.0,
			"-0.021": 0.0,
			"-0.02": 0.0,
			"-0.019": 0.143828460248,
			"-0.018": 0.713257981672,
			"-0.017": 0.933894248088,
			"-0.016": 0.788156172459,
			"-0.015": 1.0001510319,
			"-0.014": 0.736920408305,
			"-0.013": 0.296447319627,
			"-0.012": 0.59610733224,
			"-0.011": 1.2425396087,
			"-0.01": 0.662635821818,
			"-0.009": 0.355335740875,
			"-0.008": 0.969961568393,
			"-0.007": 3.58477669221,
			"-0.006": 4.85699081831,
			"-0.005": 9.58900725953,
			"-0.004": 10.7193571362,
			"-0.003": 12.7677092541,
			"-0.002": 13.7747241503,
			"-0.001": 16.8381736193,
			"0.0": 19.8129209427,
			"0.001": 17.5597424572,
			"0.002": 18.1814279322,
			"0.003": 11.2236449052,
			"0.004": 12.9570467716,
			"0.005": 5.21510680099,
			"0.006": 2.24692528322,
			"0.007": 3.76176223169,
			"0.008": 2.55271136581,
			"0.009": 1.61800016497,
			"0.01": 1.98338516391,
			"0.011": 4.68106934895,
			"0.012": 2.68967875642,
			"0.013": 0.0202586348892,
			"0.014": 0.0,
			"0.015": 0.0,
			"0.016": 0.0,
			"0.017": 0.0,
			"0.018": 0.0,
			"0.019": 0.0,
			"0.02": 0.0,
			"0.021": 0.0,
			"0.022": 0.0,
			"0.023": 0.0,
			"0.024": 0.0,
			"0.025": 0.0
		}
	}
}
