{
	 "smiles": "CC1=NC2=C(C=CN=C2)C(=O)N1", 
	 "Tm": 571.15, 
	 "num_atms": 19, 
	 "gaussian": { 
		 "optdone": 1, 
		 "sigma_profile": "yes", 
		 "theory": "DFT", 
		 "functional": "B3LYP", 
		 "basiset": "6-31G**", 
		 "properties": { 
			 "R2extent": 2017.0664, 
			 "electric_dipole_moment_norm": 3.65859520991, 
			 "electric_quadrupole_moment_norm": 12.9479737411, 
			 "total_energy": -548.575014435, 
			 "HOMO_LUMO_gap": 0.17927, 
			 "cosmo_polarized_energy": -14.64, 
			 "cosmo_cavitation_energy": 23.53, 
			 "cosmo_dispersion_energy": -17.76, 
			 "cosmo_repulsion_energy": 1.39, 
			 "cosmo_total_nonelectrostatic_energy": 7.16, 
			 "SMD_solvation_energy": 1.88 
		},
		"coords": [
			{
				"x": -0.6232940528,
				"y": -1.4731212515,
				"z": -3.0639908148,
				"element": "C" 
			},
			{
				"x": -0.6290097556,
				"y": -0.9436783845,
				"z": -1.6542883896,
				"element": "C" 
			},
			{
				"x": -0.0053239861,
				"y": 0.1557053619,
				"z": -1.3711044366,
				"element": "N" 
			},
			{
				"x": -0.0492567108,
				"y": 0.5883586248,
				"z": -0.0556194471,
				"element": "C" 
			},
			{
				"x": -0.7292144569,
				"y": -0.1005596035,
				"z": 0.970156946,
				"element": "C" 
			},
			{
				"x": -0.7144113434,
				"y": 0.4195514703,
				"z": 2.270576769,
				"element": "C" 
			},
			{
				"x": -0.0254667707,
				"y": 1.6013356529,
				"z": 2.4979189138,
				"element": "C" 
			},
			{
				"x": 0.6322300528,
				"y": 2.2777570167,
				"z": 1.5319428398,
				"element": "N" 
			},
			{
				"x": 0.6165890602,
				"y": 1.7830977428,
				"z": 0.3017141906,
				"element": "C" 
			},
			{
				"x": -1.4354075994,
				"y": -1.3468610218,
				"z": 0.6456629371,
				"element": "C" 
			},
			{
				"x": -2.0653960242,
				"y": -2.0533310045,
				"z": 1.4175346015,
				"element": "O" 
			},
			{
				"x": -1.3189401743,
				"y": -1.6802660725,
				"z": -0.712128987,
				"element": "N" 
			},
			{
				"x": 0.4065025274,
				"y": -1.6480745122,
				"z": -3.3868683699,
				"element": "H" 
			},
			{
				"x": -1.0548511487,
				"y": -0.7284396965,
				"z": -3.7381909778,
				"element": "H" 
			},
			{
				"x": -1.1859597169,
				"y": -2.4048362963,
				"z": -3.162424666,
				"element": "H" 
			},
			{
				"x": -1.2352288819,
				"y": -0.1051614737,
				"z": 3.0643689615,
				"element": "H" 
			},
			{
				"x": 0.0099720727,
				"y": 2.0377855324,
				"z": 3.4933904955,
				"element": "H" 
			},
			{
				"x": 1.147648005,
				"y": 2.3307624509,
				"z": -0.4744600019,
				"element": "H" 
			},
			{
				"x": -1.7915810961,
				"y": -2.5345245357,
				"z": -0.981990564,
				"element": "H" 
			}
		],
		 "valence_orbital": [ 
			{
				"type": "occ",
				"energy": -0.28946,
				"method": "rhf"
			},
			{
				"type": "occ",
				"energy": -0.28485,
				"method": "rhf"
			},
			{
				"type": "occ",
				"energy": -0.27536,
				"method": "rhf"
			},
			{
				"type": "occ",
				"energy": -0.25741,
				"method": "rhf"
			},
			{
				"type": "occ",
				"energy": -0.23866,
				"method": "rhf"
			},
			{
				"type": "unocc",
				"energy": -0.05939,
				"method": "rhf"
			},
			{
				"type": "unocc",
				"energy": -0.04437,
				"method": "rhf"
			},
			{
				"type": "unocc",
				"energy": 0.01708,
				"method": "rhf"
			},
			{
				"type": "unocc",
				"energy": 0.06087,
				"method": "rhf"
			},
			{
				"type": "unocc",
				"energy": 0.06088,
				"method": "rhf"
			}
		],
		"cosmo_sigma_profile": { 
			"-0.025": 0.0,
			"-0.024": 0.0,
			"-0.023": 0.0,
			"-0.022": 0.0,
			"-0.021": 0.0,
			"-0.02": 0.0,
			"-0.019": 0.0,
			"-0.018": 0.0,
			"-0.017": 0.229668305291,
			"-0.016": 1.24535466356,
			"-0.015": 1.05833003058,
			"-0.014": 1.13498577484,
			"-0.013": 1.49000244566,
			"-0.012": 1.43362860567,
			"-0.011": 0.873704722407,
			"-0.01": 1.13163189684,
			"-0.009": 0.960334685614,
			"-0.008": 1.71203524424,
			"-0.007": 5.4447916869,
			"-0.006": 12.3071313014,
			"-0.005": 12.7413704743,
			"-0.004": 15.1930621016,
			"-0.003": 16.4888183596,
			"-0.002": 14.4838626758,
			"-0.001": 12.3394938959,
			"0.0": 14.8439214132,
			"0.001": 13.7013968426,
			"0.002": 9.09867193257,
			"0.003": 5.54385068462,
			"0.004": 5.23943018065,
			"0.005": 3.74655292534,
			"0.006": 4.20092250962,
			"0.007": 3.92922273828,
			"0.008": 3.34546285327,
			"0.009": 2.80384928421,
			"0.01": 4.09226441976,
			"0.011": 3.80164841335,
			"0.012": 6.80455467595,
			"0.013": 4.46352164417,
			"0.014": 1.52773424623,
			"0.015": 1.0199102639,
			"0.016": 0.535017605432,
			"0.017": 0.0019013346818,
			"0.018": 0.0,
			"0.019": 0.0,
			"0.02": 0.0,
			"0.021": 0.0,
			"0.022": 0.0,
			"0.023": 0.0,
			"0.024": 0.0,
			"0.025": 0.0
		}
	}
}
