{
	 "smiles": "OC(=O)C1=C(C=C(O)C=C1)C(F)(F)F", 
	 "Tm": 433.15, 
	 "num_atms": 19, 
	 "gaussian": { 
		 "optdone": 1, 
		 "sigma_profile": "yes", 
		 "theory": "DFT", 
		 "functional": "B3LYP", 
		 "basiset": "6-31G**", 
		 "properties": { 
			 "R2extent": 3008.2177, 
			 "electric_dipole_moment_norm": 2.47114866813, 
			 "electric_quadrupole_moment_norm": 7.68522403317, 
			 "total_energy": -833.070073189, 
			 "HOMO_LUMO_gap": 0.19453, 
			 "cosmo_polarized_energy": -13.98, 
			 "cosmo_cavitation_energy": 25.15, 
			 "cosmo_dispersion_energy": -18.27, 
			 "cosmo_repulsion_energy": 1.38, 
			 "cosmo_total_nonelectrostatic_energy": 8.26, 
			 "SMD_solvation_energy": 7.03 
		},
		"coords": [
			{
				"x": -0.8667679294,
				"y": -3.3771667718,
				"z": 0.6430381812,
				"element": "O" 
			},
			{
				"x": -1.3738423076,
				"y": -2.3846436808,
				"z": -0.1152386757,
				"element": "C" 
			},
			{
				"x": -2.4445432166,
				"y": -2.4889537754,
				"z": -0.6827318541,
				"element": "O" 
			},
			{
				"x": -0.4876864972,
				"y": -1.1893794303,
				"z": -0.2469928393,
				"element": "C" 
			},
			{
				"x": 0.5254277919,
				"y": -0.7706647655,
				"z": 0.6444520949,
				"element": "C" 
			},
			{
				"x": 1.2726401059,
				"y": 0.370504765,
				"z": 0.3510346402,
				"element": "C" 
			},
			{
				"x": 1.0380977533,
				"y": 1.1074913834,
				"z": -0.8147679626,
				"element": "C" 
			},
			{
				"x": 1.754668423,
				"y": 2.2157814711,
				"z": -1.1329685236,
				"element": "O" 
			},
			{
				"x": 0.0230125978,
				"y": 0.7146228737,
				"z": -1.6916626161,
				"element": "C" 
			},
			{
				"x": -0.725098881,
				"y": -0.4131677144,
				"z": -1.3940871697,
				"element": "C" 
			},
			{
				"x": 0.840157964,
				"y": -1.4679940577,
				"z": 1.9577498372,
				"element": "C" 
			},
			{
				"x": 1.6494873029,
				"y": -0.7018622237,
				"z": 2.7330469274,
				"element": "F" 
			},
			{
				"x": 1.483053895,
				"y": -2.6363007939,
				"z": 1.7791686691,
				"element": "F" 
			},
			{
				"x": -0.2709913004,
				"y": -1.7015516019,
				"z": 2.6825541754,
				"element": "F" 
			},
			{
				"x": -1.5404897889,
				"y": -4.0772774422,
				"z": 0.6510292794,
				"element": "H" 
			},
			{
				"x": 2.0355460621,
				"y": 0.6969739321,
				"z": 1.0492578216,
				"element": "H" 
			},
			{
				"x": 2.4206363585,
				"y": 2.3806877545,
				"z": -0.4521238636,
				"element": "H" 
			},
			{
				"x": -0.1628579329,
				"y": 1.299081939,
				"z": -2.5860423165,
				"element": "H" 
			},
			{
				"x": -1.5241504006,
				"y": -0.7296818612,
				"z": -2.0548158051,
				"element": "H" 
			}
		],
		 "valence_orbital": [ 
			{
				"type": "occ",
				"energy": -0.35778,
				"method": "rhf"
			},
			{
				"type": "occ",
				"energy": -0.31931,
				"method": "rhf"
			},
			{
				"type": "occ",
				"energy": -0.28381,
				"method": "rhf"
			},
			{
				"type": "occ",
				"energy": -0.27904,
				"method": "rhf"
			},
			{
				"type": "occ",
				"energy": -0.24863,
				"method": "rhf"
			},
			{
				"type": "unocc",
				"energy": -0.0541,
				"method": "rhf"
			},
			{
				"type": "unocc",
				"energy": -0.02992,
				"method": "rhf"
			},
			{
				"type": "unocc",
				"energy": 0.04677,
				"method": "rhf"
			},
			{
				"type": "unocc",
				"energy": 0.05181,
				"method": "rhf"
			},
			{
				"type": "unocc",
				"energy": 0.07846,
				"method": "rhf"
			}
		],
		"cosmo_sigma_profile": { 
			"-0.025": 0.0,
			"-0.024": 0.0,
			"-0.023": 0.0,
			"-0.022": 0.0,
			"-0.021": 0.0,
			"-0.02": 0.0,
			"-0.019": 0.784073003593,
			"-0.018": 2.14137300051,
			"-0.017": 2.38028896273,
			"-0.016": 1.83675646964,
			"-0.015": 1.88038606524,
			"-0.014": 1.45665517773,
			"-0.013": 1.29738270359,
			"-0.012": 2.45245499559,
			"-0.011": 2.17013244021,
			"-0.01": 0.919480202123,
			"-0.009": 1.40434549823,
			"-0.008": 2.16420018863,
			"-0.007": 5.13685796519,
			"-0.006": 5.2788249171,
			"-0.005": 6.19094121969,
			"-0.004": 5.06678130391,
			"-0.003": 7.38698359334,
			"-0.002": 9.64356778637,
			"-0.001": 11.946778512,
			"0.0": 14.9931326181,
			"0.001": 23.0638794113,
			"0.002": 26.5854326434,
			"0.003": 24.980509476,
			"0.004": 6.67143560103,
			"0.005": 5.57930137307,
			"0.006": 5.54880157436,
			"0.007": 4.33227777487,
			"0.008": 3.63315614623,
			"0.009": 3.17645535522,
			"0.01": 3.82961256297,
			"0.011": 4.15694545437,
			"0.012": 3.44048766207,
			"0.013": 0.0334649326781,
			"0.014": 0.0,
			"0.015": 0.0,
			"0.016": 0.0,
			"0.017": 0.0,
			"0.018": 0.0,
			"0.019": 0.0,
			"0.02": 0.0,
			"0.021": 0.0,
			"0.022": 0.0,
			"0.023": 0.0,
			"0.024": 0.0,
			"0.025": 0.0
		}
	}
}
