{
	 "smiles": "OC(=O)C1(CC1)C(=O)NC1=CC=C(Cl)C=C1Cl", 
	 "Tm": 468.15, 
	 "num_atms": 26, 
	 "gaussian": { 
		 "optdone": 1, 
		 "sigma_profile": "yes", 
		 "theory": "DFT", 
		 "functional": "B3LYP", 
		 "basiset": "6-31G**", 
		 "properties": { 
			 "R2extent": 5290.5789, 
			 "electric_dipole_moment_norm": 0.982374846991, 
			 "electric_quadrupole_moment_norm": 13.4515900201, 
			 "total_energy": -1625.39862977, 
			 "HOMO_LUMO_gap": 0.19782, 
			 "cosmo_polarized_energy": -14.6, 
			 "cosmo_cavitation_energy": 33.98, 
			 "cosmo_dispersion_energy": -23.67, 
			 "cosmo_repulsion_energy": 1.84, 
			 "cosmo_total_nonelectrostatic_energy": 12.15, 
			 "SMD_solvation_energy": 6.65 
		},
		"coords": [
			{
				"x": -1.7869826076,
				"y": 1.3681135931,
				"z": -0.9258549416,
				"element": "O" 
			},
			{
				"x": -2.2444487811,
				"y": 1.5982400068,
				"z": 0.3248286226,
				"element": "C" 
			},
			{
				"x": -3.3559381342,
				"y": 1.273297422,
				"z": 0.6879805183,
				"element": "O" 
			},
			{
				"x": -1.2673872932,
				"y": 2.3645196177,
				"z": 1.1607397226,
				"element": "C" 
			},
			{
				"x": -1.8345371836,
				"y": 3.6834393194,
				"z": 1.6914738124,
				"element": "C" 
			},
			{
				"x": -1.6366751183,
				"y": 2.5512163303,
				"z": 2.6334922357,
				"element": "C" 
			},
			{
				"x": 0.2087999179,
				"y": 2.3918247006,
				"z": 0.8254854673,
				"element": "C" 
			},
			{
				"x": 0.854946996,
				"y": 3.4294625964,
				"z": 0.8643507106,
				"element": "O" 
			},
			{
				"x": 0.8601190835,
				"y": 1.2133622329,
				"z": 0.4985236265,
				"element": "N" 
			},
			{
				"x": 0.4540418156,
				"y": -0.1278911114,
				"z": 0.5093494035,
				"element": "C" 
			},
			{
				"x": -0.412934115,
				"y": -0.6518781398,
				"z": 1.4811967571,
				"element": "C" 
			},
			{
				"x": -0.7855576669,
				"y": -1.9930094929,
				"z": 1.4767175886,
				"element": "C" 
			},
			{
				"x": -0.2581961077,
				"y": -2.8482751978,
				"z": 0.511472207,
				"element": "C" 
			},
			{
				"x": -0.707835806,
				"y": -4.5431995545,
				"z": 0.502611524,
				"element": "Cl" 
			},
			{
				"x": 0.6352859364,
				"y": -2.3743953234,
				"z": -0.4468020208,
				"element": "C" 
			},
			{
				"x": 0.9766939371,
				"y": -1.02487088,
				"z": -0.4433137193,
				"element": "C" 
			},
			{
				"x": 2.1000711219,
				"y": -0.4463617335,
				"z": -1.6626399451,
				"element": "Cl" 
			},
			{
				"x": -2.4963555647,
				"y": 0.8949247192,
				"z": -1.392576118,
				"element": "H" 
			},
			{
				"x": -2.8482363997,
				"y": 3.9210085496,
				"z": 1.389017458,
				"element": "H" 
			},
			{
				"x": -1.1250003416,
				"y": 4.502465535,
				"z": 1.7020446118,
				"element": "H" 
			},
			{
				"x": -2.5097192486,
				"y": 1.9991980669,
				"z": 2.9660540664,
				"element": "H" 
			},
			{
				"x": -0.8073531783,
				"y": 2.60495421,
				"z": 3.3319175955,
				"element": "H" 
			},
			{
				"x": 1.7885743641,
				"y": 1.398088236,
				"z": 0.1367856853,
				"element": "H" 
			},
			{
				"x": -0.7913557515,
				"y": -0.0003782914,
				"z": 2.2585091954,
				"element": "H" 
			},
			{
				"x": -1.4650178601,
				"y": -2.3728405151,
				"z": 2.2308558439,
				"element": "H" 
			},
			{
				"x": 1.0548979856,
				"y": -3.0386148962,
				"z": -1.1922199075,
				"element": "H" 
			}
		],
		 "valence_orbital": [ 
			{
				"type": "occ",
				"energy": -0.30273,
				"method": "rhf"
			},
			{
				"type": "occ",
				"energy": -0.29658,
				"method": "rhf"
			},
			{
				"type": "occ",
				"energy": -0.273,
				"method": "rhf"
			},
			{
				"type": "occ",
				"energy": -0.26697,
				"method": "rhf"
			},
			{
				"type": "occ",
				"energy": -0.23734,
				"method": "rhf"
			},
			{
				"type": "unocc",
				"energy": -0.03952,
				"method": "rhf"
			},
			{
				"type": "unocc",
				"energy": -0.03819,
				"method": "rhf"
			},
			{
				"type": "unocc",
				"energy": -0.00319,
				"method": "rhf"
			},
			{
				"type": "unocc",
				"energy": -0.00213,
				"method": "rhf"
			},
			{
				"type": "unocc",
				"energy": 0.01152,
				"method": "rhf"
			}
		],
		"cosmo_sigma_profile": { 
			"-0.025": 0.0,
			"-0.024": 0.0,
			"-0.023": 0.0,
			"-0.022": 0.0,
			"-0.021": 0.0,
			"-0.02": 0.0,
			"-0.019": 0.176536696365,
			"-0.018": 0.863859366809,
			"-0.017": 1.27914868532,
			"-0.016": 0.635415375738,
			"-0.015": 0.744615246903,
			"-0.014": 0.664608780727,
			"-0.013": 0.743890190376,
			"-0.012": 1.32473117022,
			"-0.011": 1.79389827026,
			"-0.01": 1.9590502542,
			"-0.009": 2.28302842182,
			"-0.008": 4.57232122806,
			"-0.007": 9.92790055429,
			"-0.006": 12.4963910566,
			"-0.005": 12.6323478026,
			"-0.004": 14.9437165428,
			"-0.003": 14.5690342461,
			"-0.002": 19.107515599,
			"-0.001": 18.6578528692,
			"0.0": 23.5941003523,
			"0.001": 29.9827844841,
			"0.002": 25.9285370328,
			"0.003": 19.6348631398,
			"0.004": 18.4137425777,
			"0.005": 6.17359775556,
			"0.006": 4.09330691156,
			"0.007": 4.52625956741,
			"0.008": 2.41536381057,
			"0.009": 2.76805493618,
			"0.01": 3.56216504429,
			"0.011": 6.68814743011,
			"0.012": 7.01719140791,
			"0.013": 1.60507101327,
			"0.014": 0.0,
			"0.015": 0.0,
			"0.016": 0.0,
			"0.017": 0.0,
			"0.018": 0.0,
			"0.019": 0.0,
			"0.02": 0.0,
			"0.021": 0.0,
			"0.022": 0.0,
			"0.023": 0.0,
			"0.024": 0.0,
			"0.025": 0.0
		}
	}
}
