{
	 "smiles": "CC1=CC(O)=C(C)C(C)=C1C", 
	 "Tm": 358.45, 
	 "num_atms": 25, 
	 "gaussian": { 
		 "optdone": 1, 
		 "sigma_profile": "yes", 
		 "theory": "DFT", 
		 "functional": "B3LYP", 
		 "basiset": "6-31G**", 
		 "properties": { 
			 "R2extent": 2546.4422, 
			 "electric_dipole_moment_norm": 1.12072833907, 
			 "electric_quadrupole_moment_norm": 8.27706275197, 
			 "total_energy": -464.74418315, 
			 "HOMO_LUMO_gap": 0.21211, 
			 "cosmo_polarized_energy": -7.26, 
			 "cosmo_cavitation_energy": 26.32, 
			 "cosmo_dispersion_energy": -19.49, 
			 "cosmo_repulsion_energy": 1.55, 
			 "cosmo_total_nonelectrostatic_energy": 8.38, 
			 "SMD_solvation_energy": 4.86 
		},
		"coords": [
			{
				"x": -3.8678603991,
				"y": -2.0747805069,
				"z": -0.4469676999,
				"element": "C" 
			},
			{
				"x": -2.5331880965,
				"y": -1.5326645619,
				"z": 0.0186183321,
				"element": "C" 
			},
			{
				"x": -1.7297474885,
				"y": -2.3349280785,
				"z": 0.8325394063,
				"element": "C" 
			},
			{
				"x": -0.4922371763,
				"y": -1.8885331638,
				"z": 1.2909499316,
				"element": "C" 
			},
			{
				"x": 0.2962665759,
				"y": -2.680042734,
				"z": 2.0915261431,
				"element": "O" 
			},
			{
				"x": -0.0118612779,
				"y": -0.614411978,
				"z": 0.9488612116,
				"element": "C" 
			},
			{
				"x": 1.3378984583,
				"y": -0.1661762838,
				"z": 1.4668516856,
				"element": "C" 
			},
			{
				"x": -0.8194055745,
				"y": 0.1970522094,
				"z": 0.1289975754,
				"element": "C" 
			},
			{
				"x": -0.3499271875,
				"y": 1.5800940448,
				"z": -0.2696419593,
				"element": "C" 
			},
			{
				"x": -2.0756465259,
				"y": -0.2509982845,
				"z": -0.3395537176,
				"element": "C" 
			},
			{
				"x": -2.9063951795,
				"y": 0.6588823726,
				"z": -1.2189264228,
				"element": "C" 
			},
			{
				"x": -4.7047509846,
				"y": -1.4524106086,
				"z": -0.1094536745,
				"element": "H" 
			},
			{
				"x": -3.9303753947,
				"y": -2.1304846052,
				"z": -1.5399810675,
				"element": "H" 
			},
			{
				"x": -4.0330536887,
				"y": -3.0834455931,
				"z": -0.0583647214,
				"element": "H" 
			},
			{
				"x": -2.0765256281,
				"y": -3.3282678144,
				"z": 1.1144922168,
				"element": "H" 
			},
			{
				"x": -0.1601944273,
				"y": -3.5177818534,
				"z": 2.2390068845,
				"element": "H" 
			},
			{
				"x": 1.2562419431,
				"y": 0.7345288459,
				"z": 2.0863990675,
				"element": "H" 
			},
			{
				"x": 2.029988068,
				"y": 0.0655581334,
				"z": 0.6489876079,
				"element": "H" 
			},
			{
				"x": 1.7933719775,
				"y": -0.9470508424,
				"z": 2.0756842644,
				"element": "H" 
			},
			{
				"x": -0.2704238888,
				"y": 1.6757621889,
				"z": -1.3595609415,
				"element": "H" 
			},
			{
				"x": 0.6235474623,
				"y": 1.828143307,
				"z": 0.1523880687,
				"element": "H" 
			},
			{
				"x": -1.0574007826,
				"y": 2.3514863584,
				"z": 0.0582288674,
				"element": "H" 
			},
			{
				"x": -2.3716172878,
				"y": 0.9360848084,
				"z": -2.1360456342,
				"element": "H" 
			},
			{
				"x": -3.1559386964,
				"y": 1.5985724025,
				"z": -0.7100263453,
				"element": "H" 
			},
			{
				"x": -3.8463648005,
				"y": 0.1957122373,
				"z": -1.520609079,
				"element": "H" 
			}
		],
		 "valence_orbital": [ 
			{
				"type": "occ",
				"energy": -0.32701,
				"method": "rhf"
			},
			{
				"type": "occ",
				"energy": -0.31664,
				"method": "rhf"
			},
			{
				"type": "occ",
				"energy": -0.30023,
				"method": "rhf"
			},
			{
				"type": "occ",
				"energy": -0.22285,
				"method": "rhf"
			},
			{
				"type": "occ",
				"energy": -0.20024,
				"method": "rhf"
			},
			{
				"type": "unocc",
				"energy": 0.01187,
				"method": "rhf"
			},
			{
				"type": "unocc",
				"energy": 0.02363,
				"method": "rhf"
			},
			{
				"type": "unocc",
				"energy": 0.07696,
				"method": "rhf"
			},
			{
				"type": "unocc",
				"energy": 0.09455,
				"method": "rhf"
			},
			{
				"type": "unocc",
				"energy": 0.10843,
				"method": "rhf"
			}
		],
		"cosmo_sigma_profile": { 
			"-0.025": 0.0,
			"-0.024": 0.0,
			"-0.023": 0.0,
			"-0.022": 0.0,
			"-0.021": 0.0,
			"-0.02": 0.0,
			"-0.019": 0.0,
			"-0.018": 0.0,
			"-0.017": 0.706347357903,
			"-0.016": 1.18493498843,
			"-0.015": 0.495778034793,
			"-0.014": 0.976795288328,
			"-0.013": 1.37777693026,
			"-0.012": 0.763591876163,
			"-0.011": 0.743013821982,
			"-0.01": 0.681756793556,
			"-0.009": 1.1383443055,
			"-0.008": 1.21126223442,
			"-0.007": 1.31916704798,
			"-0.006": 0.886293974658,
			"-0.005": 2.77845580463,
			"-0.004": 9.89076127905,
			"-0.003": 25.309618752,
			"-0.002": 20.5244478346,
			"-0.001": 24.2757779963,
			"0.0": 27.9768614847,
			"0.001": 24.83454463,
			"0.002": 10.4527510054,
			"0.003": 7.52984453014,
			"0.004": 8.35479471403,
			"0.005": 8.99740677942,
			"0.006": 7.90481804861,
			"0.007": 7.47896714102,
			"0.008": 3.57643910718,
			"0.009": 1.4759753294,
			"0.01": 1.99611211919,
			"0.011": 1.03156478031,
			"0.012": 0.0311907961272,
			"0.013": 0.0,
			"0.014": 0.0,
			"0.015": 0.0,
			"0.016": 0.0,
			"0.017": 0.0,
			"0.018": 0.0,
			"0.019": 0.0,
			"0.02": 0.0,
			"0.021": 0.0,
			"0.022": 0.0,
			"0.023": 0.0,
			"0.024": 0.0,
			"0.025": 0.0
		}
	}
}
