{
	 "smiles": "BrC1=NC=CC(=C1)C#N", 
	 "Tm": 345.15, 
	 "num_atms": 12, 
	 "gaussian": { 
		 "optdone": 1, 
		 "sigma_profile": "yes", 
		 "theory": "DFT", 
		 "functional": "B3LYP", 
		 "basiset": "6-31G**", 
		 "properties": { 
			 "R2extent": 3150.5763, 
			 "electric_dipole_moment_norm": 1.75886439784, 
			 "electric_quadrupole_moment_norm": 15.3901926508, 
			 "total_energy": -2911.32300758, 
			 "HOMO_LUMO_gap": 0.18895, 
			 "cosmo_polarized_energy": -9.44, 
			 "cosmo_cavitation_energy": 20.45, 
			 "cosmo_dispersion_energy": -15.06, 
			 "cosmo_repulsion_energy": 1.24, 
			 "cosmo_total_nonelectrostatic_energy": 6.63, 
			 "SMD_solvation_energy": 2.53 
		},
		"coords": [
			{
				"x": 0.6672908593,
				"y": 3.524503765,
				"z": -0.4828142488,
				"element": "Br" 
			},
			{
				"x": 1.2638606113,
				"y": 1.7053359474,
				"z": -0.5310472451,
				"element": "C" 
			},
			{
				"x": 2.1611204156,
				"y": 1.3442528673,
				"z": 0.3676917619,
				"element": "N" 
			},
			{
				"x": 2.586267529,
				"y": 0.0724423654,
				"z": 0.3434061105,
				"element": "C" 
			},
			{
				"x": 2.1324487927,
				"y": -0.8718848706,
				"z": -0.5720015202,
				"element": "C" 
			},
			{
				"x": 1.178234027,
				"y": -0.4633307408,
				"z": -1.5177483995,
				"element": "C" 
			},
			{
				"x": 0.7251596648,
				"y": 0.8614983612,
				"z": -1.5043820859,
				"element": "C" 
			},
			{
				"x": 0.6695017963,
				"y": -1.3891851318,
				"z": -2.4896161077,
				"element": "C" 
			},
			{
				"x": 0.25928924,
				"y": -2.1410468384,
				"z": -3.2754213218,
				"element": "N" 
			},
			{
				"x": 3.3246852147,
				"y": -0.1976069055,
				"z": 1.0941071212,
				"element": "H" 
			},
			{
				"x": 2.5019021286,
				"y": -1.8904961883,
				"z": -0.5576687819,
				"element": "H" 
			},
			{
				"x": -0.0092602792,
				"y": 1.2156173691,
				"z": -2.2161052827,
				"element": "H" 
			}
		],
		 "valence_orbital": [ 
			{
				"type": "occ",
				"energy": -0.33557,
				"method": "rhf"
			},
			{
				"type": "occ",
				"energy": -0.31092,
				"method": "rhf"
			},
			{
				"type": "occ",
				"energy": -0.30468,
				"method": "rhf"
			},
			{
				"type": "occ",
				"energy": -0.29474,
				"method": "rhf"
			},
			{
				"type": "occ",
				"energy": -0.27661,
				"method": "rhf"
			},
			{
				"type": "unocc",
				"energy": -0.08766,
				"method": "rhf"
			},
			{
				"type": "unocc",
				"energy": -0.05122,
				"method": "rhf"
			},
			{
				"type": "unocc",
				"energy": -0.01109,
				"method": "rhf"
			},
			{
				"type": "unocc",
				"energy": 0.01764,
				"method": "rhf"
			},
			{
				"type": "unocc",
				"energy": 0.05003,
				"method": "rhf"
			}
		],
		"cosmo_sigma_profile": { 
			"-0.025": 0.0,
			"-0.024": 0.0,
			"-0.023": 0.0,
			"-0.022": 0.0,
			"-0.021": 0.0,
			"-0.02": 0.0,
			"-0.019": 0.0,
			"-0.018": 0.0,
			"-0.017": 0.0,
			"-0.016": 0.0,
			"-0.015": 0.0,
			"-0.014": 0.0,
			"-0.013": 0.0,
			"-0.012": 0.0,
			"-0.011": 0.0161510237806,
			"-0.01": 2.18775966798,
			"-0.009": 6.00185333464,
			"-0.008": 7.39890476667,
			"-0.007": 5.51961278201,
			"-0.006": 5.9836284401,
			"-0.005": 7.36486890482,
			"-0.004": 9.75374051962,
			"-0.003": 15.1624383608,
			"-0.002": 16.2731155095,
			"-0.001": 13.3096581965,
			"0.0": 8.71210086227,
			"0.001": 7.69947806751,
			"0.002": 8.57682553156,
			"0.003": 11.1617915391,
			"0.004": 11.7101544871,
			"0.005": 5.98876320051,
			"0.006": 4.54623546652,
			"0.007": 4.75194136428,
			"0.008": 4.16644299245,
			"0.009": 4.43370149721,
			"0.01": 3.34768299507,
			"0.011": 3.16039163799,
			"0.012": 2.10275338707,
			"0.013": 0.829621654997,
			"0.014": 0.0290085299076,
			"0.015": 0.0,
			"0.016": 0.0,
			"0.017": 0.0,
			"0.018": 0.0,
			"0.019": 0.0,
			"0.02": 0.0,
			"0.021": 0.0,
			"0.022": 0.0,
			"0.023": 0.0,
			"0.024": 0.0,
			"0.025": 0.0
		}
	}
}
