{
	 "smiles": "CC(Cl)C(=O)NC(C)C1=CC=CC=C1", 
	 "Tm": 363.15, 
	 "num_atms": 28, 
	 "gaussian": { 
		 "optdone": 1, 
		 "sigma_profile": "yes", 
		 "theory": "DFT", 
		 "functional": "B3LYP", 
		 "basiset": "6-31G**", 
		 "properties": { 
			 "R2extent": 4538.5554, 
			 "electric_dipole_moment_norm": 1.94596124833, 
			 "electric_quadrupole_moment_norm": 6.08991170954, 
			 "total_energy": -1017.8089225, 
			 "HOMO_LUMO_gap": 0.2366, 
			 "cosmo_polarized_energy": -10.07, 
			 "cosmo_cavitation_energy": 32.84, 
			 "cosmo_dispersion_energy": -22.93, 
			 "cosmo_repulsion_energy": 1.85, 
			 "cosmo_total_nonelectrostatic_energy": 11.76, 
			 "SMD_solvation_energy": 5.31 
		},
		"coords": [
			{
				"x": 1.8711509045,
				"y": -4.2793156366,
				"z": 0.414959521,
				"element": "C" 
			},
			{
				"x": 1.2769220416,
				"y": -3.4072241007,
				"z": 1.516100477,
				"element": "C" 
			},
			{
				"x": -0.4577760907,
				"y": -3.918353017,
				"z": 1.852177663,
				"element": "Cl" 
			},
			{
				"x": 1.4429478852,
				"y": -1.9124027131,
				"z": 1.1871257279,
				"element": "C" 
			},
			{
				"x": 2.5901240973,
				"y": -1.497332119,
				"z": 1.0388457778,
				"element": "O" 
			},
			{
				"x": 0.3387224038,
				"y": -1.1450899973,
				"z": 1.0677078731,
				"element": "N" 
			},
			{
				"x": 0.4267471319,
				"y": 0.2810428815,
				"z": 0.7129677102,
				"element": "C" 
			},
			{
				"x": 0.8422357545,
				"y": 1.1286330995,
				"z": 1.9271401946,
				"element": "C" 
			},
			{
				"x": -0.8846787787,
				"y": 0.7296571993,
				"z": 0.0894033302,
				"element": "C" 
			},
			{
				"x": -2.074159279,
				"y": 0.7377416507,
				"z": 0.833256135,
				"element": "C" 
			},
			{
				"x": -3.2754609184,
				"y": 1.1452435157,
				"z": 0.2525754614,
				"element": "C" 
			},
			{
				"x": -3.3044928319,
				"y": 1.5603466345,
				"z": -1.0804709689,
				"element": "C" 
			},
			{
				"x": -2.1265474443,
				"y": 1.5609405363,
				"z": -1.8284331142,
				"element": "C" 
			},
			{
				"x": -0.9277238213,
				"y": 1.1443426917,
				"z": -1.2467390409,
				"element": "C" 
			},
			{
				"x": 1.308083206,
				"y": -4.1691429174,
				"z": -0.515850794,
				"element": "H" 
			},
			{
				"x": 1.864371047,
				"y": -5.3312627857,
				"z": 0.7079065167,
				"element": "H" 
			},
			{
				"x": 2.9010553135,
				"y": -3.9560446822,
				"z": 0.2444156856,
				"element": "H" 
			},
			{
				"x": 1.7966446471,
				"y": -3.5768264355,
				"z": 2.4607660217,
				"element": "H" 
			},
			{
				"x": -0.5703521128,
				"y": -1.5711576031,
				"z": 1.1792911664,
				"element": "H" 
			},
			{
				"x": 1.2212878137,
				"y": 0.3601376389,
				"z": -0.0361476146,
				"element": "H" 
			},
			{
				"x": 0.9429330516,
				"y": 2.1790993701,
				"z": 1.6374190112,
				"element": "H" 
			},
			{
				"x": 0.10142986,
				"y": 1.0639291996,
				"z": 2.7299249919,
				"element": "H" 
			},
			{
				"x": 1.8042189838,
				"y": 0.7760418194,
				"z": 2.3064619761,
				"element": "H" 
			},
			{
				"x": -2.0644219458,
				"y": 0.4285629226,
				"z": 1.8757158439,
				"element": "H" 
			},
			{
				"x": -4.1876730524,
				"y": 1.1430694429,
				"z": 0.8424208629,
				"element": "H" 
			},
			{
				"x": -4.2387984873,
				"y": 1.8812724578,
				"z": -1.5318518487,
				"element": "H" 
			},
			{
				"x": -2.1396446659,
				"y": 1.8817445458,
				"z": -2.8661831602,
				"element": "H" 
			},
			{
				"x": -0.0141447131,
				"y": 1.1404464015,
				"z": -1.8358054058,
				"element": "H" 
			}
		],
		 "valence_orbital": [ 
			{
				"type": "occ",
				"energy": -0.30468,
				"method": "rhf"
			},
			{
				"type": "occ",
				"energy": -0.25923,
				"method": "rhf"
			},
			{
				"type": "occ",
				"energy": -0.25782,
				"method": "rhf"
			},
			{
				"type": "occ",
				"energy": -0.2565,
				"method": "rhf"
			},
			{
				"type": "occ",
				"energy": -0.24977,
				"method": "rhf"
			},
			{
				"type": "unocc",
				"energy": -0.01317,
				"method": "rhf"
			},
			{
				"type": "unocc",
				"energy": -0.00917,
				"method": "rhf"
			},
			{
				"type": "unocc",
				"energy": 0.01346,
				"method": "rhf"
			},
			{
				"type": "unocc",
				"energy": 0.02263,
				"method": "rhf"
			},
			{
				"type": "unocc",
				"energy": 0.0854,
				"method": "rhf"
			}
		],
		"cosmo_sigma_profile": { 
			"-0.025": 0.0,
			"-0.024": 0.0,
			"-0.023": 0.0,
			"-0.022": 0.0,
			"-0.021": 0.0,
			"-0.02": 0.0,
			"-0.019": 0.0,
			"-0.018": 0.0,
			"-0.017": 0.0,
			"-0.016": 0.0,
			"-0.015": 0.0,
			"-0.014": 0.0,
			"-0.013": 0.0,
			"-0.012": 0.0,
			"-0.011": 0.0,
			"-0.01": 0.0,
			"-0.009": 0.869636201739,
			"-0.008": 3.43573714975,
			"-0.007": 3.80379290292,
			"-0.006": 12.2124857188,
			"-0.005": 20.3042035657,
			"-0.004": 23.5716276677,
			"-0.003": 23.9665527333,
			"-0.002": 21.792408451,
			"-0.001": 23.7171515251,
			"0.0": 23.0775639626,
			"0.001": 19.3025104509,
			"0.002": 14.69291531,
			"0.003": 13.4420838254,
			"0.004": 14.3482028152,
			"0.005": 15.6389601753,
			"0.006": 11.8944622152,
			"0.007": 1.66083279566,
			"0.008": 1.16601652109,
			"0.009": 1.40403484314,
			"0.01": 1.61134759009,
			"0.011": 1.68757654528,
			"0.012": 1.31404037385,
			"0.013": 4.40072890445,
			"0.014": 2.16023838792,
			"0.015": 0.0,
			"0.016": 0.0,
			"0.017": 0.0,
			"0.018": 0.0,
			"0.019": 0.0,
			"0.02": 0.0,
			"0.021": 0.0,
			"0.022": 0.0,
			"0.023": 0.0,
			"0.024": 0.0,
			"0.025": 0.0
		}
	}
}
