{
	 "smiles": "COC(=O)C1=C(C=CC=C1)C(=O)C1=CC=CC=C1", 
	 "Tm": 325.15, 
	 "num_atms": 30, 
	 "gaussian": { 
		 "optdone": 1, 
		 "sigma_profile": "yes", 
		 "theory": "DFT", 
		 "functional": "B3LYP", 
		 "basiset": "6-31G**", 
		 "properties": { 
			 "R2extent": 4486.7647, 
			 "electric_dipole_moment_norm": 1.83113036947, 
			 "electric_quadrupole_moment_norm": 20.6749799163, 
			 "total_energy": -804.505833614, 
			 "HOMO_LUMO_gap": 0.18406, 
			 "cosmo_polarized_energy": -12.37, 
			 "cosmo_cavitation_energy": 34.72, 
			 "cosmo_dispersion_energy": -23.53, 
			 "cosmo_repulsion_energy": 1.82, 
			 "cosmo_total_nonelectrostatic_energy": 13.01, 
			 "SMD_solvation_energy": 7.88 
		},
		"coords": [
			{
				"x": -2.3131643649,
				"y": 3.0125850708,
				"z": 0.8210800258,
				"element": "C" 
			},
			{
				"x": -1.1721852373,
				"y": 2.2305028729,
				"z": 0.4324846045,
				"element": "O" 
			},
			{
				"x": -0.1032902769,
				"y": 2.3098318529,
				"z": 1.2507161802,
				"element": "C" 
			},
			{
				"x": -0.0591848532,
				"y": 3.0361305691,
				"z": 2.2241956051,
				"element": "O" 
			},
			{
				"x": 1.026232767,
				"y": 1.4427828461,
				"z": 0.7953728096,
				"element": "C" 
			},
			{
				"x": 0.8835384409,
				"y": 0.3538399344,
				"z": -0.0903879184,
				"element": "C" 
			},
			{
				"x": 2.034344062,
				"y": -0.3206272949,
				"z": -0.5196532,
				"element": "C" 
			},
			{
				"x": 3.2971407868,
				"y": 0.0425768907,
				"z": -0.0544303882,
				"element": "C" 
			},
			{
				"x": 3.4308982902,
				"y": 1.100311813,
				"z": 0.8470846063,
				"element": "C" 
			},
			{
				"x": 2.3000004505,
				"y": 1.7968586794,
				"z": 1.2622785742,
				"element": "C" 
			},
			{
				"x": -0.428225541,
				"y": -0.1678589554,
				"z": -0.6406651272,
				"element": "C" 
			},
			{
				"x": -0.5857241155,
				"y": -0.2111080923,
				"z": -1.8520337186,
				"element": "O" 
			},
			{
				"x": -1.4506856658,
				"y": -0.7415794247,
				"z": 0.2920288227,
				"element": "C" 
			},
			{
				"x": -1.1980654933,
				"y": -0.9623012788,
				"z": 1.6538699345,
				"element": "C" 
			},
			{
				"x": -2.1773310763,
				"y": -1.5350923264,
				"z": 2.4662236031,
				"element": "C" 
			},
			{
				"x": -3.4143576211,
				"y": -1.8908239004,
				"z": 1.9259198366,
				"element": "C" 
			},
			{
				"x": -3.6703145193,
				"y": -1.6798123962,
				"z": 0.5668911774,
				"element": "C" 
			},
			{
				"x": -2.6927925224,
				"y": -1.1142955306,
				"z": -0.2457773106,
				"element": "C" 
			},
			{
				"x": -3.0727926642,
				"y": 2.8155951985,
				"z": 0.0654606807,
				"element": "H" 
			},
			{
				"x": -2.0563017986,
				"y": 4.0742643322,
				"z": 0.8440942918,
				"element": "H" 
			},
			{
				"x": -2.6654069441,
				"y": 2.7100841102,
				"z": 1.8101436584,
				"element": "H" 
			},
			{
				"x": 1.9248737592,
				"y": -1.141410353,
				"z": -1.2212933934,
				"element": "H" 
			},
			{
				"x": 4.1740085693,
				"y": -0.4995847644,
				"z": -0.3962048304,
				"element": "H" 
			},
			{
				"x": 4.4111756,
				"y": 1.3872537671,
				"z": 1.2153289502,
				"element": "H" 
			},
			{
				"x": 2.3760239051,
				"y": 2.6353287769,
				"z": 1.9462300635,
				"element": "H" 
			},
			{
				"x": -0.2354240018,
				"y": -0.6970489292,
				"z": 2.0785256771,
				"element": "H" 
			},
			{
				"x": -1.9729248895,
				"y": -1.7058929768,
				"z": 3.519081335,
				"element": "H" 
			},
			{
				"x": -4.1764239012,
				"y": -2.3350635516,
				"z": 2.560059972,
				"element": "H" 
			},
			{
				"x": -4.6311046908,
				"y": -1.9604262712,
				"z": 0.1448778442,
				"element": "H" 
			},
			{
				"x": -2.8632364537,
				"y": -0.9504206679,
				"z": -1.304602366,
				"element": "H" 
			}
		],
		 "valence_orbital": [ 
			{
				"type": "occ",
				"energy": -0.26955,
				"method": "rhf"
			},
			{
				"type": "occ",
				"energy": -0.26493,
				"method": "rhf"
			},
			{
				"type": "occ",
				"energy": -0.25989,
				"method": "rhf"
			},
			{
				"type": "occ",
				"energy": -0.25705,
				"method": "rhf"
			},
			{
				"type": "occ",
				"energy": -0.24664,
				"method": "rhf"
			},
			{
				"type": "unocc",
				"energy": -0.06258,
				"method": "rhf"
			},
			{
				"type": "unocc",
				"energy": -0.04561,
				"method": "rhf"
			},
			{
				"type": "unocc",
				"energy": -0.01691,
				"method": "rhf"
			},
			{
				"type": "unocc",
				"energy": -0.00856,
				"method": "rhf"
			},
			{
				"type": "unocc",
				"energy": 0.04305,
				"method": "rhf"
			}
		],
		"cosmo_sigma_profile": { 
			"-0.025": 0.0,
			"-0.024": 0.0,
			"-0.023": 0.0,
			"-0.022": 0.0,
			"-0.021": 0.0,
			"-0.02": 0.0,
			"-0.019": 0.0,
			"-0.018": 0.0,
			"-0.017": 0.0,
			"-0.016": 0.0,
			"-0.015": 0.0,
			"-0.014": 0.0,
			"-0.013": 0.0,
			"-0.012": 0.0,
			"-0.011": 0.0,
			"-0.01": 0.0,
			"-0.009": 0.0,
			"-0.008": 0.0580386473878,
			"-0.007": 7.41922496411,
			"-0.006": 21.8225855135,
			"-0.005": 26.6964892098,
			"-0.004": 25.6055050378,
			"-0.003": 23.186664417,
			"-0.002": 17.4199919789,
			"-0.001": 18.2467180598,
			"0.0": 17.4185286348,
			"0.001": 18.8884993372,
			"0.002": 23.0108366365,
			"0.003": 25.1329687351,
			"0.004": 14.5224107654,
			"0.005": 5.19242641864,
			"0.006": 4.53011083568,
			"0.007": 4.04334089697,
			"0.008": 2.70224793663,
			"0.009": 4.40555744663,
			"0.01": 4.26082747139,
			"0.011": 6.99798195928,
			"0.012": 6.28446680269,
			"0.013": 0.482766697758,
			"0.014": 0.0,
			"0.015": 0.0,
			"0.016": 0.0,
			"0.017": 0.0,
			"0.018": 0.0,
			"0.019": 0.0,
			"0.02": 0.0,
			"0.021": 0.0,
			"0.022": 0.0,
			"0.023": 0.0,
			"0.024": 0.0,
			"0.025": 0.0
		}
	}
}
