{
	 "smiles": "OC(=O)C1CC2=C(O1)C=CC(Cl)=C2", 
	 "Tm": 389.15, 
	 "num_atms": 20, 
	 "gaussian": { 
		 "optdone": 1, 
		 "sigma_profile": "yes", 
		 "theory": "DFT", 
		 "functional": "B3LYP", 
		 "basiset": "6-31G**", 
		 "properties": { 
			 "R2extent": 3580.6138, 
			 "electric_dipole_moment_norm": 3.21797687531, 
			 "electric_quadrupole_moment_norm": 10.8250927881, 
			 "total_energy": -1033.04260703, 
			 "HOMO_LUMO_gap": 0.20031, 
			 "cosmo_polarized_energy": -13.2, 
			 "cosmo_cavitation_energy": 26.51, 
			 "cosmo_dispersion_energy": -19.62, 
			 "cosmo_repulsion_energy": 1.57, 
			 "cosmo_total_nonelectrostatic_energy": 8.46, 
			 "SMD_solvation_energy": 5.31 
		},
		"coords": [
			{
				"x": 1.0361546118,
				"y": -3.0960876756,
				"z": 1.2450139241,
				"element": "O" 
			},
			{
				"x": 0.9347252904,
				"y": -2.3024260097,
				"z": 0.1501995325,
				"element": "C" 
			},
			{
				"x": 0.8227005482,
				"y": -2.7217549767,
				"z": -0.9742875784,
				"element": "O" 
			},
			{
				"x": 0.9656605024,
				"y": -0.8337945358,
				"z": 0.5713834298,
				"element": "C" 
			},
			{
				"x": -0.3673820892,
				"y": -0.4049228972,
				"z": 1.2612360402,
				"element": "C" 
			},
			{
				"x": -1.0348554113,
				"y": 0.362300477,
				"z": 0.1436339162,
				"element": "C" 
			},
			{
				"x": -0.0972443952,
				"y": 0.5492471291,
				"z": -0.8732483073,
				"element": "C" 
			},
			{
				"x": 1.1200369704,
				"y": -0.0134654344,
				"z": -0.5944979663,
				"element": "O" 
			},
			{
				"x": -0.3888950438,
				"y": 1.2596196945,
				"z": -2.0301267782,
				"element": "C" 
			},
			{
				"x": -1.6758812583,
				"y": 1.7931209169,
				"z": -2.1565468295,
				"element": "C" 
			},
			{
				"x": -2.6173570346,
				"y": 1.6055843868,
				"z": -1.143078517,
				"element": "C" 
			},
			{
				"x": -4.2320896019,
				"y": 2.2830136204,
				"z": -1.3315016747,
				"element": "Cl" 
			},
			{
				"x": -2.3127106697,
				"y": 0.8917047868,
				"z": 0.021694177,
				"element": "C" 
			},
			{
				"x": 0.9898790309,
				"y": -4.0132187152,
				"z": 0.926106016,
				"element": "H" 
			},
			{
				"x": 1.8347296991,
				"y": -0.679023735,
				"z": 1.2159140578,
				"element": "H" 
			},
			{
				"x": -0.1685945255,
				"y": 0.2352557655,
				"z": 2.1284252895,
				"element": "H" 
			},
			{
				"x": -0.9397159121,
				"y": -1.2664994646,
				"z": 1.6152939705,
				"element": "H" 
			},
			{
				"x": 0.3540612671,
				"y": 1.3875030984,
				"z": -2.8090494207,
				"element": "H" 
			},
			{
				"x": -1.9491861665,
				"y": 2.3500664569,
				"z": -3.0457333637,
				"element": "H" 
			},
			{
				"x": -3.0602358124,
				"y": 0.7639771119,
				"z": 0.7972700821,
				"element": "H" 
			}
		],
		 "valence_orbital": [ 
			{
				"type": "occ",
				"energy": -0.30957,
				"method": "rhf"
			},
			{
				"type": "occ",
				"energy": -0.30769,
				"method": "rhf"
			},
			{
				"type": "occ",
				"energy": -0.28686,
				"method": "rhf"
			},
			{
				"type": "occ",
				"energy": -0.26231,
				"method": "rhf"
			},
			{
				"type": "occ",
				"energy": -0.2202,
				"method": "rhf"
			},
			{
				"type": "unocc",
				"energy": -0.01989,
				"method": "rhf"
			},
			{
				"type": "unocc",
				"energy": -0.0075,
				"method": "rhf"
			},
			{
				"type": "unocc",
				"energy": 0.00217,
				"method": "rhf"
			},
			{
				"type": "unocc",
				"energy": 0.03153,
				"method": "rhf"
			},
			{
				"type": "unocc",
				"energy": 0.06351,
				"method": "rhf"
			}
		],
		"cosmo_sigma_profile": { 
			"-0.025": 0.0,
			"-0.024": 0.0,
			"-0.023": 0.0,
			"-0.022": 0.0,
			"-0.021": 0.0,
			"-0.02": 0.00569040308167,
			"-0.019": 0.542129728437,
			"-0.018": 1.09664843516,
			"-0.017": 0.722349096132,
			"-0.016": 0.450393474159,
			"-0.015": 0.90806250371,
			"-0.014": 0.771321015247,
			"-0.013": 0.689931227539,
			"-0.012": 0.844780151398,
			"-0.011": 0.478291482972,
			"-0.01": 0.802918835861,
			"-0.009": 1.34974618016,
			"-0.008": 5.34663386421,
			"-0.007": 10.5966871349,
			"-0.006": 14.118401012,
			"-0.005": 11.694118176,
			"-0.004": 13.0178451848,
			"-0.003": 12.04390852,
			"-0.002": 10.1867552678,
			"-0.001": 8.72200661637,
			"0.0": 11.1962367954,
			"0.001": 12.8828588615,
			"0.002": 17.2705277597,
			"0.003": 21.6039009047,
			"0.004": 15.2993171184,
			"0.005": 12.7807427797,
			"0.006": 4.50435496636,
			"0.007": 3.30124172611,
			"0.008": 3.97206047999,
			"0.009": 3.61642292055,
			"0.01": 4.87873847852,
			"0.011": 5.74896136375,
			"0.012": 2.30302178855,
			"0.013": 0.233515191981,
			"0.014": 0.0,
			"0.015": 0.0,
			"0.016": 0.0,
			"0.017": 0.0,
			"0.018": 0.0,
			"0.019": 0.0,
			"0.02": 0.0,
			"0.021": 0.0,
			"0.022": 0.0,
			"0.023": 0.0,
			"0.024": 0.0,
			"0.025": 0.0
		}
	}
}
