{
	 "smiles": "NC1=CC=C(C=C1)C1=NN=C2CCCCN12", 
	 "Tm": 501.15, 
	 "num_atms": 30, 
	 "gaussian": { 
		 "optdone": 1, 
		 "sigma_profile": "yes", 
		 "theory": "DFT", 
		 "functional": "B3LYP", 
		 "basiset": "6-31G**", 
		 "properties": { 
			 "R2extent": 4569.6343, 
			 "electric_dipole_moment_norm": 6.85288358138, 
			 "electric_quadrupole_moment_norm": 25.2904181292, 
			 "total_energy": -684.723100342, 
			 "HOMO_LUMO_gap": 0.18367, 
			 "cosmo_polarized_energy": -23.04, 
			 "cosmo_cavitation_energy": 32.11, 
			 "cosmo_dispersion_energy": -24.08, 
			 "cosmo_repulsion_energy": 1.86, 
			 "cosmo_total_nonelectrostatic_energy": 9.9, 
			 "SMD_solvation_energy": 2.23 
		},
		"coords": [
			{
				"x": 3.6584705358,
				"y": 4.3435453736,
				"z": -0.0262701032,
				"element": "N" 
			},
			{
				"x": 2.8474455636,
				"y": 3.2336337222,
				"z": -0.2476757491,
				"element": "C" 
			},
			{
				"x": 1.6982892517,
				"y": 3.0115657999,
				"z": 0.5289927421,
				"element": "C" 
			},
			{
				"x": 0.8617830266,
				"y": 1.9299463665,
				"z": 0.2694154329,
				"element": "C" 
			},
			{
				"x": 1.1436121392,
				"y": 1.0213663394,
				"z": -0.7637041783,
				"element": "C" 
			},
			{
				"x": 2.2900340226,
				"y": 1.2570496671,
				"z": -1.5462288312,
				"element": "C" 
			},
			{
				"x": 3.1236565804,
				"y": 2.3365643252,
				"z": -1.2971651567,
				"element": "C" 
			},
			{
				"x": 0.2962086063,
				"y": -0.12626429,
				"z": -1.1062151528,
				"element": "C" 
			},
			{
				"x": 0.2056920499,
				"y": -0.6363184826,
				"z": -2.3219775931,
				"element": "N" 
			},
			{
				"x": -0.6429014852,
				"y": -1.7177656215,
				"z": -2.2736464354,
				"element": "N" 
			},
			{
				"x": -1.0502301917,
				"y": -1.8438885099,
				"z": -1.0321847598,
				"element": "C" 
			},
			{
				"x": -1.9447252454,
				"y": -2.9123115906,
				"z": -0.4787008681,
				"element": "C" 
			},
			{
				"x": -2.4270156666,
				"y": -2.5584828403,
				"z": 0.9380542981,
				"element": "C" 
			},
			{
				"x": -1.255296269,
				"y": -2.0379976949,
				"z": 1.782066713,
				"element": "C" 
			},
			{
				"x": -0.7010686846,
				"y": -0.7327543679,
				"z": 1.2009417109,
				"element": "C" 
			},
			{
				"x": -0.4884494846,
				"y": -0.8678371499,
				"z": -0.2411703409,
				"element": "N" 
			},
			{
				"x": 3.6214610924,
				"y": 4.7364815383,
				"z": 0.9035937763,
				"element": "H" 
			},
			{
				"x": 4.6031370077,
				"y": 4.2716850665,
				"z": -0.3769254374,
				"element": "H" 
			},
			{
				"x": 1.4504354707,
				"y": 3.7041823405,
				"z": 1.3295974452,
				"element": "H" 
			},
			{
				"x": -0.0348558683,
				"y": 1.8195163892,
				"z": 0.8694883151,
				"element": "H" 
			},
			{
				"x": 2.5091804939,
				"y": 0.5726762718,
				"z": -2.3585781118,
				"element": "H" 
			},
			{
				"x": 4.0024451356,
				"y": 2.4941718548,
				"z": -1.9178307414,
				"element": "H" 
			},
			{
				"x": -1.3878034846,
				"y": -3.8586071626,
				"z": -0.4497688008,
				"element": "H" 
			},
			{
				"x": -2.7834514786,
				"y": -3.0704691067,
				"z": -1.1634436262,
				"element": "H" 
			},
			{
				"x": -3.2082567136,
				"y": -1.7886144473,
				"z": 0.8876646466,
				"element": "H" 
			},
			{
				"x": -2.8784311558,
				"y": -3.4373762242,
				"z": 1.4089027289,
				"element": "H" 
			},
			{
				"x": -1.565744136,
				"y": -1.8515522989,
				"z": 2.8155499237,
				"element": "H" 
			},
			{
				"x": -0.4601689642,
				"y": -2.7936022164,
				"z": 1.8152587511,
				"element": "H" 
			},
			{
				"x": 0.2468812845,
				"y": -0.457079091,
				"z": 1.6714121135,
				"element": "H" 
			},
			{
				"x": -1.4135334329,
				"y": 0.0814360395,
				"z": 1.3869472888,
				"element": "H" 
			}
		],
		 "valence_orbital": [ 
			{
				"type": "occ",
				"energy": -0.27083,
				"method": "rhf"
			},
			{
				"type": "occ",
				"energy": -0.25011,
				"method": "rhf"
			},
			{
				"type": "occ",
				"energy": -0.24416,
				"method": "rhf"
			},
			{
				"type": "occ",
				"energy": -0.23031,
				"method": "rhf"
			},
			{
				"type": "occ",
				"energy": -0.19285,
				"method": "rhf"
			},
			{
				"type": "unocc",
				"energy": -0.00918,
				"method": "rhf"
			},
			{
				"type": "unocc",
				"energy": -0.00025,
				"method": "rhf"
			},
			{
				"type": "unocc",
				"energy": 0.04319,
				"method": "rhf"
			},
			{
				"type": "unocc",
				"energy": 0.06822,
				"method": "rhf"
			},
			{
				"type": "unocc",
				"energy": 0.07538,
				"method": "rhf"
			}
		],
		"cosmo_sigma_profile": { 
			"-0.025": 0.0,
			"-0.024": 0.0,
			"-0.023": 0.0,
			"-0.022": 0.0,
			"-0.021": 0.0,
			"-0.02": 0.0,
			"-0.019": 0.0,
			"-0.018": 0.0,
			"-0.017": 0.0,
			"-0.016": 0.0,
			"-0.015": 0.0,
			"-0.014": 0.0,
			"-0.013": 0.984917935424,
			"-0.012": 2.90331420419,
			"-0.011": 2.78919027021,
			"-0.01": 2.93945551117,
			"-0.009": 2.91848944114,
			"-0.008": 3.70414416116,
			"-0.007": 5.52320464125,
			"-0.006": 10.4783577648,
			"-0.005": 20.3740049568,
			"-0.004": 32.5682335954,
			"-0.003": 25.6390345179,
			"-0.002": 20.9807151726,
			"-0.001": 16.9570338194,
			"0.0": 10.6902695333,
			"0.001": 9.00371198406,
			"0.002": 9.65250138447,
			"0.003": 8.65081844855,
			"0.004": 10.1458237051,
			"0.005": 13.2380577693,
			"0.006": 9.75042156818,
			"0.007": 3.88821607917,
			"0.008": 3.0969004483,
			"0.009": 2.52553511122,
			"0.01": 2.28709315062,
			"0.011": 2.95354291202,
			"0.012": 2.73232293542,
			"0.013": 3.28685386709,
			"0.014": 2.92922837323,
			"0.015": 4.11527961111,
			"0.016": 2.70321675316,
			"0.017": 2.13819070611,
			"0.018": 1.14284863251,
			"0.019": 0.0802102526325,
			"0.02": 0.0,
			"0.021": 0.0,
			"0.022": 0.0,
			"0.023": 0.0,
			"0.024": 0.0,
			"0.025": 0.0
		}
	}
}
