{
	 "smiles": "ClC1=CN=C(NC(=O)C2CCNCC2)C=C1", 
	 "Tm": 411.15, 
	 "num_atms": 30, 
	 "gaussian": { 
		 "optdone": 1, 
		 "sigma_profile": "yes", 
		 "theory": "DFT", 
		 "functional": "B3LYP", 
		 "basiset": "6-31G**", 
		 "properties": { 
			 "R2extent": 6703.2532, 
			 "electric_dipole_moment_norm": 5.40718342763, 
			 "electric_quadrupole_moment_norm": 6.07659145245, 
			 "total_energy": -1127.2769734, 
			 "HOMO_LUMO_gap": 0.17179, 
			 "cosmo_polarized_energy": -21.4, 
			 "cosmo_cavitation_energy": 34.62, 
			 "cosmo_dispersion_energy": -25.4, 
			 "cosmo_repulsion_energy": 1.99, 
			 "cosmo_total_nonelectrostatic_energy": 11.21, 
			 "SMD_solvation_energy": 2.02 
		},
		"coords": [
			{
				"x": -0.4146528652,
				"y": 0.1617728697,
				"z": -6.0862114115,
				"element": "Cl" 
			},
			{
				"x": -0.2497630309,
				"y": -0.1806099771,
				"z": -4.3755431203,
				"element": "C" 
			},
			{
				"x": -0.4813199614,
				"y": 0.8195420875,
				"z": -3.4321176198,
				"element": "C" 
			},
			{
				"x": -0.3598102448,
				"y": 0.6203543116,
				"z": -2.1182355859,
				"element": "N" 
			},
			{
				"x": -0.0236924595,
				"y": -0.5980290639,
				"z": -1.6917279812,
				"element": "C" 
			},
			{
				"x": 0.1213935758,
				"y": -0.8154206672,
				"z": -0.3128969893,
				"element": "N" 
			},
			{
				"x": -0.454667958,
				"y": -0.1116434717,
				"z": 0.7471013345,
				"element": "C" 
			},
			{
				"x": -1.2450865799,
				"y": 0.7997231779,
				"z": 0.6065271337,
				"element": "O" 
			},
			{
				"x": 0.0459914906,
				"y": -0.5902287885,
				"z": 2.1169074361,
				"element": "C" 
			},
			{
				"x": 1.4862567558,
				"y": -0.0456963102,
				"z": 2.355830596,
				"element": "C" 
			},
			{
				"x": 1.8171346739,
				"y": -0.0329623261,
				"z": 3.8494600643,
				"element": "C" 
			},
			{
				"x": 0.9620746962,
				"y": 0.9377675049,
				"z": 4.5492984267,
				"element": "N" 
			},
			{
				"x": -0.3761705541,
				"y": 1.1101373185,
				"z": 3.9555014092,
				"element": "C" 
			},
			{
				"x": -0.9089057732,
				"y": -0.1468724156,
				"z": 3.2534877673,
				"element": "C" 
			},
			{
				"x": 0.2258854357,
				"y": -1.6699754152,
				"z": -2.569440398,
				"element": "C" 
			},
			{
				"x": 0.1179753125,
				"y": -1.4526340574,
				"z": -3.9359395291,
				"element": "C" 
			},
			{
				"x": -0.7638615046,
				"y": 1.8199452679,
				"z": -3.7512908879,
				"element": "H" 
			},
			{
				"x": 0.6343094564,
				"y": -1.6477450796,
				"z": -0.0610395106,
				"element": "H" 
			},
			{
				"x": 0.0980740464,
				"y": -1.6882842111,
				"z": 2.1037574841,
				"element": "H" 
			},
			{
				"x": 2.2217730919,
				"y": -0.6485394335,
				"z": 1.8130415714,
				"element": "H" 
			},
			{
				"x": 1.5675807335,
				"y": 0.9765078029,
				"z": 1.9686041487,
				"element": "H" 
			},
			{
				"x": 1.7075593952,
				"y": -1.0632987053,
				"z": 4.2358840361,
				"element": "H" 
			},
			{
				"x": 2.8697627491,
				"y": 0.2429715206,
				"z": 3.9945578382,
				"element": "H" 
			},
			{
				"x": 0.8721026573,
				"y": 0.6654768615,
				"z": 5.5222093187,
				"element": "H" 
			},
			{
				"x": -1.0627390265,
				"y": 1.4274555639,
				"z": 4.7468101926,
				"element": "H" 
			},
			{
				"x": -0.3507538544,
				"y": 1.9286881361,
				"z": 3.225519187,
				"element": "H" 
			},
			{
				"x": -1.902686672,
				"y": 0.0505073198,
				"z": 2.8422428746,
				"element": "H" 
			},
			{
				"x": -1.0049945672,
				"y": -0.9591330195,
				"z": 3.9839591242,
				"element": "H" 
			},
			{
				"x": 0.4897465222,
				"y": -2.6523878128,
				"z": -2.1882380868,
				"element": "H" 
			},
			{
				"x": 0.3034844593,
				"y": -2.2512889882,
				"z": -4.6459188229,
				"element": "H" 
			}
		],
		 "valence_orbital": [ 
			{
				"type": "occ",
				"energy": -0.29745,
				"method": "rhf"
			},
			{
				"type": "occ",
				"energy": -0.27806,
				"method": "rhf"
			},
			{
				"type": "occ",
				"energy": -0.24244,
				"method": "rhf"
			},
			{
				"type": "occ",
				"energy": -0.23432,
				"method": "rhf"
			},
			{
				"type": "occ",
				"energy": -0.20909,
				"method": "rhf"
			},
			{
				"type": "unocc",
				"energy": -0.0373,
				"method": "rhf"
			},
			{
				"type": "unocc",
				"energy": -0.02809,
				"method": "rhf"
			},
			{
				"type": "unocc",
				"energy": 0.02403,
				"method": "rhf"
			},
			{
				"type": "unocc",
				"energy": 0.03138,
				"method": "rhf"
			},
			{
				"type": "unocc",
				"energy": 0.05437,
				"method": "rhf"
			}
		],
		"cosmo_sigma_profile": { 
			"-0.025": 0.0,
			"-0.024": 0.0,
			"-0.023": 0.0,
			"-0.022": 0.0,
			"-0.021": 0.0,
			"-0.02": 0.0,
			"-0.019": 0.0,
			"-0.018": 0.0,
			"-0.017": 0.0,
			"-0.016": 0.261915883197,
			"-0.015": 1.11813717846,
			"-0.014": 1.72582973035,
			"-0.013": 0.943713458085,
			"-0.012": 1.77218582794,
			"-0.011": 2.14207951646,
			"-0.01": 2.01621384067,
			"-0.009": 3.99459804172,
			"-0.008": 7.26296267295,
			"-0.007": 8.44502261698,
			"-0.006": 8.18836627025,
			"-0.005": 8.57808320839,
			"-0.004": 13.4561816624,
			"-0.003": 21.3673005361,
			"-0.002": 29.9090981835,
			"-0.001": 27.4136138662,
			"0.0": 32.6248417195,
			"0.001": 24.5545900923,
			"0.002": 13.6680104804,
			"0.003": 9.5462595811,
			"0.004": 14.5073296739,
			"0.005": 5.75525758837,
			"0.006": 4.02376472163,
			"0.007": 3.05895795238,
			"0.008": 2.20999736693,
			"0.009": 2.3135140882,
			"0.01": 3.63240440272,
			"0.011": 3.15090815424,
			"0.012": 3.07576229269,
			"0.013": 4.69948322415,
			"0.014": 2.37977166935,
			"0.015": 1.85079846074,
			"0.016": 1.57127425962,
			"0.017": 1.75074337536,
			"0.018": 1.50768191577,
			"0.019": 0.468859681875,
			"0.02": 0.0,
			"0.021": 0.0,
			"0.022": 0.0,
			"0.023": 0.0,
			"0.024": 0.0,
			"0.025": 0.0
		}
	}
}
