{
	 "smiles": "OC(=O)C1=C(I)C=C(F)C=C1", 
	 "Tm": 418.15, 
	 "num_atms": 15, 
	 "gaussian": { 
		 "optdone": 1, 
		 "sigma_profile": "yes", 
		 "theory": "DFT", 
		 "functional": "B3LYP", 
		 "basiset": "6-31G**", 
		 "properties": { 
			 "R2extent": 2036.6163, 
			 "electric_dipole_moment_norm": 3.52207026619, 
			 "electric_quadrupole_moment_norm": 13.9768324741, 
			 "total_energy": -530.821635735, 
			 "HOMO_LUMO_gap": 0.19824, 
			 "cosmo_polarized_energy": -10.58, 
			 "cosmo_cavitation_energy": 23.26, 
			 "cosmo_dispersion_energy": -18.54, 
			 "cosmo_repulsion_energy": 1.41, 
			 "cosmo_total_nonelectrostatic_energy": 6.14, 
			 "SMD_solvation_energy": 4.89 
		},
		"coords": [
			{
				"x": 2.5868333733,
				"y": -2.1170712506,
				"z": 0.0682363918,
				"element": "O" 
			},
			{
				"x": 1.8117116973,
				"y": -1.4466184907,
				"z": 0.9423250491,
				"element": "C" 
			},
			{
				"x": 1.7440582682,
				"y": -1.81895572,
				"z": 2.0912826603,
				"element": "O" 
			},
			{
				"x": 0.982963381,
				"y": -0.2759274171,
				"z": 0.4557785092,
				"element": "C" 
			},
			{
				"x": 1.2226346738,
				"y": 0.6032244713,
				"z": -0.6172005223,
				"element": "C" 
			},
			{
				"x": 2.9544660489,
				"y": 0.5366646832,
				"z": -1.8662563067,
				"element": "I" 
			},
			{
				"x": 0.3391983709,
				"y": 1.6436148566,
				"z": -0.9138482737,
				"element": "C" 
			},
			{
				"x": -0.7989926995,
				"y": 1.8023419777,
				"z": -0.1323427496,
				"element": "C" 
			},
			{
				"x": -1.6464041408,
				"y": 2.7995290352,
				"z": -0.430827357,
				"element": "F" 
			},
			{
				"x": -1.0740438571,
				"y": 0.9683595651,
				"z": 0.9445976327,
				"element": "C" 
			},
			{
				"x": -0.1751074088,
				"y": -0.0499507241,
				"z": 1.226233399,
				"element": "C" 
			},
			{
				"x": 2.5592502495,
				"y": -1.7269309128,
				"z": -0.8201214787,
				"element": "H" 
			},
			{
				"x": 0.5197777539,
				"y": 2.3319817371,
				"z": -1.7298580818,
				"element": "H" 
			},
			{
				"x": -1.9660356917,
				"y": 1.1247528726,
				"z": 1.5403682613,
				"element": "H" 
			},
			{
				"x": -0.3395100188,
				"y": -0.7112146834,
				"z": 2.0692328663,
				"element": "H" 
			}
		],
		 "valence_orbital": [ 
			{
				"type": "occ",
				"energy": -0.32026,
				"method": "rhf"
			},
			{
				"type": "occ",
				"energy": -0.29673,
				"method": "rhf"
			},
			{
				"type": "occ",
				"energy": -0.28801,
				"method": "rhf"
			},
			{
				"type": "occ",
				"energy": -0.27373,
				"method": "rhf"
			},
			{
				"type": "occ",
				"energy": -0.2682,
				"method": "rhf"
			},
			{
				"type": "unocc",
				"energy": -0.06996,
				"method": "rhf"
			},
			{
				"type": "unocc",
				"energy": -0.06059,
				"method": "rhf"
			},
			{
				"type": "unocc",
				"energy": -0.04365,
				"method": "rhf"
			},
			{
				"type": "unocc",
				"energy": 0.03153,
				"method": "rhf"
			},
			{
				"type": "unocc",
				"energy": 0.03562,
				"method": "rhf"
			}
		],
		"cosmo_sigma_profile": { 
			"-0.025": 0.0,
			"-0.024": 0.0,
			"-0.023": 0.0,
			"-0.022": 0.0,
			"-0.021": 0.0,
			"-0.02": 0.0,
			"-0.019": 0.0,
			"-0.018": 0.0,
			"-0.017": 0.0,
			"-0.016": 0.0,
			"-0.015": 0.0,
			"-0.014": 0.514030464616,
			"-0.013": 1.09736979179,
			"-0.012": 0.598914850522,
			"-0.011": 1.32276346185,
			"-0.01": 1.18517519771,
			"-0.009": 1.98504514937,
			"-0.008": 5.36290490237,
			"-0.007": 8.09367555298,
			"-0.006": 7.50579433709,
			"-0.005": 8.01391442246,
			"-0.004": 9.51148205797,
			"-0.003": 11.6961041072,
			"-0.002": 12.2962471127,
			"-0.001": 20.4121237284,
			"0.0": 21.2952775156,
			"0.001": 18.9084264282,
			"0.002": 14.2111500631,
			"0.003": 15.3803549443,
			"0.004": 5.31946398899,
			"0.005": 2.46077689387,
			"0.006": 2.49318686514,
			"0.007": 2.38182224495,
			"0.008": 2.34727582021,
			"0.009": 3.78688931492,
			"0.01": 4.87307112216,
			"0.011": 5.10346901192,
			"0.012": 3.68714039997,
			"0.013": 0.874495598674,
			"0.014": 0.0,
			"0.015": 0.0,
			"0.016": 0.0,
			"0.017": 0.0,
			"0.018": 0.0,
			"0.019": 0.0,
			"0.02": 0.0,
			"0.021": 0.0,
			"0.022": 0.0,
			"0.023": 0.0,
			"0.024": 0.0,
			"0.025": 0.0
		}
	}
}
