{
	 "smiles": "O=C1CC2=C1C=CC1=C2C=CC=C1", 
	 "Tm": 345.15, 
	 "num_atms": 21, 
	 "gaussian": { 
		 "optdone": 1, 
		 "sigma_profile": "yes", 
		 "theory": "DFT", 
		 "functional": "B3LYP", 
		 "basiset": "6-31G**", 
		 "properties": { 
			 "R2extent": 2516.0797, 
			 "electric_dipole_moment_norm": 4.1475759776, 
			 "electric_quadrupole_moment_norm": 9.53333918572, 
			 "total_energy": -537.293559941, 
			 "HOMO_LUMO_gap": 0.16669, 
			 "cosmo_polarized_energy": -8.53, 
			 "cosmo_cavitation_energy": 25.33, 
			 "cosmo_dispersion_energy": -18.71, 
			 "cosmo_repulsion_energy": 1.46, 
			 "cosmo_total_nonelectrostatic_energy": 8.09, 
			 "SMD_solvation_energy": 4.4 
		},
		"coords": [
			{
				"x": 2.0228919972,
				"y": -0.8147674861,
				"z": 3.0247856681,
				"element": "O" 
			},
			{
				"x": 1.6030404112,
				"y": -0.4136783229,
				"z": 1.968766184,
				"element": "C" 
			},
			{
				"x": 2.1695007772,
				"y": -0.4215748688,
				"z": 0.49569677,
				"element": "C" 
			},
			{
				"x": 0.8553999754,
				"y": 0.2841951499,
				"z": 0.176225098,
				"element": "C" 
			},
			{
				"x": 0.3752170853,
				"y": 0.2816309884,
				"z": 1.4746738594,
				"element": "C" 
			},
			{
				"x": -0.8748028819,
				"y": 0.829853413,
				"z": 1.8385109705,
				"element": "C" 
			},
			{
				"x": -1.614281645,
				"y": 1.3820116566,
				"z": 0.8149115303,
				"element": "C" 
			},
			{
				"x": -1.1522395068,
				"y": 1.4042424867,
				"z": -0.5419262999,
				"element": "C" 
			},
			{
				"x": 0.1265011595,
				"y": 0.8402045394,
				"z": -0.8960613705,
				"element": "C" 
			},
			{
				"x": 0.5613633021,
				"y": 0.874545208,
				"z": -2.2457541856,
				"element": "C" 
			},
			{
				"x": -0.2311348258,
				"y": 1.4435028803,
				"z": -3.2187533738,
				"element": "C" 
			},
			{
				"x": -1.487991223,
				"y": 1.999452332,
				"z": -2.8793029049,
				"element": "C" 
			},
			{
				"x": -1.93622641,
				"y": 1.9801005,
				"z": -1.5752882113,
				"element": "C" 
			},
			{
				"x": 3.0883576763,
				"y": 0.1594382627,
				"z": 0.3569694073,
				"element": "H" 
			},
			{
				"x": 2.3106209346,
				"y": -1.4200295579,
				"z": 0.0663944178,
				"element": "H" 
			},
			{
				"x": -1.2364983727,
				"y": 0.819715105,
				"z": 2.861444375,
				"element": "H" 
			},
			{
				"x": -2.5864170395,
				"y": 1.8223067463,
				"z": 1.0221356142,
				"element": "H" 
			},
			{
				"x": 1.5271243758,
				"y": 0.4455931965,
				"z": -2.4972125885,
				"element": "H" 
			},
			{
				"x": 0.1052942297,
				"y": 1.4678658714,
				"z": -4.2509781815,
				"element": "H" 
			},
			{
				"x": -2.1026887781,
				"y": 2.4448392909,
				"z": -3.6561189239,
				"element": "H" 
			},
			{
				"x": -2.9024312415,
				"y": 2.4090526086,
				"z": -1.3226178547,
				"element": "H" 
			}
		],
		 "valence_orbital": [ 
			{
				"type": "occ",
				"energy": -0.33348,
				"method": "rhf"
			},
			{
				"type": "occ",
				"energy": -0.29323,
				"method": "rhf"
			},
			{
				"type": "occ",
				"energy": -0.25764,
				"method": "rhf"
			},
			{
				"type": "occ",
				"energy": -0.24551,
				"method": "rhf"
			},
			{
				"type": "occ",
				"energy": -0.22787,
				"method": "rhf"
			},
			{
				"type": "unocc",
				"energy": -0.06118,
				"method": "rhf"
			},
			{
				"type": "unocc",
				"energy": -0.04523,
				"method": "rhf"
			},
			{
				"type": "unocc",
				"energy": 0.02003,
				"method": "rhf"
			},
			{
				"type": "unocc",
				"energy": 0.02712,
				"method": "rhf"
			},
			{
				"type": "unocc",
				"energy": 0.08662,
				"method": "rhf"
			}
		],
		"cosmo_sigma_profile": { 
			"-0.025": 0.0,
			"-0.024": 0.0,
			"-0.023": 0.0,
			"-0.022": 0.0,
			"-0.021": 0.0,
			"-0.02": 0.0,
			"-0.019": 0.0,
			"-0.018": 0.0,
			"-0.017": 0.0,
			"-0.016": 0.0,
			"-0.015": 0.0,
			"-0.014": 0.0,
			"-0.013": 0.0,
			"-0.012": 0.0,
			"-0.011": 0.0,
			"-0.01": 0.0,
			"-0.009": 0.0,
			"-0.008": 0.0328931796892,
			"-0.007": 3.87119819257,
			"-0.006": 16.1168373146,
			"-0.005": 18.2100842335,
			"-0.004": 19.3533968242,
			"-0.003": 16.3161168973,
			"-0.002": 15.0851640388,
			"-0.001": 12.0570951699,
			"0.0": 12.3911386386,
			"0.001": 14.3989338892,
			"0.002": 18.4546668385,
			"0.003": 21.1029440923,
			"0.004": 14.5609086769,
			"0.005": 2.44915398568,
			"0.006": 1.71147013017,
			"0.007": 1.1049761277,
			"0.008": 1.80000454131,
			"0.009": 2.24757820243,
			"0.01": 2.92847192414,
			"0.011": 4.78183207794,
			"0.012": 4.32635112223,
			"0.013": 0.8763679483,
			"0.014": 0.0,
			"0.015": 0.0,
			"0.016": 0.0,
			"0.017": 0.0,
			"0.018": 0.0,
			"0.019": 0.0,
			"0.02": 0.0,
			"0.021": 0.0,
			"0.022": 0.0,
			"0.023": 0.0,
			"0.024": 0.0,
			"0.025": 0.0
		}
	}
}
