{
	 "smiles": "OC(=O)C1=CC=CN=C1SCC=C", 
	 "Tm": 421.15, 
	 "num_atms": 22, 
	 "gaussian": { 
		 "optdone": 1, 
		 "sigma_profile": "yes", 
		 "theory": "DFT", 
		 "functional": "B3LYP", 
		 "basiset": "6-31G**", 
		 "properties": { 
			 "R2extent": 4034.9356, 
			 "electric_dipole_moment_norm": 4.93844020112, 
			 "electric_quadrupole_moment_norm": 26.3609283148, 
			 "total_energy": -951.748589266, 
			 "HOMO_LUMO_gap": 0.18581, 
			 "cosmo_polarized_energy": -11.99, 
			 "cosmo_cavitation_energy": 28.06, 
			 "cosmo_dispersion_energy": -20.2, 
			 "cosmo_repulsion_energy": 1.56, 
			 "cosmo_total_nonelectrostatic_energy": 9.42, 
			 "SMD_solvation_energy": 5.79 
		},
		"coords": [
			{
				"x": -1.5348445473,
				"y": 3.2008886183,
				"z": 1.192986426,
				"element": "O" 
			},
			{
				"x": -0.2741555177,
				"y": 3.6412646688,
				"z": 1.3337599916,
				"element": "C" 
			},
			{
				"x": -0.0363946098,
				"y": 4.8291912083,
				"z": 1.3136042974,
				"element": "O" 
			},
			{
				"x": 0.8471862641,
				"y": 2.6316348023,
				"z": 1.4726333694,
				"element": "C" 
			},
			{
				"x": 2.134173891,
				"y": 3.1465099082,
				"z": 1.2598214758,
				"element": "C" 
			},
			{
				"x": 3.2425841962,
				"y": 2.3107143404,
				"z": 1.2962255887,
				"element": "C" 
			},
			{
				"x": 3.0276966668,
				"y": 0.9572240891,
				"z": 1.5510758956,
				"element": "C" 
			},
			{
				"x": 1.8194230237,
				"y": 0.444263502,
				"z": 1.798167738,
				"element": "N" 
			},
			{
				"x": 0.7575303958,
				"y": 1.2519246964,
				"z": 1.7687395365,
				"element": "C" 
			},
			{
				"x": -0.8087642312,
				"y": 0.4863016514,
				"z": 2.227117636,
				"element": "S" 
			},
			{
				"x": -0.599117411,
				"y": -1.2202269188,
				"z": 1.535600457,
				"element": "C" 
			},
			{
				"x": -0.7212717964,
				"y": -1.2728970205,
				"z": 0.0450607363,
				"element": "C" 
			},
			{
				"x": 0.2820172913,
				"y": -1.606327724,
				"z": -0.7682785622,
				"element": "C" 
			},
			{
				"x": -1.5799764442,
				"y": 2.2226306329,
				"z": 1.2207184837,
				"element": "H" 
			},
			{
				"x": 2.2216143358,
				"y": 4.2081610064,
				"z": 1.0563881269,
				"element": "H" 
			},
			{
				"x": 4.2437446809,
				"y": 2.6912108097,
				"z": 1.124802716,
				"element": "H" 
			},
			{
				"x": 3.8569561568,
				"y": 0.2527582084,
				"z": 1.5702765749,
				"element": "H" 
			},
			{
				"x": -1.3930050514,
				"y": -1.7851514364,
				"z": 2.0346608857,
				"element": "H" 
			},
			{
				"x": 0.3706410649,
				"y": -1.5773835498,
				"z": 1.8841212154,
				"element": "H" 
			},
			{
				"x": -1.6951149128,
				"y": -1.0135475486,
				"z": -0.3679073592,
				"element": "H" 
			},
			{
				"x": 0.1515898434,
				"y": -1.6390613054,
				"z": -1.8457003573,
				"element": "H" 
			},
			{
				"x": 1.2660867112,
				"y": -1.8578826392,
				"z": -0.3824748722,
				"element": "H" 
			}
		],
		 "valence_orbital": [ 
			{
				"type": "occ",
				"energy": -0.29602,
				"method": "rhf"
			},
			{
				"type": "occ",
				"energy": -0.28807,
				"method": "rhf"
			},
			{
				"type": "occ",
				"energy": -0.2749,
				"method": "rhf"
			},
			{
				"type": "occ",
				"energy": -0.2675,
				"method": "rhf"
			},
			{
				"type": "occ",
				"energy": -0.24776,
				"method": "rhf"
			},
			{
				"type": "unocc",
				"energy": -0.06195,
				"method": "rhf"
			},
			{
				"type": "unocc",
				"energy": -0.04671,
				"method": "rhf"
			},
			{
				"type": "unocc",
				"energy": -0.00881,
				"method": "rhf"
			},
			{
				"type": "unocc",
				"energy": 0.02595,
				"method": "rhf"
			},
			{
				"type": "unocc",
				"energy": 0.04147,
				"method": "rhf"
			}
		],
		"cosmo_sigma_profile": { 
			"-0.025": 0.0,
			"-0.024": 0.0,
			"-0.023": 0.0,
			"-0.022": 0.0,
			"-0.021": 0.0,
			"-0.02": 0.0,
			"-0.019": 0.0,
			"-0.018": 0.0,
			"-0.017": 0.0,
			"-0.016": 0.0,
			"-0.015": 0.0,
			"-0.014": 0.0,
			"-0.013": 0.0,
			"-0.012": 0.0,
			"-0.011": 0.0,
			"-0.01": 0.199057254817,
			"-0.009": 0.63104642734,
			"-0.008": 5.00237823893,
			"-0.007": 10.7589009139,
			"-0.006": 13.2493271796,
			"-0.005": 15.4937771443,
			"-0.004": 16.1580332602,
			"-0.003": 18.5948596427,
			"-0.002": 16.7600826043,
			"-0.001": 18.6263494861,
			"0.0": 21.5431059742,
			"0.001": 17.4607315387,
			"0.002": 10.1819637972,
			"0.003": 10.896498307,
			"0.004": 10.1773764463,
			"0.005": 7.29663395249,
			"0.006": 6.44539554784,
			"0.007": 4.367941988,
			"0.008": 2.87211137182,
			"0.009": 4.11539172868,
			"0.01": 5.19195867833,
			"0.011": 5.44050454871,
			"0.012": 3.79511970364,
			"0.013": 1.46772661288,
			"0.014": 0.00199649299296,
			"0.015": 0.0,
			"0.016": 0.0,
			"0.017": 0.0,
			"0.018": 0.0,
			"0.019": 0.0,
			"0.02": 0.0,
			"0.021": 0.0,
			"0.022": 0.0,
			"0.023": 0.0,
			"0.024": 0.0,
			"0.025": 0.0
		}
	}
}
