{
	 "smiles": "COCCNC1=NC(Cl)=NC(Cl)=N1", 
	 "Tm": 345.15, 
	 "num_atms": 21, 
	 "gaussian": { 
		 "optdone": 1, 
		 "sigma_profile": "yes", 
		 "theory": "DFT", 
		 "functional": "B3LYP", 
		 "basiset": "6-31G**", 
		 "properties": { 
			 "R2extent": 6411.1967, 
			 "electric_dipole_moment_norm": 5.83755276636, 
			 "electric_quadrupole_moment_norm": 12.701917743, 
			 "total_energy": -1448.07450414, 
			 "HOMO_LUMO_gap": 0.2079, 
			 "cosmo_polarized_energy": -9.9, 
			 "cosmo_cavitation_energy": 29.69, 
			 "cosmo_dispersion_energy": -22.33, 
			 "cosmo_repulsion_energy": 1.85, 
			 "cosmo_total_nonelectrostatic_energy": 9.21, 
			 "SMD_solvation_energy": 0.5 
		},
		"coords": [
			{
				"x": 1.84457288,
				"y": 1.752960141,
				"z": 3.478238625,
				"element": "C" 
			},
			{
				"x": 1.1021002289,
				"y": 0.9382134218,
				"z": 2.5908483542,
				"element": "O" 
			},
			{
				"x": 0.9655327701,
				"y": 1.4986481366,
				"z": 1.2973990106,
				"element": "C" 
			},
			{
				"x": 0.2252164668,
				"y": 0.4817939248,
				"z": 0.4403171653,
				"element": "C" 
			},
			{
				"x": 0.9472835564,
				"y": -0.7804297662,
				"z": 0.4397234567,
				"element": "N" 
			},
			{
				"x": 1.1238897399,
				"y": -1.5857830312,
				"z": -0.6182656149,
				"element": "C" 
			},
			{
				"x": 1.8142727486,
				"y": -2.7359335831,
				"z": -0.4008402255,
				"element": "N" 
			},
			{
				"x": 1.9577534181,
				"y": -3.4769930822,
				"z": -1.4772151716,
				"element": "C" 
			},
			{
				"x": 2.8335486145,
				"y": -4.9754409011,
				"z": -1.2769834233,
				"element": "Cl" 
			},
			{
				"x": 1.5163358347,
				"y": -3.2283324662,
				"z": -2.7130679841,
				"element": "N" 
			},
			{
				"x": 0.8609994013,
				"y": -2.0721658901,
				"z": -2.7861608553,
				"element": "C" 
			},
			{
				"x": 0.2441002986,
				"y": -1.6490445712,
				"z": -4.3658909933,
				"element": "Cl" 
			},
			{
				"x": 0.6192136843,
				"y": -1.2107584385,
				"z": -1.8180813352,
				"element": "N" 
			},
			{
				"x": 1.8954313949,
				"y": 1.2273050912,
				"z": 4.434158744,
				"element": "H" 
			},
			{
				"x": 2.8670207048,
				"y": 1.9275639787,
				"z": 3.1103261913,
				"element": "H" 
			},
			{
				"x": 1.3595089069,
				"y": 2.728446421,
				"z": 3.6329697175,
				"element": "H" 
			},
			{
				"x": 0.3951233144,
				"y": 2.4408812127,
				"z": 1.3315390151,
				"element": "H" 
			},
			{
				"x": 1.9549188712,
				"y": 1.7156213467,
				"z": 0.862873245,
				"element": "H" 
			},
			{
				"x": -0.7864856254,
				"y": 0.3373514036,
				"z": 0.8412238885,
				"element": "H" 
			},
			{
				"x": 0.135552592,
				"y": 0.8327485661,
				"z": -0.5887804774,
				"element": "H" 
			},
			{
				"x": 1.319810199,
				"y": -1.1021519145,
				"z": 1.3232686673,
				"element": "H" 
			}
		],
		 "valence_orbital": [ 
			{
				"type": "occ",
				"energy": -0.30114,
				"method": "rhf"
			},
			{
				"type": "occ",
				"energy": -0.28864,
				"method": "rhf"
			},
			{
				"type": "occ",
				"energy": -0.2881,
				"method": "rhf"
			},
			{
				"type": "occ",
				"energy": -0.2802,
				"method": "rhf"
			},
			{
				"type": "occ",
				"energy": -0.26095,
				"method": "rhf"
			},
			{
				"type": "unocc",
				"energy": -0.05305,
				"method": "rhf"
			},
			{
				"type": "unocc",
				"energy": -0.0324,
				"method": "rhf"
			},
			{
				"type": "unocc",
				"energy": 0.0181,
				"method": "rhf"
			},
			{
				"type": "unocc",
				"energy": 0.04772,
				"method": "rhf"
			},
			{
				"type": "unocc",
				"energy": 0.0721,
				"method": "rhf"
			}
		],
		"cosmo_sigma_profile": { 
			"-0.025": 0.0,
			"-0.024": 0.0,
			"-0.023": 0.0,
			"-0.022": 0.0,
			"-0.021": 0.0,
			"-0.02": 0.0,
			"-0.019": 0.0,
			"-0.018": 0.0,
			"-0.017": 0.0,
			"-0.016": 0.0,
			"-0.015": 0.0,
			"-0.014": 0.0,
			"-0.013": 0.0,
			"-0.012": 0.634255921847,
			"-0.011": 0.772133071491,
			"-0.01": 0.360256587169,
			"-0.009": 0.816385369305,
			"-0.008": 0.928339280269,
			"-0.007": 2.39538605709,
			"-0.006": 5.5833907633,
			"-0.005": 15.9302037321,
			"-0.004": 28.7728983058,
			"-0.003": 26.5879907987,
			"-0.002": 25.9833714222,
			"-0.001": 17.7272333347,
			"0.0": 14.7374067454,
			"0.001": 13.7179329945,
			"0.002": 15.486024159,
			"0.003": 21.9078354688,
			"0.004": 12.7230344675,
			"0.005": 9.74349953964,
			"0.006": 6.66892289571,
			"0.007": 4.64471519105,
			"0.008": 4.46806798344,
			"0.009": 3.52847978995,
			"0.01": 2.70649791808,
			"0.011": 2.98204459067,
			"0.012": 1.17548564195,
			"0.013": 0.303088755403,
			"0.014": 0.0,
			"0.015": 0.0,
			"0.016": 0.0,
			"0.017": 0.0,
			"0.018": 0.0,
			"0.019": 0.0,
			"0.02": 0.0,
			"0.021": 0.0,
			"0.022": 0.0,
			"0.023": 0.0,
			"0.024": 0.0,
			"0.025": 0.0
		}
	}
}
