{
	 "smiles": "ClCC1CN(C(=O)O1)C1=CC=CC=C1", 
	 "Tm": 377.15, 
	 "num_atms": 24, 
	 "gaussian": { 
		 "optdone": 1, 
		 "sigma_profile": "yes", 
		 "theory": "DFT", 
		 "functional": "B3LYP", 
		 "basiset": "6-31G**", 
		 "properties": { 
			 "R2extent": 4501.5478, 
			 "electric_dipole_moment_norm": 5.23129890563, 
			 "electric_quadrupole_moment_norm": 12.7376657029, 
			 "total_energy": -1052.50014331, 
			 "HOMO_LUMO_gap": 0.21661, 
			 "cosmo_polarized_energy": -16.52, 
			 "cosmo_cavitation_energy": 29.23, 
			 "cosmo_dispersion_energy": -21.91, 
			 "cosmo_repulsion_energy": 1.72, 
			 "cosmo_total_nonelectrostatic_energy": 9.04, 
			 "SMD_solvation_energy": 5.11 
		},
		"coords": [
			{
				"x": -0.936427657,
				"y": 2.9892698546,
				"z": 4.5173702831,
				"element": "Cl" 
			},
			{
				"x": -1.4282930838,
				"y": 1.7902940559,
				"z": 3.2621177088,
				"element": "C" 
			},
			{
				"x": -0.243260485,
				"y": 1.245184532,
				"z": 2.4861554904,
				"element": "C" 
			},
			{
				"x": -0.6448828126,
				"y": 0.115575877,
				"z": 1.5157017134,
				"element": "C" 
			},
			{
				"x": 0.1260157618,
				"y": 0.4532443131,
				"z": 0.3300265676,
				"element": "N" 
			},
			{
				"x": 0.6053951238,
				"y": 1.7554756217,
				"z": 0.4044836566,
				"element": "C" 
			},
			{
				"x": 1.1860373163,
				"y": 2.3988975328,
				"z": -0.4342323654,
				"element": "O" 
			},
			{
				"x": 0.3155307926,
				"y": 2.261375756,
				"z": 1.644903049,
				"element": "O" 
			},
			{
				"x": 0.1623520855,
				"y": -0.3821584734,
				"z": -0.8142022953,
				"element": "C" 
			},
			{
				"x": -0.6075303602,
				"y": -1.5567952058,
				"z": -0.8269018491,
				"element": "C" 
			},
			{
				"x": -0.5750891464,
				"y": -2.4082199799,
				"z": -1.9316600692,
				"element": "C" 
			},
			{
				"x": 0.2185548632,
				"y": -2.1065645556,
				"z": -3.0363222612,
				"element": "C" 
			},
			{
				"x": 0.9828060033,
				"y": -0.9379621447,
				"z": -3.0212445149,
				"element": "C" 
			},
			{
				"x": 0.9660260606,
				"y": -0.0767440146,
				"z": -1.9267822638,
				"element": "C" 
			},
			{
				"x": -1.9422731535,
				"y": 0.9777741704,
				"z": 3.7809639386,
				"element": "H" 
			},
			{
				"x": -2.1242275754,
				"y": 2.2916617671,
				"z": 2.587086416,
				"element": "H" 
			},
			{
				"x": 0.5362810617,
				"y": 0.9095053809,
				"z": 3.1792453877,
				"element": "H" 
			},
			{
				"x": -1.7247190991,
				"y": 0.1162034111,
				"z": 1.3037115186,
				"element": "H" 
			},
			{
				"x": -0.3751033044,
				"y": -0.8692009996,
				"z": 1.9083564009,
				"element": "H" 
			},
			{
				"x": -1.2381204254,
				"y": -1.8155654185,
				"z": 0.0159571592,
				"element": "H" 
			},
			{
				"x": -1.1789572329,
				"y": -3.3110373643,
				"z": -1.9205857784,
				"element": "H" 
			},
			{
				"x": 0.2421816031,
				"y": -2.7700753853,
				"z": -3.8951692691,
				"element": "H" 
			},
			{
				"x": 1.6077351233,
				"y": -0.6868432035,
				"z": -3.8735353848,
				"element": "H" 
			},
			{
				"x": 1.5549685404,
				"y": 0.8291044726,
				"z": -1.9275432386,
				"element": "H" 
			}
		],
		 "valence_orbital": [ 
			{
				"type": "occ",
				"energy": -0.30797,
				"method": "rhf"
			},
			{
				"type": "occ",
				"energy": -0.30215,
				"method": "rhf"
			},
			{
				"type": "occ",
				"energy": -0.28439,
				"method": "rhf"
			},
			{
				"type": "occ",
				"energy": -0.25618,
				"method": "rhf"
			},
			{
				"type": "occ",
				"energy": -0.22646,
				"method": "rhf"
			},
			{
				"type": "unocc",
				"energy": -0.00985,
				"method": "rhf"
			},
			{
				"type": "unocc",
				"energy": -0.00699,
				"method": "rhf"
			},
			{
				"type": "unocc",
				"energy": 0.00937,
				"method": "rhf"
			},
			{
				"type": "unocc",
				"energy": 0.0462,
				"method": "rhf"
			},
			{
				"type": "unocc",
				"energy": 0.07157,
				"method": "rhf"
			}
		],
		"cosmo_sigma_profile": { 
			"-0.025": 0.0,
			"-0.024": 0.0,
			"-0.023": 0.0,
			"-0.022": 0.0,
			"-0.021": 0.0,
			"-0.02": 0.0,
			"-0.019": 0.0,
			"-0.018": 0.0,
			"-0.017": 0.0,
			"-0.016": 0.0,
			"-0.015": 0.0,
			"-0.014": 0.0,
			"-0.013": 0.0,
			"-0.012": 0.0,
			"-0.011": 0.0,
			"-0.01": 0.669075396192,
			"-0.009": 5.89846841644,
			"-0.008": 14.4046318718,
			"-0.007": 15.8551774786,
			"-0.006": 13.3426085181,
			"-0.005": 14.3494105506,
			"-0.004": 13.7481516072,
			"-0.003": 12.4438032716,
			"-0.002": 10.0500186694,
			"-0.001": 11.7024009252,
			"0.0": 9.9907373183,
			"0.001": 12.0643653466,
			"0.002": 12.4460214493,
			"0.003": 13.9779623322,
			"0.004": 15.6440753059,
			"0.005": 19.3285263587,
			"0.006": 16.1084296656,
			"0.007": 3.8481981781,
			"0.008": 3.70840425542,
			"0.009": 3.76375631144,
			"0.01": 3.5431935821,
			"0.011": 3.55437033643,
			"0.012": 3.34671927658,
			"0.013": 1.50809292425,
			"0.014": 0.018307341985,
			"0.015": 0.0,
			"0.016": 0.0,
			"0.017": 0.0,
			"0.018": 0.0,
			"0.019": 0.0,
			"0.02": 0.0,
			"0.021": 0.0,
			"0.022": 0.0,
			"0.023": 0.0,
			"0.024": 0.0,
			"0.025": 0.0
		}
	}
}
