{
	 "smiles": "CCCCNC1=NC2=C(S1)C=C(C)C=C2", 
	 "Tm": 344.15, 
	 "num_atms": 31, 
	 "gaussian": { 
		 "optdone": 1, 
		 "sigma_profile": "yes", 
		 "theory": "DFT", 
		 "functional": "B3LYP", 
		 "basiset": "6-31G**", 
		 "properties": { 
			 "R2extent": 5021.958, 
			 "electric_dipole_moment_norm": 1.8618407397, 
			 "electric_quadrupole_moment_norm": 11.7902064965, 
			 "total_energy": -974.642249205, 
			 "HOMO_LUMO_gap": 0.19329, 
			 "cosmo_polarized_energy": -9.39, 
			 "cosmo_cavitation_energy": 34.71, 
			 "cosmo_dispersion_energy": -25.26, 
			 "cosmo_repulsion_energy": 1.96, 
			 "cosmo_total_nonelectrostatic_energy": 11.41, 
			 "SMD_solvation_energy": 3.84 
		},
		"coords": [
			{
				"x": -3.5943164763,
				"y": 0.5630669638,
				"z": 1.0835313871,
				"element": "C" 
			},
			{
				"x": -3.1601679128,
				"y": 1.3471832893,
				"z": 2.3276759317,
				"element": "C" 
			},
			{
				"x": -2.9765784187,
				"y": 2.8547476998,
				"z": 2.0942112444,
				"element": "C" 
			},
			{
				"x": -1.8627622151,
				"y": 3.2375026918,
				"z": 1.1065881656,
				"element": "C" 
			},
			{
				"x": -0.5302341424,
				"y": 2.8289411392,
				"z": 1.5432726933,
				"element": "N" 
			},
			{
				"x": 0.2013523966,
				"y": 1.8671848649,
				"z": 0.9235790302,
				"element": "C" 
			},
			{
				"x": -0.1696250615,
				"y": 1.2032433165,
				"z": -0.1295688877,
				"element": "N" 
			},
			{
				"x": 0.8136792878,
				"y": 0.3067109528,
				"z": -0.5209879692,
				"element": "C" 
			},
			{
				"x": 1.9863334916,
				"y": 0.2834882255,
				"z": 0.2691294895,
				"element": "C" 
			},
			{
				"x": 1.8293699473,
				"y": 1.4645581692,
				"z": 1.5712982271,
				"element": "S" 
			},
			{
				"x": 3.0493882414,
				"y": -0.5727048039,
				"z": -0.0084155589,
				"element": "C" 
			},
			{
				"x": 2.9607329617,
				"y": -1.4382531955,
				"z": -1.1047428505,
				"element": "C" 
			},
			{
				"x": 4.0995475054,
				"y": -2.3715672889,
				"z": -1.4471196094,
				"element": "C" 
			},
			{
				"x": 1.7939198913,
				"y": -1.4178674972,
				"z": -1.8926309514,
				"element": "C" 
			},
			{
				"x": 0.7313215936,
				"y": -0.5638767558,
				"z": -1.615510327,
				"element": "C" 
			},
			{
				"x": -2.8188143678,
				"y": 0.5747468592,
				"z": 0.3118900482,
				"element": "H" 
			},
			{
				"x": -4.5144472672,
				"y": 0.9781541533,
				"z": 0.6544261924,
				"element": "H" 
			},
			{
				"x": -3.7912550035,
				"y": -0.4841564188,
				"z": 1.3354891397,
				"element": "H" 
			},
			{
				"x": -2.2246983245,
				"y": 0.9259251089,
				"z": 2.7167982333,
				"element": "H" 
			},
			{
				"x": -3.9060391684,
				"y": 1.214883236,
				"z": 3.121682298,
				"element": "H" 
			},
			{
				"x": -2.7819639425,
				"y": 3.3507241941,
				"z": 3.0557007057,
				"element": "H" 
			},
			{
				"x": -3.9135909286,
				"y": 3.2867271142,
				"z": 1.7160525312,
				"element": "H" 
			},
			{
				"x": -2.0242575584,
				"y": 2.7773672887,
				"z": 0.1308513361,
				"element": "H" 
			},
			{
				"x": -1.864551453,
				"y": 4.325332943,
				"z": 0.9593935677,
				"element": "H" 
			},
			{
				"x": -0.1532354578,
				"y": 3.2444572036,
				"z": 2.3807351221,
				"element": "H" 
			},
			{
				"x": 3.9396361373,
				"y": -0.5736052683,
				"z": 0.6140998942,
				"element": "H" 
			},
			{
				"x": 3.7516415153,
				"y": -3.4048642792,
				"z": -1.5575776749,
				"element": "H" 
			},
			{
				"x": 4.8718551243,
				"y": -2.3612307998,
				"z": -0.6727280771,
				"element": "H" 
			},
			{
				"x": 4.5775658647,
				"y": -2.0912016463,
				"z": -2.3937892308,
				"element": "H" 
			},
			{
				"x": 1.7226189596,
				"y": -2.0917214253,
				"z": -2.7430156996,
				"element": "H" 
			},
			{
				"x": -0.1632252195,
				"y": -0.5593960347,
				"z": -2.230018401,
				"element": "H" 
			}
		],
		 "valence_orbital": [ 
			{
				"type": "occ",
				"energy": -0.29019,
				"method": "rhf"
			},
			{
				"type": "occ",
				"energy": -0.27129,
				"method": "rhf"
			},
			{
				"type": "occ",
				"energy": -0.26699,
				"method": "rhf"
			},
			{
				"type": "occ",
				"energy": -0.22356,
				"method": "rhf"
			},
			{
				"type": "occ",
				"energy": -0.19487,
				"method": "rhf"
			},
			{
				"type": "unocc",
				"energy": -0.00158,
				"method": "rhf"
			},
			{
				"type": "unocc",
				"energy": 0.00378,
				"method": "rhf"
			},
			{
				"type": "unocc",
				"energy": 0.00554,
				"method": "rhf"
			},
			{
				"type": "unocc",
				"energy": 0.05422,
				"method": "rhf"
			},
			{
				"type": "unocc",
				"energy": 0.08097,
				"method": "rhf"
			}
		],
		"cosmo_sigma_profile": { 
			"-0.025": 0.0,
			"-0.024": 0.0,
			"-0.023": 0.0,
			"-0.022": 0.0,
			"-0.021": 0.0,
			"-0.02": 0.0,
			"-0.019": 0.0,
			"-0.018": 0.0,
			"-0.017": 0.0,
			"-0.016": 0.0,
			"-0.015": 0.90649245953,
			"-0.014": 1.09797637955,
			"-0.013": 1.1577354089,
			"-0.012": 1.18333390863,
			"-0.011": 1.41412463969,
			"-0.01": 1.2536410363,
			"-0.009": 1.20084911581,
			"-0.008": 1.12768283195,
			"-0.007": 1.42467143508,
			"-0.006": 4.44105456998,
			"-0.005": 9.55841173575,
			"-0.004": 15.4070686563,
			"-0.003": 22.5143777179,
			"-0.002": 30.3742091232,
			"-0.001": 29.5572027531,
			"0.0": 34.011641546,
			"0.001": 29.4223269111,
			"0.002": 21.1926933338,
			"0.003": 16.1457314016,
			"0.004": 16.2046027852,
			"0.005": 15.9049913981,
			"0.006": 11.9136754622,
			"0.007": 3.19515406795,
			"0.008": 1.57798023652,
			"0.009": 0.833772206112,
			"0.01": 0.754602703205,
			"0.011": 0.822036503667,
			"0.012": 0.622307966107,
			"0.013": 0.432520821805,
			"0.014": 0.00246624893597,
			"0.015": 0.0,
			"0.016": 0.0,
			"0.017": 0.0,
			"0.018": 0.0,
			"0.019": 0.0,
			"0.02": 0.0,
			"0.021": 0.0,
			"0.022": 0.0,
			"0.023": 0.0,
			"0.024": 0.0,
			"0.025": 0.0
		}
	}
}
