{
	 "smiles": "BrC1=CC2=C(OCCOCCOCCOCCO2)C=C1", 
	 "Tm": 341.65, 
	 "num_atms": 39, 
	 "gaussian": { 
		 "optdone": 1, 
		 "sigma_profile": "yes", 
		 "theory": "DFT", 
		 "functional": "B3LYP", 
		 "basiset": "6-31G**", 
		 "properties": { 
			 "R2extent": 12065.0087, 
			 "electric_dipole_moment_norm": 4.73322118963, 
			 "electric_quadrupole_moment_norm": 18.9989312405, 
			 "total_energy": -3492.38731387, 
			 "HOMO_LUMO_gap": 0.20793, 
			 "cosmo_polarized_energy": -17.44, 
			 "cosmo_cavitation_energy": 42.2, 
			 "cosmo_dispersion_energy": -29.84, 
			 "cosmo_repulsion_energy": 2.28, 
			 "cosmo_total_nonelectrostatic_energy": 14.64, 
			 "SMD_solvation_energy": 5.72 
		},
		"coords": [
			{
				"x": -5.7591141645,
				"y": -0.5864493943,
				"z": 3.8129749011,
				"element": "Br" 
			},
			{
				"x": -4.2209728825,
				"y": -1.0438924498,
				"z": 2.7722173043,
				"element": "C" 
			},
			{
				"x": -3.4839884849,
				"y": -0.0305315464,
				"z": 2.1580091782,
				"element": "C" 
			},
			{
				"x": -2.3666186716,
				"y": -0.3528780279,
				"z": 1.3928626916,
				"element": "C" 
			},
			{
				"x": -1.9787207269,
				"y": -1.7032337319,
				"z": 1.2425289778,
				"element": "C" 
			},
			{
				"x": -0.8750036064,
				"y": -1.925498076,
				"z": 0.4733190961,
				"element": "O" 
			},
			{
				"x": -0.5841758913,
				"y": -3.2579955903,
				"z": 0.0508534015,
				"element": "C" 
			},
			{
				"x": 0.4925840467,
				"y": -3.1956809248,
				"z": -1.0239698678,
				"element": "C" 
			},
			{
				"x": 0.0106000781,
				"y": -2.7193045849,
				"z": -2.2642356595,
				"element": "O" 
			},
			{
				"x": 0.0632205697,
				"y": -1.3018881136,
				"z": -2.4532316809,
				"element": "C" 
			},
			{
				"x": 1.4257514838,
				"y": -0.8760438218,
				"z": -3.0102786172,
				"element": "C" 
			},
			{
				"x": 1.4437627836,
				"y": 0.5277559118,
				"z": -3.2310009183,
				"element": "O" 
			},
			{
				"x": 2.25305677,
				"y": 1.287478887,
				"z": -2.3555276455,
				"element": "C" 
			},
			{
				"x": 1.8117439438,
				"y": 1.3113070919,
				"z": -0.8950394025,
				"element": "C" 
			},
			{
				"x": 0.5301338627,
				"y": 1.9009826094,
				"z": -0.8019598497,
				"element": "O" 
			},
			{
				"x": 0.1128176557,
				"y": 2.2055970625,
				"z": 0.5154303136,
				"element": "C" 
			},
			{
				"x": -0.4313782297,
				"y": 1.0237760243,
				"z": 1.3069530516,
				"element": "C" 
			},
			{
				"x": -1.6945019683,
				"y": 0.6507364675,
				"z": 0.7407583206,
				"element": "O" 
			},
			{
				"x": -2.7261335487,
				"y": -2.7020051539,
				"z": 1.8715263565,
				"element": "C" 
			},
			{
				"x": -3.8496378613,
				"y": -2.3756526715,
				"z": 2.6380942402,
				"element": "C" 
			},
			{
				"x": -3.7710914954,
				"y": 1.010436665,
				"z": 2.2467409099,
				"element": "H" 
			},
			{
				"x": -1.4852485947,
				"y": -3.7285588011,
				"z": -0.3618624919,
				"element": "H" 
			},
			{
				"x": -0.228877667,
				"y": -3.8582757442,
				"z": 0.9023011132,
				"element": "H" 
			},
			{
				"x": 0.8550691914,
				"y": -4.2166686326,
				"z": -1.1952631127,
				"element": "H" 
			},
			{
				"x": 1.340396786,
				"y": -2.6013890222,
				"z": -0.6523539365,
				"element": "H" 
			},
			{
				"x": -0.1761725049,
				"y": -0.757099379,
				"z": -1.5360361467,
				"element": "H" 
			},
			{
				"x": -0.7112498759,
				"y": -1.0606729066,
				"z": -3.1871665389,
				"element": "H" 
			},
			{
				"x": 1.5980091338,
				"y": -1.3773134488,
				"z": -3.9705932745,
				"element": "H" 
			},
			{
				"x": 2.2361189439,
				"y": -1.1856672497,
				"z": -2.3333802139,
				"element": "H" 
			},
			{
				"x": 2.2252843679,
				"y": 2.3094916589,
				"z": -2.7457300421,
				"element": "H" 
			},
			{
				"x": 3.2995629643,
				"y": 0.9380107957,
				"z": -2.3848522252,
				"element": "H" 
			},
			{
				"x": 2.5541030992,
				"y": 1.9002961257,
				"z": -0.3274058078,
				"element": "H" 
			},
			{
				"x": 1.8185638948,
				"y": 0.2940467054,
				"z": -0.4721821127,
				"element": "H" 
			},
			{
				"x": 0.9388852527,
				"y": 2.6571331422,
				"z": 1.0903413612,
				"element": "H" 
			},
			{
				"x": -0.6826048744,
				"y": 2.9513747811,
				"z": 0.418551772,
				"element": "H" 
			},
			{
				"x": 0.2587189996,
				"y": 0.1721017617,
				"z": 1.2900771477,
				"element": "H" 
			},
			{
				"x": -0.5716372208,
				"y": 1.3320167503,
				"z": 2.3538056493,
				"element": "H" 
			},
			{
				"x": -2.4441577635,
				"y": -3.743427513,
				"z": 1.7710228793,
				"element": "H" 
			},
			{
				"x": -4.425397795,
				"y": -3.1578156563,
				"z": 3.1188008785,
				"element": "H" 
			}
		],
		 "valence_orbital": [ 
			{
				"type": "occ",
				"energy": -0.27216,
				"method": "rhf"
			},
			{
				"type": "occ",
				"energy": -0.26307,
				"method": "rhf"
			},
			{
				"type": "occ",
				"energy": -0.2535,
				"method": "rhf"
			},
			{
				"type": "occ",
				"energy": -0.23944,
				"method": "rhf"
			},
			{
				"type": "occ",
				"energy": -0.22001,
				"method": "rhf"
			},
			{
				"type": "unocc",
				"energy": -0.01208,
				"method": "rhf"
			},
			{
				"type": "unocc",
				"energy": -0.00344,
				"method": "rhf"
			},
			{
				"type": "unocc",
				"energy": 0.00881,
				"method": "rhf"
			},
			{
				"type": "unocc",
				"energy": 0.06075,
				"method": "rhf"
			},
			{
				"type": "unocc",
				"energy": 0.08477,
				"method": "rhf"
			}
		],
		"cosmo_sigma_profile": { 
			"-0.025": 0.0,
			"-0.024": 0.0,
			"-0.023": 0.0,
			"-0.022": 0.0,
			"-0.021": 0.0,
			"-0.02": 0.0,
			"-0.019": 0.0,
			"-0.018": 0.0,
			"-0.017": 0.0,
			"-0.016": 0.0,
			"-0.015": 0.0,
			"-0.014": 0.0,
			"-0.013": 0.0,
			"-0.012": 0.0,
			"-0.011": 0.0,
			"-0.01": 0.0,
			"-0.009": 0.0,
			"-0.008": 0.500433134487,
			"-0.007": 5.6575707086,
			"-0.006": 16.0894317484,
			"-0.005": 41.473239525,
			"-0.004": 41.3432774532,
			"-0.003": 30.2507025407,
			"-0.002": 24.9416326478,
			"-0.001": 17.9165341703,
			"0.0": 16.1082598964,
			"0.001": 17.5606266842,
			"0.002": 22.0465002035,
			"0.003": 25.186401164,
			"0.004": 21.1438746561,
			"0.005": 14.6155284931,
			"0.006": 6.30972066205,
			"0.007": 5.06795706204,
			"0.008": 5.12720363957,
			"0.009": 4.43866721713,
			"0.01": 4.13485595933,
			"0.011": 4.86998696654,
			"0.012": 4.75407087122,
			"0.013": 4.46104852278,
			"0.014": 0.696553760634,
			"0.015": 0.0,
			"0.016": 0.0,
			"0.017": 0.0,
			"0.018": 0.0,
			"0.019": 0.0,
			"0.02": 0.0,
			"0.021": 0.0,
			"0.022": 0.0,
			"0.023": 0.0,
			"0.024": 0.0,
			"0.025": 0.0
		}
	}
}
