{
	 "smiles": "CC=C/C(C)=C", 
	 "Tm": 348.65, 
	 "num_atms": 16, 
	 "gaussian": { 
		 "optdone": 1, 
		 "sigma_profile": "yes", 
		 "theory": "DFT", 
		 "functional": "B3LYP", 
		 "basiset": "6-31G**", 
		 "properties": { 
			 "R2extent": 877.3435, 
			 "electric_dipole_moment_norm": 0.286731320229, 
			 "electric_quadrupole_moment_norm": 2.72677072927, 
			 "total_energy": -234.632623896, 
			 "HOMO_LUMO_gap": 0.21518, 
			 "cosmo_polarized_energy": -2.1, 
			 "cosmo_cavitation_energy": 18.84, 
			 "cosmo_dispersion_energy": -13.51, 
			 "cosmo_repulsion_energy": 1.17, 
			 "cosmo_total_nonelectrostatic_energy": 6.5, 
			 "SMD_solvation_energy": 4.22 
		},
		"coords": [
			{
				"x": -0.3411054055,
				"y": 0.3065881144,
				"z": -3.25330158,
				"element": "C" 
			},
			{
				"x": -0.6561065295,
				"y": 1.1825027839,
				"z": -2.0750644432,
				"element": "C" 
			},
			{
				"x": -0.4213061455,
				"y": 0.9365434942,
				"z": -0.7751745795,
				"element": "C" 
			},
			{
				"x": 0.2285627764,
				"y": -0.2424571074,
				"z": -0.1653653593,
				"element": "C" 
			},
			{
				"x": -0.4213808501,
				"y": -0.7536729176,
				"z": 1.1016501971,
				"element": "C" 
			},
			{
				"x": 1.3405089117,
				"y": -0.8099840057,
				"z": -0.6589487909,
				"element": "C" 
			},
			{
				"x": -0.0918440299,
				"y": -0.7129676548,
				"z": -2.9503532884,
				"element": "H" 
			},
			{
				"x": 0.50772529,
				"y": 0.7005305564,
				"z": -3.8286135678,
				"element": "H" 
			},
			{
				"x": -1.193151442,
				"y": 0.2718883964,
				"z": -3.9427225788,
				"element": "H" 
			},
			{
				"x": -1.1585291443,
				"y": 2.1198824512,
				"z": -2.3139771031,
				"element": "H" 
			},
			{
				"x": -0.792711334,
				"y": 1.6709707088,
				"z": -0.0584858774,
				"element": "H" 
			},
			{
				"x": -0.4745064951,
				"y": 0.0387034656,
				"z": 1.8593855107,
				"element": "H" 
			},
			{
				"x": 0.130758645,
				"y": -1.5952159746,
				"z": 1.528281303,
				"element": "H" 
			},
			{
				"x": -1.452712382,
				"y": -1.0766084848,
				"z": 0.9143109145,
				"element": "H" 
			},
			{
				"x": 1.8456931599,
				"y": -0.4157174802,
				"z": -1.5340682892,
				"element": "H" 
			},
			{
				"x": 1.7926049747,
				"y": -1.6742863457,
				"z": -0.1800524678,
				"element": "H" 
			}
		],
		 "valence_orbital": [ 
			{
				"type": "occ",
				"energy": -0.36818,
				"method": "rhf"
			},
			{
				"type": "occ",
				"energy": -0.35343,
				"method": "rhf"
			},
			{
				"type": "occ",
				"energy": -0.3239,
				"method": "rhf"
			},
			{
				"type": "occ",
				"energy": -0.27587,
				"method": "rhf"
			},
			{
				"type": "occ",
				"energy": -0.22185,
				"method": "rhf"
			},
			{
				"type": "unocc",
				"energy": -0.00667,
				"method": "rhf"
			},
			{
				"type": "unocc",
				"energy": 0.06505,
				"method": "rhf"
			},
			{
				"type": "unocc",
				"energy": 0.10262,
				"method": "rhf"
			},
			{
				"type": "unocc",
				"energy": 0.12703,
				"method": "rhf"
			},
			{
				"type": "unocc",
				"energy": 0.13499,
				"method": "rhf"
			}
		],
		"cosmo_sigma_profile": { 
			"-0.025": 0.0,
			"-0.024": 0.0,
			"-0.023": 0.0,
			"-0.022": 0.0,
			"-0.021": 0.0,
			"-0.02": 0.0,
			"-0.019": 0.0,
			"-0.018": 0.0,
			"-0.017": 0.0,
			"-0.016": 0.0,
			"-0.015": 0.0,
			"-0.014": 0.0,
			"-0.013": 0.0,
			"-0.012": 0.0,
			"-0.011": 0.0,
			"-0.01": 0.0,
			"-0.009": 0.0,
			"-0.008": 0.0,
			"-0.007": 0.0,
			"-0.006": 0.0,
			"-0.005": 0.910689684194,
			"-0.004": 12.3671218152,
			"-0.003": 19.3364129144,
			"-0.002": 18.5091367019,
			"-0.001": 19.9701489668,
			"0.0": 22.9331522363,
			"0.001": 15.3988814567,
			"0.002": 9.61754860199,
			"0.003": 6.91499901325,
			"0.004": 7.60116617268,
			"0.005": 6.22020891649,
			"0.006": 5.2930475544,
			"0.007": 2.71781569946,
			"0.008": 0.0446023372031,
			"0.009": 0.0,
			"0.01": 0.0,
			"0.011": 0.0,
			"0.012": 0.0,
			"0.013": 0.0,
			"0.014": 0.0,
			"0.015": 0.0,
			"0.016": 0.0,
			"0.017": 0.0,
			"0.018": 0.0,
			"0.019": 0.0,
			"0.02": 0.0,
			"0.021": 0.0,
			"0.022": 0.0,
			"0.023": 0.0,
			"0.024": 0.0,
			"0.025": 0.0
		}
	}
}
