{
	 "smiles": "NC=S", 
	 "Tm": 299.65, 
	 "num_atms": 6, 
	 "gaussian": { 
		 "optdone": 1, 
		 "sigma_profile": "yes", 
		 "theory": "DFT", 
		 "functional": "B3LYP", 
		 "basiset": "6-31G**", 
		 "properties": { 
			 "R2extent": 515.6485, 
			 "electric_dipole_moment_norm": 4.67773220909, 
			 "electric_quadrupole_moment_norm": 7.84904491833, 
			 "total_energy": -492.850874295, 
			 "HOMO_LUMO_gap": 0.17755, 
			 "cosmo_polarized_energy": -14.67, 
			 "cosmo_cavitation_energy": 11.51, 
			 "cosmo_dispersion_energy": -9.26, 
			 "cosmo_repulsion_energy": 0.84, 
			 "cosmo_total_nonelectrostatic_energy": 3.09, 
			 "SMD_solvation_energy": 1.97 
		},
		"coords": [
			{
				"x": -0.9496990601,
				"y": 1.0662182345,
				"z": 1.479980365,
				"element": "N" 
			},
			{
				"x": -0.7753562477,
				"y": 0.0451166575,
				"z": 0.6241374775,
				"element": "C" 
			},
			{
				"x": -1.8474207552,
				"y": -1.1750727237,
				"z": 0.3387901389,
				"element": "S" 
			},
			{
				"x": -0.2482326771,
				"y": 1.7808694558,
				"z": 1.6046169031,
				"element": "H" 
			},
			{
				"x": -1.805576525,
				"y": 1.1230279281,
				"z": 2.0150275507,
				"element": "H" 
			},
			{
				"x": 0.186385265,
				"y": 0.0930404477,
				"z": 0.1054475649,
				"element": "H" 
			}
		],
		 "valence_orbital": [ 
			{
				"type": "occ",
				"energy": -0.47718,
				"method": "rhf"
			},
			{
				"type": "occ",
				"energy": -0.384,
				"method": "rhf"
			},
			{
				"type": "occ",
				"energy": -0.3691,
				"method": "rhf"
			},
			{
				"type": "occ",
				"energy": -0.23916,
				"method": "rhf"
			},
			{
				"type": "occ",
				"energy": -0.21293,
				"method": "rhf"
			},
			{
				"type": "unocc",
				"energy": -0.03538,
				"method": "rhf"
			},
			{
				"type": "unocc",
				"energy": 0.05592,
				"method": "rhf"
			},
			{
				"type": "unocc",
				"energy": 0.09428,
				"method": "rhf"
			},
			{
				"type": "unocc",
				"energy": 0.10355,
				"method": "rhf"
			},
			{
				"type": "unocc",
				"energy": 0.18847,
				"method": "rhf"
			}
		],
		"cosmo_sigma_profile": { 
			"-0.025": 0.0,
			"-0.024": 0.0,
			"-0.023": 0.0,
			"-0.022": 0.0,
			"-0.021": 0.0,
			"-0.02": 0.0,
			"-0.019": 0.0,
			"-0.018": 0.0,
			"-0.017": 0.0212092513354,
			"-0.016": 1.73219217699,
			"-0.015": 2.97816346603,
			"-0.014": 2.83741680338,
			"-0.013": 2.86144659137,
			"-0.012": 2.77363747545,
			"-0.011": 2.02480600357,
			"-0.01": 2.969123528,
			"-0.009": 3.50750159329,
			"-0.008": 2.76052416682,
			"-0.007": 2.407767461,
			"-0.006": 2.62316918449,
			"-0.005": 2.15503748186,
			"-0.004": 2.68481853755,
			"-0.003": 1.72912217329,
			"-0.002": 1.92232608761,
			"-0.001": 2.56779776972,
			"0.0": 3.17012872345,
			"0.001": 2.76237053483,
			"0.002": 3.91247781276,
			"0.003": 2.9538260937,
			"0.004": 3.53900714894,
			"0.005": 3.47346739618,
			"0.006": 4.54564798285,
			"0.007": 3.90835694415,
			"0.008": 6.60554982409,
			"0.009": 6.58985398124,
			"0.01": 4.34869449829,
			"0.011": 3.17985753777,
			"0.012": 3.43743709008,
			"0.013": 1.14778433531,
			"0.014": 0.00494927862129,
			"0.015": 0.0,
			"0.016": 0.0,
			"0.017": 0.0,
			"0.018": 0.0,
			"0.019": 0.0,
			"0.02": 0.0,
			"0.021": 0.0,
			"0.022": 0.0,
			"0.023": 0.0,
			"0.024": 0.0,
			"0.025": 0.0
		}
	}
}
