{
	 "smiles": "O=C(OCC1=CC=CC=C1)C=P(C1=CC=CC=C1)(C1=CC=CC=C1)C1=CC=CC=C1", 
	 "Tm": 397.15, 
	 "num_atms": 53, 
	 "gaussian": { 
		 "optdone": 1, 
		 "sigma_profile": "yes", 
		 "theory": "DFT", 
		 "functional": "B3LYP", 
		 "basiset": "6-31G**", 
		 "properties": { 
			 "R2extent": 12230.9448, 
			 "electric_dipole_moment_norm": 6.83642753052, 
			 "electric_quadrupole_moment_norm": 23.5013595932, 
			 "total_energy": -1534.51293375, 
			 "HOMO_LUMO_gap": 0.14764, 
			 "cosmo_polarized_energy": -19.85, 
			 "cosmo_cavitation_energy": 58.5, 
			 "cosmo_dispersion_energy": -35.79, 
			 "cosmo_repulsion_energy": 2.7, 
			 "cosmo_total_nonelectrostatic_energy": 25.41, 
			 "SMD_solvation_energy": 10.93 
		},
		"coords": [
			{
				"x": -2.551265141,
				"y": 1.057753316,
				"z": 2.9387351687,
				"element": "O" 
			},
			{
				"x": -1.7334497569,
				"y": 0.702857108,
				"z": 2.1011984423,
				"element": "C" 
			},
			{
				"x": -0.7377620062,
				"y": 1.5849666036,
				"z": 1.6646189339,
				"element": "O" 
			},
			{
				"x": -0.7374301871,
				"y": 2.8636570554,
				"z": 2.3173296495,
				"element": "C" 
			},
			{
				"x": 0.3812210474,
				"y": 3.7018113257,
				"z": 1.7495436733,
				"element": "C" 
			},
			{
				"x": 1.6854328402,
				"y": 3.1943884491,
				"z": 1.6572332661,
				"element": "C" 
			},
			{
				"x": 2.7204811309,
				"y": 3.9877082713,
				"z": 1.164792263,
				"element": "C" 
			},
			{
				"x": 2.4706909067,
				"y": 5.3029743552,
				"z": 0.7628303616,
				"element": "C" 
			},
			{
				"x": 1.17700642,
				"y": 5.8166890981,
				"z": 0.8520205564,
				"element": "C" 
			},
			{
				"x": 0.139584301,
				"y": 5.0171982118,
				"z": 1.3380984913,
				"element": "C" 
			},
			{
				"x": -1.6401554542,
				"y": -0.5745956784,
				"z": 1.471307581,
				"element": "C" 
			},
			{
				"x": -0.4492402553,
				"y": -1.0889012053,
				"z": 0.3546647554,
				"element": "P" 
			},
			{
				"x": -0.4489888377,
				"y": -0.3509826379,
				"z": -1.3372614322,
				"element": "C" 
			},
			{
				"x": -0.2112242751,
				"y": -1.141286911,
				"z": -2.4732304552,
				"element": "C" 
			},
			{
				"x": -0.2284568616,
				"y": -0.568563263,
				"z": -3.746602337,
				"element": "C" 
			},
			{
				"x": -0.4842718941,
				"y": 0.794871469,
				"z": -3.8969433957,
				"element": "C" 
			},
			{
				"x": -0.7227239266,
				"y": 1.5856994762,
				"z": -2.7705795937,
				"element": "C" 
			},
			{
				"x": -0.7077392585,
				"y": 1.0202787449,
				"z": -1.4959020403,
				"element": "C" 
			},
			{
				"x": -0.742080014,
				"y": -2.8760975615,
				"z": 0.0926721311,
				"element": "C" 
			},
			{
				"x": 0.2675013296,
				"y": -3.82820202,
				"z": 0.2864896415,
				"element": "C" 
			},
			{
				"x": -0.0008382791,
				"y": -5.185540368,
				"z": 0.0955244254,
				"element": "C" 
			},
			{
				"x": -1.2753912678,
				"y": -5.6015929653,
				"z": -0.2892394732,
				"element": "C" 
			},
			{
				"x": -2.2859261613,
				"y": -4.6570123697,
				"z": -0.4863183476,
				"element": "C" 
			},
			{
				"x": -2.0227516487,
				"y": -3.3008895449,
				"z": -0.300618766,
				"element": "C" 
			},
			{
				"x": 1.2808283449,
				"y": -0.9016029686,
				"z": 0.9474178537,
				"element": "C" 
			},
			{
				"x": 1.510459926,
				"y": -0.9405155419,
				"z": 2.3305346784,
				"element": "C" 
			},
			{
				"x": 2.8088134587,
				"y": -0.8340517278,
				"z": 2.8293163955,
				"element": "C" 
			},
			{
				"x": 3.8859694582,
				"y": -0.6853940533,
				"z": 1.9518179462,
				"element": "C" 
			},
			{
				"x": 3.6625624026,
				"y": -0.6415877882,
				"z": 0.5741384441,
				"element": "C" 
			},
			{
				"x": 2.3644732208,
				"y": -0.7458659642,
				"z": 0.0713240548,
				"element": "C" 
			},
			{
				"x": -1.7070581977,
				"y": 3.3526047775,
				"z": 2.1801591276,
				"element": "H" 
			},
			{
				"x": -0.6125365262,
				"y": 2.7113627078,
				"z": 3.3966790156,
				"element": "H" 
			},
			{
				"x": 1.8818131213,
				"y": 2.1721364596,
				"z": 1.9656271119,
				"element": "H" 
			},
			{
				"x": 3.7252246262,
				"y": 3.5795999686,
				"z": 1.0955823007,
				"element": "H" 
			},
			{
				"x": 3.2790207644,
				"y": 5.9207370124,
				"z": 0.3814941348,
				"element": "H" 
			},
			{
				"x": 0.9716362698,
				"y": 6.8365003153,
				"z": 0.5383245142,
				"element": "H" 
			},
			{
				"x": -0.8689679762,
				"y": 5.419001852,
				"z": 1.3991199771,
				"element": "H" 
			},
			{
				"x": -2.3870232902,
				"y": -1.309164032,
				"z": 1.7394192611,
				"element": "H" 
			},
			{
				"x": -0.0208028895,
				"y": -2.2047624479,
				"z": -2.3693895514,
				"element": "H" 
			},
			{
				"x": -0.0467730752,
				"y": -1.1901880197,
				"z": -4.6187679034,
				"element": "H" 
			},
			{
				"x": -0.5005006516,
				"y": 1.2392654977,
				"z": -4.8880905488,
				"element": "H" 
			},
			{
				"x": -0.9221938619,
				"y": 2.6474395101,
				"z": -2.8826344289,
				"element": "H" 
			},
			{
				"x": -0.8882114653,
				"y": 1.6346747394,
				"z": -0.6210326181,
				"element": "H" 
			},
			{
				"x": 1.259857186,
				"y": -3.5140502219,
				"z": 0.5917634834,
				"element": "H" 
			},
			{
				"x": 0.7877329202,
				"y": -5.9158094787,
				"z": 0.251699068,
				"element": "H" 
			},
			{
				"x": -1.4823381659,
				"y": -6.6577848187,
				"z": -0.4353941128,
				"element": "H" 
			},
			{
				"x": -3.2799298713,
				"y": -4.9756783374,
				"z": -0.7859855632,
				"element": "H" 
			},
			{
				"x": -2.812076408,
				"y": -2.5718839936,
				"z": -0.4559664925,
				"element": "H" 
			},
			{
				"x": 0.6645349563,
				"y": -1.0409180607,
				"z": 3.0039784993,
				"element": "H" 
			},
			{
				"x": 2.9785293079,
				"y": -0.8609687367,
				"z": 3.9017486807,
				"element": "H" 
			},
			{
				"x": 4.8963990341,
				"y": -0.5990929136,
				"z": 2.3413299333,
				"element": "H" 
			},
			{
				"x": 4.496999221,
				"y": -0.5184600514,
				"z": -0.1101902731,
				"element": "H" 
			},
			{
				"x": 2.1966354102,
				"y": -0.6953326433,
				"z": -0.9995864879,
				"element": "H" 
			}
		],
		 "valence_orbital": [ 
			{
				"type": "occ",
				"energy": -0.25757,
				"method": "rhf"
			},
			{
				"type": "occ",
				"energy": -0.2417,
				"method": "rhf"
			},
			{
				"type": "occ",
				"energy": -0.23908,
				"method": "rhf"
			},
			{
				"type": "occ",
				"energy": -0.22305,
				"method": "rhf"
			},
			{
				"type": "occ",
				"energy": -0.18343,
				"method": "rhf"
			},
			{
				"type": "unocc",
				"energy": -0.03579,
				"method": "rhf"
			},
			{
				"type": "unocc",
				"energy": -0.03372,
				"method": "rhf"
			},
			{
				"type": "unocc",
				"energy": -0.02637,
				"method": "rhf"
			},
			{
				"type": "unocc",
				"energy": -0.02304,
				"method": "rhf"
			},
			{
				"type": "unocc",
				"energy": -0.01084,
				"method": "rhf"
			}
		],
		"cosmo_sigma_profile": { 
			"-0.025": 0.0,
			"-0.024": 0.0,
			"-0.023": 0.0,
			"-0.022": 0.0,
			"-0.021": 0.0,
			"-0.02": 0.0,
			"-0.019": 0.0,
			"-0.018": 0.0,
			"-0.017": 0.0,
			"-0.016": 0.0,
			"-0.015": 0.0,
			"-0.014": 0.0,
			"-0.013": 0.0,
			"-0.012": 0.0,
			"-0.011": 0.0,
			"-0.01": 0.0,
			"-0.009": 0.0,
			"-0.008": 0.0,
			"-0.007": 4.76141926524,
			"-0.006": 28.0603731591,
			"-0.005": 43.0845737642,
			"-0.004": 42.5946209584,
			"-0.003": 37.5089685354,
			"-0.002": 33.6397852474,
			"-0.001": 35.4850974569,
			"0.0": 35.7648453173,
			"0.001": 45.585339027,
			"0.002": 38.833288857,
			"0.003": 37.580196449,
			"0.004": 34.2229599339,
			"0.005": 17.3783179134,
			"0.006": 9.6860339428,
			"0.007": 2.61420571913,
			"0.008": 2.80168904458,
			"0.009": 1.4482557464,
			"0.01": 1.68378156367,
			"0.011": 1.46390197219,
			"0.012": 1.53214032884,
			"0.013": 2.11420989159,
			"0.014": 3.61640963878,
			"0.015": 5.2544109857,
			"0.016": 1.23773764398,
			"0.017": 0.0,
			"0.018": 0.0,
			"0.019": 0.0,
			"0.02": 0.0,
			"0.021": 0.0,
			"0.022": 0.0,
			"0.023": 0.0,
			"0.024": 0.0,
			"0.025": 0.0
		}
	}
}
