{
	 "smiles": "FC1=C(CC#N)C=CC=C1CC#N", 
	 "Tm": 349.15, 
	 "num_atms": 20, 
	 "gaussian": { 
		 "optdone": 1, 
		 "sigma_profile": "yes", 
		 "theory": "DFT", 
		 "functional": "B3LYP", 
		 "basiset": "6-31G**", 
		 "properties": { 
			 "R2extent": 3144.2581, 
			 "electric_dipole_moment_norm": 2.3178439227, 
			 "electric_quadrupole_moment_norm": 26.4763597908, 
			 "total_energy": -594.587165431, 
			 "HOMO_LUMO_gap": 0.23432, 
			 "cosmo_polarized_energy": -14.72, 
			 "cosmo_cavitation_energy": 26.81, 
			 "cosmo_dispersion_energy": -18.24, 
			 "cosmo_repulsion_energy": 1.42, 
			 "cosmo_total_nonelectrostatic_energy": 9.98, 
			 "SMD_solvation_energy": 7.51 
		},
		"coords": [
			{
				"x": -0.8574436793,
				"y": 1.2238770201,
				"z": 1.9337074983,
				"element": "F" 
			},
			{
				"x": -0.344632834,
				"y": 1.0179281085,
				"z": 0.6916070062,
				"element": "C" 
			},
			{
				"x": -0.9761414883,
				"y": 1.6295742489,
				"z": -0.3884958126,
				"element": "C" 
			},
			{
				"x": -2.1993295873,
				"y": 2.4906926589,
				"z": -0.1124397397,
				"element": "C" 
			},
			{
				"x": -2.7931124298,
				"y": 3.0803543307,
				"z": -1.3131315927,
				"element": "C" 
			},
			{
				"x": -3.2606305872,
				"y": 3.5462124061,
				"z": -2.2673375121,
				"element": "N" 
			},
			{
				"x": -0.437272336,
				"y": 1.4081715244,
				"z": -1.6592536356,
				"element": "C" 
			},
			{
				"x": 0.6906110101,
				"y": 0.6018884803,
				"z": -1.8162277479,
				"element": "C" 
			},
			{
				"x": 1.2972562955,
				"y": 0.0051080902,
				"z": -0.7104612539,
				"element": "C" 
			},
			{
				"x": 0.7817273977,
				"y": 0.207483413,
				"z": 0.5730762281,
				"element": "C" 
			},
			{
				"x": 1.3684686254,
				"y": -0.3974224862,
				"z": 1.8394733356,
				"element": "C" 
			},
			{
				"x": 2.5525967085,
				"y": -1.2257882422,
				"z": 1.6079425941,
				"element": "C" 
			},
			{
				"x": 3.4909151665,
				"y": -1.8817689179,
				"z": 1.4199188891,
				"element": "N" 
			},
			{
				"x": -2.9694444526,
				"y": 1.8994112883,
				"z": 0.3983604872,
				"element": "H" 
			},
			{
				"x": -1.940845754,
				"y": 3.3028456254,
				"z": 0.5784886595,
				"element": "H" 
			},
			{
				"x": -0.9058131649,
				"y": 1.8699824203,
				"z": -2.5226104184,
				"element": "H" 
			},
			{
				"x": 1.0998356875,
				"y": 0.4373714027,
				"z": -2.8076248447,
				"element": "H" 
			},
			{
				"x": 2.1745801561,
				"y": -0.6212204571,
				"z": -0.8377311761,
				"element": "H" 
			},
			{
				"x": 0.6143020857,
				"y": -1.0094682148,
				"z": 2.3497566633,
				"element": "H" 
			},
			{
				"x": 1.6361731805,
				"y": 0.3964673005,
				"z": 2.5477823723,
				"element": "H" 
			}
		],
		 "valence_orbital": [ 
			{
				"type": "occ",
				"energy": -0.33958,
				"method": "rhf"
			},
			{
				"type": "occ",
				"energy": -0.33789,
				"method": "rhf"
			},
			{
				"type": "occ",
				"energy": -0.33739,
				"method": "rhf"
			},
			{
				"type": "occ",
				"energy": -0.2762,
				"method": "rhf"
			},
			{
				"type": "occ",
				"energy": -0.26641,
				"method": "rhf"
			},
			{
				"type": "unocc",
				"energy": -0.03209,
				"method": "rhf"
			},
			{
				"type": "unocc",
				"energy": -0.0287,
				"method": "rhf"
			},
			{
				"type": "unocc",
				"energy": 0.01527,
				"method": "rhf"
			},
			{
				"type": "unocc",
				"energy": 0.02677,
				"method": "rhf"
			},
			{
				"type": "unocc",
				"energy": 0.0272,
				"method": "rhf"
			}
		],
		"cosmo_sigma_profile": { 
			"-0.025": 0.0,
			"-0.024": 0.0,
			"-0.023": 0.0,
			"-0.022": 0.0,
			"-0.021": 0.0,
			"-0.02": 0.0,
			"-0.019": 0.0,
			"-0.018": 0.0,
			"-0.017": 0.0,
			"-0.016": 0.0,
			"-0.015": 0.0,
			"-0.014": 0.0,
			"-0.013": 0.0,
			"-0.012": 0.0,
			"-0.011": 0.0,
			"-0.01": 1.83419699222,
			"-0.009": 10.1828785989,
			"-0.008": 8.81850927871,
			"-0.007": 8.91571971895,
			"-0.006": 14.9233208528,
			"-0.005": 13.6616688582,
			"-0.004": 12.1567059969,
			"-0.003": 12.2470904972,
			"-0.002": 14.7900444291,
			"-0.001": 13.2610207663,
			"0.0": 10.1458007255,
			"0.001": 12.5962631962,
			"0.002": 11.4870011415,
			"0.003": 16.8388281554,
			"0.004": 10.0519989242,
			"0.005": 4.25295165757,
			"0.006": 4.32301009556,
			"0.007": 5.52561932668,
			"0.008": 5.99440715924,
			"0.009": 6.3629194826,
			"0.01": 5.87428304977,
			"0.011": 5.31787788672,
			"0.012": 4.80140131886,
			"0.013": 2.54557056196,
			"0.014": 0.0300819128935,
			"0.015": 0.0,
			"0.016": 0.0,
			"0.017": 0.0,
			"0.018": 0.0,
			"0.019": 0.0,
			"0.02": 0.0,
			"0.021": 0.0,
			"0.022": 0.0,
			"0.023": 0.0,
			"0.024": 0.0,
			"0.025": 0.0
		}
	}
}
