{
	 "smiles": "CCC(N)C(O)C1=CC=CC=C1", 
	 "Tm": 352.65, 
	 "num_atms": 27, 
	 "gaussian": { 
		 "optdone": 1, 
		 "sigma_profile": "yes", 
		 "theory": "DFT", 
		 "functional": "B3LYP", 
		 "basiset": "6-31G**", 
		 "properties": { 
			 "R2extent": 2553.5154, 
			 "electric_dipole_moment_norm": 2.38718380105, 
			 "electric_quadrupole_moment_norm": 6.58262613476, 
			 "total_energy": -520.079649387, 
			 "HOMO_LUMO_gap": 0.21778, 
			 "cosmo_polarized_energy": -9.64, 
			 "cosmo_cavitation_energy": 28.71, 
			 "cosmo_dispersion_energy": -20.4, 
			 "cosmo_repulsion_energy": 1.64, 
			 "cosmo_total_nonelectrostatic_energy": 9.95, 
			 "SMD_solvation_energy": 3.65 
		},
		"coords": [
			{
				"x": -3.6217971317,
				"y": -1.9452479739,
				"z": -0.332621827,
				"element": "C" 
			},
			{
				"x": -3.2576713654,
				"y": -0.6919285383,
				"z": 0.4698005532,
				"element": "C" 
			},
			{
				"x": -2.0128830905,
				"y": 0.0675022245,
				"z": -0.0250887568,
				"element": "C" 
			},
			{
				"x": -1.9156946928,
				"y": 1.3288594224,
				"z": 0.7114952236,
				"element": "N" 
			},
			{
				"x": -0.7251558547,
				"y": -0.8056438225,
				"z": 0.0522337491,
				"element": "C" 
			},
			{
				"x": -0.5259175049,
				"y": -1.0950448867,
				"z": 1.4357534199,
				"element": "O" 
			},
			{
				"x": 0.4783687605,
				"y": -0.123123542,
				"z": -0.5764624618,
				"element": "C" 
			},
			{
				"x": 0.7056896754,
				"y": -0.2300261114,
				"z": -1.9556315268,
				"element": "C" 
			},
			{
				"x": 1.783701136,
				"y": 0.4208452783,
				"z": -2.5545353291,
				"element": "C" 
			},
			{
				"x": 2.6581445521,
				"y": 1.1871239792,
				"z": -1.7793668725,
				"element": "C" 
			},
			{
				"x": 2.4448587836,
				"y": 1.2958767348,
				"z": -0.4048103375,
				"element": "C" 
			},
			{
				"x": 1.3614555262,
				"y": 0.6467119329,
				"z": 0.1923794611,
				"element": "C" 
			},
			{
				"x": -4.5763268216,
				"y": -2.3574750891,
				"z": 0.0102728357,
				"element": "H" 
			},
			{
				"x": -2.8734528649,
				"y": -2.7377313864,
				"z": -0.2272900521,
				"element": "H" 
			},
			{
				"x": -3.7256432063,
				"y": -1.7223073202,
				"z": -1.4013633886,
				"element": "H" 
			},
			{
				"x": -4.0888138475,
				"y": 0.020592635,
				"z": 0.4421769312,
				"element": "H" 
			},
			{
				"x": -3.1062740943,
				"y": -0.959793767,
				"z": 1.5222916258,
				"element": "H" 
			},
			{
				"x": -2.1579972631,
				"y": 0.3151570731,
				"z": -1.0855634326,
				"element": "H" 
			},
			{
				"x": -1.1431029516,
				"y": 1.8837256349,
				"z": 0.3495111318,
				"element": "H" 
			},
			{
				"x": -1.681918472,
				"y": 1.1172387152,
				"z": 1.680033996,
				"element": "H" 
			},
			{
				"x": -0.912937399,
				"y": -1.7357957797,
				"z": -0.5062970965,
				"element": "H" 
			},
			{
				"x": 0.2819020278,
				"y": -1.6182024826,
				"z": 1.516761648,
				"element": "H" 
			},
			{
				"x": 0.0342034659,
				"y": -0.8328800669,
				"z": -2.5633820936,
				"element": "H" 
			},
			{
				"x": 1.9466575922,
				"y": 0.3242663635,
				"z": -3.6243582666,
				"element": "H" 
			},
			{
				"x": 3.5013733031,
				"y": 1.6902959353,
				"z": -2.2436980215,
				"element": "H" 
			},
			{
				"x": 3.1224097125,
				"y": 1.8863682964,
				"z": 0.2058868243,
				"element": "H" 
			},
			{
				"x": 1.1982220252,
				"y": 0.722036541,
				"z": 1.2628720633,
				"element": "H" 
			}
		],
		 "valence_orbital": [ 
			{
				"type": "occ",
				"energy": -0.31513,
				"method": "rhf"
			},
			{
				"type": "occ",
				"energy": -0.27963,
				"method": "rhf"
			},
			{
				"type": "occ",
				"energy": -0.25409,
				"method": "rhf"
			},
			{
				"type": "occ",
				"energy": -0.24579,
				"method": "rhf"
			},
			{
				"type": "occ",
				"energy": -0.22476,
				"method": "rhf"
			},
			{
				"type": "unocc",
				"energy": -0.00698,
				"method": "rhf"
			},
			{
				"type": "unocc",
				"energy": -0.00448,
				"method": "rhf"
			},
			{
				"type": "unocc",
				"energy": 0.07234,
				"method": "rhf"
			},
			{
				"type": "unocc",
				"energy": 0.09549,
				"method": "rhf"
			},
			{
				"type": "unocc",
				"energy": 0.10145,
				"method": "rhf"
			}
		],
		"cosmo_sigma_profile": { 
			"-0.025": 0.0,
			"-0.024": 0.0,
			"-0.023": 0.0,
			"-0.022": 0.0,
			"-0.021": 0.0,
			"-0.02": 0.0,
			"-0.019": 0.0,
			"-0.018": 0.0,
			"-0.017": 0.0,
			"-0.016": 0.0145117310194,
			"-0.015": 0.864873966537,
			"-0.014": 0.941377140142,
			"-0.013": 0.558166139474,
			"-0.012": 1.02229486118,
			"-0.011": 0.797730636141,
			"-0.01": 0.816720746608,
			"-0.009": 0.940304676673,
			"-0.008": 0.934846595292,
			"-0.007": 2.62599026742,
			"-0.006": 5.10463824467,
			"-0.005": 12.704468418,
			"-0.004": 17.3314987565,
			"-0.003": 24.5747177612,
			"-0.002": 23.8220926116,
			"-0.001": 21.5443082929,
			"0.0": 20.672971175,
			"0.001": 20.4280960696,
			"0.002": 13.5407692307,
			"0.003": 9.8964324855,
			"0.004": 8.78034895151,
			"0.005": 10.0158085527,
			"0.006": 9.07210087982,
			"0.007": 3.25010767128,
			"0.008": 1.61614479585,
			"0.009": 2.45284990494,
			"0.01": 1.87641900797,
			"0.011": 2.04744142317,
			"0.012": 1.14012409033,
			"0.013": 0.865477279317,
			"0.014": 0.542717486677,
			"0.015": 0.949057438615,
			"0.016": 0.52314088727,
			"0.017": 0.471627738169,
			"0.018": 0.355746811058,
			"0.019": 0.867093682963,
			"0.02": 0.0737562852079,
			"0.021": 0.0,
			"0.022": 0.0,
			"0.023": 0.0,
			"0.024": 0.0,
			"0.025": 0.0
		}
	}
}
