{
	 "smiles": "O=C1C=CC(=O)N1C1=CC=C(NC2=CC=CC=C2)C2=C1C=CC=C2", 
	 "Tm": 480.15, 
	 "num_atms": 38, 
	 "gaussian": { 
		 "optdone": 1, 
		 "sigma_profile": "yes", 
		 "theory": "DFT", 
		 "functional": "B3LYP", 
		 "basiset": "6-31G**", 
		 "properties": { 
			 "R2extent": 9652.6852, 
			 "electric_dipole_moment_norm": 0.688566634394, 
			 "electric_quadrupole_moment_norm": 24.90269096, 
			 "total_energy": -1030.52421359, 
			 "HOMO_LUMO_gap": 0.0979, 
			 "cosmo_polarized_energy": -18.14, 
			 "cosmo_cavitation_energy": 43.14, 
			 "cosmo_dispersion_energy": -30.05, 
			 "cosmo_repulsion_energy": 2.26, 
			 "cosmo_total_nonelectrostatic_energy": 15.34, 
			 "SMD_solvation_energy": 8.76 
		},
		"coords": [
			{
				"x": 1.7708449124,
				"y": -2.5938830572,
				"z": 1.7235382127,
				"element": "O" 
			},
			{
				"x": 1.0591664584,
				"y": -3.3032512115,
				"z": 1.0470815561,
				"element": "C" 
			},
			{
				"x": 0.9454607748,
				"y": -4.800292561,
				"z": 1.085658847,
				"element": "C" 
			},
			{
				"x": 0.0380463227,
				"y": -5.1900773898,
				"z": 0.1860669204,
				"element": "C" 
			},
			{
				"x": -0.5119673547,
				"y": -3.9778621436,
				"z": -0.509417795,
				"element": "C" 
			},
			{
				"x": -1.3620328772,
				"y": -3.9379497126,
				"z": -1.3714381831,
				"element": "O" 
			},
			{
				"x": 0.1608881129,
				"y": -2.8728333111,
				"z": 0.0500628074,
				"element": "N" 
			},
			{
				"x": -0.0872875033,
				"y": -1.5086336692,
				"z": -0.295667821,
				"element": "C" 
			},
			{
				"x": -1.2339810155,
				"y": -0.8932737081,
				"z": 0.1530952268,
				"element": "C" 
			},
			{
				"x": -1.5331596586,
				"y": 0.4363249233,
				"z": -0.1953498531,
				"element": "C" 
			},
			{
				"x": -0.6594833402,
				"y": 1.178975858,
				"z": -0.9749790612,
				"element": "C" 
			},
			{
				"x": -0.939499871,
				"y": 2.4891096209,
				"z": -1.3785404114,
				"element": "N" 
			},
			{
				"x": -1.8645544684,
				"y": 3.3850740607,
				"z": -0.8211669059,
				"element": "C" 
			},
			{
				"x": -2.530676735,
				"y": 4.2872348181,
				"z": -1.6678758058,
				"element": "C" 
			},
			{
				"x": -3.4025759758,
				"y": 5.2389302922,
				"z": -1.1438137256,
				"element": "C" 
			},
			{
				"x": -3.6403098699,
				"y": 5.301985566,
				"z": 0.230323426,
				"element": "C" 
			},
			{
				"x": -2.9785040385,
				"y": 4.407688282,
				"z": 1.0747055964,
				"element": "C" 
			},
			{
				"x": -2.0915758364,
				"y": 3.4620513247,
				"z": 0.5640643806,
				"element": "C" 
			},
			{
				"x": 0.5699053331,
				"y": 0.5789690199,
				"z": -1.4259456473,
				"element": "C" 
			},
			{
				"x": 0.839992514,
				"y": -0.7942810044,
				"z": -1.1117270394,
				"element": "C" 
			},
			{
				"x": 2.02684719,
				"y": -1.3886270133,
				"z": -1.615739634,
				"element": "C" 
			},
			{
				"x": 2.9228215241,
				"y": -0.6647522516,
				"z": -2.3694526962,
				"element": "C" 
			},
			{
				"x": 2.6836017209,
				"y": 0.7008938098,
				"z": -2.6378974579,
				"element": "C" 
			},
			{
				"x": 1.5351095879,
				"y": 1.3043473933,
				"z": -2.1740202255,
				"element": "C" 
			},
			{
				"x": 1.5386260873,
				"y": -5.3962579169,
				"z": 1.7669682884,
				"element": "H" 
			},
			{
				"x": -0.3026563842,
				"y": -6.1875179443,
				"z": -0.0593789944,
				"element": "H" 
			},
			{
				"x": -1.933975754,
				"y": -1.4541658394,
				"z": 0.7640446489,
				"element": "H" 
			},
			{
				"x": -2.4707705964,
				"y": 0.8712565691,
				"z": 0.1285910231,
				"element": "H" 
			},
			{
				"x": -0.6536599835,
				"y": 2.7134243379,
				"z": -2.3200873056,
				"element": "H" 
			},
			{
				"x": -2.3644416088,
				"y": 4.2336745685,
				"z": -2.7413901808,
				"element": "H" 
			},
			{
				"x": -3.9055507039,
				"y": 5.9272130148,
				"z": -1.8172364959,
				"element": "H" 
			},
			{
				"x": -4.3268690267,
				"y": 6.0377524751,
				"z": 0.637108847,
				"element": "H" 
			},
			{
				"x": -3.1409241175,
				"y": 4.4527863919,
				"z": 2.1480218396,
				"element": "H" 
			},
			{
				"x": -1.5593788064,
				"y": 2.7968451229,
				"z": 1.2347531944,
				"element": "H" 
			},
			{
				"x": 2.2213371381,
				"y": -2.4329237826,
				"z": -1.3984847471,
				"element": "H" 
			},
			{
				"x": 3.8237986262,
				"y": -1.1404214069,
				"z": -2.7454125656,
				"element": "H" 
			},
			{
				"x": 3.4109320857,
				"y": 1.2784491536,
				"z": -3.2005617428,
				"element": "H" 
			},
			{
				"x": 1.3852571372,
				"y": 2.3640173208,
				"z": -2.3526005203,
				"element": "H" 
			}
		],
		 "valence_orbital": [ 
			{
				"type": "occ",
				"energy": -0.26664,
				"method": "rhf"
			},
			{
				"type": "occ",
				"energy": -0.25252,
				"method": "rhf"
			},
			{
				"type": "occ",
				"energy": -0.2488,
				"method": "rhf"
			},
			{
				"type": "occ",
				"energy": -0.23389,
				"method": "rhf"
			},
			{
				"type": "occ",
				"energy": -0.19127,
				"method": "rhf"
			},
			{
				"type": "unocc",
				"energy": -0.09337,
				"method": "rhf"
			},
			{
				"type": "unocc",
				"energy": -0.04609,
				"method": "rhf"
			},
			{
				"type": "unocc",
				"energy": -0.01492,
				"method": "rhf"
			},
			{
				"type": "unocc",
				"energy": -0.00285,
				"method": "rhf"
			},
			{
				"type": "unocc",
				"energy": 0.0053,
				"method": "rhf"
			}
		],
		"cosmo_sigma_profile": { 
			"-0.025": 0.0,
			"-0.024": 0.0,
			"-0.023": 0.0,
			"-0.022": 0.0,
			"-0.021": 0.0,
			"-0.02": 0.0,
			"-0.019": 0.0,
			"-0.018": 0.0,
			"-0.017": 0.0,
			"-0.016": 0.0,
			"-0.015": 0.0,
			"-0.014": 0.407238630754,
			"-0.013": 1.28693313832,
			"-0.012": 1.36780598832,
			"-0.011": 1.70767533892,
			"-0.01": 2.3916094115,
			"-0.009": 5.60498445559,
			"-0.008": 6.25396676987,
			"-0.007": 8.91304319193,
			"-0.006": 18.6424878071,
			"-0.005": 27.0561039047,
			"-0.004": 27.9024722096,
			"-0.003": 28.0813590889,
			"-0.002": 22.6963625764,
			"-0.001": 19.3987773805,
			"0.0": 17.4499820806,
			"0.001": 18.4043617295,
			"0.002": 21.1846306389,
			"0.003": 24.3398108976,
			"0.004": 28.1228636668,
			"0.005": 19.8340580619,
			"0.006": 12.3845558403,
			"0.007": 5.1020958597,
			"0.008": 4.158578952,
			"0.009": 5.32228783301,
			"0.01": 7.5022890528,
			"0.011": 9.71475455076,
			"0.012": 2.57729693077,
			"0.013": 0.0,
			"0.014": 0.0,
			"0.015": 0.0,
			"0.016": 0.0,
			"0.017": 0.0,
			"0.018": 0.0,
			"0.019": 0.0,
			"0.02": 0.0,
			"0.021": 0.0,
			"0.022": 0.0,
			"0.023": 0.0,
			"0.024": 0.0,
			"0.025": 0.0
		}
	}
}
