{
	 "smiles": "ONC1=NC2=C(SC1=O)C=CC=C2", 
	 "Tm": 518.15, 
	 "num_atms": 19, 
	 "gaussian": { 
		 "optdone": 1, 
		 "sigma_profile": "yes", 
		 "theory": "DFT", 
		 "functional": "B3LYP", 
		 "basiset": "6-31G**", 
		 "properties": { 
			 "R2extent": 3056.2992, 
			 "electric_dipole_moment_norm": 3.27277582642, 
			 "electric_quadrupole_moment_norm": 5.14515479067, 
			 "total_energy": -966.538316242, 
			 "HOMO_LUMO_gap": 0.13593, 
			 "cosmo_polarized_energy": -9.26, 
			 "cosmo_cavitation_energy": 25.18, 
			 "cosmo_dispersion_energy": -19.69, 
			 "cosmo_repulsion_energy": 1.49, 
			 "cosmo_total_nonelectrostatic_energy": 6.98, 
			 "SMD_solvation_energy": 4.04 
		},
		"coords": [
			{
				"x": -2.0197928364,
				"y": -0.5254910166,
				"z": -3.8512138922,
				"element": "O" 
			},
			{
				"x": -1.1866070779,
				"y": -1.3320284227,
				"z": -3.0272489085,
				"element": "N" 
			},
			{
				"x": -0.4553991728,
				"y": -0.6860576567,
				"z": -2.0400393154,
				"element": "C" 
			},
			{
				"x": -0.3809244765,
				"y": -1.2464935506,
				"z": -0.875514981,
				"element": "N" 
			},
			{
				"x": 0.4479819919,
				"y": -0.8144415357,
				"z": 0.1423407121,
				"element": "C" 
			},
			{
				"x": 1.2574570093,
				"y": 0.3433024831,
				"z": 0.0951557655,
				"element": "C" 
			},
			{
				"x": 1.3248222095,
				"y": 1.3623043861,
				"z": -1.3456455441,
				"element": "S" 
			},
			{
				"x": 0.2969214582,
				"y": 0.5131735014,
				"z": -2.5242542297,
				"element": "C" 
			},
			{
				"x": 0.2410031617,
				"y": 0.9287919762,
				"z": -3.6709486043,
				"element": "O" 
			},
			{
				"x": 2.0364610156,
				"y": 0.7160066529,
				"z": 1.1995453569,
				"element": "C" 
			},
			{
				"x": 2.0210309376,
				"y": -0.0570817965,
				"z": 2.3542837119,
				"element": "C" 
			},
			{
				"x": 1.2259522511,
				"y": -1.2108006504,
				"z": 2.417937538,
				"element": "C" 
			},
			{
				"x": 0.4529256029,
				"y": -1.5797230778,
				"z": 1.3288963792,
				"element": "C" 
			},
			{
				"x": -1.3716869259,
				"y": -0.0783357844,
				"z": -4.4232294639,
				"element": "H" 
			},
			{
				"x": -1.7648181405,
				"y": -2.0728075069,
				"z": -2.6429386973,
				"element": "H" 
			},
			{
				"x": 2.6530429726,
				"y": 1.6087864612,
				"z": 1.1458545385,
				"element": "H" 
			},
			{
				"x": 2.6280982226,
				"y": 0.2369853665,
				"z": 3.204822109,
				"element": "H" 
			},
			{
				"x": 1.2149156267,
				"y": -1.8144449557,
				"z": 3.3200802018,
				"element": "H" 
			},
			{
				"x": -0.1754838298,
				"y": -2.4638448733,
				"z": 1.3502173233,
				"element": "H" 
			}
		],
		 "valence_orbital": [ 
			{
				"type": "occ",
				"energy": -0.31354,
				"method": "rhf"
			},
			{
				"type": "occ",
				"energy": -0.27943,
				"method": "rhf"
			},
			{
				"type": "occ",
				"energy": -0.26173,
				"method": "rhf"
			},
			{
				"type": "occ",
				"energy": -0.24931,
				"method": "rhf"
			},
			{
				"type": "occ",
				"energy": -0.22353,
				"method": "rhf"
			},
			{
				"type": "unocc",
				"energy": -0.0876,
				"method": "rhf"
			},
			{
				"type": "unocc",
				"energy": -0.02778,
				"method": "rhf"
			},
			{
				"type": "unocc",
				"energy": -0.01696,
				"method": "rhf"
			},
			{
				"type": "unocc",
				"energy": 0.01127,
				"method": "rhf"
			},
			{
				"type": "unocc",
				"energy": 0.05254,
				"method": "rhf"
			}
		],
		"cosmo_sigma_profile": { 
			"-0.025": 0.0,
			"-0.024": 0.0,
			"-0.023": 0.0,
			"-0.022": 0.0,
			"-0.021": 0.0,
			"-0.02": 0.0,
			"-0.019": 0.0,
			"-0.018": 0.0,
			"-0.017": 0.0,
			"-0.016": 0.0,
			"-0.015": 0.296456198358,
			"-0.014": 0.848616161348,
			"-0.013": 1.28113515463,
			"-0.012": 1.4040211308,
			"-0.011": 1.2372664347,
			"-0.01": 0.604917724467,
			"-0.009": 1.4402333692,
			"-0.008": 3.22772168049,
			"-0.007": 7.27507373249,
			"-0.006": 11.8460054479,
			"-0.005": 12.6310178001,
			"-0.004": 12.5132555807,
			"-0.003": 8.9572242266,
			"-0.002": 11.1344205692,
			"-0.001": 13.4724644906,
			"0.0": 16.5654323713,
			"0.001": 20.0486520075,
			"0.002": 20.3197538908,
			"0.003": 18.8773024502,
			"0.004": 9.27658874266,
			"0.005": 3.83943486387,
			"0.006": 6.01201242771,
			"0.007": 4.37994672122,
			"0.008": 4.38878015029,
			"0.009": 4.46609503597,
			"0.01": 5.00083578647,
			"0.011": 3.08328858514,
			"0.012": 0.248153377244,
			"0.013": 0.0,
			"0.014": 0.0,
			"0.015": 0.0,
			"0.016": 0.0,
			"0.017": 0.0,
			"0.018": 0.0,
			"0.019": 0.0,
			"0.02": 0.0,
			"0.021": 0.0,
			"0.022": 0.0,
			"0.023": 0.0,
			"0.024": 0.0,
			"0.025": 0.0
		}
	}
}
