{
	 "smiles": "COC1=C(O)C=CC(=C1)C(C1=C(O)C=C(C)OC1=O)C1=C(O)C=C(C)OC1=O", 
	 "Tm": 479.15, 
	 "num_atms": 46, 
	 "gaussian": { 
		 "optdone": 1, 
		 "sigma_profile": "yes", 
		 "theory": "DFT", 
		 "functional": "B3LYP", 
		 "basiset": "6-31G**", 
		 "properties": { 
			 "R2extent": 11044.3149, 
			 "electric_dipole_moment_norm": 3.03561280469, 
			 "electric_quadrupole_moment_norm": 38.0322899571, 
			 "total_energy": -1374.72833789, 
			 "HOMO_LUMO_gap": 0.1552, 
			 "cosmo_polarized_energy": -38.63, 
			 "cosmo_cavitation_energy": 50.51, 
			 "cosmo_dispersion_energy": -34.3, 
			 "cosmo_repulsion_energy": 2.65, 
			 "cosmo_total_nonelectrostatic_energy": 18.87, 
			 "SMD_solvation_energy": 12.75 
		},
		"coords": [
			{
				"x": -4.3352571985,
				"y": 2.9772836806,
				"z": -2.0019039686,
				"element": "C" 
			},
			{
				"x": -4.2368082574,
				"y": 2.0564307756,
				"z": -0.9151984839,
				"element": "O" 
			},
			{
				"x": -3.0169123275,
				"y": 2.0101218452,
				"z": -0.2794824101,
				"element": "C" 
			},
			{
				"x": -2.5258670211,
				"y": 3.0963167011,
				"z": 0.4673498976,
				"element": "C" 
			},
			{
				"x": -3.2778750259,
				"y": 4.2428081683,
				"z": 0.5125850863,
				"element": "O" 
			},
			{
				"x": -1.3086398519,
				"y": 2.962870546,
				"z": 1.1375778787,
				"element": "C" 
			},
			{
				"x": -0.5876513939,
				"y": 1.769949321,
				"z": 1.0882707619,
				"element": "C" 
			},
			{
				"x": -1.0709936694,
				"y": 0.6763872052,
				"z": 0.3646986499,
				"element": "C" 
			},
			{
				"x": -2.287985081,
				"y": 0.8227117055,
				"z": -0.3134608544,
				"element": "C" 
			},
			{
				"x": -0.3642232222,
				"y": -0.6796749096,
				"z": 0.306795444,
				"element": "C" 
			},
			{
				"x": 0.5031093231,
				"y": -0.9489331733,
				"z": -0.922728454,
				"element": "C" 
			},
			{
				"x": 1.2206481554,
				"y": -0.0342617961,
				"z": -1.6572199362,
				"element": "C" 
			},
			{
				"x": 1.1695231956,
				"y": 1.2779576169,
				"z": -1.3556740002,
				"element": "O" 
			},
			{
				"x": 2.0194597656,
				"y": -0.4531007394,
				"z": -2.7765640879,
				"element": "C" 
			},
			{
				"x": 2.0707430191,
				"y": -1.7635192893,
				"z": -3.109277752,
				"element": "C" 
			},
			{
				"x": 2.8534782446,
				"y": -2.3587993766,
				"z": -4.2350611138,
				"element": "C" 
			},
			{
				"x": 1.3778203862,
				"y": -2.6835057727,
				"z": -2.412456599,
				"element": "O" 
			},
			{
				"x": 0.5740951992,
				"y": -2.3476402063,
				"z": -1.2928106318,
				"element": "C" 
			},
			{
				"x": 0.0175108332,
				"y": -3.2774030359,
				"z": -0.7465012951,
				"element": "O" 
			},
			{
				"x": 0.3603011944,
				"y": -1.0751032192,
				"z": 1.5930276413,
				"element": "C" 
			},
			{
				"x": -0.2358308469,
				"y": -1.9266666817,
				"z": 2.4955743209,
				"element": "C" 
			},
			{
				"x": -1.506778594,
				"y": -2.3295059244,
				"z": 2.2710279125,
				"element": "O" 
			},
			{
				"x": 0.4499349161,
				"y": -2.3814971569,
				"z": 3.6694110994,
				"element": "C" 
			},
			{
				"x": 1.7202021284,
				"y": -1.9642144337,
				"z": 3.8864890996,
				"element": "C" 
			},
			{
				"x": 2.5882200019,
				"y": -2.3463574902,
				"z": 5.0420009292,
				"element": "C" 
			},
			{
				"x": 2.3288407286,
				"y": -1.122905539,
				"z": 3.0321773371,
				"element": "O" 
			},
			{
				"x": 1.6986112711,
				"y": -0.6073580368,
				"z": 1.8616810316,
				"element": "C" 
			},
			{
				"x": 2.3650952358,
				"y": 0.1757594983,
				"z": 1.2186387478,
				"element": "O" 
			},
			{
				"x": -5.3371625117,
				"y": 2.8505885878,
				"z": -2.4185064786,
				"element": "H" 
			},
			{
				"x": -4.207427194,
				"y": 4.0117776068,
				"z": -1.6687930854,
				"element": "H" 
			},
			{
				"x": -3.5922558076,
				"y": 2.7499122275,
				"z": -2.7783218173,
				"element": "H" 
			},
			{
				"x": -2.8212249494,
				"y": 4.8851819431,
				"z": 1.0707906439,
				"element": "H" 
			},
			{
				"x": -0.9229616294,
				"y": 3.8054316891,
				"z": 1.7099353936,
				"element": "H" 
			},
			{
				"x": 0.3674757756,
				"y": 1.7059895463,
				"z": 1.5954211381,
				"element": "H" 
			},
			{
				"x": -2.7093187122,
				"y": -0.00296647,
				"z": -0.880368895,
				"element": "H" 
			},
			{
				"x": -1.1637166968,
				"y": -1.4198689769,
				"z": 0.2207082587,
				"element": "H" 
			},
			{
				"x": 1.8230132669,
				"y": 1.7583231801,
				"z": -1.8798995829,
				"element": "H" 
			},
			{
				"x": 2.5804955758,
				"y": 0.2744159145,
				"z": -3.353725546,
				"element": "H" 
			},
			{
				"x": 3.5662049663,
				"y": -3.097514639,
				"z": -3.8528941735,
				"element": "H" 
			},
			{
				"x": 2.185991993,
				"y": -2.8814784157,
				"z": -4.9285975694,
				"element": "H" 
			},
			{
				"x": 3.4005647349,
				"y": -1.5879994726,
				"z": -4.7814651033,
				"element": "H" 
			},
			{
				"x": -1.7533750239,
				"y": -3.0164567525,
				"z": 2.9033348558,
				"element": "H" 
			},
			{
				"x": -0.0329517211,
				"y": -3.0498544085,
				"z": 4.3740488271,
				"element": "H" 
			},
			{
				"x": 3.5021406849,
				"y": -2.8326660472,
				"z": 4.684395372,
				"element": "H" 
			},
			{
				"x": 2.0649157029,
				"y": -3.0269781723,
				"z": 5.7163935457,
				"element": "H" 
			},
			{
				"x": 2.8929204373,
				"y": -1.4548876232,
				"z": 5.6005779658,
				"element": "H" 
			}
		],
		 "valence_orbital": [ 
			{
				"type": "occ",
				"energy": -0.25685,
				"method": "rhf"
			},
			{
				"type": "occ",
				"energy": -0.22531,
				"method": "rhf"
			},
			{
				"type": "occ",
				"energy": -0.2162,
				"method": "rhf"
			},
			{
				"type": "occ",
				"energy": -0.2087,
				"method": "rhf"
			},
			{
				"type": "occ",
				"energy": -0.19503,
				"method": "rhf"
			},
			{
				"type": "unocc",
				"energy": -0.03983,
				"method": "rhf"
			},
			{
				"type": "unocc",
				"energy": -0.02362,
				"method": "rhf"
			},
			{
				"type": "unocc",
				"energy": 0.01639,
				"method": "rhf"
			},
			{
				"type": "unocc",
				"energy": 0.01884,
				"method": "rhf"
			},
			{
				"type": "unocc",
				"energy": 0.02385,
				"method": "rhf"
			}
		],
		"cosmo_sigma_profile": { 
			"-0.025": 0.0,
			"-0.024": 0.0,
			"-0.023": 0.0,
			"-0.022": 0.0,
			"-0.021": 0.0,
			"-0.02": 0.0497427124383,
			"-0.019": 1.82810584287,
			"-0.018": 3.27045835599,
			"-0.017": 2.98314004044,
			"-0.016": 3.69238806519,
			"-0.015": 3.03412226218,
			"-0.014": 2.9359007126,
			"-0.013": 2.26617133566,
			"-0.012": 1.73038130215,
			"-0.011": 3.78220495685,
			"-0.01": 4.05666514749,
			"-0.009": 4.55849199395,
			"-0.008": 5.12810238163,
			"-0.007": 7.83897032969,
			"-0.006": 15.9905179349,
			"-0.005": 20.6503226783,
			"-0.004": 24.9034874076,
			"-0.003": 31.9729386418,
			"-0.002": 38.0662244059,
			"-0.001": 28.6486454973,
			"0.0": 21.35555185,
			"0.001": 21.958209241,
			"0.002": 18.5008719613,
			"0.003": 13.9464427186,
			"0.004": 15.7182533742,
			"0.005": 17.8586379737,
			"0.006": 13.4995826735,
			"0.007": 10.145573549,
			"0.008": 10.2750633842,
			"0.009": 9.68449381438,
			"0.01": 9.67945288287,
			"0.011": 9.10555122561,
			"0.012": 8.9531592427,
			"0.013": 8.61545752855,
			"0.014": 4.16571768784,
			"0.015": 0.248665085678,
			"0.016": 0.0189901139812,
			"0.017": 0.110404688154,
			"0.018": 0.0266428048461,
			"0.019": 0.0,
			"0.02": 0.00770425541022,
			"0.021": 0.0164630085898,
			"0.022": 0.0149964306255,
			"0.023": 0.00774449930034,
			"0.024": 0.00188714307413,
			"0.025": 0.0
		}
	}
}
