{
	 "smiles": "CC(C)(C)OC(=O)N1C=CC=C1[Si](C)(C)O", 
	 "Tm": 328.15, 
	 "num_atms": 35, 
	 "gaussian": { 
		 "optdone": 1, 
		 "sigma_profile": "yes", 
		 "theory": "DFT", 
		 "functional": "B3LYP", 
		 "basiset": "6-31G**", 
		 "properties": { 
			 "R2extent": 5147.3568, 
			 "electric_dipole_moment_norm": 3.43891534935, 
			 "electric_quadrupole_moment_norm": 5.53084539289, 
			 "total_energy": -1000.63672939, 
			 "HOMO_LUMO_gap": 0.19639, 
			 "cosmo_polarized_energy": -10.96, 
			 "cosmo_cavitation_energy": 37.21, 
			 "cosmo_dispersion_energy": -23.42, 
			 "cosmo_repulsion_energy": 1.88, 
			 "cosmo_total_nonelectrostatic_energy": 15.67, 
			 "SMD_solvation_energy": 9.18 
		},
		"coords": [
			{
				"x": -1.6339727327,
				"y": 2.275824851,
				"z": -1.8204301531,
				"element": "C" 
			},
			{
				"x": -0.8778592293,
				"y": 1.6344475622,
				"z": -0.6525544567,
				"element": "C" 
			},
			{
				"x": 0.1348405806,
				"y": 2.5874130075,
				"z": -0.0097975995,
				"element": "C" 
			},
			{
				"x": -1.8613660693,
				"y": 1.1145675155,
				"z": 0.3975541967,
				"element": "C" 
			},
			{
				"x": -0.1808108532,
				"y": 0.4023744471,
				"z": -1.1216860417,
				"element": "O" 
			},
			{
				"x": 0.7680522422,
				"y": 0.5051992908,
				"z": -2.0667825725,
				"element": "C" 
			},
			{
				"x": 1.1378499479,
				"y": 1.5312922606,
				"z": -2.6022728565,
				"element": "O" 
			},
			{
				"x": 1.3244382131,
				"y": -0.7402259164,
				"z": -2.3993715628,
				"element": "N" 
			},
			{
				"x": 2.3269852536,
				"y": -0.8001554308,
				"z": -3.3661693071,
				"element": "C" 
			},
			{
				"x": 2.7040187361,
				"y": -2.1027987273,
				"z": -3.5148352088,
				"element": "C" 
			},
			{
				"x": 1.9110637526,
				"y": -2.8769017681,
				"z": -2.6124506184,
				"element": "C" 
			},
			{
				"x": 1.0563018341,
				"y": -2.0432892381,
				"z": -1.9194469174,
				"element": "C" 
			},
			{
				"x": -0.1510845716,
				"y": -2.6764502192,
				"z": -0.6395863121,
				"element": "Si" 
			},
			{
				"x": -1.9512320907,
				"y": -2.4251239756,
				"z": -1.1416919343,
				"element": "C" 
			},
			{
				"x": 0.2250467403,
				"y": -2.0503226334,
				"z": 1.0985897844,
				"element": "C" 
			},
			{
				"x": 0.1917387386,
				"y": -4.323064037,
				"z": -0.6969786148,
				"element": "O" 
			},
			{
				"x": -2.2402450462,
				"y": 3.1053933345,
				"z": -1.4428559012,
				"element": "H" 
			},
			{
				"x": -0.9493805483,
				"y": 2.6579293198,
				"z": -2.5768410137,
				"element": "H" 
			},
			{
				"x": -2.3084897232,
				"y": 1.5488640567,
				"z": -2.2835960552,
				"element": "H" 
			},
			{
				"x": 0.840061191,
				"y": 2.9744352884,
				"z": -0.7444192425,
				"element": "H" 
			},
			{
				"x": -0.4007928577,
				"y": 3.428619174,
				"z": 0.4416236429,
				"element": "H" 
			},
			{
				"x": 0.6895983827,
				"y": 2.0763240748,
				"z": 0.7832932724,
				"element": "H" 
			},
			{
				"x": -1.3401733065,
				"y": 0.6241996564,
				"z": 1.2232583976,
				"element": "H" 
			},
			{
				"x": -2.5698901275,
				"y": 0.4052688737,
				"z": -0.036959223,
				"element": "H" 
			},
			{
				"x": -2.4288858755,
				"y": 1.9562419336,
				"z": 0.8052480765,
				"element": "H" 
			},
			{
				"x": 2.6567982916,
				"y": 0.1096446651,
				"z": -3.8402537204,
				"element": "H" 
			},
			{
				"x": 3.462778908,
				"y": -2.4682458192,
				"z": -4.1927970999,
				"element": "H" 
			},
			{
				"x": 1.9502337828,
				"y": -3.9475895886,
				"z": -2.471292882,
				"element": "H" 
			},
			{
				"x": -2.6433001884,
				"y": -2.7484432284,
				"z": -0.354967557,
				"element": "H" 
			},
			{
				"x": -2.1650165239,
				"y": -1.3788651587,
				"z": -1.3704206969,
				"element": "H" 
			},
			{
				"x": -2.1644791082,
				"y": -3.0155576588,
				"z": -2.0390049757,
				"element": "H" 
			},
			{
				"x": -0.5227524878,
				"y": -2.3898903673,
				"z": 1.8251775637,
				"element": "H" 
			},
			{
				"x": 1.2007668394,
				"y": -2.4301225712,
				"z": 1.4194426482,
				"element": "H" 
			},
			{
				"x": 0.2609251333,
				"y": -0.9595329792,
				"z": 1.1356604294,
				"element": "H" 
			},
			{
				"x": -0.3217672277,
				"y": -4.8790599947,
				"z": -0.1025854885,
				"element": "H" 
			}
		],
		 "valence_orbital": [ 
			{
				"type": "occ",
				"energy": -0.30437,
				"method": "rhf"
			},
			{
				"type": "occ",
				"energy": -0.2817,
				"method": "rhf"
			},
			{
				"type": "occ",
				"energy": -0.27655,
				"method": "rhf"
			},
			{
				"type": "occ",
				"energy": -0.24752,
				"method": "rhf"
			},
			{
				"type": "occ",
				"energy": -0.21332,
				"method": "rhf"
			},
			{
				"type": "unocc",
				"energy": -0.01693,
				"method": "rhf"
			},
			{
				"type": "unocc",
				"energy": 0.04821,
				"method": "rhf"
			},
			{
				"type": "unocc",
				"energy": 0.06372,
				"method": "rhf"
			},
			{
				"type": "unocc",
				"energy": 0.06803,
				"method": "rhf"
			},
			{
				"type": "unocc",
				"energy": 0.08561,
				"method": "rhf"
			}
		],
		"cosmo_sigma_profile": { 
			"-0.025": 0.0,
			"-0.024": 0.0,
			"-0.023": 0.0,
			"-0.022": 0.0,
			"-0.021": 0.0,
			"-0.02": 0.0,
			"-0.019": 0.0,
			"-0.018": 0.0,
			"-0.017": 0.123952980703,
			"-0.016": 0.817877064502,
			"-0.015": 0.822269695605,
			"-0.014": 1.09445664366,
			"-0.013": 0.773265763522,
			"-0.012": 0.892536511065,
			"-0.011": 0.470774903468,
			"-0.01": 0.422386657548,
			"-0.009": 0.443494538893,
			"-0.008": 1.11501258032,
			"-0.007": 2.20140713925,
			"-0.006": 3.76687640387,
			"-0.005": 8.20231610726,
			"-0.004": 24.5982159253,
			"-0.003": 29.084161401,
			"-0.002": 30.2480814905,
			"-0.001": 34.1309875571,
			"0.0": 40.9161529787,
			"0.001": 30.9118793554,
			"0.002": 15.0940564247,
			"0.003": 11.4688979,
			"0.004": 8.46957180914,
			"0.005": 9.57521843762,
			"0.006": 10.1591371523,
			"0.007": 4.7969650551,
			"0.008": 2.47741158964,
			"0.009": 3.08551364806,
			"0.01": 3.59389457891,
			"0.011": 3.82918507761,
			"0.012": 2.41130322888,
			"0.013": 1.20177585684,
			"0.014": 0.119548703496,
			"0.015": 0.0,
			"0.016": 0.0,
			"0.017": 0.0,
			"0.018": 0.0,
			"0.019": 0.0,
			"0.02": 0.0,
			"0.021": 0.0,
			"0.022": 0.0,
			"0.023": 0.0,
			"0.024": 0.0,
			"0.025": 0.0
		}
	}
}
