{
	 "smiles": "COC1=C(OCC2=CC=NC=C2)C=CC(C=O)=C1", 
	 "Tm": 380.15, 
	 "num_atms": 31, 
	 "gaussian": { 
		 "optdone": 1, 
		 "sigma_profile": "yes", 
		 "theory": "DFT", 
		 "functional": "B3LYP", 
		 "basiset": "6-31G**", 
		 "properties": { 
			 "R2extent": 6698.2232, 
			 "electric_dipole_moment_norm": 1.33400238755, 
			 "electric_quadrupole_moment_norm": 40.152417614, 
			 "total_energy": -821.706510261, 
			 "HOMO_LUMO_gap": 0.17189, 
			 "cosmo_polarized_energy": -14.27, 
			 "cosmo_cavitation_energy": 36.14, 
			 "cosmo_dispersion_energy": -25.56, 
			 "cosmo_repulsion_energy": 1.98, 
			 "cosmo_total_nonelectrostatic_energy": 12.56, 
			 "SMD_solvation_energy": 6.72 
		},
		"coords": [
			{
				"x": 0.3497796876,
				"y": 2.3791182717,
				"z": 1.4844122696,
				"element": "C" 
			},
			{
				"x": 0.1326691629,
				"y": 1.2966634382,
				"z": 0.5859957526,
				"element": "O" 
			},
			{
				"x": -0.0170515611,
				"y": 0.0487676354,
				"z": 1.1130402399,
				"element": "C" 
			},
			{
				"x": -0.1838449719,
				"y": -1.0064637473,
				"z": 0.1766731231,
				"element": "C" 
			},
			{
				"x": -0.1496350035,
				"y": -0.7820272912,
				"z": -1.1736001219,
				"element": "O" 
			},
			{
				"x": -1.2024569833,
				"y": 0.0153157404,
				"z": -1.7298769337,
				"element": "C" 
			},
			{
				"x": -0.9701896268,
				"y": 0.1842590251,
				"z": -3.2105546709,
				"element": "C" 
			},
			{
				"x": 0.267553852,
				"y": -0.0664632743,
				"z": -3.805749594,
				"element": "C" 
			},
			{
				"x": 0.4078245441,
				"y": 0.1467346258,
				"z": -5.1782962794,
				"element": "C" 
			},
			{
				"x": -0.5743325354,
				"y": 0.5850873246,
				"z": -5.9748083247,
				"element": "N" 
			},
			{
				"x": -1.7574560302,
				"y": 0.8231348636,
				"z": -5.393167323,
				"element": "C" 
			},
			{
				"x": -2.0057377924,
				"y": 0.638616584,
				"z": -4.0343360233,
				"element": "C" 
			},
			{
				"x": -0.3067588541,
				"y": -2.3209672344,
				"z": 0.6219995952,
				"element": "C" 
			},
			{
				"x": -0.2778708608,
				"y": -2.613488934,
				"z": 1.9852272788,
				"element": "C" 
			},
			{
				"x": -0.1337463208,
				"y": -1.576523974,
				"z": 2.9096408482,
				"element": "C" 
			},
			{
				"x": -0.1101419023,
				"y": -1.8692148788,
				"z": 4.3571523295,
				"element": "C" 
			},
			{
				"x": 0.01089751,
				"y": -1.030311963,
				"z": 5.2316066211,
				"element": "O" 
			},
			{
				"x": -0.0032300788,
				"y": -0.247152314,
				"z": 2.4713575739,
				"element": "C" 
			},
			{
				"x": -0.5012630187,
				"y": 2.5162939513,
				"z": 2.1624992796,
				"element": "H" 
			},
			{
				"x": 0.4635970505,
				"y": 3.2662118388,
				"z": 0.8604404118,
				"element": "H" 
			},
			{
				"x": 1.2610731902,
				"y": 2.2294116882,
				"z": 2.0753721074,
				"element": "H" 
			},
			{
				"x": -2.1687014076,
				"y": -0.4779803598,
				"z": -1.5520899582,
				"element": "H" 
			},
			{
				"x": -1.2283608972,
				"y": 0.9957847021,
				"z": -1.2410393878,
				"element": "H" 
			},
			{
				"x": 1.0987981766,
				"y": -0.4260063944,
				"z": -3.2109563899,
				"element": "H" 
			},
			{
				"x": 1.3645287094,
				"y": -0.0463739744,
				"z": -5.6612606822,
				"element": "H" 
			},
			{
				"x": -2.5520568518,
				"y": 1.1758294957,
				"z": -6.0487939276,
				"element": "H" 
			},
			{
				"x": -2.9935407848,
				"y": 0.8442717978,
				"z": -3.6296421128,
				"element": "H" 
			},
			{
				"x": -0.4178649861,
				"y": -3.0995499498,
				"z": -0.1254301635,
				"element": "H" 
			},
			{
				"x": -0.3738780239,
				"y": -3.6398607216,
				"z": 2.3291742766,
				"element": "H" 
			},
			{
				"x": -0.2138992571,
				"y": -2.9474450001,
				"z": 4.6115823225,
				"element": "H" 
			},
			{
				"x": 0.1193958654,
				"y": 0.5204290282,
				"z": 3.2261278633,
				"element": "H" 
			}
		],
		 "valence_orbital": [ 
			{
				"type": "occ",
				"energy": -0.26099,
				"method": "rhf"
			},
			{
				"type": "occ",
				"energy": -0.25869,
				"method": "rhf"
			},
			{
				"type": "occ",
				"energy": -0.25635,
				"method": "rhf"
			},
			{
				"type": "occ",
				"energy": -0.25188,
				"method": "rhf"
			},
			{
				"type": "occ",
				"energy": -0.23526,
				"method": "rhf"
			},
			{
				"type": "unocc",
				"energy": -0.06337,
				"method": "rhf"
			},
			{
				"type": "unocc",
				"energy": -0.02276,
				"method": "rhf"
			},
			{
				"type": "unocc",
				"energy": -0.00975,
				"method": "rhf"
			},
			{
				"type": "unocc",
				"energy": -0.00881,
				"method": "rhf"
			},
			{
				"type": "unocc",
				"energy": 0.04006,
				"method": "rhf"
			}
		],
		"cosmo_sigma_profile": { 
			"-0.025": 0.0,
			"-0.024": 0.0,
			"-0.023": 0.0,
			"-0.022": 0.0,
			"-0.021": 0.0,
			"-0.02": 0.0,
			"-0.019": 0.0,
			"-0.018": 0.0,
			"-0.017": 0.0,
			"-0.016": 0.0,
			"-0.015": 0.0,
			"-0.014": 0.0,
			"-0.013": 0.0,
			"-0.012": 0.0,
			"-0.011": 0.0,
			"-0.01": 0.0,
			"-0.009": 0.0,
			"-0.008": 0.672215134158,
			"-0.007": 10.1709144259,
			"-0.006": 26.3692402149,
			"-0.005": 28.4917338186,
			"-0.004": 23.7358886273,
			"-0.003": 22.0943027893,
			"-0.002": 16.3374107256,
			"-0.001": 15.9000861411,
			"0.0": 17.4883171653,
			"0.001": 20.855600008,
			"0.002": 27.024585495,
			"0.003": 26.5725597718,
			"0.004": 9.47287153355,
			"0.005": 6.48487090167,
			"0.006": 5.67351018385,
			"0.007": 4.86448854736,
			"0.008": 5.13145027074,
			"0.009": 3.90821202367,
			"0.01": 3.31529743644,
			"0.011": 4.53454028648,
			"0.012": 5.23710107899,
			"0.013": 1.2907114948,
			"0.014": 1.24596208722,
			"0.015": 0.946458141889,
			"0.016": 0.897346331378,
			"0.017": 0.523006253032,
			"0.018": 0.0,
			"0.019": 0.0,
			"0.02": 0.0,
			"0.021": 0.0,
			"0.022": 0.0,
			"0.023": 0.0,
			"0.024": 0.0,
			"0.025": 0.0
		}
	}
}
