{
	 "smiles": "COC1=C(OCC2=CC=NC=C2)C=C(N)C=C1", 
	 "Tm": 390.15, 
	 "num_atms": 31, 
	 "gaussian": { 
		 "optdone": 1, 
		 "sigma_profile": "yes", 
		 "theory": "DFT", 
		 "functional": "B3LYP", 
		 "basiset": "6-31G**", 
		 "properties": { 
			 "R2extent": 5519.6794, 
			 "electric_dipole_moment_norm": 1.41656223301, 
			 "electric_quadrupole_moment_norm": 14.1515577316, 
			 "total_energy": -763.736002863, 
			 "HOMO_LUMO_gap": 0.1707, 
			 "cosmo_polarized_energy": -14.23, 
			 "cosmo_cavitation_energy": 35.09, 
			 "cosmo_dispersion_energy": -24.18, 
			 "cosmo_repulsion_energy": 1.91, 
			 "cosmo_total_nonelectrostatic_energy": 12.82, 
			 "SMD_solvation_energy": 5.25 
		},
		"coords": [
			{
				"x": -2.8944394895,
				"y": 1.0253918042,
				"z": 0.8422364906,
				"element": "C" 
			},
			{
				"x": -1.6346348905,
				"y": 0.3535244311,
				"z": 0.9353553239,
				"element": "O" 
			},
			{
				"x": -0.5601528463,
				"y": 1.1977019712,
				"z": 1.1533864369,
				"element": "C" 
			},
			{
				"x": -0.0199237466,
				"y": 1.9767221368,
				"z": 0.1144487459,
				"element": "C" 
			},
			{
				"x": -0.5923742214,
				"y": 1.9806464379,
				"z": -1.1445525576,
				"element": "O" 
			},
			{
				"x": -0.4912548723,
				"y": 0.7469717171,
				"z": -1.8765496556,
				"element": "C" 
			},
			{
				"x": 0.8732096059,
				"y": 0.5513852238,
				"z": -2.5022249142,
				"element": "C" 
			},
			{
				"x": 1.5394326842,
				"y": -0.6733819177,
				"z": -2.4284564231,
				"element": "C" 
			},
			{
				"x": 2.7810988855,
				"y": -0.8103208754,
				"z": -3.0535583122,
				"element": "C" 
			},
			{
				"x": 3.3892006877,
				"y": 0.1740631635,
				"z": -3.7246894957,
				"element": "N" 
			},
			{
				"x": 2.7455017539,
				"y": 1.3489475979,
				"z": -3.7867877721,
				"element": "C" 
			},
			{
				"x": 1.503008303,
				"y": 1.5864138769,
				"z": -3.2029805035,
				"element": "C" 
			},
			{
				"x": 1.0719769438,
				"y": 2.8073411362,
				"z": 0.3535681732,
				"element": "C" 
			},
			{
				"x": 1.6609971664,
				"y": 2.8748655935,
				"z": 1.6270751785,
				"element": "C" 
			},
			{
				"x": 2.7207952612,
				"y": 3.7541192237,
				"z": 1.872123151,
				"element": "N" 
			},
			{
				"x": 1.1320827682,
				"y": 2.0775708063,
				"z": 2.6553037264,
				"element": "C" 
			},
			{
				"x": 0.0325438905,
				"y": 1.2568083629,
				"z": 2.4137390166,
				"element": "C" 
			},
			{
				"x": -2.9039851257,
				"y": 1.7408414826,
				"z": 0.0126299807,
				"element": "H" 
			},
			{
				"x": -3.6466994533,
				"y": 0.2524081744,
				"z": 0.6682519185,
				"element": "H" 
			},
			{
				"x": -3.1265656482,
				"y": 1.5526557183,
				"z": 1.776457744,
				"element": "H" 
			},
			{
				"x": -0.7544480392,
				"y": -0.0993414846,
				"z": -1.2355666858,
				"element": "H" 
			},
			{
				"x": -1.2507012343,
				"y": 0.8285980889,
				"z": -2.6619724751,
				"element": "H" 
			},
			{
				"x": 1.1043946161,
				"y": -1.5106050131,
				"z": -1.8894414013,
				"element": "H" 
			},
			{
				"x": 3.3141922407,
				"y": -1.758675581,
				"z": -3.0052950086,
				"element": "H" 
			},
			{
				"x": 3.2512881778,
				"y": 2.1415937628,
				"z": -4.3361900973,
				"element": "H" 
			},
			{
				"x": 1.031468746,
				"y": 2.5609857128,
				"z": -3.2835816083,
				"element": "H" 
			},
			{
				"x": 1.4584860196,
				"y": 3.4005709167,
				"z": -0.4693105329,
				"element": "H" 
			},
			{
				"x": 3.2686198082,
				"y": 3.9951485344,
				"z": 1.0572797415,
				"element": "H" 
			},
			{
				"x": 3.3118454557,
				"y": 3.4959992984,
				"z": 2.6507070802,
				"element": "H" 
			},
			{
				"x": 1.5760353925,
				"y": 2.1112817007,
				"z": 3.6466900215,
				"element": "H" 
			},
			{
				"x": -0.3840988394,
				"y": 0.6422679989,
				"z": 3.2060047138,
				"element": "H" 
			}
		],
		 "valence_orbital": [ 
			{
				"type": "occ",
				"energy": -0.26264,
				"method": "rhf"
			},
			{
				"type": "occ",
				"energy": -0.25881,
				"method": "rhf"
			},
			{
				"type": "occ",
				"energy": -0.25176,
				"method": "rhf"
			},
			{
				"type": "occ",
				"energy": -0.23675,
				"method": "rhf"
			},
			{
				"type": "occ",
				"energy": -0.19662,
				"method": "rhf"
			},
			{
				"type": "unocc",
				"energy": -0.02592,
				"method": "rhf"
			},
			{
				"type": "unocc",
				"energy": -0.0101,
				"method": "rhf"
			},
			{
				"type": "unocc",
				"energy": 0.00423,
				"method": "rhf"
			},
			{
				"type": "unocc",
				"energy": 0.01957,
				"method": "rhf"
			},
			{
				"type": "unocc",
				"energy": 0.08005,
				"method": "rhf"
			}
		],
		"cosmo_sigma_profile": { 
			"-0.025": 0.0,
			"-0.024": 0.0,
			"-0.023": 0.0,
			"-0.022": 0.0,
			"-0.021": 0.0,
			"-0.02": 0.0,
			"-0.019": 0.0,
			"-0.018": 0.0,
			"-0.017": 0.0,
			"-0.016": 0.0,
			"-0.015": 0.0,
			"-0.014": 0.0,
			"-0.013": 0.132971952731,
			"-0.012": 2.24965848792,
			"-0.011": 3.26978732974,
			"-0.01": 2.27829344414,
			"-0.009": 3.28232753488,
			"-0.008": 3.50266673147,
			"-0.007": 5.95544079913,
			"-0.006": 17.9303953357,
			"-0.005": 19.2348264421,
			"-0.004": 21.0043746614,
			"-0.003": 22.0168877791,
			"-0.002": 21.8549567593,
			"-0.001": 16.3963480821,
			"0.0": 17.4062621646,
			"0.001": 15.0125511859,
			"0.002": 19.9122012494,
			"0.003": 18.8461932023,
			"0.004": 15.4684659914,
			"0.005": 14.8835274255,
			"0.006": 9.98945253915,
			"0.007": 4.20293404042,
			"0.008": 4.65223686778,
			"0.009": 4.0034863004,
			"0.01": 2.945549045,
			"0.011": 3.76942155955,
			"0.012": 2.53300771397,
			"0.013": 1.76888510341,
			"0.014": 1.78062581648,
			"0.015": 1.24958228343,
			"0.016": 0.843753317942,
			"0.017": 0.415460075698,
			"0.018": 0.0,
			"0.019": 0.0,
			"0.02": 0.0,
			"0.021": 0.0,
			"0.022": 0.0,
			"0.023": 0.0,
			"0.024": 0.0,
			"0.025": 0.0
		}
	}
}
