{
	 "smiles": "OC(=O)C1=CC2=C(NC(=O)C(=O)N2)C=C1", 
	 "Tm": 524.15, 
	 "num_atms": 21, 
	 "gaussian": { 
		 "optdone": 1, 
		 "sigma_profile": "yes", 
		 "theory": "DFT", 
		 "functional": "B3LYP", 
		 "basiset": "6-31G**", 
		 "properties": { 
			 "R2extent": 3717.9254, 
			 "electric_dipole_moment_norm": 1.69233330641, 
			 "electric_quadrupole_moment_norm": 38.7600670121, 
			 "total_energy": -757.007981553, 
			 "HOMO_LUMO_gap": 0.16812, 
			 "cosmo_polarized_energy": -31.95, 
			 "cosmo_cavitation_energy": 26.98, 
			 "cosmo_dispersion_energy": -20.09, 
			 "cosmo_repulsion_energy": 1.54, 
			 "cosmo_total_nonelectrostatic_energy": 8.43, 
			 "SMD_solvation_energy": 7.15 
		},
		"coords": [
			{
				"x": -2.0679460041,
				"y": 1.8648683132,
				"z": -3.0914107289,
				"element": "O" 
			},
			{
				"x": -1.0688548326,
				"y": 2.477316956,
				"z": -2.3988583291,
				"element": "C" 
			},
			{
				"x": -0.7379225859,
				"y": 3.6036744,
				"z": -2.6834029418,
				"element": "O" 
			},
			{
				"x": -0.4261498938,
				"y": 1.6882155645,
				"z": -1.3001029189,
				"element": "C" 
			},
			{
				"x": -0.4577654793,
				"y": 0.2891153945,
				"z": -1.2525573347,
				"element": "C" 
			},
			{
				"x": 0.1767910829,
				"y": -0.397700541,
				"z": -0.2164924441,
				"element": "C" 
			},
			{
				"x": 0.8485804168,
				"y": 0.3231104364,
				"z": 0.78991952,
				"element": "C" 
			},
			{
				"x": 1.4639656729,
				"y": -0.3929142256,
				"z": 1.8106075526,
				"element": "N" 
			},
			{
				"x": 1.4950318479,
				"y": -1.7712622786,
				"z": 1.94655214,
				"element": "C" 
			},
			{
				"x": 2.0547971394,
				"y": -2.3221747489,
				"z": 2.8708797786,
				"element": "O" 
			},
			{
				"x": 0.7729888583,
				"y": -2.5580175419,
				"z": 0.8454240695,
				"element": "C" 
			},
			{
				"x": 0.728854651,
				"y": -3.7705955276,
				"z": 0.8443350782,
				"element": "O" 
			},
			{
				"x": 0.1786089684,
				"y": -1.7900140675,
				"z": -0.140295292,
				"element": "N" 
			},
			{
				"x": 0.8882804994,
				"y": 1.7213199489,
				"z": 0.7333415089,
				"element": "C" 
			},
			{
				"x": 0.26603458,
				"y": 2.396791908,
				"z": -0.3071410643,
				"element": "C" 
			},
			{
				"x": -2.35851769,
				"y": 1.06754288,
				"z": -2.6279069817,
				"element": "H" 
			},
			{
				"x": -0.933366331,
				"y": -0.2891511115,
				"z": -2.0410176423,
				"element": "H" 
			},
			{
				"x": 1.9514421654,
				"y": 0.1114383474,
				"z": 2.5424524006,
				"element": "H" 
			},
			{
				"x": -0.2901805014,
				"y": -2.3267343849,
				"z": -0.8609049696,
				"element": "H" 
			},
			{
				"x": 1.4150738278,
				"y": 2.2702302962,
				"z": 1.5086122674,
				"element": "H" 
			},
			{
				"x": 0.301753608,
				"y": 3.4780399825,
				"z": -0.3714336681,
				"element": "H" 
			}
		],
		 "valence_orbital": [ 
			{
				"type": "occ",
				"energy": -0.30651,
				"method": "rhf"
			},
			{
				"type": "occ",
				"energy": -0.28683,
				"method": "rhf"
			},
			{
				"type": "occ",
				"energy": -0.27618,
				"method": "rhf"
			},
			{
				"type": "occ",
				"energy": -0.2758,
				"method": "rhf"
			},
			{
				"type": "occ",
				"energy": -0.24328,
				"method": "rhf"
			},
			{
				"type": "unocc",
				"energy": -0.07516,
				"method": "rhf"
			},
			{
				"type": "unocc",
				"energy": -0.05586,
				"method": "rhf"
			},
			{
				"type": "unocc",
				"energy": -0.03422,
				"method": "rhf"
			},
			{
				"type": "unocc",
				"energy": 0.02628,
				"method": "rhf"
			},
			{
				"type": "unocc",
				"energy": 0.04359,
				"method": "rhf"
			}
		],
		"cosmo_sigma_profile": { 
			"-0.025": 0.0,
			"-0.024": 0.0,
			"-0.023": 0.0,
			"-0.022": 0.0,
			"-0.021": 0.0,
			"-0.02": 0.0,
			"-0.019": 0.556992744437,
			"-0.018": 0.767850108029,
			"-0.017": 2.06434016388,
			"-0.016": 4.61778930131,
			"-0.015": 4.1621596202,
			"-0.014": 3.12316592389,
			"-0.013": 3.03692694505,
			"-0.012": 4.25941474845,
			"-0.011": 3.90843162437,
			"-0.01": 3.59993718334,
			"-0.009": 3.78948886513,
			"-0.008": 4.97367343905,
			"-0.007": 7.4503499568,
			"-0.006": 8.37269778987,
			"-0.005": 7.67153812402,
			"-0.004": 10.0178940343,
			"-0.003": 11.0743008373,
			"-0.002": 12.1704012548,
			"-0.001": 12.4963221382,
			"0.0": 10.9720865087,
			"0.001": 11.5887814064,
			"0.002": 9.90637613174,
			"0.003": 5.44277036922,
			"0.004": 4.17082219011,
			"0.005": 4.35775831493,
			"0.006": 4.60550491024,
			"0.007": 3.66569521139,
			"0.008": 4.73687517857,
			"0.009": 6.85345680101,
			"0.01": 8.17325316286,
			"0.011": 12.6877920342,
			"0.012": 14.3935884875,
			"0.013": 4.42482997909,
			"0.014": 1.97775040353,
			"0.015": 0.715000502198,
			"0.016": 0.0,
			"0.017": 0.0,
			"0.018": 0.0,
			"0.019": 0.0,
			"0.02": 0.0,
			"0.021": 0.0,
			"0.022": 0.0,
			"0.023": 0.0,
			"0.024": 0.0,
			"0.025": 0.0
		}
	}
}
