{
	 "smiles": "COC1=CC=C(C#N)C(OC)=C1OC", 
	 "Tm": 329.15, 
	 "num_atms": 25, 
	 "gaussian": { 
		 "optdone": 1, 
		 "sigma_profile": "yes", 
		 "theory": "DFT", 
		 "functional": "B3LYP", 
		 "basiset": "6-31G**", 
		 "properties": { 
			 "R2extent": 3846.9274, 
			 "electric_dipole_moment_norm": 6.09318975989, 
			 "electric_quadrupole_moment_norm": 28.44817848, 
			 "total_energy": -668.045150611, 
			 "HOMO_LUMO_gap": 0.19297, 
			 "cosmo_polarized_energy": -12.5, 
			 "cosmo_cavitation_energy": 29.38, 
			 "cosmo_dispersion_energy": -20.41, 
			 "cosmo_repulsion_energy": 1.62, 
			 "cosmo_total_nonelectrostatic_energy": 10.59, 
			 "SMD_solvation_energy": 8.65 
		},
		"coords": [
			{
				"x": 1.8379153596,
				"y": 2.5726179943,
				"z": -2.2304714066,
				"element": "C" 
			},
			{
				"x": 1.007796727,
				"y": 2.9588332078,
				"z": -1.1246404206,
				"element": "O" 
			},
			{
				"x": -0.239861567,
				"y": 2.3833601986,
				"z": -1.106903444,
				"element": "C" 
			},
			{
				"x": -1.3483014867,
				"y": 3.1840853436,
				"z": -1.3850768998,
				"element": "C" 
			},
			{
				"x": -2.6184337903,
				"y": 2.6230993912,
				"z": -1.3754294247,
				"element": "C" 
			},
			{
				"x": -2.787889164,
				"y": 1.2616962611,
				"z": -1.0894576266,
				"element": "C" 
			},
			{
				"x": -4.1013603983,
				"y": 0.6933702792,
				"z": -1.0847841445,
				"element": "C" 
			},
			{
				"x": -5.1857732991,
				"y": 0.2716121791,
				"z": -1.0867620236,
				"element": "N" 
			},
			{
				"x": -1.6718570797,
				"y": 0.4405991404,
				"z": -0.7876460468,
				"element": "C" 
			},
			{
				"x": -1.9696854135,
				"y": -0.8603319059,
				"z": -0.5713715159,
				"element": "O" 
			},
			{
				"x": -1.1228940381,
				"y": -1.7342073347,
				"z": 0.1788978794,
				"element": "C" 
			},
			{
				"x": -0.3860621281,
				"y": 1.0181652744,
				"z": -0.7856329964,
				"element": "C" 
			},
			{
				"x": 0.724482422,
				"y": 0.2386253363,
				"z": -0.5464541054,
				"element": "O" 
			},
			{
				"x": 1.4459249464,
				"y": 0.5458610856,
				"z": 0.6571627953,
				"element": "C" 
			},
			{
				"x": 1.3738345385,
				"y": 2.8653017815,
				"z": -3.1798815612,
				"element": "H" 
			},
			{
				"x": 2.0248211367,
				"y": 1.4946957334,
				"z": -2.2304101089,
				"element": "H" 
			},
			{
				"x": 2.7783689106,
				"y": 3.1123811217,
				"z": -2.1060211162,
				"element": "H" 
			},
			{
				"x": -1.1888586974,
				"y": 4.2316054658,
				"z": -1.6142664461,
				"element": "H" 
			},
			{
				"x": -3.4920085378,
				"y": 3.2269407925,
				"z": -1.5946002216,
				"element": "H" 
			},
			{
				"x": -0.8497223794,
				"y": -1.2909066041,
				"z": 1.1426623403,
				"element": "H" 
			},
			{
				"x": -1.7281587865,
				"y": -2.6251256686,
				"z": 0.3548469475,
				"element": "H" 
			},
			{
				"x": -0.2195008081,
				"y": -1.9956338391,
				"z": -0.3735800575,
				"element": "H" 
			},
			{
				"x": 0.819030421,
				"y": 0.3731114088,
				"z": 1.5407032862,
				"element": "H" 
			},
			{
				"x": 2.2985841757,
				"y": -0.1354200519,
				"z": 0.6800164362,
				"element": "H" 
			},
			{
				"x": 1.7956089366,
				"y": 1.5810634086,
				"z": 0.6540998815,
				"element": "H" 
			}
		],
		 "valence_orbital": [ 
			{
				"type": "occ",
				"energy": -0.31691,
				"method": "rhf"
			},
			{
				"type": "occ",
				"energy": -0.30857,
				"method": "rhf"
			},
			{
				"type": "occ",
				"energy": -0.27762,
				"method": "rhf"
			},
			{
				"type": "occ",
				"energy": -0.24523,
				"method": "rhf"
			},
			{
				"type": "occ",
				"energy": -0.23349,
				"method": "rhf"
			},
			{
				"type": "unocc",
				"energy": -0.04052,
				"method": "rhf"
			},
			{
				"type": "unocc",
				"energy": -0.00956,
				"method": "rhf"
			},
			{
				"type": "unocc",
				"energy": 0.04272,
				"method": "rhf"
			},
			{
				"type": "unocc",
				"energy": 0.06284,
				"method": "rhf"
			},
			{
				"type": "unocc",
				"energy": 0.08021,
				"method": "rhf"
			}
		],
		"cosmo_sigma_profile": { 
			"-0.025": 0.0,
			"-0.024": 0.0,
			"-0.023": 0.0,
			"-0.022": 0.0,
			"-0.021": 0.0,
			"-0.02": 0.0,
			"-0.019": 0.0,
			"-0.018": 0.0,
			"-0.017": 0.0,
			"-0.016": 0.0,
			"-0.015": 0.0,
			"-0.014": 0.0,
			"-0.013": 0.0,
			"-0.012": 0.0,
			"-0.011": 0.0,
			"-0.01": 0.0,
			"-0.009": 0.027398126162,
			"-0.008": 1.87433825384,
			"-0.007": 4.83675454359,
			"-0.006": 12.6753154472,
			"-0.005": 18.2171838241,
			"-0.004": 22.3680419144,
			"-0.003": 29.9845671042,
			"-0.002": 20.5830862087,
			"-0.001": 18.392608261,
			"0.0": 18.7599448795,
			"0.001": 16.2966909642,
			"0.002": 12.8681586601,
			"0.003": 8.58390149744,
			"0.004": 5.75778606633,
			"0.005": 5.53761690816,
			"0.006": 5.17794119646,
			"0.007": 5.96714946305,
			"0.008": 7.1926010979,
			"0.009": 6.29215820985,
			"0.01": 4.53301375225,
			"0.011": 3.77301814584,
			"0.012": 2.56492123571,
			"0.013": 2.17787623491,
			"0.014": 0.334788752093,
			"0.015": 0.0,
			"0.016": 0.0,
			"0.017": 0.0,
			"0.018": 0.0,
			"0.019": 0.0,
			"0.02": 0.0,
			"0.021": 0.0,
			"0.022": 0.0,
			"0.023": 0.0,
			"0.024": 0.0,
			"0.025": 0.0
		}
	}
}
