{
	 "smiles": "NC(=O)CI", 
	 "Tm": 367.15, 
	 "num_atms": 9, 
	 "gaussian": { 
		 "optdone": 1, 
		 "sigma_profile": "no", 
		 "theory": "DFT", 
		 "functional": "B3LYP", 
		 "basiset": "6-31G**", 
		 "properties": { 
			 "R2extent": 1103.6299, 
			 "electric_dipole_moment_norm": 2.02541328375, 
			 "electric_quadrupole_moment_norm": 7.58227588788, 
			 "total_energy": -220.001938668, 
			 "HOMO_LUMO_gap": 0.2046, 
			 "cosmo_polarized_energy": -94233.06, 
			 "cosmo_cavitation_energy": 15.98, 
			 "cosmo_dispersion_energy": -13.61, 
			 "cosmo_repulsion_energy": 1.17, 
			 "cosmo_total_nonelectrostatic_energy": 3.54, 
			 "SMD_solvation_energy": 2.92 
		},
		"coords": [
			{
				"x": 0.7449199561,
				"y": -0.6372330835,
				"z": -1.1949029196,
				"element": "N" 
			},
			{
				"x": 0.7627055979,
				"y": -1.9900144671,
				"z": -1.1714196613,
				"element": "C" 
			},
			{
				"x": 1.6416193645,
				"y": -2.6745646945,
				"z": -1.6744347139,
				"element": "O" 
			},
			{
				"x": -0.3697601065,
				"y": -2.7418208353,
				"z": -0.469676071,
				"element": "C" 
			},
			{
				"x": -2.0291836869,
				"y": -1.6162730039,
				"z": 0.4076613678,
				"element": "I" 
			},
			{
				"x": 1.5034312912,
				"y": -0.1664433644,
				"z": -1.6643005635,
				"element": "H" 
			},
			{
				"x": 0.0010722686,
				"y": -0.0977620313,
				"z": -0.781155772,
				"element": "H" 
			},
			{
				"x": 0.0525705159,
				"y": -3.319603941,
				"z": 0.3510129546,
				"element": "H" 
			},
			{
				"x": -0.8274752008,
				"y": -3.4234845791,
				"z": -1.1842846212,
				"element": "H" 
			}
		],
		 "valence_orbital": [ 
			{
				"type": "occ",
				"energy": -0.37395,
				"method": "rhf"
			},
			{
				"type": "occ",
				"energy": -0.28661,
				"method": "rhf"
			},
			{
				"type": "occ",
				"energy": -0.28542,
				"method": "rhf"
			},
			{
				"type": "occ",
				"energy": -0.26967,
				"method": "rhf"
			},
			{
				"type": "occ",
				"energy": -0.25957,
				"method": "rhf"
			},
			{
				"type": "unocc",
				"energy": -0.05497,
				"method": "rhf"
			},
			{
				"type": "unocc",
				"energy": 0.01301,
				"method": "rhf"
			},
			{
				"type": "unocc",
				"energy": 0.03193,
				"method": "rhf"
			},
			{
				"type": "unocc",
				"energy": 0.04101,
				"method": "rhf"
			},
			{
				"type": "unocc",
				"energy": 0.04628,
				"method": "rhf"
			}
		],
		"cosmo_sigma_profile": { 
			"0.0": 0.0,
			"0.0": 0.0,
			"0.0": 0.0,
			"0.0": 0.0,
			"0.0": 0.0,
			"0.0": 0.0,
			"0.0": 0.0,
			"0.0": 0.0,
			"0.0": 0.0,
			"0.0": 0.0,
			"0.0": 0.0,
			"0.0": 0.0,
			"0.0": 0.0,
			"0.0": 0.0,
			"0.0": 0.0,
			"0.0": 0.0,
			"0.0": 0.0,
			"0.0": 0.0,
			"0.0": 0.0,
			"0.0": 0.0,
			"0.0": 0.0,
			"0.0": 0.0,
			"0.0": 0.0,
			"0.0": 0.0,
			"0.0": 0.0,
			"0.0": 0.0,
			"0.0": 0.0,
			"0.0": 0.0,
			"0.0": 0.0,
			"0.0": 0.0,
			"0.0": 0.0,
			"0.0": 0.0,
			"0.0": 0.0,
			"0.0": 0.0,
			"0.0": 0.0,
			"0.0": 0.0,
			"0.0": 0.0,
			"0.0": 0.0,
			"0.0": 0.0,
			"0.0": 0.0,
			"0.0": 0.0,
			"0.0": 0.0,
			"0.0": 0.0,
			"0.0": 0.0,
			"0.0": 0.0,
			"0.0": 0.0,
			"0.0": 0.0,
			"0.0": 0.0,
			"0.0": 0.0,
			"0.0": 0.0,
			"0.0": 0.0
		}
	}
}
