{
	 "smiles": "ClC1=CNC(=O)C(Cl)=C1", 
	 "Tm": 453.15, 
	 "num_atms": 12, 
	 "gaussian": { 
		 "optdone": 1, 
		 "sigma_profile": "yes", 
		 "theory": "DFT", 
		 "functional": "B3LYP", 
		 "basiset": "6-31G**", 
		 "properties": { 
			 "R2extent": 2362.3704, 
			 "electric_dipole_moment_norm": 3.71266820494, 
			 "electric_quadrupole_moment_norm": 14.8319497326, 
			 "total_energy": -1242.69342967, 
			 "HOMO_LUMO_gap": 0.165, 
			 "cosmo_polarized_energy": -14.27, 
			 "cosmo_cavitation_energy": 20.48, 
			 "cosmo_dispersion_energy": -15.68, 
			 "cosmo_repulsion_energy": 1.29, 
			 "cosmo_total_nonelectrostatic_energy": 6.1, 
			 "SMD_solvation_energy": 4.05 
		},
		"coords": [
			{
				"x": -1.434595401,
				"y": 1.390615301,
				"z": -3.3857432476,
				"element": "Cl" 
			},
			{
				"x": -1.3343155434,
				"y": 0.983617396,
				"z": -1.6883116824,
				"element": "C" 
			},
			{
				"x": -2.1407647507,
				"y": 0.0214289888,
				"z": -1.1582217679,
				"element": "C" 
			},
			{
				"x": -2.0385812859,
				"y": -0.2737087472,
				"z": 0.1714491659,
				"element": "N" 
			},
			{
				"x": -1.1632306524,
				"y": 0.3207572304,
				"z": 1.1003620398,
				"element": "C" 
			},
			{
				"x": -1.164672539,
				"y": -0.0271114502,
				"z": 2.2708147833,
				"element": "O" 
			},
			{
				"x": -0.3212619396,
				"y": 1.3475745563,
				"z": 0.4776527135,
				"element": "C" 
			},
			{
				"x": 0.8028475908,
				"y": 2.1571416701,
				"z": 1.523397325,
				"element": "Cl" 
			},
			{
				"x": -0.4033825437,
				"y": 1.6616198946,
				"z": -0.848759453,
				"element": "C" 
			},
			{
				"x": -2.869797635,
				"y": -0.5328778449,
				"z": -1.7354368091,
				"element": "H" 
			},
			{
				"x": -2.6334309549,
				"y": -0.9869817816,
				"z": 0.5758670192,
				"element": "H" 
			},
			{
				"x": 0.2380856549,
				"y": 2.4275247868,
				"z": -1.2702700867,
				"element": "H" 
			}
		],
		 "valence_orbital": [ 
			{
				"type": "occ",
				"energy": -0.33733,
				"method": "rhf"
			},
			{
				"type": "occ",
				"energy": -0.32009,
				"method": "rhf"
			},
			{
				"type": "occ",
				"energy": -0.29613,
				"method": "rhf"
			},
			{
				"type": "occ",
				"energy": -0.27292,
				"method": "rhf"
			},
			{
				"type": "occ",
				"energy": -0.23016,
				"method": "rhf"
			},
			{
				"type": "unocc",
				"energy": -0.06516,
				"method": "rhf"
			},
			{
				"type": "unocc",
				"energy": -0.00955,
				"method": "rhf"
			},
			{
				"type": "unocc",
				"energy": -0.00557,
				"method": "rhf"
			},
			{
				"type": "unocc",
				"energy": 0.04383,
				"method": "rhf"
			},
			{
				"type": "unocc",
				"energy": 0.07109,
				"method": "rhf"
			}
		],
		"cosmo_sigma_profile": { 
			"-0.025": 0.0,
			"-0.024": 0.0,
			"-0.023": 0.0,
			"-0.022": 0.0,
			"-0.021": 0.0,
			"-0.02": 0.0,
			"-0.019": 0.0,
			"-0.018": 0.102320930152,
			"-0.017": 1.49251046779,
			"-0.016": 1.53157718602,
			"-0.015": 1.42976288814,
			"-0.014": 1.20720412413,
			"-0.013": 1.05301218345,
			"-0.012": 1.49109245885,
			"-0.011": 2.92132375526,
			"-0.01": 2.57067967223,
			"-0.009": 3.72693566009,
			"-0.008": 3.3619913897,
			"-0.007": 3.17486589294,
			"-0.006": 3.81246550297,
			"-0.005": 3.90786756963,
			"-0.004": 4.53599645292,
			"-0.003": 10.6503669545,
			"-0.002": 14.0858898504,
			"-0.001": 14.5950474191,
			"0.0": 16.8333598387,
			"0.001": 10.8691953541,
			"0.002": 10.1593029667,
			"0.003": 14.0227547795,
			"0.004": 16.534632897,
			"0.005": 4.22353167578,
			"0.006": 1.57279272703,
			"0.007": 1.17913496317,
			"0.008": 1.1495653568,
			"0.009": 1.86043268884,
			"0.01": 2.0421995515,
			"0.011": 1.42266513579,
			"0.012": 3.1096232116,
			"0.013": 6.32940737261,
			"0.014": 2.45237418794,
			"0.015": 0.0548812516871,
			"0.016": 0.0,
			"0.017": 0.0,
			"0.018": 0.0,
			"0.019": 0.0,
			"0.02": 0.0,
			"0.021": 0.0,
			"0.022": 0.0,
			"0.023": 0.0,
			"0.024": 0.0,
			"0.025": 0.0
		}
	}
}
