{
	 "smiles": "O=C(C1=CC=CC=C1)C1=CC2=C(NC(=O)CC2)C=C1", 
	 "Tm": 481.15, 
	 "num_atms": 32, 
	 "gaussian": { 
		 "optdone": 1, 
		 "sigma_profile": "yes", 
		 "theory": "DFT", 
		 "functional": "B3LYP", 
		 "basiset": "6-31G**", 
		 "properties": { 
			 "R2extent": 7273.1099, 
			 "electric_dipole_moment_norm": 2.77737539955, 
			 "electric_quadrupole_moment_norm": 18.1640143572, 
			 "total_energy": -822.771725532, 
			 "HOMO_LUMO_gap": 0.16327, 
			 "cosmo_polarized_energy": -16.92, 
			 "cosmo_cavitation_energy": 35.93, 
			 "cosmo_dispersion_energy": -26.09, 
			 "cosmo_repulsion_energy": 1.99, 
			 "cosmo_total_nonelectrostatic_energy": 11.83, 
			 "SMD_solvation_energy": 6.61 
		},
		"coords": [
			{
				"x": 0.540323539,
				"y": -2.1902039079,
				"z": -3.8714617607,
				"element": "O" 
			},
			{
				"x": 0.8833010977,
				"y": -1.524627316,
				"z": -2.8984240354,
				"element": "C" 
			},
			{
				"x": 2.2776884856,
				"y": -1.6703733969,
				"z": -2.3594886494,
				"element": "C" 
			},
			{
				"x": 2.9199863065,
				"y": -2.9062168494,
				"z": -2.5378230609,
				"element": "C" 
			},
			{
				"x": 4.2298381218,
				"y": -3.0907656081,
				"z": -2.1052207181,
				"element": "C" 
			},
			{
				"x": 4.9268420588,
				"y": -2.0328386229,
				"z": -1.513187277,
				"element": "C" 
			},
			{
				"x": 4.3076117316,
				"y": -0.7917799332,
				"z": -1.3574443417,
				"element": "C" 
			},
			{
				"x": 2.9872532238,
				"y": -0.6112850241,
				"z": -1.772358993,
				"element": "C" 
			},
			{
				"x": -0.0876481351,
				"y": -0.5817345091,
				"z": -2.2615544029,
				"element": "C" 
			},
			{
				"x": -0.0258134958,
				"y": -0.1968577275,
				"z": -0.9118194491,
				"element": "C" 
			},
			{
				"x": -0.9920785756,
				"y": 0.6288698152,
				"z": -0.3426033778,
				"element": "C" 
			},
			{
				"x": -2.0574351897,
				"y": 1.0770357398,
				"z": -1.1467543745,
				"element": "C" 
			},
			{
				"x": -3.0313416582,
				"y": 1.9093192811,
				"z": -0.5824033185,
				"element": "N" 
			},
			{
				"x": -3.2641495171,
				"y": 2.0791409865,
				"z": 0.7738096089,
				"element": "C" 
			},
			{
				"x": -4.1656653922,
				"y": 2.7952139798,
				"z": 1.1741974896,
				"element": "O" 
			},
			{
				"x": -2.345375103,
				"y": 1.2695541374,
				"z": 1.6760060625,
				"element": "C" 
			},
			{
				"x": -0.9350567903,
				"y": 1.1088584109,
				"z": 1.0898649216,
				"element": "C" 
			},
			{
				"x": -2.1367017263,
				"y": 0.6991614451,
				"z": -2.4952896582,
				"element": "C" 
			},
			{
				"x": -1.1659655165,
				"y": -0.1286247883,
				"z": -3.0394380731,
				"element": "C" 
			},
			{
				"x": 2.3713982451,
				"y": -3.7072624866,
				"z": -3.0220866354,
				"element": "H" 
			},
			{
				"x": 4.7125091061,
				"y": -4.0551453867,
				"z": -2.2347382206,
				"element": "H" 
			},
			{
				"x": 5.9517264573,
				"y": -2.1743041713,
				"z": -1.1819418421,
				"element": "H" 
			},
			{
				"x": 4.853035532,
				"y": 0.0379470622,
				"z": -0.9171544857,
				"element": "H" 
			},
			{
				"x": 2.5183209658,
				"y": 0.3613985167,
				"z": -1.6662853755,
				"element": "H" 
			},
			{
				"x": 0.7813237569,
				"y": -0.5607689698,
				"z": -0.2836867443,
				"element": "H" 
			},
			{
				"x": -3.7094603077,
				"y": 2.355541379,
				"z": -1.1873850329,
				"element": "H" 
			},
			{
				"x": -2.3351953128,
				"y": 1.7531130705,
				"z": 2.6546917292,
				"element": "H" 
			},
			{
				"x": -2.8125564587,
				"y": 0.2833405976,
				"z": 1.8036987236,
				"element": "H" 
			},
			{
				"x": -0.4209244182,
				"y": 2.08054195,
				"z": 1.1251662354,
				"element": "H" 
			},
			{
				"x": -0.3428159449,
				"y": 0.4223374987,
				"z": 1.7027602347,
				"element": "H" 
			},
			{
				"x": -2.968205996,
				"y": 1.0458809692,
				"z": -3.1033953332,
				"element": "H" 
			},
			{
				"x": -1.2274690899,
				"y": -0.4510661419,
				"z": -4.0731498454,
				"element": "H" 
			}
		],
		 "valence_orbital": [ 
			{
				"type": "occ",
				"energy": -0.26211,
				"method": "rhf"
			},
			{
				"type": "occ",
				"energy": -0.2614,
				"method": "rhf"
			},
			{
				"type": "occ",
				"energy": -0.26018,
				"method": "rhf"
			},
			{
				"type": "occ",
				"energy": -0.24647,
				"method": "rhf"
			},
			{
				"type": "occ",
				"energy": -0.22776,
				"method": "rhf"
			},
			{
				"type": "unocc",
				"energy": -0.06449,
				"method": "rhf"
			},
			{
				"type": "unocc",
				"energy": -0.02084,
				"method": "rhf"
			},
			{
				"type": "unocc",
				"energy": -0.01878,
				"method": "rhf"
			},
			{
				"type": "unocc",
				"energy": -0.00877,
				"method": "rhf"
			},
			{
				"type": "unocc",
				"energy": 0.0179,
				"method": "rhf"
			}
		],
		"cosmo_sigma_profile": { 
			"-0.025": 0.0,
			"-0.024": 0.0,
			"-0.023": 0.0,
			"-0.022": 0.0,
			"-0.021": 0.0,
			"-0.02": 0.0,
			"-0.019": 0.0,
			"-0.018": 0.0,
			"-0.017": 0.0,
			"-0.016": 0.0,
			"-0.015": 0.699066847702,
			"-0.014": 1.37496979991,
			"-0.013": 1.21400147232,
			"-0.012": 1.15462860657,
			"-0.011": 1.63117713778,
			"-0.01": 0.955641331416,
			"-0.009": 1.19920940365,
			"-0.008": 1.36636750603,
			"-0.007": 3.41813169758,
			"-0.006": 16.2542157407,
			"-0.005": 27.3147241719,
			"-0.004": 27.5847995061,
			"-0.003": 24.8219227479,
			"-0.002": 24.0345149972,
			"-0.001": 18.8814264551,
			"0.0": 16.1080145273,
			"0.001": 17.424313296,
			"0.002": 17.7766928265,
			"0.003": 19.319627594,
			"0.004": 20.4380367903,
			"0.005": 7.17234602761,
			"0.006": 3.11023927569,
			"0.007": 3.31810881972,
			"0.008": 2.75656912598,
			"0.009": 3.25578972129,
			"0.01": 3.11606139647,
			"0.011": 4.48264549328,
			"0.012": 7.45373739253,
			"0.013": 7.58575006737,
			"0.014": 1.80728827245,
			"0.015": 0.0461150836058,
			"0.016": 0.0,
			"0.017": 0.0,
			"0.018": 0.0,
			"0.019": 0.0,
			"0.02": 0.0,
			"0.021": 0.0,
			"0.022": 0.0,
			"0.023": 0.0,
			"0.024": 0.0,
			"0.025": 0.0
		}
	}
}
