{
	 "smiles": "O=CC1=CC=C(OC2=NC=CC=C2)C=C1", 
	 "Tm": 318.65, 
	 "num_atms": 24, 
	 "gaussian": { 
		 "optdone": 1, 
		 "sigma_profile": "yes", 
		 "theory": "DFT", 
		 "functional": "B3LYP", 
		 "basiset": "6-31G**", 
		 "properties": { 
			 "R2extent": 4388.8648, 
			 "electric_dipole_moment_norm": 3.55123085282, 
			 "electric_quadrupole_moment_norm": 17.6668728353, 
			 "total_energy": -667.880081177, 
			 "HOMO_LUMO_gap": 0.1768, 
			 "cosmo_polarized_energy": -12.88, 
			 "cosmo_cavitation_energy": 29.48, 
			 "cosmo_dispersion_energy": -21.32, 
			 "cosmo_repulsion_energy": 1.65, 
			 "cosmo_total_nonelectrostatic_energy": 9.82, 
			 "SMD_solvation_energy": 4.85 
		},
		"coords": [
			{
				"x": 2.0081777216,
				"y": -0.7540225482,
				"z": 4.1859193394,
				"element": "O" 
			},
			{
				"x": 1.0158314573,
				"y": -0.0520354171,
				"z": 4.1165287972,
				"element": "C" 
			},
			{
				"x": 0.3465278997,
				"y": 0.3365107234,
				"z": 2.8595174207,
				"element": "C" 
			},
			{
				"x": -0.7987678458,
				"y": 1.1445514061,
				"z": 2.8889489186,
				"element": "C" 
			},
			{
				"x": -1.4383949115,
				"y": 1.5090590933,
				"z": 1.7096505061,
				"element": "C" 
			},
			{
				"x": -0.9251869629,
				"y": 1.0654274373,
				"z": 0.4858430264,
				"element": "C" 
			},
			{
				"x": -1.5624362485,
				"y": 1.5213107258,
				"z": -0.6409529879,
				"element": "O" 
			},
			{
				"x": -1.6686063841,
				"y": 0.7466254018,
				"z": -1.776752708,
				"element": "C" 
			},
			{
				"x": -1.5910071176,
				"y": 1.4386842389,
				"z": -2.9039734195,
				"element": "N" 
			},
			{
				"x": -1.7625816283,
				"y": 0.7672339073,
				"z": -4.0510064178,
				"element": "C" 
			},
			{
				"x": -2.0072427626,
				"y": -0.6026663174,
				"z": -4.1154271017,
				"element": "C" 
			},
			{
				"x": -2.0906500125,
				"y": -1.3091898654,
				"z": -2.9130563174,
				"element": "C" 
			},
			{
				"x": -1.9249674575,
				"y": -0.6299164074,
				"z": -1.7105741383,
				"element": "C" 
			},
			{
				"x": 0.2293393753,
				"y": 0.267689098,
				"z": 0.4371347218,
				"element": "C" 
			},
			{
				"x": 0.8534485775,
				"y": -0.0942310218,
				"z": 1.6227046475,
				"element": "C" 
			},
			{
				"x": 0.5383187507,
				"y": 0.3523509373,
				"z": 5.0374898369,
				"element": "H" 
			},
			{
				"x": -1.1918775279,
				"y": 1.4840642415,
				"z": 3.844422138,
				"element": "H" 
			},
			{
				"x": -2.3256286657,
				"y": 2.1328117791,
				"z": 1.7088769239,
				"element": "H" 
			},
			{
				"x": -1.6969206657,
				"y": 1.3612910625,
				"z": -4.9604040418,
				"element": "H" 
			},
			{
				"x": -2.1326699577,
				"y": -1.0969793084,
				"z": -5.0727028258,
				"element": "H" 
			},
			{
				"x": -2.292927392,
				"y": -2.3762683496,
				"z": -2.9090614242,
				"element": "H" 
			},
			{
				"x": -1.9965926988,
				"y": -1.138031871,
				"z": -0.7560296479,
				"element": "H" 
			},
			{
				"x": 0.6296252574,
				"y": -0.0493128487,
				"z": -0.5195449312,
				"element": "H" 
			},
			{
				"x": 1.7493891995,
				"y": -0.7070560974,
				"z": 1.6176496851,
				"element": "H" 
			}
		],
		 "valence_orbital": [ 
			{
				"type": "occ",
				"energy": -0.27625,
				"method": "rhf"
			},
			{
				"type": "occ",
				"energy": -0.2738,
				"method": "rhf"
			},
			{
				"type": "occ",
				"energy": -0.26784,
				"method": "rhf"
			},
			{
				"type": "occ",
				"energy": -0.25385,
				"method": "rhf"
			},
			{
				"type": "occ",
				"energy": -0.2387,
				"method": "rhf"
			},
			{
				"type": "unocc",
				"energy": -0.0619,
				"method": "rhf"
			},
			{
				"type": "unocc",
				"energy": -0.03593,
				"method": "rhf"
			},
			{
				"type": "unocc",
				"energy": -0.02024,
				"method": "rhf"
			},
			{
				"type": "unocc",
				"energy": -0.01493,
				"method": "rhf"
			},
			{
				"type": "unocc",
				"energy": 0.04132,
				"method": "rhf"
			}
		],
		"cosmo_sigma_profile": { 
			"-0.025": 0.0,
			"-0.024": 0.0,
			"-0.023": 0.0,
			"-0.022": 0.0,
			"-0.021": 0.0,
			"-0.02": 0.0,
			"-0.019": 0.0,
			"-0.018": 0.0,
			"-0.017": 0.0,
			"-0.016": 0.0,
			"-0.015": 0.0,
			"-0.014": 0.0,
			"-0.013": 0.0,
			"-0.012": 0.0,
			"-0.011": 0.0,
			"-0.01": 0.0,
			"-0.009": 0.00237845804006,
			"-0.008": 3.35564372726,
			"-0.007": 14.684872573,
			"-0.006": 20.4762148662,
			"-0.005": 18.3226658754,
			"-0.004": 15.4199023958,
			"-0.003": 14.4821991048,
			"-0.002": 13.533516409,
			"-0.001": 14.7959767342,
			"0.0": 17.3875262191,
			"0.001": 22.7001430847,
			"0.002": 25.5435235635,
			"0.003": 15.5059567993,
			"0.004": 4.0586079073,
			"0.005": 3.70167718858,
			"0.006": 3.9846230818,
			"0.007": 3.46832790052,
			"0.008": 3.24549316848,
			"0.009": 3.42813406872,
			"0.01": 4.72708803096,
			"0.011": 5.42132964418,
			"0.012": 4.36176751828,
			"0.013": 2.52742356539,
			"0.014": 1.0084545788,
			"0.015": 1.09463117047,
			"0.016": 0.42642435419,
			"0.017": 0.0,
			"0.018": 0.0,
			"0.019": 0.0,
			"0.02": 0.0,
			"0.021": 0.0,
			"0.022": 0.0,
			"0.023": 0.0,
			"0.024": 0.0,
			"0.025": 0.0
		}
	}
}
