{
	 "smiles": "CN1C(=O)OC(C)(C)C1=O", 
	 "Tm": 319.65, 
	 "num_atms": 19, 
	 "gaussian": { 
		 "optdone": 1, 
		 "sigma_profile": "yes", 
		 "theory": "DFT", 
		 "functional": "B3LYP", 
		 "basiset": "6-31G**", 
		 "properties": { 
			 "R2extent": 1364.5917, 
			 "electric_dipole_moment_norm": 1.73229903308, 
			 "electric_quadrupole_moment_norm": 16.7935497525, 
			 "total_energy": -514.532449874, 
			 "HOMO_LUMO_gap": 0.25459, 
			 "cosmo_polarized_energy": -11.27, 
			 "cosmo_cavitation_energy": 22.8, 
			 "cosmo_dispersion_energy": -16.23, 
			 "cosmo_repulsion_energy": 1.33, 
			 "cosmo_total_nonelectrostatic_energy": 7.9, 
			 "SMD_solvation_energy": 6.27 
		},
		"coords": [
			{
				"x": 2.2245177411,
				"y": -0.0436757015,
				"z": -0.6564842453,
				"element": "C" 
			},
			{
				"x": 0.7907377791,
				"y": -0.0473767418,
				"z": -0.4174509553,
				"element": "N" 
			},
			{
				"x": -0.0273282577,
				"y": -1.1459296082,
				"z": -0.7055547627,
				"element": "C" 
			},
			{
				"x": 0.3299875817,
				"y": -2.1960493945,
				"z": -1.1721812255,
				"element": "O" 
			},
			{
				"x": -1.3051262506,
				"y": -0.8344427487,
				"z": -0.3705014135,
				"element": "O" 
			},
			{
				"x": -1.3818895852,
				"y": 0.5180802119,
				"z": 0.1661961404,
				"element": "C" 
			},
			{
				"x": -2.2778987622,
				"y": 1.3607281578,
				"z": -0.7396448189,
				"element": "C" 
			},
			{
				"x": -1.8840369071,
				"y": 0.4516719299,
				"z": 1.6073392428,
				"element": "C" 
			},
			{
				"x": 0.0705214266,
				"y": 1.0037169228,
				"z": 0.1105561385,
				"element": "C" 
			},
			{
				"x": 0.4990550504,
				"y": 2.0854871973,
				"z": 0.4576158083,
				"element": "O" 
			},
			{
				"x": 2.432329851,
				"y": -0.2052328644,
				"z": -1.7168863791,
				"element": "H" 
			},
			{
				"x": 2.6011540334,
				"y": 0.9312847802,
				"z": -0.3450189812,
				"element": "H" 
			},
			{
				"x": 2.7074411977,
				"y": -0.8348311708,
				"z": -0.0779880855,
				"element": "H" 
			},
			{
				"x": -2.2752054075,
				"y": 2.3977097784,
				"z": -0.3942777733,
				"element": "H" 
			},
			{
				"x": -1.9194758259,
				"y": 1.3358022693,
				"z": -1.7723588786,
				"element": "H" 
			},
			{
				"x": -3.3012368792,
				"y": 0.9769872549,
				"z": -0.7166478616,
				"element": "H" 
			},
			{
				"x": -1.8650276054,
				"y": 1.451848372,
				"z": 2.0476807438,
				"element": "H" 
			},
			{
				"x": -2.907494499,
				"y": 0.0682553204,
				"z": 1.6304901615,
				"element": "H" 
			},
			{
				"x": -1.2515246814,
				"y": -0.206733965,
				"z": 2.2090171454,
				"element": "H" 
			}
		],
		 "valence_orbital": [ 
			{
				"type": "occ",
				"energy": -0.37868,
				"method": "rhf"
			},
			{
				"type": "occ",
				"energy": -0.30836,
				"method": "rhf"
			},
			{
				"type": "occ",
				"energy": -0.30391,
				"method": "rhf"
			},
			{
				"type": "occ",
				"energy": -0.28715,
				"method": "rhf"
			},
			{
				"type": "occ",
				"energy": -0.2722,
				"method": "rhf"
			},
			{
				"type": "unocc",
				"energy": -0.01761,
				"method": "rhf"
			},
			{
				"type": "unocc",
				"energy": 0.04443,
				"method": "rhf"
			},
			{
				"type": "unocc",
				"energy": 0.08287,
				"method": "rhf"
			},
			{
				"type": "unocc",
				"energy": 0.09422,
				"method": "rhf"
			},
			{
				"type": "unocc",
				"energy": 0.11045,
				"method": "rhf"
			}
		],
		"cosmo_sigma_profile": { 
			"-0.025": 0.0,
			"-0.024": 0.0,
			"-0.023": 0.0,
			"-0.022": 0.0,
			"-0.021": 0.0,
			"-0.02": 0.0,
			"-0.019": 0.0,
			"-0.018": 0.0,
			"-0.017": 0.0,
			"-0.016": 0.0,
			"-0.015": 0.0,
			"-0.014": 0.0,
			"-0.013": 0.0,
			"-0.012": 0.0,
			"-0.011": 0.0,
			"-0.01": 0.0,
			"-0.009": 0.53274722325,
			"-0.008": 1.51203726732,
			"-0.007": 5.13552907879,
			"-0.006": 12.73387864,
			"-0.005": 22.288335581,
			"-0.004": 20.0011015497,
			"-0.003": 20.2456458246,
			"-0.002": 16.7633961716,
			"-0.001": 14.808138487,
			"0.0": 6.30777287199,
			"0.001": 4.99981157838,
			"0.002": 4.30326903022,
			"0.003": 3.86116586159,
			"0.004": 3.44074287375,
			"0.005": 3.35579523746,
			"0.006": 3.86958273796,
			"0.007": 4.06117229083,
			"0.008": 4.96152588707,
			"0.009": 5.02379787489,
			"0.01": 5.13033316049,
			"0.011": 10.2620848952,
			"0.012": 5.65443928558,
			"0.013": 0.347728126337,
			"0.014": 0.0,
			"0.015": 0.0,
			"0.016": 0.0,
			"0.017": 0.0,
			"0.018": 0.0,
			"0.019": 0.0,
			"0.02": 0.0,
			"0.021": 0.0,
			"0.022": 0.0,
			"0.023": 0.0,
			"0.024": 0.0,
			"0.025": 0.0
		}
	}
}
