{
	 "smiles": "CC1=NNC(=O)C(C#N)=C1C", 
	 "Tm": 290.15, 
	 "num_atms": 18, 
	 "gaussian": { 
		 "optdone": 1, 
		 "sigma_profile": "yes", 
		 "theory": "DFT", 
		 "functional": "B3LYP", 
		 "basiset": "6-31G**", 
		 "properties": { 
			 "R2extent": 2338.0763, 
			 "electric_dipole_moment_norm": 6.32933183282, 
			 "electric_quadrupole_moment_norm": 19.6220379253, 
			 "total_energy": -510.412225697, 
			 "HOMO_LUMO_gap": 0.15805, 
			 "cosmo_polarized_energy": -17.23, 
			 "cosmo_cavitation_energy": 23.26, 
			 "cosmo_dispersion_energy": -16.59, 
			 "cosmo_repulsion_energy": 1.34, 
			 "cosmo_total_nonelectrostatic_energy": 8.0, 
			 "SMD_solvation_energy": 5.45 
		},
		"coords": [
			{
				"x": -2.3595251152,
				"y": 0.5369498219,
				"z": 0.396922639,
				"element": "C" 
			},
			{
				"x": -1.0119609437,
				"y": 1.1084626168,
				"z": 0.7498831744,
				"element": "C" 
			},
			{
				"x": -1.0005477327,
				"y": 2.0267205841,
				"z": 1.6845994782,
				"element": "N" 
			},
			{
				"x": 0.1787766147,
				"y": 2.5573925788,
				"z": 2.0247688367,
				"element": "N" 
			},
			{
				"x": 1.446966793,
				"y": 2.2681999267,
				"z": 1.5136148239,
				"element": "C" 
			},
			{
				"x": 2.4439168953,
				"y": 2.8397688416,
				"z": 1.926467071,
				"element": "O" 
			},
			{
				"x": 1.3908280407,
				"y": 1.2360271935,
				"z": 0.4701965703,
				"element": "C" 
			},
			{
				"x": 2.6349217745,
				"y": 0.8599291079,
				"z": -0.1255981635,
				"element": "C" 
			},
			{
				"x": 3.6326216459,
				"y": 0.5347425025,
				"z": -0.6274210402,
				"element": "N" 
			},
			{
				"x": 0.196678268,
				"y": 0.663904317,
				"z": 0.0901628011,
				"element": "C" 
			},
			{
				"x": 0.1149314713,
				"y": -0.3936677117,
				"z": -0.9749629214,
				"element": "C" 
			},
			{
				"x": -3.1234593802,
				"y": 1.0133412351,
				"z": 1.012560818,
				"element": "H" 
			},
			{
				"x": -2.3963222689,
				"y": -0.5446843491,
				"z": 0.5691705138,
				"element": "H" 
			},
			{
				"x": -2.6052571335,
				"y": 0.7055971384,
				"z": -0.6576407204,
				"element": "H" 
			},
			{
				"x": 0.1425989469,
				"y": 3.2636192642,
				"z": 2.7512357179,
				"element": "H" 
			},
			{
				"x": 1.097785753,
				"y": -0.6300233968,
				"z": -1.3837441644,
				"element": "H" 
			},
			{
				"x": -0.3243296962,
				"y": -1.3131927251,
				"z": -0.5722667693,
				"element": "H" 
			},
			{
				"x": -0.5329239328,
				"y": -0.0651869459,
				"z": -1.795348665,
				"element": "H" 
			}
		],
		 "valence_orbital": [ 
			{
				"type": "occ",
				"energy": -0.33929,
				"method": "rhf"
			},
			{
				"type": "occ",
				"energy": -0.32962,
				"method": "rhf"
			},
			{
				"type": "occ",
				"energy": -0.30818,
				"method": "rhf"
			},
			{
				"type": "occ",
				"energy": -0.26908,
				"method": "rhf"
			},
			{
				"type": "occ",
				"energy": -0.252,
				"method": "rhf"
			},
			{
				"type": "unocc",
				"energy": -0.09395,
				"method": "rhf"
			},
			{
				"type": "unocc",
				"energy": -0.01833,
				"method": "rhf"
			},
			{
				"type": "unocc",
				"energy": 0.02461,
				"method": "rhf"
			},
			{
				"type": "unocc",
				"energy": 0.04532,
				"method": "rhf"
			},
			{
				"type": "unocc",
				"energy": 0.0706,
				"method": "rhf"
			}
		],
		"cosmo_sigma_profile": { 
			"-0.025": 0.0,
			"-0.024": 0.0,
			"-0.023": 0.0,
			"-0.022": 0.0,
			"-0.021": 0.0,
			"-0.02": 0.0,
			"-0.019": 0.0,
			"-0.018": 0.0,
			"-0.017": 0.450863990458,
			"-0.016": 1.35449366968,
			"-0.015": 0.978512624969,
			"-0.014": 1.12991716977,
			"-0.013": 0.399654796438,
			"-0.012": 0.807219877884,
			"-0.011": 1.17648213197,
			"-0.01": 0.91927529019,
			"-0.009": 0.550333621065,
			"-0.008": 1.64427778235,
			"-0.007": 7.11647821024,
			"-0.006": 10.0561062228,
			"-0.005": 13.2994345452,
			"-0.004": 20.8729813521,
			"-0.003": 24.5508731669,
			"-0.002": 17.3176573011,
			"-0.001": 11.018676002,
			"0.0": 5.60082789725,
			"0.001": 5.05310751479,
			"0.002": 4.85898530523,
			"0.003": 3.80868662254,
			"0.004": 3.88984068174,
			"0.005": 4.63959428513,
			"0.006": 4.86719856089,
			"0.007": 6.15764031472,
			"0.008": 6.07778913253,
			"0.009": 5.70157548579,
			"0.01": 4.80576704779,
			"0.011": 5.12321226277,
			"0.012": 6.96777343959,
			"0.013": 4.95187397564,
			"0.014": 0.149084050458,
			"0.015": 0.0,
			"0.016": 0.0,
			"0.017": 0.0,
			"0.018": 0.0,
			"0.019": 0.0,
			"0.02": 0.0,
			"0.021": 0.0,
			"0.022": 0.0,
			"0.023": 0.0,
			"0.024": 0.0,
			"0.025": 0.0
		}
	}
}
