{
	 "smiles": "COC(=O)C1=CC(Br)=C(Br)S1", 
	 "Tm": 352.15, 
	 "num_atms": 15, 
	 "gaussian": { 
		 "optdone": 1, 
		 "sigma_profile": "yes", 
		 "theory": "DFT", 
		 "functional": "B3LYP", 
		 "basiset": "6-31G**", 
		 "properties": { 
			 "R2extent": 5803.9954, 
			 "electric_dipole_moment_norm": 2.10990196455, 
			 "electric_quadrupole_moment_norm": 9.95138259339, 
			 "total_energy": -5922.47411863, 
			 "HOMO_LUMO_gap": 0.17378, 
			 "cosmo_polarized_energy": -6.37, 
			 "cosmo_cavitation_energy": 26.59, 
			 "cosmo_dispersion_energy": -20.72, 
			 "cosmo_repulsion_energy": 1.63, 
			 "cosmo_total_nonelectrostatic_energy": 7.5, 
			 "SMD_solvation_energy": 3.77 
		},
		"coords": [
			{
				"x": -2.2939964366,
				"y": 2.8398858879,
				"z": 0.5568016352,
				"element": "C" 
			},
			{
				"x": -1.6530223837,
				"y": 1.6233470683,
				"z": 0.134449471,
				"element": "O" 
			},
			{
				"x": -0.3450846432,
				"y": 1.5265840409,
				"z": 0.4508172499,
				"element": "C" 
			},
			{
				"x": 0.2820026734,
				"y": 2.3811100091,
				"z": 1.0475310383,
				"element": "O" 
			},
			{
				"x": 0.2347528014,
				"y": 0.2572747911,
				"z": -0.0147619007,
				"element": "C" 
			},
			{
				"x": -0.3575061558,
				"y": -0.7795887489,
				"z": -0.6917298841,
				"element": "C" 
			},
			{
				"x": 0.5504320402,
				"y": -1.8386279587,
				"z": -0.9622190779,
				"element": "C" 
			},
			{
				"x": 0.041782275,
				"y": -3.4088270609,
				"z": -1.8797272137,
				"element": "Br" 
			},
			{
				"x": 1.8162406653,
				"y": -1.5878549037,
				"z": -0.4861328208,
				"element": "C" 
			},
			{
				"x": 3.3249650119,
				"y": -2.6919435672,
				"z": -0.6121909155,
				"element": "Br" 
			},
			{
				"x": 1.9217990087,
				"y": -0.0463161407,
				"z": 0.3045546946,
				"element": "S" 
			},
			{
				"x": -3.3287676948,
				"y": 2.7542932671,
				"z": 0.2265118897,
				"element": "H" 
			},
			{
				"x": -1.8130286098,
				"y": 3.7062588967,
				"z": 0.0964235595,
				"element": "H" 
			},
			{
				"x": -2.2436299266,
				"y": 2.9422995654,
				"z": 1.6434710333,
				"element": "H" 
			},
			{
				"x": -1.3987386253,
				"y": -0.7867951463,
				"z": -0.9849987586,
				"element": "H" 
			}
		],
		 "valence_orbital": [ 
			{
				"type": "occ",
				"energy": -0.31374,
				"method": "rhf"
			},
			{
				"type": "occ",
				"energy": -0.29813,
				"method": "rhf"
			},
			{
				"type": "occ",
				"energy": -0.28965,
				"method": "rhf"
			},
			{
				"type": "occ",
				"energy": -0.26793,
				"method": "rhf"
			},
			{
				"type": "occ",
				"energy": -0.24467,
				"method": "rhf"
			},
			{
				"type": "unocc",
				"energy": -0.07089,
				"method": "rhf"
			},
			{
				"type": "unocc",
				"energy": -0.02498,
				"method": "rhf"
			},
			{
				"type": "unocc",
				"energy": -0.0068,
				"method": "rhf"
			},
			{
				"type": "unocc",
				"energy": 0.00967,
				"method": "rhf"
			},
			{
				"type": "unocc",
				"energy": 0.02457,
				"method": "rhf"
			}
		],
		"cosmo_sigma_profile": { 
			"-0.025": 0.0,
			"-0.024": 0.0,
			"-0.023": 0.0,
			"-0.022": 0.0,
			"-0.021": 0.0,
			"-0.02": 0.0,
			"-0.019": 0.0,
			"-0.018": 0.0,
			"-0.017": 0.0,
			"-0.016": 0.0,
			"-0.015": 0.0,
			"-0.014": 0.0,
			"-0.013": 0.0,
			"-0.012": 0.0,
			"-0.011": 0.0,
			"-0.01": 0.0214508017056,
			"-0.009": 0.78255099156,
			"-0.008": 1.18968742481,
			"-0.007": 3.51134265122,
			"-0.006": 9.38769519128,
			"-0.005": 11.3848302259,
			"-0.004": 14.3139202202,
			"-0.003": 17.3615955793,
			"-0.002": 16.0519344059,
			"-0.001": 25.8180908205,
			"0.0": 30.4359238812,
			"0.001": 22.9480307506,
			"0.002": 21.0216334133,
			"0.003": 20.0250496102,
			"0.004": 9.90332095385,
			"0.005": 3.22941166526,
			"0.006": 1.91888474202,
			"0.007": 2.12240545503,
			"0.008": 1.76850417429,
			"0.009": 1.24314471894,
			"0.01": 2.13004548006,
			"0.011": 4.69204875858,
			"0.012": 1.28279423028,
			"0.013": 0.0,
			"0.014": 0.0,
			"0.015": 0.0,
			"0.016": 0.0,
			"0.017": 0.0,
			"0.018": 0.0,
			"0.019": 0.0,
			"0.02": 0.0,
			"0.021": 0.0,
			"0.022": 0.0,
			"0.023": 0.0,
			"0.024": 0.0,
			"0.025": 0.0
		}
	}
}
