{
	 "smiles": "N#CC1=C(OC2CCOCC2)C=CC=C1", 
	 "Tm": 326.15, 
	 "num_atms": 28, 
	 "gaussian": { 
		 "optdone": 1, 
		 "sigma_profile": "yes", 
		 "theory": "DFT", 
		 "functional": "B3LYP", 
		 "basiset": "6-31G**", 
		 "properties": { 
			 "R2extent": 3522.3909, 
			 "electric_dipole_moment_norm": 3.85131786925, 
			 "electric_quadrupole_moment_norm": 14.8158080603, 
			 "total_energy": -670.267686737, 
			 "HOMO_LUMO_gap": 0.19309, 
			 "cosmo_polarized_energy": -12.86, 
			 "cosmo_cavitation_energy": 31.34, 
			 "cosmo_dispersion_energy": -21.8, 
			 "cosmo_repulsion_energy": 1.7, 
			 "cosmo_total_nonelectrostatic_energy": 11.24, 
			 "SMD_solvation_energy": 6.15 
		},
		"coords": [
			{
				"x": -0.753272388,
				"y": 1.6541451669,
				"z": -2.2973399816,
				"element": "N" 
			},
			{
				"x": -0.5888355251,
				"y": 0.5248427121,
				"z": -2.0684489339,
				"element": "C" 
			},
			{
				"x": -0.3860652261,
				"y": -0.8677926777,
				"z": -1.8045412808,
				"element": "C" 
			},
			{
				"x": -0.2850857729,
				"y": -1.3452784067,
				"z": -0.4759537936,
				"element": "C" 
			},
			{
				"x": -0.3940232593,
				"y": -0.5173661376,
				"z": 0.6014177599,
				"element": "O" 
			},
			{
				"x": 0.6657391275,
				"y": 0.4567943886,
				"z": 0.8336794992,
				"element": "C" 
			},
			{
				"x": 1.8531761745,
				"y": -0.2136482241,
				"z": 1.5257603844,
				"element": "C" 
			},
			{
				"x": 1.4674836078,
				"y": -0.7501717405,
				"z": 2.919021134,
				"element": "C" 
			},
			{
				"x": 0.422167626,
				"y": -0.0079497781,
				"z": 3.538985359,
				"element": "O" 
			},
			{
				"x": 0.4430098411,
				"y": 1.3690566938,
				"z": 3.1961376302,
				"element": "C" 
			},
			{
				"x": 0.0707048805,
				"y": 1.5691226295,
				"z": 1.7177495611,
				"element": "C" 
			},
			{
				"x": -0.1559175453,
				"y": -2.720382268,
				"z": -0.2581792268,
				"element": "C" 
			},
			{
				"x": -0.1125678852,
				"y": -3.6084773781,
				"z": -1.33144797,
				"element": "C" 
			},
			{
				"x": -0.1898373787,
				"y": -3.1373790366,
				"z": -2.6452939317,
				"element": "C" 
			},
			{
				"x": -0.3299434934,
				"y": -1.7737733081,
				"z": -2.8791579013,
				"element": "C" 
			},
			{
				"x": 0.9744140173,
				"y": 0.86779809,
				"z": -0.1314591519,
				"element": "H" 
			},
			{
				"x": 2.6485685152,
				"y": 0.5373476577,
				"z": 1.6083109343,
				"element": "H" 
			},
			{
				"x": 2.2556461595,
				"y": -1.0249488703,
				"z": 0.9095704879,
				"element": "H" 
			},
			{
				"x": 2.3585829136,
				"y": -0.7656628914,
				"z": 3.5678415281,
				"element": "H" 
			},
			{
				"x": 1.0946840401,
				"y": -1.7761506928,
				"z": 2.8447019075,
				"element": "H" 
			},
			{
				"x": -0.280422848,
				"y": 1.8613750467,
				"z": 3.8517095639,
				"element": "H" 
			},
			{
				"x": 1.4314207906,
				"y": 1.8082530944,
				"z": 3.4130672225,
				"element": "H" 
			},
			{
				"x": -1.0142914256,
				"y": 1.5479624735,
				"z": 1.587750951,
				"element": "H" 
			},
			{
				"x": 0.4222560926,
				"y": 2.5477628641,
				"z": 1.3718812253,
				"element": "H" 
			},
			{
				"x": -0.1037067387,
				"y": -3.0717483064,
				"z": 0.7668048029,
				"element": "H" 
			},
			{
				"x": -0.0132289701,
				"y": -4.6730890295,
				"z": -1.1410638631,
				"element": "H" 
			},
			{
				"x": -0.1514896188,
				"y": -3.8289709643,
				"z": -3.4805137513,
				"element": "H" 
			},
			{
				"x": -0.4102657113,
				"y": -1.3907711072,
				"z": -3.8911901653,
				"element": "H" 
			}
		],
		 "valence_orbital": [ 
			{
				"type": "occ",
				"energy": -0.30127,
				"method": "rhf"
			},
			{
				"type": "occ",
				"energy": -0.29055,
				"method": "rhf"
			},
			{
				"type": "occ",
				"energy": -0.26904,
				"method": "rhf"
			},
			{
				"type": "occ",
				"energy": -0.25077,
				"method": "rhf"
			},
			{
				"type": "occ",
				"energy": -0.24475,
				"method": "rhf"
			},
			{
				"type": "unocc",
				"energy": -0.05166,
				"method": "rhf"
			},
			{
				"type": "unocc",
				"energy": -0.01892,
				"method": "rhf"
			},
			{
				"type": "unocc",
				"energy": 0.03387,
				"method": "rhf"
			},
			{
				"type": "unocc",
				"energy": 0.06845,
				"method": "rhf"
			},
			{
				"type": "unocc",
				"energy": 0.0763,
				"method": "rhf"
			}
		],
		"cosmo_sigma_profile": { 
			"-0.025": 0.0,
			"-0.024": 0.0,
			"-0.023": 0.0,
			"-0.022": 0.0,
			"-0.021": 0.0,
			"-0.02": 0.0,
			"-0.019": 0.0,
			"-0.018": 0.0,
			"-0.017": 0.0,
			"-0.016": 0.0,
			"-0.015": 0.0,
			"-0.014": 0.0,
			"-0.013": 0.0,
			"-0.012": 0.0,
			"-0.011": 0.0,
			"-0.01": 0.0,
			"-0.009": 0.0114680592465,
			"-0.008": 1.66912052486,
			"-0.007": 6.56565650476,
			"-0.006": 9.4119530011,
			"-0.005": 20.5297638764,
			"-0.004": 29.4636521902,
			"-0.003": 31.7618234436,
			"-0.002": 24.2324840923,
			"-0.001": 18.9366613805,
			"0.0": 14.9653995154,
			"0.001": 13.808323955,
			"0.002": 15.5775705388,
			"0.003": 13.8831687828,
			"0.004": 5.37593199244,
			"0.005": 4.08070706576,
			"0.006": 5.08229405439,
			"0.007": 3.63227249464,
			"0.008": 4.99248305466,
			"0.009": 5.21288302921,
			"0.01": 4.43484959194,
			"0.011": 5.28327545694,
			"0.012": 4.46513360231,
			"0.013": 4.10472806034,
			"0.014": 1.11568501442,
			"0.015": 0.0,
			"0.016": 0.0,
			"0.017": 0.0,
			"0.018": 0.0,
			"0.019": 0.0,
			"0.02": 0.0,
			"0.021": 0.0,
			"0.022": 0.0,
			"0.023": 0.0,
			"0.024": 0.0,
			"0.025": 0.0
		}
	}
}
