{
	 "smiles": "O=C1NN=CC=C1", 
	 "Tm": 369.15, 
	 "num_atms": 11, 
	 "gaussian": { 
		 "optdone": 1, 
		 "sigma_profile": "yes", 
		 "theory": "DFT", 
		 "functional": "B3LYP", 
		 "basiset": "6-31G**", 
		 "properties": { 
			 "R2extent": 916.2462, 
			 "electric_dipole_moment_norm": 3.13626076881, 
			 "electric_quadrupole_moment_norm": 9.34364097288, 
			 "total_energy": -339.532931142, 
			 "HOMO_LUMO_gap": 0.17506, 
			 "cosmo_polarized_energy": -11.34, 
			 "cosmo_cavitation_energy": 15.47, 
			 "cosmo_dispersion_energy": -11.84, 
			 "cosmo_repulsion_energy": 1.01, 
			 "cosmo_total_nonelectrostatic_energy": 4.64, 
			 "SMD_solvation_energy": 3.08 
		},
		"coords": [
			{
				"x": 1.0630992601,
				"y": -0.679378578,
				"z": 0.2735967633,
				"element": "O" 
			},
			{
				"x": 0.3098961962,
				"y": 0.2326075436,
				"z": 0.5903480314,
				"element": "C" 
			},
			{
				"x": -0.2129803718,
				"y": 1.1011456845,
				"z": -0.3850228468,
				"element": "N" 
			},
			{
				"x": -1.0421858755,
				"y": 2.1423008501,
				"z": -0.2278519949,
				"element": "N" 
			},
			{
				"x": -1.4248482695,
				"y": 2.3953728695,
				"z": 0.9963241528,
				"element": "C" 
			},
			{
				"x": -0.9964083851,
				"y": 1.6193928798,
				"z": 2.1196259208,
				"element": "C" 
			},
			{
				"x": -0.1546298322,
				"y": 0.5682937158,
				"z": 1.9303613462,
				"element": "C" 
			},
			{
				"x": 0.0736167918,
				"y": 0.9190121716,
				"z": -1.3403299264,
				"element": "H" 
			},
			{
				"x": -2.0958129407,
				"y": 3.2401070536,
				"z": 1.1120580496,
				"element": "H" 
			},
			{
				"x": -1.3512181029,
				"y": 1.8820165893,
				"z": 3.1124274118,
				"element": "H" 
			},
			{
				"x": 0.2028715294,
				"y": -0.0545707797,
				"z": 2.7426630923,
				"element": "H" 
			}
		],
		 "valence_orbital": [ 
			{
				"type": "occ",
				"energy": -0.37075,
				"method": "rhf"
			},
			{
				"type": "occ",
				"energy": -0.32479,
				"method": "rhf"
			},
			{
				"type": "occ",
				"energy": -0.31836,
				"method": "rhf"
			},
			{
				"type": "occ",
				"energy": -0.25373,
				"method": "rhf"
			},
			{
				"type": "occ",
				"energy": -0.24251,
				"method": "rhf"
			},
			{
				"type": "unocc",
				"energy": -0.06745,
				"method": "rhf"
			},
			{
				"type": "unocc",
				"energy": -0.00247,
				"method": "rhf"
			},
			{
				"type": "unocc",
				"energy": 0.07997,
				"method": "rhf"
			},
			{
				"type": "unocc",
				"energy": 0.10537,
				"method": "rhf"
			},
			{
				"type": "unocc",
				"energy": 0.12351,
				"method": "rhf"
			}
		],
		"cosmo_sigma_profile": { 
			"-0.025": 0.0,
			"-0.024": 0.0,
			"-0.023": 0.0,
			"-0.022": 0.0,
			"-0.021": 0.0,
			"-0.02": 0.0,
			"-0.019": 0.0,
			"-0.018": 0.0,
			"-0.017": 0.0317020502892,
			"-0.016": 0.817420074832,
			"-0.015": 1.00159216976,
			"-0.014": 1.00267058543,
			"-0.013": 0.928325020334,
			"-0.012": 0.784675936157,
			"-0.011": 0.556200480905,
			"-0.01": 1.22548368015,
			"-0.009": 1.33704144773,
			"-0.008": 7.28423189125,
			"-0.007": 8.0762527677,
			"-0.006": 6.49285202603,
			"-0.005": 5.2233243468,
			"-0.004": 4.83891041668,
			"-0.003": 6.4458686082,
			"-0.002": 9.40045802733,
			"-0.001": 11.1894554011,
			"0.0": 11.6039046223,
			"0.001": 8.04393084724,
			"0.002": 3.03167037305,
			"0.003": 3.31742257199,
			"0.004": 2.38408851964,
			"0.005": 2.39569400672,
			"0.006": 1.789195652,
			"0.007": 2.65171985732,
			"0.008": 2.4645069691,
			"0.009": 1.46462167956,
			"0.01": 2.40111863432,
			"0.011": 2.38706011472,
			"0.012": 2.6564984527,
			"0.013": 4.5754582376,
			"0.014": 5.67702683279,
			"0.015": 0.848908290216,
			"0.016": 0.0,
			"0.017": 0.0,
			"0.018": 0.0,
			"0.019": 0.0,
			"0.02": 0.0,
			"0.021": 0.0,
			"0.022": 0.0,
			"0.023": 0.0,
			"0.024": 0.0,
			"0.025": 0.0
		}
	}
}
