{
	 "smiles": "OCC1=CC=C(SC(F)(F)F)C=C1", 
	 "Tm": 325.15, 
	 "num_atms": 20, 
	 "gaussian": { 
		 "optdone": 1, 
		 "sigma_profile": "yes", 
		 "theory": "DFT", 
		 "functional": "B3LYP", 
		 "basiset": "6-31G**", 
		 "properties": { 
			 "R2extent": 4029.4235, 
			 "electric_dipole_moment_norm": 2.05527394281, 
			 "electric_quadrupole_moment_norm": 11.8908706611, 
			 "total_energy": -1081.98384056, 
			 "HOMO_LUMO_gap": 0.22013, 
			 "cosmo_polarized_energy": -7.86, 
			 "cosmo_cavitation_energy": 27.47, 
			 "cosmo_dispersion_energy": -19.74, 
			 "cosmo_repulsion_energy": 1.48, 
			 "cosmo_total_nonelectrostatic_energy": 9.21, 
			 "SMD_solvation_energy": 5.45 
		},
		"coords": [
			{
				"x": -3.4955502475,
				"y": -0.77484161,
				"z": -0.1555419827,
				"element": "O" 
			},
			{
				"x": -2.4602106132,
				"y": -1.6991832595,
				"z": -0.4465106824,
				"element": "C" 
			},
			{
				"x": -1.0942520834,
				"y": -1.2711991878,
				"z": 0.0589245015,
				"element": "C" 
			},
			{
				"x": 0.0725350783,
				"y": -1.7429441491,
				"z": -0.5554899555,
				"element": "C" 
			},
			{
				"x": 1.3287640097,
				"y": -1.383726523,
				"z": -0.0714716833,
				"element": "C" 
			},
			{
				"x": 1.430078192,
				"y": -0.5258887603,
				"z": 1.0310974107,
				"element": "C" 
			},
			{
				"x": 3.0412479253,
				"y": -0.08344059,
				"z": 1.6865616272,
				"element": "S" 
			},
			{
				"x": 3.4463651408,
				"y": 1.3025691095,
				"z": 0.5721376374,
				"element": "C" 
			},
			{
				"x": 4.6528618443,
				"y": 1.7716900851,
				"z": 0.9309599915,
				"element": "F" 
			},
			{
				"x": 3.5070870806,
				"y": 0.9309997698,
				"z": -0.7197031454,
				"element": "F" 
			},
			{
				"x": 2.5610532052,
				"y": 2.310553001,
				"z": 0.6496345681,
				"element": "F" 
			},
			{
				"x": 0.2696844041,
				"y": -0.0441964982,
				"z": 1.6480963756,
				"element": "C" 
			},
			{
				"x": -0.9827772622,
				"y": -0.4197643928,
				"z": 1.1642571849,
				"element": "C" 
			},
			{
				"x": -3.280799904,
				"y": 0.0563465624,
				"z": -0.5999535094,
				"element": "H" 
			},
			{
				"x": -2.4009997458,
				"y": -1.9191526249,
				"z": -1.5240590314,
				"element": "H" 
			},
			{
				"x": -2.7596074458,
				"y": -2.6314794085,
				"z": 0.0476735353,
				"element": "H" 
			},
			{
				"x": -0.0000560078,
				"y": -2.3975377822,
				"z": -1.4209264157,
				"element": "H" 
			},
			{
				"x": 2.229178214,
				"y": -1.7545386474,
				"z": -0.5494393751,
				"element": "H" 
			},
			{
				"x": 0.3517188489,
				"y": 0.619779758,
				"z": 2.5024066179,
				"element": "H" 
			},
			{
				"x": -1.8877206336,
				"y": -0.0508448522,
				"z": 1.6363463307,
				"element": "H" 
			}
		],
		 "valence_orbital": [ 
			{
				"type": "occ",
				"energy": -0.33447,
				"method": "rhf"
			},
			{
				"type": "occ",
				"energy": -0.28991,
				"method": "rhf"
			},
			{
				"type": "occ",
				"energy": -0.26803,
				"method": "rhf"
			},
			{
				"type": "occ",
				"energy": -0.2651,
				"method": "rhf"
			},
			{
				"type": "occ",
				"energy": -0.25697,
				"method": "rhf"
			},
			{
				"type": "unocc",
				"energy": -0.03684,
				"method": "rhf"
			},
			{
				"type": "unocc",
				"energy": -0.01934,
				"method": "rhf"
			},
			{
				"type": "unocc",
				"energy": 0.02044,
				"method": "rhf"
			},
			{
				"type": "unocc",
				"energy": 0.05886,
				"method": "rhf"
			},
			{
				"type": "unocc",
				"energy": 0.07442,
				"method": "rhf"
			}
		],
		"cosmo_sigma_profile": { 
			"-0.025": 0.0,
			"-0.024": 0.0,
			"-0.023": 0.0,
			"-0.022": 0.0,
			"-0.021": 0.0,
			"-0.02": 0.0,
			"-0.019": 0.0,
			"-0.018": 0.0,
			"-0.017": 0.0,
			"-0.016": 0.493921332876,
			"-0.015": 0.877110777693,
			"-0.014": 1.10680712439,
			"-0.013": 0.876414056614,
			"-0.012": 0.713674271834,
			"-0.011": 0.905837338828,
			"-0.01": 0.67866923502,
			"-0.009": 0.453846538642,
			"-0.008": 1.44121192434,
			"-0.007": 3.10075195632,
			"-0.006": 10.2090185424,
			"-0.005": 13.6146616928,
			"-0.004": 12.5007744758,
			"-0.003": 11.3103858898,
			"-0.002": 12.7394794195,
			"-0.001": 15.9548927718,
			"0.0": 17.6043955005,
			"0.001": 23.9447461731,
			"0.002": 43.0297813574,
			"0.003": 23.4799385888,
			"0.004": 9.29940188161,
			"0.005": 3.52059597002,
			"0.006": 2.74642166087,
			"0.007": 1.69787635687,
			"0.008": 1.03201538862,
			"0.009": 0.883709260561,
			"0.01": 0.677062220533,
			"0.011": 1.57614970951,
			"0.012": 1.31828423874,
			"0.013": 1.78716913876,
			"0.014": 1.4288439289,
			"0.015": 0.0011524686197,
			"0.016": 0.0,
			"0.017": 0.0,
			"0.018": 0.0,
			"0.019": 0.0,
			"0.02": 0.0,
			"0.021": 0.0,
			"0.022": 0.0,
			"0.023": 0.0,
			"0.024": 0.0,
			"0.025": 0.0
		}
	}
}
