{
	 "smiles": "CC1=C(Br)C=C2N=CNC2=N1", 
	 "Tm": 471.15, 
	 "num_atms": 17, 
	 "gaussian": { 
		 "optdone": 1, 
		 "sigma_profile": "yes", 
		 "theory": "DFT", 
		 "functional": "B3LYP", 
		 "basiset": "6-31G**", 
		 "properties": { 
			 "R2extent": 2840.7158, 
			 "electric_dipole_moment_norm": 3.10118151678, 
			 "electric_quadrupole_moment_norm": 16.4082342015, 
			 "total_energy": -3006.0315318, 
			 "HOMO_LUMO_gap": 0.19254, 
			 "cosmo_polarized_energy": -11.6, 
			 "cosmo_cavitation_energy": 23.43, 
			 "cosmo_dispersion_energy": -18.2, 
			 "cosmo_repulsion_energy": 1.44, 
			 "cosmo_total_nonelectrostatic_energy": 6.67, 
			 "SMD_solvation_energy": -0.32 
		},
		"coords": [
			{
				"x": -1.3081408649,
				"y": -1.353184699,
				"z": 0.9036454449,
				"element": "C" 
			},
			{
				"x": -0.2916526067,
				"y": -0.6261761488,
				"z": 0.0649113209,
				"element": "C" 
			},
			{
				"x": 0.9525372864,
				"y": -0.1868919563,
				"z": 0.5898559335,
				"element": "C" 
			},
			{
				"x": 1.3706916702,
				"y": -0.5223202488,
				"z": 2.4298692628,
				"element": "Br" 
			},
			{
				"x": 1.8940535347,
				"y": 0.4849719663,
				"z": -0.1819918479,
				"element": "C" 
			},
			{
				"x": 1.5515166231,
				"y": 0.7095455418,
				"z": -1.5164051371,
				"element": "C" 
			},
			{
				"x": 2.2214687705,
				"y": 1.330782342,
				"z": -2.558532531,
				"element": "N" 
			},
			{
				"x": 1.3970858208,
				"y": 1.2333325186,
				"z": -3.5727931642,
				"element": "C" 
			},
			{
				"x": 0.2175900145,
				"y": 0.5862493549,
				"z": -3.2762483266,
				"element": "N" 
			},
			{
				"x": 0.2915445586,
				"y": 0.2341937594,
				"z": -1.9428503951,
				"element": "C" 
			},
			{
				"x": -0.6172346056,
				"y": -0.4080045271,
				"z": -1.2196292521,
				"element": "N" 
			},
			{
				"x": -0.8963985485,
				"y": -2.2821376701,
				"z": 1.3122735208,
				"element": "H" 
			},
			{
				"x": -1.6266911498,
				"y": -0.7467029685,
				"z": 1.7581443167,
				"element": "H" 
			},
			{
				"x": -2.175659331,
				"y": -1.5861475745,
				"z": 0.2849991812,
				"element": "H" 
			},
			{
				"x": 2.839957051,
				"y": 0.8148151217,
				"z": 0.2312358122,
				"element": "H" 
			},
			{
				"x": 1.5930627129,
				"y": 1.6151335538,
				"z": -4.5665291983,
				"element": "H" 
			},
			{
				"x": -0.5556309362,
				"y": 0.3986416346,
				"z": -3.8963549406,
				"element": "H" 
			}
		],
		 "valence_orbital": [ 
			{
				"type": "occ",
				"energy": -0.30543,
				"method": "rhf"
			},
			{
				"type": "occ",
				"energy": -0.2876,
				"method": "rhf"
			},
			{
				"type": "occ",
				"energy": -0.26051,
				"method": "rhf"
			},
			{
				"type": "occ",
				"energy": -0.25167,
				"method": "rhf"
			},
			{
				"type": "occ",
				"energy": -0.23389,
				"method": "rhf"
			},
			{
				"type": "unocc",
				"energy": -0.04135,
				"method": "rhf"
			},
			{
				"type": "unocc",
				"energy": -0.00022,
				"method": "rhf"
			},
			{
				"type": "unocc",
				"energy": 0.00714,
				"method": "rhf"
			},
			{
				"type": "unocc",
				"energy": 0.03626,
				"method": "rhf"
			},
			{
				"type": "unocc",
				"energy": 0.07355,
				"method": "rhf"
			}
		],
		"cosmo_sigma_profile": { 
			"-0.025": 0.0,
			"-0.024": 0.0,
			"-0.023": 0.0,
			"-0.022": 0.0,
			"-0.021": 0.0,
			"-0.02": 0.0,
			"-0.019": 0.0,
			"-0.018": 0.0116469477734,
			"-0.017": 1.41576462898,
			"-0.016": 1.60349496071,
			"-0.015": 1.58413544601,
			"-0.014": 1.17105880049,
			"-0.013": 0.649313185537,
			"-0.012": 0.928630607676,
			"-0.011": 1.75953634515,
			"-0.01": 3.21461627823,
			"-0.009": 2.66838692091,
			"-0.008": 3.90702064334,
			"-0.007": 3.15558974306,
			"-0.006": 3.22003261363,
			"-0.005": 4.99069393339,
			"-0.004": 10.0535954604,
			"-0.003": 10.347776548,
			"-0.002": 11.0174556351,
			"-0.001": 18.5057852068,
			"0.0": 24.4566481299,
			"0.001": 18.5297769086,
			"0.002": 15.1737568113,
			"0.003": 11.1946038674,
			"0.004": 12.7892388716,
			"0.005": 7.36664092341,
			"0.006": 2.74189595925,
			"0.007": 2.72817316451,
			"0.008": 2.28967624147,
			"0.009": 2.30740177923,
			"0.01": 1.8726183146,
			"0.011": 1.79477377821,
			"0.012": 2.02720878526,
			"0.013": 1.96288306815,
			"0.014": 1.43889799541,
			"0.015": 0.695792959353,
			"0.016": 1.40271674009,
			"0.017": 0.402504889113,
			"0.018": 0.0,
			"0.019": 0.0,
			"0.02": 0.0,
			"0.021": 0.0,
			"0.022": 0.0,
			"0.023": 0.0,
			"0.024": 0.0,
			"0.025": 0.0
		}
	}
}
