{
	 "smiles": "NNC(=S)NC1CC1", 
	 "Tm": 374.15, 
	 "num_atms": 17, 
	 "gaussian": { 
		 "optdone": 1, 
		 "sigma_profile": "yes", 
		 "theory": "DFT", 
		 "functional": "B3LYP", 
		 "basiset": "6-31G**", 
		 "properties": { 
			 "R2extent": 1612.4863, 
			 "electric_dipole_moment_norm": 4.06757865689, 
			 "electric_quadrupole_moment_norm": 7.8746668647, 
			 "total_energy": -720.227709695, 
			 "HOMO_LUMO_gap": 0.20278, 
			 "cosmo_polarized_energy": -16.02, 
			 "cosmo_cavitation_energy": 21.42, 
			 "cosmo_dispersion_energy": -16.58, 
			 "cosmo_repulsion_energy": 1.34, 
			 "cosmo_total_nonelectrostatic_energy": 6.18, 
			 "SMD_solvation_energy": 2.59 
		},
		"coords": [
			{
				"x": 0.0436186706,
				"y": 2.987136965,
				"z": -0.1997832915,
				"element": "N" 
			},
			{
				"x": -0.083758188,
				"y": 1.8533125829,
				"z": -1.0211594272,
				"element": "N" 
			},
			{
				"x": -0.6613502835,
				"y": 0.6743531202,
				"z": -0.5911210692,
				"element": "C" 
			},
			{
				"x": -1.0986933863,
				"y": 0.4559779313,
				"z": 1.019362912,
				"element": "S" 
			},
			{
				"x": -0.8004876122,
				"y": -0.2264450936,
				"z": -1.5978055278,
				"element": "N" 
			},
			{
				"x": -1.3379462517,
				"y": -1.5730415533,
				"z": -1.6102803362,
				"element": "C" 
			},
			{
				"x": -2.5108251146,
				"y": -2.0579107307,
				"z": -0.8038698795,
				"element": "C" 
			},
			{
				"x": -1.1245750225,
				"y": -2.6164697774,
				"z": -0.5438340736,
				"element": "C" 
			},
			{
				"x": 0.8281329942,
				"y": 2.81802699,
				"z": 0.4285835465,
				"element": "H" 
			},
			{
				"x": -0.778992509,
				"y": 3.0214678373,
				"z": 0.4072743079,
				"element": "H" 
			},
			{
				"x": -0.190999947,
				"y": 2.0991747994,
				"z": -1.9971574316,
				"element": "H" 
			},
			{
				"x": -0.320185159,
				"y": 0.0119811879,
				"z": -2.4554841967,
				"element": "H" 
			},
			{
				"x": -1.3000844298,
				"y": -1.9365677301,
				"z": -2.6328068177,
				"element": "H" 
			},
			{
				"x": -2.9078937459,
				"y": -1.3990170381,
				"z": -0.0420682896,
				"element": "H" 
			},
			{
				"x": -3.244356186,
				"y": -2.6702026162,
				"z": -1.3207866286,
				"element": "H" 
			},
			{
				"x": -0.8819695277,
				"y": -3.623097017,
				"z": -0.8723830564,
				"element": "H" 
			},
			{
				"x": -0.6528343016,
				"y": -2.2992798577,
				"z": 0.3784192592,
				"element": "H" 
			}
		],
		 "valence_orbital": [ 
			{
				"type": "occ",
				"energy": -0.30037,
				"method": "rhf"
			},
			{
				"type": "occ",
				"energy": -0.28046,
				"method": "rhf"
			},
			{
				"type": "occ",
				"energy": -0.24465,
				"method": "rhf"
			},
			{
				"type": "occ",
				"energy": -0.21818,
				"method": "rhf"
			},
			{
				"type": "occ",
				"energy": -0.20852,
				"method": "rhf"
			},
			{
				"type": "unocc",
				"energy": -0.00574,
				"method": "rhf"
			},
			{
				"type": "unocc",
				"energy": 0.04599,
				"method": "rhf"
			},
			{
				"type": "unocc",
				"energy": 0.08737,
				"method": "rhf"
			},
			{
				"type": "unocc",
				"energy": 0.09374,
				"method": "rhf"
			},
			{
				"type": "unocc",
				"energy": 0.10854,
				"method": "rhf"
			}
		],
		"cosmo_sigma_profile": { 
			"-0.025": 0.0,
			"-0.024": 0.0,
			"-0.023": 0.0,
			"-0.022": 0.0,
			"-0.021": 0.0,
			"-0.02": 0.0,
			"-0.019": 0.0,
			"-0.018": 0.186539268631,
			"-0.017": 1.24193360976,
			"-0.016": 2.00429361138,
			"-0.015": 2.61062404539,
			"-0.014": 1.98939519463,
			"-0.013": 1.8971558938,
			"-0.012": 1.23136675754,
			"-0.011": 2.25288424245,
			"-0.01": 3.03687524977,
			"-0.009": 3.65568597772,
			"-0.008": 3.71800655178,
			"-0.007": 3.69107758614,
			"-0.006": 4.88116356434,
			"-0.005": 7.02537551736,
			"-0.004": 9.86762647085,
			"-0.003": 8.31458192221,
			"-0.002": 8.90492518624,
			"-0.001": 8.61544431459,
			"0.0": 10.7300739411,
			"0.001": 8.75622277659,
			"0.002": 9.10939030323,
			"0.003": 10.6416637322,
			"0.004": 12.2251002369,
			"0.005": 9.38181686832,
			"0.006": 5.89564827986,
			"0.007": 5.37993394139,
			"0.008": 6.2184960336,
			"0.009": 5.69747098768,
			"0.01": 5.43897857719,
			"0.011": 2.96369690415,
			"0.012": 0.269718825246,
			"0.013": 0.940749770197,
			"0.014": 0.684532431808,
			"0.015": 0.639893260417,
			"0.016": 0.442816422264,
			"0.017": 0.117609012265,
			"0.018": 0.0,
			"0.019": 0.0,
			"0.02": 0.0,
			"0.021": 0.0,
			"0.022": 0.0,
			"0.023": 0.0,
			"0.024": 0.0,
			"0.025": 0.0
		}
	}
}
