{
	 "smiles": "CC(C)(C1=CC=C(OC(Cl)=O)C=C1)C1=CC=C(OC(Cl)=O)C=C1", 
	 "Tm": 365.65, 
	 "num_atms": 37, 
	 "gaussian": { 
		 "optdone": 1, 
		 "sigma_profile": "yes", 
		 "theory": "DFT", 
		 "functional": "B3LYP", 
		 "basiset": "6-31G**", 
		 "properties": { 
			 "R2extent": 16695.9693, 
			 "electric_dipole_moment_norm": 3.42834394424, 
			 "electric_quadrupole_moment_norm": 20.8158029074, 
			 "total_energy": -1877.53392969, 
			 "HOMO_LUMO_gap": 0.21149, 
			 "cosmo_polarized_energy": -9.85, 
			 "cosmo_cavitation_energy": 45.75, 
			 "cosmo_dispersion_energy": -31.96, 
			 "cosmo_repulsion_energy": 2.47, 
			 "cosmo_total_nonelectrostatic_energy": 16.26, 
			 "SMD_solvation_energy": 10.26 
		},
		"coords": [
			{
				"x": -3.3037233523,
				"y": 1.3687801549,
				"z": -0.2846034103,
				"element": "C" 
			},
			{
				"x": -2.1285546215,
				"y": 0.3772835046,
				"z": -0.1066662331,
				"element": "C" 
			},
			{
				"x": -2.1463641999,
				"y": -0.5888760725,
				"z": -1.315809996,
				"element": "C" 
			},
			{
				"x": -2.3377499988,
				"y": -0.3553276478,
				"z": 1.234019081,
				"element": "C" 
			},
			{
				"x": -2.7316961999,
				"y": -1.6957348507,
				"z": 1.317505082,
				"element": "C" 
			},
			{
				"x": -2.9584686505,
				"y": -2.3252722862,
				"z": 2.5457747386,
				"element": "C" 
			},
			{
				"x": -2.7821746388,
				"y": -1.5898276401,
				"z": 3.7109659997,
				"element": "C" 
			},
			{
				"x": -3.0457313592,
				"y": -2.0881598925,
				"z": 5.0040541224,
				"element": "O" 
			},
			{
				"x": -2.7590493825,
				"y": -3.3542722715,
				"z": 5.3248066351,
				"element": "C" 
			},
			{
				"x": -3.205529374,
				"y": -3.5901763712,
				"z": 7.0304991792,
				"element": "Cl" 
			},
			{
				"x": -2.2922840233,
				"y": -4.2196496736,
				"z": 4.6493295523,
				"element": "O" 
			},
			{
				"x": -2.3962869851,
				"y": -0.2519113166,
				"z": 3.6707048861,
				"element": "C" 
			},
			{
				"x": -2.1752829297,
				"y": 0.3518307906,
				"z": 2.4379262445,
				"element": "C" 
			},
			{
				"x": -0.7585464307,
				"y": 1.0850888848,
				"z": -0.0978744451,
				"element": "C" 
			},
			{
				"x": -0.5925537689,
				"y": 2.430224914,
				"z": -0.4471469817,
				"element": "C" 
			},
			{
				"x": 0.6671822064,
				"y": 3.037304018,
				"z": -0.4748861218,
				"element": "C" 
			},
			{
				"x": 1.7791464826,
				"y": 2.2743396599,
				"z": -0.1418224071,
				"element": "C" 
			},
			{
				"x": 3.1054889746,
				"y": 2.7512523907,
				"z": -0.1999377765,
				"element": "O" 
			},
			{
				"x": 3.4015881268,
				"y": 4.0015244816,
				"z": 0.1710555299,
				"element": "C" 
			},
			{
				"x": 5.1576465248,
				"y": 4.2153273443,
				"z": -0.0153918589,
				"element": "Cl" 
			},
			{
				"x": 2.6791638688,
				"y": 4.8662120502,
				"z": 0.562614243,
				"element": "O" 
			},
			{
				"x": 1.6571970436,
				"y": 0.9310470437,
				"z": 0.205992736,
				"element": "C" 
			},
			{
				"x": 0.3943007298,
				"y": 0.3497927029,
				"z": 0.2278374707,
				"element": "C" 
			},
			{
				"x": -4.2508673966,
				"y": 0.8238735906,
				"z": -0.2387133181,
				"element": "H" 
			},
			{
				"x": -3.3205887702,
				"y": 2.1305055449,
				"z": 0.500036031,
				"element": "H" 
			},
			{
				"x": -3.2572263794,
				"y": 1.8728762659,
				"z": -1.2553506327,
				"element": "H" 
			},
			{
				"x": -1.9494478723,
				"y": -0.0279869935,
				"z": -2.2338237293,
				"element": "H" 
			},
			{
				"x": -1.3818873344,
				"y": -1.3664378344,
				"z": -1.2313680761,
				"element": "H" 
			},
			{
				"x": -3.1220479928,
				"y": -1.0733146666,
				"z": -1.4253056083,
				"element": "H" 
			},
			{
				"x": -2.8702789821,
				"y": -2.2828973123,
				"z": 0.4171877051,
				"element": "H" 
			},
			{
				"x": -3.2516834106,
				"y": -3.3657618768,
				"z": 2.5822094946,
				"element": "H" 
			},
			{
				"x": -2.2726749365,
				"y": 0.2954186398,
				"z": 4.5990290994,
				"element": "H" 
			},
			{
				"x": -1.8578408601,
				"y": 1.3899044049,
				"z": 2.4123294187,
				"element": "H" 
			},
			{
				"x": -1.4510828408,
				"y": 3.0386484854,
				"z": -0.7064904171,
				"element": "H" 
			},
			{
				"x": 0.7663595474,
				"y": 4.0818686171,
				"z": -0.7378264402,
				"element": "H" 
			},
			{
				"x": 2.5463344175,
				"y": 0.3619844497,
				"z": 0.4554795545,
				"element": "H" 
			},
			{
				"x": 0.3024147683,
				"y": -0.6929812321,
				"z": 0.5162606483,
				"element": "H" 
			}
		],
		 "valence_orbital": [ 
			{
				"type": "occ",
				"energy": -0.30871,
				"method": "rhf"
			},
			{
				"type": "occ",
				"energy": -0.27241,
				"method": "rhf"
			},
			{
				"type": "occ",
				"energy": -0.26954,
				"method": "rhf"
			},
			{
				"type": "occ",
				"energy": -0.26206,
				"method": "rhf"
			},
			{
				"type": "occ",
				"energy": -0.24701,
				"method": "rhf"
			},
			{
				"type": "unocc",
				"energy": -0.03552,
				"method": "rhf"
			},
			{
				"type": "unocc",
				"energy": -0.03246,
				"method": "rhf"
			},
			{
				"type": "unocc",
				"energy": -0.02682,
				"method": "rhf"
			},
			{
				"type": "unocc",
				"energy": -0.01694,
				"method": "rhf"
			},
			{
				"type": "unocc",
				"energy": -0.00223,
				"method": "rhf"
			}
		],
		"cosmo_sigma_profile": { 
			"-0.025": 0.0,
			"-0.024": 0.0,
			"-0.023": 0.0,
			"-0.022": 0.0,
			"-0.021": 0.0,
			"-0.02": 0.0,
			"-0.019": 0.0,
			"-0.018": 0.0,
			"-0.017": 0.0,
			"-0.016": 0.0,
			"-0.015": 0.0,
			"-0.014": 0.0,
			"-0.013": 0.0,
			"-0.012": 0.0,
			"-0.011": 0.0,
			"-0.01": 0.0,
			"-0.009": 0.0,
			"-0.008": 0.342283916061,
			"-0.007": 5.73404561344,
			"-0.006": 16.3679825181,
			"-0.005": 23.7121257996,
			"-0.004": 28.7457116848,
			"-0.003": 33.6809817461,
			"-0.002": 29.7577951562,
			"-0.001": 28.8673689014,
			"0.0": 31.9485912627,
			"0.001": 34.9232395256,
			"0.002": 34.4782865246,
			"0.003": 43.9329684356,
			"0.004": 26.1253520445,
			"0.005": 7.97055300625,
			"0.006": 6.08325675985,
			"0.007": 3.76840874385,
			"0.008": 7.76390786081,
			"0.009": 5.74776125593,
			"0.01": 0.509532981447,
			"0.011": 0.0,
			"0.012": 0.0,
			"0.013": 0.0,
			"0.014": 0.0,
			"0.015": 0.0,
			"0.016": 0.0,
			"0.017": 0.0,
			"0.018": 0.0,
			"0.019": 0.0,
			"0.02": 0.0,
			"0.021": 0.0,
			"0.022": 0.0,
			"0.023": 0.0,
			"0.024": 0.0,
			"0.025": 0.0
		}
	}
}
