{
	 "smiles": "CCSC(SCC)=C(C#N)C1=NC=CC=C1", 
	 "Tm": 434.15, 
	 "num_atms": 30, 
	 "gaussian": { 
		 "optdone": 1, 
		 "sigma_profile": "yes", 
		 "theory": "DFT", 
		 "functional": "B3LYP", 
		 "basiset": "6-31G**", 
		 "properties": { 
			 "R2extent": 5963.3179, 
			 "electric_dipole_moment_norm": 6.24003050473, 
			 "electric_quadrupole_moment_norm": 31.8206190408, 
			 "total_energy": -1371.55447104, 
			 "HOMO_LUMO_gap": 0.16208, 
			 "cosmo_polarized_energy": -16.31, 
			 "cosmo_cavitation_energy": 37.32, 
			 "cosmo_dispersion_energy": -25.57, 
			 "cosmo_repulsion_energy": 1.99, 
			 "cosmo_total_nonelectrostatic_energy": 13.74, 
			 "SMD_solvation_energy": 6.09 
		},
		"coords": [
			{
				"x": 2.1156134085,
				"y": 1.4346836042,
				"z": -1.1662837829,
				"element": "C" 
			},
			{
				"x": 0.9194875675,
				"y": 2.0203937442,
				"z": -1.9094968842,
				"element": "C" 
			},
			{
				"x": -0.7096876006,
				"y": 1.3796255263,
				"z": -1.3250193351,
				"element": "S" 
			},
			{
				"x": -0.689877219,
				"y": -0.3177132186,
				"z": -1.8725533444,
				"element": "C" 
			},
			{
				"x": -0.1565010838,
				"y": -0.6936991546,
				"z": -3.5328988298,
				"element": "S" 
			},
			{
				"x": -1.2116276075,
				"y": 0.4236858349,
				"z": -4.5591163079,
				"element": "C" 
			},
			{
				"x": -0.8369852822,
				"y": 0.2416579727,
				"z": -6.0291984657,
				"element": "C" 
			},
			{
				"x": -1.0420347598,
				"y": -1.3402223461,
				"z": -1.0344140157,
				"element": "C" 
			},
			{
				"x": -1.1088844386,
				"y": -2.6853869637,
				"z": -1.5317308785,
				"element": "C" 
			},
			{
				"x": -1.20261381,
				"y": -3.7895615655,
				"z": -1.8882474532,
				"element": "N" 
			},
			{
				"x": -1.3529850488,
				"y": -1.217421669,
				"z": 0.424915241,
				"element": "C" 
			},
			{
				"x": -0.7152916454,
				"y": -2.0956624939,
				"z": 1.2168875044,
				"element": "N" 
			},
			{
				"x": -0.9580063712,
				"y": -2.0495764473,
				"z": 2.5284970599,
				"element": "C" 
			},
			{
				"x": -1.8475989771,
				"y": -1.1485058036,
				"z": 3.1190512568,
				"element": "C" 
			},
			{
				"x": -2.5274629794,
				"y": -0.2586901114,
				"z": 2.2909234407,
				"element": "C" 
			},
			{
				"x": -2.2834467974,
				"y": -0.2934058959,
				"z": 0.9187642296,
				"element": "C" 
			},
			{
				"x": 3.0414558309,
				"y": 1.8927504252,
				"z": -1.5325816342,
				"element": "H" 
			},
			{
				"x": 2.1879890463,
				"y": 0.35564908,
				"z": -1.3268454605,
				"element": "H" 
			},
			{
				"x": 2.0423763084,
				"y": 1.6169959214,
				"z": -0.0906817291,
				"element": "H" 
			},
			{
				"x": 0.9978524522,
				"y": 1.853972367,
				"z": -2.9859340316,
				"element": "H" 
			},
			{
				"x": 0.8308035514,
				"y": 3.0984211952,
				"z": -1.7405556151,
				"element": "H" 
			},
			{
				"x": -2.256658978,
				"y": 0.1562913843,
				"z": -4.3837259862,
				"element": "H" 
			},
			{
				"x": -1.062548705,
				"y": 1.456434137,
				"z": -4.2362387066,
				"element": "H" 
			},
			{
				"x": 0.20892513,
				"y": 0.5063565398,
				"z": -6.2122320523,
				"element": "H" 
			},
			{
				"x": -0.9904306877,
				"y": -0.7904780475,
				"z": -6.3573469185,
				"element": "H" 
			},
			{
				"x": -1.4635211657,
				"y": 0.8896954974,
				"z": -6.6502250254,
				"element": "H" 
			},
			{
				"x": -0.4188082178,
				"y": -2.7722956814,
				"z": 3.1382339248,
				"element": "H" 
			},
			{
				"x": -2.0087776835,
				"y": -1.1586978207,
				"z": 4.1922689459,
				"element": "H" 
			},
			{
				"x": -3.2448509161,
				"y": 0.4460999149,
				"z": 2.7008980154,
				"element": "H" 
			},
			{
				"x": -2.8192033206,
				"y": 0.3654040746,
				"z": 0.2454868386,
				"element": "H" 
			}
		],
		 "valence_orbital": [ 
			{
				"type": "occ",
				"energy": -0.29161,
				"method": "rhf"
			},
			{
				"type": "occ",
				"energy": -0.26457,
				"method": "rhf"
			},
			{
				"type": "occ",
				"energy": -0.26106,
				"method": "rhf"
			},
			{
				"type": "occ",
				"energy": -0.24762,
				"method": "rhf"
			},
			{
				"type": "occ",
				"energy": -0.22775,
				"method": "rhf"
			},
			{
				"type": "unocc",
				"energy": -0.06567,
				"method": "rhf"
			},
			{
				"type": "unocc",
				"energy": -0.02786,
				"method": "rhf"
			},
			{
				"type": "unocc",
				"energy": -0.01569,
				"method": "rhf"
			},
			{
				"type": "unocc",
				"energy": 0.00432,
				"method": "rhf"
			},
			{
				"type": "unocc",
				"energy": 0.04198,
				"method": "rhf"
			}
		],
		"cosmo_sigma_profile": { 
			"-0.025": 0.0,
			"-0.024": 0.0,
			"-0.023": 0.0,
			"-0.022": 0.0,
			"-0.021": 0.0,
			"-0.02": 0.0,
			"-0.019": 0.0,
			"-0.018": 0.0,
			"-0.017": 0.0,
			"-0.016": 0.0,
			"-0.015": 0.0,
			"-0.014": 0.0,
			"-0.013": 0.0,
			"-0.012": 0.0,
			"-0.011": 0.0,
			"-0.01": 0.0,
			"-0.009": 0.0,
			"-0.008": 1.00599570188,
			"-0.007": 9.68728072607,
			"-0.006": 15.8671521236,
			"-0.005": 18.48987421,
			"-0.004": 25.3246728464,
			"-0.003": 32.8657625612,
			"-0.002": 31.6379117893,
			"-0.001": 27.7031421911,
			"0.0": 27.5297650164,
			"0.001": 19.3735500272,
			"0.002": 19.3410178711,
			"0.003": 11.0357226515,
			"0.004": 10.7466779284,
			"0.005": 7.26296883506,
			"0.006": 7.45500865927,
			"0.007": 5.77000604558,
			"0.008": 6.42541753728,
			"0.009": 6.99091142971,
			"0.01": 4.42524032535,
			"0.011": 4.48903745243,
			"0.012": 3.22805341585,
			"0.013": 2.79911772984,
			"0.014": 0.756678672392,
			"0.015": 0.290487994985,
			"0.016": 0.0,
			"0.017": 0.0,
			"0.018": 0.0,
			"0.019": 0.0,
			"0.02": 0.0,
			"0.021": 0.0,
			"0.022": 0.0,
			"0.023": 0.0,
			"0.024": 0.0,
			"0.025": 0.0
		}
	}
}
