{
	 "smiles": "OC(CS)C(O)CS", 
	 "Tm": 356.15, 
	 "num_atms": 18, 
	 "gaussian": { 
		 "optdone": 1, 
		 "sigma_profile": "yes", 
		 "theory": "DFT", 
		 "functional": "B3LYP", 
		 "basiset": "6-31G**", 
		 "properties": { 
			 "R2extent": 2286.3879, 
			 "electric_dipole_moment_norm": 1.11169708554, 
			 "electric_quadrupole_moment_norm": 5.59662941421, 
			 "total_energy": -1105.26068816, 
			 "HOMO_LUMO_gap": 0.25632, 
			 "cosmo_polarized_energy": -10.67, 
			 "cosmo_cavitation_energy": 23.33, 
			 "cosmo_dispersion_energy": -18.23, 
			 "cosmo_repulsion_energy": 1.44, 
			 "cosmo_total_nonelectrostatic_energy": 6.53, 
			 "SMD_solvation_energy": 2.85 
		},
		"coords": [
			{
				"x": 2.6327685302,
				"y": 0.7348806621,
				"z": -0.3885400145,
				"element": "O" 
			},
			{
				"x": 1.6605375303,
				"y": -0.1693454797,
				"z": 0.1110042444,
				"element": "C" 
			},
			{
				"x": 0.5469169556,
				"y": 0.69226821,
				"z": 0.7056410662,
				"element": "C" 
			},
			{
				"x": -0.7896502428,
				"y": -0.3602592866,
				"z": 1.4250547954,
				"element": "S" 
			},
			{
				"x": 1.2299654231,
				"y": -1.1362488483,
				"z": -1.0138524307,
				"element": "C" 
			},
			{
				"x": 2.4532109445,
				"y": -1.7184360508,
				"z": -1.4485513441,
				"element": "O" 
			},
			{
				"x": 0.5068138302,
				"y": -0.4225843923,
				"z": -2.1630483267,
				"element": "C" 
			},
			{
				"x": 0.2946581763,
				"y": -1.4853465082,
				"z": -3.6548571041,
				"element": "S" 
			},
			{
				"x": 3.2559963814,
				"y": 0.1791293354,
				"z": -0.8833674021,
				"element": "H" 
			},
			{
				"x": 2.0894860977,
				"y": -0.7952574582,
				"z": 0.9098454978,
				"element": "H" 
			},
			{
				"x": 0.133645381,
				"y": 1.3519799286,
				"z": -0.0607194939,
				"element": "H" 
			},
			{
				"x": 0.9836463709,
				"y": 1.3100450417,
				"z": 1.4926038518,
				"element": "H" 
			},
			{
				"x": -1.4809244327,
				"y": 0.6496764498,
				"z": 1.9874334904,
				"element": "H" 
			},
			{
				"x": 0.5645012345,
				"y": -1.9074960951,
				"z": -0.5948145585,
				"element": "H" 
			},
			{
				"x": 2.2799474882,
				"y": -2.1425512225,
				"z": -2.3049524292,
				"element": "H" 
			},
			{
				"x": -0.4717148324,
				"y": -0.0555188077,
				"z": -1.8477069915,
				"element": "H" 
			},
			{
				"x": 1.1073040932,
				"y": 0.4260656104,
				"z": -2.500204841,
				"element": "H" 
			},
			{
				"x": -0.5925089292,
				"y": -2.3472010884,
				"z": -3.1153680096,
				"element": "H" 
			}
		],
		 "valence_orbital": [ 
			{
				"type": "occ",
				"energy": -0.32903,
				"method": "rhf"
			},
			{
				"type": "occ",
				"energy": -0.2892,
				"method": "rhf"
			},
			{
				"type": "occ",
				"energy": -0.27327,
				"method": "rhf"
			},
			{
				"type": "occ",
				"energy": -0.257,
				"method": "rhf"
			},
			{
				"type": "occ",
				"energy": -0.24585,
				"method": "rhf"
			},
			{
				"type": "unocc",
				"energy": 0.01047,
				"method": "rhf"
			},
			{
				"type": "unocc",
				"energy": 0.02266,
				"method": "rhf"
			},
			{
				"type": "unocc",
				"energy": 0.04999,
				"method": "rhf"
			},
			{
				"type": "unocc",
				"energy": 0.05762,
				"method": "rhf"
			},
			{
				"type": "unocc",
				"energy": 0.08689,
				"method": "rhf"
			}
		],
		"cosmo_sigma_profile": { 
			"-0.025": 0.0,
			"-0.024": 0.0,
			"-0.023": 0.0,
			"-0.022": 0.0,
			"-0.021": 0.0,
			"-0.02": 0.0,
			"-0.019": 0.0,
			"-0.018": 0.0,
			"-0.017": 0.0,
			"-0.016": 0.0,
			"-0.015": 0.0,
			"-0.014": 0.0,
			"-0.013": 0.0,
			"-0.012": 0.337635446721,
			"-0.011": 0.66658475875,
			"-0.01": 1.75142122056,
			"-0.009": 6.79999162999,
			"-0.008": 5.42560244056,
			"-0.007": 4.7170857835,
			"-0.006": 10.7424381665,
			"-0.005": 13.8497938099,
			"-0.004": 16.728537262,
			"-0.003": 14.6833657323,
			"-0.002": 12.8463853492,
			"-0.001": 9.82097015842,
			"0.0": 9.90313579992,
			"0.001": 8.54142111346,
			"0.002": 7.37169713016,
			"0.003": 8.14204792623,
			"0.004": 8.47651364474,
			"0.005": 8.62294873914,
			"0.006": 8.19367231667,
			"0.007": 6.16167319258,
			"0.008": 4.96480435954,
			"0.009": 4.78957232583,
			"0.01": 4.84977165688,
			"0.011": 2.0528672135,
			"0.012": 2.43958049033,
			"0.013": 2.31617991721,
			"0.014": 0.989869630429,
			"0.015": 0.0,
			"0.016": 0.0,
			"0.017": 0.0,
			"0.018": 0.0,
			"0.019": 0.0,
			"0.02": 0.0,
			"0.021": 0.0,
			"0.022": 0.0,
			"0.023": 0.0,
			"0.024": 0.0,
			"0.025": 0.0
		}
	}
}
