{
	 "smiles": "CC(C)C1CCC(C)(OC(C)=O)C(CCC(C)=O)C1C#N", 
	 "Tm": 381.15, 
	 "num_atms": 48, 
	 "gaussian": { 
		 "optdone": 1, 
		 "sigma_profile": "yes", 
		 "theory": "DFT", 
		 "functional": "B3LYP", 
		 "basiset": "6-31G**", 
		 "properties": { 
			 "R2extent": 7179.7926, 
			 "electric_dipole_moment_norm": 5.05069837052, 
			 "electric_quadrupole_moment_norm": 7.97295832674, 
			 "total_energy": -944.523927318, 
			 "HOMO_LUMO_gap": 0.23378, 
			 "cosmo_polarized_energy": -18.35, 
			 "cosmo_cavitation_energy": 46.57, 
			 "cosmo_dispersion_energy": -30.32, 
			 "cosmo_repulsion_energy": 2.34, 
			 "cosmo_total_nonelectrostatic_energy": 18.59, 
			 "SMD_solvation_energy": 10.08 
		},
		"coords": [
			{
				"x": -2.6889472568,
				"y": 2.3942677155,
				"z": -2.9502040395,
				"element": "C" 
			},
			{
				"x": -2.0770454357,
				"y": 1.0256041885,
				"z": -2.6019881728,
				"element": "C" 
			},
			{
				"x": -1.7948927892,
				"y": 0.2613320709,
				"z": -3.9090707474,
				"element": "C" 
			},
			{
				"x": -0.796340765,
				"y": 1.0950746704,
				"z": -1.6995631964,
				"element": "C" 
			},
			{
				"x": -0.6147730506,
				"y": 2.4188292205,
				"z": -0.9341728588,
				"element": "C" 
			},
			{
				"x": 0.6923804053,
				"y": 2.4403346668,
				"z": -0.1324575135,
				"element": "C" 
			},
			{
				"x": 0.7626427824,
				"y": 1.305624229,
				"z": 0.9031279357,
				"element": "C" 
			},
			{
				"x": -0.1816269854,
				"y": 1.5744024371,
				"z": 2.0816531673,
				"element": "C" 
			},
			{
				"x": 2.0739469525,
				"y": 1.3278628712,
				"z": 1.5729655899,
				"element": "O" 
			},
			{
				"x": 3.2471894344,
				"y": 1.1756114226,
				"z": 0.916016786,
				"element": "C" 
			},
			{
				"x": 4.3980933874,
				"y": 1.240156186,
				"z": 1.8950804997,
				"element": "C" 
			},
			{
				"x": 3.3697278288,
				"y": 1.0006055475,
				"z": -0.2787103894,
				"element": "O" 
			},
			{
				"x": 0.5523100098,
				"y": -0.0739434957,
				"z": 0.2107341714,
				"element": "C" 
			},
			{
				"x": 0.6712640244,
				"y": -1.2892995142,
				"z": 1.1670745168,
				"element": "C" 
			},
			{
				"x": -0.5924299747,
				"y": -1.7730107555,
				"z": 1.8934135981,
				"element": "C" 
			},
			{
				"x": -0.2805082072,
				"y": -2.7373580133,
				"z": 3.0376680834,
				"element": "C" 
			},
			{
				"x": -1.4484860088,
				"y": -3.5509517862,
				"z": 3.5659824977,
				"element": "C" 
			},
			{
				"x": 0.8368874737,
				"y": -2.8449503208,
				"z": 3.5066796793,
				"element": "O" 
			},
			{
				"x": -0.7500807247,
				"y": -0.0669719732,
				"z": -0.6548094702,
				"element": "C" 
			},
			{
				"x": -0.9087238117,
				"y": -1.3892240398,
				"z": -1.2797273245,
				"element": "C" 
			},
			{
				"x": -1.0218507935,
				"y": -2.450038078,
				"z": -1.7396603537,
				"element": "N" 
			},
			{
				"x": -1.9925996832,
				"y": 3.0119048702,
				"z": -3.5292545077,
				"element": "H" 
			},
			{
				"x": -3.5817389949,
				"y": 2.2492112125,
				"z": -3.5671234226,
				"element": "H" 
			},
			{
				"x": -2.99066526,
				"y": 2.9629403923,
				"z": -2.0662286051,
				"element": "H" 
			},
			{
				"x": -2.8444897353,
				"y": 0.4691830495,
				"z": -2.0437054758,
				"element": "H" 
			},
			{
				"x": -2.7142628433,
				"y": 0.1413572061,
				"z": -4.4920084528,
				"element": "H" 
			},
			{
				"x": -1.3823356284,
				"y": -0.7333292696,
				"z": -3.731442192,
				"element": "H" 
			},
			{
				"x": -1.0813576579,
				"y": 0.8194583059,
				"z": -4.5276718295,
				"element": "H" 
			},
			{
				"x": 0.0813237313,
				"y": 0.978146228,
				"z": -2.3506528347,
				"element": "H" 
			},
			{
				"x": -0.6005892105,
				"y": 3.2527894252,
				"z": -1.6412155964,
				"element": "H" 
			},
			{
				"x": -1.4752591151,
				"y": 2.5925992267,
				"z": -0.2745620028,
				"element": "H" 
			},
			{
				"x": 1.5346064062,
				"y": 2.3383200435,
				"z": -0.8207101384,
				"element": "H" 
			},
			{
				"x": 0.8063631809,
				"y": 3.3992530009,
				"z": 0.3862886324,
				"element": "H" 
			},
			{
				"x": -0.0000023568,
				"y": 2.5789706235,
				"z": 2.4744321577,
				"element": "H" 
			},
			{
				"x": -1.2320845947,
				"y": 1.5118932729,
				"z": 1.7874703486,
				"element": "H" 
			},
			{
				"x": -0.0004114884,
				"y": 0.8647240435,
				"z": 2.8910117931,
				"element": "H" 
			},
			{
				"x": 4.3474603418,
				"y": 0.388205224,
				"z": 2.5803200617,
				"element": "H" 
			},
			{
				"x": 4.3348475872,
				"y": 2.1490605594,
				"z": 2.4994689661,
				"element": "H" 
			},
			{
				"x": 5.3394457612,
				"y": 1.2144914126,
				"z": 1.3469878143,
				"element": "H" 
			},
			{
				"x": 1.3808313967,
				"y": -0.1582002689,
				"z": -0.4975855791,
				"element": "H" 
			},
			{
				"x": 1.4348635274,
				"y": -1.0701394351,
				"z": 1.9176122275,
				"element": "H" 
			},
			{
				"x": 1.0605435253,
				"y": -2.1355845173,
				"z": 0.5919277265,
				"element": "H" 
			},
			{
				"x": -1.2904047054,
				"y": -2.2661406307,
				"z": 1.2066194597,
				"element": "H" 
			},
			{
				"x": -1.1592608936,
				"y": -0.9464446362,
				"z": 2.3431380722,
				"element": "H" 
			},
			{
				"x": -2.3319996165,
				"y": -2.9230388191,
				"z": 3.7256900576,
				"element": "H" 
			},
			{
				"x": -1.1666098601,
				"y": -4.0467205749,
				"z": 4.4959625998,
				"element": "H" 
			},
			{
				"x": -1.7272392199,
				"y": -4.3101563349,
				"z": 2.8249271795,
				"element": "H" 
			},
			{
				"x": -1.6228110893,
				"y": 0.0559891406,
				"z": 0.0023710813,
				"element": "H" 
			}
		],
		 "valence_orbital": [ 
			{
				"type": "occ",
				"energy": -0.31032,
				"method": "rhf"
			},
			{
				"type": "occ",
				"energy": -0.30136,
				"method": "rhf"
			},
			{
				"type": "occ",
				"energy": -0.29357,
				"method": "rhf"
			},
			{
				"type": "occ",
				"energy": -0.26735,
				"method": "rhf"
			},
			{
				"type": "occ",
				"energy": -0.24728,
				"method": "rhf"
			},
			{
				"type": "unocc",
				"energy": -0.0135,
				"method": "rhf"
			},
			{
				"type": "unocc",
				"energy": 0.00627,
				"method": "rhf"
			},
			{
				"type": "unocc",
				"energy": 0.03019,
				"method": "rhf"
			},
			{
				"type": "unocc",
				"energy": 0.035,
				"method": "rhf"
			},
			{
				"type": "unocc",
				"energy": 0.06837,
				"method": "rhf"
			}
		],
		"cosmo_sigma_profile": { 
			"-0.025": 0.0,
			"-0.024": 0.0,
			"-0.023": 0.0,
			"-0.022": 0.0,
			"-0.021": 0.0,
			"-0.02": 0.0,
			"-0.019": 0.0,
			"-0.018": 0.0,
			"-0.017": 0.0,
			"-0.016": 0.0,
			"-0.015": 0.0,
			"-0.014": 0.0,
			"-0.013": 0.0,
			"-0.012": 0.0,
			"-0.011": 0.0,
			"-0.01": 0.000659064954424,
			"-0.009": 0.180319113502,
			"-0.008": 1.75059226075,
			"-0.007": 5.39384137837,
			"-0.006": 16.8174568915,
			"-0.005": 22.3115792284,
			"-0.004": 28.6130306646,
			"-0.003": 45.5296616288,
			"-0.002": 50.6803999243,
			"-0.001": 43.8623439846,
			"0.0": 32.3365731142,
			"0.001": 24.4027002837,
			"0.002": 14.5189084029,
			"0.003": 7.7411209352,
			"0.004": 7.44329221605,
			"0.005": 6.43686775608,
			"0.006": 6.111915532,
			"0.007": 5.51784299325,
			"0.008": 6.45445401498,
			"0.009": 5.77637843593,
			"0.01": 5.7366797216,
			"0.011": 7.93352701768,
			"0.012": 9.92688630356,
			"0.013": 5.54602520679,
			"0.014": 0.588928392198,
			"0.015": 0.0,
			"0.016": 0.0,
			"0.017": 0.0,
			"0.018": 0.0,
			"0.019": 0.0,
			"0.02": 0.0,
			"0.021": 0.0,
			"0.022": 0.0,
			"0.023": 0.0,
			"0.024": 0.0,
			"0.025": 0.0
		}
	}
}
