{
	 "smiles": "COC1=CC=C(C=O)C=C1C(F)(F)F", 
	 "Tm": 312.15, 
	 "num_atms": 21, 
	 "gaussian": { 
		 "optdone": 1, 
		 "sigma_profile": "yes", 
		 "theory": "DFT", 
		 "functional": "B3LYP", 
		 "basiset": "6-31G**", 
		 "properties": { 
			 "R2extent": 3358.7214, 
			 "electric_dipole_moment_norm": 5.90455422958, 
			 "electric_quadrupole_moment_norm": 6.20952070614, 
			 "total_energy": -797.130521441, 
			 "HOMO_LUMO_gap": 0.18463, 
			 "cosmo_polarized_energy": -11.22, 
			 "cosmo_cavitation_energy": 27.17, 
			 "cosmo_dispersion_energy": -19.04, 
			 "cosmo_repulsion_energy": 1.44, 
			 "cosmo_total_nonelectrostatic_energy": 9.57, 
			 "SMD_solvation_energy": 7.7 
		},
		"coords": [
			{
				"x": -2.9945155848,
				"y": 0.7908115641,
				"z": -0.9597641571,
				"element": "C" 
			},
			{
				"x": -1.9924494156,
				"y": 1.2153965832,
				"z": -0.0417646166,
				"element": "O" 
			},
			{
				"x": -0.7204147812,
				"y": 0.7976119329,
				"z": -0.2163457782,
				"element": "C" 
			},
			{
				"x": -0.3025689228,
				"y": -0.0422740165,
				"z": -1.2580498862,
				"element": "C" 
			},
			{
				"x": 1.0360564954,
				"y": -0.4154231236,
				"z": -1.3487728682,
				"element": "C" 
			},
			{
				"x": 1.9734102402,
				"y": 0.0349457771,
				"z": -0.4153024382,
				"element": "C" 
			},
			{
				"x": 3.3895354264,
				"y": -0.3665659561,
				"z": -0.5208038798,
				"element": "C" 
			},
			{
				"x": 4.2668517272,
				"y": -0.0195187267,
				"z": 0.2479045054,
				"element": "O" 
			},
			{
				"x": 1.550015256,
				"y": 0.8761958802,
				"z": 0.6266487052,
				"element": "C" 
			},
			{
				"x": 0.2236108395,
				"y": 1.2594678003,
				"z": 0.735501034,
				"element": "C" 
			},
			{
				"x": -0.222413975,
				"y": 2.163598465,
				"z": 1.8579636167,
				"element": "C" 
			},
			{
				"x": 0.8126756389,
				"y": 2.4970956128,
				"z": 2.6603987595,
				"element": "F" 
			},
			{
				"x": -1.1558571213,
				"y": 1.576084025,
				"z": 2.6366459305,
				"element": "F" 
			},
			{
				"x": -0.7539300877,
				"y": 3.31524985,
				"z": 1.3953141166,
				"element": "F" 
			},
			{
				"x": -3.9216304613,
				"y": 1.2496048753,
				"z": -0.6161250266,
				"element": "H" 
			},
			{
				"x": -3.103964959,
				"y": -0.2999921702,
				"z": -0.9547279498,
				"element": "H" 
			},
			{
				"x": -2.7740276807,
				"y": 1.1329552621,
				"z": -1.9776952707,
				"element": "H" 
			},
			{
				"x": -1.0126163467,
				"y": -0.4024903126,
				"z": -1.9917439011,
				"element": "H" 
			},
			{
				"x": 1.3557479089,
				"y": -1.0672105343,
				"z": -2.1586899668,
				"element": "H" 
			},
			{
				"x": 3.6161959521,
				"y": -1.0337089035,
				"z": -1.3828262318,
				"element": "H" 
			},
			{
				"x": 2.2828898515,
				"y": 1.2213661153,
				"z": 1.3467353032,
				"element": "H" 
			}
		],
		 "valence_orbital": [ 
			{
				"type": "occ",
				"energy": -0.34681,
				"method": "rhf"
			},
			{
				"type": "occ",
				"energy": -0.33996,
				"method": "rhf"
			},
			{
				"type": "occ",
				"energy": -0.28321,
				"method": "rhf"
			},
			{
				"type": "occ",
				"energy": -0.25756,
				"method": "rhf"
			},
			{
				"type": "occ",
				"energy": -0.24882,
				"method": "rhf"
			},
			{
				"type": "unocc",
				"energy": -0.06419,
				"method": "rhf"
			},
			{
				"type": "unocc",
				"energy": -0.03538,
				"method": "rhf"
			},
			{
				"type": "unocc",
				"energy": 0.03251,
				"method": "rhf"
			},
			{
				"type": "unocc",
				"energy": 0.07482,
				"method": "rhf"
			},
			{
				"type": "unocc",
				"energy": 0.08875,
				"method": "rhf"
			}
		],
		"cosmo_sigma_profile": { 
			"-0.025": 0.0,
			"-0.024": 0.0,
			"-0.023": 0.0,
			"-0.022": 0.0,
			"-0.021": 0.0,
			"-0.02": 0.0,
			"-0.019": 0.0,
			"-0.018": 0.0,
			"-0.017": 0.0,
			"-0.016": 0.0,
			"-0.015": 0.0,
			"-0.014": 0.0,
			"-0.013": 0.0,
			"-0.012": 0.0,
			"-0.011": 0.0,
			"-0.01": 0.0,
			"-0.009": 0.0561388438507,
			"-0.008": 4.75604542534,
			"-0.007": 11.3576460003,
			"-0.006": 15.9169964014,
			"-0.005": 14.0578575621,
			"-0.004": 13.878737216,
			"-0.003": 12.0792617392,
			"-0.002": 11.792882531,
			"-0.001": 11.7406544755,
			"0.0": 18.2175908886,
			"0.001": 18.0228825306,
			"0.002": 23.7529645938,
			"0.003": 26.8639911295,
			"0.004": 7.85661116725,
			"0.005": 3.76971560868,
			"0.006": 3.96105797688,
			"0.007": 4.77532325848,
			"0.008": 2.09826692168,
			"0.009": 2.05302124209,
			"0.01": 2.44131551497,
			"0.011": 4.29390645794,
			"0.012": 3.08604205385,
			"0.013": 0.99853551233,
			"0.014": 0.0165153776332,
			"0.015": 0.0,
			"0.016": 0.0,
			"0.017": 0.0,
			"0.018": 0.0,
			"0.019": 0.0,
			"0.02": 0.0,
			"0.021": 0.0,
			"0.022": 0.0,
			"0.023": 0.0,
			"0.024": 0.0,
			"0.025": 0.0
		}
	}
}
