{
	 "smiles": "OC1=CC(CNC2CC2)=CC=C1", 
	 "Tm": 399.15, 
	 "num_atms": 25, 
	 "gaussian": { 
		 "optdone": 1, 
		 "sigma_profile": "yes", 
		 "theory": "DFT", 
		 "functional": "B3LYP", 
		 "basiset": "6-31G**", 
		 "properties": { 
			 "R2extent": 3423.164, 
			 "electric_dipole_moment_norm": 2.17317126799, 
			 "electric_quadrupole_moment_norm": 6.15461184479, 
			 "total_energy": -518.832362841, 
			 "HOMO_LUMO_gap": 0.21193, 
			 "cosmo_polarized_energy": -10.15, 
			 "cosmo_cavitation_energy": 28.14, 
			 "cosmo_dispersion_energy": -20.01, 
			 "cosmo_repulsion_energy": 1.61, 
			 "cosmo_total_nonelectrostatic_energy": 9.74, 
			 "SMD_solvation_energy": 2.82 
		},
		"coords": [
			{
				"x": -2.4643259529,
				"y": -0.1397119174,
				"z": 1.7736105442,
				"element": "O" 
			},
			{
				"x": -1.4403982623,
				"y": 0.7534701257,
				"z": 1.9277601251,
				"element": "C" 
			},
			{
				"x": -0.3612718799,
				"y": 0.6494686929,
				"z": 1.0423212851,
				"element": "C" 
			},
			{
				"x": 0.722944286,
				"y": 1.5255638275,
				"z": 1.1377172748,
				"element": "C" 
			},
			{
				"x": 1.8723864737,
				"y": 1.4504622622,
				"z": 0.1437337306,
				"element": "C" 
			},
			{
				"x": 1.785107034,
				"y": 2.371089212,
				"z": -1.0007419844,
				"element": "N" 
			},
			{
				"x": 0.6864473422,
				"y": 2.1238824671,
				"z": -1.9001220155,
				"element": "C" 
			},
			{
				"x": 0.9213815649,
				"y": 1.1250302377,
				"z": -3.0070397688,
				"element": "C" 
			},
			{
				"x": 0.8480334182,
				"y": 2.6013469932,
				"z": -3.3190587819,
				"element": "C" 
			},
			{
				"x": 0.7180580539,
				"y": 2.5103650757,
				"z": 2.1386723233,
				"element": "C" 
			},
			{
				"x": -0.356786502,
				"y": 2.6119325189,
				"z": 3.0192730259,
				"element": "C" 
			},
			{
				"x": -1.441408172,
				"y": 1.7382758727,
				"z": 2.9201801049,
				"element": "C" 
			},
			{
				"x": -3.1375736609,
				"y": 0.0338687704,
				"z": 2.4441315915,
				"element": "H" 
			},
			{
				"x": -0.3826531141,
				"y": -0.1297455336,
				"z": 0.2862508355,
				"element": "H" 
			},
			{
				"x": 1.9489759205,
				"y": 0.4348275417,
				"z": -0.2593730569,
				"element": "H" 
			},
			{
				"x": 2.8142490742,
				"y": 1.6642463944,
				"z": 0.6628042176,
				"element": "H" 
			},
			{
				"x": 1.7398747199,
				"y": 3.3296423365,
				"z": -0.6612578506,
				"element": "H" 
			},
			{
				"x": -0.3270206069,
				"y": 2.1536539998,
				"z": -1.4908504977,
				"element": "H" 
			},
			{
				"x": 0.0971414563,
				"y": 0.4868959513,
				"z": -3.3109125275,
				"element": "H" 
			},
			{
				"x": 1.901417329,
				"y": 0.6600800577,
				"z": -3.0449622953,
				"element": "H" 
			},
			{
				"x": 1.7795299059,
				"y": 3.1030833245,
				"z": -3.5610049452,
				"element": "H" 
			},
			{
				"x": -0.0270072137,
				"y": 2.9819972651,
				"z": -3.8371959345,
				"element": "H" 
			},
			{
				"x": 1.5621796005,
				"y": 3.1893623774,
				"z": 2.2315341108,
				"element": "H" 
			},
			{
				"x": -0.3537441457,
				"y": 3.3708117575,
				"z": 3.7968156396,
				"element": "H" 
			},
			{
				"x": -2.2779366688,
				"y": 1.817000389,
				"z": 3.6116148495,
				"element": "H" 
			}
		],
		 "valence_orbital": [ 
			{
				"type": "occ",
				"energy": -0.29213,
				"method": "rhf"
			},
			{
				"type": "occ",
				"energy": -0.27827,
				"method": "rhf"
			},
			{
				"type": "occ",
				"energy": -0.24696,
				"method": "rhf"
			},
			{
				"type": "occ",
				"energy": -0.22451,
				"method": "rhf"
			},
			{
				"type": "occ",
				"energy": -0.21366,
				"method": "rhf"
			},
			{
				"type": "unocc",
				"energy": -0.00173,
				"method": "rhf"
			},
			{
				"type": "unocc",
				"energy": 0.01252,
				"method": "rhf"
			},
			{
				"type": "unocc",
				"energy": 0.07096,
				"method": "rhf"
			},
			{
				"type": "unocc",
				"energy": 0.09414,
				"method": "rhf"
			},
			{
				"type": "unocc",
				"energy": 0.11053,
				"method": "rhf"
			}
		],
		"cosmo_sigma_profile": { 
			"-0.025": 0.0,
			"-0.024": 0.0,
			"-0.023": 0.0,
			"-0.022": 0.0,
			"-0.021": 0.0,
			"-0.02": 0.0,
			"-0.019": 0.0,
			"-0.018": 0.115171044201,
			"-0.017": 1.21942001699,
			"-0.016": 0.750092634521,
			"-0.015": 1.19534016534,
			"-0.014": 1.21590901315,
			"-0.013": 0.845638799554,
			"-0.012": 0.856842912266,
			"-0.011": 1.35020183261,
			"-0.01": 0.595909149837,
			"-0.009": 2.00878425241,
			"-0.008": 2.1369706572,
			"-0.007": 2.61518608513,
			"-0.006": 4.52694257097,
			"-0.005": 9.81222082616,
			"-0.004": 17.8735729597,
			"-0.003": 19.9174923544,
			"-0.002": 18.9266004681,
			"-0.001": 17.3307535624,
			"0.0": 18.9903855922,
			"0.001": 18.252654995,
			"0.002": 15.1044705769,
			"0.003": 13.8180789082,
			"0.004": 12.3354433319,
			"0.005": 12.491783652,
			"0.006": 10.291207886,
			"0.007": 4.00040892158,
			"0.008": 2.06599554671,
			"0.009": 2.33816592742,
			"0.01": 1.77229992923,
			"0.011": 2.57276437991,
			"0.012": 1.93394383348,
			"0.013": 0.370356875118,
			"0.014": 0.475237511947,
			"0.015": 0.735927053344,
			"0.016": 0.156503656223,
			"0.017": 0.228268635777,
			"0.018": 0.0,
			"0.019": 0.0,
			"0.02": 0.0,
			"0.021": 0.0,
			"0.022": 0.0,
			"0.023": 0.0,
			"0.024": 0.0,
			"0.025": 0.0
		}
	}
}
