{
	 "smiles": "COC(=O)C1=CC2=C(N1)C=C(Br)C=C2F", 
	 "Tm": 464.15, 
	 "num_atms": 22, 
	 "gaussian": { 
		 "optdone": 1, 
		 "sigma_profile": "yes", 
		 "theory": "DFT", 
		 "functional": "B3LYP", 
		 "basiset": "6-31G**", 
		 "properties": { 
			 "R2extent": 6826.0578, 
			 "electric_dipole_moment_norm": 2.36858136445, 
			 "electric_quadrupole_moment_norm": 7.18412472539, 
			 "total_energy": -3261.73774784, 
			 "HOMO_LUMO_gap": 0.16308, 
			 "cosmo_polarized_energy": -9.37, 
			 "cosmo_cavitation_energy": 30.32, 
			 "cosmo_dispersion_energy": -22.54, 
			 "cosmo_repulsion_energy": 1.74, 
			 "cosmo_total_nonelectrostatic_energy": 9.51, 
			 "SMD_solvation_energy": 5.74 
		},
		"coords": [
			{
				"x": -3.7638923932,
				"y": -3.2097161458,
				"z": -0.7992845508,
				"element": "C" 
			},
			{
				"x": -2.6778400561,
				"y": -2.3028580377,
				"z": -1.0534454372,
				"element": "O" 
			},
			{
				"x": -1.8119590519,
				"y": -2.1464990049,
				"z": -0.0345704476,
				"element": "C" 
			},
			{
				"x": -1.9032917974,
				"y": -2.7128862314,
				"z": 1.0420962063,
				"element": "O" 
			},
			{
				"x": -0.7297398349,
				"y": -1.2119619182,
				"z": -0.3566490317,
				"element": "C" 
			},
			{
				"x": -0.4354456877,
				"y": -0.4756966381,
				"z": -1.4839684213,
				"element": "C" 
			},
			{
				"x": 0.755181271,
				"y": 0.2511324915,
				"z": -1.1892125004,
				"element": "C" 
			},
			{
				"x": 1.1492878286,
				"y": -0.080084064,
				"z": 0.1411492027,
				"element": "C" 
			},
			{
				"x": 0.2252583176,
				"y": -0.9711192023,
				"z": 0.6173932639,
				"element": "N" 
			},
			{
				"x": 2.2897873921,
				"y": 0.4633464804,
				"z": 0.7525047997,
				"element": "C" 
			},
			{
				"x": 3.0309222224,
				"y": 1.3530822156,
				"z": -0.0073869238,
				"element": "C" 
			},
			{
				"x": 4.598465182,
				"y": 2.1359527319,
				"z": 0.7545651897,
				"element": "Br" 
			},
			{
				"x": 2.6859639362,
				"y": 1.7151784093,
				"z": -1.3274274527,
				"element": "C" 
			},
			{
				"x": 1.557443355,
				"y": 1.1601388836,
				"z": -1.8949059293,
				"element": "C" 
			},
			{
				"x": 1.2098777025,
				"y": 1.4915010785,
				"z": -3.1528629618,
				"element": "F" 
			},
			{
				"x": -3.384992055,
				"y": -4.2106995509,
				"z": -0.5785632197,
				"element": "H" 
			},
			{
				"x": -4.3633547799,
				"y": -2.8638141931,
				"z": 0.0464336716,
				"element": "H" 
			},
			{
				"x": -4.357637403,
				"y": -3.2171463682,
				"z": -1.7127624173,
				"element": "H" 
			},
			{
				"x": -1.0046207555,
				"y": -0.4634979356,
				"z": -2.4003470299,
				"element": "H" 
			},
			{
				"x": 0.1960031937,
				"y": -1.4130645219,
				"z": 1.5242334489,
				"element": "H" 
			},
			{
				"x": 2.5813892237,
				"y": 0.2059416179,
				"z": 1.7633511848,
				"element": "H" 
			},
			{
				"x": 3.2896941898,
				"y": 2.4143699034,
				"z": -1.891240644,
				"element": "H" 
			}
		],
		 "valence_orbital": [ 
			{
				"type": "occ",
				"energy": -0.29105,
				"method": "rhf"
			},
			{
				"type": "occ",
				"energy": -0.28934,
				"method": "rhf"
			},
			{
				"type": "occ",
				"energy": -0.28562,
				"method": "rhf"
			},
			{
				"type": "occ",
				"energy": -0.24225,
				"method": "rhf"
			},
			{
				"type": "occ",
				"energy": -0.22087,
				"method": "rhf"
			},
			{
				"type": "unocc",
				"energy": -0.05779,
				"method": "rhf"
			},
			{
				"type": "unocc",
				"energy": 0.0014,
				"method": "rhf"
			},
			{
				"type": "unocc",
				"energy": 0.00251,
				"method": "rhf"
			},
			{
				"type": "unocc",
				"energy": 0.01035,
				"method": "rhf"
			},
			{
				"type": "unocc",
				"energy": 0.08516,
				"method": "rhf"
			}
		],
		"cosmo_sigma_profile": { 
			"-0.025": 0.0,
			"-0.024": 0.0,
			"-0.023": 0.0,
			"-0.022": 0.0,
			"-0.021": 0.0,
			"-0.02": 0.0,
			"-0.019": 0.0,
			"-0.018": 0.0,
			"-0.017": 0.0,
			"-0.016": 0.559522473193,
			"-0.015": 0.875937210942,
			"-0.014": 1.25839223197,
			"-0.013": 0.835092305373,
			"-0.012": 1.0988169942,
			"-0.011": 0.821739997704,
			"-0.01": 0.726316882939,
			"-0.009": 1.54783190643,
			"-0.008": 4.28403571737,
			"-0.007": 5.45422810961,
			"-0.006": 10.2226213135,
			"-0.005": 11.8177152568,
			"-0.004": 15.3535060701,
			"-0.003": 16.5132819163,
			"-0.002": 12.9845054899,
			"-0.001": 13.5379863346,
			"0.0": 19.7330675812,
			"0.001": 28.0714058444,
			"0.002": 32.1607218508,
			"0.003": 22.1809918029,
			"0.004": 24.1800163921,
			"0.005": 6.99151102609,
			"0.006": 2.87502616167,
			"0.007": 2.38455258214,
			"0.008": 1.01676204614,
			"0.009": 1.44032744095,
			"0.01": 2.04659085927,
			"0.011": 3.65532676356,
			"0.012": 2.32813282487,
			"0.013": 0.0537515488899,
			"0.014": 0.0,
			"0.015": 0.0,
			"0.016": 0.0,
			"0.017": 0.0,
			"0.018": 0.0,
			"0.019": 0.0,
			"0.02": 0.0,
			"0.021": 0.0,
			"0.022": 0.0,
			"0.023": 0.0,
			"0.024": 0.0,
			"0.025": 0.0
		}
	}
}
