{
	 "smiles": "CCOC(=O)C(C)(C)C1(CCC(=O)O1)C1=CC=C(OC)C=C1", 
	 "Tm": 332.15, 
	 "num_atms": 44, 
	 "gaussian": { 
		 "optdone": 1, 
		 "sigma_profile": "yes", 
		 "theory": "DFT", 
		 "functional": "B3LYP", 
		 "basiset": "6-31G**", 
		 "properties": { 
			 "R2extent": 7142.1598, 
			 "electric_dipole_moment_norm": 3.90104961517, 
			 "electric_quadrupole_moment_norm": 22.7918581235, 
			 "total_energy": -1037.20974885, 
			 "HOMO_LUMO_gap": 0.21017, 
			 "cosmo_polarized_energy": -14.15, 
			 "cosmo_cavitation_energy": 44.38, 
			 "cosmo_dispersion_energy": -29.71, 
			 "cosmo_repulsion_energy": 2.29, 
			 "cosmo_total_nonelectrostatic_energy": 16.96, 
			 "SMD_solvation_energy": 10.08 
		},
		"coords": [
			{
				"x": -2.8178298987,
				"y": -0.2197981021,
				"z": 3.6410782568,
				"element": "C" 
			},
			{
				"x": -1.4587451828,
				"y": 0.1978267134,
				"z": 4.18050199,
				"element": "C" 
			},
			{
				"x": -0.3888799848,
				"y": -0.2988456183,
				"z": 3.3370646533,
				"element": "O" 
			},
			{
				"x": -0.0141439823,
				"y": 0.4799120482,
				"z": 2.3031036032,
				"element": "C" 
			},
			{
				"x": -0.5274275226,
				"y": 1.5574468608,
				"z": 2.0647745905,
				"element": "O" 
			},
			{
				"x": 1.1843327762,
				"y": -0.110704939,
				"z": 1.5463322916,
				"element": "C" 
			},
			{
				"x": 2.4439931965,
				"y": 0.4575775971,
				"z": 2.2541795502,
				"element": "C" 
			},
			{
				"x": 1.2256220768,
				"y": -1.6498082862,
				"z": 1.6539441655,
				"element": "C" 
			},
			{
				"x": 1.1359017191,
				"y": 0.3222531169,
				"z": 0.0271785842,
				"element": "C" 
			},
			{
				"x": 1.1897156863,
				"y": 1.8494966981,
				"z": -0.2621474765,
				"element": "C" 
			},
			{
				"x": 2.0053530452,
				"y": 1.9145790752,
				"z": -1.5550627684,
				"element": "C" 
			},
			{
				"x": 2.9073214312,
				"y": 0.6967476292,
				"z": -1.4656685803,
				"element": "C" 
			},
			{
				"x": 3.9132388192,
				"y": 0.4443151001,
				"z": -2.0756344059,
				"element": "O" 
			},
			{
				"x": 2.3972368754,
				"y": -0.1615347579,
				"z": -0.5288665296,
				"element": "O" 
			},
			{
				"x": -0.0108518807,
				"y": -0.3486143278,
				"z": -0.7469595604,
				"element": "C" 
			},
			{
				"x": -1.3341986399,
				"y": 0.1218758557,
				"z": -0.6510946904,
				"element": "C" 
			},
			{
				"x": -2.3674550382,
				"y": -0.4876455539,
				"z": -1.3508999206,
				"element": "C" 
			},
			{
				"x": -2.1114212085,
				"y": -1.5909763991,
				"z": -2.177846684,
				"element": "C" 
			},
			{
				"x": -3.1923408647,
				"y": -2.1138161235,
				"z": -2.8252595127,
				"element": "O" 
			},
			{
				"x": -2.9871363354,
				"y": -3.2268949998,
				"z": -3.6811121747,
				"element": "C" 
			},
			{
				"x": -0.8028472109,
				"y": -2.0709911536,
				"z": -2.2882651528,
				"element": "C" 
			},
			{
				"x": 0.2271116053,
				"y": -1.4499994951,
				"z": -1.5756060272,
				"element": "C" 
			},
			{
				"x": -3.6052907987,
				"y": 0.1024341964,
				"z": 4.3304789868,
				"element": "H" 
			},
			{
				"x": -3.004897586,
				"y": 0.2405176758,
				"z": 2.6678993215,
				"element": "H" 
			},
			{
				"x": -2.8776664866,
				"y": -1.3066449305,
				"z": 3.5339011405,
				"element": "H" 
			},
			{
				"x": -1.3759784522,
				"y": 1.284560665,
				"z": 4.2512351094,
				"element": "H" 
			},
			{
				"x": -1.2611347623,
				"y": -0.2485249504,
				"z": 5.1579775975,
				"element": "H" 
			},
			{
				"x": 3.3435322533,
				"y": 0.1153177489,
				"z": 1.7383908688,
				"element": "H" 
			},
			{
				"x": 2.4765290125,
				"y": 0.0946600401,
				"z": 3.2852751486,
				"element": "H" 
			},
			{
				"x": 2.4490840063,
				"y": 1.549722454,
				"z": 2.2860144736,
				"element": "H" 
			},
			{
				"x": 0.3133664696,
				"y": -2.1097747901,
				"z": 1.2694877324,
				"element": "H" 
			},
			{
				"x": 1.3445167103,
				"y": -1.9528745282,
				"z": 2.6952760394,
				"element": "H" 
			},
			{
				"x": 2.0733960824,
				"y": -2.031000826,
				"z": 1.0801293007,
				"element": "H" 
			},
			{
				"x": 0.1976547371,
				"y": 2.2865620115,
				"z": -0.3430936201,
				"element": "H" 
			},
			{
				"x": 1.7122325578,
				"y": 2.374637491,
				"z": 0.538840972,
				"element": "H" 
			},
			{
				"x": 1.3746382936,
				"y": 1.7999876881,
				"z": -2.4446044582,
				"element": "H" 
			},
			{
				"x": 2.6002357432,
				"y": 2.8208639117,
				"z": -1.6824482863,
				"element": "H" 
			},
			{
				"x": -1.5623820377,
				"y": 0.9719127459,
				"z": -0.0181650933,
				"element": "H" 
			},
			{
				"x": -3.3859118611,
				"y": -0.1198405139,
				"z": -1.2781437542,
				"element": "H" 
			},
			{
				"x": -2.5934557233,
				"y": -4.0926790195,
				"z": -3.1331032442,
				"element": "H" 
			},
			{
				"x": -3.9670087504,
				"y": -3.4773444803,
				"z": -4.0905061752,
				"element": "H" 
			},
			{
				"x": -2.3035110408,
				"y": -2.9842760496,
				"z": -4.5048556779,
				"element": "H" 
			},
			{
				"x": -0.5684206769,
				"y": -2.9183622441,
				"z": -2.9216918546,
				"element": "H" 
			},
			{
				"x": 1.2362228279,
				"y": -1.8330552345,
				"z": -1.6747287292,
				"element": "H" 
			}
		],
		 "valence_orbital": [ 
			{
				"type": "occ",
				"energy": -0.29014,
				"method": "rhf"
			},
			{
				"type": "occ",
				"energy": -0.27552,
				"method": "rhf"
			},
			{
				"type": "occ",
				"energy": -0.25967,
				"method": "rhf"
			},
			{
				"type": "occ",
				"energy": -0.25244,
				"method": "rhf"
			},
			{
				"type": "occ",
				"energy": -0.21958,
				"method": "rhf"
			},
			{
				"type": "unocc",
				"energy": -0.00941,
				"method": "rhf"
			},
			{
				"type": "unocc",
				"energy": 0.00353,
				"method": "rhf"
			},
			{
				"type": "unocc",
				"energy": 0.00641,
				"method": "rhf"
			},
			{
				"type": "unocc",
				"energy": 0.01768,
				"method": "rhf"
			},
			{
				"type": "unocc",
				"energy": 0.08385,
				"method": "rhf"
			}
		],
		"cosmo_sigma_profile": { 
			"-0.025": 0.0,
			"-0.024": 0.0,
			"-0.023": 0.0,
			"-0.022": 0.0,
			"-0.021": 0.0,
			"-0.02": 0.0,
			"-0.019": 0.0,
			"-0.018": 0.0,
			"-0.017": 0.0,
			"-0.016": 0.0,
			"-0.015": 0.0,
			"-0.014": 0.0,
			"-0.013": 0.0,
			"-0.012": 0.0,
			"-0.011": 0.0,
			"-0.01": 0.0,
			"-0.009": 0.0,
			"-0.008": 0.0,
			"-0.007": 1.49377568565,
			"-0.006": 14.1757693587,
			"-0.005": 27.5618490104,
			"-0.004": 34.8258425705,
			"-0.003": 43.4796889595,
			"-0.002": 38.4018359647,
			"-0.001": 34.8333443949,
			"0.0": 33.0987680592,
			"0.001": 20.6904667802,
			"0.002": 15.3554985898,
			"0.003": 14.4208373533,
			"0.004": 14.1356377274,
			"0.005": 12.8462625897,
			"0.006": 7.6720448139,
			"0.007": 5.22816790156,
			"0.008": 3.74164323324,
			"0.009": 5.06287250153,
			"0.01": 5.28101360261,
			"0.011": 7.40815285988,
			"0.012": 6.69446558502,
			"0.013": 1.98174791893,
			"0.014": 0.00899051342341,
			"0.015": 0.0,
			"0.016": 0.0,
			"0.017": 0.0,
			"0.018": 0.0,
			"0.019": 0.0,
			"0.02": 0.0,
			"0.021": 0.0,
			"0.022": 0.0,
			"0.023": 0.0,
			"0.024": 0.0,
			"0.025": 0.0
		}
	}
}
