{
	 "smiles": "FC(F)(F)C1=CC(=CC(=C1)C1=CC=C(O1)C=O)C(F)(F)F", 
	 "Tm": 383.15, 
	 "num_atms": 27, 
	 "gaussian": { 
		 "optdone": 1, 
		 "sigma_profile": "yes", 
		 "theory": "DFT", 
		 "functional": "B3LYP", 
		 "basiset": "6-31G**", 
		 "properties": { 
			 "R2extent": 7962.0595, 
			 "electric_dipole_moment_norm": 1.79275042602, 
			 "electric_quadrupole_moment_norm": 19.5791368209, 
			 "total_energy": -1248.47683152, 
			 "HOMO_LUMO_gap": 0.15259, 
			 "cosmo_polarized_energy": -10.12, 
			 "cosmo_cavitation_energy": 36.58, 
			 "cosmo_dispersion_energy": -24.76, 
			 "cosmo_repulsion_energy": 1.76, 
			 "cosmo_total_nonelectrostatic_energy": 13.58, 
			 "SMD_solvation_energy": 10.03 
		},
		"coords": [
			{
				"x": 0.4638258817,
				"y": 1.3483756676,
				"z": 4.7064863363,
				"element": "F" 
			},
			{
				"x": -0.4553927252,
				"y": 0.5664684952,
				"z": 4.1032630756,
				"element": "C" 
			},
			{
				"x": -0.4326939872,
				"y": -0.6299888669,
				"z": 4.7309650404,
				"element": "F" 
			},
			{
				"x": -1.6707555516,
				"y": 1.1103728569,
				"z": 4.3291078538,
				"element": "F" 
			},
			{
				"x": -0.1757802968,
				"y": 0.416998625,
				"z": 2.6289400349,
				"element": "C" 
			},
			{
				"x": 1.1459601122,
				"y": 0.3884342609,
				"z": 2.1796201638,
				"element": "C" 
			},
			{
				"x": 1.3956320229,
				"y": 0.1900668487,
				"z": 0.8216220302,
				"element": "C" 
			},
			{
				"x": 0.3460460808,
				"y": 0.0200201109,
				"z": -0.0788565952,
				"element": "C" 
			},
			{
				"x": -0.9839394293,
				"y": 0.0506476983,
				"z": 0.3707906928,
				"element": "C" 
			},
			{
				"x": -1.2327579066,
				"y": 0.2523913835,
				"z": 1.7384071809,
				"element": "C" 
			},
			{
				"x": -2.0893587569,
				"y": -0.1240150736,
				"z": -0.5623056846,
				"element": "C" 
			},
			{
				"x": -3.4609631323,
				"y": -0.1481585259,
				"z": -0.4071683884,
				"element": "C" 
			},
			{
				"x": -4.012616727,
				"y": -0.3559265635,
				"z": -1.6942981148,
				"element": "C" 
			},
			{
				"x": -2.9524485041,
				"y": -0.4477196696,
				"z": -2.5643040184,
				"element": "C" 
			},
			{
				"x": -1.7758680749,
				"y": -0.3058464675,
				"z": -1.8733516845,
				"element": "O" 
			},
			{
				"x": -2.8693487457,
				"y": -0.6564985587,
				"z": -4.0031461737,
				"element": "C" 
			},
			{
				"x": -3.8489302496,
				"y": -0.7943991341,
				"z": -4.7154610232,
				"element": "O" 
			},
			{
				"x": 2.8152521534,
				"y": 0.2216506223,
				"z": 0.3124413018,
				"element": "C" 
			},
			{
				"x": 3.1854898785,
				"y": 1.4757575607,
				"z": -0.0285311174,
				"element": "F" 
			},
			{
				"x": 3.6885019732,
				"y": -0.2105127584,
				"z": 1.2462349951,
				"element": "F" 
			},
			{
				"x": 2.9692609898,
				"y": -0.5499441742,
				"z": -0.784010226,
				"element": "F" 
			},
			{
				"x": 1.9656226608,
				"y": 0.5188144689,
				"z": 2.8758499922,
				"element": "H" 
			},
			{
				"x": 0.5550493123,
				"y": -0.1411303591,
				"z": -1.129329806,
				"element": "H" 
			},
			{
				"x": -2.2496761812,
				"y": 0.2878334611,
				"z": 2.1116562013,
				"element": "H" 
			},
			{
				"x": -4.0038044505,
				"y": -0.0313623597,
				"z": 0.5193240541,
				"element": "H" 
			},
			{
				"x": -5.0542647486,
				"y": -0.4320663967,
				"z": -1.969209404,
				"element": "H" 
			},
			{
				"x": -1.8347415981,
				"y": -0.680463152,
				"z": -4.4040367172,
				"element": "H" 
			}
		],
		 "valence_orbital": [ 
			{
				"type": "occ",
				"energy": -0.32196,
				"method": "rhf"
			},
			{
				"type": "occ",
				"energy": -0.30892,
				"method": "rhf"
			},
			{
				"type": "occ",
				"energy": -0.29719,
				"method": "rhf"
			},
			{
				"type": "occ",
				"energy": -0.26761,
				"method": "rhf"
			},
			{
				"type": "occ",
				"energy": -0.24246,
				"method": "rhf"
			},
			{
				"type": "unocc",
				"energy": -0.08987,
				"method": "rhf"
			},
			{
				"type": "unocc",
				"energy": -0.05712,
				"method": "rhf"
			},
			{
				"type": "unocc",
				"energy": -0.04362,
				"method": "rhf"
			},
			{
				"type": "unocc",
				"energy": 0.0263,
				"method": "rhf"
			},
			{
				"type": "unocc",
				"energy": 0.07424,
				"method": "rhf"
			}
		],
		"cosmo_sigma_profile": { 
			"-0.025": 0.0,
			"-0.024": 0.0,
			"-0.023": 0.0,
			"-0.022": 0.0,
			"-0.021": 0.0,
			"-0.02": 0.0,
			"-0.019": 0.0,
			"-0.018": 0.0,
			"-0.017": 0.0,
			"-0.016": 0.0,
			"-0.015": 0.0,
			"-0.014": 0.0,
			"-0.013": 0.0,
			"-0.012": 0.0,
			"-0.011": 0.156253883129,
			"-0.01": 1.71493640781,
			"-0.009": 3.70049554655,
			"-0.008": 4.2365519446,
			"-0.007": 9.86160845279,
			"-0.006": 10.5627323372,
			"-0.005": 11.4945601083,
			"-0.004": 12.1515580499,
			"-0.003": 14.6596675971,
			"-0.002": 20.2941042376,
			"-0.001": 30.9326995031,
			"0.0": 37.2724687462,
			"0.001": 27.3849459281,
			"0.002": 53.7911591401,
			"0.003": 36.5282756768,
			"0.004": 1.58251047784,
			"0.005": 1.82675275265,
			"0.006": 1.36092022349,
			"0.007": 1.40696695538,
			"0.008": 1.42649360992,
			"0.009": 2.23137776528,
			"0.01": 2.80485366035,
			"0.011": 4.22374821107,
			"0.012": 3.41280379894,
			"0.013": 0.851070827792,
			"0.014": 0.0,
			"0.015": 0.0,
			"0.016": 0.0,
			"0.017": 0.0,
			"0.018": 0.0,
			"0.019": 0.0,
			"0.02": 0.0,
			"0.021": 0.0,
			"0.022": 0.0,
			"0.023": 0.0,
			"0.024": 0.0,
			"0.025": 0.0
		}
	}
}
