{
	 "smiles": "NNC1=NC(=C(C=N1)C(=O)OCC1=CC=C(Cl)C=C1)C(F)(F)F", 
	 "Tm": 385.15, 
	 "num_atms": 33, 
	 "gaussian": { 
		 "optdone": 1, 
		 "sigma_profile": "yes", 
		 "theory": "DFT", 
		 "functional": "B3LYP", 
		 "basiset": "6-31G**", 
		 "properties": { 
			 "R2extent": 12567.4276, 
			 "electric_dipole_moment_norm": 2.9255069629, 
			 "electric_quadrupole_moment_norm": 21.4218395781, 
			 "total_energy": -1630.55954177, 
			 "HOMO_LUMO_gap": 0.18442, 
			 "cosmo_polarized_energy": -16.35, 
			 "cosmo_cavitation_energy": 42.74, 
			 "cosmo_dispersion_energy": -30.1, 
			 "cosmo_repulsion_energy": 2.27, 
			 "cosmo_total_nonelectrostatic_energy": 14.92, 
			 "SMD_solvation_energy": 6.93 
		},
		"coords": [
			{
				"x": 5.2354469417,
				"y": -1.8133482629,
				"z": 1.1408050802,
				"element": "N" 
			},
			{
				"x": 4.6419338788,
				"y": -2.146919509,
				"z": -0.0824337935,
				"element": "N" 
			},
			{
				"x": 3.4237292867,
				"y": -1.7183098201,
				"z": -0.4904835783,
				"element": "C" 
			},
			{
				"x": 3.0332330405,
				"y": -2.1404658365,
				"z": -1.7141086306,
				"element": "N" 
			},
			{
				"x": 1.8423769439,
				"y": -1.7517279416,
				"z": -2.1349929595,
				"element": "C" 
			},
			{
				"x": 0.9968410538,
				"y": -0.9271302539,
				"z": -1.3544495289,
				"element": "C" 
			},
			{
				"x": 1.5317542811,
				"y": -0.5447124841,
				"z": -0.1122654607,
				"element": "C" 
			},
			{
				"x": 2.7237284537,
				"y": -0.9205986924,
				"z": 0.3396813946,
				"element": "N" 
			},
			{
				"x": -0.3657851352,
				"y": -0.4862408167,
				"z": -1.7532049081,
				"element": "C" 
			},
			{
				"x": -1.0022305169,
				"y": -0.8977022751,
				"z": -2.6998166304,
				"element": "O" 
			},
			{
				"x": -0.8423602542,
				"y": 0.4538567574,
				"z": -0.8965872772,
				"element": "O" 
			},
			{
				"x": -2.1863994381,
				"y": 0.9224994442,
				"z": -1.1826557968,
				"element": "C" 
			},
			{
				"x": -2.5579848434,
				"y": 1.9287936397,
				"z": -0.1290203099,
				"element": "C" 
			},
			{
				"x": -3.2281841582,
				"y": 1.5307130882,
				"z": 1.0335756227,
				"element": "C" 
			},
			{
				"x": -3.5605248189,
				"y": 2.4536530907,
				"z": 2.0245406658,
				"element": "C" 
			},
			{
				"x": -3.2133616659,
				"y": 3.7922616157,
				"z": 1.8447745407,
				"element": "C" 
			},
			{
				"x": -3.6300278838,
				"y": 4.9657256074,
				"z": 3.0841580979,
				"element": "Cl" 
			},
			{
				"x": -2.54548644,
				"y": 4.2171293731,
				"z": 0.6961221539,
				"element": "C" 
			},
			{
				"x": -2.222858004,
				"y": 3.2794878188,
				"z": -0.2835026721,
				"element": "C" 
			},
			{
				"x": 1.4826331768,
				"y": -2.2585866575,
				"z": -3.5391237326,
				"element": "C" 
			},
			{
				"x": 1.1620466142,
				"y": -1.2349667102,
				"z": -4.3510706245,
				"element": "F" 
			},
			{
				"x": 0.4528443639,
				"y": -3.119909761,
				"z": -3.4911949158,
				"element": "F" 
			},
			{
				"x": 2.5198872996,
				"y": -2.9012485842,
				"z": -4.0968165909,
				"element": "F" 
			},
			{
				"x": 5.2769705046,
				"y": -0.797158591,
				"z": 1.2099039126,
				"element": "H" 
			},
			{
				"x": 4.6166803828,
				"y": -2.1194112678,
				"z": 1.8908551874,
				"element": "H" 
			},
			{
				"x": 5.1742102795,
				"y": -2.7332718991,
				"z": -0.7079397095,
				"element": "H" 
			},
			{
				"x": 0.9477410116,
				"y": 0.0973845469,
				"z": 0.5401856637,
				"element": "H" 
			},
			{
				"x": -2.8640299772,
				"y": 0.0641625098,
				"z": -1.1863280655,
				"element": "H" 
			},
			{
				"x": -2.1962974026,
				"y": 1.3570860517,
				"z": -2.186252178,
				"element": "H" 
			},
			{
				"x": -3.4976686848,
				"y": 0.4865170381,
				"z": 1.1680083391,
				"element": "H" 
			},
			{
				"x": -4.0834158975,
				"y": 2.1428769825,
				"z": 2.9221112411,
				"element": "H" 
			},
			{
				"x": -2.2877361875,
				"y": 5.2630095788,
				"z": 0.5722786977,
				"element": "H" 
			},
			{
				"x": -1.7040062051,
				"y": 3.6052522202,
				"z": -1.1810532345,
				"element": "H" 
			}
		],
		 "valence_orbital": [ 
			{
				"type": "occ",
				"energy": -0.28467,
				"method": "rhf"
			},
			{
				"type": "occ",
				"energy": -0.27355,
				"method": "rhf"
			},
			{
				"type": "occ",
				"energy": -0.27006,
				"method": "rhf"
			},
			{
				"type": "occ",
				"energy": -0.25411,
				"method": "rhf"
			},
			{
				"type": "occ",
				"energy": -0.24853,
				"method": "rhf"
			},
			{
				"type": "unocc",
				"energy": -0.06411,
				"method": "rhf"
			},
			{
				"type": "unocc",
				"energy": -0.0552,
				"method": "rhf"
			},
			{
				"type": "unocc",
				"energy": -0.03028,
				"method": "rhf"
			},
			{
				"type": "unocc",
				"energy": -0.02399,
				"method": "rhf"
			},
			{
				"type": "unocc",
				"energy": 0.02207,
				"method": "rhf"
			}
		],
		"cosmo_sigma_profile": { 
			"-0.025": 0.0,
			"-0.024": 0.0,
			"-0.023": 0.0,
			"-0.022": 0.0,
			"-0.021": 0.0,
			"-0.02": 0.0,
			"-0.019": 0.0,
			"-0.018": 0.0,
			"-0.017": 0.0,
			"-0.016": 0.0,
			"-0.015": 0.535767613278,
			"-0.014": 0.84736236155,
			"-0.013": 1.01731160819,
			"-0.012": 1.81488232199,
			"-0.011": 3.39718805426,
			"-0.01": 2.92267874617,
			"-0.009": 2.89699855879,
			"-0.008": 4.18520420201,
			"-0.007": 15.2461368345,
			"-0.006": 16.1357795703,
			"-0.005": 16.9356450618,
			"-0.004": 17.1015042142,
			"-0.003": 24.416411636,
			"-0.002": 24.0927512984,
			"-0.001": 21.6368790234,
			"0.0": 22.0471569247,
			"0.001": 22.6662689486,
			"0.002": 38.6813419726,
			"0.003": 38.3269815584,
			"0.004": 22.3126324855,
			"0.005": 13.3258287738,
			"0.006": 5.73576711713,
			"0.007": 5.05664573394,
			"0.008": 3.84469602149,
			"0.009": 4.44020080546,
			"0.01": 5.06433566313,
			"0.011": 5.57707219335,
			"0.012": 2.20015114171,
			"0.013": 0.67161284713,
			"0.014": 0.781758087797,
			"0.015": 0.437363286326,
			"0.016": 0.39073392415,
			"0.017": 0.0,
			"0.018": 0.0,
			"0.019": 0.0,
			"0.02": 0.0,
			"0.021": 0.0,
			"0.022": 0.0,
			"0.023": 0.0,
			"0.024": 0.0,
			"0.025": 0.0
		}
	}
}
