{
	 "smiles": "CC(=O)OC1=CC=CC(O)=C1", 
	 "Tm": 328.15, 
	 "num_atms": 19, 
	 "gaussian": { 
		 "optdone": 1, 
		 "sigma_profile": "yes", 
		 "theory": "DFT", 
		 "functional": "B3LYP", 
		 "basiset": "6-31G**", 
		 "properties": { 
			 "R2extent": 2111.8606, 
			 "electric_dipole_moment_norm": 1.74074580855, 
			 "electric_quadrupole_moment_norm": 4.06646297905, 
			 "total_energy": -535.348804329, 
			 "HOMO_LUMO_gap": 0.20322, 
			 "cosmo_polarized_energy": -9.99, 
			 "cosmo_cavitation_energy": 23.66, 
			 "cosmo_dispersion_energy": -17.61, 
			 "cosmo_repulsion_energy": 1.43, 
			 "cosmo_total_nonelectrostatic_energy": 7.48, 
			 "SMD_solvation_energy": 5.9 
		},
		"coords": [
			{
				"x": -2.9196723942,
				"y": 0.2131714645,
				"z": 2.6978016859,
				"element": "C" 
			},
			{
				"x": -1.7537429204,
				"y": 0.7858271276,
				"z": 1.9276665973,
				"element": "C" 
			},
			{
				"x": -1.3206107757,
				"y": 1.9079501912,
				"z": 2.0527342779,
				"element": "O" 
			},
			{
				"x": -1.2717804147,
				"y": -0.1609013584,
				"z": 1.0740883728,
				"element": "O" 
			},
			{
				"x": -0.1969709784,
				"y": 0.0014022862,
				"z": 0.1993518256,
				"element": "C" 
			},
			{
				"x": 0.0808084127,
				"y": -1.1398619155,
				"z": -0.5563874181,
				"element": "C" 
			},
			{
				"x": 1.1335358025,
				"y": -1.1053411386,
				"z": -1.4692428466,
				"element": "C" 
			},
			{
				"x": 1.9040188406,
				"y": 0.0434597676,
				"z": -1.634541379,
				"element": "C" 
			},
			{
				"x": 1.6083061781,
				"y": 1.1743601553,
				"z": -0.8677347698,
				"element": "C" 
			},
			{
				"x": 2.3842819175,
				"y": 2.2817110642,
				"z": -1.0563035505,
				"element": "O" 
			},
			{
				"x": 0.5563489231,
				"y": 1.168577083,
				"z": 0.0572618079,
				"element": "C" 
			},
			{
				"x": -3.3053695479,
				"y": 0.9693800297,
				"z": 3.3805474024,
				"element": "H" 
			},
			{
				"x": -2.6018987757,
				"y": -0.6706457798,
				"z": 3.2587265134,
				"element": "H" 
			},
			{
				"x": -3.7066151244,
				"y": -0.1042061009,
				"z": 2.0073269184,
				"element": "H" 
			},
			{
				"x": -0.5266707153,
				"y": -2.0268319931,
				"z": -0.4176838701,
				"element": "H" 
			},
			{
				"x": 1.3558651266,
				"y": -1.9885906108,
				"z": -2.0605758739,
				"element": "H" 
			},
			{
				"x": 2.725668928,
				"y": 0.0836934893,
				"z": -2.3410098664,
				"element": "H" 
			},
			{
				"x": 2.0770121104,
				"y": 2.9858099239,
				"z": -0.4703580326,
				"element": "H" 
			},
			{
				"x": 0.3277854073,
				"y": 2.0430363145,
				"z": 0.6502322054,
				"element": "H" 
			}
		],
		 "valence_orbital": [ 
			{
				"type": "occ",
				"energy": -0.35048,
				"method": "rhf"
			},
			{
				"type": "occ",
				"energy": -0.31693,
				"method": "rhf"
			},
			{
				"type": "occ",
				"energy": -0.27846,
				"method": "rhf"
			},
			{
				"type": "occ",
				"energy": -0.2455,
				"method": "rhf"
			},
			{
				"type": "occ",
				"energy": -0.22009,
				"method": "rhf"
			},
			{
				"type": "unocc",
				"energy": -0.01687,
				"method": "rhf"
			},
			{
				"type": "unocc",
				"energy": 0.00741,
				"method": "rhf"
			},
			{
				"type": "unocc",
				"energy": 0.02663,
				"method": "rhf"
			},
			{
				"type": "unocc",
				"energy": 0.0733,
				"method": "rhf"
			},
			{
				"type": "unocc",
				"energy": 0.09364,
				"method": "rhf"
			}
		],
		"cosmo_sigma_profile": { 
			"-0.025": 0.0,
			"-0.024": 0.0,
			"-0.023": 0.0,
			"-0.022": 0.0,
			"-0.021": 0.0,
			"-0.02": 0.0,
			"-0.019": 0.0,
			"-0.018": 0.41308438218,
			"-0.017": 1.28781412007,
			"-0.016": 0.838214392111,
			"-0.015": 0.865819026273,
			"-0.014": 1.40623562979,
			"-0.013": 0.796447598348,
			"-0.012": 1.02680008743,
			"-0.011": 0.90859335605,
			"-0.01": 0.733595101389,
			"-0.009": 0.926247924822,
			"-0.008": 0.699643685759,
			"-0.007": 3.62435641434,
			"-0.006": 11.4896187278,
			"-0.005": 12.2764090202,
			"-0.004": 14.1749224781,
			"-0.003": 13.6752675367,
			"-0.002": 15.0780136676,
			"-0.001": 9.55948002531,
			"0.0": 9.24613388322,
			"0.001": 9.47413281442,
			"0.002": 11.9648820382,
			"0.003": 16.068909903,
			"0.004": 16.4788473644,
			"0.005": 11.7862002949,
			"0.006": 4.28780092976,
			"0.007": 2.8739291823,
			"0.008": 3.19957351169,
			"0.009": 3.25656822511,
			"0.01": 4.00446162379,
			"0.011": 4.60491222286,
			"0.012": 1.82809480889,
			"0.013": 0.0195074091248,
			"0.014": 0.0,
			"0.015": 0.0,
			"0.016": 0.0,
			"0.017": 0.0,
			"0.018": 0.0,
			"0.019": 0.0,
			"0.02": 0.0,
			"0.021": 0.0,
			"0.022": 0.0,
			"0.023": 0.0,
			"0.024": 0.0,
			"0.025": 0.0
		}
	}
}
