{
	 "smiles": "CC1(C)CCC(CC1)=CC(O)=O", 
	 "Tm": 362.15, 
	 "num_atms": 28, 
	 "gaussian": { 
		 "optdone": 1, 
		 "sigma_profile": "yes", 
		 "theory": "DFT", 
		 "functional": "B3LYP", 
		 "basiset": "6-31G**", 
		 "properties": { 
			 "R2extent": 2748.5068, 
			 "electric_dipole_moment_norm": 5.68437504832, 
			 "electric_quadrupole_moment_norm": 21.8893358013, 
			 "total_energy": -541.160316258, 
			 "HOMO_LUMO_gap": 0.21658, 
			 "cosmo_polarized_energy": -13.69, 
			 "cosmo_cavitation_energy": 28.55, 
			 "cosmo_dispersion_energy": -20.41, 
			 "cosmo_repulsion_energy": 1.62, 
			 "cosmo_total_nonelectrostatic_energy": 9.77, 
			 "SMD_solvation_energy": 5.54 
		},
		"coords": [
			{
				"x": 2.3910602157,
				"y": -0.547683693,
				"z": -0.5208598274,
				"element": "C" 
			},
			{
				"x": 1.0112035843,
				"y": -1.0645843023,
				"z": -0.980358708,
				"element": "C" 
			},
			{
				"x": 1.2053942156,
				"y": -2.3937347317,
				"z": -1.7311754511,
				"element": "C" 
			},
			{
				"x": 0.333737444,
				"y": -0.0182817908,
				"z": -1.9244887841,
				"element": "C" 
			},
			{
				"x": -0.7324341031,
				"y": 0.8654194335,
				"z": -1.2261790017,
				"element": "C" 
			},
			{
				"x": -0.3478029976,
				"y": 1.207039633,
				"z": 0.1915681015,
				"element": "C" 
			},
			{
				"x": -0.1472485997,
				"y": -0.0191806479,
				"z": 1.0719831341,
				"element": "C" 
			},
			{
				"x": 0.0954836858,
				"y": -1.3000874257,
				"z": 0.2431343243,
				"element": "C" 
			},
			{
				"x": -0.1648745786,
				"y": 2.4890092868,
				"z": 0.5647051118,
				"element": "C" 
			},
			{
				"x": 0.2932358915,
				"y": 3.0329388544,
				"z": 1.8703419918,
				"element": "C" 
			},
			{
				"x": 0.0607096291,
				"y": 2.296438399,
				"z": 2.9971482972,
				"element": "O" 
			},
			{
				"x": 0.8586813063,
				"y": 4.0982469332,
				"z": 1.9621670185,
				"element": "O" 
			},
			{
				"x": 2.8510698136,
				"y": -1.2359784617,
				"z": 0.197777257,
				"element": "H" 
			},
			{
				"x": 3.0690949913,
				"y": -0.4582595788,
				"z": -1.3767298233,
				"element": "H" 
			},
			{
				"x": 2.3288794525,
				"y": 0.4390324359,
				"z": -0.0520907556,
				"element": "H" 
			},
			{
				"x": 0.2434786686,
				"y": -2.8243491883,
				"z": -2.0323596684,
				"element": "H" 
			},
			{
				"x": 1.7229186899,
				"y": -3.1307703298,
				"z": -1.1065358873,
				"element": "H" 
			},
			{
				"x": 1.803755423,
				"y": -2.2474225654,
				"z": -2.6374808426,
				"element": "H" 
			},
			{
				"x": 1.1056187138,
				"y": 0.6271980027,
				"z": -2.3581869893,
				"element": "H" 
			},
			{
				"x": -0.1480186607,
				"y": -0.5304656678,
				"z": -2.7652043431,
				"element": "H" 
			},
			{
				"x": -0.9172984613,
				"y": 1.7720552607,
				"z": -1.8093623432,
				"element": "H" 
			},
			{
				"x": -1.6822078865,
				"y": 0.3122247173,
				"z": -1.1957522709,
				"element": "H" 
			},
			{
				"x": 0.6848194845,
				"y": 0.1456685478,
				"z": 1.7630930573,
				"element": "H" 
			},
			{
				"x": -1.0429097821,
				"y": -0.1831855248,
				"z": 1.6928337909,
				"element": "H" 
			},
			{
				"x": 0.5274777114,
				"y": -2.0703664864,
				"z": 0.8925008523,
				"element": "H" 
			},
			{
				"x": -0.864223448,
				"y": -1.7003714902,
				"z": -0.107384112,
				"element": "H" 
			},
			{
				"x": -0.2749916436,
				"y": 3.2712942596,
				"z": -0.1812260359,
				"element": "H" 
			},
			{
				"x": -0.5269087597,
				"y": 1.5572561209,
				"z": 2.793221907,
				"element": "H" 
			}
		],
		 "valence_orbital": [ 
			{
				"type": "occ",
				"energy": -0.32005,
				"method": "rhf"
			},
			{
				"type": "occ",
				"energy": -0.31282,
				"method": "rhf"
			},
			{
				"type": "occ",
				"energy": -0.30587,
				"method": "rhf"
			},
			{
				"type": "occ",
				"energy": -0.26799,
				"method": "rhf"
			},
			{
				"type": "occ",
				"energy": -0.2557,
				"method": "rhf"
			},
			{
				"type": "unocc",
				"energy": -0.03912,
				"method": "rhf"
			},
			{
				"type": "unocc",
				"energy": 0.05311,
				"method": "rhf"
			},
			{
				"type": "unocc",
				"energy": 0.07123,
				"method": "rhf"
			},
			{
				"type": "unocc",
				"energy": 0.08617,
				"method": "rhf"
			},
			{
				"type": "unocc",
				"energy": 0.102,
				"method": "rhf"
			}
		],
		"cosmo_sigma_profile": { 
			"-0.025": 0.0,
			"-0.024": 0.0,
			"-0.023": 0.0,
			"-0.022": 0.0,
			"-0.021": 0.0,
			"-0.02": 0.0,
			"-0.019": 0.0,
			"-0.018": 0.0,
			"-0.017": 0.0,
			"-0.016": 0.706462821496,
			"-0.015": 0.789982137448,
			"-0.014": 1.29269489057,
			"-0.013": 1.01122104519,
			"-0.012": 0.496840994531,
			"-0.011": 1.12199828941,
			"-0.01": 1.33914707207,
			"-0.009": 0.702767081945,
			"-0.008": 1.16520199187,
			"-0.007": 1.37460213497,
			"-0.006": 2.77847523472,
			"-0.005": 7.09096421271,
			"-0.004": 13.9820026602,
			"-0.003": 21.1729198207,
			"-0.002": 40.2254819065,
			"-0.001": 30.827374938,
			"0.0": 25.1143783928,
			"0.001": 20.6424492318,
			"0.002": 10.4237595705,
			"0.003": 3.8472963342,
			"0.004": 2.27552304507,
			"0.005": 2.49087908293,
			"0.006": 2.14519005073,
			"0.007": 2.20905683227,
			"0.008": 1.96630281674,
			"0.009": 2.86510857459,
			"0.01": 4.0191104383,
			"0.011": 4.89348807095,
			"0.012": 5.70013379103,
			"0.013": 5.20552784466,
			"0.014": 1.24937875015,
			"0.015": 0.0,
			"0.016": 0.0,
			"0.017": 0.0,
			"0.018": 0.0,
			"0.019": 0.0,
			"0.02": 0.0,
			"0.021": 0.0,
			"0.022": 0.0,
			"0.023": 0.0,
			"0.024": 0.0,
			"0.025": 0.0
		}
	}
}
