{
	 "smiles": "OC(=O)C1=C(C=CN=C1)C#N", 
	 "Tm": 449.15, 
	 "num_atms": 15, 
	 "gaussian": { 
		 "optdone": 1, 
		 "sigma_profile": "yes", 
		 "theory": "DFT", 
		 "functional": "B3LYP", 
		 "basiset": "6-31G**", 
		 "properties": { 
			 "R2extent": 1874.4504, 
			 "electric_dipole_moment_norm": 4.35789814131, 
			 "electric_quadrupole_moment_norm": 7.70169789008, 
			 "total_energy": -529.079476989, 
			 "HOMO_LUMO_gap": 0.1793, 
			 "cosmo_polarized_energy": -14.33, 
			 "cosmo_cavitation_energy": 21.06, 
			 "cosmo_dispersion_energy": -15.25, 
			 "cosmo_repulsion_energy": 1.2, 
			 "cosmo_total_nonelectrostatic_energy": 7.01, 
			 "SMD_solvation_energy": 4.65 
		},
		"coords": [
			{
				"x": 2.8019523685,
				"y": 1.0734871579,
				"z": 0.6585300093,
				"element": "O" 
			},
			{
				"x": 2.0473003317,
				"y": 0.403805529,
				"z": -0.2301449617,
				"element": "C" 
			},
			{
				"x": 2.5622066418,
				"y": -0.3960771745,
				"z": -0.9770339272,
				"element": "O" 
			},
			{
				"x": 0.5541322132,
				"y": 0.6536573659,
				"z": -0.2925914636,
				"element": "C" 
			},
			{
				"x": -0.2102293141,
				"y": 1.5394618648,
				"z": 0.4968547752,
				"element": "C" 
			},
			{
				"x": -1.5938947844,
				"y": 1.6268436738,
				"z": 0.2850346985,
				"element": "C" 
			},
			{
				"x": -2.1656967996,
				"y": 0.8308150647,
				"z": -0.7033108894,
				"element": "C" 
			},
			{
				"x": -1.4634384594,
				"y": -0.0165287018,
				"z": -1.4654273581,
				"element": "N" 
			},
			{
				"x": -0.1476749543,
				"y": -0.0915905998,
				"z": -1.2550680475,
				"element": "C" 
			},
			{
				"x": 0.3698886987,
				"y": 2.3647184746,
				"z": 1.5176152811,
				"element": "C" 
			},
			{
				"x": 0.8452299687,
				"y": 3.0329708508,
				"z": 2.3440619544,
				"element": "N" 
			},
			{
				"x": 2.308785135,
				"y": 1.6965019587,
				"z": 1.2153610258,
				"element": "H" 
			},
			{
				"x": -2.1985386702,
				"y": 2.3010345186,
				"z": 0.8808858634,
				"element": "H" 
			},
			{
				"x": -3.2362620007,
				"y": 0.8772093196,
				"z": -0.889721789,
				"element": "H" 
			},
			{
				"x": 0.4177396252,
				"y": -0.7801093023,
				"z": -1.8753451713,
				"element": "H" 
			}
		],
		 "valence_orbital": [ 
			{
				"type": "occ",
				"energy": -0.33598,
				"method": "rhf"
			},
			{
				"type": "occ",
				"energy": -0.32284,
				"method": "rhf"
			},
			{
				"type": "occ",
				"energy": -0.30369,
				"method": "rhf"
			},
			{
				"type": "occ",
				"energy": -0.30258,
				"method": "rhf"
			},
			{
				"type": "occ",
				"energy": -0.28705,
				"method": "rhf"
			},
			{
				"type": "unocc",
				"energy": -0.10775,
				"method": "rhf"
			},
			{
				"type": "unocc",
				"energy": -0.07133,
				"method": "rhf"
			},
			{
				"type": "unocc",
				"energy": -0.01541,
				"method": "rhf"
			},
			{
				"type": "unocc",
				"energy": 0.02113,
				"method": "rhf"
			},
			{
				"type": "unocc",
				"energy": 0.03904,
				"method": "rhf"
			}
		],
		"cosmo_sigma_profile": { 
			"-0.025": 0.0,
			"-0.024": 0.0,
			"-0.023": 0.0,
			"-0.022": 0.0,
			"-0.021": 0.0,
			"-0.02": 0.0,
			"-0.019": 0.0,
			"-0.018": 0.0,
			"-0.017": 0.0,
			"-0.016": 0.0,
			"-0.015": 0.0,
			"-0.014": 0.00233392635304,
			"-0.013": 0.460825066173,
			"-0.012": 0.914397090795,
			"-0.011": 1.53329584856,
			"-0.01": 4.99477637791,
			"-0.009": 7.26614204243,
			"-0.008": 7.03658473903,
			"-0.007": 7.19872330483,
			"-0.006": 7.64053543437,
			"-0.005": 9.82368408202,
			"-0.004": 12.2613903743,
			"-0.003": 14.6762217459,
			"-0.002": 12.6967770818,
			"-0.001": 8.80227668189,
			"0.0": 5.47099827164,
			"0.001": 5.5382978373,
			"0.002": 6.58034419235,
			"0.003": 4.07913567663,
			"0.004": 5.87987668462,
			"0.005": 5.85993593514,
			"0.006": 4.62649906162,
			"0.007": 6.85395535749,
			"0.008": 6.08586730101,
			"0.009": 7.30611214453,
			"0.01": 7.7629808629,
			"0.011": 5.79092664073,
			"0.012": 2.68589248647,
			"0.013": 1.02023170422,
			"0.014": 0.787708904464,
			"0.015": 0.151444539537,
			"0.016": 0.0,
			"0.017": 0.0,
			"0.018": 0.0,
			"0.019": 0.0,
			"0.02": 0.0,
			"0.021": 0.0,
			"0.022": 0.0,
			"0.023": 0.0,
			"0.024": 0.0,
			"0.025": 0.0
		}
	}
}
