{
	 "smiles": "CC1COCCN1C1=CC=C(N)C=C1", 
	 "Tm": 363.15, 
	 "num_atms": 30, 
	 "gaussian": { 
		 "optdone": 1, 
		 "sigma_profile": "yes", 
		 "theory": "DFT", 
		 "functional": "B3LYP", 
		 "basiset": "6-31G**", 
		 "properties": { 
			 "R2extent": 3250.9446, 
			 "electric_dipole_moment_norm": 2.72978869878, 
			 "electric_quadrupole_moment_norm": 6.66204842897, 
			 "total_energy": -613.51754287, 
			 "HOMO_LUMO_gap": 0.18245, 
			 "cosmo_polarized_energy": -11.12, 
			 "cosmo_cavitation_energy": 30.65, 
			 "cosmo_dispersion_energy": -22.43, 
			 "cosmo_repulsion_energy": 1.77, 
			 "cosmo_total_nonelectrostatic_energy": 9.99, 
			 "SMD_solvation_energy": 3.87 
		},
		"coords": [
			{
				"x": 1.2603882407,
				"y": 1.2812506516,
				"z": -1.6101734486,
				"element": "C" 
			},
			{
				"x": -0.1390597226,
				"y": 1.4173732258,
				"z": -1.0136746944,
				"element": "C" 
			},
			{
				"x": -1.2339345808,
				"y": 0.8303851085,
				"z": -1.9239846392,
				"element": "C" 
			},
			{
				"x": -2.5303988005,
				"y": 1.0161247172,
				"z": -1.367305014,
				"element": "O" 
			},
			{
				"x": -2.6365788092,
				"y": 0.4522314022,
				"z": -0.0629235223,
				"element": "C" 
			},
			{
				"x": -1.6085994853,
				"y": 1.0812280596,
				"z": 0.8801910603,
				"element": "C" 
			},
			{
				"x": -0.2393314591,
				"y": 0.9230787208,
				"z": 0.3717127898,
				"element": "N" 
			},
			{
				"x": 0.464389483,
				"y": -0.2408492253,
				"z": 0.8157432361,
				"element": "C" 
			},
			{
				"x": 1.0686654267,
				"y": -0.1897158376,
				"z": 2.083442409,
				"element": "C" 
			},
			{
				"x": 1.7500814571,
				"y": -1.2781506836,
				"z": 2.6161145473,
				"element": "C" 
			},
			{
				"x": 1.8851516388,
				"y": -2.4686010075,
				"z": 1.8811520988,
				"element": "C" 
			},
			{
				"x": 2.5350263745,
				"y": -3.5813547402,
				"z": 2.4275229276,
				"element": "N" 
			},
			{
				"x": 1.2978774479,
				"y": -2.5260238819,
				"z": 0.6083250629,
				"element": "C" 
			},
			{
				"x": 0.5875377109,
				"y": -1.4408391898,
				"z": 0.0959578578,
				"element": "C" 
			},
			{
				"x": 1.3145281654,
				"y": 1.8318960429,
				"z": -2.5548675578,
				"element": "H" 
			},
			{
				"x": 1.532968286,
				"y": 0.241440206,
				"z": -1.8079297528,
				"element": "H" 
			},
			{
				"x": 2.0054129822,
				"y": 1.6987532506,
				"z": -0.9271237664,
				"element": "H" 
			},
			{
				"x": -0.3670221887,
				"y": 2.492987797,
				"z": -0.9437210404,
				"element": "H" 
			},
			{
				"x": -1.2427447893,
				"y": 1.3467318753,
				"z": -2.8901924629,
				"element": "H" 
			},
			{
				"x": -1.0509470762,
				"y": -0.2406190083,
				"z": -2.1148680408,
				"element": "H" 
			},
			{
				"x": -2.4902806895,
				"y": -0.6402872074,
				"z": -0.1046263349,
				"element": "H" 
			},
			{
				"x": -3.659583329,
				"y": 0.6501716694,
				"z": 0.2740902756,
				"element": "H" 
			},
			{
				"x": -1.83024396,
				"y": 2.1545672941,
				"z": 0.9689453555,
				"element": "H" 
			},
			{
				"x": -1.6759076544,
				"y": 0.637648972,
				"z": 1.8777664732,
				"element": "H" 
			},
			{
				"x": 1.0017037324,
				"y": 0.7359455712,
				"z": 2.6478820995,
				"element": "H" 
			},
			{
				"x": 2.198921727,
				"y": -1.2040447039,
				"z": 3.6040939864,
				"element": "H" 
			},
			{
				"x": 3.2188297996,
				"y": -3.3633109803,
				"z": 3.1397696837,
				"element": "H" 
			},
			{
				"x": 2.9065465119,
				"y": -4.2303709417,
				"z": 1.7470691072,
				"element": "H" 
			},
			{
				"x": 1.3789130763,
				"y": -3.438491976,
				"z": 0.0218946136,
				"element": "H" 
			},
			{
				"x": 0.1250904841,
				"y": -1.5396551807,
				"z": -0.8798833099,
				"element": "H" 
			}
		],
		 "valence_orbital": [ 
			{
				"type": "occ",
				"energy": -0.30042,
				"method": "rhf"
			},
			{
				"type": "occ",
				"energy": -0.25969,
				"method": "rhf"
			},
			{
				"type": "occ",
				"energy": -0.24331,
				"method": "rhf"
			},
			{
				"type": "occ",
				"energy": -0.21368,
				"method": "rhf"
			},
			{
				"type": "occ",
				"energy": -0.17857,
				"method": "rhf"
			},
			{
				"type": "unocc",
				"energy": 0.00388,
				"method": "rhf"
			},
			{
				"type": "unocc",
				"energy": 0.02034,
				"method": "rhf"
			},
			{
				"type": "unocc",
				"energy": 0.08185,
				"method": "rhf"
			},
			{
				"type": "unocc",
				"energy": 0.09026,
				"method": "rhf"
			},
			{
				"type": "unocc",
				"energy": 0.10413,
				"method": "rhf"
			}
		],
		"cosmo_sigma_profile": { 
			"-0.025": 0.0,
			"-0.024": 0.0,
			"-0.023": 0.0,
			"-0.022": 0.0,
			"-0.021": 0.0,
			"-0.02": 0.0,
			"-0.019": 0.0,
			"-0.018": 0.0,
			"-0.017": 0.0,
			"-0.016": 0.0,
			"-0.015": 0.0,
			"-0.014": 0.0,
			"-0.013": 0.0149480729657,
			"-0.012": 1.70131998768,
			"-0.011": 2.77027414248,
			"-0.01": 3.12911011841,
			"-0.009": 2.78309095075,
			"-0.008": 2.91415433248,
			"-0.007": 2.61883364693,
			"-0.006": 4.93717248683,
			"-0.005": 11.5357291207,
			"-0.004": 18.9105064562,
			"-0.003": 29.3607615668,
			"-0.002": 27.0322865118,
			"-0.001": 22.5101673242,
			"0.0": 19.8489573628,
			"0.001": 14.5348642523,
			"0.002": 8.81791702199,
			"0.003": 8.25633369771,
			"0.004": 9.44459199438,
			"0.005": 9.52667460716,
			"0.006": 9.85456081598,
			"0.007": 10.5534756291,
			"0.008": 3.14345510516,
			"0.009": 3.33038189139,
			"0.01": 2.29246247669,
			"0.011": 1.99693943169,
			"0.012": 2.34900605203,
			"0.013": 2.84096044068,
			"0.014": 1.77742701247,
			"0.015": 0.473155356213,
			"0.016": 0.100811147037,
			"0.017": 0.0,
			"0.018": 0.0,
			"0.019": 0.0,
			"0.02": 0.0,
			"0.021": 0.0,
			"0.022": 0.0,
			"0.023": 0.0,
			"0.024": 0.0,
			"0.025": 0.0
		}
	}
}
