{
	 "smiles": "CN1C2=C(C=CC=C2)C2=C1C=CC=C2", 
	 "Tm": 363.35, 
	 "num_atms": 25, 
	 "gaussian": { 
		 "optdone": 1, 
		 "sigma_profile": "yes", 
		 "theory": "DFT", 
		 "functional": "B3LYP", 
		 "basiset": "6-31G**", 
		 "properties": { 
			 "R2extent": 3218.9383, 
			 "electric_dipole_moment_norm": 1.86654775722, 
			 "electric_quadrupole_moment_norm": 10.0520800882, 
			 "total_energy": -556.787126853, 
			 "HOMO_LUMO_gap": 0.17209, 
			 "cosmo_polarized_energy": -7.1, 
			 "cosmo_cavitation_energy": 27.86, 
			 "cosmo_dispersion_energy": -20.71, 
			 "cosmo_repulsion_energy": 1.57, 
			 "cosmo_total_nonelectrostatic_energy": 8.72, 
			 "SMD_solvation_energy": 4.2 
		},
		"coords": [
			{
				"x": -2.2413522417,
				"y": -1.9894721041,
				"z": -1.2264003088,
				"element": "C" 
			},
			{
				"x": -1.011632658,
				"y": -1.6593148297,
				"z": -0.5388294534,
				"element": "N" 
			},
			{
				"x": -0.3020461553,
				"y": -2.469039634,
				"z": 0.3432939171,
				"element": "C" 
			},
			{
				"x": 0.8476453323,
				"y": -1.7629019899,
				"z": 0.7933979194,
				"element": "C" 
			},
			{
				"x": 1.7249589878,
				"y": -2.3753090409,
				"z": 1.6956317526,
				"element": "C" 
			},
			{
				"x": 1.4545941454,
				"y": -3.6678247215,
				"z": 2.13650226,
				"element": "C" 
			},
			{
				"x": 0.3143647605,
				"y": -4.3526951443,
				"z": 1.6825550829,
				"element": "C" 
			},
			{
				"x": -0.5761476383,
				"y": -3.7675316561,
				"z": 0.7844417195,
				"element": "C" 
			},
			{
				"x": 0.8199806676,
				"y": -0.4679449179,
				"z": 0.1459916892,
				"element": "C" 
			},
			{
				"x": -0.3447937965,
				"y": -0.4479999981,
				"z": -0.6667535108,
				"element": "C" 
			},
			{
				"x": -0.6831229262,
				"y": 0.6662127186,
				"z": -1.4404945849,
				"element": "C" 
			},
			{
				"x": 0.1662126628,
				"y": 1.7705229163,
				"z": -1.3905997679,
				"element": "C" 
			},
			{
				"x": 1.322921858,
				"y": 1.7683514743,
				"z": -0.5920611677,
				"element": "C" 
			},
			{
				"x": 1.6544537144,
				"y": 0.6548722652,
				"z": 0.1766370878,
				"element": "C" 
			},
			{
				"x": -3.0440247515,
				"y": -1.2946996715,
				"z": -0.9524325453,
				"element": "H" 
			},
			{
				"x": -2.5533335902,
				"y": -2.997440876,
				"z": -0.9530698047,
				"element": "H" 
			},
			{
				"x": -2.1056721568,
				"y": -1.9542882119,
				"z": -2.3137771599,
				"element": "H" 
			},
			{
				"x": 2.6067461823,
				"y": -1.846720179,
				"z": 2.0472117188,
				"element": "H" 
			},
			{
				"x": 2.1281152008,
				"y": -4.1529350317,
				"z": 2.8364364382,
				"element": "H" 
			},
			{
				"x": 0.1199664947,
				"y": -5.3606904518,
				"z": 2.0377123459,
				"element": "H" 
			},
			{
				"x": -1.4512404472,
				"y": -4.3133407157,
				"z": 0.4458911056,
				"element": "H" 
			},
			{
				"x": -1.5743048956,
				"y": 0.6772559419,
				"z": -2.0602289308,
				"element": "H" 
			},
			{
				"x": -0.0727672225,
				"y": 2.6498563471,
				"z": -1.9819036048,
				"element": "H" 
			},
			{
				"x": 1.9632351411,
				"y": 2.6451413758,
				"z": -0.5759115831,
				"element": "H" 
			},
			{
				"x": 2.5497433323,
				"y": 0.658236135,
				"z": 0.7922593853,
				"element": "H" 
			}
		],
		 "valence_orbital": [ 
			{
				"type": "occ",
				"energy": -0.31216,
				"method": "rhf"
			},
			{
				"type": "occ",
				"energy": -0.27391,
				"method": "rhf"
			},
			{
				"type": "occ",
				"energy": -0.24757,
				"method": "rhf"
			},
			{
				"type": "occ",
				"energy": -0.20845,
				"method": "rhf"
			},
			{
				"type": "occ",
				"energy": -0.19557,
				"method": "rhf"
			},
			{
				"type": "unocc",
				"energy": -0.02348,
				"method": "rhf"
			},
			{
				"type": "unocc",
				"energy": 0.0101,
				"method": "rhf"
			},
			{
				"type": "unocc",
				"energy": 0.0326,
				"method": "rhf"
			},
			{
				"type": "unocc",
				"energy": 0.04743,
				"method": "rhf"
			},
			{
				"type": "unocc",
				"energy": 0.08459,
				"method": "rhf"
			}
		],
		"cosmo_sigma_profile": { 
			"-0.025": 0.0,
			"-0.024": 0.0,
			"-0.023": 0.0,
			"-0.022": 0.0,
			"-0.021": 0.0,
			"-0.02": 0.0,
			"-0.019": 0.0,
			"-0.018": 0.0,
			"-0.017": 0.0,
			"-0.016": 0.0,
			"-0.015": 0.0,
			"-0.014": 0.0,
			"-0.013": 0.0,
			"-0.012": 0.0,
			"-0.011": 0.0,
			"-0.01": 0.0,
			"-0.009": 0.0112598244196,
			"-0.008": 1.12546280255,
			"-0.007": 2.57485150748,
			"-0.006": 6.84204922976,
			"-0.005": 22.5858918161,
			"-0.004": 24.477734052,
			"-0.003": 24.5570410997,
			"-0.002": 18.7765157671,
			"-0.001": 12.4933792995,
			"0.0": 10.8795448665,
			"0.001": 10.0926639199,
			"0.002": 12.6973108952,
			"0.003": 15.7904968065,
			"0.004": 16.4486230237,
			"0.005": 18.9733401289,
			"0.006": 17.9089187994,
			"0.007": 7.05889518726,
			"0.008": 0.0,
			"0.009": 0.0,
			"0.01": 0.0,
			"0.011": 0.0,
			"0.012": 0.0,
			"0.013": 0.0,
			"0.014": 0.0,
			"0.015": 0.0,
			"0.016": 0.0,
			"0.017": 0.0,
			"0.018": 0.0,
			"0.019": 0.0,
			"0.02": 0.0,
			"0.021": 0.0,
			"0.022": 0.0,
			"0.023": 0.0,
			"0.024": 0.0,
			"0.025": 0.0
		}
	}
}
