{
	 "smiles": "NS(=O)(=O)CCCCl", 
	 "Tm": 337.15, 
	 "num_atms": 16, 
	 "gaussian": { 
		 "optdone": 1, 
		 "sigma_profile": "yes", 
		 "theory": "DFT", 
		 "functional": "B3LYP", 
		 "basiset": "6-31G**", 
		 "properties": { 
			 "R2extent": 2555.4123, 
			 "electric_dipole_moment_norm": 2.69387855331, 
			 "electric_quadrupole_moment_norm": 18.1684428884, 
			 "total_energy": -1182.66461105, 
			 "HOMO_LUMO_gap": 0.30425, 
			 "cosmo_polarized_energy": -17.3, 
			 "cosmo_cavitation_energy": 22.59, 
			 "cosmo_dispersion_energy": -17.42, 
			 "cosmo_repulsion_energy": 1.44, 
			 "cosmo_total_nonelectrostatic_energy": 6.61, 
			 "SMD_solvation_energy": 2.95 
		},
		"coords": [
			{
				"x": -1.0429923915,
				"y": -2.1752216147,
				"z": 1.5699672565,
				"element": "N" 
			},
			{
				"x": -1.8544460618,
				"y": -0.866892075,
				"z": 0.8554967353,
				"element": "S" 
			},
			{
				"x": -2.8861175468,
				"y": -1.4200256866,
				"z": -0.0269371533,
				"element": "O" 
			},
			{
				"x": -2.1693381275,
				"y": 0.0994322978,
				"z": 1.9111343067,
				"element": "O" 
			},
			{
				"x": -0.5625673786,
				"y": -0.1292569152,
				"z": -0.177616771,
				"element": "C" 
			},
			{
				"x": -0.078271901,
				"y": -1.0580929026,
				"z": -1.2926417835,
				"element": "C" 
			},
			{
				"x": 0.9710708124,
				"y": -0.3570077852,
				"z": -2.1499195401,
				"element": "C" 
			},
			{
				"x": 1.5736180291,
				"y": -1.4459358752,
				"z": -3.4697040193,
				"element": "Cl" 
			},
			{
				"x": -1.0076085267,
				"y": -2.0373488533,
				"z": 2.5769184131,
				"element": "H" 
			},
			{
				"x": -1.5306035748,
				"y": -3.0364895257,
				"z": 1.3367234844,
				"element": "H" 
			},
			{
				"x": 0.2381316093,
				"y": 0.1619277372,
				"z": 0.508047063,
				"element": "H" 
			},
			{
				"x": -1.0275214988,
				"y": 0.7810218873,
				"z": -0.5703772192,
				"element": "H" 
			},
			{
				"x": 0.3517773716,
				"y": -1.9637910371,
				"z": -0.8550196692,
				"element": "H" 
			},
			{
				"x": -0.9265912122,
				"y": -1.3572912843,
				"z": -1.9142265839,
				"element": "H" 
			},
			{
				"x": 0.567076135,
				"y": 0.5293824492,
				"z": -2.6430385841,
				"element": "H" 
			},
			{
				"x": 1.8475842622,
				"y": -0.0686108165,
				"z": -1.5662059352,
				"element": "H" 
			}
		],
		 "valence_orbital": [ 
			{
				"type": "occ",
				"energy": -0.32351,
				"method": "rhf"
			},
			{
				"type": "occ",
				"energy": -0.3125,
				"method": "rhf"
			},
			{
				"type": "occ",
				"energy": -0.30563,
				"method": "rhf"
			},
			{
				"type": "occ",
				"energy": -0.30247,
				"method": "rhf"
			},
			{
				"type": "occ",
				"energy": -0.2966,
				"method": "rhf"
			},
			{
				"type": "unocc",
				"energy": 0.00765,
				"method": "rhf"
			},
			{
				"type": "unocc",
				"energy": 0.04965,
				"method": "rhf"
			},
			{
				"type": "unocc",
				"energy": 0.07122,
				"method": "rhf"
			},
			{
				"type": "unocc",
				"energy": 0.07835,
				"method": "rhf"
			},
			{
				"type": "unocc",
				"energy": 0.08477,
				"method": "rhf"
			}
		],
		"cosmo_sigma_profile": { 
			"-0.025": 0.0,
			"-0.024": 0.0,
			"-0.023": 0.0,
			"-0.022": 0.0,
			"-0.021": 0.0,
			"-0.02": 0.0,
			"-0.019": 0.0,
			"-0.018": 0.0,
			"-0.017": 0.0,
			"-0.016": 0.0,
			"-0.015": 0.805896667867,
			"-0.014": 2.25981754638,
			"-0.013": 2.56314827961,
			"-0.012": 2.97566897168,
			"-0.011": 2.20582540153,
			"-0.01": 2.0179601179,
			"-0.009": 3.41959373989,
			"-0.008": 11.112544097,
			"-0.007": 11.2364913647,
			"-0.006": 9.29758269965,
			"-0.005": 10.8460965398,
			"-0.004": 9.40650025863,
			"-0.003": 7.89478512021,
			"-0.002": 7.41189699149,
			"-0.001": 5.54496103425,
			"0.0": 6.12251374405,
			"0.001": 5.97900043656,
			"0.002": 6.59880753172,
			"0.003": 7.27480227365,
			"0.004": 7.48426103725,
			"0.005": 6.78513874713,
			"0.006": 13.3113114215,
			"0.007": 6.18265129756,
			"0.008": 4.01068682353,
			"0.009": 3.31329896006,
			"0.01": 6.31687990944,
			"0.011": 11.2586794478,
			"0.012": 5.7616677345,
			"0.013": 0.00579231472672,
			"0.014": 0.0,
			"0.015": 0.0,
			"0.016": 0.0,
			"0.017": 0.0,
			"0.018": 0.0,
			"0.019": 0.0,
			"0.02": 0.0,
			"0.021": 0.0,
			"0.022": 0.0,
			"0.023": 0.0,
			"0.024": 0.0,
			"0.025": 0.0
		}
	}
}
