{
	 "smiles": "CCC1=CC=C(O1)C(=O)C1=CC=C(N)C=C1", 
	 "Tm": 398.15, 
	 "num_atms": 29, 
	 "gaussian": { 
		 "optdone": 1, 
		 "sigma_profile": "yes", 
		 "theory": "DFT", 
		 "functional": "B3LYP", 
		 "basiset": "6-31G**", 
		 "properties": { 
			 "R2extent": 5879.1257, 
			 "electric_dipole_moment_norm": 4.33174429647, 
			 "electric_quadrupole_moment_norm": 26.9417554983, 
			 "total_energy": -708.41397484, 
			 "HOMO_LUMO_gap": 0.15519, 
			 "cosmo_polarized_energy": -15.41, 
			 "cosmo_cavitation_energy": 33.48, 
			 "cosmo_dispersion_energy": -23.88, 
			 "cosmo_repulsion_energy": 1.87, 
			 "cosmo_total_nonelectrostatic_energy": 11.47, 
			 "SMD_solvation_energy": 6.5 
		},
		"coords": [
			{
				"x": -2.4564368457,
				"y": -1.9897466921,
				"z": -0.9957074506,
				"element": "C" 
			},
			{
				"x": -1.2267459736,
				"y": -2.8532332333,
				"z": -0.6595175182,
				"element": "C" 
			},
			{
				"x": -0.1662299374,
				"y": -2.1149517591,
				"z": 0.0869906057,
				"element": "C" 
			},
			{
				"x": 0.3591634997,
				"y": -2.2365776683,
				"z": 1.3464772683,
				"element": "C" 
			},
			{
				"x": 1.3381829574,
				"y": -1.2132152351,
				"z": 1.4819739065,
				"element": "C" 
			},
			{
				"x": 1.3601196036,
				"y": -0.5234780412,
				"z": 0.2964350801,
				"element": "C" 
			},
			{
				"x": 0.434095522,
				"y": -1.0762725397,
				"z": -0.5614148772,
				"element": "O" 
			},
			{
				"x": 2.1918875634,
				"y": 0.643019388,
				"z": -0.057614363,
				"element": "C" 
			},
			{
				"x": 2.8999974852,
				"y": 1.105067419,
				"z": 0.8417215906,
				"element": "O" 
			},
			{
				"x": 2.1929092986,
				"y": 1.2589028859,
				"z": -1.4131045561,
				"element": "C" 
			},
			{
				"x": 2.881728242,
				"y": 2.4800019928,
				"z": -1.5487502958,
				"element": "C" 
			},
			{
				"x": 2.9663379738,
				"y": 3.1339118925,
				"z": -2.7654019012,
				"element": "C" 
			},
			{
				"x": 2.3670153772,
				"y": 2.5810377391,
				"z": -3.9155500708,
				"element": "C" 
			},
			{
				"x": 2.407374323,
				"y": 3.2526959518,
				"z": -5.1269215546,
				"element": "N" 
			},
			{
				"x": 1.6858579334,
				"y": 1.3558792412,
				"z": -3.7913669136,
				"element": "C" 
			},
			{
				"x": 1.5989061265,
				"y": 0.7107241554,
				"z": -2.5644861148,
				"element": "C" 
			},
			{
				"x": -2.9342026703,
				"y": -1.6179307485,
				"z": -0.0842754158,
				"element": "H" 
			},
			{
				"x": -2.1714347273,
				"y": -1.1258635034,
				"z": -1.6026541248,
				"element": "H" 
			},
			{
				"x": -3.193903717,
				"y": -2.5726346794,
				"z": -1.5560277469,
				"element": "H" 
			},
			{
				"x": -0.8013984018,
				"y": -3.2569789074,
				"z": -1.5880606123,
				"element": "H" 
			},
			{
				"x": -1.5246620218,
				"y": -3.7139641281,
				"z": -0.0518834618,
				"element": "H" 
			},
			{
				"x": 0.0715048535,
				"y": -2.9726018629,
				"z": 2.0837919806,
				"element": "H" 
			},
			{
				"x": 1.9615490287,
				"y": -0.9892954339,
				"z": 2.3342209824,
				"element": "H" 
			},
			{
				"x": 3.3519387661,
				"y": 2.8959317006,
				"z": -0.6641887986,
				"element": "H" 
			},
			{
				"x": 3.4956903534,
				"y": 4.0807843817,
				"z": -2.840877029,
				"element": "H" 
			},
			{
				"x": 3.1421389564,
				"y": 3.9360388628,
				"z": -5.2388456546,
				"element": "H" 
			},
			{
				"x": 2.2467518558,
				"y": 2.6992195631,
				"z": -5.9558379589,
				"element": "H" 
			},
			{
				"x": 1.2220516257,
				"y": 0.9120514256,
				"z": -4.6690526798,
				"element": "H" 
			},
			{
				"x": 1.0714129493,
				"y": -0.2320221671,
				"z": -2.5082723158,
				"element": "H" 
			}
		],
		 "valence_orbital": [ 
			{
				"type": "occ",
				"energy": -0.27877,
				"method": "rhf"
			},
			{
				"type": "occ",
				"energy": -0.24922,
				"method": "rhf"
			},
			{
				"type": "occ",
				"energy": -0.23766,
				"method": "rhf"
			},
			{
				"type": "occ",
				"energy": -0.22066,
				"method": "rhf"
			},
			{
				"type": "occ",
				"energy": -0.20621,
				"method": "rhf"
			},
			{
				"type": "unocc",
				"energy": -0.05102,
				"method": "rhf"
			},
			{
				"type": "unocc",
				"energy": 0.00341,
				"method": "rhf"
			},
			{
				"type": "unocc",
				"energy": 0.01392,
				"method": "rhf"
			},
			{
				"type": "unocc",
				"energy": 0.0566,
				"method": "rhf"
			},
			{
				"type": "unocc",
				"energy": 0.07532,
				"method": "rhf"
			}
		],
		"cosmo_sigma_profile": { 
			"-0.025": 0.0,
			"-0.024": 0.0,
			"-0.023": 0.0,
			"-0.022": 0.0,
			"-0.021": 0.0,
			"-0.02": 0.0,
			"-0.019": 0.0,
			"-0.018": 0.0,
			"-0.017": 0.0,
			"-0.016": 0.0,
			"-0.015": 0.0,
			"-0.014": 0.106762354627,
			"-0.013": 2.26388249635,
			"-0.012": 2.78844217247,
			"-0.011": 2.9668511958,
			"-0.01": 3.53078564618,
			"-0.009": 2.758335632,
			"-0.008": 2.88278999947,
			"-0.007": 6.2445296629,
			"-0.006": 7.1907737751,
			"-0.005": 13.2502319293,
			"-0.004": 17.0797732599,
			"-0.003": 19.6365071565,
			"-0.002": 21.3098063195,
			"-0.001": 22.0427861149,
			"0.0": 21.9745118397,
			"0.001": 23.2657610622,
			"0.002": 17.5316260032,
			"0.003": 17.9871951664,
			"0.004": 19.18476105,
			"0.005": 16.174993991,
			"0.006": 4.1049735315,
			"0.007": 3.12705448628,
			"0.008": 3.26925305121,
			"0.009": 2.1656941973,
			"0.01": 1.95947439963,
			"0.011": 2.40303079946,
			"0.012": 3.45012497393,
			"0.013": 4.73436905554,
			"0.014": 1.03326651652,
			"0.015": 0.0,
			"0.016": 0.0,
			"0.017": 0.0,
			"0.018": 0.0,
			"0.019": 0.0,
			"0.02": 0.0,
			"0.021": 0.0,
			"0.022": 0.0,
			"0.023": 0.0,
			"0.024": 0.0,
			"0.025": 0.0
		}
	}
}
