{
	 "smiles": "CN(C)CC(=O)N1C2=CC=CC=C2SC2=CC=CC=C12", 
	 "Tm": 417.15, 
	 "num_atms": 36, 
	 "gaussian": { 
		 "optdone": 1, 
		 "sigma_profile": "yes", 
		 "theory": "DFT", 
		 "functional": "B3LYP", 
		 "basiset": "6-31G**", 
		 "properties": { 
			 "R2extent": 6400.655, 
			 "electric_dipole_moment_norm": 2.68882983842, 
			 "electric_quadrupole_moment_norm": 5.7701046325, 
			 "total_energy": -1202.25298313, 
			 "HOMO_LUMO_gap": 0.16992, 
			 "cosmo_polarized_energy": -11.43, 
			 "cosmo_cavitation_energy": 39.55, 
			 "cosmo_dispersion_energy": -28.01, 
			 "cosmo_repulsion_energy": 2.1, 
			 "cosmo_total_nonelectrostatic_energy": 13.64, 
			 "SMD_solvation_energy": 4.53 
		},
		"coords": [
			{
				"x": 3.3665176002,
				"y": 2.0710550724,
				"z": -2.1367417661,
				"element": "C" 
			},
			{
				"x": 3.1028582939,
				"y": 1.2114714104,
				"z": -0.98821615,
				"element": "N" 
			},
			{
				"x": 3.5985073317,
				"y": 1.7564321158,
				"z": 0.2692603027,
				"element": "C" 
			},
			{
				"x": 1.7711947997,
				"y": 0.6547357629,
				"z": -0.9213858874,
				"element": "C" 
			},
			{
				"x": 0.6472737873,
				"y": 1.6594345919,
				"z": -0.5692138323,
				"element": "C" 
			},
			{
				"x": 0.8284192254,
				"y": 2.8652191441,
				"z": -0.6201401369,
				"element": "O" 
			},
			{
				"x": -0.5779714222,
				"y": 1.1300421793,
				"z": -0.1298183162,
				"element": "N" 
			},
			{
				"x": -0.8761290313,
				"y": -0.2684437418,
				"z": -0.1179385611,
				"element": "C" 
			},
			{
				"x": -0.8594689999,
				"y": -1.0288442528,
				"z": -1.2924080251,
				"element": "C" 
			},
			{
				"x": -1.1182147518,
				"y": -2.3981284746,
				"z": -1.248098128,
				"element": "C" 
			},
			{
				"x": -1.4450637937,
				"y": -3.0092126197,
				"z": -0.0355695594,
				"element": "C" 
			},
			{
				"x": -1.5360965049,
				"y": -2.2462391285,
				"z": 1.1280190167,
				"element": "C" 
			},
			{
				"x": -1.2519617529,
				"y": -0.8777313924,
				"z": 1.0910565268,
				"element": "C" 
			},
			{
				"x": -1.3724388456,
				"y": 0.1224822742,
				"z": 2.5601332682,
				"element": "S" 
			},
			{
				"x": -1.9848610988,
				"y": 1.6190321352,
				"z": 1.7988104729,
				"element": "C" 
			},
			{
				"x": -2.9027615335,
				"y": 2.4273045914,
				"z": 2.4756602888,
				"element": "C" 
			},
			{
				"x": -3.3412899313,
				"y": 3.6150746069,
				"z": 1.8921338293,
				"element": "C" 
			},
			{
				"x": -2.8873710809,
				"y": 3.9791277445,
				"z": 0.622734664,
				"element": "C" 
			},
			{
				"x": -1.9912716301,
				"y": 3.1632137937,
				"z": -0.0666195108,
				"element": "C" 
			},
			{
				"x": -1.5225692388,
				"y": 1.9878927471,
				"z": 0.526625371,
				"element": "C" 
			},
			{
				"x": 4.4479427082,
				"y": 2.2302315595,
				"z": -2.2196299156,
				"element": "H" 
			},
			{
				"x": 3.0361358247,
				"y": 1.5662879738,
				"z": -3.0518982267,
				"element": "H" 
			},
			{
				"x": 2.8716682736,
				"y": 3.0509844603,
				"z": -2.0831124545,
				"element": "H" 
			},
			{
				"x": 3.4567582754,
				"y": 1.019324291,
				"z": 1.067827485,
				"element": "H" 
			},
			{
				"x": 3.107731203,
				"y": 2.6944333643,
				"z": 0.5714300477,
				"element": "H" 
			},
			{
				"x": 4.6740665261,
				"y": 1.9443904617,
				"z": 0.1776569089,
				"element": "H" 
			},
			{
				"x": 1.757947917,
				"y": -0.1556717028,
				"z": -0.1821187623,
				"element": "H" 
			},
			{
				"x": 1.5433575481,
				"y": 0.1900944478,
				"z": -1.8875155198,
				"element": "H" 
			},
			{
				"x": -0.6401706992,
				"y": -0.5408131657,
				"z": -2.2364433293,
				"element": "H" 
			},
			{
				"x": -1.0817659819,
				"y": -2.9817807878,
				"z": -2.1626521536,
				"element": "H" 
			},
			{
				"x": -1.6569253246,
				"y": -4.0734040871,
				"z": 0.0007915841,
				"element": "H" 
			},
			{
				"x": -1.835413113,
				"y": -2.7043575423,
				"z": 2.0656570921,
				"element": "H" 
			},
			{
				"x": -3.2683433589,
				"y": 2.1223016357,
				"z": 3.4513062742,
				"element": "H" 
			},
			{
				"x": -4.0463260163,
				"y": 4.2471201395,
				"z": 2.4235911958,
				"element": "H" 
			},
			{
				"x": -3.2345991769,
				"y": 4.8991261393,
				"z": 0.1626609282,
				"element": "H" 
			},
			{
				"x": -1.627766028,
				"y": 3.4418142526,
				"z": -1.0472350213,
				"element": "H" 
			}
		],
		 "valence_orbital": [ 
			{
				"type": "occ",
				"energy": -0.26177,
				"method": "rhf"
			},
			{
				"type": "occ",
				"energy": -0.25466,
				"method": "rhf"
			},
			{
				"type": "occ",
				"energy": -0.23816,
				"method": "rhf"
			},
			{
				"type": "occ",
				"energy": -0.21388,
				"method": "rhf"
			},
			{
				"type": "occ",
				"energy": -0.19654,
				"method": "rhf"
			},
			{
				"type": "unocc",
				"energy": -0.02662,
				"method": "rhf"
			},
			{
				"type": "unocc",
				"energy": -0.02194,
				"method": "rhf"
			},
			{
				"type": "unocc",
				"energy": -0.01291,
				"method": "rhf"
			},
			{
				"type": "unocc",
				"energy": -0.00544,
				"method": "rhf"
			},
			{
				"type": "unocc",
				"energy": 0.02354,
				"method": "rhf"
			}
		],
		"cosmo_sigma_profile": { 
			"-0.025": 0.0,
			"-0.024": 0.0,
			"-0.023": 0.0,
			"-0.022": 0.0,
			"-0.021": 0.0,
			"-0.02": 0.0,
			"-0.019": 0.0,
			"-0.018": 0.0,
			"-0.017": 0.0,
			"-0.016": 0.0,
			"-0.015": 0.0,
			"-0.014": 0.0,
			"-0.013": 0.0,
			"-0.012": 0.0,
			"-0.011": 0.0,
			"-0.01": 0.0,
			"-0.009": 0.280460167773,
			"-0.008": 2.20155881128,
			"-0.007": 7.33343077278,
			"-0.006": 17.7358239075,
			"-0.005": 22.0069640661,
			"-0.004": 25.9010593362,
			"-0.003": 24.3967149663,
			"-0.002": 21.7687383902,
			"-0.001": 27.5530548479,
			"0.0": 32.5665585868,
			"0.001": 26.14298121,
			"0.002": 24.3836738106,
			"0.003": 24.2099056008,
			"0.004": 23.0890487309,
			"0.005": 9.75673644378,
			"0.006": 6.03562293262,
			"0.007": 4.84196561785,
			"0.008": 2.57741424213,
			"0.009": 2.46132266621,
			"0.01": 2.71268970486,
			"0.011": 2.7141022137,
			"0.012": 2.74077272195,
			"0.013": 2.48440527821,
			"0.014": 0.155977734832,
			"0.015": 0.450381359422,
			"0.016": 0.0701973501753,
			"0.017": 0.0,
			"0.018": 0.0,
			"0.019": 0.0,
			"0.02": 0.0,
			"0.021": 0.0,
			"0.022": 0.0,
			"0.023": 0.0,
			"0.024": 0.0,
			"0.025": 0.0
		}
	}
}
