{
	 "smiles": "CC(C)S(=O)(=O)C1=CC=C(C=C1)C(O)=O", 
	 "Tm": 460.15, 
	 "num_atms": 27, 
	 "gaussian": { 
		 "optdone": 1, 
		 "sigma_profile": "yes", 
		 "theory": "DFT", 
		 "functional": "B3LYP", 
		 "basiset": "6-31G**", 
		 "properties": { 
			 "R2extent": 4819.9142, 
			 "electric_dipole_moment_norm": 4.36659075367, 
			 "electric_quadrupole_moment_norm": 18.6915472843, 
			 "total_energy": -1087.34455443, 
			 "HOMO_LUMO_gap": 0.20427, 
			 "cosmo_polarized_energy": -17.93, 
			 "cosmo_cavitation_energy": 32.21, 
			 "cosmo_dispersion_energy": -23.21, 
			 "cosmo_repulsion_energy": 1.76, 
			 "cosmo_total_nonelectrostatic_energy": 10.76, 
			 "SMD_solvation_energy": 6.18 
		},
		"coords": [
			{
				"x": -2.8560658057,
				"y": 1.778979381,
				"z": 1.6094433517,
				"element": "C" 
			},
			{
				"x": -1.7882369588,
				"y": 0.8307037942,
				"z": 1.0552252993,
				"element": "C" 
			},
			{
				"x": -2.3427644252,
				"y": -0.1843824324,
				"z": 0.0572053522,
				"element": "C" 
			},
			{
				"x": -0.4734538457,
				"y": 1.8669531897,
				"z": 0.2814324907,
				"element": "S" 
			},
			{
				"x": -0.9820243935,
				"y": 2.3698436528,
				"z": -1.0081609007,
				"element": "O" 
			},
			{
				"x": 0.0206271043,
				"y": 2.7921685218,
				"z": 1.316752836,
				"element": "O" 
			},
			{
				"x": 0.8660790254,
				"y": 0.7066971422,
				"z": -0.0785684383,
				"element": "C" 
			},
			{
				"x": 0.9986451154,
				"y": 0.1978410873,
				"z": -1.3714951871,
				"element": "C" 
			},
			{
				"x": 2.0394843119,
				"y": -0.6872678985,
				"z": -1.6486456249,
				"element": "C" 
			},
			{
				"x": 2.9342323823,
				"y": -1.0530438703,
				"z": -0.6340878924,
				"element": "C" 
			},
			{
				"x": 2.7955399815,
				"y": -0.5225681799,
				"z": 0.6561549558,
				"element": "C" 
			},
			{
				"x": 1.7618280473,
				"y": 0.365025473,
				"z": 0.9384408813,
				"element": "C" 
			},
			{
				"x": 4.061162457,
				"y": -1.9991171632,
				"z": -0.8759609824,
				"element": "C" 
			},
			{
				"x": 4.1122909363,
				"y": -2.4443317824,
				"z": -2.1539501338,
				"element": "O" 
			},
			{
				"x": 4.8599655206,
				"y": -2.3493584937,
				"z": -0.0313707616,
				"element": "O" 
			},
			{
				"x": -3.6177495891,
				"y": 1.1932365767,
				"z": 2.1332447496,
				"element": "H" 
			},
			{
				"x": -2.4240910956,
				"y": 2.4979420318,
				"z": 2.3083256873,
				"element": "H" 
			},
			{
				"x": -3.3425541174,
				"y": 2.3281186262,
				"z": 0.7980300488,
				"element": "H" 
			},
			{
				"x": -1.2700620302,
				"y": 0.3258122056,
				"z": 1.8785897394,
				"element": "H" 
			},
			{
				"x": -1.5701750052,
				"y": -0.8641166839,
				"z": -0.3125123438,
				"element": "H" 
			},
			{
				"x": -2.7949214294,
				"y": 0.3262871153,
				"z": -0.79717275,
				"element": "H" 
			},
			{
				"x": -3.1133011464,
				"y": -0.7879807068,
				"z": 0.5472083831,
				"element": "H" 
			},
			{
				"x": 0.3046926552,
				"y": 0.5114690414,
				"z": -2.1436019718,
				"element": "H" 
			},
			{
				"x": 2.1636128508,
				"y": -1.0914316222,
				"z": -2.646545819,
				"element": "H" 
			},
			{
				"x": 3.5118130021,
				"y": -0.8116014562,
				"z": 1.4174836306,
				"element": "H" 
			},
			{
				"x": 1.6593673694,
				"y": 0.8091425265,
				"z": 1.9228445073,
				"element": "H" 
			},
			{
				"x": 4.8752590826,
				"y": -3.0440200759,
				"z": -2.1985091075,
				"element": "H" 
			}
		],
		 "valence_orbital": [ 
			{
				"type": "occ",
				"energy": -0.29791,
				"method": "rhf"
			},
			{
				"type": "occ",
				"energy": -0.29152,
				"method": "rhf"
			},
			{
				"type": "occ",
				"energy": -0.28773,
				"method": "rhf"
			},
			{
				"type": "occ",
				"energy": -0.28161,
				"method": "rhf"
			},
			{
				"type": "occ",
				"energy": -0.28005,
				"method": "rhf"
			},
			{
				"type": "unocc",
				"energy": -0.07578,
				"method": "rhf"
			},
			{
				"type": "unocc",
				"energy": -0.0317,
				"method": "rhf"
			},
			{
				"type": "unocc",
				"energy": 0.02263,
				"method": "rhf"
			},
			{
				"type": "unocc",
				"energy": 0.05605,
				"method": "rhf"
			},
			{
				"type": "unocc",
				"energy": 0.06808,
				"method": "rhf"
			}
		],
		"cosmo_sigma_profile": { 
			"-0.025": 0.0,
			"-0.024": 0.0,
			"-0.023": 0.0,
			"-0.022": 0.0,
			"-0.021": 0.0,
			"-0.02": 0.0,
			"-0.019": 0.369545717611,
			"-0.018": 0.978302297711,
			"-0.017": 1.10203783156,
			"-0.016": 0.757362401914,
			"-0.015": 0.176912802577,
			"-0.014": 0.523441609461,
			"-0.013": 0.788867945776,
			"-0.012": 0.918950800627,
			"-0.011": 1.14918265896,
			"-0.01": 0.334379723794,
			"-0.009": 0.694674780897,
			"-0.008": 3.57336031696,
			"-0.007": 10.5313414477,
			"-0.006": 10.8106114746,
			"-0.005": 14.4688563293,
			"-0.004": 19.5254951795,
			"-0.003": 22.8605886266,
			"-0.002": 22.8009980974,
			"-0.001": 26.9203275269,
			"0.0": 22.1677501699,
			"0.001": 19.8931223789,
			"0.002": 8.54985258952,
			"0.003": 5.29383772267,
			"0.004": 6.56877056951,
			"0.005": 5.12840495208,
			"0.006": 4.48707503613,
			"0.007": 6.15270559124,
			"0.008": 4.08160574263,
			"0.009": 5.30930968316,
			"0.01": 7.07876208655,
			"0.011": 12.9084883484,
			"0.012": 7.68978165488,
			"0.013": 0.678032347593,
			"0.014": 0.0,
			"0.015": 0.0,
			"0.016": 0.0,
			"0.017": 0.0,
			"0.018": 0.0,
			"0.019": 0.0,
			"0.02": 0.0,
			"0.021": 0.0,
			"0.022": 0.0,
			"0.023": 0.0,
			"0.024": 0.0,
			"0.025": 0.0
		}
	}
}
