{
	 "smiles": "O=C(COC1=C2C=CC=CC2=CC=C1)N1CCNCC1", 
	 "Tm": 415.15, 
	 "num_atms": 38, 
	 "gaussian": { 
		 "optdone": 1, 
		 "sigma_profile": "yes", 
		 "theory": "DFT", 
		 "functional": "B3LYP", 
		 "basiset": "6-31G**", 
		 "properties": { 
			 "R2extent": 6558.487, 
			 "electric_dipole_moment_norm": 2.78124838697, 
			 "electric_quadrupole_moment_norm": 13.2771903771, 
			 "total_energy": -880.505451809, 
			 "HOMO_LUMO_gap": 0.17068, 
			 "cosmo_polarized_energy": -14.65, 
			 "cosmo_cavitation_energy": 39.45, 
			 "cosmo_dispersion_energy": -27.45, 
			 "cosmo_repulsion_energy": 2.09, 
			 "cosmo_total_nonelectrostatic_energy": 14.09, 
			 "SMD_solvation_energy": 3.66 
		},
		"coords": [
			{
				"x": 1.6726091879,
				"y": -2.8961986078,
				"z": 1.7187179024,
				"element": "O" 
			},
			{
				"x": 0.9620569269,
				"y": -2.6047755732,
				"z": 0.7571152536,
				"element": "C" 
			},
			{
				"x": 1.5841301369,
				"y": -2.6164652641,
				"z": -0.6530482612,
				"element": "C" 
			},
			{
				"x": 1.4173284045,
				"y": -1.426148809,
				"z": -1.4158966851,
				"element": "O" 
			},
			{
				"x": 2.1435176423,
				"y": -0.3102495699,
				"z": -1.0728532549,
				"element": "C" 
			},
			{
				"x": 2.0111046069,
				"y": 0.7882884218,
				"z": -1.9825232504,
				"element": "C" 
			},
			{
				"x": 1.2002556236,
				"y": 0.71863357,
				"z": -3.1454617344,
				"element": "C" 
			},
			{
				"x": 1.096057039,
				"y": 1.7992704721,
				"z": -3.9944753619,
				"element": "C" 
			},
			{
				"x": 1.7990386001,
				"y": 2.9956589587,
				"z": -3.718688093,
				"element": "C" 
			},
			{
				"x": 2.5967927055,
				"y": 3.0871793448,
				"z": -2.5999742486,
				"element": "C" 
			},
			{
				"x": 2.7299679844,
				"y": 1.9944054418,
				"z": -1.7018642889,
				"element": "C" 
			},
			{
				"x": 3.5534890545,
				"y": 2.0657658257,
				"z": -0.5445300387,
				"element": "C" 
			},
			{
				"x": 3.6548544927,
				"y": 0.9861659247,
				"z": 0.2984574508,
				"element": "C" 
			},
			{
				"x": 2.9475651634,
				"y": -0.2160044577,
				"z": 0.045369943,
				"element": "C" 
			},
			{
				"x": -0.3618658855,
				"y": -2.2921896494,
				"z": 0.8800424955,
				"element": "N" 
			},
			{
				"x": -1.3021524201,
				"y": -2.0447606918,
				"z": -0.2156541171,
				"element": "C" 
			},
			{
				"x": -2.0575935085,
				"y": -0.7247456948,
				"z": 0.0279996327,
				"element": "C" 
			},
			{
				"x": -2.6830943724,
				"y": -0.6363639451,
				"z": 1.3480697713,
				"element": "N" 
			},
			{
				"x": -1.7220309998,
				"y": -0.9334151333,
				"z": 2.4140168742,
				"element": "C" 
			},
			{
				"x": -0.9667812672,
				"y": -2.2567229693,
				"z": 2.2150696181,
				"element": "C" 
			},
			{
				"x": 2.6429192926,
				"y": -2.8515846843,
				"z": -0.5142241327,
				"element": "H" 
			},
			{
				"x": 1.1273171772,
				"y": -3.4074026456,
				"z": -1.2567285692,
				"element": "H" 
			},
			{
				"x": 0.6690288447,
				"y": -0.2020081131,
				"z": -3.3577115647,
				"element": "H" 
			},
			{
				"x": 0.4732690974,
				"y": 1.7332899979,
				"z": -4.8820144446,
				"element": "H" 
			},
			{
				"x": 1.7092231467,
				"y": 3.8415157605,
				"z": -4.394357089,
				"element": "H" 
			},
			{
				"x": 3.1413741731,
				"y": 4.0032990716,
				"z": -2.3860861919,
				"element": "H" 
			},
			{
				"x": 4.0964833156,
				"y": 2.9841197461,
				"z": -0.3398888006,
				"element": "H" 
			},
			{
				"x": 4.2816351231,
				"y": 1.0415859263,
				"z": 1.1837372017,
				"element": "H" 
			},
			{
				"x": 3.0330437214,
				"y": -1.0377975506,
				"z": 0.7462690001,
				"element": "H" 
			},
			{
				"x": -2.0233210681,
				"y": -2.8769914593,
				"z": -0.2569562025,
				"element": "H" 
			},
			{
				"x": -0.771499956,
				"y": -2.0011545106,
				"z": -1.1651778746,
				"element": "H" 
			},
			{
				"x": -1.3481571066,
				"y": 0.1062035663,
				"z": -0.0710398181,
				"element": "H" 
			},
			{
				"x": -2.8262605132,
				"y": -0.5940814781,
				"z": -0.741498652,
				"element": "H" 
			},
			{
				"x": -3.4570120382,
				"y": -1.2970738005,
				"z": 1.3991564669,
				"element": "H" 
			},
			{
				"x": -0.9948602477,
				"y": -0.11237801,
				"z": 2.4507592949,
				"element": "H" 
			},
			{
				"x": -2.2487054515,
				"y": -0.9475243069,
				"z": 3.3743968071,
				"element": "H" 
			},
			{
				"x": -1.6643745874,
				"y": -3.1032594863,
				"z": 2.3137136969,
				"element": "H" 
			},
			{
				"x": -0.1665520384,
				"y": -2.3886856175,
				"z": 2.9441612649,
				"element": "H" 
			}
		],
		 "valence_orbital": [ 
			{
				"type": "occ",
				"energy": -0.25987,
				"method": "rhf"
			},
			{
				"type": "occ",
				"energy": -0.24796,
				"method": "rhf"
			},
			{
				"type": "occ",
				"energy": -0.24037,
				"method": "rhf"
			},
			{
				"type": "occ",
				"energy": -0.21828,
				"method": "rhf"
			},
			{
				"type": "occ",
				"energy": -0.20124,
				"method": "rhf"
			},
			{
				"type": "unocc",
				"energy": -0.03056,
				"method": "rhf"
			},
			{
				"type": "unocc",
				"energy": -0.0069,
				"method": "rhf"
			},
			{
				"type": "unocc",
				"energy": 0.00832,
				"method": "rhf"
			},
			{
				"type": "unocc",
				"energy": 0.04268,
				"method": "rhf"
			},
			{
				"type": "unocc",
				"energy": 0.07685,
				"method": "rhf"
			}
		],
		"cosmo_sigma_profile": { 
			"-0.025": 0.0,
			"-0.024": 0.0,
			"-0.023": 0.0,
			"-0.022": 0.0,
			"-0.021": 0.0,
			"-0.02": 0.0,
			"-0.019": 0.0,
			"-0.018": 0.0,
			"-0.017": 0.0,
			"-0.016": 0.0,
			"-0.015": 0.0,
			"-0.014": 0.0,
			"-0.013": 0.0,
			"-0.012": 0.0,
			"-0.011": 0.0,
			"-0.01": 1.0858540139,
			"-0.009": 1.70289360062,
			"-0.008": 3.64586362444,
			"-0.007": 6.34681391484,
			"-0.006": 11.5947175197,
			"-0.005": 26.4391706284,
			"-0.004": 34.4347720472,
			"-0.003": 33.3275331045,
			"-0.002": 26.8922200975,
			"-0.001": 21.3289778244,
			"0.0": 17.8018644949,
			"0.001": 16.3055595313,
			"0.002": 17.6584862552,
			"0.003": 19.5933917139,
			"0.004": 23.2129504772,
			"0.005": 20.7338985985,
			"0.006": 6.9733248269,
			"0.007": 2.56318688491,
			"0.008": 2.15223060123,
			"0.009": 1.56346390355,
			"0.01": 2.21340164668,
			"0.011": 1.91312785075,
			"0.012": 2.15891557069,
			"0.013": 4.14576863121,
			"0.014": 3.65324022139,
			"0.015": 1.13249670858,
			"0.016": 0.49046464444,
			"0.017": 0.55429304897,
			"0.018": 0.370712706872,
			"0.019": 0.0432633321678,
			"0.02": 0.0,
			"0.021": 0.0,
			"0.022": 0.0,
			"0.023": 0.0,
			"0.024": 0.0,
			"0.025": 0.0
		}
	}
}
