{
	 "smiles": "BrC1=CC=C(OC2=C(Br)C=CC=C2Br)C=C1", 
	 "Tm": 350.35, 
	 "num_atms": 23, 
	 "gaussian": { 
		 "optdone": 1, 
		 "sigma_profile": "yes", 
		 "theory": "DFT", 
		 "functional": "B3LYP", 
		 "basiset": "6-31G**", 
		 "properties": { 
			 "R2extent": 8955.2324, 
			 "electric_dipole_moment_norm": 3.19488778207, 
			 "electric_quadrupole_moment_norm": 12.0953507055, 
			 "total_energy": -8250.91452656, 
			 "HOMO_LUMO_gap": 0.19147, 
			 "cosmo_polarized_energy": -7.43, 
			 "cosmo_cavitation_energy": 34.84, 
			 "cosmo_dispersion_energy": -25.42, 
			 "cosmo_repulsion_energy": 2.0, 
			 "cosmo_total_nonelectrostatic_energy": 11.42, 
			 "SMD_solvation_energy": 2.76 
		},
		"coords": [
			{
				"x": -3.5040700261,
				"y": -0.0029284124,
				"z": 3.8516924489,
				"element": "Br" 
			},
			{
				"x": -2.2551332489,
				"y": 0.276272675,
				"z": 2.4309982623,
				"element": "C" 
			},
			{
				"x": -1.6181245877,
				"y": 1.5117051189,
				"z": 2.3068903206,
				"element": "C" 
			},
			{
				"x": -0.709496095,
				"y": 1.7133578606,
				"z": 1.2723446394,
				"element": "C" 
			},
			{
				"x": -0.4440657215,
				"y": 0.6806716985,
				"z": 0.370363824,
				"element": "C" 
			},
			{
				"x": 0.474146408,
				"y": 0.9795650958,
				"z": -0.6221519797,
				"element": "O" 
			},
			{
				"x": 0.8063939098,
				"y": 0.0393394587,
				"z": -1.5611303397,
				"element": "C" 
			},
			{
				"x": 1.9064693753,
				"y": -0.8095152788,
				"z": -1.367604872,
				"element": "C" 
			},
			{
				"x": 2.8756808105,
				"y": -0.7314645215,
				"z": 0.2665497489,
				"element": "Br" 
			},
			{
				"x": 2.3071666715,
				"y": -1.7034846518,
				"z": -2.3591176562,
				"element": "C" 
			},
			{
				"x": 1.6057974542,
				"y": -1.7556426582,
				"z": -3.5625956288,
				"element": "C" 
			},
			{
				"x": 0.5128431742,
				"y": -0.9182755679,
				"z": -3.7800422549,
				"element": "C" 
			},
			{
				"x": 0.1196170442,
				"y": -0.0275802547,
				"z": -2.7826436166,
				"element": "C" 
			},
			{
				"x": -1.3626399883,
				"y": 1.1234099384,
				"z": -3.0896711103,
				"element": "Br" 
			},
			{
				"x": -1.0805626054,
				"y": -0.5538727453,
				"z": 0.4944359734,
				"element": "C" 
			},
			{
				"x": -1.9920099826,
				"y": -0.7542489643,
				"z": 1.5331437867,
				"element": "C" 
			},
			{
				"x": -1.8294348011,
				"y": 2.3083008588,
				"z": 3.0109317086,
				"element": "H" 
			},
			{
				"x": -0.199620143,
				"y": 2.6629408175,
				"z": 1.1514420421,
				"element": "H" 
			},
			{
				"x": 3.1617227116,
				"y": -2.3464086928,
				"z": -2.1841578431,
				"element": "H" 
			},
			{
				"x": 1.916492449,
				"y": -2.4486809525,
				"z": -4.3379056312,
				"element": "H" 
			},
			{
				"x": -0.0341990684,
				"y": -0.9478319896,
				"z": -4.7149762379,
				"element": "H" 
			},
			{
				"x": -0.8745663162,
				"y": -1.3555895225,
				"z": -0.205392476,
				"element": "H" 
			},
			{
				"x": -2.4919074239,
				"y": -1.7103393101,
				"z": 1.6379968914,
				"element": "H" 
			}
		],
		 "valence_orbital": [ 
			{
				"type": "occ",
				"energy": -0.28496,
				"method": "rhf"
			},
			{
				"type": "occ",
				"energy": -0.2664,
				"method": "rhf"
			},
			{
				"type": "occ",
				"energy": -0.26096,
				"method": "rhf"
			},
			{
				"type": "occ",
				"energy": -0.25468,
				"method": "rhf"
			},
			{
				"type": "occ",
				"energy": -0.2276,
				"method": "rhf"
			},
			{
				"type": "unocc",
				"energy": -0.03613,
				"method": "rhf"
			},
			{
				"type": "unocc",
				"energy": -0.03194,
				"method": "rhf"
			},
			{
				"type": "unocc",
				"energy": -0.02405,
				"method": "rhf"
			},
			{
				"type": "unocc",
				"energy": -0.01611,
				"method": "rhf"
			},
			{
				"type": "unocc",
				"energy": -0.00459,
				"method": "rhf"
			}
		],
		"cosmo_sigma_profile": { 
			"-0.025": 0.0,
			"-0.024": 0.0,
			"-0.023": 0.0,
			"-0.022": 0.0,
			"-0.021": 0.0,
			"-0.02": 0.0,
			"-0.019": 0.0,
			"-0.018": 0.0,
			"-0.017": 0.0,
			"-0.016": 0.0,
			"-0.015": 0.0,
			"-0.014": 0.0,
			"-0.013": 0.0,
			"-0.012": 0.0,
			"-0.011": 0.0,
			"-0.01": 0.0,
			"-0.009": 0.0181537376455,
			"-0.008": 4.6571730578,
			"-0.007": 12.782473043,
			"-0.006": 15.1969757019,
			"-0.005": 14.2088825691,
			"-0.004": 14.057363386,
			"-0.003": 16.1215927423,
			"-0.002": 14.4406968923,
			"-0.001": 18.5417156598,
			"0.0": 27.1723171928,
			"0.001": 28.5073199352,
			"0.002": 33.8849260657,
			"0.003": 43.3540133144,
			"0.004": 31.3877464045,
			"0.005": 11.755716277,
			"0.006": 2.22620721083,
			"0.007": 1.82538541868,
			"0.008": 0.467385243117,
			"0.009": 0.0,
			"0.01": 0.0,
			"0.011": 0.0,
			"0.012": 0.0,
			"0.013": 0.0,
			"0.014": 0.0,
			"0.015": 0.0,
			"0.016": 0.0,
			"0.017": 0.0,
			"0.018": 0.0,
			"0.019": 0.0,
			"0.02": 0.0,
			"0.021": 0.0,
			"0.022": 0.0,
			"0.023": 0.0,
			"0.024": 0.0,
			"0.025": 0.0
		}
	}
}
