{
	 "smiles": "OC(=O)C=CC1=CC(O)=CN=C1", 
	 "Tm": 517.15, 
	 "num_atms": 19, 
	 "gaussian": { 
		 "optdone": 1, 
		 "sigma_profile": "yes", 
		 "theory": "DFT", 
		 "functional": "B3LYP", 
		 "basiset": "6-31G**", 
		 "properties": { 
			 "R2extent": 3546.1395, 
			 "electric_dipole_moment_norm": 3.70266149682, 
			 "electric_quadrupole_moment_norm": 10.1203043852, 
			 "total_energy": -589.482108786, 
			 "HOMO_LUMO_gap": 0.16149, 
			 "cosmo_polarized_energy": -17.63, 
			 "cosmo_cavitation_energy": 24.95, 
			 "cosmo_dispersion_energy": -18.25, 
			 "cosmo_repulsion_energy": 1.45, 
			 "cosmo_total_nonelectrostatic_energy": 8.15, 
			 "SMD_solvation_energy": 4.71 
		},
		"coords": [
			{
				"x": 1.6722955014,
				"y": -3.0964622081,
				"z": -4.3583786702,
				"element": "O" 
			},
			{
				"x": 1.7284011673,
				"y": -2.9716001635,
				"z": -3.0066990363,
				"element": "C" 
			},
			{
				"x": 2.4021272283,
				"y": -3.7079400023,
				"z": -2.3115122085,
				"element": "O" 
			},
			{
				"x": 0.8850772826,
				"y": -1.8567008766,
				"z": -2.5340360005,
				"element": "C" 
			},
			{
				"x": 0.8132527244,
				"y": -1.5785903026,
				"z": -1.2198785313,
				"element": "C" 
			},
			{
				"x": 0.0369807969,
				"y": -0.5226122958,
				"z": -0.5754188174,
				"element": "C" 
			},
			{
				"x": -0.7777300049,
				"y": 0.3879355264,
				"z": -1.2717971599,
				"element": "C" 
			},
			{
				"x": -1.4740247351,
				"y": 1.3546017967,
				"z": -0.5557647225,
				"element": "C" 
			},
			{
				"x": -2.2892337448,
				"y": 2.2841354457,
				"z": -1.1246107451,
				"element": "O" 
			},
			{
				"x": -1.3377361422,
				"y": 1.3866152573,
				"z": 0.8442003312,
				"element": "C" 
			},
			{
				"x": -0.5705736439,
				"y": 0.5316961605,
				"z": 1.5170768931,
				"element": "N" 
			},
			{
				"x": 0.0965628443,
				"y": -0.3955651351,
				"z": 0.8224581144,
				"element": "C" 
			},
			{
				"x": 2.2499064405,
				"y": -3.8454697287,
				"z": -4.5803523332,
				"element": "H" 
			},
			{
				"x": 0.3467031777,
				"y": -1.297484192,
				"z": -3.2922704028,
				"element": "H" 
			},
			{
				"x": 1.4004060899,
				"y": -2.2121920927,
				"z": -0.5570157726,
				"element": "H" 
			},
			{
				"x": -0.8649827213,
				"y": 0.3407219061,
				"z": -2.3547563021,
				"element": "H" 
			},
			{
				"x": -2.3010706711,
				"y": 2.1640749063,
				"z": -2.0834152488,
				"element": "H" 
			},
			{
				"x": -1.8795655369,
				"y": 2.1402874224,
				"z": 1.4113644673,
				"element": "H" 
			},
			{
				"x": 0.7155039469,
				"y": -1.0804514241,
				"z": 1.3992061454,
				"element": "H" 
			}
		],
		 "valence_orbital": [ 
			{
				"type": "occ",
				"energy": -0.31653,
				"method": "rhf"
			},
			{
				"type": "occ",
				"energy": -0.27878,
				"method": "rhf"
			},
			{
				"type": "occ",
				"energy": -0.26778,
				"method": "rhf"
			},
			{
				"type": "occ",
				"energy": -0.26471,
				"method": "rhf"
			},
			{
				"type": "occ",
				"energy": -0.2407,
				"method": "rhf"
			},
			{
				"type": "unocc",
				"energy": -0.07921,
				"method": "rhf"
			},
			{
				"type": "unocc",
				"energy": -0.0231,
				"method": "rhf"
			},
			{
				"type": "unocc",
				"energy": 0.01287,
				"method": "rhf"
			},
			{
				"type": "unocc",
				"energy": 0.05187,
				"method": "rhf"
			},
			{
				"type": "unocc",
				"energy": 0.08085,
				"method": "rhf"
			}
		],
		"cosmo_sigma_profile": { 
			"-0.025": 0.0,
			"-0.024": 0.0,
			"-0.023": 0.0,
			"-0.022": 0.0,
			"-0.021": 0.0,
			"-0.02": 0.0,
			"-0.019": 0.31701544156,
			"-0.018": 2.07411301569,
			"-0.017": 1.88506216952,
			"-0.016": 2.01707882974,
			"-0.015": 2.04045280614,
			"-0.014": 1.58954090721,
			"-0.013": 1.835420344,
			"-0.012": 1.5624370136,
			"-0.011": 1.4287757148,
			"-0.01": 3.39644124307,
			"-0.009": 3.34296794598,
			"-0.008": 4.42684407622,
			"-0.007": 7.18997268478,
			"-0.006": 7.94966110697,
			"-0.005": 7.64135638853,
			"-0.004": 6.16597647125,
			"-0.003": 6.7062533848,
			"-0.002": 9.24379880544,
			"-0.001": 11.1068543579,
			"0.0": 18.4982386349,
			"0.001": 24.8820990485,
			"0.002": 13.4511082677,
			"0.003": 7.50678484142,
			"0.004": 6.4761796085,
			"0.005": 5.66636865954,
			"0.006": 4.49060316141,
			"0.007": 4.92790694443,
			"0.008": 6.00004869785,
			"0.009": 6.39272698608,
			"0.01": 4.91753726328,
			"0.011": 4.17096684211,
			"0.012": 6.07321927773,
			"0.013": 1.79841640539,
			"0.014": 0.99292113248,
			"0.015": 0.715537109065,
			"0.016": 0.719378040518,
			"0.017": 0.0395439258486,
			"0.018": 0.0,
			"0.019": 0.0,
			"0.02": 0.0,
			"0.021": 0.0,
			"0.022": 0.0,
			"0.023": 0.0,
			"0.024": 0.0,
			"0.025": 0.0
		}
	}
}
