{
	 "smiles": "COC1=CC=CC(C=NN2C(C)=CC(C)=C(C#N)C2=O)=C1O", 
	 "Tm": 483.15, 
	 "num_atms": 37, 
	 "gaussian": { 
		 "optdone": 1, 
		 "sigma_profile": "yes", 
		 "theory": "DFT", 
		 "functional": "B3LYP", 
		 "basiset": "6-31G**", 
		 "properties": { 
			 "R2extent": 10440.5813, 
			 "electric_dipole_moment_norm": 9.69915961617, 
			 "electric_quadrupole_moment_norm": 40.2708287905, 
			 "total_energy": -1008.61470019, 
			 "HOMO_LUMO_gap": 0.14416, 
			 "cosmo_polarized_energy": -20.76, 
			 "cosmo_cavitation_energy": 42.22, 
			 "cosmo_dispersion_energy": -29.79, 
			 "cosmo_repulsion_energy": 2.24, 
			 "cosmo_total_nonelectrostatic_energy": 14.67, 
			 "SMD_solvation_energy": 10.02 
		},
		"coords": [
			{
				"x": 6.5125188495,
				"y": 0.3568938989,
				"z": -2.7075413409,
				"element": "C" 
			},
			{
				"x": 5.1943469747,
				"y": 0.3604686431,
				"z": -2.1789874236,
				"element": "O" 
			},
			{
				"x": 4.4150196932,
				"y": -0.7587273151,
				"z": -2.3582612137,
				"element": "C" 
			},
			{
				"x": 4.798163505,
				"y": -1.9183891092,
				"z": -3.0198236597,
				"element": "C" 
			},
			{
				"x": 3.888567508,
				"y": -2.9807446713,
				"z": -3.1220965332,
				"element": "C" 
			},
			{
				"x": 2.6254632537,
				"y": -2.8659339264,
				"z": -2.5668799926,
				"element": "C" 
			},
			{
				"x": 2.212500648,
				"y": -1.6959622315,
				"z": -1.8887846076,
				"element": "C" 
			},
			{
				"x": 0.8520073181,
				"y": -1.7038545232,
				"z": -1.3480603701,
				"element": "C" 
			},
			{
				"x": 0.3809146357,
				"y": -0.6852030435,
				"z": -0.712349478,
				"element": "N" 
			},
			{
				"x": -0.9033616532,
				"y": -0.6580830429,
				"z": -0.1863237115,
				"element": "N" 
			},
			{
				"x": -1.1878326303,
				"y": 0.539268082,
				"z": 0.4522479766,
				"element": "C" 
			},
			{
				"x": -0.1189846429,
				"y": 1.5908220304,
				"z": 0.4843183675,
				"element": "C" 
			},
			{
				"x": -2.4156026334,
				"y": 0.7355954691,
				"z": 1.0304135444,
				"element": "C" 
			},
			{
				"x": -3.4250168584,
				"y": -0.2570781565,
				"z": 1.0004052065,
				"element": "C" 
			},
			{
				"x": -4.7516511201,
				"y": 0.0206468325,
				"z": 1.6543724919,
				"element": "C" 
			},
			{
				"x": -3.1424935513,
				"y": -1.452771931,
				"z": 0.3633645471,
				"element": "C" 
			},
			{
				"x": -4.1055435838,
				"y": -2.5058462572,
				"z": 0.2881874812,
				"element": "C" 
			},
			{
				"x": -4.9184520162,
				"y": -3.3382672657,
				"z": 0.2496441632,
				"element": "N" 
			},
			{
				"x": -1.8568626444,
				"y": -1.7246504024,
				"z": -0.2713930051,
				"element": "C" 
			},
			{
				"x": -1.5923074372,
				"y": -2.7796251658,
				"z": -0.8398292929,
				"element": "O" 
			},
			{
				"x": 3.127821606,
				"y": -0.6305590908,
				"z": -1.787619662,
				"element": "C" 
			},
			{
				"x": 2.8169336942,
				"y": 0.5275531861,
				"z": -1.1557559003,
				"element": "O" 
			},
			{
				"x": 6.5039714816,
				"y": 0.2353179313,
				"z": -3.7976398561,
				"element": "H" 
			},
			{
				"x": 7.1191276219,
				"y": -0.4392785162,
				"z": -2.2588702729,
				"element": "H" 
			},
			{
				"x": 6.9443550132,
				"y": 1.3262301212,
				"z": -2.4552165389,
				"element": "H" 
			},
			{
				"x": 5.787535784,
				"y": -2.0059799978,
				"z": -3.4536415321,
				"element": "H" 
			},
			{
				"x": 4.1808683251,
				"y": -3.8896281346,
				"z": -3.6374447526,
				"element": "H" 
			},
			{
				"x": 1.9208150187,
				"y": -3.6883485879,
				"z": -2.6457586881,
				"element": "H" 
			},
			{
				"x": 0.2769030513,
				"y": -2.607613241,
				"z": -1.5146531956,
				"element": "H" 
			},
			{
				"x": -0.4908609035,
				"y": 2.4680564417,
				"z": 1.0178280165,
				"element": "H" 
			},
			{
				"x": 0.7858697031,
				"y": 1.2182314448,
				"z": 0.9712417993,
				"element": "H" 
			},
			{
				"x": 0.1850879111,
				"y": 1.8745596779,
				"z": -0.5264979254,
				"element": "H" 
			},
			{
				"x": -2.6081395116,
				"y": 1.6818422729,
				"z": 1.5220420107,
				"element": "H" 
			},
			{
				"x": -4.6104725889,
				"y": 0.2370054167,
				"z": 2.719375334,
				"element": "H" 
			},
			{
				"x": -5.4407348284,
				"y": -0.8192040468,
				"z": 1.5591921073,
				"element": "H" 
			},
			{
				"x": -5.2164604503,
				"y": 0.9060623594,
				"z": 1.2061658849,
				"element": "H" 
			},
			{
				"x": 3.6044854578,
				"y": 1.0926948487,
				"z": -1.2229699782,
				"element": "H" 
			}
		],
		 "valence_orbital": [ 
			{
				"type": "occ",
				"energy": -0.28491,
				"method": "rhf"
			},
			{
				"type": "occ",
				"energy": -0.24502,
				"method": "rhf"
			},
			{
				"type": "occ",
				"energy": -0.24227,
				"method": "rhf"
			},
			{
				"type": "occ",
				"energy": -0.22238,
				"method": "rhf"
			},
			{
				"type": "occ",
				"energy": -0.21394,
				"method": "rhf"
			},
			{
				"type": "unocc",
				"energy": -0.06978,
				"method": "rhf"
			},
			{
				"type": "unocc",
				"energy": -0.0339,
				"method": "rhf"
			},
			{
				"type": "unocc",
				"energy": 0.00188,
				"method": "rhf"
			},
			{
				"type": "unocc",
				"energy": 0.00486,
				"method": "rhf"
			},
			{
				"type": "unocc",
				"energy": 0.04564,
				"method": "rhf"
			}
		],
		"cosmo_sigma_profile": { 
			"-0.025": 0.0,
			"-0.024": 0.0,
			"-0.023": 0.0,
			"-0.022": 0.0,
			"-0.021": 0.0,
			"-0.02": 0.0,
			"-0.019": 0.0,
			"-0.018": 0.0,
			"-0.017": 0.0,
			"-0.016": 0.0,
			"-0.015": 0.0,
			"-0.014": 0.16661882237,
			"-0.013": 0.675567756612,
			"-0.012": 0.65118361834,
			"-0.011": 0.72043503605,
			"-0.01": 0.463683824974,
			"-0.009": 0.657052850519,
			"-0.008": 1.37309391902,
			"-0.007": 8.28354680621,
			"-0.006": 21.0956159376,
			"-0.005": 26.1918083638,
			"-0.004": 30.5300073692,
			"-0.003": 30.2440513479,
			"-0.002": 34.1715869298,
			"-0.001": 29.8331409206,
			"0.0": 23.1113926723,
			"0.001": 19.176495915,
			"0.002": 19.5351744253,
			"0.003": 15.9928450001,
			"0.004": 14.3373425962,
			"0.005": 12.6192230775,
			"0.006": 6.07218059009,
			"0.007": 5.79373736304,
			"0.008": 7.43908776162,
			"0.009": 7.43086063479,
			"0.01": 6.6896537614,
			"0.011": 5.4712684424,
			"0.012": 5.63868712033,
			"0.013": 3.39912321072,
			"0.014": 0.320537359261,
			"0.015": 0.0,
			"0.016": 0.0,
			"0.017": 0.0,
			"0.018": 0.0,
			"0.019": 0.0,
			"0.02": 0.0,
			"0.021": 0.0,
			"0.022": 0.0,
			"0.023": 0.0,
			"0.024": 0.0,
			"0.025": 0.0
		}
	}
}
