{
	 "smiles": "COC(=O)C1=CC=C2SN=NC2=C1", 
	 "Tm": 392.15, 
	 "num_atms": 19, 
	 "gaussian": { 
		 "optdone": 1, 
		 "sigma_profile": "yes", 
		 "theory": "DFT", 
		 "functional": "B3LYP", 
		 "basiset": "6-31G**", 
		 "properties": { 
			 "R2extent": 3590.2502, 
			 "electric_dipole_moment_norm": 2.03660142394, 
			 "electric_quadrupole_moment_norm": 16.2737651243, 
			 "total_energy": -966.580994887, 
			 "HOMO_LUMO_gap": 0.18183, 
			 "cosmo_polarized_energy": -9.35, 
			 "cosmo_cavitation_energy": 26.04, 
			 "cosmo_dispersion_energy": -19.9, 
			 "cosmo_repulsion_energy": 1.5, 
			 "cosmo_total_nonelectrostatic_energy": 7.64, 
			 "SMD_solvation_energy": 3.79 
		},
		"coords": [
			{
				"x": -2.4904854699,
				"y": -1.9932307811,
				"z": 4.5279228729,
				"element": "C" 
			},
			{
				"x": -1.9836590858,
				"y": -1.4753800986,
				"z": 3.2864225388,
				"element": "O" 
			},
			{
				"x": -0.6821607962,
				"y": -1.1175497253,
				"z": 3.2995849753,
				"element": "C" 
			},
			{
				"x": 0.0303732384,
				"y": -1.2169419583,
				"z": 4.279394174,
				"element": "O" 
			},
			{
				"x": -0.224433027,
				"y": -0.5901513832,
				"z": 1.981611929,
				"element": "C" 
			},
			{
				"x": 1.1265713577,
				"y": -0.1825675842,
				"z": 1.8768432357,
				"element": "C" 
			},
			{
				"x": 1.6458812638,
				"y": 0.3204923846,
				"z": 0.695256113,
				"element": "C" 
			},
			{
				"x": 0.7944324031,
				"y": 0.4212369214,
				"z": -0.4171255654,
				"element": "C" 
			},
			{
				"x": 1.071374302,
				"y": 0.9850813708,
				"z": -2.0218575372,
				"element": "S" 
			},
			{
				"x": -0.646257199,
				"y": 0.6405015407,
				"z": -2.4596260225,
				"element": "N" 
			},
			{
				"x": -1.2804803154,
				"y": 0.1686485991,
				"z": -1.4865730449,
				"element": "N" 
			},
			{
				"x": -0.5587796748,
				"y": 0.0129016657,
				"z": -0.3118050826,
				"element": "C" 
			},
			{
				"x": -1.0760636678,
				"y": -0.4944275313,
				"z": 0.8858089219,
				"element": "C" 
			},
			{
				"x": -1.9409334006,
				"y": -2.8908603585,
				"z": 4.8214950451,
				"element": "H" 
			},
			{
				"x": -2.397633751,
				"y": -1.2470374015,
				"z": 5.3207023237,
				"element": "H" 
			},
			{
				"x": -3.5381414271,
				"y": -2.2277214284,
				"z": 4.3415726885,
				"element": "H" 
			},
			{
				"x": 1.7511236726,
				"y": -0.2765380665,
				"z": 2.7586800032,
				"element": "H" 
			},
			{
				"x": 2.6842407956,
				"y": 0.6274143671,
				"z": 0.6355355548,
				"element": "H" 
			},
			{
				"x": -2.1129692187,
				"y": -0.8008705327,
				"z": 0.9453568767,
				"element": "H" 
			}
		],
		 "valence_orbital": [ 
			{
				"type": "occ",
				"energy": -0.31274,
				"method": "rhf"
			},
			{
				"type": "occ",
				"energy": -0.28639,
				"method": "rhf"
			},
			{
				"type": "occ",
				"energy": -0.27795,
				"method": "rhf"
			},
			{
				"type": "occ",
				"energy": -0.27043,
				"method": "rhf"
			},
			{
				"type": "occ",
				"energy": -0.25781,
				"method": "rhf"
			},
			{
				"type": "unocc",
				"energy": -0.07598,
				"method": "rhf"
			},
			{
				"type": "unocc",
				"energy": -0.06081,
				"method": "rhf"
			},
			{
				"type": "unocc",
				"energy": -0.02814,
				"method": "rhf"
			},
			{
				"type": "unocc",
				"energy": -0.00069,
				"method": "rhf"
			},
			{
				"type": "unocc",
				"energy": 0.04963,
				"method": "rhf"
			}
		],
		"cosmo_sigma_profile": { 
			"-0.025": 0.0,
			"-0.024": 0.0,
			"-0.023": 0.0,
			"-0.022": 0.0,
			"-0.021": 0.0,
			"-0.02": 0.0,
			"-0.019": 0.0,
			"-0.018": 0.0,
			"-0.017": 0.0,
			"-0.016": 0.0,
			"-0.015": 0.0,
			"-0.014": 0.0,
			"-0.013": 0.0,
			"-0.012": 0.0,
			"-0.011": 0.0,
			"-0.01": 0.0,
			"-0.009": 1.33309324314,
			"-0.008": 3.79250572126,
			"-0.007": 6.70656339793,
			"-0.006": 10.0949229262,
			"-0.005": 11.1984016636,
			"-0.004": 16.2072594173,
			"-0.003": 18.9725736171,
			"-0.002": 17.1081568244,
			"-0.001": 23.5352468309,
			"0.0": 26.3376106212,
			"0.001": 18.1818012684,
			"0.002": 11.6100301534,
			"0.003": 6.81277449848,
			"0.004": 4.73878666566,
			"0.005": 4.97822470042,
			"0.006": 4.61480853649,
			"0.007": 3.19116668571,
			"0.008": 5.45344903012,
			"0.009": 4.38456876483,
			"0.01": 4.65855513084,
			"0.011": 5.51901392616,
			"0.012": 3.15722315848,
			"0.013": 0.0,
			"0.014": 0.0,
			"0.015": 0.0,
			"0.016": 0.0,
			"0.017": 0.0,
			"0.018": 0.0,
			"0.019": 0.0,
			"0.02": 0.0,
			"0.021": 0.0,
			"0.022": 0.0,
			"0.023": 0.0,
			"0.024": 0.0,
			"0.025": 0.0
		}
	}
}
