{
	 "smiles": "OC(=O)C=CC1=C(OC(F)F)C=C(OC(F)F)C=C1", 
	 "Tm": 380.15, 
	 "num_atms": 27, 
	 "gaussian": { 
		 "optdone": 1, 
		 "sigma_profile": "yes", 
		 "theory": "DFT", 
		 "functional": "B3LYP", 
		 "basiset": "6-31G**", 
		 "properties": { 
			 "R2extent": 5683.6912, 
			 "electric_dipole_moment_norm": 4.73078275553, 
			 "electric_quadrupole_moment_norm": 19.0487040512, 
			 "total_energy": -1124.21633807, 
			 "HOMO_LUMO_gap": 0.1919, 
			 "cosmo_polarized_energy": -15.57, 
			 "cosmo_cavitation_energy": 33.88, 
			 "cosmo_dispersion_energy": -23.2, 
			 "cosmo_repulsion_energy": 1.74, 
			 "cosmo_total_nonelectrostatic_energy": 12.42, 
			 "SMD_solvation_energy": 9.19 
		},
		"coords": [
			{
				"x": -2.4158462048,
				"y": -0.1992590731,
				"z": -1.447991256,
				"element": "O" 
			},
			{
				"x": -2.6152477513,
				"y": 1.1341281737,
				"z": -1.594215239,
				"element": "C" 
			},
			{
				"x": -2.9907861859,
				"y": 1.5938938564,
				"z": -2.6469250658,
				"element": "O" 
			},
			{
				"x": -2.3774969592,
				"y": 1.9765531059,
				"z": -0.3793269137,
				"element": "C" 
			},
			{
				"x": -1.3227982746,
				"y": 1.8914445761,
				"z": 0.4454795577,
				"element": "C" 
			},
			{
				"x": -0.1277180955,
				"y": 1.039853619,
				"z": 0.2490516896,
				"element": "C" 
			},
			{
				"x": 0.3535598423,
				"y": 0.2169597812,
				"z": 1.2757305781,
				"element": "C" 
			},
			{
				"x": -0.3698081591,
				"y": 0.1538706464,
				"z": 2.469954266,
				"element": "O" 
			},
			{
				"x": -1.1982979046,
				"y": -0.9368430576,
				"z": 2.5835315183,
				"element": "C" 
			},
			{
				"x": -1.7537450792,
				"y": -0.8842040179,
				"z": 3.7996443144,
				"element": "F" 
			},
			{
				"x": -2.2163517187,
				"y": -0.8675735288,
				"z": 1.6576357016,
				"element": "F" 
			},
			{
				"x": 1.5204407799,
				"y": -0.5344698392,
				"z": 1.1630805217,
				"element": "C" 
			},
			{
				"x": 2.2291601191,
				"y": -0.4769426655,
				"z": -0.0389603754,
				"element": "C" 
			},
			{
				"x": 3.4090171595,
				"y": -1.161258288,
				"z": -0.2928194998,
				"element": "O" 
			},
			{
				"x": 3.885904011,
				"y": -2.1051054212,
				"z": 0.5770657225,
				"element": "C" 
			},
			{
				"x": 2.9681698751,
				"y": -3.080411289,
				"z": 0.8087228376,
				"element": "F" 
			},
			{
				"x": 4.1939844708,
				"y": -1.5638127547,
				"z": 1.7875869209,
				"element": "F" 
			},
			{
				"x": 1.7756377986,
				"y": 0.3176315838,
				"z": -1.0935006561,
				"element": "C" 
			},
			{
				"x": 0.6167802444,
				"y": 1.0701603257,
				"z": -0.9425528112,
				"element": "C" 
			},
			{
				"x": -2.2254356508,
				"y": -0.4042463076,
				"z": -0.5187075126,
				"element": "H" 
			},
			{
				"x": -3.1382837912,
				"y": 2.7323807922,
				"z": -0.2065463838,
				"element": "H" 
			},
			{
				"x": -1.3082380691,
				"y": 2.5299145161,
				"z": 1.3269277051,
				"element": "H" 
			},
			{
				"x": -0.6856569081,
				"y": -1.893967765,
				"z": 2.4330893298,
				"element": "H" 
			},
			{
				"x": 1.8561600997,
				"y": -1.1296855178,
				"z": 2.0006015349,
				"element": "H" 
			},
			{
				"x": 4.7838278215,
				"y": -2.5381050929,
				"z": 0.1317346508,
				"element": "H" 
			},
			{
				"x": 2.3462017714,
				"y": 0.3439318818,
				"z": -2.0150167645,
				"element": "H" 
			},
			{
				"x": 0.280266759,
				"y": 1.7043617599,
				"z": -1.7560743712,
				"element": "H" 
			}
		],
		 "valence_orbital": [ 
			{
				"type": "occ",
				"energy": -0.31466,
				"method": "rhf"
			},
			{
				"type": "occ",
				"energy": -0.29713,
				"method": "rhf"
			},
			{
				"type": "occ",
				"energy": -0.27982,
				"method": "rhf"
			},
			{
				"type": "occ",
				"energy": -0.27054,
				"method": "rhf"
			},
			{
				"type": "occ",
				"energy": -0.24948,
				"method": "rhf"
			},
			{
				"type": "unocc",
				"energy": -0.05758,
				"method": "rhf"
			},
			{
				"type": "unocc",
				"energy": -0.03407,
				"method": "rhf"
			},
			{
				"type": "unocc",
				"energy": -0.0096,
				"method": "rhf"
			},
			{
				"type": "unocc",
				"energy": 0.04801,
				"method": "rhf"
			},
			{
				"type": "unocc",
				"energy": 0.07063,
				"method": "rhf"
			}
		],
		"cosmo_sigma_profile": { 
			"-0.025": 0.0,
			"-0.024": 0.0,
			"-0.023": 0.0,
			"-0.022": 0.0,
			"-0.021": 0.0,
			"-0.02": 0.0,
			"-0.019": 0.0,
			"-0.018": 0.0,
			"-0.017": 0.0,
			"-0.016": 0.0,
			"-0.015": 0.0,
			"-0.014": 0.0,
			"-0.013": 0.0,
			"-0.012": 0.316324843736,
			"-0.011": 3.90726335143,
			"-0.01": 6.92631924056,
			"-0.009": 5.13607065588,
			"-0.008": 8.22432132289,
			"-0.007": 13.2164924111,
			"-0.006": 14.575674933,
			"-0.005": 12.9823259447,
			"-0.004": 10.2346669527,
			"-0.003": 11.1340957493,
			"-0.002": 11.2418607312,
			"-0.001": 12.1468132256,
			"0.0": 20.6829884556,
			"0.001": 28.6840197935,
			"0.002": 24.5447900862,
			"0.003": 36.4838063921,
			"0.004": 13.4101250668,
			"0.005": 5.33960950988,
			"0.006": 4.53678506781,
			"0.007": 4.07955517927,
			"0.008": 3.32305983107,
			"0.009": 3.06596449659,
			"0.01": 4.8279284184,
			"0.011": 5.50894059626,
			"0.012": 5.48675530588,
			"0.013": 1.84595519441,
			"0.014": 0.0181815062983,
			"0.015": 0.0,
			"0.016": 0.0,
			"0.017": 0.0,
			"0.018": 0.0,
			"0.019": 0.0,
			"0.02": 0.0,
			"0.021": 0.0,
			"0.022": 0.0,
			"0.023": 0.0,
			"0.024": 0.0,
			"0.025": 0.0
		}
	}
}
