{
	 "smiles": "OS(=O)(=O)C1=CC=C(Cl)C=C1", 
	 "Tm": 375.15, 
	 "num_atms": 16, 
	 "gaussian": { 
		 "optdone": 1, 
		 "sigma_profile": "yes", 
		 "theory": "DFT", 
		 "functional": "B3LYP", 
		 "basiset": "6-31G**", 
		 "properties": { 
			 "R2extent": 4504.7206, 
			 "electric_dipole_moment_norm": 2.78940317093, 
			 "electric_quadrupole_moment_norm": 10.3609715664, 
			 "total_energy": -1315.63124471, 
			 "HOMO_LUMO_gap": 0.21597, 
			 "cosmo_polarized_energy": -12.93, 
			 "cosmo_cavitation_energy": 24.01, 
			 "cosmo_dispersion_energy": -18.62, 
			 "cosmo_repulsion_energy": 1.45, 
			 "cosmo_total_nonelectrostatic_energy": 6.84, 
			 "SMD_solvation_energy": 2.97 
		},
		"coords": [
			{
				"x": 3.3879998397,
				"y": -0.0139747503,
				"z": -1.0131897872,
				"element": "O" 
			},
			{
				"x": 1.8704937946,
				"y": -0.5933551302,
				"z": -1.2830787866,
				"element": "S" 
			},
			{
				"x": 1.9691930788,
				"y": -1.6524674889,
				"z": -2.2768916719,
				"element": "O" 
			},
			{
				"x": 1.0137213537,
				"y": 0.5758697993,
				"z": -1.4846015962,
				"element": "O" 
			},
			{
				"x": 1.5153675784,
				"y": -1.3312466884,
				"z": 0.3013030555,
				"element": "C" 
			},
			{
				"x": 1.8885242688,
				"y": -2.6557969835,
				"z": 0.534670172,
				"element": "C" 
			},
			{
				"x": 1.61571996,
				"y": -3.2306608587,
				"z": 1.7740667403,
				"element": "C" 
			},
			{
				"x": 0.9706504702,
				"y": -2.4693643155,
				"z": 2.7509708933,
				"element": "C" 
			},
			{
				"x": 0.6250684742,
				"y": -3.1922613275,
				"z": 4.3082922551,
				"element": "Cl" 
			},
			{
				"x": 0.5875613417,
				"y": -1.1475275707,
				"z": 2.5133667353,
				"element": "C" 
			},
			{
				"x": 0.8638781051,
				"y": -0.5725105284,
				"z": 1.2750261278,
				"element": "C" 
			},
			{
				"x": 3.3757751756,
				"y": 0.9186250478,
				"z": -1.2887783769,
				"element": "H" 
			},
			{
				"x": 2.3734039599,
				"y": -3.2291570622,
				"z": -0.2474665135,
				"element": "H" 
			},
			{
				"x": 1.8938824424,
				"y": -4.2577574314,
				"z": 1.9806046478,
				"element": "H" 
			},
			{
				"x": 0.0775571848,
				"y": -0.5819280624,
				"z": 3.2847225191,
				"element": "H" 
			},
			{
				"x": 0.563602972,
				"y": 0.4468133512,
				"z": 1.0588835861,
				"element": "H" 
			}
		],
		 "valence_orbital": [ 
			{
				"type": "occ",
				"energy": -0.33047,
				"method": "rhf"
			},
			{
				"type": "occ",
				"energy": -0.32943,
				"method": "rhf"
			},
			{
				"type": "occ",
				"energy": -0.313,
				"method": "rhf"
			},
			{
				"type": "occ",
				"energy": -0.29095,
				"method": "rhf"
			},
			{
				"type": "occ",
				"energy": -0.27431,
				"method": "rhf"
			},
			{
				"type": "unocc",
				"energy": -0.05834,
				"method": "rhf"
			},
			{
				"type": "unocc",
				"energy": -0.04032,
				"method": "rhf"
			},
			{
				"type": "unocc",
				"energy": 0.00989,
				"method": "rhf"
			},
			{
				"type": "unocc",
				"energy": 0.03555,
				"method": "rhf"
			},
			{
				"type": "unocc",
				"energy": 0.06673,
				"method": "rhf"
			}
		],
		"cosmo_sigma_profile": { 
			"-0.025": 0.0,
			"-0.024": 0.0,
			"-0.023": 0.0,
			"-0.022": 0.0,
			"-0.021": 0.00449174233847,
			"-0.02": 0.666687369401,
			"-0.019": 0.919780535944,
			"-0.018": 0.805306051967,
			"-0.017": 0.961710752386,
			"-0.016": 0.228632074823,
			"-0.015": 1.04707574716,
			"-0.014": 0.690488677535,
			"-0.013": 0.816475633556,
			"-0.012": 0.625397287113,
			"-0.011": 0.931017813095,
			"-0.01": 0.767782645108,
			"-0.009": 2.4581192146,
			"-0.008": 8.34952542776,
			"-0.007": 8.86963062953,
			"-0.006": 7.15034975107,
			"-0.005": 6.48259622181,
			"-0.004": 7.27746857761,
			"-0.003": 8.94152285197,
			"-0.002": 9.46066523091,
			"-0.001": 14.8261795024,
			"0.0": 21.2777441097,
			"0.001": 21.0308976331,
			"0.002": 8.55491938119,
			"0.003": 12.8609535816,
			"0.004": 10.3158061473,
			"0.005": 3.45731458825,
			"0.006": 4.5909586968,
			"0.007": 3.76849398792,
			"0.008": 6.62579718164,
			"0.009": 9.56188719429,
			"0.01": 8.96599544316,
			"0.011": 2.02601677701,
			"0.012": 0.0,
			"0.013": 0.0,
			"0.014": 0.0,
			"0.015": 0.0,
			"0.016": 0.0,
			"0.017": 0.0,
			"0.018": 0.0,
			"0.019": 0.0,
			"0.02": 0.0,
			"0.021": 0.0,
			"0.022": 0.0,
			"0.023": 0.0,
			"0.024": 0.0,
			"0.025": 0.0
		}
	}
}
