{
	 "smiles": "CSC1=CC=C2C=CC=CC2=C1", 
	 "Tm": 336.15, 
	 "num_atms": 22, 
	 "gaussian": { 
		 "optdone": 1, 
		 "sigma_profile": "yes", 
		 "theory": "DFT", 
		 "functional": "B3LYP", 
		 "basiset": "6-31G**", 
		 "properties": { 
			 "R2extent": 3936.7981, 
			 "electric_dipole_moment_norm": 1.25518462785, 
			 "electric_quadrupole_moment_norm": 12.8168660405, 
			 "total_energy": -823.397777062, 
			 "HOMO_LUMO_gap": 0.16559, 
			 "cosmo_polarized_energy": -6.78, 
			 "cosmo_cavitation_energy": 26.73, 
			 "cosmo_dispersion_energy": -20.37, 
			 "cosmo_repulsion_energy": 1.54, 
			 "cosmo_total_nonelectrostatic_energy": 7.9, 
			 "SMD_solvation_energy": 4.23 
		},
		"coords": [
			{
				"x": 2.7856232053,
				"y": -2.8385636977,
				"z": -2.3939895746,
				"element": "C" 
			},
			{
				"x": 2.9487979705,
				"y": -3.527205044,
				"z": -0.7171674441,
				"element": "S" 
			},
			{
				"x": 2.0917560911,
				"y": -2.3439538331,
				"z": 0.3007368611,
				"element": "C" 
			},
			{
				"x": 2.0641920753,
				"y": -2.642095937,
				"z": 1.6952841416,
				"element": "C" 
			},
			{
				"x": 1.432383693,
				"y": -1.8019345173,
				"z": 2.5768167695,
				"element": "C" 
			},
			{
				"x": 0.7885732689,
				"y": -0.6141921627,
				"z": 2.1317445069,
				"element": "C" 
			},
			{
				"x": 0.1274034805,
				"y": 0.2737681474,
				"z": 3.0191116242,
				"element": "C" 
			},
			{
				"x": -0.4851183191,
				"y": 1.415243149,
				"z": 2.5493000062,
				"element": "C" 
			},
			{
				"x": -0.4608096742,
				"y": 1.7158892203,
				"z": 1.1660196452,
				"element": "C" 
			},
			{
				"x": 0.1733252435,
				"y": 0.8729003199,
				"z": 0.2798255797,
				"element": "C" 
			},
			{
				"x": 0.8142269253,
				"y": -0.311845952,
				"z": 0.7327690896,
				"element": "C" 
			},
			{
				"x": 1.4755816955,
				"y": -1.1982361587,
				"z": -0.1618126042,
				"element": "C" 
			},
			{
				"x": 3.3020187804,
				"y": -3.5388953406,
				"z": -3.0535622035,
				"element": "H" 
			},
			{
				"x": 1.7382172427,
				"y": -2.7712907937,
				"z": -2.6977673059,
				"element": "H" 
			},
			{
				"x": 3.2640403703,
				"y": -1.8592966215,
				"z": -2.47157032,
				"element": "H" 
			},
			{
				"x": 2.5501776534,
				"y": -3.5445635803,
				"z": 2.0554218749,
				"element": "H" 
			},
			{
				"x": 1.4186020637,
				"y": -2.0406279806,
				"z": 3.6372755561,
				"element": "H" 
			},
			{
				"x": 0.1121516747,
				"y": 0.0374441132,
				"z": 4.0802139477,
				"element": "H" 
			},
			{
				"x": -0.988339714,
				"y": 2.0878388301,
				"z": 3.2377053746,
				"element": "H" 
			},
			{
				"x": -0.946264827,
				"y": 2.617862337,
				"z": 0.8042358324,
				"element": "H" 
			},
			{
				"x": 0.1912034432,
				"y": 1.105029052,
				"z": -0.7821580037,
				"element": "H" 
			},
			{
				"x": 1.4796576569,
				"y": -0.9447735498,
				"z": -1.2165333537,
				"element": "H" 
			}
		],
		 "valence_orbital": [ 
			{
				"type": "occ",
				"energy": -0.31938,
				"method": "rhf"
			},
			{
				"type": "occ",
				"energy": -0.28681,
				"method": "rhf"
			},
			{
				"type": "occ",
				"energy": -0.26591,
				"method": "rhf"
			},
			{
				"type": "occ",
				"energy": -0.22475,
				"method": "rhf"
			},
			{
				"type": "occ",
				"energy": -0.20186,
				"method": "rhf"
			},
			{
				"type": "unocc",
				"energy": -0.03627,
				"method": "rhf"
			},
			{
				"type": "unocc",
				"energy": -0.00771,
				"method": "rhf"
			},
			{
				"type": "unocc",
				"energy": 0.03305,
				"method": "rhf"
			},
			{
				"type": "unocc",
				"energy": 0.0364,
				"method": "rhf"
			},
			{
				"type": "unocc",
				"energy": 0.07618,
				"method": "rhf"
			}
		],
		"cosmo_sigma_profile": { 
			"-0.025": 0.0,
			"-0.024": 0.0,
			"-0.023": 0.0,
			"-0.022": 0.0,
			"-0.021": 0.0,
			"-0.02": 0.0,
			"-0.019": 0.0,
			"-0.018": 0.0,
			"-0.017": 0.0,
			"-0.016": 0.0,
			"-0.015": 0.0,
			"-0.014": 0.0,
			"-0.013": 0.0,
			"-0.012": 0.0,
			"-0.011": 0.0,
			"-0.01": 0.0,
			"-0.009": 0.0,
			"-0.008": 0.0,
			"-0.007": 1.75620570827,
			"-0.006": 16.6056076516,
			"-0.005": 21.988448358,
			"-0.004": 19.2158612434,
			"-0.003": 18.2525292505,
			"-0.002": 15.8465723928,
			"-0.001": 13.4624930478,
			"0.0": 8.55000854174,
			"0.001": 10.5544507316,
			"0.002": 12.0577732973,
			"0.003": 13.5666856391,
			"0.004": 26.9471964129,
			"0.005": 23.1982190291,
			"0.006": 6.31250388834,
			"0.007": 3.13900473652,
			"0.008": 2.31998096425,
			"0.009": 1.88253225831,
			"0.01": 0.0695409835714,
			"0.011": 0.0,
			"0.012": 0.0,
			"0.013": 0.0,
			"0.014": 0.0,
			"0.015": 0.0,
			"0.016": 0.0,
			"0.017": 0.0,
			"0.018": 0.0,
			"0.019": 0.0,
			"0.02": 0.0,
			"0.021": 0.0,
			"0.022": 0.0,
			"0.023": 0.0,
			"0.024": 0.0,
			"0.025": 0.0
		}
	}
}
