{
	 "smiles": "NC1=C2C=CC=CC2=NN=C1C#N", 
	 "Tm": 593.15, 
	 "num_atms": 19, 
	 "gaussian": { 
		 "optdone": 1, 
		 "sigma_profile": "yes", 
		 "theory": "DFT", 
		 "functional": "B3LYP", 
		 "basiset": "6-31G**", 
		 "properties": { 
			 "R2extent": 3079.8851, 
			 "electric_dipole_moment_norm": 7.64892532386, 
			 "electric_quadrupole_moment_norm": 24.7338030307, 
			 "total_energy": -565.532825605, 
			 "HOMO_LUMO_gap": 0.16209, 
			 "cosmo_polarized_energy": -20.37, 
			 "cosmo_cavitation_energy": 24.48, 
			 "cosmo_dispersion_energy": -18.01, 
			 "cosmo_repulsion_energy": 1.39, 
			 "cosmo_total_nonelectrostatic_energy": 7.86, 
			 "SMD_solvation_energy": 3.34 
		},
		"coords": [
			{
				"x": 2.9317442589,
				"y": -0.9053478684,
				"z": 0.4918795568,
				"element": "N" 
			},
			{
				"x": 1.856406302,
				"y": -0.5064308723,
				"z": 1.2172934167,
				"element": "C" 
			},
			{
				"x": 0.692588126,
				"y": 0.0750535365,
				"z": 0.6239123983,
				"element": "C" 
			},
			{
				"x": 0.5207071478,
				"y": 0.2960707127,
				"z": -0.7658410388,
				"element": "C" 
			},
			{
				"x": -0.6458069073,
				"y": 0.8566615326,
				"z": -1.2408614764,
				"element": "C" 
			},
			{
				"x": -1.6839480284,
				"y": 1.2201326923,
				"z": -0.3497652229,
				"element": "C" 
			},
			{
				"x": -1.5365838727,
				"y": 1.0234303805,
				"z": 1.0048716468,
				"element": "C" 
			},
			{
				"x": -0.3471607439,
				"y": 0.4507326136,
				"z": 1.520418179,
				"element": "C" 
			},
			{
				"x": -0.2753957579,
				"y": 0.2958834017,
				"z": 2.8858753706,
				"element": "N" 
			},
			{
				"x": 0.7920855405,
				"y": -0.220140231,
				"z": 3.4086583857,
				"element": "N" 
			},
			{
				"x": 1.8311366684,
				"y": -0.6156367425,
				"z": 2.6198218943,
				"element": "C" 
			},
			{
				"x": 2.9628530334,
				"y": -1.190698441,
				"z": 3.2828138537,
				"element": "C" 
			},
			{
				"x": 3.9273783764,
				"y": -1.6756575182,
				"z": 3.7193392809,
				"element": "N" 
			},
			{
				"x": 2.865541754,
				"y": -1.0139357787,
				"z": -0.5059374321,
				"element": "H" 
			},
			{
				"x": 3.6818115616,
				"y": -1.3946933419,
				"z": 0.9586890209,
				"element": "H" 
			},
			{
				"x": 1.3093367348,
				"y": 0.0410193058,
				"z": -1.4676823982,
				"element": "H" 
			},
			{
				"x": -0.7685740382,
				"y": 1.0249764415,
				"z": -2.3063587736,
				"element": "H" 
			},
			{
				"x": -2.596301765,
				"y": 1.6596659607,
				"z": -0.741192951,
				"element": "H" 
			},
			{
				"x": -2.3082183904,
				"y": 1.295414216,
				"z": 1.7171662895,
				"element": "H" 
			}
		],
		 "valence_orbital": [ 
			{
				"type": "occ",
				"energy": -0.32764,
				"method": "rhf"
			},
			{
				"type": "occ",
				"energy": -0.28864,
				"method": "rhf"
			},
			{
				"type": "occ",
				"energy": -0.28216,
				"method": "rhf"
			},
			{
				"type": "occ",
				"energy": -0.23837,
				"method": "rhf"
			},
			{
				"type": "occ",
				"energy": -0.23696,
				"method": "rhf"
			},
			{
				"type": "unocc",
				"energy": -0.07487,
				"method": "rhf"
			},
			{
				"type": "unocc",
				"energy": -0.06094,
				"method": "rhf"
			},
			{
				"type": "unocc",
				"energy": 0.00255,
				"method": "rhf"
			},
			{
				"type": "unocc",
				"energy": 0.02148,
				"method": "rhf"
			},
			{
				"type": "unocc",
				"energy": 0.03056,
				"method": "rhf"
			}
		],
		"cosmo_sigma_profile": { 
			"-0.025": 0.0,
			"-0.024": 0.0,
			"-0.023": 0.0,
			"-0.022": 0.0,
			"-0.021": 0.0,
			"-0.02": 0.0,
			"-0.019": 0.0,
			"-0.018": 0.0,
			"-0.017": 0.0944324504863,
			"-0.016": 1.03563434447,
			"-0.015": 2.119084308,
			"-0.014": 2.02535587724,
			"-0.013": 2.60308047051,
			"-0.012": 2.61184391078,
			"-0.011": 2.49996746529,
			"-0.01": 1.89622362654,
			"-0.009": 2.35083647576,
			"-0.008": 3.31634698307,
			"-0.007": 8.4130309636,
			"-0.006": 10.7956062178,
			"-0.005": 9.24097325257,
			"-0.004": 8.34604563957,
			"-0.003": 11.0039263159,
			"-0.002": 13.6162203194,
			"-0.001": 12.5556878735,
			"0.0": 13.9958237828,
			"0.001": 14.9064388895,
			"0.002": 15.5026845849,
			"0.003": 11.6720859114,
			"0.004": 4.28006420334,
			"0.005": 4.59539344863,
			"0.006": 4.61546042719,
			"0.007": 3.97163980447,
			"0.008": 5.83577982792,
			"0.009": 4.08768573142,
			"0.01": 4.99939395419,
			"0.011": 3.66162897603,
			"0.012": 4.83884092312,
			"0.013": 3.62974766323,
			"0.014": 2.25002118042,
			"0.015": 1.03614514261,
			"0.016": 0.372207310296,
			"0.017": 0.0,
			"0.018": 0.0,
			"0.019": 0.0,
			"0.02": 0.0,
			"0.021": 0.0,
			"0.022": 0.0,
			"0.023": 0.0,
			"0.024": 0.0,
			"0.025": 0.0
		}
	}
}
