{
	 "smiles": "CCCCN1C(=O)C2=C(C=C(C=C2)C(O)=O)C1=O", 
	 "Tm": 426.15, 
	 "num_atms": 31, 
	 "gaussian": { 
		 "optdone": 1, 
		 "sigma_profile": "yes", 
		 "theory": "DFT", 
		 "functional": "B3LYP", 
		 "basiset": "6-31G**", 
		 "properties": { 
			 "R2extent": 6053.9965, 
			 "electric_dipole_moment_norm": 2.98019130091, 
			 "electric_quadrupole_moment_norm": 14.7639830039, 
			 "total_energy": -858.917629149, 
			 "HOMO_LUMO_gap": 0.1749, 
			 "cosmo_polarized_energy": -18.74, 
			 "cosmo_cavitation_energy": 35.97, 
			 "cosmo_dispersion_energy": -25.14, 
			 "cosmo_repulsion_energy": 1.94, 
			 "cosmo_total_nonelectrostatic_energy": 12.78, 
			 "SMD_solvation_energy": 8.19 
		},
		"coords": [
			{
				"x": -3.4629186184,
				"y": -1.5354852653,
				"z": 3.6274057139,
				"element": "C" 
			},
			{
				"x": -2.9699803999,
				"y": -1.6486675597,
				"z": 2.1812249244,
				"element": "C" 
			},
			{
				"x": -2.0618764712,
				"y": -2.8647706868,
				"z": 1.9615593028,
				"element": "C" 
			},
			{
				"x": -1.5798996382,
				"y": -3.0487185065,
				"z": 0.5159646613,
				"element": "C" 
			},
			{
				"x": -0.7358702936,
				"y": -1.955725354,
				"z": 0.0349896495,
				"element": "N" 
			},
			{
				"x": -1.1770444163,
				"y": -0.9441964874,
				"z": -0.8345130982,
				"element": "C" 
			},
			{
				"x": -2.3005636643,
				"y": -0.8343531725,
				"z": -1.2814003822,
				"element": "O" 
			},
			{
				"x": 0.0159417029,
				"y": -0.0733098188,
				"z": -1.0781220772,
				"element": "C" 
			},
			{
				"x": 1.0905860804,
				"y": -0.5999987481,
				"z": -0.3624433213,
				"element": "C" 
			},
			{
				"x": 2.3430267084,
				"y": -0.0090251943,
				"z": -0.3926676029,
				"element": "C" 
			},
			{
				"x": 2.4996908512,
				"y": 1.1513192393,
				"z": -1.1717367559,
				"element": "C" 
			},
			{
				"x": 1.4163494424,
				"y": 1.6650361438,
				"z": -1.9069519501,
				"element": "C" 
			},
			{
				"x": 0.1559312276,
				"y": 1.0628064985,
				"z": -1.8637784889,
				"element": "C" 
			},
			{
				"x": 3.8134053939,
				"y": 1.8734173276,
				"z": -1.298759082,
				"element": "C" 
			},
			{
				"x": 4.7348420408,
				"y": 1.6482465005,
				"z": -0.3288729442,
				"element": "O" 
			},
			{
				"x": 4.0627138002,
				"y": 2.6228273809,
				"z": -2.2124461287,
				"element": "O" 
			},
			{
				"x": 0.6225068081,
				"y": -1.8246862749,
				"z": 0.3558317207,
				"element": "C" 
			},
			{
				"x": 1.2572505552,
				"y": -2.574411587,
				"z": 1.0713960964,
				"element": "O" 
			},
			{
				"x": -4.0423145643,
				"y": -2.4186116275,
				"z": 3.919823791,
				"element": "H" 
			},
			{
				"x": -2.6242101155,
				"y": -1.4451651682,
				"z": 4.3271065158,
				"element": "H" 
			},
			{
				"x": -4.103997116,
				"y": -0.658460277,
				"z": 3.7613665965,
				"element": "H" 
			},
			{
				"x": -2.429970334,
				"y": -0.7328614424,
				"z": 1.9095727672,
				"element": "H" 
			},
			{
				"x": -3.8277379797,
				"y": -1.7062568352,
				"z": 1.4990300792,
				"element": "H" 
			},
			{
				"x": -2.6008061066,
				"y": -3.7799879329,
				"z": 2.2410378215,
				"element": "H" 
			},
			{
				"x": -1.187228267,
				"y": -2.8090652866,
				"z": 2.6210378704,
				"element": "H" 
			},
			{
				"x": -2.4268440011,
				"y": -3.1043312521,
				"z": -0.1733734445,
				"element": "H" 
			},
			{
				"x": -0.9966950848,
				"y": -3.9701846536,
				"z": 0.4307226939,
				"element": "H" 
			},
			{
				"x": 3.1656595811,
				"y": -0.4701381184,
				"z": 0.1475281512,
				"element": "H" 
			},
			{
				"x": 1.5929228157,
				"y": 2.546640609,
				"z": -2.5135088635,
				"element": "H" 
			},
			{
				"x": -0.6828841317,
				"y": 1.4610062345,
				"z": -2.4250521747,
				"element": "H" 
			},
			{
				"x": 4.3468141949,
				"y": 1.1575113149,
				"z": 0.4086279588,
				"element": "H" 
			}
		],
		 "valence_orbital": [ 
			{
				"type": "occ",
				"energy": -0.29948,
				"method": "rhf"
			},
			{
				"type": "occ",
				"energy": -0.29696,
				"method": "rhf"
			},
			{
				"type": "occ",
				"energy": -0.28842,
				"method": "rhf"
			},
			{
				"type": "occ",
				"energy": -0.27997,
				"method": "rhf"
			},
			{
				"type": "occ",
				"energy": -0.27699,
				"method": "rhf"
			},
			{
				"type": "unocc",
				"energy": -0.10209,
				"method": "rhf"
			},
			{
				"type": "unocc",
				"energy": -0.06743,
				"method": "rhf"
			},
			{
				"type": "unocc",
				"energy": -0.0186,
				"method": "rhf"
			},
			{
				"type": "unocc",
				"energy": 0.04475,
				"method": "rhf"
			},
			{
				"type": "unocc",
				"energy": 0.05817,
				"method": "rhf"
			}
		],
		"cosmo_sigma_profile": { 
			"-0.025": 0.0,
			"-0.024": 0.0,
			"-0.023": 0.0,
			"-0.022": 0.0,
			"-0.021": 0.0,
			"-0.02": 0.213631619416,
			"-0.019": 0.936204428257,
			"-0.018": 1.03458880893,
			"-0.017": 1.06471311515,
			"-0.016": 0.685085927826,
			"-0.015": 1.25660035649,
			"-0.014": 1.80397620247,
			"-0.013": 0.611289416113,
			"-0.012": 0.957752851836,
			"-0.011": 1.58681485411,
			"-0.01": 1.19069318558,
			"-0.009": 1.44358067949,
			"-0.008": 3.44544761048,
			"-0.007": 6.70695580733,
			"-0.006": 8.70949219496,
			"-0.005": 13.1501751283,
			"-0.004": 16.5126950905,
			"-0.003": 28.9134664937,
			"-0.002": 33.2429977477,
			"-0.001": 31.8026437899,
			"0.0": 29.3901042865,
			"0.001": 19.5218666058,
			"0.002": 9.70577874903,
			"0.003": 5.6925775327,
			"0.004": 6.59374780117,
			"0.005": 5.3421279586,
			"0.006": 5.61531263095,
			"0.007": 4.95383181421,
			"0.008": 6.04093689365,
			"0.009": 7.66273900418,
			"0.01": 10.8976153131,
			"0.011": 14.0150903451,
			"0.012": 4.47590666386,
			"0.013": 0.43087330263,
			"0.014": 0.0,
			"0.015": 0.0,
			"0.016": 0.0,
			"0.017": 0.0,
			"0.018": 0.0,
			"0.019": 0.0,
			"0.02": 0.0,
			"0.021": 0.0,
			"0.022": 0.0,
			"0.023": 0.0,
			"0.024": 0.0,
			"0.025": 0.0
		}
	}
}
