{
	 "smiles": "ClC1=C(CCCC1)C#N", 
	 "Tm": 312.15, 
	 "num_atms": 17, 
	 "gaussian": { 
		 "optdone": 1, 
		 "sigma_profile": "yes", 
		 "theory": "DFT", 
		 "functional": "B3LYP", 
		 "basiset": "6-31G**", 
		 "properties": { 
			 "R2extent": 2623.0855, 
			 "electric_dipole_moment_norm": 5.37568921163, 
			 "electric_quadrupole_moment_norm": 16.7095336147, 
			 "total_energy": -786.490936179, 
			 "HOMO_LUMO_gap": 0.2103, 
			 "cosmo_polarized_energy": -8.79, 
			 "cosmo_cavitation_energy": 22.14, 
			 "cosmo_dispersion_energy": -16.17, 
			 "cosmo_repulsion_energy": 1.35, 
			 "cosmo_total_nonelectrostatic_energy": 7.32, 
			 "SMD_solvation_energy": 4.24 
		},
		"coords": [
			{
				"x": 2.508481276,
				"y": -2.2007820018,
				"z": -2.1427796064,
				"element": "Cl" 
			},
			{
				"x": 1.0823401815,
				"y": -1.2533497308,
				"z": -1.7732175114,
				"element": "C" 
			},
			{
				"x": 1.0912503809,
				"y": 0.0903791191,
				"z": -1.8898519089,
				"element": "C" 
			},
			{
				"x": -0.1511861156,
				"y": 0.9295880084,
				"z": -1.6141963269,
				"element": "C" 
			},
			{
				"x": -1.4300695459,
				"y": 0.0846829119,
				"z": -1.5802970899,
				"element": "C" 
			},
			{
				"x": -1.2220024984,
				"y": -1.1819771759,
				"z": -0.7446287089,
				"element": "C" 
			},
			{
				"x": -0.1137296426,
				"y": -2.0597952529,
				"z": -1.3469330834,
				"element": "C" 
			},
			{
				"x": 2.2663474985,
				"y": 0.8094919256,
				"z": -2.2736744832,
				"element": "C" 
			},
			{
				"x": 3.1809718722,
				"y": 1.461883577,
				"z": -2.5779857485,
				"element": "N" 
			},
			{
				"x": -0.2237776808,
				"y": 1.7093772093,
				"z": -2.3802228597,
				"element": "H" 
			},
			{
				"x": -0.0131575897,
				"y": 1.4548295322,
				"z": -0.6591021141,
				"element": "H" 
			},
			{
				"x": -1.710047404,
				"y": -0.1950504648,
				"z": -2.6039652462,
				"element": "H" 
			},
			{
				"x": -2.2539001647,
				"y": 0.6833686932,
				"z": -1.1779984403,
				"element": "H" 
			},
			{
				"x": -0.9459968411,
				"y": -0.9016620263,
				"z": 0.2796805769,
				"element": "H" 
			},
			{
				"x": -2.1477413759,
				"y": -1.7625998455,
				"z": -0.6760943915,
				"element": "H" 
			},
			{
				"x": -0.4860773973,
				"y": -2.6108235448,
				"z": -2.2222508811,
				"element": "H" 
			},
			{
				"x": 0.2119950469,
				"y": -2.8217609339,
				"z": -0.6300821765,
				"element": "H" 
			}
		],
		 "valence_orbital": [ 
			{
				"type": "occ",
				"energy": -0.35011,
				"method": "rhf"
			},
			{
				"type": "occ",
				"energy": -0.33808,
				"method": "rhf"
			},
			{
				"type": "occ",
				"energy": -0.32933,
				"method": "rhf"
			},
			{
				"type": "occ",
				"energy": -0.31536,
				"method": "rhf"
			},
			{
				"type": "occ",
				"energy": -0.25795,
				"method": "rhf"
			},
			{
				"type": "unocc",
				"energy": -0.04765,
				"method": "rhf"
			},
			{
				"type": "unocc",
				"energy": 0.01843,
				"method": "rhf"
			},
			{
				"type": "unocc",
				"energy": 0.03529,
				"method": "rhf"
			},
			{
				"type": "unocc",
				"energy": 0.07834,
				"method": "rhf"
			},
			{
				"type": "unocc",
				"energy": 0.09297,
				"method": "rhf"
			}
		],
		"cosmo_sigma_profile": { 
			"-0.025": 0.0,
			"-0.024": 0.0,
			"-0.023": 0.0,
			"-0.022": 0.0,
			"-0.021": 0.0,
			"-0.02": 0.0,
			"-0.019": 0.0,
			"-0.018": 0.0,
			"-0.017": 0.0,
			"-0.016": 0.0,
			"-0.015": 0.0,
			"-0.014": 0.0,
			"-0.013": 0.0,
			"-0.012": 0.0,
			"-0.011": 0.0,
			"-0.01": 0.0,
			"-0.009": 0.0,
			"-0.008": 0.0,
			"-0.007": 0.0,
			"-0.006": 2.99039505123,
			"-0.005": 11.6990232983,
			"-0.004": 22.1286911106,
			"-0.003": 28.5970941249,
			"-0.002": 23.5071089839,
			"-0.001": 17.6977458133,
			"0.0": 12.6739524276,
			"0.001": 6.46502325083,
			"0.002": 6.36038106417,
			"0.003": 10.3976952852,
			"0.004": 8.85497936091,
			"0.005": 3.03112554032,
			"0.006": 2.69544625296,
			"0.007": 3.2654980187,
			"0.008": 3.35579071672,
			"0.009": 3.7132601883,
			"0.01": 3.06746246697,
			"0.011": 2.91160602295,
			"0.012": 2.36406232633,
			"0.013": 1.64116342327,
			"0.014": 0.0895306526005,
			"0.015": 0.0,
			"0.016": 0.0,
			"0.017": 0.0,
			"0.018": 0.0,
			"0.019": 0.0,
			"0.02": 0.0,
			"0.021": 0.0,
			"0.022": 0.0,
			"0.023": 0.0,
			"0.024": 0.0,
			"0.025": 0.0
		}
	}
}
