{
	 "smiles": "COC(=O)C1=NC2=C(C=CC=C2)C=C1", 
	 "Tm": 357.15, 
	 "num_atms": 23, 
	 "gaussian": { 
		 "optdone": 1, 
		 "sigma_profile": "yes", 
		 "theory": "DFT", 
		 "functional": "B3LYP", 
		 "basiset": "6-31G**", 
		 "properties": { 
			 "R2extent": 3459.3403, 
			 "electric_dipole_moment_norm": 3.48977209141, 
			 "electric_quadrupole_moment_norm": 15.5062901901, 
			 "total_energy": -629.804952457, 
			 "HOMO_LUMO_gap": 0.16926, 
			 "cosmo_polarized_energy": -12.74, 
			 "cosmo_cavitation_energy": 27.82, 
			 "cosmo_dispersion_energy": -20.62, 
			 "cosmo_repulsion_energy": 1.6, 
			 "cosmo_total_nonelectrostatic_energy": 8.8, 
			 "SMD_solvation_energy": 4.92 
		},
		"coords": [
			{
				"x": -4.6123954927,
				"y": -0.5190130263,
				"z": -1.1596261504,
				"element": "C" 
			},
			{
				"x": -3.1877162242,
				"y": -0.5695056362,
				"z": -0.9920573568,
				"element": "O" 
			},
			{
				"x": -2.7251474166,
				"y": 0.0045425485,
				"z": 0.1470874764,
				"element": "C" 
			},
			{
				"x": -3.4427031659,
				"y": 0.5238343655,
				"z": 0.9699769612,
				"element": "O" 
			},
			{
				"x": -1.2227008586,
				"y": -0.0955617314,
				"z": 0.2374967047,
				"element": "C" 
			},
			{
				"x": -0.6864679358,
				"y": 0.4398396844,
				"z": 1.3187530381,
				"element": "N" 
			},
			{
				"x": 0.6641314561,
				"y": 0.3841509663,
				"z": 1.4628598539,
				"element": "C" 
			},
			{
				"x": 1.5192531608,
				"y": -0.2302473768,
				"z": 0.4901831267,
				"element": "C" 
			},
			{
				"x": 2.9209485956,
				"y": -0.2479681446,
				"z": 0.7132089557,
				"element": "C" 
			},
			{
				"x": 3.4509786903,
				"y": 0.3185685548,
				"z": 1.8506510585,
				"element": "C" 
			},
			{
				"x": 2.6055866465,
				"y": 0.9269480012,
				"z": 2.8141626456,
				"element": "C" 
			},
			{
				"x": 1.2430098478,
				"y": 0.9603540337,
				"z": 2.6270087007,
				"element": "C" 
			},
			{
				"x": 0.899716498,
				"y": -0.7917090907,
				"z": -0.6541205653,
				"element": "C" 
			},
			{
				"x": -0.4664808841,
				"y": -0.728790813,
				"z": -0.787653913,
				"element": "C" 
			},
			{
				"x": -5.1147126748,
				"y": -1.0369974099,
				"z": -0.3386610729,
				"element": "H" 
			},
			{
				"x": -4.9601255714,
				"y": 0.5168790563,
				"z": -1.1845323565,
				"element": "H" 
			},
			{
				"x": -4.8164254764,
				"y": -1.0152183449,
				"z": -2.10845406,
				"element": "H" 
			},
			{
				"x": 3.5665272199,
				"y": -0.7146395277,
				"z": -0.0264164847,
				"element": "H" 
			},
			{
				"x": 4.5242964214,
				"y": 0.3019956137,
				"z": 2.0159299006,
				"element": "H" 
			},
			{
				"x": 3.0434197648,
				"y": 1.3682088628,
				"z": 3.70469866,
				"element": "H" 
			},
			{
				"x": 0.5725036268,
				"y": 1.4185255951,
				"z": 3.3464562609,
				"element": "H" 
			},
			{
				"x": 1.5124625749,
				"y": -1.2672332188,
				"z": -1.4158876343,
				"element": "H" 
			},
			{
				"x": -0.9734588024,
				"y": -1.1467629619,
				"z": -1.6478637491,
				"element": "H" 
			}
		],
		 "valence_orbital": [ 
			{
				"type": "occ",
				"energy": -0.29951,
				"method": "rhf"
			},
			{
				"type": "occ",
				"energy": -0.27007,
				"method": "rhf"
			},
			{
				"type": "occ",
				"energy": -0.25982,
				"method": "rhf"
			},
			{
				"type": "occ",
				"energy": -0.25727,
				"method": "rhf"
			},
			{
				"type": "occ",
				"energy": -0.23801,
				"method": "rhf"
			},
			{
				"type": "unocc",
				"energy": -0.06875,
				"method": "rhf"
			},
			{
				"type": "unocc",
				"energy": -0.03525,
				"method": "rhf"
			},
			{
				"type": "unocc",
				"energy": 0.01108,
				"method": "rhf"
			},
			{
				"type": "unocc",
				"energy": 0.03853,
				"method": "rhf"
			},
			{
				"type": "unocc",
				"energy": 0.09164,
				"method": "rhf"
			}
		],
		"cosmo_sigma_profile": { 
			"-0.025": 0.0,
			"-0.024": 0.0,
			"-0.023": 0.0,
			"-0.022": 0.0,
			"-0.021": 0.0,
			"-0.02": 0.0,
			"-0.019": 0.0,
			"-0.018": 0.0,
			"-0.017": 0.0,
			"-0.016": 0.0,
			"-0.015": 0.0,
			"-0.014": 0.0,
			"-0.013": 0.0,
			"-0.012": 0.0,
			"-0.011": 0.0,
			"-0.01": 0.0,
			"-0.009": 0.0,
			"-0.008": 1.34245589528,
			"-0.007": 7.93208244753,
			"-0.006": 17.2370715882,
			"-0.005": 18.6530111871,
			"-0.004": 20.2806855962,
			"-0.003": 18.0523145156,
			"-0.002": 14.5157232842,
			"-0.001": 13.2097864049,
			"0.0": 16.0679319814,
			"0.001": 22.3851819849,
			"0.002": 19.8512571312,
			"0.003": 14.5317692208,
			"0.004": 9.78393519303,
			"0.005": 4.35861322837,
			"0.006": 2.10921390402,
			"0.007": 2.06188272168,
			"0.008": 2.5163687424,
			"0.009": 1.69108305969,
			"0.01": 2.64115788507,
			"0.011": 3.89705709479,
			"0.012": 3.96726549099,
			"0.013": 1.39729170414,
			"0.014": 1.55518879569,
			"0.015": 1.10979221608,
			"0.016": 0.887955014223,
			"0.017": 1.04887000639,
			"0.018": 0.409968102031,
			"0.019": 0.0,
			"0.02": 0.0,
			"0.021": 0.0,
			"0.022": 0.0,
			"0.023": 0.0,
			"0.024": 0.0,
			"0.025": 0.0
		}
	}
}
