{
	 "smiles": "ClC1=C(CN2CCC(=O)CC2)C=CC=C1", 
	 "Tm": 336.15, 
	 "num_atms": 29, 
	 "gaussian": { 
		 "optdone": 1, 
		 "sigma_profile": "yes", 
		 "theory": "DFT", 
		 "functional": "B3LYP", 
		 "basiset": "6-31G**", 
		 "properties": { 
			 "R2extent": 4267.0808, 
			 "electric_dipole_moment_norm": 3.10361550776, 
			 "electric_quadrupole_moment_norm": 17.3860940927, 
			 "total_energy": -1055.86420884, 
			 "HOMO_LUMO_gap": 0.18507, 
			 "cosmo_polarized_energy": -10.53, 
			 "cosmo_cavitation_energy": 32.09, 
			 "cosmo_dispersion_energy": -22.98, 
			 "cosmo_repulsion_energy": 1.79, 
			 "cosmo_total_nonelectrostatic_energy": 10.9, 
			 "SMD_solvation_energy": 3.05 
		},
		"coords": [
			{
				"x": -1.5702541175,
				"y": -3.770071296,
				"z": -0.1584973785,
				"element": "Cl" 
			},
			{
				"x": -1.1217257162,
				"y": -2.4254104428,
				"z": -1.2171156483,
				"element": "C" 
			},
			{
				"x": -1.3108215705,
				"y": -1.0942157447,
				"z": -0.8135572499,
				"element": "C" 
			},
			{
				"x": -1.8354751948,
				"y": -0.6865413022,
				"z": 0.5653652973,
				"element": "C" 
			},
			{
				"x": -0.8413585007,
				"y": -0.3123555873,
				"z": 1.5716566138,
				"element": "N" 
			},
			{
				"x": 0.0505689696,
				"y": -1.402268336,
				"z": 1.9758404318,
				"element": "C" 
			},
			{
				"x": 1.1607447848,
				"y": -0.8948224789,
				"z": 2.9022203466,
				"element": "C" 
			},
			{
				"x": 2.0333380887,
				"y": 0.1445507805,
				"z": 2.2072272261,
				"element": "C" 
			},
			{
				"x": 3.2006212725,
				"y": 0.3263280248,
				"z": 2.4903310739,
				"element": "O" 
			},
			{
				"x": 1.3063187153,
				"y": 0.9369902586,
				"z": 1.1261698915,
				"element": "C" 
			},
			{
				"x": -0.2004810123,
				"y": 1.0047239906,
				"z": 1.4243555688,
				"element": "C" 
			},
			{
				"x": -0.9821910436,
				"y": -0.1039073315,
				"z": -1.7559376085,
				"element": "C" 
			},
			{
				"x": -0.4648753128,
				"y": -0.4130368316,
				"z": -3.0117469312,
				"element": "C" 
			},
			{
				"x": -0.2699482922,
				"y": -1.7479213496,
				"z": -3.3689516242,
				"element": "C" 
			},
			{
				"x": -0.6066669897,
				"y": -2.7586915749,
				"z": -2.4718725661,
				"element": "C" 
			},
			{
				"x": -2.513012824,
				"y": 0.1643184393,
				"z": 0.4372624295,
				"element": "H" 
			},
			{
				"x": -2.4326078021,
				"y": -1.5051243918,
				"z": 0.9778445292,
				"element": "H" 
			},
			{
				"x": 0.5223266966,
				"y": -1.9019902882,
				"z": 1.1112817214,
				"element": "H" 
			},
			{
				"x": -0.5425792217,
				"y": -2.1710517078,
				"z": 2.4852233603,
				"element": "H" 
			},
			{
				"x": 0.7162041191,
				"y": -0.4201815308,
				"z": 3.7885526748,
				"element": "H" 
			},
			{
				"x": 1.7947325271,
				"y": -1.7116943158,
				"z": 3.257147647,
				"element": "H" 
			},
			{
				"x": 1.477600732,
				"y": 0.4298539968,
				"z": 0.1664424178,
				"element": "H" 
			},
			{
				"x": 1.7564542408,
				"y": 1.931675073,
				"z": 1.0517737535,
				"element": "H" 
			},
			{
				"x": -0.342794005,
				"y": 1.5835203947,
				"z": 2.3500562014,
				"element": "H" 
			},
			{
				"x": -0.7091159009,
				"y": 1.5696949489,
				"z": 0.6391583668,
				"element": "H" 
			},
			{
				"x": -1.1543921561,
				"y": 0.9369382733,
				"z": -1.4959299562,
				"element": "H" 
			},
			{
				"x": -0.2254807045,
				"y": 0.3825430829,
				"z": -3.7108169611,
				"element": "H" 
			},
			{
				"x": 0.1301749946,
				"y": -2.0063464369,
				"z": -4.3446603549,
				"element": "H" 
			},
			{
				"x": -0.4795047764,
				"y": -3.8026063168,
				"z": -2.7365232724,
				"element": "H" 
			}
		],
		 "valence_orbital": [ 
			{
				"type": "occ",
				"energy": -0.31394,
				"method": "rhf"
			},
			{
				"type": "occ",
				"energy": -0.26474,
				"method": "rhf"
			},
			{
				"type": "occ",
				"energy": -0.25167,
				"method": "rhf"
			},
			{
				"type": "occ",
				"energy": -0.23761,
				"method": "rhf"
			},
			{
				"type": "occ",
				"energy": -0.20756,
				"method": "rhf"
			},
			{
				"type": "unocc",
				"energy": -0.02249,
				"method": "rhf"
			},
			{
				"type": "unocc",
				"energy": -0.01939,
				"method": "rhf"
			},
			{
				"type": "unocc",
				"energy": -0.01114,
				"method": "rhf"
			},
			{
				"type": "unocc",
				"energy": 0.02448,
				"method": "rhf"
			},
			{
				"type": "unocc",
				"energy": 0.07518,
				"method": "rhf"
			}
		],
		"cosmo_sigma_profile": { 
			"-0.025": 0.0,
			"-0.024": 0.0,
			"-0.023": 0.0,
			"-0.022": 0.0,
			"-0.021": 0.0,
			"-0.02": 0.0,
			"-0.019": 0.0,
			"-0.018": 0.0,
			"-0.017": 0.0,
			"-0.016": 0.0,
			"-0.015": 0.0,
			"-0.014": 0.0,
			"-0.013": 0.0,
			"-0.012": 0.0,
			"-0.011": 0.0,
			"-0.01": 0.0,
			"-0.009": 0.0112495218301,
			"-0.008": 0.628208354305,
			"-0.007": 4.6827372703,
			"-0.006": 13.4584066644,
			"-0.005": 20.0850895094,
			"-0.004": 23.8179404993,
			"-0.003": 25.6114821247,
			"-0.002": 27.6689016123,
			"-0.001": 21.5864519967,
			"0.0": 16.3283033772,
			"0.001": 16.547729876,
			"0.002": 16.658800604,
			"0.003": 17.2174285567,
			"0.004": 15.7643080933,
			"0.005": 10.4096250301,
			"0.006": 2.52359571175,
			"0.007": 2.28981051591,
			"0.008": 1.94047450085,
			"0.009": 2.162273462,
			"0.01": 2.94984467808,
			"0.011": 3.43249409029,
			"0.012": 4.93545844952,
			"0.013": 3.33990880469,
			"0.014": 0.985228553172,
			"0.015": 0.0451808991686,
			"0.016": 0.0,
			"0.017": 0.0,
			"0.018": 0.0,
			"0.019": 0.0,
			"0.02": 0.0,
			"0.021": 0.0,
			"0.022": 0.0,
			"0.023": 0.0,
			"0.024": 0.0,
			"0.025": 0.0
		}
	}
}
