{
	 "smiles": "[O-][N+](=O)C1=CC=C(C=C1)C1=NN=C2SC(NN12)C1=CC=CO1", 
	 "Tm": 483.15, 
	 "num_atms": 31, 
	 "gaussian": { 
		 "optdone": 1, 
		 "sigma_profile": "yes", 
		 "theory": "DFT", 
		 "functional": "B3LYP", 
		 "basiset": "6-31G**", 
		 "properties": { 
			 "R2extent": 9131.8194, 
			 "electric_dipole_moment_norm": 6.76338067611, 
			 "electric_quadrupole_moment_norm": 33.7864182048, 
			 "total_energy": -1398.2197325, 
			 "HOMO_LUMO_gap": 0.1407, 
			 "cosmo_polarized_energy": -22.8, 
			 "cosmo_cavitation_energy": 38.97, 
			 "cosmo_dispersion_energy": -27.97, 
			 "cosmo_repulsion_energy": 2.05, 
			 "cosmo_total_nonelectrostatic_energy": 13.04, 
			 "SMD_solvation_energy": 6.84 
		},
		"coords": [
			{
				"x": 5.6194082826,
				"y": 3.2299232101,
				"z": 0.3384881017,
				"element": "O" 
			},
			{
				"x": 5.1448948357,
				"y": 2.0942806142,
				"z": 0.3379260187,
				"element": "N" 
			},
			{
				"x": 5.7822524174,
				"y": 1.0677052525,
				"z": 0.100829256,
				"element": "O" 
			},
			{
				"x": 3.7140962845,
				"y": 1.953401443,
				"z": 0.6427255114,
				"element": "C" 
			},
			{
				"x": 3.1465523867,
				"y": 0.681418102,
				"z": 0.64549026,
				"element": "C" 
			},
			{
				"x": 1.7931256256,
				"y": 0.5477167205,
				"z": 0.9376165348,
				"element": "C" 
			},
			{
				"x": 1.0148562855,
				"y": 1.6830712199,
				"z": 1.2252922367,
				"element": "C" 
			},
			{
				"x": 1.6135496307,
				"y": 2.9576675678,
				"z": 1.2108696918,
				"element": "C" 
			},
			{
				"x": 2.9630116683,
				"y": 3.0968393393,
				"z": 0.9196526272,
				"element": "C" 
			},
			{
				"x": -0.4127817195,
				"y": 1.595268007,
				"z": 1.528612268,
				"element": "C" 
			},
			{
				"x": -1.2267682386,
				"y": 2.6323294023,
				"z": 1.6549124312,
				"element": "N" 
			},
			{
				"x": -2.5102156645,
				"y": 2.1844356551,
				"z": 1.9115154974,
				"element": "N" 
			},
			{
				"x": -2.4333581096,
				"y": 0.8788776565,
				"z": 1.9603644763,
				"element": "C" 
			},
			{
				"x": -3.5479414862,
				"y": -0.4671824581,
				"z": 2.177937437,
				"element": "S" 
			},
			{
				"x": -2.1959279225,
				"y": -1.5678975762,
				"z": 1.4383267238,
				"element": "C" 
			},
			{
				"x": -0.9020687004,
				"y": -0.9333470147,
				"z": 1.7711261681,
				"element": "N" 
			},
			{
				"x": -1.1535687986,
				"y": 0.4516233222,
				"z": 1.7352967536,
				"element": "N" 
			},
			{
				"x": -2.3776989825,
				"y": -1.7408383795,
				"z": -0.0324432937,
				"element": "C" 
			},
			{
				"x": -3.1325747383,
				"y": -1.1353567574,
				"z": -0.9938811529,
				"element": "C" 
			},
			{
				"x": -2.8006365219,
				"y": -1.7795411928,
				"z": -2.2297948559,
				"element": "C" 
			},
			{
				"x": -1.8731751659,
				"y": -2.7282332056,
				"z": -1.9262649402,
				"element": "C" 
			},
			{
				"x": -1.6025880818,
				"y": -2.7225993878,
				"z": -0.5909908838,
				"element": "O" 
			},
			{
				"x": 3.7653454079,
				"y": -0.1773908861,
				"z": 0.4181037495,
				"element": "H" 
			},
			{
				"x": 1.3359608953,
				"y": -0.4352083538,
				"z": 0.9299898034,
				"element": "H" 
			},
			{
				"x": 1.0006987743,
				"y": 3.8246783819,
				"z": 1.4290429469,
				"element": "H" 
			},
			{
				"x": 3.4441512359,
				"y": 4.0666197875,
				"z": 0.9047509636,
				"element": "H" 
			},
			{
				"x": -2.2226076573,
				"y": -2.5354115167,
				"z": 1.9456744613,
				"element": "H" 
			},
			{
				"x": -0.6614578432,
				"y": -1.1658089399,
				"z": 2.7380268766,
				"element": "H" 
			},
			{
				"x": -3.8405168205,
				"y": -0.3347833643,
				"z": -0.8412406351,
				"element": "H" 
			},
			{
				"x": -3.2048155846,
				"y": -1.5623149969,
				"z": -3.2076432084,
				"element": "H" 
			},
			{
				"x": -1.3348016942,
				"y": -3.458141652,
				"z": -2.5108118252,
				"element": "H" 
			}
		],
		 "valence_orbital": [ 
			{
				"type": "occ",
				"energy": -0.2856,
				"method": "rhf"
			},
			{
				"type": "occ",
				"energy": -0.28124,
				"method": "rhf"
			},
			{
				"type": "occ",
				"energy": -0.26949,
				"method": "rhf"
			},
			{
				"type": "occ",
				"energy": -0.25193,
				"method": "rhf"
			},
			{
				"type": "occ",
				"energy": -0.23675,
				"method": "rhf"
			},
			{
				"type": "unocc",
				"energy": -0.09605,
				"method": "rhf"
			},
			{
				"type": "unocc",
				"energy": -0.03656,
				"method": "rhf"
			},
			{
				"type": "unocc",
				"energy": -0.03034,
				"method": "rhf"
			},
			{
				"type": "unocc",
				"energy": -0.02749,
				"method": "rhf"
			},
			{
				"type": "unocc",
				"energy": -0.02088,
				"method": "rhf"
			}
		],
		"cosmo_sigma_profile": { 
			"-0.025": 0.0,
			"-0.024": 0.0,
			"-0.023": 0.0,
			"-0.022": 0.0,
			"-0.021": 0.0,
			"-0.02": 0.0,
			"-0.019": 0.0,
			"-0.018": 0.0,
			"-0.017": 0.0,
			"-0.016": 1.26886446707,
			"-0.015": 2.48359289907,
			"-0.014": 1.90536565692,
			"-0.013": 1.99870999837,
			"-0.012": 1.69885580015,
			"-0.011": 3.63381029231,
			"-0.01": 3.23293421987,
			"-0.009": 4.33584610173,
			"-0.008": 6.87356805195,
			"-0.007": 10.7373813761,
			"-0.006": 13.6491989503,
			"-0.005": 13.8780197194,
			"-0.004": 15.9875274668,
			"-0.003": 19.4605509126,
			"-0.002": 21.8802595309,
			"-0.001": 25.1769475957,
			"0.0": 27.4436389042,
			"0.001": 27.8575519216,
			"0.002": 18.4667621036,
			"0.003": 15.4852346876,
			"0.004": 13.8965934962,
			"0.005": 10.581502581,
			"0.006": 8.95729693934,
			"0.007": 11.3800058933,
			"0.008": 9.71159098024,
			"0.009": 6.71224183514,
			"0.01": 4.72281513857,
			"0.011": 2.87998975046,
			"0.012": 3.38711616855,
			"0.013": 3.17722917915,
			"0.014": 2.31559691198,
			"0.015": 1.53162354665,
			"0.016": 0.404159766219,
			"0.017": 0.0,
			"0.018": 0.0,
			"0.019": 0.0,
			"0.02": 0.0,
			"0.021": 0.0,
			"0.022": 0.0,
			"0.023": 0.0,
			"0.024": 0.0,
			"0.025": 0.0
		}
	}
}
