{
	 "smiles": "OC(=O)C1=CC(=CC=C1)S(=O)(=O)NCC1=CC=CS1", 
	 "Tm": 497.15, 
	 "num_atms": 30, 
	 "gaussian": { 
		 "optdone": 1, 
		 "sigma_profile": "yes", 
		 "theory": "DFT", 
		 "functional": "B3LYP", 
		 "basiset": "6-31G**", 
		 "properties": { 
			 "R2extent": 7269.4914, 
			 "electric_dipole_moment_norm": 4.51688471183, 
			 "electric_quadrupole_moment_norm": 34.2676289199, 
			 "total_energy": -1615.8460668, 
			 "HOMO_LUMO_gap": 0.17128, 
			 "cosmo_polarized_energy": -25.15, 
			 "cosmo_cavitation_energy": 38.72, 
			 "cosmo_dispersion_energy": -27.53, 
			 "cosmo_repulsion_energy": 2.05, 
			 "cosmo_total_nonelectrostatic_energy": 13.24, 
			 "SMD_solvation_energy": 6.49 
		},
		"coords": [
			{
				"x": 2.3822956378,
				"y": 0.3326777256,
				"z": -4.1202923138,
				"element": "O" 
			},
			{
				"x": 2.0662377401,
				"y": 0.4073724444,
				"z": -2.800807773,
				"element": "C" 
			},
			{
				"x": 2.6737582932,
				"y": 1.1519759048,
				"z": -2.0704580016,
				"element": "O" 
			},
			{
				"x": 0.9407948533,
				"y": -0.4675307779,
				"z": -2.3255110235,
				"element": "C" 
			},
			{
				"x": 0.887755046,
				"y": -0.7618403425,
				"z": -0.9594249035,
				"element": "C" 
			},
			{
				"x": -0.1463594781,
				"y": -1.5599284689,
				"z": -0.4755389653,
				"element": "C" 
			},
			{
				"x": -1.1384855815,
				"y": -2.0626726603,
				"z": -1.3188474353,
				"element": "C" 
			},
			{
				"x": -1.0942769625,
				"y": -1.7477767391,
				"z": -2.6781078315,
				"element": "C" 
			},
			{
				"x": -0.0613209862,
				"y": -0.9567717826,
				"z": -3.1783213777,
				"element": "C" 
			},
			{
				"x": -0.1757900546,
				"y": -2.0072977787,
				"z": 1.2671237702,
				"element": "S" 
			},
			{
				"x": -1.3927192795,
				"y": -2.80121118,
				"z": 1.48035502,
				"element": "O" 
			},
			{
				"x": 1.1431036776,
				"y": -2.5141076731,
				"z": 1.652413976,
				"element": "O" 
			},
			{
				"x": -0.3017887021,
				"y": -0.4988199603,
				"z": 2.0152696719,
				"element": "N" 
			},
			{
				"x": -1.6574208159,
				"y": 0.0383874622,
				"z": 2.2543220724,
				"element": "C" 
			},
			{
				"x": -1.5801103368,
				"y": 1.3856430506,
				"z": 2.9056156862,
				"element": "C" 
			},
			{
				"x": -2.1662096763,
				"y": 1.7753186233,
				"z": 4.0822462864,
				"element": "C" 
			},
			{
				"x": -1.9262072053,
				"y": 3.1448310978,
				"z": 4.4080271161,
				"element": "C" 
			},
			{
				"x": -1.1543215702,
				"y": 3.7778171054,
				"z": 3.4739905342,
				"element": "C" 
			},
			{
				"x": -0.7052182429,
				"y": 2.7136851911,
				"z": 2.180398996,
				"element": "S" 
			},
			{
				"x": 1.9426187965,
				"y": -0.4239885802,
				"z": -4.5320130443,
				"element": "H" 
			},
			{
				"x": 1.6508794945,
				"y": -0.3624579108,
				"z": -0.3010299208,
				"element": "H" 
			},
			{
				"x": -1.9248409349,
				"y": -2.6841762332,
				"z": -0.9052257595,
				"element": "H" 
			},
			{
				"x": -1.8686475491,
				"y": -2.1147383259,
				"z": -3.3441465037,
				"element": "H" 
			},
			{
				"x": -0.0644712092,
				"y": -0.6933051476,
				"z": -4.233069609,
				"element": "H" 
			},
			{
				"x": 0.2872023241,
				"y": -0.5122115056,
				"z": 2.8460919642,
				"element": "H" 
			},
			{
				"x": -2.1551813861,
				"y": 0.1006279635,
				"z": 1.2795570826,
				"element": "H" 
			},
			{
				"x": -2.2605164207,
				"y": -0.6279095929,
				"z": 2.8828613938,
				"element": "H" 
			},
			{
				"x": -2.755893932,
				"y": 1.1015630452,
				"z": 4.6949653524,
				"element": "H" 
			},
			{
				"x": -2.3063174203,
				"y": 3.6304052748,
				"z": 5.2994110975,
				"element": "H" 
			},
			{
				"x": -0.8076481189,
				"y": 4.8020397711,
				"z": 3.4726444425,
				"element": "H" 
			}
		],
		 "valence_orbital": [ 
			{
				"type": "occ",
				"energy": -0.29268,
				"method": "rhf"
			},
			{
				"type": "occ",
				"energy": -0.28002,
				"method": "rhf"
			},
			{
				"type": "occ",
				"energy": -0.27546,
				"method": "rhf"
			},
			{
				"type": "occ",
				"energy": -0.2576,
				"method": "rhf"
			},
			{
				"type": "occ",
				"energy": -0.24001,
				"method": "rhf"
			},
			{
				"type": "unocc",
				"energy": -0.06873,
				"method": "rhf"
			},
			{
				"type": "unocc",
				"energy": -0.05371,
				"method": "rhf"
			},
			{
				"type": "unocc",
				"energy": -0.0242,
				"method": "rhf"
			},
			{
				"type": "unocc",
				"energy": 0.02431,
				"method": "rhf"
			},
			{
				"type": "unocc",
				"energy": 0.02665,
				"method": "rhf"
			}
		],
		"cosmo_sigma_profile": { 
			"-0.025": 0.0,
			"-0.024": 0.0,
			"-0.023": 0.0,
			"-0.022": 0.0,
			"-0.021": 0.0,
			"-0.02": 0.0182794450281,
			"-0.019": 0.648690358768,
			"-0.018": 1.03293218831,
			"-0.017": 0.819807698346,
			"-0.016": 1.03401490223,
			"-0.015": 1.65022898117,
			"-0.014": 1.91433134347,
			"-0.013": 1.62025659431,
			"-0.012": 2.42650594546,
			"-0.011": 2.54292724751,
			"-0.01": 2.2732405206,
			"-0.009": 2.91550557569,
			"-0.008": 8.07919684237,
			"-0.007": 13.2324067189,
			"-0.006": 20.2271765836,
			"-0.005": 18.6149739574,
			"-0.004": 17.1320814422,
			"-0.003": 16.489060615,
			"-0.002": 17.843776438,
			"-0.001": 17.3855969321,
			"0.0": 21.1360138628,
			"0.001": 22.2863813582,
			"0.002": 16.1326918346,
			"0.003": 14.9390268718,
			"0.004": 18.0706565871,
			"0.005": 14.9195761989,
			"0.006": 5.60947481223,
			"0.007": 5.29334538418,
			"0.008": 6.22878141884,
			"0.009": 8.16070231133,
			"0.01": 13.5220023146,
			"0.011": 12.7634159776,
			"0.012": 4.7171526006,
			"0.013": 0.621379437853,
			"0.014": 0.0,
			"0.015": 0.0,
			"0.016": 0.0,
			"0.017": 0.0,
			"0.018": 0.0,
			"0.019": 0.0,
			"0.02": 0.0,
			"0.021": 0.0,
			"0.022": 0.0,
			"0.023": 0.0,
			"0.024": 0.0,
			"0.025": 0.0
		}
	}
}
