{
	 "smiles": "CC1=C(Br)C=C(N)C=C1Br", 
	 "Tm": 364.15, 
	 "num_atms": 17, 
	 "gaussian": { 
		 "optdone": 1, 
		 "sigma_profile": "yes", 
		 "theory": "DFT", 
		 "functional": "B3LYP", 
		 "basiset": "6-31G**", 
		 "properties": { 
			 "R2extent": 4275.8214, 
			 "electric_dipole_moment_norm": 2.88846817016, 
			 "electric_quadrupole_moment_norm": 11.7672742672, 
			 "total_energy": -5468.53185679, 
			 "HOMO_LUMO_gap": 0.19659, 
			 "cosmo_polarized_energy": -8.3, 
			 "cosmo_cavitation_energy": 24.85, 
			 "cosmo_dispersion_energy": -19.34, 
			 "cosmo_repulsion_energy": 1.56, 
			 "cosmo_total_nonelectrostatic_energy": 7.07, 
			 "SMD_solvation_energy": 2.14 
		},
		"coords": [
			{
				"x": 2.6695009496,
				"y": 0.2560175151,
				"z": -1.4711073499,
				"element": "C" 
			},
			{
				"x": 1.184100841,
				"y": 0.086024242,
				"z": -1.2907918661,
				"element": "C" 
			},
			{
				"x": 0.3322488469,
				"y": -0.3472929981,
				"z": -2.3218865542,
				"element": "C" 
			},
			{
				"x": 1.0510831546,
				"y": -0.7422579542,
				"z": -4.0596882713,
				"element": "Br" 
			},
			{
				"x": -1.0407739249,
				"y": -0.5102617627,
				"z": -2.1786919011,
				"element": "C" 
			},
			{
				"x": -1.6534945803,
				"y": -0.2320715869,
				"z": -0.9482306462,
				"element": "C" 
			},
			{
				"x": -3.0332428841,
				"y": -0.3370522679,
				"z": -0.797384466,
				"element": "N" 
			},
			{
				"x": -0.8459008145,
				"y": 0.2139757112,
				"z": 0.1080249499,
				"element": "C" 
			},
			{
				"x": 0.5232079592,
				"y": 0.3623680843,
				"z": -0.0810730434,
				"element": "C" 
			},
			{
				"x": 1.5193100116,
				"y": 0.9976510493,
				"z": 1.4344092728,
				"element": "Br" 
			},
			{
				"x": 2.9131051249,
				"y": 1.2700587266,
				"z": -1.8119575906,
				"element": "H" 
			},
			{
				"x": 3.0539970412,
				"y": -0.4408283184,
				"z": -2.2170830771,
				"element": "H" 
			},
			{
				"x": 3.1977524525,
				"y": 0.0914526612,
				"z": -0.5309962846,
				"element": "H" 
			},
			{
				"x": -1.6338675805,
				"y": -0.8470948535,
				"z": -3.0214835776,
				"element": "H" 
			},
			{
				"x": -3.3597288501,
				"y": -0.4567335767,
				"z": 0.1512948567,
				"element": "H" 
			},
			{
				"x": -3.4956040616,
				"y": -0.9618365972,
				"z": -1.4429652352,
				"element": "H" 
			},
			{
				"x": -1.2850936853,
				"y": 0.4490819259,
				"z": 1.0710107839,
				"element": "H" 
			}
		],
		 "valence_orbital": [ 
			{
				"type": "occ",
				"energy": -0.29071,
				"method": "rhf"
			},
			{
				"type": "occ",
				"energy": -0.28082,
				"method": "rhf"
			},
			{
				"type": "occ",
				"energy": -0.27591,
				"method": "rhf"
			},
			{
				"type": "occ",
				"energy": -0.24022,
				"method": "rhf"
			},
			{
				"type": "occ",
				"energy": -0.21456,
				"method": "rhf"
			},
			{
				"type": "unocc",
				"energy": -0.01797,
				"method": "rhf"
			},
			{
				"type": "unocc",
				"energy": -0.01215,
				"method": "rhf"
			},
			{
				"type": "unocc",
				"energy": -0.00066,
				"method": "rhf"
			},
			{
				"type": "unocc",
				"energy": 0.03023,
				"method": "rhf"
			},
			{
				"type": "unocc",
				"energy": 0.07013,
				"method": "rhf"
			}
		],
		"cosmo_sigma_profile": { 
			"-0.025": 0.0,
			"-0.024": 0.0,
			"-0.023": 0.0,
			"-0.022": 0.0,
			"-0.021": 0.0,
			"-0.02": 0.0,
			"-0.019": 0.0,
			"-0.018": 0.0,
			"-0.017": 0.0,
			"-0.016": 0.0,
			"-0.015": 0.0,
			"-0.014": 0.121660434036,
			"-0.013": 1.89705162659,
			"-0.012": 3.38405782019,
			"-0.011": 2.95083414328,
			"-0.01": 3.67930394576,
			"-0.009": 2.86315795123,
			"-0.008": 3.71905910303,
			"-0.007": 4.04690216075,
			"-0.006": 3.21175821672,
			"-0.005": 4.24797048991,
			"-0.004": 7.79587637894,
			"-0.003": 10.2724829703,
			"-0.002": 13.243548287,
			"-0.001": 15.1190277947,
			"0.0": 18.1005194803,
			"0.001": 16.2572841107,
			"0.002": 21.9020429669,
			"0.003": 29.1845313795,
			"0.004": 24.1477820368,
			"0.005": 12.1509226366,
			"0.006": 0.992643593811,
			"0.007": 0.531561473065,
			"0.008": 0.690455713113,
			"0.009": 1.04292761948,
			"0.01": 0.74860610505,
			"0.011": 0.344916712487,
			"0.012": 0.783209352656,
			"0.013": 0.621372059762,
			"0.014": 0.137832456509,
			"0.015": 0.0,
			"0.016": 0.0,
			"0.017": 0.0,
			"0.018": 0.0,
			"0.019": 0.0,
			"0.02": 0.0,
			"0.021": 0.0,
			"0.022": 0.0,
			"0.023": 0.0,
			"0.024": 0.0,
			"0.025": 0.0
		}
	}
}
