{
	 "smiles": "CC1CC1C(=O)NCCC(O)=O", 
	 "Tm": 368.15, 
	 "num_atms": 25, 
	 "gaussian": { 
		 "optdone": 1, 
		 "sigma_profile": "yes", 
		 "theory": "DFT", 
		 "functional": "B3LYP", 
		 "basiset": "6-31G**", 
		 "properties": { 
			 "R2extent": 3302.2879, 
			 "electric_dipole_moment_norm": 3.06875123788, 
			 "electric_quadrupole_moment_norm": 18.2009605642, 
			 "total_energy": -593.123116858, 
			 "HOMO_LUMO_gap": 0.23012, 
			 "cosmo_polarized_energy": -14.89, 
			 "cosmo_cavitation_energy": 28.66, 
			 "cosmo_dispersion_energy": -20.12, 
			 "cosmo_repulsion_energy": 1.65, 
			 "cosmo_total_nonelectrostatic_energy": 10.19, 
			 "SMD_solvation_energy": 5.78 
		},
		"coords": [
			{
				"x": 0.984913404,
				"y": -0.0242590905,
				"z": 3.2416141285,
				"element": "C" 
			},
			{
				"x": 0.5338077837,
				"y": -0.1027721597,
				"z": 1.7987994672,
				"element": "C" 
			},
			{
				"x": 1.438893989,
				"y": 0.3253645626,
				"z": 0.682958507,
				"element": "C" 
			},
			{
				"x": 1.1312518589,
				"y": -1.1532134453,
				"z": 0.8747240326,
				"element": "C" 
			},
			{
				"x": 0.3005525297,
				"y": -1.9391244184,
				"z": -0.0961966861,
				"element": "C" 
			},
			{
				"x": 0.5278137678,
				"y": -3.1278995706,
				"z": -0.3082094689,
				"element": "O" 
			},
			{
				"x": -0.7341015426,
				"y": -1.2732462767,
				"z": -0.70799808,
				"element": "N" 
			},
			{
				"x": -1.4959723582,
				"y": -1.8968607069,
				"z": -1.7750301886,
				"element": "C" 
			},
			{
				"x": -0.9157881666,
				"y": -1.624853386,
				"z": -3.169705207,
				"element": "C" 
			},
			{
				"x": -0.8792395322,
				"y": -0.1528229424,
				"z": -3.5137877355,
				"element": "C" 
			},
			{
				"x": -0.5895656554,
				"y": 0.0560179473,
				"z": -4.8160079572,
				"element": "O" 
			},
			{
				"x": -1.0717190135,
				"y": 0.7655034591,
				"z": -2.7390415362,
				"element": "O" 
			},
			{
				"x": 2.0566804717,
				"y": -0.2320745004,
				"z": 3.3300681082,
				"element": "H" 
			},
			{
				"x": 0.8040425541,
				"y": 0.9738593886,
				"z": 3.6564624903,
				"element": "H" 
			},
			{
				"x": 0.4515435079,
				"y": -0.7503318068,
				"z": 3.8645890894,
				"element": "H" 
			},
			{
				"x": -0.5277421628,
				"y": 0.0847695514,
				"z": 1.6473415693,
				"element": "H" 
			},
			{
				"x": 2.4447129793,
				"y": 0.6501406976,
				"z": 0.9349894884,
				"element": "H" 
			},
			{
				"x": 1.019769837,
				"y": 0.8327664916,
				"z": -0.182041605,
				"element": "H" 
			},
			{
				"x": 1.9255382528,
				"y": -1.7679900109,
				"z": 1.2859499143,
				"element": "H" 
			},
			{
				"x": -0.7658165808,
				"y": -0.2639372548,
				"z": -0.6921907138,
				"element": "H" 
			},
			{
				"x": -1.4904496465,
				"y": -2.9720519043,
				"z": -1.5895340342,
				"element": "H" 
			},
			{
				"x": -2.5296194284,
				"y": -1.5393568834,
				"z": -1.7253896945,
				"element": "H" 
			},
			{
				"x": -1.485971399,
				"y": -2.1490517447,
				"z": -3.9451088333,
				"element": "H" 
			},
			{
				"x": 0.1089267397,
				"y": -2.0118558819,
				"z": -3.2291844678,
				"element": "H" 
			},
			{
				"x": -0.5659621895,
				"y": 1.0200798858,
				"z": -4.9412705871,
				"element": "H" 
			}
		],
		 "valence_orbital": [ 
			{
				"type": "occ",
				"energy": -0.30227,
				"method": "rhf"
			},
			{
				"type": "occ",
				"energy": -0.2904,
				"method": "rhf"
			},
			{
				"type": "occ",
				"energy": -0.28139,
				"method": "rhf"
			},
			{
				"type": "occ",
				"energy": -0.24636,
				"method": "rhf"
			},
			{
				"type": "occ",
				"energy": -0.23401,
				"method": "rhf"
			},
			{
				"type": "unocc",
				"energy": -0.00389,
				"method": "rhf"
			},
			{
				"type": "unocc",
				"energy": 0.03042,
				"method": "rhf"
			},
			{
				"type": "unocc",
				"energy": 0.07023,
				"method": "rhf"
			},
			{
				"type": "unocc",
				"energy": 0.08639,
				"method": "rhf"
			},
			{
				"type": "unocc",
				"energy": 0.09997,
				"method": "rhf"
			}
		],
		"cosmo_sigma_profile": { 
			"-0.025": 0.0,
			"-0.024": 0.0,
			"-0.023": 0.0,
			"-0.022": 0.0,
			"-0.021": 0.0,
			"-0.02": 0.0,
			"-0.019": 0.0716843268007,
			"-0.018": 0.625448204128,
			"-0.017": 1.01973954557,
			"-0.016": 1.09475303973,
			"-0.015": 0.783643929617,
			"-0.014": 0.442379729363,
			"-0.013": 0.520718344009,
			"-0.012": 0.458502506512,
			"-0.011": 1.16855060309,
			"-0.01": 1.35025323294,
			"-0.009": 1.41440212034,
			"-0.008": 1.2609403596,
			"-0.007": 3.77051950096,
			"-0.006": 8.15937713112,
			"-0.005": 15.6626650828,
			"-0.004": 20.5164808717,
			"-0.003": 23.2950759332,
			"-0.002": 20.9207392202,
			"-0.001": 20.2604506241,
			"0.0": 18.7873314601,
			"0.001": 14.1648102898,
			"0.002": 12.0121826948,
			"0.003": 8.32569053413,
			"0.004": 6.83748875331,
			"0.005": 4.68708749273,
			"0.006": 4.23037567504,
			"0.007": 3.71804022995,
			"0.008": 4.12489979964,
			"0.009": 4.30522962309,
			"0.01": 3.41675800173,
			"0.011": 3.83519144164,
			"0.012": 3.09870032533,
			"0.013": 2.28660034845,
			"0.014": 4.95615779601,
			"0.015": 2.54052394159,
			"0.016": 0.290772360726,
			"0.017": 0.0,
			"0.018": 0.0,
			"0.019": 0.0,
			"0.02": 0.0,
			"0.021": 0.0,
			"0.022": 0.0,
			"0.023": 0.0,
			"0.024": 0.0,
			"0.025": 0.0
		}
	}
}
