{
	 "smiles": "CCOC(=O)C(=CC1=CC=C(C=C1)N(C)C)C#N", 
	 "Tm": 584.15, 
	 "num_atms": 34, 
	 "gaussian": { 
		 "optdone": 1, 
		 "sigma_profile": "yes", 
		 "theory": "DFT", 
		 "functional": "B3LYP", 
		 "basiset": "6-31G**", 
		 "properties": { 
			 "R2extent": 6575.6356, 
			 "electric_dipole_moment_norm": 11.3355664128, 
			 "electric_quadrupole_moment_norm": 37.697112437, 
			 "total_energy": -803.055483882, 
			 "HOMO_LUMO_gap": 0.13096, 
			 "cosmo_polarized_energy": -20.16, 
			 "cosmo_cavitation_energy": 38.88, 
			 "cosmo_dispersion_energy": -26.27, 
			 "cosmo_repulsion_energy": 2.05, 
			 "cosmo_total_nonelectrostatic_energy": 14.66, 
			 "SMD_solvation_energy": 8.83 
		},
		"coords": [
			{
				"x": 0.2878398982,
				"y": -0.6917026424,
				"z": 3.8094977698,
				"element": "C" 
			},
			{
				"x": 0.4948500069,
				"y": -2.1230221513,
				"z": 3.3514537591,
				"element": "C" 
			},
			{
				"x": 0.9451406124,
				"y": -2.0764948431,
				"z": 1.976548199,
				"element": "O" 
			},
			{
				"x": 1.2731205755,
				"y": -3.2674780477,
				"z": 1.4311826491,
				"element": "C" 
			},
			{
				"x": 1.2122278825,
				"y": -4.3192990415,
				"z": 2.0348459093,
				"element": "O" 
			},
			{
				"x": 1.7950219199,
				"y": -3.152904809,
				"z": 0.0365155384,
				"element": "C" 
			},
			{
				"x": 1.6072310572,
				"y": -2.175243184,
				"z": -0.9048066203,
				"element": "C" 
			},
			{
				"x": 0.7541728445,
				"y": -1.007702133,
				"z": -0.9992765889,
				"element": "C" 
			},
			{
				"x": 1.0836377644,
				"y": -0.042296749,
				"z": -1.9769477876,
				"element": "C" 
			},
			{
				"x": 0.3308514785,
				"y": 1.1010058747,
				"z": -2.1765597032,
				"element": "C" 
			},
			{
				"x": -0.8410186834,
				"y": 1.3363797918,
				"z": -1.4143355709,
				"element": "C" 
			},
			{
				"x": -1.2073251522,
				"y": 0.3447491399,
				"z": -0.4660657757,
				"element": "C" 
			},
			{
				"x": -0.4301099547,
				"y": -0.7810994753,
				"z": -0.2648444301,
				"element": "C" 
			},
			{
				"x": -1.5994515178,
				"y": 2.4691993906,
				"z": -1.5948651466,
				"element": "N" 
			},
			{
				"x": -2.8356860892,
				"y": 2.6498502962,
				"z": -0.8492666255,
				"element": "C" 
			},
			{
				"x": -1.239984333,
				"y": 3.4316727508,
				"z": -2.6250527283,
				"element": "C" 
			},
			{
				"x": 2.6495236885,
				"y": -4.2453496721,
				"z": -0.3338239697,
				"element": "C" 
			},
			{
				"x": 3.3552146136,
				"y": -5.1085957143,
				"z": -0.6682262812,
				"element": "N" 
			},
			{
				"x": -0.0593310711,
				"y": -0.6822763613,
				"z": 4.8474082798,
				"element": "H" 
			},
			{
				"x": 1.2218984234,
				"y": -0.1257454455,
				"z": 3.7530794867,
				"element": "H" 
			},
			{
				"x": -0.457738402,
				"y": -0.1834572678,
				"z": 3.1912558678,
				"element": "H" 
			},
			{
				"x": 1.2481244666,
				"y": -2.6436130024,
				"z": 3.9498292458,
				"element": "H" 
			},
			{
				"x": -0.4272967089,
				"y": -2.7113955293,
				"z": 3.4029668773,
				"element": "H" 
			},
			{
				"x": 2.2170474333,
				"y": -2.3189620698,
				"z": -1.7961452894,
				"element": "H" 
			},
			{
				"x": 1.9687991866,
				"y": -0.1957913876,
				"z": -2.5892713693,
				"element": "H" 
			},
			{
				"x": 0.6445218972,
				"y": 1.8072156382,
				"z": -2.9347702626,
				"element": "H" 
			},
			{
				"x": -2.1181727027,
				"y": 0.4531086127,
				"z": 0.1094654846,
				"element": "H" 
			},
			{
				"x": -0.7582198534,
				"y": -1.5126206134,
				"z": 0.4607363942,
				"element": "H" 
			},
			{
				"x": -3.5769020868,
				"y": 1.8719152712,
				"z": -1.0792356484,
				"element": "H" 
			},
			{
				"x": -2.6562910637,
				"y": 2.639630508,
				"z": 0.2328390754,
				"element": "H" 
			},
			{
				"x": -3.2702922409,
				"y": 3.6162938195,
				"z": -1.1054667391,
				"element": "H" 
			},
			{
				"x": -1.9383039281,
				"y": 4.2682456024,
				"z": -2.5934559021,
				"element": "H" 
			},
			{
				"x": -0.2308477824,
				"y": 3.8311336592,
				"z": -2.4655712303,
				"element": "H" 
			},
			{
				"x": -1.2779521789,
				"y": 2.9942497848,
				"z": -3.6323368669,
				"element": "H" 
			}
		],
		 "valence_orbital": [ 
			{
				"type": "occ",
				"energy": -0.29926,
				"method": "rhf"
			},
			{
				"type": "occ",
				"energy": -0.27425,
				"method": "rhf"
			},
			{
				"type": "occ",
				"energy": -0.26471,
				"method": "rhf"
			},
			{
				"type": "occ",
				"energy": -0.26336,
				"method": "rhf"
			},
			{
				"type": "occ",
				"energy": -0.20431,
				"method": "rhf"
			},
			{
				"type": "unocc",
				"energy": -0.07335,
				"method": "rhf"
			},
			{
				"type": "unocc",
				"energy": -0.01189,
				"method": "rhf"
			},
			{
				"type": "unocc",
				"energy": 0.01693,
				"method": "rhf"
			},
			{
				"type": "unocc",
				"energy": 0.03834,
				"method": "rhf"
			},
			{
				"type": "unocc",
				"energy": 0.05763,
				"method": "rhf"
			}
		],
		"cosmo_sigma_profile": { 
			"-0.025": 0.0,
			"-0.024": 0.0,
			"-0.023": 0.0,
			"-0.022": 0.0,
			"-0.021": 0.0,
			"-0.02": 0.0,
			"-0.019": 0.0,
			"-0.018": 0.0,
			"-0.017": 0.0,
			"-0.016": 0.0,
			"-0.015": 0.0,
			"-0.014": 0.0,
			"-0.013": 0.0,
			"-0.012": 0.0,
			"-0.011": 0.0,
			"-0.01": 0.0,
			"-0.009": 0.426668092136,
			"-0.008": 3.48123406204,
			"-0.007": 6.34958907601,
			"-0.006": 13.8544738661,
			"-0.005": 29.2607542065,
			"-0.004": 33.3004771616,
			"-0.003": 35.006413421,
			"-0.002": 32.2554585307,
			"-0.001": 21.7857328508,
			"0.0": 21.5537664348,
			"0.001": 15.8120183718,
			"0.002": 12.6302686838,
			"0.003": 12.5803121102,
			"0.004": 15.1083359773,
			"0.005": 9.28238528703,
			"0.006": 5.88023668448,
			"0.007": 5.4180705485,
			"0.008": 6.1847017905,
			"0.009": 5.93766934682,
			"0.01": 6.12131294172,
			"0.011": 6.68522915598,
			"0.012": 6.91541693178,
			"0.013": 2.59358420859,
			"0.014": 0.936788699927,
			"0.015": 0.0,
			"0.016": 0.0,
			"0.017": 0.0,
			"0.018": 0.0,
			"0.019": 0.0,
			"0.02": 0.0,
			"0.021": 0.0,
			"0.022": 0.0,
			"0.023": 0.0,
			"0.024": 0.0,
			"0.025": 0.0
		}
	}
}
