{
	 "smiles": "NC1=CC(=CC=C1)C(=O)NC1=NC=C(Br)C=C1", 
	 "Tm": 427.15, 
	 "num_atms": 27, 
	 "gaussian": { 
		 "optdone": 1, 
		 "sigma_profile": "yes", 
		 "theory": "DFT", 
		 "functional": "B3LYP", 
		 "basiset": "6-31G**", 
		 "properties": { 
			 "R2extent": 7828.4899, 
			 "electric_dipole_moment_norm": 4.5780948614, 
			 "electric_quadrupole_moment_norm": 16.6430027435, 
			 "total_energy": -3274.20049669, 
			 "HOMO_LUMO_gap": 0.1659, 
			 "cosmo_polarized_energy": -16.47, 
			 "cosmo_cavitation_energy": 34.42, 
			 "cosmo_dispersion_energy": -24.78, 
			 "cosmo_repulsion_energy": 1.95, 
			 "cosmo_total_nonelectrostatic_energy": 11.59, 
			 "SMD_solvation_energy": 3.87 
		},
		"coords": [
			{
				"x": 0.4512151175,
				"y": 2.4727649271,
				"z": -2.7875490823,
				"element": "N" 
			},
			{
				"x": 0.8814455774,
				"y": 2.1409105147,
				"z": -1.5050828381,
				"element": "C" 
			},
			{
				"x": 0.9967344469,
				"y": 0.7968022208,
				"z": -1.1145235202,
				"element": "C" 
			},
			{
				"x": 1.4995372411,
				"y": 0.4625792801,
				"z": 0.1476550019,
				"element": "C" 
			},
			{
				"x": 1.9072372282,
				"y": 1.4646406675,
				"z": 1.0372010252,
				"element": "C" 
			},
			{
				"x": 1.7715996853,
				"y": 2.7998958372,
				"z": 0.6599534178,
				"element": "C" 
			},
			{
				"x": 1.2654007761,
				"y": 3.1405781647,
				"z": -0.5923087121,
				"element": "C" 
			},
			{
				"x": 1.7239059687,
				"y": -0.9640874567,
				"z": 0.5431614371,
				"element": "C" 
			},
			{
				"x": 2.7359101719,
				"y": -1.3113058225,
				"z": 1.134743091,
				"element": "O" 
			},
			{
				"x": 0.7987286075,
				"y": -1.933958441,
				"z": 0.1561994518,
				"element": "N" 
			},
			{
				"x": -0.5832202782,
				"y": -1.90229774,
				"z": -0.0652309589,
				"element": "C" 
			},
			{
				"x": -1.065621282,
				"y": -3.0440450868,
				"z": -0.5774459419,
				"element": "N" 
			},
			{
				"x": -2.3763798748,
				"y": -3.1439162382,
				"z": -0.807158832,
				"element": "C" 
			},
			{
				"x": -3.26537334,
				"y": -2.1048202721,
				"z": -0.5431889024,
				"element": "C" 
			},
			{
				"x": -5.1222582924,
				"y": -2.3116547595,
				"z": -0.9167615075,
				"element": "Br" 
			},
			{
				"x": -2.7733413261,
				"y": -0.9239215123,
				"z": 0.0126505123,
				"element": "C" 
			},
			{
				"x": -1.4124651713,
				"y": -0.8159684579,
				"z": 0.2685516924,
				"element": "C" 
			},
			{
				"x": 0.083987996,
				"y": 3.4070899442,
				"z": -2.8993123958,
				"element": "H" 
			},
			{
				"x": -0.1133683541,
				"y": 1.7781168363,
				"z": -3.2557783862,
				"element": "H" 
			},
			{
				"x": 0.7138077286,
				"y": 0.0120362249,
				"z": -1.8102695045,
				"element": "H" 
			},
			{
				"x": 2.3257337787,
				"y": 1.1865529073,
				"z": 1.9976502595,
				"element": "H" 
			},
			{
				"x": 2.0687638163,
				"y": 3.5883487103,
				"z": 1.345415532,
				"element": "H" 
			},
			{
				"x": 1.1768440007,
				"y": 4.1859444108,
				"z": -0.8778568302,
				"element": "H" 
			},
			{
				"x": 1.164774414,
				"y": -2.8763527971,
				"z": 0.2365457845,
				"element": "H" 
			},
			{
				"x": -2.7314261965,
				"y": -4.0857950316,
				"z": -1.2172915972,
				"element": "H" 
			},
			{
				"x": -3.4449587345,
				"y": -0.1084460568,
				"z": 0.2576512827,
				"element": "H" 
			},
			{
				"x": -1.0092137048,
				"y": 0.0777090267,
				"z": 0.7253805209,
				"element": "H" 
			}
		],
		 "valence_orbital": [ 
			{
				"type": "occ",
				"energy": -0.27927,
				"method": "rhf"
			},
			{
				"type": "occ",
				"energy": -0.26767,
				"method": "rhf"
			},
			{
				"type": "occ",
				"energy": -0.25549,
				"method": "rhf"
			},
			{
				"type": "occ",
				"energy": -0.23173,
				"method": "rhf"
			},
			{
				"type": "occ",
				"energy": -0.21452,
				"method": "rhf"
			},
			{
				"type": "unocc",
				"energy": -0.04862,
				"method": "rhf"
			},
			{
				"type": "unocc",
				"energy": -0.04064,
				"method": "rhf"
			},
			{
				"type": "unocc",
				"energy": -0.01488,
				"method": "rhf"
			},
			{
				"type": "unocc",
				"energy": 0.00025,
				"method": "rhf"
			},
			{
				"type": "unocc",
				"energy": 0.00336,
				"method": "rhf"
			}
		],
		"cosmo_sigma_profile": { 
			"-0.025": 0.0,
			"-0.024": 0.0,
			"-0.023": 0.0,
			"-0.022": 0.0,
			"-0.021": 0.0,
			"-0.02": 0.0,
			"-0.019": 0.0,
			"-0.018": 0.0,
			"-0.017": 0.0,
			"-0.016": 0.0,
			"-0.015": 0.0,
			"-0.014": 0.440796148559,
			"-0.013": 1.20113399113,
			"-0.012": 3.96875922683,
			"-0.011": 3.86555205617,
			"-0.01": 3.72997362937,
			"-0.009": 4.60496913611,
			"-0.008": 6.05822367245,
			"-0.007": 7.94763562221,
			"-0.006": 12.7707638103,
			"-0.005": 14.7258483671,
			"-0.004": 15.7054588124,
			"-0.003": 15.2271777288,
			"-0.002": 18.6396459989,
			"-0.001": 18.0436575016,
			"0.0": 21.0589321862,
			"0.001": 25.4516262754,
			"0.002": 19.2120322911,
			"0.003": 17.5270125635,
			"0.004": 20.4784940561,
			"0.005": 13.8612357791,
			"0.006": 5.21123381766,
			"0.007": 3.13212857266,
			"0.008": 3.57632068003,
			"0.009": 3.41087191227,
			"0.01": 3.81526402756,
			"0.011": 4.01026074669,
			"0.012": 5.25701168179,
			"0.013": 5.09133666201,
			"0.014": 0.870179368961,
			"0.015": 0.0,
			"0.016": 0.0,
			"0.017": 0.0,
			"0.018": 0.0,
			"0.019": 0.0,
			"0.02": 0.0,
			"0.021": 0.0,
			"0.022": 0.0,
			"0.023": 0.0,
			"0.024": 0.0,
			"0.025": 0.0
		}
	}
}
