{
	 "smiles": "O=CC1=CC=CC(=C1)C1=NC=CC=N1", 
	 "Tm": 372.15, 
	 "num_atms": 22, 
	 "gaussian": { 
		 "optdone": 1, 
		 "sigma_profile": "yes", 
		 "theory": "DFT", 
		 "functional": "B3LYP", 
		 "basiset": "6-31G**", 
		 "properties": { 
			 "R2extent": 3616.1608, 
			 "electric_dipole_moment_norm": 5.04364603139, 
			 "electric_quadrupole_moment_norm": 14.3625161866, 
			 "total_energy": -608.712329175, 
			 "HOMO_LUMO_gap": 0.18021, 
			 "cosmo_polarized_energy": -10.31, 
			 "cosmo_cavitation_energy": 27.33, 
			 "cosmo_dispersion_energy": -20.11, 
			 "cosmo_repulsion_energy": 1.55, 
			 "cosmo_total_nonelectrostatic_energy": 8.77, 
			 "SMD_solvation_energy": 3.77 
		},
		"coords": [
			{
				"x": 3.3593752421,
				"y": -2.8979643177,
				"z": 1.9782201837,
				"element": "O" 
			},
			{
				"x": 3.15795047,
				"y": -1.8583734616,
				"z": 1.3796255309,
				"element": "C" 
			},
			{
				"x": 1.824577635,
				"y": -1.3833702816,
				"z": 0.9436889976,
				"element": "C" 
			},
			{
				"x": 0.6780580694,
				"y": -2.1474063098,
				"z": 1.2151586562,
				"element": "C" 
			},
			{
				"x": -0.5680802924,
				"y": -1.6894944707,
				"z": 0.8000980036,
				"element": "C" 
			},
			{
				"x": -0.6789689935,
				"y": -0.4760403301,
				"z": 0.1168490503,
				"element": "C" 
			},
			{
				"x": 0.4601130589,
				"y": 0.2961259627,
				"z": -0.1600398951,
				"element": "C" 
			},
			{
				"x": 1.7132259033,
				"y": -0.1697912364,
				"z": 0.2602709582,
				"element": "C" 
			},
			{
				"x": 0.3404653339,
				"y": 1.5861731316,
				"z": -0.8865215863,
				"element": "C" 
			},
			{
				"x": -0.8915723359,
				"y": 1.9753541564,
				"z": -1.2614650455,
				"element": "N" 
			},
			{
				"x": -0.984865186,
				"y": 3.1358728184,
				"z": -1.9129643212,
				"element": "C" 
			},
			{
				"x": 0.1267069593,
				"y": 3.9248435571,
				"z": -2.2027932115,
				"element": "C" 
			},
			{
				"x": 1.3557753608,
				"y": 3.4303075558,
				"z": -1.7702122513,
				"element": "C" 
			},
			{
				"x": 1.4742196032,
				"y": 2.2730622871,
				"z": -1.1172367717,
				"element": "N" 
			},
			{
				"x": 3.9985135084,
				"y": -1.1788710342,
				"z": 1.1139534784,
				"element": "H" 
			},
			{
				"x": 0.7946030975,
				"y": -3.0860354273,
				"z": 1.7477879248,
				"element": "H" 
			},
			{
				"x": -1.4600833843,
				"y": -2.2738872277,
				"z": 1.0057711969,
				"element": "H" 
			},
			{
				"x": -1.6450857088,
				"y": -0.1092942895,
				"z": -0.2113460563,
				"element": "H" 
			},
			{
				"x": 2.5951405284,
				"y": 0.4264605165,
				"z": 0.0467489022,
				"element": "H" 
			},
			{
				"x": -1.9854759082,
				"y": 3.4435513986,
				"z": -2.2128576027,
				"element": "H" 
			},
			{
				"x": 0.0406153627,
				"y": 4.8665438165,
				"z": -2.7328113708,
				"element": "H" 
			},
			{
				"x": 2.2779916761,
				"y": 3.9798331859,
				"z": -1.9528247702,
				"element": "H" 
			}
		],
		 "valence_orbital": [ 
			{
				"type": "occ",
				"energy": -0.30878,
				"method": "rhf"
			},
			{
				"type": "occ",
				"energy": -0.2642,
				"method": "rhf"
			},
			{
				"type": "occ",
				"energy": -0.2584,
				"method": "rhf"
			},
			{
				"type": "occ",
				"energy": -0.25233,
				"method": "rhf"
			},
			{
				"type": "occ",
				"energy": -0.24881,
				"method": "rhf"
			},
			{
				"type": "unocc",
				"energy": -0.0686,
				"method": "rhf"
			},
			{
				"type": "unocc",
				"energy": -0.05479,
				"method": "rhf"
			},
			{
				"type": "unocc",
				"energy": -0.04485,
				"method": "rhf"
			},
			{
				"type": "unocc",
				"energy": 0.00829,
				"method": "rhf"
			},
			{
				"type": "unocc",
				"energy": 0.04926,
				"method": "rhf"
			}
		],
		"cosmo_sigma_profile": { 
			"-0.025": 0.0,
			"-0.024": 0.0,
			"-0.023": 0.0,
			"-0.022": 0.0,
			"-0.021": 0.0,
			"-0.02": 0.0,
			"-0.019": 0.0,
			"-0.018": 0.0,
			"-0.017": 0.0,
			"-0.016": 0.0,
			"-0.015": 0.0,
			"-0.014": 0.0,
			"-0.013": 0.0,
			"-0.012": 0.0,
			"-0.011": 0.0,
			"-0.01": 0.0,
			"-0.009": 0.0701759468489,
			"-0.008": 5.48754761268,
			"-0.007": 11.7563625414,
			"-0.006": 16.1986861823,
			"-0.005": 13.2649511811,
			"-0.004": 13.9830720408,
			"-0.003": 10.5083935784,
			"-0.002": 14.1446234919,
			"-0.001": 17.0751336047,
			"0.0": 21.5584674609,
			"0.001": 21.4177087077,
			"0.002": 20.3931143177,
			"0.003": 14.079364039,
			"0.004": 6.0331337096,
			"0.005": 4.67664813986,
			"0.006": 4.19878412263,
			"0.007": 4.55930017088,
			"0.008": 3.916233306,
			"0.009": 4.24172551679,
			"0.01": 5.01918082009,
			"0.011": 4.93227881818,
			"0.012": 2.78319447476,
			"0.013": 0.645278327713,
			"0.014": 0.0,
			"0.015": 0.0,
			"0.016": 0.0,
			"0.017": 0.0,
			"0.018": 0.0,
			"0.019": 0.0,
			"0.02": 0.0,
			"0.021": 0.0,
			"0.022": 0.0,
			"0.023": 0.0,
			"0.024": 0.0,
			"0.025": 0.0
		}
	}
}
