{
	 "smiles": "COC1=C(SC(F)F)C=CC(CC#N)=C1", 
	 "Tm": 315.15, 
	 "num_atms": 24, 
	 "gaussian": { 
		 "optdone": 1, 
		 "sigma_profile": "yes", 
		 "theory": "DFT", 
		 "functional": "B3LYP", 
		 "basiset": "6-31G**", 
		 "properties": { 
			 "R2extent": 5997.0088, 
			 "electric_dipole_moment_norm": 1.56679561845, 
			 "electric_quadrupole_moment_norm": 15.6723905094, 
			 "total_energy": -1114.28336014, 
			 "HOMO_LUMO_gap": 0.19973, 
			 "cosmo_polarized_energy": -14.24, 
			 "cosmo_cavitation_energy": 31.72, 
			 "cosmo_dispersion_energy": -21.83, 
			 "cosmo_repulsion_energy": 1.66, 
			 "cosmo_total_nonelectrostatic_energy": 11.55, 
			 "SMD_solvation_energy": 7.97 
		},
		"coords": [
			{
				"x": -1.3527474075,
				"y": 1.6131424151,
				"z": 1.580954186,
				"element": "C" 
			},
			{
				"x": -0.7605242562,
				"y": 1.937127606,
				"z": 0.3286537973,
				"element": "O" 
			},
			{
				"x": -0.8809118041,
				"y": 1.0638024103,
				"z": -0.6982964104,
				"element": "C" 
			},
			{
				"x": -0.2900409856,
				"y": 1.4301675734,
				"z": -1.9276416874,
				"element": "C" 
			},
			{
				"x": 0.5879160854,
				"y": 2.9817623613,
				"z": -2.088213663,
				"element": "S" 
			},
			{
				"x": -0.6190622653,
				"y": 3.9098821041,
				"z": -3.0905390976,
				"element": "C" 
			},
			{
				"x": -1.8314603235,
				"y": 3.983000733,
				"z": -2.4843212029,
				"element": "F" 
			},
			{
				"x": -0.8222693074,
				"y": 3.33325089,
				"z": -4.3100602417,
				"element": "F" 
			},
			{
				"x": -0.3751073965,
				"y": 0.5550954435,
				"z": -3.0140948054,
				"element": "C" 
			},
			{
				"x": -1.0440907931,
				"y": -0.6616623771,
				"z": -2.9074687129,
				"element": "C" 
			},
			{
				"x": -1.6310870312,
				"y": -1.0245077726,
				"z": -1.692063107,
				"element": "C" 
			},
			{
				"x": -2.3697646988,
				"y": -2.3575284603,
				"z": -1.612377599,
				"element": "C" 
			},
			{
				"x": -2.789101124,
				"y": -2.748668264,
				"z": -0.2650047287,
				"element": "C" 
			},
			{
				"x": -3.1221375185,
				"y": -3.0475212972,
				"z": 0.8057830473,
				"element": "N" 
			},
			{
				"x": -1.5458496362,
				"y": -0.1674141373,
				"z": -0.5937218339,
				"element": "C" 
			},
			{
				"x": -1.1344515205,
				"y": 2.4567299286,
				"z": 2.2364614025,
				"element": "H" 
			},
			{
				"x": -2.4392191513,
				"y": 1.4930829818,
				"z": 1.493383245,
				"element": "H" 
			},
			{
				"x": -0.9202307263,
				"y": 0.7001751672,
				"z": 2.0076080085,
				"element": "H" 
			},
			{
				"x": -0.2188651042,
				"y": 4.9194691419,
				"z": -3.2359477881,
				"element": "H" 
			},
			{
				"x": 0.0881546364,
				"y": 0.8421338474,
				"z": -3.9510271679,
				"element": "H" 
			},
			{
				"x": -1.1014018242,
				"y": -1.3250298191,
				"z": -3.7658375647,
				"element": "H" 
			},
			{
				"x": -3.2657276856,
				"y": -2.32470332,
				"z": -2.2461944143,
				"element": "H" 
			},
			{
				"x": -1.7388314459,
				"y": -3.1579712152,
				"z": -2.0175871635,
				"element": "H" 
			},
			{
				"x": -1.9994887158,
				"y": -0.4625159407,
				"z": 0.3442535018,
				"element": "H" 
			}
		],
		 "valence_orbital": [ 
			{
				"type": "occ",
				"energy": -0.33096,
				"method": "rhf"
			},
			{
				"type": "occ",
				"energy": -0.32481,
				"method": "rhf"
			},
			{
				"type": "occ",
				"energy": -0.26871,
				"method": "rhf"
			},
			{
				"type": "occ",
				"energy": -0.2501,
				"method": "rhf"
			},
			{
				"type": "occ",
				"energy": -0.23255,
				"method": "rhf"
			},
			{
				"type": "unocc",
				"energy": -0.03282,
				"method": "rhf"
			},
			{
				"type": "unocc",
				"energy": -0.01003,
				"method": "rhf"
			},
			{
				"type": "unocc",
				"energy": 0.02145,
				"method": "rhf"
			},
			{
				"type": "unocc",
				"energy": 0.03157,
				"method": "rhf"
			},
			{
				"type": "unocc",
				"energy": 0.03624,
				"method": "rhf"
			}
		],
		"cosmo_sigma_profile": { 
			"-0.025": 0.0,
			"-0.024": 0.0,
			"-0.023": 0.0,
			"-0.022": 0.0,
			"-0.021": 0.0,
			"-0.02": 0.0,
			"-0.019": 0.0,
			"-0.018": 0.0,
			"-0.017": 0.0,
			"-0.016": 0.0,
			"-0.015": 0.0,
			"-0.014": 0.0,
			"-0.013": 0.0,
			"-0.012": 0.0204732772484,
			"-0.011": 1.32701850342,
			"-0.01": 3.5072505945,
			"-0.009": 7.55602393347,
			"-0.008": 7.38908618268,
			"-0.007": 10.4372040711,
			"-0.006": 18.0666758316,
			"-0.005": 16.7566121118,
			"-0.004": 16.01360991,
			"-0.003": 13.7529188887,
			"-0.002": 11.4526279901,
			"-0.001": 12.0275413127,
			"0.0": 11.4386009712,
			"0.001": 13.2874155967,
			"0.002": 14.7947016226,
			"0.003": 25.8820500826,
			"0.004": 29.962674271,
			"0.005": 8.61421016816,
			"0.006": 6.07427124438,
			"0.007": 5.8463498684,
			"0.008": 4.57668303343,
			"0.009": 4.86308622799,
			"0.01": 3.95382178058,
			"0.011": 3.79990022195,
			"0.012": 3.2119917965,
			"0.013": 1.51466254285,
			"0.014": 0.0343969412989,
			"0.015": 0.0,
			"0.016": 0.0,
			"0.017": 0.0,
			"0.018": 0.0,
			"0.019": 0.0,
			"0.02": 0.0,
			"0.021": 0.0,
			"0.022": 0.0,
			"0.023": 0.0,
			"0.024": 0.0,
			"0.025": 0.0
		}
	}
}
