{
	 "smiles": "CC1=CC=C(C=O)C=C1", 
	 "Tm": 267.15, 
	 "num_atms": 17, 
	 "gaussian": { 
		 "optdone": 1, 
		 "sigma_profile": "yes", 
		 "theory": "DFT", 
		 "functional": "B3LYP", 
		 "basiset": "6-31G**", 
		 "properties": { 
			 "R2extent": 1624.6974, 
			 "electric_dipole_moment_norm": 3.77051521944, 
			 "electric_quadrupole_moment_norm": 10.9401721202, 
			 "total_energy": -384.896269095, 
			 "HOMO_LUMO_gap": 0.19213, 
			 "cosmo_polarized_energy": -7.48, 
			 "cosmo_cavitation_energy": 21.12, 
			 "cosmo_dispersion_energy": -15.42, 
			 "cosmo_repulsion_energy": 1.26, 
			 "cosmo_total_nonelectrostatic_energy": 6.95, 
			 "SMD_solvation_energy": 4.81 
		},
		"coords": [
			{
				"x": 1.3329702572,
				"y": -3.0039244705,
				"z": -0.261177524,
				"element": "C" 
			},
			{
				"x": 1.0558835995,
				"y": -1.5890129901,
				"z": 0.185148421,
				"element": "C" 
			},
			{
				"x": -0.159178768,
				"y": -1.2450442294,
				"z": 0.7915198594,
				"element": "C" 
			},
			{
				"x": -0.4060600899,
				"y": 0.0646243142,
				"z": 1.2002535909,
				"element": "C" 
			},
			{
				"x": 0.560947752,
				"y": 1.0578663799,
				"z": 1.0094900697,
				"element": "C" 
			},
			{
				"x": 0.2953378452,
				"y": 2.4450841854,
				"z": 1.4442029821,
				"element": "C" 
			},
			{
				"x": 1.0734355504,
				"y": 3.3728360694,
				"z": 1.3203410978,
				"element": "O" 
			},
			{
				"x": 1.7824434567,
				"y": 0.7224993208,
				"z": 0.402360009,
				"element": "C" 
			},
			{
				"x": 2.0222214687,
				"y": -0.5827978174,
				"z": -0.0022963714,
				"element": "C" 
			},
			{
				"x": 1.5273173696,
				"y": -3.0475061989,
				"z": -1.3390130805,
				"element": "H" 
			},
			{
				"x": 0.4909517732,
				"y": -3.6663117966,
				"z": -0.0445141205,
				"element": "H" 
			},
			{
				"x": 2.2190897316,
				"y": -3.4101760439,
				"z": 0.2399111917,
				"element": "H" 
			},
			{
				"x": -0.915450094,
				"y": -2.0105703391,
				"z": 0.94336643,
				"element": "H" 
			},
			{
				"x": -1.3532739318,
				"y": 0.3205146491,
				"z": 1.6701447157,
				"element": "H" 
			},
			{
				"x": -0.7033271974,
				"y": 2.5981689845,
				"z": 1.9126479326,
				"element": "H" 
			},
			{
				"x": 2.5221256543,
				"y": 1.5045112113,
				"z": 0.2616305666,
				"element": "H" 
			},
			{
				"x": 2.9695656225,
				"y": -0.8368612287,
				"z": -0.4717157701,
				"element": "H" 
			}
		],
		 "valence_orbital": [ 
			{
				"type": "occ",
				"energy": -0.35222,
				"method": "rhf"
			},
			{
				"type": "occ",
				"energy": -0.34795,
				"method": "rhf"
			},
			{
				"type": "occ",
				"energy": -0.26325,
				"method": "rhf"
			},
			{
				"type": "occ",
				"energy": -0.25349,
				"method": "rhf"
			},
			{
				"type": "occ",
				"energy": -0.251,
				"method": "rhf"
			},
			{
				"type": "unocc",
				"energy": -0.05887,
				"method": "rhf"
			},
			{
				"type": "unocc",
				"energy": -0.01273,
				"method": "rhf"
			},
			{
				"type": "unocc",
				"energy": 0.04114,
				"method": "rhf"
			},
			{
				"type": "unocc",
				"energy": 0.0925,
				"method": "rhf"
			},
			{
				"type": "unocc",
				"energy": 0.11081,
				"method": "rhf"
			}
		],
		"cosmo_sigma_profile": { 
			"-0.025": 0.0,
			"-0.024": 0.0,
			"-0.023": 0.0,
			"-0.022": 0.0,
			"-0.021": 0.0,
			"-0.02": 0.0,
			"-0.019": 0.0,
			"-0.018": 0.0,
			"-0.017": 0.0,
			"-0.016": 0.0,
			"-0.015": 0.0,
			"-0.014": 0.0,
			"-0.013": 0.0,
			"-0.012": 0.0,
			"-0.011": 0.0,
			"-0.01": 0.0,
			"-0.009": 0.0,
			"-0.008": 0.058855798458,
			"-0.007": 3.26908652486,
			"-0.006": 9.81754115299,
			"-0.005": 13.918380449,
			"-0.004": 16.8780104324,
			"-0.003": 15.7168188019,
			"-0.002": 14.0053656172,
			"-0.001": 15.2737166467,
			"0.0": 13.9770080604,
			"0.001": 10.3524282616,
			"0.002": 10.2974140802,
			"0.003": 11.2085148674,
			"0.004": 12.7385636326,
			"0.005": 3.11835485662,
			"0.006": 1.59045627504,
			"0.007": 0.92111825505,
			"0.008": 2.12097574902,
			"0.009": 1.67287460555,
			"0.01": 2.40589936823,
			"0.011": 3.98236551665,
			"0.012": 3.62978818653,
			"0.013": 1.36886337517,
			"0.014": 0.0547900903294,
			"0.015": 0.0,
			"0.016": 0.0,
			"0.017": 0.0,
			"0.018": 0.0,
			"0.019": 0.0,
			"0.02": 0.0,
			"0.021": 0.0,
			"0.022": 0.0,
			"0.023": 0.0,
			"0.024": 0.0,
			"0.025": 0.0
		}
	}
}
