{
	 "smiles": "NCC1=CC=C(C=C1)C(=O)NC1=CC=C(F)C=C1", 
	 "Tm": 419.15, 
	 "num_atms": 31, 
	 "gaussian": { 
		 "optdone": 1, 
		 "sigma_profile": "yes", 
		 "theory": "DFT", 
		 "functional": "B3LYP", 
		 "basiset": "6-31G**", 
		 "properties": { 
			 "R2extent": 7831.8602, 
			 "electric_dipole_moment_norm": 5.32960658398, 
			 "electric_quadrupole_moment_norm": 9.76797276358, 
			 "total_energy": -825.903819181, 
			 "HOMO_LUMO_gap": 0.1722, 
			 "cosmo_polarized_energy": -15.88, 
			 "cosmo_cavitation_energy": 35.87, 
			 "cosmo_dispersion_energy": -26.19, 
			 "cosmo_repulsion_energy": 1.99, 
			 "cosmo_total_nonelectrostatic_energy": 11.67, 
			 "SMD_solvation_energy": 6.05 
		},
		"coords": [
			{
				"x": -4.5204103225,
				"y": -0.4071534109,
				"z": -3.9700824074,
				"element": "N" 
			},
			{
				"x": -3.4190651457,
				"y": -1.3643587634,
				"z": -4.0988547037,
				"element": "C" 
			},
			{
				"x": -2.3946033828,
				"y": -1.2040625847,
				"z": -2.9908943709,
				"element": "C" 
			},
			{
				"x": -2.1401653718,
				"y": 0.0499208639,
				"z": -2.4219375891,
				"element": "C" 
			},
			{
				"x": -1.1754349275,
				"y": 0.1951261067,
				"z": -1.4268450415,
				"element": "C" 
			},
			{
				"x": -0.440048289,
				"y": -0.9110869613,
				"z": -0.9751587346,
				"element": "C" 
			},
			{
				"x": -0.680963236,
				"y": -2.1621828436,
				"z": -1.5587468127,
				"element": "C" 
			},
			{
				"x": -1.653142218,
				"y": -2.3058425081,
				"z": -2.5434700045,
				"element": "C" 
			},
			{
				"x": 0.6230507847,
				"y": -0.842133132,
				"z": 0.0843470564,
				"element": "C" 
			},
			{
				"x": 1.5059750513,
				"y": -1.6913717293,
				"z": 0.161665159,
				"element": "O" 
			},
			{
				"x": 0.5123456859,
				"y": 0.2231042269,
				"z": 0.9532708944,
				"element": "N" 
			},
			{
				"x": 1.3528779398,
				"y": 0.5761786771,
				"z": 2.0297794749,
				"element": "C" 
			},
			{
				"x": 0.9757112828,
				"y": 1.6857248381,
				"z": 2.804231725,
				"element": "C" 
			},
			{
				"x": 1.7536239517,
				"y": 2.1059453006,
				"z": 3.8791594602,
				"element": "C" 
			},
			{
				"x": 2.918154387,
				"y": 1.4075174811,
				"z": 4.1753337362,
				"element": "C" 
			},
			{
				"x": 3.6794969798,
				"y": 1.8090878811,
				"z": 5.2171427698,
				"element": "F" 
			},
			{
				"x": 3.31356606,
				"y": 0.30782383,
				"z": 3.4249010967,
				"element": "C" 
			},
			{
				"x": 2.5337817781,
				"y": -0.114748209,
				"z": 2.3487078673,
				"element": "C" 
			},
			{
				"x": -5.0946308963,
				"y": -0.6443678255,
				"z": -3.1645867478,
				"element": "H" 
			},
			{
				"x": -5.1229436491,
				"y": -0.4578671596,
				"z": -4.7866978734,
				"element": "H" 
			},
			{
				"x": -3.7348846075,
				"y": -2.4213761859,
				"z": -4.1328061458,
				"element": "H" 
			},
			{
				"x": -2.9280169364,
				"y": -1.1659387166,
				"z": -5.0617818751,
				"element": "H" 
			},
			{
				"x": -2.7080855243,
				"y": 0.9055373838,
				"z": -2.7717693346,
				"element": "H" 
			},
			{
				"x": -0.975717845,
				"y": 1.1906379423,
				"z": -1.0378972627,
				"element": "H" 
			},
			{
				"x": -0.0962156781,
				"y": -3.0100220749,
				"z": -1.2185530095,
				"element": "H" 
			},
			{
				"x": -1.8408130342,
				"y": -3.287511063,
				"z": -2.972326437,
				"element": "H" 
			},
			{
				"x": -0.3237406492,
				"y": 0.7810199916,
				"z": 0.8658202089,
				"element": "H" 
			},
			{
				"x": 0.0638501442,
				"y": 2.2275462868,
				"z": 2.5636933112,
				"element": "H" 
			},
			{
				"x": 1.4684366367,
				"y": 2.9612408079,
				"z": 4.4817980492,
				"element": "H" 
			},
			{
				"x": 4.2278619774,
				"y": -0.2148054623,
				"z": 3.6849879963,
				"element": "H" 
			},
			{
				"x": 2.8210490541,
				"y": -0.9720829878,
				"z": 1.7575695446,
				"element": "H" 
			}
		],
		 "valence_orbital": [ 
			{
				"type": "occ",
				"energy": -0.2595,
				"method": "rhf"
			},
			{
				"type": "occ",
				"energy": -0.25858,
				"method": "rhf"
			},
			{
				"type": "occ",
				"energy": -0.25092,
				"method": "rhf"
			},
			{
				"type": "occ",
				"energy": -0.24237,
				"method": "rhf"
			},
			{
				"type": "occ",
				"energy": -0.21442,
				"method": "rhf"
			},
			{
				"type": "unocc",
				"energy": -0.04222,
				"method": "rhf"
			},
			{
				"type": "unocc",
				"energy": -0.01063,
				"method": "rhf"
			},
			{
				"type": "unocc",
				"energy": -0.00887,
				"method": "rhf"
			},
			{
				"type": "unocc",
				"energy": 0.01159,
				"method": "rhf"
			},
			{
				"type": "unocc",
				"energy": 0.06214,
				"method": "rhf"
			}
		],
		"cosmo_sigma_profile": { 
			"-0.025": 0.0,
			"-0.024": 0.0,
			"-0.023": 0.0,
			"-0.022": 0.0,
			"-0.021": 0.0,
			"-0.02": 0.0,
			"-0.019": 0.0,
			"-0.018": 0.0,
			"-0.017": 0.0,
			"-0.016": 0.0,
			"-0.015": 0.57645730719,
			"-0.014": 1.34830596789,
			"-0.013": 1.65757400182,
			"-0.012": 1.24237540374,
			"-0.011": 1.28965077744,
			"-0.01": 4.22005609612,
			"-0.009": 3.93781006374,
			"-0.008": 4.89944282828,
			"-0.007": 9.44318017155,
			"-0.006": 11.4471984134,
			"-0.005": 15.4379539684,
			"-0.004": 19.5073606481,
			"-0.003": 17.9736536361,
			"-0.002": 19.2738233382,
			"-0.001": 15.5689603791,
			"0.0": 16.8090152256,
			"0.001": 21.3148909553,
			"0.002": 23.5034557126,
			"0.003": 25.1801576537,
			"0.004": 32.5538821855,
			"0.005": 15.3248627782,
			"0.006": 2.61158472867,
			"0.007": 3.18025829501,
			"0.008": 2.41014498599,
			"0.009": 2.12357032966,
			"0.01": 2.15057351387,
			"0.011": 2.72541515605,
			"0.012": 3.30336262986,
			"0.013": 3.40168790111,
			"0.014": 0.913437604833,
			"0.015": 0.388457238643,
			"0.016": 0.551319299495,
			"0.017": 0.084949288691,
			"0.018": 0.0,
			"0.019": 0.0,
			"0.02": 0.0,
			"0.021": 0.0,
			"0.022": 0.0,
			"0.023": 0.0,
			"0.024": 0.0,
			"0.025": 0.0
		}
	}
}
