{
	 "smiles": "NC(=O)CC(O)C(O)=O", 
	 "Tm": 421.15, 
	 "num_atms": 16, 
	 "gaussian": { 
		 "optdone": 1, 
		 "sigma_profile": "yes", 
		 "theory": "DFT", 
		 "functional": "B3LYP", 
		 "basiset": "6-31G**", 
		 "properties": { 
			 "R2extent": 1663.647, 
			 "electric_dipole_moment_norm": 3.01310616308, 
			 "electric_quadrupole_moment_norm": 16.7650936902, 
			 "total_energy": -512.318005854, 
			 "HOMO_LUMO_gap": 0.22235, 
			 "cosmo_polarized_energy": -17.03, 
			 "cosmo_cavitation_energy": 20.35, 
			 "cosmo_dispersion_energy": -15.21, 
			 "cosmo_repulsion_energy": 1.3, 
			 "cosmo_total_nonelectrostatic_energy": 6.43, 
			 "SMD_solvation_energy": 5.58 
		},
		"coords": [
			{
				"x": 0.4272667875,
				"y": 1.5993023546,
				"z": 1.5385685911,
				"element": "N" 
			},
			{
				"x": 1.3261372733,
				"y": 0.645781809,
				"z": 1.1698174059,
				"element": "C" 
			},
			{
				"x": 2.3338903229,
				"y": 0.3822855103,
				"z": 1.8106543277,
				"element": "O" 
			},
			{
				"x": 0.9645289427,
				"y": -0.1350937048,
				"z": -0.101790342,
				"element": "C" 
			},
			{
				"x": 0.5049986362,
				"y": 0.7331422169,
				"z": -1.2950299424,
				"element": "C" 
			},
			{
				"x": -0.6986638921,
				"y": 1.4297740253,
				"z": -1.0273251657,
				"element": "O" 
			},
			{
				"x": 0.2820194003,
				"y": -0.1451977429,
				"z": -2.5188172499,
				"element": "C" 
			},
			{
				"x": 1.4121881041,
				"y": -0.6752934748,
				"z": -3.0080133564,
				"element": "O" 
			},
			{
				"x": -0.8224273025,
				"y": -0.3539009557,
				"z": -2.9808308221,
				"element": "O" 
			},
			{
				"x": 0.6485881458,
				"y": 2.1655094933,
				"z": 2.3433981522,
				"element": "H" 
			},
			{
				"x": -0.3351421068,
				"y": 1.8492599068,
				"z": 0.9225692132,
				"element": "H" 
			},
			{
				"x": 1.8526919361,
				"y": -0.7067961052,
				"z": -0.3764221447,
				"element": "H" 
			},
			{
				"x": 0.1617709042,
				"y": -0.8441681725,
				"z": 0.1381546487,
				"element": "H" 
			},
			{
				"x": 1.2892862959,
				"y": 1.4631834591,
				"z": -1.5330717589,
				"element": "H" 
			},
			{
				"x": -1.3927175048,
				"y": 0.9705331589,
				"z": -1.5320147618,
				"element": "H" 
			},
			{
				"x": 1.1641840571,
				"y": -1.2375217783,
				"z": -3.7618467947,
				"element": "H" 
			}
		],
		 "valence_orbital": [ 
			{
				"type": "occ",
				"energy": -0.34864,
				"method": "rhf"
			},
			{
				"type": "occ",
				"energy": -0.31288,
				"method": "rhf"
			},
			{
				"type": "occ",
				"energy": -0.29729,
				"method": "rhf"
			},
			{
				"type": "occ",
				"energy": -0.2597,
				"method": "rhf"
			},
			{
				"type": "occ",
				"energy": -0.24187,
				"method": "rhf"
			},
			{
				"type": "unocc",
				"energy": -0.01952,
				"method": "rhf"
			},
			{
				"type": "unocc",
				"energy": 0.03082,
				"method": "rhf"
			},
			{
				"type": "unocc",
				"energy": 0.05345,
				"method": "rhf"
			},
			{
				"type": "unocc",
				"energy": 0.08531,
				"method": "rhf"
			},
			{
				"type": "unocc",
				"energy": 0.11442,
				"method": "rhf"
			}
		],
		"cosmo_sigma_profile": { 
			"-0.025": 0.0,
			"-0.024": 0.0,
			"-0.023": 0.0,
			"-0.022": 0.0,
			"-0.021": 0.0,
			"-0.02": 0.0556080937916,
			"-0.019": 1.06839586728,
			"-0.018": 0.649024205146,
			"-0.017": 1.12958724973,
			"-0.016": 0.828353449765,
			"-0.015": 1.33877894561,
			"-0.014": 1.00679685424,
			"-0.013": 1.48140376477,
			"-0.012": 1.63284592393,
			"-0.011": 2.94319409455,
			"-0.01": 1.98131108594,
			"-0.009": 3.32861411962,
			"-0.008": 4.5603794769,
			"-0.007": 8.94568020629,
			"-0.006": 8.32755661954,
			"-0.005": 8.32857024437,
			"-0.004": 9.47003587332,
			"-0.003": 9.08572616635,
			"-0.002": 7.87942746438,
			"-0.001": 7.34988034025,
			"0.0": 8.27137776035,
			"0.001": 6.85270715177,
			"0.002": 5.68933312064,
			"0.003": 6.4003421708,
			"0.004": 5.69465351777,
			"0.005": 4.98348012693,
			"0.006": 4.64451240977,
			"0.007": 4.1886103959,
			"0.008": 4.48552064566,
			"0.009": 4.72088908557,
			"0.01": 4.72045959948,
			"0.011": 3.88210821475,
			"0.012": 2.2561925321,
			"0.013": 3.78437971863,
			"0.014": 5.71270300239,
			"0.015": 1.96052654139,
			"0.016": 0.009539941352,
			"0.017": 0.0,
			"0.018": 0.0,
			"0.019": 0.0,
			"0.02": 0.0,
			"0.021": 0.0,
			"0.022": 0.0,
			"0.023": 0.0,
			"0.024": 0.0,
			"0.025": 0.0
		}
	}
}
