{
	 "smiles": "O=C(NC(=S)NC1=CC=CC=C1)C1=CC=CC=C1", 
	 "Tm": 433.15, 
	 "num_atms": 30, 
	 "gaussian": { 
		 "optdone": 1, 
		 "sigma_profile": "yes", 
		 "theory": "DFT", 
		 "functional": "B3LYP", 
		 "basiset": "6-31G**", 
		 "properties": { 
			 "R2extent": 6485.5798, 
			 "electric_dipole_moment_norm": 4.21620802499, 
			 "electric_quadrupole_moment_norm": 26.215581853, 
			 "total_energy": -1123.65817717, 
			 "HOMO_LUMO_gap": 0.14658, 
			 "cosmo_polarized_energy": -17.78, 
			 "cosmo_cavitation_energy": 36.5, 
			 "cosmo_dispersion_energy": -25.9, 
			 "cosmo_repulsion_energy": 1.97, 
			 "cosmo_total_nonelectrostatic_energy": 12.57, 
			 "SMD_solvation_energy": 5.76 
		},
		"coords": [
			{
				"x": 1.4085143649,
				"y": -1.5653794101,
				"z": 0.4250585737,
				"element": "O" 
			},
			{
				"x": 0.1981565671,
				"y": -1.5872872095,
				"z": 0.2979790692,
				"element": "C" 
			},
			{
				"x": -0.4417746255,
				"y": -2.1810000176,
				"z": -0.8080448682,
				"element": "N" 
			},
			{
				"x": 0.1722540146,
				"y": -2.9338815383,
				"z": -1.8127803634,
				"element": "C" 
			},
			{
				"x": -0.5454930997,
				"y": -4.3526899366,
				"z": -2.3405643651,
				"element": "S" 
			},
			{
				"x": 1.3325826119,
				"y": -2.4787243498,
				"z": -2.3432126245,
				"element": "N" 
			},
			{
				"x": 1.9055350917,
				"y": -1.1787482718,
				"z": -2.3837233376,
				"element": "C" 
			},
			{
				"x": 1.123636604,
				"y": -0.0180810023,
				"z": -2.4191050995,
				"element": "C" 
			},
			{
				"x": 1.7425662562,
				"y": 1.2260167583,
				"z": -2.5276237736,
				"element": "C" 
			},
			{
				"x": 3.1318794658,
				"y": 1.3247493059,
				"z": -2.6247063073,
				"element": "C" 
			},
			{
				"x": 3.9056147924,
				"y": 0.162937013,
				"z": -2.6090741269,
				"element": "C" 
			},
			{
				"x": 3.2981836818,
				"y": -1.0846761994,
				"z": -2.4852633408,
				"element": "C" 
			},
			{
				"x": -0.7346052939,
				"y": -1.0026817268,
				"z": 1.314120897,
				"element": "C" 
			},
			{
				"x": -0.2108827896,
				"y": -0.7562253562,
				"z": 2.5916404931,
				"element": "C" 
			},
			{
				"x": -1.0162978937,
				"y": -0.2108677071,
				"z": 3.5873846536,
				"element": "C" 
			},
			{
				"x": -2.3499938147,
				"y": 0.1055393014,
				"z": 3.3139775442,
				"element": "C" 
			},
			{
				"x": -2.8737001058,
				"y": -0.1203946234,
				"z": 2.0396985426,
				"element": "C" 
			},
			{
				"x": -2.070949636,
				"y": -0.6728598816,
				"z": 1.0418921602,
				"element": "C" 
			},
			{
				"x": -1.3823171414,
				"y": -2.513159726,
				"z": -0.6357799595,
				"element": "H" 
			},
			{
				"x": 1.7643266399,
				"y": -3.1651374661,
				"z": -2.9488049694,
				"element": "H" 
			},
			{
				"x": 0.0432185527,
				"y": -0.0893977361,
				"z": -2.370099312,
				"element": "H" 
			},
			{
				"x": 1.1304617942,
				"y": 2.1229080201,
				"z": -2.551720676,
				"element": "H" 
			},
			{
				"x": 3.6061194009,
				"y": 2.2970853288,
				"z": -2.715278602,
				"element": "H" 
			},
			{
				"x": 4.9871232775,
				"y": 0.2253306428,
				"z": -2.6848046097,
				"element": "H" 
			},
			{
				"x": 3.8989615983,
				"y": -1.989047719,
				"z": -2.4514863938,
				"element": "H" 
			},
			{
				"x": 0.8291526957,
				"y": -1.0011006522,
				"z": 2.7780252613,
				"element": "H" 
			},
			{
				"x": -0.6059159815,
				"y": -0.0307895947,
				"z": 4.5764961011,
				"element": "H" 
			},
			{
				"x": -2.9779429181,
				"y": 0.5326868712,
				"z": 4.0904523354,
				"element": "H" 
			},
			{
				"x": -3.9048812762,
				"y": 0.1389299458,
				"z": 1.8196569286,
				"element": "H" 
			},
			{
				"x": -2.4843328334,
				"y": -0.8123530628,
				"z": 0.0472901695,
				"element": "H" 
			}
		],
		 "valence_orbital": [ 
			{
				"type": "occ",
				"energy": -0.26619,
				"method": "rhf"
			},
			{
				"type": "occ",
				"energy": -0.25906,
				"method": "rhf"
			},
			{
				"type": "occ",
				"energy": -0.25123,
				"method": "rhf"
			},
			{
				"type": "occ",
				"energy": -0.22293,
				"method": "rhf"
			},
			{
				"type": "occ",
				"energy": -0.2131,
				"method": "rhf"
			},
			{
				"type": "unocc",
				"energy": -0.06652,
				"method": "rhf"
			},
			{
				"type": "unocc",
				"energy": -0.03081,
				"method": "rhf"
			},
			{
				"type": "unocc",
				"energy": -0.01986,
				"method": "rhf"
			},
			{
				"type": "unocc",
				"energy": -0.01006,
				"method": "rhf"
			},
			{
				"type": "unocc",
				"energy": 0.01135,
				"method": "rhf"
			}
		],
		"cosmo_sigma_profile": { 
			"-0.025": 0.0,
			"-0.024": 0.0,
			"-0.023": 0.0,
			"-0.022": 0.0,
			"-0.021": 0.0,
			"-0.02": 0.0,
			"-0.019": 0.0,
			"-0.018": 0.0,
			"-0.017": 0.0,
			"-0.016": 0.0533964212123,
			"-0.015": 0.894032616253,
			"-0.014": 1.32943357452,
			"-0.013": 2.33540396075,
			"-0.012": 2.21341638195,
			"-0.011": 2.66630226435,
			"-0.01": 1.79073581622,
			"-0.009": 2.28760500819,
			"-0.008": 2.95357313346,
			"-0.007": 6.68368928597,
			"-0.006": 20.2714619702,
			"-0.005": 24.5537144097,
			"-0.004": 24.1319739819,
			"-0.003": 17.7241253805,
			"-0.002": 17.4308739339,
			"-0.001": 15.8356409229,
			"0.0": 15.3690143058,
			"0.001": 17.5890587937,
			"0.002": 17.6555412943,
			"0.003": 22.2163190028,
			"0.004": 21.2149629226,
			"0.005": 11.0303895142,
			"0.006": 6.71230178135,
			"0.007": 7.34433771625,
			"0.008": 7.71816278706,
			"0.009": 9.16344962838,
			"0.01": 8.58150530451,
			"0.011": 6.15358643673,
			"0.012": 1.73693426066,
			"0.013": 0.0132613237964,
			"0.014": 0.0,
			"0.015": 0.0,
			"0.016": 0.0,
			"0.017": 0.0,
			"0.018": 0.0,
			"0.019": 0.0,
			"0.02": 0.0,
			"0.021": 0.0,
			"0.022": 0.0,
			"0.023": 0.0,
			"0.024": 0.0,
			"0.025": 0.0
		}
	}
}
