{
	 "smiles": "C1=CC=C2C(=C1)C1=CC=CC3=C1C2=CC=C3", 
	 "Tm": 381.15, 
	 "num_atms": 26, 
	 "gaussian": { 
		 "optdone": 1, 
		 "sigma_profile": "yes", 
		 "theory": "DFT", 
		 "functional": "B3LYP", 
		 "basiset": "6-31G**", 
		 "properties": { 
			 "R2extent": 3501.6926, 
			 "electric_dipole_moment_norm": 0.32876718206, 
			 "electric_quadrupole_moment_norm": 10.7888630736, 
			 "total_energy": -615.752553655, 
			 "HOMO_LUMO_gap": 0.14748, 
			 "cosmo_polarized_energy": -6.26, 
			 "cosmo_cavitation_energy": 29.35, 
			 "cosmo_dispersion_energy": -21.86, 
			 "cosmo_repulsion_energy": 1.62, 
			 "cosmo_total_nonelectrostatic_energy": 9.11, 
			 "SMD_solvation_energy": 3.98 
		},
		"coords": [
			{
				"x": 0.8574043672,
				"y": -3.0837700419,
				"z": -3.3472782433,
				"element": "C" 
			},
			{
				"x": -0.4483470732,
				"y": -2.6917000152,
				"z": -3.6556679303,
				"element": "C" 
			},
			{
				"x": -1.1406209176,
				"y": -1.7965230634,
				"z": -2.8301903478,
				"element": "C" 
			},
			{
				"x": -0.5099637738,
				"y": -1.2997335787,
				"z": -1.6939655609,
				"element": "C" 
			},
			{
				"x": 0.8242181384,
				"y": -1.7002797394,
				"z": -1.3788909005,
				"element": "C" 
			},
			{
				"x": 1.5022286769,
				"y": -2.5900493613,
				"z": -2.2060302854,
				"element": "C" 
			},
			{
				"x": 1.2245432283,
				"y": -1.0192042186,
				"z": -0.1317908193,
				"element": "C" 
			},
			{
				"x": 2.3568142154,
				"y": -0.9960021716,
				"z": 0.6575818328,
				"element": "C" 
			},
			{
				"x": 2.359037565,
				"y": -0.184166319,
				"z": 1.8267041223,
				"element": "C" 
			},
			{
				"x": 1.2691426189,
				"y": 0.5829442036,
				"z": 2.2023324352,
				"element": "C" 
			},
			{
				"x": 0.0861575052,
				"y": 0.5803125002,
				"z": 1.4086107083,
				"element": "C" 
			},
			{
				"x": 0.1137713914,
				"y": -0.2297601916,
				"z": 0.2619534659,
				"element": "C" 
			},
			{
				"x": -0.9655282081,
				"y": -0.361780791,
				"z": -0.6489542526,
				"element": "C" 
			},
			{
				"x": -2.1227301438,
				"y": 0.3486164057,
				"z": -0.4001905595,
				"element": "C" 
			},
			{
				"x": -2.1809316707,
				"y": 1.1785496846,
				"z": 0.7546960688,
				"element": "C" 
			},
			{
				"x": -1.1214243463,
				"y": 1.3004858654,
				"z": 1.6378670517,
				"element": "C" 
			},
			{
				"x": 1.378321819,
				"y": -3.7789085346,
				"z": -3.9993855419,
				"element": "H" 
			},
			{
				"x": -0.9320718148,
				"y": -3.0851623186,
				"z": -4.5450578887,
				"element": "H" 
			},
			{
				"x": -2.1555731499,
				"y": -1.4977188524,
				"z": -3.0784898112,
				"element": "H" 
			},
			{
				"x": 2.5176013228,
				"y": -2.9009007159,
				"z": -1.9748322146,
				"element": "H" 
			},
			{
				"x": 3.2400622161,
				"y": -1.5783954244,
				"z": 0.4096175936,
				"element": "H" 
			},
			{
				"x": 3.2523566364,
				"y": -0.1690071921,
				"z": 2.4449500828,
				"element": "H" 
			},
			{
				"x": 1.315635056,
				"y": 1.1882192257,
				"z": 3.1039015672,
				"element": "H" 
			},
			{
				"x": -2.9840447371,
				"y": 0.2898852556,
				"z": -1.060099129,
				"element": "H" 
			},
			{
				"x": -3.0937061481,
				"y": 1.735808705,
				"z": 0.9464770235,
				"element": "H" 
			},
			{
				"x": -1.2105527737,
				"y": 1.946440684,
				"z": 2.507431533,
				"element": "H" 
			}
		],
		 "valence_orbital": [ 
			{
				"type": "occ",
				"energy": -0.30033,
				"method": "rhf"
			},
			{
				"type": "occ",
				"energy": -0.26296,
				"method": "rhf"
			},
			{
				"type": "occ",
				"energy": -0.2453,
				"method": "rhf"
			},
			{
				"type": "occ",
				"energy": -0.21735,
				"method": "rhf"
			},
			{
				"type": "occ",
				"energy": -0.21241,
				"method": "rhf"
			},
			{
				"type": "unocc",
				"energy": -0.06493,
				"method": "rhf"
			},
			{
				"type": "unocc",
				"energy": -0.0182,
				"method": "rhf"
			},
			{
				"type": "unocc",
				"energy": -0.0001,
				"method": "rhf"
			},
			{
				"type": "unocc",
				"energy": 0.02697,
				"method": "rhf"
			},
			{
				"type": "unocc",
				"energy": 0.06274,
				"method": "rhf"
			}
		],
		"cosmo_sigma_profile": { 
			"-0.025": 0.0,
			"-0.024": 0.0,
			"-0.023": 0.0,
			"-0.022": 0.0,
			"-0.021": 0.0,
			"-0.02": 0.0,
			"-0.019": 0.0,
			"-0.018": 0.0,
			"-0.017": 0.0,
			"-0.016": 0.0,
			"-0.015": 0.0,
			"-0.014": 0.0,
			"-0.013": 0.0,
			"-0.012": 0.0,
			"-0.011": 0.0,
			"-0.01": 0.0,
			"-0.009": 0.0,
			"-0.008": 0.0,
			"-0.007": 0.430915889457,
			"-0.006": 15.7379345844,
			"-0.005": 25.1542448253,
			"-0.004": 21.6302309767,
			"-0.003": 17.9484799822,
			"-0.002": 14.2284343914,
			"-0.001": 12.4579503098,
			"0.0": 10.6669949361,
			"0.001": 14.4646139752,
			"0.002": 15.4908278473,
			"0.003": 27.4528015348,
			"0.004": 36.6039636507,
			"0.005": 19.8023072157,
			"0.006": 4.93680049995,
			"0.007": 0.0,
			"0.008": 0.0,
			"0.009": 0.0,
			"0.01": 0.0,
			"0.011": 0.0,
			"0.012": 0.0,
			"0.013": 0.0,
			"0.014": 0.0,
			"0.015": 0.0,
			"0.016": 0.0,
			"0.017": 0.0,
			"0.018": 0.0,
			"0.019": 0.0,
			"0.02": 0.0,
			"0.021": 0.0,
			"0.022": 0.0,
			"0.023": 0.0,
			"0.024": 0.0,
			"0.025": 0.0
		}
	}
}
