{
	 "smiles": "COC1=C(OC)C(=CC=C1)C(=O)NN", 
	 "Tm": 351.15, 
	 "num_atms": 26, 
	 "gaussian": { 
		 "optdone": 1, 
		 "sigma_profile": "yes", 
		 "theory": "DFT", 
		 "functional": "B3LYP", 
		 "basiset": "6-31G**", 
		 "properties": { 
			 "R2extent": 3779.0948, 
			 "electric_dipole_moment_norm": 4.83600760442, 
			 "electric_quadrupole_moment_norm": 17.836595962, 
			 "total_energy": -685.309510144, 
			 "HOMO_LUMO_gap": 0.20035, 
			 "cosmo_polarized_energy": -15.25, 
			 "cosmo_cavitation_energy": 29.6, 
			 "cosmo_dispersion_energy": -20.97, 
			 "cosmo_repulsion_energy": 1.68, 
			 "cosmo_total_nonelectrostatic_energy": 10.31, 
			 "SMD_solvation_energy": 7.71 
		},
		"coords": [
			{
				"x": 2.4790784205,
				"y": -1.6486973361,
				"z": 1.7676767915,
				"element": "C" 
			},
			{
				"x": 1.8144578828,
				"y": -1.0469521342,
				"z": 0.6667618411,
				"element": "O" 
			},
			{
				"x": 0.7683294469,
				"y": -1.7187151724,
				"z": 0.1027656483,
				"element": "C" 
			},
			{
				"x": 0.1374135772,
				"y": -1.0640377278,
				"z": -0.9805505533,
				"element": "C" 
			},
			{
				"x": 0.5787003833,
				"y": 0.1836184338,
				"z": -1.366076264,
				"element": "O" 
			},
			{
				"x": 1.8093068803,
				"y": 0.2048072066,
				"z": -2.1025152164,
				"element": "C" 
			},
			{
				"x": -0.949351178,
				"y": -1.6621637946,
				"z": -1.6277157745,
				"element": "C" 
			},
			{
				"x": -1.3860995773,
				"y": -2.931503816,
				"z": -1.2112466194,
				"element": "C" 
			},
			{
				"x": -0.7716165401,
				"y": -3.5680508027,
				"z": -0.1425519505,
				"element": "C" 
			},
			{
				"x": 0.3053179589,
				"y": -2.9681055281,
				"z": 0.5196733275,
				"element": "C" 
			},
			{
				"x": -1.6349783132,
				"y": -1.0795750854,
				"z": -2.8418284769,
				"element": "C" 
			},
			{
				"x": -1.8306823781,
				"y": -1.7701765965,
				"z": -3.8378630438,
				"element": "O" 
			},
			{
				"x": -2.0724379722,
				"y": 0.215908154,
				"z": -2.7883380176,
				"element": "N" 
			},
			{
				"x": -2.1213721666,
				"y": 1.0781741616,
				"z": -1.6792853821,
				"element": "N" 
			},
			{
				"x": 1.7975740045,
				"y": -1.8050744939,
				"z": 2.6133594098,
				"element": "H" 
			},
			{
				"x": 3.2628868186,
				"y": -0.9498248173,
				"z": 2.0631121651,
				"element": "H" 
			},
			{
				"x": 2.9347726578,
				"y": -2.6081377393,
				"z": 1.4913371726,
				"element": "H" 
			},
			{
				"x": 2.6342978434,
				"y": -0.177114724,
				"z": -1.4945942056,
				"element": "H" 
			},
			{
				"x": 1.9938238536,
				"y": 1.2504569792,
				"z": -2.3552846641,
				"element": "H" 
			},
			{
				"x": 1.7187647146,
				"y": -0.3830173176,
				"z": -3.0232923435,
				"element": "H" 
			},
			{
				"x": -2.2011867252,
				"y": -3.4007683829,
				"z": -1.750758934,
				"element": "H" 
			},
			{
				"x": -1.1192590637,
				"y": -4.5436544674,
				"z": 0.1834010648,
				"element": "H" 
			},
			{
				"x": 0.7771780829,
				"y": -3.4801779478,
				"z": 1.3498023312,
				"element": "H" 
			},
			{
				"x": -2.5729172131,
				"y": 0.5297584369,
				"z": -3.6096031877,
				"element": "H" 
			},
			{
				"x": -1.164818746,
				"y": 1.2693275523,
				"z": -1.3881443603,
				"element": "H" 
			},
			{
				"x": -2.6032826517,
				"y": 0.6173969595,
				"z": -0.9100407582,
				"element": "H" 
			}
		],
		 "valence_orbital": [ 
			{
				"type": "occ",
				"energy": -0.27103,
				"method": "rhf"
			},
			{
				"type": "occ",
				"energy": -0.25771,
				"method": "rhf"
			},
			{
				"type": "occ",
				"energy": -0.24616,
				"method": "rhf"
			},
			{
				"type": "occ",
				"energy": -0.23302,
				"method": "rhf"
			},
			{
				"type": "occ",
				"energy": -0.2243,
				"method": "rhf"
			},
			{
				"type": "unocc",
				"energy": -0.02395,
				"method": "rhf"
			},
			{
				"type": "unocc",
				"energy": 0.00125,
				"method": "rhf"
			},
			{
				"type": "unocc",
				"energy": 0.05002,
				"method": "rhf"
			},
			{
				"type": "unocc",
				"energy": 0.07637,
				"method": "rhf"
			},
			{
				"type": "unocc",
				"energy": 0.09027,
				"method": "rhf"
			}
		],
		"cosmo_sigma_profile": { 
			"-0.025": 0.0,
			"-0.024": 0.0,
			"-0.023": 0.0,
			"-0.022": 0.0,
			"-0.021": 0.0,
			"-0.02": 0.0,
			"-0.019": 0.0,
			"-0.018": 0.0,
			"-0.017": 0.0,
			"-0.016": 0.0,
			"-0.015": 0.0,
			"-0.014": 0.124923468619,
			"-0.013": 1.02891560849,
			"-0.012": 1.18940436811,
			"-0.011": 1.82124586648,
			"-0.01": 2.16593191583,
			"-0.009": 1.56924795204,
			"-0.008": 2.41892083136,
			"-0.007": 4.81375105075,
			"-0.006": 14.3962014101,
			"-0.005": 20.0941391176,
			"-0.004": 24.4781264912,
			"-0.003": 24.9770566662,
			"-0.002": 16.2675395101,
			"-0.001": 12.9282228629,
			"0.0": 12.90271757,
			"0.001": 11.7162858943,
			"0.002": 12.4584530091,
			"0.003": 12.9761009888,
			"0.004": 11.8770601574,
			"0.005": 8.84931855094,
			"0.006": 3.7001318417,
			"0.007": 3.30113176923,
			"0.008": 3.24600707229,
			"0.009": 2.53897885389,
			"0.01": 3.51823647697,
			"0.011": 3.31712001418,
			"0.012": 2.42001377417,
			"0.013": 5.15681503805,
			"0.014": 5.76897740664,
			"0.015": 1.36206172058,
			"0.016": 0.508119392803,
			"0.017": 0.212147864202,
			"0.018": 0.0,
			"0.019": 0.0,
			"0.02": 0.0,
			"0.021": 0.0,
			"0.022": 0.0,
			"0.023": 0.0,
			"0.024": 0.0,
			"0.025": 0.0
		}
	}
}
