{
	 "smiles": "CCN(CC)S(=O)(=O)C1=CC=C(C=C1)C(=O)CBr", 
	 "Tm": 353.15, 
	 "num_atms": 34, 
	 "gaussian": { 
		 "optdone": 1, 
		 "sigma_profile": "yes", 
		 "theory": "DFT", 
		 "functional": "B3LYP", 
		 "basiset": "6-31G**", 
		 "properties": { 
			 "R2extent": 9030.8971, 
			 "electric_dipole_moment_norm": 2.90332919422, 
			 "electric_quadrupole_moment_norm": 23.1472183605, 
			 "total_energy": -3716.8658929, 
			 "HOMO_LUMO_gap": 0.15755, 
			 "cosmo_polarized_energy": -16.37, 
			 "cosmo_cavitation_energy": 40.42, 
			 "cosmo_dispersion_energy": -28.45, 
			 "cosmo_repulsion_energy": 2.18, 
			 "cosmo_total_nonelectrostatic_energy": 14.15, 
			 "SMD_solvation_energy": 5.61 
		},
		"coords": [
			{
				"x": 1.9151411266,
				"y": -2.2955779452,
				"z": -1.986711673,
				"element": "C" 
			},
			{
				"x": 2.2828134458,
				"y": -0.935913752,
				"z": -2.588407235,
				"element": "C" 
			},
			{
				"x": 1.3106718199,
				"y": 0.1301158209,
				"z": -2.3035280213,
				"element": "N" 
			},
			{
				"x": 0.0530175749,
				"y": 0.1784635307,
				"z": -3.0676096156,
				"element": "C" 
			},
			{
				"x": 0.1824682879,
				"y": 0.9243385489,
				"z": -4.3971986384,
				"element": "C" 
			},
			{
				"x": 1.6152281249,
				"y": 1.2899097624,
				"z": -1.1510350792,
				"element": "S" 
			},
			{
				"x": 3.0638332263,
				"y": 1.3202469741,
				"z": -0.9314622741,
				"element": "O" 
			},
			{
				"x": 0.8547138473,
				"y": 2.4844634257,
				"z": -1.5298193008,
				"element": "O" 
			},
			{
				"x": 0.8755560065,
				"y": 0.6898729928,
				"z": 0.3828403049,
				"element": "C" 
			},
			{
				"x": 1.6270727511,
				"y": -0.1241672695,
				"z": 1.2372139569,
				"element": "C" 
			},
			{
				"x": 1.0413804448,
				"y": -0.6085510271,
				"z": 2.4005251198,
				"element": "C" 
			},
			{
				"x": -0.2870256068,
				"y": -0.2826745006,
				"z": 2.7221583824,
				"element": "C" 
			},
			{
				"x": -1.0198402152,
				"y": 0.5478817322,
				"z": 1.8610323371,
				"element": "C" 
			},
			{
				"x": -0.4402221141,
				"y": 1.0390552907,
				"z": 0.6924424485,
				"element": "C" 
			},
			{
				"x": -0.8381024856,
				"y": -0.8205057544,
				"z": 4.0049686799,
				"element": "C" 
			},
			{
				"x": -0.171720443,
				"y": -1.5392135787,
				"z": 4.7312410637,
				"element": "O" 
			},
			{
				"x": -2.2445408168,
				"y": -0.4354404298,
				"z": 4.4523489358,
				"element": "C" 
			},
			{
				"x": -3.6127077671,
				"y": -1.3835391692,
				"z": 3.3802101564,
				"element": "Br" 
			},
			{
				"x": 2.6630737391,
				"y": -3.0436655511,
				"z": -2.2701635453,
				"element": "H" 
			},
			{
				"x": 1.8769311571,
				"y": -2.2482776752,
				"z": -0.8948016863,
				"element": "H" 
			},
			{
				"x": 0.9418937474,
				"y": -2.6482848602,
				"z": -2.3429856568,
				"element": "H" 
			},
			{
				"x": 3.2557675837,
				"y": -0.6015187924,
				"z": -2.2252473785,
				"element": "H" 
			},
			{
				"x": 2.3669083833,
				"y": -1.0150744268,
				"z": -3.6791379609,
				"element": "H" 
			},
			{
				"x": -0.2665675729,
				"y": -0.856842453,
				"z": -3.2321214636,
				"element": "H" 
			},
			{
				"x": -0.7180337235,
				"y": 0.6474973962,
				"z": -2.4516977128,
				"element": "H" 
			},
			{
				"x": -0.7654188905,
				"y": 0.8872029839,
				"z": -4.9451597311,
				"element": "H" 
			},
			{
				"x": 0.442655862,
				"y": 1.9696707811,
				"z": -4.2171917561,
				"element": "H" 
			},
			{
				"x": 0.9544570134,
				"y": 0.4773933533,
				"z": -5.0318411916,
				"element": "H" 
			},
			{
				"x": 2.6611060732,
				"y": -0.3468023454,
				"z": 0.9977691477,
				"element": "H" 
			},
			{
				"x": 1.5984474233,
				"y": -1.2360964314,
				"z": 3.0876597303,
				"element": "H" 
			},
			{
				"x": -2.0484662257,
				"y": 0.8070901914,
				"z": 2.0853189164,
				"element": "H" 
			},
			{
				"x": -0.9890520121,
				"y": 1.7054810853,
				"z": 0.0368174391,
				"element": "H" 
			},
			{
				"x": -2.3840953323,
				"y": -0.7615517381,
				"z": 5.4797367188,
				"element": "H" 
			},
			{
				"x": -2.4569444331,
				"y": 0.6279138303,
				"z": 4.3444365827,
				"element": "H" 
			}
		],
		 "valence_orbital": [ 
			{
				"type": "occ",
				"energy": -0.29424,
				"method": "rhf"
			},
			{
				"type": "occ",
				"energy": -0.28603,
				"method": "rhf"
			},
			{
				"type": "occ",
				"energy": -0.2804,
				"method": "rhf"
			},
			{
				"type": "occ",
				"energy": -0.27026,
				"method": "rhf"
			},
			{
				"type": "occ",
				"energy": -0.24872,
				"method": "rhf"
			},
			{
				"type": "unocc",
				"energy": -0.09117,
				"method": "rhf"
			},
			{
				"type": "unocc",
				"energy": -0.03303,
				"method": "rhf"
			},
			{
				"type": "unocc",
				"energy": -0.0299,
				"method": "rhf"
			},
			{
				"type": "unocc",
				"energy": 0.02462,
				"method": "rhf"
			},
			{
				"type": "unocc",
				"energy": 0.05269,
				"method": "rhf"
			}
		],
		"cosmo_sigma_profile": { 
			"-0.025": 0.0,
			"-0.024": 0.0,
			"-0.023": 0.0,
			"-0.022": 0.0,
			"-0.021": 0.0,
			"-0.02": 0.0,
			"-0.019": 0.0,
			"-0.018": 0.0,
			"-0.017": 0.0,
			"-0.016": 0.0,
			"-0.015": 0.0,
			"-0.014": 0.0,
			"-0.013": 0.0,
			"-0.012": 0.0,
			"-0.011": 0.120236322315,
			"-0.01": 1.73607129378,
			"-0.009": 4.09206973948,
			"-0.008": 5.5411671527,
			"-0.007": 9.03706600934,
			"-0.006": 14.0115978586,
			"-0.005": 19.3900681834,
			"-0.004": 22.8676764566,
			"-0.003": 28.0295205287,
			"-0.002": 29.4992825733,
			"-0.001": 26.1786687398,
			"0.0": 31.7471446037,
			"0.001": 35.3226570311,
			"0.002": 17.1755120079,
			"0.003": 12.2007312145,
			"0.004": 11.4873534083,
			"0.005": 12.6788277488,
			"0.006": 4.4691756629,
			"0.007": 4.81290862595,
			"0.008": 4.9692049754,
			"0.009": 6.09013090796,
			"0.01": 9.86630401852,
			"0.011": 9.19555372559,
			"0.012": 2.98155062329,
			"0.013": 0.0,
			"0.014": 0.0,
			"0.015": 0.0,
			"0.016": 0.0,
			"0.017": 0.0,
			"0.018": 0.0,
			"0.019": 0.0,
			"0.02": 0.0,
			"0.021": 0.0,
			"0.022": 0.0,
			"0.023": 0.0,
			"0.024": 0.0,
			"0.025": 0.0
		}
	}
}
