{
	 "smiles": "CC1=CC(=NC(=C1)C(C)(C)C)C(C)(C)C", 
	 "Tm": 307.65, 
	 "num_atms": 38, 
	 "gaussian": { 
		 "optdone": 1, 
		 "sigma_profile": "yes", 
		 "theory": "DFT", 
		 "functional": "B3LYP", 
		 "basiset": "6-31G**", 
		 "properties": { 
			 "R2extent": 3840.0913, 
			 "electric_dipole_moment_norm": 1.73656175819, 
			 "electric_quadrupole_moment_norm": 3.8516683593, 
			 "total_energy": -602.14500976, 
			 "HOMO_LUMO_gap": 0.22397, 
			 "cosmo_polarized_energy": -4.52, 
			 "cosmo_cavitation_energy": 37.52, 
			 "cosmo_dispersion_energy": -25.12, 
			 "cosmo_repulsion_energy": 1.97, 
			 "cosmo_total_nonelectrostatic_energy": 14.37, 
			 "SMD_solvation_energy": 6.51 
		},
		"coords": [
			{
				"x": 3.2937412963,
				"y": -0.58439283,
				"z": 2.374690424,
				"element": "C" 
			},
			{
				"x": 2.1504435394,
				"y": -0.2966146241,
				"z": 1.4322385965,
				"element": "C" 
			},
			{
				"x": 1.2720682381,
				"y": 0.7650275358,
				"z": 1.6660105141,
				"element": "C" 
			},
			{
				"x": 0.2042677342,
				"y": 0.9876805488,
				"z": 0.7889268901,
				"element": "C" 
			},
			{
				"x": 0.0036602212,
				"y": 0.2022032291,
				"z": -0.280593895,
				"element": "N" 
			},
			{
				"x": 0.8350481301,
				"y": -0.8217015035,
				"z": -0.5286432004,
				"element": "C" 
			},
			{
				"x": 1.9211882752,
				"y": -1.0974153579,
				"z": 0.3099862494,
				"element": "C" 
			},
			{
				"x": 0.506517889,
				"y": -1.6472791263,
				"z": -1.7844583098,
				"element": "C" 
			},
			{
				"x": 0.5453077742,
				"y": -0.7100560817,
				"z": -3.0128503035,
				"element": "C" 
			},
			{
				"x": 1.4965473415,
				"y": -2.8043044846,
				"z": -2.0063807204,
				"element": "C" 
			},
			{
				"x": -0.9179827212,
				"y": -2.2273385844,
				"z": -1.6319358642,
				"element": "C" 
			},
			{
				"x": -0.8107439707,
				"y": 2.1299961704,
				"z": 0.9666376594,
				"element": "C" 
			},
			{
				"x": -0.761749104,
				"y": 3.0310215469,
				"z": -0.2881880927,
				"element": "C" 
			},
			{
				"x": -0.5218902024,
				"y": 2.9885632222,
				"z": 2.2105866169,
				"element": "C" 
			},
			{
				"x": -2.2231051843,
				"y": 1.5158593478,
				"z": 1.0970169128,
				"element": "C" 
			},
			{
				"x": 2.9792580091,
				"y": -1.2723720394,
				"z": 3.169380616,
				"element": "H" 
			},
			{
				"x": 3.6535215986,
				"y": 0.3284977883,
				"z": 2.8584304369,
				"element": "H" 
			},
			{
				"x": 4.1343202424,
				"y": -1.0520103696,
				"z": 1.8535562087,
				"element": "H" 
			},
			{
				"x": 1.4284533745,
				"y": 1.4074891466,
				"z": 2.5249189614,
				"element": "H" 
			},
			{
				"x": 2.5897272298,
				"y": -1.9242044033,
				"z": 0.0992321177,
				"element": "H" 
			},
			{
				"x": -0.1451285919,
				"y": 0.1256255631,
				"z": -2.8787111225,
				"element": "H" 
			},
			{
				"x": 1.5503134003,
				"y": -0.3006599485,
				"z": -3.1646148849,
				"element": "H" 
			},
			{
				"x": 0.2624170129,
				"y": -1.2572435636,
				"z": -3.9192327831,
				"element": "H" 
			},
			{
				"x": 1.4920061364,
				"y": -3.5127451268,
				"z": -1.1708815693,
				"element": "H" 
			},
			{
				"x": 2.5218418428,
				"y": -2.4447044517,
				"z": -2.1457312979,
				"element": "H" 
			},
			{
				"x": 1.2183352826,
				"y": -3.3591620606,
				"z": -2.9083395328,
				"element": "H" 
			},
			{
				"x": -1.6417017967,
				"y": -1.4263976701,
				"z": -1.4653233815,
				"element": "H" 
			},
			{
				"x": -0.9733793314,
				"y": -2.9185268661,
				"z": -0.7834740548,
				"element": "H" 
			},
			{
				"x": -1.2045668214,
				"y": -2.7771993965,
				"z": -2.5355256307,
				"element": "H" 
			},
			{
				"x": -1.5126725021,
				"y": 3.8259643546,
				"z": -0.2164202372,
				"element": "H" 
			},
			{
				"x": 0.2212398523,
				"y": 3.5029311288,
				"z": -0.3964027265,
				"element": "H" 
			},
			{
				"x": -0.9578856988,
				"y": 2.4445377099,
				"z": -1.1885271652,
				"element": "H" 
			},
			{
				"x": -0.5667600373,
				"y": 2.4001173842,
				"z": 3.1334482145,
				"element": "H" 
			},
			{
				"x": -1.2707459855,
				"y": 3.7832020641,
				"z": 2.2916263815,
				"element": "H" 
			},
			{
				"x": 0.4612656814,
				"y": 3.4686821412,
				"z": 2.15723102,
				"element": "H" 
			},
			{
				"x": -2.4518023452,
				"y": 0.8939954048,
				"z": 0.2286704701,
				"element": "H" 
			},
			{
				"x": -2.299875789,
				"y": 0.8906067246,
				"z": 1.993603791,
				"element": "H" 
			},
			{
				"x": -2.9777000204,
				"y": 2.3071274776,
				"z": 1.1707426913,
				"element": "H" 
			}
		],
		 "valence_orbital": [ 
			{
				"type": "occ",
				"energy": -0.31582,
				"method": "rhf"
			},
			{
				"type": "occ",
				"energy": -0.31007,
				"method": "rhf"
			},
			{
				"type": "occ",
				"energy": -0.25996,
				"method": "rhf"
			},
			{
				"type": "occ",
				"energy": -0.23995,
				"method": "rhf"
			},
			{
				"type": "occ",
				"energy": -0.23828,
				"method": "rhf"
			},
			{
				"type": "unocc",
				"energy": -0.01431,
				"method": "rhf"
			},
			{
				"type": "unocc",
				"energy": 0.00272,
				"method": "rhf"
			},
			{
				"type": "unocc",
				"energy": 0.08495,
				"method": "rhf"
			},
			{
				"type": "unocc",
				"energy": 0.10117,
				"method": "rhf"
			},
			{
				"type": "unocc",
				"energy": 0.10909,
				"method": "rhf"
			}
		],
		"cosmo_sigma_profile": { 
			"-0.025": 0.0,
			"-0.024": 0.0,
			"-0.023": 0.0,
			"-0.022": 0.0,
			"-0.021": 0.0,
			"-0.02": 0.0,
			"-0.019": 0.0,
			"-0.018": 0.0,
			"-0.017": 0.0,
			"-0.016": 0.0,
			"-0.015": 0.0,
			"-0.014": 0.0,
			"-0.013": 0.0,
			"-0.012": 0.0,
			"-0.011": 0.0,
			"-0.01": 0.0,
			"-0.009": 0.0,
			"-0.008": 0.0,
			"-0.007": 0.0,
			"-0.006": 0.0,
			"-0.005": 3.65265643479,
			"-0.004": 11.813978456,
			"-0.003": 26.1821930916,
			"-0.002": 49.2515391652,
			"-0.001": 41.7787487109,
			"0.0": 41.823668257,
			"0.001": 44.6949850303,
			"0.002": 33.6358628565,
			"0.003": 10.214761899,
			"0.004": 12.3420186979,
			"0.005": 6.20143747225,
			"0.006": 4.28105067241,
			"0.007": 2.08005022844,
			"0.008": 0.807778822542,
			"0.009": 0.929859941794,
			"0.01": 0.481461634713,
			"0.011": 0.133466757845,
			"0.012": 0.0,
			"0.013": 0.0,
			"0.014": 0.0,
			"0.015": 0.0,
			"0.016": 0.0,
			"0.017": 0.0,
			"0.018": 0.0,
			"0.019": 0.0,
			"0.02": 0.0,
			"0.021": 0.0,
			"0.022": 0.0,
			"0.023": 0.0,
			"0.024": 0.0,
			"0.025": 0.0
		}
	}
}
