{
	 "smiles": "CCCCCC1CCCC(=O)O1", 
	 "Tm": 246.15, 
	 "num_atms": 30, 
	 "gaussian": { 
		 "optdone": 1, 
		 "sigma_profile": "yes", 
		 "theory": "DFT", 
		 "functional": "B3LYP", 
		 "basiset": "6-31G**", 
		 "properties": { 
			 "R2extent": 3276.767, 
			 "electric_dipole_moment_norm": 4.38946763173, 
			 "electric_quadrupole_moment_norm": 15.0184307126, 
			 "total_energy": -542.388689382, 
			 "HOMO_LUMO_gap": 0.27066, 
			 "cosmo_polarized_energy": -10.72, 
			 "cosmo_cavitation_energy": 30.61, 
			 "cosmo_dispersion_energy": -21.88, 
			 "cosmo_repulsion_energy": 1.79, 
			 "cosmo_total_nonelectrostatic_energy": 10.51, 
			 "SMD_solvation_energy": 5.38 
		},
		"coords": [
			{
				"x": 0.9167633701,
				"y": 3.423549419,
				"z": -3.1211183785,
				"element": "C" 
			},
			{
				"x": 1.1596822427,
				"y": 2.2379021619,
				"z": -2.1810898073,
				"element": "C" 
			},
			{
				"x": 0.4697252181,
				"y": 2.4040295474,
				"z": -0.819730902,
				"element": "C" 
			},
			{
				"x": 0.7647977728,
				"y": 1.2910016368,
				"z": 0.2004296639,
				"element": "C" 
			},
			{
				"x": 0.3145161733,
				"y": -0.1264501519,
				"z": -0.1968460548,
				"element": "C" 
			},
			{
				"x": -1.1958450212,
				"y": -0.2838812014,
				"z": -0.4196870015,
				"element": "C" 
			},
			{
				"x": -1.6260563769,
				"y": -1.7122038619,
				"z": -0.7684710621,
				"element": "C" 
			},
			{
				"x": -1.6082558648,
				"y": -2.6145777456,
				"z": 0.4664745587,
				"element": "C" 
			},
			{
				"x": -2.5411542211,
				"y": -2.0210378068,
				"z": 1.5256408907,
				"element": "C" 
			},
			{
				"x": -2.3861823176,
				"y": -0.5232832186,
				"z": 1.753490913,
				"element": "C" 
			},
			{
				"x": -2.7512948531,
				"y": 0.0188227298,
				"z": 2.7697470119,
				"element": "O" 
			},
			{
				"x": -1.8983388542,
				"y": 0.2424380721,
				"z": 0.7415552731,
				"element": "O" 
			},
			{
				"x": 1.2910652052,
				"y": 4.3566683835,
				"z": -2.6849941768,
				"element": "H" 
			},
			{
				"x": 1.41738358,
				"y": 3.2820246559,
				"z": -4.0846167796,
				"element": "H" 
			},
			{
				"x": -0.1527343378,
				"y": 3.5596767101,
				"z": -3.3187445347,
				"element": "H" 
			},
			{
				"x": 2.2398093174,
				"y": 2.1091819821,
				"z": -2.0246741803,
				"element": "H" 
			},
			{
				"x": 0.8141953915,
				"y": 1.317252682,
				"z": -2.6699521863,
				"element": "H" 
			},
			{
				"x": 0.7881336451,
				"y": 3.3584378317,
				"z": -0.379544066,
				"element": "H" 
			},
			{
				"x": -0.6145146789,
				"y": 2.4990734736,
				"z": -0.9671884197,
				"element": "H" 
			},
			{
				"x": 0.2896502454,
				"y": 1.5507093104,
				"z": 1.1520457334,
				"element": "H" 
			},
			{
				"x": 1.846067105,
				"y": 1.2602185356,
				"z": 0.3894943819,
				"element": "H" 
			},
			{
				"x": 0.8176685654,
				"y": -0.4426382201,
				"z": -1.1196392948,
				"element": "H" 
			},
			{
				"x": 0.6387563411,
				"y": -0.8258653872,
				"z": 0.5838887115,
				"element": "H" 
			},
			{
				"x": -1.5049052041,
				"y": 0.3866401433,
				"z": -1.2281254897,
				"element": "H" 
			},
			{
				"x": -0.9667621654,
				"y": -2.0953394523,
				"z": -1.5550200103,
				"element": "H" 
			},
			{
				"x": -2.6410373013,
				"y": -1.6909872783,
				"z": -1.1852420986,
				"element": "H" 
			},
			{
				"x": -1.9257667336,
				"y": -3.6307651405,
				"z": 0.2103335017,
				"element": "H" 
			},
			{
				"x": -0.5901295261,
				"y": -2.6979651745,
				"z": 0.863794891,
				"element": "H" 
			},
			{
				"x": -3.5863042967,
				"y": -2.1643046546,
				"z": 1.2179780473,
				"element": "H" 
			},
			{
				"x": -2.4387324203,
				"y": -2.5034279816,
				"z": 2.500610865,
				"element": "H" 
			}
		],
		 "valence_orbital": [ 
			{
				"type": "occ",
				"energy": -0.32034,
				"method": "rhf"
			},
			{
				"type": "occ",
				"energy": -0.31724,
				"method": "rhf"
			},
			{
				"type": "occ",
				"energy": -0.30754,
				"method": "rhf"
			},
			{
				"type": "occ",
				"energy": -0.28035,
				"method": "rhf"
			},
			{
				"type": "occ",
				"energy": -0.2551,
				"method": "rhf"
			},
			{
				"type": "unocc",
				"energy": 0.01556,
				"method": "rhf"
			},
			{
				"type": "unocc",
				"energy": 0.06595,
				"method": "rhf"
			},
			{
				"type": "unocc",
				"energy": 0.09125,
				"method": "rhf"
			},
			{
				"type": "unocc",
				"energy": 0.09619,
				"method": "rhf"
			},
			{
				"type": "unocc",
				"energy": 0.11116,
				"method": "rhf"
			}
		],
		"cosmo_sigma_profile": { 
			"-0.025": 0.0,
			"-0.024": 0.0,
			"-0.023": 0.0,
			"-0.022": 0.0,
			"-0.021": 0.0,
			"-0.02": 0.0,
			"-0.019": 0.0,
			"-0.018": 0.0,
			"-0.017": 0.0,
			"-0.016": 0.0,
			"-0.015": 0.0,
			"-0.014": 0.0,
			"-0.013": 0.0,
			"-0.012": 0.0,
			"-0.011": 0.0,
			"-0.01": 0.0,
			"-0.009": 0.0,
			"-0.008": 0.0,
			"-0.007": 0.413495385068,
			"-0.006": 4.7001437036,
			"-0.005": 10.1117391744,
			"-0.004": 23.6127328107,
			"-0.003": 27.1926210337,
			"-0.002": 33.1917568336,
			"-0.001": 35.8030386668,
			"0.0": 32.4443567393,
			"0.001": 23.6139951645,
			"0.002": 11.4697097831,
			"0.003": 2.99139231614,
			"0.004": 1.63949990018,
			"0.005": 2.32953822494,
			"0.006": 2.00087548891,
			"0.007": 2.13705473814,
			"0.008": 1.94008602638,
			"0.009": 2.09509680335,
			"0.01": 2.39384798645,
			"0.011": 3.11431366244,
			"0.012": 5.46678019823,
			"0.013": 5.39465107106,
			"0.014": 2.04105036686,
			"0.015": 0.171508875235,
			"0.016": 0.0,
			"0.017": 0.0,
			"0.018": 0.0,
			"0.019": 0.0,
			"0.02": 0.0,
			"0.021": 0.0,
			"0.022": 0.0,
			"0.023": 0.0,
			"0.024": 0.0,
			"0.025": 0.0
		}
	}
}
