{
	 "smiles": "OC(=O)CC1=CSC(CC2=CC=C(F)C=C2)=N1", 
	 "Tm": 411.15, 
	 "num_atms": 27, 
	 "gaussian": { 
		 "optdone": 1, 
		 "sigma_profile": "yes", 
		 "theory": "DFT", 
		 "functional": "B3LYP", 
		 "basiset": "6-31G**", 
		 "properties": { 
			 "R2extent": 6434.9092, 
			 "electric_dipole_moment_norm": 5.38066666223, 
			 "electric_quadrupole_moment_norm": 32.7081098142, 
			 "total_energy": -1166.53920206, 
			 "HOMO_LUMO_gap": 0.195, 
			 "cosmo_polarized_energy": -15.15, 
			 "cosmo_cavitation_energy": 34.35, 
			 "cosmo_dispersion_energy": -24.45, 
			 "cosmo_repulsion_energy": 1.85, 
			 "cosmo_total_nonelectrostatic_energy": 11.76, 
			 "SMD_solvation_energy": 6.5 
		},
		"coords": [
			{
				"x": 1.4126091983,
				"y": 2.097504885,
				"z": -2.8671491897,
				"element": "O" 
			},
			{
				"x": 1.5206615905,
				"y": 0.9641026384,
				"z": -3.5787297394,
				"element": "C" 
			},
			{
				"x": 1.989235996,
				"y": 0.9474922928,
				"z": -4.6914389981,
				"element": "O" 
			},
			{
				"x": 1.0881769293,
				"y": -0.3313420193,
				"z": -2.8646839539,
				"element": "C" 
			},
			{
				"x": -0.1152304707,
				"y": -0.2232887417,
				"z": -1.9686712107,
				"element": "C" 
			},
			{
				"x": -1.1852908949,
				"y": -1.0692473291,
				"z": -1.9247601963,
				"element": "C" 
			},
			{
				"x": -2.309411098,
				"y": -0.5525944008,
				"z": -0.7086906441,
				"element": "S" 
			},
			{
				"x": -1.2607695519,
				"y": 0.7997518611,
				"z": -0.3388462702,
				"element": "C" 
			},
			{
				"x": -1.5768089048,
				"y": 1.8000918866,
				"z": 0.7413621937,
				"element": "C" 
			},
			{
				"x": -1.2804854731,
				"y": 1.2899674832,
				"z": 2.1451983945,
				"element": "C" 
			},
			{
				"x": 0.0280636772,
				"y": 0.9452214558,
				"z": 2.5131572236,
				"element": "C" 
			},
			{
				"x": 0.3139573969,
				"y": 0.4854254559,
				"z": 3.7965934347,
				"element": "C" 
			},
			{
				"x": -0.7269794988,
				"y": 0.3716987141,
				"z": 4.713369571,
				"element": "C" 
			},
			{
				"x": -0.4566517575,
				"y": -0.0726143214,
				"z": 5.9574018425,
				"element": "F" 
			},
			{
				"x": -2.0346819724,
				"y": 0.703304159,
				"z": 4.3834534082,
				"element": "C" 
			},
			{
				"x": -2.3023018676,
				"y": 1.1622559336,
				"z": 3.092285415,
				"element": "C" 
			},
			{
				"x": -0.1751658587,
				"y": 0.8252539915,
				"z": -1.0652263969,
				"element": "N" 
			},
			{
				"x": 0.9495257761,
				"y": 1.91411538,
				"z": -2.0166242054,
				"element": "H" 
			},
			{
				"x": 1.9542132992,
				"y": -0.6480863592,
				"z": -2.2652929989,
				"element": "H" 
			},
			{
				"x": 0.9387150817,
				"y": -1.0890750846,
				"z": -3.6343534563,
				"element": "H" 
			},
			{
				"x": -1.3735170558,
				"y": -1.9457491136,
				"z": -2.5278841542,
				"element": "H" 
			},
			{
				"x": -2.6284064381,
				"y": 2.0964787039,
				"z": 0.6738586504,
				"element": "H" 
			},
			{
				"x": -0.976475766,
				"y": 2.6904327389,
				"z": 0.5260318033,
				"element": "H" 
			},
			{
				"x": 0.8300481249,
				"y": 1.0348047761,
				"z": 1.7856901897,
				"element": "H" 
			},
			{
				"x": 1.3218746375,
				"y": 0.2177900212,
				"z": 4.0946546708,
				"element": "H" 
			},
			{
				"x": -2.8185741404,
				"y": 0.6020596283,
				"z": 5.1260432717,
				"element": "H" 
			},
			{
				"x": -3.3218309591,
				"y": 1.4274453644,
				"z": 2.8248513448,
				"element": "H" 
			}
		],
		 "valence_orbital": [ 
			{
				"type": "occ",
				"energy": -0.29672,
				"method": "rhf"
			},
			{
				"type": "occ",
				"energy": -0.27469,
				"method": "rhf"
			},
			{
				"type": "occ",
				"energy": -0.27212,
				"method": "rhf"
			},
			{
				"type": "occ",
				"energy": -0.25388,
				"method": "rhf"
			},
			{
				"type": "occ",
				"energy": -0.24558,
				"method": "rhf"
			},
			{
				"type": "unocc",
				"energy": -0.05058,
				"method": "rhf"
			},
			{
				"type": "unocc",
				"energy": -0.02586,
				"method": "rhf"
			},
			{
				"type": "unocc",
				"energy": -0.01239,
				"method": "rhf"
			},
			{
				"type": "unocc",
				"energy": -0.00072,
				"method": "rhf"
			},
			{
				"type": "unocc",
				"energy": 0.01628,
				"method": "rhf"
			}
		],
		"cosmo_sigma_profile": { 
			"-0.025": 0.0,
			"-0.024": 0.0,
			"-0.023": 0.0,
			"-0.022": 0.0,
			"-0.021": 0.0,
			"-0.02": 0.0,
			"-0.019": 0.0,
			"-0.018": 0.0,
			"-0.017": 0.0,
			"-0.016": 0.0,
			"-0.015": 0.0,
			"-0.014": 0.0,
			"-0.013": 0.0,
			"-0.012": 0.0,
			"-0.011": 0.0,
			"-0.01": 0.533297822931,
			"-0.009": 2.22198199285,
			"-0.008": 5.68583036147,
			"-0.007": 15.0510768398,
			"-0.006": 17.0179799635,
			"-0.005": 17.2808560766,
			"-0.004": 20.8041900104,
			"-0.003": 18.3901909435,
			"-0.002": 15.4881737069,
			"-0.001": 17.6504209726,
			"0.0": 21.3160958879,
			"0.001": 27.901346338,
			"0.002": 22.6493809325,
			"0.003": 17.9032603048,
			"0.004": 20.8015217353,
			"0.005": 6.82992395911,
			"0.006": 3.02909573198,
			"0.007": 1.30585926479,
			"0.008": 2.45671720794,
			"0.009": 3.30372741433,
			"0.01": 3.37955306254,
			"0.011": 5.68423413569,
			"0.012": 6.78014759946,
			"0.013": 3.50766179409,
			"0.014": 0.45279660888,
			"0.015": 0.0,
			"0.016": 0.0,
			"0.017": 0.0,
			"0.018": 0.0,
			"0.019": 0.0,
			"0.02": 0.0,
			"0.021": 0.0,
			"0.022": 0.0,
			"0.023": 0.0,
			"0.024": 0.0,
			"0.025": 0.0
		}
	}
}
