{
	 "smiles": "CS(=O)(=O)OC1CCOC2(CCOCC2)C1", 
	 "Tm": 384.15, 
	 "num_atms": 34, 
	 "gaussian": { 
		 "optdone": 1, 
		 "sigma_profile": "yes", 
		 "theory": "DFT", 
		 "functional": "B3LYP", 
		 "basiset": "6-31G**", 
		 "properties": { 
			 "R2extent": 4968.1863, 
			 "electric_dipole_moment_norm": 3.09361194237, 
			 "electric_quadrupole_moment_norm": 17.8830035028, 
			 "total_energy": -1166.13075933, 
			 "HOMO_LUMO_gap": 0.29165, 
			 "cosmo_polarized_energy": -16.13, 
			 "cosmo_cavitation_energy": 35.11, 
			 "cosmo_dispersion_energy": -25.85, 
			 "cosmo_repulsion_energy": 1.97, 
			 "cosmo_total_nonelectrostatic_energy": 11.23, 
			 "SMD_solvation_energy": 4.68 
		},
		"coords": [
			{
				"x": 3.4421533042,
				"y": -1.6789217379,
				"z": -2.2857080154,
				"element": "C" 
			},
			{
				"x": 2.1527779449,
				"y": -0.4468656994,
				"z": -2.4815701352,
				"element": "S" 
			},
			{
				"x": 1.6265651033,
				"y": -0.5142327677,
				"z": -3.8436646952,
				"element": "O" 
			},
			{
				"x": 2.5974016935,
				"y": 0.8370319846,
				"z": -1.9373027758,
				"element": "O" 
			},
			{
				"x": 1.0850887256,
				"y": -1.1282979788,
				"z": -1.4382216206,
				"element": "O" 
			},
			{
				"x": 0.0378854323,
				"y": -0.257189277,
				"z": -0.9002366061,
				"element": "C" 
			},
			{
				"x": -1.078233559,
				"y": -0.0136252335,
				"z": -1.929944998,
				"element": "C" 
			},
			{
				"x": -2.4235568012,
				"y": 0.1503104574,
				"z": -1.1949088368,
				"element": "C" 
			},
			{
				"x": -2.2422825504,
				"y": 0.7634559621,
				"z": 0.0769568663,
				"element": "O" 
			},
			{
				"x": -1.5536228245,
				"y": -0.0561218179,
				"z": 1.0427882058,
				"element": "C" 
			},
			{
				"x": -0.8849727133,
				"y": 0.9400493029,
				"z": 2.0198936213,
				"element": "C" 
			},
			{
				"x": -0.8074900741,
				"y": 0.3631901542,
				"z": 3.4497827165,
				"element": "C" 
			},
			{
				"x": -0.6853115547,
				"y": -1.0540358593,
				"z": 3.4278577728,
				"element": "O" 
			},
			{
				"x": -1.8810795497,
				"y": -1.6840216529,
				"z": 2.9700809189,
				"element": "C" 
			},
			{
				"x": -2.5716600599,
				"y": -0.8968066382,
				"z": 1.8351186515,
				"element": "C" 
			},
			{
				"x": -0.5063608292,
				"y": -0.9607702773,
				"z": 0.3366211819,
				"element": "C" 
			},
			{
				"x": 3.0309872894,
				"y": -2.6546309835,
				"z": -2.5446617594,
				"element": "H" 
			},
			{
				"x": 4.2419936456,
				"y": -1.4053672778,
				"z": -2.9754790278,
				"element": "H" 
			},
			{
				"x": 3.7943453306,
				"y": -1.658159332,
				"z": -1.2548620847,
				"element": "H" 
			},
			{
				"x": 0.5142546211,
				"y": 0.6855293008,
				"z": -0.6177892036,
				"element": "H" 
			},
			{
				"x": -0.8475337882,
				"y": 0.8714163696,
				"z": -2.5294307815,
				"element": "H" 
			},
			{
				"x": -1.1255825806,
				"y": -0.8666316496,
				"z": -2.6145380553,
				"element": "H" 
			},
			{
				"x": -3.1006437241,
				"y": 0.8033827141,
				"z": -1.7511740769,
				"element": "H" 
			},
			{
				"x": -2.9255442334,
				"y": -0.8230088926,
				"z": -1.0880844805,
				"element": "H" 
			},
			{
				"x": -1.4816334429,
				"y": 1.8578403153,
				"z": 2.0189823885,
				"element": "H" 
			},
			{
				"x": 0.113007752,
				"y": 1.2056150663,
				"z": 1.6558677322,
				"element": "H" 
			},
			{
				"x": -1.6941262284,
				"y": 0.6563890483,
				"z": 4.034665981,
				"element": "H" 
			},
			{
				"x": 0.0707802758,
				"y": 0.7392820745,
				"z": 3.9810247563,
				"element": "H" 
			},
			{
				"x": -2.5809098729,
				"y": -1.8185623864,
				"z": 3.8101681987,
				"element": "H" 
			},
			{
				"x": -1.5749167088,
				"y": -2.6787408632,
				"z": 2.6316853066,
				"element": "H" 
			},
			{
				"x": -3.3195950391,
				"y": -0.2058991141,
				"z": 2.2391309207,
				"element": "H" 
			},
			{
				"x": -3.1050134528,
				"y": -1.5882161933,
				"z": 1.1734105405,
				"element": "H" 
			},
			{
				"x": -0.9609554281,
				"y": -1.9098409149,
				"z": 0.0265958989,
				"element": "H" 
			},
			{
				"x": 0.2973838972,
				"y": -1.200346203,
				"z": 1.0357454944,
				"element": "H" 
			}
		],
		 "valence_orbital": [ 
			{
				"type": "occ",
				"energy": -0.30616,
				"method": "rhf"
			},
			{
				"type": "occ",
				"energy": -0.30105,
				"method": "rhf"
			},
			{
				"type": "occ",
				"energy": -0.28723,
				"method": "rhf"
			},
			{
				"type": "occ",
				"energy": -0.25686,
				"method": "rhf"
			},
			{
				"type": "occ",
				"energy": -0.24862,
				"method": "rhf"
			},
			{
				"type": "unocc",
				"energy": 0.04303,
				"method": "rhf"
			},
			{
				"type": "unocc",
				"energy": 0.06326,
				"method": "rhf"
			},
			{
				"type": "unocc",
				"energy": 0.0682,
				"method": "rhf"
			},
			{
				"type": "unocc",
				"energy": 0.08414,
				"method": "rhf"
			},
			{
				"type": "unocc",
				"energy": 0.09405,
				"method": "rhf"
			}
		],
		"cosmo_sigma_profile": { 
			"-0.025": 0.0,
			"-0.024": 0.0,
			"-0.023": 0.0,
			"-0.022": 0.0,
			"-0.021": 0.0,
			"-0.02": 0.0,
			"-0.019": 0.0,
			"-0.018": 0.0,
			"-0.017": 0.0,
			"-0.016": 0.0,
			"-0.015": 0.0,
			"-0.014": 0.0,
			"-0.013": 0.0,
			"-0.012": 0.0,
			"-0.011": 0.0275365029867,
			"-0.01": 1.23656802077,
			"-0.009": 4.92368846432,
			"-0.008": 5.34107302015,
			"-0.007": 5.28450673994,
			"-0.006": 6.20935660932,
			"-0.005": 18.9646972392,
			"-0.004": 39.5369285387,
			"-0.003": 38.5441659696,
			"-0.002": 26.6637237471,
			"-0.001": 19.8535794495,
			"0.0": 13.773799153,
			"0.001": 7.759640059,
			"0.002": 9.0177673795,
			"0.003": 7.91746756648,
			"0.004": 7.48920168234,
			"0.005": 5.77750740486,
			"0.006": 6.51402792601,
			"0.007": 6.95679186768,
			"0.008": 5.11970685964,
			"0.009": 6.234523173,
			"0.01": 13.1433121712,
			"0.011": 10.0880900497,
			"0.012": 3.53403175456,
			"0.013": 1.8833546781,
			"0.014": 0.870626180403,
			"0.015": 0.0,
			"0.016": 0.0,
			"0.017": 0.0,
			"0.018": 0.0,
			"0.019": 0.0,
			"0.02": 0.0,
			"0.021": 0.0,
			"0.022": 0.0,
			"0.023": 0.0,
			"0.024": 0.0,
			"0.025": 0.0
		}
	}
}
