{
	 "smiles": "CC1=CC=C(Br)C=C1O", 
	 "Tm": 352.15, 
	 "num_atms": 16, 
	 "gaussian": { 
		 "optdone": 1, 
		 "sigma_profile": "yes", 
		 "theory": "DFT", 
		 "functional": "B3LYP", 
		 "basiset": "6-31G**", 
		 "properties": { 
			 "R2extent": 4057.6063, 
			 "electric_dipole_moment_norm": 3.53240665977, 
			 "electric_quadrupole_moment_norm": 5.77294316012, 
			 "total_energy": -2917.59414162, 
			 "HOMO_LUMO_gap": 0.21518, 
			 "cosmo_polarized_energy": -8.09, 
			 "cosmo_cavitation_energy": 21.92, 
			 "cosmo_dispersion_energy": -16.86, 
			 "cosmo_repulsion_energy": 1.37, 
			 "cosmo_total_nonelectrostatic_energy": 6.44, 
			 "SMD_solvation_energy": 2.89 
		},
		"coords": [
			{
				"x": -0.3856510109,
				"y": 1.8164762974,
				"z": -0.7577364217,
				"element": "C" 
			},
			{
				"x": 0.3147536325,
				"y": 1.1316570406,
				"z": 0.3913319308,
				"element": "C" 
			},
			{
				"x": 1.4446662281,
				"y": 1.6854846421,
				"z": 1.0007506947,
				"element": "C" 
			},
			{
				"x": 2.0985309766,
				"y": 1.0606675663,
				"z": 2.0626224621,
				"element": "C" 
			},
			{
				"x": 1.5983885954,
				"y": -0.1560192404,
				"z": 2.521736621,
				"element": "C" 
			},
			{
				"x": 2.470596819,
				"y": -1.040813741,
				"z": 3.9764541793,
				"element": "Br" 
			},
			{
				"x": 0.4781098555,
				"y": -0.7459096005,
				"z": 1.9481150926,
				"element": "C" 
			},
			{
				"x": -0.1587300702,
				"y": -0.0986837119,
				"z": 0.8848803124,
				"element": "C" 
			},
			{
				"x": -1.2543408302,
				"y": -0.723997179,
				"z": 0.3602433086,
				"element": "O" 
			},
			{
				"x": 0.1113195072,
				"y": 2.7556431626,
				"z": -1.0114616121,
				"element": "H" 
			},
			{
				"x": -0.389366128,
				"y": 1.1994016393,
				"z": -1.6668546685,
				"element": "H" 
			},
			{
				"x": -1.4302143378,
				"y": 2.0601592379,
				"z": -0.5194076676,
				"element": "H" 
			},
			{
				"x": 1.8245329984,
				"y": 2.6352576325,
				"z": 0.6327752125,
				"element": "H" 
			},
			{
				"x": 2.9726643097,
				"y": 1.5073559083,
				"z": 2.5203879653,
				"element": "H" 
			},
			{
				"x": 0.0874306273,
				"y": -1.6915552856,
				"z": 2.3031646265,
				"element": "H" 
			},
			{
				"x": -1.6136911726,
				"y": -0.1948243684,
				"z": -0.3627020358,
				"element": "H" 
			}
		],
		 "valence_orbital": [ 
			{
				"type": "occ",
				"energy": -0.34495,
				"method": "rhf"
			},
			{
				"type": "occ",
				"energy": -0.29773,
				"method": "rhf"
			},
			{
				"type": "occ",
				"energy": -0.28188,
				"method": "rhf"
			},
			{
				"type": "occ",
				"energy": -0.2433,
				"method": "rhf"
			},
			{
				"type": "occ",
				"energy": -0.22492,
				"method": "rhf"
			},
			{
				"type": "unocc",
				"energy": -0.00974,
				"method": "rhf"
			},
			{
				"type": "unocc",
				"energy": 0.00215,
				"method": "rhf"
			},
			{
				"type": "unocc",
				"energy": 0.01142,
				"method": "rhf"
			},
			{
				"type": "unocc",
				"energy": 0.0582,
				"method": "rhf"
			},
			{
				"type": "unocc",
				"energy": 0.11406,
				"method": "rhf"
			}
		],
		"cosmo_sigma_profile": { 
			"-0.025": 0.0,
			"-0.024": 0.0,
			"-0.023": 0.0,
			"-0.022": 0.0,
			"-0.021": 0.0,
			"-0.02": 0.0,
			"-0.019": 0.0,
			"-0.018": 0.0,
			"-0.017": 0.0509442662711,
			"-0.016": 0.621046678585,
			"-0.015": 0.532262597929,
			"-0.014": 1.28978205255,
			"-0.013": 0.945366856816,
			"-0.012": 1.08031863918,
			"-0.011": 1.30667231869,
			"-0.01": 1.1803236995,
			"-0.009": 1.39333753746,
			"-0.008": 1.1266896575,
			"-0.007": 3.01350250136,
			"-0.006": 8.35375894494,
			"-0.005": 9.59899230455,
			"-0.004": 12.0524531503,
			"-0.003": 10.5082953353,
			"-0.002": 10.7855309495,
			"-0.001": 12.7840633521,
			"0.0": 11.6715189656,
			"0.001": 10.6078074478,
			"0.002": 12.4280943977,
			"0.003": 21.1837828017,
			"0.004": 21.1738974138,
			"0.005": 14.4582639028,
			"0.006": 1.69614196055,
			"0.007": 1.51911853584,
			"0.008": 1.54319545267,
			"0.009": 1.19943877404,
			"0.01": 1.84217474504,
			"0.011": 1.79814375931,
			"0.012": 0.0769119594641,
			"0.013": 0.0,
			"0.014": 0.0,
			"0.015": 0.0,
			"0.016": 0.0,
			"0.017": 0.0,
			"0.018": 0.0,
			"0.019": 0.0,
			"0.02": 0.0,
			"0.021": 0.0,
			"0.022": 0.0,
			"0.023": 0.0,
			"0.024": 0.0,
			"0.025": 0.0
		}
	}
}
