{
	 "smiles": "COC1=CC=C2CC3N(C)CCC4=C3C(=C3OCOC3=C4)C2=C1O", 
	 "Tm": 473.15, 
	 "num_atms": 43, 
	 "gaussian": { 
		 "optdone": 1, 
		 "sigma_profile": "yes", 
		 "theory": "DFT", 
		 "functional": "B3LYP", 
		 "basiset": "6-31G**", 
		 "properties": { 
			 "R2extent": 8823.5299, 
			 "electric_dipole_moment_norm": 2.61594367485, 
			 "electric_quadrupole_moment_norm": 17.5780702587, 
			 "total_energy": -1091.08156348, 
			 "HOMO_LUMO_gap": 0.17056, 
			 "cosmo_polarized_energy": -13.31, 
			 "cosmo_cavitation_energy": 42.43, 
			 "cosmo_dispersion_energy": -31.4, 
			 "cosmo_repulsion_energy": 2.32, 
			 "cosmo_total_nonelectrostatic_energy": 13.35, 
			 "SMD_solvation_energy": 5.02 
		},
		"coords": [
			{
				"x": -1.146772013,
				"y": -5.1116931885,
				"z": -1.6168149775,
				"element": "C" 
			},
			{
				"x": -1.134822534,
				"y": -3.6951777827,
				"z": -1.6795383162,
				"element": "O" 
			},
			{
				"x": -0.0217680427,
				"y": -3.034032268,
				"z": -1.2058808539,
				"element": "C" 
			},
			{
				"x": 1.1129790342,
				"y": -3.6273284296,
				"z": -0.6730138232,
				"element": "C" 
			},
			{
				"x": 2.1367881567,
				"y": -2.8072121357,
				"z": -0.1804510394,
				"element": "C" 
			},
			{
				"x": 2.0466286126,
				"y": -1.4233860725,
				"z": -0.2598793609,
				"element": "C" 
			},
			{
				"x": 3.1099709708,
				"y": -0.5269735239,
				"z": 0.3265477418,
				"element": "C" 
			},
			{
				"x": 2.4433243748,
				"y": 0.6458759625,
				"z": 1.0620238482,
				"element": "C" 
			},
			{
				"x": 3.4029138661,
				"y": 1.4746782327,
				"z": 1.8071587782,
				"element": "N" 
			},
			{
				"x": 4.6281374795,
				"y": 1.8303889186,
				"z": 1.0934467329,
				"element": "C" 
			},
			{
				"x": 2.709768314,
				"y": 2.6477201041,
				"z": 2.3412310835,
				"element": "C" 
			},
			{
				"x": 2.1882141767,
				"y": 3.587081082,
				"z": 1.24143245,
				"element": "C" 
			},
			{
				"x": 1.5038934009,
				"y": 2.8205465904,
				"z": 0.1238717731,
				"element": "C" 
			},
			{
				"x": 1.5848358976,
				"y": 1.4264968547,
				"z": 0.0615801837,
				"element": "C" 
			},
			{
				"x": 0.8873846,
				"y": 0.6718815646,
				"z": -0.934759464,
				"element": "C" 
			},
			{
				"x": 0.2526507065,
				"y": 1.4202166836,
				"z": -1.9191686595,
				"element": "C" 
			},
			{
				"x": -0.3314317334,
				"y": 0.9960540451,
				"z": -3.091302814,
				"element": "O" 
			},
			{
				"x": -0.9985760201,
				"y": 2.1361398841,
				"z": -3.6222911556,
				"element": "C" 
			},
			{
				"x": -0.4680773496,
				"y": 3.2956183989,
				"z": -2.9720189993,
				"element": "O" 
			},
			{
				"x": 0.1999227079,
				"y": 2.8146552053,
				"z": -1.8691668867,
				"element": "C" 
			},
			{
				"x": 0.7887517428,
				"y": 3.539458408,
				"z": -0.8604826495,
				"element": "C" 
			},
			{
				"x": 0.9209098128,
				"y": -0.8071205104,
				"z": -0.8643850256,
				"element": "C" 
			},
			{
				"x": -0.138888441,
				"y": -1.6280838331,
				"z": -1.2793791449,
				"element": "C" 
			},
			{
				"x": -1.312450336,
				"y": -1.1003589248,
				"z": -1.7149559765,
				"element": "O" 
			},
			{
				"x": -1.058096897,
				"y": -5.4669757567,
				"z": -0.5823156393,
				"element": "H" 
			},
			{
				"x": -2.106999771,
				"y": -5.4285080591,
				"z": -2.0268897035,
				"element": "H" 
			},
			{
				"x": -0.3362994914,
				"y": -5.5451324651,
				"z": -2.2162916618,
				"element": "H" 
			},
			{
				"x": 1.2011461629,
				"y": -4.7056018985,
				"z": -0.6074858837,
				"element": "H" 
			},
			{
				"x": 3.0093478175,
				"y": -3.2619959535,
				"z": 0.2794762341,
				"element": "H" 
			},
			{
				"x": 3.7442635936,
				"y": -1.0891787396,
				"z": 1.0193506423,
				"element": "H" 
			},
			{
				"x": 3.7553248595,
				"y": -0.1376102034,
				"z": -0.4723254719,
				"element": "H" 
			},
			{
				"x": 1.7755138266,
				"y": 0.204543848,
				"z": 1.819830375,
				"element": "H" 
			},
			{
				"x": 4.4762496303,
				"y": 2.3463439509,
				"z": 0.1297546052,
				"element": "H" 
			},
			{
				"x": 5.2297668805,
				"y": 0.9378246123,
				"z": 0.9036225193,
				"element": "H" 
			},
			{
				"x": 5.221114601,
				"y": 2.4894051428,
				"z": 1.7362302381,
				"element": "H" 
			},
			{
				"x": 3.3856835856,
				"y": 3.1856412525,
				"z": 3.0161726027,
				"element": "H" 
			},
			{
				"x": 1.8687979923,
				"y": 2.2875419063,
				"z": 2.947572191,
				"element": "H" 
			},
			{
				"x": 3.0189067323,
				"y": 4.1771405107,
				"z": 0.8296792422,
				"element": "H" 
			},
			{
				"x": 1.4905181923,
				"y": 4.3161574122,
				"z": 1.6733220002,
				"element": "H" 
			},
			{
				"x": -0.8082304817,
				"y": 2.2007606892,
				"z": -4.6975400547,
				"element": "H" 
			},
			{
				"x": -2.0784775828,
				"y": 2.0645838292,
				"z": -3.4190775156,
				"element": "H" 
			},
			{
				"x": 0.7250356546,
				"y": 4.6224697631,
				"z": -0.8339898015,
				"element": "H" 
			},
			{
				"x": -1.882052689,
				"y": -1.849655107,
				"z": -1.9496983627,
				"element": "H" 
			}
		],
		 "valence_orbital": [ 
			{
				"type": "occ",
				"energy": -0.25521,
				"method": "rhf"
			},
			{
				"type": "occ",
				"energy": -0.20628,
				"method": "rhf"
			},
			{
				"type": "occ",
				"energy": -0.1998,
				"method": "rhf"
			},
			{
				"type": "occ",
				"energy": -0.19777,
				"method": "rhf"
			},
			{
				"type": "occ",
				"energy": -0.19054,
				"method": "rhf"
			},
			{
				"type": "unocc",
				"energy": -0.01998,
				"method": "rhf"
			},
			{
				"type": "unocc",
				"energy": 0.0191,
				"method": "rhf"
			},
			{
				"type": "unocc",
				"energy": 0.02621,
				"method": "rhf"
			},
			{
				"type": "unocc",
				"energy": 0.0414,
				"method": "rhf"
			},
			{
				"type": "unocc",
				"energy": 0.08273,
				"method": "rhf"
			}
		],
		"cosmo_sigma_profile": { 
			"-0.025": 0.0,
			"-0.024": 0.0,
			"-0.023": 0.0,
			"-0.022": 0.0,
			"-0.021": 0.0,
			"-0.02": 0.0,
			"-0.019": 0.0,
			"-0.018": 0.0,
			"-0.017": 0.0,
			"-0.016": 0.0,
			"-0.015": 0.0,
			"-0.014": 0.0813345927587,
			"-0.013": 0.511310513383,
			"-0.012": 0.572626228832,
			"-0.011": 0.552025579582,
			"-0.01": 0.760942415788,
			"-0.009": 0.300825817848,
			"-0.008": 2.36995121606,
			"-0.007": 5.53588146031,
			"-0.006": 14.9063883995,
			"-0.005": 19.8631152966,
			"-0.004": 26.7267440711,
			"-0.003": 39.8696929759,
			"-0.002": 34.3047949453,
			"-0.001": 31.6914371006,
			"0.0": 25.0453257454,
			"0.001": 15.3496019713,
			"0.002": 18.5050895093,
			"0.003": 21.5756670635,
			"0.004": 20.7763766618,
			"0.005": 18.6027128385,
			"0.006": 11.2306547784,
			"0.007": 4.82764216702,
			"0.008": 4.24605543697,
			"0.009": 5.3182322175,
			"0.01": 5.17720745824,
			"0.011": 2.45356690513,
			"0.012": 1.29601305156,
			"0.013": 0.699792397835,
			"0.014": 0.711258894804,
			"0.015": 0.325736283216,
			"0.016": 0.40299174773,
			"0.017": 0.17917800017,
			"0.018": 0.0,
			"0.019": 0.0,
			"0.02": 0.0,
			"0.021": 0.0,
			"0.022": 0.0,
			"0.023": 0.0,
			"0.024": 0.0,
			"0.025": 0.0
		}
	}
}
