{
	 "smiles": "CC1=CC=CC=C1S", 
	 "Tm": 288.15, 
	 "num_atms": 16, 
	 "gaussian": { 
		 "optdone": 1, 
		 "sigma_profile": "yes", 
		 "theory": "DFT", 
		 "functional": "B3LYP", 
		 "basiset": "6-31G**", 
		 "properties": { 
			 "R2extent": 1322.338, 
			 "electric_dipole_moment_norm": 0.848457630056, 
			 "electric_quadrupole_moment_norm": 7.93211470605, 
			 "total_energy": -669.757693408, 
			 "HOMO_LUMO_gap": 0.21456, 
			 "cosmo_polarized_energy": -5.33, 
			 "cosmo_cavitation_energy": 20.6, 
			 "cosmo_dispersion_energy": -15.94, 
			 "cosmo_repulsion_energy": 1.26, 
			 "cosmo_total_nonelectrostatic_energy": 5.92, 
			 "SMD_solvation_energy": 3.17 
		},
		"coords": [
			{
				"x": -1.9783955929,
				"y": 0.5757397726,
				"z": 2.2436339015,
				"element": "C" 
			},
			{
				"x": -0.8371824029,
				"y": -0.0992358613,
				"z": 1.5243218793,
				"element": "C" 
			},
			{
				"x": 0.1106012455,
				"y": -0.8494702829,
				"z": 2.230316436,
				"element": "C" 
			},
			{
				"x": 1.1745065519,
				"y": -1.4827141607,
				"z": 1.5884253886,
				"element": "C" 
			},
			{
				"x": 1.3049253543,
				"y": -1.3703184027,
				"z": 0.2048049077,
				"element": "C" 
			},
			{
				"x": 0.3756540323,
				"y": -0.6294993229,
				"z": -0.5236781196,
				"element": "C" 
			},
			{
				"x": -0.6907922226,
				"y": 0.0044097369,
				"z": 0.1256447286,
				"element": "C" 
			},
			{
				"x": -1.9042093152,
				"y": 0.964887637,
				"z": -0.777530146,
				"element": "S" 
			},
			{
				"x": -2.9500676314,
				"y": 0.2180173262,
				"z": 1.8813184824,
				"element": "H" 
			},
			{
				"x": -1.9309381092,
				"y": 0.3859317032,
				"z": 3.3188964618,
				"element": "H" 
			},
			{
				"x": -1.9626535927,
				"y": 1.662176243,
				"z": 2.0926338629,
				"element": "H" 
			},
			{
				"x": 0.0052091141,
				"y": -0.9345694174,
				"z": 3.3090112363,
				"element": "H" 
			},
			{
				"x": 1.8934540846,
				"y": -2.0576636317,
				"z": 2.1641606484,
				"element": "H" 
			},
			{
				"x": 2.1268522157,
				"y": -1.8563728978,
				"z": -0.3128260353,
				"element": "H" 
			},
			{
				"x": 0.4819573092,
				"y": -0.545176433,
				"z": -1.6016100547,
				"element": "H" 
			},
			{
				"x": -1.3677210407,
				"y": 0.7734579914,
				"z": -1.9972235778,
				"element": "H" 
			}
		],
		 "valence_orbital": [ 
			{
				"type": "occ",
				"energy": -0.34468,
				"method": "rhf"
			},
			{
				"type": "occ",
				"energy": -0.32616,
				"method": "rhf"
			},
			{
				"type": "occ",
				"energy": -0.29401,
				"method": "rhf"
			},
			{
				"type": "occ",
				"energy": -0.2459,
				"method": "rhf"
			},
			{
				"type": "occ",
				"energy": -0.21593,
				"method": "rhf"
			},
			{
				"type": "unocc",
				"energy": -0.00137,
				"method": "rhf"
			},
			{
				"type": "unocc",
				"energy": 5e-05,
				"method": "rhf"
			},
			{
				"type": "unocc",
				"energy": 0.02015,
				"method": "rhf"
			},
			{
				"type": "unocc",
				"energy": 0.0712,
				"method": "rhf"
			},
			{
				"type": "unocc",
				"energy": 0.10974,
				"method": "rhf"
			}
		],
		"cosmo_sigma_profile": { 
			"-0.025": 0.0,
			"-0.024": 0.0,
			"-0.023": 0.0,
			"-0.022": 0.0,
			"-0.021": 0.0,
			"-0.02": 0.0,
			"-0.019": 0.0,
			"-0.018": 0.0,
			"-0.017": 0.0,
			"-0.016": 0.0,
			"-0.015": 0.0,
			"-0.014": 0.0,
			"-0.013": 0.0,
			"-0.012": 0.0,
			"-0.011": 0.184998505859,
			"-0.01": 2.49391457267,
			"-0.009": 2.36020573171,
			"-0.008": 2.08471984026,
			"-0.007": 2.20460473409,
			"-0.006": 4.79218725564,
			"-0.005": 10.6344136147,
			"-0.004": 14.5576849669,
			"-0.003": 12.826982384,
			"-0.002": 12.5602555614,
			"-0.001": 13.6483698308,
			"0.0": 14.8153172888,
			"0.001": 9.48311289229,
			"0.002": 9.51196843247,
			"0.003": 10.6089771043,
			"0.004": 12.3832545426,
			"0.005": 13.1434991317,
			"0.006": 10.3357778724,
			"0.007": 3.4606531614,
			"0.008": 2.49417105106,
			"0.009": 1.4632751809,
			"0.01": 0.0446031608956,
			"0.011": 0.0,
			"0.012": 0.0,
			"0.013": 0.0,
			"0.014": 0.0,
			"0.015": 0.0,
			"0.016": 0.0,
			"0.017": 0.0,
			"0.018": 0.0,
			"0.019": 0.0,
			"0.02": 0.0,
			"0.021": 0.0,
			"0.022": 0.0,
			"0.023": 0.0,
			"0.024": 0.0,
			"0.025": 0.0
		}
	}
}
