{
	 "smiles": "CC(C1CC1)N1N=CC2=C1N=C(C=C2C(O)=O)C1CC1", 
	 "Tm": 422.15, 
	 "num_atms": 37, 
	 "gaussian": { 
		 "optdone": 1, 
		 "sigma_profile": "yes", 
		 "theory": "DFT", 
		 "functional": "B3LYP", 
		 "basiset": "6-31G**", 
		 "properties": { 
			 "R2extent": 6170.015, 
			 "electric_dipole_moment_norm": 4.3358792753, 
			 "electric_quadrupole_moment_norm": 17.4163011274, 
			 "total_energy": -896.492309052, 
			 "HOMO_LUMO_gap": 0.16519, 
			 "cosmo_polarized_energy": -14.48, 
			 "cosmo_cavitation_energy": 39.88, 
			 "cosmo_dispersion_energy": -27.28, 
			 "cosmo_repulsion_energy": 2.1, 
			 "cosmo_total_nonelectrostatic_energy": 14.7, 
			 "SMD_solvation_energy": 5.92 
		},
		"coords": [
			{
				"x": 2.9872887277,
				"y": -1.2243247529,
				"z": 2.1915372727,
				"element": "C" 
			},
			{
				"x": 1.6715394826,
				"y": -0.5154551853,
				"z": 1.8525079835,
				"element": "C" 
			},
			{
				"x": 0.6867422138,
				"y": -0.5503974525,
				"z": 3.0210711127,
				"element": "C" 
			},
			{
				"x": -0.8073294131,
				"y": -0.4879551303,
				"z": 2.8407141526,
				"element": "C" 
			},
			{
				"x": -0.1591624705,
				"y": -1.7556679283,
				"z": 3.3481054873,
				"element": "C" 
			},
			{
				"x": 1.111564311,
				"y": -1.0487725224,
				"z": 0.6048306556,
				"element": "N" 
			},
			{
				"x": 0.9586926249,
				"y": -2.3821318777,
				"z": 0.3954471139,
				"element": "N" 
			},
			{
				"x": 0.435556696,
				"y": -2.5299843659,
				"z": -0.8129792608,
				"element": "C" 
			},
			{
				"x": 0.2368132312,
				"y": -1.2670493631,
				"z": -1.4443167399,
				"element": "C" 
			},
			{
				"x": 0.683485616,
				"y": -0.3276946187,
				"z": -0.4774269944,
				"element": "C" 
			},
			{
				"x": 0.6855792473,
				"y": 1.0027158986,
				"z": -0.5895004292,
				"element": "N" 
			},
			{
				"x": 0.1908808111,
				"y": 1.4864728934,
				"z": -1.7342650842,
				"element": "C" 
			},
			{
				"x": -0.2923198105,
				"y": 0.6467827256,
				"z": -2.774019842,
				"element": "C" 
			},
			{
				"x": -0.2575413944,
				"y": -0.7342847162,
				"z": -2.6557283671,
				"element": "C" 
			},
			{
				"x": -0.7398821444,
				"y": -1.5735031222,
				"z": -3.8030380985,
				"element": "C" 
			},
			{
				"x": -0.2200200786,
				"y": -2.8266573423,
				"z": -3.8770382706,
				"element": "O" 
			},
			{
				"x": -1.5321488036,
				"y": -1.1861032264,
				"z": -4.6268468903,
				"element": "O" 
			},
			{
				"x": 0.159914756,
				"y": 2.9611152636,
				"z": -1.9046972734,
				"element": "C" 
			},
			{
				"x": 1.2677842519,
				"y": 3.8144013456,
				"z": -1.3066967784,
				"element": "C" 
			},
			{
				"x": -0.0982554219,
				"y": 3.8534458503,
				"z": -0.7005942368,
				"element": "C" 
			},
			{
				"x": 2.8144020204,
				"y": -2.2872815533,
				"z": 2.3731151687,
				"element": "H" 
			},
			{
				"x": 3.7096523938,
				"y": -1.1216572191,
				"z": 1.3764476797,
				"element": "H" 
			},
			{
				"x": 3.420976457,
				"y": -0.7836131372,
				"z": 3.0941651469,
				"element": "H" 
			},
			{
				"x": 1.8722667994,
				"y": 0.5346982919,
				"z": 1.6153334988,
				"element": "H" 
			},
			{
				"x": 1.0810764435,
				"y": -0.0042638347,
				"z": 3.8764380379,
				"element": "H" 
			},
			{
				"x": -1.3802342937,
				"y": 0.1211261038,
				"z": 3.5334210214,
				"element": "H" 
			},
			{
				"x": -1.2015530181,
				"y": -0.4981836914,
				"z": 1.8291038965,
				"element": "H" 
			},
			{
				"x": -0.1151948643,
				"y": -2.5999354409,
				"z": 2.6681848601,
				"element": "H" 
			},
			{
				"x": -0.2851889412,
				"y": -2.0204459186,
				"z": 4.3937864894,
				"element": "H" 
			},
			{
				"x": 0.1930479531,
				"y": -3.5243018978,
				"z": -1.1655035024,
				"element": "H" 
			},
			{
				"x": -0.6858823066,
				"y": 1.0822566328,
				"z": -3.6855193675,
				"element": "H" 
			},
			{
				"x": 0.5076738636,
				"y": -2.9215584479,
				"z": -3.2451186974,
				"element": "H" 
			},
			{
				"x": -0.2514132248,
				"y": 3.293395586,
				"z": -2.8529437585,
				"element": "H" 
			},
			{
				"x": 2.0411057119,
				"y": 3.2786773874,
				"z": -0.7659195264,
				"element": "H" 
			},
			{
				"x": 1.610291254,
				"y": 4.6646178586,
				"z": -1.8884592286,
				"element": "H" 
			},
			{
				"x": -0.7180041242,
				"y": 4.7312090169,
				"z": -0.8555138255,
				"element": "H" 
			},
			{
				"x": -0.2414045563,
				"y": 3.3432078906,
				"z": 0.2463165945,
				"element": "H" 
			}
		],
		 "valence_orbital": [ 
			{
				"type": "occ",
				"energy": -0.28836,
				"method": "rhf"
			},
			{
				"type": "occ",
				"energy": -0.28449,
				"method": "rhf"
			},
			{
				"type": "occ",
				"energy": -0.2758,
				"method": "rhf"
			},
			{
				"type": "occ",
				"energy": -0.24936,
				"method": "rhf"
			},
			{
				"type": "occ",
				"energy": -0.24339,
				"method": "rhf"
			},
			{
				"type": "unocc",
				"energy": -0.0782,
				"method": "rhf"
			},
			{
				"type": "unocc",
				"energy": -0.01119,
				"method": "rhf"
			},
			{
				"type": "unocc",
				"energy": 0.01969,
				"method": "rhf"
			},
			{
				"type": "unocc",
				"energy": 0.04014,
				"method": "rhf"
			},
			{
				"type": "unocc",
				"energy": 0.08059,
				"method": "rhf"
			}
		],
		"cosmo_sigma_profile": { 
			"-0.025": 0.0,
			"-0.024": 0.0,
			"-0.023": 0.0,
			"-0.022": 0.0,
			"-0.021": 0.0,
			"-0.02": 0.0,
			"-0.019": 0.0,
			"-0.018": 0.0314033978117,
			"-0.017": 0.789043445593,
			"-0.016": 0.687396518951,
			"-0.015": 1.03680699038,
			"-0.014": 0.539661497511,
			"-0.013": 1.80083785943,
			"-0.012": 1.06419769193,
			"-0.011": 1.31152790377,
			"-0.01": 0.909273034377,
			"-0.009": 1.93844041114,
			"-0.008": 2.54825314555,
			"-0.007": 4.4997884497,
			"-0.006": 5.48148713026,
			"-0.005": 15.38673751,
			"-0.004": 26.9402081549,
			"-0.003": 29.6423411876,
			"-0.002": 26.0632306462,
			"-0.001": 29.7308734758,
			"0.0": 33.7171865094,
			"0.001": 28.6618281663,
			"0.002": 23.0044909839,
			"0.003": 19.6809974602,
			"0.004": 13.730938188,
			"0.005": 9.34904831116,
			"0.006": 7.14952448848,
			"0.007": 5.52522314328,
			"0.008": 4.21934749068,
			"0.009": 5.66902680313,
			"0.01": 5.13652163745,
			"0.011": 6.51508683002,
			"0.012": 3.00805302998,
			"0.013": 0.497214194197,
			"0.014": 0.0,
			"0.015": 0.0,
			"0.016": 0.0,
			"0.017": 0.0,
			"0.018": 0.0,
			"0.019": 0.0,
			"0.02": 0.0,
			"0.021": 0.0,
			"0.022": 0.0,
			"0.023": 0.0,
			"0.024": 0.0,
			"0.025": 0.0
		}
	}
}
