{
	 "smiles": "COC(=O)C1=CN=C(SC)N1C", 
	 "Tm": 327.15, 
	 "num_atms": 22, 
	 "gaussian": { 
		 "optdone": 1, 
		 "sigma_profile": "yes", 
		 "theory": "DFT", 
		 "functional": "B3LYP", 
		 "basiset": "6-31G**", 
		 "properties": { 
			 "R2extent": 3152.555, 
			 "electric_dipole_moment_norm": 0.0721875335498, 
			 "electric_quadrupole_moment_norm": 12.7700750479, 
			 "total_energy": -930.916416715, 
			 "HOMO_LUMO_gap": 0.18216, 
			 "cosmo_polarized_energy": -9.61, 
			 "cosmo_cavitation_energy": 27.62, 
			 "cosmo_dispersion_energy": -20.72, 
			 "cosmo_repulsion_energy": 1.61, 
			 "cosmo_total_nonelectrostatic_energy": 8.51, 
			 "SMD_solvation_energy": 5.37 
		},
		"coords": [
			{
				"x": 0.412133795,
				"y": 3.7089700441,
				"z": 0.6888450844,
				"element": "C" 
			},
			{
				"x": 0.2120560044,
				"y": 2.5123954176,
				"z": -0.0769528844,
				"element": "O" 
			},
			{
				"x": 0.1887847966,
				"y": 1.3657967005,
				"z": 0.6450975191,
				"element": "C" 
			},
			{
				"x": 0.3260412307,
				"y": 1.3336309978,
				"z": 1.8578728359,
				"element": "O" 
			},
			{
				"x": -0.0185616021,
				"y": 0.2103084332,
				"z": -0.2174409941,
				"element": "C" 
			},
			{
				"x": -0.1859918293,
				"y": 0.1097306093,
				"z": -1.5847842353,
				"element": "C" 
			},
			{
				"x": -0.3508551912,
				"y": -1.1885757282,
				"z": -1.9647410167,
				"element": "N" 
			},
			{
				"x": -0.2854005035,
				"y": -1.8862831634,
				"z": -0.8365713638,
				"element": "C" 
			},
			{
				"x": -0.4365187084,
				"y": -3.6436636754,
				"z": -0.7276982505,
				"element": "S" 
			},
			{
				"x": -0.6746029657,
				"y": -4.0171783331,
				"z": -2.4993744926,
				"element": "C" 
			},
			{
				"x": -0.0855566022,
				"y": -1.1017028702,
				"z": 0.2599066662,
				"element": "N" 
			},
			{
				"x": 0.0341557365,
				"y": -1.5398944631,
				"z": 1.6474655219,
				"element": "C" 
			},
			{
				"x": -0.3890617614,
				"y": 3.8397659352,
				"z": 1.4209195109,
				"element": "H" 
			},
			{
				"x": 1.368406463,
				"y": 3.6761158033,
				"z": 1.2174484277,
				"element": "H" 
			},
			{
				"x": 0.4042325644,
				"y": 4.5239482557,
				"z": -0.0349055843,
				"element": "H" 
			},
			{
				"x": -0.1933733663,
				"y": 0.9191890062,
				"z": -2.3007760134,
				"element": "H" 
			},
			{
				"x": -1.5721755387,
				"y": -3.5248692462,
				"z": -2.8724963234,
				"element": "H" 
			},
			{
				"x": -0.7821636799,
				"y": -5.1019381463,
				"z": -2.558037576,
				"element": "H" 
			},
			{
				"x": 0.1904066605,
				"y": -3.6887031221,
				"z": -3.0747790739,
				"element": "H" 
			},
			{
				"x": -0.7467714137,
				"y": -1.0836761678,
				"z": 2.2574563754,
				"element": "H" 
			},
			{
				"x": -0.0622560766,
				"y": -2.6255892912,
				"z": 1.6807111524,
				"element": "H" 
			},
			{
				"x": 1.0019719879,
				"y": -1.245176996,
				"z": 2.0555347145,
				"element": "H" 
			}
		],
		 "valence_orbital": [ 
			{
				"type": "occ",
				"energy": -0.28786,
				"method": "rhf"
			},
			{
				"type": "occ",
				"energy": -0.28327,
				"method": "rhf"
			},
			{
				"type": "occ",
				"energy": -0.27783,
				"method": "rhf"
			},
			{
				"type": "occ",
				"energy": -0.26758,
				"method": "rhf"
			},
			{
				"type": "occ",
				"energy": -0.21157,
				"method": "rhf"
			},
			{
				"type": "unocc",
				"energy": -0.02941,
				"method": "rhf"
			},
			{
				"type": "unocc",
				"energy": 0.02002,
				"method": "rhf"
			},
			{
				"type": "unocc",
				"energy": 0.04518,
				"method": "rhf"
			},
			{
				"type": "unocc",
				"energy": 0.07285,
				"method": "rhf"
			},
			{
				"type": "unocc",
				"energy": 0.10544,
				"method": "rhf"
			}
		],
		"cosmo_sigma_profile": { 
			"-0.025": 0.0,
			"-0.024": 0.0,
			"-0.023": 0.0,
			"-0.022": 0.0,
			"-0.021": 0.0,
			"-0.02": 0.0,
			"-0.019": 0.0,
			"-0.018": 0.0,
			"-0.017": 0.0,
			"-0.016": 0.0,
			"-0.015": 0.0,
			"-0.014": 0.0,
			"-0.013": 0.0,
			"-0.012": 0.0,
			"-0.011": 0.0,
			"-0.01": 0.0,
			"-0.009": 0.0,
			"-0.008": 0.972647274962,
			"-0.007": 4.72870909434,
			"-0.006": 13.859142524,
			"-0.005": 18.164216983,
			"-0.004": 22.4807843245,
			"-0.003": 25.5326165013,
			"-0.002": 22.185333961,
			"-0.001": 12.6447652152,
			"0.0": 12.1977080817,
			"0.001": 13.3951509531,
			"0.002": 14.1031523995,
			"0.003": 12.506430932,
			"0.004": 8.30127285432,
			"0.005": 6.85534969432,
			"0.006": 8.52668402889,
			"0.007": 6.43562584875,
			"0.008": 3.63288161217,
			"0.009": 2.30793751639,
			"0.01": 2.85839090442,
			"0.011": 3.22762792625,
			"0.012": 4.40214188474,
			"0.013": 1.01876694369,
			"0.014": 0.842341781372,
			"0.015": 0.312919544171,
			"0.016": 0.0,
			"0.017": 0.0,
			"0.018": 0.0,
			"0.019": 0.0,
			"0.02": 0.0,
			"0.021": 0.0,
			"0.022": 0.0,
			"0.023": 0.0,
			"0.024": 0.0,
			"0.025": 0.0
		}
	}
}
