{
	 "smiles": "OCCC1=CC2=C(C=CC=C2)C=C1", 
	 "Tm": 340.15, 
	 "num_atms": 25, 
	 "gaussian": { 
		 "optdone": 1, 
		 "sigma_profile": "yes", 
		 "theory": "DFT", 
		 "functional": "B3LYP", 
		 "basiset": "6-31G**", 
		 "properties": { 
			 "R2extent": 3141.5857, 
			 "electric_dipole_moment_norm": 1.76124503974, 
			 "electric_quadrupole_moment_norm": 8.92561612047, 
			 "total_energy": -539.738392463, 
			 "HOMO_LUMO_gap": 0.17433, 
			 "cosmo_polarized_energy": -8.97, 
			 "cosmo_cavitation_energy": 28.01, 
			 "cosmo_dispersion_energy": -20.59, 
			 "cosmo_repulsion_energy": 1.63, 
			 "cosmo_total_nonelectrostatic_energy": 9.05, 
			 "SMD_solvation_energy": 4.43 
		},
		"coords": [
			{
				"x": 0.1990493361,
				"y": 2.3630356495,
				"z": 2.1474716525,
				"element": "O" 
			},
			{
				"x": 0.5937151992,
				"y": 2.892626484,
				"z": 0.8879229482,
				"element": "C" 
			},
			{
				"x": 1.7926882599,
				"y": 2.0848888151,
				"z": 0.3803171381,
				"element": "C" 
			},
			{
				"x": 1.4483693872,
				"y": 0.6715505354,
				"z": -0.0408556755,
				"element": "C" 
			},
			{
				"x": 1.1871186241,
				"y": -0.3135085724,
				"z": 0.8930198916,
				"element": "C" 
			},
			{
				"x": 0.839599219,
				"y": -1.6339886744,
				"z": 0.5044847257,
				"element": "C" 
			},
			{
				"x": 0.7596227313,
				"y": -1.9539771911,
				"z": -0.8902765727,
				"element": "C" 
			},
			{
				"x": 0.4147356422,
				"y": -3.2779888062,
				"z": -1.2752450652,
				"element": "C" 
			},
			{
				"x": 0.1584893408,
				"y": -4.2435256095,
				"z": -0.3280377236,
				"element": "C" 
			},
			{
				"x": 0.2363269961,
				"y": -3.9283760819,
				"z": 1.0518711633,
				"element": "C" 
			},
			{
				"x": 0.5689420755,
				"y": -2.655415241,
				"z": 1.4565425177,
				"element": "C" 
			},
			{
				"x": 1.0315975465,
				"y": -0.9295066293,
				"z": -1.8348116007,
				"element": "C" 
			},
			{
				"x": 1.3643206193,
				"y": 0.3403769589,
				"z": -1.4213588425,
				"element": "C" 
			},
			{
				"x": -0.668583855,
				"y": 2.7207388994,
				"z": 2.3701302238,
				"element": "H" 
			},
			{
				"x": -0.2247504136,
				"y": 2.8364233661,
				"z": 0.1538487284,
				"element": "H" 
			},
			{
				"x": 0.8860203236,
				"y": 3.9513642651,
				"z": 0.981230177,
				"element": "H" 
			},
			{
				"x": 2.5436521606,
				"y": 2.0748016425,
				"z": 1.1792874412,
				"element": "H" 
			},
			{
				"x": 2.2339671796,
				"y": 2.6264943642,
				"z": -0.4645315536,
				"element": "H" 
			},
			{
				"x": 1.2336497322,
				"y": -0.0731788671,
				"z": 1.9509873419,
				"element": "H" 
			},
			{
				"x": 0.3561483634,
				"y": -3.5161948097,
				"z": -2.3345254718,
				"element": "H" 
			},
			{
				"x": -0.1045109268,
				"y": -5.2519484488,
				"z": -0.6346321583,
				"element": "H" 
			},
			{
				"x": 0.0321025631,
				"y": -4.6985958859,
				"z": 1.7902779841,
				"element": "H" 
			},
			{
				"x": 0.6293005712,
				"y": -2.4114904802,
				"z": 2.5142087994,
				"element": "H" 
			},
			{
				"x": 0.9768416231,
				"y": -1.1642447026,
				"z": -2.8950471692,
				"element": "H" 
			},
			{
				"x": 1.5730877012,
				"y": 1.1098390199,
				"z": -2.1611788998,
				"element": "H" 
			}
		],
		 "valence_orbital": [ 
			{
				"type": "occ",
				"energy": -0.31019,
				"method": "rhf"
			},
			{
				"type": "occ",
				"energy": -0.27472,
				"method": "rhf"
			},
			{
				"type": "occ",
				"energy": -0.26732,
				"method": "rhf"
			},
			{
				"type": "occ",
				"energy": -0.23208,
				"method": "rhf"
			},
			{
				"type": "occ",
				"energy": -0.20539,
				"method": "rhf"
			},
			{
				"type": "unocc",
				"energy": -0.03106,
				"method": "rhf"
			},
			{
				"type": "unocc",
				"energy": -0.00093,
				"method": "rhf"
			},
			{
				"type": "unocc",
				"energy": 0.03981,
				"method": "rhf"
			},
			{
				"type": "unocc",
				"energy": 0.07525,
				"method": "rhf"
			},
			{
				"type": "unocc",
				"energy": 0.0999,
				"method": "rhf"
			}
		],
		"cosmo_sigma_profile": { 
			"-0.025": 0.0,
			"-0.024": 0.0,
			"-0.023": 0.0,
			"-0.022": 0.0,
			"-0.021": 0.0,
			"-0.02": 0.0,
			"-0.019": 0.0,
			"-0.018": 0.0,
			"-0.017": 0.0,
			"-0.016": 0.376500341595,
			"-0.015": 1.17482315615,
			"-0.014": 0.882743730787,
			"-0.013": 0.690064080135,
			"-0.012": 1.30327911598,
			"-0.011": 0.835521436836,
			"-0.01": 0.449430932947,
			"-0.009": 0.475859864911,
			"-0.008": 0.746576482499,
			"-0.007": 1.51356152255,
			"-0.006": 5.37864609178,
			"-0.005": 17.1345387596,
			"-0.004": 18.6349610266,
			"-0.003": 27.5722580752,
			"-0.002": 19.1998413729,
			"-0.001": 16.4646824986,
			"0.0": 13.8046309762,
			"0.001": 9.87050819687,
			"0.002": 11.4383278857,
			"0.003": 11.3593202092,
			"0.004": 18.0478969252,
			"0.005": 23.2756571151,
			"0.006": 9.54340453117,
			"0.007": 1.84227684769,
			"0.008": 2.06671274758,
			"0.009": 2.56757286235,
			"0.01": 1.92634485696,
			"0.011": 0.824296953988,
			"0.012": 0.298486002804,
			"0.013": 1.22758091231,
			"0.014": 0.713070504979,
			"0.015": 0.144698752925,
			"0.016": 0.0,
			"0.017": 0.0,
			"0.018": 0.0,
			"0.019": 0.0,
			"0.02": 0.0,
			"0.021": 0.0,
			"0.022": 0.0,
			"0.023": 0.0,
			"0.024": 0.0,
			"0.025": 0.0
		}
	}
}
