{
	 "smiles": "NC1=C(Cl)C=C(C=C1)C#N", 
	 "Tm": 374.15, 
	 "num_atms": 15, 
	 "gaussian": { 
		 "optdone": 1, 
		 "sigma_profile": "yes", 
		 "theory": "DFT", 
		 "functional": "B3LYP", 
		 "basiset": "6-31G**", 
		 "properties": { 
			 "R2extent": 2445.8687, 
			 "electric_dipole_moment_norm": 6.18202760104, 
			 "electric_quadrupole_moment_norm": 11.3239361271, 
			 "total_energy": -839.443339224, 
			 "HOMO_LUMO_gap": 0.18746, 
			 "cosmo_polarized_energy": -13.32, 
			 "cosmo_cavitation_energy": 22.17, 
			 "cosmo_dispersion_energy": -16.17, 
			 "cosmo_repulsion_energy": 1.32, 
			 "cosmo_total_nonelectrostatic_energy": 7.32, 
			 "SMD_solvation_energy": 4.95 
		},
		"coords": [
			{
				"x": 4.0268266655,
				"y": -1.3664980153,
				"z": 0.1742842145,
				"element": "N" 
			},
			{
				"x": 2.7660420596,
				"y": -0.8632127986,
				"z": -0.0277998349,
				"element": "C" 
			},
			{
				"x": 1.7042252145,
				"y": -1.1347187146,
				"z": 0.8647348303,
				"element": "C" 
			},
			{
				"x": 1.9953603182,
				"y": -2.2018120701,
				"z": 2.2347223105,
				"element": "Cl" 
			},
			{
				"x": 0.4416399891,
				"y": -0.5913508374,
				"z": 0.6900960461,
				"element": "C" 
			},
			{
				"x": 0.1880099751,
				"y": 0.2561882376,
				"z": -0.401165604,
				"element": "C" 
			},
			{
				"x": 1.2295384604,
				"y": 0.5380935577,
				"z": -1.3036963865,
				"element": "C" 
			},
			{
				"x": 2.4866088879,
				"y": -0.0114813158,
				"z": -1.1179676335,
				"element": "C" 
			},
			{
				"x": -1.1131411016,
				"y": 0.819069239,
				"z": -0.58828195,
				"element": "C" 
			},
			{
				"x": -2.1710672401,
				"y": 1.2789476903,
				"z": -0.7448811774,
				"element": "N" 
			},
			{
				"x": 4.1270336288,
				"y": -2.1409559649,
				"z": 0.812937947,
				"element": "H" 
			},
			{
				"x": 4.6635733127,
				"y": -1.3605616859,
				"z": -0.6070092328,
				"element": "H" 
			},
			{
				"x": -0.3467664885,
				"y": -0.8255367023,
				"z": 1.3957581058,
				"element": "H" 
			},
			{
				"x": 1.042753491,
				"y": 1.1897954521,
				"z": -2.1503234183,
				"element": "H" 
			},
			{
				"x": 3.2847628273,
				"y": 0.2165339279,
				"z": -1.8188082167,
				"element": "H" 
			}
		],
		 "valence_orbital": [ 
			{
				"type": "occ",
				"energy": -0.33488,
				"method": "rhf"
			},
			{
				"type": "occ",
				"energy": -0.32479,
				"method": "rhf"
			},
			{
				"type": "occ",
				"energy": -0.31436,
				"method": "rhf"
			},
			{
				"type": "occ",
				"energy": -0.27045,
				"method": "rhf"
			},
			{
				"type": "occ",
				"energy": -0.22796,
				"method": "rhf"
			},
			{
				"type": "unocc",
				"energy": -0.0405,
				"method": "rhf"
			},
			{
				"type": "unocc",
				"energy": -0.02898,
				"method": "rhf"
			},
			{
				"type": "unocc",
				"energy": 0.01153,
				"method": "rhf"
			},
			{
				"type": "unocc",
				"energy": 0.04258,
				"method": "rhf"
			},
			{
				"type": "unocc",
				"energy": 0.06365,
				"method": "rhf"
			}
		],
		"cosmo_sigma_profile": { 
			"-0.025": 0.0,
			"-0.024": 0.0,
			"-0.023": 0.0,
			"-0.022": 0.0,
			"-0.021": 0.0,
			"-0.02": 0.0,
			"-0.019": 0.0,
			"-0.018": 0.0,
			"-0.017": 0.0,
			"-0.016": 0.0,
			"-0.015": 0.182162148975,
			"-0.014": 1.36693640847,
			"-0.013": 2.13950449054,
			"-0.012": 2.4104358169,
			"-0.011": 2.92810524134,
			"-0.01": 2.29659097625,
			"-0.009": 3.29045402486,
			"-0.008": 6.11681755192,
			"-0.007": 7.22403731172,
			"-0.006": 7.51946408524,
			"-0.005": 7.02311712408,
			"-0.004": 5.90173726315,
			"-0.003": 6.75303424464,
			"-0.002": 9.28944732531,
			"-0.001": 9.54967651079,
			"0.0": 14.5716340352,
			"0.001": 18.285756616,
			"0.002": 20.7100310468,
			"0.003": 13.4844094979,
			"0.004": 8.45797153527,
			"0.005": 4.7176700285,
			"0.006": 3.29989408344,
			"0.007": 2.9894854461,
			"0.008": 4.39873433274,
			"0.009": 3.65488852622,
			"0.01": 4.22833060678,
			"0.011": 2.77972019601,
			"0.012": 2.79576460567,
			"0.013": 2.33716492405,
			"0.014": 0.520749911082,
			"0.015": 0.0,
			"0.016": 0.0,
			"0.017": 0.0,
			"0.018": 0.0,
			"0.019": 0.0,
			"0.02": 0.0,
			"0.021": 0.0,
			"0.022": 0.0,
			"0.023": 0.0,
			"0.024": 0.0,
			"0.025": 0.0
		}
	}
}
