{
	 "smiles": "CCCCC(CC)C(=O)OCCOCCOCCOC(=O)C(CC)CCCC", 
	 "Tm": 223.15, 
	 "num_atms": 70, 
	 "gaussian": { 
		 "optdone": 1, 
		 "sigma_profile": "yes", 
		 "theory": "DFT", 
		 "functional": "B3LYP", 
		 "basiset": "6-31G**", 
		 "properties": { 
			 "R2extent": 19015.9367, 
			 "electric_dipole_moment_norm": 3.52982553393, 
			 "electric_quadrupole_moment_norm": 17.8062707112, 
			 "total_energy": -1315.03494819, 
			 "HOMO_LUMO_gap": 0.26957, 
			 "cosmo_polarized_energy": -17.97, 
			 "cosmo_cavitation_energy": 70.55, 
			 "cosmo_dispersion_energy": -41.95, 
			 "cosmo_repulsion_energy": 3.29, 
			 "cosmo_total_nonelectrostatic_energy": 31.88, 
			 "SMD_solvation_energy": 11.84 
		},
		"coords": [
			{
				"x": -0.5420884027,
				"y": -0.7587977632,
				"z": -1.7994977169,
				"element": "C" 
			},
			{
				"x": -1.3590683854,
				"y": -0.2076092904,
				"z": -0.6243539532,
				"element": "C" 
			},
			{
				"x": -2.00506363,
				"y": 1.1640284845,
				"z": -0.8811376437,
				"element": "C" 
			},
			{
				"x": -3.111517922,
				"y": 1.1377245396,
				"z": -1.9487287696,
				"element": "C" 
			},
			{
				"x": -3.9257573936,
				"y": 2.4508164369,
				"z": -2.0523544269,
				"element": "C" 
			},
			{
				"x": -4.8740721221,
				"y": 2.47857207,
				"z": -3.2726907693,
				"element": "C" 
			},
			{
				"x": -4.1554525066,
				"y": 2.548538827,
				"z": -4.6239949904,
				"element": "C" 
			},
			{
				"x": -4.7467790875,
				"y": 2.6028188247,
				"z": -0.7825122908,
				"element": "C" 
			},
			{
				"x": -5.7256128473,
				"y": 1.9363846743,
				"z": -0.509517036,
				"element": "O" 
			},
			{
				"x": -4.2461248985,
				"y": 3.5599603943,
				"z": 0.0350111952,
				"element": "O" 
			},
			{
				"x": -4.9003474809,
				"y": 3.718571284,
				"z": 1.3087347027,
				"element": "C" 
			},
			{
				"x": -4.4431784316,
				"y": 2.6812728656,
				"z": 2.3195013212,
				"element": "C" 
			},
			{
				"x": -3.0608221567,
				"y": 2.8580629321,
				"z": 2.5593594852,
				"element": "O" 
			},
			{
				"x": -2.5281620294,
				"y": 1.9374299999,
				"z": 3.491362989,
				"element": "C" 
			},
			{
				"x": -1.0553173233,
				"y": 2.237537062,
				"z": 3.6864154311,
				"element": "C" 
			},
			{
				"x": -0.3287516101,
				"y": 1.8159628722,
				"z": 2.5475611802,
				"element": "O" 
			},
			{
				"x": 0.9962655716,
				"y": 2.3073260119,
				"z": 2.5288588034,
				"element": "C" 
			},
			{
				"x": 1.7319762519,
				"y": 1.7181179253,
				"z": 1.3463782503,
				"element": "C" 
			},
			{
				"x": 2.0199620534,
				"y": 0.3380523153,
				"z": 1.6425260891,
				"element": "O" 
			},
			{
				"x": 2.5869707298,
				"y": -0.3796683097,
				"z": 0.6433282747,
				"element": "C" 
			},
			{
				"x": 2.8282425275,
				"y": 0.0935632393,
				"z": -0.4478168098,
				"element": "O" 
			},
			{
				"x": 2.8768879809,
				"y": -1.8099692211,
				"z": 1.0988256683,
				"element": "C" 
			},
			{
				"x": 1.5555124801,
				"y": -2.5022484574,
				"z": 1.5232349399,
				"element": "C" 
			},
			{
				"x": 1.7518235093,
				"y": -3.8766756111,
				"z": 2.1696220181,
				"element": "C" 
			},
			{
				"x": 3.6801439392,
				"y": -2.5882818278,
				"z": 0.0309809845,
				"element": "C" 
			},
			{
				"x": 4.9014123492,
				"y": -3.3326874306,
				"z": 0.5938511082,
				"element": "C" 
			},
			{
				"x": 5.7330202367,
				"y": -4.0721992799,
				"z": -0.4673026006,
				"element": "C" 
			},
			{
				"x": 5.016222022,
				"y": -5.257460269,
				"z": -1.1256818456,
				"element": "C" 
			},
			{
				"x": 0.2986633928,
				"y": -0.0993431311,
				"z": -2.0408201762,
				"element": "H" 
			},
			{
				"x": -0.1241631138,
				"y": -1.7433113747,
				"z": -1.5623218466,
				"element": "H" 
			},
			{
				"x": -1.1511350176,
				"y": -0.8759070009,
				"z": -2.7023628209,
				"element": "H" 
			},
			{
				"x": -2.1472970833,
				"y": -0.9257508037,
				"z": -0.3571420811,
				"element": "H" 
			},
			{
				"x": -0.71485211,
				"y": -0.1241197878,
				"z": 0.2591079987,
				"element": "H" 
			},
			{
				"x": -1.2297350883,
				"y": 1.8813825022,
				"z": -1.1871403115,
				"element": "H" 
			},
			{
				"x": -2.3986598065,
				"y": 1.5492744391,
				"z": 0.066372205,
				"element": "H" 
			},
			{
				"x": -2.6707436726,
				"y": 0.9234697798,
				"z": -2.9276887623,
				"element": "H" 
			},
			{
				"x": -3.8156058199,
				"y": 0.3220054259,
				"z": -1.7365486332,
				"element": "H" 
			},
			{
				"x": -3.2330770623,
				"y": 3.2987289303,
				"z": -2.1102256226,
				"element": "H" 
			},
			{
				"x": -5.5252405576,
				"y": 1.5983257471,
				"z": -3.2289274174,
				"element": "H" 
			},
			{
				"x": -5.5365451869,
				"y": 3.3485570024,
				"z": -3.1810616934,
				"element": "H" 
			},
			{
				"x": -3.5033568102,
				"y": 3.4276218512,
				"z": -4.6825916698,
				"element": "H" 
			},
			{
				"x": -3.538695167,
				"y": 1.6646224125,
				"z": -4.813034448,
				"element": "H" 
			},
			{
				"x": -4.8808206594,
				"y": 2.6197645372,
				"z": -5.4409209915,
				"element": "H" 
			},
			{
				"x": -4.621993654,
				"y": 4.7197517946,
				"z": 1.6441694356,
				"element": "H" 
			},
			{
				"x": -5.9835429729,
				"y": 3.6504837003,
				"z": 1.1781071604,
				"element": "H" 
			},
			{
				"x": -4.6566802128,
				"y": 1.6708760478,
				"z": 1.9428285458,
				"element": "H" 
			},
			{
				"x": -5.0251399282,
				"y": 2.821421453,
				"z": 3.2478963458,
				"element": "H" 
			},
			{
				"x": -3.0419607656,
				"y": 2.0281667264,
				"z": 4.4641204008,
				"element": "H" 
			},
			{
				"x": -2.6529615658,
				"y": 0.9006496511,
				"z": 3.1412308575,
				"element": "H" 
			},
			{
				"x": -0.9361719256,
				"y": 3.3206776228,
				"z": 3.8482662312,
				"element": "H" 
			},
			{
				"x": -0.691850032,
				"y": 1.7197876247,
				"z": 4.5901963789,
				"element": "H" 
			},
			{
				"x": 1.5289657099,
				"y": 2.0506498874,
				"z": 3.4592881431,
				"element": "H" 
			},
			{
				"x": 0.9996143898,
				"y": 3.4065324208,
				"z": 2.4358322169,
				"element": "H" 
			},
			{
				"x": 2.6721454299,
				"y": 2.2528202518,
				"z": 1.172921558,
				"element": "H" 
			},
			{
				"x": 1.1270698807,
				"y": 1.7857873421,
				"z": 0.4387243616,
				"element": "H" 
			},
			{
				"x": 3.4879427738,
				"y": -1.7009450924,
				"z": 2.0071977876,
				"element": "H" 
			},
			{
				"x": 0.9148900771,
				"y": -2.6021022128,
				"z": 0.6372557805,
				"element": "H" 
			},
			{
				"x": 1.024961713,
				"y": -1.8455481931,
				"z": 2.219174512,
				"element": "H" 
			},
			{
				"x": 2.2201381524,
				"y": -4.5904516916,
				"z": 1.4848670114,
				"element": "H" 
			},
			{
				"x": 0.7880627004,
				"y": -4.2980523381,
				"z": 2.4737489838,
				"element": "H" 
			},
			{
				"x": 2.3816911417,
				"y": -3.8089840978,
				"z": 3.0641475703,
				"element": "H" 
			},
			{
				"x": 3.0094844607,
				"y": -3.291844197,
				"z": -0.4766984128,
				"element": "H" 
			},
			{
				"x": 4.0140880769,
				"y": -1.8843054371,
				"z": -0.7377704316,
				"element": "H" 
			},
			{
				"x": 4.5870424116,
				"y": -4.0472357414,
				"z": 1.3669114141,
				"element": "H" 
			},
			{
				"x": 5.5480504957,
				"y": -2.6038249334,
				"z": 1.1016567407,
				"element": "H" 
			},
			{
				"x": 6.0448310082,
				"y": -3.3577482987,
				"z": -1.2413292896,
				"element": "H" 
			},
			{
				"x": 6.6570452484,
				"y": -4.4331157679,
				"z": 0.0023668852,
				"element": "H" 
			},
			{
				"x": 5.6759186979,
				"y": -5.773437538,
				"z": -1.831114269,
				"element": "H" 
			},
			{
				"x": 4.1276638705,
				"y": -4.9416852758,
				"z": -1.6817456913,
				"element": "H" 
			},
			{
				"x": 4.6955351572,
				"y": -5.9904875359,
				"z": -0.3758075443,
				"element": "H" 
			}
		],
		 "valence_orbital": [ 
			{
				"type": "occ",
				"energy": -0.29147,
				"method": "rhf"
			},
			{
				"type": "occ",
				"energy": -0.26848,
				"method": "rhf"
			},
			{
				"type": "occ",
				"energy": -0.26493,
				"method": "rhf"
			},
			{
				"type": "occ",
				"energy": -0.26154,
				"method": "rhf"
			},
			{
				"type": "occ",
				"energy": -0.25562,
				"method": "rhf"
			},
			{
				"type": "unocc",
				"energy": 0.01395,
				"method": "rhf"
			},
			{
				"type": "unocc",
				"energy": 0.01715,
				"method": "rhf"
			},
			{
				"type": "unocc",
				"energy": 0.07084,
				"method": "rhf"
			},
			{
				"type": "unocc",
				"energy": 0.08165,
				"method": "rhf"
			},
			{
				"type": "unocc",
				"energy": 0.08677,
				"method": "rhf"
			}
		],
		"cosmo_sigma_profile": { 
			"-0.025": 0.0,
			"-0.024": 0.0,
			"-0.023": 0.0,
			"-0.022": 0.0,
			"-0.021": 0.0,
			"-0.02": 0.0,
			"-0.019": 0.0,
			"-0.018": 0.0,
			"-0.017": 0.0,
			"-0.016": 0.0,
			"-0.015": 0.0,
			"-0.014": 0.0,
			"-0.013": 0.0,
			"-0.012": 0.0,
			"-0.011": 0.0,
			"-0.01": 0.0,
			"-0.009": 0.0,
			"-0.008": 0.0,
			"-0.007": 0.807163533266,
			"-0.006": 7.97679755353,
			"-0.005": 23.6028014256,
			"-0.004": 44.7325963957,
			"-0.003": 58.1317551933,
			"-0.002": 78.8350648727,
			"-0.001": 76.9402595358,
			"0.0": 72.8383508225,
			"0.001": 58.5724682462,
			"0.002": 28.8048218632,
			"0.003": 13.83142372,
			"0.004": 11.8955451145,
			"0.005": 11.0563517563,
			"0.006": 9.92465740509,
			"0.007": 9.25709164622,
			"0.008": 7.73663474307,
			"0.009": 6.49716451737,
			"0.01": 6.61717637202,
			"0.011": 5.95127659473,
			"0.012": 8.12397995701,
			"0.013": 1.93909270315,
			"0.014": 0.0,
			"0.015": 0.0,
			"0.016": 0.0,
			"0.017": 0.0,
			"0.018": 0.0,
			"0.019": 0.0,
			"0.02": 0.0,
			"0.021": 0.0,
			"0.022": 0.0,
			"0.023": 0.0,
			"0.024": 0.0,
			"0.025": 0.0
		}
	}
}
