{
	 "smiles": "ClC1=C(C(Cl)=NC=C1)S(Cl)(=O)=O", 
	 "Tm": 353.15, 
	 "num_atms": 14, 
	 "gaussian": { 
		 "optdone": 1, 
		 "sigma_profile": "yes", 
		 "theory": "DFT", 
		 "functional": "B3LYP", 
		 "basiset": "6-31G**", 
		 "properties": { 
			 "R2extent": 5335.2305, 
			 "electric_dipole_moment_norm": 4.90827594273, 
			 "electric_quadrupole_moment_norm": 16.0047227308, 
			 "total_energy": -2175.59341627, 
			 "HOMO_LUMO_gap": 0.19228, 
			 "cosmo_polarized_energy": -10.37, 
			 "cosmo_cavitation_energy": 25.37, 
			 "cosmo_dispersion_energy": -19.66, 
			 "cosmo_repulsion_energy": 1.51, 
			 "cosmo_total_nonelectrostatic_energy": 7.23, 
			 "SMD_solvation_energy": 1.45 
		},
		"coords": [
			{
				"x": 2.6657373816,
				"y": 1.4093608068,
				"z": -1.8363142806,
				"element": "Cl" 
			},
			{
				"x": 0.9674144929,
				"y": 1.0635694458,
				"z": -1.7376386102,
				"element": "C" 
			},
			{
				"x": 0.3358640028,
				"y": -0.085588702,
				"z": -2.2590808855,
				"element": "C" 
			},
			{
				"x": -1.0625947729,
				"y": -0.1986386144,
				"z": -2.0366358237,
				"element": "C" 
			},
			{
				"x": -1.9704998433,
				"y": -1.5960948201,
				"z": -2.5443420494,
				"element": "Cl" 
			},
			{
				"x": -1.7849515509,
				"y": 0.714088416,
				"z": -1.4137535184,
				"element": "N" 
			},
			{
				"x": -1.1703637932,
				"y": 1.8071833041,
				"z": -0.9521261797,
				"element": "C" 
			},
			{
				"x": 0.1923149507,
				"y": 2.0233582513,
				"z": -1.0793528543,
				"element": "C" 
			},
			{
				"x": 1.2297035379,
				"y": -1.3507885085,
				"z": -3.2165975883,
				"element": "S" 
			},
			{
				"x": 1.2049480334,
				"y": -2.968528227,
				"z": -1.8450461759,
				"element": "Cl" 
			},
			{
				"x": 2.625863823,
				"y": -0.9821124389,
				"z": -3.3643943413,
				"element": "O" 
			},
			{
				"x": 0.4226304181,
				"y": -1.7226236314,
				"z": -4.3660626642,
				"element": "O" 
			},
			{
				"x": -1.8022994646,
				"y": 2.5369410484,
				"z": -0.4520647177,
				"element": "H" 
			},
			{
				"x": 0.6617327842,
				"y": 2.9138736699,
				"z": -0.6799903108,
				"element": "H" 
			}
		],
		 "valence_orbital": [ 
			{
				"type": "occ",
				"energy": -0.32836,
				"method": "rhf"
			},
			{
				"type": "occ",
				"energy": -0.32277,
				"method": "rhf"
			},
			{
				"type": "occ",
				"energy": -0.31495,
				"method": "rhf"
			},
			{
				"type": "occ",
				"energy": -0.30553,
				"method": "rhf"
			},
			{
				"type": "occ",
				"energy": -0.2971,
				"method": "rhf"
			},
			{
				"type": "unocc",
				"energy": -0.10482,
				"method": "rhf"
			},
			{
				"type": "unocc",
				"energy": -0.07896,
				"method": "rhf"
			},
			{
				"type": "unocc",
				"energy": -0.07072,
				"method": "rhf"
			},
			{
				"type": "unocc",
				"energy": -0.02224,
				"method": "rhf"
			},
			{
				"type": "unocc",
				"energy": 0.02592,
				"method": "rhf"
			}
		],
		"cosmo_sigma_profile": { 
			"-0.025": 0.0,
			"-0.024": 0.0,
			"-0.023": 0.0,
			"-0.022": 0.0,
			"-0.021": 0.0,
			"-0.02": 0.0,
			"-0.019": 0.0,
			"-0.018": 0.0,
			"-0.017": 0.0,
			"-0.016": 0.0,
			"-0.015": 0.0,
			"-0.014": 0.0,
			"-0.013": 0.0,
			"-0.012": 0.0,
			"-0.011": 0.106560007045,
			"-0.01": 3.29157076377,
			"-0.009": 6.23408768619,
			"-0.008": 4.59363324071,
			"-0.007": 4.73293677296,
			"-0.006": 5.84319835412,
			"-0.005": 10.4542871939,
			"-0.004": 14.7678350595,
			"-0.003": 16.6288971969,
			"-0.002": 15.7243968179,
			"-0.001": 12.5234775013,
			"0.0": 15.1573490033,
			"0.001": 16.4938107893,
			"0.002": 23.8464899295,
			"0.003": 19.1477392038,
			"0.004": 6.84347272257,
			"0.005": 5.33533564597,
			"0.006": 6.95812730183,
			"0.007": 11.658177906,
			"0.008": 8.13899762935,
			"0.009": 1.28935050523,
			"0.01": 1.09722102319,
			"0.011": 0.688207906141,
			"0.012": 0.58942478296,
			"0.013": 0.01932253558,
			"0.014": 0.0,
			"0.015": 0.0,
			"0.016": 0.0,
			"0.017": 0.0,
			"0.018": 0.0,
			"0.019": 0.0,
			"0.02": 0.0,
			"0.021": 0.0,
			"0.022": 0.0,
			"0.023": 0.0,
			"0.024": 0.0,
			"0.025": 0.0
		}
	}
}
