{
	 "smiles": "NC(=O)C1=CNN=C1", 
	 "Tm": 497.15, 
	 "num_atms": 13, 
	 "gaussian": { 
		 "optdone": 1, 
		 "sigma_profile": "yes", 
		 "theory": "DFT", 
		 "functional": "B3LYP", 
		 "basiset": "6-31G**", 
		 "properties": { 
			 "R2extent": 2326.3269, 
			 "electric_dipole_moment_norm": 1.58007343184, 
			 "electric_quadrupole_moment_norm": 17.0286100968, 
			 "total_energy": -394.908296041, 
			 "HOMO_LUMO_gap": 0.23798, 
			 "cosmo_polarized_energy": -18.1, 
			 "cosmo_cavitation_energy": 17.76, 
			 "cosmo_dispersion_energy": -13.43, 
			 "cosmo_repulsion_energy": 1.13, 
			 "cosmo_total_nonelectrostatic_energy": 5.46, 
			 "SMD_solvation_energy": 3.48 
		},
		"coords": [
			{
				"x": -1.9921791,
				"y": -0.8988143706,
				"z": 1.3677026584,
				"element": "N" 
			},
			{
				"x": -1.1644352382,
				"y": -1.9358226649,
				"z": 1.0321823256,
				"element": "C" 
			},
			{
				"x": -0.4808506154,
				"y": -2.5190479833,
				"z": 1.8679885516,
				"element": "O" 
			},
			{
				"x": -1.1406450392,
				"y": -2.3146740441,
				"z": -0.3996127289,
				"element": "C" 
			},
			{
				"x": -0.3566902987,
				"y": -3.3420174767,
				"z": -0.9012210931,
				"element": "C" 
			},
			{
				"x": -0.5975505541,
				"y": -3.3902457875,
				"z": -2.2288882833,
				"element": "N" 
			},
			{
				"x": -1.4911811128,
				"y": -2.4628407336,
				"z": -2.6503487423,
				"element": "N" 
			},
			{
				"x": -1.8208781281,
				"y": -1.8101405616,
				"z": -1.5408568927,
				"element": "C" 
			},
			{
				"x": -2.5604057019,
				"y": -0.40788493,
				"z": 0.698266398,
				"element": "H" 
			},
			{
				"x": -2.0253994873,
				"y": -0.6226971023,
				"z": 2.3364263461,
				"element": "H" 
			},
			{
				"x": 0.3266628338,
				"y": -4.0057253559,
				"z": -0.3937848108,
				"element": "H" 
			},
			{
				"x": -0.1957805164,
				"y": -4.0200843179,
				"z": -2.9062665817,
				"element": "H" 
			},
			{
				"x": -2.5366670417,
				"y": -1.0003046716,
				"z": -1.605387147,
				"element": "H" 
			}
		],
		 "valence_orbital": [ 
			{
				"type": "occ",
				"energy": -0.3048,
				"method": "rhf"
			},
			{
				"type": "occ",
				"energy": -0.27186,
				"method": "rhf"
			},
			{
				"type": "occ",
				"energy": -0.26395,
				"method": "rhf"
			},
			{
				"type": "occ",
				"energy": -0.25271,
				"method": "rhf"
			},
			{
				"type": "occ",
				"energy": -0.24637,
				"method": "rhf"
			},
			{
				"type": "unocc",
				"energy": -0.00839,
				"method": "rhf"
			},
			{
				"type": "unocc",
				"energy": 0.01579,
				"method": "rhf"
			},
			{
				"type": "unocc",
				"energy": 0.06516,
				"method": "rhf"
			},
			{
				"type": "unocc",
				"energy": 0.08035,
				"method": "rhf"
			},
			{
				"type": "unocc",
				"energy": 0.12411,
				"method": "rhf"
			}
		],
		"cosmo_sigma_profile": { 
			"-0.025": 0.0,
			"-0.024": 0.0,
			"-0.023": 0.0,
			"-0.022": 0.0,
			"-0.021": 0.0,
			"-0.02": 0.0,
			"-0.019": 0.0,
			"-0.018": 0.0366986585905,
			"-0.017": 1.42342256771,
			"-0.016": 2.00024244108,
			"-0.015": 1.20974070732,
			"-0.014": 2.60704039174,
			"-0.013": 3.77942416793,
			"-0.012": 3.85319110267,
			"-0.011": 3.58430571455,
			"-0.01": 4.63754105597,
			"-0.009": 4.80982178506,
			"-0.008": 5.18377301258,
			"-0.007": 4.49973125982,
			"-0.006": 3.90749875801,
			"-0.005": 3.27679615253,
			"-0.004": 3.21035070793,
			"-0.003": 4.21793603925,
			"-0.002": 5.26020123053,
			"-0.001": 3.57794616902,
			"0.0": 4.75370966257,
			"0.001": 8.39087669999,
			"0.002": 10.3025943898,
			"0.003": 12.2843992455,
			"0.004": 6.4276035351,
			"0.005": 4.49524193487,
			"0.006": 3.20546548732,
			"0.007": 3.27289299866,
			"0.008": 2.46582349717,
			"0.009": 3.15288361713,
			"0.01": 2.42110474097,
			"0.011": 2.59155448762,
			"0.012": 2.74879628961,
			"0.013": 3.76888616259,
			"0.014": 7.54050495367,
			"0.015": 2.50740576353,
			"0.016": 0.206647459618,
			"0.017": 0.0,
			"0.018": 0.0,
			"0.019": 0.0,
			"0.02": 0.0,
			"0.021": 0.0,
			"0.022": 0.0,
			"0.023": 0.0,
			"0.024": 0.0,
			"0.025": 0.0
		}
	}
}
