{
	 "smiles": "CC(CN1C2=CC=CC=C2NC2=NC=CC=C2C1=O)N(C)C", 
	 "Tm": 395.15, 
	 "num_atms": 42, 
	 "gaussian": { 
		 "optdone": 1, 
		 "sigma_profile": "yes", 
		 "theory": "DFT", 
		 "functional": "B3LYP", 
		 "basiset": "6-31G**", 
		 "properties": { 
			 "R2extent": 6750.1234, 
			 "electric_dipole_moment_norm": 2.72868408578, 
			 "electric_quadrupole_moment_norm": 9.88274235372, 
			 "total_energy": -954.097913257, 
			 "HOMO_LUMO_gap": 0.14112, 
			 "cosmo_polarized_energy": -12.76, 
			 "cosmo_cavitation_energy": 42.49, 
			 "cosmo_dispersion_energy": -28.95, 
			 "cosmo_repulsion_energy": 2.17, 
			 "cosmo_total_nonelectrostatic_energy": 15.72, 
			 "SMD_solvation_energy": 4.89 
		},
		"coords": [
			{
				"x": 2.0843456719,
				"y": -0.2474570364,
				"z": -3.7082293112,
				"element": "C" 
			},
			{
				"x": 1.1593899998,
				"y": -0.185701408,
				"z": -2.4797299443,
				"element": "C" 
			},
			{
				"x": 1.8027896138,
				"y": -1.0306942439,
				"z": -1.3466598509,
				"element": "C" 
			},
			{
				"x": 0.9231907086,
				"y": -1.2824528698,
				"z": -0.1833806275,
				"element": "N" 
			},
			{
				"x": 1.4267218818,
				"y": -0.9995066292,
				"z": 1.1261704952,
				"element": "C" 
			},
			{
				"x": 2.7804973588,
				"y": -1.2245354775,
				"z": 1.420548573,
				"element": "C" 
			},
			{
				"x": 3.3323173564,
				"y": -0.8384835535,
				"z": 2.6399427845,
				"element": "C" 
			},
			{
				"x": 2.5250663247,
				"y": -0.2358165351,
				"z": 3.6047485321,
				"element": "C" 
			},
			{
				"x": 1.1676788812,
				"y": -0.0634260854,
				"z": 3.3508285489,
				"element": "C" 
			},
			{
				"x": 0.6077007445,
				"y": -0.4461816237,
				"z": 2.1249265249,
				"element": "C" 
			},
			{
				"x": -0.7786083511,
				"y": -0.2782148214,
				"z": 1.9090300675,
				"element": "N" 
			},
			{
				"x": -1.5836152558,
				"y": -1.3709230691,
				"z": 1.5785783697,
				"element": "C" 
			},
			{
				"x": -2.7367922127,
				"y": -1.4301087654,
				"z": 2.2614321878,
				"element": "N" 
			},
			{
				"x": -3.5537061266,
				"y": -2.4613411057,
				"z": 2.0371502611,
				"element": "C" 
			},
			{
				"x": -3.2664838027,
				"y": -3.4921895573,
				"z": 1.141838863,
				"element": "C" 
			},
			{
				"x": -2.0970788433,
				"y": -3.3904017802,
				"z": 0.3976023677,
				"element": "C" 
			},
			{
				"x": -1.2229507818,
				"y": -2.3140731517,
				"z": 0.5918181372,
				"element": "C" 
			},
			{
				"x": -0.1337300685,
				"y": -2.1476108449,
				"z": -0.4230905489,
				"element": "C" 
			},
			{
				"x": -0.2285306333,
				"y": -2.727397889,
				"z": -1.5035896652,
				"element": "O" 
			},
			{
				"x": 0.8290636312,
				"y": 1.2064509179,
				"z": -2.1533957454,
				"element": "N" 
			},
			{
				"x": 1.8805659777,
				"y": 1.9949664976,
				"z": -1.5353559779,
				"element": "C" 
			},
			{
				"x": -0.4654894231,
				"y": 1.4259762656,
				"z": -1.5223741368,
				"element": "C" 
			},
			{
				"x": 3.0907269315,
				"y": 0.127806454,
				"z": -3.4885992324,
				"element": "H" 
			},
			{
				"x": 1.6658405687,
				"y": 0.3618605048,
				"z": -4.5125484891,
				"element": "H" 
			},
			{
				"x": 2.1871347178,
				"y": -1.2773057936,
				"z": -4.0646893421,
				"element": "H" 
			},
			{
				"x": 0.2195294691,
				"y": -0.6693594357,
				"z": -2.7561234164,
				"element": "H" 
			},
			{
				"x": 2.1218911078,
				"y": -1.9896586061,
				"z": -1.7672638426,
				"element": "H" 
			},
			{
				"x": 2.6858429655,
				"y": -0.5083658235,
				"z": -0.9789649246,
				"element": "H" 
			},
			{
				"x": 3.4100897859,
				"y": -1.6989040504,
				"z": 0.6757920043,
				"element": "H" 
			},
			{
				"x": 4.3866240244,
				"y": -1.0112973195,
				"z": 2.8316525857,
				"element": "H" 
			},
			{
				"x": 2.940982119,
				"y": 0.0775162832,
				"z": 4.5572402224,
				"element": "H" 
			},
			{
				"x": 0.5196195657,
				"y": 0.3702695831,
				"z": 4.10822164,
				"element": "H" 
			},
			{
				"x": -1.2390098359,
				"y": 0.2610273012,
				"z": 2.6345181076,
				"element": "H" 
			},
			{
				"x": -4.4805489839,
				"y": -2.463659998,
				"z": 2.6082399244,
				"element": "H" 
			},
			{
				"x": -3.9527296209,
				"y": -4.3213964625,
				"z": 1.0101248715,
				"element": "H" 
			},
			{
				"x": -1.8484255947,
				"y": -4.1097703767,
				"z": -0.3750328549,
				"element": "H" 
			},
			{
				"x": 1.6140327233,
				"y": 3.0569948758,
				"z": -1.5883122016,
				"element": "H" 
			},
			{
				"x": 2.8242513669,
				"y": 1.8699152926,
				"z": -2.0749158154,
				"element": "H" 
			},
			{
				"x": 2.0626695912,
				"y": 1.7574058803,
				"z": -0.4697779856,
				"element": "H" 
			},
			{
				"x": -0.7329030708,
				"y": 2.4865821496,
				"z": -1.6124863894,
				"element": "H" 
			},
			{
				"x": -0.5063263582,
				"y": 1.1600450981,
				"z": -0.4532722666,
				"element": "H" 
			},
			{
				"x": -1.2329341237,
				"y": 0.8464172096,
				"z": -2.0451124998,
				"element": "H" 
			}
		],
		 "valence_orbital": [ 
			{
				"type": "occ",
				"energy": -0.26152,
				"method": "rhf"
			},
			{
				"type": "occ",
				"energy": -0.25553,
				"method": "rhf"
			},
			{
				"type": "occ",
				"energy": -0.23537,
				"method": "rhf"
			},
			{
				"type": "occ",
				"energy": -0.21527,
				"method": "rhf"
			},
			{
				"type": "occ",
				"energy": -0.18956,
				"method": "rhf"
			},
			{
				"type": "unocc",
				"energy": -0.04844,
				"method": "rhf"
			},
			{
				"type": "unocc",
				"energy": -0.01747,
				"method": "rhf"
			},
			{
				"type": "unocc",
				"energy": -0.01381,
				"method": "rhf"
			},
			{
				"type": "unocc",
				"energy": 0.00128,
				"method": "rhf"
			},
			{
				"type": "unocc",
				"energy": 0.04689,
				"method": "rhf"
			}
		],
		"cosmo_sigma_profile": { 
			"-0.025": 0.0,
			"-0.024": 0.0,
			"-0.023": 0.0,
			"-0.022": 0.0,
			"-0.021": 0.0,
			"-0.02": 0.0,
			"-0.019": 0.0,
			"-0.018": 0.0,
			"-0.017": 0.0,
			"-0.016": 0.0,
			"-0.015": 0.0,
			"-0.014": 0.00439757648072,
			"-0.013": 0.939270398685,
			"-0.012": 1.33985978469,
			"-0.011": 0.782372801003,
			"-0.01": 1.22070665421,
			"-0.009": 1.30885069536,
			"-0.008": 1.41631703978,
			"-0.007": 5.85835923052,
			"-0.006": 14.3370482642,
			"-0.005": 17.5176578193,
			"-0.004": 23.4919182208,
			"-0.003": 28.1184125127,
			"-0.002": 30.6288873476,
			"-0.001": 31.9841203099,
			"0.0": 38.9133602438,
			"0.001": 36.2081623757,
			"0.002": 26.4933289946,
			"0.003": 19.0325192204,
			"0.004": 15.248464766,
			"0.005": 11.156241352,
			"0.006": 4.80191683648,
			"0.007": 4.1123491897,
			"0.008": 1.84395674204,
			"0.009": 3.24988925976,
			"0.01": 3.89538990323,
			"0.011": 3.10073166904,
			"0.012": 2.89883966018,
			"0.013": 5.25837099565,
			"0.014": 0.677150488986,
			"0.015": 0.359138141375,
			"0.016": 0.0,
			"0.017": 0.0,
			"0.018": 0.0,
			"0.019": 0.0,
			"0.02": 0.0,
			"0.021": 0.0,
			"0.022": 0.0,
			"0.023": 0.0,
			"0.024": 0.0,
			"0.025": 0.0
		}
	}
}
