{
	 "smiles": "NC(CC(O)=O)C1=CC=C(C=C1)C(F)(F)F", 
	 "Tm": 493.15, 
	 "num_atms": 26, 
	 "gaussian": { 
		 "optdone": 1, 
		 "sigma_profile": "yes", 
		 "theory": "DFT", 
		 "functional": "B3LYP", 
		 "basiset": "6-31G**", 
		 "properties": { 
			 "R2extent": 6562.5293, 
			 "electric_dipole_moment_norm": 4.84345503747, 
			 "electric_quadrupole_moment_norm": 30.0803264434, 
			 "total_energy": -891.837074754, 
			 "HOMO_LUMO_gap": 0.20483, 
			 "cosmo_polarized_energy": -19.49, 
			 "cosmo_cavitation_energy": 31.54, 
			 "cosmo_dispersion_energy": -22.2, 
			 "cosmo_repulsion_energy": 1.68, 
			 "cosmo_total_nonelectrostatic_energy": 11.02, 
			 "SMD_solvation_energy": 7.36 
		},
		"coords": [
			{
				"x": 1.3335995332,
				"y": 0.5860480934,
				"z": -1.0263881977,
				"element": "N" 
			},
			{
				"x": 0.9721127184,
				"y": -0.3505615553,
				"z": 0.0667804789,
				"element": "C" 
			},
			{
				"x": 1.0620098683,
				"y": 0.4040187232,
				"z": 1.4099570881,
				"element": "C" 
			},
			{
				"x": 2.4541334103,
				"y": 0.9535059542,
				"z": 1.7638134383,
				"element": "C" 
			},
			{
				"x": 3.1888170797,
				"y": 1.4021582824,
				"z": 0.7355342889,
				"element": "O" 
			},
			{
				"x": 2.8467451671,
				"y": 0.998422912,
				"z": 2.9067389627,
				"element": "O" 
			},
			{
				"x": -0.3718818299,
				"y": -1.0390253011,
				"z": -0.1279131441,
				"element": "C" 
			},
			{
				"x": -0.4432623254,
				"y": -2.4318680982,
				"z": -0.2457702897,
				"element": "C" 
			},
			{
				"x": -1.6659063639,
				"y": -3.0759952684,
				"z": -0.4327541847,
				"element": "C" 
			},
			{
				"x": -2.8408363273,
				"y": -2.3266126626,
				"z": -0.5040448022,
				"element": "C" 
			},
			{
				"x": -2.7879486356,
				"y": -0.9344475737,
				"z": -0.3839097157,
				"element": "C" 
			},
			{
				"x": -1.5632821488,
				"y": -0.3009257924,
				"z": -0.1955722853,
				"element": "C" 
			},
			{
				"x": -4.158216984,
				"y": -3.0061141863,
				"z": -0.7661804478,
				"element": "C" 
			},
			{
				"x": -4.4344927556,
				"y": -3.0572235668,
				"z": -2.090315261,
				"element": "F" 
			},
			{
				"x": -5.1840076413,
				"y": -2.3531935032,
				"z": -0.1772777128,
				"element": "F" 
			},
			{
				"x": -4.167643544,
				"y": -4.2779557287,
				"z": -0.3126898415,
				"element": "F" 
			},
			{
				"x": 0.5870137801,
				"y": 1.2622641712,
				"z": -1.1768681131,
				"element": "H" 
			},
			{
				"x": 1.4552569577,
				"y": 0.0836772694,
				"z": -1.9024878007,
				"element": "H" 
			},
			{
				"x": 1.7481869868,
				"y": -1.1246167483,
				"z": 0.0638252317,
				"element": "H" 
			},
			{
				"x": 0.3610725604,
				"y": 1.2506667411,
				"z": 1.402006984,
				"element": "H" 
			},
			{
				"x": 0.7575037702,
				"y": -0.2454146635,
				"z": 2.2324705845,
				"element": "H" 
			},
			{
				"x": 2.6786598019,
				"y": 1.2584259391,
				"z": -0.1076472468,
				"element": "H" 
			},
			{
				"x": 0.467472093,
				"y": -3.0222265014,
				"z": -0.1869127256,
				"element": "H" 
			},
			{
				"x": -1.7083313791,
				"y": -4.1565365932,
				"z": -0.5158869629,
				"element": "H" 
			},
			{
				"x": -3.7036868781,
				"y": -0.3545050709,
				"z": -0.4257157406,
				"element": "H" 
			},
			{
				"x": -1.5429869139,
				"y": 0.7813347279,
				"z": -0.0927925847,
				"element": "H" 
			}
		],
		 "valence_orbital": [ 
			{
				"type": "occ",
				"energy": -0.2989,
				"method": "rhf"
			},
			{
				"type": "occ",
				"energy": -0.2927,
				"method": "rhf"
			},
			{
				"type": "occ",
				"energy": -0.28371,
				"method": "rhf"
			},
			{
				"type": "occ",
				"energy": -0.2778,
				"method": "rhf"
			},
			{
				"type": "occ",
				"energy": -0.25124,
				"method": "rhf"
			},
			{
				"type": "unocc",
				"energy": -0.04641,
				"method": "rhf"
			},
			{
				"type": "unocc",
				"energy": -0.03498,
				"method": "rhf"
			},
			{
				"type": "unocc",
				"energy": 0.02289,
				"method": "rhf"
			},
			{
				"type": "unocc",
				"energy": 0.04971,
				"method": "rhf"
			},
			{
				"type": "unocc",
				"energy": 0.07634,
				"method": "rhf"
			}
		],
		"cosmo_sigma_profile": { 
			"-0.025": 0.0,
			"-0.024": 0.0,
			"-0.023": 0.0,
			"-0.022": 0.0,
			"-0.021": 0.0,
			"-0.02": 0.0,
			"-0.019": 0.0,
			"-0.018": 0.0,
			"-0.017": 0.0,
			"-0.016": 0.0,
			"-0.015": 0.0,
			"-0.014": 0.0,
			"-0.013": 0.160767070669,
			"-0.012": 2.56202423514,
			"-0.011": 4.11327244279,
			"-0.01": 4.48298281512,
			"-0.009": 3.4116365769,
			"-0.008": 3.8197930851,
			"-0.007": 13.2182517061,
			"-0.006": 16.2216132028,
			"-0.005": 15.6975758421,
			"-0.004": 11.5149318029,
			"-0.003": 12.3647064061,
			"-0.002": 12.9218304805,
			"-0.001": 12.0821900319,
			"0.0": 13.8897487859,
			"0.001": 16.4863767625,
			"0.002": 24.6384681393,
			"0.003": 41.4693295238,
			"0.004": 7.6904261555,
			"0.005": 1.81049174063,
			"0.006": 2.54385716437,
			"0.007": 1.98677977978,
			"0.008": 2.03106871175,
			"0.009": 2.83217849241,
			"0.01": 2.81102232393,
			"0.011": 4.21538729481,
			"0.012": 7.22548657879,
			"0.013": 5.6889809321,
			"0.014": 2.34605118791,
			"0.015": 0.119163904425,
			"0.016": 0.0,
			"0.017": 0.0,
			"0.018": 0.0,
			"0.019": 0.0,
			"0.02": 0.0,
			"0.021": 0.0,
			"0.022": 0.0,
			"0.023": 0.0,
			"0.024": 0.0,
			"0.025": 0.0
		}
	}
}
