{
	 "smiles": "OC(=O)C1=CC=C(C=C1)C(=O)C1=CC=CC=C1", 
	 "Tm": 471.15, 
	 "num_atms": 27, 
	 "gaussian": { 
		 "optdone": 1, 
		 "sigma_profile": "yes", 
		 "theory": "DFT", 
		 "functional": "B3LYP", 
		 "basiset": "6-31G**", 
		 "properties": { 
			 "R2extent": 5675.7772, 
			 "electric_dipole_moment_norm": 3.23513145637, 
			 "electric_quadrupole_moment_norm": 32.0026886697, 
			 "total_energy": -765.197399513, 
			 "HOMO_LUMO_gap": 0.1715, 
			 "cosmo_polarized_energy": -17.6, 
			 "cosmo_cavitation_energy": 32.29, 
			 "cosmo_dispersion_energy": -23.41, 
			 "cosmo_repulsion_energy": 1.79, 
			 "cosmo_total_nonelectrostatic_energy": 10.67, 
			 "SMD_solvation_energy": 7.05 
		},
		"coords": [
			{
				"x": 3.6331249138,
				"y": -0.0112461786,
				"z": -4.5656632821,
				"element": "O" 
			},
			{
				"x": 2.3543554588,
				"y": 0.3578693805,
				"z": -4.291012941,
				"element": "C" 
			},
			{
				"x": 1.6987973517,
				"y": 0.9376059257,
				"z": -5.1240320811,
				"element": "O" 
			},
			{
				"x": 1.827302125,
				"y": 0.009465547,
				"z": -2.929109455,
				"element": "C" 
			},
			{
				"x": 0.4377351728,
				"y": -0.0345830946,
				"z": -2.7628781054,
				"element": "C" 
			},
			{
				"x": -0.113538249,
				"y": -0.3363533463,
				"z": -1.5208091054,
				"element": "C" 
			},
			{
				"x": 0.7168478009,
				"y": -0.593851207,
				"z": -0.4184389532,
				"element": "C" 
			},
			{
				"x": 2.1088609112,
				"y": -0.5536315973,
				"z": -0.5887444622,
				"element": "C" 
			},
			{
				"x": 2.6593653645,
				"y": -0.2435955658,
				"z": -1.8270646243,
				"element": "C" 
			},
			{
				"x": 0.1922447861,
				"y": -1.0004649778,
				"z": 0.9327554706,
				"element": "C" 
			},
			{
				"x": 0.8692798788,
				"y": -1.7433541316,
				"z": 1.6344838178,
				"element": "O" 
			},
			{
				"x": -1.1377869027,
				"y": -0.5105630639,
				"z": 1.4151494325,
				"element": "C" 
			},
			{
				"x": -1.6974362379,
				"y": 0.711184104,
				"z": 1.008262668,
				"element": "C" 
			},
			{
				"x": -2.9108537986,
				"y": 1.1420877255,
				"z": 1.5456847865,
				"element": "C" 
			},
			{
				"x": -3.5805069035,
				"y": 0.3535511695,
				"z": 2.4826523918,
				"element": "C" 
			},
			{
				"x": -3.0258474874,
				"y": -0.8610974128,
				"z": 2.898869539,
				"element": "C" 
			},
			{
				"x": -1.8069310575,
				"y": -1.2838659266,
				"z": 2.3784605284,
				"element": "C" 
			},
			{
				"x": 3.9692672726,
				"y": -0.5993687125,
				"z": -3.8752743615,
				"element": "H" 
			},
			{
				"x": -0.1927523538,
				"y": 0.1682986472,
				"z": -3.6217012245,
				"element": "H" 
			},
			{
				"x": -1.1912456084,
				"y": -0.3924074942,
				"z": -1.4126629034,
				"element": "H" 
			},
			{
				"x": 2.7420119219,
				"y": -0.7670826349,
				"z": 0.265599778,
				"element": "H" 
			},
			{
				"x": 3.7405530639,
				"y": -0.1682739625,
				"z": -1.9164936301,
				"element": "H" 
			},
			{
				"x": -1.1742516126,
				"y": 1.3385089697,
				"z": 0.2943596227,
				"element": "H" 
			},
			{
				"x": -3.330542409,
				"y": 2.0941575202,
				"z": 1.2347303756,
				"element": "H" 
			},
			{
				"x": -4.5294234534,
				"y": 0.686589699,
				"z": 2.8932390257,
				"element": "H" 
			},
			{
				"x": -3.5431104699,
				"y": -1.4721375592,
				"z": 3.6327045165,
				"element": "H" 
			},
			{
				"x": -1.3494194785,
				"y": -2.2123418227,
				"z": 2.7033331764,
				"element": "H" 
			}
		],
		 "valence_orbital": [ 
			{
				"type": "occ",
				"energy": -0.28066,
				"method": "rhf"
			},
			{
				"type": "occ",
				"energy": -0.27361,
				"method": "rhf"
			},
			{
				"type": "occ",
				"energy": -0.26941,
				"method": "rhf"
			},
			{
				"type": "occ",
				"energy": -0.26769,
				"method": "rhf"
			},
			{
				"type": "occ",
				"energy": -0.2566,
				"method": "rhf"
			},
			{
				"type": "unocc",
				"energy": -0.0851,
				"method": "rhf"
			},
			{
				"type": "unocc",
				"energy": -0.04363,
				"method": "rhf"
			},
			{
				"type": "unocc",
				"energy": -0.02982,
				"method": "rhf"
			},
			{
				"type": "unocc",
				"energy": -0.01626,
				"method": "rhf"
			},
			{
				"type": "unocc",
				"energy": 0.01752,
				"method": "rhf"
			}
		],
		"cosmo_sigma_profile": { 
			"-0.025": 0.0,
			"-0.024": 0.0,
			"-0.023": 0.0,
			"-0.022": 0.0,
			"-0.021": 0.0,
			"-0.02": 0.0,
			"-0.019": 0.150733287792,
			"-0.018": 1.11806958961,
			"-0.017": 0.965329119185,
			"-0.016": 1.45416077744,
			"-0.015": 0.727873051802,
			"-0.014": 0.794066349063,
			"-0.013": 1.6951162885,
			"-0.012": 1.02984585726,
			"-0.011": 1.06122785462,
			"-0.01": 1.04286325958,
			"-0.009": 1.52315238463,
			"-0.008": 1.72447087228,
			"-0.007": 6.62651850751,
			"-0.006": 17.0599839496,
			"-0.005": 19.4606895126,
			"-0.004": 20.493292533,
			"-0.003": 17.6090376193,
			"-0.002": 16.1468535086,
			"-0.001": 15.2762716658,
			"0.0": 15.8731282359,
			"0.001": 20.9791990824,
			"0.002": 20.0341105822,
			"0.003": 15.222772288,
			"0.004": 14.5808796944,
			"0.005": 5.62681068637,
			"0.006": 3.42528219,
			"0.007": 4.31030149962,
			"0.008": 4.3625631988,
			"0.009": 5.36063923159,
			"0.01": 7.76419209879,
			"0.011": 8.32681917223,
			"0.012": 7.15883964806,
			"0.013": 0.945523314457,
			"0.014": 0.0,
			"0.015": 0.0,
			"0.016": 0.0,
			"0.017": 0.0,
			"0.018": 0.0,
			"0.019": 0.0,
			"0.02": 0.0,
			"0.021": 0.0,
			"0.022": 0.0,
			"0.023": 0.0,
			"0.024": 0.0,
			"0.025": 0.0
		}
	}
}
