{
	 "smiles": "CC1=CC(O)=CC(=O)N1CC(O)=O", 
	 "Tm": 522.15, 
	 "num_atms": 22, 
	 "gaussian": { 
		 "optdone": 1, 
		 "sigma_profile": "yes", 
		 "theory": "DFT", 
		 "functional": "B3LYP", 
		 "basiset": "6-31G**", 
		 "properties": { 
			 "R2extent": 2613.3882, 
			 "electric_dipole_moment_norm": 5.79530643021, 
			 "electric_quadrupole_moment_norm": 17.6738990161, 
			 "total_energy": -665.948555152, 
			 "HOMO_LUMO_gap": 0.18974, 
			 "cosmo_polarized_energy": -19.13, 
			 "cosmo_cavitation_energy": 25.69, 
			 "cosmo_dispersion_energy": -19.06, 
			 "cosmo_repulsion_energy": 1.48, 
			 "cosmo_total_nonelectrostatic_energy": 8.11, 
			 "SMD_solvation_energy": 6.46 
		},
		"coords": [
			{
				"x": 2.7004243722,
				"y": 0.0634633796,
				"z": -0.3343524382,
				"element": "C" 
			},
			{
				"x": 1.2887365701,
				"y": 0.5071202434,
				"z": -0.6072807455,
				"element": "C" 
			},
			{
				"x": 1.0198485304,
				"y": 1.6775534863,
				"z": -1.2658539713,
				"element": "C" 
			},
			{
				"x": -0.3260070099,
				"y": 2.0561109733,
				"z": -1.5122325871,
				"element": "C" 
			},
			{
				"x": -0.4999491723,
				"y": 3.2348840941,
				"z": -2.1518425012,
				"element": "O" 
			},
			{
				"x": -1.363583658,
				"y": 1.2380941348,
				"z": -1.1282495248,
				"element": "C" 
			},
			{
				"x": -1.10826556,
				"y": -0.0083832289,
				"z": -0.4875486715,
				"element": "C" 
			},
			{
				"x": -1.9799759068,
				"y": -0.8500843153,
				"z": -0.1810877505,
				"element": "O" 
			},
			{
				"x": 0.246244171,
				"y": -0.2921019847,
				"z": -0.1861516462,
				"element": "N" 
			},
			{
				"x": 0.4727779195,
				"y": -1.5188805093,
				"z": 0.5987907357,
				"element": "C" 
			},
			{
				"x": 0.4724026047,
				"y": -2.7871610013,
				"z": -0.27667221,
				"element": "C" 
			},
			{
				"x": -0.7068308021,
				"y": -3.0956700918,
				"z": -0.8169867164,
				"element": "O" 
			},
			{
				"x": 1.4764990925,
				"y": -3.4411575091,
				"z": -0.4514506428,
				"element": "O" 
			},
			{
				"x": 2.864761722,
				"y": -0.9708962771,
				"z": -0.6512185094,
				"element": "H" 
			},
			{
				"x": 3.395657826,
				"y": 0.7101905268,
				"z": -0.8715281006,
				"element": "H" 
			},
			{
				"x": 2.9437861914,
				"y": 0.1259548635,
				"z": 0.7330019466,
				"element": "H" 
			},
			{
				"x": 1.8245817265,
				"y": 2.3152922011,
				"z": -1.6070530104,
				"element": "H" 
			},
			{
				"x": -1.4447365178,
				"y": 3.3967200979,
				"z": -2.2817006638,
				"element": "H" 
			},
			{
				"x": -2.4015855415,
				"y": 1.4751191945,
				"z": -1.334544858,
				"element": "H" 
			},
			{
				"x": -0.3343719796,
				"y": -1.5801640445,
				"z": 1.333045397,
				"element": "H" 
			},
			{
				"x": 1.4281778732,
				"y": -1.4592896513,
				"z": 1.110632013,
				"element": "H" 
			},
			{
				"x": -1.3682924515,
				"y": -2.3933145819,
				"z": -0.5720155446,
				"element": "H" 
			}
		],
		 "valence_orbital": [ 
			{
				"type": "occ",
				"energy": -0.30244,
				"method": "rhf"
			},
			{
				"type": "occ",
				"energy": -0.28939,
				"method": "rhf"
			},
			{
				"type": "occ",
				"energy": -0.27549,
				"method": "rhf"
			},
			{
				"type": "occ",
				"energy": -0.25796,
				"method": "rhf"
			},
			{
				"type": "occ",
				"energy": -0.235,
				"method": "rhf"
			},
			{
				"type": "unocc",
				"energy": -0.04526,
				"method": "rhf"
			},
			{
				"type": "unocc",
				"energy": -0.00341,
				"method": "rhf"
			},
			{
				"type": "unocc",
				"energy": 0.00875,
				"method": "rhf"
			},
			{
				"type": "unocc",
				"energy": 0.05014,
				"method": "rhf"
			},
			{
				"type": "unocc",
				"energy": 0.08134,
				"method": "rhf"
			}
		],
		"cosmo_sigma_profile": { 
			"-0.025": 0.0,
			"-0.024": 0.0,
			"-0.023": 0.0,
			"-0.022": 0.0,
			"-0.021": 0.0,
			"-0.02": 0.0115072409861,
			"-0.019": 0.658979475491,
			"-0.018": 0.986226949643,
			"-0.017": 1.2507048717,
			"-0.016": 0.992756452933,
			"-0.015": 1.13125255748,
			"-0.014": 1.121057654,
			"-0.013": 0.549396325388,
			"-0.012": 0.638367667348,
			"-0.011": 1.67400759694,
			"-0.01": 1.78966633971,
			"-0.009": 3.31128642442,
			"-0.008": 7.31027050778,
			"-0.007": 9.20798346993,
			"-0.006": 10.4058151523,
			"-0.005": 12.2090326998,
			"-0.004": 13.4873253656,
			"-0.003": 12.797227055,
			"-0.002": 15.3561959143,
			"-0.001": 11.3584421587,
			"0.0": 9.73403829806,
			"0.001": 12.5672166477,
			"0.002": 12.2212615342,
			"0.003": 8.33700897198,
			"0.004": 4.86026018761,
			"0.005": 4.73120195837,
			"0.006": 3.9543553348,
			"0.007": 4.47363871535,
			"0.008": 5.33979049442,
			"0.009": 5.76276932716,
			"0.01": 6.69544373782,
			"0.011": 7.14932118207,
			"0.012": 6.58249645888,
			"0.013": 3.58302125457,
			"0.014": 1.79996422878,
			"0.015": 0.228501156821,
			"0.016": 0.0,
			"0.017": 0.0,
			"0.018": 0.0,
			"0.019": 0.0,
			"0.02": 0.0,
			"0.021": 0.0,
			"0.022": 0.0,
			"0.023": 0.0,
			"0.024": 0.0,
			"0.025": 0.0
		}
	}
}
