{
	 "smiles": "O=P(C1C=COC2=C1CCCC2)(C1=CC=CC=C1)C1=CC=CC=C1", 
	 "Tm": 449.15, 
	 "num_atms": 45, 
	 "gaussian": { 
		 "optdone": 1, 
		 "sigma_profile": "yes", 
		 "theory": "DFT", 
		 "functional": "B3LYP", 
		 "basiset": "6-31G**", 
		 "properties": { 
			 "R2extent": 7938.8449, 
			 "electric_dipole_moment_norm": 3.13728146171, 
			 "electric_quadrupole_moment_norm": 14.1197092867, 
			 "total_energy": -1304.69117827, 
			 "HOMO_LUMO_gap": 0.16879, 
			 "cosmo_polarized_energy": -14.75, 
			 "cosmo_cavitation_energy": 46.58, 
			 "cosmo_dispersion_energy": -31.42, 
			 "cosmo_repulsion_energy": 2.38, 
			 "cosmo_total_nonelectrostatic_energy": 17.54, 
			 "SMD_solvation_energy": 8.19 
		},
		"coords": [
			{
				"x": -0.9398462113,
				"y": -2.4764767775,
				"z": -0.9729217907,
				"element": "O" 
			},
			{
				"x": -0.5859040495,
				"y": -1.251588795,
				"z": -0.1696877561,
				"element": "P" 
			},
			{
				"x": -1.2028859569,
				"y": 0.3274231328,
				"z": -1.0115795386,
				"element": "C" 
			},
			{
				"x": -1.2762629275,
				"y": 1.5440045955,
				"z": -0.1295774934,
				"element": "C" 
			},
			{
				"x": -0.5378212133,
				"y": 2.6301496285,
				"z": -0.3704906396,
				"element": "C" 
			},
			{
				"x": 0.3327045985,
				"y": 2.7574419081,
				"z": -1.4156749982,
				"element": "O" 
			},
			{
				"x": 0.2946199837,
				"y": 1.7659807402,
				"z": -2.3889358223,
				"element": "C" 
			},
			{
				"x": -0.4246952583,
				"y": 0.6376565794,
				"z": -2.276540963,
				"element": "C" 
			},
			{
				"x": -0.4964435809,
				"y": -0.3517358205,
				"z": -3.4214568803,
				"element": "C" 
			},
			{
				"x": 0.0301962772,
				"y": 0.2211701391,
				"z": -4.7443694763,
				"element": "C" 
			},
			{
				"x": 1.3481434493,
				"y": 0.9728562555,
				"z": -4.5268637596,
				"element": "C" 
			},
			{
				"x": 1.1356305768,
				"y": 2.1543414262,
				"z": -3.5713649168,
				"element": "C" 
			},
			{
				"x": 1.2190488318,
				"y": -1.106601242,
				"z": 0.0964532348,
				"element": "C" 
			},
			{
				"x": 1.9739672467,
				"y": -2.251069512,
				"z": -0.2023181422,
				"element": "C" 
			},
			{
				"x": 3.3578087247,
				"y": -2.2485387271,
				"z": -0.0242724457,
				"element": "C" 
			},
			{
				"x": 4.0007640247,
				"y": -1.1019710745,
				"z": 0.4457823305,
				"element": "C" 
			},
			{
				"x": 3.2578325043,
				"y": 0.0451637528,
				"z": 0.7331474908,
				"element": "C" 
			},
			{
				"x": 1.8731374288,
				"y": 0.0466580632,
				"z": 0.5591242552,
				"element": "C" 
			},
			{
				"x": -1.386998363,
				"y": -1.2859924881,
				"z": 1.4799798738,
				"element": "C" 
			},
			{
				"x": -2.497306425,
				"y": -2.1344886823,
				"z": 1.6085199408,
				"element": "C" 
			},
			{
				"x": -3.1881775638,
				"y": -2.2122518665,
				"z": 2.8185032562,
				"element": "C" 
			},
			{
				"x": -2.7743220499,
				"y": -1.4475570257,
				"z": 3.9106522993,
				"element": "C" 
			},
			{
				"x": -1.6626965862,
				"y": -0.6095566962,
				"z": 3.793942981,
				"element": "C" 
			},
			{
				"x": -0.9699775312,
				"y": -0.5289667538,
				"z": 2.5854294009,
				"element": "C" 
			},
			{
				"x": -2.2197647411,
				"y": -0.0023569848,
				"z": -1.283516954,
				"element": "H" 
			},
			{
				"x": -1.9553275623,
				"y": 1.5520765434,
				"z": 0.7153328193,
				"element": "H" 
			},
			{
				"x": -0.5589838332,
				"y": 3.5299780792,
				"z": 0.2344515217,
				"element": "H" 
			},
			{
				"x": 0.0498492128,
				"y": -1.2656046859,
				"z": -3.153976326,
				"element": "H" 
			},
			{
				"x": -1.5387285188,
				"y": -0.6781432683,
				"z": -3.5368878459,
				"element": "H" 
			},
			{
				"x": 0.1607150838,
				"y": -0.5868235003,
				"z": -5.4727066326,
				"element": "H" 
			},
			{
				"x": -0.7113905772,
				"y": 0.912159434,
				"z": -5.1675850381,
				"element": "H" 
			},
			{
				"x": 2.0898539281,
				"y": 0.286818742,
				"z": -4.0982083517,
				"element": "H" 
			},
			{
				"x": 1.758148475,
				"y": 1.3319590913,
				"z": -5.4771803827,
				"element": "H" 
			},
			{
				"x": 2.0936068456,
				"y": 2.541896676,
				"z": -3.2028131427,
				"element": "H" 
			},
			{
				"x": 0.6525970201,
				"y": 2.9928980234,
				"z": -4.0937832125,
				"element": "H" 
			},
			{
				"x": 1.4611263557,
				"y": -3.1297018562,
				"z": -0.5812080303,
				"element": "H" 
			},
			{
				"x": 3.9335726108,
				"y": -3.1402294969,
				"z": -0.2555734665,
				"element": "H" 
			},
			{
				"x": 5.0784560394,
				"y": -1.0995389706,
				"z": 0.5834161278,
				"element": "H" 
			},
			{
				"x": 3.7566043368,
				"y": 0.9424148614,
				"z": 1.088513229,
				"element": "H" 
			},
			{
				"x": 1.3105051478,
				"y": 0.9492189078,
				"z": 0.7709232675,
				"element": "H" 
			},
			{
				"x": -2.7937836106,
				"y": -2.7407986687,
				"z": 0.7581095424,
				"element": "H" 
			},
			{
				"x": -4.0445018694,
				"y": -2.8743785233,
				"z": 2.9100785615,
				"element": "H" 
			},
			{
				"x": -3.3101753065,
				"y": -1.5100753341,
				"z": 4.8536494917,
				"element": "H" 
			},
			{
				"x": -1.3300928919,
				"y": -0.0242245445,
				"z": 4.6465683998,
				"element": "H" 
			},
			{
				"x": -0.0953020744,
				"y": 0.109204715,
				"z": 2.5143159818,
				"element": "H" 
			}
		],
		 "valence_orbital": [ 
			{
				"type": "occ",
				"energy": -0.25502,
				"method": "rhf"
			},
			{
				"type": "occ",
				"energy": -0.25419,
				"method": "rhf"
			},
			{
				"type": "occ",
				"energy": -0.25111,
				"method": "rhf"
			},
			{
				"type": "occ",
				"energy": -0.24894,
				"method": "rhf"
			},
			{
				"type": "occ",
				"energy": -0.19768,
				"method": "rhf"
			},
			{
				"type": "unocc",
				"energy": -0.02889,
				"method": "rhf"
			},
			{
				"type": "unocc",
				"energy": -0.01686,
				"method": "rhf"
			},
			{
				"type": "unocc",
				"energy": -0.00903,
				"method": "rhf"
			},
			{
				"type": "unocc",
				"energy": -0.00634,
				"method": "rhf"
			},
			{
				"type": "unocc",
				"energy": 0.01164,
				"method": "rhf"
			}
		],
		"cosmo_sigma_profile": { 
			"-0.025": 0.0,
			"-0.024": 0.0,
			"-0.023": 0.0,
			"-0.022": 0.0,
			"-0.021": 0.0,
			"-0.02": 0.0,
			"-0.019": 0.0,
			"-0.018": 0.0,
			"-0.017": 0.0,
			"-0.016": 0.0,
			"-0.015": 0.0,
			"-0.014": 0.0,
			"-0.013": 0.0,
			"-0.012": 0.00159851239326,
			"-0.011": 0.0176523370843,
			"-0.01": 0.0567706090882,
			"-0.009": 0.0566318134437,
			"-0.008": 1.37725711671,
			"-0.007": 4.076122005,
			"-0.006": 16.388669103,
			"-0.005": 26.1455057842,
			"-0.004": 32.8918905042,
			"-0.003": 32.6034817106,
			"-0.002": 37.5784195737,
			"-0.001": 39.2983096622,
			"0.0": 32.0226868151,
			"0.001": 25.7369883949,
			"0.002": 23.0498421316,
			"0.003": 26.3332862641,
			"0.004": 27.3231576073,
			"0.005": 15.8346240305,
			"0.006": 4.33587745816,
			"0.007": 2.35589354456,
			"0.008": 3.30034807078,
			"0.009": 3.78585693322,
			"0.01": 1.03537150948,
			"0.011": 1.59397316341,
			"0.012": 1.19324281821,
			"0.013": 1.40909802954,
			"0.014": 1.29655773928,
			"0.015": 1.77622578358,
			"0.016": 4.08857576378,
			"0.017": 0.492810973997,
			"0.018": 0.0,
			"0.019": 0.0,
			"0.02": 0.0,
			"0.021": 0.0,
			"0.022": 0.0,
			"0.023": 0.0,
			"0.024": 0.0,
			"0.025": 0.0
		}
	}
}
