{
	 "smiles": "NC1=C2C=CC=CC2=C(C=C1O)S(O)(=O)=O", 
	 "Tm": 568.15, 
	 "num_atms": 25, 
	 "gaussian": { 
		 "optdone": 1, 
		 "sigma_profile": "yes", 
		 "theory": "DFT", 
		 "functional": "B3LYP", 
		 "basiset": "6-31G**", 
		 "properties": { 
			 "R2extent": 5210.3085, 
			 "electric_dipole_moment_norm": 6.15049301195, 
			 "electric_quadrupole_moment_norm": 10.5412194911, 
			 "total_energy": -1140.25977257, 
			 "HOMO_LUMO_gap": 0.15717, 
			 "cosmo_polarized_energy": -19.19, 
			 "cosmo_cavitation_energy": 30.03, 
			 "cosmo_dispersion_energy": -23.07, 
			 "cosmo_repulsion_energy": 1.73, 
			 "cosmo_total_nonelectrostatic_energy": 8.69, 
			 "SMD_solvation_energy": 4.61 
		},
		"coords": [
			{
				"x": 1.2429266232,
				"y": 1.4018382938,
				"z": -1.4959557674,
				"element": "N" 
			},
			{
				"x": 0.8604976526,
				"y": 0.7654983388,
				"z": -0.2625958565,
				"element": "C" 
			},
			{
				"x": 1.5727958315,
				"y": -0.3046279684,
				"z": 0.352750934,
				"element": "C" 
			},
			{
				"x": 2.7583359625,
				"y": -0.8372528272,
				"z": -0.2214646876,
				"element": "C" 
			},
			{
				"x": 3.4375865301,
				"y": -1.8709004908,
				"z": 0.3829688483,
				"element": "C" 
			},
			{
				"x": 2.96016339,
				"y": -2.4245869786,
				"z": 1.591340077,
				"element": "C" 
			},
			{
				"x": 1.8132027998,
				"y": -1.9364704888,
				"z": 2.1781090745,
				"element": "C" 
			},
			{
				"x": 1.0895262646,
				"y": -0.867384798,
				"z": 1.5854954359,
				"element": "C" 
			},
			{
				"x": -0.1006816441,
				"y": -0.2943941377,
				"z": 2.1384115383,
				"element": "C" 
			},
			{
				"x": -0.7767892541,
				"y": 0.7403338075,
				"z": 1.5358577438,
				"element": "C" 
			},
			{
				"x": -0.291911279,
				"y": 1.2737232686,
				"z": 0.3190031221,
				"element": "C" 
			},
			{
				"x": -0.9669657718,
				"y": 2.2863880833,
				"z": -0.2626883138,
				"element": "O" 
			},
			{
				"x": -0.8205286319,
				"y": -0.9002265967,
				"z": 3.6662442192,
				"element": "S" 
			},
			{
				"x": 0.3674409483,
				"y": -0.5717811064,
				"z": 4.7588749561,
				"element": "O" 
			},
			{
				"x": -0.934631306,
				"y": -2.3503424839,
				"z": 3.6182000812,
				"element": "O" 
			},
			{
				"x": -1.9589120638,
				"y": -0.0540008988,
				"z": 4.024217349,
				"element": "O" 
			},
			{
				"x": 2.1659293609,
				"y": 1.8252810383,
				"z": -1.4333249712,
				"element": "H" 
			},
			{
				"x": 1.2639608769,
				"y": 0.7423156103,
				"z": -2.270443144,
				"element": "H" 
			},
			{
				"x": 3.1261667059,
				"y": -0.4156367134,
				"z": -1.1515588432,
				"element": "H" 
			},
			{
				"x": 4.3422904178,
				"y": -2.2641585895,
				"z": -0.0715403996,
				"element": "H" 
			},
			{
				"x": 3.4972280144,
				"y": -3.2432877961,
				"z": 2.0600159724,
				"element": "H" 
			},
			{
				"x": 1.4511890514,
				"y": -2.3831928071,
				"z": 3.095264239,
				"element": "H" 
			},
			{
				"x": -1.676312214,
				"y": 1.151359213,
				"z": 1.9778016907,
				"element": "H" 
			},
			{
				"x": -0.4519169245,
				"y": 2.4811527255,
				"z": -1.0735249021,
				"element": "H" 
			},
			{
				"x": 0.0650086593,
				"y": 0.1973543024,
				"z": 5.2704416038,
				"element": "H" 
			}
		],
		 "valence_orbital": [ 
			{
				"type": "occ",
				"energy": -0.30762,
				"method": "rhf"
			},
			{
				"type": "occ",
				"energy": -0.2929,
				"method": "rhf"
			},
			{
				"type": "occ",
				"energy": -0.28978,
				"method": "rhf"
			},
			{
				"type": "occ",
				"energy": -0.25066,
				"method": "rhf"
			},
			{
				"type": "occ",
				"energy": -0.22165,
				"method": "rhf"
			},
			{
				"type": "unocc",
				"energy": -0.06448,
				"method": "rhf"
			},
			{
				"type": "unocc",
				"energy": -0.019,
				"method": "rhf"
			},
			{
				"type": "unocc",
				"energy": 0.00382,
				"method": "rhf"
			},
			{
				"type": "unocc",
				"energy": 0.04112,
				"method": "rhf"
			},
			{
				"type": "unocc",
				"energy": 0.05238,
				"method": "rhf"
			}
		],
		"cosmo_sigma_profile": { 
			"-0.025": 0.0,
			"-0.024": 0.0,
			"-0.023": 0.0,
			"-0.022": 0.0,
			"-0.021": 0.0,
			"-0.02": 0.43785393337,
			"-0.019": 1.08127713787,
			"-0.018": 0.450957715891,
			"-0.017": 1.06092693797,
			"-0.016": 1.01701000053,
			"-0.015": 1.18303356757,
			"-0.014": 0.538944698049,
			"-0.013": 0.500095349269,
			"-0.012": 2.81228292958,
			"-0.011": 4.7759432661,
			"-0.01": 4.4771365066,
			"-0.009": 5.51286220207,
			"-0.008": 5.39646228678,
			"-0.007": 5.44854842566,
			"-0.006": 9.81192976301,
			"-0.005": 10.126725684,
			"-0.004": 13.0570580647,
			"-0.003": 10.4824222504,
			"-0.002": 12.7698538574,
			"-0.001": 11.2090496535,
			"0.0": 13.4627181488,
			"0.001": 21.9166290466,
			"0.002": 16.0467123517,
			"0.003": 16.1157695129,
			"0.004": 17.8680941155,
			"0.005": 7.34613769069,
			"0.006": 7.09551401663,
			"0.007": 7.17033833,
			"0.008": 6.54775583535,
			"0.009": 9.91724825745,
			"0.01": 10.329461039,
			"0.011": 3.83244483428,
			"0.012": 0.219832775709,
			"0.013": 0.0,
			"0.014": 0.0,
			"0.015": 0.0,
			"0.016": 0.0,
			"0.017": 0.0,
			"0.018": 0.0,
			"0.019": 0.0,
			"0.02": 0.0,
			"0.021": 0.0,
			"0.022": 0.0,
			"0.023": 0.0,
			"0.024": 0.0,
			"0.025": 0.0
		}
	}
}
