{
	 "smiles": "OC(=O)C1=CC2=CC=CC=C2OC1", 
	 "Tm": 423.15, 
	 "num_atms": 21, 
	 "gaussian": { 
		 "optdone": 1, 
		 "sigma_profile": "yes", 
		 "theory": "DFT", 
		 "functional": "B3LYP", 
		 "basiset": "6-31G**", 
		 "properties": { 
			 "R2extent": 2807.8978, 
			 "electric_dipole_moment_norm": 4.64764832792, 
			 "electric_quadrupole_moment_norm": 15.0083404855, 
			 "total_energy": -611.544829469, 
			 "HOMO_LUMO_gap": 0.15037, 
			 "cosmo_polarized_energy": -15.03, 
			 "cosmo_cavitation_energy": 25.27, 
			 "cosmo_dispersion_energy": -19.0, 
			 "cosmo_repulsion_energy": 1.48, 
			 "cosmo_total_nonelectrostatic_energy": 7.75, 
			 "SMD_solvation_energy": 5.5 
		},
		"coords": [
			{
				"x": -2.0035327836,
				"y": 0.9068095239,
				"z": 3.5465565472,
				"element": "O" 
			},
			{
				"x": -2.1263711799,
				"y": 1.1159083632,
				"z": 2.2078361753,
				"element": "C" 
			},
			{
				"x": -3.0041892484,
				"y": 1.8352732973,
				"z": 1.7819630138,
				"element": "O" 
			},
			{
				"x": -1.1721182877,
				"y": 0.4244144877,
				"z": 1.3080636038,
				"element": "C" 
			},
			{
				"x": -0.4456879057,
				"y": -0.6651519513,
				"z": 1.6341022412,
				"element": "C" 
			},
			{
				"x": 0.4245015847,
				"y": -1.2902022065,
				"z": 0.6545075958,
				"element": "C" 
			},
			{
				"x": 1.0805372688,
				"y": -2.5125890116,
				"z": 0.8688183955,
				"element": "C" 
			},
			{
				"x": 1.9608989865,
				"y": -3.0243033752,
				"z": -0.0793863666,
				"element": "C" 
			},
			{
				"x": 2.2071594526,
				"y": -2.3007541017,
				"z": -1.2522051859,
				"element": "C" 
			},
			{
				"x": 1.5702571411,
				"y": -1.0825728629,
				"z": -1.4875448115,
				"element": "C" 
			},
			{
				"x": 0.6707845743,
				"y": -0.5843756499,
				"z": -0.544456702,
				"element": "C" 
			},
			{
				"x": 0.0981446904,
				"y": 0.6285921934,
				"z": -0.776605447,
				"element": "O" 
			},
			{
				"x": -1.1574304612,
				"y": 0.8947110225,
				"z": -0.1285478804,
				"element": "C" 
			},
			{
				"x": -1.1622792532,
				"y": 0.4693871732,
				"z": 3.7371593857,
				"element": "H" 
			},
			{
				"x": -0.4887292938,
				"y": -1.1106513499,
				"z": 2.6267906054,
				"element": "H" 
			},
			{
				"x": 0.8923615036,
				"y": -3.0552631064,
				"z": 1.7919852229,
				"element": "H" 
			},
			{
				"x": 2.4583134277,
				"y": -3.9731985296,
				"z": 0.0928578973,
				"element": "H" 
			},
			{
				"x": 2.8980220875,
				"y": -2.6911037476,
				"z": -1.9937810647,
				"element": "H" 
			},
			{
				"x": 1.7522848843,
				"y": -0.5099587827,
				"z": -2.3906790108,
				"element": "H" 
			},
			{
				"x": -1.9684584031,
				"y": 0.4119777661,
				"z": -0.6960896611,
				"element": "H" 
			},
			{
				"x": -1.3070687849,
				"y": 1.972850848,
				"z": -0.1916445542,
				"element": "H" 
			}
		],
		 "valence_orbital": [ 
			{
				"type": "occ",
				"energy": -0.31832,
				"method": "rhf"
			},
			{
				"type": "occ",
				"energy": -0.31485,
				"method": "rhf"
			},
			{
				"type": "occ",
				"energy": -0.27717,
				"method": "rhf"
			},
			{
				"type": "occ",
				"energy": -0.25422,
				"method": "rhf"
			},
			{
				"type": "occ",
				"energy": -0.22513,
				"method": "rhf"
			},
			{
				"type": "unocc",
				"energy": -0.07476,
				"method": "rhf"
			},
			{
				"type": "unocc",
				"energy": -0.00838,
				"method": "rhf"
			},
			{
				"type": "unocc",
				"energy": 0.01116,
				"method": "rhf"
			},
			{
				"type": "unocc",
				"energy": 0.05454,
				"method": "rhf"
			},
			{
				"type": "unocc",
				"energy": 0.06801,
				"method": "rhf"
			}
		],
		"cosmo_sigma_profile": { 
			"-0.025": 0.0,
			"-0.024": 0.0,
			"-0.023": 0.0,
			"-0.022": 0.0,
			"-0.021": 0.0,
			"-0.02": 0.0,
			"-0.019": 0.445406187188,
			"-0.018": 1.09225451176,
			"-0.017": 0.96358459393,
			"-0.016": 0.965654152568,
			"-0.015": 0.840796405997,
			"-0.014": 0.739221172906,
			"-0.013": 1.13043114678,
			"-0.012": 1.37439472282,
			"-0.011": 1.34279659803,
			"-0.01": 0.862003945865,
			"-0.009": 2.00450872662,
			"-0.008": 2.77405266666,
			"-0.007": 5.16245312347,
			"-0.006": 11.5678601345,
			"-0.005": 15.1371979752,
			"-0.004": 15.1512244963,
			"-0.003": 12.8716562372,
			"-0.002": 12.2932282463,
			"-0.001": 9.52516601272,
			"0.0": 11.6914271597,
			"0.001": 13.1723883439,
			"0.002": 13.0508088089,
			"0.003": 14.3555875994,
			"0.004": 12.5974045954,
			"0.005": 7.64031471313,
			"0.006": 3.70686651896,
			"0.007": 3.737204251,
			"0.008": 4.33515492473,
			"0.009": 3.70612708717,
			"0.01": 5.93783164438,
			"0.011": 5.12355839469,
			"0.012": 5.05938142276,
			"0.013": 1.77534718213,
			"0.014": 0.189762031928,
			"0.015": 0.0,
			"0.016": 0.0,
			"0.017": 0.0,
			"0.018": 0.0,
			"0.019": 0.0,
			"0.02": 0.0,
			"0.021": 0.0,
			"0.022": 0.0,
			"0.023": 0.0,
			"0.024": 0.0,
			"0.025": 0.0
		}
	}
}
