{
	 "smiles": "NC(=O)C1=CC(=CC=C1)C(O)=O", 
	 "Tm": 553.15, 
	 "num_atms": 19, 
	 "gaussian": { 
		 "optdone": 1, 
		 "sigma_profile": "yes", 
		 "theory": "DFT", 
		 "functional": "B3LYP", 
		 "basiset": "6-31G**", 
		 "properties": { 
			 "R2extent": 2695.9494, 
			 "electric_dipole_moment_norm": 3.89951690341, 
			 "electric_quadrupole_moment_norm": 25.4587100001, 
			 "total_energy": -589.517916884, 
			 "HOMO_LUMO_gap": 0.19988, 
			 "cosmo_polarized_energy": -22.95, 
			 "cosmo_cavitation_energy": 24.21, 
			 "cosmo_dispersion_energy": -17.8, 
			 "cosmo_repulsion_energy": 1.42, 
			 "cosmo_total_nonelectrostatic_energy": 7.83, 
			 "SMD_solvation_energy": 6.16 
		},
		"coords": [
			{
				"x": 1.1037224592,
				"y": 3.1660806547,
				"z": -0.2364319128,
				"element": "N" 
			},
			{
				"x": 1.7801799265,
				"y": 2.0314233611,
				"z": -0.6204583595,
				"element": "C" 
			},
			{
				"x": 2.5724061709,
				"y": 2.0340011285,
				"z": -1.5526915814,
				"element": "O" 
			},
			{
				"x": 1.4697700082,
				"y": 0.7757475042,
				"z": 0.1486696073,
				"element": "C" 
			},
			{
				"x": 0.3087667731,
				"y": 0.6077804293,
				"z": 0.913220872,
				"element": "C" 
			},
			{
				"x": 0.0659016468,
				"y": -0.5981832022,
				"z": 1.5844070739,
				"element": "C" 
			},
			{
				"x": 0.9895387388,
				"y": -1.6464076011,
				"z": 1.4725296282,
				"element": "C" 
			},
			{
				"x": 2.1460601658,
				"y": -1.4836141056,
				"z": 0.7132812683,
				"element": "C" 
			},
			{
				"x": 2.3829363113,
				"y": -0.2814488219,
				"z": 0.0487044378,
				"element": "C" 
			},
			{
				"x": -1.1738727594,
				"y": -0.8525466048,
				"z": 2.3915686652,
				"element": "C" 
			},
			{
				"x": -1.8669468865,
				"y": 0.2386532174,
				"z": 2.8162892892,
				"element": "O" 
			},
			{
				"x": -1.565460992,
				"y": -1.9607182242,
				"z": 2.6699667803,
				"element": "O" 
			},
			{
				"x": 0.7588669188,
				"y": 3.2582187229,
				"z": 0.7063378594,
				"element": "H" 
			},
			{
				"x": 1.4055398451,
				"y": 4.0169869781,
				"z": -0.6901752086,
				"element": "H" 
			},
			{
				"x": -0.4401940884,
				"y": 1.396345447,
				"z": 0.9157800737,
				"element": "H" 
			},
			{
				"x": 0.7734566874,
				"y": -2.5789866517,
				"z": 1.9824208349,
				"element": "H" 
			},
			{
				"x": 2.8591924396,
				"y": -2.2980686709,
				"z": 0.6312459662,
				"element": "H" 
			},
			{
				"x": 3.2649643723,
				"y": -0.1379109447,
				"z": -0.5661326963,
				"element": "H" 
			},
			{
				"x": -1.3516277375,
				"y": 1.042347384,
				"z": 2.6652674023,
				"element": "H" 
			}
		],
		 "valence_orbital": [ 
			{
				"type": "occ",
				"energy": -0.29078,
				"method": "rhf"
			},
			{
				"type": "occ",
				"energy": -0.28405,
				"method": "rhf"
			},
			{
				"type": "occ",
				"energy": -0.28224,
				"method": "rhf"
			},
			{
				"type": "occ",
				"energy": -0.27694,
				"method": "rhf"
			},
			{
				"type": "occ",
				"energy": -0.26272,
				"method": "rhf"
			},
			{
				"type": "unocc",
				"energy": -0.06284,
				"method": "rhf"
			},
			{
				"type": "unocc",
				"energy": -0.05424,
				"method": "rhf"
			},
			{
				"type": "unocc",
				"energy": 0.02262,
				"method": "rhf"
			},
			{
				"type": "unocc",
				"energy": 0.03999,
				"method": "rhf"
			},
			{
				"type": "unocc",
				"energy": 0.05768,
				"method": "rhf"
			}
		],
		"cosmo_sigma_profile": { 
			"-0.025": 0.0,
			"-0.024": 0.0,
			"-0.023": 0.0,
			"-0.022": 0.0,
			"-0.021": 0.0,
			"-0.02": 0.0,
			"-0.019": 0.634121161563,
			"-0.018": 1.13649308345,
			"-0.017": 1.11926688652,
			"-0.016": 1.14686933948,
			"-0.015": 1.8732213548,
			"-0.014": 3.47635705497,
			"-0.013": 2.96507316794,
			"-0.012": 3.89797871187,
			"-0.011": 3.35208073854,
			"-0.01": 3.28471441671,
			"-0.009": 2.85858534314,
			"-0.008": 3.37319215061,
			"-0.007": 5.9059382432,
			"-0.006": 9.00872112328,
			"-0.005": 7.2467097772,
			"-0.004": 9.49349180746,
			"-0.003": 8.49102377099,
			"-0.002": 9.41538161737,
			"-0.001": 10.9990734497,
			"0.0": 11.3534561826,
			"0.001": 13.4261462271,
			"0.002": 16.3916359424,
			"0.003": 8.14392739923,
			"0.004": 3.70977758294,
			"0.005": 4.29533998357,
			"0.006": 3.71841875179,
			"0.007": 5.09801556887,
			"0.008": 4.68875524569,
			"0.009": 4.8545240261,
			"0.01": 6.42960721551,
			"0.011": 6.8889447668,
			"0.012": 6.56086579226,
			"0.013": 6.32164631288,
			"0.014": 2.03759356347,
			"0.015": 0.0190553999617,
			"0.016": 0.0,
			"0.017": 0.0,
			"0.018": 0.0,
			"0.019": 0.0,
			"0.02": 0.0,
			"0.021": 0.0,
			"0.022": 0.0,
			"0.023": 0.0,
			"0.024": 0.0,
			"0.025": 0.0
		}
	}
}
