{
	 "smiles": "CCOC1=C(N)C=C(C=C1)S(=O)(=O)N1CCCCC1", 
	 "Tm": 408.15, 
	 "num_atms": 39, 
	 "gaussian": { 
		 "optdone": 1, 
		 "sigma_profile": "yes", 
		 "theory": "DFT", 
		 "functional": "B3LYP", 
		 "basiset": "6-31G**", 
		 "properties": { 
			 "R2extent": 8258.6933, 
			 "electric_dipole_moment_norm": 6.52778701705, 
			 "electric_quadrupole_moment_norm": 26.5341315111, 
			 "total_energy": -1240.73162995, 
			 "HOMO_LUMO_gap": 0.18855, 
			 "cosmo_polarized_energy": -17.93, 
			 "cosmo_cavitation_energy": 41.15, 
			 "cosmo_dispersion_energy": -29.84, 
			 "cosmo_repulsion_energy": 2.3, 
			 "cosmo_total_nonelectrostatic_energy": 13.61, 
			 "SMD_solvation_energy": 4.95 
		},
		"coords": [
			{
				"x": 2.8317193891,
				"y": -5.8385292533,
				"z": -0.3198893932,
				"element": "C" 
			},
			{
				"x": 2.9269072357,
				"y": -4.3448513528,
				"z": -0.0647157631,
				"element": "C" 
			},
			{
				"x": 2.0417598079,
				"y": -3.6921071887,
				"z": -0.9766485668,
				"element": "O" 
			},
			{
				"x": 1.953584261,
				"y": -2.3281801957,
				"z": -0.950200827,
				"element": "C" 
			},
			{
				"x": 1.0545772191,
				"y": -1.7869910532,
				"z": -1.9096850591,
				"element": "C" 
			},
			{
				"x": 0.4294257624,
				"y": -2.6461584941,
				"z": -2.8048177155,
				"element": "N" 
			},
			{
				"x": 0.8804167128,
				"y": -0.4045489362,
				"z": -1.9495005243,
				"element": "C" 
			},
			{
				"x": 1.5862660524,
				"y": 0.4169410839,
				"z": -1.0629828015,
				"element": "C" 
			},
			{
				"x": 2.4762749718,
				"y": -0.1077871972,
				"z": -0.1338188387,
				"element": "C" 
			},
			{
				"x": 2.6537312065,
				"y": -1.4960747152,
				"z": -0.0807933494,
				"element": "C" 
			},
			{
				"x": 1.3471467961,
				"y": 2.1877316395,
				"z": -1.154711499,
				"element": "S" 
			},
			{
				"x": 2.3849740475,
				"y": 2.8135974387,
				"z": -0.3192898104,
				"element": "O" 
			},
			{
				"x": 1.2010118557,
				"y": 2.5737462103,
				"z": -2.5644752568,
				"element": "O" 
			},
			{
				"x": -0.184066852,
				"y": 2.3759273915,
				"z": -0.4461785682,
				"element": "N" 
			},
			{
				"x": -0.1831711764,
				"y": 2.277316411,
				"z": 1.0322235429,
				"element": "C" 
			},
			{
				"x": -1.5670394656,
				"y": 2.6532336875,
				"z": 1.5653402952,
				"element": "C" 
			},
			{
				"x": -1.9091800212,
				"y": 4.1288040476,
				"z": 1.2576462549,
				"element": "C" 
			},
			{
				"x": -1.2697696925,
				"y": 4.5904442695,
				"z": -0.0743239265,
				"element": "C" 
			},
			{
				"x": -1.0740237964,
				"y": 3.4106112177,
				"z": -1.0305911907,
				"element": "C" 
			},
			{
				"x": 3.4994614234,
				"y": -6.3776450611,
				"z": 0.3588107262,
				"element": "H" 
			},
			{
				"x": 1.8109215298,
				"y": -6.195361327,
				"z": -0.1555253894,
				"element": "H" 
			},
			{
				"x": 3.1198330875,
				"y": -6.0734098992,
				"z": -1.3482885051,
				"element": "H" 
			},
			{
				"x": 2.6397275959,
				"y": -4.1023692404,
				"z": 0.9679495388,
				"element": "H" 
			},
			{
				"x": 3.9517223475,
				"y": -3.9830460964,
				"z": -0.2242378465,
				"element": "H" 
			},
			{
				"x": 0.391291959,
				"y": -3.6094490019,
				"z": -2.5039818033,
				"element": "H" 
			},
			{
				"x": -0.4339521588,
				"y": -2.3089898392,
				"z": -3.2047972351,
				"element": "H" 
			},
			{
				"x": 0.2131985248,
				"y": 0.0373282361,
				"z": -2.6826166526,
				"element": "H" 
			},
			{
				"x": 3.0284160587,
				"y": 0.5528388412,
				"z": 0.5235435829,
				"element": "H" 
			},
			{
				"x": 3.3432529737,
				"y": -1.9150397538,
				"z": 0.6421477916,
				"element": "H" 
			},
			{
				"x": 0.579913534,
				"y": 2.935227898,
				"z": 1.4700500174,
				"element": "H" 
			},
			{
				"x": 0.0732501789,
				"y": 1.2486256228,
				"z": 1.3081135765,
				"element": "H" 
			},
			{
				"x": -2.3101274052,
				"y": 1.9861395194,
				"z": 1.1128439615,
				"element": "H" 
			},
			{
				"x": -1.5959190882,
				"y": 2.4659857401,
				"z": 2.6439253895,
				"element": "H" 
			},
			{
				"x": -1.559263751,
				"y": 4.7719686981,
				"z": 2.0728802943,
				"element": "H" 
			},
			{
				"x": -2.9981117973,
				"y": 4.2454514136,
				"z": 1.2172672899,
				"element": "H" 
			},
			{
				"x": -1.8889712325,
				"y": 5.3540889629,
				"z": -0.5580376076,
				"element": "H" 
			},
			{
				"x": -0.2928843285,
				"y": 5.0511148128,
				"z": 0.1117914205,
				"element": "H" 
			},
			{
				"x": -2.0413500987,
				"y": 2.9409058495,
				"z": -1.2536141227,
				"element": "H" 
			},
			{
				"x": -0.6463536668,
				"y": 3.7291096137,
				"z": -1.9816114296,
				"element": "H" 
			}
		],
		 "valence_orbital": [ 
			{
				"type": "occ",
				"energy": -0.28896,
				"method": "rhf"
			},
			{
				"type": "occ",
				"energy": -0.2823,
				"method": "rhf"
			},
			{
				"type": "occ",
				"energy": -0.24776,
				"method": "rhf"
			},
			{
				"type": "occ",
				"energy": -0.22729,
				"method": "rhf"
			},
			{
				"type": "occ",
				"energy": -0.20239,
				"method": "rhf"
			},
			{
				"type": "unocc",
				"energy": -0.01384,
				"method": "rhf"
			},
			{
				"type": "unocc",
				"energy": 0.00486,
				"method": "rhf"
			},
			{
				"type": "unocc",
				"energy": 0.07186,
				"method": "rhf"
			},
			{
				"type": "unocc",
				"energy": 0.07797,
				"method": "rhf"
			},
			{
				"type": "unocc",
				"energy": 0.08352,
				"method": "rhf"
			}
		],
		"cosmo_sigma_profile": { 
			"-0.025": 0.0,
			"-0.024": 0.0,
			"-0.023": 0.0,
			"-0.022": 0.0,
			"-0.021": 0.0,
			"-0.02": 0.0,
			"-0.019": 0.0,
			"-0.018": 0.0,
			"-0.017": 0.0,
			"-0.016": 0.0,
			"-0.015": 0.0,
			"-0.014": 0.0,
			"-0.013": 1.0704859325,
			"-0.012": 1.11238340084,
			"-0.011": 2.25451238965,
			"-0.01": 2.5798091057,
			"-0.009": 2.83851763308,
			"-0.008": 2.54461807591,
			"-0.007": 3.98450551198,
			"-0.006": 7.25159413872,
			"-0.005": 12.2972950282,
			"-0.004": 25.6171832822,
			"-0.003": 41.9188065457,
			"-0.002": 46.2868222675,
			"-0.001": 30.4839332879,
			"0.0": 27.8274252599,
			"0.001": 16.6162569321,
			"0.002": 13.7244102973,
			"0.003": 15.7846299633,
			"0.004": 16.5428845166,
			"0.005": 7.74165591254,
			"0.006": 6.22193426755,
			"0.007": 4.82954743935,
			"0.008": 4.79605565509,
			"0.009": 4.64157244458,
			"0.01": 6.02699380554,
			"0.011": 8.20107493367,
			"0.012": 7.12684691945,
			"0.013": 1.77544325045,
			"0.014": 0.175818139946,
			"0.015": 0.0,
			"0.016": 0.0,
			"0.017": 0.0,
			"0.018": 0.0,
			"0.019": 0.0,
			"0.02": 0.0,
			"0.021": 0.0,
			"0.022": 0.0,
			"0.023": 0.0,
			"0.024": 0.0,
			"0.025": 0.0
		}
	}
}
