{
	 "smiles": "CC(C)(C)SC1=CN=C(C=C1)C(N)=S", 
	 "Tm": 403.15, 
	 "num_atms": 28, 
	 "gaussian": { 
		 "optdone": 1, 
		 "sigma_profile": "yes", 
		 "theory": "DFT", 
		 "functional": "B3LYP", 
		 "basiset": "6-31G**", 
		 "properties": { 
			 "R2extent": 5345.6489, 
			 "electric_dipole_moment_norm": 4.77356813924, 
			 "electric_quadrupole_moment_norm": 34.2386009714, 
			 "total_energy": -1295.38902286, 
			 "HOMO_LUMO_gap": 0.13928, 
			 "cosmo_polarized_energy": -20.99, 
			 "cosmo_cavitation_energy": 34.14, 
			 "cosmo_dispersion_energy": -24.57, 
			 "cosmo_repulsion_energy": 1.87, 
			 "cosmo_total_nonelectrostatic_energy": 11.44, 
			 "SMD_solvation_energy": 3.15 
		},
		"coords": [
			{
				"x": -0.3061480888,
				"y": 2.5972685199,
				"z": 0.8432028727,
				"element": "C" 
			},
			{
				"x": 0.2767919137,
				"y": 2.3127657654,
				"z": -0.5453235298,
				"element": "C" 
			},
			{
				"x": -0.8045066209,
				"y": 1.789786135,
				"z": -1.4972925203,
				"element": "C" 
			},
			{
				"x": 0.9412629627,
				"y": 3.5727674516,
				"z": -1.1213948745,
				"element": "C" 
			},
			{
				"x": 1.7072560296,
				"y": 1.0805539092,
				"z": -0.4272601055,
				"element": "S" 
			},
			{
				"x": 0.955641412,
				"y": -0.4014142287,
				"z": 0.2323764037,
				"element": "C" 
			},
			{
				"x": 0.8913533197,
				"y": -0.6251438698,
				"z": 1.6201789951,
				"element": "C" 
			},
			{
				"x": 0.3777013475,
				"y": -1.7199672562,
				"z": 2.1785438473,
				"element": "N" 
			},
			{
				"x": -0.0841475772,
				"y": -2.6840001435,
				"z": 1.3680064574,
				"element": "C" 
			},
			{
				"x": -0.0425282928,
				"y": -2.5776373027,
				"z": -0.0305699769,
				"element": "C" 
			},
			{
				"x": 0.4775458082,
				"y": -1.4178653294,
				"z": -0.6016234228,
				"element": "C" 
			},
			{
				"x": -0.6819789118,
				"y": -3.8993412654,
				"z": 2.0154941479,
				"element": "C" 
			},
			{
				"x": -0.3261171486,
				"y": -5.0676339662,
				"z": 1.4287964822,
				"element": "N" 
			},
			{
				"x": -1.747430032,
				"y": -3.8099234789,
				"z": 3.2811302131,
				"element": "S" 
			},
			{
				"x": -1.100480024,
				"y": 3.3495645879,
				"z": 0.7616940894,
				"element": "H" 
			},
			{
				"x": 0.4587421275,
				"y": 2.9808162236,
				"z": 1.5241523931,
				"element": "H" 
			},
			{
				"x": -0.746514296,
				"y": 1.7005976738,
				"z": 1.2884671734,
				"element": "H" 
			},
			{
				"x": -1.6030212851,
				"y": 2.5358306375,
				"z": -1.5936590048,
				"element": "H" 
			},
			{
				"x": -0.3967632032,
				"y": 1.5956821855,
				"z": -2.4935259379,
				"element": "H" 
			},
			{
				"x": -1.2587755474,
				"y": 0.8679202006,
				"z": -1.1226528544,
				"element": "H" 
			},
			{
				"x": 0.1888137624,
				"y": 4.3619014162,
				"z": -1.2310450588,
				"element": "H" 
			},
			{
				"x": 1.7294361562,
				"y": 3.9473205545,
				"z": -0.4611772448,
				"element": "H" 
			},
			{
				"x": 1.3769716694,
				"y": 3.3818840488,
				"z": -2.1069326823,
				"element": "H" 
			},
			{
				"x": 1.283121854,
				"y": 0.1267112666,
				"z": 2.3019132652,
				"element": "H" 
			},
			{
				"x": -0.4391229168,
				"y": -3.3720323205,
				"z": -0.6548472627,
				"element": "H" 
			},
			{
				"x": 0.515847746,
				"y": -1.2985478727,
				"z": -1.6797413039,
				"element": "H" 
			},
			{
				"x": 0.4716717053,
				"y": -5.1180393268,
				"z": 0.8115234202,
				"element": "H" 
			},
			{
				"x": -0.6779238694,
				"y": -5.9258242151,
				"z": 1.8291660188,
				"element": "H" 
			}
		],
		 "valence_orbital": [ 
			{
				"type": "occ",
				"energy": -0.26964,
				"method": "rhf"
			},
			{
				"type": "occ",
				"energy": -0.26858,
				"method": "rhf"
			},
			{
				"type": "occ",
				"energy": -0.23462,
				"method": "rhf"
			},
			{
				"type": "occ",
				"energy": -0.23203,
				"method": "rhf"
			},
			{
				"type": "occ",
				"energy": -0.20734,
				"method": "rhf"
			},
			{
				"type": "unocc",
				"energy": -0.06806,
				"method": "rhf"
			},
			{
				"type": "unocc",
				"energy": -0.03664,
				"method": "rhf"
			},
			{
				"type": "unocc",
				"energy": -0.00782,
				"method": "rhf"
			},
			{
				"type": "unocc",
				"energy": 0.04324,
				"method": "rhf"
			},
			{
				"type": "unocc",
				"energy": 0.05704,
				"method": "rhf"
			}
		],
		"cosmo_sigma_profile": { 
			"-0.025": 0.0,
			"-0.024": 0.0,
			"-0.023": 0.0,
			"-0.022": 0.0,
			"-0.021": 0.0,
			"-0.02": 0.0,
			"-0.019": 0.0,
			"-0.018": 0.0,
			"-0.017": 0.0,
			"-0.016": 0.661002393491,
			"-0.015": 2.38329218688,
			"-0.014": 2.32681744993,
			"-0.013": 3.04933518738,
			"-0.012": 1.7270504192,
			"-0.011": 3.11686148568,
			"-0.01": 2.17227710782,
			"-0.009": 2.10262261858,
			"-0.008": 4.49537901864,
			"-0.007": 5.77364724085,
			"-0.006": 5.74578824743,
			"-0.005": 5.69130526282,
			"-0.004": 16.0391483818,
			"-0.003": 26.0142727987,
			"-0.002": 28.4612365424,
			"-0.001": 28.1462898661,
			"0.0": 35.8270034205,
			"0.001": 20.2417906271,
			"0.002": 7.28266617311,
			"0.003": 7.69197629614,
			"0.004": 7.20122262467,
			"0.005": 7.43627881968,
			"0.006": 8.20363610518,
			"0.007": 7.31455499926,
			"0.008": 9.23866683945,
			"0.009": 7.90712073427,
			"0.01": 4.67672121476,
			"0.011": 3.70115394752,
			"0.012": 2.95065058895,
			"0.013": 1.47050434742,
			"0.014": 1.43129483787,
			"0.015": 1.55778709448,
			"0.016": 1.25340162641,
			"0.017": 0.254353567537,
			"0.018": 0.0,
			"0.019": 0.0,
			"0.02": 0.0,
			"0.021": 0.0,
			"0.022": 0.0,
			"0.023": 0.0,
			"0.024": 0.0,
			"0.025": 0.0
		}
	}
}
