{
	 "smiles": "O=C1NC(=NC2=C1C(=CS2)C1=CC=CC=C1)N1CCOCC1", 
	 "Tm": 581.15, 
	 "num_atms": 37, 
	 "gaussian": { 
		 "optdone": 1, 
		 "sigma_profile": "yes", 
		 "theory": "DFT", 
		 "functional": "B3LYP", 
		 "basiset": "6-31G**", 
		 "properties": { 
			 "R2extent": 9563.2211, 
			 "electric_dipole_moment_norm": 4.07875596966, 
			 "electric_quadrupole_moment_norm": 13.9909049643, 
			 "total_energy": -1331.63531863, 
			 "HOMO_LUMO_gap": 0.17106, 
			 "cosmo_polarized_energy": -18.9, 
			 "cosmo_cavitation_energy": 41.05, 
			 "cosmo_dispersion_energy": -30.88, 
			 "cosmo_repulsion_energy": 2.29, 
			 "cosmo_total_nonelectrostatic_energy": 12.46, 
			 "SMD_solvation_energy": 4.82 
		},
		"coords": [
			{
				"x": 0.7225809883,
				"y": 1.7746724359,
				"z": -1.3451609966,
				"element": "O" 
			},
			{
				"x": 0.4492808698,
				"y": 0.6945797527,
				"z": -0.8371995754,
				"element": "C" 
			},
			{
				"x": 1.3202659161,
				"y": -0.4026063495,
				"z": -1.0957579436,
				"element": "N" 
			},
			{
				"x": 1.1657065249,
				"y": -1.6800657665,
				"z": -0.6193463397,
				"element": "C" 
			},
			{
				"x": 0.1500012378,
				"y": -2.0143590313,
				"z": 0.148597688,
				"element": "N" 
			},
			{
				"x": -0.712718388,
				"y": -1.0113902383,
				"z": 0.4357786065,
				"element": "C" 
			},
			{
				"x": -0.6554463173,
				"y": 0.3249659984,
				"z": 0.0231797291,
				"element": "C" 
			},
			{
				"x": -1.777232018,
				"y": 1.1141966151,
				"z": 0.4951073094,
				"element": "C" 
			},
			{
				"x": -2.6283884023,
				"y": 0.3491291115,
				"z": 1.2476379303,
				"element": "C" 
			},
			{
				"x": -2.129611708,
				"y": -1.3145510216,
				"z": 1.4128054091,
				"element": "S" 
			},
			{
				"x": -2.0440842924,
				"y": 2.5532059961,
				"z": 0.2522163217,
				"element": "C" 
			},
			{
				"x": -1.034385554,
				"y": 3.5249861615,
				"z": 0.3454927599,
				"element": "C" 
			},
			{
				"x": -1.3340934266,
				"y": 4.8759527132,
				"z": 0.180771441,
				"element": "C" 
			},
			{
				"x": -2.643133167,
				"y": 5.285307837,
				"z": -0.0821492721,
				"element": "C" 
			},
			{
				"x": -3.6542537682,
				"y": 4.3290089419,
				"z": -0.1846536904,
				"element": "C" 
			},
			{
				"x": -3.3563389481,
				"y": 2.976764316,
				"z": -0.0209345021,
				"element": "C" 
			},
			{
				"x": 2.1045789907,
				"y": -2.6086094175,
				"z": -0.9688842158,
				"element": "N" 
			},
			{
				"x": 1.9965731136,
				"y": -3.9890304585,
				"z": -0.4982232359,
				"element": "C" 
			},
			{
				"x": 3.3433991115,
				"y": -4.4624705753,
				"z": 0.053428272,
				"element": "C" 
			},
			{
				"x": 4.457625912,
				"y": -4.0959042596,
				"z": -0.7719391926,
				"element": "O" 
			},
			{
				"x": 4.0984288858,
				"y": -3.5427173389,
				"z": -2.0207234644,
				"element": "C" 
			},
			{
				"x": 3.2366065977,
				"y": -2.2898048164,
				"z": -1.840306066,
				"element": "C" 
			},
			{
				"x": 2.098401759,
				"y": -0.1515888506,
				"z": -1.6905751542,
				"element": "H" 
			},
			{
				"x": -3.5202349656,
				"y": 0.6873520144,
				"z": 1.7558198574,
				"element": "H" 
			},
			{
				"x": -0.0134083871,
				"y": 3.2193249925,
				"z": 0.5364961397,
				"element": "H" 
			},
			{
				"x": -0.5392655553,
				"y": 5.6125180532,
				"z": 0.2580955682,
				"element": "H" 
			},
			{
				"x": -2.8710970821,
				"y": 6.3393546601,
				"z": -0.2133948172,
				"element": "H" 
			},
			{
				"x": -4.6745767059,
				"y": 4.6330263925,
				"z": -0.4015611788,
				"element": "H" 
			},
			{
				"x": -4.1419235117,
				"y": 2.2340916749,
				"z": -0.1256458991,
				"element": "H" 
			},
			{
				"x": 1.2347172795,
				"y": -4.0214419592,
				"z": 0.2801917546,
				"element": "H" 
			},
			{
				"x": 1.6573446727,
				"y": -4.6395148737,
				"z": -1.3151726778,
				"element": "H" 
			},
			{
				"x": 3.5192352251,
				"y": -4.0182164535,
				"z": 1.0399444741,
				"element": "H" 
			},
			{
				"x": 3.3211758856,
				"y": -5.5549947722,
				"z": 0.1705867798,
				"element": "H" 
			},
			{
				"x": 3.5796800996,
				"y": -4.2736455536,
				"z": -2.6598961777,
				"element": "H" 
			},
			{
				"x": 5.0306270797,
				"y": -3.2714265071,
				"z": -2.5228687748,
				"element": "H" 
			},
			{
				"x": 2.8963933184,
				"y": -1.9357016377,
				"z": -2.8258449961,
				"element": "H" 
			},
			{
				"x": 3.8541687298,
				"y": -1.5020977861,
				"z": -1.3860118708,
				"element": "H" 
			}
		],
		 "valence_orbital": [ 
			{
				"type": "occ",
				"energy": -0.26308,
				"method": "rhf"
			},
			{
				"type": "occ",
				"energy": -0.25778,
				"method": "rhf"
			},
			{
				"type": "occ",
				"energy": -0.23666,
				"method": "rhf"
			},
			{
				"type": "occ",
				"energy": -0.22667,
				"method": "rhf"
			},
			{
				"type": "occ",
				"energy": -0.19595,
				"method": "rhf"
			},
			{
				"type": "unocc",
				"energy": -0.02489,
				"method": "rhf"
			},
			{
				"type": "unocc",
				"energy": -0.01404,
				"method": "rhf"
			},
			{
				"type": "unocc",
				"energy": 0.01044,
				"method": "rhf"
			},
			{
				"type": "unocc",
				"energy": 0.01174,
				"method": "rhf"
			},
			{
				"type": "unocc",
				"energy": 0.03013,
				"method": "rhf"
			}
		],
		"cosmo_sigma_profile": { 
			"-0.025": 0.0,
			"-0.024": 0.0,
			"-0.023": 0.0,
			"-0.022": 0.0,
			"-0.021": 0.0,
			"-0.02": 0.0,
			"-0.019": 0.0,
			"-0.018": 0.0,
			"-0.017": 0.0,
			"-0.016": 0.0,
			"-0.015": 0.27586150772,
			"-0.014": 0.89047696665,
			"-0.013": 1.26971940429,
			"-0.012": 1.39875278933,
			"-0.011": 1.09019453961,
			"-0.01": 1.38430845202,
			"-0.009": 1.79749403712,
			"-0.008": 3.77345370286,
			"-0.007": 5.86818509247,
			"-0.006": 19.1858095528,
			"-0.005": 32.9333432788,
			"-0.004": 28.6711174663,
			"-0.003": 24.2053372378,
			"-0.002": 22.8817869566,
			"-0.001": 21.249540663,
			"0.0": 16.4817008749,
			"0.001": 19.142150543,
			"0.002": 24.7337194528,
			"0.003": 23.7772912693,
			"0.004": 19.9742772857,
			"0.005": 14.0584897835,
			"0.006": 11.7573901756,
			"0.007": 5.94417087909,
			"0.008": 5.03912758808,
			"0.009": 2.12888955353,
			"0.01": 4.04852799409,
			"0.011": 3.70685994164,
			"0.012": 3.34333210631,
			"0.013": 6.49803557926,
			"0.014": 1.9275823316,
			"0.015": 0.0,
			"0.016": 0.0,
			"0.017": 0.0,
			"0.018": 0.0,
			"0.019": 0.0,
			"0.02": 0.0,
			"0.021": 0.0,
			"0.022": 0.0,
			"0.023": 0.0,
			"0.024": 0.0,
			"0.025": 0.0
		}
	}
}
