{
	 "smiles": "CC12CCC3C(CCC4CCCCC34C)C1CCC21OCCO1", 
	 "Tm": 416.15, 
	 "num_atms": 57, 
	 "gaussian": { 
		 "optdone": 1, 
		 "sigma_profile": "yes", 
		 "theory": "DFT", 
		 "functional": "B3LYP", 
		 "basiset": "6-31G**", 
		 "properties": { 
			 "R2extent": 8542.9378, 
			 "electric_dipole_moment_norm": 1.04384571178, 
			 "electric_quadrupole_moment_norm": 10.210752084, 
			 "total_energy": -971.169950112, 
			 "HOMO_LUMO_gap": 0.30162, 
			 "cosmo_polarized_energy": -5.5, 
			 "cosmo_cavitation_energy": 46.14, 
			 "cosmo_dispersion_energy": -33.32, 
			 "cosmo_repulsion_energy": 2.43, 
			 "cosmo_total_nonelectrostatic_energy": 15.25, 
			 "SMD_solvation_energy": 5.98 
		},
		"coords": [
			{
				"x": 0.46980841,
				"y": -2.9923629777,
				"z": 1.1451871478,
				"element": "C" 
			},
			{
				"x": 0.1215283735,
				"y": -1.9200965037,
				"z": 0.1052648944,
				"element": "C" 
			},
			{
				"x": -1.302135618,
				"y": -1.3399704457,
				"z": 0.3986655251,
				"element": "C" 
			},
			{
				"x": -1.3862188367,
				"y": 0.1939403176,
				"z": 0.4154464972,
				"element": "C" 
			},
			{
				"x": -0.385220308,
				"y": 0.7892299697,
				"z": 1.424891919,
				"element": "C" 
			},
			{
				"x": 1.0767801136,
				"y": 0.2693573676,
				"z": 1.1535498039,
				"element": "C" 
			},
			{
				"x": 2.0921923327,
				"y": 1.40515061,
				"z": 0.9601867834,
				"element": "C" 
			},
			{
				"x": 2.0629816033,
				"y": 2.4059615999,
				"z": 2.1210886721,
				"element": "C" 
			},
			{
				"x": 0.631452973,
				"y": 2.8003823088,
				"z": 2.6020177136,
				"element": "C" 
			},
			{
				"x": 0.5418631978,
				"y": 4.3147344662,
				"z": 2.93030167,
				"element": "C" 
			},
			{
				"x": 0.1409215262,
				"y": 5.1983777817,
				"z": 1.7174441931,
				"element": "C" 
			},
			{
				"x": 0.3221660763,
				"y": 4.4720559738,
				"z": 0.3783648006,
				"element": "C" 
			},
			{
				"x": -0.4919816098,
				"y": 3.1631596042,
				"z": 0.3087781847,
				"element": "C" 
			},
			{
				"x": -0.5109903792,
				"y": 2.3391463669,
				"z": 1.642038912,
				"element": "C" 
			},
			{
				"x": -1.8594863643,
				"y": 2.6017213863,
				"z": 2.3584338016,
				"element": "C" 
			},
			{
				"x": 1.1882877089,
				"y": -0.787345897,
				"z": 0.0278020827,
				"element": "C" 
			},
			{
				"x": 1.1485214036,
				"y": -0.2623600858,
				"z": -1.4497861883,
				"element": "C" 
			},
			{
				"x": 0.2634989991,
				"y": -1.2511244812,
				"z": -2.2401584969,
				"element": "C" 
			},
			{
				"x": 0.1857650522,
				"y": -2.4918132978,
				"z": -1.340447747,
				"element": "C" 
			},
			{
				"x": 1.3848631308,
				"y": -3.2646546601,
				"z": -1.5398818488,
				"element": "O" 
			},
			{
				"x": 1.0174769119,
				"y": -4.6086400987,
				"z": -1.8298029564,
				"element": "C" 
			},
			{
				"x": -0.3988013965,
				"y": -4.4576473594,
				"z": -2.3785677121,
				"element": "C" 
			},
			{
				"x": -0.9005288658,
				"y": -3.3629335034,
				"z": -1.6204700139,
				"element": "O" 
			},
			{
				"x": 1.448070128,
				"y": -3.436661802,
				"z": 0.943106292,
				"element": "H" 
			},
			{
				"x": -0.2822890938,
				"y": -3.7891181037,
				"z": 1.139996201,
				"element": "H" 
			},
			{
				"x": 0.4887080352,
				"y": -2.5642573227,
				"z": 2.1531964638,
				"element": "H" 
			},
			{
				"x": -2.0255886462,
				"y": -1.7526228322,
				"z": -0.3107856029,
				"element": "H" 
			},
			{
				"x": -1.6197484858,
				"y": -1.6981539215,
				"z": 1.3861214603,
				"element": "H" 
			},
			{
				"x": -2.4088060426,
				"y": 0.4755324498,
				"z": 0.6883017088,
				"element": "H" 
			},
			{
				"x": -1.2235107181,
				"y": 0.6004217658,
				"z": -0.5880320517,
				"element": "H" 
			},
			{
				"x": -0.6738767966,
				"y": 0.3596505366,
				"z": 2.3958632737,
				"element": "H" 
			},
			{
				"x": 1.3886093604,
				"y": -0.2511873986,
				"z": 2.0703656332,
				"element": "H" 
			},
			{
				"x": 3.0996571064,
				"y": 0.9793991403,
				"z": 0.8659732759,
				"element": "H" 
			},
			{
				"x": 1.9011316602,
				"y": 1.9272871929,
				"z": 0.0172071637,
				"element": "H" 
			},
			{
				"x": 2.6275268563,
				"y": 3.3007647499,
				"z": 1.8357111547,
				"element": "H" 
			},
			{
				"x": 2.6043758067,
				"y": 1.9783488475,
				"z": 2.9749790143,
				"element": "H" 
			},
			{
				"x": 0.4571568414,
				"y": 2.2588417271,
				"z": 3.5413781731,
				"element": "H" 
			},
			{
				"x": -0.1718622974,
				"y": 4.4771961609,
				"z": 3.7450496189,
				"element": "H" 
			},
			{
				"x": 1.513948563,
				"y": 4.635553739,
				"z": 3.322932013,
				"element": "H" 
			},
			{
				"x": 0.7194797252,
				"y": 6.1290792035,
				"z": 1.7202662673,
				"element": "H" 
			},
			{
				"x": -0.9100984824,
				"y": 5.50087396,
				"z": 1.8087055446,
				"element": "H" 
			},
			{
				"x": 1.386190575,
				"y": 4.2587580424,
				"z": 0.2220481065,
				"element": "H" 
			},
			{
				"x": 0.0246665151,
				"y": 5.1288840115,
				"z": -0.4479415551,
				"element": "H" 
			},
			{
				"x": -1.5262929058,
				"y": 3.4075591134,
				"z": 0.0360623341,
				"element": "H" 
			},
			{
				"x": -0.1099651975,
				"y": 2.5582133299,
				"z": -0.5189824887,
				"element": "H" 
			},
			{
				"x": -1.8991511099,
				"y": 2.0902865244,
				"z": 3.3273589993,
				"element": "H" 
			},
			{
				"x": -2.704710709,
				"y": 2.249020492,
				"z": 1.7601859201,
				"element": "H" 
			},
			{
				"x": -2.0237759151,
				"y": 3.6672763471,
				"z": 2.5384725309,
				"element": "H" 
			},
			{
				"x": 2.1652140813,
				"y": -1.2684357346,
				"z": 0.1573491878,
				"element": "H" 
			},
			{
				"x": 0.7568216884,
				"y": 0.7554595531,
				"z": -1.5232646562,
				"element": "H" 
			},
			{
				"x": 2.1618183155,
				"y": -0.233229807,
				"z": -1.8602774742,
				"element": "H" 
			},
			{
				"x": 0.6620717868,
				"y": -1.5021397768,
				"z": -3.2262669647,
				"element": "H" 
			},
			{
				"x": -0.7499198548,
				"y": -0.8604346408,
				"z": -2.3748278638,
				"element": "H" 
			},
			{
				"x": 1.7296218057,
				"y": -5.0218976239,
				"z": -2.5506154466,
				"element": "H" 
			},
			{
				"x": 1.0283980321,
				"y": -5.225975587,
				"z": -0.9200944445,
				"element": "H" 
			},
			{
				"x": -1.0419050702,
				"y": -5.324302632,
				"z": -2.2040673137,
				"element": "H" 
			},
			{
				"x": -0.390609992,
				"y": -4.225458147,
				"z": -3.4538221128,
				"element": "H" 
			}
		],
		 "valence_orbital": [ 
			{
				"type": "occ",
				"energy": -0.27171,
				"method": "rhf"
			},
			{
				"type": "occ",
				"energy": -0.26649,
				"method": "rhf"
			},
			{
				"type": "occ",
				"energy": -0.26616,
				"method": "rhf"
			},
			{
				"type": "occ",
				"energy": -0.26159,
				"method": "rhf"
			},
			{
				"type": "occ",
				"energy": -0.23618,
				"method": "rhf"
			},
			{
				"type": "unocc",
				"energy": 0.06544,
				"method": "rhf"
			},
			{
				"type": "unocc",
				"energy": 0.07881,
				"method": "rhf"
			},
			{
				"type": "unocc",
				"energy": 0.08685,
				"method": "rhf"
			},
			{
				"type": "unocc",
				"energy": 0.09593,
				"method": "rhf"
			},
			{
				"type": "unocc",
				"energy": 0.09985,
				"method": "rhf"
			}
		],
		"cosmo_sigma_profile": { 
			"-0.025": 0.0,
			"-0.024": 0.0,
			"-0.023": 0.0,
			"-0.022": 0.0,
			"-0.021": 0.0,
			"-0.02": 0.0,
			"-0.019": 0.0,
			"-0.018": 0.0,
			"-0.017": 0.0,
			"-0.016": 0.0,
			"-0.015": 0.0,
			"-0.014": 0.0,
			"-0.013": 0.0,
			"-0.012": 0.000476148865861,
			"-0.011": 0.0724005776072,
			"-0.01": 0.0604892373495,
			"-0.009": 0.0309419600906,
			"-0.008": 0.00769224308689,
			"-0.007": 0.0,
			"-0.006": 2.41955218096,
			"-0.005": 7.30769670815,
			"-0.004": 14.5591263521,
			"-0.003": 19.5024627254,
			"-0.002": 40.9283416524,
			"-0.001": 73.9683489332,
			"0.0": 71.8385863528,
			"0.001": 56.3875611,
			"0.002": 34.2848748189,
			"0.003": 6.19866967342,
			"0.004": 3.38907492729,
			"0.005": 3.46810520486,
			"0.006": 2.91324370931,
			"0.007": 2.83179386309,
			"0.008": 2.80927922653,
			"0.009": 3.06322857487,
			"0.01": 1.73630745942,
			"0.011": 2.41178037857,
			"0.012": 1.57929243036,
			"0.013": 0.320503874297,
			"0.014": 0.0,
			"0.015": 0.0,
			"0.016": 0.0,
			"0.017": 0.0,
			"0.018": 0.0,
			"0.019": 0.0,
			"0.02": 0.0,
			"0.021": 0.0,
			"0.022": 0.0,
			"0.023": 0.0,
			"0.024": 0.0,
			"0.025": 0.0
		}
	}
}
