{
	 "smiles": "CC(Cl)C1=NN=C(O1)C1=CC(C)=CC=C1", 
	 "Tm": 290.15, 
	 "num_atms": 26, 
	 "gaussian": { 
		 "optdone": 1, 
		 "sigma_profile": "yes", 
		 "theory": "DFT", 
		 "functional": "B3LYP", 
		 "basiset": "6-31G**", 
		 "properties": { 
			 "R2extent": 4724.6442, 
			 "electric_dipole_moment_norm": 4.07124011697, 
			 "electric_quadrupole_moment_norm": 17.040442339, 
			 "total_energy": -1070.71099856, 
			 "HOMO_LUMO_gap": 0.18334, 
			 "cosmo_polarized_energy": -11.09, 
			 "cosmo_cavitation_energy": 32.5, 
			 "cosmo_dispersion_energy": -23.28, 
			 "cosmo_repulsion_energy": 1.85, 
			 "cosmo_total_nonelectrostatic_energy": 11.06, 
			 "SMD_solvation_energy": 3.55 
		},
		"coords": [
			{
				"x": 0.914137189,
				"y": -0.502150018,
				"z": 3.5910990599,
				"element": "C" 
			},
			{
				"x": 2.0655634799,
				"y": -0.5580124898,
				"z": 2.5921714154,
				"element": "C" 
			},
			{
				"x": 2.5753822286,
				"y": -2.3089546845,
				"z": 2.338576112,
				"element": "Cl" 
			},
			{
				"x": 1.7526570971,
				"y": 0.0630824717,
				"z": 1.2804068095,
				"element": "C" 
			},
			{
				"x": 2.4235368378,
				"y": 0.9861797864,
				"z": 0.665475079,
				"element": "N" 
			},
			{
				"x": 1.7298125584,
				"y": 1.2605919858,
				"z": -0.5076911018,
				"element": "N" 
			},
			{
				"x": 0.6874703036,
				"y": 0.4781862657,
				"z": -0.5173665509,
				"element": "C" 
			},
			{
				"x": 0.6348262429,
				"y": -0.311619637,
				"z": 0.5984623376,
				"element": "O" 
			},
			{
				"x": -0.3575176105,
				"y": 0.3677834144,
				"z": -1.5278557911,
				"element": "C" 
			},
			{
				"x": -1.4010117157,
				"y": -0.5604188855,
				"z": -1.3882577261,
				"element": "C" 
			},
			{
				"x": -2.4010536609,
				"y": -0.6674346461,
				"z": -2.3581020881,
				"element": "C" 
			},
			{
				"x": -3.5343265382,
				"y": -1.6541181818,
				"z": -2.2002513278,
				"element": "C" 
			},
			{
				"x": -2.3350239397,
				"y": 0.1740270923,
				"z": -3.478540464,
				"element": "C" 
			},
			{
				"x": -1.2996727401,
				"y": 1.0987923441,
				"z": -3.6237700527,
				"element": "C" 
			},
			{
				"x": -0.307010921,
				"y": 1.2030526384,
				"z": -2.6539136588,
				"element": "C" 
			},
			{
				"x": 1.2099531706,
				"y": -0.9655672362,
				"z": 4.5343559584,
				"element": "H" 
			},
			{
				"x": 0.0358032207,
				"y": -1.0220769126,
				"z": 3.2024450639,
				"element": "H" 
			},
			{
				"x": 0.6485511041,
				"y": 0.5433436444,
				"z": 3.7812936319,
				"element": "H" 
			},
			{
				"x": 2.9550113755,
				"y": -0.0563726606,
				"z": 2.9732868968,
				"element": "H" 
			},
			{
				"x": -1.4267794135,
				"y": -1.2057307117,
				"z": -0.5157204324,
				"element": "H" 
			},
			{
				"x": -3.3317295264,
				"y": -2.3717173851,
				"z": -1.4007217843,
				"element": "H" 
			},
			{
				"x": -4.4733257227,
				"y": -1.1426707104,
				"z": -1.9565891211,
				"element": "H" 
			},
			{
				"x": -3.7041853082,
				"y": -2.216851797,
				"z": -3.1240682053,
				"element": "H" 
			},
			{
				"x": -3.102257827,
				"y": 0.1013232932,
				"z": -4.2455014846,
				"element": "H" 
			},
			{
				"x": -1.2658501971,
				"y": 1.739636427,
				"z": -4.4998096698,
				"element": "H" 
			},
			{
				"x": 0.5056403128,
				"y": 1.9142965929,
				"z": -2.7523129053,
				"element": "H" 
			}
		],
		 "valence_orbital": [ 
			{
				"type": "occ",
				"energy": -0.305,
				"method": "rhf"
			},
			{
				"type": "occ",
				"energy": -0.3004,
				"method": "rhf"
			},
			{
				"type": "occ",
				"energy": -0.28138,
				"method": "rhf"
			},
			{
				"type": "occ",
				"energy": -0.25844,
				"method": "rhf"
			},
			{
				"type": "occ",
				"energy": -0.24135,
				"method": "rhf"
			},
			{
				"type": "unocc",
				"energy": -0.05801,
				"method": "rhf"
			},
			{
				"type": "unocc",
				"energy": -0.02121,
				"method": "rhf"
			},
			{
				"type": "unocc",
				"energy": -0.01015,
				"method": "rhf"
			},
			{
				"type": "unocc",
				"energy": 0.04183,
				"method": "rhf"
			},
			{
				"type": "unocc",
				"energy": 0.05592,
				"method": "rhf"
			}
		],
		"cosmo_sigma_profile": { 
			"-0.025": 0.0,
			"-0.024": 0.0,
			"-0.023": 0.0,
			"-0.022": 0.0,
			"-0.021": 0.0,
			"-0.02": 0.0,
			"-0.019": 0.0,
			"-0.018": 0.0,
			"-0.017": 0.0,
			"-0.016": 0.0,
			"-0.015": 0.0,
			"-0.014": 0.0,
			"-0.013": 0.0,
			"-0.012": 0.0,
			"-0.011": 0.0,
			"-0.01": 0.257196254019,
			"-0.009": 1.59176332066,
			"-0.008": 1.75240901657,
			"-0.007": 3.93539709102,
			"-0.006": 12.8213697005,
			"-0.005": 19.8760350479,
			"-0.004": 23.804048864,
			"-0.003": 19.6901967835,
			"-0.002": 27.0800601235,
			"-0.001": 23.5383503678,
			"0.0": 21.9239022719,
			"0.001": 18.0847696019,
			"0.002": 16.1198330748,
			"0.003": 16.7928463685,
			"0.004": 17.5525477013,
			"0.005": 11.3937724532,
			"0.006": 6.35900112249,
			"0.007": 1.80885288001,
			"0.008": 2.47236234371,
			"0.009": 1.64371564075,
			"0.01": 3.35651739041,
			"0.011": 2.82041938695,
			"0.012": 2.54950784827,
			"0.013": 2.8106659444,
			"0.014": 1.24029420102,
			"0.015": 0.233991887809,
			"0.016": 0.0,
			"0.017": 0.0,
			"0.018": 0.0,
			"0.019": 0.0,
			"0.02": 0.0,
			"0.021": 0.0,
			"0.022": 0.0,
			"0.023": 0.0,
			"0.024": 0.0,
			"0.025": 0.0
		}
	}
}
