{
	 "smiles": "CCCCCCCCCCCCCCCC1=CC=CC=C1", 
	 "Tm": 295.15, 
	 "num_atms": 57, 
	 "gaussian": { 
		 "optdone": 1, 
		 "sigma_profile": "yes", 
		 "theory": "DFT", 
		 "functional": "B3LYP", 
		 "basiset": "6-31G**", 
		 "properties": { 
			 "R2extent": 13537.7575, 
			 "electric_dipole_moment_norm": 0.177173530754, 
			 "electric_quadrupole_moment_norm": 4.95873418021, 
			 "total_energy": -821.976026773, 
			 "HOMO_LUMO_gap": 0.23769, 
			 "cosmo_polarized_energy": -3.62, 
			 "cosmo_cavitation_energy": 54.82, 
			 "cosmo_dispersion_energy": -36.26, 
			 "cosmo_repulsion_energy": 2.89, 
			 "cosmo_total_nonelectrostatic_energy": 21.45, 
			 "SMD_solvation_energy": 7.16 
		},
		"coords": [
			{
				"x": -1.0297795476,
				"y": -7.6730496265,
				"z": -0.5545436098,
				"element": "C" 
			},
			{
				"x": -0.7892886443,
				"y": -6.2012536037,
				"z": -0.1974179945,
				"element": "C" 
			},
			{
				"x": 0.0102416997,
				"y": -5.4154416066,
				"z": -1.251473278,
				"element": "C" 
			},
			{
				"x": -0.6425405076,
				"y": -5.2986273617,
				"z": -2.641016315,
				"element": "C" 
			},
			{
				"x": -2.008459859,
				"y": -4.5895047244,
				"z": -2.7295597656,
				"element": "C" 
			},
			{
				"x": -2.0205430039,
				"y": -3.0791529669,
				"z": -2.4047340379,
				"element": "C" 
			},
			{
				"x": -2.2510335976,
				"y": -2.7192596881,
				"z": -0.927040241,
				"element": "C" 
			},
			{
				"x": -2.3928550606,
				"y": -1.2112273215,
				"z": -0.6547484892,
				"element": "C" 
			},
			{
				"x": -1.1049035316,
				"y": -0.4006240128,
				"z": -0.8671455523,
				"element": "C" 
			},
			{
				"x": -1.2581162676,
				"y": 1.1125854117,
				"z": -0.6277602382,
				"element": "C" 
			},
			{
				"x": -1.6249179084,
				"y": 1.5385179176,
				"z": 0.8058155545,
				"element": "C" 
			},
			{
				"x": -0.6195582114,
				"y": 1.1973741217,
				"z": 1.9234518196,
				"element": "C" 
			},
			{
				"x": 0.7523617968,
				"y": 1.9030738219,
				"z": 1.8346575135,
				"element": "C" 
			},
			{
				"x": 1.8428816626,
				"y": 1.121275883,
				"z": 1.0872744081,
				"element": "C" 
			},
			{
				"x": 3.1999209253,
				"y": 1.8561158205,
				"z": 1.015600902,
				"element": "C" 
			},
			{
				"x": 3.1779716589,
				"y": 3.1124159311,
				"z": 0.1679662033,
				"element": "C" 
			},
			{
				"x": 3.1768459389,
				"y": 4.38690375,
				"z": 0.7499476307,
				"element": "C" 
			},
			{
				"x": 3.138014169,
				"y": 5.539328379,
				"z": -0.0383825167,
				"element": "C" 
			},
			{
				"x": 3.1003821264,
				"y": 5.4358334075,
				"z": -1.4291383457,
				"element": "C" 
			},
			{
				"x": 3.1041976501,
				"y": 4.1720375057,
				"z": -2.0244620745,
				"element": "C" 
			},
			{
				"x": 3.1435324415,
				"y": 3.0248429838,
				"z": -1.2322561891,
				"element": "C" 
			},
			{
				"x": -0.0832548371,
				"y": -8.1942477803,
				"z": -0.7408807501,
				"element": "H" 
			},
			{
				"x": -1.5421416548,
				"y": -8.1971725824,
				"z": 0.2590794487,
				"element": "H" 
			},
			{
				"x": -1.6472345939,
				"y": -7.7809198725,
				"z": -1.4523521486,
				"element": "H" 
			},
			{
				"x": -0.2452065877,
				"y": -6.1506679641,
				"z": 0.7546706746,
				"element": "H" 
			},
			{
				"x": -1.7528340498,
				"y": -5.7086719972,
				"z": -0.015923181,
				"element": "H" 
			},
			{
				"x": 0.2246652302,
				"y": -4.4126511276,
				"z": -0.8619906432,
				"element": "H" 
			},
			{
				"x": 0.9892938218,
				"y": -5.8991482132,
				"z": -1.3768936802,
				"element": "H" 
			},
			{
				"x": -0.7532225549,
				"y": -6.3045234118,
				"z": -3.0665494528,
				"element": "H" 
			},
			{
				"x": 0.0590141413,
				"y": -4.7751000126,
				"z": -3.3052278891,
				"element": "H" 
			},
			{
				"x": -2.7455759595,
				"y": -5.1043484056,
				"z": -2.0982875865,
				"element": "H" 
			},
			{
				"x": -2.3654072135,
				"y": -4.7200202662,
				"z": -3.7590968658,
				"element": "H" 
			},
			{
				"x": -2.821918605,
				"y": -2.6042142315,
				"z": -2.987471229,
				"element": "H" 
			},
			{
				"x": -1.0855317009,
				"y": -2.6296906498,
				"z": -2.7648885355,
				"element": "H" 
			},
			{
				"x": -1.4418255932,
				"y": -3.1192197633,
				"z": -0.3033945843,
				"element": "H" 
			},
			{
				"x": -3.1676300151,
				"y": -3.2228993486,
				"z": -0.5903585179,
				"element": "H" 
			},
			{
				"x": -2.738933331,
				"y": -1.078516753,
				"z": 0.3778749764,
				"element": "H" 
			},
			{
				"x": -3.1877427625,
				"y": -0.8010354507,
				"z": -1.2952138317,
				"element": "H" 
			},
			{
				"x": -0.3167353312,
				"y": -0.8066760887,
				"z": -0.2184138532,
				"element": "H" 
			},
			{
				"x": -0.7492110515,
				"y": -0.5455849052,
				"z": -1.8948734981,
				"element": "H" 
			},
			{
				"x": -2.0356829758,
				"y": 1.4937270138,
				"z": -1.3044651276,
				"element": "H" 
			},
			{
				"x": -0.3329673462,
				"y": 1.6182578172,
				"z": -0.93082199,
				"element": "H" 
			},
			{
				"x": -1.7800018583,
				"y": 2.6261202423,
				"z": 0.8074576807,
				"element": "H" 
			},
			{
				"x": -2.5963116783,
				"y": 1.1028739998,
				"z": 1.0731515514,
				"element": "H" 
			},
			{
				"x": -0.4707088577,
				"y": 0.1104627307,
				"z": 1.9825950009,
				"element": "H" 
			},
			{
				"x": -1.0924423729,
				"y": 1.4778460741,
				"z": 2.8730065811,
				"element": "H" 
			},
			{
				"x": 0.6249705769,
				"y": 2.8913740817,
				"z": 1.3739816696,
				"element": "H" 
			},
			{
				"x": 1.1195248764,
				"y": 2.0942654698,
				"z": 2.8523996145,
				"element": "H" 
			},
			{
				"x": 1.5151889578,
				"y": 0.8848828029,
				"z": 0.0685967684,
				"element": "H" 
			},
			{
				"x": 1.9964730162,
				"y": 0.1570807434,
				"z": 1.590705366,
				"element": "H" 
			},
			{
				"x": 3.5268222879,
				"y": 2.1070274489,
				"z": 2.0325558196,
				"element": "H" 
			},
			{
				"x": 3.9490834037,
				"y": 1.1634374072,
				"z": 0.6116151522,
				"element": "H" 
			},
			{
				"x": 3.2107646757,
				"y": 4.476786529,
				"z": 1.8330915683,
				"element": "H" 
			},
			{
				"x": 3.1397860498,
				"y": 6.5171682997,
				"z": 0.4355269087,
				"element": "H" 
			},
			{
				"x": 3.0726991273,
				"y": 6.3305007836,
				"z": -2.0445924314,
				"element": "H" 
			},
			{
				"x": 3.0820364737,
				"y": 4.0802957626,
				"z": -3.1070124785,
				"element": "H" 
			},
			{
				"x": 3.1549443631,
				"y": 2.0454375965,
				"z": -1.705635891,
				"element": "H" 
			}
		],
		 "valence_orbital": [ 
			{
				"type": "occ",
				"energy": -0.30043,
				"method": "rhf"
			},
			{
				"type": "occ",
				"energy": -0.2949,
				"method": "rhf"
			},
			{
				"type": "occ",
				"energy": -0.29179,
				"method": "rhf"
			},
			{
				"type": "occ",
				"energy": -0.2445,
				"method": "rhf"
			},
			{
				"type": "occ",
				"energy": -0.23565,
				"method": "rhf"
			},
			{
				"type": "unocc",
				"energy": 0.00204,
				"method": "rhf"
			},
			{
				"type": "unocc",
				"energy": 0.00523,
				"method": "rhf"
			},
			{
				"type": "unocc",
				"energy": 0.07903,
				"method": "rhf"
			},
			{
				"type": "unocc",
				"energy": 0.08307,
				"method": "rhf"
			},
			{
				"type": "unocc",
				"energy": 0.09359,
				"method": "rhf"
			}
		],
		"cosmo_sigma_profile": { 
			"-0.025": 0.0,
			"-0.024": 0.0,
			"-0.023": 0.0,
			"-0.022": 0.0,
			"-0.021": 0.0,
			"-0.02": 0.0,
			"-0.019": 0.0,
			"-0.018": 0.0,
			"-0.017": 0.0,
			"-0.016": 0.0,
			"-0.015": 0.0,
			"-0.014": 0.0,
			"-0.013": 0.0,
			"-0.012": 0.0,
			"-0.011": 0.0,
			"-0.01": 0.0,
			"-0.009": 0.0,
			"-0.008": 0.0,
			"-0.007": 0.0,
			"-0.006": 0.919721376686,
			"-0.005": 7.96800383575,
			"-0.004": 11.2777484646,
			"-0.003": 19.3684066403,
			"-0.002": 45.7255246277,
			"-0.001": 85.5474922529,
			"0.0": 98.7503978226,
			"0.001": 78.5295926453,
			"0.002": 38.9477194719,
			"0.003": 8.23294053542,
			"0.004": 7.46182903214,
			"0.005": 7.69922665366,
			"0.006": 7.72710372356,
			"0.007": 4.27135206709,
			"0.008": 0.0271189495319,
			"0.009": 0.0,
			"0.01": 0.0,
			"0.011": 0.0,
			"0.012": 0.0,
			"0.013": 0.0,
			"0.014": 0.0,
			"0.015": 0.0,
			"0.016": 0.0,
			"0.017": 0.0,
			"0.018": 0.0,
			"0.019": 0.0,
			"0.02": 0.0,
			"0.021": 0.0,
			"0.022": 0.0,
			"0.023": 0.0,
			"0.024": 0.0,
			"0.025": 0.0
		}
	}
}
