{
	 "smiles": "COC(=O)CC1=CSC2=C1C=C(Cl)C=C2", 
	 "Tm": 328.65, 
	 "num_atms": 24, 
	 "gaussian": { 
		 "optdone": 1, 
		 "sigma_profile": "yes", 
		 "theory": "DFT", 
		 "functional": "B3LYP", 
		 "basiset": "6-31G**", 
		 "properties": { 
			 "R2extent": 4701.1837, 
			 "electric_dipole_moment_norm": 0.657567677125, 
			 "electric_quadrupole_moment_norm": 12.5356972953, 
			 "total_energy": -1433.43368432, 
			 "HOMO_LUMO_gap": 0.18584, 
			 "cosmo_polarized_energy": -9.66, 
			 "cosmo_cavitation_energy": 32.0, 
			 "cosmo_dispersion_energy": -23.03, 
			 "cosmo_repulsion_energy": 1.77, 
			 "cosmo_total_nonelectrostatic_energy": 10.74, 
			 "SMD_solvation_energy": 6.27 
		},
		"coords": [
			{
				"x": -4.2651821619,
				"y": -0.0314189526,
				"z": -1.4730382114,
				"element": "C" 
			},
			{
				"x": -2.9521243253,
				"y": -0.5793204749,
				"z": -1.2528938605,
				"element": "O" 
			},
			{
				"x": -1.9712351949,
				"y": -0.0564372586,
				"z": -2.0226614291,
				"element": "C" 
			},
			{
				"x": -2.1559975218,
				"y": 0.7923110311,
				"z": -2.8646364716,
				"element": "O" 
			},
			{
				"x": -0.6142660956,
				"y": -0.6607172727,
				"z": -1.6763033548,
				"element": "C" 
			},
			{
				"x": 0.1853424461,
				"y": 0.2330310098,
				"z": -0.7568736904,
				"element": "C" 
			},
			{
				"x": 1.218032196,
				"y": 1.0159490788,
				"z": -1.1729173468,
				"element": "C" 
			},
			{
				"x": 1.9713679147,
				"y": 1.9387050471,
				"z": 0.1045192711,
				"element": "S" 
			},
			{
				"x": 0.859188987,
				"y": 1.2602440865,
				"z": 1.2798384971,
				"element": "C" 
			},
			{
				"x": -0.0494750071,
				"y": 0.3623330648,
				"z": 0.6677939268,
				"element": "C" 
			},
			{
				"x": -1.0217389592,
				"y": -0.2747773118,
				"z": 1.4619489266,
				"element": "C" 
			},
			{
				"x": -1.0488504936,
				"y": -0.0045448054,
				"z": 2.8212163662,
				"element": "C" 
			},
			{
				"x": -2.2597963971,
				"y": -0.7918252132,
				"z": 3.8285109179,
				"element": "Cl" 
			},
			{
				"x": -0.1439202864,
				"y": 0.8828906948,
				"z": 3.4275465618,
				"element": "C" 
			},
			{
				"x": 0.8162270569,
				"y": 1.5217710354,
				"z": 2.6526101643,
				"element": "C" 
			},
			{
				"x": -4.9227077217,
				"y": -0.556828855,
				"z": -0.7811510769,
				"element": "H" 
			},
			{
				"x": -4.5795583221,
				"y": -0.1975992987,
				"z": -2.5060721547,
				"element": "H" 
			},
			{
				"x": -4.2702084235,
				"y": 1.0419810834,
				"z": -1.2694772958,
				"element": "H" 
			},
			{
				"x": -0.7597462648,
				"y": -1.645352277,
				"z": -1.2219440227,
				"element": "H" 
			},
			{
				"x": -0.0760511483,
				"y": -0.7895174654,
				"z": -2.6182307787,
				"element": "H" 
			},
			{
				"x": 1.5947910821,
				"y": 1.1097280458,
				"z": -2.1829347553,
				"element": "H" 
			},
			{
				"x": -1.7472439641,
				"y": -0.9464653774,
				"z": 1.0186012917,
				"element": "H" 
			},
			{
				"x": -0.2023260625,
				"y": 1.0651260419,
				"z": 4.494494764,
				"element": "H" 
			},
			{
				"x": 1.5175786669,
				"y": 2.2107343434,
				"z": 3.1126537613,
				"element": "H" 
			}
		],
		 "valence_orbital": [ 
			{
				"type": "occ",
				"energy": -0.30865,
				"method": "rhf"
			},
			{
				"type": "occ",
				"energy": -0.29402,
				"method": "rhf"
			},
			{
				"type": "occ",
				"energy": -0.27501,
				"method": "rhf"
			},
			{
				"type": "occ",
				"energy": -0.23979,
				"method": "rhf"
			},
			{
				"type": "occ",
				"energy": -0.22486,
				"method": "rhf"
			},
			{
				"type": "unocc",
				"energy": -0.03902,
				"method": "rhf"
			},
			{
				"type": "unocc",
				"energy": -0.01457,
				"method": "rhf"
			},
			{
				"type": "unocc",
				"energy": 0.00059,
				"method": "rhf"
			},
			{
				"type": "unocc",
				"energy": 0.01325,
				"method": "rhf"
			},
			{
				"type": "unocc",
				"energy": 0.03417,
				"method": "rhf"
			}
		],
		"cosmo_sigma_profile": { 
			"-0.025": 0.0,
			"-0.024": 0.0,
			"-0.023": 0.0,
			"-0.022": 0.0,
			"-0.021": 0.0,
			"-0.02": 0.0,
			"-0.019": 0.0,
			"-0.018": 0.0,
			"-0.017": 0.0,
			"-0.016": 0.0,
			"-0.015": 0.0,
			"-0.014": 0.0,
			"-0.013": 0.0,
			"-0.012": 0.0,
			"-0.011": 0.0,
			"-0.01": 0.00663208229531,
			"-0.009": 1.58947204806,
			"-0.008": 4.3906160008,
			"-0.007": 9.93414677942,
			"-0.006": 15.5456291105,
			"-0.005": 18.1916200762,
			"-0.004": 19.2638539489,
			"-0.003": 19.05891332,
			"-0.002": 14.6706351434,
			"-0.001": 14.2809711771,
			"0.0": 14.136379005,
			"0.001": 20.8530011526,
			"0.002": 30.7660048339,
			"0.003": 28.9034175353,
			"0.004": 18.7786341652,
			"0.005": 12.6709018093,
			"0.006": 2.39485786189,
			"0.007": 1.95613307503,
			"0.008": 1.1690362818,
			"0.009": 1.77542647615,
			"0.01": 1.88542992451,
			"0.011": 3.74101969319,
			"0.012": 4.17357860564,
			"0.013": 0.590545256804,
			"0.014": 0.0,
			"0.015": 0.0,
			"0.016": 0.0,
			"0.017": 0.0,
			"0.018": 0.0,
			"0.019": 0.0,
			"0.02": 0.0,
			"0.021": 0.0,
			"0.022": 0.0,
			"0.023": 0.0,
			"0.024": 0.0,
			"0.025": 0.0
		}
	}
}
