{
	 "smiles": "ClCCC(=O)NC1=CC=C(C=C1)S(=O)(=O)N1CCCC1", 
	 "Tm": 448.15, 
	 "num_atms": 37, 
	 "gaussian": { 
		 "optdone": 1, 
		 "sigma_profile": "yes", 
		 "theory": "DFT", 
		 "functional": "B3LYP", 
		 "basiset": "6-31G**", 
		 "properties": { 
			 "R2extent": 11912.7754, 
			 "electric_dipole_moment_norm": 5.4773130137, 
			 "electric_quadrupole_moment_norm": 30.619245517, 
			 "total_energy": -1699.14031215, 
			 "HOMO_LUMO_gap": 0.19286, 
			 "cosmo_polarized_energy": -24.56, 
			 "cosmo_cavitation_energy": 42.71, 
			 "cosmo_dispersion_energy": -31.22, 
			 "cosmo_repulsion_energy": 2.39, 
			 "cosmo_total_nonelectrostatic_energy": 13.87, 
			 "SMD_solvation_energy": 4.97 
		},
		"coords": [
			{
				"x": -2.3335662743,
				"y": 6.794623181,
				"z": 3.4524746183,
				"element": "Cl" 
			},
			{
				"x": -1.330034796,
				"y": 5.2929787177,
				"z": 3.2804277858,
				"element": "C" 
			},
			{
				"x": -1.4398053974,
				"y": 4.7396591582,
				"z": 1.8662049885,
				"element": "C" 
			},
			{
				"x": -0.6026536002,
				"y": 3.467592567,
				"z": 1.7160830441,
				"element": "C" 
			},
			{
				"x": 0.0390498633,
				"y": 2.9965571193,
				"z": 2.6436694624,
				"element": "O" 
			},
			{
				"x": -0.6528147055,
				"y": 2.9234912287,
				"z": 0.4495453459,
				"element": "N" 
			},
			{
				"x": -0.0140810913,
				"y": 1.7710793677,
				"z": -0.0468159512,
				"element": "C" 
			},
			{
				"x": 0.8557928926,
				"y": 0.9814322308,
				"z": 0.7244509453,
				"element": "C" 
			},
			{
				"x": 1.4512672145,
				"y": -0.1401558966,
				"z": 0.1525558605,
				"element": "C" 
			},
			{
				"x": 1.1858615895,
				"y": -0.4858672224,
				"z": -1.1755385741,
				"element": "C" 
			},
			{
				"x": 0.330730804,
				"y": 0.3030975294,
				"z": -1.9506660088,
				"element": "C" 
			},
			{
				"x": -0.2644655538,
				"y": 1.4244632514,
				"z": -1.3857956429,
				"element": "C" 
			},
			{
				"x": 1.9178463328,
				"y": -1.9645488422,
				"z": -1.8825857621,
				"element": "S" 
			},
			{
				"x": 1.8500305538,
				"y": -1.8200047114,
				"z": -3.3388298618,
				"element": "O" 
			},
			{
				"x": 3.1733656396,
				"y": -2.2104357916,
				"z": -1.1697490012,
				"element": "O" 
			},
			{
				"x": 0.9070953091,
				"y": -3.2299685248,
				"z": -1.493251608,
				"element": "N" 
			},
			{
				"x": -0.4055367655,
				"y": -3.3709655897,
				"z": -2.1676985602,
				"element": "C" 
			},
			{
				"x": -1.243948328,
				"y": -4.192463617,
				"z": -1.1650162856,
				"element": "C" 
			},
			{
				"x": -0.2029066611,
				"y": -4.8529898274,
				"z": -0.2425715117,
				"element": "C" 
			},
			{
				"x": 0.882324248,
				"y": -3.7783342443,
				"z": -0.124908217,
				"element": "C" 
			},
			{
				"x": -1.6909527481,
				"y": 4.5793100911,
				"z": 4.0194778691,
				"element": "H" 
			},
			{
				"x": -0.3042838952,
				"y": 5.5627923163,
				"z": 3.5273354645,
				"element": "H" 
			},
			{
				"x": -2.4879740217,
				"y": 4.5208692319,
				"z": 1.6283762442,
				"element": "H" 
			},
			{
				"x": -1.1036620937,
				"y": 5.4905895171,
				"z": 1.1409629463,
				"element": "H" 
			},
			{
				"x": -1.2258665682,
				"y": 3.4161396956,
				"z": -0.2218529471,
				"element": "H" 
			},
			{
				"x": 1.0600943358,
				"y": 1.2585357908,
				"z": 1.748477419,
				"element": "H" 
			},
			{
				"x": 2.1501625225,
				"y": -0.7344193147,
				"z": 0.7311470772,
				"element": "H" 
			},
			{
				"x": 0.1632770168,
				"y": 0.0517138175,
				"z": -2.9920208256,
				"element": "H" 
			},
			{
				"x": -0.9221374674,
				"y": 2.0447270728,
				"z": -1.9905076888,
				"element": "H" 
			},
			{
				"x": -0.8660440247,
				"y": -2.3977596352,
				"z": -2.3745891145,
				"element": "H" 
			},
			{
				"x": -0.2660455716,
				"y": -3.8843110486,
				"z": -3.1232584615,
				"element": "H" 
			},
			{
				"x": -1.885204135,
				"y": -3.5239782532,
				"z": -0.5802105099,
				"element": "H" 
			},
			{
				"x": -1.8919262599,
				"y": -4.9154120459,
				"z": -1.6673174494,
				"element": "H" 
			},
			{
				"x": 0.215376773,
				"y": -5.7483289248,
				"z": -0.714279659,
				"element": "H" 
			},
			{
				"x": -0.6124115009,
				"y": -5.1388899072,
				"z": 0.7300040491,
				"element": "H" 
			},
			{
				"x": 1.8667600965,
				"y": -4.1675182541,
				"z": 0.1387273176,
				"element": "H" 
			},
			{
				"x": 0.5952862676,
				"y": -3.0167002331,
				"z": 0.6176432031,
				"element": "H" 
			}
		],
		 "valence_orbital": [ 
			{
				"type": "occ",
				"energy": -0.2945,
				"method": "rhf"
			},
			{
				"type": "occ",
				"energy": -0.27776,
				"method": "rhf"
			},
			{
				"type": "occ",
				"energy": -0.27501,
				"method": "rhf"
			},
			{
				"type": "occ",
				"energy": -0.25884,
				"method": "rhf"
			},
			{
				"type": "occ",
				"energy": -0.23772,
				"method": "rhf"
			},
			{
				"type": "unocc",
				"energy": -0.04486,
				"method": "rhf"
			},
			{
				"type": "unocc",
				"energy": -0.02627,
				"method": "rhf"
			},
			{
				"type": "unocc",
				"energy": 0.01056,
				"method": "rhf"
			},
			{
				"type": "unocc",
				"energy": 0.01588,
				"method": "rhf"
			},
			{
				"type": "unocc",
				"energy": 0.05071,
				"method": "rhf"
			}
		],
		"cosmo_sigma_profile": { 
			"-0.025": 0.0,
			"-0.024": 0.0,
			"-0.023": 0.0,
			"-0.022": 0.0,
			"-0.021": 0.0,
			"-0.02": 0.0,
			"-0.019": 0.0,
			"-0.018": 0.0,
			"-0.017": 0.00841316374017,
			"-0.016": 0.998843439335,
			"-0.015": 1.72481299382,
			"-0.014": 1.68899722108,
			"-0.013": 1.30568303894,
			"-0.012": 1.6233693661,
			"-0.011": 1.6986635475,
			"-0.01": 1.62913531842,
			"-0.009": 1.8795370915,
			"-0.008": 4.22239587792,
			"-0.007": 12.2528042007,
			"-0.006": 13.5306569369,
			"-0.005": 17.7598005365,
			"-0.004": 32.4609601395,
			"-0.003": 35.208585297,
			"-0.002": 30.4899379834,
			"-0.001": 21.0631368334,
			"0.0": 18.9292916636,
			"0.001": 18.0881895509,
			"0.002": 19.9492247088,
			"0.003": 19.3880175337,
			"0.004": 10.1067161581,
			"0.005": 11.6332935739,
			"0.006": 16.5403397665,
			"0.007": 8.02322314675,
			"0.008": 5.28605075871,
			"0.009": 4.88986668769,
			"0.01": 7.09156589278,
			"0.011": 10.6507600287,
			"0.012": 8.9693975062,
			"0.013": 0.709413985867,
			"0.014": 0.0,
			"0.015": 0.0,
			"0.016": 0.0,
			"0.017": 0.0,
			"0.018": 0.0,
			"0.019": 0.0,
			"0.02": 0.0,
			"0.021": 0.0,
			"0.022": 0.0,
			"0.023": 0.0,
			"0.024": 0.0,
			"0.025": 0.0
		}
	}
}
