{
	 "smiles": "CC1=C(NC(=O)C2=CC=CO2)C=C(C=C1)C(O)=O", 
	 "Tm": 504.15, 
	 "num_atms": 29, 
	 "gaussian": { 
		 "optdone": 1, 
		 "sigma_profile": "yes", 
		 "theory": "DFT", 
		 "functional": "B3LYP", 
		 "basiset": "6-31G**", 
		 "properties": { 
			 "R2extent": 4573.7866, 
			 "electric_dipole_moment_norm": 1.63164036785, 
			 "electric_quadrupole_moment_norm": 24.2818920447, 
			 "total_energy": -857.668798461, 
			 "HOMO_LUMO_gap": 0.18207, 
			 "cosmo_polarized_energy": -17.51, 
			 "cosmo_cavitation_energy": 34.7, 
			 "cosmo_dispersion_energy": -23.75, 
			 "cosmo_repulsion_energy": 1.85, 
			 "cosmo_total_nonelectrostatic_energy": 12.8, 
			 "SMD_solvation_energy": 8.88 
		},
		"coords": [
			{
				"x": -3.0085726942,
				"y": 1.0631334059,
				"z": -1.5482863731,
				"element": "C" 
			},
			{
				"x": -2.3179054241,
				"y": 0.337333264,
				"z": -0.4221020819,
				"element": "C" 
			},
			{
				"x": -0.9909375487,
				"y": 0.65822154,
				"z": -0.0649411498,
				"element": "C" 
			},
			{
				"x": -0.3391867179,
				"y": 1.7098798604,
				"z": -0.7611682459,
				"element": "N" 
			},
			{
				"x": 0.99435848,
				"y": 1.8870125096,
				"z": -1.0924303666,
				"element": "C" 
			},
			{
				"x": 1.439175211,
				"y": 3.0135954768,
				"z": -1.2917151972,
				"element": "O" 
			},
			{
				"x": 1.863752661,
				"y": 0.713072862,
				"z": -1.2822385452,
				"element": "C" 
			},
			{
				"x": 3.2251358601,
				"y": 0.6757539053,
				"z": -1.4295071909,
				"element": "C" 
			},
			{
				"x": 3.5712021325,
				"y": -0.6896982766,
				"z": -1.6499516996,
				"element": "C" 
			},
			{
				"x": 2.395454243,
				"y": -1.3839817119,
				"z": -1.6308636885,
				"element": "C" 
			},
			{
				"x": 1.3479575452,
				"y": -0.5503309411,
				"z": -1.4101150535,
				"element": "O" 
			},
			{
				"x": -0.3610594584,
				"y": -0.0094731027,
				"z": 0.9884194079,
				"element": "C" 
			},
			{
				"x": -1.0281413128,
				"y": -1.0288516108,
				"z": 1.6748019054,
				"element": "C" 
			},
			{
				"x": -2.3436633026,
				"y": -1.3582077031,
				"z": 1.326849736,
				"element": "C" 
			},
			{
				"x": -2.9737824247,
				"y": -0.6711610051,
				"z": 0.2957122578,
				"element": "C" 
			},
			{
				"x": -0.3915846619,
				"y": -1.7721695525,
				"z": 2.7926522322,
				"element": "C" 
			},
			{
				"x": 0.876040405,
				"y": -1.3624719411,
				"z": 3.0530561255,
				"element": "O" 
			},
			{
				"x": -0.9236593719,
				"y": -2.6612794356,
				"z": 3.4283769211,
				"element": "O" 
			},
			{
				"x": -3.9554382309,
				"y": 0.5806427919,
				"z": -1.8018602906,
				"element": "H" 
			},
			{
				"x": -2.3798321579,
				"y": 1.0917576132,
				"z": -2.4442368696,
				"element": "H" 
			},
			{
				"x": -3.234956679,
				"y": 2.1050937019,
				"z": -1.2843481443,
				"element": "H" 
			},
			{
				"x": -0.8373544938,
				"y": 2.5907428972,
				"z": -0.821740985,
				"element": "H" 
			},
			{
				"x": 3.8788803569,
				"y": 1.5336985097,
				"z": -1.386760341,
				"element": "H" 
			},
			{
				"x": 4.5577128503,
				"y": -1.1012950059,
				"z": -1.8059110485,
				"element": "H" 
			},
			{
				"x": 2.1470060177,
				"y": -2.4268585557,
				"z": -1.7555656044,
				"element": "H" 
			},
			{
				"x": 0.6453164006,
				"y": 0.2656553751,
				"z": 1.2791001308,
				"element": "H" 
			},
			{
				"x": -2.8494338148,
				"y": -2.1455928786,
				"z": 1.8745103428,
				"element": "H" 
			},
			{
				"x": -3.9953117431,
				"y": -0.925311456,
				"z": 0.0263352782,
				"element": "H" 
			},
			{
				"x": 1.1816278733,
				"y": -1.9097105364,
				"z": 3.794828538,
				"element": "H" 
			}
		],
		 "valence_orbital": [ 
			{
				"type": "occ",
				"energy": -0.27733,
				"method": "rhf"
			},
			{
				"type": "occ",
				"energy": -0.26416,
				"method": "rhf"
			},
			{
				"type": "occ",
				"energy": -0.25932,
				"method": "rhf"
			},
			{
				"type": "occ",
				"energy": -0.24039,
				"method": "rhf"
			},
			{
				"type": "occ",
				"energy": -0.23251,
				"method": "rhf"
			},
			{
				"type": "unocc",
				"energy": -0.05044,
				"method": "rhf"
			},
			{
				"type": "unocc",
				"energy": -0.04205,
				"method": "rhf"
			},
			{
				"type": "unocc",
				"energy": -0.00826,
				"method": "rhf"
			},
			{
				"type": "unocc",
				"energy": 0.03943,
				"method": "rhf"
			},
			{
				"type": "unocc",
				"energy": 0.05564,
				"method": "rhf"
			}
		],
		"cosmo_sigma_profile": { 
			"-0.025": 0.0,
			"-0.024": 0.0,
			"-0.023": 0.0,
			"-0.022": 0.0,
			"-0.021": 0.0,
			"-0.02": 0.0,
			"-0.019": 0.0,
			"-0.018": 0.569947342623,
			"-0.017": 1.07224147981,
			"-0.016": 0.702829508262,
			"-0.015": 1.13812763134,
			"-0.014": 0.907927586141,
			"-0.013": 1.28476752222,
			"-0.012": 2.2740454177,
			"-0.011": 2.18651663236,
			"-0.01": 3.1141329815,
			"-0.009": 3.20787958091,
			"-0.008": 4.78084010802,
			"-0.007": 8.29389438789,
			"-0.006": 12.0482718164,
			"-0.005": 15.5140145478,
			"-0.004": 15.4762459634,
			"-0.003": 17.3887867184,
			"-0.002": 18.3537414414,
			"-0.001": 21.175035253,
			"0.0": 23.0376440272,
			"0.001": 22.8025210534,
			"0.002": 20.36101861,
			"0.003": 21.584634478,
			"0.004": 12.5269249599,
			"0.005": 7.20045287882,
			"0.006": 6.06317639287,
			"0.007": 4.65496263558,
			"0.008": 3.7447344103,
			"0.009": 2.94227472062,
			"0.01": 3.2625840613,
			"0.011": 5.26263643467,
			"0.012": 7.48919820873,
			"0.013": 5.8607611056,
			"0.014": 1.24860928693,
			"0.015": 0.0,
			"0.016": 0.0,
			"0.017": 0.0,
			"0.018": 0.0,
			"0.019": 0.0,
			"0.02": 0.0,
			"0.021": 0.0,
			"0.022": 0.0,
			"0.023": 0.0,
			"0.024": 0.0,
			"0.0": 0.0
		}
	}
}
