{
	 "smiles": "CNC1=C(C=CC=C1F)C(O)=O", 
	 "Tm": 408.15, 
	 "num_atms": 20, 
	 "gaussian": { 
		 "optdone": 1, 
		 "sigma_profile": "yes", 
		 "theory": "DFT", 
		 "functional": "B3LYP", 
		 "basiset": "6-31G**", 
		 "properties": { 
			 "R2extent": 2121.5433, 
			 "electric_dipole_moment_norm": 5.29542867387, 
			 "electric_quadrupole_moment_norm": 16.0524751917, 
			 "total_energy": -614.717755341, 
			 "HOMO_LUMO_gap": 0.20528, 
			 "cosmo_polarized_energy": -13.32, 
			 "cosmo_cavitation_energy": 24.24, 
			 "cosmo_dispersion_energy": -17.66, 
			 "cosmo_repulsion_energy": 1.38, 
			 "cosmo_total_nonelectrostatic_energy": 7.96, 
			 "SMD_solvation_energy": 5.87 
		},
		"coords": [
			{
				"x": 1.3019411203,
				"y": -1.4797285964,
				"z": 2.551634654,
				"element": "C" 
			},
			{
				"x": 0.2579593218,
				"y": -1.4558046595,
				"z": 1.5003374395,
				"element": "N" 
			},
			{
				"x": 0.4146295554,
				"y": -0.3857256458,
				"z": 0.5516331116,
				"element": "C" 
			},
			{
				"x": -0.2657462802,
				"y": 0.8369522276,
				"z": 0.7052942495,
				"element": "C" 
			},
			{
				"x": -0.0616741472,
				"y": 1.8578535854,
				"z": -0.2325373161,
				"element": "C" 
			},
			{
				"x": 0.7840958977,
				"y": 1.6713726828,
				"z": -1.3228039056,
				"element": "C" 
			},
			{
				"x": 1.4490564448,
				"y": 0.4552436163,
				"z": -1.4977988747,
				"element": "C" 
			},
			{
				"x": 1.255679811,
				"y": -0.5408167423,
				"z": -0.5532711331,
				"element": "C" 
			},
			{
				"x": 1.8938684776,
				"y": -1.7285593261,
				"z": -0.6925454906,
				"element": "F" 
			},
			{
				"x": -1.2549899611,
				"y": 1.1144019977,
				"z": 1.8198372151,
				"element": "C" 
			},
			{
				"x": -1.596506294,
				"y": 0.0761414359,
				"z": 2.5932695078,
				"element": "O" 
			},
			{
				"x": -1.7244597313,
				"y": 2.2200691263,
				"z": 1.9860749073,
				"element": "O" 
			},
			{
				"x": 2.315621799,
				"y": -1.5444019699,
				"z": 2.1379437156,
				"element": "H" 
			},
			{
				"x": 1.1233068431,
				"y": -2.3398830496,
				"z": 3.2017054625,
				"element": "H" 
			},
			{
				"x": 1.2202690526,
				"y": -0.5718187406,
				"z": 3.1533862113,
				"element": "H" 
			},
			{
				"x": 0.2730529314,
				"y": -2.3420051014,
				"z": 1.0019388151,
				"element": "H" 
			},
			{
				"x": -0.5952958037,
				"y": 2.7893695778,
				"z": -0.0823560343,
				"element": "H" 
			},
			{
				"x": 0.9250583211,
				"y": 2.4687788347,
				"z": -2.0454851712,
				"element": "H" 
			},
			{
				"x": 2.1111337544,
				"y": 0.27352188,
				"z": -2.3375417247,
				"element": "H" 
			},
			{
				"x": -1.1044011126,
				"y": -0.731661133,
				"z": 2.277384361,
				"element": "H" 
			}
		],
		 "valence_orbital": [ 
			{
				"type": "occ",
				"energy": -0.29787,
				"method": "rhf"
			},
			{
				"type": "occ",
				"energy": -0.29203,
				"method": "rhf"
			},
			{
				"type": "occ",
				"energy": -0.26799,
				"method": "rhf"
			},
			{
				"type": "occ",
				"energy": -0.26188,
				"method": "rhf"
			},
			{
				"type": "occ",
				"energy": -0.25728,
				"method": "rhf"
			},
			{
				"type": "unocc",
				"energy": -0.052,
				"method": "rhf"
			},
			{
				"type": "unocc",
				"energy": -0.0193,
				"method": "rhf"
			},
			{
				"type": "unocc",
				"energy": 0.05694,
				"method": "rhf"
			},
			{
				"type": "unocc",
				"energy": 0.05973,
				"method": "rhf"
			},
			{
				"type": "unocc",
				"energy": 0.08813,
				"method": "rhf"
			}
		],
		"cosmo_sigma_profile": { 
			"-0.025": 0.0,
			"-0.024": 0.0,
			"-0.023": 0.0,
			"-0.022": 0.0,
			"-0.021": 0.0,
			"-0.02": 0.0,
			"-0.019": 0.0,
			"-0.018": 0.0,
			"-0.017": 0.0,
			"-0.016": 0.0,
			"-0.015": 0.0,
			"-0.014": 0.0,
			"-0.013": 0.584903695695,
			"-0.012": 1.27373580347,
			"-0.011": 1.44362824653,
			"-0.01": 0.60483563075,
			"-0.009": 0.99219057698,
			"-0.008": 3.66383428672,
			"-0.007": 5.584698957,
			"-0.006": 9.46691762237,
			"-0.005": 13.464405343,
			"-0.004": 15.6180182931,
			"-0.003": 18.0406571304,
			"-0.002": 19.3685019185,
			"-0.001": 13.6090422413,
			"0.0": 13.980834626,
			"0.001": 12.5533208341,
			"0.002": 11.770543282,
			"0.003": 13.0240429148,
			"0.004": 7.86467815736,
			"0.005": 1.74253334824,
			"0.006": 2.12152159597,
			"0.007": 2.35546257477,
			"0.008": 2.39018427245,
			"0.009": 3.1219501006,
			"0.01": 3.01096914517,
			"0.011": 5.07727290639,
			"0.012": 6.88417866373,
			"0.013": 3.1521361805,
			"0.014": 0.90058371615,
			"0.015": 0.0,
			"0.016": 0.0,
			"0.017": 0.0,
			"0.018": 0.0,
			"0.019": 0.0,
			"0.02": 0.0,
			"0.021": 0.0,
			"0.022": 0.0,
			"0.023": 0.0,
			"0.024": 0.0,
			"0.025": 0.0
		}
	}
}
