{
	 "smiles": "CCC(C)NC(=O)C(C(F)(F)F)C(F)(F)F", 
	 "Tm": 385.15, 
	 "num_atms": 27, 
	 "gaussian": { 
		 "optdone": 1, 
		 "sigma_profile": "yes", 
		 "theory": "DFT", 
		 "functional": "B3LYP", 
		 "basiset": "6-31G**", 
		 "properties": { 
			 "R2extent": 4637.1192, 
			 "electric_dipole_moment_norm": 4.52966916562, 
			 "electric_quadrupole_moment_norm": 7.51181810882, 
			 "total_energy": -1040.53547275, 
			 "HOMO_LUMO_gap": 0.2663, 
			 "cosmo_polarized_energy": -12.19, 
			 "cosmo_cavitation_energy": 32.75, 
			 "cosmo_dispersion_energy": -21.31, 
			 "cosmo_repulsion_energy": 1.59, 
			 "cosmo_total_nonelectrostatic_energy": 13.03, 
			 "SMD_solvation_energy": 8.28 
		},
		"coords": [
			{
				"x": -1.9656744897,
				"y": 2.001764742,
				"z": 2.815685783,
				"element": "C" 
			},
			{
				"x": -2.5178223373,
				"y": 1.0186131256,
				"z": 1.7796242511,
				"element": "C" 
			},
			{
				"x": -1.5872779969,
				"y": -0.1655821948,
				"z": 1.4749497797,
				"element": "C" 
			},
			{
				"x": -2.2437181916,
				"y": -1.207670586,
				"z": 0.559498783,
				"element": "C" 
			},
			{
				"x": -0.3295389424,
				"y": 0.3250790637,
				"z": 0.8941126416,
				"element": "N" 
			},
			{
				"x": 0.8589927087,
				"y": -0.2998049402,
				"z": 1.1174201985,
				"element": "C" 
			},
			{
				"x": 1.0179971814,
				"y": -1.2223808873,
				"z": 1.8986900217,
				"element": "O" 
			},
			{
				"x": 2.0417797609,
				"y": 0.293163715,
				"z": 0.3013902155,
				"element": "C" 
			},
			{
				"x": 1.9529553033,
				"y": -0.147124362,
				"z": -1.1622749411,
				"element": "C" 
			},
			{
				"x": 0.8675862321,
				"y": 0.434959838,
				"z": -1.7426151462,
				"element": "F" 
			},
			{
				"x": 3.0252150962,
				"y": 0.2247343451,
				"z": -1.8783313894,
				"element": "F" 
			},
			{
				"x": 1.8094712746,
				"y": -1.4748127793,
				"z": -1.2816659866,
				"element": "F" 
			},
			{
				"x": 3.3896413003,
				"y": -0.0573084036,
				"z": 0.9412331092,
				"element": "C" 
			},
			{
				"x": 3.3902562964,
				"y": 0.2843707269,
				"z": 2.2405130704,
				"element": "F" 
			},
			{
				"x": 3.6876668711,
				"y": -1.3576700227,
				"z": 0.8324921472,
				"element": "F" 
			},
			{
				"x": 4.3815105738,
				"y": 0.6431599608,
				"z": 0.346444524,
				"element": "F" 
			},
			{
				"x": -1.0150268498,
				"y": 2.4344792644,
				"z": 2.4892167293,
				"element": "H" 
			},
			{
				"x": -1.7886759731,
				"y": 1.5036937457,
				"z": 3.7750487911,
				"element": "H" 
			},
			{
				"x": -2.6673563755,
				"y": 2.8232705952,
				"z": 2.9897218444,
				"element": "H" 
			},
			{
				"x": -3.4734548097,
				"y": 0.6101811203,
				"z": 2.1292131637,
				"element": "H" 
			},
			{
				"x": -2.7440520773,
				"y": 1.5462177944,
				"z": 0.8410380228,
				"element": "H" 
			},
			{
				"x": -1.2988119146,
				"y": -0.6514734683,
				"z": 2.4119105175,
				"element": "H" 
			},
			{
				"x": -3.1501601332,
				"y": -1.6105030543,
				"z": 1.0228406807,
				"element": "H" 
			},
			{
				"x": -1.5579536773,
				"y": -2.0381081823,
				"z": 0.3716460345,
				"element": "H" 
			},
			{
				"x": -2.5245670358,
				"y": -0.7661176881,
				"z": -0.4038359769,
				"element": "H" 
			},
			{
				"x": -0.3964280616,
				"y": 0.9496937407,
				"z": 0.1016277715,
				"element": "H" 
			},
			{
				"x": 1.9819462668,
				"y": 1.385574791,
				"z": 0.3001053599,
				"element": "H" 
			}
		],
		 "valence_orbital": [ 
			{
				"type": "occ",
				"energy": -0.35626,
				"method": "rhf"
			},
			{
				"type": "occ",
				"energy": -0.35156,
				"method": "rhf"
			},
			{
				"type": "occ",
				"energy": -0.34281,
				"method": "rhf"
			},
			{
				"type": "occ",
				"energy": -0.27505,
				"method": "rhf"
			},
			{
				"type": "occ",
				"energy": -0.26624,
				"method": "rhf"
			},
			{
				"type": "unocc",
				"energy": 6e-05,
				"method": "rhf"
			},
			{
				"type": "unocc",
				"energy": 0.0624,
				"method": "rhf"
			},
			{
				"type": "unocc",
				"energy": 0.08338,
				"method": "rhf"
			},
			{
				"type": "unocc",
				"energy": 0.08843,
				"method": "rhf"
			},
			{
				"type": "unocc",
				"energy": 0.11257,
				"method": "rhf"
			}
		],
		"cosmo_sigma_profile": { 
			"-0.025": 0.0,
			"-0.024": 0.0,
			"-0.023": 0.0,
			"-0.022": 0.0,
			"-0.021": 0.0,
			"-0.02": 0.0,
			"-0.019": 0.0,
			"-0.018": 0.0,
			"-0.017": 0.0,
			"-0.016": 0.0,
			"-0.015": 0.0,
			"-0.014": 0.268120011448,
			"-0.013": 1.47471588783,
			"-0.012": 2.80789383519,
			"-0.011": 3.99703756681,
			"-0.01": 2.73104631565,
			"-0.009": 2.59686195409,
			"-0.008": 2.55372951475,
			"-0.007": 2.02610756151,
			"-0.006": 2.41038954737,
			"-0.005": 2.98809239477,
			"-0.004": 10.102101955,
			"-0.003": 19.8922365462,
			"-0.002": 23.5134945805,
			"-0.001": 26.2002258968,
			"0.0": 28.7160518744,
			"0.001": 33.591692799,
			"0.002": 50.8708681635,
			"0.003": 15.9348603268,
			"0.004": 3.66962261289,
			"0.005": 2.54391391548,
			"0.006": 2.36227848498,
			"0.007": 1.88033643172,
			"0.008": 2.21395656807,
			"0.009": 1.90968298173,
			"0.01": 1.92684566829,
			"0.011": 2.5960045539,
			"0.012": 4.26257252349,
			"0.013": 1.42241274376,
			"0.014": 0.0,
			"0.015": 0.0,
			"0.016": 0.0,
			"0.017": 0.0,
			"0.018": 0.0,
			"0.019": 0.0,
			"0.02": 0.0,
			"0.021": 0.0,
			"0.022": 0.0,
			"0.023": 0.0,
			"0.024": 0.0,
			"0.025": 0.0
		}
	}
}
