{
	 "smiles": "CCCCCCCCCCCCCCCCCCCCCCO", 
	 "Tm": 344.35, 
	 "num_atms": 69, 
	 "gaussian": { 
		 "optdone": 1, 
		 "sigma_profile": "yes", 
		 "theory": "DFT", 
		 "functional": "B3LYP", 
		 "basiset": "6-31G**", 
		 "properties": { 
			 "R2extent": 26883.2631, 
			 "electric_dipole_moment_norm": 1.38899699424, 
			 "electric_quadrupole_moment_norm": 20.0856730246, 
			 "total_energy": -941.344801509, 
			 "HOMO_LUMO_gap": 0.33313, 
			 "cosmo_polarized_energy": -6.44, 
			 "cosmo_cavitation_energy": 66.04, 
			 "cosmo_dispersion_energy": -44.54, 
			 "cosmo_repulsion_energy": 3.62, 
			 "cosmo_total_nonelectrostatic_energy": 25.13, 
			 "SMD_solvation_energy": 8.24 
		},
		"coords": [
			{
				"x": 1.0084167659,
				"y": -4.4776645127,
				"z": 6.1735844439,
				"element": "C" 
			},
			{
				"x": 0.588313351,
				"y": -3.3278778933,
				"z": 7.0964873273,
				"element": "C" 
			},
			{
				"x": -0.7761499325,
				"y": -2.6875737472,
				"z": 6.7831733812,
				"element": "C" 
			},
			{
				"x": -1.9977779045,
				"y": -3.6243093094,
				"z": 6.9370431632,
				"element": "C" 
			},
			{
				"x": -2.4757787553,
				"y": -4.3251062543,
				"z": 5.6505951362,
				"element": "C" 
			},
			{
				"x": -3.1741674985,
				"y": -3.3922593543,
				"z": 4.650251312,
				"element": "C" 
			},
			{
				"x": -3.6444073558,
				"y": -4.1172142087,
				"z": 3.3813815026,
				"element": "C" 
			},
			{
				"x": -4.4436817673,
				"y": -3.2422000588,
				"z": 2.3992531289,
				"element": "C" 
			},
			{
				"x": -3.6858405976,
				"y": -2.053853749,
				"z": 1.780516097,
				"element": "C" 
			},
			{
				"x": -2.489036386,
				"y": -2.4441453914,
				"z": 0.9021980732,
				"element": "C" 
			},
			{
				"x": -1.8125007882,
				"y": -1.2423786644,
				"z": 0.2295534364,
				"element": "C" 
			},
			{
				"x": -0.6149569782,
				"y": -1.6249339587,
				"z": -0.6494218482,
				"element": "C" 
			},
			{
				"x": 0.065704317,
				"y": -0.424018219,
				"z": -1.3192039266,
				"element": "C" 
			},
			{
				"x": 1.2618449359,
				"y": -0.8186042428,
				"z": -2.1972625248,
				"element": "C" 
			},
			{
				"x": 2.0221136556,
				"y": 0.363166473,
				"z": -2.8224303589,
				"element": "C" 
			},
			{
				"x": 1.2152049292,
				"y": 1.1657092115,
				"z": -3.8550993095,
				"element": "C" 
			},
			{
				"x": 2.0237489034,
				"y": 2.243104057,
				"z": -4.5974155212,
				"element": "C" 
			},
			{
				"x": 2.5124783183,
				"y": 3.4038505146,
				"z": -3.7186077409,
				"element": "C" 
			},
			{
				"x": 3.2564143712,
				"y": 4.4854628398,
				"z": -4.5149169459,
				"element": "C" 
			},
			{
				"x": 3.6831570854,
				"y": 5.7161771108,
				"z": -3.6965696537,
				"element": "C" 
			},
			{
				"x": 4.6914110941,
				"y": 5.4556149802,
				"z": -2.5635115712,
				"element": "C" 
			},
			{
				"x": 6.0437138921,
				"y": 4.9249383751,
				"z": -3.0296722101,
				"element": "C" 
			},
			{
				"x": 6.6136439042,
				"y": 5.8775120889,
				"z": -3.9221658387,
				"element": "O" 
			},
			{
				"x": 1.0202742431,
				"y": -4.1616135908,
				"z": 5.1238397389,
				"element": "H" 
			},
			{
				"x": 0.331499604,
				"y": -5.3341207954,
				"z": 6.2548023255,
				"element": "H" 
			},
			{
				"x": 2.0141565695,
				"y": -4.8321747035,
				"z": 6.423827649,
				"element": "H" 
			},
			{
				"x": 1.3552540005,
				"y": -2.5431853723,
				"z": 7.055494148,
				"element": "H" 
			},
			{
				"x": 0.5796781276,
				"y": -3.6858153739,
				"z": 8.1354750769,
				"element": "H" 
			},
			{
				"x": -0.8996889927,
				"y": -1.8291023048,
				"z": 7.4550642306,
				"element": "H" 
			},
			{
				"x": -0.7526396937,
				"y": -2.2662876827,
				"z": 5.7689097109,
				"element": "H" 
			},
			{
				"x": -2.8429761875,
				"y": -3.0511738374,
				"z": 7.340923485,
				"element": "H" 
			},
			{
				"x": -1.7675047405,
				"y": -4.3832318291,
				"z": 7.6971360854,
				"element": "H" 
			},
			{
				"x": -1.6309805452,
				"y": -4.8190692291,
				"z": 5.1541142271,
				"element": "H" 
			},
			{
				"x": -3.1749127475,
				"y": -5.127031468,
				"z": 5.925166035,
				"element": "H" 
			},
			{
				"x": -2.499148822,
				"y": -2.5707982859,
				"z": 4.3785600168,
				"element": "H" 
			},
			{
				"x": -4.0394219239,
				"y": -2.922644831,
				"z": 5.1410246042,
				"element": "H" 
			},
			{
				"x": -4.2748366673,
				"y": -4.9677605391,
				"z": 3.6750775475,
				"element": "H" 
			},
			{
				"x": -2.7758611171,
				"y": -4.555205985,
				"z": 2.8713950675,
				"element": "H" 
			},
			{
				"x": -4.8181974987,
				"y": -3.8800008249,
				"z": 1.5867187367,
				"element": "H" 
			},
			{
				"x": -5.3341179506,
				"y": -2.8589028598,
				"z": 2.9163655811,
				"element": "H" 
			},
			{
				"x": -3.3472593765,
				"y": -1.3722395112,
				"z": 2.5723756805,
				"element": "H" 
			},
			{
				"x": -4.3937154714,
				"y": -1.4734516777,
				"z": 1.1730376648,
				"element": "H" 
			},
			{
				"x": -1.7431628077,
				"y": -2.9823850662,
				"z": 1.5023132686,
				"element": "H" 
			},
			{
				"x": -2.8232405675,
				"y": -3.1519592862,
				"z": 0.1295900622,
				"element": "H" 
			},
			{
				"x": -2.5524653114,
				"y": -0.7032871849,
				"z": -0.3793104114,
				"element": "H" 
			},
			{
				"x": -1.483275517,
				"y": -0.5324130787,
				"z": 1.0019877681,
				"element": "H" 
			},
			{
				"x": 0.1233742354,
				"y": -2.1669997663,
				"z": -0.0410481503,
				"element": "H" 
			},
			{
				"x": -0.9451069676,
				"y": -2.33259635,
				"z": -1.4235080386,
				"element": "H" 
			},
			{
				"x": -0.6768044943,
				"y": 0.1186286042,
				"z": -1.9189497098,
				"element": "H" 
			},
			{
				"x": 0.403466561,
				"y": 0.2800677412,
				"z": -0.5446635209,
				"element": "H" 
			},
			{
				"x": 1.9637297582,
				"y": -1.4066678903,
				"z": -1.5900667414,
				"element": "H" 
			},
			{
				"x": 0.917912096,
				"y": -1.4910506825,
				"z": -2.9965626073,
				"element": "H" 
			},
			{
				"x": 2.9287463017,
				"y": -0.0213027467,
				"z": -3.3105038401,
				"element": "H" 
			},
			{
				"x": 2.3688695209,
				"y": 1.0273199095,
				"z": -2.0194468045,
				"element": "H" 
			},
			{
				"x": 0.8006919949,
				"y": 0.4657774033,
				"z": -4.5941121093,
				"element": "H" 
			},
			{
				"x": 0.3517653092,
				"y": 1.6398614667,
				"z": -3.3696804296,
				"element": "H" 
			},
			{
				"x": 2.8879446377,
				"y": 1.7720216755,
				"z": -5.0883013793,
				"element": "H" 
			},
			{
				"x": 1.4046224035,
				"y": 2.6530476894,
				"z": -5.4070892933,
				"element": "H" 
			},
			{
				"x": 1.6498685474,
				"y": 3.8586926651,
				"z": -3.2092754002,
				"element": "H" 
			},
			{
				"x": 3.1622424024,
				"y": 3.015162143,
				"z": -2.9247624407,
				"element": "H" 
			},
			{
				"x": 4.1344287086,
				"y": 4.0400887285,
				"z": -5.0023646087,
				"element": "H" 
			},
			{
				"x": 2.6087548521,
				"y": 4.8272317362,
				"z": -5.3338540621,
				"element": "H" 
			},
			{
				"x": 2.7877874586,
				"y": 6.1808884759,
				"z": -3.261927544,
				"element": "H" 
			},
			{
				"x": 4.1197486433,
				"y": 6.4564954462,
				"z": -4.3753485472,
				"element": "H" 
			},
			{
				"x": 4.2815428317,
				"y": 4.7475735349,
				"z": -1.8321995167,
				"element": "H" 
			},
			{
				"x": 4.864559964,
				"y": 6.3945796162,
				"z": -2.0234676628,
				"element": "H" 
			},
			{
				"x": 5.919816529,
				"y": 3.9469609185,
				"z": -3.5221210463,
				"element": "H" 
			},
			{
				"x": 6.6924226383,
				"y": 4.7648940238,
				"z": -2.1530522894,
				"element": "H" 
			},
			{
				"x": 7.4440919022,
				"y": 5.5180848891,
				"z": -4.2566421088,
				"element": "H" 
			}
		],
		 "valence_orbital": [ 
			{
				"type": "occ",
				"energy": -0.30141,
				"method": "rhf"
			},
			{
				"type": "occ",
				"energy": -0.29738,
				"method": "rhf"
			},
			{
				"type": "occ",
				"energy": -0.29667,
				"method": "rhf"
			},
			{
				"type": "occ",
				"energy": -0.28922,
				"method": "rhf"
			},
			{
				"type": "occ",
				"energy": -0.26123,
				"method": "rhf"
			},
			{
				"type": "unocc",
				"energy": 0.0719,
				"method": "rhf"
			},
			{
				"type": "unocc",
				"energy": 0.07912,
				"method": "rhf"
			},
			{
				"type": "unocc",
				"energy": 0.09135,
				"method": "rhf"
			},
			{
				"type": "unocc",
				"energy": 0.09307,
				"method": "rhf"
			},
			{
				"type": "unocc",
				"energy": 0.09943,
				"method": "rhf"
			}
		],
		"cosmo_sigma_profile": { 
			"-0.025": 0.0,
			"-0.024": 0.0,
			"-0.023": 0.0,
			"-0.022": 0.0,
			"-0.021": 0.0,
			"-0.02": 0.0,
			"-0.019": 0.0,
			"-0.018": 0.0,
			"-0.017": 0.0,
			"-0.016": 0.051124998673,
			"-0.015": 1.28491268805,
			"-0.014": 0.590682539075,
			"-0.013": 0.991435783714,
			"-0.012": 0.960065786683,
			"-0.011": 0.845492661349,
			"-0.01": 1.01343183578,
			"-0.009": 0.882848101779,
			"-0.008": 0.577883143341,
			"-0.007": 0.273620649948,
			"-0.006": 1.07817464273,
			"-0.005": 1.33500232876,
			"-0.004": 0.891489905071,
			"-0.003": 8.64664192335,
			"-0.002": 56.8513701209,
			"-0.001": 123.47079545,
			"0.0": 129.451892964,
			"0.001": 104.273517621,
			"0.002": 48.8910068155,
			"0.003": 3.83081827253,
			"0.004": 1.37558884417,
			"0.005": 1.04167894839,
			"0.006": 1.47604922292,
			"0.007": 1.39370181858,
			"0.008": 1.9352435254,
			"0.009": 1.96640194362,
			"0.01": 1.13245246537,
			"0.011": 1.00506685468,
			"0.012": 1.72145948761,
			"0.013": 1.95274514655,
			"0.014": 0.872801914446,
			"0.015": 0.681499333553,
			"0.016": 0.00192050032721,
			"0.017": 0.0,
			"0.018": 0.0,
			"0.019": 0.0,
			"0.02": 0.0,
			"0.021": 0.0,
			"0.022": 0.0,
			"0.023": 0.0,
			"0.024": 0.0,
			"0.025": 0.0
		}
	}
}
