{
	 "smiles": "CC(=CC(O)=O)C(O)=O", 
	 "Tm": 364.95, 
	 "num_atms": 15, 
	 "gaussian": { 
		 "optdone": 1, 
		 "sigma_profile": "yes", 
		 "theory": "DFT", 
		 "functional": "B3LYP", 
		 "basiset": "6-31G**", 
		 "properties": { 
			 "R2extent": 1624.8756, 
			 "electric_dipole_moment_norm": 6.33818213134, 
			 "electric_quadrupole_moment_norm": 8.69432015399, 
			 "total_energy": -495.052388608, 
			 "HOMO_LUMO_gap": 0.16864, 
			 "cosmo_polarized_energy": -15.7, 
			 "cosmo_cavitation_energy": 19.76, 
			 "cosmo_dispersion_energy": -14.76, 
			 "cosmo_repulsion_energy": 1.22, 
			 "cosmo_total_nonelectrostatic_energy": 6.22, 
			 "SMD_solvation_energy": 6.24 
		},
		"coords": [
			{
				"x": -0.7890377269,
				"y": 0.9018736261,
				"z": -2.9173075032,
				"element": "C" 
			},
			{
				"x": -0.8668170647,
				"y": 0.2159075608,
				"z": -1.5719143566,
				"element": "C" 
			},
			{
				"x": 0.0955813136,
				"y": -0.6600481345,
				"z": -1.2021147678,
				"element": "C" 
			},
			{
				"x": 0.3800716247,
				"y": -1.5234290542,
				"z": 0.0042661737,
				"element": "C" 
			},
			{
				"x": -0.4360930652,
				"y": -1.5305561162,
				"z": 1.0537601258,
				"element": "O" 
			},
			{
				"x": 1.3852931224,
				"y": -2.2065367768,
				"z": -0.0322194159,
				"element": "O" 
			},
			{
				"x": -2.0407731411,
				"y": 0.570382741,
				"z": -0.7265559685,
				"element": "C" 
			},
			{
				"x": -2.8514108919,
				"y": 1.4609931809,
				"z": -1.3209399103,
				"element": "O" 
			},
			{
				"x": -2.3070833359,
				"y": 0.142556187,
				"z": 0.3923357179,
				"element": "O" 
			},
			{
				"x": -0.7560262804,
				"y": 1.9902056413,
				"z": -2.8033330997,
				"element": "H" 
			},
			{
				"x": 0.1011497407,
				"y": 0.5808064202,
				"z": -3.4609909656,
				"element": "H" 
			},
			{
				"x": -1.6709048019,
				"y": 0.6768747783,
				"z": -3.5258238391,
				"element": "H" 
			},
			{
				"x": 0.8919197368,
				"y": -0.8190326472,
				"z": -1.9239205954,
				"element": "H" 
			},
			{
				"x": -1.2010012891,
				"y": -0.9186500765,
				"z": 0.9151037027,
				"element": "H" 
			},
			{
				"x": -3.5814679409,
				"y": 1.6296526699,
				"z": -0.700945298,
				"element": "H" 
			}
		],
		 "valence_orbital": [ 
			{
				"type": "occ",
				"energy": -0.36167,
				"method": "rhf"
			},
			{
				"type": "occ",
				"energy": -0.3134,
				"method": "rhf"
			},
			{
				"type": "occ",
				"energy": -0.30943,
				"method": "rhf"
			},
			{
				"type": "occ",
				"energy": -0.28992,
				"method": "rhf"
			},
			{
				"type": "occ",
				"energy": -0.26526,
				"method": "rhf"
			},
			{
				"type": "unocc",
				"energy": -0.09662,
				"method": "rhf"
			},
			{
				"type": "unocc",
				"energy": 0.01378,
				"method": "rhf"
			},
			{
				"type": "unocc",
				"energy": 0.05045,
				"method": "rhf"
			},
			{
				"type": "unocc",
				"energy": 0.09273,
				"method": "rhf"
			},
			{
				"type": "unocc",
				"energy": 0.09738,
				"method": "rhf"
			}
		],
		"cosmo_sigma_profile": { 
			"-0.025": 0.0,
			"-0.024": 0.0,
			"-0.023": 0.0,
			"-0.022": 0.0,
			"-0.021": 0.0,
			"-0.02": 0.152752665025,
			"-0.019": 1.22297052238,
			"-0.018": 0.798636970771,
			"-0.017": 0.734907669272,
			"-0.016": 0.720694046846,
			"-0.015": 0.589300681698,
			"-0.014": 0.961422693325,
			"-0.013": 1.05069142875,
			"-0.012": 0.747958685802,
			"-0.011": 0.480007870535,
			"-0.01": 0.580055025069,
			"-0.009": 0.690186233901,
			"-0.008": 2.62206212783,
			"-0.007": 4.47953099169,
			"-0.006": 8.41649324136,
			"-0.005": 12.383609522,
			"-0.004": 12.627499832,
			"-0.003": 13.4021160581,
			"-0.002": 13.7881589733,
			"-0.001": 14.6103281213,
			"0.0": 7.10080858223,
			"0.001": 3.60135452598,
			"0.002": 5.92001079847,
			"0.003": 4.62727605694,
			"0.004": 3.52423785042,
			"0.005": 4.26737627385,
			"0.006": 5.47959255904,
			"0.007": 3.8739953457,
			"0.008": 4.31709571448,
			"0.009": 3.24884345149,
			"0.01": 4.22531742703,
			"0.011": 5.23978616004,
			"0.012": 6.60907238296,
			"0.013": 3.48449686013,
			"0.014": 0.681584904326,
			"0.015": 0.0,
			"0.016": 0.0,
			"0.017": 0.0,
			"0.018": 0.0,
			"0.019": 0.0,
			"0.02": 0.0,
			"0.021": 0.0,
			"0.022": 0.0,
			"0.023": 0.0,
			"0.024": 0.0,
			"0.025": 0.0
		}
	}
}
