{
	 "smiles": "CC(OC1=CC=C(C=C1)C#N)C(O)=O", 
	 "Tm": 432.15, 
	 "num_atms": 23, 
	 "gaussian": { 
		 "optdone": 1, 
		 "sigma_profile": "yes", 
		 "theory": "DFT", 
		 "functional": "B3LYP", 
		 "basiset": "6-31G**", 
		 "properties": { 
			 "R2extent": 4404.3825, 
			 "electric_dipole_moment_norm": 1.46326381422, 
			 "electric_quadrupole_moment_norm": 47.1661617764, 
			 "total_energy": -666.898668661, 
			 "HOMO_LUMO_gap": 0.20149, 
			 "cosmo_polarized_energy": -18.83, 
			 "cosmo_cavitation_energy": 28.9, 
			 "cosmo_dispersion_energy": -20.21, 
			 "cosmo_repulsion_energy": 1.6, 
			 "cosmo_total_nonelectrostatic_energy": 10.29, 
			 "SMD_solvation_energy": 7.99 
		},
		"coords": [
			{
				"x": 0.5891869322,
				"y": -2.0058698073,
				"z": -1.1907409387,
				"element": "C" 
			},
			{
				"x": 1.1115040923,
				"y": -0.5828083829,
				"z": -1.3682464703,
				"element": "C" 
			},
			{
				"x": 0.4292540931,
				"y": 0.3541551589,
				"z": -0.5130539318,
				"element": "O" 
			},
			{
				"x": 0.8020580442,
				"y": 0.5242968874,
				"z": 0.7928544762,
				"element": "C" 
			},
			{
				"x": 0.061217043,
				"y": 1.4772063689,
				"z": 1.5083339764,
				"element": "C" 
			},
			{
				"x": 0.360436371,
				"y": 1.7393705206,
				"z": 2.835830585,
				"element": "C" 
			},
			{
				"x": 1.408137581,
				"y": 1.0501856778,
				"z": 3.4754976916,
				"element": "C" 
			},
			{
				"x": 2.1406639616,
				"y": 0.0960592845,
				"z": 2.7546329658,
				"element": "C" 
			},
			{
				"x": 1.8424711094,
				"y": -0.1718130194,
				"z": 1.4205195887,
				"element": "C" 
			},
			{
				"x": 1.720095474,
				"y": 1.317605544,
				"z": 4.847483822,
				"element": "C" 
			},
			{
				"x": 1.9728399689,
				"y": 1.5355421329,
				"z": 5.962133328,
				"element": "N" 
			},
			{
				"x": 0.9164321687,
				"y": -0.1036813154,
				"z": -2.8191638463,
				"element": "C" 
			},
			{
				"x": 0.3052721455,
				"y": 1.0811479955,
				"z": -2.969917387,
				"element": "O" 
			},
			{
				"x": 1.3113005737,
				"y": -0.7614065145,
				"z": -3.7494881853,
				"element": "O" 
			},
			{
				"x": -0.4920179856,
				"y": -2.0321466955,
				"z": -1.3518800095,
				"element": "H" 
			},
			{
				"x": 1.0680455878,
				"y": -2.6539039934,
				"z": -1.9272138079,
				"element": "H" 
			},
			{
				"x": 0.8003052101,
				"y": -2.3832288214,
				"z": -0.1874774708,
				"element": "H" 
			},
			{
				"x": 2.1905605658,
				"y": -0.5336577641,
				"z": -1.1777111648,
				"element": "H" 
			},
			{
				"x": -0.744752346,
				"y": 2.0000571389,
				"z": 1.0045243907,
				"element": "H" 
			},
			{
				"x": -0.2122399406,
				"y": 2.4773642188,
				"z": 3.3870904133,
				"element": "H" 
			},
			{
				"x": 2.9466332102,
				"y": -0.4412445031,
				"z": 3.2428762865,
				"element": "H" 
			},
			{
				"x": 2.4197770825,
				"y": -0.920370245,
				"z": 0.8926092323,
				"element": "H" 
			},
			{
				"x": 0.0665190574,
				"y": 1.4066401337,
				"z": -2.0837935441,
				"element": "H" 
			}
		],
		 "valence_orbital": [ 
			{
				"type": "occ",
				"energy": -0.33568,
				"method": "rhf"
			},
			{
				"type": "occ",
				"energy": -0.32426,
				"method": "rhf"
			},
			{
				"type": "occ",
				"energy": -0.29172,
				"method": "rhf"
			},
			{
				"type": "occ",
				"energy": -0.28566,
				"method": "rhf"
			},
			{
				"type": "occ",
				"energy": -0.25638,
				"method": "rhf"
			},
			{
				"type": "unocc",
				"energy": -0.05489,
				"method": "rhf"
			},
			{
				"type": "unocc",
				"energy": -0.04073,
				"method": "rhf"
			},
			{
				"type": "unocc",
				"energy": -0.00521,
				"method": "rhf"
			},
			{
				"type": "unocc",
				"energy": 0.03049,
				"method": "rhf"
			},
			{
				"type": "unocc",
				"energy": 0.05757,
				"method": "rhf"
			}
		],
		"cosmo_sigma_profile": { 
			"-0.025": 0.0,
			"-0.024": 0.0,
			"-0.023": 0.0,
			"-0.022": 0.0,
			"-0.021": 0.0,
			"-0.02": 0.0,
			"-0.019": 0.0,
			"-0.018": 0.0,
			"-0.017": 0.0,
			"-0.016": 0.0,
			"-0.015": 0.384808804252,
			"-0.014": 0.56006046605,
			"-0.013": 0.560677123228,
			"-0.012": 0.590658320913,
			"-0.011": 0.970860952952,
			"-0.01": 2.98762662917,
			"-0.009": 5.34057022587,
			"-0.008": 10.4991502523,
			"-0.007": 13.2155850122,
			"-0.006": 13.4048706528,
			"-0.005": 13.3557526126,
			"-0.004": 13.5596786806,
			"-0.003": 12.6345583843,
			"-0.002": 14.5697983589,
			"-0.001": 18.4074358424,
			"0.0": 13.7583939305,
			"0.001": 16.5550239104,
			"0.002": 15.464911957,
			"0.003": 6.13279139335,
			"0.004": 5.14492482073,
			"0.005": 4.62966761207,
			"0.006": 5.15306310967,
			"0.007": 4.77262151049,
			"0.008": 7.08179677477,
			"0.009": 7.17215163531,
			"0.01": 8.07199917617,
			"0.011": 7.68767580309,
			"0.012": 6.35774557566,
			"0.013": 2.82112529884,
			"0.014": 0.186603841473,
			"0.015": 0.0,
			"0.016": 0.0,
			"0.017": 0.0,
			"0.018": 0.0,
			"0.019": 0.0,
			"0.02": 0.0,
			"0.021": 0.0,
			"0.022": 0.0,
			"0.023": 0.0,
			"0.024": 0.0,
			"0.025": 0.0
		}
	}
}
