{
	 "smiles": "NCC1=C(N=CC=C1)N1CCC(CC1)C(N)=O", 
	 "Tm": 403.15, 
	 "num_atms": 35, 
	 "gaussian": { 
		 "optdone": 1, 
		 "sigma_profile": "yes", 
		 "theory": "DFT", 
		 "functional": "B3LYP", 
		 "basiset": "6-31G**", 
		 "properties": { 
			 "R2extent": 4223.0301, 
			 "electric_dipole_moment_norm": 3.43809768477, 
			 "electric_quadrupole_moment_norm": 12.3485517228, 
			 "total_energy": -762.361763529, 
			 "HOMO_LUMO_gap": 0.18828, 
			 "cosmo_polarized_energy": -17.5, 
			 "cosmo_cavitation_energy": 35.08, 
			 "cosmo_dispersion_energy": -24.78, 
			 "cosmo_repulsion_energy": 1.94, 
			 "cosmo_total_nonelectrostatic_energy": 12.24, 
			 "SMD_solvation_energy": 3.79 
		},
		"coords": [
			{
				"x": -0.9355866481,
				"y": -1.1310516074,
				"z": -2.6235572874,
				"element": "N" 
			},
			{
				"x": -0.2871083017,
				"y": -1.7994128988,
				"z": -1.4845099628,
				"element": "C" 
			},
			{
				"x": 0.9218231754,
				"y": -1.0717118345,
				"z": -0.9114881468,
				"element": "C" 
			},
			{
				"x": 0.8726510125,
				"y": 0.266205453,
				"z": -0.4168828305,
				"element": "C" 
			},
			{
				"x": 1.9858244687,
				"y": 0.9711467242,
				"z": -0.1556000561,
				"element": "N" 
			},
			{
				"x": 3.1793300103,
				"y": 0.3837349203,
				"z": -0.2967138699,
				"element": "C" 
			},
			{
				"x": 3.3399958013,
				"y": -0.9409940637,
				"z": -0.6808606634,
				"element": "C" 
			},
			{
				"x": 2.1836357695,
				"y": -1.6554898015,
				"z": -1.004301885,
				"element": "C" 
			},
			{
				"x": -0.3469370134,
				"y": 0.9345852753,
				"z": -0.2438010002,
				"element": "N" 
			},
			{
				"x": -1.4436133497,
				"y": 0.2611939265,
				"z": 0.4924091925,
				"element": "C" 
			},
			{
				"x": -2.1110051274,
				"y": 1.1937200613,
				"z": 1.518697325,
				"element": "C" 
			},
			{
				"x": -1.0955735691,
				"y": 2.0051864965,
				"z": 2.3385315897,
				"element": "C" 
			},
			{
				"x": -0.1329108082,
				"y": 2.8049485817,
				"z": 1.3990105593,
				"element": "C" 
			},
			{
				"x": -0.3111809451,
				"y": 2.3881333809,
				"z": -0.0699944849,
				"element": "C" 
			},
			{
				"x": -0.3587099116,
				"y": 1.0991576721,
				"z": 3.3389783252,
				"element": "C" 
			},
			{
				"x": 0.561952596,
				"y": 1.7329684072,
				"z": 4.1306218302,
				"element": "N" 
			},
			{
				"x": -0.6085072333,
				"y": -0.0919732702,
				"z": 3.4758241264,
				"element": "O" 
			},
			{
				"x": -0.2478418618,
				"y": -1.0095993528,
				"z": -3.3648909273,
				"element": "H" 
			},
			{
				"x": -1.1937088962,
				"y": -0.1871470543,
				"z": -2.3400630935,
				"element": "H" 
			},
			{
				"x": -1.0534915902,
				"y": -1.9785790294,
				"z": -0.7257474834,
				"element": "H" 
			},
			{
				"x": 0.0381521429,
				"y": -2.7906910623,
				"z": -1.8190628706,
				"element": "H" 
			},
			{
				"x": 4.0442511314,
				"y": 1.0092368657,
				"z": -0.0796714529,
				"element": "H" 
			},
			{
				"x": 4.3258059709,
				"y": -1.3874025498,
				"z": -0.7567688058,
				"element": "H" 
			},
			{
				"x": 2.2614600436,
				"y": -2.6764777012,
				"z": -1.3723952196,
				"element": "H" 
			},
			{
				"x": -2.2125431804,
				"y": -0.1124193289,
				"z": -0.1988689832,
				"element": "H" 
			},
			{
				"x": -1.0320957284,
				"y": -0.5917725766,
				"z": 1.0350294742,
				"element": "H" 
			},
			{
				"x": -2.7921965027,
				"y": 1.8887851625,
				"z": 1.015749433,
				"element": "H" 
			},
			{
				"x": -2.7163713647,
				"y": 0.5746635015,
				"z": 2.1856222844,
				"element": "H" 
			},
			{
				"x": -1.652763404,
				"y": 2.7208398004,
				"z": 2.9575026261,
				"element": "H" 
			},
			{
				"x": 0.9117184565,
				"y": 2.6190973754,
				"z": 1.6630418456,
				"element": "H" 
			},
			{
				"x": -0.3106486113,
				"y": 3.8830680591,
				"z": 1.4907841255,
				"element": "H" 
			},
			{
				"x": -1.2469977338,
				"y": 2.7961215684,
				"z": -0.4707936515,
				"element": "H" 
			},
			{
				"x": 0.5073161816,
				"y": 2.7865983843,
				"z": -0.6690942116,
				"element": "H" 
			},
			{
				"x": 0.8853065835,
				"y": 2.6647639873,
				"z": 3.9265129558,
				"element": "H" 
			},
			{
				"x": 1.1304684373,
				"y": 1.1528665278,
				"z": 4.7294511938,
				"element": "H" 
			}
		],
		 "valence_orbital": [ 
			{
				"type": "occ",
				"energy": -0.26528,
				"method": "rhf"
			},
			{
				"type": "occ",
				"energy": -0.25278,
				"method": "rhf"
			},
			{
				"type": "occ",
				"energy": -0.24386,
				"method": "rhf"
			},
			{
				"type": "occ",
				"energy": -0.22707,
				"method": "rhf"
			},
			{
				"type": "occ",
				"energy": -0.19892,
				"method": "rhf"
			},
			{
				"type": "unocc",
				"energy": -0.01064,
				"method": "rhf"
			},
			{
				"type": "unocc",
				"energy": 0.00459,
				"method": "rhf"
			},
			{
				"type": "unocc",
				"energy": 0.02602,
				"method": "rhf"
			},
			{
				"type": "unocc",
				"energy": 0.07385,
				"method": "rhf"
			},
			{
				"type": "unocc",
				"energy": 0.0826,
				"method": "rhf"
			}
		],
		"cosmo_sigma_profile": { 
			"-0.025": 0.0,
			"-0.024": 0.0,
			"-0.023": 0.0,
			"-0.022": 0.0,
			"-0.021": 0.0,
			"-0.02": 0.0,
			"-0.019": 0.0,
			"-0.018": 0.0,
			"-0.017": 0.0,
			"-0.016": 0.0,
			"-0.015": 0.0,
			"-0.014": 0.368448077712,
			"-0.013": 1.99528555146,
			"-0.012": 2.39129419386,
			"-0.011": 2.52911982666,
			"-0.01": 2.53431109751,
			"-0.009": 3.85319763288,
			"-0.008": 3.13596073371,
			"-0.007": 3.65465468662,
			"-0.006": 8.08578748576,
			"-0.005": 16.0699403101,
			"-0.004": 25.1268604086,
			"-0.003": 32.1492958439,
			"-0.002": 28.1102278305,
			"-0.001": 21.8673277485,
			"0.0": 17.9409759612,
			"0.001": 12.7427424088,
			"0.002": 16.3167761133,
			"0.003": 12.2905588119,
			"0.004": 13.2739933164,
			"0.005": 10.3715400394,
			"0.006": 5.67003885765,
			"0.007": 4.24632043055,
			"0.008": 4.36741908095,
			"0.009": 4.09451003505,
			"0.01": 1.83982663255,
			"0.011": 3.02670932293,
			"0.012": 3.29394248307,
			"0.013": 3.78045531798,
			"0.014": 4.77640824863,
			"0.015": 1.10651526925,
			"0.016": 0.679843061719,
			"0.017": 0.549955906357,
			"0.018": 0.740342851821,
			"0.019": 0.653656015035,
			"0.02": 0.419087911655,
			"0.021": 0.0,
			"0.022": 0.0,
			"0.023": 0.0,
			"0.024": 0.0,
			"0.025": 0.0
		}
	}
}
