{
	 "smiles": "COC1=CC(C=C2CCC3=C(C(O)=O)C4=C(C=CC=C4)N=C23)=CC(OC)=C1OC", 
	 "Tm": 520.15, 
	 "num_atms": 50, 
	 "gaussian": { 
		 "optdone": 1, 
		 "sigma_profile": "yes", 
		 "theory": "DFT", 
		 "functional": "B3LYP", 
		 "basiset": "6-31G**", 
		 "properties": { 
			 "R2extent": 18925.2354, 
			 "electric_dipole_moment_norm": 2.9131482815, 
			 "electric_quadrupole_moment_norm": 12.609460224, 
			 "total_energy": -1319.94827269, 
			 "HOMO_LUMO_gap": 0.12085, 
			 "cosmo_polarized_energy": -16.45, 
			 "cosmo_cavitation_energy": 53.35, 
			 "cosmo_dispersion_energy": -37.69, 
			 "cosmo_repulsion_energy": 2.82, 
			 "cosmo_total_nonelectrostatic_energy": 18.48, 
			 "SMD_solvation_energy": 10.2 
		},
		"coords": [
			{
				"x": -1.6870883639,
				"y": 4.7760036909,
				"z": 1.6455741364,
				"element": "C" 
			},
			{
				"x": -0.4724917723,
				"y": 4.0629861092,
				"z": 1.3913401199,
				"element": "O" 
			},
			{
				"x": -0.5227503437,
				"y": 2.704895824,
				"z": 1.5881852393,
				"element": "C" 
			},
			{
				"x": -0.3241246299,
				"y": 1.8647974045,
				"z": 0.4952651935,
				"element": "C" 
			},
			{
				"x": -0.2686128853,
				"y": 0.4641408117,
				"z": 0.639295207,
				"element": "C" 
			},
			{
				"x": -0.0337104621,
				"y": -0.3306869035,
				"z": -0.5629237294,
				"element": "C" 
			},
			{
				"x": 0.2318314879,
				"y": -1.6486906676,
				"z": -0.7074358516,
				"element": "C" 
			},
			{
				"x": 0.3857020394,
				"y": -2.7429781509,
				"z": 0.3316289582,
				"element": "C" 
			},
			{
				"x": 0.9422650359,
				"y": -3.9815210214,
				"z": -0.4261863414,
				"element": "C" 
			},
			{
				"x": 0.8302837827,
				"y": -3.6326016652,
				"z": -1.8935551094,
				"element": "C" 
			},
			{
				"x": 1.0360932173,
				"y": -4.385766329,
				"z": -3.0363436687,
				"element": "C" 
			},
			{
				"x": 1.4001398124,
				"y": -5.8327201403,
				"z": -2.9561723635,
				"element": "C" 
			},
			{
				"x": 1.9749201202,
				"y": -6.1679680491,
				"z": -1.7727171143,
				"element": "O" 
			},
			{
				"x": 1.2235576939,
				"y": -6.6702477774,
				"z": -3.8197111248,
				"element": "O" 
			},
			{
				"x": 0.8653347917,
				"y": -3.7406680717,
				"z": -4.3165239257,
				"element": "C" 
			},
			{
				"x": 0.5074025009,
				"y": -2.3464358646,
				"z": -4.3135288102,
				"element": "C" 
			},
			{
				"x": 0.3543394606,
				"y": -1.656976799,
				"z": -5.5463944705,
				"element": "C" 
			},
			{
				"x": 0.5463919769,
				"y": -2.3051867254,
				"z": -6.7434744634,
				"element": "C" 
			},
			{
				"x": 0.8984823296,
				"y": -3.6743349971,
				"z": -6.7514306961,
				"element": "C" 
			},
			{
				"x": 1.0528589152,
				"y": -4.3760167126,
				"z": -5.5738735678,
				"element": "C" 
			},
			{
				"x": 0.2938699071,
				"y": -1.6317097174,
				"z": -3.1743310647,
				"element": "N" 
			},
			{
				"x": 0.4435225381,
				"y": -2.2620913539,
				"z": -2.0277137232,
				"element": "C" 
			},
			{
				"x": -0.4683478721,
				"y": -0.0729662243,
				"z": 1.9272598745,
				"element": "C" 
			},
			{
				"x": -0.6784661972,
				"y": 0.7592242662,
				"z": 3.0234666328,
				"element": "C" 
			},
			{
				"x": -0.8043258352,
				"y": 0.1870852792,
				"z": 4.2701040399,
				"element": "O" 
			},
			{
				"x": -2.0961925315,
				"y": 0.3186420344,
				"z": 4.8740656151,
				"element": "C" 
			},
			{
				"x": -0.6948437788,
				"y": 2.1575837835,
				"z": 2.8720423031,
				"element": "C" 
			},
			{
				"x": -0.8871049966,
				"y": 2.9841898936,
				"z": 3.9564818163,
				"element": "O" 
			},
			{
				"x": 0.2891140593,
				"y": 3.1771126299,
				"z": 4.7553112026,
				"element": "C" 
			},
			{
				"x": -1.9972680843,
				"y": 4.6783143409,
				"z": 2.6895877868,
				"element": "H" 
			},
			{
				"x": -2.4910610266,
				"y": 4.4221252792,
				"z": 0.9872595085,
				"element": "H" 
			},
			{
				"x": -1.4755510184,
				"y": 5.8234168432,
				"z": 1.4204724656,
				"element": "H" 
			},
			{
				"x": -0.1848011149,
				"y": 2.3225120548,
				"z": -0.4789465436,
				"element": "H" 
			},
			{
				"x": -0.0611420672,
				"y": 0.2310269587,
				"z": -1.4953965658,
				"element": "H" 
			},
			{
				"x": -0.5854246936,
				"y": -2.9801831073,
				"z": 0.7849608263,
				"element": "H" 
			},
			{
				"x": 1.0464043825,
				"y": -2.4416116866,
				"z": 1.1507067929,
				"element": "H" 
			},
			{
				"x": 1.9897165318,
				"y": -4.1674647314,
				"z": -0.1676886766,
				"element": "H" 
			},
			{
				"x": 0.4066787142,
				"y": -4.9009720407,
				"z": -0.176246661,
				"element": "H" 
			},
			{
				"x": 2.1483193094,
				"y": -7.1225313806,
				"z": -1.8341617379,
				"element": "H" 
			},
			{
				"x": 0.0833268344,
				"y": -0.6076915195,
				"z": -5.4946733249,
				"element": "H" 
			},
			{
				"x": 0.4284307938,
				"y": -1.7703923348,
				"z": -7.6814646444,
				"element": "H" 
			},
			{
				"x": 1.0484704509,
				"y": -4.1846256545,
				"z": -7.6985218819,
				"element": "H" 
			},
			{
				"x": 1.3080695177,
				"y": -5.4259809237,
				"z": -5.5974207028,
				"element": "H" 
			},
			{
				"x": -0.4727058098,
				"y": -1.1388033364,
				"z": 2.1085635338,
				"element": "H" 
			},
			{
				"x": -2.033424794,
				"y": -0.1863775933,
				"z": 5.8402595738,
				"element": "H" 
			},
			{
				"x": -2.8632213433,
				"y": -0.1708631604,
				"z": 4.2604383814,
				"element": "H" 
			},
			{
				"x": -2.3621414635,
				"y": 1.3692343011,
				"z": 5.0230470347,
				"element": "H" 
			},
			{
				"x": 1.0839979623,
				"y": 3.6476364117,
				"z": 4.1655229623,
				"element": "H" 
			},
			{
				"x": -0.0000964055,
				"y": 3.841777407,
				"z": 5.5720272192,
				"element": "H" 
			},
			{
				"x": 0.6430733237,
				"y": 2.2245593159,
				"z": 5.1629703396,
				"element": "H" 
			}
		],
		 "valence_orbital": [ 
			{
				"type": "occ",
				"energy": -0.25347,
				"method": "rhf"
			},
			{
				"type": "occ",
				"energy": -0.24694,
				"method": "rhf"
			},
			{
				"type": "occ",
				"energy": -0.23086,
				"method": "rhf"
			},
			{
				"type": "occ",
				"energy": -0.23061,
				"method": "rhf"
			},
			{
				"type": "occ",
				"energy": -0.20111,
				"method": "rhf"
			},
			{
				"type": "unocc",
				"energy": -0.08026,
				"method": "rhf"
			},
			{
				"type": "unocc",
				"energy": -0.03918,
				"method": "rhf"
			},
			{
				"type": "unocc",
				"energy": -0.00466,
				"method": "rhf"
			},
			{
				"type": "unocc",
				"energy": 0.00419,
				"method": "rhf"
			},
			{
				"type": "unocc",
				"energy": 0.00447,
				"method": "rhf"
			}
		],
		"cosmo_sigma_profile": { 
			"-0.025": 0.0,
			"-0.024": 0.0,
			"-0.023": 0.0,
			"-0.022": 0.0,
			"-0.021": 0.0,
			"-0.02": 0.0,
			"-0.019": 0.0674374758223,
			"-0.018": 1.03146286216,
			"-0.017": 0.718007914718,
			"-0.016": 0.758450444771,
			"-0.015": 0.653826194761,
			"-0.014": 0.726632948472,
			"-0.013": 0.748097570665,
			"-0.012": 0.688009931341,
			"-0.011": 0.751499926746,
			"-0.01": 0.886746983177,
			"-0.009": 0.507213375382,
			"-0.008": 0.675922515948,
			"-0.007": 1.62717644127,
			"-0.006": 12.0875509614,
			"-0.005": 26.6376130181,
			"-0.004": 40.9123536219,
			"-0.003": 48.8752511233,
			"-0.002": 40.5382313983,
			"-0.001": 33.1405462714,
			"0.0": 32.8596159821,
			"0.001": 27.4843334012,
			"0.002": 27.969000134,
			"0.003": 34.6282365262,
			"0.004": 34.6504155269,
			"0.005": 14.2812541261,
			"0.006": 7.52010189561,
			"0.007": 7.02095697398,
			"0.008": 6.44722168076,
			"0.009": 5.22936923873,
			"0.01": 5.3785778062,
			"0.011": 7.22644254423,
			"0.012": 2.41347324878,
			"0.013": 0.0180773607095,
			"0.014": 0.0,
			"0.015": 0.0,
			"0.016": 0.0,
			"0.017": 0.0,
			"0.018": 0.0,
			"0.019": 0.0,
			"0.02": 0.0,
			"0.021": 0.0,
			"0.022": 0.0,
			"0.023": 0.0,
			"0.024": 0.0,
			"0.0": 0.0
		}
	}
}
