{
	 "smiles": "CSC1=NC(=CC(=N1)C1CC1)C(O)=O", 
	 "Tm": 409.15, 
	 "num_atms": 24, 
	 "gaussian": { 
		 "optdone": 1, 
		 "sigma_profile": "yes", 
		 "theory": "DFT", 
		 "functional": "B3LYP", 
		 "basiset": "6-31G**", 
		 "properties": { 
			 "R2extent": 3845.9297, 
			 "electric_dipole_moment_norm": 3.20180826097, 
			 "electric_quadrupole_moment_norm": 25.8064345255, 
			 "total_energy": -1007.11743784, 
			 "HOMO_LUMO_gap": 0.16371, 
			 "cosmo_polarized_energy": -12.23, 
			 "cosmo_cavitation_energy": 30.25, 
			 "cosmo_dispersion_energy": -22.13, 
			 "cosmo_repulsion_energy": 1.71, 
			 "cosmo_total_nonelectrostatic_energy": 9.83, 
			 "SMD_solvation_energy": 4.8 
		},
		"coords": [
			{
				"x": 0.797984313,
				"y": -0.5565737552,
				"z": -2.9595606393,
				"element": "C" 
			},
			{
				"x": -0.4031613475,
				"y": 0.419567669,
				"z": -1.9953913319,
				"element": "S" 
			},
			{
				"x": 0.1820808374,
				"y": 0.1938581964,
				"z": -0.339802136,
				"element": "C" 
			},
			{
				"x": 1.2637842637,
				"y": -0.5571186364,
				"z": -0.1042025608,
				"element": "N" 
			},
			{
				"x": 1.6280004511,
				"y": -0.6675119999,
				"z": 1.1868069019,
				"element": "C" 
			},
			{
				"x": 0.9445827353,
				"y": -0.0539215655,
				"z": 2.2209368097,
				"element": "C" 
			},
			{
				"x": -0.1802352531,
				"y": 0.7140769796,
				"z": 1.8652543696,
				"element": "C" 
			},
			{
				"x": -0.5506711901,
				"y": 0.8295219994,
				"z": 0.58156311,
				"element": "N" 
			},
			{
				"x": -0.9880035874,
				"y": 1.414855434,
				"z": 2.8847444263,
				"element": "C" 
			},
			{
				"x": -2.4924236459,
				"y": 1.5516119631,
				"z": 2.6830987058,
				"element": "C" 
			},
			{
				"x": -1.6251209641,
				"y": 2.7563391414,
				"z": 2.542341957,
				"element": "C" 
			},
			{
				"x": 2.8516557198,
				"y": -1.5172769024,
				"z": 1.4529999022,
				"element": "C" 
			},
			{
				"x": 3.3929104932,
				"y": -2.0382213562,
				"z": 0.3425802018,
				"element": "O" 
			},
			{
				"x": 3.29266916,
				"y": -1.7044073944,
				"z": 2.5629542823,
				"element": "O" 
			},
			{
				"x": 0.7699117922,
				"y": -1.6079576423,
				"z": -2.6703332229,
				"element": "H" 
			},
			{
				"x": 1.8080389824,
				"y": -0.162362009,
				"z": -2.8402489894,
				"element": "H" 
			},
			{
				"x": 0.4876767787,
				"y": -0.4562217865,
				"z": -4.0017945118,
				"element": "H" 
			},
			{
				"x": 1.2772668494,
				"y": -0.1733176213,
				"z": 3.2444600423,
				"element": "H" 
			},
			{
				"x": -0.6387757205,
				"y": 1.2827022479,
				"z": 3.9040523661,
				"element": "H" 
			},
			{
				"x": -3.1155664853,
				"y": 1.4497272467,
				"z": 3.5659344075,
				"element": "H" 
			},
			{
				"x": -2.8911832746,
				"y": 1.1122108528,
				"z": 1.7748127955,
				"element": "H" 
			},
			{
				"x": -1.6336526799,
				"y": 3.5077256881,
				"z": 3.3255868942,
				"element": "H" 
			},
			{
				"x": -1.4407566806,
				"y": 3.1272738726,
				"z": 1.5396203187,
				"element": "H" 
			},
			{
				"x": 2.8388884528,
				"y": -1.7270806217,
				"z": -0.4034140985,
				"element": "H" 
			}
		],
		 "valence_orbital": [ 
			{
				"type": "occ",
				"energy": -0.31424,
				"method": "rhf"
			},
			{
				"type": "occ",
				"energy": -0.29013,
				"method": "rhf"
			},
			{
				"type": "occ",
				"energy": -0.28319,
				"method": "rhf"
			},
			{
				"type": "occ",
				"energy": -0.27089,
				"method": "rhf"
			},
			{
				"type": "occ",
				"energy": -0.24299,
				"method": "rhf"
			},
			{
				"type": "unocc",
				"energy": -0.07928,
				"method": "rhf"
			},
			{
				"type": "unocc",
				"energy": -0.04082,
				"method": "rhf"
			},
			{
				"type": "unocc",
				"energy": 0.02486,
				"method": "rhf"
			},
			{
				"type": "unocc",
				"energy": 0.03579,
				"method": "rhf"
			},
			{
				"type": "unocc",
				"energy": 0.07374,
				"method": "rhf"
			}
		],
		"cosmo_sigma_profile": { 
			"-0.025": 0.0,
			"-0.024": 0.0,
			"-0.023": 0.0,
			"-0.022": 0.0,
			"-0.021": 0.0,
			"-0.02": 0.0,
			"-0.019": 0.0,
			"-0.018": 0.0,
			"-0.017": 0.0,
			"-0.016": 0.0,
			"-0.015": 0.0,
			"-0.014": 0.0,
			"-0.013": 0.0,
			"-0.012": 0.319840502061,
			"-0.011": 0.71777970993,
			"-0.01": 0.543991765116,
			"-0.009": 0.901934746924,
			"-0.008": 3.26288973305,
			"-0.007": 5.75695936661,
			"-0.006": 12.7858882684,
			"-0.005": 18.0578761426,
			"-0.004": 20.8613420567,
			"-0.003": 20.9235067636,
			"-0.002": 23.7270199904,
			"-0.001": 23.4640702494,
			"0.0": 17.363310234,
			"0.001": 16.5428437293,
			"0.002": 11.552621495,
			"0.003": 9.63092306256,
			"0.004": 10.8200653969,
			"0.005": 8.61326979635,
			"0.006": 7.24529399775,
			"0.007": 7.07307254774,
			"0.008": 4.29331089136,
			"0.009": 5.90769076672,
			"0.01": 5.08447110675,
			"0.011": 5.06330905414,
			"0.012": 2.47704989777,
			"0.013": 0.357097258842,
			"0.014": 0.0,
			"0.015": 0.0,
			"0.016": 0.0,
			"0.017": 0.0,
			"0.018": 0.0,
			"0.019": 0.0,
			"0.02": 0.0,
			"0.021": 0.0,
			"0.022": 0.0,
			"0.023": 0.0,
			"0.024": 0.0,
			"0.025": 0.0
		}
	}
}
