{
	 "smiles": "CCCCCCCCCC[Si](OC)(OC)OC", 
	 "Tm": 236.15, 
	 "num_atms": 47, 
	 "gaussian": { 
		 "optdone": 1, 
		 "sigma_profile": "yes", 
		 "theory": "DFT", 
		 "functional": "B3LYP", 
		 "basiset": "6-31G**", 
		 "properties": { 
			 "R2extent": 6306.1226, 
			 "electric_dipole_moment_norm": 1.30288709027, 
			 "electric_quadrupole_moment_norm": 8.09992704905, 
			 "total_energy": -1028.76505109, 
			 "HOMO_LUMO_gap": 0.32405, 
			 "cosmo_polarized_energy": -8.67, 
			 "cosmo_cavitation_energy": 47.88, 
			 "cosmo_dispersion_energy": -28.55, 
			 "cosmo_repulsion_energy": 2.33, 
			 "cosmo_total_nonelectrostatic_energy": 21.66, 
			 "SMD_solvation_energy": 8.11 
		},
		"coords": [
			{
				"x": 2.3361012617,
				"y": -2.2629585917,
				"z": -2.8714636124,
				"element": "C" 
			},
			{
				"x": 1.6064216762,
				"y": -2.9351555373,
				"z": -1.7001378163,
				"element": "C" 
			},
			{
				"x": 2.4950957935,
				"y": -3.2258650412,
				"z": -0.4674684392,
				"element": "C" 
			},
			{
				"x": 2.4643767453,
				"y": -2.1614790341,
				"z": 0.6441956809,
				"element": "C" 
			},
			{
				"x": 3.0058003035,
				"y": -0.7773017959,
				"z": 0.2518522863,
				"element": "C" 
			},
			{
				"x": 3.0494640005,
				"y": 0.257928234,
				"z": 1.3989309259,
				"element": "C" 
			},
			{
				"x": 1.7911849844,
				"y": 1.1286340998,
				"z": 1.5782058077,
				"element": "C" 
			},
			{
				"x": 0.5155435346,
				"y": 0.3829177252,
				"z": 1.9970140652,
				"element": "C" 
			},
			{
				"x": -0.6682732955,
				"y": 1.3030975918,
				"z": 2.3449477184,
				"element": "C" 
			},
			{
				"x": -1.2866135606,
				"y": 2.0774142744,
				"z": 1.1584417657,
				"element": "C" 
			},
			{
				"x": -2.1290084547,
				"y": 1.0366620704,
				"z": -0.156818998,
				"element": "Si" 
			},
			{
				"x": -3.0213432161,
				"y": -0.2077550062,
				"z": 0.47287751,
				"element": "O" 
			},
			{
				"x": -4.1310421532,
				"y": -0.017541807,
				"z": 1.3371251217,
				"element": "C" 
			},
			{
				"x": -3.0811396035,
				"y": 2.1014397902,
				"z": -1.0048503297,
				"element": "O" 
			},
			{
				"x": -3.9036237384,
				"y": 1.7090938531,
				"z": -2.0982446756,
				"element": "C" 
			},
			{
				"x": -1.0901825405,
				"y": 0.2364688886,
				"z": -1.1725998353,
				"element": "O" 
			},
			{
				"x": -0.2413663843,
				"y": 0.9095938226,
				"z": -2.0915102926,
				"element": "C" 
			},
			{
				"x": 3.1595539275,
				"y": -2.8911960028,
				"z": -3.2308995584,
				"element": "H" 
			},
			{
				"x": 1.6582541518,
				"y": -2.0955708392,
				"z": -3.7163012532,
				"element": "H" 
			},
			{
				"x": 2.7644000133,
				"y": -1.2954778897,
				"z": -2.5914503828,
				"element": "H" 
			},
			{
				"x": 1.1826979371,
				"y": -3.879544696,
				"z": -2.0637538724,
				"element": "H" 
			},
			{
				"x": 0.7476278618,
				"y": -2.3214136138,
				"z": -1.3967624993,
				"element": "H" 
			},
			{
				"x": 3.5326225279,
				"y": -3.3854294801,
				"z": -0.795292465,
				"element": "H" 
			},
			{
				"x": 2.1771115918,
				"y": -4.1749097743,
				"z": -0.017950884,
				"element": "H" 
			},
			{
				"x": 1.4347286413,
				"y": -2.0716000189,
				"z": 1.0095489558,
				"element": "H" 
			},
			{
				"x": 3.0538909415,
				"y": -2.5319817095,
				"z": 1.4947801883,
				"element": "H" 
			},
			{
				"x": 4.0226692357,
				"y": -0.9119408143,
				"z": -0.1416014712,
				"element": "H" 
			},
			{
				"x": 2.4160338754,
				"y": -0.3640811863,
				"z": -0.5763564182,
				"element": "H" 
			},
			{
				"x": 3.8926902683,
				"y": 0.9377618252,
				"z": 1.2223566459,
				"element": "H" 
			},
			{
				"x": 3.2748667387,
				"y": -0.2555325336,
				"z": 2.3447410408,
				"element": "H" 
			},
			{
				"x": 2.0104526775,
				"y": 1.8947382712,
				"z": 2.33592138,
				"element": "H" 
			},
			{
				"x": 1.6116426052,
				"y": 1.676391736,
				"z": 0.642720712,
				"element": "H" 
			},
			{
				"x": 0.2113863103,
				"y": -0.3124932209,
				"z": 1.2069518577,
				"element": "H" 
			},
			{
				"x": 0.7436880239,
				"y": -0.2318698821,
				"z": 2.8784203399,
				"element": "H" 
			},
			{
				"x": -0.3429132711,
				"y": 2.0219547179,
				"z": 3.110071053,
				"element": "H" 
			},
			{
				"x": -1.4498753945,
				"y": 0.6950736983,
				"z": 2.8167995881,
				"element": "H" 
			},
			{
				"x": -2.0449473634,
				"y": 2.7760529208,
				"z": 1.536216001,
				"element": "H" 
			},
			{
				"x": -0.5329810338,
				"y": 2.7139379885,
				"z": 0.6767964,
				"element": "H" 
			},
			{
				"x": -3.8285121491,
				"y": 0.4116021967,
				"z": 2.301762604,
				"element": "H" 
			},
			{
				"x": -4.8897009604,
				"y": 0.6389539555,
				"z": 0.8914777522,
				"element": "H" 
			},
			{
				"x": -4.586376726,
				"y": -0.9940595714,
				"z": 1.5256255063,
				"element": "H" 
			},
			{
				"x": -4.4071273612,
				"y": 2.6004596802,
				"z": -2.483443272,
				"element": "H" 
			},
			{
				"x": -3.3144740048,
				"y": 1.2619107757,
				"z": -2.9084953272,
				"element": "H" 
			},
			{
				"x": -4.6650463538,
				"y": 0.9825364888,
				"z": -1.7888576414,
				"element": "H" 
			},
			{
				"x": -0.8018737415,
				"y": 1.5939924762,
				"z": -2.7411386607,
				"element": "H" 
			},
			{
				"x": 0.246922477,
				"y": 0.1573067003,
				"z": -2.7167455078,
				"element": "H" 
			},
			{
				"x": 0.5385932004,
				"y": 1.4861342653,
				"z": -1.5766376942,
				"element": "H" 
			}
		],
		 "valence_orbital": [ 
			{
				"type": "occ",
				"energy": -0.2918,
				"method": "rhf"
			},
			{
				"type": "occ",
				"energy": -0.28803,
				"method": "rhf"
			},
			{
				"type": "occ",
				"energy": -0.28432,
				"method": "rhf"
			},
			{
				"type": "occ",
				"energy": -0.27338,
				"method": "rhf"
			},
			{
				"type": "occ",
				"energy": -0.26985,
				"method": "rhf"
			},
			{
				"type": "unocc",
				"energy": 0.0542,
				"method": "rhf"
			},
			{
				"type": "unocc",
				"energy": 0.07049,
				"method": "rhf"
			},
			{
				"type": "unocc",
				"energy": 0.08048,
				"method": "rhf"
			},
			{
				"type": "unocc",
				"energy": 0.08888,
				"method": "rhf"
			},
			{
				"type": "unocc",
				"energy": 0.09575,
				"method": "rhf"
			}
		],
		"cosmo_sigma_profile": { 
			"-0.025": 0.0,
			"-0.024": 0.0,
			"-0.023": 0.0,
			"-0.022": 0.0,
			"-0.021": 0.0,
			"-0.02": 0.0,
			"-0.019": 0.0,
			"-0.018": 0.0,
			"-0.017": 0.0,
			"-0.016": 0.0,
			"-0.015": 0.0,
			"-0.014": 0.0,
			"-0.013": 0.0,
			"-0.012": 0.0,
			"-0.011": 0.0,
			"-0.01": 0.0,
			"-0.009": 0.0,
			"-0.008": 0.0,
			"-0.007": 0.0,
			"-0.006": 0.0100827599917,
			"-0.005": 4.79775955083,
			"-0.004": 25.1877824854,
			"-0.003": 37.0326648101,
			"-0.002": 57.5262243964,
			"-0.001": 60.455042597,
			"0.0": 62.8033426815,
			"0.001": 54.3313433348,
			"0.002": 24.259663896,
			"0.003": 6.52983294256,
			"0.004": 4.84186416231,
			"0.005": 3.70405371394,
			"0.006": 2.81569257166,
			"0.007": 2.78804102101,
			"0.008": 2.92151567419,
			"0.009": 2.43740673841,
			"0.01": 2.45260088075,
			"0.011": 2.48958314106,
			"0.012": 2.3804416525,
			"0.013": 3.10482623499,
			"0.014": 2.35128316682,
			"0.015": 0.34404210165,
			"0.016": 0.0,
			"0.017": 0.0,
			"0.018": 0.0,
			"0.019": 0.0,
			"0.02": 0.0,
			"0.021": 0.0,
			"0.022": 0.0,
			"0.023": 0.0,
			"0.024": 0.0,
			"0.025": 0.0
		}
	}
}
