{
	 "smiles": "N(C1=C(C=CC=C1)N=CC1=CC=CC=C1)C1=C(C=CC=C1)N=CC1=CC=CC=C1", 
	 "Tm": 376.15, 
	 "num_atms": 50, 
	 "gaussian": { 
		 "optdone": 1, 
		 "sigma_profile": "yes", 
		 "theory": "DFT", 
		 "functional": "B3LYP", 
		 "basiset": "6-31G**", 
		 "properties": { 
			 "R2extent": 13808.4507, 
			 "electric_dipole_moment_norm": 2.72835626156, 
			 "electric_quadrupole_moment_norm": 11.0064024095, 
			 "total_energy": -1167.66642115, 
			 "HOMO_LUMO_gap": 0.12218, 
			 "cosmo_polarized_energy": -13.6, 
			 "cosmo_cavitation_energy": 55.25, 
			 "cosmo_dispersion_energy": -36.69, 
			 "cosmo_repulsion_energy": 2.81, 
			 "cosmo_total_nonelectrostatic_energy": 21.36, 
			 "SMD_solvation_energy": 7.91 
		},
		"coords": [
			{
				"x": 1.648163537,
				"y": 0.5036196101,
				"z": 0.7749174831,
				"element": "N" 
			},
			{
				"x": 2.6809377027,
				"y": -0.3333592959,
				"z": 1.2661994406,
				"element": "C" 
			},
			{
				"x": 2.7141888832,
				"y": -1.7211683758,
				"z": 0.9847072714,
				"element": "C" 
			},
			{
				"x": 3.7731036867,
				"y": -2.4913760913,
				"z": 1.4897400448,
				"element": "C" 
			},
			{
				"x": 4.737433233,
				"y": -1.9357866994,
				"z": 2.3258540586,
				"element": "C" 
			},
			{
				"x": 4.6821355427,
				"y": -0.5760628883,
				"z": 2.63837612,
				"element": "C" 
			},
			{
				"x": 3.673352708,
				"y": 0.2143066509,
				"z": 2.0918790878,
				"element": "C" 
			},
			{
				"x": 1.768734764,
				"y": -2.3728478396,
				"z": 0.1668511223,
				"element": "N" 
			},
			{
				"x": 0.5255962198,
				"y": -2.3202687715,
				"z": 0.4668441361,
				"element": "C" 
			},
			{
				"x": -0.5103750434,
				"y": -2.9672148986,
				"z": -0.3498990609,
				"element": "C" 
			},
			{
				"x": -0.1881178583,
				"y": -3.664115703,
				"z": -1.5273672828,
				"element": "C" 
			},
			{
				"x": -1.1901643025,
				"y": -4.2697133066,
				"z": -2.2773865543,
				"element": "C" 
			},
			{
				"x": -2.5257961957,
				"y": -4.1885529269,
				"z": -1.8654045136,
				"element": "C" 
			},
			{
				"x": -2.8551020041,
				"y": -3.497912295,
				"z": -0.698065575,
				"element": "C" 
			},
			{
				"x": -1.8512189086,
				"y": -2.8904110436,
				"z": 0.0555882605,
				"element": "C" 
			},
			{
				"x": 1.4741944789,
				"y": 0.8806616241,
				"z": -0.5535400426,
				"element": "C" 
			},
			{
				"x": 0.592874728,
				"y": 1.9706842848,
				"z": -0.8097872014,
				"element": "C" 
			},
			{
				"x": 0.3759597982,
				"y": 2.3850491955,
				"z": -2.1321054966,
				"element": "C" 
			},
			{
				"x": 0.9910075117,
				"y": 1.7344923521,
				"z": -3.1984932536,
				"element": "C" 
			},
			{
				"x": 1.8450790647,
				"y": 0.6589371127,
				"z": -2.9407059541,
				"element": "C" 
			},
			{
				"x": 2.0936844164,
				"y": 0.2375551448,
				"z": -1.6362070421,
				"element": "C" 
			},
			{
				"x": 0.0585611487,
				"y": 2.6135172776,
				"z": 0.3171711423,
				"element": "N" 
			},
			{
				"x": -1.0753669705,
				"y": 3.2132739401,
				"z": 0.2751364165,
				"element": "C" 
			},
			{
				"x": -1.6283586456,
				"y": 3.9581050674,
				"z": 1.4108060208,
				"element": "C" 
			},
			{
				"x": -0.9080996229,
				"y": 4.133696849,
				"z": 2.6064620762,
				"element": "C" 
			},
			{
				"x": -1.4670585205,
				"y": 4.8398254668,
				"z": 3.6657827096,
				"element": "C" 
			},
			{
				"x": -2.7507803956,
				"y": 5.3863893193,
				"z": 3.5507182788,
				"element": "C" 
			},
			{
				"x": -3.4725773664,
				"y": 5.2224289682,
				"z": 2.3671852985,
				"element": "C" 
			},
			{
				"x": -2.9139870572,
				"y": 4.5137348914,
				"z": 1.3045333825,
				"element": "C" 
			},
			{
				"x": 1.3290368563,
				"y": 1.232069174,
				"z": 1.4052623345,
				"element": "H" 
			},
			{
				"x": 3.7977213324,
				"y": -3.5458371025,
				"z": 1.2326751219,
				"element": "H" 
			},
			{
				"x": 5.5304817152,
				"y": -2.5604327329,
				"z": 2.7261585742,
				"element": "H" 
			},
			{
				"x": 5.4326996578,
				"y": -0.1268438102,
				"z": 3.2818375224,
				"element": "H" 
			},
			{
				"x": 3.6449006004,
				"y": 1.2819076417,
				"z": 2.2940080039,
				"element": "H" 
			},
			{
				"x": 0.1675960953,
				"y": -1.7920315211,
				"z": 1.3602629988,
				"element": "H" 
			},
			{
				"x": 0.852324855,
				"y": -3.7143905157,
				"z": -1.8304951225,
				"element": "H" 
			},
			{
				"x": -0.9356540805,
				"y": -4.806739648,
				"z": -3.1867277168,
				"element": "H" 
			},
			{
				"x": -3.3056745889,
				"y": -4.6626300492,
				"z": -2.4546739114,
				"element": "H" 
			},
			{
				"x": -3.8903555137,
				"y": -3.4325259902,
				"z": -0.3761829818,
				"element": "H" 
			},
			{
				"x": -2.1034412062,
				"y": -2.3503168967,
				"z": 0.9650318148,
				"element": "H" 
			},
			{
				"x": -0.246222337,
				"y": 3.2564880439,
				"z": -2.314523495,
				"element": "H" 
			},
			{
				"x": 0.8233764589,
				"y": 2.0752019166,
				"z": -4.2154368722,
				"element": "H" 
			},
			{
				"x": 2.3403681072,
				"y": 0.1499152667,
				"z": -3.7628238609,
				"element": "H" 
			},
			{
				"x": 2.7669963394,
				"y": -0.5905472984,
				"z": -1.4534104469,
				"element": "H" 
			},
			{
				"x": -1.7048391289,
				"y": 3.1893003128,
				"z": -0.6256953817,
				"element": "H" 
			},
			{
				"x": 0.0888158185,
				"y": 3.7123085915,
				"z": 2.6794397805,
				"element": "H" 
			},
			{
				"x": -0.9031027089,
				"y": 4.9709485241,
				"z": 4.5849794113,
				"element": "H" 
			},
			{
				"x": -3.1827772059,
				"y": 5.9395611401,
				"z": 4.3797315193,
				"element": "H" 
			},
			{
				"x": -4.4681366278,
				"y": 5.6461180708,
				"z": 2.2722280558,
				"element": "H" 
			},
			{
				"x": -3.4752189709,
				"y": 4.3847892636,
				"z": 0.3820642785,
				"element": "H" 
			}
		],
		 "valence_orbital": [ 
			{
				"type": "occ",
				"energy": -0.24491,
				"method": "rhf"
			},
			{
				"type": "occ",
				"energy": -0.24289,
				"method": "rhf"
			},
			{
				"type": "occ",
				"energy": -0.22271,
				"method": "rhf"
			},
			{
				"type": "occ",
				"energy": -0.21678,
				"method": "rhf"
			},
			{
				"type": "occ",
				"energy": -0.18157,
				"method": "rhf"
			},
			{
				"type": "unocc",
				"energy": -0.05939,
				"method": "rhf"
			},
			{
				"type": "unocc",
				"energy": -0.05149,
				"method": "rhf"
			},
			{
				"type": "unocc",
				"energy": -0.00634,
				"method": "rhf"
			},
			{
				"type": "unocc",
				"energy": -0.00242,
				"method": "rhf"
			},
			{
				"type": "unocc",
				"energy": -0.0006,
				"method": "rhf"
			}
		],
		"cosmo_sigma_profile": { 
			"-0.025": 0.0,
			"-0.024": 0.0,
			"-0.023": 0.0,
			"-0.022": 0.0,
			"-0.021": 0.0,
			"-0.02": 0.0,
			"-0.019": 0.0,
			"-0.018": 0.0,
			"-0.017": 0.0,
			"-0.016": 0.0,
			"-0.015": 0.0,
			"-0.014": 0.0,
			"-0.013": 0.0,
			"-0.012": 0.0,
			"-0.011": 0.0,
			"-0.01": 0.0637453206569,
			"-0.009": 0.616513935719,
			"-0.008": 1.34125993934,
			"-0.007": 7.48878920478,
			"-0.006": 26.9732119663,
			"-0.005": 36.9393199523,
			"-0.004": 39.3997806399,
			"-0.003": 33.9483808353,
			"-0.002": 29.5914364283,
			"-0.001": 28.1602675983,
			"0.0": 26.1583046121,
			"0.001": 29.6283152261,
			"0.002": 34.4941037624,
			"0.003": 38.9967434316,
			"0.004": 47.8555541709,
			"0.005": 36.6739064033,
			"0.006": 16.0638890648,
			"0.007": 5.23289212969,
			"0.008": 1.67336039793,
			"0.009": 1.31734285152,
			"0.01": 0.420122842086,
			"0.011": 0.612717487837,
			"0.012": 0.283087104735,
			"0.013": 0.0,
			"0.014": 0.0,
			"0.015": 0.0,
			"0.016": 0.0,
			"0.017": 0.0,
			"0.018": 0.0,
			"0.019": 0.0,
			"0.02": 0.0,
			"0.021": 0.0,
			"0.022": 0.0,
			"0.023": 0.0,
			"0.024": 0.0,
			"0.025": 0.0
		}
	}
}
