{
	 "smiles": "FC(F)(F)C1=C(CC#N)C=C(Cl)C=C1", 
	 "Tm": 335.15, 
	 "num_atms": 19, 
	 "gaussian": { 
		 "optdone": 1, 
		 "sigma_profile": "yes", 
		 "theory": "DFT", 
		 "functional": "B3LYP", 
		 "basiset": "6-31G**", 
		 "properties": { 
			 "R2extent": 4020.3495, 
			 "electric_dipole_moment_norm": 3.94517338022, 
			 "electric_quadrupole_moment_norm": 17.3267857818, 
			 "total_energy": -1160.42347796, 
			 "HOMO_LUMO_gap": 0.22062, 
			 "cosmo_polarized_energy": -10.89, 
			 "cosmo_cavitation_energy": 27.39, 
			 "cosmo_dispersion_energy": -19.0, 
			 "cosmo_repulsion_energy": 1.44, 
			 "cosmo_total_nonelectrostatic_energy": 9.83, 
			 "SMD_solvation_energy": 6.74 
		},
		"coords": [
			{
				"x": -1.1605892558,
				"y": 4.0664830042,
				"z": 1.0561153018,
				"element": "F" 
			},
			{
				"x": -0.49294163,
				"y": 3.2568678617,
				"z": 0.2129134479,
				"element": "C" 
			},
			{
				"x": 0.8324980663,
				"y": 3.4874448569,
				"z": 0.4056899476,
				"element": "F" 
			},
			{
				"x": -0.7743491454,
				"y": 3.6601472155,
				"z": -1.0456180676,
				"element": "F" 
			},
			{
				"x": -0.8350969268,
				"y": 1.8028372072,
				"z": 0.4256701968,
				"element": "C" 
			},
			{
				"x": -0.294848102,
				"y": 0.8057876149,
				"z": -0.4072852345,
				"element": "C" 
			},
			{
				"x": 0.6359574142,
				"y": 1.1217798469,
				"z": -1.5755874197,
				"element": "C" 
			},
			{
				"x": -0.089189895,
				"y": 1.2851957306,
				"z": -2.8421547719,
				"element": "C" 
			},
			{
				"x": -0.6616179133,
				"y": 1.3955170813,
				"z": -3.8451906475,
				"element": "N" 
			},
			{
				"x": -0.6283784726,
				"y": -0.5287053929,
				"z": -0.1668274007,
				"element": "C" 
			},
			{
				"x": -1.4822209383,
				"y": -0.8625628176,
				"z": 0.8839673994,
				"element": "C" 
			},
			{
				"x": -1.8783277326,
				"y": -2.5449125337,
				"z": 1.1636343681,
				"element": "Cl" 
			},
			{
				"x": -2.0186867825,
				"y": 0.1194240342,
				"z": 1.7129093106,
				"element": "C" 
			},
			{
				"x": -1.6869752567,
				"y": 1.4510495064,
				"z": 1.4750180295,
				"element": "C" 
			},
			{
				"x": 1.218246048,
				"y": 2.02620968,
				"z": -1.3864201064,
				"element": "H" 
			},
			{
				"x": 1.3524783748,
				"y": 0.3026297031,
				"z": -1.7000118405,
				"element": "H" 
			},
			{
				"x": -0.2253636619,
				"y": -1.3119919468,
				"z": -0.8000218475,
				"element": "H" 
			},
			{
				"x": -2.6800390326,
				"y": -0.1512785888,
				"z": 2.5277307174,
				"element": "H" 
			},
			{
				"x": -2.094955158,
				"y": 2.227477937,
				"z": 2.1109686173,
				"element": "H" 
			}
		],
		 "valence_orbital": [ 
			{
				"type": "occ",
				"energy": -0.33618,
				"method": "rhf"
			},
			{
				"type": "occ",
				"energy": -0.33018,
				"method": "rhf"
			},
			{
				"type": "occ",
				"energy": -0.3292,
				"method": "rhf"
			},
			{
				"type": "occ",
				"energy": -0.28992,
				"method": "rhf"
			},
			{
				"type": "occ",
				"energy": -0.27545,
				"method": "rhf"
			},
			{
				"type": "unocc",
				"energy": -0.05483,
				"method": "rhf"
			},
			{
				"type": "unocc",
				"energy": -0.04518,
				"method": "rhf"
			},
			{
				"type": "unocc",
				"energy": 0.00769,
				"method": "rhf"
			},
			{
				"type": "unocc",
				"energy": 0.03483,
				"method": "rhf"
			},
			{
				"type": "unocc",
				"energy": 0.03541,
				"method": "rhf"
			}
		],
		"cosmo_sigma_profile": { 
			"-0.025": 0.0,
			"-0.024": 0.0,
			"-0.023": 0.0,
			"-0.022": 0.0,
			"-0.021": 0.0,
			"-0.02": 0.0,
			"-0.019": 0.0,
			"-0.018": 0.0,
			"-0.017": 0.0,
			"-0.016": 0.0,
			"-0.015": 0.0,
			"-0.014": 0.0,
			"-0.013": 0.0,
			"-0.012": 0.0,
			"-0.011": 0.46833915973,
			"-0.01": 3.41206642889,
			"-0.009": 5.02682251463,
			"-0.008": 7.92501290302,
			"-0.007": 9.73491073463,
			"-0.006": 8.31038272695,
			"-0.005": 7.16218660722,
			"-0.004": 8.87588412396,
			"-0.003": 10.450464058,
			"-0.002": 11.298171369,
			"-0.001": 16.972675039,
			"0.0": 23.7423127094,
			"0.001": 24.9415780455,
			"0.002": 29.7224796643,
			"0.003": 19.9420167285,
			"0.004": 10.8117310488,
			"0.005": 3.36070570921,
			"0.006": 2.41729619482,
			"0.007": 2.7497525142,
			"0.008": 3.36511265938,
			"0.009": 3.2488030731,
			"0.01": 3.18919068426,
			"0.011": 2.69508630837,
			"0.012": 2.42108363565,
			"0.013": 1.43744289041,
			"0.014": 0.044439748983,
			"0.015": 0.0,
			"0.016": 0.0,
			"0.017": 0.0,
			"0.018": 0.0,
			"0.019": 0.0,
			"0.02": 0.0,
			"0.021": 0.0,
			"0.022": 0.0,
			"0.023": 0.0,
			"0.024": 0.0,
			"0.025": 0.0
		}
	}
}
