{
	 "smiles": "CCN(CC)C1=CC=C(C=C2SC(=S)NC2=O)C=C1", 
	 "Tm": 436.15, 
	 "num_atms": 35, 
	 "gaussian": { 
		 "optdone": 1, 
		 "sigma_profile": "yes", 
		 "theory": "DFT", 
		 "functional": "B3LYP", 
		 "basiset": "6-31G**", 
		 "properties": { 
			 "R2extent": 13054.9135, 
			 "electric_dipole_moment_norm": 8.74441569746, 
			 "electric_quadrupole_moment_norm": 24.6886977972, 
			 "total_energy": -1524.25052793, 
			 "HOMO_LUMO_gap": 0.116, 
			 "cosmo_polarized_energy": -15.84, 
			 "cosmo_cavitation_energy": 41.11, 
			 "cosmo_dispersion_energy": -30.67, 
			 "cosmo_repulsion_energy": 2.25, 
			 "cosmo_total_nonelectrostatic_energy": 12.69, 
			 "SMD_solvation_energy": 5.89 
		},
		"coords": [
			{
				"x": 0.6402354024,
				"y": -0.1212496337,
				"z": 4.0619412964,
				"element": "C" 
			},
			{
				"x": -0.5330011618,
				"y": -0.8427165923,
				"z": 3.3861286987,
				"element": "C" 
			},
			{
				"x": -0.2478568308,
				"y": -1.3608958267,
				"z": 2.0419324567,
				"element": "N" 
			},
			{
				"x": 0.0086911559,
				"y": -2.7995145313,
				"z": 1.9356805531,
				"element": "C" 
			},
			{
				"x": 1.1058810548,
				"y": -3.3084148163,
				"z": 2.8756439225,
				"element": "C" 
			},
			{
				"x": -0.5654105489,
				"y": -0.6007481828,
				"z": 0.929934441,
				"element": "C" 
			},
			{
				"x": -0.7260259408,
				"y": -1.1595609861,
				"z": -0.3643610843,
				"element": "C" 
			},
			{
				"x": -1.0258191397,
				"y": -0.363075103,
				"z": -1.4548662453,
				"element": "C" 
			},
			{
				"x": -1.1989305008,
				"y": 1.0345603758,
				"z": -1.3511525071,
				"element": "C" 
			},
			{
				"x": -1.5116656377,
				"y": 1.7764873561,
				"z": -2.5474893363,
				"element": "C" 
			},
			{
				"x": -1.7317369396,
				"y": 3.0982454743,
				"z": -2.7706910215,
				"element": "C" 
			},
			{
				"x": -1.7175632298,
				"y": 4.4650987348,
				"z": -1.6372011685,
				"element": "S" 
			},
			{
				"x": -2.1050732492,
				"y": 5.6383821236,
				"z": -2.9141778978,
				"element": "C" 
			},
			{
				"x": -2.2856673985,
				"y": 7.2586214681,
				"z": -2.6790003759,
				"element": "S" 
			},
			{
				"x": -2.2235251348,
				"y": 4.9701152236,
				"z": -4.0998247504,
				"element": "N" 
			},
			{
				"x": -2.0392142009,
				"y": 3.57737827,
				"z": -4.1362395707,
				"element": "C" 
			},
			{
				"x": -2.1301385328,
				"y": 2.9194993128,
				"z": -5.1574991424,
				"element": "O" 
			},
			{
				"x": -1.0513297587,
				"y": 1.587499701,
				"z": -0.0596364015,
				"element": "C" 
			},
			{
				"x": -0.74678467,
				"y": 0.8047552659,
				"z": 1.0388881364,
				"element": "C" 
			},
			{
				"x": 1.4916567785,
				"y": -0.7914878737,
				"z": 4.2040432392,
				"element": "H" 
			},
			{
				"x": 0.984306167,
				"y": 0.7289157927,
				"z": 3.4665433718,
				"element": "H" 
			},
			{
				"x": 0.3335604234,
				"y": 0.2534630767,
				"z": 5.0446029983,
				"element": "H" 
			},
			{
				"x": -1.3999600349,
				"y": -0.1759882165,
				"z": 3.3294569448,
				"element": "H" 
			},
			{
				"x": -0.8485666178,
				"y": -1.6885551977,
				"z": 4.0066952788,
				"element": "H" 
			},
			{
				"x": 0.328215178,
				"y": -3.0148327687,
				"z": 0.9166025621,
				"element": "H" 
			},
			{
				"x": -0.9195132733,
				"y": -3.3687323207,
				"z": 2.1084228877,
				"element": "H" 
			},
			{
				"x": 1.2598826447,
				"y": -4.3778165552,
				"z": 2.6998437269,
				"element": "H" 
			},
			{
				"x": 0.8489518746,
				"y": -3.186230659,
				"z": 3.9314049282,
				"element": "H" 
			},
			{
				"x": 2.051642171,
				"y": -2.7915707625,
				"z": 2.6883997892,
				"element": "H" 
			},
			{
				"x": -0.6478023518,
				"y": -2.2273128394,
				"z": -0.5213473117,
				"element": "H" 
			},
			{
				"x": -1.1473290156,
				"y": -0.8349022247,
				"z": -2.4266117003,
				"element": "H" 
			},
			{
				"x": -1.5916360262,
				"y": 1.1845646538,
				"z": -3.4591848322,
				"element": "H" 
			},
			{
				"x": -2.4434746773,
				"y": 5.4765033566,
				"z": -4.9487653515,
				"element": "H" 
			},
			{
				"x": -1.1667450999,
				"y": 2.6540463755,
				"z": 0.0987705713,
				"element": "H" 
			},
			{
				"x": -0.6233528786,
				"y": 1.295768529,
				"z": 1.9954128943,
				"element": "H" 
			}
		],
		 "valence_orbital": [ 
			{
				"type": "occ",
				"energy": -0.26606,
				"method": "rhf"
			},
			{
				"type": "occ",
				"energy": -0.26184,
				"method": "rhf"
			},
			{
				"type": "occ",
				"energy": -0.23934,
				"method": "rhf"
			},
			{
				"type": "occ",
				"energy": -0.22419,
				"method": "rhf"
			},
			{
				"type": "occ",
				"energy": -0.19779,
				"method": "rhf"
			},
			{
				"type": "unocc",
				"energy": -0.08179,
				"method": "rhf"
			},
			{
				"type": "unocc",
				"energy": -0.0297,
				"method": "rhf"
			},
			{
				"type": "unocc",
				"energy": -0.01386,
				"method": "rhf"
			},
			{
				"type": "unocc",
				"energy": 0.00762,
				"method": "rhf"
			},
			{
				"type": "unocc",
				"energy": 0.02624,
				"method": "rhf"
			}
		],
		"cosmo_sigma_profile": { 
			"-0.025": 0.0,
			"-0.024": 0.0,
			"-0.023": 0.0,
			"-0.022": 0.0,
			"-0.021": 0.0,
			"-0.02": 0.0,
			"-0.019": 0.0,
			"-0.018": 0.0,
			"-0.017": 0.576532301475,
			"-0.016": 1.21960626409,
			"-0.015": 0.594981993714,
			"-0.014": 1.08005960653,
			"-0.013": 0.921847755283,
			"-0.012": 0.541969411725,
			"-0.011": 0.832265398769,
			"-0.01": 0.723297755636,
			"-0.009": 1.0111683851,
			"-0.008": 2.36855016346,
			"-0.007": 5.02325697832,
			"-0.006": 11.3541323568,
			"-0.005": 17.3138566169,
			"-0.004": 26.3220468901,
			"-0.003": 33.4904648498,
			"-0.002": 35.8446560234,
			"-0.001": 25.1445859545,
			"0.0": 28.9318656171,
			"0.001": 26.1968829512,
			"0.002": 23.1532254549,
			"0.003": 18.6204127214,
			"0.004": 19.8219028052,
			"0.005": 11.1977684197,
			"0.006": 7.96788149837,
			"0.007": 8.05921268888,
			"0.008": 5.61368392655,
			"0.009": 5.06938090766,
			"0.01": 3.73095198755,
			"0.011": 3.96682826356,
			"0.012": 4.81175535858,
			"0.013": 0.343477120864,
			"0.014": 0.0,
			"0.015": 0.0,
			"0.016": 0.0,
			"0.017": 0.0,
			"0.018": 0.0,
			"0.019": 0.0,
			"0.02": 0.0,
			"0.021": 0.0,
			"0.022": 0.0,
			"0.023": 0.0,
			"0.024": 0.0,
			"0.025": 0.0
		}
	}
}
