{
	 "smiles": "BrC1=CC=C(C=C1)C1=CN=CO1", 
	 "Tm": 351.65, 
	 "num_atms": 18, 
	 "gaussian": { 
		 "optdone": 1, 
		 "sigma_profile": "yes", 
		 "theory": "DFT", 
		 "functional": "B3LYP", 
		 "basiset": "6-31G**", 
		 "properties": { 
			 "R2extent": 4973.8397, 
			 "electric_dipole_moment_norm": 0.53964971046, 
			 "electric_quadrupole_moment_norm": 11.5118067027, 
			 "total_energy": -3047.9369571, 
			 "HOMO_LUMO_gap": 0.17323, 
			 "cosmo_polarized_energy": -7.77, 
			 "cosmo_cavitation_energy": 25.34, 
			 "cosmo_dispersion_energy": -19.24, 
			 "cosmo_repulsion_energy": 1.5, 
			 "cosmo_total_nonelectrostatic_energy": 7.59, 
			 "SMD_solvation_energy": 2.5 
		},
		"coords": [
			{
				"x": -1.4477977782,
				"y": 2.7316124226,
				"z": -3.2008986003,
				"element": "Br" 
			},
			{
				"x": -0.4369233331,
				"y": 1.9676800204,
				"z": -1.7731629043,
				"element": "C" 
			},
			{
				"x": -0.947407916,
				"y": 1.9940372101,
				"z": -0.4765020841,
				"element": "C" 
			},
			{
				"x": -0.2064489548,
				"y": 1.4359317782,
				"z": 0.5620682944,
				"element": "C" 
			},
			{
				"x": 1.0466465559,
				"y": 0.8481196811,
				"z": 0.3183128092,
				"element": "C" 
			},
			{
				"x": 1.5383909432,
				"y": 0.8347466101,
				"z": -0.9992699018,
				"element": "C" 
			},
			{
				"x": 0.804443744,
				"y": 1.3900389439,
				"z": -2.0420413029,
				"element": "C" 
			},
			{
				"x": 1.8248512499,
				"y": 0.2637859075,
				"z": 1.4002818814,
				"element": "C" 
			},
			{
				"x": 3.0366381073,
				"y": -0.3636882808,
				"z": 1.4970066401,
				"element": "C" 
			},
			{
				"x": 3.2800301653,
				"y": -0.7202831745,
				"z": 2.8133608071,
				"element": "N" 
			},
			{
				"x": 2.2319553864,
				"y": -0.3056802558,
				"z": 3.4512334408,
				"element": "C" 
			},
			{
				"x": 1.3007668107,
				"y": 0.3011723879,
				"z": 2.6744446679,
				"element": "O" 
			},
			{
				"x": -1.9130986731,
				"y": 2.4455674343,
				"z": -0.279947483,
				"element": "H" 
			},
			{
				"x": -0.6008934202,
				"y": 1.4548821958,
				"z": 1.5719046288,
				"element": "H" 
			},
			{
				"x": 2.5034529646,
				"y": 0.3868581759,
				"z": -1.2148081916,
				"element": "H" 
			},
			{
				"x": 1.1912969834,
				"y": 1.3752580514,
				"z": -3.0544722222,
				"element": "H" 
			},
			{
				"x": 3.7478169775,
				"y": -0.5827285398,
				"z": 0.7142828856,
				"element": "H" 
			},
			{
				"x": 2.011580187,
				"y": -0.3821105683,
				"z": 4.5057066349,
				"element": "H" 
			}
		],
		 "valence_orbital": [ 
			{
				"type": "occ",
				"energy": -0.29592,
				"method": "rhf"
			},
			{
				"type": "occ",
				"energy": -0.29185,
				"method": "rhf"
			},
			{
				"type": "occ",
				"energy": -0.27804,
				"method": "rhf"
			},
			{
				"type": "occ",
				"energy": -0.27252,
				"method": "rhf"
			},
			{
				"type": "occ",
				"energy": -0.22375,
				"method": "rhf"
			},
			{
				"type": "unocc",
				"energy": -0.05052,
				"method": "rhf"
			},
			{
				"type": "unocc",
				"energy": -0.02197,
				"method": "rhf"
			},
			{
				"type": "unocc",
				"energy": 0.0027,
				"method": "rhf"
			},
			{
				"type": "unocc",
				"energy": 0.01609,
				"method": "rhf"
			},
			{
				"type": "unocc",
				"energy": 0.06329,
				"method": "rhf"
			}
		],
		"cosmo_sigma_profile": { 
			"-0.025": 0.0,
			"-0.024": 0.0,
			"-0.023": 0.0,
			"-0.022": 0.0,
			"-0.021": 0.0,
			"-0.02": 0.0,
			"-0.019": 0.0,
			"-0.018": 0.0,
			"-0.017": 0.0,
			"-0.016": 0.0,
			"-0.015": 0.0,
			"-0.014": 0.0,
			"-0.013": 0.0,
			"-0.012": 0.0327553162968,
			"-0.011": 1.38689293859,
			"-0.01": 1.84638554161,
			"-0.009": 2.9910275519,
			"-0.008": 5.5570203117,
			"-0.007": 8.16567337321,
			"-0.006": 10.204936683,
			"-0.005": 10.0329408657,
			"-0.004": 8.34359140498,
			"-0.003": 9.83689070385,
			"-0.002": 11.3656914035,
			"-0.001": 14.4490899904,
			"0.0": 18.5088276366,
			"0.001": 22.2473600839,
			"0.002": 23.9154109898,
			"0.003": 24.263012072,
			"0.004": 15.7723621363,
			"0.005": 6.70281361923,
			"0.006": 1.7729325997,
			"0.007": 1.83128340001,
			"0.008": 0.959894565582,
			"0.009": 0.848496948311,
			"0.01": 1.31765312489,
			"0.011": 1.05790029635,
			"0.012": 1.67332777546,
			"0.013": 0.783326622703,
			"0.014": 0.767617393461,
			"0.015": 1.38141988033,
			"0.016": 0.36827898457,
			"0.017": 0.0,
			"0.018": 0.0,
			"0.019": 0.0,
			"0.02": 0.0,
			"0.021": 0.0,
			"0.022": 0.0,
			"0.023": 0.0,
			"0.024": 0.0,
			"0.025": 0.0
		}
	}
}
