{
	 "smiles": "NS(=O)(=O)C1=NC=C(C=C1)C(O)=O", 
	 "Tm": 493.15, 
	 "num_atms": 19, 
	 "gaussian": { 
		 "optdone": 1, 
		 "sigma_profile": "yes", 
		 "theory": "DFT", 
		 "functional": "B3LYP", 
		 "basiset": "6-31G**", 
		 "properties": { 
			 "R2extent": 3791.143, 
			 "electric_dipole_moment_norm": 2.64008758946, 
			 "electric_quadrupole_moment_norm": 22.4819277861, 
			 "total_energy": -1040.76483228, 
			 "HOMO_LUMO_gap": 0.19808, 
			 "cosmo_polarized_energy": -24.96, 
			 "cosmo_cavitation_energy": 26.07, 
			 "cosmo_dispersion_energy": -19.85, 
			 "cosmo_repulsion_energy": 1.53, 
			 "cosmo_total_nonelectrostatic_energy": 7.75, 
			 "SMD_solvation_energy": 4.11 
		},
		"coords": [
			{
				"x": -1.734325222,
				"y": 0.8261458721,
				"z": 1.7743929713,
				"element": "N" 
			},
			{
				"x": -1.2794273738,
				"y": -0.3625146096,
				"z": 0.6721998019,
				"element": "S" 
			},
			{
				"x": -2.3556369435,
				"y": -0.5948290995,
				"z": -0.2904319149,
				"element": "O" 
			},
			{
				"x": -0.6900388247,
				"y": -1.4518083992,
				"z": 1.455731137,
				"element": "O" 
			},
			{
				"x": 0.0771901375,
				"y": 0.4546462973,
				"z": -0.2129273896,
				"element": "C" 
			},
			{
				"x": -0.2524522212,
				"y": 1.5699369952,
				"z": -0.853504029,
				"element": "N" 
			},
			{
				"x": 0.7102822121,
				"y": 2.1710268169,
				"z": -1.5555161511,
				"element": "C" 
			},
			{
				"x": 2.0195699395,
				"y": 1.6777432353,
				"z": -1.6488723209,
				"element": "C" 
			},
			{
				"x": 2.3384011646,
				"y": 0.5151317242,
				"z": -0.9374112963,
				"element": "C" 
			},
			{
				"x": 1.3454208625,
				"y": -0.1245969417,
				"z": -0.2020167846,
				"element": "C" 
			},
			{
				"x": 3.1099738991,
				"y": 2.3580154637,
				"z": -2.4254797202,
				"element": "C" 
			},
			{
				"x": 2.7268943219,
				"y": 3.2168429816,
				"z": -3.4024458393,
				"element": "O" 
			},
			{
				"x": 4.2807833378,
				"y": 2.1669869716,
				"z": -2.2023982489,
				"element": "O" 
			},
			{
				"x": -2.5615569245,
				"y": 1.323815433,
				"z": 1.4574103321,
				"element": "H" 
			},
			{
				"x": -1.8624965973,
				"y": 0.3999533526,
				"z": 2.6881166523,
				"element": "H" 
			},
			{
				"x": 0.4210856037,
				"y": 3.1040981698,
				"z": -2.0380032772,
				"element": "H" 
			},
			{
				"x": 3.3552596665,
				"y": 0.1387827097,
				"z": -0.9745207211,
				"element": "H" 
			},
			{
				"x": 1.5284720046,
				"y": -1.0295773623,
				"z": 0.3645084872,
				"element": "H" 
			},
			{
				"x": 1.7781009573,
				"y": 3.1457003894,
				"z": -3.5769316885,
				"element": "H" 
			}
		],
		 "valence_orbital": [ 
			{
				"type": "occ",
				"energy": -0.32207,
				"method": "rhf"
			},
			{
				"type": "occ",
				"energy": -0.31016,
				"method": "rhf"
			},
			{
				"type": "occ",
				"energy": -0.30222,
				"method": "rhf"
			},
			{
				"type": "occ",
				"energy": -0.29654,
				"method": "rhf"
			},
			{
				"type": "occ",
				"energy": -0.28601,
				"method": "rhf"
			},
			{
				"type": "unocc",
				"energy": -0.08793,
				"method": "rhf"
			},
			{
				"type": "unocc",
				"energy": -0.06336,
				"method": "rhf"
			},
			{
				"type": "unocc",
				"energy": 0.01075,
				"method": "rhf"
			},
			{
				"type": "unocc",
				"energy": 0.03912,
				"method": "rhf"
			},
			{
				"type": "unocc",
				"energy": 0.0487,
				"method": "rhf"
			}
		],
		"cosmo_sigma_profile": { 
			"-0.025": 0.0,
			"-0.024": 0.0,
			"-0.023": 0.0,
			"-0.022": 0.0,
			"-0.021": 0.0,
			"-0.02": 0.390798717387,
			"-0.019": 0.97018904936,
			"-0.018": 1.22796483523,
			"-0.017": 1.54367357277,
			"-0.016": 1.42113421376,
			"-0.015": 2.90732971013,
			"-0.014": 3.90022378147,
			"-0.013": 4.23422635043,
			"-0.012": 3.29261265405,
			"-0.011": 3.21889691741,
			"-0.01": 3.43508212855,
			"-0.009": 4.08603801851,
			"-0.008": 7.68555959887,
			"-0.007": 7.45797278277,
			"-0.006": 6.367898671,
			"-0.005": 7.94415898573,
			"-0.004": 8.49192311616,
			"-0.003": 12.6016744501,
			"-0.002": 14.6926280037,
			"-0.001": 12.7341667667,
			"0.0": 5.81174893351,
			"0.001": 5.74551285504,
			"0.002": 5.26197784502,
			"0.003": 4.72410006729,
			"0.004": 5.841143568,
			"0.005": 5.48699854294,
			"0.006": 7.66174744603,
			"0.007": 8.19554849444,
			"0.008": 6.71389353096,
			"0.009": 10.733612427,
			"0.01": 17.7172419354,
			"0.011": 14.1405141591,
			"0.012": 2.43060483055,
			"0.013": 0.0917615965533,
			"0.014": 0.0,
			"0.015": 0.0,
			"0.016": 0.0,
			"0.017": 0.0,
			"0.018": 0.0,
			"0.019": 0.0,
			"0.02": 0.0,
			"0.021": 0.0,
			"0.022": 0.0,
			"0.023": 0.0,
			"0.024": 0.0,
			"0.025": 0.0
		}
	}
}
