{
	 "smiles": "OC(=O)C=CC1=C2C=CC=CC2=NC=C1", 
	 "Tm": 530.15, 
	 "num_atms": 24, 
	 "gaussian": { 
		 "optdone": 1, 
		 "sigma_profile": "yes", 
		 "theory": "DFT", 
		 "functional": "B3LYP", 
		 "basiset": "6-31G**", 
		 "properties": { 
			 "R2extent": 3839.0923, 
			 "electric_dipole_moment_norm": 4.8889507453, 
			 "electric_quadrupole_moment_norm": 14.1527898222, 
			 "total_energy": -667.890657041, 
			 "HOMO_LUMO_gap": 0.15978, 
			 "cosmo_polarized_energy": -15.64, 
			 "cosmo_cavitation_energy": 28.62, 
			 "cosmo_dispersion_energy": -20.77, 
			 "cosmo_repulsion_energy": 1.61, 
			 "cosmo_total_nonelectrostatic_energy": 9.45, 
			 "SMD_solvation_energy": 4.44 
		},
		"coords": [
			{
				"x": 1.378140068,
				"y": 2.4511117727,
				"z": 1.101370449,
				"element": "O" 
			},
			{
				"x": 0.3508841409,
				"y": 2.329443961,
				"z": 1.9745710761,
				"element": "C" 
			},
			{
				"x": 0.3703063091,
				"y": 2.9330075117,
				"z": 3.0233945125,
				"element": "O" 
			},
			{
				"x": -0.7890135205,
				"y": 1.4176119707,
				"z": 1.6469362444,
				"element": "C" 
			},
			{
				"x": -1.1356021277,
				"y": 0.8178091727,
				"z": 0.4940263439,
				"element": "C" 
			},
			{
				"x": -0.5334812017,
				"y": 0.9448685122,
				"z": -0.8515324403,
				"element": "C" 
			},
			{
				"x": -0.2355129153,
				"y": -0.2237376588,
				"z": -1.6294506035,
				"element": "C" 
			},
			{
				"x": -0.3858111661,
				"y": -1.5489745215,
				"z": -1.143049015,
				"element": "C" 
			},
			{
				"x": -0.0865843695,
				"y": -2.6286318357,
				"z": -1.9455765299,
				"element": "C" 
			},
			{
				"x": 0.3845156492,
				"y": -2.4351590879,
				"z": -3.2664003103,
				"element": "C" 
			},
			{
				"x": 0.5540365869,
				"y": -1.1626612577,
				"z": -3.7628459189,
				"element": "C" 
			},
			{
				"x": 0.2535196003,
				"y": -0.0291891511,
				"z": -2.9623512295,
				"element": "C" 
			},
			{
				"x": 0.4516746061,
				"y": 1.2071751802,
				"z": -3.5094119047,
				"element": "N" 
			},
			{
				"x": 0.1745407347,
				"y": 2.255819523,
				"z": -2.7642257158,
				"element": "C" 
			},
			{
				"x": -0.3228707031,
				"y": 2.182176977,
				"z": -1.4396084552,
				"element": "C" 
			},
			{
				"x": 1.2254579792,
				"y": 1.9165103192,
				"z": 0.3069866071,
				"element": "H" 
			},
			{
				"x": -1.4065957276,
				"y": 1.2426577938,
				"z": 2.5225174882,
				"element": "H" 
			},
			{
				"x": -1.9937262828,
				"y": 0.1479628202,
				"z": 0.5404778237,
				"element": "H" 
			},
			{
				"x": -0.725889001,
				"y": -1.7094433204,
				"z": -0.1249217941,
				"element": "H" 
			},
			{
				"x": -0.2070222514,
				"y": -3.6369807106,
				"z": -1.5609643967,
				"element": "H" 
			},
			{
				"x": 0.6170033869,
				"y": -3.297121116,
				"z": -3.8845827159,
				"element": "H" 
			},
			{
				"x": 0.9208456247,
				"y": -0.9804385467,
				"z": -4.7674380692,
				"element": "H" 
			},
			{
				"x": 0.3343713829,
				"y": 3.2331128884,
				"z": -3.2175849398,
				"element": "H" 
			},
			{
				"x": -0.5676868022,
				"y": 3.0957688036,
				"z": -0.9079365063,
				"element": "H" 
			}
		],
		 "valence_orbital": [ 
			{
				"type": "occ",
				"energy": -0.29156,
				"method": "rhf"
			},
			{
				"type": "occ",
				"energy": -0.27449,
				"method": "rhf"
			},
			{
				"type": "occ",
				"energy": -0.2714,
				"method": "rhf"
			},
			{
				"type": "occ",
				"energy": -0.269,
				"method": "rhf"
			},
			{
				"type": "occ",
				"energy": -0.24851,
				"method": "rhf"
			},
			{
				"type": "unocc",
				"energy": -0.08873,
				"method": "rhf"
			},
			{
				"type": "unocc",
				"energy": -0.0471,
				"method": "rhf"
			},
			{
				"type": "unocc",
				"energy": -0.03564,
				"method": "rhf"
			},
			{
				"type": "unocc",
				"energy": 0.0062,
				"method": "rhf"
			},
			{
				"type": "unocc",
				"energy": 0.06591,
				"method": "rhf"
			}
		],
		"cosmo_sigma_profile": { 
			"-0.025": 0.0,
			"-0.024": 0.0,
			"-0.023": 0.0,
			"-0.022": 0.0,
			"-0.021": 0.0,
			"-0.02": 0.0,
			"-0.019": 0.0,
			"-0.018": 0.0,
			"-0.017": 0.0,
			"-0.016": 0.0,
			"-0.015": 0.0,
			"-0.014": 0.402536463239,
			"-0.013": 0.808049688148,
			"-0.012": 0.751937117984,
			"-0.011": 1.21553519905,
			"-0.01": 1.20969204151,
			"-0.009": 0.697882253884,
			"-0.008": 6.26393486407,
			"-0.007": 14.5396167284,
			"-0.006": 16.2770232249,
			"-0.005": 16.4147469957,
			"-0.004": 15.1853040715,
			"-0.003": 14.3522182016,
			"-0.002": 14.057624774,
			"-0.001": 14.91274544,
			"0.0": 16.0272458195,
			"0.001": 15.8057719589,
			"0.002": 15.0381606623,
			"0.003": 14.0199374427,
			"0.004": 10.0518132762,
			"0.005": 3.97363016957,
			"0.006": 3.4263841074,
			"0.007": 3.57328940043,
			"0.008": 4.61826082812,
			"0.009": 2.96182618969,
			"0.01": 6.52155904008,
			"0.011": 6.01888481599,
			"0.012": 6.43806777375,
			"0.013": 3.28492098485,
			"0.014": 0.618306808024,
			"0.015": 0.597121835082,
			"0.016": 0.350136440286,
			"0.017": 0.0,
			"0.018": 0.0,
			"0.019": 0.0,
			"0.02": 0.0,
			"0.021": 0.0,
			"0.022": 0.0,
			"0.023": 0.0,
			"0.024": 0.0,
			"0.025": 0.0
		}
	}
}
