{
	 "smiles": "FC1=C(Br)C=CC(I)=C1", 
	 "Tm": 311.65, 
	 "num_atms": 12, 
	 "gaussian": { 
		 "optdone": 1, 
		 "sigma_profile": "no", 
		 "theory": "DFT", 
		 "functional": "B3LYP", 
		 "basiset": "6-31G**", 
		 "properties": { 
			 "R2extent": 4164.8916, 
			 "electric_dipole_moment_norm": 1.18906771044, 
			 "electric_quadrupole_moment_norm": 7.50758200355, 
			 "total_energy": -2913.06355099, 
			 "HOMO_LUMO_gap": 0.19393, 
			 "cosmo_polarized_energy": -97860.71, 
			 "cosmo_cavitation_energy": 22.46, 
			 "cosmo_dispersion_energy": -18.43, 
			 "cosmo_repulsion_energy": 1.45, 
			 "cosmo_total_nonelectrostatic_energy": 5.49, 
			 "SMD_solvation_energy": 2.35 
		},
		"coords": [
			{
				"x": 1.3078661818,
				"y": -0.6760947378,
				"z": -1.3200414962,
				"element": "F" 
			},
			{
				"x": 1.00281248,
				"y": -1.3172528995,
				"z": -0.1836380101,
				"element": "C" 
			},
			{
				"x": 1.217984383,
				"y": -2.6911502502,
				"z": -0.0779634457,
				"element": "C" 
			},
			{
				"x": 1.9431788673,
				"y": -3.6493355603,
				"z": -1.5456704967,
				"element": "Br" 
			},
			{
				"x": 0.8939689535,
				"y": -3.3393792957,
				"z": 1.1127780718,
				"element": "C" 
			},
			{
				"x": 0.3611460305,
				"y": -2.624000746,
				"z": 2.1860484517,
				"element": "C" 
			},
			{
				"x": 0.1543693628,
				"y": -1.2486910213,
				"z": 2.0573842254,
				"element": "C" 
			},
			{
				"x": -0.6525810425,
				"y": -0.1513219992,
				"z": 3.6764723702,
				"element": "I" 
			},
			{
				"x": 0.4727371824,
				"y": -0.5837338058,
				"z": 0.8733158941,
				"element": "C" 
			},
			{
				"x": 1.0595749195,
				"y": -4.4073930408,
				"z": 1.1994363566,
				"element": "H" 
			},
			{
				"x": 0.1132649782,
				"y": -3.1389913055,
				"z": 3.1065361187,
				"element": "H" 
			},
			{
				"x": 0.3226777034,
				"y": 0.4815446621,
				"z": 0.7464419601,
				"element": "H" 
			}
		],
		 "valence_orbital": [ 
			{
				"type": "occ",
				"energy": -0.2996,
				"method": "rhf"
			},
			{
				"type": "occ",
				"energy": -0.28919,
				"method": "rhf"
			},
			{
				"type": "occ",
				"energy": -0.27952,
				"method": "rhf"
			},
			{
				"type": "occ",
				"energy": -0.27409,
				"method": "rhf"
			},
			{
				"type": "occ",
				"energy": -0.24523,
				"method": "rhf"
			},
			{
				"type": "unocc",
				"energy": -0.0513,
				"method": "rhf"
			},
			{
				"type": "unocc",
				"energy": -0.03885,
				"method": "rhf"
			},
			{
				"type": "unocc",
				"energy": -0.02568,
				"method": "rhf"
			},
			{
				"type": "unocc",
				"energy": -0.00608,
				"method": "rhf"
			},
			{
				"type": "unocc",
				"energy": 0.03734,
				"method": "rhf"
			}
		],
		"cosmo_sigma_profile": { 
			"0.0": 0.0,
			"0.0": 0.0,
			"0.0": 0.0,
			"0.0": 0.0,
			"0.0": 0.0,
			"0.0": 0.0,
			"0.0": 0.0,
			"0.0": 0.0,
			"0.0": 0.0,
			"0.0": 0.0,
			"0.0": 0.0,
			"0.0": 0.0,
			"0.0": 0.0,
			"0.0": 0.0,
			"0.0": 0.0,
			"0.0": 0.0,
			"0.0": 0.0,
			"0.0": 0.0,
			"0.0": 0.0,
			"0.0": 0.0,
			"0.0": 0.0,
			"0.0": 0.0,
			"0.0": 0.0,
			"0.0": 0.0,
			"0.0": 0.0,
			"0.0": 0.0,
			"0.0": 0.0,
			"0.0": 0.0,
			"0.0": 0.0,
			"0.0": 0.0,
			"0.0": 0.0,
			"0.0": 0.0,
			"0.0": 0.0,
			"0.0": 0.0,
			"0.0": 0.0,
			"0.0": 0.0,
			"0.0": 0.0,
			"0.0": 0.0,
			"0.0": 0.0,
			"0.0": 0.0,
			"0.0": 0.0,
			"0.0": 0.0,
			"0.0": 0.0,
			"0.0": 0.0,
			"0.0": 0.0,
			"0.0": 0.0,
			"0.0": 0.0,
			"0.0": 0.0,
			"0.0": 0.0,
			"0.0": 0.0,
			"0.0": 0.0
		}
	}
}
