{
	 "smiles": "[O-][N+](=O)C1=C(C=CC=C1)C1=C(C(=NO1)C1=CC=CC=C1)C1=CC=CC=C1", 
	 "Tm": 400.15, 
	 "num_atms": 40, 
	 "gaussian": { 
		 "optdone": 1, 
		 "sigma_profile": "yes", 
		 "theory": "DFT", 
		 "functional": "B3LYP", 
		 "basiset": "6-31G**", 
		 "properties": { 
			 "R2extent": 9760.1298, 
			 "electric_dipole_moment_norm": 6.42611644852, 
			 "electric_quadrupole_moment_norm": 25.1351223918, 
			 "total_energy": -1143.70004001, 
			 "HOMO_LUMO_gap": 0.14394, 
			 "cosmo_polarized_energy": -15.84, 
			 "cosmo_cavitation_energy": 45.85, 
			 "cosmo_dispersion_energy": -30.56, 
			 "cosmo_repulsion_energy": 2.32, 
			 "cosmo_total_nonelectrostatic_energy": 17.61, 
			 "SMD_solvation_energy": 9.33 
		},
		"coords": [
			{
				"x": -2.2951114352,
				"y": -0.5002001168,
				"z": 3.1235138889,
				"element": "O" 
			},
			{
				"x": -1.6031783525,
				"y": 0.0784830076,
				"z": 3.9582186624,
				"element": "N" 
			},
			{
				"x": -1.9553748776,
				"y": 0.3471021503,
				"z": 5.1050522598,
				"element": "O" 
			},
			{
				"x": -0.222940417,
				"y": 0.4309177089,
				"z": 3.5752631293,
				"element": "C" 
			},
			{
				"x": 0.1191385286,
				"y": 0.6738551503,
				"z": 2.2333979671,
				"element": "C" 
			},
			{
				"x": 1.4756647293,
				"y": 0.8875527565,
				"z": 1.9462637008,
				"element": "C" 
			},
			{
				"x": 2.4405589646,
				"y": 0.8634338551,
				"z": 2.9520985317,
				"element": "C" 
			},
			{
				"x": 2.0667551476,
				"y": 0.6492719304,
				"z": 4.2798774024,
				"element": "C" 
			},
			{
				"x": 0.7268943217,
				"y": 0.4366590063,
				"z": 4.5941565287,
				"element": "C" 
			},
			{
				"x": -0.8647729235,
				"y": 0.79992069,
				"z": 1.1448172665,
				"element": "C" 
			},
			{
				"x": -0.9565422703,
				"y": 0.2281763805,
				"z": -0.0967864064,
				"element": "C" 
			},
			{
				"x": -2.0968228736,
				"y": 0.8933324465,
				"z": -0.6780505792,
				"element": "C" 
			},
			{
				"x": -2.6135370748,
				"y": 1.7752935983,
				"z": 0.1558866998,
				"element": "N" 
			},
			{
				"x": -1.8352298879,
				"y": 1.7250633296,
				"z": 1.3059126224,
				"element": "O" 
			},
			{
				"x": -2.7241169582,
				"y": 0.7110952647,
				"z": -2.0039033437,
				"element": "C" 
			},
			{
				"x": -2.784530703,
				"y": -0.5510024495,
				"z": -2.6146743025,
				"element": "C" 
			},
			{
				"x": -3.4091139273,
				"y": -0.7042764848,
				"z": -3.8521223807,
				"element": "C" 
			},
			{
				"x": -3.9807836195,
				"y": 0.396102208,
				"z": -4.4932853125,
				"element": "C" 
			},
			{
				"x": -3.9299352752,
				"y": 1.6540558443,
				"z": -3.8880571283,
				"element": "C" 
			},
			{
				"x": -3.3063442626,
				"y": 1.8126440108,
				"z": -2.6524039104,
				"element": "C" 
			},
			{
				"x": -0.0823294945,
				"y": -0.8222829377,
				"z": -0.6573413628,
				"element": "C" 
			},
			{
				"x": 0.1588505239,
				"y": -1.9990265303,
				"z": 0.0713068456,
				"element": "C" 
			},
			{
				"x": 1.0030608189,
				"y": -2.9867491284,
				"z": -0.4358864476,
				"element": "C" 
			},
			{
				"x": 1.6141281572,
				"y": -2.8172636436,
				"z": -1.6797403639,
				"element": "C" 
			},
			{
				"x": 1.3759208304,
				"y": -1.6535881554,
				"z": -2.4148918859,
				"element": "C" 
			},
			{
				"x": 0.5355751658,
				"y": -0.662601544,
				"z": -1.9090309654,
				"element": "C" 
			},
			{
				"x": 1.7618617912,
				"y": 1.0882648262,
				"z": 0.9196509391,
				"element": "H" 
			},
			{
				"x": 3.4831049793,
				"y": 1.0284501912,
				"z": 2.6984766813,
				"element": "H" 
			},
			{
				"x": 2.8128665433,
				"y": 0.6422489023,
				"z": 5.0678706011,
				"element": "H" 
			},
			{
				"x": 0.4000376448,
				"y": 0.2596590439,
				"z": 5.6114181751,
				"element": "H" 
			},
			{
				"x": -2.3558951407,
				"y": -1.4132188282,
				"z": -2.1160138964,
				"element": "H" 
			},
			{
				"x": -3.4535787823,
				"y": -1.687136311,
				"z": -4.31225783,
				"element": "H" 
			},
			{
				"x": -4.4649465083,
				"y": 0.2740894994,
				"z": -5.4579726813,
				"element": "H" 
			},
			{
				"x": -4.3747694401,
				"y": 2.5140963803,
				"z": -4.380254242,
				"element": "H" 
			},
			{
				"x": -3.2642284503,
				"y": 2.7863755746,
				"z": -2.1760084269,
				"element": "H" 
			},
			{
				"x": -0.3333188757,
				"y": -2.1361941656,
				"z": 1.0295764198,
				"element": "H" 
			},
			{
				"x": 1.1768913036,
				"y": -3.8923467591,
				"z": 0.1382477593,
				"element": "H" 
			},
			{
				"x": 2.2688534839,
				"y": -3.5880800429,
				"z": -2.0758521115,
				"element": "H" 
			},
			{
				"x": 1.8475720596,
				"y": -1.5152075966,
				"z": -3.3835809187,
				"element": "H" 
			},
			{
				"x": 0.3551665564,
				"y": 0.2417309378,
				"z": -2.4820915852,
				"element": "H" 
			}
		],
		 "valence_orbital": [ 
			{
				"type": "occ",
				"energy": -0.27018,
				"method": "rhf"
			},
			{
				"type": "occ",
				"energy": -0.26072,
				"method": "rhf"
			},
			{
				"type": "occ",
				"energy": -0.25192,
				"method": "rhf"
			},
			{
				"type": "occ",
				"energy": -0.24009,
				"method": "rhf"
			},
			{
				"type": "occ",
				"energy": -0.23504,
				"method": "rhf"
			},
			{
				"type": "unocc",
				"energy": -0.0911,
				"method": "rhf"
			},
			{
				"type": "unocc",
				"energy": -0.04845,
				"method": "rhf"
			},
			{
				"type": "unocc",
				"energy": -0.029,
				"method": "rhf"
			},
			{
				"type": "unocc",
				"energy": -0.02415,
				"method": "rhf"
			},
			{
				"type": "unocc",
				"energy": -0.0145,
				"method": "rhf"
			}
		],
		"cosmo_sigma_profile": { 
			"-0.025": 0.0,
			"-0.024": 0.0,
			"-0.023": 0.0,
			"-0.022": 0.0,
			"-0.021": 0.0,
			"-0.02": 0.0,
			"-0.019": 0.0,
			"-0.018": 0.0,
			"-0.017": 0.0,
			"-0.016": 0.0,
			"-0.015": 0.0,
			"-0.014": 0.0,
			"-0.013": 0.0,
			"-0.012": 0.0,
			"-0.011": 0.0,
			"-0.01": 0.0,
			"-0.009": 0.189524164756,
			"-0.008": 4.78734182464,
			"-0.007": 10.3897441543,
			"-0.006": 22.0551224646,
			"-0.005": 26.8546843653,
			"-0.004": 32.0786563605,
			"-0.003": 26.2225314405,
			"-0.002": 27.4277743038,
			"-0.001": 26.7107799328,
			"0.0": 31.3411964684,
			"0.001": 27.9826864651,
			"0.002": 24.3887337943,
			"0.003": 22.5637831189,
			"0.004": 25.9763256498,
			"0.005": 19.75298294,
			"0.006": 8.54660529792,
			"0.007": 13.4031136086,
			"0.008": 7.85727680622,
			"0.009": 4.58155612649,
			"0.01": 2.75751820004,
			"0.011": 1.35964405756,
			"0.012": 1.0870848839,
			"0.013": 0.754637455258,
			"0.014": 0.381394447147,
			"0.015": 0.0,
			"0.016": 0.0,
			"0.017": 0.0,
			"0.018": 0.0,
			"0.019": 0.0,
			"0.02": 0.0,
			"0.021": 0.0,
			"0.022": 0.0,
			"0.023": 0.0,
			"0.024": 0.0,
			"0.025": 0.0
		}
	}
}
