{
	 "smiles": "SC1=NN=C(COC2=C(Cl)C=CC=C2)O1", 
	 "Tm": 409.15, 
	 "num_atms": 22, 
	 "gaussian": { 
		 "optdone": 1, 
		 "sigma_profile": "yes", 
		 "theory": "DFT", 
		 "functional": "B3LYP", 
		 "basiset": "6-31G**", 
		 "properties": { 
			 "R2extent": 5790.4331, 
			 "electric_dipole_moment_norm": 2.18436811458, 
			 "electric_quadrupole_moment_norm": 15.9642792672, 
			 "total_energy": -1465.44170427, 
			 "HOMO_LUMO_gap": 0.22325, 
			 "cosmo_polarized_energy": -12.85, 
			 "cosmo_cavitation_energy": 31.64, 
			 "cosmo_dispersion_energy": -23.35, 
			 "cosmo_repulsion_energy": 1.8, 
			 "cosmo_total_nonelectrostatic_energy": 10.1, 
			 "SMD_solvation_energy": 3.32 
		},
		"coords": [
			{
				"x": -3.5847115338,
				"y": -0.1621607355,
				"z": -4.4587168956,
				"element": "S" 
			},
			{
				"x": -1.9753311001,
				"y": -0.4417004068,
				"z": -3.8210623149,
				"element": "C" 
			},
			{
				"x": -0.844555049,
				"y": -0.5493034588,
				"z": -4.4495787958,
				"element": "N" 
			},
			{
				"x": 0.1160501328,
				"y": -0.7556146197,
				"z": -3.4536664103,
				"element": "N" 
			},
			{
				"x": -0.5118955298,
				"y": -0.7604265587,
				"z": -2.3239528752,
				"element": "C" 
			},
			{
				"x": 0.046458826,
				"y": -0.9635294997,
				"z": -0.9622548854,
				"element": "C" 
			},
			{
				"x": -0.1441116395,
				"y": 0.2431339853,
				"z": -0.2101146292,
				"element": "O" 
			},
			{
				"x": 0.3606242668,
				"y": 0.2078023209,
				"z": 1.0699824939,
				"element": "C" 
			},
			{
				"x": -0.3836923277,
				"y": -0.3129177328,
				"z": 2.1391910884,
				"element": "C" 
			},
			{
				"x": -1.9779125499,
				"y": -0.9833592441,
				"z": 1.8479420544,
				"element": "Cl" 
			},
			{
				"x": 0.1251372323,
				"y": -0.2864105949,
				"z": 3.4376085363,
				"element": "C" 
			},
			{
				"x": 1.3859029356,
				"y": 0.2614806734,
				"z": 3.6755705493,
				"element": "C" 
			},
			{
				"x": 2.1331600955,
				"y": 0.785349505,
				"z": 2.6192626815,
				"element": "C" 
			},
			{
				"x": 1.6212133564,
				"y": 0.7550397359,
				"z": 1.3228842363,
				"element": "C" 
			},
			{
				"x": -1.8604872123,
				"y": -0.567987797,
				"z": -2.4747196423,
				"element": "O" 
			},
			{
				"x": -3.1456552228,
				"y": -0.1155624022,
				"z": -5.7311900509,
				"element": "H" 
			},
			{
				"x": 1.1112237465,
				"y": -1.196696475,
				"z": -1.0724913515,
				"element": "H" 
			},
			{
				"x": -0.4570349287,
				"y": -1.8028704531,
				"z": -0.4666618272,
				"element": "H" 
			},
			{
				"x": -0.469987613,
				"y": -0.6900250096,
				"z": 4.2494806704,
				"element": "H" 
			},
			{
				"x": 1.7770734307,
				"y": 0.2822288622,
				"z": 4.6879343185,
				"element": "H" 
			},
			{
				"x": 3.1116587203,
				"y": 1.2181217885,
				"z": 2.8026235897,
				"element": "H" 
			},
			{
				"x": 2.1764719639,
				"y": 1.1654081166,
				"z": 0.4853294596,
				"element": "H" 
			}
		],
		 "valence_orbital": [ 
			{
				"type": "occ",
				"energy": -0.2953,
				"method": "rhf"
			},
			{
				"type": "occ",
				"energy": -0.28952,
				"method": "rhf"
			},
			{
				"type": "occ",
				"energy": -0.2649,
				"method": "rhf"
			},
			{
				"type": "occ",
				"energy": -0.25565,
				"method": "rhf"
			},
			{
				"type": "occ",
				"energy": -0.25046,
				"method": "rhf"
			},
			{
				"type": "unocc",
				"energy": -0.02721,
				"method": "rhf"
			},
			{
				"type": "unocc",
				"energy": -0.02198,
				"method": "rhf"
			},
			{
				"type": "unocc",
				"energy": -0.01481,
				"method": "rhf"
			},
			{
				"type": "unocc",
				"energy": -0.00528,
				"method": "rhf"
			},
			{
				"type": "unocc",
				"energy": 0.0174,
				"method": "rhf"
			}
		],
		"cosmo_sigma_profile": { 
			"-0.025": 0.0,
			"-0.024": 0.0,
			"-0.023": 0.0,
			"-0.022": 0.0,
			"-0.021": 0.0,
			"-0.02": 0.0,
			"-0.019": 0.0,
			"-0.018": 0.0,
			"-0.017": 0.0,
			"-0.016": 0.0,
			"-0.015": 0.0,
			"-0.014": 0.233166477809,
			"-0.013": 1.69867683591,
			"-0.012": 1.51476473872,
			"-0.011": 1.37719242304,
			"-0.01": 1.49546155028,
			"-0.009": 1.33559783678,
			"-0.008": 3.8680880535,
			"-0.007": 11.8444337051,
			"-0.006": 16.0829471967,
			"-0.005": 17.4201254831,
			"-0.004": 14.5610130803,
			"-0.003": 14.2676011444,
			"-0.002": 16.1092732323,
			"-0.001": 16.5198333364,
			"0.0": 16.9126286362,
			"0.001": 21.7838343625,
			"0.002": 22.5249024998,
			"0.003": 21.5938623783,
			"0.004": 20.5046850786,
			"0.005": 9.6028144464,
			"0.006": 4.31741133188,
			"0.007": 3.2907600308,
			"0.008": 4.19914068134,
			"0.009": 3.24236883316,
			"0.01": 3.85961848331,
			"0.011": 2.90995393133,
			"0.012": 2.15825027935,
			"0.013": 2.50089438841,
			"0.014": 1.79461582829,
			"0.015": 0.0766557979469,
			"0.016": 0.0,
			"0.017": 0.0,
			"0.018": 0.0,
			"0.019": 0.0,
			"0.02": 0.0,
			"0.021": 0.0,
			"0.022": 0.0,
			"0.023": 0.0,
			"0.024": 0.0,
			"0.025": 0.0
		}
	}
}
