{
	 "smiles": "[O-][N+](=O)C1=C(Cl)C=CC(=C1)S(=O)(=O)NC1=CC=CC=C1", 
	 "Tm": 361.15, 
	 "num_atms": 29, 
	 "gaussian": { 
		 "optdone": 1, 
		 "sigma_profile": "yes", 
		 "theory": "DFT", 
		 "functional": "B3LYP", 
		 "basiset": "6-31G**", 
		 "properties": { 
			 "R2extent": 6519.0296, 
			 "electric_dipole_moment_norm": 4.80042631232, 
			 "electric_quadrupole_moment_norm": 23.7498482665, 
			 "total_energy": -1731.29077038, 
			 "HOMO_LUMO_gap": 0.1415, 
			 "cosmo_polarized_energy": -19.14, 
			 "cosmo_cavitation_energy": 38.0, 
			 "cosmo_dispersion_energy": -26.4, 
			 "cosmo_repulsion_energy": 1.99, 
			 "cosmo_total_nonelectrostatic_energy": 13.59, 
			 "SMD_solvation_energy": 7.59 
		},
		"coords": [
			{
				"x": 2.5748023461,
				"y": 1.6931692948,
				"z": 0.1571449068,
				"element": "O" 
			},
			{
				"x": 2.023695429,
				"y": 1.8865404515,
				"z": 1.2392126214,
				"element": "N" 
			},
			{
				"x": 2.4384081838,
				"y": 2.6193773129,
				"z": 2.1293280216,
				"element": "O" 
			},
			{
				"x": 0.7762612036,
				"y": 1.1353058586,
				"z": 1.4845751485,
				"element": "C" 
			},
			{
				"x": -0.2740932749,
				"y": 1.6263582219,
				"z": 2.2773163843,
				"element": "C" 
			},
			{
				"x": -0.2860620344,
				"y": 3.2134346522,
				"z": 2.984145996,
				"element": "Cl" 
			},
			{
				"x": -1.4016139567,
				"y": 0.8214783407,
				"z": 2.47798536,
				"element": "C" 
			},
			{
				"x": -1.4828159493,
				"y": -0.4446318588,
				"z": 1.9083141974,
				"element": "C" 
			},
			{
				"x": -0.4337377362,
				"y": -0.9082363049,
				"z": 1.1109359316,
				"element": "C" 
			},
			{
				"x": 0.6935779537,
				"y": -0.1240245698,
				"z": 0.8908023625,
				"element": "C" 
			},
			{
				"x": -0.5544350336,
				"y": -2.5349717169,
				"z": 0.3470511522,
				"element": "S" 
			},
			{
				"x": 0.8080296649,
				"y": -3.0416411308,
				"z": 0.2123030579,
				"element": "O" 
			},
			{
				"x": -1.6126975879,
				"y": -3.2631060823,
				"z": 1.0457680476,
				"element": "O" 
			},
			{
				"x": -1.1697080182,
				"y": -2.2947302479,
				"z": -1.208292265,
				"element": "N" 
			},
			{
				"x": -0.5170307731,
				"y": -1.5003325795,
				"z": -2.197821381,
				"element": "C" 
			},
			{
				"x": -1.2076474799,
				"y": -0.4345024499,
				"z": -2.7888292729,
				"element": "C" 
			},
			{
				"x": -0.602507523,
				"y": 0.3141246494,
				"z": -3.7975465055,
				"element": "C" 
			},
			{
				"x": 0.7018146184,
				"y": 0.0242890078,
				"z": -4.2007403062,
				"element": "C" 
			},
			{
				"x": 1.390087187,
				"y": -1.0329284636,
				"z": -3.6017139121,
				"element": "C" 
			},
			{
				"x": 0.7848569621,
				"y": -1.8093394195,
				"z": -2.6141544,
				"element": "C" 
			},
			{
				"x": -2.2111747637,
				"y": 1.2018903772,
				"z": 3.090280567,
				"element": "H" 
			},
			{
				"x": -2.3441678594,
				"y": -1.0784390328,
				"z": 2.0890328967,
				"element": "H" 
			},
			{
				"x": 1.5181838806,
				"y": -0.4756021491,
				"z": 0.2837221787,
				"element": "H" 
			},
			{
				"x": -2.1790248756,
				"y": -2.1954135419,
				"z": -1.1642711791,
				"element": "H" 
			},
			{
				"x": -2.2165990857,
				"y": -0.1963741289,
				"z": -2.4609039626,
				"element": "H" 
			},
			{
				"x": -1.148496539,
				"y": 1.1324989191,
				"z": -4.257309846,
				"element": "H" 
			},
			{
				"x": 1.1769120595,
				"y": 0.6151422768,
				"z": -4.9776009651,
				"element": "H" 
			},
			{
				"x": 2.4019971601,
				"y": -1.2698929695,
				"z": -3.9162941607,
				"element": "H" 
			},
			{
				"x": 1.303385842,
				"y": -2.6481427171,
				"z": -2.1658406742,
				"element": "H" 
			}
		],
		 "valence_orbital": [ 
			{
				"type": "occ",
				"energy": -0.31261,
				"method": "rhf"
			},
			{
				"type": "occ",
				"energy": -0.2957,
				"method": "rhf"
			},
			{
				"type": "occ",
				"energy": -0.28724,
				"method": "rhf"
			},
			{
				"type": "occ",
				"energy": -0.26716,
				"method": "rhf"
			},
			{
				"type": "occ",
				"energy": -0.24567,
				"method": "rhf"
			},
			{
				"type": "unocc",
				"energy": -0.10417,
				"method": "rhf"
			},
			{
				"type": "unocc",
				"energy": -0.06963,
				"method": "rhf"
			},
			{
				"type": "unocc",
				"energy": -0.03663,
				"method": "rhf"
			},
			{
				"type": "unocc",
				"energy": -0.01985,
				"method": "rhf"
			},
			{
				"type": "unocc",
				"energy": -0.01873,
				"method": "rhf"
			}
		],
		"cosmo_sigma_profile": { 
			"-0.025": 0.0,
			"-0.024": 0.0,
			"-0.023": 0.0,
			"-0.022": 0.0,
			"-0.021": 0.0,
			"-0.02": 0.0,
			"-0.019": 0.0,
			"-0.018": 0.0,
			"-0.017": 0.0643888924958,
			"-0.016": 0.868081075529,
			"-0.015": 0.83426749617,
			"-0.014": 1.47535967956,
			"-0.013": 1.33863539966,
			"-0.012": 1.48329552084,
			"-0.011": 1.25620536202,
			"-0.01": 1.83310124835,
			"-0.009": 6.21327024119,
			"-0.008": 8.0341347038,
			"-0.007": 7.77210404674,
			"-0.006": 13.7668255466,
			"-0.005": 16.470201204,
			"-0.004": 20.7943320596,
			"-0.003": 21.6002012886,
			"-0.002": 25.7179122253,
			"-0.001": 22.0497048117,
			"0.0": 16.8913512624,
			"0.001": 16.4906631797,
			"0.002": 19.78401558,
			"0.003": 19.7578007585,
			"0.004": 17.1443863349,
			"0.005": 12.4125527457,
			"0.006": 11.3872498808,
			"0.007": 14.732972181,
			"0.008": 8.92020705706,
			"0.009": 7.35996933003,
			"0.01": 8.06043269344,
			"0.011": 3.61884523131,
			"0.012": 0.0,
			"0.013": 0.0,
			"0.014": 0.0,
			"0.015": 0.0,
			"0.016": 0.0,
			"0.017": 0.0,
			"0.018": 0.0,
			"0.019": 0.0,
			"0.02": 0.0,
			"0.021": 0.0,
			"0.022": 0.0,
			"0.023": 0.0,
			"0.024": 0.0,
			"0.025": 0.0
		}
	}
}
