{
	 "smiles": "SCCCSCN1C(=S)OC2=CC=CC=C12", 
	 "Tm": 461.15, 
	 "num_atms": 29, 
	 "gaussian": { 
		 "optdone": 1, 
		 "sigma_profile": "yes", 
		 "theory": "DFT", 
		 "functional": "B3LYP", 
		 "basiset": "6-31G**", 
		 "properties": { 
			 "R2extent": 7463.9603, 
			 "electric_dipole_moment_norm": 5.35795975069, 
			 "electric_quadrupole_moment_norm": 26.1010355712, 
			 "total_energy": -1751.54722476, 
			 "HOMO_LUMO_gap": 0.17461, 
			 "cosmo_polarized_energy": -19.23, 
			 "cosmo_cavitation_energy": 37.31, 
			 "cosmo_dispersion_energy": -27.33, 
			 "cosmo_repulsion_energy": 2.02, 
			 "cosmo_total_nonelectrostatic_energy": 11.99, 
			 "SMD_solvation_energy": 4.29 
		},
		"coords": [
			{
				"x": -5.355899785,
				"y": -1.8853565472,
				"z": -0.180152065,
				"element": "S" 
			},
			{
				"x": -4.537143308,
				"y": -0.5463091124,
				"z": 0.7829664899,
				"element": "C" 
			},
			{
				"x": -3.0879280978,
				"y": -0.8510863853,
				"z": 1.1687952805,
				"element": "C" 
			},
			{
				"x": -2.4349206007,
				"y": 0.25808349,
				"z": 2.0060634216,
				"element": "C" 
			},
			{
				"x": -2.1727236139,
				"y": 1.8665471459,
				"z": 1.1456068568,
				"element": "S" 
			},
			{
				"x": -0.7473964922,
				"y": 1.4902033267,
				"z": 0.0501886329,
				"element": "C" 
			},
			{
				"x": 0.560027656,
				"y": 1.5326411921,
				"z": 0.6772004274,
				"element": "N" 
			},
			{
				"x": 1.2807524363,
				"y": 2.6962084272,
				"z": 0.8522554927,
				"element": "C" 
			},
			{
				"x": 0.9050794672,
				"y": 4.2283836606,
				"z": 0.3860652161,
				"element": "S" 
			},
			{
				"x": 2.4449541567,
				"y": 2.3609530349,
				"z": 1.5007467742,
				"element": "O" 
			},
			{
				"x": 2.4518255144,
				"y": 1.0030098662,
				"z": 1.7164403248,
				"element": "C" 
			},
			{
				"x": 3.4373640492,
				"y": 0.2455705907,
				"z": 2.322062025,
				"element": "C" 
			},
			{
				"x": 3.1999866803,
				"y": -1.1331920464,
				"z": 2.4009917855,
				"element": "C" 
			},
			{
				"x": 2.0263944212,
				"y": -1.6992041044,
				"z": 1.8878212882,
				"element": "C" 
			},
			{
				"x": 1.0375956778,
				"y": -0.9161889123,
				"z": 1.2785963716,
				"element": "C" 
			},
			{
				"x": 1.2739502127,
				"y": 0.4539555556,
				"z": 1.2076581605,
				"element": "C" 
			},
			{
				"x": -4.6317198213,
				"y": -1.7381951521,
				"z": -1.3086149101,
				"element": "H" 
			},
			{
				"x": -4.6095754198,
				"y": 0.3927637177,
				"z": 0.2299336591,
				"element": "H" 
			},
			{
				"x": -5.155181587,
				"y": -0.4427507397,
				"z": 1.6807626624,
				"element": "H" 
			},
			{
				"x": -2.4992059231,
				"y": -1.0358875239,
				"z": 0.2607906624,
				"element": "H" 
			},
			{
				"x": -3.0583781849,
				"y": -1.7841699066,
				"z": 1.744864149,
				"element": "H" 
			},
			{
				"x": -3.0733442907,
				"y": 0.5185984923,
				"z": 2.8571844131,
				"element": "H" 
			},
			{
				"x": -1.4817793803,
				"y": -0.0766844728,
				"z": 2.4240433465,
				"element": "H" 
			},
			{
				"x": -0.7684268637,
				"y": 2.2667616692,
				"z": -0.7160076683,
				"element": "H" 
			},
			{
				"x": -0.871252277,
				"y": 0.5138430228,
				"z": -0.4219041906,
				"element": "H" 
			},
			{
				"x": 4.3412490071,
				"y": 0.7021576875,
				"z": 2.7083561008,
				"element": "H" 
			},
			{
				"x": 3.9422267552,
				"y": -1.7728331603,
				"z": 2.8671691512,
				"element": "H" 
			},
			{
				"x": 1.875902669,
				"y": -2.7715059216,
				"z": 1.9616297378,
				"element": "H" 
			},
			{
				"x": 0.1346669425,
				"y": -1.3661168946,
				"z": 0.8807864039,
				"element": "H" 
			}
		],
		 "valence_orbital": [ 
			{
				"type": "occ",
				"energy": -0.2694,
				"method": "rhf"
			},
			{
				"type": "occ",
				"energy": -0.2536,
				"method": "rhf"
			},
			{
				"type": "occ",
				"energy": -0.23989,
				"method": "rhf"
			},
			{
				"type": "occ",
				"energy": -0.2261,
				"method": "rhf"
			},
			{
				"type": "occ",
				"energy": -0.21876,
				"method": "rhf"
			},
			{
				"type": "unocc",
				"energy": -0.04415,
				"method": "rhf"
			},
			{
				"type": "unocc",
				"energy": -0.01556,
				"method": "rhf"
			},
			{
				"type": "unocc",
				"energy": -0.01153,
				"method": "rhf"
			},
			{
				"type": "unocc",
				"energy": 0.01788,
				"method": "rhf"
			},
			{
				"type": "unocc",
				"energy": 0.0308,
				"method": "rhf"
			}
		],
		"cosmo_sigma_profile": { 
			"-0.025": 0.0,
			"-0.024": 0.0,
			"-0.023": 0.0,
			"-0.022": 0.0,
			"-0.021": 0.0,
			"-0.02": 0.0,
			"-0.019": 0.0,
			"-0.018": 0.0,
			"-0.017": 0.0,
			"-0.016": 0.0,
			"-0.015": 0.0,
			"-0.014": 0.0,
			"-0.013": 0.0,
			"-0.012": 0.138608647601,
			"-0.011": 0.680752203811,
			"-0.01": 0.915300575273,
			"-0.009": 3.5661189516,
			"-0.008": 8.07348190614,
			"-0.007": 11.0948934777,
			"-0.006": 21.1597976957,
			"-0.005": 23.7929992652,
			"-0.004": 26.7847917381,
			"-0.003": 22.8315041293,
			"-0.002": 19.8960551787,
			"-0.001": 15.6877682984,
			"0.0": 14.882022828,
			"0.001": 15.9255469145,
			"0.002": 16.475747287,
			"0.003": 17.0687359501,
			"0.004": 15.1924410951,
			"0.005": 12.1753734576,
			"0.006": 13.0397476136,
			"0.007": 13.099304646,
			"0.008": 15.6592955784,
			"0.009": 7.5730140696,
			"0.01": 5.45490658397,
			"0.011": 2.62944863253,
			"0.012": 0.0500879040697,
			"0.013": 0.0,
			"0.014": 0.0,
			"0.015": 0.0,
			"0.016": 0.0,
			"0.017": 0.0,
			"0.018": 0.0,
			"0.019": 0.0,
			"0.02": 0.0,
			"0.021": 0.0,
			"0.022": 0.0,
			"0.023": 0.0,
			"0.024": 0.0,
			"0.025": 0.0
		}
	}
}
