{
	 "smiles": "ClC1=CC=C(CSSCC2=CC=C(Cl)C=C2)C=C1", 
	 "Tm": 333.15, 
	 "num_atms": 30, 
	 "gaussian": { 
		 "optdone": 1, 
		 "sigma_profile": "yes", 
		 "theory": "DFT", 
		 "functional": "B3LYP", 
		 "basiset": "6-31G**", 
		 "properties": { 
			 "R2extent": 11902.699, 
			 "electric_dipole_moment_norm": 3.35365956233, 
			 "electric_quadrupole_moment_norm": 11.5591184941, 
			 "total_energy": -2257.49478002, 
			 "HOMO_LUMO_gap": 0.19383, 
			 "cosmo_polarized_energy": -11.41, 
			 "cosmo_cavitation_energy": 41.98, 
			 "cosmo_dispersion_energy": -29.92, 
			 "cosmo_repulsion_energy": 2.26, 
			 "cosmo_total_nonelectrostatic_energy": 14.33, 
			 "SMD_solvation_energy": 4.98 
		},
		"coords": [
			{
				"x": 1.3788654903,
				"y": -4.4024375028,
				"z": 4.842050418,
				"element": "Cl" 
			},
			{
				"x": 1.0201494226,
				"y": -3.6749238616,
				"z": 3.2836967735,
				"element": "C" 
			},
			{
				"x": -0.2732215213,
				"y": -3.7596953084,
				"z": 2.7682319434,
				"element": "C" 
			},
			{
				"x": -0.5479592651,
				"y": -3.1834645898,
				"z": 1.5295643691,
				"element": "C" 
			},
			{
				"x": 0.4525614202,
				"y": -2.5298012892,
				"z": 0.7963617267,
				"element": "C" 
			},
			{
				"x": 0.140413982,
				"y": -1.8975662289,
				"z": -0.5326746427,
				"element": "C" 
			},
			{
				"x": -0.5006335154,
				"y": -0.1687198887,
				"z": -0.2351319132,
				"element": "S" 
			},
			{
				"x": -1.0067188483,
				"y": 0.4784235879,
				"z": -2.143758771,
				"element": "S" 
			},
			{
				"x": 0.5514331262,
				"y": 1.2722984234,
				"z": -2.7964921939,
				"element": "C" 
			},
			{
				"x": 0.9409743436,
				"y": 2.5562572145,
				"z": -2.120943546,
				"element": "C" 
			},
			{
				"x": 1.9411076862,
				"y": 2.5753153368,
				"z": -1.1409866236,
				"element": "C" 
			},
			{
				"x": 2.3023113297,
				"y": 3.76129681,
				"z": -0.5003974439,
				"element": "C" 
			},
			{
				"x": 1.6529013665,
				"y": 4.9433372327,
				"z": -0.848340163,
				"element": "C" 
			},
			{
				"x": 2.103529151,
				"y": 6.4458504846,
				"z": -0.0546686333,
				"element": "Cl" 
			},
			{
				"x": 0.6521593965,
				"y": 4.9551476538,
				"z": -1.8213386015,
				"element": "C" 
			},
			{
				"x": 0.3036598638,
				"y": 3.7618340529,
				"z": -2.4483196173,
				"element": "C" 
			},
			{
				"x": 1.7404666313,
				"y": -2.4535512156,
				"z": 1.3435365091,
				"element": "C" 
			},
			{
				"x": 2.0337511565,
				"y": -3.0243616907,
				"z": 2.5809947204,
				"element": "C" 
			},
			{
				"x": -1.0495501533,
				"y": -4.2693974471,
				"z": 3.3278480702,
				"element": "H" 
			},
			{
				"x": -1.5548723403,
				"y": -3.2453393212,
				"z": 1.126008651,
				"element": "H" 
			},
			{
				"x": -0.6333747594,
				"y": -2.4480495722,
				"z": -1.071441926,
				"element": "H" 
			},
			{
				"x": 1.0314892191,
				"y": -1.8340100373,
				"z": -1.1614384028,
				"element": "H" 
			},
			{
				"x": 1.3548016862,
				"y": 0.5334996137,
				"z": -2.7526810797,
				"element": "H" 
			},
			{
				"x": 0.3051800042,
				"y": 1.4350873216,
				"z": -3.8515074024,
				"element": "H" 
			},
			{
				"x": 2.4466295482,
				"y": 1.6527164397,
				"z": -0.8716442999,
				"element": "H" 
			},
			{
				"x": 3.0780761831,
				"y": 3.7686031626,
				"z": 0.2571211114,
				"element": "H" 
			},
			{
				"x": 0.1583182799,
				"y": 5.884617582,
				"z": -2.0820762948,
				"element": "H" 
			},
			{
				"x": -0.4795812854,
				"y": 3.76854102,
				"z": -3.2017917824,
				"element": "H" 
			},
			{
				"x": 2.528503204,
				"y": -1.9460646206,
				"z": 0.7935256743,
				"element": "H" 
			},
			{
				"x": 3.0339291974,
				"y": -2.9680433619,
				"z": 2.9958933702,
				"element": "H" 
			}
		],
		 "valence_orbital": [ 
			{
				"type": "occ",
				"energy": -0.26737,
				"method": "rhf"
			},
			{
				"type": "occ",
				"energy": -0.2589,
				"method": "rhf"
			},
			{
				"type": "occ",
				"energy": -0.2514,
				"method": "rhf"
			},
			{
				"type": "occ",
				"energy": -0.24299,
				"method": "rhf"
			},
			{
				"type": "occ",
				"energy": -0.236,
				"method": "rhf"
			},
			{
				"type": "unocc",
				"energy": -0.04217,
				"method": "rhf"
			},
			{
				"type": "unocc",
				"energy": -0.02739,
				"method": "rhf"
			},
			{
				"type": "unocc",
				"energy": -0.02147,
				"method": "rhf"
			},
			{
				"type": "unocc",
				"energy": -0.0164,
				"method": "rhf"
			},
			{
				"type": "unocc",
				"energy": -0.01276,
				"method": "rhf"
			}
		],
		"cosmo_sigma_profile": { 
			"-0.025": 0.0,
			"-0.024": 0.0,
			"-0.023": 0.0,
			"-0.022": 0.0,
			"-0.021": 0.0,
			"-0.02": 0.0,
			"-0.019": 0.0,
			"-0.018": 0.0,
			"-0.017": 0.0,
			"-0.016": 0.0,
			"-0.015": 0.0,
			"-0.014": 0.0,
			"-0.013": 0.0,
			"-0.012": 0.0,
			"-0.011": 0.0,
			"-0.01": 0.0,
			"-0.009": 0.0,
			"-0.008": 1.36376485203,
			"-0.007": 16.9533115342,
			"-0.006": 28.4794617547,
			"-0.005": 23.7347904759,
			"-0.004": 18.0667264014,
			"-0.003": 17.6763999625,
			"-0.002": 18.5553622223,
			"-0.001": 18.2369497176,
			"0.0": 19.4350142334,
			"0.001": 25.7363508313,
			"0.002": 36.4590821158,
			"0.003": 40.91789461,
			"0.004": 41.3660300478,
			"0.005": 23.4545260307,
			"0.006": 5.81110038357,
			"0.007": 4.56943075462,
			"0.008": 2.58159211522,
			"0.009": 0.610342230144,
			"0.01": 0.0,
			"0.011": 0.0,
			"0.012": 0.0,
			"0.013": 0.0,
			"0.014": 0.0,
			"0.015": 0.0,
			"0.016": 0.0,
			"0.017": 0.0,
			"0.018": 0.0,
			"0.019": 0.0,
			"0.02": 0.0,
			"0.021": 0.0,
			"0.022": 0.0,
			"0.023": 0.0,
			"0.024": 0.0,
			"0.025": 0.0
		}
	}
}
