{
	 "smiles": "CC(Cl)C(=O)NC1=CC=C(C=C1)C(C)(C)C", 
	 "Tm": 417.15, 
	 "num_atms": 34, 
	 "gaussian": { 
		 "optdone": 1, 
		 "sigma_profile": "yes", 
		 "theory": "DFT", 
		 "functional": "B3LYP", 
		 "basiset": "6-31G**", 
		 "properties": { 
			 "R2extent": 6706.5412, 
			 "electric_dipole_moment_norm": 4.50399044404, 
			 "electric_quadrupole_moment_norm": 23.5110171403, 
			 "total_energy": -1096.43251615, 
			 "HOMO_LUMO_gap": 0.21485, 
			 "cosmo_polarized_energy": -12.19, 
			 "cosmo_cavitation_energy": 37.59, 
			 "cosmo_dispersion_energy": -25.69, 
			 "cosmo_repulsion_energy": 2.03, 
			 "cosmo_total_nonelectrostatic_energy": 13.93, 
			 "SMD_solvation_energy": 6.89 
		},
		"coords": [
			{
				"x": -3.6851526932,
				"y": 1.4810861799,
				"z": 4.4686023644,
				"element": "C" 
			},
			{
				"x": -2.4331755921,
				"y": 1.073972374,
				"z": 3.7144408786,
				"element": "C" 
			},
			{
				"x": -1.8378195802,
				"y": -0.5608898973,
				"z": 4.3076636955,
				"element": "Cl" 
			},
			{
				"x": -1.2861340034,
				"y": 2.0735489329,
				"z": 3.9324185572,
				"element": "C" 
			},
			{
				"x": -1.2307952139,
				"y": 2.7674119299,
				"z": 4.9363088072,
				"element": "O" 
			},
			{
				"x": -0.3127313363,
				"y": 2.1414720642,
				"z": 2.9641956613,
				"element": "N" 
			},
			{
				"x": -0.2072072602,
				"y": 1.4350558457,
				"z": 1.7279224173,
				"element": "C" 
			},
			{
				"x": -1.0917001334,
				"y": 1.6935038769,
				"z": 0.6737032748,
				"element": "C" 
			},
			{
				"x": -0.9607236892,
				"y": 1.0131239676,
				"z": -0.5337139623,
				"element": "C" 
			},
			{
				"x": 0.066787017,
				"y": 0.0781509294,
				"z": -0.749068456,
				"element": "C" 
			},
			{
				"x": 0.956138015,
				"y": -0.1480112889,
				"z": 0.3107886085,
				"element": "C" 
			},
			{
				"x": 0.8203760317,
				"y": 0.5106954944,
				"z": 1.5339181938,
				"element": "C" 
			},
			{
				"x": 0.1794831492,
				"y": -0.6415382665,
				"z": -2.1052230424,
				"element": "C" 
			},
			{
				"x": 0.3851304093,
				"y": 0.4047140378,
				"z": -3.2267778959,
				"element": "C" 
			},
			{
				"x": 1.3610292324,
				"y": -1.6291599254,
				"z": -2.1462955247,
				"element": "C" 
			},
			{
				"x": -1.1218270023,
				"y": -1.4342068113,
				"z": -2.3751888267,
				"element": "C" 
			},
			{
				"x": -4.4580145004,
				"y": 0.7156707573,
				"z": 4.3721527937,
				"element": "H" 
			},
			{
				"x": -4.0665294127,
				"y": 2.4208609454,
				"z": 4.0537829247,
				"element": "H" 
			},
			{
				"x": -3.4546008093,
				"y": 1.6464091181,
				"z": 5.5217095431,
				"element": "H" 
			},
			{
				"x": -2.6309820871,
				"y": 0.9153010206,
				"z": 2.6553475555,
				"element": "H" 
			},
			{
				"x": 0.4690327706,
				"y": 2.7217992624,
				"z": 3.2448769273,
				"element": "H" 
			},
			{
				"x": -1.870347422,
				"y": 2.4402202354,
				"z": 0.8004471554,
				"element": "H" 
			},
			{
				"x": -1.6670540048,
				"y": 1.232965961,
				"z": -1.3285588613,
				"element": "H" 
			},
			{
				"x": 1.767124393,
				"y": -0.858151174,
				"z": 0.2003405001,
				"element": "H" 
			},
			{
				"x": 1.5074527136,
				"y": 0.2992763953,
				"z": 2.347800161,
				"element": "H" 
			},
			{
				"x": 0.4614049335,
				"y": -0.0919822812,
				"z": -4.2004510215,
				"element": "H" 
			},
			{
				"x": -0.4458031703,
				"y": 1.1143892902,
				"z": -3.2805667798,
				"element": "H" 
			},
			{
				"x": 1.3040699434,
				"y": 0.9776807066,
				"z": -3.0650692388,
				"element": "H" 
			},
			{
				"x": 2.3208196632,
				"y": -1.124788166,
				"z": -1.9930383211,
				"element": "H" 
			},
			{
				"x": 1.3988486774,
				"y": -2.1163349201,
				"z": -3.1258265307,
				"element": "H" 
			},
			{
				"x": 1.2619799768,
				"y": -2.4158356126,
				"z": -1.3911659338,
				"element": "H" 
			},
			{
				"x": -1.9991390475,
				"y": -0.7811387312,
				"z": -2.403743939,
				"element": "H" 
			},
			{
				"x": -1.0595845287,
				"y": -1.9493565997,
				"z": -3.3402397266,
				"element": "H" 
			},
			{
				"x": -1.2907554393,
				"y": -2.1870156508,
				"z": -1.5983919588,
				"element": "H" 
			}
		],
		 "valence_orbital": [ 
			{
				"type": "occ",
				"energy": -0.29569,
				"method": "rhf"
			},
			{
				"type": "occ",
				"energy": -0.27877,
				"method": "rhf"
			},
			{
				"type": "occ",
				"energy": -0.26159,
				"method": "rhf"
			},
			{
				"type": "occ",
				"energy": -0.25719,
				"method": "rhf"
			},
			{
				"type": "occ",
				"energy": -0.23901,
				"method": "rhf"
			},
			{
				"type": "unocc",
				"energy": -0.02416,
				"method": "rhf"
			},
			{
				"type": "unocc",
				"energy": -0.01449,
				"method": "rhf"
			},
			{
				"type": "unocc",
				"energy": -0.01018,
				"method": "rhf"
			},
			{
				"type": "unocc",
				"energy": 0.06539,
				"method": "rhf"
			},
			{
				"type": "unocc",
				"energy": 0.07227,
				"method": "rhf"
			}
		],
		"cosmo_sigma_profile": { 
			"-0.025": 0.0,
			"-0.024": 0.0,
			"-0.023": 0.0,
			"-0.022": 0.0,
			"-0.021": 0.0,
			"-0.02": 0.0,
			"-0.019": 0.0,
			"-0.018": 0.0,
			"-0.017": 0.0,
			"-0.016": 0.0,
			"-0.015": 0.200868091486,
			"-0.014": 0.954502492357,
			"-0.013": 1.07132573568,
			"-0.012": 1.06220404566,
			"-0.011": 0.621656117565,
			"-0.01": 0.877728323903,
			"-0.009": 0.989106490812,
			"-0.008": 2.38445666347,
			"-0.007": 4.88083493608,
			"-0.006": 9.98806621864,
			"-0.005": 15.1172892181,
			"-0.004": 17.1874582845,
			"-0.003": 27.9756829465,
			"-0.002": 33.2685809158,
			"-0.001": 27.7366367533,
			"0.0": 27.3585727164,
			"0.001": 32.2265997376,
			"0.002": 20.6712497911,
			"0.003": 12.4655567729,
			"0.004": 15.6510578529,
			"0.005": 17.5487659942,
			"0.006": 9.48231043094,
			"0.007": 1.73671913425,
			"0.008": 1.44615936595,
			"0.009": 1.59272357429,
			"0.01": 1.08564181123,
			"0.011": 2.38456404735,
			"0.012": 2.95129057364,
			"0.013": 5.2090137416,
			"0.014": 0.481509148983,
			"0.015": 0.0,
			"0.016": 0.0,
			"0.017": 0.0,
			"0.018": 0.0,
			"0.019": 0.0,
			"0.02": 0.0,
			"0.021": 0.0,
			"0.022": 0.0,
			"0.023": 0.0,
			"0.024": 0.0,
			"0.025": 0.0
		}
	}
}
