{
	 "smiles": "CC(=O)CC(=O)CCN1C(=O)C2=C(C=CC=C2)C1=O", 
	 "Tm": 378.15, 
	 "num_atms": 32, 
	 "gaussian": { 
		 "optdone": 1, 
		 "sigma_profile": "yes", 
		 "theory": "DFT", 
		 "functional": "B3LYP", 
		 "basiset": "6-31G**", 
		 "properties": { 
			 "R2extent": 5316.251, 
			 "electric_dipole_moment_norm": 2.71209757568, 
			 "electric_quadrupole_moment_norm": 18.8961533257, 
			 "total_energy": -897.004256476, 
			 "HOMO_LUMO_gap": 0.15905, 
			 "cosmo_polarized_energy": -17.0, 
			 "cosmo_cavitation_energy": 36.47, 
			 "cosmo_dispersion_energy": -24.85, 
			 "cosmo_repulsion_energy": 1.89, 
			 "cosmo_total_nonelectrostatic_energy": 13.52, 
			 "SMD_solvation_energy": 7.96 
		},
		"coords": [
			{
				"x": 2.666808879,
				"y": -2.3225287365,
				"z": 1.1481569248,
				"element": "C" 
			},
			{
				"x": 1.7896757594,
				"y": -1.6370912391,
				"z": 2.169571546,
				"element": "C" 
			},
			{
				"x": 0.663259566,
				"y": -2.0154455661,
				"z": 2.4319319976,
				"element": "O" 
			},
			{
				"x": 2.3844437212,
				"y": -0.4045365472,
				"z": 2.8686805283,
				"element": "C" 
			},
			{
				"x": 1.817977485,
				"y": 0.9100683959,
				"z": 2.3189349425,
				"element": "C" 
			},
			{
				"x": 2.5390052697,
				"y": 1.7306602434,
				"z": 1.7905682134,
				"element": "O" 
			},
			{
				"x": 0.3309668118,
				"y": 1.1673304456,
				"z": 2.5521818076,
				"element": "C" 
			},
			{
				"x": -0.3162674795,
				"y": 2.0182931181,
				"z": 1.4483754555,
				"element": "C" 
			},
			{
				"x": -0.9611316483,
				"y": 1.2213348803,
				"z": 0.408186458,
				"element": "N" 
			},
			{
				"x": -0.3237604125,
				"y": 0.2591079614,
				"z": -0.3819940714,
				"element": "C" 
			},
			{
				"x": 0.8483116446,
				"y": -0.0628893507,
				"z": -0.2950829846,
				"element": "O" 
			},
			{
				"x": -1.367209418,
				"y": -0.2659557542,
				"z": -1.3112551906,
				"element": "C" 
			},
			{
				"x": -2.5674553015,
				"y": 0.3918455667,
				"z": -1.0359839534,
				"element": "C" 
			},
			{
				"x": -3.7283089997,
				"y": 0.1107615915,
				"z": -1.7411703509,
				"element": "C" 
			},
			{
				"x": -3.6507843033,
				"y": -0.8626091623,
				"z": -2.7465698273,
				"element": "C" 
			},
			{
				"x": -2.4465815379,
				"y": -1.5227429665,
				"z": -3.022834874,
				"element": "C" 
			},
			{
				"x": -1.2798981663,
				"y": -1.2317446139,
				"z": -2.3028184195,
				"element": "C" 
			},
			{
				"x": -2.3246351439,
				"y": 1.3579971946,
				"z": 0.0748383147,
				"element": "C" 
			},
			{
				"x": -3.103144677,
				"y": 2.1218735897,
				"z": 0.6087512788,
				"element": "O" 
			},
			{
				"x": 2.9015008199,
				"y": -1.6122421073,
				"z": 0.3481499508,
				"element": "H" 
			},
			{
				"x": 2.1471430532,
				"y": -3.1869166946,
				"z": 0.7329226329,
				"element": "H" 
			},
			{
				"x": 3.6136816259,
				"y": -2.636341553,
				"z": 1.6021993128,
				"element": "H" 
			},
			{
				"x": 2.1099563532,
				"y": -0.4781857319,
				"z": 3.9277378159,
				"element": "H" 
			},
			{
				"x": 3.4705415463,
				"y": -0.3636919554,
				"z": 2.7693652778,
				"element": "H" 
			},
			{
				"x": 0.2776587498,
				"y": 1.720760664,
				"z": 3.5004232753,
				"element": "H" 
			},
			{
				"x": -0.2041978666,
				"y": 0.2274569514,
				"z": 2.7095269215,
				"element": "H" 
			},
			{
				"x": 0.4508226118,
				"y": 2.6577061202,
				"z": 1.0001395819,
				"element": "H" 
			},
			{
				"x": -1.1087451771,
				"y": 2.6509506006,
				"z": 1.8516324884,
				"element": "H" 
			},
			{
				"x": -4.6557946606,
				"y": 0.627739136,
				"z": -1.51740188,
				"element": "H" 
			},
			{
				"x": -4.5377089554,
				"y": -1.1110771642,
				"z": -3.3216899255,
				"element": "H" 
			},
			{
				"x": -2.4190092964,
				"y": -2.2725415178,
				"z": -3.8078214623,
				"element": "H" 
			},
			{
				"x": -0.342220853,
				"y": -1.7380457986,
				"z": -2.5074517849,
				"element": "H" 
			}
		],
		 "valence_orbital": [ 
			{
				"type": "occ",
				"energy": -0.2791,
				"method": "rhf"
			},
			{
				"type": "occ",
				"energy": -0.27128,
				"method": "rhf"
			},
			{
				"type": "occ",
				"energy": -0.26912,
				"method": "rhf"
			},
			{
				"type": "occ",
				"energy": -0.25837,
				"method": "rhf"
			},
			{
				"type": "occ",
				"energy": -0.2433,
				"method": "rhf"
			},
			{
				"type": "unocc",
				"energy": -0.08425,
				"method": "rhf"
			},
			{
				"type": "unocc",
				"energy": -0.04211,
				"method": "rhf"
			},
			{
				"type": "unocc",
				"energy": -0.0311,
				"method": "rhf"
			},
			{
				"type": "unocc",
				"energy": -0.0003,
				"method": "rhf"
			},
			{
				"type": "unocc",
				"energy": 0.02637,
				"method": "rhf"
			}
		],
		"cosmo_sigma_profile": { 
			"-0.025": 0.0,
			"-0.024": 0.0,
			"-0.023": 0.0,
			"-0.022": 0.0,
			"-0.021": 0.0,
			"-0.02": 0.0,
			"-0.019": 0.0,
			"-0.018": 0.0,
			"-0.017": 0.0,
			"-0.016": 0.0,
			"-0.015": 0.0,
			"-0.014": 0.0,
			"-0.013": 0.0,
			"-0.012": 0.0,
			"-0.011": 0.0,
			"-0.01": 0.0,
			"-0.009": 0.013510953306,
			"-0.008": 4.48680534299,
			"-0.007": 16.3079250695,
			"-0.006": 21.9800552848,
			"-0.005": 23.8141703335,
			"-0.004": 26.3292677605,
			"-0.003": 27.0142464191,
			"-0.002": 19.8023770121,
			"-0.001": 19.7009481888,
			"0.0": 17.2806725213,
			"0.001": 18.9563059543,
			"0.002": 18.4632594248,
			"0.003": 8.61755131993,
			"0.004": 7.24983479589,
			"0.005": 6.6700592007,
			"0.006": 5.62082436391,
			"0.007": 5.89920051035,
			"0.008": 5.89551101079,
			"0.009": 7.28811793157,
			"0.01": 9.99284343962,
			"0.011": 12.5241610865,
			"0.012": 5.59082566504,
			"0.013": 1.08297185772,
			"0.014": 0.0,
			"0.015": 0.0,
			"0.016": 0.0,
			"0.017": 0.0,
			"0.018": 0.0,
			"0.019": 0.0,
			"0.02": 0.0,
			"0.021": 0.0,
			"0.022": 0.0,
			"0.023": 0.0,
			"0.024": 0.0,
			"0.025": 0.0
		}
	}
}
