{
	 "smiles": "CCOC1=NC=C(C=C1)C#N", 
	 "Tm": 371.15, 
	 "num_atms": 19, 
	 "gaussian": { 
		 "optdone": 1, 
		 "sigma_profile": "yes", 
		 "theory": "DFT", 
		 "functional": "B3LYP", 
		 "basiset": "6-31G**", 
		 "properties": { 
			 "R2extent": 2498.9906, 
			 "electric_dipole_moment_norm": 4.58939799647, 
			 "electric_quadrupole_moment_norm": 20.2199425677, 
			 "total_energy": -494.383116211, 
			 "HOMO_LUMO_gap": 0.20072, 
			 "cosmo_polarized_energy": -9.38, 
			 "cosmo_cavitation_energy": 24.37, 
			 "cosmo_dispersion_energy": -17.39, 
			 "cosmo_repulsion_energy": 1.42, 
			 "cosmo_total_nonelectrostatic_energy": 8.4, 
			 "SMD_solvation_energy": 5.58 
		},
		"coords": [
			{
				"x": -1.7803692263,
				"y": 0.3091124283,
				"z": -2.5026999975,
				"element": "C" 
			},
			{
				"x": -0.3590067031,
				"y": 0.7602873517,
				"z": -2.2017962056,
				"element": "C" 
			},
			{
				"x": -0.3125558785,
				"y": 1.6649091711,
				"z": -1.0731509558,
				"element": "O" 
			},
			{
				"x": -0.2789080598,
				"y": 1.1535223086,
				"z": 0.1673055745,
				"element": "C" 
			},
			{
				"x": -0.2845167482,
				"y": -0.1677609115,
				"z": 0.3461829118,
				"element": "N" 
			},
			{
				"x": -0.2369891947,
				"y": -0.6309714353,
				"z": 1.5978461181,
				"element": "C" 
			},
			{
				"x": -0.186353474,
				"y": 0.1961821697,
				"z": 2.7265026081,
				"element": "C" 
			},
			{
				"x": -0.1842939134,
				"y": 1.5933404847,
				"z": 2.5185951479,
				"element": "C" 
			},
			{
				"x": -0.2304683376,
				"y": 2.0818135057,
				"z": 1.2297171143,
				"element": "C" 
			},
			{
				"x": -0.1406922849,
				"y": -0.3643337759,
				"z": 4.0401521954,
				"element": "C" 
			},
			{
				"x": -0.1033418713,
				"y": -0.8223743593,
				"z": 5.1094313755,
				"element": "N" 
			},
			{
				"x": -2.1747177868,
				"y": -0.3005962011,
				"z": -1.6864677348,
				"element": "H" 
			},
			{
				"x": -1.7895557049,
				"y": -0.293818665,
				"z": -3.4168980416,
				"element": "H" 
			},
			{
				"x": -2.4377396585,
				"y": 1.170449101,
				"z": -2.6531239003,
				"element": "H" 
			},
			{
				"x": 0.0520906278,
				"y": 1.3499528761,
				"z": -3.0247983428,
				"element": "H" 
			},
			{
				"x": 0.2946279244,
				"y": -0.0928234288,
				"z": -2.0067569158,
				"element": "H" 
			},
			{
				"x": -0.2415045091,
				"y": -1.7120249755,
				"z": 1.7157278414,
				"element": "H" 
			},
			{
				"x": -0.1454026615,
				"y": 2.2675215912,
				"z": 3.3678200302,
				"element": "H" 
			},
			{
				"x": -0.2283025396,
				"y": 3.1434127644,
				"z": 1.012611177,
				"element": "H" 
			}
		],
		 "valence_orbital": [ 
			{
				"type": "occ",
				"energy": -0.33585,
				"method": "rhf"
			},
			{
				"type": "occ",
				"energy": -0.32891,
				"method": "rhf"
			},
			{
				"type": "occ",
				"energy": -0.30665,
				"method": "rhf"
			},
			{
				"type": "occ",
				"energy": -0.28572,
				"method": "rhf"
			},
			{
				"type": "occ",
				"energy": -0.24785,
				"method": "rhf"
			},
			{
				"type": "unocc",
				"energy": -0.04713,
				"method": "rhf"
			},
			{
				"type": "unocc",
				"energy": -0.04309,
				"method": "rhf"
			},
			{
				"type": "unocc",
				"energy": 0.03261,
				"method": "rhf"
			},
			{
				"type": "unocc",
				"energy": 0.07482,
				"method": "rhf"
			},
			{
				"type": "unocc",
				"energy": 0.08647,
				"method": "rhf"
			}
		],
		"cosmo_sigma_profile": { 
			"-0.025": 0.0,
			"-0.024": 0.0,
			"-0.023": 0.0,
			"-0.022": 0.0,
			"-0.021": 0.0,
			"-0.02": 0.0,
			"-0.019": 0.0,
			"-0.018": 0.0,
			"-0.017": 0.0,
			"-0.016": 0.0,
			"-0.015": 0.0,
			"-0.014": 0.0,
			"-0.013": 0.0,
			"-0.012": 0.0,
			"-0.011": 0.0,
			"-0.01": 0.0,
			"-0.009": 1.92698317407,
			"-0.008": 6.5293748561,
			"-0.007": 5.6352189678,
			"-0.006": 7.63671818486,
			"-0.005": 9.71615436139,
			"-0.004": 13.9936155041,
			"-0.003": 16.6618953698,
			"-0.002": 18.7797205651,
			"-0.001": 24.5808036703,
			"0.0": 22.442528053,
			"0.001": 12.8524875111,
			"0.002": 6.82270799151,
			"0.003": 6.33652699279,
			"0.004": 5.33688872559,
			"0.005": 4.54376899922,
			"0.006": 5.09151684417,
			"0.007": 5.63835483713,
			"0.008": 4.6568669439,
			"0.009": 5.13407279514,
			"0.01": 3.9543550423,
			"0.011": 3.24951983643,
			"0.012": 2.49148002192,
			"0.013": 1.64793562031,
			"0.014": 0.0728893248364,
			"0.015": 0.0,
			"0.016": 0.0,
			"0.017": 0.0,
			"0.018": 0.0,
			"0.019": 0.0,
			"0.02": 0.0,
			"0.021": 0.0,
			"0.022": 0.0,
			"0.023": 0.0,
			"0.024": 0.0,
			"0.025": 0.0
		}
	}
}
