{
	 "smiles": "CC1CCC2=C3N1C=C(C(O)=O)C(=O)C3=CC(F)=C2C", 
	 "Tm": 542.15, 
	 "num_atms": 34, 
	 "gaussian": { 
		 "optdone": 1, 
		 "sigma_profile": "yes", 
		 "theory": "DFT", 
		 "functional": "B3LYP", 
		 "basiset": "6-31G**", 
		 "properties": { 
			 "R2extent": 5772.76, 
			 "electric_dipole_moment_norm": 7.38276982914, 
			 "electric_quadrupole_moment_norm": 4.829544522, 
			 "total_energy": -960.341270408, 
			 "HOMO_LUMO_gap": 0.16848, 
			 "cosmo_polarized_energy": -22.16, 
			 "cosmo_cavitation_energy": 36.48, 
			 "cosmo_dispersion_energy": -26.28, 
			 "cosmo_repulsion_energy": 1.95, 
			 "cosmo_total_nonelectrostatic_energy": 12.15, 
			 "SMD_solvation_energy": 7.76 
		},
		"coords": [
			{
				"x": -1.162730158,
				"y": 1.7498043555,
				"z": -2.5980603679,
				"element": "C" 
			},
			{
				"x": -1.8202391612,
				"y": 0.5288427251,
				"z": -1.9397663398,
				"element": "C" 
			},
			{
				"x": -1.5201000312,
				"y": -0.7930621433,
				"z": -2.6500591712,
				"element": "C" 
			},
			{
				"x": -0.0387733344,
				"y": -1.163890639,
				"z": -2.5383235727,
				"element": "C" 
			},
			{
				"x": 0.4586256748,
				"y": -1.0639222593,
				"z": -1.111881589,
				"element": "C" 
			},
			{
				"x": -0.2547496449,
				"y": -0.2998352671,
				"z": -0.1573105451,
				"element": "C" 
			},
			{
				"x": -1.4124832734,
				"y": 0.4127108449,
				"z": -0.5195870105,
				"element": "N" 
			},
			{
				"x": -2.1002073248,
				"y": 1.1052095252,
				"z": 0.4134942582,
				"element": "C" 
			},
			{
				"x": -1.7692002088,
				"y": 1.1931627797,
				"z": 1.7440738578,
				"element": "C" 
			},
			{
				"x": -2.7057340412,
				"y": 2.0024990396,
				"z": 2.5574009716,
				"element": "C" 
			},
			{
				"x": -2.385143184,
				"y": 2.0920612453,
				"z": 3.8615107933,
				"element": "O" 
			},
			{
				"x": -3.6973556743,
				"y": 2.5541077591,
				"z": 2.0998386328,
				"element": "O" 
			},
			{
				"x": -0.5649747867,
				"y": 0.5226062489,
				"z": 2.2395868505,
				"element": "C" 
			},
			{
				"x": -0.1526515519,
				"y": 0.5473198717,
				"z": 3.3974449291,
				"element": "O" 
			},
			{
				"x": 0.1715434379,
				"y": -0.2408562692,
				"z": 1.1867875683,
				"element": "C" 
			},
			{
				"x": 1.3308709324,
				"y": -0.9258411802,
				"z": 1.5639890022,
				"element": "C" 
			},
			{
				"x": 2.0300813579,
				"y": -1.6417459471,
				"z": 0.6175794942,
				"element": "C" 
			},
			{
				"x": 3.1558961474,
				"y": -2.2917583432,
				"z": 0.9962597838,
				"element": "F" 
			},
			{
				"x": 1.6260282866,
				"y": -1.736549044,
				"z": -0.7229358235,
				"element": "C" 
			},
			{
				"x": 2.4398305802,
				"y": -2.5519229017,
				"z": -1.6975734825,
				"element": "C" 
			},
			{
				"x": -1.4465426024,
				"y": 2.6680901469,
				"z": -2.0761515673,
				"element": "H" 
			},
			{
				"x": -1.4868165366,
				"y": 1.8357028947,
				"z": -3.6402111113,
				"element": "H" 
			},
			{
				"x": -0.0716768134,
				"y": 1.6786503778,
				"z": -2.5809375999,
				"element": "H" 
			},
			{
				"x": -2.9042823511,
				"y": 0.6803310258,
				"z": -1.9266691284,
				"element": "H" 
			},
			{
				"x": -1.8196557228,
				"y": -0.714321652,
				"z": -3.6998297028,
				"element": "H" 
			},
			{
				"x": -2.1313076849,
				"y": -1.5814137839,
				"z": -2.1961180544,
				"element": "H" 
			},
			{
				"x": 0.5635628593,
				"y": -0.5176290897,
				"z": -3.1923488848,
				"element": "H" 
			},
			{
				"x": 0.1094033974,
				"y": -2.1814111462,
				"z": -2.9138592429,
				"element": "H" 
			},
			{
				"x": -2.9850545852,
				"y": 1.6287905136,
				"z": 0.0655424319,
				"element": "H" 
			},
			{
				"x": -3.0823052248,
				"y": 2.6449648966,
				"z": 4.253268042,
				"element": "H" 
			},
			{
				"x": 1.6541166171,
				"y": -0.8743081198,
				"z": 2.5971854753,
				"element": "H" 
			},
			{
				"x": 3.3584414933,
				"y": -2.9034855379,
				"z": -1.228306879,
				"element": "H" 
			},
			{
				"x": 1.8842172829,
				"y": -3.4308252497,
				"z": -2.0465905071,
				"element": "H" 
			},
			{
				"x": 2.708765829,
				"y": -1.9669756771,
				"z": -2.5836415112,
				"element": "H" 
			}
		],
		 "valence_orbital": [ 
			{
				"type": "occ",
				"energy": -0.26624,
				"method": "rhf"
			},
			{
				"type": "occ",
				"energy": -0.2629,
				"method": "rhf"
			},
			{
				"type": "occ",
				"energy": -0.25407,
				"method": "rhf"
			},
			{
				"type": "occ",
				"energy": -0.22928,
				"method": "rhf"
			},
			{
				"type": "occ",
				"energy": -0.21658,
				"method": "rhf"
			},
			{
				"type": "unocc",
				"energy": -0.0481,
				"method": "rhf"
			},
			{
				"type": "unocc",
				"energy": -0.03964,
				"method": "rhf"
			},
			{
				"type": "unocc",
				"energy": 0.00662,
				"method": "rhf"
			},
			{
				"type": "unocc",
				"energy": 0.03674,
				"method": "rhf"
			},
			{
				"type": "unocc",
				"energy": 0.0567,
				"method": "rhf"
			}
		],
		"cosmo_sigma_profile": { 
			"-0.025": 0.0,
			"-0.024": 0.0,
			"-0.023": 0.0,
			"-0.022": 0.0,
			"-0.021": 0.0,
			"-0.02": 0.0,
			"-0.019": 0.0,
			"-0.018": 0.230059249202,
			"-0.017": 0.906367723197,
			"-0.016": 0.902716001043,
			"-0.015": 1.0859479979,
			"-0.014": 0.376855185402,
			"-0.013": 0.867842788545,
			"-0.012": 0.427306636706,
			"-0.011": 0.488728870949,
			"-0.01": 2.087868034,
			"-0.009": 2.16633626193,
			"-0.008": 3.31942712239,
			"-0.007": 3.12008156654,
			"-0.006": 6.31807997915,
			"-0.005": 22.5243196339,
			"-0.004": 29.4074650245,
			"-0.003": 26.7806511342,
			"-0.002": 29.1654984535,
			"-0.001": 30.6737480611,
			"0.0": 25.5860894951,
			"0.001": 19.2862924397,
			"0.002": 16.5515072176,
			"0.003": 8.7231199197,
			"0.004": 11.7178349344,
			"0.005": 5.63603960723,
			"0.006": 3.48963792859,
			"0.007": 2.95307865856,
			"0.008": 3.55101506487,
			"0.009": 2.15900897435,
			"0.01": 4.12031055694,
			"0.011": 3.97926285048,
			"0.012": 6.80919092888,
			"0.013": 5.09068158094,
			"0.014": 4.01013106251,
			"0.015": 2.02519463123,
			"0.016": 1.41736103626,
			"0.017": 1.08260441177,
			"0.018": 0.0330388858272,
			"0.019": 0.0,
			"0.02": 0.0,
			"0.021": 0.0,
			"0.022": 0.0,
			"0.023": 0.0,
			"0.024": 0.0,
			"0.025": 0.0
		}
	}
}
