{
	 "smiles": "CNC1=C(C=CS1)C#N", 
	 "Tm": 345.15, 
	 "num_atms": 15, 
	 "gaussian": { 
		 "optdone": 1, 
		 "sigma_profile": "yes", 
		 "theory": "DFT", 
		 "functional": "B3LYP", 
		 "basiset": "6-31G**", 
		 "properties": { 
			 "R2extent": 1559.6498, 
			 "electric_dipole_moment_norm": 4.26961750629, 
			 "electric_quadrupole_moment_norm": 20.8121071321, 
			 "total_energy": -739.909762864, 
			 "HOMO_LUMO_gap": 0.18611, 
			 "cosmo_polarized_energy": -11.27, 
			 "cosmo_cavitation_energy": 21.47, 
			 "cosmo_dispersion_energy": -15.95, 
			 "cosmo_repulsion_energy": 1.26, 
			 "cosmo_total_nonelectrostatic_energy": 6.78, 
			 "SMD_solvation_energy": 4.61 
		},
		"coords": [
			{
				"x": 2.5319695908,
				"y": 0.656893968,
				"z": -1.359825857,
				"element": "C" 
			},
			{
				"x": 2.0897206701,
				"y": -0.3431142183,
				"z": -0.4064794749,
				"element": "N" 
			},
			{
				"x": 0.8459502705,
				"y": -0.3501070165,
				"z": 0.1462067442,
				"element": "C" 
			},
			{
				"x": 0.2593616287,
				"y": -1.3748815378,
				"z": 0.8904742583,
				"element": "C" 
			},
			{
				"x": -1.0550141807,
				"y": -1.0316376052,
				"z": 1.3629149308,
				"element": "C" 
			},
			{
				"x": -1.4556355164,
				"y": 0.2085769257,
				"z": 0.9850595323,
				"element": "C" 
			},
			{
				"x": -0.2324382627,
				"y": 1.0218775809,
				"z": 0.0241900681,
				"element": "S" 
			},
			{
				"x": 0.9362467621,
				"y": -2.6002019081,
				"z": 1.1127491421,
				"element": "C" 
			},
			{
				"x": 1.5408506772,
				"y": -3.587796289,
				"z": 1.2569581961,
				"element": "N" 
			},
			{
				"x": 1.9351945937,
				"y": 0.6566538842,
				"z": -2.2832339087,
				"element": "H" 
			},
			{
				"x": 2.479484066,
				"y": 1.6572290924,
				"z": -0.9150654149,
				"element": "H" 
			},
			{
				"x": 3.5740221687,
				"y": 0.4597393417,
				"z": -1.6166338577,
				"element": "H" 
			},
			{
				"x": 2.5649637843,
				"y": -1.235528737,
				"z": -0.4036129885,
				"element": "H" 
			},
			{
				"x": -1.6579065716,
				"y": -1.7063899861,
				"z": 1.9585237544,
				"element": "H" 
			},
			{
				"x": -2.3850696805,
				"y": 0.7168865052,
				"z": 1.1943748753,
				"element": "H" 
			}
		],
		 "valence_orbital": [ 
			{
				"type": "occ",
				"energy": -0.34126,
				"method": "rhf"
			},
			{
				"type": "occ",
				"energy": -0.32226,
				"method": "rhf"
			},
			{
				"type": "occ",
				"energy": -0.31708,
				"method": "rhf"
			},
			{
				"type": "occ",
				"energy": -0.25998,
				"method": "rhf"
			},
			{
				"type": "occ",
				"energy": -0.20493,
				"method": "rhf"
			},
			{
				"type": "unocc",
				"energy": -0.01882,
				"method": "rhf"
			},
			{
				"type": "unocc",
				"energy": 0.00301,
				"method": "rhf"
			},
			{
				"type": "unocc",
				"energy": 0.01599,
				"method": "rhf"
			},
			{
				"type": "unocc",
				"energy": 0.04382,
				"method": "rhf"
			},
			{
				"type": "unocc",
				"energy": 0.05805,
				"method": "rhf"
			}
		],
		"cosmo_sigma_profile": { 
			"-0.025": 0.0,
			"-0.024": 0.0,
			"-0.023": 0.0,
			"-0.022": 0.0,
			"-0.021": 0.0,
			"-0.02": 0.0,
			"-0.019": 0.0,
			"-0.018": 0.0,
			"-0.017": 0.0,
			"-0.016": 0.0,
			"-0.015": 0.0208935182207,
			"-0.014": 0.942945006874,
			"-0.013": 1.05026772746,
			"-0.012": 0.604755300539,
			"-0.011": 1.28188154165,
			"-0.01": 1.27823181325,
			"-0.009": 1.92193445221,
			"-0.008": 4.69814338055,
			"-0.007": 7.01200558559,
			"-0.006": 7.80564743784,
			"-0.005": 10.961259211,
			"-0.004": 13.0136371518,
			"-0.003": 14.9886459288,
			"-0.002": 11.6239373545,
			"-0.001": 8.21181943485,
			"0.0": 9.50206605425,
			"0.001": 12.5684376991,
			"0.002": 13.0022995938,
			"0.003": 13.571046844,
			"0.004": 10.4712943696,
			"0.005": 5.43229161322,
			"0.006": 3.22958227931,
			"0.007": 2.91922313086,
			"0.008": 1.83072389104,
			"0.009": 3.20172859014,
			"0.01": 3.40282667753,
			"0.011": 3.16114629641,
			"0.012": 3.02579244909,
			"0.013": 2.6255542966,
			"0.014": 1.42553047169,
			"0.015": 0.0366192491448,
			"0.016": 0.0,
			"0.017": 0.0,
			"0.018": 0.0,
			"0.019": 0.0,
			"0.02": 0.0,
			"0.021": 0.0,
			"0.022": 0.0,
			"0.023": 0.0,
			"0.024": 0.0,
			"0.025": 0.0
		}
	}
}
