{
	 "smiles": "CCCCCCCCCC(=O)OC(=O)CCCCCCCCC", 
	 "Tm": 297.85, 
	 "num_atms": 61, 
	 "gaussian": { 
		 "optdone": 1, 
		 "sigma_profile": "yes", 
		 "theory": "DFT", 
		 "functional": "B3LYP", 
		 "basiset": "6-31G**", 
		 "properties": { 
			 "R2extent": 17778.9881, 
			 "electric_dipole_moment_norm": 3.92450335966, 
			 "electric_quadrupole_moment_norm": 21.9961174244, 
			 "total_energy": -1010.77385835, 
			 "HOMO_LUMO_gap": 0.24284, 
			 "cosmo_polarized_energy": -10.89, 
			 "cosmo_cavitation_energy": 61.18, 
			 "cosmo_dispersion_energy": -40.72, 
			 "cosmo_repulsion_energy": 3.34, 
			 "cosmo_total_nonelectrostatic_energy": 23.8, 
			 "SMD_solvation_energy": 9.85 
		},
		"coords": [
			{
				"x": 7.4536780971,
				"y": 0.2839393236,
				"z": -2.8589381818,
				"element": "C" 
			},
			{
				"x": 6.8905719777,
				"y": 1.2888140991,
				"z": -1.8465890052,
				"element": "C" 
			},
			{
				"x": 5.3649513765,
				"y": 1.2248151216,
				"z": -1.6645419499,
				"element": "C" 
			},
			{
				"x": 4.8459431412,
				"y": -0.078250585,
				"z": -1.03985091,
				"element": "C" 
			},
			{
				"x": 3.3271179932,
				"y": -0.0674116308,
				"z": -0.812241728,
				"element": "C" 
			},
			{
				"x": 2.7667042212,
				"y": -1.3220798388,
				"z": -0.1199254151,
				"element": "C" 
			},
			{
				"x": 2.8318188058,
				"y": -2.5953414642,
				"z": -0.9769568309,
				"element": "C" 
			},
			{
				"x": 2.3346582817,
				"y": -3.8795105561,
				"z": -0.290280148,
				"element": "C" 
			},
			{
				"x": 0.861698409,
				"y": -3.8484654349,
				"z": 0.1450206814,
				"element": "C" 
			},
			{
				"x": 0.6350503574,
				"y": -3.2468224277,
				"z": 1.5147639184,
				"element": "C" 
			},
			{
				"x": 1.4420700221,
				"y": -3.1390437347,
				"z": 2.3963015702,
				"element": "O" 
			},
			{
				"x": -0.681401613,
				"y": -2.7986212491,
				"z": 1.6275749104,
				"element": "O" 
			},
			{
				"x": -1.3289937099,
				"y": -2.7669313971,
				"z": 2.8663319498,
				"element": "C" 
			},
			{
				"x": -1.0458842289,
				"y": -3.5010897436,
				"z": 3.7719133808,
				"element": "O" 
			},
			{
				"x": -2.4479562162,
				"y": -1.7537758787,
				"z": 2.8396424264,
				"element": "C" 
			},
			{
				"x": -3.5483254438,
				"y": -2.1028217175,
				"z": 1.815108945,
				"element": "C" 
			},
			{
				"x": -4.7375400582,
				"y": -1.1272737042,
				"z": 1.8417124023,
				"element": "C" 
			},
			{
				"x": -4.4272436767,
				"y": 0.3324286792,
				"z": 1.4644566343,
				"element": "C" 
			},
			{
				"x": -3.9209616088,
				"y": 0.524461108,
				"z": 0.0268364485,
				"element": "C" 
			},
			{
				"x": -3.6524786953,
				"y": 1.9880978019,
				"z": -0.3644591053,
				"element": "C" 
			},
			{
				"x": -4.9022818182,
				"y": 2.875648757,
				"z": -0.448712974,
				"element": "C" 
			},
			{
				"x": -4.5989026844,
				"y": 4.3051978289,
				"z": -0.916564495,
				"element": "C" 
			},
			{
				"x": -5.8458042828,
				"y": 5.1910101111,
				"z": -1.0031937854,
				"element": "C" 
			},
			{
				"x": 7.2840427543,
				"y": -0.7513980596,
				"z": -2.5460097684,
				"element": "H" 
			},
			{
				"x": 6.9876385355,
				"y": 0.4128016446,
				"z": -3.8430579866,
				"element": "H" 
			},
			{
				"x": 8.5336865841,
				"y": 0.4143244038,
				"z": -2.9843840934,
				"element": "H" 
			},
			{
				"x": 7.3763026296,
				"y": 1.1373552606,
				"z": -0.8727384638,
				"element": "H" 
			},
			{
				"x": 7.1627395062,
				"y": 2.303332369,
				"z": -2.1650480642,
				"element": "H" 
			},
			{
				"x": 4.8786181338,
				"y": 1.3784959431,
				"z": -2.6390201821,
				"element": "H" 
			},
			{
				"x": 5.049371044,
				"y": 2.0671926453,
				"z": -1.0337288443,
				"element": "H" 
			},
			{
				"x": 5.1198527348,
				"y": -0.9264917571,
				"z": -1.6786408379,
				"element": "H" 
			},
			{
				"x": 5.3522326766,
				"y": -0.2440768233,
				"z": -0.0776275383,
				"element": "H" 
			},
			{
				"x": 2.816456214,
				"y": 0.0755775721,
				"z": -1.775919095,
				"element": "H" 
			},
			{
				"x": 3.0718236607,
				"y": 0.8107488046,
				"z": -0.2038526456,
				"element": "H" 
			},
			{
				"x": 3.2976545688,
				"y": -1.489300798,
				"z": 0.8262513425,
				"element": "H" 
			},
			{
				"x": 1.7224535603,
				"y": -1.1227741024,
				"z": 0.154436431,
				"element": "H" 
			},
			{
				"x": 2.2532538747,
				"y": -2.4345486385,
				"z": -1.8989229746,
				"element": "H" 
			},
			{
				"x": 3.8660948271,
				"y": -2.7689745915,
				"z": -1.2977107874,
				"element": "H" 
			},
			{
				"x": 2.950172664,
				"y": -4.0967337411,
				"z": 0.5896559077,
				"element": "H" 
			},
			{
				"x": 2.4704006071,
				"y": -4.716542189,
				"z": -0.9845347691,
				"element": "H" 
			},
			{
				"x": 0.226795741,
				"y": -3.3300154121,
				"z": -0.5816727832,
				"element": "H" 
			},
			{
				"x": 0.461488827,
				"y": -4.8700863118,
				"z": 0.2126413694,
				"element": "H" 
			},
			{
				"x": -2.8624772368,
				"y": -1.7098679667,
				"z": 3.8504189041,
				"element": "H" 
			},
			{
				"x": -2.0115356317,
				"y": -0.776524194,
				"z": 2.6034273674,
				"element": "H" 
			},
			{
				"x": -3.9199648202,
				"y": -3.1120729337,
				"z": 2.0305096569,
				"element": "H" 
			},
			{
				"x": -3.1064779855,
				"y": -2.1434645858,
				"z": 0.8144409351,
				"element": "H" 
			},
			{
				"x": -5.1860646966,
				"y": -1.1464609695,
				"z": 2.843993462,
				"element": "H" 
			},
			{
				"x": -5.5073465685,
				"y": -1.5113699285,
				"z": 1.1591114661,
				"element": "H" 
			},
			{
				"x": -3.693774748,
				"y": 0.7559100639,
				"z": 2.1648954195,
				"element": "H" 
			},
			{
				"x": -5.3440838479,
				"y": 0.9160197231,
				"z": 1.6103809015,
				"element": "H" 
			},
			{
				"x": -2.9931581138,
				"y": -0.0450449947,
				"z": -0.1121494911,
				"element": "H" 
			},
			{
				"x": -4.6497724633,
				"y": 0.0902957134,
				"z": -0.6731830939,
				"element": "H" 
			},
			{
				"x": -2.9413062152,
				"y": 2.42907561,
				"z": 0.3490141205,
				"element": "H" 
			},
			{
				"x": -3.1470123294,
				"y": 2.0024971063,
				"z": -1.3395950919,
				"element": "H" 
			},
			{
				"x": -5.4004469445,
				"y": 2.9208426235,
				"z": 0.5288551398,
				"element": "H" 
			},
			{
				"x": -5.6261182312,
				"y": 2.415594259,
				"z": -1.137335188,
				"element": "H" 
			},
			{
				"x": -4.1071232163,
				"y": 4.2673719672,
				"z": -1.8982479485,
				"element": "H" 
			},
			{
				"x": -3.8716538897,
				"y": 4.7626265474,
				"z": -0.2318476648,
				"element": "H" 
			},
			{
				"x": -6.577715741,
				"y": 4.7775375392,
				"z": -1.7065837986,
				"element": "H" 
			},
			{
				"x": -6.3391034241,
				"y": 5.2778224692,
				"z": -0.0282399198,
				"element": "H" 
			},
			{
				"x": -5.5964316866,
				"y": 6.202552264,
				"z": -1.3400901319,
				"element": "H" 
			}
		],
		 "valence_orbital": [ 
			{
				"type": "occ",
				"energy": -0.30848,
				"method": "rhf"
			},
			{
				"type": "occ",
				"energy": -0.30599,
				"method": "rhf"
			},
			{
				"type": "occ",
				"energy": -0.30128,
				"method": "rhf"
			},
			{
				"type": "occ",
				"energy": -0.29032,
				"method": "rhf"
			},
			{
				"type": "occ",
				"energy": -0.26693,
				"method": "rhf"
			},
			{
				"type": "unocc",
				"energy": -0.02409,
				"method": "rhf"
			},
			{
				"type": "unocc",
				"energy": 0.01782,
				"method": "rhf"
			},
			{
				"type": "unocc",
				"energy": 0.07479,
				"method": "rhf"
			},
			{
				"type": "unocc",
				"energy": 0.08435,
				"method": "rhf"
			},
			{
				"type": "unocc",
				"energy": 0.09235,
				"method": "rhf"
			}
		],
		"cosmo_sigma_profile": { 
			"-0.025": 0.0,
			"-0.024": 0.0,
			"-0.023": 0.0,
			"-0.022": 0.0,
			"-0.021": 0.0,
			"-0.02": 0.0,
			"-0.019": 0.0,
			"-0.018": 0.0,
			"-0.017": 0.0,
			"-0.016": 0.0,
			"-0.015": 0.0,
			"-0.014": 0.0,
			"-0.013": 0.0,
			"-0.012": 0.0,
			"-0.011": 0.0,
			"-0.01": 0.0,
			"-0.009": 0.0,
			"-0.008": 0.458993581874,
			"-0.007": 2.65846818432,
			"-0.006": 5.2115539941,
			"-0.005": 8.70834987514,
			"-0.004": 15.4864983909,
			"-0.003": 30.3258096109,
			"-0.002": 68.3681425139,
			"-0.001": 93.5262139867,
			"0.0": 94.9737966513,
			"0.001": 75.1643775807,
			"0.002": 31.3235964357,
			"0.003": 5.69944464068,
			"0.004": 3.90468105781,
			"0.005": 3.73993855357,
			"0.006": 2.95537409641,
			"0.007": 2.44403227291,
			"0.008": 2.88353286673,
			"0.009": 4.15512818436,
			"0.01": 7.04786196822,
			"0.011": 8.3062999379,
			"0.012": 2.72342544698,
			"0.013": 0.201624628966,
			"0.014": 0.0,
			"0.015": 0.0,
			"0.016": 0.0,
			"0.017": 0.0,
			"0.018": 0.0,
			"0.019": 0.0,
			"0.02": 0.0,
			"0.021": 0.0,
			"0.022": 0.0,
			"0.023": 0.0,
			"0.024": 0.0,
			"0.025": 0.0
		}
	}
}
