{
	 "smiles": "CC(C)(C)OC(=O)N1C(CC2=CC=CC=C12)C(O)=O", 
	 "Tm": 395.15, 
	 "num_atms": 36, 
	 "gaussian": { 
		 "optdone": 1, 
		 "sigma_profile": "yes", 
		 "theory": "DFT", 
		 "functional": "B3LYP", 
		 "basiset": "6-31G**", 
		 "properties": { 
			 "R2extent": 5546.4788, 
			 "electric_dipole_moment_norm": 1.01297429385, 
			 "electric_quadrupole_moment_norm": 14.2438182367, 
			 "total_energy": -899.437194463, 
			 "HOMO_LUMO_gap": 0.20601, 
			 "cosmo_polarized_energy": -14.22, 
			 "cosmo_cavitation_energy": 38.47, 
			 "cosmo_dispersion_energy": -26.05, 
			 "cosmo_repulsion_energy": 2.0, 
			 "cosmo_total_nonelectrostatic_energy": 14.42, 
			 "SMD_solvation_energy": 8.12 
		},
		"coords": [
			{
				"x": 2.2192177256,
				"y": 1.5511922706,
				"z": -2.2130145478,
				"element": "C" 
			},
			{
				"x": 0.8708148995,
				"y": 0.8257544257,
				"z": -2.1690824538,
				"element": "C" 
			},
			{
				"x": -0.3138923012,
				"y": 1.7816566026,
				"z": -2.3409355042,
				"element": "C" 
			},
			{
				"x": 0.8214760907,
				"y": -0.2995238949,
				"z": -3.2055035687,
				"element": "C" 
			},
			{
				"x": 0.7347968431,
				"y": 0.090970203,
				"z": -0.8975016691,
				"element": "O" 
			},
			{
				"x": 0.7088205778,
				"y": 0.741602767,
				"z": 0.2895737996,
				"element": "C" 
			},
			{
				"x": 0.852176386,
				"y": 1.9408546254,
				"z": 0.4588653845,
				"element": "O" 
			},
			{
				"x": 0.5014066581,
				"y": -0.1712585329,
				"z": 1.2992555375,
				"element": "N" 
			},
			{
				"x": 0.2641949878,
				"y": -1.6019444598,
				"z": 1.0495944065,
				"element": "C" 
			},
			{
				"x": 0.2031393189,
				"y": -2.2399550163,
				"z": 2.4749038836,
				"element": "C" 
			},
			{
				"x": 0.1730388923,
				"y": -1.0459759694,
				"z": 3.4004385377,
				"element": "C" 
			},
			{
				"x": 0.0118831955,
				"y": -1.0005208718,
				"z": 4.7789179595,
				"element": "C" 
			},
			{
				"x": 0.0499800386,
				"y": 0.2387884885,
				"z": 5.4293716955,
				"element": "C" 
			},
			{
				"x": 0.2507982394,
				"y": 1.4080499328,
				"z": 4.6927775501,
				"element": "C" 
			},
			{
				"x": 0.4139671058,
				"y": 1.3789779127,
				"z": 3.3034070191,
				"element": "C" 
			},
			{
				"x": 0.3683164313,
				"y": 0.1351992641,
				"z": 2.6732783315,
				"element": "C" 
			},
			{
				"x": -1.0172199775,
				"y": -1.8875227635,
				"z": 0.2703114315,
				"element": "C" 
			},
			{
				"x": -1.9681596438,
				"y": -0.9463395797,
				"z": 0.4447211751,
				"element": "O" 
			},
			{
				"x": -1.1834191058,
				"y": -2.8890568702,
				"z": -0.3889041734,
				"element": "O" 
			},
			{
				"x": 2.2655596428,
				"y": 2.3398356258,
				"z": -1.461920131,
				"element": "H" 
			},
			{
				"x": 3.0366466556,
				"y": 0.844676426,
				"z": -2.037819261,
				"element": "H" 
			},
			{
				"x": 2.362063961,
				"y": 1.9957359031,
				"z": -3.2033255443,
				"element": "H" 
			},
			{
				"x": -0.2800586328,
				"y": 2.2319976099,
				"z": -3.3381234996,
				"element": "H" 
			},
			{
				"x": -1.2572952926,
				"y": 1.2351366021,
				"z": -2.244837427,
				"element": "H" 
			},
			{
				"x": -0.2888701451,
				"y": 2.5761194018,
				"z": -1.5945928892,
				"element": "H" 
			},
			{
				"x": 0.8980102917,
				"y": 0.1171803177,
				"z": -4.2141041303,
				"element": "H" 
			},
			{
				"x": 1.6488603446,
				"y": -0.9992275159,
				"z": -3.0563458922,
				"element": "H" 
			},
			{
				"x": -0.1163197213,
				"y": -0.8569929788,
				"z": -3.1285241831,
				"element": "H" 
			},
			{
				"x": 1.0716512623,
				"y": -2.0271617133,
				"z": 0.4528158904,
				"element": "H" 
			},
			{
				"x": 1.0878954502,
				"y": -2.8629937142,
				"z": 2.6465798908,
				"element": "H" 
			},
			{
				"x": -0.6689564325,
				"y": -2.891536282,
				"z": 2.587412817,
				"element": "H" 
			},
			{
				"x": -0.1410224882,
				"y": -1.9155694225,
				"z": 5.3451275571,
				"element": "H" 
			},
			{
				"x": -0.0762920768,
				"y": 0.2890840183,
				"z": 6.5065604791,
				"element": "H" 
			},
			{
				"x": 0.2799224337,
				"y": 2.3663083765,
				"z": 5.203599488,
				"element": "H" 
			},
			{
				"x": 0.567918765,
				"y": 2.2798733657,
				"z": 2.7263043763,
				"element": "H" 
			},
			{
				"x": -2.7428503796,
				"y": -1.248714554,
				"z": -0.0585823358,
				"element": "H" 
			}
		],
		 "valence_orbital": [ 
			{
				"type": "occ",
				"energy": -0.2945,
				"method": "rhf"
			},
			{
				"type": "occ",
				"energy": -0.27851,
				"method": "rhf"
			},
			{
				"type": "occ",
				"energy": -0.26897,
				"method": "rhf"
			},
			{
				"type": "occ",
				"energy": -0.24543,
				"method": "rhf"
			},
			{
				"type": "occ",
				"energy": -0.21018,
				"method": "rhf"
			},
			{
				"type": "unocc",
				"energy": -0.00417,
				"method": "rhf"
			},
			{
				"type": "unocc",
				"energy": -0.00105,
				"method": "rhf"
			},
			{
				"type": "unocc",
				"energy": 0.00461,
				"method": "rhf"
			},
			{
				"type": "unocc",
				"energy": 0.05871,
				"method": "rhf"
			},
			{
				"type": "unocc",
				"energy": 0.06215,
				"method": "rhf"
			}
		],
		"cosmo_sigma_profile": { 
			"-0.025": 0.0,
			"-0.024": 0.0,
			"-0.023": 0.0,
			"-0.022": 0.0,
			"-0.021": 0.0,
			"-0.02": 0.0,
			"-0.019": 0.182556950076,
			"-0.018": 0.943859422147,
			"-0.017": 0.952142637667,
			"-0.016": 0.698020337242,
			"-0.015": 1.00692232066,
			"-0.014": 0.715395891447,
			"-0.013": 0.15287139876,
			"-0.012": 0.664009006217,
			"-0.011": 1.25257836827,
			"-0.01": 0.803620288411,
			"-0.009": 0.275065182059,
			"-0.008": 0.930323585281,
			"-0.007": 4.80475372241,
			"-0.006": 11.568278671,
			"-0.005": 14.646673262,
			"-0.004": 25.7185539346,
			"-0.003": 30.1030801424,
			"-0.002": 24.5119698063,
			"-0.001": 27.0412970568,
			"0.0": 32.7187723275,
			"0.001": 25.0475566953,
			"0.002": 13.8857006904,
			"0.003": 16.6871289415,
			"0.004": 16.2548092945,
			"0.005": 14.4413714389,
			"0.006": 10.3579115657,
			"0.007": 4.49277635428,
			"0.008": 3.59549766377,
			"0.009": 3.19410699963,
			"0.01": 3.64527478724,
			"0.011": 6.54405026514,
			"0.012": 4.91731922292,
			"0.013": 0.209380065522,
			"0.014": 0.0,
			"0.015": 0.0,
			"0.016": 0.0,
			"0.017": 0.0,
			"0.018": 0.0,
			"0.019": 0.0,
			"0.02": 0.0,
			"0.021": 0.0,
			"0.022": 0.0,
			"0.023": 0.0,
			"0.024": 0.0,
			"0.025": 0.0
		}
	}
}
