{
	 "smiles": "CCCCCCCCC(=O)OCCCCCCC", 
	 "Tm": 257.65, 
	 "num_atms": 50, 
	 "gaussian": { 
		 "optdone": 1, 
		 "sigma_profile": "yes", 
		 "theory": "DFT", 
		 "functional": "B3LYP", 
		 "basiset": "6-31G**", 
		 "properties": { 
			 "R2extent": 11431.5635, 
			 "electric_dipole_moment_norm": 2.13430728809, 
			 "electric_quadrupole_moment_norm": 9.75699335554, 
			 "total_energy": -779.492728563, 
			 "HOMO_LUMO_gap": 0.27721, 
			 "cosmo_polarized_energy": -6.77, 
			 "cosmo_cavitation_energy": 49.8, 
			 "cosmo_dispersion_energy": -33.53, 
			 "cosmo_repulsion_energy": 2.74, 
			 "cosmo_total_nonelectrostatic_energy": 19.01, 
			 "SMD_solvation_energy": 7.78 
		},
		"coords": [
			{
				"x": 4.4053002636,
				"y": 5.410859649,
				"z": -0.3577655031,
				"element": "C" 
			},
			{
				"x": 3.9014968148,
				"y": 5.7407995453,
				"z": 1.0526057111,
				"element": "C" 
			},
			{
				"x": 3.0237242417,
				"y": 4.6487277876,
				"z": 1.6870009778,
				"element": "C" 
			},
			{
				"x": 1.6795217959,
				"y": 4.4247550236,
				"z": 0.977351336,
				"element": "C" 
			},
			{
				"x": 0.7376501041,
				"y": 3.4411224903,
				"z": 1.691933482,
				"element": "C" 
			},
			{
				"x": 1.2381875408,
				"y": 1.9904521327,
				"z": 1.7360747941,
				"element": "C" 
			},
			{
				"x": 0.2314060452,
				"y": 1.0339519034,
				"z": 2.3882335759,
				"element": "C" 
			},
			{
				"x": 0.7264724074,
				"y": -0.4222421283,
				"z": 2.475221198,
				"element": "C" 
			},
			{
				"x": 0.9776371707,
				"y": -1.0631489452,
				"z": 1.1235124598,
				"element": "C" 
			},
			{
				"x": 2.0336027179,
				"y": -1.5272398859,
				"z": 0.7495397457,
				"element": "O" 
			},
			{
				"x": -0.1440732182,
				"y": -1.0614430775,
				"z": 0.3649026787,
				"element": "O" 
			},
			{
				"x": -0.0224724125,
				"y": -1.6514872163,
				"z": -0.9500150001,
				"element": "C" 
			},
			{
				"x": -1.3873212615,
				"y": -1.5995082819,
				"z": -1.6199419782,
				"element": "C" 
			},
			{
				"x": -2.4559810878,
				"y": -2.4404175296,
				"z": -0.9081597372,
				"element": "C" 
			},
			{
				"x": -3.8634225589,
				"y": -2.325175379,
				"z": -1.5174912472,
				"element": "C" 
			},
			{
				"x": -4.0585202834,
				"y": -2.7946189059,
				"z": -2.9728796573,
				"element": "C" 
			},
			{
				"x": -3.8754626954,
				"y": -4.3048142954,
				"z": -3.2380113405,
				"element": "C" 
			},
			{
				"x": -2.4425772896,
				"y": -4.7546477024,
				"z": -3.5546884791,
				"element": "C" 
			},
			{
				"x": 5.0666546808,
				"y": 6.1984231041,
				"z": -0.7339667999,
				"element": "H" 
			},
			{
				"x": 4.9706841694,
				"y": 4.4715430542,
				"z": -0.3644107665,
				"element": "H" 
			},
			{
				"x": 3.5823975462,
				"y": 5.3059672336,
				"z": -1.0722216889,
				"element": "H" 
			},
			{
				"x": 3.3405483844,
				"y": 6.6854639872,
				"z": 1.0285730726,
				"element": "H" 
			},
			{
				"x": 4.7655848,
				"y": 5.9188147547,
				"z": 1.7055544679,
				"element": "H" 
			},
			{
				"x": 3.592738086,
				"y": 3.7098913006,
				"z": 1.7172228313,
				"element": "H" 
			},
			{
				"x": 2.8260789511,
				"y": 4.9188148694,
				"z": 2.7339088835,
				"element": "H" 
			},
			{
				"x": 1.8514232253,
				"y": 4.0711088128,
				"z": -0.0479321404,
				"element": "H" 
			},
			{
				"x": 1.168529468,
				"y": 5.3930442756,
				"z": 0.8825734991,
				"element": "H" 
			},
			{
				"x": -0.2392833303,
				"y": 3.4602592918,
				"z": 1.1897545391,
				"element": "H" 
			},
			{
				"x": 0.5570033328,
				"y": 3.7931759562,
				"z": 2.7180299824,
				"element": "H" 
			},
			{
				"x": 1.4555357011,
				"y": 1.6539030046,
				"z": 0.7124940354,
				"element": "H" 
			},
			{
				"x": 2.1891548577,
				"y": 1.9352067254,
				"z": 2.2812440024,
				"element": "H" 
			},
			{
				"x": -0.713965992,
				"y": 1.0558776907,
				"z": 1.8339676342,
				"element": "H" 
			},
			{
				"x": 0.0064135876,
				"y": 1.380347139,
				"z": 3.4050442758,
				"element": "H" 
			},
			{
				"x": 1.6634310539,
				"y": -0.4855987601,
				"z": 3.0348578095,
				"element": "H" 
			},
			{
				"x": -0.0217730304,
				"y": -1.0291418692,
				"z": 2.999499429,
				"element": "H" 
			},
			{
				"x": 0.7305649854,
				"y": -1.0945863142,
				"z": -1.516978728,
				"element": "H" 
			},
			{
				"x": 0.3412727307,
				"y": -2.6792946759,
				"z": -0.842753215,
				"element": "H" 
			},
			{
				"x": -1.7151562617,
				"y": -0.5532110568,
				"z": -1.678103735,
				"element": "H" 
			},
			{
				"x": -1.2545029422,
				"y": -1.9420558132,
				"z": -2.6534725935,
				"element": "H" 
			},
			{
				"x": -2.1370872723,
				"y": -3.4904511151,
				"z": -0.8842681843,
				"element": "H" 
			},
			{
				"x": -2.5062567384,
				"y": -2.1189499599,
				"z": 0.1386219198,
				"element": "H" 
			},
			{
				"x": -4.1789224346,
				"y": -1.2742468694,
				"z": -1.4540366111,
				"element": "H" 
			},
			{
				"x": -4.5620657429,
				"y": -2.8848063183,
				"z": -0.880657579,
				"element": "H" 
			},
			{
				"x": -5.0818417138,
				"y": -2.5185521315,
				"z": -3.2574038432,
				"element": "H" 
			},
			{
				"x": -3.4054352978,
				"y": -2.2248796999,
				"z": -3.648094724,
				"element": "H" 
			},
			{
				"x": -4.2606831959,
				"y": -4.872563147,
				"z": -2.3797278352,
				"element": "H" 
			},
			{
				"x": -4.5104911974,
				"y": -4.5858632843,
				"z": -4.0876974802,
				"element": "H" 
			},
			{
				"x": -2.0503812594,
				"y": -4.2210425513,
				"z": -4.4283820529,
				"element": "H" 
			},
			{
				"x": -1.7539714556,
				"y": -4.5773448065,
				"z": -2.7235436736,
				"element": "H" 
			},
			{
				"x": -2.4101659907,
				"y": -5.8255780118,
				"z": -3.7825177481,
				"element": "H" 
			}
		],
		 "valence_orbital": [ 
			{
				"type": "occ",
				"energy": -0.30704,
				"method": "rhf"
			},
			{
				"type": "occ",
				"energy": -0.30658,
				"method": "rhf"
			},
			{
				"type": "occ",
				"energy": -0.3043,
				"method": "rhf"
			},
			{
				"type": "occ",
				"energy": -0.29201,
				"method": "rhf"
			},
			{
				"type": "occ",
				"energy": -0.2607,
				"method": "rhf"
			},
			{
				"type": "unocc",
				"energy": 0.01651,
				"method": "rhf"
			},
			{
				"type": "unocc",
				"energy": 0.07585,
				"method": "rhf"
			},
			{
				"type": "unocc",
				"energy": 0.08964,
				"method": "rhf"
			},
			{
				"type": "unocc",
				"energy": 0.0985,
				"method": "rhf"
			},
			{
				"type": "unocc",
				"energy": 0.10094,
				"method": "rhf"
			}
		],
		"cosmo_sigma_profile": { 
			"-0.025": 0.0,
			"-0.024": 0.0,
			"-0.023": 0.0,
			"-0.022": 0.0,
			"-0.021": 0.0,
			"-0.02": 0.0,
			"-0.019": 0.0,
			"-0.018": 0.0,
			"-0.017": 0.0,
			"-0.016": 0.0,
			"-0.015": 0.0,
			"-0.014": 0.0,
			"-0.013": 0.0,
			"-0.012": 0.0,
			"-0.011": 0.0,
			"-0.01": 0.0,
			"-0.009": 0.0,
			"-0.008": 0.0,
			"-0.007": 0.0,
			"-0.006": 0.662771678867,
			"-0.005": 5.09477021803,
			"-0.004": 11.0436650939,
			"-0.003": 25.3909092872,
			"-0.002": 64.6263776255,
			"-0.001": 77.1301553801,
			"0.0": 76.3324423584,
			"0.001": 63.7254698178,
			"0.002": 26.3519971529,
			"0.003": 4.71411230783,
			"0.004": 3.73048662139,
			"0.005": 3.10368494959,
			"0.006": 3.27557192283,
			"0.007": 2.46324700631,
			"0.008": 1.30278588855,
			"0.009": 1.28289984711,
			"0.01": 1.70942297602,
			"0.011": 2.37811768155,
			"0.012": 4.71451346674,
			"0.013": 2.77155618034,
			"0.014": 0.293018031017,
			"0.015": 0.0,
			"0.016": 0.0,
			"0.017": 0.0,
			"0.018": 0.0,
			"0.019": 0.0,
			"0.02": 0.0,
			"0.021": 0.0,
			"0.022": 0.0,
			"0.023": 0.0,
			"0.024": 0.0,
			"0.025": 0.0
		}
	}
}
