{
	 "smiles": "CN(C)CCN=C=S", 
	 "Tm": 309.15, 
	 "num_atms": 18, 
	 "gaussian": { 
		 "optdone": 1, 
		 "sigma_profile": "yes", 
		 "theory": "DFT", 
		 "functional": "B3LYP", 
		 "basiset": "6-31G**", 
		 "properties": { 
			 "R2extent": 2688.7888, 
			 "electric_dipole_moment_norm": 3.70819339571, 
			 "electric_quadrupole_moment_norm": 18.4297201824, 
			 "total_energy": -704.226519008, 
			 "HOMO_LUMO_gap": 0.20546, 
			 "cosmo_polarized_energy": -7.09, 
			 "cosmo_cavitation_energy": 23.41, 
			 "cosmo_dispersion_energy": -16.88, 
			 "cosmo_repulsion_energy": 1.38, 
			 "cosmo_total_nonelectrostatic_energy": 7.91, 
			 "SMD_solvation_energy": 1.54 
		},
		"coords": [
			{
				"x": 1.0423000371,
				"y": -1.1627579192,
				"z": 0.0137816132,
				"element": "C" 
			},
			{
				"x": 0.1976833078,
				"y": 0.0196440993,
				"z": -0.0068951638,
				"element": "N" 
			},
			{
				"x": -0.9411669596,
				"y": -0.0807287253,
				"z": 0.8969548223,
				"element": "C" 
			},
			{
				"x": -0.0886690161,
				"y": 0.5367996296,
				"z": -1.3298730792,
				"element": "C" 
			},
			{
				"x": -0.9089569847,
				"y": -0.3448630535,
				"z": -2.3128916377,
				"element": "C" 
			},
			{
				"x": -2.2952827368,
				"y": -0.4474064928,
				"z": -1.9723877356,
				"element": "N" 
			},
			{
				"x": -3.391427741,
				"y": 0.0012925875,
				"z": -1.8432009282,
				"element": "C" 
			},
			{
				"x": -4.892437979,
				"y": 0.4999158784,
				"z": -1.6319830067,
				"element": "S" 
			},
			{
				"x": 1.3844568261,
				"y": -1.3456037163,
				"z": 1.0380121611,
				"element": "H" 
			},
			{
				"x": 0.5433335855,
				"y": -2.0873049133,
				"z": -0.3335330756,
				"element": "H" 
			},
			{
				"x": 1.9270638508,
				"y": -0.9998430567,
				"z": -0.6112736946,
				"element": "H" 
			},
			{
				"x": -1.6246275642,
				"y": -0.9171219902,
				"z": 0.6723905983,
				"element": "H" 
			},
			{
				"x": -0.5750838271,
				"y": -0.214450902,
				"z": 1.9212274274,
				"element": "H" 
			},
			{
				"x": -1.5217688445,
				"y": 0.8462469209,
				"z": 0.8649823342,
				"element": "H" 
			},
			{
				"x": -0.6023133427,
				"y": 1.499925949,
				"z": -1.2270204887,
				"element": "H" 
			},
			{
				"x": 0.8690096852,
				"y": 0.7323706061,
				"z": -1.8307670312,
				"element": "H" 
			},
			{
				"x": -0.82817065,
				"y": 0.0831481727,
				"z": -3.320852646,
				"element": "H" 
			},
			{
				"x": -0.4890416468,
				"y": -1.3548630743,
				"z": -2.3558704692,
				"element": "H" 
			}
		],
		 "valence_orbital": [ 
			{
				"type": "occ",
				"energy": -0.37011,
				"method": "rhf"
			},
			{
				"type": "occ",
				"energy": -0.36182,
				"method": "rhf"
			},
			{
				"type": "occ",
				"energy": -0.24907,
				"method": "rhf"
			},
			{
				"type": "occ",
				"energy": -0.24627,
				"method": "rhf"
			},
			{
				"type": "occ",
				"energy": -0.21296,
				"method": "rhf"
			},
			{
				"type": "unocc",
				"energy": -0.0075,
				"method": "rhf"
			},
			{
				"type": "unocc",
				"energy": 0.00816,
				"method": "rhf"
			},
			{
				"type": "unocc",
				"energy": 0.06863,
				"method": "rhf"
			},
			{
				"type": "unocc",
				"energy": 0.093,
				"method": "rhf"
			},
			{
				"type": "unocc",
				"energy": 0.1055,
				"method": "rhf"
			}
		],
		"cosmo_sigma_profile": { 
			"-0.025": 0.0,
			"-0.024": 0.0,
			"-0.023": 0.0,
			"-0.022": 0.0,
			"-0.021": 0.0,
			"-0.02": 0.0,
			"-0.019": 0.0,
			"-0.018": 0.0,
			"-0.017": 0.0,
			"-0.016": 0.0,
			"-0.015": 0.0,
			"-0.014": 0.0,
			"-0.013": 0.0,
			"-0.012": 0.0,
			"-0.011": 0.0,
			"-0.01": 0.0,
			"-0.009": 0.0,
			"-0.008": 0.0582645480964,
			"-0.007": 3.05537660065,
			"-0.006": 6.31231853278,
			"-0.005": 14.9326771737,
			"-0.004": 18.2609776584,
			"-0.003": 17.1251701356,
			"-0.002": 16.0141696808,
			"-0.001": 20.4962331908,
			"0.0": 20.6805246282,
			"0.001": 11.9723922882,
			"0.002": 10.6022461205,
			"0.003": 8.19525783103,
			"0.004": 6.31246907096,
			"0.005": 7.14791255752,
			"0.006": 11.5813602515,
			"0.007": 9.61575106175,
			"0.008": 1.05369239978,
			"0.009": 0.557425743848,
			"0.01": 0.603194379704,
			"0.011": 0.701457903322,
			"0.012": 0.547515399038,
			"0.013": 0.344716517204,
			"0.014": 0.512696644462,
			"0.015": 0.500932963635,
			"0.016": 0.0417968895134,
			"0.017": 0.0,
			"0.018": 0.0,
			"0.019": 0.0,
			"0.02": 0.0,
			"0.021": 0.0,
			"0.022": 0.0,
			"0.023": 0.0,
			"0.024": 0.0,
			"0.0": 0.0
		}
	}
}
