{
	 "smiles": "CC(C)(C)OC(=O)NCC(N)C1CCCCC1", 
	 "Tm": 321.15, 
	 "num_atms": 43, 
	 "gaussian": { 
		 "optdone": 1, 
		 "sigma_profile": "yes", 
		 "theory": "DFT", 
		 "functional": "B3LYP", 
		 "basiset": "6-31G**", 
		 "properties": { 
			 "R2extent": 5658.7174, 
			 "electric_dipole_moment_norm": 2.43032984798, 
			 "electric_quadrupole_moment_norm": 12.3500737666, 
			 "total_energy": -771.047298553, 
			 "HOMO_LUMO_gap": 0.28957, 
			 "cosmo_polarized_energy": -12.38, 
			 "cosmo_cavitation_energy": 41.4, 
			 "cosmo_dispersion_energy": -27.7, 
			 "cosmo_repulsion_energy": 2.18, 
			 "cosmo_total_nonelectrostatic_energy": 15.88, 
			 "SMD_solvation_energy": 6.2 
		},
		"coords": [
			{
				"x": -4.0464887886,
				"y": -1.3690766508,
				"z": 0.4349192581,
				"element": "C" 
			},
			{
				"x": -3.114501332,
				"y": -1.478070419,
				"z": -0.7750121738,
				"element": "C" 
			},
			{
				"x": -3.5221802809,
				"y": -0.4817762279,
				"z": -1.8659023948,
				"element": "C" 
			},
			{
				"x": -3.0662860924,
				"y": -2.9192885266,
				"z": -1.2942707837,
				"element": "C" 
			},
			{
				"x": -1.8105236262,
				"y": -1.101147915,
				"z": -0.2099518771,
				"element": "O" 
			},
			{
				"x": -0.6972655265,
				"y": -1.0853725321,
				"z": -0.986434407,
				"element": "C" 
			},
			{
				"x": -0.6460056969,
				"y": -1.3445137982,
				"z": -2.1792350364,
				"element": "O" 
			},
			{
				"x": 0.3998770604,
				"y": -0.7367793037,
				"z": -0.2486076673,
				"element": "N" 
			},
			{
				"x": 0.4318433777,
				"y": -0.4179113243,
				"z": 1.1712584245,
				"element": "C" 
			},
			{
				"x": 0.0125621791,
				"y": 1.0214057984,
				"z": 1.5541799025,
				"element": "C" 
			},
			{
				"x": -0.1903370651,
				"y": 0.9996485225,
				"z": 3.0115680844,
				"element": "N" 
			},
			{
				"x": 1.021942631,
				"y": 2.1509407858,
				"z": 1.2238030604,
				"element": "C" 
			},
			{
				"x": 1.0532263004,
				"y": 2.5269532653,
				"z": -0.2771821816,
				"element": "C" 
			},
			{
				"x": 2.2588062978,
				"y": 3.4259767289,
				"z": -0.5828562219,
				"element": "C" 
			},
			{
				"x": 3.5951676975,
				"y": 2.6729659965,
				"z": -0.361886681,
				"element": "C" 
			},
			{
				"x": 3.4594317829,
				"y": 1.5389247434,
				"z": 0.6796297266,
				"element": "C" 
			},
			{
				"x": 2.4550189482,
				"y": 1.9048508966,
				"z": 1.7820329418,
				"element": "C" 
			},
			{
				"x": -4.0476358678,
				"y": -0.3492581055,
				"z": 0.8312838058,
				"element": "H" 
			},
			{
				"x": -3.7284276151,
				"y": -2.049387135,
				"z": 1.2305677456,
				"element": "H" 
			},
			{
				"x": -5.0694079606,
				"y": -1.6287517933,
				"z": 0.1465407033,
				"element": "H" 
			},
			{
				"x": -4.5398368003,
				"y": -0.7025878372,
				"z": -2.2043763324,
				"element": "H" 
			},
			{
				"x": -2.8445091377,
				"y": -0.5401836376,
				"z": -2.7176215658,
				"element": "H" 
			},
			{
				"x": -3.5097895027,
				"y": 0.5393187686,
				"z": -1.4711463442,
				"element": "H" 
			},
			{
				"x": -2.7334163046,
				"y": -3.5972811348,
				"z": -0.5017724566,
				"element": "H" 
			},
			{
				"x": -4.0677565541,
				"y": -3.2306104765,
				"z": -1.6089693854,
				"element": "H" 
			},
			{
				"x": -2.3861715448,
				"y": -3.0043981522,
				"z": -2.141857534,
				"element": "H" 
			},
			{
				"x": 1.2513788001,
				"y": -0.7143421692,
				"z": -0.7872077264,
				"element": "H" 
			},
			{
				"x": -0.240618188,
				"y": -1.1105145827,
				"z": 1.6863432877,
				"element": "H" 
			},
			{
				"x": 1.4387261202,
				"y": -0.6237146863,
				"z": 1.5435084742,
				"element": "H" 
			},
			{
				"x": -0.9146230427,
				"y": 1.239211812,
				"z": 0.9959581173,
				"element": "H" 
			},
			{
				"x": -0.4648405933,
				"y": 1.9228754997,
				"z": 3.3381994198,
				"element": "H" 
			},
			{
				"x": -0.9542120105,
				"y": 0.3705039443,
				"z": 3.2485330243,
				"element": "H" 
			},
			{
				"x": 0.6253420637,
				"y": 3.0368617228,
				"z": 1.7435631018,
				"element": "H" 
			},
			{
				"x": 0.1168854915,
				"y": 3.0296100684,
				"z": -0.5473198686,
				"element": "H" 
			},
			{
				"x": 1.1016487697,
				"y": 1.6305950008,
				"z": -0.9041210524,
				"element": "H" 
			},
			{
				"x": 2.2148565365,
				"y": 4.3061908681,
				"z": 0.0725246437,
				"element": "H" 
			},
			{
				"x": 2.2043475396,
				"y": 3.8079190803,
				"z": -1.6082383187,
				"element": "H" 
			},
			{
				"x": 4.3637871141,
				"y": 3.3838483464,
				"z": -0.0357630505,
				"element": "H" 
			},
			{
				"x": 3.9510626521,
				"y": 2.2532581829,
				"z": -1.3103756763,
				"element": "H" 
			},
			{
				"x": 3.1335322233,
				"y": 0.6174846338,
				"z": 0.1785637895,
				"element": "H" 
			},
			{
				"x": 4.4378095993,
				"y": 1.3075426773,
				"z": 1.116123531,
				"element": "H" 
			},
			{
				"x": 2.4207367491,
				"y": 1.1395157754,
				"z": 2.5638617491,
				"element": "H" 
			},
			{
				"x": 2.8098435963,
				"y": 2.8164632897,
				"z": 2.2790459444,
				"element": "H" 
			}
		],
		 "valence_orbital": [ 
			{
				"type": "occ",
				"energy": -0.29289,
				"method": "rhf"
			},
			{
				"type": "occ",
				"energy": -0.28437,
				"method": "rhf"
			},
			{
				"type": "occ",
				"energy": -0.25659,
				"method": "rhf"
			},
			{
				"type": "occ",
				"energy": -0.24373,
				"method": "rhf"
			},
			{
				"type": "occ",
				"energy": -0.23376,
				"method": "rhf"
			},
			{
				"type": "unocc",
				"energy": 0.05581,
				"method": "rhf"
			},
			{
				"type": "unocc",
				"energy": 0.06392,
				"method": "rhf"
			},
			{
				"type": "unocc",
				"energy": 0.06985,
				"method": "rhf"
			},
			{
				"type": "unocc",
				"energy": 0.08544,
				"method": "rhf"
			},
			{
				"type": "unocc",
				"energy": 0.09863,
				"method": "rhf"
			}
		],
		"cosmo_sigma_profile": { 
			"-0.025": 0.0,
			"-0.024": 0.0,
			"-0.023": 0.0,
			"-0.022": 0.0,
			"-0.021": 0.0,
			"-0.02": 0.0,
			"-0.019": 0.0,
			"-0.018": 0.0,
			"-0.017": 0.0,
			"-0.016": 0.0,
			"-0.015": 0.0,
			"-0.014": 0.0,
			"-0.013": 0.0,
			"-0.012": 0.315404123752,
			"-0.011": 0.909876732796,
			"-0.01": 1.31063034024,
			"-0.009": 3.97397629197,
			"-0.008": 6.02610496019,
			"-0.007": 5.8157456751,
			"-0.006": 5.48015887817,
			"-0.005": 4.82686023045,
			"-0.004": 15.9395404085,
			"-0.003": 22.2623774441,
			"-0.002": 32.8193686458,
			"-0.001": 47.3565054322,
			"0.0": 55.9720188555,
			"0.001": 46.6042806694,
			"0.002": 22.7960020634,
			"0.003": 7.68705927699,
			"0.004": 5.2680327301,
			"0.005": 5.15816686311,
			"0.006": 3.71953550268,
			"0.007": 1.935169253,
			"0.008": 2.75749505292,
			"0.009": 2.46953420697,
			"0.01": 2.13465385283,
			"0.011": 2.54528907043,
			"0.012": 2.01611465942,
			"0.013": 3.41589929659,
			"0.014": 3.74520237588,
			"0.015": 0.911959235554,
			"0.016": 0.300132469534,
			"0.017": 0.981063432507,
			"0.018": 0.142838883896,
			"0.019": 0.0,
			"0.02": 0.0,
			"0.021": 0.0,
			"0.022": 0.0,
			"0.023": 0.0,
			"0.024": 0.0,
			"0.025": 0.0
		}
	}
}
