{
	 "smiles": "CC(=O)C1=CC=C(C=C1)N1CCCS1(=O)=O", 
	 "Tm": 411.15, 
	 "num_atms": 29, 
	 "gaussian": { 
		 "optdone": 1, 
		 "sigma_profile": "yes", 
		 "theory": "DFT", 
		 "functional": "B3LYP", 
		 "basiset": "6-31G**", 
		 "properties": { 
			 "R2extent": 5430.7485, 
			 "electric_dipole_moment_norm": 8.06985756132, 
			 "electric_quadrupole_moment_norm": 15.7920416372, 
			 "total_energy": -1105.54913561, 
			 "HOMO_LUMO_gap": 0.17668, 
			 "cosmo_polarized_energy": -22.0, 
			 "cosmo_cavitation_energy": 33.21, 
			 "cosmo_dispersion_energy": -24.6, 
			 "cosmo_repulsion_energy": 1.84, 
			 "cosmo_total_nonelectrostatic_energy": 10.45, 
			 "SMD_solvation_energy": 4.68 
		},
		"coords": [
			{
				"x": 0.6658923957,
				"y": 0.0976820226,
				"z": -4.9701643886,
				"element": "C" 
			},
			{
				"x": 1.3648227852,
				"y": 0.924552201,
				"z": -3.9017216304,
				"element": "C" 
			},
			{
				"x": 2.2401957989,
				"y": 1.7208177568,
				"z": -4.2103463766,
				"element": "O" 
			},
			{
				"x": 0.9625593582,
				"y": 0.7463749381,
				"z": -2.4739324912,
				"element": "C" 
			},
			{
				"x": 1.6116732747,
				"y": 1.5158217654,
				"z": -1.4923310196,
				"element": "C" 
			},
			{
				"x": 1.2952319232,
				"y": 1.3890456042,
				"z": -0.1503456516,
				"element": "C" 
			},
			{
				"x": 0.2864836769,
				"y": 0.4912424395,
				"z": 0.2536136969,
				"element": "C" 
			},
			{
				"x": -0.3696739273,
				"y": -0.2821377789,
				"z": -0.7177608684,
				"element": "C" 
			},
			{
				"x": -0.026163402,
				"y": -0.1558554708,
				"z": -2.0616735875,
				"element": "C" 
			},
			{
				"x": -0.0219894463,
				"y": 0.3467552906,
				"z": 1.621232267,
				"element": "N" 
			},
			{
				"x": -0.9330307069,
				"y": -0.6877223372,
				"z": 2.111936878,
				"element": "C" 
			},
			{
				"x": -0.8908182882,
				"y": -0.5790064628,
				"z": 3.6424379417,
				"element": "C" 
			},
			{
				"x": -0.9849332022,
				"y": 0.9129014896,
				"z": 3.9582257171,
				"element": "C" 
			},
			{
				"x": -0.0142761878,
				"y": 1.7405284785,
				"z": 2.6539898587,
				"element": "S" 
			},
			{
				"x": -0.7843128616,
				"y": 2.8335704366,
				"z": 2.0536196634,
				"element": "O" 
			},
			{
				"x": 1.3578642591,
				"y": 1.9901341287,
				"z": 3.1035970272,
				"element": "O" 
			},
			{
				"x": 0.8072506166,
				"y": -0.9746219279,
				"z": -4.7949219715,
				"element": "H" 
			},
			{
				"x": -0.4129059363,
				"y": 0.2892972818,
				"z": -4.9739580329,
				"element": "H" 
			},
			{
				"x": 1.0829654672,
				"y": 0.3623258031,
				"z": -5.9421459548,
				"element": "H" 
			},
			{
				"x": 2.3848660579,
				"y": 2.2054643189,
				"z": -1.8137372454,
				"element": "H" 
			},
			{
				"x": 1.8341132873,
				"y": 1.9656421243,
				"z": 0.5930784386,
				"element": "H" 
			},
			{
				"x": -1.1510750919,
				"y": -0.9774331858,
				"z": -0.4336258278,
				"element": "H" 
			},
			{
				"x": -0.5495172898,
				"y": -0.7676946493,
				"z": -2.7894466151,
				"element": "H" 
			},
			{
				"x": -0.5779258235,
				"y": -1.6640288923,
				"z": 1.7698650975,
				"element": "H" 
			},
			{
				"x": -1.9596841102,
				"y": -0.5451032734,
				"z": 1.7395366753,
				"element": "H" 
			},
			{
				"x": 0.0531520074,
				"y": -0.9856714991,
				"z": 4.0155587406,
				"element": "H" 
			},
			{
				"x": -1.7124811675,
				"y": -1.1333265211,
				"z": 4.103188735,
				"element": "H" 
			},
			{
				"x": -0.5544664762,
				"y": 1.2103308115,
				"z": 4.9153946563,
				"element": "H" 
			},
			{
				"x": -2.0024169907,
				"y": 1.3000151072,
				"z": 3.8653362679,
				"element": "H" 
			}
		],
		 "valence_orbital": [ 
			{
				"type": "occ",
				"energy": -0.31009,
				"method": "rhf"
			},
			{
				"type": "occ",
				"energy": -0.29234,
				"method": "rhf"
			},
			{
				"type": "occ",
				"energy": -0.26157,
				"method": "rhf"
			},
			{
				"type": "occ",
				"energy": -0.24236,
				"method": "rhf"
			},
			{
				"type": "occ",
				"energy": -0.22716,
				"method": "rhf"
			},
			{
				"type": "unocc",
				"energy": -0.05048,
				"method": "rhf"
			},
			{
				"type": "unocc",
				"energy": -0.01157,
				"method": "rhf"
			},
			{
				"type": "unocc",
				"energy": 0.02955,
				"method": "rhf"
			},
			{
				"type": "unocc",
				"energy": 0.04279,
				"method": "rhf"
			},
			{
				"type": "unocc",
				"energy": 0.05253,
				"method": "rhf"
			}
		],
		"cosmo_sigma_profile": { 
			"-0.025": 0.0,
			"-0.024": 0.0,
			"-0.023": 0.0,
			"-0.022": 0.0,
			"-0.021": 0.0,
			"-0.02": 0.0,
			"-0.019": 0.0,
			"-0.018": 0.0,
			"-0.017": 0.0,
			"-0.016": 0.0,
			"-0.015": 0.0,
			"-0.014": 0.0,
			"-0.013": 0.0,
			"-0.012": 0.0,
			"-0.011": 0.0,
			"-0.01": 0.0629758971068,
			"-0.009": 3.53349530445,
			"-0.008": 5.85487888243,
			"-0.007": 14.6763559744,
			"-0.006": 30.0010224069,
			"-0.005": 27.7646206634,
			"-0.004": 19.8930932014,
			"-0.003": 15.3722384042,
			"-0.002": 12.9384787245,
			"-0.001": 13.3613330303,
			"0.0": 11.6833730511,
			"0.001": 8.51976772382,
			"0.002": 13.110250164,
			"0.003": 16.0075881758,
			"0.004": 12.7617027157,
			"0.005": 5.57155183091,
			"0.006": 4.77951824236,
			"0.007": 5.50880221309,
			"0.008": 4.83848708667,
			"0.009": 5.62911804073,
			"0.01": 12.3789198029,
			"0.011": 11.6361815416,
			"0.012": 4.88217292695,
			"0.013": 2.25814850607,
			"0.014": 0.458706033346,
			"0.015": 0.0,
			"0.016": 0.0,
			"0.017": 0.0,
			"0.018": 0.0,
			"0.019": 0.0,
			"0.02": 0.0,
			"0.021": 0.0,
			"0.022": 0.0,
			"0.023": 0.0,
			"0.024": 0.0,
			"0.025": 0.0
		}
	}
}
