{
	 "smiles": "CCN(CC)CC1=CC(NC2=CC=NC3=C2C=CC(Cl)=C3)=CC=C1O", 
	 "Tm": 481.15, 
	 "num_atms": 47, 
	 "gaussian": { 
		 "optdone": 1, 
		 "sigma_profile": "yes", 
		 "theory": "DFT", 
		 "functional": "B3LYP", 
		 "basiset": "6-31G**", 
		 "properties": { 
			 "R2extent": 14906.3867, 
			 "electric_dipole_moment_norm": 5.9416832859, 
			 "electric_quadrupole_moment_norm": 27.3962752963, 
			 "total_energy": -1475.06314839, 
			 "HOMO_LUMO_gap": 0.1491, 
			 "cosmo_polarized_energy": -17.14, 
			 "cosmo_cavitation_energy": 50.69, 
			 "cosmo_dispersion_energy": -35.43, 
			 "cosmo_repulsion_energy": 2.7, 
			 "cosmo_total_nonelectrostatic_energy": 17.96, 
			 "SMD_solvation_energy": 5.58 
		},
		"coords": [
			{
				"x": -3.0216944667,
				"y": 2.2537694115,
				"z": 1.2605828138,
				"element": "C" 
			},
			{
				"x": -3.7389803529,
				"y": 1.695585493,
				"z": 0.0278440104,
				"element": "C" 
			},
			{
				"x": -2.9851957644,
				"y": 1.8611213519,
				"z": -1.2333535765,
				"element": "N" 
			},
			{
				"x": -3.4435565747,
				"y": 3.0003470622,
				"z": -2.0375594393,
				"element": "C" 
			},
			{
				"x": -3.2427205773,
				"y": 4.361208832,
				"z": -1.3712644661,
				"element": "C" 
			},
			{
				"x": -2.9850788698,
				"y": 0.6282177566,
				"z": -2.0294500511,
				"element": "C" 
			},
			{
				"x": -2.0797828495,
				"y": -0.4497783531,
				"z": -1.4584332663,
				"element": "C" 
			},
			{
				"x": -0.9131613087,
				"y": -0.1172548067,
				"z": -0.7688981603,
				"element": "C" 
			},
			{
				"x": -0.0407156667,
				"y": -1.0932196801,
				"z": -0.2701395816,
				"element": "C" 
			},
			{
				"x": 1.1616251093,
				"y": -0.6891961368,
				"z": 0.357769118,
				"element": "N" 
			},
			{
				"x": 1.6965495592,
				"y": -1.1727897013,
				"z": 1.5380584878,
				"element": "C" 
			},
			{
				"x": 1.0314928722,
				"y": -2.0569643798,
				"z": 2.3795464887,
				"element": "C" 
			},
			{
				"x": 1.6421290668,
				"y": -2.4588956138,
				"z": 3.5828537508,
				"element": "C" 
			},
			{
				"x": 2.8249950591,
				"y": -2.0607422279,
				"z": 4.0131881247,
				"element": "N" 
			},
			{
				"x": 3.5069853517,
				"y": -1.202726121,
				"z": 3.1998808473,
				"element": "C" 
			},
			{
				"x": 3.0098032627,
				"y": -0.7382538392,
				"z": 1.9403358332,
				"element": "C" 
			},
			{
				"x": 3.8339523861,
				"y": 0.1078688171,
				"z": 1.1554630555,
				"element": "C" 
			},
			{
				"x": 5.0733726483,
				"y": 0.5174324137,
				"z": 1.5972108216,
				"element": "C" 
			},
			{
				"x": 5.5336216294,
				"y": 0.078359242,
				"z": 2.85809625,
				"element": "C" 
			},
			{
				"x": 7.113564282,
				"y": 0.6187012721,
				"z": 3.409950975,
				"element": "Cl" 
			},
			{
				"x": 4.7839121294,
				"y": -0.7645833905,
				"z": 3.642772868,
				"element": "C" 
			},
			{
				"x": -0.348547676,
				"y": -2.444106394,
				"z": -0.4745639064,
				"element": "C" 
			},
			{
				"x": -1.5183968672,
				"y": -2.7937234182,
				"z": -1.1445588913,
				"element": "C" 
			},
			{
				"x": -2.3793779699,
				"y": -1.8109272087,
				"z": -1.6415527426,
				"element": "C" 
			},
			{
				"x": -3.5253867822,
				"y": -2.125436303,
				"z": -2.3260717828,
				"element": "O" 
			},
			{
				"x": -2.8143926945,
				"y": 3.3225411509,
				"z": 1.1694206439,
				"element": "H" 
			},
			{
				"x": -3.6365852839,
				"y": 2.104388445,
				"z": 2.155576395,
				"element": "H" 
			},
			{
				"x": -2.0690013979,
				"y": 1.7388563054,
				"z": 1.4139786752,
				"element": "H" 
			},
			{
				"x": -4.7411056264,
				"y": 2.1478406086,
				"z": -0.0646083942,
				"element": "H" 
			},
			{
				"x": -3.9062614696,
				"y": 0.6253898559,
				"z": 0.1890354697,
				"element": "H" 
			},
			{
				"x": -2.8742290371,
				"y": 2.9865530774,
				"z": -2.9742456256,
				"element": "H" 
			},
			{
				"x": -4.5104880035,
				"y": 2.8915065088,
				"z": -2.3185869901,
				"element": "H" 
			},
			{
				"x": -3.8743784192,
				"y": 4.4869357856,
				"z": -0.4872883495,
				"element": "H" 
			},
			{
				"x": -3.5044575809,
				"y": 5.1584305928,
				"z": -2.0748460003,
				"element": "H" 
			},
			{
				"x": -2.199202916,
				"y": 4.4954312591,
				"z": -1.0700359075,
				"element": "H" 
			},
			{
				"x": -2.6253928492,
				"y": 0.8786030386,
				"z": -3.0361119879,
				"element": "H" 
			},
			{
				"x": -3.9979416602,
				"y": 0.215816383,
				"z": -2.1668648682,
				"element": "H" 
			},
			{
				"x": -0.7036853253,
				"y": 0.937496281,
				"z": -0.6155898789,
				"element": "H" 
			},
			{
				"x": 1.5059137675,
				"y": 0.212013942,
				"z": 0.0635761926,
				"element": "H" 
			},
			{
				"x": 0.0364093493,
				"y": -2.4101059935,
				"z": 2.1402942264,
				"element": "H" 
			},
			{
				"x": 1.100008877,
				"y": -3.1424925322,
				"z": 4.2362967222,
				"element": "H" 
			},
			{
				"x": 3.5137460838,
				"y": 0.4200682017,
				"z": 0.1659479151,
				"element": "H" 
			},
			{
				"x": 5.7001180175,
				"y": 1.1574961059,
				"z": 0.9868505684,
				"element": "H" 
			},
			{
				"x": 5.1365789673,
				"y": -1.1202311973,
				"z": 4.6034171288,
				"element": "H" 
			},
			{
				"x": 0.327775483,
				"y": -3.2173015785,
				"z": -0.1273704034,
				"element": "H" 
			},
			{
				"x": -1.7537229073,
				"y": -3.8447303591,
				"z": -1.3003825905,
				"element": "H" 
			},
			{
				"x": -3.6226130044,
				"y": -3.0858199593,
				"z": -2.3530705214,
				"element": "H" 
			}
		],
		 "valence_orbital": [ 
			{
				"type": "occ",
				"energy": -0.24985,
				"method": "rhf"
			},
			{
				"type": "occ",
				"energy": -0.24569,
				"method": "rhf"
			},
			{
				"type": "occ",
				"energy": -0.23206,
				"method": "rhf"
			},
			{
				"type": "occ",
				"energy": -0.21444,
				"method": "rhf"
			},
			{
				"type": "occ",
				"energy": -0.19761,
				"method": "rhf"
			},
			{
				"type": "unocc",
				"energy": -0.04851,
				"method": "rhf"
			},
			{
				"type": "unocc",
				"energy": -0.01826,
				"method": "rhf"
			},
			{
				"type": "unocc",
				"energy": -0.01363,
				"method": "rhf"
			},
			{
				"type": "unocc",
				"energy": 0.00471,
				"method": "rhf"
			},
			{
				"type": "unocc",
				"energy": 0.03107,
				"method": "rhf"
			}
		],
		"cosmo_sigma_profile": { 
			"-0.025": 0.0,
			"-0.024": 0.0,
			"-0.023": 0.0,
			"-0.022": 0.0,
			"-0.021": 0.0,
			"-0.02": 0.0,
			"-0.019": 0.0,
			"-0.018": 0.211949246586,
			"-0.017": 1.09252797,
			"-0.016": 0.971317182347,
			"-0.015": 1.44670146757,
			"-0.014": 2.24882483394,
			"-0.013": 2.43115910143,
			"-0.012": 2.45122873049,
			"-0.011": 1.66741053127,
			"-0.01": 2.47508757831,
			"-0.009": 3.71507938487,
			"-0.008": 2.10263639256,
			"-0.007": 6.14485898624,
			"-0.006": 10.9706546625,
			"-0.005": 13.8424981678,
			"-0.004": 16.5864268296,
			"-0.003": 24.1438006064,
			"-0.002": 35.3354332344,
			"-0.001": 44.446149989,
			"0.0": 39.7816896207,
			"0.001": 44.0796219558,
			"0.002": 43.3569269818,
			"0.003": 33.3660669758,
			"0.004": 25.1231118801,
			"0.005": 18.2365950735,
			"0.006": 5.89069908119,
			"0.007": 3.97083330687,
			"0.008": 3.36831817876,
			"0.009": 4.67283974356,
			"0.01": 3.1865539639,
			"0.011": 1.4445993832,
			"0.012": 0.877741236256,
			"0.013": 0.993227474004,
			"0.014": 0.924074827983,
			"0.015": 0.913719827582,
			"0.016": 0.73268318425,
			"0.017": 0.464190609266,
			"0.018": 0.0,
			"0.019": 0.0,
			"0.02": 0.0,
			"0.021": 0.0,
			"0.022": 0.0,
			"0.023": 0.0,
			"0.024": 0.0,
			"0.025": 0.0
		}
	}
}
