{
	 "smiles": "[O-][N+](=O)C1=CC=C(C=C1)C1=NN(C(=O)C1)C1=CC=CC=C1", 
	 "Tm": 462.15, 
	 "num_atms": 32, 
	 "gaussian": { 
		 "optdone": 1, 
		 "sigma_profile": "yes", 
		 "theory": "DFT", 
		 "functional": "B3LYP", 
		 "basiset": "6-31G**", 
		 "properties": { 
			 "R2extent": 9670.8291, 
			 "electric_dipole_moment_norm": 2.54206434616, 
			 "electric_quadrupole_moment_norm": 31.5560593533, 
			 "total_energy": -968.040987175, 
			 "HOMO_LUMO_gap": 0.11687, 
			 "cosmo_polarized_energy": -15.59, 
			 "cosmo_cavitation_energy": 37.82, 
			 "cosmo_dispersion_energy": -27.62, 
			 "cosmo_repulsion_energy": 2.06, 
			 "cosmo_total_nonelectrostatic_energy": 12.26, 
			 "SMD_solvation_energy": 8.55 
		},
		"coords": [
			{
				"x": -0.5721226362,
				"y": 5.3216189222,
				"z": -3.4584226953,
				"element": "O" 
			},
			{
				"x": 0.5912866853,
				"y": 4.9275886864,
				"z": -3.3805589275,
				"element": "N" 
			},
			{
				"x": 1.5583022171,
				"y": 5.4834510997,
				"z": -3.9014703378,
				"element": "O" 
			},
			{
				"x": 0.844328955,
				"y": 3.7028382742,
				"z": -2.6083880155,
				"element": "C" 
			},
			{
				"x": -0.2304843917,
				"y": 3.0468055211,
				"z": -2.0038916368,
				"element": "C" 
			},
			{
				"x": 0.0127601301,
				"y": 1.8917729492,
				"z": -1.2763455617,
				"element": "C" 
			},
			{
				"x": 1.3222566756,
				"y": 1.385898423,
				"z": -1.1473532521,
				"element": "C" 
			},
			{
				"x": 2.3822060276,
				"y": 2.0706635138,
				"z": -1.7686164944,
				"element": "C" 
			},
			{
				"x": 2.1497356457,
				"y": 3.2301533424,
				"z": -2.5008305585,
				"element": "C" 
			},
			{
				"x": 1.5798451744,
				"y": 0.1667780418,
				"z": -0.3794561714,
				"element": "C" 
			},
			{
				"x": 0.6222565485,
				"y": -0.4842303171,
				"z": 0.2033283427,
				"element": "N" 
			},
			{
				"x": 1.1456834799,
				"y": -1.5878595547,
				"z": 0.8526660995,
				"element": "N" 
			},
			{
				"x": 2.5359270946,
				"y": -1.6876030094,
				"z": 0.6994610595,
				"element": "C" 
			},
			{
				"x": 3.2701986217,
				"y": -2.5434100629,
				"z": 1.1511208775,
				"element": "O" 
			},
			{
				"x": 2.9148736082,
				"y": -0.4837710992,
				"z": -0.1585300961,
				"element": "C" 
			},
			{
				"x": 0.264547745,
				"y": -2.4502931354,
				"z": 1.5636471329,
				"element": "C" 
			},
			{
				"x": 0.7553983377,
				"y": -3.580675888,
				"z": 2.234827622,
				"element": "C" 
			},
			{
				"x": -0.1354701525,
				"y": -4.404923106,
				"z": 2.9220962569,
				"element": "C" 
			},
			{
				"x": -1.5011268439,
				"y": -4.1230228968,
				"z": 2.9516974935,
				"element": "C" 
			},
			{
				"x": -1.9782337412,
				"y": -2.9958665381,
				"z": 2.2804687875,
				"element": "C" 
			},
			{
				"x": -1.1071957569,
				"y": -2.15855536,
				"z": 1.5876869597,
				"element": "C" 
			},
			{
				"x": -1.228926169,
				"y": 3.4509049223,
				"z": -2.1144107395,
				"element": "H" 
			},
			{
				"x": -0.8041237571,
				"y": 1.3640918313,
				"z": -0.7976644244,
				"element": "H" 
			},
			{
				"x": 3.3972802593,
				"y": 1.6970232372,
				"z": -1.6809203842,
				"element": "H" 
			},
			{
				"x": 2.9533627376,
				"y": 3.7699897732,
				"z": -2.9855431548,
				"element": "H" 
			},
			{
				"x": 3.6298728726,
				"y": 0.1508868447,
				"z": 0.3761418254,
				"element": "H" 
			},
			{
				"x": 3.3999747054,
				"y": -0.8163733563,
				"z": -1.0826145378,
				"element": "H" 
			},
			{
				"x": 1.8126265977,
				"y": -3.8031477009,
				"z": 2.2147301202,
				"element": "H" 
			},
			{
				"x": 0.2517867713,
				"y": -5.2780663641,
				"z": 3.4392605082,
				"element": "H" 
			},
			{
				"x": -2.1849729086,
				"y": -4.7720071489,
				"z": 3.490064334,
				"element": "H" 
			},
			{
				"x": -3.0386748276,
				"y": -2.7609638045,
				"z": 2.2928614652,
				"element": "H" 
			},
			{
				"x": -1.4761797055,
				"y": -1.2847960404,
				"z": 1.0672581032,
				"element": "H" 
			}
		],
		 "valence_orbital": [ 
			{
				"type": "occ",
				"energy": -0.28906,
				"method": "rhf"
			},
			{
				"type": "occ",
				"energy": -0.27571,
				"method": "rhf"
			},
			{
				"type": "occ",
				"energy": -0.27396,
				"method": "rhf"
			},
			{
				"type": "occ",
				"energy": -0.25644,
				"method": "rhf"
			},
			{
				"type": "occ",
				"energy": -0.22275,
				"method": "rhf"
			},
			{
				"type": "unocc",
				"energy": -0.10588,
				"method": "rhf"
			},
			{
				"type": "unocc",
				"energy": -0.05603,
				"method": "rhf"
			},
			{
				"type": "unocc",
				"energy": -0.03723,
				"method": "rhf"
			},
			{
				"type": "unocc",
				"energy": -0.02668,
				"method": "rhf"
			},
			{
				"type": "unocc",
				"energy": -0.00616,
				"method": "rhf"
			}
		],
		"cosmo_sigma_profile": { 
			"-0.025": 0.0,
			"-0.024": 0.0,
			"-0.023": 0.0,
			"-0.022": 0.0,
			"-0.021": 0.0,
			"-0.02": 0.0,
			"-0.019": 0.0,
			"-0.018": 0.0,
			"-0.017": 0.0,
			"-0.016": 0.0,
			"-0.015": 0.0,
			"-0.014": 0.0,
			"-0.013": 0.0,
			"-0.012": 0.0,
			"-0.011": 0.0,
			"-0.01": 0.447467950639,
			"-0.009": 7.21054515662,
			"-0.008": 11.0225333479,
			"-0.007": 11.7481456349,
			"-0.006": 16.0908262479,
			"-0.005": 17.8296332817,
			"-0.004": 19.7514738848,
			"-0.003": 18.3977213637,
			"-0.002": 17.444672979,
			"-0.001": 21.5744814814,
			"0.0": 25.7351147741,
			"0.001": 27.9025662431,
			"0.002": 19.2840576786,
			"0.003": 15.2064691577,
			"0.004": 15.3655069371,
			"0.005": 16.3392597247,
			"0.006": 8.09116653617,
			"0.007": 8.91189606479,
			"0.008": 9.73762532279,
			"0.009": 5.99899859459,
			"0.01": 4.75730274768,
			"0.011": 3.45127099122,
			"0.012": 2.3835294836,
			"0.013": 0.377468300181,
			"0.014": 0.0,
			"0.015": 0.0,
			"0.016": 0.0,
			"0.017": 0.0,
			"0.018": 0.0,
			"0.019": 0.0,
			"0.02": 0.0,
			"0.021": 0.0,
			"0.022": 0.0,
			"0.023": 0.0,
			"0.024": 0.0,
			"0.025": 0.0
		}
	}
}
