{
	 "smiles": "ClC1=CC=CC(=C1)C1=NC(C=O)=CS1", 
	 "Tm": 377.15, 
	 "num_atms": 20, 
	 "gaussian": { 
		 "optdone": 1, 
		 "sigma_profile": "yes", 
		 "theory": "DFT", 
		 "functional": "B3LYP", 
		 "basiset": "6-31G**", 
		 "properties": { 
			 "R2extent": 4672.2101, 
			 "electric_dipole_moment_norm": 2.14661664253, 
			 "electric_quadrupole_moment_norm": 19.7904945454, 
			 "total_energy": -1373.02121406, 
			 "HOMO_LUMO_gap": 0.16393, 
			 "cosmo_polarized_energy": -8.93, 
			 "cosmo_cavitation_energy": 29.06, 
			 "cosmo_dispersion_energy": -21.83, 
			 "cosmo_repulsion_energy": 1.66, 
			 "cosmo_total_nonelectrostatic_energy": 8.89, 
			 "SMD_solvation_energy": 4.42 
		},
		"coords": [
			{
				"x": 1.8479012335,
				"y": 3.6882860675,
				"z": -1.3870810359,
				"element": "Cl" 
			},
			{
				"x": 1.80870506,
				"y": 1.9318280465,
				"z": -1.4040813428,
				"element": "C" 
			},
			{
				"x": 2.6717738566,
				"y": 1.2354014572,
				"z": -2.2493863803,
				"element": "C" 
			},
			{
				"x": 2.6271856815,
				"y": -0.1605847588,
				"z": -2.2501184842,
				"element": "C" 
			},
			{
				"x": 1.7408922019,
				"y": -0.8462005546,
				"z": -1.4254969763,
				"element": "C" 
			},
			{
				"x": 0.8745552501,
				"y": -0.1357295159,
				"z": -0.5766595926,
				"element": "C" 
			},
			{
				"x": 0.9139038153,
				"y": 1.2671696971,
				"z": -0.5707054702,
				"element": "C" 
			},
			{
				"x": -0.0513648488,
				"y": -0.886157111,
				"z": 0.2836505575,
				"element": "C" 
			},
			{
				"x": -0.1284065378,
				"y": -2.1879406436,
				"z": 0.3167792132,
				"element": "N" 
			},
			{
				"x": -1.0788805913,
				"y": -2.6210903408,
				"z": 1.2103172819,
				"element": "C" 
			},
			{
				"x": -1.3145218003,
				"y": -4.0690258664,
				"z": 1.3903097088,
				"element": "C" 
			},
			{
				"x": -2.135309304,
				"y": -4.5313416206,
				"z": 2.1591212296,
				"element": "O" 
			},
			{
				"x": -1.7552068405,
				"y": -1.6341273569,
				"z": 1.8862831357,
				"element": "C" 
			},
			{
				"x": -1.1884157872,
				"y": -0.0890545441,
				"z": 1.3934042106,
				"element": "S" 
			},
			{
				"x": 3.360119472,
				"y": 1.7753804938,
				"z": -2.8895882273,
				"element": "H" 
			},
			{
				"x": 3.2940092679,
				"y": -0.7147750495,
				"z": -2.9036990601,
				"element": "H" 
			},
			{
				"x": 1.7021821773,
				"y": -1.9292309925,
				"z": -1.4221226431,
				"element": "H" 
			},
			{
				"x": 0.259192218,
				"y": 1.8459741312,
				"z": 0.0720387761,
				"element": "H" 
			},
			{
				"x": -0.6695224502,
				"y": -4.7097242677,
				"z": 0.754870691,
				"element": "H" 
			},
			{
				"x": -2.5333920742,
				"y": -1.7626572709,
				"z": 2.6248644084,
				"element": "H" 
			}
		],
		 "valence_orbital": [ 
			{
				"type": "occ",
				"energy": -0.29847,
				"method": "rhf"
			},
			{
				"type": "occ",
				"energy": -0.29692,
				"method": "rhf"
			},
			{
				"type": "occ",
				"energy": -0.26396,
				"method": "rhf"
			},
			{
				"type": "occ",
				"energy": -0.26287,
				"method": "rhf"
			},
			{
				"type": "occ",
				"energy": -0.24333,
				"method": "rhf"
			},
			{
				"type": "unocc",
				"energy": -0.0794,
				"method": "rhf"
			},
			{
				"type": "unocc",
				"energy": -0.05905,
				"method": "rhf"
			},
			{
				"type": "unocc",
				"energy": -0.02622,
				"method": "rhf"
			},
			{
				"type": "unocc",
				"energy": -0.00174,
				"method": "rhf"
			},
			{
				"type": "unocc",
				"energy": 0.02028,
				"method": "rhf"
			}
		],
		"cosmo_sigma_profile": { 
			"-0.025": 0.0,
			"-0.024": 0.0,
			"-0.023": 0.0,
			"-0.022": 0.0,
			"-0.021": 0.0,
			"-0.02": 0.0,
			"-0.019": 0.0,
			"-0.018": 0.0,
			"-0.017": 0.0,
			"-0.016": 0.0,
			"-0.015": 0.0,
			"-0.014": 0.0,
			"-0.013": 0.0,
			"-0.012": 0.0,
			"-0.011": 0.39848505657,
			"-0.01": 1.96214194995,
			"-0.009": 1.56721891644,
			"-0.008": 3.75558523744,
			"-0.007": 8.89053506837,
			"-0.006": 12.1402278969,
			"-0.005": 12.9323612559,
			"-0.004": 11.0666740893,
			"-0.003": 13.8802770599,
			"-0.002": 16.922987123,
			"-0.001": 21.7799212212,
			"0.0": 27.611005486,
			"0.001": 24.807064825,
			"0.002": 24.0654058421,
			"0.003": 16.056667876,
			"0.004": 13.1118653586,
			"0.005": 6.59477010354,
			"0.006": 2.89499926685,
			"0.007": 2.84573196467,
			"0.008": 3.25265731579,
			"0.009": 2.74423412083,
			"0.01": 3.74746411676,
			"0.011": 4.22929840944,
			"0.012": 1.99912433237,
			"0.013": 0.345095629114,
			"0.014": 0.0,
			"0.015": 0.0,
			"0.016": 0.0,
			"0.017": 0.0,
			"0.018": 0.0,
			"0.019": 0.0,
			"0.02": 0.0,
			"0.021": 0.0,
			"0.022": 0.0,
			"0.023": 0.0,
			"0.024": 0.0,
			"0.025": 0.0
		}
	}
}
