{
	 "smiles": "CCCCOC1=C(OC)C=C(C=C1)C(C)=O", 
	 "Tm": 321.15, 
	 "num_atms": 34, 
	 "gaussian": { 
		 "optdone": 1, 
		 "sigma_profile": "yes", 
		 "theory": "DFT", 
		 "functional": "B3LYP", 
		 "basiset": "6-31G**", 
		 "properties": { 
			 "R2extent": 5370.1101, 
			 "electric_dipole_moment_norm": 3.59782967218, 
			 "electric_quadrupole_moment_norm": 14.3662403314, 
			 "total_energy": -731.889606228, 
			 "HOMO_LUMO_gap": 0.18543, 
			 "cosmo_polarized_energy": -9.66, 
			 "cosmo_cavitation_energy": 36.78, 
			 "cosmo_dispersion_energy": -25.31, 
			 "cosmo_repulsion_energy": 2.01, 
			 "cosmo_total_nonelectrostatic_energy": 13.48, 
			 "SMD_solvation_energy": 7.69 
		},
		"coords": [
			{
				"x": -4.1429559018,
				"y": -0.2333840578,
				"z": -0.3367384484,
				"element": "C" 
			},
			{
				"x": -3.7856415078,
				"y": -1.7110939066,
				"z": -0.5374647686,
				"element": "C" 
			},
			{
				"x": -2.4654867551,
				"y": -1.971365204,
				"z": -1.2850310795,
				"element": "C" 
			},
			{
				"x": -1.1842617018,
				"y": -1.7522090065,
				"z": -0.4908400892,
				"element": "C" 
			},
			{
				"x": -1.0184243415,
				"y": -0.3427926729,
				"z": -0.2094122571,
				"element": "O" 
			},
			{
				"x": 0.1302226061,
				"y": -0.0070271301,
				"z": 0.4622783995,
				"element": "C" 
			},
			{
				"x": 1.3958607629,
				"y": -0.0958506669,
				"z": -0.1524555726,
				"element": "C" 
			},
			{
				"x": 1.5393168847,
				"y": -0.5745867236,
				"z": -1.4362458498,
				"element": "O" 
			},
			{
				"x": 1.0473309715,
				"y": 0.2993071742,
				"z": -2.4602640423,
				"element": "C" 
			},
			{
				"x": 2.5361613235,
				"y": 0.2669844588,
				"z": 0.560975558,
				"element": "C" 
			},
			{
				"x": 2.4428580149,
				"y": 0.7371288475,
				"z": 1.8796491238,
				"element": "C" 
			},
			{
				"x": 1.1758344926,
				"y": 0.8504056312,
				"z": 2.4719595966,
				"element": "C" 
			},
			{
				"x": 0.0349771981,
				"y": 0.4783445304,
				"z": 1.7709020069,
				"element": "C" 
			},
			{
				"x": 3.6418899548,
				"y": 1.1355495852,
				"z": 2.6830854367,
				"element": "C" 
			},
			{
				"x": 5.0210775747,
				"y": 1.0036075725,
				"z": 2.0575681894,
				"element": "C" 
			},
			{
				"x": 3.516024225,
				"y": 1.5587403801,
				"z": 3.8230682132,
				"element": "O" 
			},
			{
				"x": -5.1093767686,
				"y": -0.1323333411,
				"z": 0.1687481531,
				"element": "H" 
			},
			{
				"x": -4.2172956253,
				"y": 0.2841626832,
				"z": -1.3002568617,
				"element": "H" 
			},
			{
				"x": -3.3862651452,
				"y": 0.2846616333,
				"z": 0.2557760212,
				"element": "H" 
			},
			{
				"x": -3.7487120263,
				"y": -2.2193264032,
				"z": 0.436192421,
				"element": "H" 
			},
			{
				"x": -4.5944965493,
				"y": -2.1973003166,
				"z": -1.0977788284,
				"element": "H" 
			},
			{
				"x": -2.4432689195,
				"y": -3.0199769189,
				"z": -1.6103716338,
				"element": "H" 
			},
			{
				"x": -2.4245400556,
				"y": -1.3653856664,
				"z": -2.1997195758,
				"element": "H" 
			},
			{
				"x": -0.3170575618,
				"y": -2.1091810694,
				"z": -1.0565056545,
				"element": "H" 
			},
			{
				"x": -1.2231051944,
				"y": -2.2973219258,
				"z": 0.4632587099,
				"element": "H" 
			},
			{
				"x": 1.5986700739,
				"y": 1.2479876485,
				"z": -2.457818928,
				"element": "H" 
			},
			{
				"x": -0.021216497,
				"y": 0.4990364804,
				"z": -2.3344363995,
				"element": "H" 
			},
			{
				"x": 1.2181298826,
				"y": -0.2144034093,
				"z": -3.4084052231,
				"element": "H" 
			},
			{
				"x": 3.491132393,
				"y": 0.1728106994,
				"z": 0.0552822263,
				"element": "H" 
			},
			{
				"x": 1.1150774424,
				"y": 1.2222171912,
				"z": 3.4888805676,
				"element": "H" 
			},
			{
				"x": -0.9507708316,
				"y": 0.5487271539,
				"z": 2.2200191324,
				"element": "H" 
			},
			{
				"x": 5.2241917403,
				"y": -0.0327428553,
				"z": 1.7661546331,
				"element": "H" 
			},
			{
				"x": 5.1036238098,
				"y": 1.6182550572,
				"z": 1.1542923443,
				"element": "H" 
			},
			{
				"x": 5.7656960317,
				"y": 1.3285545476,
				"z": 2.7846544793,
				"element": "H" 
			}
		],
		 "valence_orbital": [ 
			{
				"type": "occ",
				"energy": -0.30127,
				"method": "rhf"
			},
			{
				"type": "occ",
				"energy": -0.27053,
				"method": "rhf"
			},
			{
				"type": "occ",
				"energy": -0.25402,
				"method": "rhf"
			},
			{
				"type": "occ",
				"energy": -0.24365,
				"method": "rhf"
			},
			{
				"type": "occ",
				"energy": -0.23644,
				"method": "rhf"
			},
			{
				"type": "unocc",
				"energy": -0.05101,
				"method": "rhf"
			},
			{
				"type": "unocc",
				"energy": -0.00677,
				"method": "rhf"
			},
			{
				"type": "unocc",
				"energy": 0.04273,
				"method": "rhf"
			},
			{
				"type": "unocc",
				"energy": 0.07735,
				"method": "rhf"
			},
			{
				"type": "unocc",
				"energy": 0.09362,
				"method": "rhf"
			}
		],
		"cosmo_sigma_profile": { 
			"-0.025": 0.0,
			"-0.024": 0.0,
			"-0.023": 0.0,
			"-0.022": 0.0,
			"-0.021": 0.0,
			"-0.02": 0.0,
			"-0.019": 0.0,
			"-0.018": 0.0,
			"-0.017": 0.0,
			"-0.016": 0.0,
			"-0.015": 0.0,
			"-0.014": 0.0,
			"-0.013": 0.0,
			"-0.012": 0.0,
			"-0.011": 0.0,
			"-0.01": 0.0,
			"-0.009": 0.0,
			"-0.008": 0.0,
			"-0.007": 1.55743549402,
			"-0.006": 10.643417317,
			"-0.005": 14.915436801,
			"-0.004": 19.9047743905,
			"-0.003": 31.4490944121,
			"-0.002": 38.0031756691,
			"-0.001": 36.8879783197,
			"0.0": 30.8592376732,
			"0.001": 23.8889092393,
			"0.002": 22.8302105779,
			"0.003": 17.5624543919,
			"0.004": 8.24873684846,
			"0.005": 4.33727717894,
			"0.006": 4.76801408693,
			"0.007": 3.1030909388,
			"0.008": 2.27322257666,
			"0.009": 4.66872833104,
			"0.01": 2.69120879467,
			"0.011": 3.57140515513,
			"0.012": 4.72242938275,
			"0.013": 1.81021175457,
			"0.014": 0.216878884392,
			"0.015": 0.0,
			"0.016": 0.0,
			"0.017": 0.0,
			"0.018": 0.0,
			"0.019": 0.0,
			"0.02": 0.0,
			"0.021": 0.0,
			"0.022": 0.0,
			"0.023": 0.0,
			"0.024": 0.0,
			"0.025": 0.0
		}
	}
}
