{
	 "smiles": "ClC1=CC=C(C=C(C#N)C#N)C=C1", 
	 "Tm": 364.15, 
	 "num_atms": 18, 
	 "gaussian": { 
		 "optdone": 1, 
		 "sigma_profile": "yes", 
		 "theory": "DFT", 
		 "functional": "B3LYP", 
		 "basiset": "6-31G**", 
		 "properties": { 
			 "R2extent": 4322.0704, 
			 "electric_dipole_moment_norm": 5.15902454055, 
			 "electric_quadrupole_moment_norm": 16.0938148871, 
			 "total_energy": -953.715585672, 
			 "HOMO_LUMO_gap": 0.14696, 
			 "cosmo_polarized_energy": -13.1, 
			 "cosmo_cavitation_energy": 27.27, 
			 "cosmo_dispersion_energy": -18.81, 
			 "cosmo_repulsion_energy": 1.48, 
			 "cosmo_total_nonelectrostatic_energy": 9.94, 
			 "SMD_solvation_energy": 7.1 
		},
		"coords": [
			{
				"x": -4.0140370577,
				"y": -2.9990830571,
				"z": -0.0146993738,
				"element": "Cl" 
			},
			{
				"x": -2.6628766855,
				"y": -2.0269454468,
				"z": -0.5467972613,
				"element": "C" 
			},
			{
				"x": -1.820651414,
				"y": -2.5107030393,
				"z": -1.5497178941,
				"element": "C" 
			},
			{
				"x": -0.7508482574,
				"y": -1.7273364722,
				"z": -1.9627393968,
				"element": "C" 
			},
			{
				"x": -0.4984430489,
				"y": -0.4600106639,
				"z": -1.3934052557,
				"element": "C" 
			},
			{
				"x": 0.6485096892,
				"y": 0.2692674954,
				"z": -1.9044176534,
				"element": "C" 
			},
			{
				"x": 1.1607304155,
				"y": 1.4943772853,
				"z": -1.5791469686,
				"element": "C" 
			},
			{
				"x": 2.3282372303,
				"y": 1.9696563527,
				"z": -2.2643701956,
				"element": "C" 
			},
			{
				"x": 3.2751457289,
				"y": 2.3497456679,
				"z": -2.8233376834,
				"element": "N" 
			},
			{
				"x": 0.6249981526,
				"y": 2.3773709073,
				"z": -0.5874714255,
				"element": "C" 
			},
			{
				"x": 0.2011767579,
				"y": 3.1058454405,
				"z": 0.2151714052,
				"element": "N" 
			},
			{
				"x": -1.3696565221,
				"y": -0.0004306797,
				"z": -0.3810326347,
				"element": "C" 
			},
			{
				"x": -2.4421887406,
				"y": -0.7765723434,
				"z": 0.0386501486,
				"element": "C" 
			},
			{
				"x": -2.0036502477,
				"y": -3.4819905453,
				"z": -1.9947561316,
				"element": "H" 
			},
			{
				"x": -0.0933051645,
				"y": -2.1004326371,
				"z": -2.742944663,
				"element": "H" 
			},
			{
				"x": 1.1990837673,
				"y": -0.2502267429,
				"z": -2.685103618,
				"element": "H" 
			},
			{
				"x": -1.21541663,
				"y": 0.9645564875,
				"z": 0.0843079627,
				"element": "H" 
			},
			{
				"x": -3.1072079732,
				"y": -0.4180880089,
				"z": 0.8161106388,
				"element": "H" 
			}
		],
		 "valence_orbital": [ 
			{
				"type": "occ",
				"energy": -0.34792,
				"method": "rhf"
			},
			{
				"type": "occ",
				"energy": -0.33664,
				"method": "rhf"
			},
			{
				"type": "occ",
				"energy": -0.31545,
				"method": "rhf"
			},
			{
				"type": "occ",
				"energy": -0.29572,
				"method": "rhf"
			},
			{
				"type": "occ",
				"energy": -0.26084,
				"method": "rhf"
			},
			{
				"type": "unocc",
				"energy": -0.11388,
				"method": "rhf"
			},
			{
				"type": "unocc",
				"energy": -0.04341,
				"method": "rhf"
			},
			{
				"type": "unocc",
				"energy": -0.01528,
				"method": "rhf"
			},
			{
				"type": "unocc",
				"energy": -0.01317,
				"method": "rhf"
			},
			{
				"type": "unocc",
				"energy": 0.00672,
				"method": "rhf"
			}
		],
		"cosmo_sigma_profile": { 
			"-0.025": 0.0,
			"-0.024": 0.0,
			"-0.023": 0.0,
			"-0.022": 0.0,
			"-0.021": 0.0,
			"-0.02": 0.0,
			"-0.019": 0.0,
			"-0.018": 0.0,
			"-0.017": 0.0,
			"-0.016": 0.0,
			"-0.015": 0.0,
			"-0.014": 0.0,
			"-0.013": 0.0,
			"-0.012": 0.0759890481021,
			"-0.011": 2.48354456857,
			"-0.01": 2.74844062053,
			"-0.009": 3.72322425615,
			"-0.008": 7.18676252633,
			"-0.007": 8.20039973102,
			"-0.006": 7.58321092019,
			"-0.005": 10.8043649608,
			"-0.004": 14.7522984683,
			"-0.003": 18.377782838,
			"-0.002": 15.7095193165,
			"-0.001": 15.800218231,
			"0.0": 20.8760277171,
			"0.001": 22.158045173,
			"0.002": 11.1023642977,
			"0.003": 12.7320411078,
			"0.004": 11.155271273,
			"0.005": 4.22248504736,
			"0.006": 5.05529828952,
			"0.007": 5.4607175173,
			"0.008": 6.04203370405,
			"0.009": 5.84746925601,
			"0.01": 5.2249761178,
			"0.011": 4.6890989273,
			"0.012": 2.9644343558,
			"0.013": 0.185142729754,
			"0.014": 0.0,
			"0.015": 0.0,
			"0.016": 0.0,
			"0.017": 0.0,
			"0.018": 0.0,
			"0.019": 0.0,
			"0.02": 0.0,
			"0.021": 0.0,
			"0.022": 0.0,
			"0.023": 0.0,
			"0.024": 0.0,
			"0.025": 0.0
		}
	}
}
