{
	 "smiles": "CC1=NC2=C(CCCC2)C(O)=N1", 
	 "Tm": 480.15, 
	 "num_atms": 24, 
	 "gaussian": { 
		 "optdone": 1, 
		 "sigma_profile": "yes", 
		 "theory": "DFT", 
		 "functional": "B3LYP", 
		 "basiset": "6-31G**", 
		 "properties": { 
			 "R2extent": 2952.9421, 
			 "electric_dipole_moment_norm": 3.74072595896, 
			 "electric_quadrupole_moment_norm": 11.4191586328, 
			 "total_energy": -534.945549867, 
			 "HOMO_LUMO_gap": 0.22178, 
			 "cosmo_polarized_energy": -12.88, 
			 "cosmo_cavitation_energy": 25.83, 
			 "cosmo_dispersion_energy": -19.79, 
			 "cosmo_repulsion_energy": 1.59, 
			 "cosmo_total_nonelectrostatic_energy": 7.63, 
			 "SMD_solvation_energy": 1.13 
		},
		"coords": [
			{
				"x": 1.290377311,
				"y": -4.1583044223,
				"z": 0.476885255,
				"element": "C" 
			},
			{
				"x": 1.4432071697,
				"y": -2.7401360744,
				"z": -0.0045330868,
				"element": "C" 
			},
			{
				"x": 0.4902389566,
				"y": -1.8651666069,
				"z": 0.3269995799,
				"element": "N" 
			},
			{
				"x": 0.6375125546,
				"y": -0.6024499389,
				"z": -0.1206672623,
				"element": "C" 
			},
			{
				"x": 1.725235805,
				"y": -0.2063827253,
				"z": -0.9003534558,
				"element": "C" 
			},
			{
				"x": 1.8983559957,
				"y": 1.2087342241,
				"z": -1.414969434,
				"element": "C" 
			},
			{
				"x": 0.6109637001,
				"y": 2.0408677789,
				"z": -1.2987694762,
				"element": "C" 
			},
			{
				"x": -0.0452983796,
				"y": 1.8385223317,
				"z": 0.0719080552,
				"element": "C" 
			},
			{
				"x": -0.455294175,
				"y": 0.3726993931,
				"z": 0.2587991651,
				"element": "C" 
			},
			{
				"x": 2.6713921862,
				"y": -1.2219008593,
				"z": -1.158091212,
				"element": "C" 
			},
			{
				"x": 3.7972617991,
				"y": -0.9864692014,
				"z": -1.873739618,
				"element": "O" 
			},
			{
				"x": 2.5403409866,
				"y": -2.4684371751,
				"z": -0.7306473989,
				"element": "N" 
			},
			{
				"x": 2.1504668379,
				"y": -4.4450974551,
				"z": 1.0906417489,
				"element": "H" 
			},
			{
				"x": 1.2644247057,
				"y": -4.8461151754,
				"z": -0.3747101745,
				"element": "H" 
			},
			{
				"x": 0.3743844817,
				"y": -4.2636802181,
				"z": 1.0590311142,
				"element": "H" 
			},
			{
				"x": 2.2201696988,
				"y": 1.1940353851,
				"z": -2.467291285,
				"element": "H" 
			},
			{
				"x": 2.7035314329,
				"y": 1.7094455733,
				"z": -0.8548357696,
				"element": "H" 
			},
			{
				"x": -0.0919167473,
				"y": 1.733867657,
				"z": -2.0841320648,
				"element": "H" 
			},
			{
				"x": 0.8391726985,
				"y": 3.0978083157,
				"z": -1.4733179649,
				"element": "H" 
			},
			{
				"x": -0.9200572483,
				"y": 2.4888945488,
				"z": 0.1794103957,
				"element": "H" 
			},
			{
				"x": 0.6617767294,
				"y": 2.1294643605,
				"z": 0.8604590462,
				"element": "H" 
			},
			{
				"x": -1.3361743522,
				"y": 0.1489470136,
				"z": -0.3597255721,
				"element": "H" 
			},
			{
				"x": -0.7556993924,
				"y": 0.1627524889,
				"z": 1.2902985129,
				"element": "H" 
			},
			{
				"x": 3.8248272455,
				"y": -0.0562992185,
				"z": -2.1332490983,
				"element": "H" 
			}
		],
		 "valence_orbital": [ 
			{
				"type": "occ",
				"energy": -0.33547,
				"method": "rhf"
			},
			{
				"type": "occ",
				"energy": -0.28711,
				"method": "rhf"
			},
			{
				"type": "occ",
				"energy": -0.27446,
				"method": "rhf"
			},
			{
				"type": "occ",
				"energy": -0.24447,
				"method": "rhf"
			},
			{
				"type": "occ",
				"energy": -0.23901,
				"method": "rhf"
			},
			{
				"type": "unocc",
				"energy": -0.01723,
				"method": "rhf"
			},
			{
				"type": "unocc",
				"energy": -0.00486,
				"method": "rhf"
			},
			{
				"type": "unocc",
				"energy": 0.0591,
				"method": "rhf"
			},
			{
				"type": "unocc",
				"energy": 0.08715,
				"method": "rhf"
			},
			{
				"type": "unocc",
				"energy": 0.11337,
				"method": "rhf"
			}
		],
		"cosmo_sigma_profile": { 
			"-0.025": 0.0,
			"-0.024": 0.0,
			"-0.023": 0.0,
			"-0.022": 0.0,
			"-0.021": 0.0,
			"-0.02": 0.0,
			"-0.019": 0.0,
			"-0.018": 0.0,
			"-0.017": 0.604290597561,
			"-0.016": 0.767888765742,
			"-0.015": 0.921272983156,
			"-0.014": 0.95609557513,
			"-0.013": 1.31722045695,
			"-0.012": 1.25413700155,
			"-0.011": 0.716835733954,
			"-0.01": 1.13846297408,
			"-0.009": 1.34337164544,
			"-0.008": 1.40964217958,
			"-0.007": 1.55885064367,
			"-0.006": 2.17319495804,
			"-0.005": 5.98175366096,
			"-0.004": 13.1700122942,
			"-0.003": 25.3636772196,
			"-0.002": 28.1612391127,
			"-0.001": 28.3695251274,
			"0.0": 25.5415326685,
			"0.001": 12.8570902622,
			"0.002": 5.37081471458,
			"0.003": 4.94850058891,
			"0.004": 4.16137781218,
			"0.005": 3.60151351572,
			"0.006": 4.04353564919,
			"0.007": 2.93874593659,
			"0.008": 2.83554401765,
			"0.009": 3.81491453648,
			"0.01": 3.20008444985,
			"0.011": 3.92881942665,
			"0.012": 3.28783191823,
			"0.013": 2.28576762246,
			"0.014": 1.49822085273,
			"0.015": 1.74596254831,
			"0.016": 1.27592280621,
			"0.017": 0.150802970807,
			"0.018": 0.0,
			"0.019": 0.0,
			"0.02": 0.0,
			"0.021": 0.0,
			"0.022": 0.0,
			"0.023": 0.0,
			"0.024": 0.0,
			"0.025": 0.0
		}
	}
}
