{
	 "smiles": "CN(C)C1CSSSC1", 
	 "Tm": 400.15, 
	 "num_atms": 20, 
	 "gaussian": { 
		 "optdone": 1, 
		 "sigma_profile": "yes", 
		 "theory": "DFT", 
		 "functional": "B3LYP", 
		 "basiset": "6-31G**", 
		 "properties": { 
			 "R2extent": 2785.6507, 
			 "electric_dipole_moment_norm": 3.61571608814, 
			 "electric_quadrupole_moment_norm": 7.39937439991, 
			 "total_energy": -1446.46503656, 
			 "HOMO_LUMO_gap": 0.16783, 
			 "cosmo_polarized_energy": -6.85, 
			 "cosmo_cavitation_energy": 25.56, 
			 "cosmo_dispersion_energy": -20.28, 
			 "cosmo_repulsion_energy": 1.49, 
			 "cosmo_total_nonelectrostatic_energy": 6.77, 
			 "SMD_solvation_energy": 0.39 
		},
		"coords": [
			{
				"x": 1.4993783324,
				"y": 2.2436702745,
				"z": -0.2775941711,
				"element": "C" 
			},
			{
				"x": 0.4082316075,
				"y": 1.2918680588,
				"z": -0.1165769669,
				"element": "N" 
			},
			{
				"x": -0.1784353834,
				"y": 1.3650353778,
				"z": 1.218027564,
				"element": "C" 
			},
			{
				"x": 0.7129571882,
				"y": -0.0558828602,
				"z": -0.62349252,
				"element": "C" 
			},
			{
				"x": -0.6124769871,
				"y": -0.7637791579,
				"z": -0.9795832839,
				"element": "C" 
			},
			{
				"x": -0.4228873653,
				"y": -2.2376444397,
				"z": -2.0698504118,
				"element": "S" 
			},
			{
				"x": 0.6247542213,
				"y": -3.4729460444,
				"z": -0.7387263478,
				"element": "S" 
			},
			{
				"x": 2.3832087802,
				"y": -2.3775773122,
				"z": -0.4303307335,
				"element": "S" 
			},
			{
				"x": 1.6311657143,
				"y": -0.8698967116,
				"z": 0.3240467783,
				"element": "C" 
			},
			{
				"x": 2.3641791136,
				"y": 2.0652323002,
				"z": 0.3886476121,
				"element": "H" 
			},
			{
				"x": 1.1296799982,
				"y": 3.2524780848,
				"z": -0.0649469848,
				"element": "H" 
			},
			{
				"x": 1.8583768931,
				"y": 2.2282255543,
				"z": -1.3112006849,
				"element": "H" 
			},
			{
				"x": -0.5704132681,
				"y": 2.3751257957,
				"z": 1.3780684437,
				"element": "H" 
			},
			{
				"x": -1.0174667939,
				"y": 0.6706279685,
				"z": 1.3097121203,
				"element": "H" 
			},
			{
				"x": 0.5320254806,
				"y": 1.1537287489,
				"z": 2.0372801466,
				"element": "H" 
			},
			{
				"x": 1.2573560489,
				"y": 0.0897673879,
				"z": -1.5633814206,
				"element": "H" 
			},
			{
				"x": -1.1672399958,
				"y": -1.0735707433,
				"z": -0.089615079,
				"element": "H" 
			},
			{
				"x": -1.2317609096,
				"y": -0.0629492229,
				"z": -1.5475312859,
				"element": "H" 
			},
			{
				"x": 1.1038725237,
				"y": -1.1718927577,
				"z": 1.2333400563,
				"element": "H" 
			},
			{
				"x": 2.4925948013,
				"y": -0.2601203015,
				"z": 0.6168071689,
				"element": "H" 
			}
		],
		 "valence_orbital": [ 
			{
				"type": "occ",
				"energy": -0.33168,
				"method": "rhf"
			},
			{
				"type": "occ",
				"energy": -0.28126,
				"method": "rhf"
			},
			{
				"type": "occ",
				"energy": -0.24791,
				"method": "rhf"
			},
			{
				"type": "occ",
				"energy": -0.23156,
				"method": "rhf"
			},
			{
				"type": "occ",
				"energy": -0.2163,
				"method": "rhf"
			},
			{
				"type": "unocc",
				"energy": -0.04847,
				"method": "rhf"
			},
			{
				"type": "unocc",
				"energy": -0.02951,
				"method": "rhf"
			},
			{
				"type": "unocc",
				"energy": 0.03314,
				"method": "rhf"
			},
			{
				"type": "unocc",
				"energy": 0.03598,
				"method": "rhf"
			},
			{
				"type": "unocc",
				"energy": 0.07722,
				"method": "rhf"
			}
		],
		"cosmo_sigma_profile": { 
			"-0.025": 0.0,
			"-0.024": 0.0,
			"-0.023": 0.0,
			"-0.022": 0.0,
			"-0.021": 0.0,
			"-0.02": 0.0,
			"-0.019": 0.0,
			"-0.018": 0.0,
			"-0.017": 0.0,
			"-0.016": 0.0,
			"-0.015": 0.0,
			"-0.014": 0.0,
			"-0.013": 0.0,
			"-0.012": 0.0,
			"-0.011": 0.0,
			"-0.01": 0.0,
			"-0.009": 0.0,
			"-0.008": 0.036794511375,
			"-0.007": 3.39978244971,
			"-0.006": 8.51329415121,
			"-0.005": 11.4374798333,
			"-0.004": 17.0325542373,
			"-0.003": 22.4352379215,
			"-0.002": 18.9128832853,
			"-0.001": 23.8947611474,
			"0.0": 20.7190788434,
			"0.001": 11.7333465576,
			"0.002": 11.9996857728,
			"0.003": 14.6333069155,
			"0.004": 10.7346035013,
			"0.005": 8.57258307414,
			"0.006": 7.9213329764,
			"0.007": 6.93174599893,
			"0.008": 4.05868725785,
			"0.009": 1.17433506361,
			"0.01": 0.413881565015,
			"0.011": 0.728638456378,
			"0.012": 0.157631631756,
			"0.013": 0.469465180747,
			"0.014": 0.143368607432,
			"0.015": 0.0,
			"0.016": 0.0,
			"0.017": 0.0,
			"0.018": 0.0,
			"0.019": 0.0,
			"0.02": 0.0,
			"0.021": 0.0,
			"0.022": 0.0,
			"0.023": 0.0,
			"0.024": 0.0,
			"0.025": 0.0
		}
	}
}
