{
	 "smiles": "O=C1NSC2=C1C=CC=C2", 
	 "Tm": 429.15, 
	 "num_atms": 15, 
	 "gaussian": { 
		 "optdone": 1, 
		 "sigma_profile": "yes", 
		 "theory": "DFT", 
		 "functional": "B3LYP", 
		 "basiset": "6-31G**", 
		 "properties": { 
			 "R2extent": 1607.5257, 
			 "electric_dipole_moment_norm": 3.25061696452, 
			 "electric_quadrupole_moment_norm": 13.2811081872, 
			 "total_energy": -797.917580999, 
			 "HOMO_LUMO_gap": 0.17625, 
			 "cosmo_polarized_energy": -11.72, 
			 "cosmo_cavitation_energy": 20.91, 
			 "cosmo_dispersion_energy": -16.44, 
			 "cosmo_repulsion_energy": 1.27, 
			 "cosmo_total_nonelectrostatic_energy": 5.74, 
			 "SMD_solvation_energy": 3.64 
		},
		"coords": [
			{
				"x": 1.3241409717,
				"y": 2.668429468,
				"z": -1.3083920504,
				"element": "O" 
			},
			{
				"x": 0.640674207,
				"y": 1.6567275765,
				"z": -1.3696604583,
				"element": "C" 
			},
			{
				"x": -0.0282110244,
				"y": 1.2347128905,
				"z": -2.5103538959,
				"element": "N" 
			},
			{
				"x": -0.9495287405,
				"y": -0.2271440169,
				"z": -2.4066110922,
				"element": "S" 
			},
			{
				"x": -0.4698659687,
				"y": -0.3843989493,
				"z": -0.7143004012,
				"element": "C" 
			},
			{
				"x": 0.3591871799,
				"y": 0.6679665357,
				"z": -0.3073294664,
				"element": "C" 
			},
			{
				"x": 0.8430889909,
				"y": 0.7184042489,
				"z": 1.0023793795,
				"element": "C" 
			},
			{
				"x": 0.4887834953,
				"y": -0.290433699,
				"z": 1.8916813777,
				"element": "C" 
			},
			{
				"x": -0.3437522903,
				"y": -1.3418323418,
				"z": 1.4727063274,
				"element": "C" 
			},
			{
				"x": -0.833305529,
				"y": -1.4043899514,
				"z": 0.1696138152,
				"element": "C" 
			},
			{
				"x": 0.0153733115,
				"y": 1.7558783386,
				"z": -3.3745719752,
				"element": "H" 
			},
			{
				"x": 1.4842052883,
				"y": 1.5450675754,
				"z": 1.2927575295,
				"element": "H" 
			},
			{
				"x": 0.8544857429,
				"y": -0.2690994132,
				"z": 2.9134194072,
				"element": "H" 
			},
			{
				"x": -0.6137310317,
				"y": -2.1241855549,
				"z": 2.1761397162,
				"element": "H" 
			},
			{
				"x": -1.475944603,
				"y": -2.2213027072,
				"z": -0.1436782129,
				"element": "H" 
			}
		],
		 "valence_orbital": [ 
			{
				"type": "occ",
				"energy": -0.33858,
				"method": "rhf"
			},
			{
				"type": "occ",
				"energy": -0.2748,
				"method": "rhf"
			},
			{
				"type": "occ",
				"energy": -0.2676,
				"method": "rhf"
			},
			{
				"type": "occ",
				"energy": -0.25725,
				"method": "rhf"
			},
			{
				"type": "occ",
				"energy": -0.21753,
				"method": "rhf"
			},
			{
				"type": "unocc",
				"energy": -0.04128,
				"method": "rhf"
			},
			{
				"type": "unocc",
				"energy": -0.0305,
				"method": "rhf"
			},
			{
				"type": "unocc",
				"energy": -0.01741,
				"method": "rhf"
			},
			{
				"type": "unocc",
				"energy": 0.0585,
				"method": "rhf"
			},
			{
				"type": "unocc",
				"energy": 0.06075,
				"method": "rhf"
			}
		],
		"cosmo_sigma_profile": { 
			"-0.025": 0.0,
			"-0.024": 0.0,
			"-0.023": 0.0,
			"-0.022": 0.0,
			"-0.021": 0.0,
			"-0.02": 0.0,
			"-0.019": 0.0,
			"-0.018": 0.0,
			"-0.017": 0.396790644427,
			"-0.016": 1.21178074755,
			"-0.015": 1.50636734514,
			"-0.014": 1.32551121211,
			"-0.013": 0.566125796367,
			"-0.012": 0.90147489216,
			"-0.011": 0.97026507297,
			"-0.01": 1.22951072699,
			"-0.009": 1.5632980234,
			"-0.008": 3.02654341689,
			"-0.007": 6.28523349426,
			"-0.006": 9.39842064673,
			"-0.005": 10.9872610929,
			"-0.004": 8.80435331257,
			"-0.003": 7.28132326869,
			"-0.002": 8.17101510127,
			"-0.001": 11.7784589665,
			"0.0": 11.932518865,
			"0.001": 15.6088721344,
			"0.002": 17.3842033737,
			"0.003": 15.8868302432,
			"0.004": 10.3698094294,
			"0.005": 4.51927107829,
			"0.006": 1.11397285968,
			"0.007": 1.13556753352,
			"0.008": 1.3732020034,
			"0.009": 1.49964621516,
			"0.01": 1.05776070055,
			"0.011": 1.6849196097,
			"0.012": 1.94820327849,
			"0.013": 5.64313524286,
			"0.014": 4.00150918284,
			"0.015": 0.130778188876,
			"0.016": 0.0,
			"0.017": 0.0,
			"0.018": 0.0,
			"0.019": 0.0,
			"0.02": 0.0,
			"0.021": 0.0,
			"0.022": 0.0,
			"0.023": 0.0,
			"0.024": 0.0,
			"0.025": 0.0
		}
	}
}
