{
	 "smiles": "ClC1=CC=C(CC2=CC=CC=N2)C=C1", 
	 "Tm": 281.15, 
	 "num_atms": 24, 
	 "gaussian": { 
		 "optdone": 1, 
		 "sigma_profile": "yes", 
		 "theory": "DFT", 
		 "functional": "B3LYP", 
		 "basiset": "6-31G**", 
		 "properties": { 
			 "R2extent": 4805.1087, 
			 "electric_dipole_moment_norm": 3.40043539712, 
			 "electric_quadrupole_moment_norm": 12.4345693987, 
			 "total_energy": -978.252321776, 
			 "HOMO_LUMO_gap": 0.20487, 
			 "cosmo_polarized_energy": -7.68, 
			 "cosmo_cavitation_energy": 30.08, 
			 "cosmo_dispersion_energy": -21.77, 
			 "cosmo_repulsion_energy": 1.72, 
			 "cosmo_total_nonelectrostatic_energy": 10.03, 
			 "SMD_solvation_energy": 3.69 
		},
		"coords": [
			{
				"x": 1.7143198357,
				"y": 2.8505273632,
				"z": 4.5391180086,
				"element": "Cl" 
			},
			{
				"x": 1.1604178463,
				"y": 2.2468349756,
				"z": 2.9806738445,
				"element": "C" 
			},
			{
				"x": 0.4732347347,
				"y": 1.0340068683,
				"z": 2.9187821041,
				"element": "C" 
			},
			{
				"x": 0.0354844634,
				"y": 0.5626211233,
				"z": 1.6827526895,
				"element": "C" 
			},
			{
				"x": 0.2749834734,
				"y": 1.2869424119,
				"z": 0.5060182387,
				"element": "C" 
			},
			{
				"x": -0.2096655026,
				"y": 0.7624820208,
				"z": -0.8378535204,
				"element": "C" 
			},
			{
				"x": 0.4386426941,
				"y": -0.5522648033,
				"z": -1.234360332,
				"element": "C" 
			},
			{
				"x": 1.561078301,
				"y": -0.5898212427,
				"z": -2.0717449685,
				"element": "C" 
			},
			{
				"x": 2.1302304212,
				"y": -1.8212993735,
				"z": -2.387962171,
				"element": "C" 
			},
			{
				"x": 1.5637113173,
				"y": -2.9793039534,
				"z": -1.8564798474,
				"element": "C" 
			},
			{
				"x": 0.4485966936,
				"y": -2.8433862296,
				"z": -1.0298283847,
				"element": "C" 
			},
			{
				"x": -0.1095990503,
				"y": -1.6664956181,
				"z": -0.7221124305,
				"element": "N" 
			},
			{
				"x": 0.9680885284,
				"y": 2.4984107786,
				"z": 0.598940716,
				"element": "C" 
			},
			{
				"x": 1.4134731895,
				"y": 2.9871967598,
				"z": 1.8289654483,
				"element": "C" 
			},
			{
				"x": 0.2840168542,
				"y": 0.4701974083,
				"z": 3.8257620798,
				"element": "H" 
			},
			{
				"x": -0.4905106261,
				"y": -0.3853408749,
				"z": 1.6219499958,
				"element": "H" 
			},
			{
				"x": -0.0194121408,
				"y": 1.515276317,
				"z": -1.6094172266,
				"element": "H" 
			},
			{
				"x": -1.2918521897,
				"y": 0.5991184719,
				"z": -0.7967222388,
				"element": "H" 
			},
			{
				"x": 1.9765275575,
				"y": 0.3326510644,
				"z": -2.4663214794,
				"element": "H" 
			},
			{
				"x": 2.9988863357,
				"y": -1.8758482289,
				"z": -3.0381326661,
				"element": "H" 
			},
			{
				"x": 1.9701079134,
				"y": -3.9614428456,
				"z": -2.0757181233,
				"element": "H" 
			},
			{
				"x": -0.024569753,
				"y": -3.7228975427,
				"z": -0.5960292639,
				"element": "H" 
			},
			{
				"x": 1.1630551605,
				"y": 3.0776864828,
				"z": -0.3001272546,
				"element": "H" 
			},
			{
				"x": 1.9482539425,
				"y": 3.9285486667,
				"z": 1.8919467818,
				"element": "H" 
			}
		],
		 "valence_orbital": [ 
			{
				"type": "occ",
				"energy": -0.28919,
				"method": "rhf"
			},
			{
				"type": "occ",
				"energy": -0.26034,
				"method": "rhf"
			},
			{
				"type": "occ",
				"energy": -0.2592,
				"method": "rhf"
			},
			{
				"type": "occ",
				"energy": -0.25681,
				"method": "rhf"
			},
			{
				"type": "occ",
				"energy": -0.23496,
				"method": "rhf"
			},
			{
				"type": "unocc",
				"energy": -0.03009,
				"method": "rhf"
			},
			{
				"type": "unocc",
				"energy": -0.01752,
				"method": "rhf"
			},
			{
				"type": "unocc",
				"energy": -0.00835,
				"method": "rhf"
			},
			{
				"type": "unocc",
				"energy": -0.00108,
				"method": "rhf"
			},
			{
				"type": "unocc",
				"energy": 0.03485,
				"method": "rhf"
			}
		],
		"cosmo_sigma_profile": { 
			"-0.025": 0.0,
			"-0.024": 0.0,
			"-0.023": 0.0,
			"-0.022": 0.0,
			"-0.021": 0.0,
			"-0.02": 0.0,
			"-0.019": 0.0,
			"-0.018": 0.0,
			"-0.017": 0.0,
			"-0.016": 0.0,
			"-0.015": 0.0,
			"-0.014": 0.0,
			"-0.013": 0.0,
			"-0.012": 0.0,
			"-0.011": 0.0,
			"-0.01": 0.0,
			"-0.009": 0.0,
			"-0.008": 0.0487797840753,
			"-0.007": 5.86439044757,
			"-0.006": 18.1251318987,
			"-0.005": 19.382894168,
			"-0.004": 17.4819135744,
			"-0.003": 14.7320256388,
			"-0.002": 14.2451166411,
			"-0.001": 19.1085385794,
			"0.0": 14.0089078966,
			"0.001": 18.7686177618,
			"0.002": 23.6658881926,
			"0.003": 30.3541823827,
			"0.004": 24.8912023607,
			"0.005": 13.8227120796,
			"0.006": 2.15830248879,
			"0.007": 1.23787284007,
			"0.008": 1.044122403,
			"0.009": 0.898000471907,
			"0.01": 0.486370858694,
			"0.011": 1.07372554092,
			"0.012": 0.627116479894,
			"0.013": 0.460269876436,
			"0.014": 0.587580810225,
			"0.015": 0.334952498725,
			"0.016": 0.068589467086,
			"0.017": 0.0,
			"0.018": 0.0,
			"0.019": 0.0,
			"0.02": 0.0,
			"0.021": 0.0,
			"0.022": 0.0,
			"0.023": 0.0,
			"0.024": 0.0,
			"0.025": 0.0
		}
	}
}
