{
	 "smiles": "CC1=CC=C(C=C1)C1=NN=C(CCl)O1", 
	 "Tm": 395.15, 
	 "num_atms": 23, 
	 "gaussian": { 
		 "optdone": 1, 
		 "sigma_profile": "yes", 
		 "theory": "DFT", 
		 "functional": "B3LYP", 
		 "basiset": "6-31G**", 
		 "properties": { 
			 "R2extent": 5491.2835, 
			 "electric_dipole_moment_norm": 3.91953115946, 
			 "electric_quadrupole_moment_norm": 17.961548826, 
			 "total_energy": -1031.39151867, 
			 "HOMO_LUMO_gap": 0.18077, 
			 "cosmo_polarized_energy": -11.38, 
			 "cosmo_cavitation_energy": 29.92, 
			 "cosmo_dispersion_energy": -21.98, 
			 "cosmo_repulsion_energy": 1.74, 
			 "cosmo_total_nonelectrostatic_energy": 9.69, 
			 "SMD_solvation_energy": 3.24 
		},
		"coords": [
			{
				"x": 0.5244367543,
				"y": -4.3154991089,
				"z": -0.2415412333,
				"element": "C" 
			},
			{
				"x": 0.0533421143,
				"y": -2.884653278,
				"z": -0.1488291872,
				"element": "C" 
			},
			{
				"x": -0.3303749164,
				"y": -2.3345972859,
				"z": 1.0852665562,
				"element": "C" 
			},
			{
				"x": -0.7888515581,
				"y": -1.0269624296,
				"z": 1.1803502887,
				"element": "C" 
			},
			{
				"x": -0.8734105478,
				"y": -0.227027893,
				"z": 0.0282131078,
				"element": "C" 
			},
			{
				"x": -0.4912764002,
				"y": -0.7623674708,
				"z": -1.2099506561,
				"element": "C" 
			},
			{
				"x": -0.0335571108,
				"y": -2.0752082365,
				"z": -1.2891211168,
				"element": "C" 
			},
			{
				"x": -1.3544352706,
				"y": 1.1421135694,
				"z": 0.1459828274,
				"element": "C" 
			},
			{
				"x": -1.7582891587,
				"y": 1.7740473335,
				"z": 1.2133262021,
				"element": "N" 
			},
			{
				"x": -2.1221156223,
				"y": 3.0512788366,
				"z": 0.8062163304,
				"element": "N" 
			},
			{
				"x": -1.9088830047,
				"y": 3.103350033,
				"z": -0.4715272386,
				"element": "C" 
			},
			{
				"x": -2.1217844649,
				"y": 4.2526665706,
				"z": -1.3761370677,
				"element": "C" 
			},
			{
				"x": -3.5060837416,
				"y": 3.9794797097,
				"z": -2.5309639607,
				"element": "Cl" 
			},
			{
				"x": -1.4189123859,
				"y": 1.9331907181,
				"z": -0.967473828,
				"element": "O" 
			},
			{
				"x": 1.0667777479,
				"y": -4.4998618343,
				"z": -1.1729097065,
				"element": "H" 
			},
			{
				"x": 1.1832845966,
				"y": -4.5740321206,
				"z": 0.5935515414,
				"element": "H" 
			},
			{
				"x": -0.3233649549,
				"y": -5.0111550927,
				"z": -0.2105746579,
				"element": "H" 
			},
			{
				"x": -0.2663240969,
				"y": -2.9429037469,
				"z": 1.9838017083,
				"element": "H" 
			},
			{
				"x": -1.0826619812,
				"y": -0.6076053247,
				"z": 2.1366877608,
				"element": "H" 
			},
			{
				"x": -0.5525064534,
				"y": -0.1515366247,
				"z": -2.1044580213,
				"element": "H" 
			},
			{
				"x": 0.261714129,
				"y": -2.4784907411,
				"z": -2.2540971006,
				"element": "H" 
			},
			{
				"x": -1.2451503003,
				"y": 4.445483971,
				"z": -1.9953566659,
				"element": "H" 
			},
			{
				"x": -2.3645733735,
				"y": 5.1283904457,
				"z": -0.7771558827,
				"element": "H" 
			}
		],
		 "valence_orbital": [ 
			{
				"type": "occ",
				"energy": -0.30865,
				"method": "rhf"
			},
			{
				"type": "occ",
				"energy": -0.30137,
				"method": "rhf"
			},
			{
				"type": "occ",
				"energy": -0.28255,
				"method": "rhf"
			},
			{
				"type": "occ",
				"energy": -0.26519,
				"method": "rhf"
			},
			{
				"type": "occ",
				"energy": -0.23985,
				"method": "rhf"
			},
			{
				"type": "unocc",
				"energy": -0.05908,
				"method": "rhf"
			},
			{
				"type": "unocc",
				"energy": -0.02316,
				"method": "rhf"
			},
			{
				"type": "unocc",
				"energy": -0.01414,
				"method": "rhf"
			},
			{
				"type": "unocc",
				"energy": 0.04094,
				"method": "rhf"
			},
			{
				"type": "unocc",
				"energy": 0.05578,
				"method": "rhf"
			}
		],
		"cosmo_sigma_profile": { 
			"-0.025": 0.0,
			"-0.024": 0.0,
			"-0.023": 0.0,
			"-0.022": 0.0,
			"-0.021": 0.0,
			"-0.02": 0.0,
			"-0.019": 0.0,
			"-0.018": 0.0,
			"-0.017": 0.0,
			"-0.016": 0.0,
			"-0.015": 0.0,
			"-0.014": 0.0,
			"-0.013": 0.0,
			"-0.012": 0.0,
			"-0.011": 0.0985650429546,
			"-0.01": 3.17106149519,
			"-0.009": 4.03480746671,
			"-0.008": 4.15684933231,
			"-0.007": 5.08487246281,
			"-0.006": 9.85076341402,
			"-0.005": 16.7815500994,
			"-0.004": 18.3802636712,
			"-0.003": 16.7601871647,
			"-0.002": 18.1585622375,
			"-0.001": 22.0452598721,
			"0.0": 20.8909454385,
			"0.001": 15.0612738318,
			"0.002": 16.7392119195,
			"0.003": 17.589494175,
			"0.004": 17.4655329744,
			"0.005": 12.1186445376,
			"0.006": 5.16853089195,
			"0.007": 1.74271828962,
			"0.008": 1.55529332786,
			"0.009": 2.56025923647,
			"0.01": 2.92679196422,
			"0.011": 3.01188665478,
			"0.012": 2.8274114124,
			"0.013": 2.00986641092,
			"0.014": 1.80381208661,
			"0.015": 0.103074571461,
			"0.016": 0.0,
			"0.017": 0.0,
			"0.018": 0.0,
			"0.019": 0.0,
			"0.02": 0.0,
			"0.021": 0.0,
			"0.022": 0.0,
			"0.023": 0.0,
			"0.024": 0.0,
			"0.025": 0.0
		}
	}
}
