{
	 "smiles": "CC1=CC=C(C=C1)S(=O)(=O)CC1=CC=C(C=C1)C(O)=O", 
	 "Tm": 555.15, 
	 "num_atms": 34, 
	 "gaussian": { 
		 "optdone": 1, 
		 "sigma_profile": "yes", 
		 "theory": "DFT", 
		 "functional": "B3LYP", 
		 "basiset": "6-31G**", 
		 "properties": { 
			 "R2extent": 8875.0597, 
			 "electric_dipole_moment_norm": 3.7219906354, 
			 "electric_quadrupole_moment_norm": 41.0674527463, 
			 "total_energy": -1279.08452123, 
			 "HOMO_LUMO_gap": 0.19779, 
			 "cosmo_polarized_energy": -20.36, 
			 "cosmo_cavitation_energy": 40.15, 
			 "cosmo_dispersion_energy": -27.76, 
			 "cosmo_repulsion_energy": 2.11, 
			 "cosmo_total_nonelectrostatic_energy": 14.49, 
			 "SMD_solvation_energy": 7.19 
		},
		"coords": [
			{
				"x": 0.7815113655,
				"y": -2.2627893171,
				"z": -3.8498017904,
				"element": "C" 
			},
			{
				"x": 1.4749413584,
				"y": -1.1507873789,
				"z": -3.1005679349,
				"element": "C" 
			},
			{
				"x": 2.0365219674,
				"y": -0.0643879729,
				"z": -3.7882151096,
				"element": "C" 
			},
			{
				"x": 2.6551500591,
				"y": 0.9793063149,
				"z": -3.1032728616,
				"element": "C" 
			},
			{
				"x": 2.7118214041,
				"y": 0.9352611533,
				"z": -1.7087048794,
				"element": "C" 
			},
			{
				"x": 2.1731972375,
				"y": -0.1388928657,
				"z": -0.9978862698,
				"element": "C" 
			},
			{
				"x": 1.5588932538,
				"y": -1.1735149854,
				"z": -1.7006007452,
				"element": "C" 
			},
			{
				"x": 3.5092351173,
				"y": 2.2756617751,
				"z": -0.8211061617,
				"element": "S" 
			},
			{
				"x": 4.4478158113,
				"y": 2.941187157,
				"z": -1.7400892333,
				"element": "O" 
			},
			{
				"x": 3.9571507748,
				"y": 1.7616082224,
				"z": 0.4841292782,
				"element": "O" 
			},
			{
				"x": 2.1692464764,
				"y": 3.5042159065,
				"z": -0.5053288257,
				"element": "C" 
			},
			{
				"x": 1.053098384,
				"y": 3.015839977,
				"z": 0.3713926075,
				"element": "C" 
			},
			{
				"x": 1.2440683513,
				"y": 2.8686531203,
				"z": 1.7541750537,
				"element": "C" 
			},
			{
				"x": 0.2094706095,
				"y": 2.4140364241,
				"z": 2.5661993078,
				"element": "C" 
			},
			{
				"x": -1.0370563425,
				"y": 2.1002124466,
				"z": 2.0058720237,
				"element": "C" 
			},
			{
				"x": -1.2333668504,
				"y": 2.2429378603,
				"z": 0.6265791444,
				"element": "C" 
			},
			{
				"x": -0.1953193821,
				"y": 2.6940357924,
				"z": -0.1817308058,
				"element": "C" 
			},
			{
				"x": -2.1790357693,
				"y": 1.6153196976,
				"z": 2.8256368692,
				"element": "C" 
			},
			{
				"x": -1.8840930778,
				"y": 1.5228884432,
				"z": 4.1461919707,
				"element": "O" 
			},
			{
				"x": -3.27413868,
				"y": 1.3233774908,
				"z": 2.3863919822,
				"element": "O" 
			},
			{
				"x": 0.8611509533,
				"y": -3.2147186735,
				"z": -3.3172104685,
				"element": "H" 
			},
			{
				"x": 1.2020572069,
				"y": -2.3944648678,
				"z": -4.8508064372,
				"element": "H" 
			},
			{
				"x": -0.2870881967,
				"y": -2.0453118829,
				"z": -3.9704563853,
				"element": "H" 
			},
			{
				"x": 1.9984874643,
				"y": -0.0415527261,
				"z": -4.8741071294,
				"element": "H" 
			},
			{
				"x": 3.1136604481,
				"y": 1.805621855,
				"z": -3.6362965843,
				"element": "H" 
			},
			{
				"x": 2.2556436903,
				"y": -0.1666807789,
				"z": 0.0829281349,
				"element": "H" 
			},
			{
				"x": 1.144118988,
				"y": -2.01607667,
				"z": -1.1538096398,
				"element": "H" 
			},
			{
				"x": 2.7261528523,
				"y": 4.3306219531,
				"z": -0.052476761,
				"element": "H" 
			},
			{
				"x": 1.822849914,
				"y": 3.8204181704,
				"z": -1.4918466131,
				"element": "H" 
			},
			{
				"x": 2.2126294611,
				"y": 3.0975143733,
				"z": 2.1863586622,
				"element": "H" 
			},
			{
				"x": 0.36132046,
				"y": 2.3026917968,
				"z": 3.6336315484,
				"element": "H" 
			},
			{
				"x": -2.20424543,
				"y": 1.9966953447,
				"z": 0.2104197367,
				"element": "H" 
			},
			{
				"x": -0.3532604258,
				"y": 2.8034900012,
				"z": -1.2511258214,
				"element": "H" 
			},
			{
				"x": -2.6932894542,
				"y": 1.2003828432,
				"z": 4.5757341379,
				"element": "H" 
			}
		],
		 "valence_orbital": [ 
			{
				"type": "occ",
				"energy": -0.28207,
				"method": "rhf"
			},
			{
				"type": "occ",
				"energy": -0.27253,
				"method": "rhf"
			},
			{
				"type": "occ",
				"energy": -0.26902,
				"method": "rhf"
			},
			{
				"type": "occ",
				"energy": -0.2646,
				"method": "rhf"
			},
			{
				"type": "occ",
				"energy": -0.25846,
				"method": "rhf"
			},
			{
				"type": "unocc",
				"energy": -0.06067,
				"method": "rhf"
			},
			{
				"type": "unocc",
				"energy": -0.03961,
				"method": "rhf"
			},
			{
				"type": "unocc",
				"energy": -0.02254,
				"method": "rhf"
			},
			{
				"type": "unocc",
				"energy": -0.01752,
				"method": "rhf"
			},
			{
				"type": "unocc",
				"energy": 0.03579,
				"method": "rhf"
			}
		],
		"cosmo_sigma_profile": { 
			"-0.025": 0.0,
			"-0.024": 0.0,
			"-0.023": 0.0,
			"-0.022": 0.0,
			"-0.021": 0.0,
			"-0.02": 0.0,
			"-0.019": 0.0574667672557,
			"-0.018": 0.700624646275,
			"-0.017": 1.07922945654,
			"-0.016": 0.682421803911,
			"-0.015": 0.909031024224,
			"-0.014": 0.818158430019,
			"-0.013": 0.455335047103,
			"-0.012": 0.505297700774,
			"-0.011": 0.963656068513,
			"-0.01": 1.01503950387,
			"-0.009": 3.65908675844,
			"-0.008": 6.33744923406,
			"-0.007": 10.5982866578,
			"-0.006": 18.8322234908,
			"-0.005": 24.2160481031,
			"-0.004": 21.5586142211,
			"-0.003": 19.2553290756,
			"-0.002": 21.5878919109,
			"-0.001": 24.5834055837,
			"0.0": 22.2555203977,
			"0.001": 22.6055279944,
			"0.002": 26.8286130388,
			"0.003": 25.84012216,
			"0.004": 8.01302607284,
			"0.005": 5.86915777003,
			"0.006": 5.34593537886,
			"0.007": 5.62643710705,
			"0.008": 4.00029942361,
			"0.009": 6.17094077428,
			"0.01": 6.76249320483,
			"0.011": 11.3769223256,
			"0.012": 11.0637351348,
			"0.013": 0.50215039721,
			"0.014": 0.0,
			"0.015": 0.0,
			"0.016": 0.0,
			"0.017": 0.0,
			"0.018": 0.0,
			"0.019": 0.0,
			"0.02": 0.0,
			"0.021": 0.0,
			"0.022": 0.0,
			"0.023": 0.0,
			"0.024": 0.0,
			"0.025": 0.0
		}
	}
}
