{
	 "smiles": "OC(=O)C1=CC=C(COC2=CC=CC=C2)S1", 
	 "Tm": 408.15, 
	 "num_atms": 26, 
	 "gaussian": { 
		 "optdone": 1, 
		 "sigma_profile": "yes", 
		 "theory": "DFT", 
		 "functional": "B3LYP", 
		 "basiset": "6-31G**", 
		 "properties": { 
			 "R2extent": 5082.7195, 
			 "electric_dipole_moment_norm": 4.6383835374, 
			 "electric_quadrupole_moment_norm": 26.6591912081, 
			 "total_energy": -1087.14258249, 
			 "HOMO_LUMO_gap": 0.16535, 
			 "cosmo_polarized_energy": -16.21, 
			 "cosmo_cavitation_energy": 32.57, 
			 "cosmo_dispersion_energy": -23.69, 
			 "cosmo_repulsion_energy": 1.82, 
			 "cosmo_total_nonelectrostatic_energy": 10.69, 
			 "SMD_solvation_energy": 6.58 
		},
		"coords": [
			{
				"x": 0.1919971387,
				"y": -4.6347640277,
				"z": -1.2900619684,
				"element": "O" 
			},
			{
				"x": 1.015630055,
				"y": -3.8139130987,
				"z": -1.9950305801,
				"element": "C" 
			},
			{
				"x": 1.554102218,
				"y": -4.2119093347,
				"z": -3.0015990461,
				"element": "O" 
			},
			{
				"x": 1.2200113086,
				"y": -2.4407870827,
				"z": -1.4766368748,
				"element": "C" 
			},
			{
				"x": 1.8248298592,
				"y": -1.4284360664,
				"z": -2.181246887,
				"element": "C" 
			},
			{
				"x": 1.860130041,
				"y": -0.2000117868,
				"z": -1.469290145,
				"element": "C" 
			},
			{
				"x": 1.2928578752,
				"y": -0.2779047082,
				"z": -0.2201791632,
				"element": "C" 
			},
			{
				"x": 1.2306947965,
				"y": 0.786095903,
				"z": 0.8427496275,
				"element": "C" 
			},
			{
				"x": 0.0569585894,
				"y": 0.7309417047,
				"z": 1.6416275441,
				"element": "O" 
			},
			{
				"x": -1.1208644985,
				"y": 1.2498086093,
				"z": 1.1521226207,
				"element": "C" 
			},
			{
				"x": -1.3027827487,
				"y": 1.7292094573,
				"z": -0.1487165406,
				"element": "C" 
			},
			{
				"x": -2.5494535976,
				"y": 2.2451627236,
				"z": -0.5185880755,
				"element": "C" 
			},
			{
				"x": -3.6071954884,
				"y": 2.2824161122,
				"z": 0.3869863826,
				"element": "C" 
			},
			{
				"x": -3.4147097736,
				"y": 1.7933968435,
				"z": 1.6834026863,
				"element": "C" 
			},
			{
				"x": -2.1805531028,
				"y": 1.2799491316,
				"z": 2.0681255025,
				"element": "C" 
			},
			{
				"x": 0.7069788314,
				"y": -1.884418399,
				"z": 0.1018870497,
				"element": "S" 
			},
			{
				"x": -0.2769887515,
				"y": -4.1549925129,
				"z": -0.5920071709,
				"element": "H" 
			},
			{
				"x": 2.2083155724,
				"y": -1.5810886827,
				"z": -3.1826409943,
				"element": "H" 
			},
			{
				"x": 2.2918465132,
				"y": 0.7144083587,
				"z": -1.8623561724,
				"element": "H" 
			},
			{
				"x": 2.0499866548,
				"y": 0.6528704553,
				"z": 1.5574040652,
				"element": "H" 
			},
			{
				"x": 1.3528818585,
				"y": 1.7724013304,
				"z": 0.3760302991,
				"element": "H" 
			},
			{
				"x": -0.5037368982,
				"y": 1.6882598779,
				"z": -0.8787156562,
				"element": "H" 
			},
			{
				"x": -2.6862585935,
				"y": 2.6142416583,
				"z": -1.531096629,
				"element": "H" 
			},
			{
				"x": -4.5708595561,
				"y": 2.6833246533,
				"z": 0.0889378459,
				"element": "H" 
			},
			{
				"x": -4.2299352033,
				"y": 1.8148964758,
				"z": 2.4009758747,
				"element": "H" 
			},
			{
				"x": -2.0104830997,
				"y": 0.9018424054,
				"z": 3.0709164052,
				"element": "H" 
			}
		],
		 "valence_orbital": [ 
			{
				"type": "occ",
				"energy": -0.27823,
				"method": "rhf"
			},
			{
				"type": "occ",
				"energy": -0.27626,
				"method": "rhf"
			},
			{
				"type": "occ",
				"energy": -0.25873,
				"method": "rhf"
			},
			{
				"type": "occ",
				"energy": -0.25246,
				"method": "rhf"
			},
			{
				"type": "occ",
				"energy": -0.23,
				"method": "rhf"
			},
			{
				"type": "unocc",
				"energy": -0.06465,
				"method": "rhf"
			},
			{
				"type": "unocc",
				"energy": -0.0085,
				"method": "rhf"
			},
			{
				"type": "unocc",
				"energy": -0.00454,
				"method": "rhf"
			},
			{
				"type": "unocc",
				"energy": 0.00546,
				"method": "rhf"
			},
			{
				"type": "unocc",
				"energy": 0.01685,
				"method": "rhf"
			}
		],
		"cosmo_sigma_profile": { 
			"-0.025": 0.0,
			"-0.024": 0.0,
			"-0.023": 0.0,
			"-0.022": 0.0,
			"-0.021": 0.0,
			"-0.02": 0.0,
			"-0.019": 0.0,
			"-0.018": 0.528097178342,
			"-0.017": 0.94154912498,
			"-0.016": 0.489399412095,
			"-0.015": 1.0006250654,
			"-0.014": 0.956602983132,
			"-0.013": 0.962853514229,
			"-0.012": 1.30705230918,
			"-0.011": 1.01719746547,
			"-0.01": 0.742745279188,
			"-0.009": 0.777511935598,
			"-0.008": 7.18113817072,
			"-0.007": 11.0351202263,
			"-0.006": 13.484742048,
			"-0.005": 17.7666582477,
			"-0.004": 19.553464028,
			"-0.003": 15.7523501518,
			"-0.002": 13.2916517037,
			"-0.001": 14.5664891287,
			"0.0": 13.8312305612,
			"0.001": 21.3938026488,
			"0.002": 23.9952492284,
			"0.003": 17.8510756274,
			"0.004": 12.0597267984,
			"0.005": 13.3392528465,
			"0.006": 10.1099377047,
			"0.007": 4.05896276315,
			"0.008": 4.20213985034,
			"0.009": 4.23047686851,
			"0.01": 5.18265425453,
			"0.011": 5.27272564221,
			"0.012": 4.85609138741,
			"0.013": 1.28509566541,
			"0.014": 0.0142222883788,
			"0.015": 0.0,
			"0.016": 0.0,
			"0.017": 0.0,
			"0.018": 0.0,
			"0.019": 0.0,
			"0.02": 0.0,
			"0.021": 0.0,
			"0.022": 0.0,
			"0.023": 0.0,
			"0.024": 0.0,
			"0.025": 0.0
		}
	}
}
