{
	 "smiles": "NC1=C(N)C=C(C=C1)S(=O)(=O)N1CCOCC1", 
	 "Tm": 443.15, 
	 "num_atms": 32, 
	 "gaussian": { 
		 "optdone": 1, 
		 "sigma_profile": "yes", 
		 "theory": "DFT", 
		 "functional": "B3LYP", 
		 "basiset": "6-31G**", 
		 "properties": { 
			 "R2extent": 5232.6336, 
			 "electric_dipole_moment_norm": 6.21602747983, 
			 "electric_quadrupole_moment_norm": 20.4060118279, 
			 "total_energy": -1178.1303293, 
			 "HOMO_LUMO_gap": 0.18959, 
			 "cosmo_polarized_energy": -22.88, 
			 "cosmo_cavitation_energy": 34.97, 
			 "cosmo_dispersion_energy": -25.62, 
			 "cosmo_repulsion_energy": 1.96, 
			 "cosmo_total_nonelectrostatic_energy": 11.31, 
			 "SMD_solvation_energy": 3.73 
		},
		"coords": [
			{
				"x": -0.130179689,
				"y": 2.7434533185,
				"z": 2.1032206565,
				"element": "N" 
			},
			{
				"x": -0.3273304711,
				"y": 1.5935013228,
				"z": 1.3347351058,
				"element": "C" 
			},
			{
				"x": -0.3450498192,
				"y": 1.7367468846,
				"z": -0.0768605265,
				"element": "C" 
			},
			{
				"x": -0.111662476,
				"y": 3.0200826073,
				"z": -0.6050574127,
				"element": "N" 
			},
			{
				"x": -0.546829528,
				"y": 0.6138173317,
				"z": -0.8762836967,
				"element": "C" 
			},
			{
				"x": -0.7511212672,
				"y": -0.6410177156,
				"z": -0.2879363529,
				"element": "C" 
			},
			{
				"x": -0.7854118483,
				"y": -0.7837063823,
				"z": 1.0999390701,
				"element": "C" 
			},
			{
				"x": -0.5680684705,
				"y": 0.3367233035,
				"z": 1.9006864831,
				"element": "C" 
			},
			{
				"x": -0.9502411705,
				"y": -2.0771631861,
				"z": -1.3369053257,
				"element": "S" 
			},
			{
				"x": -1.6745108155,
				"y": -3.0906322379,
				"z": -0.5648915411,
				"element": "O" 
			},
			{
				"x": -1.4128146405,
				"y": -1.602118218,
				"z": -2.6443403615,
				"element": "O" 
			},
			{
				"x": 0.5822090194,
				"y": -2.7178584829,
				"z": -1.6139435938,
				"element": "N" 
			},
			{
				"x": 1.4915969097,
				"y": -1.9336018517,
				"z": -2.4690193054,
				"element": "C" 
			},
			{
				"x": 2.8338051083,
				"y": -2.6556248848,
				"z": -2.5301288405,
				"element": "C" 
			},
			{
				"x": 3.465226412,
				"y": -2.7597385888,
				"z": -1.2571713861,
				"element": "O" 
			},
			{
				"x": 2.5668253972,
				"y": -2.8741254184,
				"z": -0.1535714689,
				"element": "C" 
			},
			{
				"x": 1.2329979796,
				"y": -3.5029600304,
				"z": -0.5460985408,
				"element": "C" 
			},
			{
				"x": 0.5591459773,
				"y": 3.3739301788,
				"z": 1.706918352,
				"element": "H" 
			},
			{
				"x": 0.0486197795,
				"y": 2.5659996459,
				"z": 3.0829845197,
				"element": "H" 
			},
			{
				"x": -0.670175612,
				"y": 3.7339250106,
				"z": -0.1454894249,
				"element": "H" 
			},
			{
				"x": -0.2452948868,
				"y": 3.0681870842,
				"z": -1.6078995073,
				"element": "H" 
			},
			{
				"x": -0.5929485405,
				"y": 0.7117000281,
				"z": -1.9563243001,
				"element": "H" 
			},
			{
				"x": -0.9997850634,
				"y": -1.7491477793,
				"z": 1.5431683442,
				"element": "H" 
			},
			{
				"x": -0.583464955,
				"y": 0.2382632936,
				"z": 2.9832985055,
				"element": "H" 
			},
			{
				"x": 1.6477125551,
				"y": -0.9169756062,
				"z": -2.0761944897,
				"element": "H" 
			},
			{
				"x": 1.057921748,
				"y": -1.8510159328,
				"z": -3.4684184859,
				"element": "H" 
			},
			{
				"x": 3.5197104485,
				"y": -2.0999017467,
				"z": -3.1773074646,
				"element": "H" 
			},
			{
				"x": 2.6895977322,
				"y": -3.6536214347,
				"z": -2.971445808,
				"element": "H" 
			},
			{
				"x": 3.0655986387,
				"y": -3.4932836076,
				"z": 0.6003230612,
				"element": "H" 
			},
			{
				"x": 2.3872740763,
				"y": -1.8829877622,
				"z": 0.2901483234,
				"element": "H" 
			},
			{
				"x": 0.5689683693,
				"y": -3.5695069023,
				"z": 0.3179442228,
				"element": "H" 
			},
			{
				"x": 1.3915791024,
				"y": -4.527442241,
				"z": -0.9042788112,
				"element": "H" 
			}
		],
		 "valence_orbital": [ 
			{
				"type": "occ",
				"energy": -0.28682,
				"method": "rhf"
			},
			{
				"type": "occ",
				"energy": -0.25752,
				"method": "rhf"
			},
			{
				"type": "occ",
				"energy": -0.24795,
				"method": "rhf"
			},
			{
				"type": "occ",
				"energy": -0.24154,
				"method": "rhf"
			},
			{
				"type": "occ",
				"energy": -0.20824,
				"method": "rhf"
			},
			{
				"type": "unocc",
				"energy": -0.01865,
				"method": "rhf"
			},
			{
				"type": "unocc",
				"energy": -0.00535,
				"method": "rhf"
			},
			{
				"type": "unocc",
				"energy": 0.05884,
				"method": "rhf"
			},
			{
				"type": "unocc",
				"energy": 0.06429,
				"method": "rhf"
			},
			{
				"type": "unocc",
				"energy": 0.0838,
				"method": "rhf"
			}
		],
		"cosmo_sigma_profile": { 
			"-0.025": 0.0,
			"-0.024": 0.0,
			"-0.023": 0.0,
			"-0.022": 0.0,
			"-0.021": 0.0,
			"-0.02": 0.0,
			"-0.019": 0.0,
			"-0.018": 0.0,
			"-0.017": 0.0,
			"-0.016": 0.0,
			"-0.015": 0.0,
			"-0.014": 0.0,
			"-0.013": 1.10328173401,
			"-0.012": 3.3971339516,
			"-0.011": 5.53942498914,
			"-0.01": 5.67982361699,
			"-0.009": 5.38979869081,
			"-0.008": 6.16518321022,
			"-0.007": 5.5428282465,
			"-0.006": 13.8105616623,
			"-0.005": 24.2411273623,
			"-0.004": 25.9247642635,
			"-0.003": 22.5921896932,
			"-0.002": 16.9536719295,
			"-0.001": 12.43395799,
			"0.0": 9.61515587181,
			"0.001": 10.3397297892,
			"0.002": 9.76870826181,
			"0.003": 13.1457287803,
			"0.004": 16.1640787751,
			"0.005": 9.55325479518,
			"0.006": 6.72950547534,
			"0.007": 7.73370035922,
			"0.008": 7.07914197961,
			"0.009": 4.55164028235,
			"0.01": 8.19392780007,
			"0.011": 10.4104109432,
			"0.012": 8.77926679308,
			"0.013": 3.49082175581,
			"0.014": 0.561009210666,
			"0.015": 0.0,
			"0.016": 0.0,
			"0.017": 0.0,
			"0.018": 0.0,
			"0.019": 0.0,
			"0.02": 0.0,
			"0.021": 0.0,
			"0.022": 0.0,
			"0.023": 0.0,
			"0.024": 0.0,
			"0.025": 0.0
		}
	}
}
