{
	 "smiles": "FC1=C(CNC(=O)CCl)C=CC=C1", 
	 "Tm": 353.15, 
	 "num_atms": 22, 
	 "gaussian": { 
		 "optdone": 1, 
		 "sigma_profile": "yes", 
		 "theory": "DFT", 
		 "functional": "B3LYP", 
		 "basiset": "6-31G**", 
		 "properties": { 
			 "R2extent": 4192.7869, 
			 "electric_dipole_moment_norm": 3.08124586166, 
			 "electric_quadrupole_moment_norm": 7.75249994647, 
			 "total_energy": -1038.40328869, 
			 "HOMO_LUMO_gap": 0.22627, 
			 "cosmo_polarized_energy": -11.65, 
			 "cosmo_cavitation_energy": 28.52, 
			 "cosmo_dispersion_energy": -20.36, 
			 "cosmo_repulsion_energy": 1.63, 
			 "cosmo_total_nonelectrostatic_energy": 9.79, 
			 "SMD_solvation_energy": 5.11 
		},
		"coords": [
			{
				"x": -0.8366747617,
				"y": -1.513755211,
				"z": -0.8856702177,
				"element": "F" 
			},
			{
				"x": -1.4324933755,
				"y": -0.3035654769,
				"z": -0.8161129438,
				"element": "C" 
			},
			{
				"x": -0.6487914982,
				"y": 0.8047943906,
				"z": -0.4805028366,
				"element": "C" 
			},
			{
				"x": 0.8308076683,
				"y": 0.6494094155,
				"z": -0.2101764474,
				"element": "C" 
			},
			{
				"x": 1.5761404664,
				"y": 0.2535030549,
				"z": -1.4003342415,
				"element": "N" 
			},
			{
				"x": 2.3680499598,
				"y": -0.8446232721,
				"z": -1.4158043918,
				"element": "C" 
			},
			{
				"x": 2.6022391795,
				"y": -1.5568329711,
				"z": -0.4477023831,
				"element": "O" 
			},
			{
				"x": 3.034516711,
				"y": -1.2322908273,
				"z": -2.738200837,
				"element": "C" 
			},
			{
				"x": 2.7158514487,
				"y": -0.1563970059,
				"z": -4.1694858313,
				"element": "Cl" 
			},
			{
				"x": -1.29295114,
				"y": 2.0447785458,
				"z": -0.4092767652,
				"element": "C" 
			},
			{
				"x": -2.6611593533,
				"y": 2.1675751132,
				"z": -0.6620490184,
				"element": "C" 
			},
			{
				"x": -3.4094928884,
				"y": 1.0381591718,
				"z": -0.9961912629,
				"element": "C" 
			},
			{
				"x": -2.7932538729,
				"y": -0.2127195028,
				"z": -1.0749928765,
				"element": "C" 
			},
			{
				"x": 1.0220367513,
				"y": -0.1302993723,
				"z": 0.5320073571,
				"element": "H" 
			},
			{
				"x": 1.2275562443,
				"y": 1.5920575036,
				"z": 0.1853482723,
				"element": "H" 
			},
			{
				"x": 1.4298557555,
				"y": 0.758395611,
				"z": -2.2633316262,
				"element": "H" 
			},
			{
				"x": 2.696383563,
				"y": -2.2325628482,
				"z": -3.0093263217,
				"element": "H" 
			},
			{
				"x": 4.1136457654,
				"y": -1.2523264079,
				"z": -2.5870623145,
				"element": "H" 
			},
			{
				"x": -0.7087468209,
				"y": 2.9236689776,
				"z": -0.1479926776,
				"element": "H" 
			},
			{
				"x": -3.1386201027,
				"y": 3.1403377936,
				"z": -0.5992038573,
				"element": "H" 
			},
			{
				"x": -4.4733115179,
				"y": 1.1249260816,
				"z": -1.1952975371,
				"element": "H" 
			},
			{
				"x": -3.3460881818,
				"y": -1.1110327637,
				"z": -1.3277412421,
				"element": "H" 
			}
		],
		 "valence_orbital": [ 
			{
				"type": "occ",
				"energy": -0.30974,
				"method": "rhf"
			},
			{
				"type": "occ",
				"energy": -0.27224,
				"method": "rhf"
			},
			{
				"type": "occ",
				"energy": -0.26146,
				"method": "rhf"
			},
			{
				"type": "occ",
				"energy": -0.25734,
				"method": "rhf"
			},
			{
				"type": "occ",
				"energy": -0.24632,
				"method": "rhf"
			},
			{
				"type": "unocc",
				"energy": -0.02005,
				"method": "rhf"
			},
			{
				"type": "unocc",
				"energy": -0.00795,
				"method": "rhf"
			},
			{
				"type": "unocc",
				"energy": 0.01494,
				"method": "rhf"
			},
			{
				"type": "unocc",
				"energy": 0.02231,
				"method": "rhf"
			},
			{
				"type": "unocc",
				"energy": 0.08184,
				"method": "rhf"
			}
		],
		"cosmo_sigma_profile": { 
			"-0.025": 0.0,
			"-0.024": 0.0,
			"-0.023": 0.0,
			"-0.022": 0.0,
			"-0.021": 0.0,
			"-0.02": 0.0,
			"-0.019": 0.0,
			"-0.018": 0.0,
			"-0.017": 0.0,
			"-0.016": 0.0,
			"-0.015": 0.0,
			"-0.014": 0.0,
			"-0.013": 0.000596321955157,
			"-0.012": 0.735372923539,
			"-0.011": 0.816923479887,
			"-0.01": 0.880893971405,
			"-0.009": 3.52107147422,
			"-0.008": 4.59103358259,
			"-0.007": 9.04467800262,
			"-0.006": 15.3507125034,
			"-0.005": 15.8298379303,
			"-0.004": 17.904832732,
			"-0.003": 14.253688343,
			"-0.002": 12.982811644,
			"-0.001": 11.9114541458,
			"0.0": 13.733159714,
			"0.001": 17.6186117329,
			"0.002": 16.620682161,
			"0.003": 15.0729961827,
			"0.004": 20.9223509031,
			"0.005": 15.3118381317,
			"0.006": 5.54127940311,
			"0.007": 2.17919019713,
			"0.008": 0.850506473469,
			"0.009": 1.67728008853,
			"0.01": 1.27819893863,
			"0.011": 1.67163268044,
			"0.012": 2.35545774597,
			"0.013": 5.35108415087,
			"0.014": 1.64231297918,
			"0.015": 0.00410749839846,
			"0.016": 0.0,
			"0.017": 0.0,
			"0.018": 0.0,
			"0.019": 0.0,
			"0.02": 0.0,
			"0.021": 0.0,
			"0.022": 0.0,
			"0.023": 0.0,
			"0.024": 0.0,
			"0.025": 0.0
		}
	}
}
