{
	 "smiles": "CC1(NC(=O)N(NC(=O)CCl)C1=O)C1=CC=CC=C1", 
	 "Tm": 424.15, 
	 "num_atms": 31, 
	 "gaussian": { 
		 "optdone": 1, 
		 "sigma_profile": "yes", 
		 "theory": "DFT", 
		 "functional": "B3LYP", 
		 "basiset": "6-31G**", 
		 "properties": { 
			 "R2extent": 6371.8249, 
			 "electric_dipole_moment_norm": 2.20953066736, 
			 "electric_quadrupole_moment_norm": 15.9139537702, 
			 "total_energy": -1314.64586108, 
			 "HOMO_LUMO_gap": 0.23056, 
			 "cosmo_polarized_energy": -20.88, 
			 "cosmo_cavitation_energy": 37.13, 
			 "cosmo_dispersion_energy": -25.65, 
			 "cosmo_repulsion_energy": 2.0, 
			 "cosmo_total_nonelectrostatic_energy": 13.48, 
			 "SMD_solvation_energy": 8.01 
		},
		"coords": [
			{
				"x": -2.3693459534,
				"y": 0.8775803712,
				"z": 1.5593883649,
				"element": "C" 
			},
			{
				"x": -1.3487991732,
				"y": 0.29400082,
				"z": 0.5703305358,
				"element": "C" 
			},
			{
				"x": -0.5091425086,
				"y": 1.3587802629,
				"z": -0.0060097617,
				"element": "N" 
			},
			{
				"x": 0.8267457185,
				"y": 1.2180471879,
				"z": 0.2375029728,
				"element": "C" 
			},
			{
				"x": 1.7662559932,
				"y": 1.8503013761,
				"z": -0.1876452641,
				"element": "O" 
			},
			{
				"x": 0.9172260926,
				"y": 0.1379242764,
				"z": 1.1727956744,
				"element": "N" 
			},
			{
				"x": 2.1243310274,
				"y": -0.3951408514,
				"z": 1.5292574576,
				"element": "N" 
			},
			{
				"x": 2.7567574982,
				"y": -1.2490446893,
				"z": 0.6672472808,
				"element": "C" 
			},
			{
				"x": 2.2803988224,
				"y": -1.6295353696,
				"z": -0.3873186186,
				"element": "O" 
			},
			{
				"x": 4.1358571013,
				"y": -1.7582917267,
				"z": 1.0750036159,
				"element": "C" 
			},
			{
				"x": 4.7953180067,
				"y": -1.1498712178,
				"z": 2.6494697254,
				"element": "Cl" 
			},
			{
				"x": -0.3000524409,
				"y": -0.5119570995,
				"z": 1.3772038076,
				"element": "C" 
			},
			{
				"x": -0.4909685109,
				"y": -1.4820267851,
				"z": 2.0690207067,
				"element": "O" 
			},
			{
				"x": -1.9578079687,
				"y": -0.5864490096,
				"z": -0.530518091,
				"element": "C" 
			},
			{
				"x": -1.1012468102,
				"y": -1.2603765417,
				"z": -1.4168981359,
				"element": "C" 
			},
			{
				"x": -1.6222328346,
				"y": -2.0439170134,
				"z": -2.4440459177,
				"element": "C" 
			},
			{
				"x": -3.004564204,
				"y": -2.1654253808,
				"z": -2.6072205592,
				"element": "C" 
			},
			{
				"x": -3.8605236598,
				"y": -1.5040368909,
				"z": -1.7289124826,
				"element": "C" 
			},
			{
				"x": -3.3403448302,
				"y": -0.7211660689,
				"z": -0.6946411003,
				"element": "C" 
			},
			{
				"x": -2.8975295686,
				"y": 0.0734949123,
				"z": 2.0769486134,
				"element": "H" 
			},
			{
				"x": -3.0946293742,
				"y": 1.5123388776,
				"z": 1.0432598494,
				"element": "H" 
			},
			{
				"x": -1.8520273277,
				"y": 1.4908845728,
				"z": 2.3013507422,
				"element": "H" 
			},
			{
				"x": -0.809004572,
				"y": 1.9149678871,
				"z": -0.7930206673,
				"element": "H" 
			},
			{
				"x": 2.5762282069,
				"y": -0.0447040998,
				"z": 2.362386145,
				"element": "H" 
			},
			{
				"x": 4.0905237871,
				"y": -2.8457456968,
				"z": 1.1388386053,
				"element": "H" 
			},
			{
				"x": 4.8428484887,
				"y": -1.4760625509,
				"z": 0.2945620485,
				"element": "H" 
			},
			{
				"x": -0.0229534672,
				"y": -1.194682697,
				"z": -1.2957824366,
				"element": "H" 
			},
			{
				"x": -0.9450233979,
				"y": -2.5639673577,
				"z": -3.1151115923,
				"element": "H" 
			},
			{
				"x": -3.409077741,
				"y": -2.7757081739,
				"z": -3.4094851953,
				"element": "H" 
			},
			{
				"x": -4.9370001111,
				"y": -1.5948110891,
				"z": -1.8419579996,
				"element": "H" 
			},
			{
				"x": -4.0270162886,
				"y": -0.2229002345,
				"z": -0.0196983235,
				"element": "H" 
			}
		],
		 "valence_orbital": [ 
			{
				"type": "occ",
				"energy": -0.28091,
				"method": "rhf"
			},
			{
				"type": "occ",
				"energy": -0.27784,
				"method": "rhf"
			},
			{
				"type": "occ",
				"energy": -0.26717,
				"method": "rhf"
			},
			{
				"type": "occ",
				"energy": -0.25716,
				"method": "rhf"
			},
			{
				"type": "occ",
				"energy": -0.24951,
				"method": "rhf"
			},
			{
				"type": "unocc",
				"energy": -0.01895,
				"method": "rhf"
			},
			{
				"type": "unocc",
				"energy": -0.01495,
				"method": "rhf"
			},
			{
				"type": "unocc",
				"energy": -0.00594,
				"method": "rhf"
			},
			{
				"type": "unocc",
				"energy": -0.00325,
				"method": "rhf"
			},
			{
				"type": "unocc",
				"energy": 0.00406,
				"method": "rhf"
			}
		],
		"cosmo_sigma_profile": { 
			"-0.025": 0.0,
			"-0.024": 0.0,
			"-0.023": 0.0,
			"-0.022": 0.0,
			"-0.021": 0.0,
			"-0.02": 0.0,
			"-0.019": 0.0,
			"-0.018": 0.0,
			"-0.017": 0.0,
			"-0.016": 0.930637542178,
			"-0.015": 2.14347467142,
			"-0.014": 1.58917986098,
			"-0.013": 2.10844432909,
			"-0.012": 1.30030160613,
			"-0.011": 1.37860184612,
			"-0.01": 5.52359037115,
			"-0.009": 5.90291277132,
			"-0.008": 6.58748710094,
			"-0.007": 6.98549087525,
			"-0.006": 18.5000994995,
			"-0.005": 20.9387315345,
			"-0.004": 20.5998708071,
			"-0.003": 18.0416091797,
			"-0.002": 16.9289882788,
			"-0.001": 16.9555980676,
			"0.0": 13.893416466,
			"0.001": 15.45893311,
			"0.002": 15.8707787815,
			"0.003": 19.0632804188,
			"0.004": 17.9489563926,
			"0.005": 21.3490858872,
			"0.006": 6.39644087889,
			"0.007": 5.52736867808,
			"0.008": 3.87853578362,
			"0.009": 5.22191671586,
			"0.01": 6.66926340643,
			"0.011": 10.3978968226,
			"0.012": 8.6873829263,
			"0.013": 1.23034932649,
			"0.014": 0.0,
			"0.015": 0.0,
			"0.016": 0.0,
			"0.017": 0.0,
			"0.018": 0.0,
			"0.019": 0.0,
			"0.02": 0.0,
			"0.021": 0.0,
			"0.022": 0.0,
			"0.023": 0.0,
			"0.024": 0.0,
			"0.025": 0.0
		}
	}
}
