{
	 "smiles": "CC1CC2C3CC=C4CC(CCC4(C)C3CCC2(C)C1=O)OC(C)=O", 
	 "Tm": 414.15, 
	 "num_atms": 57, 
	 "gaussian": { 
		 "optdone": 1, 
		 "sigma_profile": "yes", 
		 "theory": "DFT", 
		 "functional": "B3LYP", 
		 "basiset": "6-31G**", 
		 "properties": { 
			 "R2extent": 10925.5477, 
			 "electric_dipole_moment_norm": 2.40928183698, 
			 "electric_quadrupole_moment_norm": 30.3253836742, 
			 "total_energy": -1083.33666367, 
			 "HOMO_LUMO_gap": 0.21779, 
			 "cosmo_polarized_energy": -13.45, 
			 "cosmo_cavitation_energy": 50.95, 
			 "cosmo_dispersion_energy": -34.49, 
			 "cosmo_repulsion_energy": 2.59, 
			 "cosmo_total_nonelectrostatic_energy": 19.05, 
			 "SMD_solvation_energy": 9.04 
		},
		"coords": [
			{
				"x": 1.8977838115,
				"y": 5.6799118433,
				"z": -2.3034287173,
				"element": "C" 
			},
			{
				"x": 1.332438384,
				"y": 5.0170257933,
				"z": -1.0478219534,
				"element": "C" 
			},
			{
				"x": 1.9108871671,
				"y": 3.6537520423,
				"z": -0.6407207094,
				"element": "C" 
			},
			{
				"x": 0.810646241,
				"y": 2.9979649525,
				"z": 0.2318529608,
				"element": "C" 
			},
			{
				"x": 1.017986871,
				"y": 1.4854012001,
				"z": 0.4762401767,
				"element": "C" 
			},
			{
				"x": 0.2719820258,
				"y": 1.0013096003,
				"z": 1.7349815715,
				"element": "C" 
			},
			{
				"x": 0.2647931382,
				"y": -0.4937440598,
				"z": 1.8716517004,
				"element": "C" 
			},
			{
				"x": 0.5920776132,
				"y": -1.3517634812,
				"z": 0.8982535956,
				"element": "C" 
			},
			{
				"x": 0.6355020449,
				"y": -2.8436135232,
				"z": 1.1730368294,
				"element": "C" 
			},
			{
				"x": -0.0439936443,
				"y": -3.6964690782,
				"z": 0.1006825775,
				"element": "C" 
			},
			{
				"x": 0.429208681,
				"y": -3.3060557954,
				"z": -1.3010597946,
				"element": "C" 
			},
			{
				"x": 0.254717304,
				"y": -1.8008731729,
				"z": -1.5442805308,
				"element": "C" 
			},
			{
				"x": 0.9891198192,
				"y": -0.8984424431,
				"z": -0.5095846279,
				"element": "C" 
			},
			{
				"x": 2.5212981662,
				"y": -1.0804773599,
				"z": -0.6922518492,
				"element": "C" 
			},
			{
				"x": 0.6543743678,
				"y": 0.6174759765,
				"z": -0.7558642687,
				"element": "C" 
			},
			{
				"x": -0.7817215413,
				"y": 0.9546382613,
				"z": -1.2088781767,
				"element": "C" 
			},
			{
				"x": -0.8838145079,
				"y": 2.4357585984,
				"z": -1.605596403,
				"element": "C" 
			},
			{
				"x": -0.527313875,
				"y": 3.4159762998,
				"z": -0.450477622,
				"element": "C" 
			},
			{
				"x": -1.7342566843,
				"y": 3.6076619723,
				"z": 0.4817728932,
				"element": "C" 
			},
			{
				"x": -0.1780379617,
				"y": 4.7640273563,
				"z": -1.1157047353,
				"element": "C" 
			},
			{
				"x": -0.986728403,
				"y": 5.508941452,
				"z": -1.6303813362,
				"element": "O" 
			},
			{
				"x": -1.4769063805,
				"y": -3.4612172163,
				"z": 0.2259930557,
				"element": "O" 
			},
			{
				"x": -2.3000874499,
				"y": -4.4485192056,
				"z": -0.1974006664,
				"element": "C" 
			},
			{
				"x": -3.7467122972,
				"y": -4.0627339266,
				"z": 0.0097050275,
				"element": "C" 
			},
			{
				"x": -1.9177224538,
				"y": -5.4960838599,
				"z": -0.6736895975,
				"element": "O" 
			},
			{
				"x": 1.8470968134,
				"y": 4.999358638,
				"z": -3.1605713776,
				"element": "H" 
			},
			{
				"x": 2.9440812379,
				"y": 5.9689353081,
				"z": -2.1638969042,
				"element": "H" 
			},
			{
				"x": 1.3178128629,
				"y": 6.5731083521,
				"z": -2.5510256585,
				"element": "H" 
			},
			{
				"x": 1.45354167,
				"y": 5.7100874929,
				"z": -0.1984151164,
				"element": "H" 
			},
			{
				"x": 2.8598358782,
				"y": 3.7368390588,
				"z": -0.1011837372,
				"element": "H" 
			},
			{
				"x": 2.105466585,
				"y": 3.0524476608,
				"z": -1.5377494677,
				"element": "H" 
			},
			{
				"x": 0.8465872228,
				"y": 3.4944240494,
				"z": 1.2134368815,
				"element": "H" 
			},
			{
				"x": 2.0884185632,
				"y": 1.3466746376,
				"z": 0.6788947947,
				"element": "H" 
			},
			{
				"x": -0.7613250909,
				"y": 1.3721242544,
				"z": 1.7494057016,
				"element": "H" 
			},
			{
				"x": 0.742781176,
				"y": 1.4481976548,
				"z": 2.6219817738,
				"element": "H" 
			},
			{
				"x": -0.024638003,
				"y": -0.8911928663,
				"z": 2.8446291818,
				"element": "H" 
			},
			{
				"x": 0.1928868908,
				"y": -3.0600455894,
				"z": 2.1505608149,
				"element": "H" 
			},
			{
				"x": 1.6812797506,
				"y": -3.1807526902,
				"z": 1.2216855881,
				"element": "H" 
			},
			{
				"x": 0.1304598538,
				"y": -4.760674557,
				"z": 0.2782542494,
				"element": "H" 
			},
			{
				"x": 1.4781455373,
				"y": -3.6090941386,
				"z": -1.4033219049,
				"element": "H" 
			},
			{
				"x": -0.1322652867,
				"y": -3.8816044778,
				"z": -2.043473625,
				"element": "H" 
			},
			{
				"x": -0.8174349531,
				"y": -1.5924896736,
				"z": -1.5047205489,
				"element": "H" 
			},
			{
				"x": 0.5932460051,
				"y": -1.5421181667,
				"z": -2.55581433,
				"element": "H" 
			},
			{
				"x": 2.8109804123,
				"y": -0.8621899127,
				"z": -1.7267281699,
				"element": "H" 
			},
			{
				"x": 3.0827423119,
				"y": -0.4114342985,
				"z": -0.0345135288,
				"element": "H" 
			},
			{
				"x": 2.8498552729,
				"y": -2.0985370056,
				"z": -0.4676060816,
				"element": "H" 
			},
			{
				"x": 1.306685953,
				"y": 0.9264646228,
				"z": -1.5860398768,
				"element": "H" 
			},
			{
				"x": -1.5062129623,
				"y": 0.7080409081,
				"z": -0.4229193026,
				"element": "H" 
			},
			{
				"x": -1.0625484895,
				"y": 0.3602938152,
				"z": -2.0825528202,
				"element": "H" 
			},
			{
				"x": -0.21066314,
				"y": 2.6018297846,
				"z": -2.4580691171,
				"element": "H" 
			},
			{
				"x": -1.8885024212,
				"y": 2.678452173,
				"z": -1.9682814593,
				"element": "H" 
			},
			{
				"x": -1.4558364826,
				"y": 4.1522833151,
				"z": 1.3905898039,
				"element": "H" 
			},
			{
				"x": -2.4989072773,
				"y": 4.1905764635,
				"z": -0.0408535222,
				"element": "H" 
			},
			{
				"x": -2.1797186491,
				"y": 2.655888283,
				"z": 0.7840285669,
				"element": "H" 
			},
			{
				"x": -3.9803012501,
				"y": -3.1633021683,
				"z": -0.5680123027,
				"element": "H" 
			},
			{
				"x": -3.9272984027,
				"y": -3.8280946304,
				"z": 1.0626604366,
				"element": "H" 
			},
			{
				"x": -4.3898720243,
				"y": -4.8832485232,
				"z": -0.3068083416,
				"element": "H" 
			}
		],
		 "valence_orbital": [ 
			{
				"type": "occ",
				"energy": -0.2853,
				"method": "rhf"
			},
			{
				"type": "occ",
				"energy": -0.28474,
				"method": "rhf"
			},
			{
				"type": "occ",
				"energy": -0.26701,
				"method": "rhf"
			},
			{
				"type": "occ",
				"energy": -0.23338,
				"method": "rhf"
			},
			{
				"type": "occ",
				"energy": -0.23112,
				"method": "rhf"
			},
			{
				"type": "unocc",
				"energy": -0.01333,
				"method": "rhf"
			},
			{
				"type": "unocc",
				"energy": 0.01346,
				"method": "rhf"
			},
			{
				"type": "unocc",
				"energy": 0.02533,
				"method": "rhf"
			},
			{
				"type": "unocc",
				"energy": 0.06775,
				"method": "rhf"
			},
			{
				"type": "unocc",
				"energy": 0.07823,
				"method": "rhf"
			}
		],
		"cosmo_sigma_profile": { 
			"-0.025": 0.0,
			"-0.024": 0.0,
			"-0.023": 0.0,
			"-0.022": 0.0,
			"-0.021": 0.0,
			"-0.02": 0.0,
			"-0.019": 0.0,
			"-0.018": 0.0,
			"-0.017": 0.0,
			"-0.016": 0.0,
			"-0.015": 0.0,
			"-0.014": 0.0,
			"-0.013": 0.0,
			"-0.012": 0.0,
			"-0.011": 0.0,
			"-0.01": 0.0,
			"-0.009": 0.0,
			"-0.008": 0.0,
			"-0.007": 0.372679615197,
			"-0.006": 5.24887038131,
			"-0.005": 14.5286729574,
			"-0.004": 27.4346913186,
			"-0.003": 47.8263643905,
			"-0.002": 67.4617053746,
			"-0.001": 66.0276101399,
			"0.0": 50.0043776714,
			"0.001": 34.9311405552,
			"0.002": 13.4341834561,
			"0.003": 8.8724027475,
			"0.004": 6.9999228565,
			"0.005": 5.8059714284,
			"0.006": 8.00412621847,
			"0.007": 4.23875855494,
			"0.008": 4.04619010454,
			"0.009": 5.09404825262,
			"0.01": 4.45324659453,
			"0.011": 5.06293304754,
			"0.012": 8.83847227085,
			"0.013": 4.13987287881,
			"0.014": 0.184316348101,
			"0.015": 0.0,
			"0.016": 0.0,
			"0.017": 0.0,
			"0.018": 0.0,
			"0.019": 0.0,
			"0.02": 0.0,
			"0.021": 0.0,
			"0.022": 0.0,
			"0.023": 0.0,
			"0.024": 0.0,
			"0.025": 0.0
		}
	}
}
