{
	 "smiles": "CCC(=C(/CC)C1=CC=C(OC)C=C1)C1=CC=C(OC)C=C1", 
	 "Tm": 397.15, 
	 "num_atms": 46, 
	 "gaussian": { 
		 "optdone": 1, 
		 "sigma_profile": "yes", 
		 "theory": "DFT", 
		 "functional": "B3LYP", 
		 "basiset": "6-31G**", 
		 "properties": { 
			 "R2extent": 8704.5985, 
			 "electric_dipole_moment_norm": 1.45292417214, 
			 "electric_quadrupole_moment_norm": 11.3107802613, 
			 "total_energy": -927.017401489, 
			 "HOMO_LUMO_gap": 0.17991, 
			 "cosmo_polarized_energy": -9.75, 
			 "cosmo_cavitation_energy": 47.82, 
			 "cosmo_dispersion_energy": -31.5, 
			 "cosmo_repulsion_energy": 2.49, 
			 "cosmo_total_nonelectrostatic_energy": 18.81, 
			 "SMD_solvation_energy": 9.56 
		},
		"coords": [
			{
				"x": 0.0567335834,
				"y": 4.8101572986,
				"z": -1.0804632732,
				"element": "C" 
			},
			{
				"x": 0.0343691583,
				"y": 3.4195425723,
				"z": -1.7405458658,
				"element": "C" 
			},
			{
				"x": -0.1825326661,
				"y": 2.2932894395,
				"z": -0.7386064304,
				"element": "C" 
			},
			{
				"x": -1.3896529835,
				"y": 1.7056374232,
				"z": -0.5464004663,
				"element": "C" 
			},
			{
				"x": -2.6465049381,
				"y": 2.1461964611,
				"z": -1.285058212,
				"element": "C" 
			},
			{
				"x": -2.9852582464,
				"y": 1.238341886,
				"z": -2.481332356,
				"element": "C" 
			},
			{
				"x": -1.5828788115,
				"y": 0.5222723213,
				"z": 0.347966979,
				"element": "C" 
			},
			{
				"x": -2.5642395271,
				"y": 0.5200658703,
				"z": 1.3583066324,
				"element": "C" 
			},
			{
				"x": -2.7697203676,
				"y": -0.5864865672,
				"z": 2.1720095753,
				"element": "C" 
			},
			{
				"x": -2.0034251117,
				"y": -1.7466010899,
				"z": 1.9903711202,
				"element": "C" 
			},
			{
				"x": -2.282938121,
				"y": -2.7835580677,
				"z": 2.8356962867,
				"element": "O" 
			},
			{
				"x": -1.5366573261,
				"y": -3.9804737745,
				"z": 2.6943231191,
				"element": "C" 
			},
			{
				"x": -1.0312005771,
				"y": -1.7754095705,
				"z": 0.9845293763,
				"element": "C" 
			},
			{
				"x": -0.8337406965,
				"y": -0.6501984712,
				"z": 0.1811842098,
				"element": "C" 
			},
			{
				"x": 1.0275925011,
				"y": 1.9443959642,
				"z": 0.0685167186,
				"element": "C" 
			},
			{
				"x": 1.015278316,
				"y": 2.0057725858,
				"z": 1.4684530277,
				"element": "C" 
			},
			{
				"x": 2.1491856612,
				"y": 1.7199067103,
				"z": 2.2319918054,
				"element": "C" 
			},
			{
				"x": 3.3414778802,
				"y": 1.3604024945,
				"z": 1.5940459995,
				"element": "C" 
			},
			{
				"x": 4.5097601314,
				"y": 1.0582946023,
				"z": 2.23575621,
				"element": "O" 
			},
			{
				"x": 4.5261742562,
				"y": 1.1082446115,
				"z": 3.6523667243,
				"element": "C" 
			},
			{
				"x": 3.3795882144,
				"y": 1.2982225206,
				"z": 0.1937836683,
				"element": "C" 
			},
			{
				"x": 2.2438529797,
				"y": 1.5933923566,
				"z": -0.5490232368,
				"element": "C" 
			},
			{
				"x": 0.2742193753,
				"y": 5.5917898582,
				"z": -1.816281257,
				"element": "H" 
			},
			{
				"x": 0.82107762,
				"y": 4.8582252448,
				"z": -0.2986222499,
				"element": "H" 
			},
			{
				"x": -0.9084158524,
				"y": 5.0392507971,
				"z": -0.6163467147,
				"element": "H" 
			},
			{
				"x": 0.9951306697,
				"y": 3.2613595359,
				"z": -2.245056219,
				"element": "H" 
			},
			{
				"x": -0.7241264946,
				"y": 3.3977002507,
				"z": -2.5276038209,
				"element": "H" 
			},
			{
				"x": -3.4909897735,
				"y": 2.1253437741,
				"z": -0.585805589,
				"element": "H" 
			},
			{
				"x": -2.5622183611,
				"y": 3.1829148788,
				"z": -1.6218166244,
				"element": "H" 
			},
			{
				"x": -3.0890080609,
				"y": 0.196438574,
				"z": -2.1627608837,
				"element": "H" 
			},
			{
				"x": -2.1952897035,
				"y": 1.2772531409,
				"z": -3.2388476392,
				"element": "H" 
			},
			{
				"x": -3.9248951255,
				"y": 1.5439709292,
				"z": -2.9539355733,
				"element": "H" 
			},
			{
				"x": -3.1664886595,
				"y": 1.4093297767,
				"z": 1.5242367476,
				"element": "H" 
			},
			{
				"x": -3.5189003609,
				"y": -0.5776471559,
				"z": 2.9572877568,
				"element": "H" 
			},
			{
				"x": -0.4640415172,
				"y": -3.8126243088,
				"z": 2.8579380295,
				"element": "H" 
			},
			{
				"x": -1.6788514151,
				"y": -4.4339713306,
				"z": 1.7045624269,
				"element": "H" 
			},
			{
				"x": -1.9127347403,
				"y": -4.663566004,
				"z": 3.4578352554,
				"element": "H" 
			},
			{
				"x": -0.4287448704,
				"y": -2.6599498316,
				"z": 0.8138064828,
				"element": "H" 
			},
			{
				"x": -0.0761458702,
				"y": -0.6855131393,
				"z": -0.5951004764,
				"element": "H" 
			},
			{
				"x": 0.0967332081,
				"y": 2.2828277166,
				"z": 1.9757366546,
				"element": "H" 
			},
			{
				"x": 2.0900958408,
				"y": 1.7850038428,
				"z": 3.3121676725,
				"element": "H" 
			},
			{
				"x": 5.5386732554,
				"y": 0.8336808635,
				"z": 3.9531340547,
				"element": "H" 
			},
			{
				"x": 4.3005853686,
				"y": 2.1155510993,
				"z": 4.0264607036,
				"element": "H" 
			},
			{
				"x": 3.8144589062,
				"y": 0.3975850074,
				"z": 4.0926946428,
				"element": "H" 
			},
			{
				"x": 4.3105735536,
				"y": 1.0160526789,
				"z": -0.2875218762,
				"element": "H" 
			},
			{
				"x": 2.2978396981,
				"y": 1.5309862239,
				"z": -1.6326331153,
				"element": "H" 
			}
		],
		 "valence_orbital": [ 
			{
				"type": "occ",
				"energy": -0.24659,
				"method": "rhf"
			},
			{
				"type": "occ",
				"energy": -0.24457,
				"method": "rhf"
			},
			{
				"type": "occ",
				"energy": -0.23842,
				"method": "rhf"
			},
			{
				"type": "occ",
				"energy": -0.21769,
				"method": "rhf"
			},
			{
				"type": "occ",
				"energy": -0.18906,
				"method": "rhf"
			},
			{
				"type": "unocc",
				"energy": -0.00915,
				"method": "rhf"
			},
			{
				"type": "unocc",
				"energy": 0.00342,
				"method": "rhf"
			},
			{
				"type": "unocc",
				"energy": 0.00522,
				"method": "rhf"
			},
			{
				"type": "unocc",
				"energy": 0.0241,
				"method": "rhf"
			},
			{
				"type": "unocc",
				"energy": 0.05504,
				"method": "rhf"
			}
		],
		"cosmo_sigma_profile": { 
			"-0.025": 0.0,
			"-0.024": 0.0,
			"-0.023": 0.0,
			"-0.022": 0.0,
			"-0.021": 0.0,
			"-0.02": 0.0,
			"-0.019": 0.0,
			"-0.018": 0.0,
			"-0.017": 0.0,
			"-0.016": 0.0,
			"-0.015": 0.0,
			"-0.014": 0.0,
			"-0.013": 0.0,
			"-0.012": 0.0,
			"-0.011": 0.0,
			"-0.01": 0.0,
			"-0.009": 0.0,
			"-0.008": 0.0,
			"-0.007": 0.081857082618,
			"-0.006": 9.4045209472,
			"-0.005": 29.0561336447,
			"-0.004": 31.2205881546,
			"-0.003": 40.8445300264,
			"-0.002": 37.9440374043,
			"-0.001": 34.0900296077,
			"0.0": 37.1394157229,
			"0.001": 38.2262744338,
			"0.002": 28.8224526349,
			"0.003": 19.6529780165,
			"0.004": 20.3316995591,
			"0.005": 18.8322837808,
			"0.006": 15.0961106594,
			"0.007": 5.91508401977,
			"0.008": 2.81697219474,
			"0.009": 2.2699483052,
			"0.01": 3.52774023792,
			"0.011": 1.40333747348,
			"0.012": 0.0,
			"0.013": 0.0,
			"0.014": 0.0,
			"0.015": 0.0,
			"0.016": 0.0,
			"0.017": 0.0,
			"0.018": 0.0,
			"0.019": 0.0,
			"0.02": 0.0,
			"0.021": 0.0,
			"0.022": 0.0,
			"0.023": 0.0,
			"0.024": 0.0,
			"0.025": 0.0
		}
	}
}
