{
	 "smiles": "CC(C)C1(C)N=C(NC1=O)C1=C(C=C(C)C=N1)C(O)=O", 
	 "Tm": 478.15, 
	 "num_atms": 37, 
	 "gaussian": { 
		 "optdone": 1, 
		 "sigma_profile": "yes", 
		 "theory": "DFT", 
		 "functional": "B3LYP", 
		 "basiset": "6-31G**", 
		 "properties": { 
			 "R2extent": 7214.6197, 
			 "electric_dipole_moment_norm": 4.08386286498, 
			 "electric_quadrupole_moment_norm": 39.1488679643, 
			 "total_energy": -933.717457197, 
			 "HOMO_LUMO_gap": 0.17324, 
			 "cosmo_polarized_energy": -16.88, 
			 "cosmo_cavitation_energy": 39.15, 
			 "cosmo_dispersion_energy": -27.64, 
			 "cosmo_repulsion_energy": 2.09, 
			 "cosmo_total_nonelectrostatic_energy": 13.6, 
			 "SMD_solvation_energy": 7.04 
		},
		"coords": [
			{
				"x": -2.6118426848,
				"y": 0.4302291654,
				"z": 2.3677707694,
				"element": "C" 
			},
			{
				"x": -1.8051107425,
				"y": -0.1940690948,
				"z": 1.21843546,
				"element": "C" 
			},
			{
				"x": -1.753948206,
				"y": -1.7242015885,
				"z": 1.3523551209,
				"element": "C" 
			},
			{
				"x": -0.3759650045,
				"y": 0.4374538503,
				"z": 1.0719963772,
				"element": "C" 
			},
			{
				"x": 0.4818248205,
				"y": 0.3388242578,
				"z": 2.3438011035,
				"element": "C" 
			},
			{
				"x": 0.3222788569,
				"y": -0.2025107114,
				"z": -0.0603963757,
				"element": "N" 
			},
			{
				"x": 0.532109733,
				"y": 0.6851773759,
				"z": -0.9721885705,
				"element": "C" 
			},
			{
				"x": 0.0771240437,
				"y": 1.9455731106,
				"z": -0.6380757313,
				"element": "N" 
			},
			{
				"x": -0.482223565,
				"y": 1.9189592007,
				"z": 0.6338480291,
				"element": "C" 
			},
			{
				"x": -0.9330001241,
				"y": 2.8712615887,
				"z": 1.2362723653,
				"element": "O" 
			},
			{
				"x": 1.1953763011,
				"y": 0.4854285227,
				"z": -2.2829356791,
				"element": "C" 
			},
			{
				"x": 1.6667864958,
				"y": -0.7399887805,
				"z": -2.8185639095,
				"element": "C" 
			},
			{
				"x": 2.2628193975,
				"y": -0.6669665694,
				"z": -4.0848130545,
				"element": "C" 
			},
			{
				"x": 2.391610973,
				"y": 0.5337245558,
				"z": -4.7810770108,
				"element": "C" 
			},
			{
				"x": 3.0406604252,
				"y": 0.6022726617,
				"z": -6.1382766801,
				"element": "C" 
			},
			{
				"x": 1.8806669514,
				"y": 1.6730219544,
				"z": -4.1493248189,
				"element": "C" 
			},
			{
				"x": 1.3045257678,
				"y": 1.6506153432,
				"z": -2.9514131461,
				"element": "N" 
			},
			{
				"x": 1.6251826328,
				"y": -2.1737595758,
				"z": -2.256119332,
				"element": "C" 
			},
			{
				"x": 1.1943430765,
				"y": -2.39937663,
				"z": -1.0304047683,
				"element": "O" 
			},
			{
				"x": 2.0137508009,
				"y": -3.0804828663,
				"z": -2.9699305442,
				"element": "O" 
			},
			{
				"x": -2.2069276001,
				"y": 0.1355750783,
				"z": 3.3419040731,
				"element": "H" 
			},
			{
				"x": -2.6203623507,
				"y": 1.5208847567,
				"z": 2.3172977787,
				"element": "H" 
			},
			{
				"x": -3.6457039858,
				"y": 0.0727509375,
				"z": 2.3238841413,
				"element": "H" 
			},
			{
				"x": -2.3239293059,
				"y": 0.0361438407,
				"z": 0.2770088396,
				"element": "H" 
			},
			{
				"x": -2.7737185178,
				"y": -2.1220438348,
				"z": 1.3746242174,
				"element": "H" 
			},
			{
				"x": -1.2260559881,
				"y": -2.1955849897,
				"z": 0.5204206343,
				"element": "H" 
			},
			{
				"x": -1.2670757637,
				"y": -2.0317490551,
				"z": 2.2840127226,
				"element": "H" 
			},
			{
				"x": 1.4893083675,
				"y": 0.7191154291,
				"z": 2.1528487509,
				"element": "H" 
			},
			{
				"x": 0.5687039619,
				"y": -0.6984373559,
				"z": 2.6748997931,
				"element": "H" 
			},
			{
				"x": 0.0365825896,
				"y": 0.9372489189,
				"z": 3.1416222119,
				"element": "H" 
			},
			{
				"x": 0.199458539,
				"y": 2.7492313478,
				"z": -1.2390077343,
				"element": "H" 
			},
			{
				"x": 2.6187341885,
				"y": -1.6013515986,
				"z": -4.5063837071,
				"element": "H" 
			},
			{
				"x": 2.5375493718,
				"y": -0.0616189233,
				"z": -6.8492317647,
				"element": "H" 
			},
			{
				"x": 3.0125451618,
				"y": 1.6172438,
				"z": -6.5434497146,
				"element": "H" 
			},
			{
				"x": 4.0886395383,
				"y": 0.2869467085,
				"z": -6.0888513733,
				"element": "H" 
			},
			{
				"x": 1.9388414956,
				"y": 2.6457870819,
				"z": -4.6354287028,
				"element": "H" 
			},
			{
				"x": 0.8617403489,
				"y": -1.5705279125,
				"z": -0.5389297703,
				"element": "H" 
			}
		],
		 "valence_orbital": [ 
			{
				"type": "occ",
				"energy": -0.28945,
				"method": "rhf"
			},
			{
				"type": "occ",
				"energy": -0.28707,
				"method": "rhf"
			},
			{
				"type": "occ",
				"energy": -0.26473,
				"method": "rhf"
			},
			{
				"type": "occ",
				"energy": -0.26384,
				"method": "rhf"
			},
			{
				"type": "occ",
				"energy": -0.25707,
				"method": "rhf"
			},
			{
				"type": "unocc",
				"energy": -0.08383,
				"method": "rhf"
			},
			{
				"type": "unocc",
				"energy": -0.05928,
				"method": "rhf"
			},
			{
				"type": "unocc",
				"energy": -0.00817,
				"method": "rhf"
			},
			{
				"type": "unocc",
				"energy": 0.04099,
				"method": "rhf"
			},
			{
				"type": "unocc",
				"energy": 0.04741,
				"method": "rhf"
			}
		],
		"cosmo_sigma_profile": { 
			"-0.025": 0.0,
			"-0.024": 0.0,
			"-0.023": 0.0,
			"-0.022": 0.0,
			"-0.021": 0.0,
			"-0.02": 0.0,
			"-0.019": 0.0,
			"-0.018": 0.0,
			"-0.017": 0.0,
			"-0.016": 0.00145678921358,
			"-0.015": 0.266623546074,
			"-0.014": 0.675427422582,
			"-0.013": 0.650356563372,
			"-0.012": 0.700579778191,
			"-0.011": 0.545049042223,
			"-0.01": 0.792896930636,
			"-0.009": 0.434388663443,
			"-0.008": 1.32106872516,
			"-0.007": 3.8023966292,
			"-0.006": 8.76944272125,
			"-0.005": 18.4000964563,
			"-0.004": 26.69604954,
			"-0.003": 34.2039855141,
			"-0.002": 38.2675804333,
			"-0.001": 42.8836922039,
			"0.0": 36.4522718601,
			"0.001": 24.215713772,
			"0.002": 9.81912186794,
			"0.003": 5.63672183303,
			"0.004": 4.92181775046,
			"0.005": 7.1434963132,
			"0.006": 4.76221577558,
			"0.007": 2.67250564442,
			"0.008": 3.74797564071,
			"0.009": 4.40505025597,
			"0.01": 4.32656725417,
			"0.011": 6.94471796628,
			"0.012": 10.0174447468,
			"0.013": 4.64491751906,
			"0.014": 1.65666482098,
			"0.015": 0.109651620283,
			"0.016": 0.0,
			"0.017": 0.0,
			"0.018": 0.0,
			"0.019": 0.0,
			"0.02": 0.0,
			"0.021": 0.0,
			"0.022": 0.0,
			"0.023": 0.0,
			"0.024": 0.0,
			"0.025": 0.0
		}
	}
}
