{
	 "smiles": "CC(Cl)C(=O)NC(N)=O", 
	 "Tm": 433.15, 
	 "num_atms": 16, 
	 "gaussian": { 
		 "optdone": 1, 
		 "sigma_profile": "yes", 
		 "theory": "DFT", 
		 "functional": "B3LYP", 
		 "basiset": "6-31G**", 
		 "properties": { 
			 "R2extent": 2573.5823, 
			 "electric_dipole_moment_norm": 2.76549797866, 
			 "electric_quadrupole_moment_norm": 8.69627733861, 
			 "total_energy": -876.840074425, 
			 "HOMO_LUMO_gap": 0.24596, 
			 "cosmo_polarized_energy": -12.37, 
			 "cosmo_cavitation_energy": 21.8, 
			 "cosmo_dispersion_energy": -16.35, 
			 "cosmo_repulsion_energy": 1.38, 
			 "cosmo_total_nonelectrostatic_energy": 6.82, 
			 "SMD_solvation_energy": 5.05 
		},
		"coords": [
			{
				"x": 0.1072765758,
				"y": -2.5113669637,
				"z": 3.2028133937,
				"element": "C" 
			},
			{
				"x": -0.6919829881,
				"y": -2.6188965309,
				"z": 1.905712512,
				"element": "C" 
			},
			{
				"x": -0.2216753827,
				"y": -4.1357887225,
				"z": 0.9987223652,
				"element": "Cl" 
			},
			{
				"x": -0.565893566,
				"y": -1.3279089176,
				"z": 1.0803027615,
				"element": "C" 
			},
			{
				"x": -1.0115008294,
				"y": -0.300952489,
				"z": 1.5878541116,
				"element": "O" 
			},
			{
				"x": 0.0439070105,
				"y": -1.3949118606,
				"z": -0.1355393257,
				"element": "N" 
			},
			{
				"x": 0.2962629787,
				"y": -0.3429620523,
				"z": -1.072827269,
				"element": "C" 
			},
			{
				"x": -0.1233166809,
				"y": 0.8808468482,
				"z": -0.6824786809,
				"element": "N" 
			},
			{
				"x": 0.8553296302,
				"y": -0.6166316469,
				"z": -2.1202041277,
				"element": "O" 
			},
			{
				"x": 1.1787909396,
				"y": -2.443872699,
				"z": 2.9967174929,
				"element": "H" 
			},
			{
				"x": -0.0746897141,
				"y": -3.3824029689,
				"z": 3.8353009736,
				"element": "H" 
			},
			{
				"x": -0.2101377691,
				"y": -1.6091901954,
				"z": 3.7318682916,
				"element": "H" 
			},
			{
				"x": -1.7552989853,
				"y": -2.7384603107,
				"z": 2.1208152444,
				"element": "H" 
			},
			{
				"x": 0.361163277,
				"y": -2.2965362057,
				"z": -0.4705466693,
				"element": "H" 
			},
			{
				"x": -0.5879779953,
				"y": 0.9990879514,
				"z": 0.2106176382,
				"element": "H" 
			},
			{
				"x": 0.0327434991,
				"y": 1.6431467636,
				"z": -1.3211287123,
				"element": "H" 
			}
		],
		 "valence_orbital": [ 
			{
				"type": "occ",
				"energy": -0.31986,
				"method": "rhf"
			},
			{
				"type": "occ",
				"energy": -0.29758,
				"method": "rhf"
			},
			{
				"type": "occ",
				"energy": -0.29008,
				"method": "rhf"
			},
			{
				"type": "occ",
				"energy": -0.27401,
				"method": "rhf"
			},
			{
				"type": "occ",
				"energy": -0.27362,
				"method": "rhf"
			},
			{
				"type": "unocc",
				"energy": -0.02766,
				"method": "rhf"
			},
			{
				"type": "unocc",
				"energy": 0.00177,
				"method": "rhf"
			},
			{
				"type": "unocc",
				"energy": 0.0687,
				"method": "rhf"
			},
			{
				"type": "unocc",
				"energy": 0.08825,
				"method": "rhf"
			},
			{
				"type": "unocc",
				"energy": 0.10017,
				"method": "rhf"
			}
		],
		"cosmo_sigma_profile": { 
			"-0.025": 0.0,
			"-0.024": 0.0,
			"-0.023": 0.0,
			"-0.022": 0.0,
			"-0.021": 0.0,
			"-0.02": 0.0,
			"-0.019": 0.0,
			"-0.018": 0.0,
			"-0.017": 0.0,
			"-0.016": 0.0,
			"-0.015": 0.404205903629,
			"-0.014": 1.21948573195,
			"-0.013": 1.25108962142,
			"-0.012": 0.84558669459,
			"-0.011": 1.67831587074,
			"-0.01": 2.52547187808,
			"-0.009": 4.86123283253,
			"-0.008": 4.20533670734,
			"-0.007": 5.46213492266,
			"-0.006": 8.4761185185,
			"-0.005": 10.4463980959,
			"-0.004": 9.60791634207,
			"-0.003": 13.8484557063,
			"-0.002": 13.72702765,
			"-0.001": 13.3643339959,
			"0.0": 10.6537380115,
			"0.001": 8.94905099188,
			"0.002": 9.29310625961,
			"0.003": 7.76037892404,
			"0.004": 7.62765040004,
			"0.005": 8.92246243366,
			"0.006": 3.19319281198,
			"0.007": 2.597608155,
			"0.008": 2.45420984363,
			"0.009": 2.66314757953,
			"0.01": 3.15489474226,
			"0.011": 3.80630082706,
			"0.012": 3.06221525044,
			"0.013": 6.8005443273,
			"0.014": 1.65637655358,
			"0.015": 0.0,
			"0.016": 0.0,
			"0.017": 0.0,
			"0.018": 0.0,
			"0.019": 0.0,
			"0.02": 0.0,
			"0.021": 0.0,
			"0.022": 0.0,
			"0.023": 0.0,
			"0.024": 0.0,
			"0.025": 0.0
		}
	}
}
