{
	 "smiles": "CC1=CC(=C2C(N)=C(SC2=N1)C#N)C(F)(F)F", 
	 "Tm": 456.15, 
	 "num_atms": 23, 
	 "gaussian": { 
		 "optdone": 1, 
		 "sigma_profile": "yes", 
		 "theory": "DFT", 
		 "functional": "B3LYP", 
		 "basiset": "6-31G**", 
		 "properties": { 
			 "R2extent": 4306.981, 
			 "electric_dipole_moment_norm": 5.32512831207, 
			 "electric_quadrupole_moment_norm": 13.257301859, 
			 "total_energy": -1246.63852207, 
			 "HOMO_LUMO_gap": 0.13877, 
			 "cosmo_polarized_energy": -12.29, 
			 "cosmo_cavitation_energy": 30.92, 
			 "cosmo_dispersion_energy": -22.45, 
			 "cosmo_repulsion_energy": 1.62, 
			 "cosmo_total_nonelectrostatic_energy": 10.09, 
			 "SMD_solvation_energy": 5.5 
		},
		"coords": [
			{
				"x": -2.349105664,
				"y": 2.3473792764,
				"z": 2.9460985647,
				"element": "C" 
			},
			{
				"x": -1.6049544186,
				"y": 1.512167929,
				"z": 1.9380199091,
				"element": "C" 
			},
			{
				"x": -1.4314406326,
				"y": 1.9644288456,
				"z": 0.6109457636,
				"element": "C" 
			},
			{
				"x": -0.7437040994,
				"y": 1.1967354234,
				"z": -0.3147226091,
				"element": "C" 
			},
			{
				"x": -0.2125457178,
				"y": -0.0519504511,
				"z": 0.0946688247,
				"element": "C" 
			},
			{
				"x": 0.5444126438,
				"y": -1.0852877898,
				"z": -0.5883368513,
				"element": "C" 
			},
			{
				"x": 0.8935048352,
				"y": -1.0752395621,
				"z": -1.9162879705,
				"element": "N" 
			},
			{
				"x": 0.8239493038,
				"y": -2.1468497264,
				"z": 0.2613560183,
				"element": "C" 
			},
			{
				"x": 0.1841748423,
				"y": -1.9585102495,
				"z": 1.8946504876,
				"element": "S" 
			},
			{
				"x": -0.4627815125,
				"y": -0.3956938626,
				"z": 1.4498394749,
				"element": "C" 
			},
			{
				"x": -1.1245876238,
				"y": 0.336378709,
				"z": 2.3445481597,
				"element": "N" 
			},
			{
				"x": 1.5640820253,
				"y": -3.2838553537,
				"z": -0.1198116058,
				"element": "C" 
			},
			{
				"x": 2.1880122495,
				"y": -4.2027506493,
				"z": -0.4792579235,
				"element": "N" 
			},
			{
				"x": -0.6137653938,
				"y": 1.7157297536,
				"z": -1.7266994286,
				"element": "C" 
			},
			{
				"x": -1.2130177215,
				"y": 0.9028856796,
				"z": -2.6164595723,
				"element": "F" 
			},
			{
				"x": 0.6973260758,
				"y": 1.8081034893,
				"z": -2.0987926193,
				"element": "F" 
			},
			{
				"x": -1.1423186339,
				"y": 2.9422948327,
				"z": -1.8738469124,
				"element": "F" 
			},
			{
				"x": -1.8689897174,
				"y": 3.3232991667,
				"z": 3.0800788772,
				"element": "H" 
			},
			{
				"x": -2.3733425138,
				"y": 1.8309468692,
				"z": 3.9063513211,
				"element": "H" 
			},
			{
				"x": -3.3780511722,
				"y": 2.5349379665,
				"z": 2.6188064589,
				"element": "H" 
			},
			{
				"x": -1.84413423,
				"y": 2.9207307105,
				"z": 0.3141841731,
				"element": "H" 
			},
			{
				"x": 1.0848760834,
				"y": -0.1813860888,
				"z": -2.3419212604,
				"element": "H" 
			},
			{
				"x": 1.5176009923,
				"y": -1.8160949182,
				"z": -2.2068112797,
				"element": "H" 
			}
		],
		 "valence_orbital": [ 
			{
				"type": "occ",
				"energy": -0.33501,
				"method": "rhf"
			},
			{
				"type": "occ",
				"energy": -0.30953,
				"method": "rhf"
			},
			{
				"type": "occ",
				"energy": -0.28846,
				"method": "rhf"
			},
			{
				"type": "occ",
				"energy": -0.26346,
				"method": "rhf"
			},
			{
				"type": "occ",
				"energy": -0.2202,
				"method": "rhf"
			},
			{
				"type": "unocc",
				"energy": -0.08143,
				"method": "rhf"
			},
			{
				"type": "unocc",
				"energy": -0.04667,
				"method": "rhf"
			},
			{
				"type": "unocc",
				"energy": -0.00773,
				"method": "rhf"
			},
			{
				"type": "unocc",
				"energy": 0.00588,
				"method": "rhf"
			},
			{
				"type": "unocc",
				"energy": 0.01507,
				"method": "rhf"
			}
		],
		"cosmo_sigma_profile": { 
			"-0.025": 0.0,
			"-0.024": 0.0,
			"-0.023": 0.0,
			"-0.022": 0.0,
			"-0.021": 0.0,
			"-0.02": 0.0,
			"-0.019": 0.0,
			"-0.018": 0.0,
			"-0.017": 0.0,
			"-0.016": 0.0,
			"-0.015": 0.0,
			"-0.014": 0.421248471302,
			"-0.013": 1.09894526899,
			"-0.012": 1.69090478523,
			"-0.011": 2.20948308076,
			"-0.01": 1.4262621213,
			"-0.009": 2.22218746151,
			"-0.008": 3.20244810781,
			"-0.007": 3.43643681026,
			"-0.006": 6.64230509706,
			"-0.005": 13.8632921883,
			"-0.004": 14.8777314645,
			"-0.003": 15.2077679733,
			"-0.002": 26.1624170498,
			"-0.001": 30.3962384201,
			"0.0": 24.0755709196,
			"0.001": 24.5945320123,
			"0.002": 28.6410575036,
			"0.003": 10.1655796227,
			"0.004": 6.55484791676,
			"0.005": 5.01291284947,
			"0.006": 3.9524548555,
			"0.007": 4.42745930424,
			"0.008": 4.70538850325,
			"0.009": 4.04434669637,
			"0.01": 4.49683542674,
			"0.011": 3.5853651812,
			"0.012": 3.35042978488,
			"0.013": 1.75844334382,
			"0.014": 0.0916004124447,
			"0.015": 0.0,
			"0.016": 0.0,
			"0.017": 0.0,
			"0.018": 0.0,
			"0.019": 0.0,
			"0.02": 0.0,
			"0.021": 0.0,
			"0.022": 0.0,
			"0.023": 0.0,
			"0.024": 0.0,
			"0.025": 0.0
		}
	}
}
