{
	 "smiles": "O1C(=CN=C1C1=CC=C(C=C1)C1=CC=CC=C1)C1=CC=C(C=C1)C1=CC=CC=C1", 
	 "Tm": 512.15, 
	 "num_atms": 48, 
	 "gaussian": { 
		 "optdone": 1, 
		 "sigma_profile": "yes", 
		 "theory": "DFT", 
		 "functional": "B3LYP", 
		 "basiset": "6-31G**", 
		 "properties": { 
			 "R2extent": 25053.7723, 
			 "electric_dipole_moment_norm": 1.54273606946, 
			 "electric_quadrupole_moment_norm": 26.2551679178, 
			 "total_energy": -1170.32257998, 
			 "HOMO_LUMO_gap": 0.13811, 
			 "cosmo_polarized_energy": -11.91, 
			 "cosmo_cavitation_energy": 53.35, 
			 "cosmo_dispersion_energy": -38.5, 
			 "cosmo_repulsion_energy": 2.79, 
			 "cosmo_total_nonelectrostatic_energy": 17.64, 
			 "SMD_solvation_energy": 7.09 
		},
		"coords": [
			{
				"x": 0.3709212951,
				"y": 0.3857566822,
				"z": 0.6858110894,
				"element": "O" 
			},
			{
				"x": 1.1902247821,
				"y": 0.3952236368,
				"z": 1.7927448941,
				"element": "C" 
			},
			{
				"x": 2.4295362487,
				"y": 0.0034217274,
				"z": 1.3583988657,
				"element": "C" 
			},
			{
				"x": 2.3986237173,
				"y": -0.2494402063,
				"z": 0.0052431749,
				"element": "N" 
			},
			{
				"x": 1.1639095269,
				"y": -0.0112332554,
				"z": -0.3527405394,
				"element": "C" 
			},
			{
				"x": 0.5750477989,
				"y": -0.1202281854,
				"z": -1.6795268243,
				"element": "C" 
			},
			{
				"x": 1.376936398,
				"y": -0.5318597462,
				"z": -2.7577917622,
				"element": "C" 
			},
			{
				"x": 0.8359859116,
				"y": -0.6431663475,
				"z": -4.0316071631,
				"element": "C" 
			},
			{
				"x": -0.5182068439,
				"y": -0.3492840219,
				"z": -4.2794022433,
				"element": "C" 
			},
			{
				"x": -1.3098838072,
				"y": 0.0619952164,
				"z": -3.1925766045,
				"element": "C" 
			},
			{
				"x": -0.7775303468,
				"y": 0.1755065401,
				"z": -1.913278348,
				"element": "C" 
			},
			{
				"x": -1.0913552072,
				"y": -0.4693165639,
				"z": -5.6425317922,
				"element": "C" 
			},
			{
				"x": -0.3380050176,
				"y": -0.1183927379,
				"z": -6.7765136597,
				"element": "C" 
			},
			{
				"x": -0.8764413986,
				"y": -0.2311231031,
				"z": -8.057332464,
				"element": "C" 
			},
			{
				"x": -2.1807498903,
				"y": -0.6970871585,
				"z": -8.2338513382,
				"element": "C" 
			},
			{
				"x": -2.9414537025,
				"y": -1.0495228528,
				"z": -7.1173329976,
				"element": "C" 
			},
			{
				"x": -2.4028674318,
				"y": -0.9371776557,
				"z": -5.8365581141,
				"element": "C" 
			},
			{
				"x": 0.6233955095,
				"y": 0.7830823705,
				"z": 3.0722696711,
				"element": "C" 
			},
			{
				"x": 1.4197121032,
				"y": 0.7926629751,
				"z": 4.2326178882,
				"element": "C" 
			},
			{
				"x": 0.884299513,
				"y": 1.1632702722,
				"z": 5.4588547338,
				"element": "C" 
			},
			{
				"x": -0.4655390884,
				"y": 1.5403961136,
				"z": 5.584591331,
				"element": "C" 
			},
			{
				"x": -1.2549440033,
				"y": 1.5283858831,
				"z": 4.4218292224,
				"element": "C" 
			},
			{
				"x": -0.7264413173,
				"y": 1.1582774181,
				"z": 3.190371518,
				"element": "C" 
			},
			{
				"x": -1.033419074,
				"y": 1.9359320348,
				"z": 6.896545498,
				"element": "C" 
			},
			{
				"x": -0.2717805313,
				"y": 2.6706518857,
				"z": 7.8222222993,
				"element": "C" 
			},
			{
				"x": -0.8054703079,
				"y": 3.0422706296,
				"z": 9.0551910186,
				"element": "C" 
			},
			{
				"x": -2.1138618287,
				"y": 2.6889572532,
				"z": 9.3909718899,
				"element": "C" 
			},
			{
				"x": -2.8830704742,
				"y": 1.9598014416,
				"z": 8.4820275242,
				"element": "C" 
			},
			{
				"x": -2.3488591082,
				"y": 1.5870473675,
				"z": 7.2496497073,
				"element": "C" 
			},
			{
				"x": 3.3374576798,
				"y": -0.1107800275,
				"z": 1.9325022526,
				"element": "H" 
			},
			{
				"x": 2.419371264,
				"y": -0.7690710464,
				"z": -2.5742715447,
				"element": "H" 
			},
			{
				"x": 1.464344666,
				"y": -0.9889556308,
				"z": -4.8466839748,
				"element": "H" 
			},
			{
				"x": -2.3508736694,
				"y": 0.3216846561,
				"z": -3.3588151327,
				"element": "H" 
			},
			{
				"x": -1.4051724292,
				"y": 0.5034618611,
				"z": -1.0916225926,
				"element": "H" 
			},
			{
				"x": 0.6677575678,
				"y": 0.2710427605,
				"z": -6.6496093654,
				"element": "H" 
			},
			{
				"x": -0.2787273928,
				"y": 0.0540445339,
				"z": -8.9185172691,
				"element": "H" 
			},
			{
				"x": -2.6002243006,
				"y": -0.784902444,
				"z": -9.2318264975,
				"element": "H" 
			},
			{
				"x": -3.9541899688,
				"y": -1.4218576722,
				"z": -7.2437501181,
				"element": "H" 
			},
			{
				"x": -2.9938438198,
				"y": -1.2406547952,
				"z": -4.9774656272,
				"element": "H" 
			},
			{
				"x": 2.463018509,
				"y": 0.4970503411,
				"z": 4.1753151979,
				"element": "H" 
			},
			{
				"x": 1.5150440418,
				"y": 1.1351330118,
				"z": 6.3421416337,
				"element": "H" 
			},
			{
				"x": -2.2935890048,
				"y": 1.8397522543,
				"z": 4.4791301363,
				"element": "H" 
			},
			{
				"x": -1.3559169084,
				"y": 1.1674779866,
				"z": 2.3072974213,
				"element": "H" 
			},
			{
				"x": 0.7372030088,
				"y": 2.9756819009,
				"z": 7.5607487404,
				"element": "H" 
			},
			{
				"x": -0.2009333121,
				"y": 3.61715325,
				"z": 9.7511176534,
				"element": "H" 
			},
			{
				"x": -2.5298715865,
				"y": 2.9788748489,
				"z": 10.3514331128,
				"element": "H" 
			},
			{
				"x": -3.8992231335,
				"y": 1.6717566645,
				"z": 8.7364569488,
				"element": "H" 
			},
			{
				"x": -2.9468446366,
				"y": 0.9956999331,
				"z": 6.5625225495,
				"element": "H" 
			}
		],
		 "valence_orbital": [ 
			{
				"type": "occ",
				"energy": -0.25277,
				"method": "rhf"
			},
			{
				"type": "occ",
				"energy": -0.25243,
				"method": "rhf"
			},
			{
				"type": "occ",
				"energy": -0.25112,
				"method": "rhf"
			},
			{
				"type": "occ",
				"energy": -0.23107,
				"method": "rhf"
			},
			{
				"type": "occ",
				"energy": -0.19836,
				"method": "rhf"
			},
			{
				"type": "unocc",
				"energy": -0.06025,
				"method": "rhf"
			},
			{
				"type": "unocc",
				"energy": -0.03396,
				"method": "rhf"
			},
			{
				"type": "unocc",
				"energy": -0.0091,
				"method": "rhf"
			},
			{
				"type": "unocc",
				"energy": -0.00756,
				"method": "rhf"
			},
			{
				"type": "unocc",
				"energy": -0.00302,
				"method": "rhf"
			}
		],
		"cosmo_sigma_profile": { 
			"-0.025": 0.0,
			"-0.024": 0.0,
			"-0.023": 0.0,
			"-0.022": 0.0,
			"-0.021": 0.0,
			"-0.02": 0.0,
			"-0.019": 0.0,
			"-0.018": 0.0,
			"-0.017": 0.0,
			"-0.016": 0.0,
			"-0.015": 0.0,
			"-0.014": 0.0,
			"-0.013": 0.0,
			"-0.012": 0.0,
			"-0.011": 0.0,
			"-0.01": 0.0,
			"-0.009": 0.428141255105,
			"-0.008": 3.00680913403,
			"-0.007": 3.49798018826,
			"-0.006": 22.4079756039,
			"-0.005": 38.6674984812,
			"-0.004": 37.9538050422,
			"-0.003": 31.4311582467,
			"-0.002": 26.4168634319,
			"-0.001": 26.521060932,
			"0.0": 31.9262129125,
			"0.001": 37.7505237183,
			"0.002": 40.1428473222,
			"0.003": 41.7432203219,
			"0.004": 41.451955915,
			"0.005": 26.4599378679,
			"0.006": 11.141689099,
			"0.007": 1.44092637272,
			"0.008": 1.9116690029,
			"0.009": 1.04623182372,
			"0.01": 0.765967275085,
			"0.011": 1.16427158434,
			"0.012": 0.925278556422,
			"0.013": 0.967285931769,
			"0.014": 0.96219177774,
			"0.015": 0.113977485202,
			"0.016": 0.0,
			"0.017": 0.0,
			"0.018": 0.0,
			"0.019": 0.0,
			"0.02": 0.0,
			"0.021": 0.0,
			"0.022": 0.0,
			"0.023": 0.0,
			"0.024": 0.0,
			"0.025": 0.0
		}
	}
}
