{
	 "smiles": "C1OC2=C(O1)C=C1C=NNC1=C2", 
	 "Tm": 473.15, 
	 "num_atms": 18, 
	 "gaussian": { 
		 "optdone": 1, 
		 "sigma_profile": "yes", 
		 "theory": "DFT", 
		 "functional": "B3LYP", 
		 "basiset": "6-31G**", 
		 "properties": { 
			 "R2extent": 2059.7599, 
			 "electric_dipole_moment_norm": 2.3582491641, 
			 "electric_quadrupole_moment_norm": 6.13721500275, 
			 "total_energy": -568.371914761, 
			 "HOMO_LUMO_gap": 0.18241, 
			 "cosmo_polarized_energy": -11.24, 
			 "cosmo_cavitation_energy": 22.18, 
			 "cosmo_dispersion_energy": -17.45, 
			 "cosmo_repulsion_energy": 1.37, 
			 "cosmo_total_nonelectrostatic_energy": 6.1, 
			 "SMD_solvation_energy": 3.52 
		},
		"coords": [
			{
				"x": -2.8793625959,
				"y": 0.2081061225,
				"z": -2.0239878949,
				"element": "C" 
			},
			{
				"x": -2.7423218557,
				"y": 1.1962161092,
				"z": -0.9961593429,
				"element": "O" 
			},
			{
				"x": -1.5444865439,
				"y": 0.9544316999,
				"z": -0.3764387093,
				"element": "C" 
			},
			{
				"x": -0.9192242683,
				"y": -0.1586894857,
				"z": -0.9828337117,
				"element": "C" 
			},
			{
				"x": -1.7246043175,
				"y": -0.6294682867,
				"z": -1.9962394595,
				"element": "O" 
			},
			{
				"x": 0.2971368349,
				"y": -0.6455182513,
				"z": -0.5808245523,
				"element": "C" 
			},
			{
				"x": 0.9031237902,
				"y": 0.0467244725,
				"z": 0.5002827185,
				"element": "C" 
			},
			{
				"x": 2.1184233354,
				"y": -0.0865011723,
				"z": 1.2348263599,
				"element": "C" 
			},
			{
				"x": 2.2294861507,
				"y": 0.832954557,
				"z": 2.1798163498,
				"element": "N" 
			},
			{
				"x": 1.0998749508,
				"y": 1.58399843,
				"z": 2.0880425235,
				"element": "N" 
			},
			{
				"x": 0.258746964,
				"y": 1.1630588821,
				"z": 1.0961576361,
				"element": "C" 
			},
			{
				"x": -0.9973093476,
				"y": 1.6551484152,
				"z": 0.6709825896,
				"element": "C" 
			},
			{
				"x": -3.7766804071,
				"y": -0.3933039316,
				"z": -1.8313200382,
				"element": "H" 
			},
			{
				"x": -2.9508472971,
				"y": 0.7066123931,
				"z": -2.998861941,
				"element": "H" 
			},
			{
				"x": 0.7589983098,
				"y": -1.5009567827,
				"z": -1.0600227631,
				"element": "H" 
			},
			{
				"x": 2.9050979519,
				"y": -0.8175049902,
				"z": 1.1027820086,
				"element": "H" 
			},
			{
				"x": 0.9747283897,
				"y": 2.3538032054,
				"z": 2.724902198,
				"element": "H" 
			},
			{
				"x": -1.4942800442,
				"y": 2.5061886136,
				"z": 1.121196029,
				"element": "H" 
			}
		],
		 "valence_orbital": [ 
			{
				"type": "occ",
				"energy": -0.29832,
				"method": "rhf"
			},
			{
				"type": "occ",
				"energy": -0.28679,
				"method": "rhf"
			},
			{
				"type": "occ",
				"energy": -0.28632,
				"method": "rhf"
			},
			{
				"type": "occ",
				"energy": -0.21754,
				"method": "rhf"
			},
			{
				"type": "occ",
				"energy": -0.20462,
				"method": "rhf"
			},
			{
				"type": "unocc",
				"energy": -0.02221,
				"method": "rhf"
			},
			{
				"type": "unocc",
				"energy": 0.02929,
				"method": "rhf"
			},
			{
				"type": "unocc",
				"energy": 0.06372,
				"method": "rhf"
			},
			{
				"type": "unocc",
				"energy": 0.0862,
				"method": "rhf"
			},
			{
				"type": "unocc",
				"energy": 0.09797,
				"method": "rhf"
			}
		],
		"cosmo_sigma_profile": { 
			"-0.025": 0.0,
			"-0.024": 0.0,
			"-0.023": 0.0,
			"-0.022": 0.0,
			"-0.021": 0.0,
			"-0.02": 0.0,
			"-0.019": 0.0,
			"-0.018": 0.0,
			"-0.017": 0.00287687846475,
			"-0.016": 1.29443032262,
			"-0.015": 1.30797953346,
			"-0.014": 1.5169609968,
			"-0.013": 0.926561283135,
			"-0.012": 1.32131924743,
			"-0.011": 1.15427736371,
			"-0.01": 0.530342029655,
			"-0.009": 1.42336904505,
			"-0.008": 5.14517817492,
			"-0.007": 13.6221768882,
			"-0.006": 11.0781619827,
			"-0.005": 10.1824769386,
			"-0.004": 7.18183589697,
			"-0.003": 7.57761606746,
			"-0.002": 5.65376322434,
			"-0.001": 8.32637779401,
			"0.0": 8.98360426608,
			"0.001": 7.75481460895,
			"0.002": 12.9680308103,
			"0.003": 20.9520918337,
			"0.004": 15.617832468,
			"0.005": 6.73110009014,
			"0.006": 4.28887579213,
			"0.007": 4.89694031877,
			"0.008": 4.0417223143,
			"0.009": 4.80898051845,
			"0.01": 2.59022891752,
			"0.011": 1.53706073475,
			"0.012": 1.21139355326,
			"0.013": 1.10334828189,
			"0.014": 1.12906168424,
			"0.015": 1.17352193096,
			"0.016": 0.561499987324,
			"0.017": 0.0214584567946,
			"0.018": 0.0,
			"0.019": 0.0,
			"0.02": 0.0,
			"0.021": 0.0,
			"0.022": 0.0,
			"0.023": 0.0,
			"0.024": 0.0,
			"0.025": 0.0
		}
	}
}
