{
	 "smiles": "OC(=O)CCC1=C(Cl)C=C(Cl)C=C1", 
	 "Tm": 364.15, 
	 "num_atms": 21, 
	 "gaussian": { 
		 "optdone": 1, 
		 "sigma_profile": "yes", 
		 "theory": "DFT", 
		 "functional": "B3LYP", 
		 "basiset": "6-31G**", 
		 "properties": { 
			 "R2extent": 3874.8425, 
			 "electric_dipole_moment_norm": 3.05766945238, 
			 "electric_quadrupole_moment_norm": 13.2884614282, 
			 "total_energy": -1418.62765834, 
			 "HOMO_LUMO_gap": 0.22392, 
			 "cosmo_polarized_energy": -14.07, 
			 "cosmo_cavitation_energy": 28.76, 
			 "cosmo_dispersion_energy": -20.92, 
			 "cosmo_repulsion_energy": 1.68, 
			 "cosmo_total_nonelectrostatic_energy": 9.53, 
			 "SMD_solvation_energy": 5.25 
		},
		"coords": [
			{
				"x": 3.7187717796,
				"y": 0.0478986916,
				"z": 1.3906596031,
				"element": "O" 
			},
			{
				"x": 2.4415633543,
				"y": 0.3126765707,
				"z": 1.7681459804,
				"element": "C" 
			},
			{
				"x": 2.0501250449,
				"y": 1.4535251519,
				"z": 1.8068758498,
				"element": "O" 
			},
			{
				"x": 1.6097792022,
				"y": -0.9021754728,
				"z": 2.1671873564,
				"element": "C" 
			},
			{
				"x": 0.1056900731,
				"y": -0.5914716912,
				"z": 2.268699222,
				"element": "C" 
			},
			{
				"x": -0.5745726532,
				"y": -0.4364209073,
				"z": 0.9255594705,
				"element": "C" 
			},
			{
				"x": -1.0414326868,
				"y": -1.5292633282,
				"z": 0.1795712015,
				"element": "C" 
			},
			{
				"x": -0.8461808771,
				"y": -3.1743347163,
				"z": 0.7914475642,
				"element": "Cl" 
			},
			{
				"x": -1.6709234639,
				"y": -1.3825753405,
				"z": -1.0562391015,
				"element": "C" 
			},
			{
				"x": -1.834367841,
				"y": -0.0985025839,
				"z": -1.5699024304,
				"element": "C" 
			},
			{
				"x": -2.6257034257,
				"y": 0.1046831042,
				"z": -3.1237427923,
				"element": "Cl" 
			},
			{
				"x": -1.3796131293,
				"y": 1.0184478765,
				"z": -0.8717593295,
				"element": "C" 
			},
			{
				"x": -0.7583417524,
				"y": 0.8354037709,
				"z": 0.3613624731,
				"element": "C" 
			},
			{
				"x": 3.8796429927,
				"y": -0.9064853798,
				"z": 1.3936920545,
				"element": "H" 
			},
			{
				"x": 1.7882680112,
				"y": -1.7269822403,
				"z": 1.4667069431,
				"element": "H" 
			},
			{
				"x": 1.9849521475,
				"y": -1.2392610994,
				"z": 3.1435593221,
				"element": "H" 
			},
			{
				"x": -0.0117147073,
				"y": 0.3340698194,
				"z": 2.8377232286,
				"element": "H" 
			},
			{
				"x": -0.3757875298,
				"y": -1.3928834086,
				"z": 2.8351552861,
				"element": "H" 
			},
			{
				"x": -2.0243502102,
				"y": -2.2491636995,
				"z": -1.6009326117,
				"element": "H" 
			},
			{
				"x": -1.508739618,
				"y": 2.0119590213,
				"z": -1.2855182644,
				"element": "H" 
			},
			{
				"x": -0.3831647106,
				"y": 1.6961558612,
				"z": 0.9046489744,
				"element": "H" 
			}
		],
		 "valence_orbital": [ 
			{
				"type": "occ",
				"energy": -0.32142,
				"method": "rhf"
			},
			{
				"type": "occ",
				"energy": -0.31786,
				"method": "rhf"
			},
			{
				"type": "occ",
				"energy": -0.28197,
				"method": "rhf"
			},
			{
				"type": "occ",
				"energy": -0.26353,
				"method": "rhf"
			},
			{
				"type": "occ",
				"energy": -0.24961,
				"method": "rhf"
			},
			{
				"type": "unocc",
				"energy": -0.02569,
				"method": "rhf"
			},
			{
				"type": "unocc",
				"energy": -0.02441,
				"method": "rhf"
			},
			{
				"type": "unocc",
				"energy": -0.00049,
				"method": "rhf"
			},
			{
				"type": "unocc",
				"energy": 0.00525,
				"method": "rhf"
			},
			{
				"type": "unocc",
				"energy": 0.04704,
				"method": "rhf"
			}
		],
		"cosmo_sigma_profile": { 
			"-0.025": 0.0,
			"-0.024": 0.0,
			"-0.023": 0.0,
			"-0.022": 0.0,
			"-0.021": 0.0,
			"-0.02": 0.0134621946346,
			"-0.019": 0.736724988392,
			"-0.018": 0.921505413634,
			"-0.017": 1.35142561846,
			"-0.016": 1.21037727772,
			"-0.015": 1.10627270987,
			"-0.014": 0.75883146438,
			"-0.013": 0.869641223601,
			"-0.012": 1.49853197424,
			"-0.011": 0.989908835641,
			"-0.01": 1.33404899699,
			"-0.009": 1.652079805,
			"-0.008": 4.33510635651,
			"-0.007": 6.8238956058,
			"-0.006": 7.72941118041,
			"-0.005": 10.0148299142,
			"-0.004": 13.2205507458,
			"-0.003": 12.6982323478,
			"-0.002": 16.2214289585,
			"-0.001": 14.4109455895,
			"0.0": 16.5240332367,
			"0.001": 22.1235759039,
			"0.002": 26.3842697561,
			"0.003": 19.3743420406,
			"0.004": 18.9099455861,
			"0.005": 8.35992140961,
			"0.006": 1.6334156542,
			"0.007": 2.34302074308,
			"0.008": 3.2071761142,
			"0.009": 3.02663218392,
			"0.01": 4.58856900206,
			"0.011": 4.5161049086,
			"0.012": 3.05935624339,
			"0.013": 1.53967120331,
			"0.014": 0.0476738572244,
			"0.015": 0.0,
			"0.016": 0.0,
			"0.017": 0.0,
			"0.018": 0.0,
			"0.019": 0.0,
			"0.02": 0.0,
			"0.021": 0.0,
			"0.022": 0.0,
			"0.023": 0.0,
			"0.024": 0.0,
			"0.025": 0.0
		}
	}
}
