{
	 "smiles": "CC1=CC=C(C(=C1)C(O)=O)[N+]([O-])=O", 
	 "Tm": 408.15, 
	 "num_atms": 20, 
	 "gaussian": { 
		 "optdone": 1, 
		 "sigma_profile": "yes", 
		 "theory": "DFT", 
		 "functional": "B3LYP", 
		 "basiset": "6-31G**", 
		 "properties": { 
			 "R2extent": 3302.4052, 
			 "electric_dipole_moment_norm": 6.02601039744, 
			 "electric_quadrupole_moment_norm": 9.68378698496, 
			 "total_energy": -664.626502797, 
			 "HOMO_LUMO_gap": 0.15708, 
			 "cosmo_polarized_energy": -13.18, 
			 "cosmo_cavitation_energy": 24.95, 
			 "cosmo_dispersion_energy": -18.55, 
			 "cosmo_repulsion_energy": 1.45, 
			 "cosmo_total_nonelectrostatic_energy": 7.85, 
			 "SMD_solvation_energy": 7.62 
		},
		"coords": [
			{
				"x": 0.0374194809,
				"y": 1.2255624008,
				"z": 1.8587707149,
				"element": "C" 
			},
			{
				"x": -0.1060125276,
				"y": 0.3641004004,
				"z": 0.6302287138,
				"element": "C" 
			},
			{
				"x": -1.2309929189,
				"y": -0.4466415483,
				"z": 0.4374609028,
				"element": "C" 
			},
			{
				"x": -1.3344406126,
				"y": -1.2436269069,
				"z": -0.6927832088,
				"element": "C" 
			},
			{
				"x": -0.3036223925,
				"y": -1.2736693736,
				"z": -1.6386121588,
				"element": "C" 
			},
			{
				"x": 0.8500722849,
				"y": -0.4667328976,
				"z": -1.490926298,
				"element": "C" 
			},
			{
				"x": 0.8908589164,
				"y": 0.346488959,
				"z": -0.3497091988,
				"element": "C" 
			},
			{
				"x": 2.0558962234,
				"y": -0.2366770746,
				"z": -2.4148825946,
				"element": "C" 
			},
			{
				"x": 2.4267853443,
				"y": -1.1892549078,
				"z": -3.2613258194,
				"element": "O" 
			},
			{
				"x": 2.6788013853,
				"y": 0.7990003813,
				"z": -2.3197428979,
				"element": "O" 
			},
			{
				"x": -0.5625006829,
				"y": -2.1965100299,
				"z": -2.7577653599,
				"element": "N" 
			},
			{
				"x": 0.3910576796,
				"y": -2.7648311173,
				"z": -3.3190551401,
				"element": "O" 
			},
			{
				"x": -1.7269992839,
				"y": -2.4121057568,
				"z": -3.0617872498,
				"element": "O" 
			},
			{
				"x": 0.6133187597,
				"y": 2.1300135817,
				"z": 1.645921636,
				"element": "H" 
			},
			{
				"x": 0.5648289031,
				"y": 0.6814710606,
				"z": 2.6519995953,
				"element": "H" 
			},
			{
				"x": -0.9374976254,
				"y": 1.5205153956,
				"z": 2.2565716027,
				"element": "H" 
			},
			{
				"x": -2.0342387797,
				"y": -0.450757893,
				"z": 1.1684482,
				"element": "H" 
			},
			{
				"x": -2.2098786887,
				"y": -1.8572591421,
				"z": -0.862257004,
				"element": "H" 
			},
			{
				"x": 1.7496576206,
				"y": 1.0022034455,
				"z": -0.260746391,
				"element": "H" 
			},
			{
				"x": 1.787986914,
				"y": -1.9388889771,
				"z": -3.2432080445,
				"element": "H" 
			}
		],
		 "valence_orbital": [ 
			{
				"type": "occ",
				"energy": -0.32368,
				"method": "rhf"
			},
			{
				"type": "occ",
				"energy": -0.31297,
				"method": "rhf"
			},
			{
				"type": "occ",
				"energy": -0.29338,
				"method": "rhf"
			},
			{
				"type": "occ",
				"energy": -0.28723,
				"method": "rhf"
			},
			{
				"type": "occ",
				"energy": -0.27424,
				"method": "rhf"
			},
			{
				"type": "unocc",
				"energy": -0.11716,
				"method": "rhf"
			},
			{
				"type": "unocc",
				"energy": -0.06011,
				"method": "rhf"
			},
			{
				"type": "unocc",
				"energy": -0.02941,
				"method": "rhf"
			},
			{
				"type": "unocc",
				"energy": 0.0339,
				"method": "rhf"
			},
			{
				"type": "unocc",
				"energy": 0.06721,
				"method": "rhf"
			}
		],
		"cosmo_sigma_profile": { 
			"-0.025": 0.0,
			"-0.024": 0.0,
			"-0.023": 0.0,
			"-0.022": 0.0,
			"-0.021": 0.0,
			"-0.02": 0.0,
			"-0.019": 0.0,
			"-0.018": 0.0,
			"-0.017": 0.0,
			"-0.016": 0.0,
			"-0.015": 0.0,
			"-0.014": 0.0,
			"-0.013": 0.236360702101,
			"-0.012": 0.57291076988,
			"-0.011": 0.454545397472,
			"-0.01": 0.911310272633,
			"-0.009": 1.87964665519,
			"-0.008": 5.1595916301,
			"-0.007": 8.93615066709,
			"-0.006": 11.4842384735,
			"-0.005": 15.4354814394,
			"-0.004": 14.1228067889,
			"-0.003": 15.3277281746,
			"-0.002": 16.1696145529,
			"-0.001": 19.7314658327,
			"0.0": 16.3723358502,
			"0.001": 11.6338441441,
			"0.002": 5.15794378971,
			"0.003": 4.24860517829,
			"0.004": 5.77169394667,
			"0.005": 5.78059258757,
			"0.006": 8.45676923346,
			"0.007": 6.79631616252,
			"0.008": 6.33913519202,
			"0.009": 3.74577082005,
			"0.01": 4.6198925622,
			"0.011": 5.66227388159,
			"0.012": 3.82821990805,
			"0.013": 1.38389847726,
			"0.014": 0.0158333778404,
			"0.015": 0.0,
			"0.016": 0.0,
			"0.017": 0.0,
			"0.018": 0.0,
			"0.019": 0.0,
			"0.02": 0.0,
			"0.021": 0.0,
			"0.022": 0.0,
			"0.023": 0.0,
			"0.024": 0.0,
			"0.025": 0.0
		}
	}
}
