{
	 "smiles": "NC1=C(N=C2C=CC=CN12)C1=NC=CC=C1", 
	 "Tm": 473.15, 
	 "num_atms": 26, 
	 "gaussian": { 
		 "optdone": 1, 
		 "sigma_profile": "yes", 
		 "theory": "DFT", 
		 "functional": "B3LYP", 
		 "basiset": "6-31G**", 
		 "properties": { 
			 "R2extent": 4101.1739, 
			 "electric_dipole_moment_norm": 4.11473427332, 
			 "electric_quadrupole_moment_norm": 14.8104187581, 
			 "total_energy": -682.2968377, 
			 "HOMO_LUMO_gap": 0.14911, 
			 "cosmo_polarized_energy": -20.8, 
			 "cosmo_cavitation_energy": 30.31, 
			 "cosmo_dispersion_energy": -22.57, 
			 "cosmo_repulsion_energy": 1.73, 
			 "cosmo_total_nonelectrostatic_energy": 9.47, 
			 "SMD_solvation_energy": 2.05 
		},
		"coords": [
			{
				"x": -1.8539142655,
				"y": 0.9907642462,
				"z": -0.2599108915,
				"element": "N" 
			},
			{
				"x": -0.4620376776,
				"y": 0.8664886148,
				"z": -0.3876456142,
				"element": "C" 
			},
			{
				"x": 0.5140874393,
				"y": 0.0843740647,
				"z": 0.2333869638,
				"element": "C" 
			},
			{
				"x": 1.7581915542,
				"y": 0.3405332149,
				"z": -0.284974211,
				"element": "N" 
			},
			{
				"x": 1.5771132686,
				"y": 1.2656715381,
				"z": -1.2127419508,
				"element": "C" 
			},
			{
				"x": 2.491590229,
				"y": 1.9062873778,
				"z": -2.0826775861,
				"element": "C" 
			},
			{
				"x": 2.0411451456,
				"y": 2.8555687085,
				"z": -2.9672881023,
				"element": "C" 
			},
			{
				"x": 0.6584673303,
				"y": 3.2092460335,
				"z": -3.0088435279,
				"element": "C" 
			},
			{
				"x": -0.2381646748,
				"y": 2.5993047485,
				"z": -2.1796930289,
				"element": "C" 
			},
			{
				"x": 0.2143184759,
				"y": 1.6361918992,
				"z": -1.3051788643,
				"element": "N" 
			},
			{
				"x": 0.2917698288,
				"y": -0.9028218356,
				"z": 1.3044157926,
				"element": "C" 
			},
			{
				"x": 1.0137865439,
				"y": -2.0390632706,
				"z": 1.255805412,
				"element": "N" 
			},
			{
				"x": 0.8102469506,
				"y": -2.9507143975,
				"z": 2.2085712741,
				"element": "C" 
			},
			{
				"x": -0.1144230686,
				"y": -2.8086997592,
				"z": 3.2471026725,
				"element": "C" 
			},
			{
				"x": -0.8509419748,
				"y": -1.6276687655,
				"z": 3.3064681731,
				"element": "C" 
			},
			{
				"x": -0.639774055,
				"y": -0.6564553405,
				"z": 2.3301016549,
				"element": "C" 
			},
			{
				"x": -2.2010347732,
				"y": 0.4102020091,
				"z": 0.4943449526,
				"element": "H" 
			},
			{
				"x": -2.3410132043,
				"y": 0.7229675371,
				"z": -1.1140098814,
				"element": "H" 
			},
			{
				"x": 3.5347129933,
				"y": 1.6185421532,
				"z": -2.0192173599,
				"element": "H" 
			},
			{
				"x": 2.7363736556,
				"y": 3.3476331336,
				"z": -3.6393779553,
				"element": "H" 
			},
			{
				"x": 0.3059509104,
				"y": 3.9727308464,
				"z": -3.6930359843,
				"element": "H" 
			},
			{
				"x": -1.2944804256,
				"y": 2.8328618706,
				"z": -2.1336056776,
				"element": "H" 
			},
			{
				"x": 1.4172351583,
				"y": -3.8526497815,
				"z": 2.1386273427,
				"element": "H" 
			},
			{
				"x": -0.2385784712,
				"y": -3.5934655685,
				"z": 3.9865302179,
				"element": "H" 
			},
			{
				"x": -1.5631821824,
				"y": -1.4549976056,
				"z": 4.1086108023,
				"element": "H" 
			},
			{
				"x": -1.1477447108,
				"y": 0.3019683282,
				"z": 2.388835377,
				"element": "H" 
			}
		],
		 "valence_orbital": [ 
			{
				"type": "occ",
				"energy": -0.26825,
				"method": "rhf"
			},
			{
				"type": "occ",
				"energy": -0.25942,
				"method": "rhf"
			},
			{
				"type": "occ",
				"energy": -0.24514,
				"method": "rhf"
			},
			{
				"type": "occ",
				"energy": -0.22526,
				"method": "rhf"
			},
			{
				"type": "occ",
				"energy": -0.18748,
				"method": "rhf"
			},
			{
				"type": "unocc",
				"energy": -0.03837,
				"method": "rhf"
			},
			{
				"type": "unocc",
				"energy": -0.01917,
				"method": "rhf"
			},
			{
				"type": "unocc",
				"energy": -0.00754,
				"method": "rhf"
			},
			{
				"type": "unocc",
				"energy": 0.01493,
				"method": "rhf"
			},
			{
				"type": "unocc",
				"energy": 0.0685,
				"method": "rhf"
			}
		],
		"cosmo_sigma_profile": { 
			"-0.025": 0.0,
			"-0.024": 0.0,
			"-0.023": 0.0,
			"-0.022": 0.0,
			"-0.021": 0.0,
			"-0.02": 0.0,
			"-0.019": 0.0,
			"-0.018": 0.0,
			"-0.017": 0.0,
			"-0.016": 0.0,
			"-0.015": 0.0,
			"-0.014": 0.0,
			"-0.013": 0.92292469749,
			"-0.012": 2.03970392575,
			"-0.011": 3.4244043781,
			"-0.01": 3.71981188446,
			"-0.009": 3.38506967438,
			"-0.008": 4.89876178702,
			"-0.007": 10.6951676825,
			"-0.006": 18.1959414505,
			"-0.005": 18.4871116643,
			"-0.004": 15.4862893535,
			"-0.003": 12.0150775947,
			"-0.002": 10.5848406702,
			"-0.001": 12.9113299087,
			"0.0": 14.4577495172,
			"0.001": 16.6747783044,
			"0.002": 23.2717522566,
			"0.003": 23.6787509179,
			"0.004": 11.7493356251,
			"0.005": 4.00952462951,
			"0.006": 4.09822717077,
			"0.007": 2.65761853287,
			"0.008": 2.96915767986,
			"0.009": 3.60320682433,
			"0.01": 2.28335058297,
			"0.011": 1.652435448,
			"0.012": 2.35029110137,
			"0.013": 2.44337852886,
			"0.014": 2.43089079175,
			"0.015": 1.50097012493,
			"0.016": 1.58544901659,
			"0.017": 1.94683836214,
			"0.018": 2.03575999061,
			"0.019": 1.66504959576,
			"0.02": 0.12025427398,
			"0.021": 0.0,
			"0.022": 0.0,
			"0.023": 0.0,
			"0.024": 0.0,
			"0.025": 0.0
		}
	}
}
