{
	 "smiles": "COC(=O)C1=CC=C2N(CC#C)C=CC2=C1", 
	 "Tm": 368.15, 
	 "num_atms": 27, 
	 "gaussian": { 
		 "optdone": 1, 
		 "sigma_profile": "yes", 
		 "theory": "DFT", 
		 "functional": "B3LYP", 
		 "basiset": "6-31G**", 
		 "properties": { 
			 "R2extent": 4861.6982, 
			 "electric_dipole_moment_norm": 3.92257843134, 
			 "electric_quadrupole_moment_norm": 12.9809599603, 
			 "total_energy": -707.145743516, 
			 "HOMO_LUMO_gap": 0.18194, 
			 "cosmo_polarized_energy": -13.58, 
			 "cosmo_cavitation_energy": 32.84, 
			 "cosmo_dispersion_energy": -22.83, 
			 "cosmo_repulsion_energy": 1.75, 
			 "cosmo_total_nonelectrostatic_energy": 11.76, 
			 "SMD_solvation_energy": 8.45 
		},
		"coords": [
			{
				"x": -0.7191635279,
				"y": -4.1253540136,
				"z": -2.2985134247,
				"element": "C" 
			},
			{
				"x": -0.3484120768,
				"y": -2.8588886543,
				"z": -1.7387381804,
				"element": "O" 
			},
			{
				"x": -0.5512030977,
				"y": -2.7396440031,
				"z": -0.4017987098,
				"element": "C" 
			},
			{
				"x": -1.0145543064,
				"y": -3.6414914345,
				"z": 0.2718985393,
				"element": "O" 
			},
			{
				"x": -0.1489537152,
				"y": -1.4083937052,
				"z": 0.1209662274,
				"element": "C" 
			},
			{
				"x": 0.3862708683,
				"y": -0.4039392774,
				"z": -0.7224315798,
				"element": "C" 
			},
			{
				"x": 0.7572617089,
				"y": 0.833624414,
				"z": -0.2188172861,
				"element": "C" 
			},
			{
				"x": 0.5793619311,
				"y": 1.0577039132,
				"z": 1.153015901,
				"element": "C" 
			},
			{
				"x": 0.8386870205,
				"y": 2.1791024656,
				"z": 1.914793479,
				"element": "N" 
			},
			{
				"x": 1.4256009091,
				"y": 3.4208662179,
				"z": 1.4317879991,
				"element": "C" 
			},
			{
				"x": 2.8782331157,
				"y": 3.3582680431,
				"z": 1.2281232075,
				"element": "C" 
			},
			{
				"x": 4.0712379018,
				"y": 3.3169438303,
				"z": 1.0516777213,
				"element": "C" 
			},
			{
				"x": 0.5111817655,
				"y": 1.9024141211,
				"z": 3.2368326868,
				"element": "C" 
			},
			{
				"x": 0.024582043,
				"y": 0.6296164524,
				"z": 3.3431260356,
				"element": "C" 
			},
			{
				"x": 0.0524162929,
				"y": 0.0597267865,
				"z": 2.023362307,
				"element": "C" 
			},
			{
				"x": -0.3142035358,
				"y": -1.179912284,
				"z": 1.4883124541,
				"element": "C" 
			},
			{
				"x": -0.4954785912,
				"y": -4.0544764711,
				"z": -3.3633324898,
				"element": "H" 
			},
			{
				"x": -0.1453178994,
				"y": -4.934839389,
				"z": -1.8396749062,
				"element": "H" 
			},
			{
				"x": -1.7833532417,
				"y": -4.3213043808,
				"z": -2.1428959311,
				"element": "H" 
			},
			{
				"x": 0.5088479267,
				"y": -0.6169360588,
				"z": -1.7774738775,
				"element": "H" 
			},
			{
				"x": 1.1833609116,
				"y": 1.5915478978,
				"z": -0.8684820961,
				"element": "H" 
			},
			{
				"x": 1.1836109687,
				"y": 4.2067543849,
				"z": 2.1554522515,
				"element": "H" 
			},
			{
				"x": 0.9313579482,
				"y": 3.7005447834,
				"z": 0.4931664587,
				"element": "H" 
			},
			{
				"x": 5.1252181216,
				"y": 3.2677043878,
				"z": 0.901832501,
				"element": "H" 
			},
			{
				"x": 0.6543570417,
				"y": 2.6596643181,
				"z": 3.9950904602,
				"element": "H" 
			},
			{
				"x": -0.3207320907,
				"y": 0.1535730125,
				"z": 4.2495005296,
				"element": "H" 
			},
			{
				"x": -0.7230143926,
				"y": -1.971775357,
				"z": 2.1071197224,
				"element": "H" 
			}
		],
		 "valence_orbital": [ 
			{
				"type": "occ",
				"energy": -0.28366,
				"method": "rhf"
			},
			{
				"type": "occ",
				"energy": -0.27635,
				"method": "rhf"
			},
			{
				"type": "occ",
				"energy": -0.26097,
				"method": "rhf"
			},
			{
				"type": "occ",
				"energy": -0.22722,
				"method": "rhf"
			},
			{
				"type": "occ",
				"energy": -0.2091,
				"method": "rhf"
			},
			{
				"type": "unocc",
				"energy": -0.02716,
				"method": "rhf"
			},
			{
				"type": "unocc",
				"energy": -0.00946,
				"method": "rhf"
			},
			{
				"type": "unocc",
				"energy": 0.02536,
				"method": "rhf"
			},
			{
				"type": "unocc",
				"energy": 0.03766,
				"method": "rhf"
			},
			{
				"type": "unocc",
				"energy": 0.06304,
				"method": "rhf"
			}
		],
		"cosmo_sigma_profile": { 
			"-0.025": 0.0,
			"-0.024": 0.0,
			"-0.023": 0.0,
			"-0.022": 0.0,
			"-0.021": 0.0,
			"-0.02": 0.0,
			"-0.019": 0.0,
			"-0.018": 0.0,
			"-0.017": 0.0,
			"-0.016": 0.0,
			"-0.015": 0.0,
			"-0.014": 0.0,
			"-0.013": 0.0245379448585,
			"-0.012": 0.832280389052,
			"-0.011": 1.34138587734,
			"-0.01": 2.09837444407,
			"-0.009": 5.26096411527,
			"-0.008": 8.12605295185,
			"-0.007": 8.97095098081,
			"-0.006": 13.3745521688,
			"-0.005": 17.3478360639,
			"-0.004": 19.0355788711,
			"-0.003": 18.110778334,
			"-0.002": 14.9298895401,
			"-0.001": 14.3303527449,
			"0.0": 12.8920300474,
			"0.001": 12.608861562,
			"0.002": 18.2415594807,
			"0.003": 21.6124410047,
			"0.004": 25.6425897599,
			"0.005": 19.4980927951,
			"0.006": 13.3388187802,
			"0.007": 3.40210558714,
			"0.008": 1.20615537931,
			"0.009": 1.8811336623,
			"0.01": 1.5124737208,
			"0.011": 2.47763850148,
			"0.012": 4.36552818141,
			"0.013": 1.75519668956,
			"0.014": 0.0,
			"0.015": 0.0,
			"0.016": 0.0,
			"0.017": 0.0,
			"0.018": 0.0,
			"0.019": 0.0,
			"0.02": 0.0,
			"0.021": 0.0,
			"0.022": 0.0,
			"0.023": 0.0,
			"0.024": 0.0,
			"0.025": 0.0
		}
	}
}
