{
	 "smiles": "S1N=NC(=C1C1=CC=CC=C1)C1=CC=CC=C1", 
	 "Tm": 366.15, 
	 "num_atms": 27, 
	 "gaussian": { 
		 "optdone": 1, 
		 "sigma_profile": "yes", 
		 "theory": "DFT", 
		 "functional": "B3LYP", 
		 "basiset": "6-31G**", 
		 "properties": { 
			 "R2extent": 4700.3334, 
			 "electric_dipole_moment_norm": 4.36123484921, 
			 "electric_quadrupole_moment_norm": 9.37457991805, 
			 "total_energy": -1047.17197574, 
			 "HOMO_LUMO_gap": 0.16252, 
			 "cosmo_polarized_energy": -9.06, 
			 "cosmo_cavitation_energy": 32.97, 
			 "cosmo_dispersion_energy": -23.9, 
			 "cosmo_repulsion_energy": 1.8, 
			 "cosmo_total_nonelectrostatic_energy": 10.87, 
			 "SMD_solvation_energy": 3.44 
		},
		"coords": [
			{
				"x": -0.8721839363,
				"y": 1.1780717522,
				"z": 1.4988352598,
				"element": "S" 
			},
			{
				"x": -2.1167112864,
				"y": 1.421626637,
				"z": 0.3079307959,
				"element": "N" 
			},
			{
				"x": -1.8205844944,
				"y": 0.8195977722,
				"z": -0.7726800484,
				"element": "N" 
			},
			{
				"x": -0.6302063119,
				"y": 0.1191196844,
				"z": -0.7796630306,
				"element": "C" 
			},
			{
				"x": 0.0619545215,
				"y": 0.2104330978,
				"z": 0.4218799729,
				"element": "C" 
			},
			{
				"x": 1.3880642677,
				"y": -0.3080869082,
				"z": 0.8085982296,
				"element": "C" 
			},
			{
				"x": 1.5748516143,
				"y": -0.9490756132,
				"z": 2.0452313986,
				"element": "C" 
			},
			{
				"x": 2.8362154573,
				"y": -1.4086865781,
				"z": 2.4218455417,
				"element": "C" 
			},
			{
				"x": 3.9300615846,
				"y": -1.2304576828,
				"z": 1.5734123728,
				"element": "C" 
			},
			{
				"x": 3.7557094014,
				"y": -0.588681751,
				"z": 0.3447111404,
				"element": "C" 
			},
			{
				"x": 2.4971678321,
				"y": -0.1295560337,
				"z": -0.0369463094,
				"element": "C" 
			},
			{
				"x": -0.2817028911,
				"y": -0.6312123615,
				"z": -2.0052739686,
				"element": "C" 
			},
			{
				"x": -0.6733981053,
				"y": -0.123329888,
				"z": -3.2555916905,
				"element": "C" 
			},
			{
				"x": -0.3803981129,
				"y": -0.8206733403,
				"z": -4.4258906331,
				"element": "C" 
			},
			{
				"x": 0.3025062265,
				"y": -2.0373535043,
				"z": -4.3679645497,
				"element": "C" 
			},
			{
				"x": 0.6833245098,
				"y": -2.5564510207,
				"z": -3.1288494823,
				"element": "C" 
			},
			{
				"x": 0.3916103138,
				"y": -1.8626960481,
				"z": -1.955576986,
				"element": "C" 
			},
			{
				"x": 0.7244129656,
				"y": -1.0982170965,
				"z": 2.7041558631,
				"element": "H" 
			},
			{
				"x": 2.9623997711,
				"y": -1.9068397965,
				"z": 3.3785323332,
				"element": "H" 
			},
			{
				"x": 4.9127042365,
				"y": -1.586787219,
				"z": 1.8679431622,
				"element": "H" 
			},
			{
				"x": 4.6036385265,
				"y": -0.4393616174,
				"z": -0.317222509,
				"element": "H" 
			},
			{
				"x": 2.36690954,
				"y": 0.3760641224,
				"z": -0.9878188251,
				"element": "H" 
			},
			{
				"x": -1.2135011726,
				"y": 0.8164939854,
				"z": -3.296464547,
				"element": "H" 
			},
			{
				"x": -0.6875128993,
				"y": -0.412978309,
				"z": -5.3846876084,
				"element": "H" 
			},
			{
				"x": 0.529789323,
				"y": -2.5805800719,
				"z": -5.280652958,
				"element": "H" 
			},
			{
				"x": 1.2004992208,
				"y": -3.5100056949,
				"z": -3.0729404084,
				"element": "H" 
			},
			{
				"x": 0.6745798974,
				"y": -2.2843765162,
				"z": -0.9973525157,
				"element": "H" 
			}
		],
		 "valence_orbital": [ 
			{
				"type": "occ",
				"energy": -0.2706,
				"method": "rhf"
			},
			{
				"type": "occ",
				"energy": -0.26765,
				"method": "rhf"
			},
			{
				"type": "occ",
				"energy": -0.25311,
				"method": "rhf"
			},
			{
				"type": "occ",
				"energy": -0.25034,
				"method": "rhf"
			},
			{
				"type": "occ",
				"energy": -0.22864,
				"method": "rhf"
			},
			{
				"type": "unocc",
				"energy": -0.06612,
				"method": "rhf"
			},
			{
				"type": "unocc",
				"energy": -0.02702,
				"method": "rhf"
			},
			{
				"type": "unocc",
				"energy": -0.02155,
				"method": "rhf"
			},
			{
				"type": "unocc",
				"energy": -0.01036,
				"method": "rhf"
			},
			{
				"type": "unocc",
				"energy": -0.00179,
				"method": "rhf"
			}
		],
		"cosmo_sigma_profile": { 
			"-0.025": 0.0,
			"-0.024": 0.0,
			"-0.023": 0.0,
			"-0.022": 0.0,
			"-0.021": 0.0,
			"-0.02": 0.0,
			"-0.019": 0.0,
			"-0.018": 0.0,
			"-0.017": 0.0,
			"-0.016": 0.0,
			"-0.015": 0.0,
			"-0.014": 0.0,
			"-0.013": 0.0,
			"-0.012": 0.0,
			"-0.011": 0.0,
			"-0.01": 0.0,
			"-0.009": 0.0,
			"-0.008": 0.0,
			"-0.007": 1.69355513141,
			"-0.006": 15.9429712913,
			"-0.005": 22.2045084736,
			"-0.004": 23.1718716388,
			"-0.003": 21.0336681179,
			"-0.002": 23.3100883245,
			"-0.001": 25.2751083081,
			"0.0": 23.0305640311,
			"0.001": 20.9361800153,
			"0.002": 18.3626652516,
			"0.003": 18.9967024171,
			"0.004": 20.9911198616,
			"0.005": 13.4758689588,
			"0.006": 3.07178298522,
			"0.007": 2.06332681197,
			"0.008": 2.93368393203,
			"0.009": 3.23032825829,
			"0.01": 3.54317094857,
			"0.011": 2.35807383543,
			"0.012": 2.11072936777,
			"0.013": 0.510434003602,
			"0.014": 0.0,
			"0.015": 0.0,
			"0.016": 0.0,
			"0.017": 0.0,
			"0.018": 0.0,
			"0.019": 0.0,
			"0.02": 0.0,
			"0.021": 0.0,
			"0.022": 0.0,
			"0.023": 0.0,
			"0.024": 0.0,
			"0.025": 0.0
		}
	}
}
