{
	 "smiles": "OC(=O)C1=C(O)C2=C(N=C1)C(OC(F)(F)F)=CC=C2", 
	 "Tm": 533.15, 
	 "num_atms": 25, 
	 "gaussian": { 
		 "optdone": 1, 
		 "sigma_profile": "yes", 
		 "theory": "DFT", 
		 "functional": "B3LYP", 
		 "basiset": "6-31G**", 
		 "properties": { 
			 "R2extent": 6146.3601, 
			 "electric_dipole_moment_norm": 8.01335187359, 
			 "electric_quadrupole_moment_norm": 11.2335146321, 
			 "total_energy": -1077.96260498, 
			 "HOMO_LUMO_gap": 0.17032, 
			 "cosmo_polarized_energy": -21.99, 
			 "cosmo_cavitation_energy": 31.55, 
			 "cosmo_dispersion_energy": -22.94, 
			 "cosmo_repulsion_energy": 1.67, 
			 "cosmo_total_nonelectrostatic_energy": 10.28, 
			 "SMD_solvation_energy": 7.43 
		},
		"coords": [
			{
				"x": 3.2299023448,
				"y": -2.4862761224,
				"z": 0.7083969069,
				"element": "O" 
			},
			{
				"x": 2.4303671006,
				"y": -2.5916969449,
				"z": -0.3705945156,
				"element": "C" 
			},
			{
				"x": 2.6677559613,
				"y": -3.4043401283,
				"z": -1.2361683577,
				"element": "O" 
			},
			{
				"x": 1.2433461455,
				"y": -1.6704361332,
				"z": -0.4682897979,
				"element": "C" 
			},
			{
				"x": 0.8574330492,
				"y": -0.7214857053,
				"z": 0.4662168902,
				"element": "C" 
			},
			{
				"x": 1.5933999816,
				"y": -0.582906807,
				"z": 1.6078533189,
				"element": "O" 
			},
			{
				"x": -0.2988633187,
				"y": 0.0848557669,
				"z": 0.2389234665,
				"element": "C" 
			},
			{
				"x": -0.9833734301,
				"y": -0.1220320563,
				"z": -0.9998573865,
				"element": "C" 
			},
			{
				"x": -0.605249576,
				"y": -1.0488505237,
				"z": -1.9198800713,
				"element": "N" 
			},
			{
				"x": 0.4494793944,
				"y": -1.7809619284,
				"z": -1.6448001958,
				"element": "C" 
			},
			{
				"x": -2.1262948101,
				"y": 0.6876469749,
				"z": -1.2662661028,
				"element": "C" 
			},
			{
				"x": -2.889805009,
				"y": 0.4868404571,
				"z": -2.4041487287,
				"element": "O" 
			},
			{
				"x": -2.3877540062,
				"y": 0.7257661084,
				"z": -3.6561864094,
				"element": "C" 
			},
			{
				"x": -2.3036139189,
				"y": -0.4005198765,
				"z": -4.3631666807,
				"element": "F" 
			},
			{
				"x": -3.2385180036,
				"y": 1.5438701033,
				"z": -4.2981673761,
				"element": "F" 
			},
			{
				"x": -1.1851162219,
				"y": 1.3176769504,
				"z": -3.6258751663,
				"element": "F" 
			},
			{
				"x": -2.5781610136,
				"y": 1.6149957616,
				"z": -0.3556620303,
				"element": "C" 
			},
			{
				"x": -1.9058006005,
				"y": 1.7878123395,
				"z": 0.8732634966,
				"element": "C" 
			},
			{
				"x": -0.7864990107,
				"y": 1.0411980652,
				"z": 1.166982964,
				"element": "C" 
			},
			{
				"x": 2.9078362647,
				"y": -1.7923774485,
				"z": 1.3083285606,
				"element": "H" 
			},
			{
				"x": 1.3440436085,
				"y": 0.2134745497,
				"z": 2.0934361537,
				"element": "H" 
			},
			{
				"x": 0.7516421682,
				"y": -2.5275583882,
				"z": -2.3743479829,
				"element": "H" 
			},
			{
				"x": -3.461563016,
				"y": 2.1962732223,
				"z": -0.5958488764,
				"element": "H" 
			},
			{
				"x": -2.2800181676,
				"y": 2.5135084337,
				"z": 1.587789385,
				"element": "H" 
			},
			{
				"x": -0.3073759157,
				"y": 1.1841233297,
				"z": 2.1329685358,
				"element": "H" 
			}
		],
		 "valence_orbital": [ 
			{
				"type": "occ",
				"energy": -0.30322,
				"method": "rhf"
			},
			{
				"type": "occ",
				"energy": -0.28572,
				"method": "rhf"
			},
			{
				"type": "occ",
				"energy": -0.28125,
				"method": "rhf"
			},
			{
				"type": "occ",
				"energy": -0.27017,
				"method": "rhf"
			},
			{
				"type": "occ",
				"energy": -0.25379,
				"method": "rhf"
			},
			{
				"type": "unocc",
				"energy": -0.08347,
				"method": "rhf"
			},
			{
				"type": "unocc",
				"energy": -0.05774,
				"method": "rhf"
			},
			{
				"type": "unocc",
				"energy": -0.00421,
				"method": "rhf"
			},
			{
				"type": "unocc",
				"energy": 0.01253,
				"method": "rhf"
			},
			{
				"type": "unocc",
				"energy": 0.01828,
				"method": "rhf"
			}
		],
		"cosmo_sigma_profile": { 
			"-0.025": 0.0,
			"-0.024": 0.0,
			"-0.023": 0.0,
			"-0.022": 0.0,
			"-0.021": 0.294405801146,
			"-0.02": 1.12366374354,
			"-0.019": 0.885534930979,
			"-0.018": 0.984314222295,
			"-0.017": 0.86977674023,
			"-0.016": 1.23369732481,
			"-0.015": 0.87002845136,
			"-0.014": 1.31533587347,
			"-0.013": 0.818222919348,
			"-0.012": 0.887355110049,
			"-0.011": 1.51025886627,
			"-0.01": 2.25770780856,
			"-0.009": 2.25346505555,
			"-0.008": 4.48755885571,
			"-0.007": 9.9947464557,
			"-0.006": 9.63102484485,
			"-0.005": 8.75832484672,
			"-0.004": 11.7028207287,
			"-0.003": 11.5323024232,
			"-0.002": 16.7934411275,
			"-0.001": 20.5594502616,
			"0.0": 20.9686967149,
			"0.001": 23.8794722655,
			"0.002": 35.0808806464,
			"0.003": 14.1019310961,
			"0.004": 7.82282497715,
			"0.005": 5.16406350506,
			"0.006": 6.49662825145,
			"0.007": 5.2110867709,
			"0.008": 3.65969973552,
			"0.009": 5.27071098738,
			"0.01": 5.28512855566,
			"0.011": 7.10919906876,
			"0.012": 4.22741583054,
			"0.013": 1.75709270296,
			"0.014": 0.0912492379495,
			"0.015": 0.0,
			"0.016": 0.0,
			"0.017": 0.0,
			"0.018": 0.0,
			"0.019": 0.0,
			"0.02": 0.0,
			"0.021": 0.0,
			"0.022": 0.0,
			"0.023": 0.0,
			"0.024": 0.0,
			"0.025": 0.0
		}
	}
}
