{
	 "smiles": "NC1=CC=C(C=C1Cl)[N+]([O-])=O", 
	 "Tm": 381.15, 
	 "num_atms": 16, 
	 "gaussian": { 
		 "optdone": 1, 
		 "sigma_profile": "yes", 
		 "theory": "DFT", 
		 "functional": "B3LYP", 
		 "basiset": "6-31G**", 
		 "properties": { 
			 "R2extent": 2196.4197, 
			 "electric_dipole_moment_norm": 6.49796255299, 
			 "electric_quadrupole_moment_norm": 9.37500633333, 
			 "total_energy": -951.701771039, 
			 "HOMO_LUMO_gap": 0.15605, 
			 "cosmo_polarized_energy": -13.5, 
			 "cosmo_cavitation_energy": 22.78, 
			 "cosmo_dispersion_energy": -17.22, 
			 "cosmo_repulsion_energy": 1.38, 
			 "cosmo_total_nonelectrostatic_energy": 6.94, 
			 "SMD_solvation_energy": 5.94 
		},
		"coords": [
			{
				"x": -2.085648832,
				"y": -1.6213401935,
				"z": 1.3779849088,
				"element": "N" 
			},
			{
				"x": -1.2129076044,
				"y": -0.6967573549,
				"z": 0.8744533152,
				"element": "C" 
			},
			{
				"x": -1.3888858474,
				"y": 0.6835186468,
				"z": 1.1224406215,
				"element": "C" 
			},
			{
				"x": -0.4888483266,
				"y": 1.6229439624,
				"z": 0.6508725282,
				"element": "C" 
			},
			{
				"x": 0.6173240013,
				"y": 1.1981890048,
				"z": -0.0879840598,
				"element": "C" 
			},
			{
				"x": 0.8301671042,
				"y": -0.1535894826,
				"z": -0.3595794466,
				"element": "C" 
			},
			{
				"x": -0.0781618698,
				"y": -1.081538926,
				"z": 0.1186952892,
				"element": "C" 
			},
			{
				"x": 0.1746222651,
				"y": -2.7889057751,
				"z": -0.2238371491,
				"element": "Cl" 
			},
			{
				"x": 1.5700672741,
				"y": 2.1798292039,
				"z": -0.5907822452,
				"element": "N" 
			},
			{
				"x": 2.5341802884,
				"y": 1.7667408432,
				"z": -1.2393746159,
				"element": "O" 
			},
			{
				"x": 1.3552712203,
				"y": 3.3676256932,
				"z": -0.3376906865,
				"element": "O" 
			},
			{
				"x": -2.9812803432,
				"y": -1.3039179224,
				"z": 1.7123497876,
				"element": "H" 
			},
			{
				"x": -2.0470703415,
				"y": -2.5638529094,
				"z": 1.0217497459,
				"element": "H" 
			},
			{
				"x": -2.2505468422,
				"y": 1.0031507497,
				"z": 1.7014303201,
				"element": "H" 
			},
			{
				"x": -0.6243079634,
				"y": 2.6800025024,
				"z": 0.8414575438,
				"element": "H" 
			},
			{
				"x": 1.6930258171,
				"y": -0.4574980425,
				"z": -0.9376858573,
				"element": "H" 
			}
		],
		 "valence_orbital": [ 
			{
				"type": "occ",
				"energy": -0.30124,
				"method": "rhf"
			},
			{
				"type": "occ",
				"energy": -0.30021,
				"method": "rhf"
			},
			{
				"type": "occ",
				"energy": -0.28262,
				"method": "rhf"
			},
			{
				"type": "occ",
				"energy": -0.27317,
				"method": "rhf"
			},
			{
				"type": "occ",
				"energy": -0.23595,
				"method": "rhf"
			},
			{
				"type": "unocc",
				"energy": -0.0799,
				"method": "rhf"
			},
			{
				"type": "unocc",
				"energy": -0.03143,
				"method": "rhf"
			},
			{
				"type": "unocc",
				"energy": 0.0112,
				"method": "rhf"
			},
			{
				"type": "unocc",
				"energy": 0.01183,
				"method": "rhf"
			},
			{
				"type": "unocc",
				"energy": 0.06093,
				"method": "rhf"
			}
		],
		"cosmo_sigma_profile": { 
			"-0.025": 0.0,
			"-0.024": 0.0,
			"-0.023": 0.0,
			"-0.022": 0.0,
			"-0.021": 0.0,
			"-0.02": 0.0,
			"-0.019": 0.0,
			"-0.018": 0.0,
			"-0.017": 0.0,
			"-0.016": 0.0,
			"-0.015": 0.783185318129,
			"-0.014": 1.72603349996,
			"-0.013": 2.4282968653,
			"-0.012": 2.56898345383,
			"-0.011": 2.99846272124,
			"-0.01": 2.38349366812,
			"-0.009": 2.59417181551,
			"-0.008": 3.07966999267,
			"-0.007": 6.10045160675,
			"-0.006": 5.70856541591,
			"-0.005": 7.20813858562,
			"-0.004": 6.40520611851,
			"-0.003": 7.4909738306,
			"-0.002": 11.5833465771,
			"-0.001": 12.2142522487,
			"0.0": 18.7242305721,
			"0.001": 22.9276765757,
			"0.002": 12.7998636817,
			"0.003": 10.6706293788,
			"0.004": 9.30749211375,
			"0.005": 3.89684907693,
			"0.006": 3.56971465441,
			"0.007": 4.64119628365,
			"0.008": 10.3583084226,
			"0.009": 6.30361513763,
			"0.01": 4.21921633498,
			"0.011": 2.16085613707,
			"0.012": 0.0152111787668,
			"0.013": 0.0,
			"0.014": 0.0,
			"0.015": 0.0,
			"0.016": 0.0,
			"0.017": 0.0,
			"0.018": 0.0,
			"0.019": 0.0,
			"0.02": 0.0,
			"0.021": 0.0,
			"0.022": 0.0,
			"0.023": 0.0,
			"0.024": 0.0,
			"0.025": 0.0
		}
	}
}
