{
	 "smiles": "CC(NC(=O)CCl)C1CC1", 
	 "Tm": 324.15, 
	 "num_atms": 22, 
	 "gaussian": { 
		 "optdone": 1, 
		 "sigma_profile": "yes", 
		 "theory": "DFT", 
		 "functional": "B3LYP", 
		 "basiset": "6-31G**", 
		 "properties": { 
			 "R2extent": 3305.1066, 
			 "electric_dipole_moment_norm": 2.16528193083, 
			 "electric_quadrupole_moment_norm": 4.34813690217, 
			 "total_energy": -864.138326804, 
			 "HOMO_LUMO_gap": 0.26805, 
			 "cosmo_polarized_energy": -9.23, 
			 "cosmo_cavitation_energy": 26.35, 
			 "cosmo_dispersion_energy": -18.87, 
			 "cosmo_repulsion_energy": 1.57, 
			 "cosmo_total_nonelectrostatic_energy": 9.05, 
			 "SMD_solvation_energy": 4.19 
		},
		"coords": [
			{
				"x": 0.9619334522,
				"y": 0.8121341432,
				"z": -0.7283989282,
				"element": "C" 
			},
			{
				"x": 0.2489660195,
				"y": -0.011710632,
				"z": 0.352390361,
				"element": "C" 
			},
			{
				"x": 1.2208590844,
				"y": -0.581707321,
				"z": 1.2960387974,
				"element": "N" 
			},
			{
				"x": 1.8665432342,
				"y": -1.7417330276,
				"z": 1.0524486766,
				"element": "C" 
			},
			{
				"x": 1.7086579222,
				"y": -2.4357664384,
				"z": 0.0528161124,
				"element": "O" 
			},
			{
				"x": 2.8659330368,
				"y": -2.25166128,
				"z": 2.0955311786,
				"element": "C" 
			},
			{
				"x": 3.1117152885,
				"y": -1.2223793578,
				"z": 3.5748190915,
				"element": "Cl" 
			},
			{
				"x": -0.8126643283,
				"y": 0.7205401309,
				"z": 1.1622574338,
				"element": "C" 
			},
			{
				"x": -0.5956287095,
				"y": 2.1127156197,
				"z": 1.7187916295,
				"element": "C" 
			},
			{
				"x": -1.6123789546,
				"y": 1.8801145849,
				"z": 0.6275924463,
				"element": "C" 
			},
			{
				"x": 1.6984611923,
				"y": 0.1788202963,
				"z": -1.2286417765,
				"element": "H" 
			},
			{
				"x": 0.2556627294,
				"y": 1.1665200556,
				"z": -1.4848137077,
				"element": "H" 
			},
			{
				"x": 1.4848355076,
				"y": 1.6765993371,
				"z": -0.3062577056,
				"element": "H" 
			},
			{
				"x": -0.2191920008,
				"y": -0.8700850085,
				"z": -0.1413683966,
				"element": "H" 
			},
			{
				"x": 1.4416280263,
				"y": -0.0616919888,
				"z": 2.1342669601,
				"element": "H" 
			},
			{
				"x": 2.5332057194,
				"y": -3.2313136891,
				"z": 2.4390291739,
				"element": "H" 
			},
			{
				"x": 3.8389658553,
				"y": -2.3584259432,
				"z": 1.6160303932,
				"element": "H" 
			},
			{
				"x": -1.3598283876,
				"y": 0.0470372177,
				"z": 1.819250527,
				"element": "H" 
			},
			{
				"x": -0.9484491863,
				"y": 2.3222061248,
				"z": 2.7239692475,
				"element": "H" 
			},
			{
				"x": 0.3111568376,
				"y": 2.64618362,
				"z": 1.4488800981,
				"element": "H" 
			},
			{
				"x": -2.666748432,
				"y": 1.9259311998,
				"z": 0.8820007857,
				"element": "H" 
			},
			{
				"x": -1.3809339067,
				"y": 2.2609723562,
				"z": -0.3617323979,
				"element": "H" 
			}
		],
		 "valence_orbital": [ 
			{
				"type": "occ",
				"energy": -0.30923,
				"method": "rhf"
			},
			{
				"type": "occ",
				"energy": -0.30412,
				"method": "rhf"
			},
			{
				"type": "occ",
				"energy": -0.29531,
				"method": "rhf"
			},
			{
				"type": "occ",
				"energy": -0.25894,
				"method": "rhf"
			},
			{
				"type": "occ",
				"energy": -0.25214,
				"method": "rhf"
			},
			{
				"type": "unocc",
				"energy": 0.01591,
				"method": "rhf"
			},
			{
				"type": "unocc",
				"energy": 0.02146,
				"method": "rhf"
			},
			{
				"type": "unocc",
				"energy": 0.08607,
				"method": "rhf"
			},
			{
				"type": "unocc",
				"energy": 0.09068,
				"method": "rhf"
			},
			{
				"type": "unocc",
				"energy": 0.1025,
				"method": "rhf"
			}
		],
		"cosmo_sigma_profile": { 
			"-0.025": 0.0,
			"-0.024": 0.0,
			"-0.023": 0.0,
			"-0.022": 0.0,
			"-0.021": 0.0,
			"-0.02": 0.0,
			"-0.019": 0.0,
			"-0.018": 0.0,
			"-0.017": 0.0,
			"-0.016": 0.0,
			"-0.015": 0.0,
			"-0.014": 0.0,
			"-0.013": 0.0,
			"-0.012": 0.0,
			"-0.011": 0.0,
			"-0.01": 0.0,
			"-0.009": 2.25291319154,
			"-0.008": 4.91550275386,
			"-0.007": 4.82291279421,
			"-0.006": 5.2868022515,
			"-0.005": 9.6769148008,
			"-0.004": 20.1420198248,
			"-0.003": 21.7528266961,
			"-0.002": 20.4121721748,
			"-0.001": 21.1676191953,
			"0.0": 21.8045814445,
			"0.001": 16.5247741775,
			"0.002": 9.77701849727,
			"0.003": 9.17306387786,
			"0.004": 8.86490603358,
			"0.005": 9.42548471289,
			"0.006": 6.41135017248,
			"0.007": 1.46203068893,
			"0.008": 0.947567984257,
			"0.009": 1.13476546861,
			"0.01": 1.67069528794,
			"0.011": 1.36214227304,
			"0.012": 1.45963144041,
			"0.013": 4.68550442149,
			"0.014": 3.50987730645,
			"0.015": 0.196447296855,
			"0.016": 0.0,
			"0.017": 0.0,
			"0.018": 0.0,
			"0.019": 0.0,
			"0.02": 0.0,
			"0.021": 0.0,
			"0.022": 0.0,
			"0.023": 0.0,
			"0.024": 0.0,
			"0.025": 0.0
		}
	}
}
