{
	 "smiles": "ClC1=CC=C(CC2=CC=C(Cl)C=C2)C=C1", 
	 "Tm": 328.65, 
	 "num_atms": 25, 
	 "gaussian": { 
		 "optdone": 1, 
		 "sigma_profile": "yes", 
		 "theory": "DFT", 
		 "functional": "B3LYP", 
		 "basiset": "6-31G**", 
		 "properties": { 
			 "R2extent": 6669.1555, 
			 "electric_dipole_moment_norm": 2.08271676903, 
			 "electric_quadrupole_moment_norm": 18.3801305194, 
			 "total_energy": -1421.80569927, 
			 "HOMO_LUMO_gap": 0.21635, 
			 "cosmo_polarized_energy": -6.81, 
			 "cosmo_cavitation_energy": 33.03, 
			 "cosmo_dispersion_energy": -23.79, 
			 "cosmo_repulsion_energy": 1.88, 
			 "cosmo_total_nonelectrostatic_energy": 11.12, 
			 "SMD_solvation_energy": 4.73 
		},
		"coords": [
			{
				"x": 1.6863869094,
				"y": 4.5023365351,
				"z": 1.3799620853,
				"element": "Cl" 
			},
			{
				"x": 0.8656818924,
				"y": 2.9730991733,
				"z": 1.0938725002,
				"element": "C" 
			},
			{
				"x": 1.0480627311,
				"y": 2.3127935149,
				"z": -0.1221823761,
				"element": "C" 
			},
			{
				"x": 0.3963558599,
				"y": 1.1013446409,
				"z": -0.3409301356,
				"element": "C" 
			},
			{
				"x": -0.4389939234,
				"y": 0.5374800879,
				"z": 0.6344247847,
				"element": "C" 
			},
			{
				"x": -1.1655480412,
				"y": -0.7717438826,
				"z": 0.3738536234,
				"element": "C" 
			},
			{
				"x": -0.263409296,
				"y": -1.9292400455,
				"z": -0.021293807,
				"element": "C" 
			},
			{
				"x": 0.8074502288,
				"y": -2.3165867576,
				"z": 0.7974323522,
				"element": "C" 
			},
			{
				"x": 1.6260310399,
				"y": -3.3909832598,
				"z": 0.4571810758,
				"element": "C" 
			},
			{
				"x": 1.3737518559,
				"y": -4.09061447,
				"z": -0.7238953107,
				"element": "C" 
			},
			{
				"x": 2.4035566829,
				"y": -5.4473367859,
				"z": -1.1629628336,
				"element": "Cl" 
			},
			{
				"x": 0.3206538049,
				"y": -3.7282993136,
				"z": -1.559425037,
				"element": "C" 
			},
			{
				"x": -0.4892219939,
				"y": -2.6487678671,
				"z": -1.1996624455,
				"element": "C" 
			},
			{
				"x": -0.5997835183,
				"y": 1.2221413812,
				"z": 1.843828832,
				"element": "C" 
			},
			{
				"x": 0.0456781673,
				"y": 2.4373505016,
				"z": 2.0833031522,
				"element": "C" 
			},
			{
				"x": 1.6913136726,
				"y": 2.7422282002,
				"z": -0.8823990338,
				"element": "H" 
			},
			{
				"x": 0.5455307118,
				"y": 0.5826948654,
				"z": -1.284056728,
				"element": "H" 
			},
			{
				"x": -1.9111213698,
				"y": -0.6220339391,
				"z": -0.4169387073,
				"element": "H" 
			},
			{
				"x": -1.7322370627,
				"y": -1.0436484707,
				"z": 1.2730623342,
				"element": "H" 
			},
			{
				"x": 1.0093782639,
				"y": -1.7660953414,
				"z": 1.7122689983,
				"element": "H" 
			},
			{
				"x": 2.4512376211,
				"y": -3.6844331161,
				"z": 1.0967409818,
				"element": "H" 
			},
			{
				"x": 0.1371108412,
				"y": -4.278700409,
				"z": -2.475605988,
				"element": "H" 
			},
			{
				"x": -1.3129895493,
				"y": -2.3676657792,
				"z": -1.8509292053,
				"element": "H" 
			},
			{
				"x": -1.2419533724,
				"y": 0.8052637252,
				"z": 2.6155696925,
				"element": "H" 
			},
			{
				"x": -0.0854221562,
				"y": 2.9593168119,
				"z": 3.0247811952,
				"element": "H" 
			}
		],
		 "valence_orbital": [ 
			{
				"type": "occ",
				"energy": -0.3127,
				"method": "rhf"
			},
			{
				"type": "occ",
				"energy": -0.26712,
				"method": "rhf"
			},
			{
				"type": "occ",
				"energy": -0.26497,
				"method": "rhf"
			},
			{
				"type": "occ",
				"energy": -0.24956,
				"method": "rhf"
			},
			{
				"type": "occ",
				"energy": -0.23803,
				"method": "rhf"
			},
			{
				"type": "unocc",
				"energy": -0.02168,
				"method": "rhf"
			},
			{
				"type": "unocc",
				"energy": -0.0192,
				"method": "rhf"
			},
			{
				"type": "unocc",
				"energy": -0.0185,
				"method": "rhf"
			},
			{
				"type": "unocc",
				"energy": -0.00675,
				"method": "rhf"
			},
			{
				"type": "unocc",
				"energy": 0.02883,
				"method": "rhf"
			}
		],
		"cosmo_sigma_profile": { 
			"-0.025": 0.0,
			"-0.024": 0.0,
			"-0.023": 0.0,
			"-0.022": 0.0,
			"-0.021": 0.0,
			"-0.02": 0.0,
			"-0.019": 0.0,
			"-0.018": 0.0,
			"-0.017": 0.0,
			"-0.016": 0.0,
			"-0.015": 0.0,
			"-0.014": 0.0,
			"-0.013": 0.0,
			"-0.012": 0.0,
			"-0.011": 0.0,
			"-0.01": 0.0,
			"-0.009": 0.0,
			"-0.008": 0.0712116742619,
			"-0.007": 5.93967307518,
			"-0.006": 16.4349616512,
			"-0.005": 21.3457851787,
			"-0.004": 18.6363915857,
			"-0.003": 17.0508674006,
			"-0.002": 17.0701227514,
			"-0.001": 17.6837193585,
			"0.0": 18.1252452606,
			"0.001": 19.64967063,
			"0.002": 29.155108152,
			"0.003": 29.8782371073,
			"0.004": 37.214787341,
			"0.005": 19.9985353714,
			"0.006": 0.874606989102,
			"0.007": 0.0,
			"0.008": 0.0,
			"0.009": 0.0,
			"0.01": 0.0,
			"0.011": 0.0,
			"0.012": 0.0,
			"0.013": 0.0,
			"0.014": 0.0,
			"0.015": 0.0,
			"0.016": 0.0,
			"0.017": 0.0,
			"0.018": 0.0,
			"0.019": 0.0,
			"0.02": 0.0,
			"0.021": 0.0,
			"0.022": 0.0,
			"0.023": 0.0,
			"0.024": 0.0,
			"0.025": 0.0
		}
	}
}
