{
	 "smiles": "COC(=O)C1=C(N)C(=CS1)C#N", 
	 "Tm": 423.15, 
	 "num_atms": 18, 
	 "gaussian": { 
		 "optdone": 1, 
		 "sigma_profile": "yes", 
		 "theory": "DFT", 
		 "functional": "B3LYP", 
		 "basiset": "6-31G**", 
		 "properties": { 
			 "R2extent": 2620.5557, 
			 "electric_dipole_moment_norm": 2.5317123316, 
			 "electric_quadrupole_moment_norm": 23.2726841458, 
			 "total_energy": -928.483773686, 
			 "HOMO_LUMO_gap": 0.16057, 
			 "cosmo_polarized_energy": -13.99, 
			 "cosmo_cavitation_energy": 25.42, 
			 "cosmo_dispersion_energy": -18.78, 
			 "cosmo_repulsion_energy": 1.46, 
			 "cosmo_total_nonelectrostatic_energy": 8.1, 
			 "SMD_solvation_energy": 7.17 
		},
		"coords": [
			{
				"x": -1.3308112783,
				"y": -3.2153437411,
				"z": -1.1841195026,
				"element": "C" 
			},
			{
				"x": -0.6328039908,
				"y": -1.9629101922,
				"z": -1.0685847612,
				"element": "O" 
			},
			{
				"x": -1.2914567308,
				"y": -1.0029981943,
				"z": -0.3491894072,
				"element": "C" 
			},
			{
				"x": -2.3837742729,
				"y": -1.1906699912,
				"z": 0.1554005036,
				"element": "O" 
			},
			{
				"x": -0.5372274945,
				"y": 0.2349124142,
				"z": -0.2688356687,
				"element": "C" 
			},
			{
				"x": 0.7085873582,
				"y": 0.5692265897,
				"z": -0.7979159162,
				"element": "C" 
			},
			{
				"x": 1.5170022197,
				"y": -0.2305091448,
				"z": -1.5346838926,
				"element": "N" 
			},
			{
				"x": 1.065672314,
				"y": 1.9317933668,
				"z": -0.459391022,
				"element": "C" 
			},
			{
				"x": 0.1023104806,
				"y": 2.5656972184,
				"z": 0.2950253354,
				"element": "C" 
			},
			{
				"x": -1.2478617123,
				"y": 1.5687941225,
				"z": 0.6228351518,
				"element": "S" 
			},
			{
				"x": 2.2919032452,
				"y": 2.5160975303,
				"z": -0.8813914446,
				"element": "C" 
			},
			{
				"x": 3.3113323497,
				"y": 2.9357117704,
				"z": -1.2578275186,
				"element": "N" 
			},
			{
				"x": -0.6816518203,
				"y": -3.8602013168,
				"z": -1.7765531904,
				"element": "H" 
			},
			{
				"x": -1.5060036098,
				"y": -3.6494740981,
				"z": -0.1971099455,
				"element": "H" 
			},
			{
				"x": -2.2918009529,
				"y": -3.0743819384,
				"z": -1.6840983023,
				"element": "H" 
			},
			{
				"x": 2.4022647477,
				"y": 0.1116717509,
				"z": -1.8704736513,
				"element": "H" 
			},
			{
				"x": 1.2186934653,
				"y": -1.1699992481,
				"z": -1.7409298809,
				"element": "H" 
			},
			{
				"x": 0.1457256822,
				"y": 3.5807831019,
				"z": 0.6648431132,
				"element": "H" 
			}
		],
		 "valence_orbital": [ 
			{
				"type": "occ",
				"energy": -0.34224,
				"method": "rhf"
			},
			{
				"type": "occ",
				"energy": -0.31,
				"method": "rhf"
			},
			{
				"type": "occ",
				"energy": -0.28337,
				"method": "rhf"
			},
			{
				"type": "occ",
				"energy": -0.26214,
				"method": "rhf"
			},
			{
				"type": "occ",
				"energy": -0.22484,
				"method": "rhf"
			},
			{
				"type": "unocc",
				"energy": -0.06427,
				"method": "rhf"
			},
			{
				"type": "unocc",
				"energy": -0.01697,
				"method": "rhf"
			},
			{
				"type": "unocc",
				"energy": -0.00356,
				"method": "rhf"
			},
			{
				"type": "unocc",
				"energy": 0.03852,
				"method": "rhf"
			},
			{
				"type": "unocc",
				"energy": 0.07333,
				"method": "rhf"
			}
		],
		"cosmo_sigma_profile": { 
			"-0.025": 0.0,
			"-0.024": 0.0,
			"-0.023": 0.0,
			"-0.022": 0.0,
			"-0.021": 0.0,
			"-0.02": 0.0,
			"-0.019": 0.0,
			"-0.018": 0.0,
			"-0.017": 0.0,
			"-0.016": 0.0,
			"-0.015": 0.0691463567327,
			"-0.014": 0.586844039761,
			"-0.013": 1.04898724788,
			"-0.012": 1.44821091461,
			"-0.011": 3.85730880537,
			"-0.01": 5.12990394014,
			"-0.009": 3.54193648738,
			"-0.008": 4.31660237124,
			"-0.007": 3.5369728062,
			"-0.006": 8.87770429217,
			"-0.005": 10.5724382409,
			"-0.004": 12.5399656421,
			"-0.003": 13.9452721456,
			"-0.002": 12.9740763996,
			"-0.001": 15.0817629261,
			"0.0": 20.1799127135,
			"0.001": 19.8856384748,
			"0.002": 15.2265084994,
			"0.003": 8.75068705926,
			"0.004": 5.05589261712,
			"0.005": 4.56435688494,
			"0.006": 4.09778324558,
			"0.007": 3.60776578962,
			"0.008": 5.25352163952,
			"0.009": 4.08176499122,
			"0.01": 4.59082945371,
			"0.011": 5.15476905831,
			"0.012": 7.18474585337,
			"0.013": 1.88976958998,
			"0.014": 0.0,
			"0.015": 0.0,
			"0.016": 0.0,
			"0.017": 0.0,
			"0.018": 0.0,
			"0.019": 0.0,
			"0.02": 0.0,
			"0.021": 0.0,
			"0.022": 0.0,
			"0.023": 0.0,
			"0.024": 0.0,
			"0.025": 0.0
		}
	}
}
