{
	 "smiles": "OC(=O)C1=C(COC2=C(C=CC=C2)C(O)=O)C=CC=C1", 
	 "Tm": 473.15, 
	 "num_atms": 32, 
	 "gaussian": { 
		 "optdone": 1, 
		 "sigma_profile": "yes", 
		 "theory": "DFT", 
		 "functional": "B3LYP", 
		 "basiset": "6-31G**", 
		 "properties": { 
			 "R2extent": 6418.1569, 
			 "electric_dipole_moment_norm": 6.10433656756, 
			 "electric_quadrupole_moment_norm": 32.5239225746, 
			 "total_energy": -954.961606952, 
			 "HOMO_LUMO_gap": 0.19344, 
			 "cosmo_polarized_energy": -20.35, 
			 "cosmo_cavitation_energy": 35.91, 
			 "cosmo_dispersion_energy": -25.07, 
			 "cosmo_repulsion_energy": 1.87, 
			 "cosmo_total_nonelectrostatic_energy": 12.71, 
			 "SMD_solvation_energy": 7.85 
		},
		"coords": [
			{
				"x": 1.1616517816,
				"y": -2.3231684603,
				"z": 0.5372929891,
				"element": "O" 
			},
			{
				"x": 1.1459651093,
				"y": -1.0216195052,
				"z": 0.1767844527,
				"element": "C" 
			},
			{
				"x": 1.8400258411,
				"y": -0.6210501845,
				"z": -0.7300481946,
				"element": "O" 
			},
			{
				"x": 0.2821209446,
				"y": -0.1056063845,
				"z": 1.0061224774,
				"element": "C" 
			},
			{
				"x": -0.6109731259,
				"y": 0.8012402987,
				"z": 0.3969751291,
				"element": "C" 
			},
			{
				"x": -0.8855002901,
				"y": 0.7133718502,
				"z": -1.0840306618,
				"element": "C" 
			},
			{
				"x": -1.5880999933,
				"y": -0.5411738587,
				"z": -1.2866987269,
				"element": "O" 
			},
			{
				"x": -1.4595987839,
				"y": -1.2371112611,
				"z": -2.4688458011,
				"element": "C" 
			},
			{
				"x": -1.5156578483,
				"y": -2.6460712953,
				"z": -2.3992400889,
				"element": "C" 
			},
			{
				"x": -1.4397367086,
				"y": -3.3696326084,
				"z": -3.5974005716,
				"element": "C" 
			},
			{
				"x": -1.3043492369,
				"y": -2.7287121971,
				"z": -4.8245423185,
				"element": "C" 
			},
			{
				"x": -1.2384918593,
				"y": -1.3347990644,
				"z": -4.8689647196,
				"element": "C" 
			},
			{
				"x": -1.3189192005,
				"y": -0.5858123886,
				"z": -3.6954090848,
				"element": "C" 
			},
			{
				"x": -1.5950547548,
				"y": -3.4532608581,
				"z": -1.129730877,
				"element": "C" 
			},
			{
				"x": -1.7025434426,
				"y": -2.772473455,
				"z": 0.0419425959,
				"element": "O" 
			},
			{
				"x": -1.5518750267,
				"y": -4.6621372307,
				"z": -1.126494363,
				"element": "O" 
			},
			{
				"x": -1.3149251148,
				"y": 1.6999608531,
				"z": 1.1992222986,
				"element": "C" 
			},
			{
				"x": -1.129188049,
				"y": 1.7252116364,
				"z": 2.5843303229,
				"element": "C" 
			},
			{
				"x": -0.2544238332,
				"y": 0.8214431839,
				"z": 3.1834847055,
				"element": "C" 
			},
			{
				"x": 0.4406249073,
				"y": -0.0991134094,
				"z": 2.3958026727,
				"element": "C" 
			},
			{
				"x": 0.3402687428,
				"y": -2.5564887204,
				"z": 1.002993691,
				"element": "H" 
			},
			{
				"x": -1.5228236677,
				"y": 1.5399034216,
				"z": -1.4143692343,
				"element": "H" 
			},
			{
				"x": 0.040039779,
				"y": 0.700394858,
				"z": -1.6636910953,
				"element": "H" 
			},
			{
				"x": -1.4750496132,
				"y": -4.4511518358,
				"z": -3.5252700937,
				"element": "H" 
			},
			{
				"x": -1.2435938923,
				"y": -3.3097378115,
				"z": -5.7389886111,
				"element": "H" 
			},
			{
				"x": -1.1296448394,
				"y": -0.8218729472,
				"z": -5.8200488539,
				"element": "H" 
			},
			{
				"x": -1.2841797523,
				"y": 0.4973736792,
				"z": -3.7337654883,
				"element": "H" 
			},
			{
				"x": -1.7866488829,
				"y": -1.8168164845,
				"z": -0.1593571573,
				"element": "H" 
			},
			{
				"x": -2.0224381047,
				"y": 2.3828876076,
				"z": 0.7364738375,
				"element": "H" 
			},
			{
				"x": -1.6780763874,
				"y": 2.4392218198,
				"z": 3.1907115603,
				"element": "H" 
			},
			{
				"x": -0.1119257256,
				"y": 0.827983867,
				"z": 4.2597639398,
				"element": "H" 
			},
			{
				"x": 1.1287210275,
				"y": -0.8012831147,
				"z": 2.8572952694,
				"element": "H" 
			}
		],
		 "valence_orbital": [ 
			{
				"type": "occ",
				"energy": -0.27973,
				"method": "rhf"
			},
			{
				"type": "occ",
				"energy": -0.27018,
				"method": "rhf"
			},
			{
				"type": "occ",
				"energy": -0.26812,
				"method": "rhf"
			},
			{
				"type": "occ",
				"energy": -0.26596,
				"method": "rhf"
			},
			{
				"type": "occ",
				"energy": -0.24704,
				"method": "rhf"
			},
			{
				"type": "unocc",
				"energy": -0.0536,
				"method": "rhf"
			},
			{
				"type": "unocc",
				"energy": -0.04861,
				"method": "rhf"
			},
			{
				"type": "unocc",
				"energy": -0.03389,
				"method": "rhf"
			},
			{
				"type": "unocc",
				"energy": -0.00905,
				"method": "rhf"
			},
			{
				"type": "unocc",
				"energy": 0.01826,
				"method": "rhf"
			}
		],
		"cosmo_sigma_profile": { 
			"-0.025": 0.0,
			"-0.024": 0.0,
			"-0.023": 0.0,
			"-0.022": 0.0,
			"-0.021": 0.0,
			"-0.02": 0.0,
			"-0.019": 0.0,
			"-0.018": 0.0,
			"-0.017": 0.0,
			"-0.016": 0.0,
			"-0.015": 0.109779245402,
			"-0.014": 0.583022833844,
			"-0.013": 0.524073717916,
			"-0.012": 0.45860973386,
			"-0.011": 1.09781677245,
			"-0.01": 1.13786687133,
			"-0.009": 0.617736805662,
			"-0.008": 6.51643836545,
			"-0.007": 19.4172804059,
			"-0.006": 23.796263113,
			"-0.005": 22.6989048826,
			"-0.004": 17.8434777237,
			"-0.003": 16.1957531145,
			"-0.002": 13.9094773121,
			"-0.001": 15.0967107634,
			"0.0": 17.1543310376,
			"0.001": 20.9897614407,
			"0.002": 24.0812049817,
			"0.003": 24.8213444449,
			"0.004": 9.93263284434,
			"0.005": 5.3367628234,
			"0.006": 2.82104372228,
			"0.007": 4.70421839467,
			"0.008": 5.71030863811,
			"0.009": 5.74680851903,
			"0.01": 7.08142813908,
			"0.011": 9.54739158607,
			"0.012": 7.57105739802,
			"0.013": 2.39252365318,
			"0.014": 0.204264403011,
			"0.015": 0.0,
			"0.016": 0.0,
			"0.017": 0.0,
			"0.018": 0.0,
			"0.019": 0.0,
			"0.02": 0.0,
			"0.021": 0.0,
			"0.022": 0.0,
			"0.023": 0.0,
			"0.024": 0.0,
			"0.025": 0.0
		}
	}
}
