{
	 "smiles": "C=CC#CC=C", 
	 "Tm": 185.15, 
	 "num_atms": 12, 
	 "gaussian": { 
		 "optdone": 1, 
		 "sigma_profile": "yes", 
		 "theory": "DFT", 
		 "functional": "B3LYP", 
		 "basiset": "6-31G**", 
		 "properties": { 
			 "R2extent": 912.2428, 
			 "electric_dipole_moment_norm": 0.0296791172375, 
			 "electric_quadrupole_moment_norm": 6.02150634642, 
			 "total_energy": -232.145575945, 
			 "HOMO_LUMO_gap": 0.20997, 
			 "cosmo_polarized_energy": -3.72, 
			 "cosmo_cavitation_energy": 17.68, 
			 "cosmo_dispersion_energy": -12.16, 
			 "cosmo_repulsion_energy": 1.08, 
			 "cosmo_total_nonelectrostatic_energy": 6.59, 
			 "SMD_solvation_energy": 5.0 
		},
		"coords": [
			{
				"x": -0.3365278518,
				"y": 2.4996860191,
				"z": 1.5618375734,
				"element": "C" 
			},
			{
				"x": -0.9445086844,
				"y": 1.9496090916,
				"z": 0.4997257949,
				"element": "C" 
			},
			{
				"x": -0.7535138524,
				"y": 0.6106146093,
				"z": 0.0588544755,
				"element": "C" 
			},
			{
				"x": -0.6111442225,
				"y": -0.5214176842,
				"z": -0.365021466,
				"element": "C" 
			},
			{
				"x": -0.4781824641,
				"y": -1.8650664442,
				"z": -0.8129540259,
				"element": "C" 
			},
			{
				"x": 0.4335413205,
				"y": -2.2888562489,
				"z": -1.7014613394,
				"element": "C" 
			},
			{
				"x": 0.3638368683,
				"y": 1.9385672649,
				"z": 2.1719569791,
				"element": "H" 
			},
			{
				"x": -0.530897713,
				"y": 3.529943461,
				"z": 1.8412460306,
				"element": "H" 
			},
			{
				"x": -1.6415054252,
				"y": 2.5507803595,
				"z": -0.0848041147,
				"element": "H" 
			},
			{
				"x": -1.18118426,
				"y": -2.5824210091,
				"z": -0.3886037836,
				"element": "H" 
			},
			{
				"x": 0.4769617884,
				"y": -3.3315587879,
				"z": -1.9983853315,
				"element": "H" 
			},
			{
				"x": 1.1521244963,
				"y": -1.6099806311,
				"z": -2.1490907923,
				"element": "H" 
			}
		],
		 "valence_orbital": [ 
			{
				"type": "occ",
				"energy": -0.37563,
				"method": "rhf"
			},
			{
				"type": "occ",
				"energy": -0.32748,
				"method": "rhf"
			},
			{
				"type": "occ",
				"energy": -0.32696,
				"method": "rhf"
			},
			{
				"type": "occ",
				"energy": -0.23533,
				"method": "rhf"
			},
			{
				"type": "occ",
				"energy": -0.23489,
				"method": "rhf"
			},
			{
				"type": "unocc",
				"energy": -0.02492,
				"method": "rhf"
			},
			{
				"type": "unocc",
				"energy": -0.02422,
				"method": "rhf"
			},
			{
				"type": "unocc",
				"energy": 0.10278,
				"method": "rhf"
			},
			{
				"type": "unocc",
				"energy": 0.10313,
				"method": "rhf"
			},
			{
				"type": "unocc",
				"energy": 0.14281,
				"method": "rhf"
			}
		],
		"cosmo_sigma_profile": { 
			"-0.025": 0.0,
			"-0.024": 0.0,
			"-0.023": 0.0,
			"-0.022": 0.0,
			"-0.021": 0.0,
			"-0.02": 0.0,
			"-0.019": 0.0,
			"-0.018": 0.0,
			"-0.017": 0.0,
			"-0.016": 0.0,
			"-0.015": 0.0,
			"-0.014": 0.0,
			"-0.013": 0.0,
			"-0.012": 0.0,
			"-0.011": 0.0,
			"-0.01": 0.0,
			"-0.009": 0.0,
			"-0.008": 0.0331535831464,
			"-0.007": 3.51528688412,
			"-0.006": 10.1338100905,
			"-0.005": 10.7305396327,
			"-0.004": 10.7590742923,
			"-0.003": 10.5938962389,
			"-0.002": 10.4614875657,
			"-0.001": 9.87977174496,
			"0.0": 8.84672724096,
			"0.001": 8.90195731818,
			"0.002": 10.7714553408,
			"0.003": 10.5322418736,
			"0.004": 14.096192888,
			"0.005": 15.9634651064,
			"0.006": 7.39937377055,
			"0.007": 0.15143574602,
			"0.008": 0.0,
			"0.009": 0.0,
			"0.01": 0.0,
			"0.011": 0.0,
			"0.012": 0.0,
			"0.013": 0.0,
			"0.014": 0.0,
			"0.015": 0.0,
			"0.016": 0.0,
			"0.017": 0.0,
			"0.018": 0.0,
			"0.019": 0.0,
			"0.02": 0.0,
			"0.021": 0.0,
			"0.022": 0.0,
			"0.023": 0.0,
			"0.024": 0.0,
			"0.025": 0.0
		}
	}
}
