{
	 "smiles": "NC(CC=C)C(O)=O", 
	 "Tm": 527.15, 
	 "num_atms": 17, 
	 "gaussian": { 
		 "optdone": 1, 
		 "sigma_profile": "yes", 
		 "theory": "DFT", 
		 "functional": "B3LYP", 
		 "basiset": "6-31G**", 
		 "properties": { 
			 "R2extent": 1392.3101, 
			 "electric_dipole_moment_norm": 5.07147944194, 
			 "electric_quadrupole_moment_norm": 12.9364811518, 
			 "total_energy": -401.142908197, 
			 "HOMO_LUMO_gap": 0.2514, 
			 "cosmo_polarized_energy": -14.02, 
			 "cosmo_cavitation_energy": 20.46, 
			 "cosmo_dispersion_energy": -14.68, 
			 "cosmo_repulsion_energy": 1.25, 
			 "cosmo_total_nonelectrostatic_energy": 7.02, 
			 "SMD_solvation_energy": 4.76 
		},
		"coords": [
			{
				"x": 0.8055772007,
				"y": -0.5843521321,
				"z": 2.7950035678,
				"element": "N" 
			},
			{
				"x": 0.3315469708,
				"y": 0.6984768261,
				"z": 2.2466458055,
				"element": "C" 
			},
			{
				"x": 1.272480329,
				"y": 1.4232847239,
				"z": 1.2571742611,
				"element": "C" 
			},
			{
				"x": 1.7665525539,
				"y": 0.5385620833,
				"z": 0.1367617587,
				"element": "C" 
			},
			{
				"x": 1.1716633579,
				"y": 0.4230951527,
				"z": -1.052297915,
				"element": "C" 
			},
			{
				"x": -1.0677284439,
				"y": 0.4789173637,
				"z": 1.6215287625,
				"element": "C" 
			},
			{
				"x": -1.6695975337,
				"y": -0.6408370973,
				"z": 2.0433947529,
				"element": "O" 
			},
			{
				"x": -1.5856497043,
				"y": 1.265243247,
				"z": 0.8618078741,
				"element": "O" 
			},
			{
				"x": 1.2927377338,
				"y": -1.1155719157,
				"z": 2.0765024297,
				"element": "H" 
			},
			{
				"x": 1.4517538443,
				"y": -0.4463843937,
				"z": 3.5657058993,
				"element": "H" 
			},
			{
				"x": 0.1541407719,
				"y": 1.36467031,
				"z": 3.1013691825,
				"element": "H" 
			},
			{
				"x": 2.125384251,
				"y": 1.8258788532,
				"z": 1.8171670147,
				"element": "H" 
			},
			{
				"x": 0.7125274643,
				"y": 2.2692856778,
				"z": 0.8499234083,
				"element": "H" 
			},
			{
				"x": 2.6662261324,
				"y": -0.0462464525,
				"z": 0.3337635282,
				"element": "H" 
			},
			{
				"x": 1.5604228943,
				"y": -0.2394787566,
				"z": -1.8204014719,
				"element": "H" 
			},
			{
				"x": 0.2734947316,
				"y": 0.9856779045,
				"z": -1.2918771865,
				"element": "H" 
			},
			{
				"x": -0.9989325539,
				"y": -1.0818213942,
				"z": 2.6179283281,
				"element": "H" 
			}
		],
		 "valence_orbital": [ 
			{
				"type": "occ",
				"energy": -0.34351,
				"method": "rhf"
			},
			{
				"type": "occ",
				"energy": -0.29976,
				"method": "rhf"
			},
			{
				"type": "occ",
				"energy": -0.29491,
				"method": "rhf"
			},
			{
				"type": "occ",
				"energy": -0.26653,
				"method": "rhf"
			},
			{
				"type": "occ",
				"energy": -0.25008,
				"method": "rhf"
			},
			{
				"type": "unocc",
				"energy": 0.00132,
				"method": "rhf"
			},
			{
				"type": "unocc",
				"energy": 0.01586,
				"method": "rhf"
			},
			{
				"type": "unocc",
				"energy": 0.07377,
				"method": "rhf"
			},
			{
				"type": "unocc",
				"energy": 0.10243,
				"method": "rhf"
			},
			{
				"type": "unocc",
				"energy": 0.11238,
				"method": "rhf"
			}
		],
		"cosmo_sigma_profile": { 
			"-0.025": 0.0,
			"-0.024": 0.0,
			"-0.023": 0.0,
			"-0.022": 0.0,
			"-0.021": 0.0,
			"-0.02": 0.0,
			"-0.019": 0.0,
			"-0.018": 0.0,
			"-0.017": 0.0,
			"-0.016": 0.0,
			"-0.015": 0.0,
			"-0.014": 0.0,
			"-0.013": 0.0200532589729,
			"-0.012": 1.17370523016,
			"-0.011": 1.74255859402,
			"-0.01": 3.29240947861,
			"-0.009": 3.8347829692,
			"-0.008": 4.67682247444,
			"-0.007": 7.64156882031,
			"-0.006": 7.31024968523,
			"-0.005": 10.4996354845,
			"-0.004": 12.3901732483,
			"-0.003": 10.9804292312,
			"-0.002": 10.3910975779,
			"-0.001": 10.0208585119,
			"0.0": 10.0437837164,
			"0.001": 7.46215511881,
			"0.002": 7.33856482025,
			"0.003": 8.04608862786,
			"0.004": 7.35728217241,
			"0.005": 4.95777394725,
			"0.006": 4.3421654911,
			"0.007": 3.50945309061,
			"0.008": 2.94979800483,
			"0.009": 3.19984178253,
			"0.01": 3.63035767193,
			"0.011": 5.37726279573,
			"0.012": 4.42772085787,
			"0.013": 2.75324871563,
			"0.014": 0.900636718954,
			"0.015": 0.0,
			"0.016": 0.0,
			"0.017": 0.0,
			"0.018": 0.0,
			"0.019": 0.0,
			"0.02": 0.0,
			"0.021": 0.0,
			"0.022": 0.0,
			"0.023": 0.0,
			"0.024": 0.0,
			"0.025": 0.0
		}
	}
}
