{
	 "smiles": "CC1=CC(=CC(=C1)N(=O)=O)N(=O)=O", 
	 "Tm": 366.15, 
	 "num_atms": 19, 
	 "gaussian": { 
		 "optdone": 1, 
		 "sigma_profile": "yes", 
		 "theory": "DFT", 
		 "functional": "B3LYP", 
		 "basiset": "6-31G**", 
		 "properties": { 
			 "R2extent": 3625.5091, 
			 "electric_dipole_moment_norm": 4.84582735351, 
			 "electric_quadrupole_moment_norm": 14.5599302241, 
			 "total_energy": -680.561375358, 
			 "HOMO_LUMO_gap": 0.18278, 
			 "cosmo_polarized_energy": -11.27, 
			 "cosmo_cavitation_energy": 25.17, 
			 "cosmo_dispersion_energy": -18.26, 
			 "cosmo_repulsion_energy": 1.44, 
			 "cosmo_total_nonelectrostatic_energy": 8.36, 
			 "SMD_solvation_energy": 9.04 
		},
		"coords": [
			{
				"x": -1.5099945863,
				"y": 1.8658702848,
				"z": -0.8726797694,
				"element": "C" 
			},
			{
				"x": -0.3772958147,
				"y": 0.8873924372,
				"z": -1.0676388152,
				"element": "C" 
			},
			{
				"x": 0.7007335455,
				"y": 0.8497814213,
				"z": -0.1747241265,
				"element": "C" 
			},
			{
				"x": 1.7497647717,
				"y": -0.0423858295,
				"z": -0.3868171011,
				"element": "C" 
			},
			{
				"x": 1.7812381406,
				"y": -0.9201275971,
				"z": -1.463418514,
				"element": "C" 
			},
			{
				"x": 0.7007158849,
				"y": -0.8685302196,
				"z": -2.3353678656,
				"element": "C" 
			},
			{
				"x": -0.3670259095,
				"y": 0.0089179428,
				"z": -2.1580743079,
				"element": "C" 
			},
			{
				"x": 0.6839206522,
				"y": -1.7853557768,
				"z": -3.4934104701,
				"element": "N" 
			},
			{
				"x": -0.284425468,
				"y": -1.7254800236,
				"z": -4.2485078933,
				"element": "O" 
			},
			{
				"x": 1.6380422324,
				"y": -2.5473240825,
				"z": -3.6255124927,
				"element": "O" 
			},
			{
				"x": 2.8728721993,
				"y": -0.0615562831,
				"z": 0.5724015339,
				"element": "N" 
			},
			{
				"x": 2.821681838,
				"y": 0.7209944666,
				"z": 1.5192051274,
				"element": "O" 
			},
			{
				"x": 3.7849790074,
				"y": -0.8560007484,
				"z": 0.359546912,
				"element": "O" 
			},
			{
				"x": -1.6604202689,
				"y": 2.0942532065,
				"z": 0.1857056876,
				"element": "H" 
			},
			{
				"x": -2.4474860505,
				"y": 1.4744013741,
				"z": -1.2762061798,
				"element": "H" 
			},
			{
				"x": -1.2993389921,
				"y": 2.8111291242,
				"z": -1.3868766278,
				"element": "H" 
			},
			{
				"x": 0.7390831126,
				"y": 1.5038439841,
				"z": 0.6885012222,
				"element": "H" 
			},
			{
				"x": 2.6007764915,
				"y": -1.6091394721,
				"z": -1.6124866769,
				"element": "H" 
			},
			{
				"x": -1.1794207864,
				"y": -0.006984209,
				"z": -2.8751396428,
				"element": "H" 
			}
		],
		 "valence_orbital": [ 
			{
				"type": "occ",
				"energy": -0.32024,
				"method": "rhf"
			},
			{
				"type": "occ",
				"energy": -0.30874,
				"method": "rhf"
			},
			{
				"type": "occ",
				"energy": -0.30791,
				"method": "rhf"
			},
			{
				"type": "occ",
				"energy": -0.30682,
				"method": "rhf"
			},
			{
				"type": "occ",
				"energy": -0.2943,
				"method": "rhf"
			},
			{
				"type": "unocc",
				"energy": -0.11152,
				"method": "rhf"
			},
			{
				"type": "unocc",
				"energy": -0.10104,
				"method": "rhf"
			},
			{
				"type": "unocc",
				"energy": -0.03403,
				"method": "rhf"
			},
			{
				"type": "unocc",
				"energy": -0.00777,
				"method": "rhf"
			},
			{
				"type": "unocc",
				"energy": 0.06534,
				"method": "rhf"
			}
		],
		"cosmo_sigma_profile": { 
			"-0.025": 0.0,
			"-0.024": 0.0,
			"-0.023": 0.0,
			"-0.022": 0.0,
			"-0.021": 0.0,
			"-0.02": 0.0,
			"-0.019": 0.0,
			"-0.018": 0.0,
			"-0.017": 0.0,
			"-0.016": 0.0,
			"-0.015": 0.0,
			"-0.014": 0.0,
			"-0.013": 0.0,
			"-0.012": 0.0,
			"-0.011": 0.0,
			"-0.01": 0.0,
			"-0.009": 0.305790123563,
			"-0.008": 4.25068800663,
			"-0.007": 7.93954899083,
			"-0.006": 10.0696773912,
			"-0.005": 15.1774970963,
			"-0.004": 15.5725816767,
			"-0.003": 23.4056182657,
			"-0.002": 25.9340114715,
			"-0.001": 19.0860586671,
			"0.0": 7.02763741336,
			"0.001": 4.68172591555,
			"0.002": 4.65692299017,
			"0.003": 4.86438897769,
			"0.004": 4.81481792606,
			"0.005": 6.87205121642,
			"0.006": 10.4326088177,
			"0.007": 18.4744734724,
			"0.008": 9.98938435348,
			"0.009": 6.98809004915,
			"0.01": 1.40328328547,
			"0.011": 0.0,
			"0.012": 0.0,
			"0.013": 0.0,
			"0.014": 0.0,
			"0.015": 0.0,
			"0.016": 0.0,
			"0.017": 0.0,
			"0.018": 0.0,
			"0.019": 0.0,
			"0.02": 0.0,
			"0.021": 0.0,
			"0.022": 0.0,
			"0.023": 0.0,
			"0.024": 0.0,
			"0.025": 0.0
		}
	}
}
