{
	 "smiles": "CC(=O)CS", 
	 "Tm": 331.15, 
	 "num_atms": 11, 
	 "gaussian": { 
		 "optdone": 1, 
		 "sigma_profile": "yes", 
		 "theory": "DFT", 
		 "functional": "B3LYP", 
		 "basiset": "6-31G**", 
		 "properties": { 
			 "R2extent": 1125.1948, 
			 "electric_dipole_moment_norm": 1.76411187287, 
			 "electric_quadrupole_moment_norm": 5.92136773305, 
			 "total_energy": -591.340913202, 
			 "HOMO_LUMO_gap": 0.2085, 
			 "cosmo_polarized_energy": -7.97, 
			 "cosmo_cavitation_energy": 16.4, 
			 "cosmo_dispersion_energy": -12.39, 
			 "cosmo_repulsion_energy": 1.06, 
			 "cosmo_total_nonelectrostatic_energy": 5.07, 
			 "SMD_solvation_energy": 3.37 
		},
		"coords": [
			{
				"x": 0.6566800788,
				"y": -0.1540460144,
				"z": -0.01489162,
				"element": "C" 
			},
			{
				"x": -0.0656751346,
				"y": 0.6191798771,
				"z": 1.069042091,
				"element": "C" 
			},
			{
				"x": -1.0568297972,
				"y": 0.1959059402,
				"z": 1.6316452979,
				"element": "O" 
			},
			{
				"x": 0.4948565298,
				"y": 1.9912966463,
				"z": 1.4376500039,
				"element": "C" 
			},
			{
				"x": -0.0967339445,
				"y": 3.2785068055,
				"z": 0.2535992662,
				"element": "S" 
			},
			{
				"x": 0.8373593853,
				"y": 0.4783501151,
				"z": -0.8896011965,
				"element": "H" 
			},
			{
				"x": 0.0710828444,
				"y": -1.0296062433,
				"z": -0.2974103906,
				"element": "H" 
			},
			{
				"x": 1.6351254615,
				"y": -0.4806625162,
				"z": 0.3590996774,
				"element": "H" 
			},
			{
				"x": 1.5853616993,
				"y": 2.0211239992,
				"z": 1.3619069261,
				"element": "H" 
			},
			{
				"x": 0.1884096858,
				"y": 2.2495150287,
				"z": 2.4523287652,
				"element": "H" 
			},
			{
				"x": -1.4090368087,
				"y": 3.1218363619,
				"z": 0.5215311794,
				"element": "H" 
			}
		],
		 "valence_orbital": [ 
			{
				"type": "occ",
				"energy": -0.39142,
				"method": "rhf"
			},
			{
				"type": "occ",
				"energy": -0.37112,
				"method": "rhf"
			},
			{
				"type": "occ",
				"energy": -0.33904,
				"method": "rhf"
			},
			{
				"type": "occ",
				"energy": -0.26904,
				"method": "rhf"
			},
			{
				"type": "occ",
				"energy": -0.24253,
				"method": "rhf"
			},
			{
				"type": "unocc",
				"energy": -0.03403,
				"method": "rhf"
			},
			{
				"type": "unocc",
				"energy": 0.02474,
				"method": "rhf"
			},
			{
				"type": "unocc",
				"energy": 0.06359,
				"method": "rhf"
			},
			{
				"type": "unocc",
				"energy": 0.10397,
				"method": "rhf"
			},
			{
				"type": "unocc",
				"energy": 0.12828,
				"method": "rhf"
			}
		],
		"cosmo_sigma_profile": { 
			"-0.025": 0.0,
			"-0.024": 0.0,
			"-0.023": 0.0,
			"-0.022": 0.0,
			"-0.021": 0.0,
			"-0.02": 0.0,
			"-0.019": 0.0,
			"-0.018": 0.0,
			"-0.017": 0.0,
			"-0.016": 0.0,
			"-0.015": 0.0,
			"-0.014": 0.0,
			"-0.013": 0.0,
			"-0.012": 0.0,
			"-0.011": 0.0,
			"-0.01": 0.81926559213,
			"-0.009": 1.84959821354,
			"-0.008": 3.75629122241,
			"-0.007": 7.34762994836,
			"-0.006": 8.77391988526,
			"-0.005": 9.88766161481,
			"-0.004": 11.3961301366,
			"-0.003": 10.2797846848,
			"-0.002": 9.51118243533,
			"-0.001": 11.2088537409,
			"0.0": 7.29551466203,
			"0.001": 4.00767050071,
			"0.002": 4.41503008895,
			"0.003": 4.3526051449,
			"0.004": 5.94023037295,
			"0.005": 4.06077162662,
			"0.006": 4.45946731609,
			"0.007": 3.3074680395,
			"0.008": 3.55079089359,
			"0.009": 3.57509426671,
			"0.01": 2.88574702739,
			"0.011": 3.40560018046,
			"0.012": 3.9724511657,
			"0.013": 1.50383543333,
			"0.014": 0.0,
			"0.015": 0.0,
			"0.016": 0.0,
			"0.017": 0.0,
			"0.018": 0.0,
			"0.019": 0.0,
			"0.02": 0.0,
			"0.021": 0.0,
			"0.022": 0.0,
			"0.023": 0.0,
			"0.024": 0.0,
			"0.025": 0.0
		}
	}
}
