{
	 "smiles": "CC(=N/NC(=O)C1=NC=CC=C1)C1=C(O)C2=CC=CC=C2N(C2=CC=CC=C2)C1=O", 
	 "Tm": 562.15, 
	 "num_atms": 48, 
	 "gaussian": { 
		 "optdone": 1, 
		 "sigma_profile": "yes", 
		 "theory": "DFT", 
		 "functional": "B3LYP", 
		 "basiset": "6-31G**", 
		 "properties": { 
			 "R2extent": 14828.6021, 
			 "electric_dipole_moment_norm": 6.18765069311, 
			 "electric_quadrupole_moment_norm": 24.5366981858, 
			 "total_energy": -1331.97667193, 
			 "HOMO_LUMO_gap": 0.14553, 
			 "cosmo_polarized_energy": -23.78, 
			 "cosmo_cavitation_energy": 52.47, 
			 "cosmo_dispersion_energy": -36.06, 
			 "cosmo_repulsion_energy": 2.68, 
			 "cosmo_total_nonelectrostatic_energy": 19.09, 
			 "SMD_solvation_energy": 8.68 
		},
		"coords": [
			{
				"x": -0.5618621657,
				"y": -2.6435529478,
				"z": 1.8500754043,
				"element": "C" 
			},
			{
				"x": -0.2437333285,
				"y": -1.1929358513,
				"z": 1.5766642729,
				"element": "C" 
			},
			{
				"x": -0.019594299,
				"y": -0.3696296488,
				"z": 2.5671031905,
				"element": "N" 
			},
			{
				"x": -0.1157844375,
				"y": -0.8275007871,
				"z": 3.8548573666,
				"element": "N" 
			},
			{
				"x": 0.0421833868,
				"y": -0.0178235304,
				"z": 4.9708098867,
				"element": "C" 
			},
			{
				"x": -0.3678680442,
				"y": -0.4008457984,
				"z": 6.0530383854,
				"element": "O" 
			},
			{
				"x": 0.7935517944,
				"y": 1.2812896343,
				"z": 4.8029691163,
				"element": "C" 
			},
			{
				"x": 0.2433579634,
				"y": 2.3359276995,
				"z": 5.4220513344,
				"element": "N" 
			},
			{
				"x": 0.9110211815,
				"y": 3.4914782248,
				"z": 5.3822784146,
				"element": "C" 
			},
			{
				"x": 2.1508204833,
				"y": 3.6499658254,
				"z": 4.7566308374,
				"element": "C" 
			},
			{
				"x": 2.7191006961,
				"y": 2.5455876556,
				"z": 4.1263580065,
				"element": "C" 
			},
			{
				"x": 2.0253572801,
				"y": 1.3361079787,
				"z": 4.1404333987,
				"element": "C" 
			},
			{
				"x": -0.1291927004,
				"y": -0.6280191414,
				"z": 0.2180998552,
				"element": "C" 
			},
			{
				"x": 0.3217803357,
				"y": 0.6821248903,
				"z": 0.0290447999,
				"element": "C" 
			},
			{
				"x": 0.6305037813,
				"y": 1.4928916934,
				"z": 1.0326204181,
				"element": "O" 
			},
			{
				"x": 0.4930176134,
				"y": 1.2454243686,
				"z": -1.2914731104,
				"element": "C" 
			},
			{
				"x": 0.9715076086,
				"y": 2.5587096189,
				"z": -1.4678204669,
				"element": "C" 
			},
			{
				"x": 1.1434683455,
				"y": 3.0839628401,
				"z": -2.7370048357,
				"element": "C" 
			},
			{
				"x": 0.8344926553,
				"y": 2.2941663983,
				"z": -3.8552192244,
				"element": "C" 
			},
			{
				"x": 0.3583685518,
				"y": 0.9992245448,
				"z": -3.7079968192,
				"element": "C" 
			},
			{
				"x": 0.1794422359,
				"y": 0.4565179641,
				"z": -2.4201366778,
				"element": "C" 
			},
			{
				"x": -0.3044071818,
				"y": -0.8334627556,
				"z": -2.2255607927,
				"element": "N" 
			},
			{
				"x": -0.6678561815,
				"y": -1.6445971622,
				"z": -3.3651666796,
				"element": "C" 
			},
			{
				"x": -1.9639682211,
				"y": -1.5797221515,
				"z": -3.8785443791,
				"element": "C" 
			},
			{
				"x": -2.3055598914,
				"y": -2.3512901165,
				"z": -4.9895495333,
				"element": "C" 
			},
			{
				"x": -1.3548888585,
				"y": -3.1837476719,
				"z": -5.5840834399,
				"element": "C" 
			},
			{
				"x": -0.0601773781,
				"y": -3.2455809041,
				"z": -5.0649361445,
				"element": "C" 
			},
			{
				"x": 0.286022877,
				"y": -2.4757976072,
				"z": -3.9537600854,
				"element": "C" 
			},
			{
				"x": -0.5150000505,
				"y": -1.4225969144,
				"z": -0.9564185943,
				"element": "C" 
			},
			{
				"x": -1.0083689278,
				"y": -2.550146787,
				"z": -0.9247359153,
				"element": "O" 
			},
			{
				"x": -1.5731215339,
				"y": -2.7463531278,
				"z": 2.2668033281,
				"element": "H" 
			},
			{
				"x": -0.5316626664,
				"y": -3.2320046271,
				"z": 0.9397503493,
				"element": "H" 
			},
			{
				"x": 0.146665185,
				"y": -3.0421710805,
				"z": 2.5858518993,
				"element": "H" 
			},
			{
				"x": -0.6367503343,
				"y": -1.677874909,
				"z": 4.045677154,
				"element": "H" 
			},
			{
				"x": 0.4345958724,
				"y": 4.3344267028,
				"z": 5.8797148894,
				"element": "H" 
			},
			{
				"x": 2.6513396552,
				"y": 4.6130221395,
				"z": 4.7679398751,
				"element": "H" 
			},
			{
				"x": 3.6825258727,
				"y": 2.6211403867,
				"z": 3.6310299827,
				"element": "H" 
			},
			{
				"x": 2.4303335653,
				"y": 0.4534347083,
				"z": 3.6577602378,
				"element": "H" 
			},
			{
				"x": 0.425741612,
				"y": 0.9924986849,
				"z": 1.8861942567,
				"element": "H" 
			},
			{
				"x": 1.1998033225,
				"y": 3.142182626,
				"z": -0.5837496,
				"element": "H" 
			},
			{
				"x": 1.5126643127,
				"y": 4.0962415853,
				"z": -2.8660214191,
				"element": "H" 
			},
			{
				"x": 0.9661074447,
				"y": 2.6963723599,
				"z": -4.8556306055,
				"element": "H" 
			},
			{
				"x": 0.1215635404,
				"y": 0.4028271759,
				"z": -4.5796242294,
				"element": "H" 
			},
			{
				"x": -2.6945255289,
				"y": -0.9330975315,
				"z": -3.4031046748,
				"element": "H" 
			},
			{
				"x": -3.3146193396,
				"y": -2.3038123071,
				"z": -5.3879898426,
				"element": "H" 
			},
			{
				"x": -1.6230492688,
				"y": -3.7842702705,
				"z": -6.4483219201,
				"element": "H" 
			},
			{
				"x": 0.6808388594,
				"y": -3.8943162982,
				"z": -5.5224169774,
				"element": "H" 
			},
			{
				"x": 1.2873143055,
				"y": -2.5175757788,
				"z": -3.5368906926,
				"element": "H" 
			}
		],
		 "valence_orbital": [ 
			{
				"type": "occ",
				"energy": -0.2602,
				"method": "rhf"
			},
			{
				"type": "occ",
				"energy": -0.25267,
				"method": "rhf"
			},
			{
				"type": "occ",
				"energy": -0.24989,
				"method": "rhf"
			},
			{
				"type": "occ",
				"energy": -0.22855,
				"method": "rhf"
			},
			{
				"type": "occ",
				"energy": -0.21178,
				"method": "rhf"
			},
			{
				"type": "unocc",
				"energy": -0.06625,
				"method": "rhf"
			},
			{
				"type": "unocc",
				"energy": -0.04256,
				"method": "rhf"
			},
			{
				"type": "unocc",
				"energy": -0.02645,
				"method": "rhf"
			},
			{
				"type": "unocc",
				"energy": -0.0167,
				"method": "rhf"
			},
			{
				"type": "unocc",
				"energy": -0.01444,
				"method": "rhf"
			}
		],
		"cosmo_sigma_profile": { 
			"-0.025": 0.0,
			"-0.024": 0.0,
			"-0.023": 0.0,
			"-0.022": 0.0,
			"-0.021": 0.0,
			"-0.02": 0.0,
			"-0.019": 0.0,
			"-0.018": 0.0,
			"-0.017": 0.0,
			"-0.016": 0.0,
			"-0.015": 0.00237180370246,
			"-0.014": 0.635913096959,
			"-0.013": 1.1653943224,
			"-0.012": 1.25284914111,
			"-0.011": 0.937708896932,
			"-0.01": 1.45713731338,
			"-0.009": 1.55201114782,
			"-0.008": 3.67190378616,
			"-0.007": 14.4697882251,
			"-0.006": 28.6374114684,
			"-0.005": 31.2664889736,
			"-0.004": 29.9058602371,
			"-0.003": 28.1721155492,
			"-0.002": 31.3839206215,
			"-0.001": 36.8523258282,
			"0.0": 38.3203179896,
			"0.001": 35.6608522594,
			"0.002": 28.3585518901,
			"0.003": 24.5730910302,
			"0.004": 21.7396976627,
			"0.005": 9.2783345131,
			"0.006": 6.16404724,
			"0.007": 7.10293344397,
			"0.008": 4.35389899775,
			"0.009": 3.55315481695,
			"0.01": 4.8681978679,
			"0.011": 5.02705437724,
			"0.012": 8.3469906512,
			"0.013": 6.73539463435,
			"0.014": 4.67755669378,
			"0.015": 1.33350588679,
			"0.016": 0.7911809804,
			"0.017": 0.0,
			"0.018": 0.0,
			"0.019": 0.0,
			"0.02": 0.0,
			"0.021": 0.0,
			"0.022": 0.0,
			"0.023": 0.0,
			"0.024": 0.0,
			"0.025": 0.0
		}
	}
}
