{
	 "smiles": "NC(=O)C=C", 
	 "Tm": 357.35, 
	 "num_atms": 10, 
	 "gaussian": { 
		 "optdone": 1, 
		 "sigma_profile": "yes", 
		 "theory": "DFT", 
		 "functional": "B3LYP", 
		 "basiset": "6-31G**", 
		 "properties": { 
			 "R2extent": 704.1093, 
			 "electric_dipole_moment_norm": 3.69427993119, 
			 "electric_quadrupole_moment_norm": 6.32312719783, 
			 "total_energy": -247.295557388, 
			 "HOMO_LUMO_gap": 0.21169, 
			 "cosmo_polarized_energy": -11.84, 
			 "cosmo_cavitation_energy": 14.27, 
			 "cosmo_dispersion_energy": -10.39, 
			 "cosmo_repulsion_energy": 0.94, 
			 "cosmo_total_nonelectrostatic_energy": 4.83, 
			 "SMD_solvation_energy": 4.3 
		},
		"coords": [
			{
				"x": -0.3328438226,
				"y": 0.1392791018,
				"z": -1.9496868787,
				"element": "N" 
			},
			{
				"x": -0.7860002938,
				"y": -0.1108620182,
				"z": -0.6751312641,
				"element": "C" 
			},
			{
				"x": -0.1115519134,
				"y": -0.7054303159,
				"z": 0.1557061456,
				"element": "O" 
			},
			{
				"x": -2.1408231837,
				"y": 0.4208839582,
				"z": -0.3305830043,
				"element": "C" 
			},
			{
				"x": -2.7614738735,
				"y": 1.4317954471,
				"z": -0.9435771559,
				"element": "C" 
			},
			{
				"x": -0.988649571,
				"y": 0.318181153,
				"z": -2.6939068709,
				"element": "H" 
			},
			{
				"x": 0.5342829417,
				"y": -0.3133535893,
				"z": -2.2004550668,
				"element": "H" 
			},
			{
				"x": -2.5770031678,
				"y": -0.0575939138,
				"z": 0.541840829,
				"element": "H" 
			},
			{
				"x": -3.7306651136,
				"y": 1.7873668723,
				"z": -0.6071200428,
				"element": "H" 
			},
			{
				"x": -2.3170720023,
				"y": 1.9627333048,
				"z": -1.7812866911,
				"element": "H" 
			}
		],
		 "valence_orbital": [ 
			{
				"type": "occ",
				"energy": -0.40388,
				"method": "rhf"
			},
			{
				"type": "occ",
				"energy": -0.37818,
				"method": "rhf"
			},
			{
				"type": "occ",
				"energy": -0.28409,
				"method": "rhf"
			},
			{
				"type": "occ",
				"energy": -0.27147,
				"method": "rhf"
			},
			{
				"type": "occ",
				"energy": -0.24871,
				"method": "rhf"
			},
			{
				"type": "unocc",
				"energy": -0.03702,
				"method": "rhf"
			},
			{
				"type": "unocc",
				"energy": 0.07109,
				"method": "rhf"
			},
			{
				"type": "unocc",
				"energy": 0.08958,
				"method": "rhf"
			},
			{
				"type": "unocc",
				"energy": 0.12019,
				"method": "rhf"
			},
			{
				"type": "unocc",
				"energy": 0.13086,
				"method": "rhf"
			}
		],
		"cosmo_sigma_profile": { 
			"-0.025": 0.0,
			"-0.024": 0.0,
			"-0.023": 0.0,
			"-0.022": 0.0,
			"-0.021": 0.0,
			"-0.02": 0.0,
			"-0.019": 0.0,
			"-0.018": 0.0,
			"-0.017": 0.0,
			"-0.016": 0.0,
			"-0.015": 0.0296121670849,
			"-0.014": 0.96042161023,
			"-0.013": 2.52407800676,
			"-0.012": 2.03813102926,
			"-0.011": 2.42796373788,
			"-0.01": 2.17589204849,
			"-0.009": 3.24516120959,
			"-0.008": 2.44994048945,
			"-0.007": 3.89910358896,
			"-0.006": 5.91214431866,
			"-0.005": 5.85093676986,
			"-0.004": 6.77805336815,
			"-0.003": 5.93857166534,
			"-0.002": 6.91068557724,
			"-0.001": 7.27254615033,
			"0.0": 5.98816128755,
			"0.001": 6.41986627243,
			"0.002": 5.94040930275,
			"0.003": 5.46883481054,
			"0.004": 5.35925268288,
			"0.005": 2.53985105977,
			"0.006": 1.94000360114,
			"0.007": 2.13915144876,
			"0.008": 2.16873076177,
			"0.009": 1.13110583118,
			"0.01": 1.17848469958,
			"0.011": 1.53395978792,
			"0.012": 2.0858914129,
			"0.013": 4.23616736798,
			"0.014": 5.12130575604,
			"0.015": 1.41977638052,
			"0.016": 0.0,
			"0.017": 0.0,
			"0.018": 0.0,
			"0.019": 0.0,
			"0.02": 0.0,
			"0.021": 0.0,
			"0.022": 0.0,
			"0.023": 0.0,
			"0.024": 0.0,
			"0.025": 0.0
		}
	}
}
