{
	 "smiles": "C1CNC(CN1)C1=CC=CO1", 
	 "Tm": 360.15, 
	 "num_atms": 23, 
	 "gaussian": { 
		 "optdone": 1, 
		 "sigma_profile": "yes", 
		 "theory": "DFT", 
		 "functional": "B3LYP", 
		 "basiset": "6-31G**", 
		 "properties": { 
			 "R2extent": 2048.5419, 
			 "electric_dipole_moment_norm": 1.41831269119, 
			 "electric_quadrupole_moment_norm": 4.06754521057, 
			 "total_energy": -496.758365166, 
			 "HOMO_LUMO_gap": 0.23228, 
			 "cosmo_polarized_energy": -7.9, 
			 "cosmo_cavitation_energy": 24.82, 
			 "cosmo_dispersion_energy": -18.59, 
			 "cosmo_repulsion_energy": 1.5, 
			 "cosmo_total_nonelectrostatic_energy": 7.73, 
			 "SMD_solvation_energy": 0.94 
		},
		"coords": [
			{
				"x": -0.7282245774,
				"y": -2.8541094826,
				"z": 0.5709526181,
				"element": "C" 
			},
			{
				"x": -0.619926938,
				"y": -1.5353498674,
				"z": 1.385703938,
				"element": "C" 
			},
			{
				"x": 0.3967832148,
				"y": -0.620201888,
				"z": 0.8616165165,
				"element": "N" 
			},
			{
				"x": 0.096039759,
				"y": -0.2195366542,
				"z": -0.5264548919,
				"element": "C" 
			},
			{
				"x": -0.6525141619,
				"y": -1.3402579639,
				"z": -1.3129107863,
				"element": "C" 
			},
			{
				"x": -0.1949004587,
				"y": -2.619326426,
				"z": -0.7767117568,
				"element": "N" 
			},
			{
				"x": -0.6643688064,
				"y": 1.0748123604,
				"z": -0.5218008852,
				"element": "C" 
			},
			{
				"x": -0.9122208075,
				"y": 2.0148730278,
				"z": 0.4339707973,
				"element": "C" 
			},
			{
				"x": -1.6860998028,
				"y": 3.0454749742,
				"z": -0.1991223447,
				"element": "C" 
			},
			{
				"x": -1.8496638917,
				"y": 2.658121423,
				"z": -1.4922610874,
				"element": "C" 
			},
			{
				"x": -1.2344088579,
				"y": 1.4566148562,
				"z": -1.7089287755,
				"element": "O" 
			},
			{
				"x": -1.7819011567,
				"y": -3.1898969154,
				"z": 0.5707665985,
				"element": "H" 
			},
			{
				"x": -0.1366335544,
				"y": -3.6495342566,
				"z": 1.0416418545,
				"element": "H" 
			},
			{
				"x": -0.3993134516,
				"y": -1.7523040475,
				"z": 2.4356140744,
				"element": "H" 
			},
			{
				"x": -1.5763994893,
				"y": -1.0019435232,
				"z": 1.370090651,
				"element": "H" 
			},
			{
				"x": 1.2895520158,
				"y": -1.1044427594,
				"z": 0.8558621081,
				"element": "H" 
			},
			{
				"x": 1.0626009858,
				"y": -0.0603876171,
				"z": -1.0227515444,
				"element": "H" 
			},
			{
				"x": -0.4076812574,
				"y": -1.2791668828,
				"z": -2.3768794275,
				"element": "H" 
			},
			{
				"x": -1.7444922571,
				"y": -1.1952683375,
				"z": -1.2265673186,
				"element": "H" 
			},
			{
				"x": -0.4490101741,
				"y": -3.3824763922,
				"z": -1.3953795882,
				"element": "H" 
			},
			{
				"x": -0.5731131134,
				"y": 1.9685510779,
				"z": 1.457277659,
				"element": "H" 
			},
			{
				"x": -2.0660333159,
				"y": 3.9508466944,
				"z": 0.2526938573,
				"element": "H" 
			},
			{
				"x": -2.348369903,
				"y": 3.0913086,
				"z": -2.3454222663,
				"element": "H" 
			}
		],
		 "valence_orbital": [ 
			{
				"type": "occ",
				"energy": -0.32979,
				"method": "rhf"
			},
			{
				"type": "occ",
				"energy": -0.26468,
				"method": "rhf"
			},
			{
				"type": "occ",
				"energy": -0.22508,
				"method": "rhf"
			},
			{
				"type": "occ",
				"energy": -0.21899,
				"method": "rhf"
			},
			{
				"type": "occ",
				"energy": -0.20838,
				"method": "rhf"
			},
			{
				"type": "unocc",
				"energy": 0.0239,
				"method": "rhf"
			},
			{
				"type": "unocc",
				"energy": 0.07379,
				"method": "rhf"
			},
			{
				"type": "unocc",
				"energy": 0.08539,
				"method": "rhf"
			},
			{
				"type": "unocc",
				"energy": 0.11082,
				"method": "rhf"
			},
			{
				"type": "unocc",
				"energy": 0.12072,
				"method": "rhf"
			}
		],
		"cosmo_sigma_profile": { 
			"-0.025": 0.0,
			"-0.024": 0.0,
			"-0.023": 0.0,
			"-0.022": 0.0,
			"-0.021": 0.0,
			"-0.02": 0.0,
			"-0.019": 0.0,
			"-0.018": 0.0,
			"-0.017": 0.0,
			"-0.016": 0.0,
			"-0.015": 0.0,
			"-0.014": 0.0,
			"-0.013": 0.0,
			"-0.012": 0.0,
			"-0.011": 0.153412696553,
			"-0.01": 1.55801250918,
			"-0.009": 2.91804635542,
			"-0.008": 3.25258391181,
			"-0.007": 3.80110145028,
			"-0.006": 7.30676212191,
			"-0.005": 9.5965192591,
			"-0.004": 12.8667544827,
			"-0.003": 18.8371823838,
			"-0.002": 23.3621959544,
			"-0.001": 21.85149425,
			"0.0": 15.3074570719,
			"0.001": 9.23342060581,
			"0.002": 8.11555616797,
			"0.003": 10.4052544728,
			"0.004": 10.2763858104,
			"0.005": 9.66971395669,
			"0.006": 8.42906817127,
			"0.007": 4.91296123502,
			"0.008": 3.05697662731,
			"0.009": 2.23390765479,
			"0.01": 1.62511428563,
			"0.011": 1.1876641312,
			"0.012": 0.656088607553,
			"0.013": 0.953115983272,
			"0.014": 1.21547657795,
			"0.015": 1.00955344273,
			"0.016": 0.283816420307,
			"0.017": 0.244468466254,
			"0.018": 0.0,
			"0.019": 0.0,
			"0.02": 0.0,
			"0.021": 0.0,
			"0.022": 0.0,
			"0.023": 0.0,
			"0.024": 0.0,
			"0.025": 0.0
		}
	}
}
