{
	 "smiles": "NC1=NC(Br)=CC=C1", 
	 "Tm": 363.15, 
	 "num_atms": 13, 
	 "gaussian": { 
		 "optdone": 1, 
		 "sigma_profile": "yes", 
		 "theory": "DFT", 
		 "functional": "B3LYP", 
		 "basiset": "6-31G**", 
		 "properties": { 
			 "R2extent": 3725.076, 
			 "electric_dipole_moment_norm": 3.80071659822, 
			 "electric_quadrupole_moment_norm": 12.8983109646, 
			 "total_energy": -2874.45854061, 
			 "HOMO_LUMO_gap": 0.19593, 
			 "cosmo_polarized_energy": -10.03, 
			 "cosmo_cavitation_energy": 19.55, 
			 "cosmo_dispersion_energy": -15.3, 
			 "cosmo_repulsion_energy": 1.29, 
			 "cosmo_total_nonelectrostatic_energy": 5.55, 
			 "SMD_solvation_energy": 0.91 
		},
		"coords": [
			{
				"x": -1.154275555,
				"y": -0.7851026296,
				"z": 3.201816975,
				"element": "N" 
			},
			{
				"x": -0.6051062173,
				"y": 0.0250422952,
				"z": 2.2327101128,
				"element": "C" 
			},
			{
				"x": -0.5837678509,
				"y": 1.3419909208,
				"z": 2.508227127,
				"element": "N" 
			},
			{
				"x": -0.1117016727,
				"y": 2.1553351058,
				"z": 1.5841992321,
				"element": "C" 
			},
			{
				"x": -0.1062880852,
				"y": 4.0312985993,
				"z": 2.026483206,
				"element": "Br" 
			},
			{
				"x": 0.3802514598,
				"y": 1.7719202119,
				"z": 0.3398909486,
				"element": "C" 
			},
			{
				"x": 0.3600718128,
				"y": 0.4002750115,
				"z": 0.0679994147,
				"element": "C" 
			},
			{
				"x": -0.1341841354,
				"y": -0.4920450967,
				"z": 1.0088896473,
				"element": "C" 
			},
			{
				"x": -1.2541491902,
				"y": -0.3516697306,
				"z": 4.1084752175,
				"element": "H" 
			},
			{
				"x": -0.8867087048,
				"y": -1.7571916692,
				"z": 3.2105826016,
				"element": "H" 
			},
			{
				"x": 0.7563745755,
				"y": 2.4988540509,
				"z": -0.3674046951,
				"element": "H" 
			},
			{
				"x": 0.7314304016,
				"y": 0.0332979298,
				"z": -0.8846693319,
				"element": "H" 
			},
			{
				"x": -0.1662468382,
				"y": -1.5589049991,
				"z": 0.8121995445,
				"element": "H" 
			}
		],
		 "valence_orbital": [ 
			{
				"type": "occ",
				"energy": -0.30269,
				"method": "rhf"
			},
			{
				"type": "occ",
				"energy": -0.27977,
				"method": "rhf"
			},
			{
				"type": "occ",
				"energy": -0.26943,
				"method": "rhf"
			},
			{
				"type": "occ",
				"energy": -0.2666,
				"method": "rhf"
			},
			{
				"type": "occ",
				"energy": -0.21997,
				"method": "rhf"
			},
			{
				"type": "unocc",
				"energy": -0.02404,
				"method": "rhf"
			},
			{
				"type": "unocc",
				"energy": -0.0017,
				"method": "rhf"
			},
			{
				"type": "unocc",
				"energy": 0.01695,
				"method": "rhf"
			},
			{
				"type": "unocc",
				"energy": 0.07804,
				"method": "rhf"
			},
			{
				"type": "unocc",
				"energy": 0.10283,
				"method": "rhf"
			}
		],
		"cosmo_sigma_profile": { 
			"-0.025": 0.0,
			"-0.024": 0.0,
			"-0.023": 0.0,
			"-0.022": 0.0,
			"-0.021": 0.0,
			"-0.02": 0.0,
			"-0.019": 0.0,
			"-0.018": 0.0,
			"-0.017": 0.0,
			"-0.016": 0.0,
			"-0.015": 0.0,
			"-0.014": 0.69433526112,
			"-0.013": 2.07022012485,
			"-0.012": 2.50895947954,
			"-0.011": 2.70788971054,
			"-0.01": 2.01990568635,
			"-0.009": 2.92429144433,
			"-0.008": 3.14637092419,
			"-0.007": 6.64263360613,
			"-0.006": 7.26107073573,
			"-0.005": 7.59689958959,
			"-0.004": 5.9998003813,
			"-0.003": 6.80088406225,
			"-0.002": 6.50257570836,
			"-0.001": 6.65578451769,
			"0.0": 7.67694276435,
			"0.001": 12.7147441985,
			"0.002": 16.8481697301,
			"0.003": 17.0270888746,
			"0.004": 12.0723862612,
			"0.005": 12.5805304564,
			"0.006": 4.15015852696,
			"0.007": 2.5971731009,
			"0.008": 2.31247412249,
			"0.009": 2.14599324478,
			"0.01": 2.39161657439,
			"0.011": 1.54931621013,
			"0.012": 1.35043355648,
			"0.013": 0.574002127743,
			"0.014": 0.252616136,
			"0.015": 0.0,
			"0.016": 0.0,
			"0.017": 0.0,
			"0.018": 0.0,
			"0.019": 0.0,
			"0.02": 0.0,
			"0.021": 0.0,
			"0.022": 0.0,
			"0.023": 0.0,
			"0.024": 0.0,
			"0.025": 0.0
		}
	}
}
