{
	 "smiles": "CC(=O)C1=C(C)C(=CC=C1)[N+]([O-])=O", 
	 "Tm": 323.15, 
	 "num_atms": 22, 
	 "gaussian": { 
		 "optdone": 1, 
		 "sigma_profile": "yes", 
		 "theory": "DFT", 
		 "functional": "B3LYP", 
		 "basiset": "6-31G**", 
		 "properties": { 
			 "R2extent": 2671.4901, 
			 "electric_dipole_moment_norm": 2.13131347999, 
			 "electric_quadrupole_moment_norm": 20.9313088016, 
			 "total_energy": -628.699970797, 
			 "HOMO_LUMO_gap": 0.17006, 
			 "cosmo_polarized_energy": -11.22, 
			 "cosmo_cavitation_energy": 26.17, 
			 "cosmo_dispersion_energy": -18.98, 
			 "cosmo_repulsion_energy": 1.48, 
			 "cosmo_total_nonelectrostatic_energy": 8.67, 
			 "SMD_solvation_energy": 7.31 
		},
		"coords": [
			{
				"x": -2.716594235,
				"y": 0.5435149751,
				"z": -0.3462091009,
				"element": "C" 
			},
			{
				"x": -1.4508162577,
				"y": 0.6510254948,
				"z": -1.1846145505,
				"element": "C" 
			},
			{
				"x": -1.5364537421,
				"y": 0.8185059915,
				"z": -2.3897296609,
				"element": "O" 
			},
			{
				"x": -0.0854840285,
				"y": 0.6775834728,
				"z": -0.5289325374,
				"element": "C" 
			},
			{
				"x": 0.2880854046,
				"y": -0.0870626329,
				"z": 0.6016554725,
				"element": "C" 
			},
			{
				"x": -0.6188886794,
				"y": -1.1569506051,
				"z": 1.1702476163,
				"element": "C" 
			},
			{
				"x": 1.5899985344,
				"y": 0.1372340075,
				"z": 1.0937479808,
				"element": "C" 
			},
			{
				"x": 2.4936498983,
				"y": 1.0197827362,
				"z": 0.5006142388,
				"element": "C" 
			},
			{
				"x": 2.1079811517,
				"y": 1.7362337349,
				"z": -0.6249141882,
				"element": "C" 
			},
			{
				"x": 0.8271435942,
				"y": 1.5554496043,
				"z": -1.1349219296,
				"element": "C" 
			},
			{
				"x": 2.0867773093,
				"y": -0.5591495039,
				"z": 2.2962552065,
				"element": "N" 
			},
			{
				"x": 3.3028780018,
				"y": -0.7170527002,
				"z": 2.3992119959,
				"element": "O" 
			},
			{
				"x": 1.265280951,
				"y": -0.916561244,
				"z": 3.1415223098,
				"element": "O" 
			},
			{
				"x": -3.450740068,
				"y": 1.23212063,
				"z": -0.7712746696,
				"element": "H" 
			},
			{
				"x": -3.1374901612,
				"y": -0.4646870139,
				"z": -0.4245079571,
				"element": "H" 
			},
			{
				"x": -2.5595449607,
				"y": 0.772385632,
				"z": 0.7092494531,
				"element": "H" 
			},
			{
				"x": -0.0450913954,
				"y": -2.015992232,
				"z": 1.5181345523,
				"element": "H" 
			},
			{
				"x": -1.1807537252,
				"y": -0.7948405245,
				"z": 2.0363610549,
				"element": "H" 
			},
			{
				"x": -1.322959004,
				"y": -1.5054205313,
				"z": 0.4152068645,
				"element": "H" 
			},
			{
				"x": 3.4812331961,
				"y": 1.1204357785,
				"z": 0.9330838498,
				"element": "H" 
			},
			{
				"x": 2.798860056,
				"y": 2.4270263443,
				"z": -1.0968295876,
				"element": "H" 
			},
			{
				"x": 0.49982816,
				"y": 2.092618586,
				"z": -2.0184564134,
				"element": "H" 
			}
		],
		 "valence_orbital": [ 
			{
				"type": "occ",
				"energy": -0.31104,
				"method": "rhf"
			},
			{
				"type": "occ",
				"energy": -0.30155,
				"method": "rhf"
			},
			{
				"type": "occ",
				"energy": -0.28077,
				"method": "rhf"
			},
			{
				"type": "occ",
				"energy": -0.27619,
				"method": "rhf"
			},
			{
				"type": "occ",
				"energy": -0.26082,
				"method": "rhf"
			},
			{
				"type": "unocc",
				"energy": -0.09076,
				"method": "rhf"
			},
			{
				"type": "unocc",
				"energy": -0.06799,
				"method": "rhf"
			},
			{
				"type": "unocc",
				"energy": -0.01623,
				"method": "rhf"
			},
			{
				"type": "unocc",
				"energy": 0.01141,
				"method": "rhf"
			},
			{
				"type": "unocc",
				"energy": 0.08191,
				"method": "rhf"
			}
		],
		"cosmo_sigma_profile": { 
			"-0.025": 0.0,
			"-0.024": 0.0,
			"-0.023": 0.0,
			"-0.022": 0.0,
			"-0.021": 0.0,
			"-0.02": 0.0,
			"-0.019": 0.0,
			"-0.018": 0.0,
			"-0.017": 0.0,
			"-0.016": 0.0,
			"-0.015": 0.0,
			"-0.014": 0.0,
			"-0.013": 0.0,
			"-0.012": 0.0,
			"-0.011": 0.0,
			"-0.01": 0.0,
			"-0.009": 0.447531458619,
			"-0.008": 3.64691786754,
			"-0.007": 8.69199158538,
			"-0.006": 15.2433902596,
			"-0.005": 16.7607448406,
			"-0.004": 16.4340405637,
			"-0.003": 18.2475438869,
			"-0.002": 17.909810865,
			"-0.001": 18.2242566609,
			"0.0": 15.3284958178,
			"0.001": 12.2649181716,
			"0.002": 9.64430033915,
			"0.003": 5.09897093944,
			"0.004": 4.95457929967,
			"0.005": 4.54219854346,
			"0.006": 4.86102098635,
			"0.007": 9.57490509014,
			"0.008": 8.54237296082,
			"0.009": 5.86159073595,
			"0.01": 4.732722495,
			"0.011": 3.99482964698,
			"0.012": 3.13441261792,
			"0.013": 0.540204555531,
			"0.014": 0.0,
			"0.015": 0.0,
			"0.016": 0.0,
			"0.017": 0.0,
			"0.018": 0.0,
			"0.019": 0.0,
			"0.02": 0.0,
			"0.021": 0.0,
			"0.022": 0.0,
			"0.023": 0.0,
			"0.024": 0.0,
			"0.025": 0.0
		}
	}
}
