{
	 "smiles": "O=C1N(CCC2=NC=CN2)C(=O)C2=C1C=CC=C2", 
	 "Tm": 517.15, 
	 "num_atms": 29, 
	 "gaussian": { 
		 "optdone": 1, 
		 "sigma_profile": "yes", 
		 "theory": "DFT", 
		 "functional": "B3LYP", 
		 "basiset": "6-31G**", 
		 "properties": { 
			 "R2extent": 4478.4026, 
			 "electric_dipole_moment_norm": 5.28078586671, 
			 "electric_quadrupole_moment_norm": 12.7256559733, 
			 "total_energy": -816.748609957, 
			 "HOMO_LUMO_gap": 0.12425, 
			 "cosmo_polarized_energy": -16.82, 
			 "cosmo_cavitation_energy": 33.49, 
			 "cosmo_dispersion_energy": -23.56, 
			 "cosmo_repulsion_energy": 1.8, 
			 "cosmo_total_nonelectrostatic_energy": 11.73, 
			 "SMD_solvation_energy": 4.9 
		},
		"coords": [
			{
				"x": 1.5702934854,
				"y": -1.5984489308,
				"z": 0.6406859473,
				"element": "O" 
			},
			{
				"x": 0.7399002959,
				"y": -0.8063384428,
				"z": 1.0620076593,
				"element": "C" 
			},
			{
				"x": -0.6293487679,
				"y": -1.0423653729,
				"z": 1.2028351192,
				"element": "N" 
			},
			{
				"x": -1.339226374,
				"y": -2.3002860849,
				"z": 0.9553463275,
				"element": "C" 
			},
			{
				"x": -0.9051082853,
				"y": -3.0607365465,
				"z": -0.3129176166,
				"element": "C" 
			},
			{
				"x": -0.9342544385,
				"y": -2.2520386633,
				"z": -1.5728978919,
				"element": "C" 
			},
			{
				"x": -1.98584531,
				"y": -2.0386366911,
				"z": -2.3419760468,
				"element": "N" 
			},
			{
				"x": -1.5351637915,
				"y": -1.2383584256,
				"z": -3.3682995093,
				"element": "C" 
			},
			{
				"x": -0.1974873516,
				"y": -0.964982258,
				"z": -3.2210079873,
				"element": "C" 
			},
			{
				"x": 0.1766359709,
				"y": -1.6219698411,
				"z": -2.0676813789,
				"element": "N" 
			},
			{
				"x": -1.3057694374,
				"y": 0.096815259,
				"z": 1.7016546084,
				"element": "C" 
			},
			{
				"x": -2.4950467203,
				"y": 0.1551516269,
				"z": 1.9311764119,
				"element": "O" 
			},
			{
				"x": -0.2621618671,
				"y": 1.1467282941,
				"z": 1.8787835835,
				"element": "C" 
			},
			{
				"x": 0.965536942,
				"y": 0.602606066,
				"z": 1.5013249655,
				"element": "C" 
			},
			{
				"x": 2.1372884217,
				"y": 1.3428480238,
				"z": 1.5597775295,
				"element": "C" 
			},
			{
				"x": 2.0407935167,
				"y": 2.6644561429,
				"z": 2.0160893683,
				"element": "C" 
			},
			{
				"x": 0.8074966088,
				"y": 3.2109483546,
				"z": 2.394346385,
				"element": "C" 
			},
			{
				"x": -0.3701902016,
				"y": 2.4537461881,
				"z": 2.33031264,
				"element": "C" 
			},
			{
				"x": -2.3942486409,
				"y": -2.0259713944,
				"z": 0.890004883,
				"element": "H" 
			},
			{
				"x": -1.2162688051,
				"y": -2.9568615634,
				"z": 1.8253699014,
				"element": "H" 
			},
			{
				"x": 0.0931895446,
				"y": -3.4775632767,
				"z": -0.1646067047,
				"element": "H" 
			},
			{
				"x": -1.6035530758,
				"y": -3.8952409467,
				"z": -0.4279229287,
				"element": "H" 
			},
			{
				"x": -2.1963474471,
				"y": -0.9100118201,
				"z": -4.1584692157,
				"element": "H" 
			},
			{
				"x": 0.5011244129,
				"y": -0.39219696,
				"z": -3.8111176973,
				"element": "H" 
			},
			{
				"x": 1.0838879728,
				"y": -1.6210417061,
				"z": -1.6214538452,
				"element": "H" 
			},
			{
				"x": 3.0872583843,
				"y": 0.9089420688,
				"z": 1.2648014067,
				"element": "H" 
			},
			{
				"x": 2.9353953264,
				"y": 3.2767609554,
				"z": 2.0785329381,
				"element": "H" 
			},
			{
				"x": 0.7657285581,
				"y": 4.2384380082,
				"z": 2.7430466797,
				"element": "H" 
			},
			{
				"x": -1.3311089264,
				"y": 2.8664079367,
				"z": 2.619854468,
				"element": "H" 
			}
		],
		 "valence_orbital": [ 
			{
				"type": "occ",
				"energy": -0.27554,
				"method": "rhf"
			},
			{
				"type": "occ",
				"energy": -0.27342,
				"method": "rhf"
			},
			{
				"type": "occ",
				"energy": -0.26742,
				"method": "rhf"
			},
			{
				"type": "occ",
				"energy": -0.2553,
				"method": "rhf"
			},
			{
				"type": "occ",
				"energy": -0.21324,
				"method": "rhf"
			},
			{
				"type": "unocc",
				"energy": -0.08899,
				"method": "rhf"
			},
			{
				"type": "unocc",
				"energy": -0.04662,
				"method": "rhf"
			},
			{
				"type": "unocc",
				"energy": 0.02105,
				"method": "rhf"
			},
			{
				"type": "unocc",
				"energy": 0.03529,
				"method": "rhf"
			},
			{
				"type": "unocc",
				"energy": 0.06354,
				"method": "rhf"
			}
		],
		"cosmo_sigma_profile": { 
			"-0.025": 0.0,
			"-0.024": 0.0,
			"-0.023": 0.0,
			"-0.022": 0.0,
			"-0.021": 0.0,
			"-0.02": 0.0,
			"-0.019": 0.0,
			"-0.018": 0.0,
			"-0.017": 0.0,
			"-0.016": 0.0,
			"-0.015": 0.0,
			"-0.014": 0.031966948627,
			"-0.013": 0.473358198251,
			"-0.012": 0.811267852179,
			"-0.011": 0.731762713966,
			"-0.01": 0.783861028855,
			"-0.009": 1.53175991849,
			"-0.008": 4.19645678413,
			"-0.007": 11.66804749,
			"-0.006": 20.1636868543,
			"-0.005": 23.5627513806,
			"-0.004": 21.6489000921,
			"-0.003": 19.0559957754,
			"-0.002": 18.6151278875,
			"-0.001": 19.3307980754,
			"0.0": 18.0839748464,
			"0.001": 17.7327595751,
			"0.002": 18.8717267845,
			"0.003": 9.96463861861,
			"0.004": 8.43490930504,
			"0.005": 7.26253254634,
			"0.006": 7.92432822658,
			"0.007": 4.8937731333,
			"0.008": 5.26648489531,
			"0.009": 4.98686363074,
			"0.01": 5.90538248136,
			"0.011": 8.24861896188,
			"0.012": 2.08026620326,
			"0.013": 1.21165666408,
			"0.014": 1.29096241785,
			"0.015": 0.849054249049,
			"0.016": 0.706272190003,
			"0.017": 1.38260656692,
			"0.018": 0.736310742741,
			"0.019": 0.302566707074,
			"0.02": 0.0,
			"0.021": 0.0,
			"0.022": 0.0,
			"0.023": 0.0,
			"0.024": 0.0,
			"0.025": 0.0
		}
	}
}
