{
	 "smiles": "CC1=C(NC(=O)C2=CC=CO2)C=CC(N)=C1", 
	 "Tm": 447.15, 
	 "num_atms": 28, 
	 "gaussian": { 
		 "optdone": 1, 
		 "sigma_profile": "yes", 
		 "theory": "DFT", 
		 "functional": "B3LYP", 
		 "basiset": "6-31G**", 
		 "properties": { 
			 "R2extent": 4498.5377, 
			 "electric_dipole_moment_norm": 6.01796028235, 
			 "electric_quadrupole_moment_norm": 10.1679774769, 
			 "total_energy": -724.449524417, 
			 "HOMO_LUMO_gap": 0.17766, 
			 "cosmo_polarized_energy": -18.28, 
			 "cosmo_cavitation_energy": 32.57, 
			 "cosmo_dispersion_energy": -22.74, 
			 "cosmo_repulsion_energy": 1.79, 
			 "cosmo_total_nonelectrostatic_energy": 11.62, 
			 "SMD_solvation_energy": 7.52 
		},
		"coords": [
			{
				"x": 3.446497337,
				"y": 0.3054690694,
				"z": 1.7234285206,
				"element": "C" 
			},
			{
				"x": 2.2616328517,
				"y": 1.2406160296,
				"z": 1.7185813818,
				"element": "C" 
			},
			{
				"x": 0.9728751811,
				"y": 0.7718387699,
				"z": 2.0420726913,
				"element": "C" 
			},
			{
				"x": 0.7838789739,
				"y": -0.5977928204,
				"z": 2.3978701576,
				"element": "N" 
			},
			{
				"x": -0.0474980854,
				"y": -1.5495285119,
				"z": 1.8387788733,
				"element": "C" 
			},
			{
				"x": -0.3058210807,
				"y": -2.5855373752,
				"z": 2.4404812003,
				"element": "O" 
			},
			{
				"x": -0.5612627531,
				"y": -1.309662489,
				"z": 0.469059872,
				"element": "C" 
			},
			{
				"x": -0.2597807242,
				"y": -0.466292163,
				"z": -0.5721774049,
				"element": "C" 
			},
			{
				"x": -1.0856587444,
				"y": -0.8577867544,
				"z": -1.6676639622,
				"element": "C" 
			},
			{
				"x": -1.8321258452,
				"y": -1.9072127432,
				"z": -1.2148220508,
				"element": "C" 
			},
			{
				"x": -1.5257218599,
				"y": -2.1963262524,
				"z": 0.0694551323,
				"element": "O" 
			},
			{
				"x": -0.1054681895,
				"y": 1.6640702141,
				"z": 2.0466869121,
				"element": "C" 
			},
			{
				"x": 0.0655959229,
				"y": 3.0012444129,
				"z": 1.7099766148,
				"element": "C" 
			},
			{
				"x": 1.3430201985,
				"y": 3.4874114518,
				"z": 1.3827577857,
				"element": "C" 
			},
			{
				"x": 1.544068162,
				"y": 4.8390173191,
				"z": 1.1076597244,
				"element": "N" 
			},
			{
				"x": 2.424569876,
				"y": 2.590375017,
				"z": 1.3978716231,
				"element": "C" 
			},
			{
				"x": 4.3200328217,
				"y": 0.7744086362,
				"z": 1.2631117357,
				"element": "H" 
			},
			{
				"x": 3.7272082221,
				"y": 0.0172564484,
				"z": 2.7443036401,
				"element": "H" 
			},
			{
				"x": 3.222552544,
				"y": -0.6208773225,
				"z": 1.1859206524,
				"element": "H" 
			},
			{
				"x": 1.1362441186,
				"y": -0.9098629373,
				"z": 3.2958149549,
				"element": "H" 
			},
			{
				"x": 0.4630053398,
				"y": 0.3342079938,
				"z": -0.5573490573,
				"element": "H" 
			},
			{
				"x": -1.1198410529,
				"y": -0.4177220034,
				"z": -2.6538624752,
				"element": "H" 
			},
			{
				"x": -2.5934357591,
				"y": -2.5245034925,
				"z": -1.6670322233,
				"element": "H" 
			},
			{
				"x": -1.0913890413,
				"y": 1.2945477635,
				"z": 2.3113239477,
				"element": "H" 
			},
			{
				"x": -0.7853996138,
				"y": 3.6772841794,
				"z": 1.7170217147,
				"element": "H" 
			},
			{
				"x": 0.7317446381,
				"y": 5.3412786007,
				"z": 0.7780626994,
				"element": "H" 
			},
			{
				"x": 2.3713005281,
				"y": 5.0558520372,
				"z": 0.5695881897,
				"element": "H" 
			},
			{
				"x": 3.4187760341,
				"y": 2.9578269223,
				"z": 1.15247915,
				"element": "H" 
			}
		],
		 "valence_orbital": [ 
			{
				"type": "occ",
				"energy": -0.25711,
				"method": "rhf"
			},
			{
				"type": "occ",
				"energy": -0.24985,
				"method": "rhf"
			},
			{
				"type": "occ",
				"energy": -0.24385,
				"method": "rhf"
			},
			{
				"type": "occ",
				"energy": -0.22974,
				"method": "rhf"
			},
			{
				"type": "occ",
				"energy": -0.20349,
				"method": "rhf"
			},
			{
				"type": "unocc",
				"energy": -0.02583,
				"method": "rhf"
			},
			{
				"type": "unocc",
				"energy": -0.00409,
				"method": "rhf"
			},
			{
				"type": "unocc",
				"energy": 0.00694,
				"method": "rhf"
			},
			{
				"type": "unocc",
				"energy": 0.0517,
				"method": "rhf"
			},
			{
				"type": "unocc",
				"energy": 0.07389,
				"method": "rhf"
			}
		],
		"cosmo_sigma_profile": { 
			"-0.025": 0.0,
			"-0.024": 0.0,
			"-0.023": 0.0,
			"-0.022": 0.0,
			"-0.021": 0.0,
			"-0.02": 0.0,
			"-0.019": 0.0,
			"-0.018": 0.0,
			"-0.017": 0.0,
			"-0.016": 0.0,
			"-0.015": 0.0,
			"-0.014": 0.15770462347,
			"-0.013": 1.19160057692,
			"-0.012": 3.54474024111,
			"-0.011": 3.14598839764,
			"-0.01": 4.38463627017,
			"-0.009": 6.3147555429,
			"-0.008": 5.3015295276,
			"-0.007": 7.82521156043,
			"-0.006": 10.3455452577,
			"-0.005": 13.4123214689,
			"-0.004": 18.3442713514,
			"-0.003": 16.4874750853,
			"-0.002": 16.3550526727,
			"-0.001": 18.596259255,
			"0.0": 20.4238929574,
			"0.001": 19.226684562,
			"0.002": 16.9875153619,
			"0.003": 14.4754019415,
			"0.004": 15.6759366147,
			"0.005": 8.38259385561,
			"0.006": 8.58533691103,
			"0.007": 3.38767348843,
			"0.008": 2.43350129691,
			"0.009": 2.16529042813,
			"0.01": 2.70437633062,
			"0.011": 3.19845221662,
			"0.012": 2.64585220436,
			"0.013": 5.51969682096,
			"0.014": 6.16348674236,
			"0.015": 1.59991693652,
			"0.016": 0.0704937658613,
			"0.017": 0.0,
			"0.018": 0.0,
			"0.019": 0.0,
			"0.02": 0.0,
			"0.021": 0.0,
			"0.022": 0.0,
			"0.023": 0.0,
			"0.024": 0.0,
			"0.025": 0.0
		}
	}
}
