{
	 "smiles": "OC(=O)C1=CC=C(NS(=O)(=O)C2=CC(=CC=C2)[N+]([O-])=O)C=C1", 
	 "Tm": 541.15, 
	 "num_atms": 32, 
	 "gaussian": { 
		 "optdone": 1, 
		 "sigma_profile": "yes", 
		 "theory": "DFT", 
		 "functional": "B3LYP", 
		 "basiset": "6-31G**", 
		 "properties": { 
			 "R2extent": 7996.5934, 
			 "electric_dipole_moment_norm": 5.41425886803, 
			 "electric_quadrupole_moment_norm": 36.5612039472, 
			 "total_energy": -1460.27725509, 
			 "HOMO_LUMO_gap": 0.14367, 
			 "cosmo_polarized_energy": -28.64, 
			 "cosmo_cavitation_energy": 39.94, 
			 "cosmo_dispersion_energy": -27.68, 
			 "cosmo_repulsion_energy": 2.07, 
			 "cosmo_total_nonelectrostatic_energy": 14.32, 
			 "SMD_solvation_energy": 9.41 
		},
		"coords": [
			{
				"x": -2.2867334946,
				"y": 2.6053821087,
				"z": -3.1001667673,
				"element": "O" 
			},
			{
				"x": -1.6724829692,
				"y": 3.191999309,
				"z": -2.0390081964,
				"element": "C" 
			},
			{
				"x": -2.0757378839,
				"y": 4.2503097973,
				"z": -1.6159688659,
				"element": "O" 
			},
			{
				"x": -0.5033443052,
				"y": 2.4674189218,
				"z": -1.4461076673,
				"element": "C" 
			},
			{
				"x": 0.2344981883,
				"y": 1.492867578,
				"z": -2.1322789975,
				"element": "C" 
			},
			{
				"x": 1.3308789156,
				"y": 0.8696614395,
				"z": -1.5426662589,
				"element": "C" 
			},
			{
				"x": 1.6867061704,
				"y": 1.1992476689,
				"z": -0.2263260778,
				"element": "C" 
			},
			{
				"x": 2.8025919169,
				"y": 0.602868332,
				"z": 0.4093344599,
				"element": "N" 
			},
			{
				"x": 3.1512176912,
				"y": -1.0560670798,
				"z": 0.4170471217,
				"element": "S" 
			},
			{
				"x": 4.3064855177,
				"y": -1.1660803979,
				"z": 1.3044138082,
				"element": "O" 
			},
			{
				"x": 3.162444346,
				"y": -1.5138585703,
				"z": -0.9689017806,
				"element": "O" 
			},
			{
				"x": 1.7566094427,
				"y": -1.852652896,
				"z": 1.2306523344,
				"element": "C" 
			},
			{
				"x": 0.6339623683,
				"y": -2.1940527564,
				"z": 0.4782588986,
				"element": "C" 
			},
			{
				"x": -0.4341525683,
				"y": -2.7822965548,
				"z": 1.148246033,
				"element": "C" 
			},
			{
				"x": -0.4062143541,
				"y": -3.0465690121,
				"z": 2.5162004896,
				"element": "C" 
			},
			{
				"x": 0.735252829,
				"y": -2.7069327368,
				"z": 3.2414901742,
				"element": "C" 
			},
			{
				"x": 1.8221042435,
				"y": -2.1056875856,
				"z": 2.6041892731,
				"element": "C" 
			},
			{
				"x": -1.6379595059,
				"y": -3.1444040781,
				"z": 0.3741537971,
				"element": "N" 
			},
			{
				"x": -2.5589508714,
				"y": -3.6848629591,
				"z": 0.9816529187,
				"element": "O" 
			},
			{
				"x": -1.6404510253,
				"y": -2.8775277185,
				"z": -0.8255251772,
				"element": "O" 
			},
			{
				"x": 0.9598931614,
				"y": 2.182801309,
				"z": 0.4642391118,
				"element": "C" 
			},
			{
				"x": -0.108578718,
				"y": 2.8222333533,
				"z": -0.1489265195,
				"element": "C" 
			},
			{
				"x": -1.9757837669,
				"y": 1.69648092,
				"z": -3.2122624209,
				"element": "H" 
			},
			{
				"x": -0.0009924607,
				"y": 1.2415736113,
				"z": -3.1634998157,
				"element": "H" 
			},
			{
				"x": 1.9208790595,
				"y": 0.1490350673,
				"z": -2.094907675,
				"element": "H" 
			},
			{
				"x": 3.0863668336,
				"y": 1.0210141195,
				"z": 1.2892555177,
				"element": "H" 
			},
			{
				"x": 0.585731425,
				"y": -2.0298234441,
				"z": -0.5899120199,
				"element": "H" 
			},
			{
				"x": -1.2645453551,
				"y": -3.5133159812,
				"z": 2.9830722487,
				"element": "H" 
			},
			{
				"x": 0.7802286687,
				"y": -2.9163291669,
				"z": 4.3051053038,
				"element": "H" 
			},
			{
				"x": 2.7229677057,
				"y": -1.8517249329,
				"z": 3.1523001468,
				"element": "H" 
			},
			{
				"x": 1.2391332742,
				"y": 2.4456084355,
				"z": 1.4813382234,
				"element": "H" 
			},
			{
				"x": -0.6661244791,
				"y": 3.5956838994,
				"z": 0.3679083789,
				"element": "H" 
			}
		],
		 "valence_orbital": [ 
			{
				"type": "occ",
				"energy": -0.31139,
				"method": "rhf"
			},
			{
				"type": "occ",
				"energy": -0.30658,
				"method": "rhf"
			},
			{
				"type": "occ",
				"energy": -0.28588,
				"method": "rhf"
			},
			{
				"type": "occ",
				"energy": -0.27929,
				"method": "rhf"
			},
			{
				"type": "occ",
				"energy": -0.25646,
				"method": "rhf"
			},
			{
				"type": "unocc",
				"energy": -0.11279,
				"method": "rhf"
			},
			{
				"type": "unocc",
				"energy": -0.07586,
				"method": "rhf"
			},
			{
				"type": "unocc",
				"energy": -0.05653,
				"method": "rhf"
			},
			{
				"type": "unocc",
				"energy": -0.03782,
				"method": "rhf"
			},
			{
				"type": "unocc",
				"energy": -0.03009,
				"method": "rhf"
			}
		],
		"cosmo_sigma_profile": { 
			"-0.025": 0.0,
			"-0.024": 0.0,
			"-0.023": 0.0,
			"-0.022": 0.0,
			"-0.021": 0.0,
			"-0.02": 0.0,
			"-0.019": 0.363332083703,
			"-0.018": 0.788232910613,
			"-0.017": 1.35812141375,
			"-0.016": 1.75009976992,
			"-0.015": 2.59221221543,
			"-0.014": 2.3187697472,
			"-0.013": 2.50966883343,
			"-0.012": 2.91707737963,
			"-0.011": 1.64527876288,
			"-0.01": 2.69417382525,
			"-0.009": 5.33475010101,
			"-0.008": 11.1511219226,
			"-0.007": 13.2076431606,
			"-0.006": 15.8024971762,
			"-0.005": 13.9013222744,
			"-0.004": 15.3491613309,
			"-0.003": 18.1024910083,
			"-0.002": 24.8170149811,
			"-0.001": 24.0209699884,
			"0.0": 19.0192105737,
			"0.001": 14.9228864115,
			"0.002": 19.7735991309,
			"0.003": 14.0598987002,
			"0.004": 7.73912163408,
			"0.005": 8.88616003855,
			"0.006": 11.4112719454,
			"0.007": 14.1594784712,
			"0.008": 12.099099292,
			"0.009": 11.5326332215,
			"0.01": 13.7224166187,
			"0.011": 6.96876640694,
			"0.012": 4.81483546461,
			"0.013": 1.70073010384,
			"0.014": 0.0847900768913,
			"0.015": 0.0,
			"0.016": 0.0,
			"0.017": 0.0,
			"0.018": 0.0,
			"0.019": 0.0,
			"0.02": 0.0,
			"0.021": 0.0,
			"0.022": 0.0,
			"0.023": 0.0,
			"0.024": 0.0,
			"0.0": 0.0
		}
	}
}
