{
	 "smiles": "NC1=CC=C(C=C1Cl)C1=CC=C(N)C(Cl)=C1", 
	 "Tm": 405.15, 
	 "num_atms": 26, 
	 "gaussian": { 
		 "optdone": 1, 
		 "sigma_profile": "yes", 
		 "theory": "DFT", 
		 "functional": "B3LYP", 
		 "basiset": "6-31G**", 
		 "properties": { 
			 "R2extent": 6513.9611, 
			 "electric_dipole_moment_norm": 2.86351318139, 
			 "electric_quadrupole_moment_norm": 21.636352969, 
			 "total_energy": -1493.21131368, 
			 "HOMO_LUMO_gap": 0.17267, 
			 "cosmo_polarized_energy": -13.28, 
			 "cosmo_cavitation_energy": 33.45, 
			 "cosmo_dispersion_energy": -25.01, 
			 "cosmo_repulsion_energy": 1.95, 
			 "cosmo_total_nonelectrostatic_energy": 10.38, 
			 "SMD_solvation_energy": 4.68 
		},
		"coords": [
			{
				"x": 3.8402585607,
				"y": -0.8848555829,
				"z": 3.5183188462,
				"element": "N" 
			},
			{
				"x": 2.7989013994,
				"y": -0.6329930542,
				"z": 2.6394714335,
				"element": "C" 
			},
			{
				"x": 2.8410488859,
				"y": -1.0832161695,
				"z": 1.3064621849,
				"element": "C" 
			},
			{
				"x": 1.7786093704,
				"y": -0.8813576934,
				"z": 0.4361590484,
				"element": "C" 
			},
			{
				"x": 0.6066601476,
				"y": -0.2213073053,
				"z": 0.845760981,
				"element": "C" 
			},
			{
				"x": 0.5550129991,
				"y": 0.2311335101,
				"z": 2.1732307159,
				"element": "C" 
			},
			{
				"x": 1.6244544352,
				"y": 0.0328944739,
				"z": 3.0379165952,
				"element": "C" 
			},
			{
				"x": 1.5029906487,
				"y": 0.6297449819,
				"z": 4.6963960466,
				"element": "Cl" 
			},
			{
				"x": -0.5301113842,
				"y": -0.0043034848,
				"z": -0.0794799111,
				"element": "C" 
			},
			{
				"x": -1.3074857601,
				"y": 1.1664331098,
				"z": -0.0349609815,
				"element": "C" 
			},
			{
				"x": -2.3720600131,
				"y": 1.3654183251,
				"z": -0.9033206464,
				"element": "C" 
			},
			{
				"x": -2.7221300606,
				"y": 0.4074470113,
				"z": -1.8734380429,
				"element": "C" 
			},
			{
				"x": -3.8186409251,
				"y": 0.5877957838,
				"z": -2.701314896,
				"element": "N" 
			},
			{
				"x": -1.9336286114,
				"y": -0.7579032262,
				"z": -1.9147725997,
				"element": "C" 
			},
			{
				"x": -2.3124541418,
				"y": -2.0023107008,
				"z": -3.1103775551,
				"element": "Cl" 
			},
			{
				"x": -0.8716115703,
				"y": -0.9656376748,
				"z": -1.0431978805,
				"element": "C" 
			},
			{
				"x": 4.7410589412,
				"y": -1.0469506515,
				"z": 3.0925038577,
				"element": "H" 
			},
			{
				"x": 3.8799513807,
				"y": -0.2927727464,
				"z": 4.3358524603,
				"element": "H" 
			},
			{
				"x": 3.7348698558,
				"y": -1.5947630135,
				"z": 0.9581158155,
				"element": "H" 
			},
			{
				"x": 1.8708030043,
				"y": -1.2205196464,
				"z": -0.5911423555,
				"element": "H" 
			},
			{
				"x": -0.3342532156,
				"y": 0.7246401599,
				"z": 2.5494185889,
				"element": "H" 
			},
			{
				"x": -1.0578589823,
				"y": 1.9480641985,
				"z": 0.6761063892,
				"element": "H" 
			},
			{
				"x": -2.9520762623,
				"y": 2.2831126861,
				"z": -0.8453432976,
				"element": "H" 
			},
			{
				"x": -4.1048466465,
				"y": 1.5452726889,
				"z": -2.8439981954,
				"element": "H" 
			},
			{
				"x": -3.8300187198,
				"y": 0.032219447,
				"z": -3.544943015,
				"element": "H" 
			},
			{
				"x": -0.3214433358,
				"y": -1.8979854266,
				"z": -1.1056235866,
				"element": "H" 
			}
		],
		 "valence_orbital": [ 
			{
				"type": "occ",
				"energy": -0.3014,
				"method": "rhf"
			},
			{
				"type": "occ",
				"energy": -0.24655,
				"method": "rhf"
			},
			{
				"type": "occ",
				"energy": -0.24649,
				"method": "rhf"
			},
			{
				"type": "occ",
				"energy": -0.22505,
				"method": "rhf"
			},
			{
				"type": "occ",
				"energy": -0.18948,
				"method": "rhf"
			},
			{
				"type": "unocc",
				"energy": -0.01681,
				"method": "rhf"
			},
			{
				"type": "unocc",
				"energy": -0.0101,
				"method": "rhf"
			},
			{
				"type": "unocc",
				"energy": -0.00465,
				"method": "rhf"
			},
			{
				"type": "unocc",
				"energy": 0.02842,
				"method": "rhf"
			},
			{
				"type": "unocc",
				"energy": 0.03601,
				"method": "rhf"
			}
		],
		"cosmo_sigma_profile": { 
			"-0.025": 0.0,
			"-0.024": 0.0,
			"-0.023": 0.0,
			"-0.022": 0.0,
			"-0.021": 0.0,
			"-0.02": 0.0,
			"-0.019": 0.0,
			"-0.018": 0.0,
			"-0.017": 0.0,
			"-0.016": 0.0,
			"-0.015": 0.0,
			"-0.014": 0.212495555827,
			"-0.013": 2.20942579694,
			"-0.012": 3.73797901472,
			"-0.011": 4.11853279047,
			"-0.01": 5.44373751858,
			"-0.009": 5.28067342187,
			"-0.008": 4.99579749774,
			"-0.007": 6.39358880641,
			"-0.006": 13.0875992759,
			"-0.005": 13.4648541104,
			"-0.004": 13.1783517298,
			"-0.003": 10.0323848386,
			"-0.002": 13.3167611542,
			"-0.001": 12.6364723701,
			"0.0": 14.0732058478,
			"0.001": 18.0223084399,
			"0.002": 22.0694865663,
			"0.003": 28.1283776635,
			"0.004": 35.7581199204,
			"0.005": 31.2662123305,
			"0.006": 4.78264809071,
			"0.007": 1.69112443051,
			"0.008": 1.12917032995,
			"0.009": 1.72305232638,
			"0.01": 1.4569590853,
			"0.011": 1.16129248422,
			"0.012": 1.23234574062,
			"0.013": 0.921901642893,
			"0.014": 0.0696401625033,
			"0.015": 0.0,
			"0.016": 0.0,
			"0.017": 0.0,
			"0.018": 0.0,
			"0.019": 0.0,
			"0.02": 0.0,
			"0.021": 0.0,
			"0.022": 0.0,
			"0.023": 0.0,
			"0.024": 0.0,
			"0.025": 0.0
		}
	}
}
