{
	 "smiles": "CN1N=C(C)C(C(CC(O)=O)C(F)(F)F)=C1C", 
	 "Tm": 404.15, 
	 "num_atms": 30, 
	 "gaussian": { 
		 "optdone": 1, 
		 "sigma_profile": "yes", 
		 "theory": "DFT", 
		 "functional": "B3LYP", 
		 "basiset": "6-31G**", 
		 "properties": { 
			 "R2extent": 4073.6409, 
			 "electric_dipole_moment_norm": 3.99480838089, 
			 "electric_quadrupole_moment_norm": 11.6608635645, 
			 "total_energy": -948.395236081, 
			 "HOMO_LUMO_gap": 0.23331, 
			 "cosmo_polarized_energy": -14.91, 
			 "cosmo_cavitation_energy": 33.98, 
			 "cosmo_dispersion_energy": -22.76, 
			 "cosmo_repulsion_energy": 1.73, 
			 "cosmo_total_nonelectrostatic_energy": 12.95, 
			 "SMD_solvation_energy": 7.09 
		},
		"coords": [
			{
				"x": -2.7698297908,
				"y": 1.9771251522,
				"z": -0.132197362,
				"element": "C" 
			},
			{
				"x": -1.4785271921,
				"y": 1.3211001205,
				"z": -0.0674572063,
				"element": "N" 
			},
			{
				"x": -0.4026461436,
				"y": 2.0141040137,
				"z": 0.3811497212,
				"element": "N" 
			},
			{
				"x": 0.6189144869,
				"y": 1.1614591166,
				"z": 0.3288143761,
				"element": "C" 
			},
			{
				"x": 1.9781794319,
				"y": 1.6242825337,
				"z": 0.7651473606,
				"element": "C" 
			},
			{
				"x": 0.1944564586,
				"y": -0.1061373427,
				"z": -0.169847593,
				"element": "C" 
			},
			{
				"x": 0.9727208779,
				"y": -1.3818887197,
				"z": -0.3686398747,
				"element": "C" 
			},
			{
				"x": 2.3874099234,
				"y": -1.1991735379,
				"z": -0.9638947567,
				"element": "C" 
			},
			{
				"x": 2.3768394987,
				"y": -0.4588350204,
				"z": -2.2823325707,
				"element": "C" 
			},
			{
				"x": 1.560063104,
				"y": -1.0522650288,
				"z": -3.187943861,
				"element": "O" 
			},
			{
				"x": 3.0223752151,
				"y": 0.5323518404,
				"z": -2.5395997745,
				"element": "O" 
			},
			{
				"x": 1.0634893159,
				"y": -2.1902151849,
				"z": 0.924488539,
				"element": "C" 
			},
			{
				"x": -0.1615207956,
				"y": -2.4572022508,
				"z": 1.4223618729,
				"element": "F" 
			},
			{
				"x": 1.6777970213,
				"y": -3.3811610512,
				"z": 0.7183037662,
				"element": "F" 
			},
			{
				"x": 1.7635764818,
				"y": -1.5465547463,
				"z": 1.8857987299,
				"element": "F" 
			},
			{
				"x": -1.1692904283,
				"y": 0.0415434613,
				"z": -0.4087894888,
				"element": "C" 
			},
			{
				"x": -2.1993959225,
				"y": -0.9251931573,
				"z": -0.8996329706,
				"element": "C" 
			},
			{
				"x": -2.6325087785,
				"y": 2.9865665418,
				"z": 0.2532841862,
				"element": "H" 
			},
			{
				"x": -3.5104373979,
				"y": 1.4531063273,
				"z": 0.480809976,
				"element": "H" 
			},
			{
				"x": -3.1376604547,
				"y": 2.0322739552,
				"z": -1.1625027952,
				"element": "H" 
			},
			{
				"x": 2.6752189453,
				"y": 1.6740443292,
				"z": -0.078539461,
				"element": "H" 
			},
			{
				"x": 1.8924148821,
				"y": 2.623832574,
				"z": 1.1968317205,
				"element": "H" 
			},
			{
				"x": 2.4030451256,
				"y": 0.9551300028,
				"z": 1.5196921046,
				"element": "H" 
			},
			{
				"x": 0.4140030594,
				"y": -2.0258359726,
				"z": -1.055615608,
				"element": "H" 
			},
			{
				"x": 3.0389879593,
				"y": -0.6527882599,
				"z": -0.2835397518,
				"element": "H" 
			},
			{
				"x": 2.8276192824,
				"y": -2.1879299366,
				"z": -1.1318460955,
				"element": "H" 
			},
			{
				"x": 1.6144591351,
				"y": -0.5119248262,
				"z": -3.9941091065,
				"element": "H" 
			},
			{
				"x": -2.855774104,
				"y": -1.2649792743,
				"z": -0.0891876644,
				"element": "H" 
			},
			{
				"x": -2.8335562334,
				"y": -0.4826843336,
				"z": -1.6755832837,
				"element": "H" 
			},
			{
				"x": -1.7263229635,
				"y": -1.8118513253,
				"z": -1.3268231287,
				"element": "H" 
			}
		],
		 "valence_orbital": [ 
			{
				"type": "occ",
				"energy": -0.32481,
				"method": "rhf"
			},
			{
				"type": "occ",
				"energy": -0.28164,
				"method": "rhf"
			},
			{
				"type": "occ",
				"energy": -0.27822,
				"method": "rhf"
			},
			{
				"type": "occ",
				"energy": -0.23393,
				"method": "rhf"
			},
			{
				"type": "occ",
				"energy": -0.23346,
				"method": "rhf"
			},
			{
				"type": "unocc",
				"energy": -0.00015,
				"method": "rhf"
			},
			{
				"type": "unocc",
				"energy": 0.02361,
				"method": "rhf"
			},
			{
				"type": "unocc",
				"energy": 0.05961,
				"method": "rhf"
			},
			{
				"type": "unocc",
				"energy": 0.06643,
				"method": "rhf"
			},
			{
				"type": "unocc",
				"energy": 0.07941,
				"method": "rhf"
			}
		],
		"cosmo_sigma_profile": { 
			"-0.025": 0.0,
			"-0.024": 0.0,
			"-0.023": 0.0,
			"-0.022": 0.0,
			"-0.021": 0.0,
			"-0.02": 0.0,
			"-0.019": 0.115582239847,
			"-0.018": 0.737604676014,
			"-0.017": 1.10253223224,
			"-0.016": 0.688591202525,
			"-0.015": 0.721633151313,
			"-0.014": 0.867509210757,
			"-0.013": 0.613379996832,
			"-0.012": 0.590124668474,
			"-0.011": 0.872216382294,
			"-0.01": 0.901995971826,
			"-0.009": 0.432124151443,
			"-0.008": 2.25619719811,
			"-0.007": 5.24988256943,
			"-0.006": 13.935464675,
			"-0.005": 18.134031321,
			"-0.004": 21.0245056047,
			"-0.003": 23.2879833838,
			"-0.002": 19.7452328852,
			"-0.001": 17.4364845,
			"0.0": 17.33125446,
			"0.001": 15.0018490045,
			"0.002": 22.053646469,
			"0.003": 35.5833903358,
			"0.004": 11.4556358785,
			"0.005": 5.23364435424,
			"0.006": 5.12252205343,
			"0.007": 4.35033513491,
			"0.008": 4.09321173729,
			"0.009": 3.34059373512,
			"0.01": 3.64530351557,
			"0.011": 4.93533625256,
			"0.012": 3.48011078606,
			"0.013": 0.839392875408,
			"0.014": 1.15308365225,
			"0.015": 1.02089358441,
			"0.016": 0.508729825058,
			"0.017": 0.0,
			"0.018": 0.0,
			"0.019": 0.0,
			"0.02": 0.0,
			"0.021": 0.0,
			"0.022": 0.0,
			"0.023": 0.0,
			"0.024": 0.0,
			"0.025": 0.0
		}
	}
}
