{
	 "smiles": "CNS(=O)(=O)C1=C(Br)C=C(OC)C(OC)=C1", 
	 "Tm": 430.15, 
	 "num_atms": 28, 
	 "gaussian": { 
		 "optdone": 1, 
		 "sigma_profile": "yes", 
		 "theory": "DFT", 
		 "functional": "B3LYP", 
		 "basiset": "6-31G**", 
		 "properties": { 
			 "R2extent": 6101.5806, 
			 "electric_dipole_moment_norm": 5.75371047586, 
			 "electric_quadrupole_moment_norm": 17.285603524, 
			 "total_energy": -3675.31002578, 
			 "HOMO_LUMO_gap": 0.20409, 
			 "cosmo_polarized_energy": -17.03, 
			 "cosmo_cavitation_energy": 35.15, 
			 "cosmo_dispersion_energy": -25.52, 
			 "cosmo_repulsion_energy": 1.97, 
			 "cosmo_total_nonelectrostatic_energy": 11.6, 
			 "SMD_solvation_energy": 5.95 
		},
		"coords": [
			{
				"x": -2.8717918809,
				"y": 2.2066284831,
				"z": 2.8506509276,
				"element": "C" 
			},
			{
				"x": -2.1792243387,
				"y": 0.9101585493,
				"z": 2.8427288129,
				"element": "N" 
			},
			{
				"x": -2.6350122236,
				"y": -0.2128555856,
				"z": 1.662922529,
				"element": "S" 
			},
			{
				"x": -2.5270327807,
				"y": -1.5232590499,
				"z": 2.3103749356,
				"element": "O" 
			},
			{
				"x": -3.8800974809,
				"y": 0.2308305711,
				"z": 1.031728668,
				"element": "O" 
			},
			{
				"x": -1.3108896536,
				"y": -0.055999418,
				"z": 0.4417946453,
				"element": "C" 
			},
			{
				"x": -1.3534039366,
				"y": -0.762021001,
				"z": -0.7693319579,
				"element": "C" 
			},
			{
				"x": -2.7748198899,
				"y": -1.9419485818,
				"z": -1.2283956235,
				"element": "Br" 
			},
			{
				"x": -0.3220994343,
				"y": -0.6129382658,
				"z": -1.6943142104,
				"element": "C" 
			},
			{
				"x": 0.7653229928,
				"y": 0.2208870103,
				"z": -1.4289709409,
				"element": "C" 
			},
			{
				"x": 1.7599706664,
				"y": 0.310095135,
				"z": -2.3662606158,
				"element": "O" 
			},
			{
				"x": 1.9272450586,
				"y": 1.6049778289,
				"z": -2.9659455599,
				"element": "C" 
			},
			{
				"x": 0.8333632408,
				"y": 0.8982211091,
				"z": -0.1970741495,
				"element": "C" 
			},
			{
				"x": 1.8823744807,
				"y": 1.7269500262,
				"z": 0.1186641708,
				"element": "O" 
			},
			{
				"x": 3.1320452448,
				"y": 1.0569773982,
				"z": 0.3458247238,
				"element": "C" 
			},
			{
				"x": -0.2073488695,
				"y": 0.7559010902,
				"z": 0.7182760089,
				"element": "C" 
			},
			{
				"x": -3.9573936123,
				"y": 2.1196030535,
				"z": 2.9599042714,
				"element": "H" 
			},
			{
				"x": -2.6586085781,
				"y": 2.7372972861,
				"z": 1.9205105858,
				"element": "H" 
			},
			{
				"x": -2.463852424,
				"y": 2.7927248931,
				"z": 3.6779618548,
				"element": "H" 
			},
			{
				"x": -2.2011826623,
				"y": 0.4154118699,
				"z": 3.730372368,
				"element": "H" 
			},
			{
				"x": -0.3506819305,
				"y": -1.1428220454,
				"z": -2.6388348496,
				"element": "H" 
			},
			{
				"x": 2.7579552142,
				"y": 1.5064321087,
				"z": -3.6665430193,
				"element": "H" 
			},
			{
				"x": 1.021987983,
				"y": 1.8926633237,
				"z": -3.5135334914,
				"element": "H" 
			},
			{
				"x": 2.1593729749,
				"y": 2.3652263877,
				"z": -2.2150372379,
				"element": "H" 
			},
			{
				"x": 3.8583145652,
				"y": 1.8392261134,
				"z": 0.5733624188,
				"element": "H" 
			},
			{
				"x": 3.0528600907,
				"y": 0.3739085602,
				"z": 1.1999519172,
				"element": "H" 
			},
			{
				"x": 3.4515847928,
				"y": 0.499277346,
				"z": -0.539670349,
				"element": "H" 
			},
			{
				"x": -0.1474576092,
				"y": 1.2792458038,
				"z": 1.6640831672,
				"element": "H" 
			}
		],
		 "valence_orbital": [ 
			{
				"type": "occ",
				"energy": -0.2893,
				"method": "rhf"
			},
			{
				"type": "occ",
				"energy": -0.2806,
				"method": "rhf"
			},
			{
				"type": "occ",
				"energy": -0.27087,
				"method": "rhf"
			},
			{
				"type": "occ",
				"energy": -0.2606,
				"method": "rhf"
			},
			{
				"type": "occ",
				"energy": -0.24013,
				"method": "rhf"
			},
			{
				"type": "unocc",
				"energy": -0.03604,
				"method": "rhf"
			},
			{
				"type": "unocc",
				"energy": -0.02486,
				"method": "rhf"
			},
			{
				"type": "unocc",
				"energy": -0.00262,
				"method": "rhf"
			},
			{
				"type": "unocc",
				"energy": 0.0601,
				"method": "rhf"
			},
			{
				"type": "unocc",
				"energy": 0.06972,
				"method": "rhf"
			}
		],
		"cosmo_sigma_profile": { 
			"-0.025": 0.0,
			"-0.024": 0.0,
			"-0.023": 0.0,
			"-0.022": 0.0,
			"-0.021": 0.0,
			"-0.02": 0.0,
			"-0.019": 0.0,
			"-0.018": 0.0,
			"-0.017": 0.0,
			"-0.016": 0.0,
			"-0.015": 0.465356456393,
			"-0.014": 0.893589535745,
			"-0.013": 1.05671883274,
			"-0.012": 1.12066436817,
			"-0.011": 1.11775687479,
			"-0.01": 0.712868374121,
			"-0.009": 1.42412077406,
			"-0.008": 2.42353788908,
			"-0.007": 3.59615211364,
			"-0.006": 11.5336818388,
			"-0.005": 20.7637161935,
			"-0.004": 27.4503047168,
			"-0.003": 33.2219401911,
			"-0.002": 28.3277274867,
			"-0.001": 19.4208437041,
			"0.0": 20.8716140227,
			"0.001": 19.1086002533,
			"0.002": 12.1705767388,
			"0.003": 13.2814344408,
			"0.004": 9.2909055049,
			"0.005": 6.56530654548,
			"0.006": 5.68540249587,
			"0.007": 5.85789969497,
			"0.008": 6.17183350108,
			"0.009": 5.54153359967,
			"0.01": 11.0565452153,
			"0.011": 11.3314925843,
			"0.012": 1.74072167215,
			"0.013": 0.0,
			"0.014": 0.0,
			"0.015": 0.0,
			"0.016": 0.0,
			"0.017": 0.0,
			"0.018": 0.0,
			"0.019": 0.0,
			"0.02": 0.0,
			"0.021": 0.0,
			"0.022": 0.0,
			"0.023": 0.0,
			"0.024": 0.0,
			"0.025": 0.0
		}
	}
}
