{
	 "smiles": "CCOC(=O)CC[C@H](C)[C@H]1CCC2C3[C@H](O)[C@H](Br)[C@@H]4C[C@@H](CC[C@]4(C)C3C[C@H](OC(C)=O)[C@]12C)OC(C)=O", 
	 "Tm": 439.15, 
	 "num_atms": 85, 
	 "gaussian": { 
		 "optdone": 1, 
		 "sigma_profile": "yes", 
		 "theory": "DFT", 
		 "functional": "B3LYP", 
		 "basiset": "6-31G**", 
		 "properties": { 
			 "R2extent": 31646.8244, 
			 "electric_dipole_moment_norm": 3.51020214375, 
			 "electric_quadrupole_moment_norm": 28.0900123644, 
			 "total_energy": -4269.57307312, 
			 "HOMO_LUMO_gap": 0.25446, 
			 "cosmo_polarized_energy": -22.6, 
			 "cosmo_cavitation_energy": 76.91, 
			 "cosmo_dispersion_energy": -49.27, 
			 "cosmo_repulsion_energy": 3.67, 
			 "cosmo_total_nonelectrostatic_energy": 31.32, 
			 "SMD_solvation_energy": 13.34 
		},
		"coords": [
			{
				"x": -1.0306207505,
				"y": -7.7084989686,
				"z": 5.2866226812,
				"element": "C" 
			},
			{
				"x": -1.1514172072,
				"y": -7.0382105372,
				"z": 3.9262914251,
				"element": "C" 
			},
			{
				"x": -0.9609994464,
				"y": -5.6063053862,
				"z": 4.0253295756,
				"element": "O" 
			},
			{
				"x": -2.0527236134,
				"y": -4.8706666161,
				"z": 4.3420046673,
				"element": "C" 
			},
			{
				"x": -3.1504058249,
				"y": -5.3482431979,
				"z": 4.5434868243,
				"element": "O" 
			},
			{
				"x": -1.7127031425,
				"y": -3.3962995509,
				"z": 4.4554209035,
				"element": "C" 
			},
			{
				"x": -0.9091844742,
				"y": -2.7743920436,
				"z": 3.295525802,
				"element": "C" 
			},
			{
				"x": -1.7166838993,
				"y": -2.4381271075,
				"z": 2.0191773032,
				"element": "C" 
			},
			{
				"x": -2.3948906222,
				"y": -3.6896194653,
				"z": 1.4334326408,
				"element": "C" 
			},
			{
				"x": -0.792773458,
				"y": -1.67838954,
				"z": 1.0205619998,
				"element": "C" 
			},
			{
				"x": 0.0216666527,
				"y": -2.5451907955,
				"z": 0.0405058986,
				"element": "C" 
			},
			{
				"x": 0.6400232602,
				"y": -1.5140834161,
				"z": -0.9067648863,
				"element": "C" 
			},
			{
				"x": -0.53388688,
				"y": -0.5526273252,
				"z": -1.1950905046,
				"element": "C" 
			},
			{
				"x": -0.1990437151,
				"y": 0.876761324,
				"z": -1.6747844797,
				"element": "C" 
			},
			{
				"x": 0.394733368,
				"y": 0.9339214792,
				"z": -3.0940801206,
				"element": "C" 
			},
			{
				"x": 1.5983772438,
				"y": 0.1855113264,
				"z": -3.1430566603,
				"element": "O" 
			},
			{
				"x": 0.5857503324,
				"y": 2.4096481763,
				"z": -3.477153264,
				"element": "C" 
			},
			{
				"x": 1.289594032,
				"y": 2.4902041875,
				"z": -5.3648152407,
				"element": "Br" 
			},
			{
				"x": 1.4359858387,
				"y": 3.2467133944,
				"z": -2.5069494756,
				"element": "C" 
			},
			{
				"x": 2.9395538923,
				"y": 2.8831563838,
				"z": -2.527646394,
				"element": "C" 
			},
			{
				"x": 3.7446561149,
				"y": 3.7125245188,
				"z": -1.5311906078,
				"element": "C" 
			},
			{
				"x": 3.2047590378,
				"y": 3.5513464168,
				"z": -0.1187972881,
				"element": "C" 
			},
			{
				"x": 1.726714309,
				"y": 3.9565608197,
				"z": -0.0933388075,
				"element": "C" 
			},
			{
				"x": 0.7968382739,
				"y": 3.1750141451,
				"z": -1.0645830848,
				"element": "C" 
			},
			{
				"x": -0.5636291682,
				"y": 3.9112270522,
				"z": -1.0403172356,
				"element": "C" 
			},
			{
				"x": 0.6477665123,
				"y": 1.6709122652,
				"z": -0.6482417805,
				"element": "C" 
			},
			{
				"x": 0.0862779808,
				"y": 1.4475354785,
				"z": 0.7878466991,
				"element": "C" 
			},
			{
				"x": -1.3215960286,
				"y": 0.8455633256,
				"z": 0.7869877691,
				"element": "C" 
			},
			{
				"x": -1.7988780561,
				"y": 0.7246223363,
				"z": 2.1585500302,
				"element": "O" 
			},
			{
				"x": -2.3322913032,
				"y": 1.8305032174,
				"z": 2.7268178316,
				"element": "C" 
			},
			{
				"x": -2.8090733015,
				"y": 1.5375942836,
				"z": 4.1301862642,
				"element": "C" 
			},
			{
				"x": -2.4165190917,
				"y": 2.9077278347,
				"z": 2.1740554027,
				"element": "O" 
			},
			{
				"x": -1.425299227,
				"y": -0.5475718173,
				"z": 0.1170706419,
				"element": "C" 
			},
			{
				"x": -2.896578644,
				"y": -0.7888300729,
				"z": -0.2638182391,
				"element": "C" 
			},
			{
				"x": 5.1254347708,
				"y": 3.2627461008,
				"z": -1.5235934125,
				"element": "O" 
			},
			{
				"x": 5.9633175605,
				"y": 3.8210464445,
				"z": -2.428860603,
				"element": "C" 
			},
			{
				"x": 7.3536223794,
				"y": 3.2440270958,
				"z": -2.2929400096,
				"element": "C" 
			},
			{
				"x": 5.6330698934,
				"y": 4.6666877852,
				"z": -3.2320977748,
				"element": "O" 
			},
			{
				"x": -1.1009255642,
				"y": -8.7955356604,
				"z": 5.1733326419,
				"element": "H" 
			},
			{
				"x": -1.8363172297,
				"y": -7.3804502772,
				"z": 5.9478068495,
				"element": "H" 
			},
			{
				"x": -0.0693359423,
				"y": -7.4737363816,
				"z": 5.7533762196,
				"element": "H" 
			},
			{
				"x": -2.1283660471,
				"y": -7.2330013322,
				"z": 3.4776517247,
				"element": "H" 
			},
			{
				"x": -0.3646813906,
				"y": -7.3710775543,
				"z": 3.2448297152,
				"element": "H" 
			},
			{
				"x": -1.1242581639,
				"y": -3.2946402761,
				"z": 5.3769536869,
				"element": "H" 
			},
			{
				"x": -2.6558196377,
				"y": -2.8660856018,
				"z": 4.6159328514,
				"element": "H" 
			},
			{
				"x": -0.0707678691,
				"y": -3.436421024,
				"z": 3.0494840435,
				"element": "H" 
			},
			{
				"x": -0.4710610276,
				"y": -1.8407326727,
				"z": 3.6677029719,
				"element": "H" 
			},
			{
				"x": -2.5049867343,
				"y": -1.7420477606,
				"z": 2.3294151513,
				"element": "H" 
			},
			{
				"x": -1.6675996991,
				"y": -4.4865132503,
				"z": 1.2444971499,
				"element": "H" 
			},
			{
				"x": -2.9055866127,
				"y": -3.4784301012,
				"z": 0.490984421,
				"element": "H" 
			},
			{
				"x": -3.1479860239,
				"y": -4.0849103337,
				"z": 2.1209573575,
				"element": "H" 
			},
			{
				"x": -0.0481002711,
				"y": -1.1656111561,
				"z": 1.6421387352,
				"element": "H" 
			},
			{
				"x": 0.7671888605,
				"y": -3.1681408269,
				"z": 0.5466027174,
				"element": "H" 
			},
			{
				"x": -0.6343818979,
				"y": -3.2203174238,
				"z": -0.5225773103,
				"element": "H" 
			},
			{
				"x": 1.4636845577,
				"y": -0.9944094509,
				"z": -0.4039422494,
				"element": "H" 
			},
			{
				"x": 1.0513612396,
				"y": -1.939777061,
				"z": -1.8234498772,
				"element": "H" 
			},
			{
				"x": -1.1384504065,
				"y": -1.0161542204,
				"z": -1.9863941451,
				"element": "H" 
			},
			{
				"x": -1.1689432076,
				"y": 1.3819433993,
				"z": -1.7754663939,
				"element": "H" 
			},
			{
				"x": -0.3413693048,
				"y": 0.5004569623,
				"z": -3.7897409274,
				"element": "H" 
			},
			{
				"x": 1.9760501177,
				"y": 0.3192679571,
				"z": -4.0261060405,
				"element": "H" 
			},
			{
				"x": -0.3967526026,
				"y": 2.8651687263,
				"z": -3.5966068011,
				"element": "H" 
			},
			{
				"x": 1.3522439327,
				"y": 4.2923453065,
				"z": -2.8336285248,
				"element": "H" 
			},
			{
				"x": 3.083958626,
				"y": 1.8236637122,
				"z": -2.3035031137,
				"element": "H" 
			},
			{
				"x": 3.3299509588,
				"y": 3.0594053174,
				"z": -3.5331018142,
				"element": "H" 
			},
			{
				"x": 3.737877958,
				"y": 4.766796298,
				"z": -1.8279589765,
				"element": "H" 
			},
			{
				"x": 3.7765781694,
				"y": 4.1752519871,
				"z": 0.5772322705,
				"element": "H" 
			},
			{
				"x": 3.3404067944,
				"y": 2.5115865839,
				"z": 0.2024276081,
				"element": "H" 
			},
			{
				"x": 1.6587938656,
				"y": 5.0208717436,
				"z": -0.3573179456,
				"element": "H" 
			},
			{
				"x": 1.3381729326,
				"y": 3.8844430267,
				"z": 0.9274432401,
				"element": "H" 
			},
			{
				"x": -0.9965758682,
				"y": 3.9099722739,
				"z": -0.0349991577,
				"element": "H" 
			},
			{
				"x": -1.3104251203,
				"y": 3.477548623,
				"z": -1.7105662821,
				"element": "H" 
			},
			{
				"x": -0.4319447162,
				"y": 4.9565375988,
				"z": -1.3404390866,
				"element": "H" 
			},
			{
				"x": 1.6515861176,
				"y": 1.2385714973,
				"z": -0.6736201472,
				"element": "H" 
			},
			{
				"x": 0.0416831003,
				"y": 2.3849453878,
				"z": 1.3454136018,
				"element": "H" 
			},
			{
				"x": 0.752532451,
				"y": 0.7870401352,
				"z": 1.3525043596,
				"element": "H" 
			},
			{
				"x": -1.9996298484,
				"y": 1.5419941461,
				"z": 0.2862793124,
				"element": "H" 
			},
			{
				"x": -1.9883543946,
				"y": 1.1366826794,
				"z": 4.7318539127,
				"element": "H" 
			},
			{
				"x": -3.1911657409,
				"y": 2.4525640689,
				"z": 4.581627469,
				"element": "H" 
			},
			{
				"x": -3.597427205,
				"y": 0.779073581,
				"z": 4.1067815446,
				"element": "H" 
			},
			{
				"x": -3.0332863975,
				"y": -1.7547294707,
				"z": -0.757247238,
				"element": "H" 
			},
			{
				"x": -3.5597123559,
				"y": -0.7529776732,
				"z": 0.6057220074,
				"element": "H" 
			},
			{
				"x": -3.2342701688,
				"y": -0.0164080985,
				"z": -0.9655755217,
				"element": "H" 
			},
			{
				"x": 7.7204266758,
				"y": 3.3780711641,
				"z": -1.271256472,
				"element": "H" 
			},
			{
				"x": 7.3311702723,
				"y": 2.1682477164,
				"z": -2.4919255601,
				"element": "H" 
			},
			{
				"x": 8.0214712196,
				"y": 3.7366581638,
				"z": -2.9988824693,
				"element": "H" 
			}
		],
		 "valence_orbital": [ 
			{
				"type": "occ",
				"energy": -0.27672,
				"method": "rhf"
			},
			{
				"type": "occ",
				"energy": -0.27404,
				"method": "rhf"
			},
			{
				"type": "occ",
				"energy": -0.26787,
				"method": "rhf"
			},
			{
				"type": "occ",
				"energy": -0.26462,
				"method": "rhf"
			},
			{
				"type": "occ",
				"energy": -0.2641,
				"method": "rhf"
			},
			{
				"type": "unocc",
				"energy": -0.00964,
				"method": "rhf"
			},
			{
				"type": "unocc",
				"energy": 0.00607,
				"method": "rhf"
			},
			{
				"type": "unocc",
				"energy": 0.01339,
				"method": "rhf"
			},
			{
				"type": "unocc",
				"energy": 0.01765,
				"method": "rhf"
			},
			{
				"type": "unocc",
				"energy": 0.05601,
				"method": "rhf"
			}
		],
		"cosmo_sigma_profile": { 
			"-0.025": 0.0,
			"-0.024": 0.0,
			"-0.023": 0.0,
			"-0.022": 0.0,
			"-0.021": 0.0,
			"-0.02": 0.0,
			"-0.019": 0.0,
			"-0.018": 0.0,
			"-0.017": 0.0,
			"-0.016": 0.0,
			"-0.015": 0.0,
			"-0.014": 0.0,
			"-0.013": 0.0,
			"-0.012": 0.347650568952,
			"-0.011": 0.672161815637,
			"-0.01": 0.448330602846,
			"-0.009": 0.948021288641,
			"-0.008": 1.91353950978,
			"-0.007": 3.82002130293,
			"-0.006": 15.4529450937,
			"-0.005": 27.1640432616,
			"-0.004": 50.2547066713,
			"-0.003": 70.0751935029,
			"-0.002": 80.9032444826,
			"-0.001": 77.4222561862,
			"0.0": 65.8056481649,
			"0.001": 46.4580358239,
			"0.002": 31.6256699611,
			"0.003": 20.8574455341,
			"0.004": 18.9716814011,
			"0.005": 15.1577648745,
			"0.006": 15.9488502686,
			"0.007": 8.36738625684,
			"0.008": 6.31936666022,
			"0.009": 7.54752357603,
			"0.01": 6.51151641139,
			"0.011": 6.60408009449,
			"0.012": 10.9395463395,
			"0.013": 5.92283245958,
			"0.014": 0.471188201814,
			"0.015": 0.0,
			"0.016": 0.0,
			"0.017": 0.0,
			"0.018": 0.0,
			"0.019": 0.0,
			"0.02": 0.0,
			"0.021": 0.0,
			"0.022": 0.0,
			"0.023": 0.0,
			"0.024": 0.0,
			"0.025": 0.0
		}
	}
}
