{
	 "smiles": "CN(C)C1=NC(C)=C(S1)C(O)=O", 
	 "Tm": 373.15, 
	 "num_atms": 22, 
	 "gaussian": { 
		 "optdone": 1, 
		 "sigma_profile": "yes", 
		 "theory": "DFT", 
		 "functional": "B3LYP", 
		 "basiset": "6-31G**", 
		 "properties": { 
			 "R2extent": 4124.4472, 
			 "electric_dipole_moment_norm": 3.42566552658, 
			 "electric_quadrupole_moment_norm": 17.2992404163, 
			 "total_energy": -930.926752103, 
			 "HOMO_LUMO_gap": 0.16829, 
			 "cosmo_polarized_energy": -12.65, 
			 "cosmo_cavitation_energy": 27.18, 
			 "cosmo_dispersion_energy": -20.48, 
			 "cosmo_repulsion_energy": 1.6, 
			 "cosmo_total_nonelectrostatic_energy": 8.29, 
			 "SMD_solvation_energy": 4.55 
		},
		"coords": [
			{
				"x": -1.0755827404,
				"y": 2.4681968154,
				"z": 1.4372284288,
				"element": "C" 
			},
			{
				"x": -0.5444732821,
				"y": 1.1597698429,
				"z": 1.095701393,
				"element": "N" 
			},
			{
				"x": -0.9748955309,
				"y": 0.0179128398,
				"z": 1.8960730265,
				"element": "C" 
			},
			{
				"x": 0.5730489011,
				"y": 1.0477849516,
				"z": 0.329892517,
				"element": "C" 
			},
			{
				"x": 1.1862471915,
				"y": -0.1004834685,
				"z": 0.1022209229,
				"element": "N" 
			},
			{
				"x": 2.2538984327,
				"y": 0.0614785473,
				"z": -0.7348129398,
				"element": "C" 
			},
			{
				"x": 3.0518679407,
				"y": -1.1572400136,
				"z": -1.1056867128,
				"element": "C" 
			},
			{
				"x": 2.4912754649,
				"y": 1.3571324991,
				"z": -1.1584395485,
				"element": "C" 
			},
			{
				"x": 1.298936578,
				"y": 2.4479392832,
				"z": -0.4580981534,
				"element": "S" 
			},
			{
				"x": 3.5023037493,
				"y": 1.9317797603,
				"z": -2.0254306279,
				"element": "C" 
			},
			{
				"x": 4.3840056187,
				"y": 1.0141470376,
				"z": -2.5151344945,
				"element": "O" 
			},
			{
				"x": 3.585161724,
				"y": 3.1164846081,
				"z": -2.3092499067,
				"element": "O" 
			},
			{
				"x": -1.1043473007,
				"y": 3.1108605985,
				"z": 0.5518761267,
				"element": "H" 
			},
			{
				"x": -2.0992576647,
				"y": 2.350338613,
				"z": 1.7996050412,
				"element": "H" 
			},
			{
				"x": -0.4845245267,
				"y": 2.97211338,
				"z": 2.2158670627,
				"element": "H" 
			},
			{
				"x": -0.5816348833,
				"y": 0.0717461512,
				"z": 2.9209057784,
				"element": "H" 
			},
			{
				"x": -2.0679942934,
				"y": -0.0000168881,
				"z": 1.9397066731,
				"element": "H" 
			},
			{
				"x": -0.6106461024,
				"y": -0.8955775155,
				"z": 1.4293514264,
				"element": "H" 
			},
			{
				"x": 3.0484106621,
				"y": -1.317398447,
				"z": -2.1875595046,
				"element": "H" 
			},
			{
				"x": 2.6212368524,
				"y": -2.0283398499,
				"z": -0.60977992,
				"element": "H" 
			},
			{
				"x": 4.0988570156,
				"y": -1.0504774947,
				"z": -0.8084725861,
				"element": "H" 
			},
			{
				"x": 4.9951061936,
				"y": 1.5271487496,
				"z": -3.0690640024,
				"element": "H" 
			}
		],
		 "valence_orbital": [ 
			{
				"type": "occ",
				"energy": -0.29076,
				"method": "rhf"
			},
			{
				"type": "occ",
				"energy": -0.28539,
				"method": "rhf"
			},
			{
				"type": "occ",
				"energy": -0.27149,
				"method": "rhf"
			},
			{
				"type": "occ",
				"energy": -0.25657,
				"method": "rhf"
			},
			{
				"type": "occ",
				"energy": -0.20477,
				"method": "rhf"
			},
			{
				"type": "unocc",
				"energy": -0.03648,
				"method": "rhf"
			},
			{
				"type": "unocc",
				"energy": 0.01779,
				"method": "rhf"
			},
			{
				"type": "unocc",
				"energy": 0.03708,
				"method": "rhf"
			},
			{
				"type": "unocc",
				"energy": 0.08009,
				"method": "rhf"
			},
			{
				"type": "unocc",
				"energy": 0.08846,
				"method": "rhf"
			}
		],
		"cosmo_sigma_profile": { 
			"-0.025": 0.0,
			"-0.024": 0.0,
			"-0.023": 0.0,
			"-0.022": 0.0,
			"-0.021": 0.0,
			"-0.02": 0.0,
			"-0.019": 0.0,
			"-0.018": 0.327424096733,
			"-0.017": 0.839256979553,
			"-0.016": 1.19105084736,
			"-0.015": 0.649410364705,
			"-0.014": 0.59952657558,
			"-0.013": 0.250054260057,
			"-0.012": 0.512760230466,
			"-0.011": 0.965777370694,
			"-0.01": 1.03192048191,
			"-0.009": 0.773580738644,
			"-0.008": 0.179781037194,
			"-0.007": 2.9428243946,
			"-0.006": 7.49339931065,
			"-0.005": 14.8871891591,
			"-0.004": 20.3865739752,
			"-0.003": 23.8987466367,
			"-0.002": 17.5363061211,
			"-0.001": 15.2978789623,
			"0.0": 16.4474955094,
			"0.001": 15.3782203658,
			"0.002": 14.7260960727,
			"0.003": 13.2632378579,
			"0.004": 10.623938592,
			"0.005": 6.50760922881,
			"0.006": 6.20904194806,
			"0.007": 3.68260792923,
			"0.008": 2.85823140975,
			"0.009": 3.00285189523,
			"0.01": 3.26544788649,
			"0.011": 2.91863076626,
			"0.012": 5.44921304821,
			"0.013": 2.85408795065,
			"0.014": 0.0,
			"0.015": 0.0,
			"0.016": 0.0,
			"0.017": 0.0,
			"0.018": 0.0,
			"0.019": 0.0,
			"0.02": 0.0,
			"0.021": 0.0,
			"0.022": 0.0,
			"0.023": 0.0,
			"0.024": 0.0,
			"0.025": 0.0
		}
	}
}
