{
	 "smiles": "CC1=CC(C(O)=O)=C(C)N1CC1CC1", 
	 "Tm": 453.15, 
	 "num_atms": 29, 
	 "gaussian": { 
		 "optdone": 1, 
		 "sigma_profile": "yes", 
		 "theory": "DFT", 
		 "functional": "B3LYP", 
		 "basiset": "6-31G**", 
		 "properties": { 
			 "R2extent": 3485.1996, 
			 "electric_dipole_moment_norm": 6.58525860768, 
			 "electric_quadrupole_moment_norm": 28.0461887165, 
			 "total_energy": -633.397088902, 
			 "HOMO_LUMO_gap": 0.20394, 
			 "cosmo_polarized_energy": -15.55, 
			 "cosmo_cavitation_energy": 30.34, 
			 "cosmo_dispersion_energy": -21.79, 
			 "cosmo_repulsion_energy": 1.71, 
			 "cosmo_total_nonelectrostatic_energy": 10.26, 
			 "SMD_solvation_energy": 5.86 
		},
		"coords": [
			{
				"x": 1.704204001,
				"y": -1.5075287079,
				"z": 1.5908600103,
				"element": "C" 
			},
			{
				"x": 1.3636339449,
				"y": -1.157344039,
				"z": 0.176571351,
				"element": "C" 
			},
			{
				"x": 2.111031022,
				"y": -1.3062105744,
				"z": -0.9649764519,
				"element": "C" 
			},
			{
				"x": 1.2988365463,
				"y": -0.9259187983,
				"z": -2.0832035636,
				"element": "C" 
			},
			{
				"x": 1.6713245488,
				"y": -0.9274529309,
				"z": -3.5078874607,
				"element": "C" 
			},
			{
				"x": 3.0036009353,
				"y": -1.0800261113,
				"z": -3.7708708036,
				"element": "O" 
			},
			{
				"x": 0.9027066098,
				"y": -0.8071822104,
				"z": -4.4406411535,
				"element": "O" 
			},
			{
				"x": 0.0548323435,
				"y": -0.5510632258,
				"z": -1.5793054058,
				"element": "C" 
			},
			{
				"x": -1.1837306812,
				"y": -0.1291958723,
				"z": -2.3042284582,
				"element": "C" 
			},
			{
				"x": 0.1117211723,
				"y": -0.6786480984,
				"z": -0.2074659954,
				"element": "N" 
			},
			{
				"x": -0.9693450384,
				"y": -0.3388493563,
				"z": 0.7117660938,
				"element": "C" 
			},
			{
				"x": -0.9660132673,
				"y": 1.0958036324,
				"z": 1.2337890728,
				"element": "C" 
			},
			{
				"x": -0.5789307395,
				"y": 2.2882540254,
				"z": 0.395282637,
				"element": "C" 
			},
			{
				"x": 0.2909790161,
				"y": 1.8663164381,
				"z": 1.5554828017,
				"element": "C" 
			},
			{
				"x": 1.5897938643,
				"y": -0.6641234417,
				"z": 2.280347177,
				"element": "H" 
			},
			{
				"x": 1.0830675408,
				"y": -2.3277543346,
				"z": 1.973897552,
				"element": "H" 
			},
			{
				"x": 2.7445122636,
				"y": -1.8381228228,
				"z": 1.6385880833,
				"element": "H" 
			},
			{
				"x": 3.1157029408,
				"y": -1.7102346261,
				"z": -0.9835973261,
				"element": "H" 
			},
			{
				"x": 3.504817188,
				"y": -1.0422043152,
				"z": -2.9450919842,
				"element": "H" 
			},
			{
				"x": -1.5626306296,
				"y": 0.8390460772,
				"z": -1.9607351175,
				"element": "H" 
			},
			{
				"x": -1.9899588814,
				"y": -0.8625114752,
				"z": -2.1706101942,
				"element": "H" 
			},
			{
				"x": -0.9588944454,
				"y": -0.0728983674,
				"z": -3.3687732052,
				"element": "H" 
			},
			{
				"x": -0.9190481204,
				"y": -1.0317821259,
				"z": 1.5576929749,
				"element": "H" 
			},
			{
				"x": -1.9166013518,
				"y": -0.5363055716,
				"z": 0.2012525262,
				"element": "H" 
			},
			{
				"x": -1.7977149857,
				"y": 1.2604341429,
				"z": 1.917255025,
				"element": "H" 
			},
			{
				"x": -0.1805954869,
				"y": 2.1128459318,
				"z": -0.5987407862,
				"element": "H" 
			},
			{
				"x": -1.1744866839,
				"y": 3.1915350008,
				"z": 0.4859883662,
				"element": "H" 
			},
			{
				"x": 1.2481037794,
				"y": 1.4203288568,
				"z": 1.3050823292,
				"element": "H" 
			},
			{
				"x": 0.3011825947,
				"y": 2.4757929002,
				"z": 2.4540719057,
				"element": "H" 
			}
		],
		 "valence_orbital": [ 
			{
				"type": "occ",
				"energy": -0.29608,
				"method": "rhf"
			},
			{
				"type": "occ",
				"energy": -0.29504,
				"method": "rhf"
			},
			{
				"type": "occ",
				"energy": -0.25373,
				"method": "rhf"
			},
			{
				"type": "occ",
				"energy": -0.24702,
				"method": "rhf"
			},
			{
				"type": "occ",
				"energy": -0.21104,
				"method": "rhf"
			},
			{
				"type": "unocc",
				"energy": -0.0071,
				"method": "rhf"
			},
			{
				"type": "unocc",
				"energy": 0.03041,
				"method": "rhf"
			},
			{
				"type": "unocc",
				"energy": 0.0765,
				"method": "rhf"
			},
			{
				"type": "unocc",
				"energy": 0.07978,
				"method": "rhf"
			},
			{
				"type": "unocc",
				"energy": 0.08923,
				"method": "rhf"
			}
		],
		"cosmo_sigma_profile": { 
			"-0.025": 0.0,
			"-0.024": 0.0,
			"-0.023": 0.0,
			"-0.022": 0.0,
			"-0.021": 0.0,
			"-0.02": 0.0,
			"-0.019": 0.0,
			"-0.018": 0.0476065001967,
			"-0.017": 0.462595712673,
			"-0.016": 0.787582543838,
			"-0.015": 1.19302998508,
			"-0.014": 0.750601369343,
			"-0.013": 0.685725140529,
			"-0.012": 0.938019411003,
			"-0.011": 0.751449590141,
			"-0.01": 1.47151692034,
			"-0.009": 1.02374651057,
			"-0.008": 1.12503819745,
			"-0.007": 1.66307294431,
			"-0.006": 5.27787535756,
			"-0.005": 15.4057493134,
			"-0.004": 24.0560766975,
			"-0.003": 26.483208243,
			"-0.002": 22.9159899784,
			"-0.001": 24.0988075538,
			"0.0": 24.04290668,
			"0.001": 14.6900828983,
			"0.002": 10.6370372617,
			"0.003": 10.3767785519,
			"0.004": 8.33181991025,
			"0.005": 8.26005640425,
			"0.006": 5.66801400589,
			"0.007": 3.65972726002,
			"0.008": 2.34084956249,
			"0.009": 2.85077770395,
			"0.01": 3.52041041177,
			"0.011": 4.05231070802,
			"0.012": 5.22977497607,
			"0.013": 3.96216464764,
			"0.014": 2.04283059848,
			"0.015": 0.320347174146,
			"0.016": 0.0,
			"0.017": 0.0,
			"0.018": 0.0,
			"0.019": 0.0,
			"0.02": 0.0,
			"0.021": 0.0,
			"0.022": 0.0,
			"0.023": 0.0,
			"0.024": 0.0,
			"0.025": 0.0
		}
	}
}
