{
	 "smiles": "COC(=O)C1=CC2=C(NC(=O)N2)C=C1", 
	 "Tm": 577.15, 
	 "num_atms": 22, 
	 "gaussian": { 
		 "optdone": 1, 
		 "sigma_profile": "yes", 
		 "theory": "DFT", 
		 "functional": "B3LYP", 
		 "basiset": "6-31G**", 
		 "properties": { 
			 "R2extent": 3907.7824, 
			 "electric_dipole_moment_norm": 3.06220359382, 
			 "electric_quadrupole_moment_norm": 11.5206673683, 
			 "total_energy": -683.000982025, 
			 "HOMO_LUMO_gap": 0.17762, 
			 "cosmo_polarized_energy": -17.63, 
			 "cosmo_cavitation_energy": 27.17, 
			 "cosmo_dispersion_energy": -20.41, 
			 "cosmo_repulsion_energy": 1.6, 
			 "cosmo_total_nonelectrostatic_energy": 8.36, 
			 "SMD_solvation_energy": 6.79 
		},
		"coords": [
			{
				"x": -0.9742485616,
				"y": -2.5379476626,
				"z": 2.7691522132,
				"element": "C" 
			},
			{
				"x": -0.1889312986,
				"y": -1.9236283045,
				"z": 1.737207709,
				"element": "O" 
			},
			{
				"x": -0.5393247782,
				"y": -0.6524816878,
				"z": 1.4276550746,
				"element": "C" 
			},
			{
				"x": -1.4524014961,
				"y": -0.0664485633,
				"z": 1.9796071127,
				"element": "O" 
			},
			{
				"x": 0.3073578019,
				"y": -0.0692382912,
				"z": 0.3544856235,
				"element": "C" 
			},
			{
				"x": 0.018495705,
				"y": 1.2520121434,
				"z": -0.0363812195,
				"element": "C" 
			},
			{
				"x": 0.7943296987,
				"y": 1.8134645554,
				"z": -1.0331977908,
				"element": "C" 
			},
			{
				"x": 1.8444483552,
				"y": 1.0864773233,
				"z": -1.6420994642,
				"element": "C" 
			},
			{
				"x": 2.4115048349,
				"y": 1.9272109972,
				"z": -2.5850303708,
				"element": "N" 
			},
			{
				"x": 1.7710471137,
				"y": 3.1730463542,
				"z": -2.613055234,
				"element": "C" 
			},
			{
				"x": 2.027891159,
				"y": 4.1245623242,
				"z": -3.3243406323,
				"element": "O" 
			},
			{
				"x": 0.7774217671,
				"y": 3.0647580466,
				"z": -1.6406160376,
				"element": "N" 
			},
			{
				"x": 2.132340125,
				"y": -0.2186705838,
				"z": -1.2583821064,
				"element": "C" 
			},
			{
				"x": 1.3500128705,
				"y": -0.7890587844,
				"z": -0.2510258196,
				"element": "C" 
			},
			{
				"x": -2.0265606032,
				"y": -2.5848758036,
				"z": 2.4773979517,
				"element": "H" 
			},
			{
				"x": -0.5659998208,
				"y": -3.5412043372,
				"z": 2.8919018753,
				"element": "H" 
			},
			{
				"x": -0.8945782486,
				"y": -1.9743632697,
				"z": 3.702268086,
				"element": "H" 
			},
			{
				"x": -0.7922691017,
				"y": 1.7841521755,
				"z": 0.4481948712,
				"element": "H" 
			},
			{
				"x": 3.1845441888,
				"y": 1.7213718301,
				"z": -3.1973125976,
				"element": "H" 
			},
			{
				"x": 0.1503598098,
				"y": 3.8271399226,
				"z": -1.4404789022,
				"element": "H" 
			},
			{
				"x": 2.9373621544,
				"y": -0.7776147209,
				"z": -1.7243597818,
				"element": "H" 
			},
			{
				"x": 1.5460983249,
				"y": -1.8037636637,
				"z": 0.0730094395,
				"element": "H" 
			}
		],
		 "valence_orbital": [ 
			{
				"type": "occ",
				"energy": -0.30077,
				"method": "rhf"
			},
			{
				"type": "occ",
				"energy": -0.27718,
				"method": "rhf"
			},
			{
				"type": "occ",
				"energy": -0.27223,
				"method": "rhf"
			},
			{
				"type": "occ",
				"energy": -0.24944,
				"method": "rhf"
			},
			{
				"type": "occ",
				"energy": -0.21924,
				"method": "rhf"
			},
			{
				"type": "unocc",
				"energy": -0.04162,
				"method": "rhf"
			},
			{
				"type": "unocc",
				"energy": -0.01037,
				"method": "rhf"
			},
			{
				"type": "unocc",
				"energy": 0.06061,
				"method": "rhf"
			},
			{
				"type": "unocc",
				"energy": 0.06627,
				"method": "rhf"
			},
			{
				"type": "unocc",
				"energy": 0.07076,
				"method": "rhf"
			}
		],
		"cosmo_sigma_profile": { 
			"-0.025": 0.0,
			"-0.024": 0.0,
			"-0.023": 0.0,
			"-0.022": 0.0,
			"-0.021": 0.0,
			"-0.02": 0.0,
			"-0.019": 0.0,
			"-0.018": 0.0,
			"-0.017": 0.486122098128,
			"-0.016": 3.13689206029,
			"-0.015": 2.02805646856,
			"-0.014": 2.51461320745,
			"-0.013": 1.83458483044,
			"-0.012": 2.08369404962,
			"-0.011": 2.42756092517,
			"-0.01": 2.27601900942,
			"-0.009": 2.3310239806,
			"-0.008": 2.80233319136,
			"-0.007": 5.48045032028,
			"-0.006": 8.86651158135,
			"-0.005": 12.5384065761,
			"-0.004": 12.7737892152,
			"-0.003": 12.615256948,
			"-0.002": 13.4370221606,
			"-0.001": 15.1357632437,
			"0.0": 15.3232863743,
			"0.001": 16.1372771665,
			"0.002": 15.9764159009,
			"0.003": 15.4431089561,
			"0.004": 9.40725069489,
			"0.005": 5.23132169477,
			"0.006": 4.14377096541,
			"0.007": 2.60959192174,
			"0.008": 3.28194298479,
			"0.009": 2.39462389766,
			"0.01": 2.46721059369,
			"0.011": 3.95923321983,
			"0.012": 7.00739540885,
			"0.013": 7.92076837499,
			"0.014": 3.26489643289,
			"0.015": 0.00820853445515,
			"0.016": 0.0,
			"0.017": 0.0,
			"0.018": 0.0,
			"0.019": 0.0,
			"0.02": 0.0,
			"0.021": 0.0,
			"0.022": 0.0,
			"0.023": 0.0,
			"0.024": 0.0,
			"0.025": 0.0
		}
	}
}
