{
	 "smiles": "CC(C)(C)C1=CC=C(C=C1)C1=CC=C(O1)C=O", 
	 "Tm": 344.15, 
	 "num_atms": 33, 
	 "gaussian": { 
		 "optdone": 1, 
		 "sigma_profile": "yes", 
		 "theory": "DFT", 
		 "functional": "B3LYP", 
		 "basiset": "6-31G**", 
		 "properties": { 
			 "R2extent": 6474.8373, 
			 "electric_dipole_moment_norm": 4.52009038184, 
			 "electric_quadrupole_moment_norm": 25.1339005294, 
			 "total_energy": -731.677161769, 
			 "HOMO_LUMO_gap": 0.14954, 
			 "cosmo_polarized_energy": -11.56, 
			 "cosmo_cavitation_energy": 36.27, 
			 "cosmo_dispersion_energy": -25.54, 
			 "cosmo_repulsion_energy": 1.95, 
			 "cosmo_total_nonelectrostatic_energy": 12.67, 
			 "SMD_solvation_energy": 7.79 
		},
		"coords": [
			{
				"x": -2.1429632531,
				"y": -2.5620459477,
				"z": 1.9157101003,
				"element": "C" 
			},
			{
				"x": -2.5261030245,
				"y": -1.1320767281,
				"z": 1.4640884978,
				"element": "C" 
			},
			{
				"x": -2.9285636432,
				"y": -0.3248327414,
				"z": 2.7127997313,
				"element": "C" 
			},
			{
				"x": -3.7503084726,
				"y": -1.2036629121,
				"z": 0.5197429243,
				"element": "C" 
			},
			{
				"x": -1.3406422031,
				"y": -0.4986105255,
				"z": 0.7157480304,
				"element": "C" 
			},
			{
				"x": -0.7107484892,
				"y": 0.6804484498,
				"z": 1.1390118692,
				"element": "C" 
			},
			{
				"x": 0.3619158699,
				"y": 1.2307997241,
				"z": 0.4399124266,
				"element": "C" 
			},
			{
				"x": 0.8502534782,
				"y": 0.6152433486,
				"z": -0.722270794,
				"element": "C" 
			},
			{
				"x": 0.2268367378,
				"y": -0.5680877356,
				"z": -1.1573040951,
				"element": "C" 
			},
			{
				"x": -0.8407771516,
				"y": -1.1058398042,
				"z": -0.4515711132,
				"element": "C" 
			},
			{
				"x": 1.9704952221,
				"y": 1.1829507162,
				"z": -1.4591636149,
				"element": "C" 
			},
			{
				"x": 2.6391695972,
				"y": 0.7977740617,
				"z": -2.6058801608,
				"element": "C" 
			},
			{
				"x": 3.649318772,
				"y": 1.7641518746,
				"z": -2.8268013038,
				"element": "C" 
			},
			{
				"x": 3.54561083,
				"y": 2.685089615,
				"z": -1.8082479235,
				"element": "C" 
			},
			{
				"x": 2.5202408822,
				"y": 2.3280736038,
				"z": -0.9749472149,
				"element": "O" 
			},
			{
				"x": 4.3124387651,
				"y": 3.8836085916,
				"z": -1.5218775077,
				"element": "C" 
			},
			{
				"x": 4.128142358,
				"y": 4.632920312,
				"z": -0.5778174401,
				"element": "O" 
			},
			{
				"x": -2.980102054,
				"y": -3.0299787885,
				"z": 2.4457425,
				"element": "H" 
			},
			{
				"x": -1.2816806529,
				"y": -2.5421262841,
				"z": 2.5913976573,
				"element": "H" 
			},
			{
				"x": -1.8870406371,
				"y": -3.2034463728,
				"z": 1.0671493983,
				"element": "H" 
			},
			{
				"x": -3.7729127041,
				"y": -0.8130818551,
				"z": 3.2098371491,
				"element": "H" 
			},
			{
				"x": -2.1113042125,
				"y": -0.2612197336,
				"z": 3.4386665521,
				"element": "H" 
			},
			{
				"x": -3.2407017591,
				"y": 0.6931605148,
				"z": 2.45764895,
				"element": "H" 
			},
			{
				"x": -4.6026354681,
				"y": -1.6584968795,
				"z": 1.0368287538,
				"element": "H" 
			},
			{
				"x": -4.0484775217,
				"y": -0.2037446342,
				"z": 0.1880479362,
				"element": "H" 
			},
			{
				"x": -3.5440693862,
				"y": -1.803567302,
				"z": -0.3716242484,
				"element": "H" 
			},
			{
				"x": -1.053621121,
				"y": 1.1910014696,
				"z": 2.0312831386,
				"element": "H" 
			},
			{
				"x": 0.8269921487,
				"y": 2.1442731491,
				"z": 0.7944119721,
				"element": "H" 
			},
			{
				"x": 0.5794409315,
				"y": -1.0706555479,
				"z": -2.0530681593,
				"element": "H" 
			},
			{
				"x": -1.2945967987,
				"y": -2.0207804073,
				"z": -0.8202992701,
				"element": "H" 
			},
			{
				"x": 2.4273940923,
				"y": -0.0714805536,
				"z": -3.2104555948,
				"element": "H" 
			},
			{
				"x": 4.3696157715,
				"y": 1.7888835404,
				"z": -3.6328408085,
				"element": "H" 
			},
			{
				"x": 5.1156830962,
				"y": 4.0666557818,
				"z": -2.2689583382,
				"element": "H" 
			}
		],
		 "valence_orbital": [ 
			{
				"type": "occ",
				"energy": -0.29674,
				"method": "rhf"
			},
			{
				"type": "occ",
				"energy": -0.27821,
				"method": "rhf"
			},
			{
				"type": "occ",
				"energy": -0.25764,
				"method": "rhf"
			},
			{
				"type": "occ",
				"energy": -0.24946,
				"method": "rhf"
			},
			{
				"type": "occ",
				"energy": -0.21596,
				"method": "rhf"
			},
			{
				"type": "unocc",
				"energy": -0.06642,
				"method": "rhf"
			},
			{
				"type": "unocc",
				"energy": -0.01459,
				"method": "rhf"
			},
			{
				"type": "unocc",
				"energy": -0.00765,
				"method": "rhf"
			},
			{
				"type": "unocc",
				"energy": 0.06326,
				"method": "rhf"
			},
			{
				"type": "unocc",
				"energy": 0.07521,
				"method": "rhf"
			}
		],
		"cosmo_sigma_profile": { 
			"-0.025": 0.0,
			"-0.024": 0.0,
			"-0.023": 0.0,
			"-0.022": 0.0,
			"-0.021": 0.0,
			"-0.02": 0.0,
			"-0.019": 0.0,
			"-0.018": 0.0,
			"-0.017": 0.0,
			"-0.016": 0.0,
			"-0.015": 0.0,
			"-0.014": 0.0,
			"-0.013": 0.0,
			"-0.012": 0.0,
			"-0.011": 0.0,
			"-0.01": 0.0,
			"-0.009": 1.395186529,
			"-0.008": 6.68947109016,
			"-0.007": 6.50961071676,
			"-0.006": 9.82808829712,
			"-0.005": 13.3162706345,
			"-0.004": 15.1034042494,
			"-0.003": 26.9678274663,
			"-0.002": 28.7546382179,
			"-0.001": 27.139800882,
			"0.0": 29.2467706039,
			"0.001": 40.1252029628,
			"0.002": 22.7904874479,
			"0.003": 14.9834694683,
			"0.004": 10.963516154,
			"0.005": 10.3524509676,
			"0.006": 2.23614280455,
			"0.007": 2.10697713332,
			"0.008": 1.5737571678,
			"0.009": 2.45249193895,
			"0.01": 2.70507361399,
			"0.011": 3.56621265514,
			"0.012": 5.21046096984,
			"0.013": 3.02992671893,
			"0.014": 0.318308694834,
			"0.015": 0.0,
			"0.016": 0.0,
			"0.017": 0.0,
			"0.018": 0.0,
			"0.019": 0.0,
			"0.02": 0.0,
			"0.021": 0.0,
			"0.022": 0.0,
			"0.023": 0.0,
			"0.024": 0.0,
			"0.025": 0.0
		}
	}
}
