{
	 "smiles": "CS(=O)(=O)NC1=CC=C(C=C1)S(Cl)(=O)=O", 
	 "Tm": 415.15, 
	 "num_atms": 23, 
	 "gaussian": { 
		 "optdone": 1, 
		 "sigma_profile": "yes", 
		 "theory": "DFT", 
		 "functional": "B3LYP", 
		 "basiset": "6-31G**", 
		 "properties": { 
			 "R2extent": 6507.0234, 
			 "electric_dipole_moment_norm": 5.24366749518, 
			 "electric_quadrupole_moment_norm": 25.3085405352, 
			 "total_energy": -1883.64575496, 
			 "HOMO_LUMO_gap": 0.17298, 
			 "cosmo_polarized_energy": -21.8, 
			 "cosmo_cavitation_energy": 32.39, 
			 "cosmo_dispersion_energy": -24.47, 
			 "cosmo_repulsion_energy": 1.83, 
			 "cosmo_total_nonelectrostatic_energy": 9.75, 
			 "SMD_solvation_energy": 3.95 
		},
		"coords": [
			{
				"x": -3.519145648,
				"y": 1.9374578593,
				"z": -0.4919359357,
				"element": "C" 
			},
			{
				"x": -2.438427047,
				"y": 3.3483647514,
				"z": -0.7928498177,
				"element": "S" 
			},
			{
				"x": -3.1166249932,
				"y": 4.5684559399,
				"z": -0.3666682585,
				"element": "O" 
			},
			{
				"x": -1.8747477398,
				"y": 3.1942230182,
				"z": -2.1311078462,
				"element": "O" 
			},
			{
				"x": -1.1935985362,
				"y": 3.1660965865,
				"z": 0.3462255632,
				"element": "N" 
			},
			{
				"x": -0.2526742377,
				"y": 2.1320415519,
				"z": 0.4395338317,
				"element": "C" 
			},
			{
				"x": 0.1171395919,
				"y": 1.3492596987,
				"z": -0.6703210344,
				"element": "C" 
			},
			{
				"x": 1.0549650934,
				"y": 0.334627521,
				"z": -0.517335102,
				"element": "C" 
			},
			{
				"x": 1.6370283755,
				"y": 0.1172033185,
				"z": 0.7326089984,
				"element": "C" 
			},
			{
				"x": 1.2975682738,
				"y": 0.8967365102,
				"z": 1.8407949243,
				"element": "C" 
			},
			{
				"x": 0.3499690226,
				"y": 1.8988619351,
				"z": 1.6906922068,
				"element": "C" 
			},
			{
				"x": 2.8442037762,
				"y": -1.1728390429,
				"z": 0.9191766692,
				"element": "S" 
			},
			{
				"x": 1.6095128261,
				"y": -2.8427123709,
				"z": 1.4458179905,
				"element": "Cl" 
			},
			{
				"x": 3.4168504782,
				"y": -1.4965079792,
				"z": -0.3813077565,
				"element": "O" 
			},
			{
				"x": 3.6662112033,
				"y": -0.901607446,
				"z": 2.0921110943,
				"element": "O" 
			},
			{
				"x": -3.9434091524,
				"y": 2.0246760617,
				"z": 0.5087147436,
				"element": "H" 
			},
			{
				"x": -2.9419580429,
				"y": 1.0176478204,
				"z": -0.5989557785,
				"element": "H" 
			},
			{
				"x": -4.3062098211,
				"y": 1.9780096084,
				"z": -1.2470922228,
				"element": "H" 
			},
			{
				"x": -1.3610122171,
				"y": 3.7313058196,
				"z": 1.1700926778,
				"element": "H" 
			},
			{
				"x": -0.3048127143,
				"y": 1.5580213955,
				"z": -1.6454854517,
				"element": "H" 
			},
			{
				"x": 1.3525099024,
				"y": -0.2687534491,
				"z": -1.3677065923,
				"element": "H" 
			},
			{
				"x": 1.7697173788,
				"y": 0.7189137198,
				"z": 2.8003923905,
				"element": "H" 
			},
			{
				"x": 0.0725442275,
				"y": 2.5093171719,
				"z": 2.5454047057,
				"element": "H" 
			}
		],
		 "valence_orbital": [ 
			{
				"type": "occ",
				"energy": -0.33159,
				"method": "rhf"
			},
			{
				"type": "occ",
				"energy": -0.32588,
				"method": "rhf"
			},
			{
				"type": "occ",
				"energy": -0.31365,
				"method": "rhf"
			},
			{
				"type": "occ",
				"energy": -0.29788,
				"method": "rhf"
			},
			{
				"type": "occ",
				"energy": -0.26487,
				"method": "rhf"
			},
			{
				"type": "unocc",
				"energy": -0.09189,
				"method": "rhf"
			},
			{
				"type": "unocc",
				"energy": -0.04734,
				"method": "rhf"
			},
			{
				"type": "unocc",
				"energy": -0.04543,
				"method": "rhf"
			},
			{
				"type": "unocc",
				"energy": 0.03062,
				"method": "rhf"
			},
			{
				"type": "unocc",
				"energy": 0.03728,
				"method": "rhf"
			}
		],
		"cosmo_sigma_profile": { 
			"-0.025": 0.0,
			"-0.024": 0.0,
			"-0.023": 0.0,
			"-0.022": 0.0,
			"-0.021": 0.0,
			"-0.02": 0.0,
			"-0.019": 0.0,
			"-0.018": 0.0,
			"-0.017": 0.550504004251,
			"-0.016": 1.22425882989,
			"-0.015": 1.41807005611,
			"-0.014": 1.0983480503,
			"-0.013": 1.24554077171,
			"-0.012": 1.57336088358,
			"-0.011": 1.22685364857,
			"-0.01": 2.88708591579,
			"-0.009": 7.17608415155,
			"-0.008": 10.8840706577,
			"-0.007": 12.905442957,
			"-0.006": 13.3855628056,
			"-0.005": 14.4948473721,
			"-0.004": 12.680853278,
			"-0.003": 9.44587672164,
			"-0.002": 10.5409414971,
			"-0.001": 13.669996023,
			"0.0": 18.8071141849,
			"0.001": 21.565436934,
			"0.002": 14.2515306112,
			"0.003": 16.4933091496,
			"0.004": 14.9917682949,
			"0.005": 5.45282405881,
			"0.006": 6.3414638036,
			"0.007": 9.2638398035,
			"0.008": 12.04281562,
			"0.009": 10.4716723509,
			"0.01": 9.83331058956,
			"0.011": 6.15867607551,
			"0.012": 0.1539253737,
			"0.013": 0.0,
			"0.014": 0.0,
			"0.015": 0.0,
			"0.016": 0.0,
			"0.017": 0.0,
			"0.018": 0.0,
			"0.019": 0.0,
			"0.02": 0.0,
			"0.021": 0.0,
			"0.022": 0.0,
			"0.023": 0.0,
			"0.024": 0.0,
			"0.025": 0.0
		}
	}
}
