{
	 "smiles": "O=C1NC=NC2=C1C=CC=N2", 
	 "Tm": 523.15, 
	 "num_atms": 16, 
	 "gaussian": { 
		 "optdone": 1, 
		 "sigma_profile": "yes", 
		 "theory": "DFT", 
		 "functional": "B3LYP", 
		 "basiset": "6-31G**", 
		 "properties": { 
			 "R2extent": 1716.025, 
			 "electric_dipole_moment_norm": 1.08748583899, 
			 "electric_quadrupole_moment_norm": 18.5262712444, 
			 "total_energy": -509.252959484, 
			 "HOMO_LUMO_gap": 0.18971, 
			 "cosmo_polarized_energy": -17.2, 
			 "cosmo_cavitation_energy": 20.76, 
			 "cosmo_dispersion_energy": -15.92, 
			 "cosmo_repulsion_energy": 1.25, 
			 "cosmo_total_nonelectrostatic_energy": 6.09, 
			 "SMD_solvation_energy": 1.48 
		},
		"coords": [
			{
				"x": 1.55406402,
				"y": -1.1527795166,
				"z": -2.8594829746,
				"element": "O" 
			},
			{
				"x": 0.6537222624,
				"y": -1.2411366032,
				"z": -2.0381814521,
				"element": "C" 
			},
			{
				"x": -0.5338856582,
				"y": -1.9282536446,
				"z": -2.328487539,
				"element": "N" 
			},
			{
				"x": -1.5745614039,
				"y": -2.0562544575,
				"z": -1.4417065566,
				"element": "C" 
			},
			{
				"x": -1.6002880756,
				"y": -1.5721245095,
				"z": -0.2472330186,
				"element": "N" 
			},
			{
				"x": -0.4768776067,
				"y": -0.8649597479,
				"z": 0.1645656582,
				"element": "C" 
			},
			{
				"x": 0.6467878049,
				"y": -0.6804341245,
				"z": -0.6811896464,
				"element": "C" 
			},
			{
				"x": 1.7484398577,
				"y": 0.0428388503,
				"z": -0.2055004544,
				"element": "C" 
			},
			{
				"x": 1.6973042098,
				"y": 0.5529568424,
				"z": 1.0804457464,
				"element": "C" 
			},
			{
				"x": 0.5386544852,
				"y": 0.3167109052,
				"z": 1.8417982292,
				"element": "C" 
			},
			{
				"x": -0.5190346013,
				"y": -0.3653673646,
				"z": 1.4148211393,
				"element": "N" 
			},
			{
				"x": -0.5924776832,
				"y": -2.3400003806,
				"z": -3.2521918108,
				"element": "H" 
			},
			{
				"x": -2.4298926532,
				"y": -2.6183907197,
				"z": -1.8124943439,
				"element": "H" 
			},
			{
				"x": 2.6052844736,
				"y": 0.1806458663,
				"z": -0.8573153673,
				"element": "H" 
			},
			{
				"x": 2.5212385262,
				"y": 1.120416864,
				"z": 1.50008568,
				"element": "H" 
			},
			{
				"x": 0.4725220424,
				"y": 0.7070317407,
				"z": 2.8566667107,
				"element": "H" 
			}
		],
		 "valence_orbital": [ 
			{
				"type": "occ",
				"energy": -0.29725,
				"method": "rhf"
			},
			{
				"type": "occ",
				"energy": -0.29494,
				"method": "rhf"
			},
			{
				"type": "occ",
				"energy": -0.27534,
				"method": "rhf"
			},
			{
				"type": "occ",
				"energy": -0.26066,
				"method": "rhf"
			},
			{
				"type": "occ",
				"energy": -0.24839,
				"method": "rhf"
			},
			{
				"type": "unocc",
				"energy": -0.05868,
				"method": "rhf"
			},
			{
				"type": "unocc",
				"energy": -0.05095,
				"method": "rhf"
			},
			{
				"type": "unocc",
				"energy": 0.01282,
				"method": "rhf"
			},
			{
				"type": "unocc",
				"energy": 0.06018,
				"method": "rhf"
			},
			{
				"type": "unocc",
				"energy": 0.06515,
				"method": "rhf"
			}
		],
		"cosmo_sigma_profile": { 
			"-0.025": 0.0,
			"-0.024": 0.0,
			"-0.023": 0.0,
			"-0.022": 0.0,
			"-0.021": 0.0,
			"-0.02": 0.0,
			"-0.019": 0.0,
			"-0.018": 0.0252378314147,
			"-0.017": 1.46614878567,
			"-0.016": 1.86793974935,
			"-0.015": 0.673803637541,
			"-0.014": 1.49405498725,
			"-0.013": 1.30666366388,
			"-0.012": 1.31912077369,
			"-0.011": 1.84653727928,
			"-0.01": 3.34936819612,
			"-0.009": 2.0064153933,
			"-0.008": 3.27512634178,
			"-0.007": 8.49877247825,
			"-0.006": 9.62913402742,
			"-0.005": 8.49291992165,
			"-0.004": 8.90162133441,
			"-0.003": 11.5610200252,
			"-0.002": 10.3832329965,
			"-0.001": 12.7173431282,
			"0.0": 13.2762283886,
			"0.001": 11.8571632784,
			"0.002": 5.53346327651,
			"0.003": 4.16951981785,
			"0.004": 3.00167685047,
			"0.005": 3.26301151148,
			"0.006": 4.19782947481,
			"0.007": 2.42593394099,
			"0.008": 2.68434384344,
			"0.009": 2.53839125032,
			"0.01": 3.85736044408,
			"0.011": 3.60388850698,
			"0.012": 7.04170767567,
			"0.013": 4.28166357462,
			"0.014": 1.86370511321,
			"0.015": 2.28351746583,
			"0.016": 2.57301925873,
			"0.017": 0.548124148093,
			"0.018": 0.0,
			"0.019": 0.0,
			"0.02": 0.0,
			"0.021": 0.0,
			"0.022": 0.0,
			"0.023": 0.0,
			"0.024": 0.0,
			"0.025": 0.0
		}
	}
}
