{
	 "smiles": "O=C1N2C3OC4C(C3C3=CC=CC=C43)N2C(=O)N1C1=CC=CC=C1", 
	 "Tm": 419.15, 
	 "num_atms": 37, 
	 "gaussian": { 
		 "optdone": 1, 
		 "sigma_profile": "yes", 
		 "theory": "DFT", 
		 "functional": "B3LYP", 
		 "basiset": "6-31G**", 
		 "properties": { 
			 "R2extent": 9204.7109, 
			 "electric_dipole_moment_norm": 3.43283950251, 
			 "electric_quadrupole_moment_norm": 17.62230237, 
			 "total_energy": -1083.64176192, 
			 "HOMO_LUMO_gap": 0.20852, 
			 "cosmo_polarized_energy": -16.78, 
			 "cosmo_cavitation_energy": 40.16, 
			 "cosmo_dispersion_energy": -29.51, 
			 "cosmo_repulsion_energy": 2.18, 
			 "cosmo_total_nonelectrostatic_energy": 12.83, 
			 "SMD_solvation_energy": 5.06 
		},
		"coords": [
			{
				"x": 0.65706123,
				"y": -0.1200426469,
				"z": 2.4063077405,
				"element": "O" 
			},
			{
				"x": 0.363867807,
				"y": 0.6668108851,
				"z": 1.5315277593,
				"element": "C" 
			},
			{
				"x": -0.7598217283,
				"y": 0.6137814066,
				"z": 0.7092333007,
				"element": "N" 
			},
			{
				"x": -1.2000361831,
				"y": -0.5780777106,
				"z": -0.0423241929,
				"element": "C" 
			},
			{
				"x": -2.5062361744,
				"y": -0.2795567302,
				"z": -0.4899472587,
				"element": "O" 
			},
			{
				"x": -2.3084704647,
				"y": 0.4677418204,
				"z": -1.7505401723,
				"element": "C" 
			},
			{
				"x": -0.8448877501,
				"y": 0.9553114254,
				"z": -1.578220928,
				"element": "C" 
			},
			{
				"x": -0.3264622721,
				"y": -0.5070268749,
				"z": -1.3486459408,
				"element": "C" 
			},
			{
				"x": -0.9378708469,
				"y": -1.2376621099,
				"z": -2.5096578371,
				"element": "C" 
			},
			{
				"x": -0.5091011608,
				"y": -2.3272706804,
				"z": -3.2572260631,
				"element": "C" 
			},
			{
				"x": -1.3176337482,
				"y": -2.7597816858,
				"z": -4.3174462259,
				"element": "C" 
			},
			{
				"x": -2.5252930711,
				"y": -2.119460125,
				"z": -4.6111082351,
				"element": "C" 
			},
			{
				"x": -2.9620941269,
				"y": -1.0261587229,
				"z": -3.8503513946,
				"element": "C" 
			},
			{
				"x": -2.1536331968,
				"y": -0.5926891826,
				"z": -2.8096238882,
				"element": "C" 
			},
			{
				"x": -0.6506023288,
				"y": 1.6428615735,
				"z": -0.2957747023,
				"element": "N" 
			},
			{
				"x": 0.5349878284,
				"y": 2.3531652876,
				"z": -0.053528291,
				"element": "C" 
			},
			{
				"x": 0.9896381572,
				"y": 3.2277647214,
				"z": -0.7609857813,
				"element": "O" 
			},
			{
				"x": 1.0491163701,
				"y": 1.8458384588,
				"z": 1.1533463708,
				"element": "N" 
			},
			{
				"x": 2.1749487358,
				"y": 2.3769635064,
				"z": 1.8578810527,
				"element": "C" 
			},
			{
				"x": 2.2090622879,
				"y": 2.2888548124,
				"z": 3.2547324893,
				"element": "C" 
			},
			{
				"x": 3.3026331777,
				"y": 2.8043114599,
				"z": 3.9477862798,
				"element": "C" 
			},
			{
				"x": 4.3527941075,
				"y": 3.4166814439,
				"z": 3.2615937952,
				"element": "C" 
			},
			{
				"x": 4.3064824504,
				"y": 3.5050678847,
				"z": 1.8700507843,
				"element": "C" 
			},
			{
				"x": 3.2260579715,
				"y": 2.9821479627,
				"z": 1.159457443,
				"element": "C" 
			},
			{
				"x": -1.1709081634,
				"y": -1.4691643,
				"z": 0.5802418227,
				"element": "H" 
			},
			{
				"x": -3.0960191871,
				"y": 1.2134207275,
				"z": -1.8432220257,
				"element": "H" 
			},
			{
				"x": -0.4203933286,
				"y": 1.5263279731,
				"z": -2.4013903354,
				"element": "H" 
			},
			{
				"x": 0.7427582775,
				"y": -0.6362503347,
				"z": -1.1723456979,
				"element": "H" 
			},
			{
				"x": 0.4285034091,
				"y": -2.8298357331,
				"z": -3.0367276006,
				"element": "H" 
			},
			{
				"x": -0.9999593916,
				"y": -3.6045427626,
				"z": -4.9216562852,
				"element": "H" 
			},
			{
				"x": -3.1313875847,
				"y": -2.4735335105,
				"z": -5.4397472369,
				"element": "H" 
			},
			{
				"x": -3.9031923296,
				"y": -0.533272138,
				"z": -4.0770942521,
				"element": "H" 
			},
			{
				"x": 1.3987649828,
				"y": 1.8066346893,
				"z": 3.7865761996,
				"element": "H" 
			},
			{
				"x": 3.3276398935,
				"y": 2.7293054667,
				"z": 5.0308207957,
				"element": "H" 
			},
			{
				"x": 5.1998631531,
				"y": 3.8214042952,
				"z": 3.8073666539,
				"element": "H" 
			},
			{
				"x": 5.1173413702,
				"y": 3.9804591602,
				"z": 1.3260668693,
				"element": "H" 
			},
			{
				"x": 3.1840818273,
				"y": 3.0593702875,
				"z": 0.0813749885,
				"element": "H" 
			}
		],
		 "valence_orbital": [ 
			{
				"type": "occ",
				"energy": -0.26685,
				"method": "rhf"
			},
			{
				"type": "occ",
				"energy": -0.26054,
				"method": "rhf"
			},
			{
				"type": "occ",
				"energy": -0.253,
				"method": "rhf"
			},
			{
				"type": "occ",
				"energy": -0.23893,
				"method": "rhf"
			},
			{
				"type": "occ",
				"energy": -0.23342,
				"method": "rhf"
			},
			{
				"type": "unocc",
				"energy": -0.0249,
				"method": "rhf"
			},
			{
				"type": "unocc",
				"energy": -0.02304,
				"method": "rhf"
			},
			{
				"type": "unocc",
				"energy": -0.01581,
				"method": "rhf"
			},
			{
				"type": "unocc",
				"energy": -0.00387,
				"method": "rhf"
			},
			{
				"type": "unocc",
				"energy": 0.00345,
				"method": "rhf"
			}
		],
		"cosmo_sigma_profile": { 
			"-0.025": 0.0,
			"-0.024": 0.0,
			"-0.023": 0.0,
			"-0.022": 0.0,
			"-0.021": 0.0,
			"-0.02": 0.0,
			"-0.019": 0.0,
			"-0.018": 0.0,
			"-0.017": 0.0,
			"-0.016": 0.0,
			"-0.015": 0.0,
			"-0.014": 0.0,
			"-0.013": 0.0,
			"-0.012": 0.00327989132804,
			"-0.011": 0.224374056352,
			"-0.01": 1.66604815106,
			"-0.009": 4.38798118316,
			"-0.008": 8.30888932881,
			"-0.007": 10.5702637787,
			"-0.006": 26.5628715863,
			"-0.005": 28.4280366577,
			"-0.004": 26.7234687864,
			"-0.003": 21.4803776511,
			"-0.002": 18.1920153119,
			"-0.001": 15.2909206982,
			"0.0": 16.0402016395,
			"0.001": 16.0805326187,
			"0.002": 18.6414013223,
			"0.003": 19.1414470695,
			"0.004": 26.3699063718,
			"0.005": 19.9721534747,
			"0.006": 5.06341657704,
			"0.007": 6.73816373393,
			"0.008": 5.71981044339,
			"0.009": 5.37442542091,
			"0.01": 6.51294848246,
			"0.011": 11.0726853443,
			"0.012": 4.02046336567,
			"0.013": 0.0,
			"0.014": 0.0,
			"0.015": 0.0,
			"0.016": 0.0,
			"0.017": 0.0,
			"0.018": 0.0,
			"0.019": 0.0,
			"0.02": 0.0,
			"0.021": 0.0,
			"0.022": 0.0,
			"0.023": 0.0,
			"0.024": 0.0,
			"0.025": 0.0
		}
	}
}
