{
	 "smiles": "COC(C)C(N)=NO", 
	 "Tm": 392.15, 
	 "num_atms": 18, 
	 "gaussian": { 
		 "optdone": 1, 
		 "sigma_profile": "yes", 
		 "theory": "DFT", 
		 "functional": "B3LYP", 
		 "basiset": "6-31G**", 
		 "properties": { 
			 "R2extent": 1362.7799, 
			 "electric_dipole_moment_norm": 0.674424154372, 
			 "electric_quadrupole_moment_norm": 3.2293085266, 
			 "total_energy": -418.337519487, 
			 "HOMO_LUMO_gap": 0.24468, 
			 "cosmo_polarized_energy": -10.23, 
			 "cosmo_cavitation_energy": 20.78, 
			 "cosmo_dispersion_energy": -15.46, 
			 "cosmo_repulsion_energy": 1.32, 
			 "cosmo_total_nonelectrostatic_energy": 6.64, 
			 "SMD_solvation_energy": 4.37 
		},
		"coords": [
			{
				"x": 1.8838943769,
				"y": 1.1394860589,
				"z": -0.0495432853,
				"element": "C" 
			},
			{
				"x": 0.7106906994,
				"y": 1.9147713524,
				"z": -0.2616600954,
				"element": "O" 
			},
			{
				"x": -0.518759742,
				"y": 1.1832024316,
				"z": -0.2719851274,
				"element": "C" 
			},
			{
				"x": -0.7970352993,
				"y": 0.4067769535,
				"z": 1.0132206866,
				"element": "C" 
			},
			{
				"x": -0.6206818308,
				"y": 0.33492816,
				"z": -1.5364523641,
				"element": "C" 
			},
			{
				"x": -0.0138712374,
				"y": 0.83981084,
				"z": -2.6510054311,
				"element": "N" 
			},
			{
				"x": -1.2887610829,
				"y": -0.767347362,
				"z": -1.4867201272,
				"element": "N" 
			},
			{
				"x": -1.3338357415,
				"y": -1.3444156662,
				"z": -2.797257808,
				"element": "O" 
			},
			{
				"x": 2.7285074348,
				"y": 1.8194774969,
				"z": -0.1851255185,
				"element": "H" 
			},
			{
				"x": 1.9280628288,
				"y": 0.727160177,
				"z": 0.9664182572,
				"element": "H" 
			},
			{
				"x": 1.9701702429,
				"y": 0.3178801068,
				"z": -0.7725544337,
				"element": "H" 
			},
			{
				"x": -1.2709141402,
				"y": 1.9784150398,
				"z": -0.3646432941,
				"element": "H" 
			},
			{
				"x": -0.1209696319,
				"y": -0.4429030875,
				"z": 1.1328184844,
				"element": "H" 
			},
			{
				"x": -0.6923403074,
				"y": 1.075634104,
				"z": 1.8723557343,
				"element": "H" 
			},
			{
				"x": -1.8136333293,
				"y": 0.0098724101,
				"z": 0.9888063109,
				"element": "H" 
			},
			{
				"x": -0.2687256995,
				"y": 0.4418050901,
				"z": -3.5405648577,
				"element": "H" 
			},
			{
				"x": 0.3526791487,
				"y": 1.7761234475,
				"z": -2.6049474506,
				"element": "H" 
			},
			{
				"x": -1.8775766891,
				"y": -2.1266775528,
				"z": -2.6473596802,
				"element": "H" 
			}
		],
		 "valence_orbital": [ 
			{
				"type": "occ",
				"energy": -0.31213,
				"method": "rhf"
			},
			{
				"type": "occ",
				"energy": -0.30115,
				"method": "rhf"
			},
			{
				"type": "occ",
				"energy": -0.27045,
				"method": "rhf"
			},
			{
				"type": "occ",
				"energy": -0.25805,
				"method": "rhf"
			},
			{
				"type": "occ",
				"energy": -0.20509,
				"method": "rhf"
			},
			{
				"type": "unocc",
				"energy": 0.03959,
				"method": "rhf"
			},
			{
				"type": "unocc",
				"energy": 0.07637,
				"method": "rhf"
			},
			{
				"type": "unocc",
				"energy": 0.10307,
				"method": "rhf"
			},
			{
				"type": "unocc",
				"energy": 0.12022,
				"method": "rhf"
			},
			{
				"type": "unocc",
				"energy": 0.13362,
				"method": "rhf"
			}
		],
		"cosmo_sigma_profile": { 
			"-0.025": 0.0,
			"-0.024": 0.0,
			"-0.023": 0.0,
			"-0.022": 0.0,
			"-0.021": 0.0,
			"-0.02": 0.0,
			"-0.019": 0.0,
			"-0.018": 0.0,
			"-0.017": 0.0612811493715,
			"-0.016": 0.774685906015,
			"-0.015": 0.861358115562,
			"-0.014": 0.855710740179,
			"-0.013": 1.00703423089,
			"-0.012": 1.72774922743,
			"-0.011": 2.13939928233,
			"-0.01": 1.81641428891,
			"-0.009": 2.92003470503,
			"-0.008": 2.42060392095,
			"-0.007": 1.81629108786,
			"-0.006": 4.43613513748,
			"-0.005": 6.6853489981,
			"-0.004": 11.974766725,
			"-0.003": 16.7340945744,
			"-0.002": 19.4528417641,
			"-0.001": 12.2455825403,
			"0.0": 10.958020132,
			"0.001": 9.69023419698,
			"0.002": 5.7006891792,
			"0.003": 4.91863967677,
			"0.004": 4.37588362325,
			"0.005": 4.21492545627,
			"0.006": 4.33997901622,
			"0.007": 5.19042168161,
			"0.008": 6.29559805945,
			"0.009": 3.77376616604,
			"0.01": 4.90635201303,
			"0.011": 3.97507323542,
			"0.012": 2.28133906535,
			"0.013": 2.11075461693,
			"0.014": 0.764726179219,
			"0.015": 0.0658150673576,
			"0.016": 0.0,
			"0.017": 0.0,
			"0.018": 0.0,
			"0.019": 0.0,
			"0.02": 0.0,
			"0.021": 0.0,
			"0.022": 0.0,
			"0.023": 0.0,
			"0.024": 0.0,
			"0.025": 0.0
		}
	}
}
