{
	 "smiles": "OC(=O)C=NNC1=CC=C(F)C=C1", 
	 "Tm": 361.15, 
	 "num_atms": 20, 
	 "gaussian": { 
		 "optdone": 1, 
		 "sigma_profile": "yes", 
		 "theory": "DFT", 
		 "functional": "B3LYP", 
		 "basiset": "6-31G**", 
		 "properties": { 
			 "R2extent": 4412.6799, 
			 "electric_dipole_moment_norm": 5.02470971997, 
			 "electric_quadrupole_moment_norm": 18.6380567579, 
			 "total_energy": -668.824707731, 
			 "HOMO_LUMO_gap": 0.15587, 
			 "cosmo_polarized_energy": -18.06, 
			 "cosmo_cavitation_energy": 26.48, 
			 "cosmo_dispersion_energy": -19.22, 
			 "cosmo_repulsion_energy": 1.5, 
			 "cosmo_total_nonelectrostatic_energy": 8.76, 
			 "SMD_solvation_energy": 6.5 
		},
		"coords": [
			{
				"x": -0.2514570347,
				"y": 2.8579275501,
				"z": -0.2915484281,
				"element": "O" 
			},
			{
				"x": -0.9167043448,
				"y": 2.1588578678,
				"z": -1.2379410528,
				"element": "C" 
			},
			{
				"x": -1.4152365427,
				"y": 2.6919904135,
				"z": -2.2037772311,
				"element": "O" 
			},
			{
				"x": -0.9955257713,
				"y": 0.6942566653,
				"z": -1.0143631609,
				"element": "C" 
			},
			{
				"x": -0.4421860887,
				"y": 0.1906339489,
				"z": 0.0372392361,
				"element": "N" 
			},
			{
				"x": -0.4990627633,
				"y": -1.1172152095,
				"z": 0.2591801552,
				"element": "N" 
			},
			{
				"x": 0.0828580442,
				"y": -1.7217500596,
				"z": 1.3841661125,
				"element": "C" 
			},
			{
				"x": -0.0303664418,
				"y": -3.1122736607,
				"z": 1.5240806566,
				"element": "C" 
			},
			{
				"x": 0.5304270147,
				"y": -3.75719136,
				"z": 2.6237168194,
				"element": "C" 
			},
			{
				"x": 1.2025072629,
				"y": -3.0019875994,
				"z": 3.5774998999,
				"element": "C" 
			},
			{
				"x": 1.7476736277,
				"y": -3.6218904545,
				"z": 4.6446326525,
				"element": "F" 
			},
			{
				"x": 1.3255597658,
				"y": -1.6220056245,
				"z": 3.4563459319,
				"element": "C" 
			},
			{
				"x": 0.7645237779,
				"y": -0.9774020318,
				"z": 2.3567773806,
				"element": "C" 
			},
			{
				"x": 0.0576542536,
				"y": 2.2258846291,
				"z": 0.380395609,
				"element": "H" 
			},
			{
				"x": -1.5286034208,
				"y": 0.1094009327,
				"z": -1.7672629061,
				"element": "H" 
			},
			{
				"x": -0.9823232083,
				"y": -1.712246396,
				"z": -0.4086454128,
				"element": "H" 
			},
			{
				"x": -0.5578429298,
				"y": -3.6938099819,
				"z": 0.7722487353,
				"element": "H" 
			},
			{
				"x": 0.4511674451,
				"y": -4.8316886829,
				"z": 2.7456471613,
				"element": "H" 
			},
			{
				"x": 1.856756556,
				"y": -1.0636648622,
				"z": 4.2194063819,
				"element": "H" 
			},
			{
				"x": 0.8516807983,
				"y": 0.0961739158,
				"z": 2.2484014595,
				"element": "H" 
			}
		],
		 "valence_orbital": [ 
			{
				"type": "occ",
				"energy": -0.31127,
				"method": "rhf"
			},
			{
				"type": "occ",
				"energy": -0.2985,
				"method": "rhf"
			},
			{
				"type": "occ",
				"energy": -0.2786,
				"method": "rhf"
			},
			{
				"type": "occ",
				"energy": -0.27018,
				"method": "rhf"
			},
			{
				"type": "occ",
				"energy": -0.22318,
				"method": "rhf"
			},
			{
				"type": "unocc",
				"energy": -0.06731,
				"method": "rhf"
			},
			{
				"type": "unocc",
				"energy": -0.02834,
				"method": "rhf"
			},
			{
				"type": "unocc",
				"energy": 0.00607,
				"method": "rhf"
			},
			{
				"type": "unocc",
				"energy": 0.05062,
				"method": "rhf"
			},
			{
				"type": "unocc",
				"energy": 0.06649,
				"method": "rhf"
			}
		],
		"cosmo_sigma_profile": { 
			"-0.025": 0.0,
			"-0.024": 0.0,
			"-0.023": 0.0,
			"-0.022": 0.0,
			"-0.021": 0.0,
			"-0.02": 0.0,
			"-0.019": 0.0,
			"-0.018": 0.0,
			"-0.017": 0.0,
			"-0.016": 1.10292310809,
			"-0.015": 2.46212488796,
			"-0.014": 1.98041806353,
			"-0.013": 2.03590675288,
			"-0.012": 2.59785087904,
			"-0.011": 1.93707791876,
			"-0.01": 2.47438077964,
			"-0.009": 2.97030800317,
			"-0.008": 4.83830467597,
			"-0.007": 8.5210521919,
			"-0.006": 9.54627302856,
			"-0.005": 11.1441170671,
			"-0.004": 8.15830234289,
			"-0.003": 9.02250781963,
			"-0.002": 10.7730867855,
			"-0.001": 12.0756456912,
			"0.0": 12.5702086362,
			"0.001": 20.9629244521,
			"0.002": 16.9397528005,
			"0.003": 16.736369183,
			"0.004": 17.0475555203,
			"0.005": 6.38215513988,
			"0.006": 2.63228256795,
			"0.007": 2.28633836438,
			"0.008": 2.42641713856,
			"0.009": 3.22219955997,
			"0.01": 3.99300054007,
			"0.011": 5.33766351035,
			"0.012": 6.01527659255,
			"0.013": 3.7353623295,
			"0.014": 0.628753177794,
			"0.015": 0.0,
			"0.016": 0.0,
			"0.017": 0.0,
			"0.018": 0.0,
			"0.019": 0.0,
			"0.02": 0.0,
			"0.021": 0.0,
			"0.022": 0.0,
			"0.023": 0.0,
			"0.024": 0.0,
			"0.025": 0.0
		}
	}
}
