{
	 "smiles": "COC1=CC=C(CC2=NN=C(N)S2)C=C1", 
	 "Tm": 448.15, 
	 "num_atms": 26, 
	 "gaussian": { 
		 "optdone": 1, 
		 "sigma_profile": "yes", 
		 "theory": "DFT", 
		 "functional": "B3LYP", 
		 "basiset": "6-31G**", 
		 "properties": { 
			 "R2extent": 4864.7176, 
			 "electric_dipole_moment_norm": 3.36186450054, 
			 "electric_quadrupole_moment_norm": 18.0217468798, 
			 "total_energy": -1025.3229526, 
			 "HOMO_LUMO_gap": 0.19796, 
			 "cosmo_polarized_energy": -17.2, 
			 "cosmo_cavitation_energy": 32.38, 
			 "cosmo_dispersion_energy": -23.7, 
			 "cosmo_repulsion_energy": 1.83, 
			 "cosmo_total_nonelectrostatic_energy": 10.52, 
			 "SMD_solvation_energy": 3.79 
		},
		"coords": [
			{
				"x": -4.1972233404,
				"y": 2.3712644534,
				"z": -1.5819161772,
				"element": "C" 
			},
			{
				"x": -3.4006607057,
				"y": 2.622224014,
				"z": -0.4356405485,
				"element": "O" 
			},
			{
				"x": -2.1468848761,
				"y": 2.083202861,
				"z": -0.3895797414,
				"element": "C" 
			},
			{
				"x": -1.4030761091,
				"y": 2.3662127373,
				"z": 0.7639574033,
				"element": "C" 
			},
			{
				"x": -0.1147550155,
				"y": 1.8617074997,
				"z": 0.9033876466,
				"element": "C" 
			},
			{
				"x": 0.4663076544,
				"y": 1.0677830904,
				"z": -0.0948095428,
				"element": "C" 
			},
			{
				"x": 1.8796277887,
				"y": 0.5257855444,
				"z": 0.051301402,
				"element": "C" 
			},
			{
				"x": 1.964845933,
				"y": -0.9744213902,
				"z": 0.0208420733,
				"element": "C" 
			},
			{
				"x": 2.4879109975,
				"y": -1.6511163154,
				"z": -0.9532987922,
				"element": "N" 
			},
			{
				"x": 2.4238613544,
				"y": -3.0118631912,
				"z": -0.7957307236,
				"element": "N" 
			},
			{
				"x": 1.8540368968,
				"y": -3.3593515659,
				"z": 0.3261749242,
				"element": "C" 
			},
			{
				"x": 1.7488142943,
				"y": -4.6644464562,
				"z": 0.7480096638,
				"element": "N" 
			},
			{
				"x": 1.3174281465,
				"y": -2.0035677223,
				"z": 1.3146697206,
				"element": "S" 
			},
			{
				"x": -0.2876232233,
				"y": 0.7922064683,
				"z": -1.2395154088,
				"element": "C" 
			},
			{
				"x": -1.5821952946,
				"y": 1.290202641,
				"z": -1.39721926,
				"element": "C" 
			},
			{
				"x": -4.3920751384,
				"y": 1.2990351229,
				"z": -1.7145204172,
				"element": "H" 
			},
			{
				"x": -3.7312845928,
				"y": 2.7650465555,
				"z": -2.494584324,
				"element": "H" 
			},
			{
				"x": -5.1428959273,
				"y": 2.8882562277,
				"z": -1.4113868816,
				"element": "H" 
			},
			{
				"x": -1.8548634149,
				"y": 2.9821235027,
				"z": 1.5346943218,
				"element": "H" 
			},
			{
				"x": 0.4504995221,
				"y": 2.0928988187,
				"z": 1.8031579944,
				"element": "H" 
			},
			{
				"x": 2.5132082461,
				"y": 0.8720107403,
				"z": -0.7726406735,
				"element": "H" 
			},
			{
				"x": 2.3233622,
				"y": 0.904320446,
				"z": 0.9790878014,
				"element": "H" 
			},
			{
				"x": 0.9252787214,
				"y": -4.9038243408,
				"z": 1.2817182886,
				"element": "H" 
			},
			{
				"x": 1.9619871266,
				"y": -5.3250748349,
				"z": 0.0107416946,
				"element": "H" 
			},
			{
				"x": 0.1418928651,
				"y": 0.1738928066,
				"z": -2.0236991019,
				"element": "H" 
			},
			{
				"x": -2.1345241088,
				"y": 1.0567922871,
				"z": -2.299801342,
				"element": "H" 
			}
		],
		 "valence_orbital": [ 
			{
				"type": "occ",
				"energy": -0.28232,
				"method": "rhf"
			},
			{
				"type": "occ",
				"energy": -0.25467,
				"method": "rhf"
			},
			{
				"type": "occ",
				"energy": -0.25145,
				"method": "rhf"
			},
			{
				"type": "occ",
				"energy": -0.22961,
				"method": "rhf"
			},
			{
				"type": "occ",
				"energy": -0.21509,
				"method": "rhf"
			},
			{
				"type": "unocc",
				"energy": -0.01713,
				"method": "rhf"
			},
			{
				"type": "unocc",
				"energy": -0.00677,
				"method": "rhf"
			},
			{
				"type": "unocc",
				"energy": 0.00668,
				"method": "rhf"
			},
			{
				"type": "unocc",
				"energy": 0.01209,
				"method": "rhf"
			},
			{
				"type": "unocc",
				"energy": 0.05177,
				"method": "rhf"
			}
		],
		"cosmo_sigma_profile": { 
			"-0.025": 0.0,
			"-0.024": 0.0,
			"-0.023": 0.0,
			"-0.022": 0.0,
			"-0.021": 0.0,
			"-0.02": 0.0,
			"-0.019": 0.0,
			"-0.018": 0.0,
			"-0.017": 0.0,
			"-0.016": 0.0101209905538,
			"-0.015": 1.08785256183,
			"-0.014": 2.29648842627,
			"-0.013": 2.81234051316,
			"-0.012": 2.49934726124,
			"-0.011": 3.0602631353,
			"-0.01": 2.16096254667,
			"-0.009": 1.26620689425,
			"-0.008": 1.92559883156,
			"-0.007": 3.3567058178,
			"-0.006": 14.0340614201,
			"-0.005": 20.873427926,
			"-0.004": 20.9932893287,
			"-0.003": 21.6952907597,
			"-0.002": 16.102923631,
			"-0.001": 13.3078488326,
			"0.0": 16.2513041287,
			"0.001": 16.390731067,
			"0.002": 16.1728515858,
			"0.003": 16.6816872707,
			"0.004": 13.939443463,
			"0.005": 14.7113723674,
			"0.006": 7.2206610196,
			"0.007": 4.40002485861,
			"0.008": 4.07669245986,
			"0.009": 4.10956758732,
			"0.01": 4.04853998911,
			"0.011": 3.0078422544,
			"0.012": 3.21281949967,
			"0.013": 3.58066753059,
			"0.014": 2.43717223171,
			"0.015": 1.79092204859,
			"0.016": 0.43042352029,
			"0.017": 0.0,
			"0.018": 0.0,
			"0.019": 0.0,
			"0.02": 0.0,
			"0.021": 0.0,
			"0.022": 0.0,
			"0.023": 0.0,
			"0.024": 0.0,
			"0.025": 0.0
		}
	}
}
