{
	 "smiles": "CN1C=C(C(O)=O)C(=N1)C1=CC2=C(OCCCO2)C=C1", 
	 "Tm": 473.15, 
	 "num_atms": 34, 
	 "gaussian": { 
		 "optdone": 1, 
		 "sigma_profile": "yes", 
		 "theory": "DFT", 
		 "functional": "B3LYP", 
		 "basiset": "6-31G**", 
		 "properties": { 
			 "R2extent": 8284.4943, 
			 "electric_dipole_moment_norm": 2.08111680355, 
			 "electric_quadrupole_moment_norm": 19.9954136636, 
			 "total_energy": -952.305032588, 
			 "HOMO_LUMO_gap": 0.17867, 
			 "cosmo_polarized_energy": -17.8, 
			 "cosmo_cavitation_energy": 37.67, 
			 "cosmo_dispersion_energy": -27.72, 
			 "cosmo_repulsion_energy": 2.14, 
			 "cosmo_total_nonelectrostatic_energy": 12.08, 
			 "SMD_solvation_energy": 7.09 
		},
		"coords": [
			{
				"x": 5.7569933377,
				"y": -1.4881810474,
				"z": -1.853568021,
				"element": "C" 
			},
			{
				"x": 5.0150230469,
				"y": -0.6750843183,
				"z": -0.9078797846,
				"element": "N" 
			},
			{
				"x": 5.4887112898,
				"y": 0.2212869498,
				"z": -0.0260390484,
				"element": "C" 
			},
			{
				"x": 4.3973417387,
				"y": 0.7264823066,
				"z": 0.6720701633,
				"element": "C" 
			},
			{
				"x": 4.5874443141,
				"y": 1.8039406245,
				"z": 1.6473534867,
				"element": "C" 
			},
			{
				"x": 3.4408723974,
				"y": 2.3171487281,
				"z": 2.1573435395,
				"element": "O" 
			},
			{
				"x": 5.6795427952,
				"y": 2.2363713857,
				"z": 1.9755451131,
				"element": "O" 
			},
			{
				"x": 3.2657896507,
				"y": 0.0342878824,
				"z": 0.1209491039,
				"element": "C" 
			},
			{
				"x": 3.6688333182,
				"y": -0.8105784253,
				"z": -0.8348985905,
				"element": "N" 
			},
			{
				"x": 1.8212574234,
				"y": 0.1005557293,
				"z": 0.4222344573,
				"element": "C" 
			},
			{
				"x": 0.9051157664,
				"y": -0.0564416001,
				"z": -0.6275865267,
				"element": "C" 
			},
			{
				"x": -0.470164331,
				"y": -0.0551661505,
				"z": -0.4028652584,
				"element": "C" 
			},
			{
				"x": -0.9577848843,
				"y": 0.0795278846,
				"z": 0.9141722898,
				"element": "C" 
			},
			{
				"x": -2.2927052795,
				"y": 0.0767402308,
				"z": 1.2451985416,
				"element": "O" 
			},
			{
				"x": -3.1349101124,
				"y": -0.8078414132,
				"z": 0.4928620105,
				"element": "C" 
			},
			{
				"x": -3.6317309427,
				"y": -0.1593277438,
				"z": -0.8003152509,
				"element": "C" 
			},
			{
				"x": -2.4886854036,
				"y": 0.5698498169,
				"z": -1.5107692729,
				"element": "C" 
			},
			{
				"x": -1.2821873594,
				"y": -0.2037868792,
				"z": -1.5069767128,
				"element": "O" 
			},
			{
				"x": -0.0451373898,
				"y": 0.247594331,
				"z": 1.9588344038,
				"element": "C" 
			},
			{
				"x": 1.3253986635,
				"y": 0.2634689598,
				"z": 1.7244429334,
				"element": "C" 
			},
			{
				"x": 5.6435053561,
				"y": -2.5473813929,
				"z": -1.608384569,
				"element": "H" 
			},
			{
				"x": 6.8116668229,
				"y": -1.2134193847,
				"z": -1.8059412484,
				"element": "H" 
			},
			{
				"x": 5.3789125516,
				"y": -1.315546107,
				"z": -2.8639260705,
				"element": "H" 
			},
			{
				"x": 6.5353558248,
				"y": 0.4715786994,
				"z": 0.0608593551,
				"element": "H" 
			},
			{
				"x": 3.7243203895,
				"y": 3.023137187,
				"z": 2.7619488838,
				"element": "H" 
			},
			{
				"x": 1.255946631,
				"y": -0.1712494463,
				"z": -1.6466572709,
				"element": "H" 
			},
			{
				"x": -3.9701369993,
				"y": -1.0560190138,
				"z": 1.1539888941,
				"element": "H" 
			},
			{
				"x": -2.5877538816,
				"y": -1.7315690951,
				"z": 0.2730607371,
				"element": "H" 
			},
			{
				"x": -4.4326984754,
				"y": 0.5599863912,
				"z": -0.5919672214,
				"element": "H" 
			},
			{
				"x": -4.0528894911,
				"y": -0.9415211719,
				"z": -1.4431888652,
				"element": "H" 
			},
			{
				"x": -2.7290553611,
				"y": 0.7449260994,
				"z": -2.5634642343,
				"element": "H" 
			},
			{
				"x": -2.3011077822,
				"y": 1.5413442613,
				"z": -1.0389793269,
				"element": "H" 
			},
			{
				"x": -0.4424958556,
				"y": 0.3443823191,
				"z": 2.964099286,
				"element": "H" 
			},
			{
				"x": 2.008512231,
				"y": 0.3842034028,
				"z": 2.5550440737,
				"element": "H" 
			}
		],
		 "valence_orbital": [ 
			{
				"type": "occ",
				"energy": -0.26437,
				"method": "rhf"
			},
			{
				"type": "occ",
				"energy": -0.26239,
				"method": "rhf"
			},
			{
				"type": "occ",
				"energy": -0.25144,
				"method": "rhf"
			},
			{
				"type": "occ",
				"energy": -0.22627,
				"method": "rhf"
			},
			{
				"type": "occ",
				"energy": -0.20213,
				"method": "rhf"
			},
			{
				"type": "unocc",
				"energy": -0.02346,
				"method": "rhf"
			},
			{
				"type": "unocc",
				"energy": -0.00662,
				"method": "rhf"
			},
			{
				"type": "unocc",
				"energy": 0.01261,
				"method": "rhf"
			},
			{
				"type": "unocc",
				"energy": 0.04352,
				"method": "rhf"
			},
			{
				"type": "unocc",
				"energy": 0.08064,
				"method": "rhf"
			}
		],
		"cosmo_sigma_profile": { 
			"-0.025": 0.0,
			"-0.024": 0.0,
			"-0.023": 0.0,
			"-0.022": 0.0,
			"-0.021": 0.0,
			"-0.02": 0.0,
			"-0.019": 0.0,
			"-0.018": 0.456353645378,
			"-0.017": 1.01673473788,
			"-0.016": 0.431890639975,
			"-0.015": 0.815103856047,
			"-0.014": 1.10408752823,
			"-0.013": 0.695420287502,
			"-0.012": 0.674821194979,
			"-0.011": 0.959069731755,
			"-0.01": 2.69749953342,
			"-0.009": 2.57165881905,
			"-0.008": 3.35894741921,
			"-0.007": 5.57965171531,
			"-0.006": 11.9837757421,
			"-0.005": 22.1566595982,
			"-0.004": 34.4159046723,
			"-0.003": 29.5328743848,
			"-0.002": 19.9435738275,
			"-0.001": 16.3304803872,
			"0.0": 14.8164960545,
			"0.001": 16.1837696831,
			"0.002": 19.954738554,
			"0.003": 16.765286122,
			"0.004": 14.8064291301,
			"0.005": 14.7738218135,
			"0.006": 8.72587394845,
			"0.007": 5.84133714577,
			"0.008": 6.50564498321,
			"0.009": 5.52377835351,
			"0.01": 5.13830886911,
			"0.011": 6.31149807103,
			"0.012": 6.30272769056,
			"0.013": 2.09927771198,
			"0.014": 0.625521398552,
			"0.015": 0.125200315814,
			"0.016": 0.0,
			"0.017": 0.0,
			"0.018": 0.0,
			"0.019": 0.0,
			"0.02": 0.0,
			"0.021": 0.0,
			"0.022": 0.0,
			"0.023": 0.0,
			"0.024": 0.0,
			"0.025": 0.0
		}
	}
}
