{
	 "smiles": "COC1=CC2=C(C=C1OC)C(CC1=CC(OC)=C(OC)C=C1)N(C)CC2", 
	 "Tm": 362.15, 
	 "num_atms": 53, 
	 "gaussian": { 
		 "optdone": 1, 
		 "sigma_profile": "yes", 
		 "theory": "DFT", 
		 "functional": "B3LYP", 
		 "basiset": "6-31G**", 
		 "properties": { 
			 "R2extent": 11635.8839, 
			 "electric_dipole_moment_norm": 2.01797746766, 
			 "electric_quadrupole_moment_norm": 13.0314998273, 
			 "total_energy": -1172.08978028, 
			 "HOMO_LUMO_gap": 0.19411, 
			 "cosmo_polarized_energy": -12.74, 
			 "cosmo_cavitation_energy": 53.14, 
			 "cosmo_dispersion_energy": -34.56, 
			 "cosmo_repulsion_energy": 2.64, 
			 "cosmo_total_nonelectrostatic_energy": 21.23, 
			 "SMD_solvation_energy": 9.1 
		},
		"coords": [
			{
				"x": -3.5628887107,
				"y": 3.465850018,
				"z": -1.0479056234,
				"element": "C" 
			},
			{
				"x": -3.5683422093,
				"y": 2.0713971598,
				"z": -1.3574417811,
				"element": "O" 
			},
			{
				"x": -2.5966429625,
				"y": 1.3165520719,
				"z": -0.7436922537,
				"element": "C" 
			},
			{
				"x": -2.9797639467,
				"y": 0.3467108655,
				"z": 0.172668138,
				"element": "C" 
			},
			{
				"x": -2.0530510915,
				"y": -0.5113070425,
				"z": 0.7841643496,
				"element": "C" 
			},
			{
				"x": -0.6953033426,
				"y": -0.3717330116,
				"z": 0.4645737503,
				"element": "C" 
			},
			{
				"x": -0.2984469902,
				"y": 0.6214840435,
				"z": -0.4477307802,
				"element": "C" 
			},
			{
				"x": -1.2273797053,
				"y": 1.4573991258,
				"z": -1.0655223804,
				"element": "C" 
			},
			{
				"x": -0.9168973939,
				"y": 2.4206463442,
				"z": -1.9855992509,
				"element": "O" 
			},
			{
				"x": 0.4386783869,
				"y": 2.5448349342,
				"z": -2.3887209276,
				"element": "C" 
			},
			{
				"x": 0.3528276509,
				"y": -1.300518784,
				"z": 1.080348646,
				"element": "C" 
			},
			{
				"x": 0.837532163,
				"y": -2.4080480861,
				"z": 0.0907082936,
				"element": "C" 
			},
			{
				"x": 1.7102408037,
				"y": -1.9194057616,
				"z": -1.0447477945,
				"element": "C" 
			},
			{
				"x": 3.0375141199,
				"y": -1.5344278408,
				"z": -0.8023318854,
				"element": "C" 
			},
			{
				"x": 3.8623328158,
				"y": -1.0721943285,
				"z": -1.8269610173,
				"element": "C" 
			},
			{
				"x": 5.1676283015,
				"y": -0.7412998436,
				"z": -1.5303919951,
				"element": "O" 
			},
			{
				"x": 5.4782905967,
				"y": 0.6505099739,
				"z": -1.6538830992,
				"element": "C" 
			},
			{
				"x": 3.3671686408,
				"y": -1.003589315,
				"z": -3.1437419216,
				"element": "C" 
			},
			{
				"x": 4.1457139825,
				"y": -0.5434040573,
				"z": -4.1846035325,
				"element": "O" 
			},
			{
				"x": 5.2074372892,
				"y": -1.4242110465,
				"z": -4.5709960902,
				"element": "C" 
			},
			{
				"x": 2.0468662869,
				"y": -1.3781964552,
				"z": -3.3928434882,
				"element": "C" 
			},
			{
				"x": 1.2262424365,
				"y": -1.8255634252,
				"z": -2.3552791355,
				"element": "C" 
			},
			{
				"x": -0.0955851518,
				"y": -1.9314400838,
				"z": 2.3325636569,
				"element": "N" 
			},
			{
				"x": 0.0006722969,
				"y": -1.0372878449,
				"z": 3.4829633525,
				"element": "C" 
			},
			{
				"x": -1.4254379694,
				"y": -2.5301862559,
				"z": 2.1843138494,
				"element": "C" 
			},
			{
				"x": -2.52243291,
				"y": -1.5148854288,
				"z": 1.8209486799,
				"element": "C" 
			},
			{
				"x": -2.642124578,
				"y": 3.9503906437,
				"z": -1.3856616365,
				"element": "H" 
			},
			{
				"x": -4.416681649,
				"y": 3.8977580528,
				"z": -1.5748438722,
				"element": "H" 
			},
			{
				"x": -3.6870521182,
				"y": 3.6286245413,
				"z": 0.0311916469,
				"element": "H" 
			},
			{
				"x": -4.0393473077,
				"y": 0.2641094897,
				"z": 0.4005165957,
				"element": "H" 
			},
			{
				"x": 0.7546104577,
				"y": 0.722020749,
				"z": -0.6805412326,
				"element": "H" 
			},
			{
				"x": 0.8206954526,
				"y": 1.6088214634,
				"z": -2.8139393895,
				"element": "H" 
			},
			{
				"x": 1.0842518734,
				"y": 2.8476100897,
				"z": -1.553622697,
				"element": "H" 
			},
			{
				"x": 0.4544533895,
				"y": 3.3234639208,
				"z": -3.1531778807,
				"element": "H" 
			},
			{
				"x": 1.2368239849,
				"y": -0.7025572828,
				"z": 1.3343699153,
				"element": "H" 
			},
			{
				"x": -0.0295692302,
				"y": -2.931561601,
				"z": -0.3238643911,
				"element": "H" 
			},
			{
				"x": 1.3922407516,
				"y": -3.1306846365,
				"z": 0.6993753243,
				"element": "H" 
			},
			{
				"x": 3.4605944722,
				"y": -1.5936722241,
				"z": 0.1970801094,
				"element": "H" 
			},
			{
				"x": 5.3123272919,
				"y": 1.0084590013,
				"z": -2.6747478472,
				"element": "H" 
			},
			{
				"x": 6.5338809542,
				"y": 0.7532641244,
				"z": -1.3936608596,
				"element": "H" 
			},
			{
				"x": 4.8758061054,
				"y": 1.2461425324,
				"z": -0.9557453273,
				"element": "H" 
			},
			{
				"x": 5.7318356081,
				"y": -0.9305677738,
				"z": -5.3919397499,
				"element": "H" 
			},
			{
				"x": 4.8070294326,
				"y": -2.3835020935,
				"z": -4.9224695809,
				"element": "H" 
			},
			{
				"x": 5.9002057095,
				"y": -1.6012621238,
				"z": -3.74232179,
				"element": "H" 
			},
			{
				"x": 1.6803584253,
				"y": -1.3179435809,
				"z": -4.4131387025,
				"element": "H" 
			},
			{
				"x": 0.2002227635,
				"y": -2.1103851634,
				"z": -2.5694203433,
				"element": "H" 
			},
			{
				"x": -0.3154970297,
				"y": -1.5750585147,
				"z": 4.3832415588,
				"element": "H" 
			},
			{
				"x": -0.6033029732,
				"y": -0.1165519605,
				"z": 3.4059573507,
				"element": "H" 
			},
			{
				"x": 1.0449410094,
				"y": -0.7382306691,
				"z": 3.6234506098,
				"element": "H" 
			},
			{
				"x": -1.3650720534,
				"y": -3.2998589038,
				"z": 1.4069476731,
				"element": "H" 
			},
			{
				"x": -1.6783891661,
				"y": -3.0484975576,
				"z": 3.1161725685,
				"element": "H" 
			},
			{
				"x": -2.8404939441,
				"y": -0.9730366854,
				"z": 2.7228250578,
				"element": "H" 
			},
			{
				"x": -3.4143210198,
				"y": -2.0444797631,
				"z": 1.4630071308,
				"element": "H" 
			}
		],
		 "valence_orbital": [ 
			{
				"type": "occ",
				"energy": -0.24185,
				"method": "rhf"
			},
			{
				"type": "occ",
				"energy": -0.22816,
				"method": "rhf"
			},
			{
				"type": "occ",
				"energy": -0.22482,
				"method": "rhf"
			},
			{
				"type": "occ",
				"energy": -0.20467,
				"method": "rhf"
			},
			{
				"type": "occ",
				"energy": -0.19929,
				"method": "rhf"
			},
			{
				"type": "unocc",
				"energy": -0.00518,
				"method": "rhf"
			},
			{
				"type": "unocc",
				"energy": 0.00377,
				"method": "rhf"
			},
			{
				"type": "unocc",
				"energy": 0.01131,
				"method": "rhf"
			},
			{
				"type": "unocc",
				"energy": 0.01904,
				"method": "rhf"
			},
			{
				"type": "unocc",
				"energy": 0.08415,
				"method": "rhf"
			}
		],
		"cosmo_sigma_profile": { 
			"-0.025": 0.0,
			"-0.024": 0.0,
			"-0.023": 0.0,
			"-0.022": 0.0,
			"-0.021": 0.0,
			"-0.02": 0.0,
			"-0.019": 0.0,
			"-0.018": 0.0,
			"-0.017": 0.0,
			"-0.016": 0.0,
			"-0.015": 0.0,
			"-0.014": 0.0,
			"-0.013": 0.0,
			"-0.012": 0.0,
			"-0.011": 0.0,
			"-0.01": 0.0,
			"-0.009": 0.0,
			"-0.008": 0.0,
			"-0.007": 0.027232696055,
			"-0.006": 5.14734615655,
			"-0.005": 21.8153449261,
			"-0.004": 39.4521974213,
			"-0.003": 61.1189643619,
			"-0.002": 60.3496604376,
			"-0.001": 44.4621867631,
			"0.0": 39.3839709675,
			"0.001": 28.6752868411,
			"0.002": 21.4739214317,
			"0.003": 17.8827634912,
			"0.004": 19.208490454,
			"0.005": 17.1158994056,
			"0.006": 10.2937561152,
			"0.007": 5.71573298087,
			"0.008": 4.69766905489,
			"0.009": 4.20649135483,
			"0.01": 4.6529095367,
			"0.011": 5.54270592863,
			"0.012": 3.90588198431,
			"0.013": 0.947646213675,
			"0.014": 0.605088214572,
			"0.015": 0.304653696569,
			"0.016": 0.113496287084,
			"0.017": 0.0,
			"0.018": 0.0,
			"0.019": 0.0,
			"0.02": 0.0,
			"0.021": 0.0,
			"0.022": 0.0,
			"0.023": 0.0,
			"0.024": 0.0,
			"0.025": 0.0
		}
	}
}
