{
	 "smiles": "CC(O)C1=CC(=CC(=C1)C(F)(F)F)C(F)(F)F", 
	 "Tm": 345.15, 
	 "num_atms": 25, 
	 "gaussian": { 
		 "optdone": 1, 
		 "sigma_profile": "yes", 
		 "theory": "DFT", 
		 "functional": "B3LYP", 
		 "basiset": "6-31G**", 
		 "properties": { 
			 "R2extent": 5852.9937, 
			 "electric_dipole_moment_norm": 2.25666491974, 
			 "electric_quadrupole_moment_norm": 7.30384272079, 
			 "total_energy": -1060.16574876, 
			 "HOMO_LUMO_gap": 0.2246, 
			 "cosmo_polarized_energy": -8.22, 
			 "cosmo_cavitation_energy": 32.27, 
			 "cosmo_dispersion_energy": -21.66, 
			 "cosmo_repulsion_energy": 1.59, 
			 "cosmo_total_nonelectrostatic_energy": 12.2, 
			 "SMD_solvation_energy": 7.89 
		},
		"coords": [
			{
				"x": -2.6132357481,
				"y": 0.0961816944,
				"z": 0.5284457703,
				"element": "C" 
			},
			{
				"x": -1.162835713,
				"y": -0.0833791484,
				"z": 0.9805245584,
				"element": "C" 
			},
			{
				"x": -0.9609369048,
				"y": 0.836577184,
				"z": 2.0479881918,
				"element": "O" 
			},
			{
				"x": -0.182103022,
				"y": 0.1459693711,
				"z": -0.163572401,
				"element": "C" 
			},
			{
				"x": 0.326215389,
				"y": 1.4237074931,
				"z": -0.4136191957,
				"element": "C" 
			},
			{
				"x": 1.1926337711,
				"y": 1.642255672,
				"z": -1.486995844,
				"element": "C" 
			},
			{
				"x": 1.5643718759,
				"y": 0.5912199374,
				"z": -2.3245581063,
				"element": "C" 
			},
			{
				"x": 1.0606710707,
				"y": -0.6858844265,
				"z": -2.0743332737,
				"element": "C" 
			},
			{
				"x": 0.1970286419,
				"y": -0.9079852422,
				"z": -1.0003826727,
				"element": "C" 
			},
			{
				"x": 1.5006146298,
				"y": -1.8459545871,
				"z": -2.9291936077,
				"element": "C" 
			},
			{
				"x": 1.8356125436,
				"y": -1.4531239485,
				"z": -4.1761793582,
				"element": "F" 
			},
			{
				"x": 0.5307642687,
				"y": -2.7803999835,
				"z": -3.0402591484,
				"element": "F" 
			},
			{
				"x": 2.5830351117,
				"y": -2.4641375224,
				"z": -2.4036278644,
				"element": "F" 
			},
			{
				"x": 1.767107384,
				"y": 3.0187163427,
				"z": -1.7024797697,
				"element": "C" 
			},
			{
				"x": 2.1929058785,
				"y": 3.1954910283,
				"z": -2.9711103572,
				"element": "F" 
			},
			{
				"x": 2.827367313,
				"y": 3.2414401102,
				"z": -0.8919442153,
				"element": "F" 
			},
			{
				"x": 0.8609399544,
				"y": 3.9839243344,
				"z": -1.4359050436,
				"element": "F" 
			},
			{
				"x": -2.8603420329,
				"y": -0.6037708674,
				"z": -0.2745323375,
				"element": "H" 
			},
			{
				"x": -3.2869217955,
				"y": -0.0779248897,
				"z": 1.3718181235,
				"element": "H" 
			},
			{
				"x": -2.7685421616,
				"y": 1.1154850208,
				"z": 0.1628765083,
				"element": "H" 
			},
			{
				"x": -1.0337624481,
				"y": -1.1178242153,
				"z": 1.3384612333,
				"element": "H" 
			},
			{
				"x": -0.0677630617,
				"y": 0.7058182052,
				"z": 2.3939420732,
				"element": "H" 
			},
			{
				"x": 0.0364249248,
				"y": 2.2433297099,
				"z": 0.2349187486,
				"element": "H" 
			},
			{
				"x": 2.226892992,
				"y": 0.7652795736,
				"z": -3.1634933372,
				"element": "H" 
			},
			{
				"x": -0.1865428614,
				"y": -1.9084108461,
				"z": -0.8217886749,
				"element": "H" 
			}
		],
		 "valence_orbital": [ 
			{
				"type": "occ",
				"energy": -0.36486,
				"method": "rhf"
			},
			{
				"type": "occ",
				"energy": -0.34271,
				"method": "rhf"
			},
			{
				"type": "occ",
				"energy": -0.29608,
				"method": "rhf"
			},
			{
				"type": "occ",
				"energy": -0.28518,
				"method": "rhf"
			},
			{
				"type": "occ",
				"energy": -0.2727,
				"method": "rhf"
			},
			{
				"type": "unocc",
				"energy": -0.0481,
				"method": "rhf"
			},
			{
				"type": "unocc",
				"energy": -0.0382,
				"method": "rhf"
			},
			{
				"type": "unocc",
				"energy": 0.06657,
				"method": "rhf"
			},
			{
				"type": "unocc",
				"energy": 0.08472,
				"method": "rhf"
			},
			{
				"type": "unocc",
				"energy": 0.10192,
				"method": "rhf"
			}
		],
		"cosmo_sigma_profile": { 
			"-0.025": 0.0,
			"-0.024": 0.0,
			"-0.023": 0.0,
			"-0.022": 0.0,
			"-0.021": 0.0,
			"-0.02": 0.0,
			"-0.019": 0.0,
			"-0.018": 0.0,
			"-0.017": 0.0108267275603,
			"-0.016": 0.571234779082,
			"-0.015": 1.17394554848,
			"-0.014": 0.716904130294,
			"-0.013": 1.0108826716,
			"-0.012": 0.868301551719,
			"-0.011": 1.01132024583,
			"-0.01": 0.696047150565,
			"-0.009": 0.444276010777,
			"-0.008": 2.02065428807,
			"-0.007": 4.96039742644,
			"-0.006": 6.95378240145,
			"-0.005": 10.3064272637,
			"-0.004": 13.5990240682,
			"-0.003": 14.9749481693,
			"-0.002": 16.7411368519,
			"-0.001": 20.4101662225,
			"0.0": 25.9950244856,
			"0.001": 30.331813373,
			"0.002": 42.2312050774,
			"0.003": 47.8588539484,
			"0.004": 2.71239319608,
			"0.005": 1.28984393124,
			"0.006": 0.597894609811,
			"0.007": 1.30637349233,
			"0.008": 1.22934709005,
			"0.009": 1.03547146512,
			"0.01": 1.16931751797,
			"0.011": 0.895621471423,
			"0.012": 1.36323756539,
			"0.013": 1.82512041919,
			"0.014": 0.537469902598,
			"0.015": 0.0,
			"0.016": 0.0,
			"0.017": 0.0,
			"0.018": 0.0,
			"0.019": 0.0,
			"0.02": 0.0,
			"0.021": 0.0,
			"0.022": 0.0,
			"0.023": 0.0,
			"0.024": 0.0,
			"0.025": 0.0
		}
	}
}
