{
	 "smiles": "ClC12CC3CC(CC(C3)C1)C2", 
	 "Tm": 438.15, 
	 "num_atms": 26, 
	 "gaussian": { 
		 "optdone": 1, 
		 "sigma_profile": "yes", 
		 "theory": "DFT", 
		 "functional": "B3LYP", 
		 "basiset": "6-31G**", 
		 "properties": { 
			 "R2extent": 2086.1659, 
			 "electric_dipole_moment_norm": 2.8164459022, 
			 "electric_quadrupole_moment_norm": 8.79388111189, 
			 "total_energy": -850.339316545, 
			 "HOMO_LUMO_gap": 0.30017, 
			 "cosmo_polarized_energy": -3.85, 
			 "cosmo_cavitation_energy": 25.32, 
			 "cosmo_dispersion_energy": -19.64, 
			 "cosmo_repulsion_energy": 1.53, 
			 "cosmo_total_nonelectrostatic_energy": 7.22, 
			 "SMD_solvation_energy": 2.48 
		},
		"coords": [
			{
				"x": -0.3231894805,
				"y": -0.5420867796,
				"z": 3.0628889644,
				"element": "Cl" 
			},
			{
				"x": -0.7427245771,
				"y": -0.3586722093,
				"z": 1.270404604,
				"element": "C" 
			},
			{
				"x": 0.3374374066,
				"y": -1.0623947905,
				"z": 0.4357584525,
				"element": "C" 
			},
			{
				"x": -0.0131222071,
				"y": -0.9093961655,
				"z": -1.0636733065,
				"element": "C" 
			},
			{
				"x": -0.0633212623,
				"y": 0.5888585847,
				"z": -1.4286499485,
				"element": "C" 
			},
			{
				"x": -1.1399000833,
				"y": 1.2907037922,
				"z": -0.5748917888,
				"element": "C" 
			},
			{
				"x": -2.515423423,
				"y": 0.6474637412,
				"z": -0.8484905999,
				"element": "C" 
			},
			{
				"x": -2.4645183652,
				"y": -0.8508493492,
				"z": -0.4838563978,
				"element": "C" 
			},
			{
				"x": -1.3882622422,
				"y": -1.5533365308,
				"z": -1.3375161245,
				"element": "C" 
			},
			{
				"x": -2.1129480962,
				"y": -1.0037818366,
				"z": 1.01537133,
				"element": "C" 
			},
			{
				"x": -0.7887703861,
				"y": 1.136899358,
				"z": 0.9243572412,
				"element": "C" 
			},
			{
				"x": 1.3164783462,
				"y": -0.6198280287,
				"z": 0.6505404988,
				"element": "H" 
			},
			{
				"x": 0.3879818732,
				"y": -2.1208395805,
				"z": 0.7144565493,
				"element": "H" 
			},
			{
				"x": 0.7581776431,
				"y": -1.4118285821,
				"z": -1.6605055111,
				"element": "H" 
			},
			{
				"x": 0.9165717123,
				"y": 1.0526442535,
				"z": -1.2574185976,
				"element": "H" 
			},
			{
				"x": -0.2919543508,
				"y": 0.7087586866,
				"z": -2.4953316485,
				"element": "H" 
			},
			{
				"x": -1.1730209552,
				"y": 2.3588745363,
				"z": -0.8228093657,
				"element": "H" 
			},
			{
				"x": -3.2926589971,
				"y": 1.1532098335,
				"z": -0.2613739238,
				"element": "H" 
			},
			{
				"x": -2.783655863,
				"y": 0.768483573,
				"z": -1.9057857881,
				"element": "H" 
			},
			{
				"x": -3.4432660589,
				"y": -1.311480487,
				"z": -0.6666684233,
				"element": "H" 
			},
			{
				"x": -1.6381353342,
				"y": -1.4679043528,
				"z": -2.4027490031,
				"element": "H" 
			},
			{
				"x": -1.3579024814,
				"y": -2.6246152803,
				"z": -1.1008473454,
				"element": "H" 
			},
			{
				"x": -2.0811819038,
				"y": -2.0617573215,
				"z": 1.2985459434,
				"element": "H" 
			},
			{
				"x": -2.8710271306,
				"y": -0.5197025997,
				"z": 1.6410717292,
				"element": "H" 
			},
			{
				"x": 0.1816432477,
				"y": 1.5963100073,
				"z": 1.1428756158,
				"element": "H" 
			},
			{
				"x": -1.5366070312,
				"y": 1.6374675276,
				"z": 1.5493968441,
				"element": "H" 
			}
		],
		 "valence_orbital": [ 
			{
				"type": "occ",
				"energy": -0.29823,
				"method": "rhf"
			},
			{
				"type": "occ",
				"energy": -0.29538,
				"method": "rhf"
			},
			{
				"type": "occ",
				"energy": -0.29537,
				"method": "rhf"
			},
			{
				"type": "occ",
				"energy": -0.27703,
				"method": "rhf"
			},
			{
				"type": "occ",
				"energy": -0.27703,
				"method": "rhf"
			},
			{
				"type": "unocc",
				"energy": 0.02314,
				"method": "rhf"
			},
			{
				"type": "unocc",
				"energy": 0.07653,
				"method": "rhf"
			},
			{
				"type": "unocc",
				"energy": 0.11976,
				"method": "rhf"
			},
			{
				"type": "unocc",
				"energy": 0.12072,
				"method": "rhf"
			},
			{
				"type": "unocc",
				"energy": 0.12073,
				"method": "rhf"
			}
		],
		"cosmo_sigma_profile": { 
			"-0.025": 0.0,
			"-0.024": 0.0,
			"-0.023": 0.0,
			"-0.022": 0.0,
			"-0.021": 0.0,
			"-0.02": 0.0,
			"-0.019": 0.0,
			"-0.018": 0.0,
			"-0.017": 0.0,
			"-0.016": 0.0,
			"-0.015": 0.0,
			"-0.014": 0.0,
			"-0.013": 0.0,
			"-0.012": 0.0,
			"-0.011": 0.0,
			"-0.01": 0.0,
			"-0.009": 0.0,
			"-0.008": 0.0,
			"-0.007": 0.0,
			"-0.006": 0.0,
			"-0.005": 0.0,
			"-0.004": 1.19540321296,
			"-0.003": 27.4179760257,
			"-0.002": 43.8375290236,
			"-0.001": 37.9907900282,
			"0.0": 30.5760959734,
			"0.001": 16.4403044155,
			"0.002": 6.02515047525,
			"0.003": 4.19460799989,
			"0.004": 4.85588802135,
			"0.005": 5.12339171923,
			"0.006": 5.52218576468,
			"0.007": 9.46683407078,
			"0.008": 3.57610850959,
			"0.009": 0.0,
			"0.01": 0.0,
			"0.011": 0.0,
			"0.012": 0.0,
			"0.013": 0.0,
			"0.014": 0.0,
			"0.015": 0.0,
			"0.016": 0.0,
			"0.017": 0.0,
			"0.018": 0.0,
			"0.019": 0.0,
			"0.02": 0.0,
			"0.021": 0.0,
			"0.022": 0.0,
			"0.023": 0.0,
			"0.024": 0.0,
			"0.025": 0.0
		}
	}
}
