{
	 "smiles": "NC1=NC(=NC(N)=N1)C1=CC=CC=C1", 
	 "Tm": 500.15, 
	 "num_atms": 23, 
	 "gaussian": { 
		 "optdone": 1, 
		 "sigma_profile": "yes", 
		 "theory": "DFT", 
		 "functional": "B3LYP", 
		 "basiset": "6-31G**", 
		 "properties": { 
			 "R2extent": 3244.692, 
			 "electric_dipole_moment_norm": 1.8958772455, 
			 "electric_quadrupole_moment_norm": 14.197678768, 
			 "total_energy": -622.19096662, 
			 "HOMO_LUMO_gap": 0.1942, 
			 "cosmo_polarized_energy": -14.11, 
			 "cosmo_cavitation_energy": 27.69, 
			 "cosmo_dispersion_energy": -20.99, 
			 "cosmo_repulsion_energy": 1.67, 
			 "cosmo_total_nonelectrostatic_energy": 8.38, 
			 "SMD_solvation_energy": 1.08 
		},
		"coords": [
			{
				"x": -0.739763708,
				"y": 3.4452462997,
				"z": -0.7421366513,
				"element": "N" 
			},
			{
				"x": -0.5107916293,
				"y": 2.4055960005,
				"z": 0.100050988,
				"element": "C" 
			},
			{
				"x": 0.1286558698,
				"y": 1.3374380787,
				"z": -0.4156038605,
				"element": "N" 
			},
			{
				"x": 0.352906982,
				"y": 0.3474454361,
				"z": 0.4591982593,
				"element": "C" 
			},
			{
				"x": -0.0036476878,
				"y": 0.3629212314,
				"z": 1.7508135293,
				"element": "N" 
			},
			{
				"x": -0.6355718967,
				"y": 1.4864527597,
				"z": 2.1433927653,
				"element": "C" 
			},
			{
				"x": -0.9957894404,
				"y": 1.5594579103,
				"z": 3.4501043098,
				"element": "N" 
			},
			{
				"x": -0.927568074,
				"y": 2.5421348889,
				"z": 1.3682258654,
				"element": "N" 
			},
			{
				"x": 1.0496230618,
				"y": -0.8653778784,
				"z": -0.0438340747,
				"element": "C" 
			},
			{
				"x": 1.4497937568,
				"y": -0.9481738855,
				"z": -1.3860823227,
				"element": "C" 
			},
			{
				"x": 2.1024821503,
				"y": -2.0857031658,
				"z": -1.8561787589,
				"element": "C" 
			},
			{
				"x": 2.363174682,
				"y": -3.1527620083,
				"z": -0.9926465437,
				"element": "C" 
			},
			{
				"x": 1.9676247179,
				"y": -3.0762976655,
				"z": 0.3452460696,
				"element": "C" 
			},
			{
				"x": 1.3147691698,
				"y": -1.9400940056,
				"z": 0.8183119051,
				"element": "C" 
			},
			{
				"x": -0.5726841791,
				"y": 3.306141391,
				"z": -1.7247425414,
				"element": "H" 
			},
			{
				"x": -1.3390312938,
				"y": 4.1917278699,
				"z": -0.4314397664,
				"element": "H" 
			},
			{
				"x": -0.922935755,
				"y": 0.7264454988,
				"z": 4.0100731462,
				"element": "H" 
			},
			{
				"x": -1.5939079635,
				"y": 2.3145131948,
				"z": 3.7417114028,
				"element": "H" 
			},
			{
				"x": 1.240558361,
				"y": -0.1112567512,
				"z": -2.0424173967,
				"element": "H" 
			},
			{
				"x": 2.4089698527,
				"y": -2.1409644582,
				"z": -2.8969980775,
				"element": "H" 
			},
			{
				"x": 2.8724763544,
				"y": -4.0393453544,
				"z": -1.3603929433,
				"element": "H" 
			},
			{
				"x": 2.1690080426,
				"y": -3.9035624091,
				"z": 1.0200580342,
				"element": "H" 
			},
			{
				"x": 1.0019486263,
				"y": -1.864282978,
				"z": 1.8533866621,
				"element": "H" 
			}
		],
		 "valence_orbital": [ 
			{
				"type": "occ",
				"energy": -0.25214,
				"method": "rhf"
			},
			{
				"type": "occ",
				"energy": -0.25192,
				"method": "rhf"
			},
			{
				"type": "occ",
				"energy": -0.24494,
				"method": "rhf"
			},
			{
				"type": "occ",
				"energy": -0.2348,
				"method": "rhf"
			},
			{
				"type": "occ",
				"energy": -0.2346,
				"method": "rhf"
			},
			{
				"type": "unocc",
				"energy": -0.0404,
				"method": "rhf"
			},
			{
				"type": "unocc",
				"energy": 0.00336,
				"method": "rhf"
			},
			{
				"type": "unocc",
				"energy": 0.01962,
				"method": "rhf"
			},
			{
				"type": "unocc",
				"energy": 0.04459,
				"method": "rhf"
			},
			{
				"type": "unocc",
				"energy": 0.09028,
				"method": "rhf"
			}
		],
		"cosmo_sigma_profile": { 
			"-0.025": 0.0,
			"-0.024": 0.0,
			"-0.023": 0.0,
			"-0.022": 0.0,
			"-0.021": 0.0,
			"-0.02": 0.0,
			"-0.019": 0.0,
			"-0.018": 0.0,
			"-0.017": 0.0,
			"-0.016": 0.0,
			"-0.015": 0.0158369039706,
			"-0.014": 2.95262697287,
			"-0.013": 4.18561008495,
			"-0.012": 3.18066727869,
			"-0.011": 4.67460002421,
			"-0.01": 3.95362110334,
			"-0.009": 3.68494712597,
			"-0.008": 3.60535269405,
			"-0.007": 2.48835398085,
			"-0.006": 7.36746775499,
			"-0.005": 9.43483905486,
			"-0.004": 11.9855144011,
			"-0.003": 11.3990194887,
			"-0.002": 11.7140724052,
			"-0.001": 11.2442921805,
			"0.0": 12.886616161,
			"0.001": 14.5470931693,
			"0.002": 17.6564294247,
			"0.003": 17.2848552403,
			"0.004": 18.8291445778,
			"0.005": 18.3588817186,
			"0.006": 7.87377304706,
			"0.007": 5.15937657659,
			"0.008": 5.61421748805,
			"0.009": 3.70005724355,
			"0.01": 3.94092511625,
			"0.011": 1.40189133395,
			"0.012": 0.848026250543,
			"0.013": 1.04228174998,
			"0.014": 0.365129550064,
			"0.015": 0.0,
			"0.016": 0.0,
			"0.017": 0.0,
			"0.018": 0.0,
			"0.019": 0.0,
			"0.02": 0.0,
			"0.021": 0.0,
			"0.022": 0.0,
			"0.023": 0.0,
			"0.024": 0.0,
			"0.025": 0.0
		}
	}
}
