{
	 "smiles": "BrC1=CN=C(C=O)C=C1", 
	 "Tm": 368.15, 
	 "num_atms": 13, 
	 "gaussian": { 
		 "optdone": 1, 
		 "sigma_profile": "yes", 
		 "theory": "DFT", 
		 "functional": "B3LYP", 
		 "basiset": "6-31G**", 
		 "properties": { 
			 "R2extent": 3352.443, 
			 "electric_dipole_moment_norm": 2.18720389082, 
			 "electric_quadrupole_moment_norm": 6.66470367908, 
			 "total_energy": -2932.40926361, 
			 "HOMO_LUMO_gap": 0.18031, 
			 "cosmo_polarized_energy": -7.13, 
			 "cosmo_cavitation_energy": 20.59, 
			 "cosmo_dispersion_energy": -15.58, 
			 "cosmo_repulsion_energy": 1.27, 
			 "cosmo_total_nonelectrostatic_energy": 6.28, 
			 "SMD_solvation_energy": 2.27 
		},
		"coords": [
			{
				"x": 2.3650324777,
				"y": 0.0244057913,
				"z": -3.5933806457,
				"element": "Br" 
			},
			{
				"x": 1.0350392152,
				"y": 0.0615331876,
				"z": -2.2354960412,
				"element": "C" 
			},
			{
				"x": 0.5533618427,
				"y": -1.1425528291,
				"z": -1.707191715,
				"element": "C" 
			},
			{
				"x": -0.3775488651,
				"y": -1.1778828016,
				"z": -0.754860464,
				"element": "N" 
			},
			{
				"x": -0.8592248187,
				"y": -0.0101396901,
				"z": -0.2976851385,
				"element": "C" 
			},
			{
				"x": -1.8983844042,
				"y": -0.1072931485,
				"z": 0.767037402,
				"element": "C" 
			},
			{
				"x": -2.4292119422,
				"y": 0.8569423379,
				"z": 1.2809759459,
				"element": "O" 
			},
			{
				"x": -0.4339242876,
				"y": 1.2367508012,
				"z": -0.7697055413,
				"element": "C" 
			},
			{
				"x": 0.5379143756,
				"y": 1.2762591127,
				"z": -1.7639555158,
				"element": "C" 
			},
			{
				"x": 0.9360945317,
				"y": -2.0929043712,
				"z": -2.0697425801,
				"element": "H" 
			},
			{
				"x": -2.1455737907,
				"y": -1.1501326522,
				"z": 1.0514235629,
				"element": "H" 
			},
			{
				"x": -0.8691292224,
				"y": 2.1384008432,
				"z": -0.3520766363,
				"element": "H" 
			},
			{
				"x": 0.902654888,
				"y": 2.2154134187,
				"z": -2.1648426329,
				"element": "H" 
			}
		],
		 "valence_orbital": [ 
			{
				"type": "occ",
				"energy": -0.31259,
				"method": "rhf"
			},
			{
				"type": "occ",
				"energy": -0.3085,
				"method": "rhf"
			},
			{
				"type": "occ",
				"energy": -0.28924,
				"method": "rhf"
			},
			{
				"type": "occ",
				"energy": -0.26927,
				"method": "rhf"
			},
			{
				"type": "occ",
				"energy": -0.26464,
				"method": "rhf"
			},
			{
				"type": "unocc",
				"energy": -0.08433,
				"method": "rhf"
			},
			{
				"type": "unocc",
				"energy": -0.04899,
				"method": "rhf"
			},
			{
				"type": "unocc",
				"energy": -0.01121,
				"method": "rhf"
			},
			{
				"type": "unocc",
				"energy": 0.01726,
				"method": "rhf"
			},
			{
				"type": "unocc",
				"energy": 0.10745,
				"method": "rhf"
			}
		],
		"cosmo_sigma_profile": { 
			"-0.025": 0.0,
			"-0.024": 0.0,
			"-0.023": 0.0,
			"-0.022": 0.0,
			"-0.021": 0.0,
			"-0.02": 0.0,
			"-0.019": 0.0,
			"-0.018": 0.0,
			"-0.017": 0.0,
			"-0.016": 0.0,
			"-0.015": 0.0,
			"-0.014": 0.0,
			"-0.013": 0.0,
			"-0.012": 0.0,
			"-0.011": 0.0,
			"-0.01": 0.00858262011182,
			"-0.009": 1.62837856672,
			"-0.008": 4.86020309006,
			"-0.007": 6.43778465718,
			"-0.006": 7.55908369032,
			"-0.005": 8.54922454693,
			"-0.004": 11.0470490803,
			"-0.003": 11.5879358501,
			"-0.002": 15.142118451,
			"-0.001": 23.8238480142,
			"0.0": 14.4528732175,
			"0.001": 9.08352393304,
			"0.002": 10.1629317351,
			"0.003": 13.3106213845,
			"0.004": 7.058839977,
			"0.005": 2.46342693082,
			"0.006": 3.04924542972,
			"0.007": 2.51486660625,
			"0.008": 2.61462112485,
			"0.009": 2.90109226848,
			"0.01": 4.54693540327,
			"0.011": 4.13224516618,
			"0.012": 2.07588873999,
			"0.013": 0.376659635464,
			"0.014": 0.339946741048,
			"0.015": 0.0,
			"0.016": 0.0,
			"0.017": 0.0,
			"0.018": 0.0,
			"0.019": 0.0,
			"0.02": 0.0,
			"0.021": 0.0,
			"0.022": 0.0,
			"0.023": 0.0,
			"0.024": 0.0,
			"0.025": 0.0
		}
	}
}
