{
	 "smiles": "COC(=O)C1=CC=C(C=C1)C(F)(F)F", 
	 "Tm": 287.15, 
	 "num_atms": 21, 
	 "gaussian": { 
		 "optdone": 1, 
		 "sigma_profile": "yes", 
		 "theory": "DFT", 
		 "functional": "B3LYP", 
		 "basiset": "6-31G**", 
		 "properties": { 
			 "R2extent": 4433.4537, 
			 "electric_dipole_moment_norm": 2.54263612025, 
			 "electric_quadrupole_moment_norm": 9.45916749614, 
			 "total_energy": -797.163622871, 
			 "HOMO_LUMO_gap": 0.21043, 
			 "cosmo_polarized_energy": -6.93, 
			 "cosmo_cavitation_energy": 27.42, 
			 "cosmo_dispersion_energy": -19.57, 
			 "cosmo_repulsion_energy": 1.47, 
			 "cosmo_total_nonelectrostatic_energy": 9.33, 
			 "SMD_solvation_energy": 7.52 
		},
		"coords": [
			{
				"x": 3.4898269959,
				"y": 1.0287031545,
				"z": -2.58163711,
				"element": "C" 
			},
			{
				"x": 2.2055965675,
				"y": 0.9227146865,
				"z": -1.9461327847,
				"element": "O" 
			},
			{
				"x": 2.119153341,
				"y": 1.4923700413,
				"z": -0.7243043717,
				"element": "C" 
			},
			{
				"x": 3.049043477,
				"y": 2.0581492855,
				"z": -0.1842448943,
				"element": "O" 
			},
			{
				"x": 0.760136363,
				"y": 1.3464423826,
				"z": -0.122697981,
				"element": "C" 
			},
			{
				"x": -0.2850819077,
				"y": 0.6838893691,
				"z": -0.779941971,
				"element": "C" 
			},
			{
				"x": -1.5324114251,
				"y": 0.5766865849,
				"z": -0.1706660278,
				"element": "C" 
			},
			{
				"x": -1.7385426081,
				"y": 1.1297478983,
				"z": 1.0965064222,
				"element": "C" 
			},
			{
				"x": -0.6981340099,
				"y": 1.7904094809,
				"z": 1.7570509323,
				"element": "C" 
			},
			{
				"x": 0.5477535187,
				"y": 1.8971531176,
				"z": 1.1476348854,
				"element": "C" 
			},
			{
				"x": -3.1049136249,
				"y": 1.0625862774,
				"z": 1.7279880975,
				"element": "C" 
			},
			{
				"x": -3.8652814249,
				"y": 2.1234297361,
				"z": 1.3722651477,
				"element": "F" 
			},
			{
				"x": -3.0359671458,
				"y": 1.0615232466,
				"z": 3.0767748,
				"element": "F" 
			},
			{
				"x": -3.7775856538,
				"y": -0.0472510908,
				"z": 1.3525545377,
				"element": "F" 
			},
			{
				"x": 3.7618817546,
				"y": 2.0773747813,
				"z": -2.7247279675,
				"element": "H" 
			},
			{
				"x": 4.2594157526,
				"y": 0.5452036393,
				"z": -1.9748742038,
				"element": "H" 
			},
			{
				"x": 3.3850055974,
				"y": 0.5246391645,
				"z": -3.5420722688,
				"element": "H" 
			},
			{
				"x": -0.1154816001,
				"y": 0.2551097448,
				"z": -1.7604395812,
				"element": "H" 
			},
			{
				"x": -2.3430940941,
				"y": 0.0583251164,
				"z": -0.6708941039,
				"element": "H" 
			},
			{
				"x": -0.8645446123,
				"y": 2.2087508008,
				"z": 2.7436077992,
				"element": "H" 
			},
			{
				"x": 1.3720247392,
				"y": 2.4015425826,
				"z": 1.6397506435,
				"element": "H" 
			}
		],
		 "valence_orbital": [ 
			{
				"type": "occ",
				"energy": -0.35985,
				"method": "rhf"
			},
			{
				"type": "occ",
				"energy": -0.31087,
				"method": "rhf"
			},
			{
				"type": "occ",
				"energy": -0.28351,
				"method": "rhf"
			},
			{
				"type": "occ",
				"energy": -0.27678,
				"method": "rhf"
			},
			{
				"type": "occ",
				"energy": -0.27452,
				"method": "rhf"
			},
			{
				"type": "unocc",
				"energy": -0.06409,
				"method": "rhf"
			},
			{
				"type": "unocc",
				"energy": -0.0236,
				"method": "rhf"
			},
			{
				"type": "unocc",
				"energy": 0.03684,
				"method": "rhf"
			},
			{
				"type": "unocc",
				"energy": 0.09069,
				"method": "rhf"
			},
			{
				"type": "unocc",
				"energy": 0.1107,
				"method": "rhf"
			}
		],
		"cosmo_sigma_profile": { 
			"-0.025": 0.0,
			"-0.024": 0.0,
			"-0.023": 0.0,
			"-0.022": 0.0,
			"-0.021": 0.0,
			"-0.02": 0.0,
			"-0.019": 0.0,
			"-0.018": 0.0,
			"-0.017": 0.0,
			"-0.016": 0.0,
			"-0.015": 0.0,
			"-0.014": 0.0,
			"-0.013": 0.0,
			"-0.012": 0.0,
			"-0.011": 0.0,
			"-0.01": 0.0,
			"-0.009": 0.0,
			"-0.008": 0.963755187898,
			"-0.007": 5.94159249257,
			"-0.006": 13.5410051408,
			"-0.005": 13.2314162744,
			"-0.004": 15.1022408475,
			"-0.003": 16.0471246482,
			"-0.002": 13.6420202947,
			"-0.001": 13.9811137238,
			"0.0": 20.8036019771,
			"0.001": 23.2398461198,
			"0.002": 34.5676692522,
			"0.003": 26.7104330671,
			"0.004": 3.39480589036,
			"0.005": 4.23680801244,
			"0.006": 1.31252763119,
			"0.007": 1.83593935995,
			"0.008": 1.15314601482,
			"0.009": 1.65728835422,
			"0.01": 2.18934780803,
			"0.011": 3.79169242796,
			"0.012": 2.59001916501,
			"0.013": 0.0,
			"0.014": 0.0,
			"0.015": 0.0,
			"0.016": 0.0,
			"0.017": 0.0,
			"0.018": 0.0,
			"0.019": 0.0,
			"0.02": 0.0,
			"0.021": 0.0,
			"0.022": 0.0,
			"0.023": 0.0,
			"0.024": 0.0,
			"0.025": 0.0
		}
	}
}
