{
	 "smiles": "OC(=O)CCOC1=CC=C(Cl)C=C1", 
	 "Tm": 409.15, 
	 "num_atms": 22, 
	 "gaussian": { 
		 "optdone": 1, 
		 "sigma_profile": "yes", 
		 "theory": "DFT", 
		 "functional": "B3LYP", 
		 "basiset": "6-31G**", 
		 "properties": { 
			 "R2extent": 4217.3215, 
			 "electric_dipole_moment_norm": 2.599032747, 
			 "electric_quadrupole_moment_norm": 13.7818605928, 
			 "total_energy": -1034.25119722, 
			 "HOMO_LUMO_gap": 0.2061, 
			 "cosmo_polarized_energy": -13.16, 
			 "cosmo_cavitation_energy": 28.58, 
			 "cosmo_dispersion_energy": -20.76, 
			 "cosmo_repulsion_energy": 1.68, 
			 "cosmo_total_nonelectrostatic_energy": 9.5, 
			 "SMD_solvation_energy": 6.01 
		},
		"coords": [
			{
				"x": -1.3692924813,
				"y": -3.5014239889,
				"z": -0.7517093308,
				"element": "O" 
			},
			{
				"x": -2.086184048,
				"y": -2.6330412366,
				"z": -0.0036950975,
				"element": "C" 
			},
			{
				"x": -2.4618953506,
				"y": -2.8841374429,
				"z": 1.1194265072,
				"element": "O" 
			},
			{
				"x": -2.3852829407,
				"y": -1.3526941451,
				"z": -0.7615135047,
				"element": "C" 
			},
			{
				"x": -2.4922492127,
				"y": -0.1519796915,
				"z": 0.1781346603,
				"element": "C" 
			},
			{
				"x": -1.2308019337,
				"y": 0.2078576269,
				"z": 0.7372818421,
				"element": "O" 
			},
			{
				"x": -0.3430604323,
				"y": 0.9438594933,
				"z": 0.0044120033,
				"element": "C" 
			},
			{
				"x": -0.5742700203,
				"y": 1.4498354554,
				"z": -1.2807550266,
				"element": "C" 
			},
			{
				"x": 0.4105140157,
				"y": 2.2089733784,
				"z": -1.9201385607,
				"element": "C" 
			},
			{
				"x": 1.6195801074,
				"y": 2.4582945024,
				"z": -1.2803549088,
				"element": "C" 
			},
			{
				"x": 2.8573581554,
				"y": 3.4113138765,
				"z": -2.0906740507,
				"element": "Cl" 
			},
			{
				"x": 1.861726865,
				"y": 1.9559632747,
				"z": 0.0007010717,
				"element": "C" 
			},
			{
				"x": 0.8830254542,
				"y": 1.2024011595,
				"z": 0.6365149232,
				"element": "C" 
			},
			{
				"x": -1.252069967,
				"y": -4.2986997631,
				"z": -0.2072401383,
				"element": "H" 
			},
			{
				"x": -1.6342877054,
				"y": -1.1987930091,
				"z": -1.5397255511,
				"element": "H" 
			},
			{
				"x": -3.3482138106,
				"y": -1.4989647153,
				"z": -1.2691133399,
				"element": "H" 
			},
			{
				"x": -3.1110018807,
				"y": -0.4223269427,
				"z": 1.0359055406,
				"element": "H" 
			},
			{
				"x": -2.9523935285,
				"y": 0.7039257184,
				"z": -0.328813617,
				"element": "H" 
			},
			{
				"x": -1.5074644383,
				"y": 1.2674963078,
				"z": -1.7998784264,
				"element": "H" 
			},
			{
				"x": 0.2314140911,
				"y": 2.6008526026,
				"z": -2.9153816248,
				"element": "H" 
			},
			{
				"x": 2.8071301834,
				"y": 2.1549312281,
				"z": 0.4932824581,
				"element": "H" 
			},
			{
				"x": 1.0454188779,
				"y": 0.8033563112,
				"z": 1.632134171,
				"element": "H" 
			}
		],
		 "valence_orbital": [ 
			{
				"type": "occ",
				"energy": -0.30923,
				"method": "rhf"
			},
			{
				"type": "occ",
				"energy": -0.30518,
				"method": "rhf"
			},
			{
				"type": "occ",
				"energy": -0.28514,
				"method": "rhf"
			},
			{
				"type": "occ",
				"energy": -0.26489,
				"method": "rhf"
			},
			{
				"type": "occ",
				"energy": -0.22243,
				"method": "rhf"
			},
			{
				"type": "unocc",
				"energy": -0.01633,
				"method": "rhf"
			},
			{
				"type": "unocc",
				"energy": -0.00044,
				"method": "rhf"
			},
			{
				"type": "unocc",
				"energy": 0.00063,
				"method": "rhf"
			},
			{
				"type": "unocc",
				"energy": 0.03201,
				"method": "rhf"
			},
			{
				"type": "unocc",
				"energy": 0.07246,
				"method": "rhf"
			}
		],
		"cosmo_sigma_profile": { 
			"-0.025": 0.0,
			"-0.024": 0.0,
			"-0.023": 0.0,
			"-0.022": 0.0,
			"-0.021": 0.0,
			"-0.02": 0.0,
			"-0.019": 0.0363120399985,
			"-0.018": 0.785358283244,
			"-0.017": 1.14985101051,
			"-0.016": 0.444202655736,
			"-0.015": 0.744208139541,
			"-0.014": 1.19157150481,
			"-0.013": 0.480376077163,
			"-0.012": 0.607903065641,
			"-0.011": 0.976058943588,
			"-0.01": 0.781615318462,
			"-0.009": 0.852302530037,
			"-0.008": 4.5504488257,
			"-0.007": 12.61176605,
			"-0.006": 14.3187756524,
			"-0.005": 16.2217825705,
			"-0.004": 12.4678014121,
			"-0.003": 11.6764170481,
			"-0.002": 10.4109499678,
			"-0.001": 12.2079868177,
			"0.0": 11.6449687378,
			"0.001": 13.4700865448,
			"0.002": 17.3505858918,
			"0.003": 22.0399788502,
			"0.004": 20.4181519725,
			"0.005": 13.7821656909,
			"0.006": 5.17053304914,
			"0.007": 4.22894256821,
			"0.008": 3.93337766119,
			"0.009": 4.82944103408,
			"0.01": 2.5986026696,
			"0.011": 4.45107429404,
			"0.012": 3.31026327586,
			"0.013": 0.0196118298484,
			"0.014": 0.0,
			"0.015": 0.0,
			"0.016": 0.0,
			"0.017": 0.0,
			"0.018": 0.0,
			"0.019": 0.0,
			"0.02": 0.0,
			"0.021": 0.0,
			"0.022": 0.0,
			"0.023": 0.0,
			"0.024": 0.0,
			"0.025": 0.0
		}
	}
}
