{
	 "smiles": "CC1=CC=C(C(O)=C1)[N+]([O-])=O", 
	 "Tm": 327.15, 
	 "num_atms": 18, 
	 "gaussian": { 
		 "optdone": 1, 
		 "sigma_profile": "yes", 
		 "theory": "DFT", 
		 "functional": "B3LYP", 
		 "basiset": "6-31G**", 
		 "properties": { 
			 "R2extent": 3139.4943, 
			 "electric_dipole_moment_norm": 6.47718681528, 
			 "electric_quadrupole_moment_norm": 26.9868325094, 
			 "total_energy": -551.280716176, 
			 "HOMO_LUMO_gap": 0.17158, 
			 "cosmo_polarized_energy": -15.56, 
			 "cosmo_cavitation_energy": 22.72, 
			 "cosmo_dispersion_energy": -16.95, 
			 "cosmo_repulsion_energy": 1.36, 
			 "cosmo_total_nonelectrostatic_energy": 7.13, 
			 "SMD_solvation_energy": 6.67 
		},
		"coords": [
			{
				"x": -0.231600635,
				"y": 0.1925277853,
				"z": -1.6342793585,
				"element": "C" 
			},
			{
				"x": 0.4183516557,
				"y": 0.0865019905,
				"z": -0.2770636098,
				"element": "C" 
			},
			{
				"x": 0.4528219017,
				"y": 1.1944520777,
				"z": 0.5881519533,
				"element": "C" 
			},
			{
				"x": 1.0534620263,
				"y": 1.0887184941,
				"z": 1.8306624639,
				"element": "C" 
			},
			{
				"x": 1.6394726094,
				"y": -0.1120867591,
				"z": 2.2493484481,
				"element": "C" 
			},
			{
				"x": 1.6182678366,
				"y": -1.2398448227,
				"z": 1.4023201272,
				"element": "C" 
			},
			{
				"x": 2.163096137,
				"y": -2.4163137349,
				"z": 1.7806975476,
				"element": "O" 
			},
			{
				"x": 0.9987430521,
				"y": -1.1062262796,
				"z": 0.147988517,
				"element": "C" 
			},
			{
				"x": 2.2577240441,
				"y": -0.1299526255,
				"z": 3.5773698924,
				"element": "N" 
			},
			{
				"x": 2.8827344621,
				"y": -1.1297715447,
				"z": 3.9219750848,
				"element": "O" 
			},
			{
				"x": 2.1164280438,
				"y": 0.8773570121,
				"z": 4.2782599245,
				"element": "O" 
			},
			{
				"x": -0.2097431904,
				"y": -0.7592346581,
				"z": -2.1709178144,
				"element": "H" 
			},
			{
				"x": 0.2763605931,
				"y": 0.9407946491,
				"z": -2.2531174717,
				"element": "H" 
			},
			{
				"x": -1.2771189069,
				"y": 0.5071307991,
				"z": -1.5442664262,
				"element": "H" 
			},
			{
				"x": 0.0073969516,
				"y": 2.1361683749,
				"z": 0.2822917463,
				"element": "H" 
			},
			{
				"x": 1.0891253624,
				"y": 1.9258985058,
				"z": 2.5161145096,
				"element": "H" 
			},
			{
				"x": 2.0245829768,
				"y": -3.0597209703,
				"z": 1.0715124247,
				"element": "H" 
			},
			{
				"x": 0.9775950796,
				"y": -1.9747982938,
				"z": -0.5081479589,
				"element": "H" 
			}
		],
		 "valence_orbital": [ 
			{
				"type": "occ",
				"energy": -0.29367,
				"method": "rhf"
			},
			{
				"type": "occ",
				"energy": -0.29217,
				"method": "rhf"
			},
			{
				"type": "occ",
				"energy": -0.27518,
				"method": "rhf"
			},
			{
				"type": "occ",
				"energy": -0.27069,
				"method": "rhf"
			},
			{
				"type": "occ",
				"energy": -0.24697,
				"method": "rhf"
			},
			{
				"type": "unocc",
				"energy": -0.07539,
				"method": "rhf"
			},
			{
				"type": "unocc",
				"energy": -0.01474,
				"method": "rhf"
			},
			{
				"type": "unocc",
				"energy": 0.00602,
				"method": "rhf"
			},
			{
				"type": "unocc",
				"energy": 0.05254,
				"method": "rhf"
			},
			{
				"type": "unocc",
				"energy": 0.07501,
				"method": "rhf"
			}
		],
		"cosmo_sigma_profile": { 
			"-0.025": 0.0,
			"-0.024": 0.0,
			"-0.023": 0.0,
			"-0.022": 0.0,
			"-0.021": 0.0,
			"-0.02": 0.0,
			"-0.019": 0.68764416807,
			"-0.018": 1.11506676606,
			"-0.017": 1.13831160589,
			"-0.016": 1.44394931302,
			"-0.015": 1.094732157,
			"-0.014": 0.620269537287,
			"-0.013": 0.644583121194,
			"-0.012": 1.2870375858,
			"-0.011": 1.28104363086,
			"-0.01": 0.586168710658,
			"-0.009": 0.901072069138,
			"-0.008": 1.84013332618,
			"-0.007": 3.86690548799,
			"-0.006": 6.26536999545,
			"-0.005": 11.7517863458,
			"-0.004": 13.7010327491,
			"-0.003": 12.6532508306,
			"-0.002": 12.1745666365,
			"-0.001": 17.1411808691,
			"0.0": 15.0364915512,
			"0.001": 10.8887852556,
			"0.002": 11.9399231793,
			"0.003": 9.73936353967,
			"0.004": 3.14992970867,
			"0.005": 2.58441347074,
			"0.006": 4.00470061744,
			"0.007": 3.70731688784,
			"0.008": 8.47957397511,
			"0.009": 8.47264023482,
			"0.01": 6.11820682456,
			"0.011": 3.28989583316,
			"0.012": 1.76022963284,
			"0.013": 1.38065130698,
			"0.014": 0.26644867241,
			"0.015": 0.0,
			"0.016": 0.0,
			"0.017": 0.0,
			"0.018": 0.0,
			"0.019": 0.0,
			"0.02": 0.0,
			"0.021": 0.0,
			"0.022": 0.0,
			"0.023": 0.0,
			"0.024": 0.0,
			"0.025": 0.0
		}
	}
}
