{
	 "smiles": "CC1(C)C2CCC(C)(C2)C1=O", 
	 "Tm": 278.7, 
	 "num_atms": 27, 
	 "gaussian": { 
		 "optdone": 1, 
		 "sigma_profile": "yes", 
		 "theory": "DFT", 
		 "functional": "B3LYP", 
		 "basiset": "6-31G**", 
		 "properties": { 
			 "R2extent": 2322.9742, 
			 "electric_dipole_moment_norm": 2.7155671636, 
			 "electric_quadrupole_moment_norm": 7.04990031348, 
			 "total_energy": -465.94083819, 
			 "HOMO_LUMO_gap": 0.21855, 
			 "cosmo_polarized_energy": -6.39, 
			 "cosmo_cavitation_energy": 26.33, 
			 "cosmo_dispersion_energy": -18.98, 
			 "cosmo_repulsion_energy": 1.49, 
			 "cosmo_total_nonelectrostatic_energy": 8.85, 
			 "SMD_solvation_energy": 4.79 
		},
		"coords": [
			{
				"x": -0.7923876383,
				"y": 0.2939239844,
				"z": -0.2182539231,
				"element": "C" 
			},
			{
				"x": 0.4820917389,
				"y": -0.4904449238,
				"z": -0.5721067761,
				"element": "C" 
			},
			{
				"x": 0.0717849435,
				"y": -1.931750442,
				"z": -0.9475828792,
				"element": "C" 
			},
			{
				"x": 1.4135531956,
				"y": 0.1458322536,
				"z": -1.652525873,
				"element": "C" 
			},
			{
				"x": 1.7007198283,
				"y": 1.6299963732,
				"z": -1.3216135906,
				"element": "C" 
			},
			{
				"x": 2.575478877,
				"y": 1.5380337748,
				"z": -0.033273072,
				"element": "C" 
			},
			{
				"x": 2.8076053216,
				"y": 0.00047472,
				"z": 0.1644883101,
				"element": "C" 
			},
			{
				"x": 3.9742455371,
				"y": -0.3737067454,
				"z": 1.0606454307,
				"element": "C" 
			},
			{
				"x": 2.7880112497,
				"y": -0.4799236237,
				"z": -1.3085434905,
				"element": "C" 
			},
			{
				"x": 1.449083669,
				"y": -0.5300935906,
				"z": 0.637169939,
				"element": "C" 
			},
			{
				"x": 1.1665444532,
				"y": -0.906078197,
				"z": 1.7560435591,
				"element": "O" 
			},
			{
				"x": -1.3291834383,
				"y": -0.2251081897,
				"z": 0.5810073651,
				"element": "H" 
			},
			{
				"x": -0.5830198725,
				"y": 1.306241847,
				"z": 0.1366690468,
				"element": "H" 
			},
			{
				"x": -1.4563185845,
				"y": 0.3682261125,
				"z": -1.0869038611,
				"element": "H" 
			},
			{
				"x": 0.9200179222,
				"y": -2.5484241702,
				"z": -1.2569602778,
				"element": "H" 
			},
			{
				"x": -0.648377597,
				"y": -1.9135673734,
				"z": -1.7731235987,
				"element": "H" 
			},
			{
				"x": -0.3998642292,
				"y": -2.4197943515,
				"z": -0.0896591259,
				"element": "H" 
			},
			{
				"x": 1.0568651993,
				"y": -0.0183170757,
				"z": -2.6737383575,
				"element": "H" 
			},
			{
				"x": 2.2646376144,
				"y": 2.0872372806,
				"z": -2.141117925,
				"element": "H" 
			},
			{
				"x": 0.7979566605,
				"y": 2.2294537069,
				"z": -1.1859074862,
				"element": "H" 
			},
			{
				"x": 3.5451691809,
				"y": 2.0297117201,
				"z": -0.167041345,
				"element": "H" 
			},
			{
				"x": 2.1025290259,
				"y": 1.9940996022,
				"z": 0.8424667057,
				"element": "H" 
			},
			{
				"x": 4.1057556718,
				"y": -1.4596540254,
				"z": 1.1049381259,
				"element": "H" 
			},
			{
				"x": 4.9078898845,
				"y": 0.0700245223,
				"z": 0.6987400011,
				"element": "H" 
			},
			{
				"x": 3.7988346103,
				"y": -0.0259818439,
				"z": 2.0833196524,
				"element": "H" 
			},
			{
				"x": 2.8297670438,
				"y": -1.568607734,
				"z": -1.4068762562,
				"element": "H" 
			},
			{
				"x": 3.6070097323,
				"y": -0.0515036111,
				"z": -1.8967602976,
				"element": "H" 
			}
		],
		 "valence_orbital": [ 
			{
				"type": "occ",
				"energy": -0.33254,
				"method": "rhf"
			},
			{
				"type": "occ",
				"energy": -0.3204,
				"method": "rhf"
			},
			{
				"type": "occ",
				"energy": -0.30765,
				"method": "rhf"
			},
			{
				"type": "occ",
				"energy": -0.30302,
				"method": "rhf"
			},
			{
				"type": "occ",
				"energy": -0.22693,
				"method": "rhf"
			},
			{
				"type": "unocc",
				"energy": -0.00838,
				"method": "rhf"
			},
			{
				"type": "unocc",
				"energy": 0.07324,
				"method": "rhf"
			},
			{
				"type": "unocc",
				"energy": 0.10053,
				"method": "rhf"
			},
			{
				"type": "unocc",
				"energy": 0.1092,
				"method": "rhf"
			},
			{
				"type": "unocc",
				"energy": 0.12069,
				"method": "rhf"
			}
		],
		"cosmo_sigma_profile": { 
			"-0.025": 0.0,
			"-0.024": 0.0,
			"-0.023": 0.0,
			"-0.022": 0.0,
			"-0.021": 0.0,
			"-0.02": 0.0,
			"-0.019": 0.0,
			"-0.018": 0.0,
			"-0.017": 0.0,
			"-0.016": 0.0,
			"-0.015": 0.0,
			"-0.014": 0.0,
			"-0.013": 0.0,
			"-0.012": 0.0,
			"-0.011": 0.0,
			"-0.01": 0.0,
			"-0.009": 0.0,
			"-0.008": 0.0,
			"-0.007": 0.0,
			"-0.006": 0.185215589515,
			"-0.005": 2.37114005093,
			"-0.004": 10.3711319491,
			"-0.003": 32.23634397,
			"-0.002": 34.7363964321,
			"-0.001": 31.5470445974,
			"0.0": 33.955230724,
			"0.001": 27.4841055013,
			"0.002": 4.57256403035,
			"0.003": 2.05717661549,
			"0.004": 2.1092441696,
			"0.005": 3.15212329352,
			"0.006": 1.70932927293,
			"0.007": 1.03514525517,
			"0.008": 1.91679435914,
			"0.009": 2.14823428774,
			"0.01": 1.66996550113,
			"0.011": 2.53028908022,
			"0.012": 4.39065204047,
			"0.013": 2.73908327027,
			"0.014": 0.100834885652,
			"0.015": 0.0,
			"0.016": 0.0,
			"0.017": 0.0,
			"0.018": 0.0,
			"0.019": 0.0,
			"0.02": 0.0,
			"0.021": 0.0,
			"0.022": 0.0,
			"0.023": 0.0,
			"0.024": 0.0,
			"0.025": 0.0
		}
	}
}
