{
	 "smiles": "CSC1=CC(C(N)=O)=C(Cl)C=C1", 
	 "Tm": 418.15, 
	 "num_atms": 20, 
	 "gaussian": { 
		 "optdone": 1, 
		 "sigma_profile": "yes", 
		 "theory": "DFT", 
		 "functional": "B3LYP", 
		 "basiset": "6-31G**", 
		 "properties": { 
			 "R2extent": 3355.851, 
			 "electric_dipole_moment_norm": 1.18859790089, 
			 "electric_quadrupole_moment_norm": 10.6705819673, 
			 "total_energy": -1298.04399149, 
			 "HOMO_LUMO_gap": 0.17094, 
			 "cosmo_polarized_energy": -11.52, 
			 "cosmo_cavitation_energy": 27.12, 
			 "cosmo_dispersion_energy": -20.66, 
			 "cosmo_repulsion_energy": 1.59, 
			 "cosmo_total_nonelectrostatic_energy": 8.05, 
			 "SMD_solvation_energy": 5.04 
		},
		"coords": [
			{
				"x": -0.3635970957,
				"y": 1.7694385099,
				"z": 2.4872831909,
				"element": "C" 
			},
			{
				"x": -1.7978326342,
				"y": 0.8883995456,
				"z": 1.7902780348,
				"element": "S" 
			},
			{
				"x": -1.1497201567,
				"y": 0.1584759164,
				"z": 0.3027296092,
				"element": "C" 
			},
			{
				"x": 0.1615397756,
				"y": 0.3125812997,
				"z": -0.1429071909,
				"element": "C" 
			},
			{
				"x": 0.6334742948,
				"y": -0.2768430767,
				"z": -1.3298552677,
				"element": "C" 
			},
			{
				"x": 2.0956864895,
				"y": 0.0378720046,
				"z": -1.6119684028,
				"element": "C" 
			},
			{
				"x": 2.5938261148,
				"y": -0.2055387452,
				"z": -2.8516180589,
				"element": "N" 
			},
			{
				"x": 2.7909197458,
				"y": 0.5413580813,
				"z": -0.7338532083,
				"element": "O" 
			},
			{
				"x": -0.2734699897,
				"y": -1.0561950263,
				"z": -2.0647301095,
				"element": "C" 
			},
			{
				"x": 0.1426594199,
				"y": -1.9157639575,
				"z": -3.5578637082,
				"element": "Cl" 
			},
			{
				"x": -1.5914637225,
				"y": -1.226154323,
				"z": -1.6305627011,
				"element": "C" 
			},
			{
				"x": -2.0316249936,
				"y": -0.6232360248,
				"z": -0.4615682426,
				"element": "C" 
			},
			{
				"x": -0.0118546526,
				"y": 2.5559555449,
				"z": 1.8162072682,
				"element": "H" 
			},
			{
				"x": 0.451493658,
				"y": 1.0821968066,
				"z": 2.7236593799,
				"element": "H" 
			},
			{
				"x": -0.7240582532,
				"y": 2.2256848342,
				"z": 3.4114484872,
				"element": "H" 
			},
			{
				"x": 0.8920186873,
				"y": 0.8903092694,
				"z": 0.4084526717,
				"element": "H" 
			},
			{
				"x": 3.5698585057,
				"y": 0.0073059663,
				"z": -2.9900203106,
				"element": "H" 
			},
			{
				"x": 2.0696234387,
				"y": -0.6586995718,
				"z": -3.5814889769,
				"element": "H" 
			},
			{
				"x": -2.2677639978,
				"y": -1.8390497139,
				"z": -2.2159058989,
				"element": "H" 
			},
			{
				"x": -3.0596146343,
				"y": -0.7649973399,
				"z": -0.1409165654,
				"element": "H" 
			}
		],
		 "valence_orbital": [ 
			{
				"type": "occ",
				"energy": -0.28796,
				"method": "rhf"
			},
			{
				"type": "occ",
				"energy": -0.27319,
				"method": "rhf"
			},
			{
				"type": "occ",
				"energy": -0.26602,
				"method": "rhf"
			},
			{
				"type": "occ",
				"energy": -0.25726,
				"method": "rhf"
			},
			{
				"type": "occ",
				"energy": -0.21827,
				"method": "rhf"
			},
			{
				"type": "unocc",
				"energy": -0.04733,
				"method": "rhf"
			},
			{
				"type": "unocc",
				"energy": -0.01804,
				"method": "rhf"
			},
			{
				"type": "unocc",
				"energy": 0.01148,
				"method": "rhf"
			},
			{
				"type": "unocc",
				"energy": 0.03129,
				"method": "rhf"
			},
			{
				"type": "unocc",
				"energy": 0.05606,
				"method": "rhf"
			}
		],
		"cosmo_sigma_profile": { 
			"-0.025": 0.0,
			"-0.024": 0.0,
			"-0.023": 0.0,
			"-0.022": 0.0,
			"-0.021": 0.0,
			"-0.02": 0.0,
			"-0.019": 0.0,
			"-0.018": 0.0,
			"-0.017": 0.0,
			"-0.016": 0.0,
			"-0.015": 0.156732067555,
			"-0.014": 0.962859398429,
			"-0.013": 1.15445706618,
			"-0.012": 1.00627801028,
			"-0.011": 1.50885327864,
			"-0.01": 2.6034189426,
			"-0.009": 1.77827072673,
			"-0.008": 3.3257721385,
			"-0.007": 8.29645446391,
			"-0.006": 12.7090400058,
			"-0.005": 13.0578785014,
			"-0.004": 11.3631959986,
			"-0.003": 13.7832756608,
			"-0.002": 16.4638302244,
			"-0.001": 14.2332754937,
			"0.0": 13.9168985275,
			"0.001": 18.7432265225,
			"0.002": 21.7870377929,
			"0.003": 20.7699328969,
			"0.004": 10.8105188972,
			"0.005": 5.88834158511,
			"0.006": 4.16420762041,
			"0.007": 3.47922306141,
			"0.008": 4.4833546743,
			"0.009": 1.94967453276,
			"0.01": 1.51772513874,
			"0.011": 1.0754640226,
			"0.012": 2.40281186667,
			"0.013": 4.41276579886,
			"0.014": 2.93297785233,
			"0.015": 0.103049015337,
			"0.016": 0.0,
			"0.017": 0.0,
			"0.018": 0.0,
			"0.019": 0.0,
			"0.02": 0.0,
			"0.021": 0.0,
			"0.022": 0.0,
			"0.023": 0.0,
			"0.024": 0.0,
			"0.025": 0.0
		}
	}
}
