{
	 "smiles": "CC1=CC(C)=C2C(=O)N3CCCCC3=CC2=C1", 
	 "Tm": 335.15, 
	 "num_atms": 34, 
	 "gaussian": { 
		 "optdone": 1, 
		 "sigma_profile": "yes", 
		 "theory": "DFT", 
		 "functional": "B3LYP", 
		 "basiset": "6-31G**", 
		 "properties": { 
			 "R2extent": 4551.4552, 
			 "electric_dipole_moment_norm": 3.29313543754, 
			 "electric_quadrupole_moment_norm": 12.1763841267, 
			 "total_energy": -711.869246825, 
			 "HOMO_LUMO_gap": 0.16861, 
			 "cosmo_polarized_energy": -9.53, 
			 "cosmo_cavitation_energy": 34.52, 
			 "cosmo_dispersion_energy": -25.65, 
			 "cosmo_repulsion_energy": 1.95, 
			 "cosmo_total_nonelectrostatic_energy": 10.82, 
			 "SMD_solvation_energy": 5.24 
		},
		"coords": [
			{
				"x": -4.0839237507,
				"y": 3.1651959937,
				"z": -0.8668739588,
				"element": "C" 
			},
			{
				"x": -2.7983062827,
				"y": 2.4711811555,
				"z": -0.4870607397,
				"element": "C" 
			},
			{
				"x": -1.8118049204,
				"y": 3.162005839,
				"z": 0.2448275487,
				"element": "C" 
			},
			{
				"x": -0.606839162,
				"y": 2.5806434938,
				"z": 0.6254005235,
				"element": "C" 
			},
			{
				"x": 0.377433704,
				"y": 3.4175329666,
				"z": 1.4084826354,
				"element": "C" 
			},
			{
				"x": -0.3640297959,
				"y": 1.2250295071,
				"z": 0.2559146172,
				"element": "C" 
			},
			{
				"x": 0.8911050326,
				"y": 0.5510950684,
				"z": 0.628934043,
				"element": "C" 
			},
			{
				"x": 1.8087235486,
				"y": 1.0698867325,
				"z": 1.2695192519,
				"element": "O" 
			},
			{
				"x": 1.0182968018,
				"y": -0.7883969023,
				"z": 0.2053161742,
				"element": "N" 
			},
			{
				"x": 2.2335712735,
				"y": -1.5247434243,
				"z": 0.5827730762,
				"element": "C" 
			},
			{
				"x": 1.8662914618,
				"y": -2.8651837254,
				"z": 1.2308359889,
				"element": "C" 
			},
			{
				"x": 0.8751100492,
				"y": -3.686846318,
				"z": 0.3608554946,
				"element": "C" 
			},
			{
				"x": 0.4027376678,
				"y": -2.88656859,
				"z": -0.8735475093,
				"element": "C" 
			},
			{
				"x": 0.0516602821,
				"y": -1.4667993815,
				"z": -0.5194732757,
				"element": "C" 
			},
			{
				"x": -1.1088178498,
				"y": -0.8502451237,
				"z": -0.8580707802,
				"element": "C" 
			},
			{
				"x": -1.3495086482,
				"y": 0.5143186011,
				"z": -0.4829947043,
				"element": "C" 
			},
			{
				"x": -2.5540752175,
				"y": 1.1552566924,
				"z": -0.8417024059,
				"element": "C" 
			},
			{
				"x": -4.7471340657,
				"y": 2.5026861332,
				"z": -1.4295023685,
				"element": "H" 
			},
			{
				"x": -4.6252662319,
				"y": 3.509156665,
				"z": 0.0221297819,
				"element": "H" 
			},
			{
				"x": -3.888341364,
				"y": 4.0501010318,
				"z": -1.4836221599,
				"element": "H" 
			},
			{
				"x": -1.9992280603,
				"y": 4.1960178982,
				"z": 0.525465734,
				"element": "H" 
			},
			{
				"x": 0.6059053452,
				"y": 2.9679105793,
				"z": 2.3778408372,
				"element": "H" 
			},
			{
				"x": 1.3362705409,
				"y": 3.5001626614,
				"z": 0.8908731897,
				"element": "H" 
			},
			{
				"x": -0.0303215842,
				"y": 4.4204115145,
				"z": 1.5671704521,
				"element": "H" 
			},
			{
				"x": 2.8526812427,
				"y": -1.6794505096,
				"z": -0.3103627995,
				"element": "H" 
			},
			{
				"x": 2.787426257,
				"y": -0.8793999645,
				"z": 1.2628238115,
				"element": "H" 
			},
			{
				"x": 2.7877864653,
				"y": -3.427604884,
				"z": 1.4143769749,
				"element": "H" 
			},
			{
				"x": 1.4229645058,
				"y": -2.6604796683,
				"z": 2.2107585965,
				"element": "H" 
			},
			{
				"x": 1.3329454444,
				"y": -4.6219668441,
				"z": 0.0226513795,
				"element": "H" 
			},
			{
				"x": 0.0011358481,
				"y": -3.9652959296,
				"z": 0.95818223,
				"element": "H" 
			},
			{
				"x": -0.4587797269,
				"y": -3.3661337941,
				"z": -1.3454132553,
				"element": "H" 
			},
			{
				"x": 1.2064548871,
				"y": -2.8773372118,
				"z": -1.6233262664,
				"element": "H" 
			},
			{
				"x": -1.859274856,
				"y": -1.3922714205,
				"z": -1.4227739501,
				"element": "H" 
			},
			{
				"x": -3.2957488417,
				"y": 0.5959311579,
				"z": -1.4070081672,
				"element": "H" 
			}
		],
		 "valence_orbital": [ 
			{
				"type": "occ",
				"energy": -0.31055,
				"method": "rhf"
			},
			{
				"type": "occ",
				"energy": -0.25867,
				"method": "rhf"
			},
			{
				"type": "occ",
				"energy": -0.24019,
				"method": "rhf"
			},
			{
				"type": "occ",
				"energy": -0.23555,
				"method": "rhf"
			},
			{
				"type": "occ",
				"energy": -0.19302,
				"method": "rhf"
			},
			{
				"type": "unocc",
				"energy": -0.02441,
				"method": "rhf"
			},
			{
				"type": "unocc",
				"energy": -0.01487,
				"method": "rhf"
			},
			{
				"type": "unocc",
				"energy": 0.04787,
				"method": "rhf"
			},
			{
				"type": "unocc",
				"energy": 0.07965,
				"method": "rhf"
			},
			{
				"type": "unocc",
				"energy": 0.08428,
				"method": "rhf"
			}
		],
		"cosmo_sigma_profile": { 
			"-0.025": 0.0,
			"-0.024": 0.0,
			"-0.023": 0.0,
			"-0.022": 0.0,
			"-0.021": 0.0,
			"-0.02": 0.0,
			"-0.019": 0.0,
			"-0.018": 0.0,
			"-0.017": 0.0,
			"-0.016": 0.0,
			"-0.015": 0.0,
			"-0.014": 0.0,
			"-0.013": 0.0,
			"-0.012": 0.0,
			"-0.011": 0.0,
			"-0.01": 0.0,
			"-0.009": 0.0,
			"-0.008": 0.0,
			"-0.007": 0.0,
			"-0.006": 2.99899102622,
			"-0.005": 15.2608834572,
			"-0.004": 25.2658778125,
			"-0.003": 34.8432841354,
			"-0.002": 36.9669962491,
			"-0.001": 29.8887988004,
			"0.0": 29.9046702401,
			"0.001": 22.0807438073,
			"0.002": 14.1806844743,
			"0.003": 12.2491583345,
			"0.004": 16.0135134852,
			"0.005": 13.5597106012,
			"0.006": 3.06715575828,
			"0.007": 1.91190436046,
			"0.008": 1.80984883372,
			"0.009": 1.38397062025,
			"0.01": 1.20758156671,
			"0.011": 1.94394635387,
			"0.012": 1.72167399049,
			"0.013": 1.88660631167,
			"0.014": 3.06703222759,
			"0.015": 0.265767030442,
			"0.016": 0.0,
			"0.017": 0.0,
			"0.018": 0.0,
			"0.019": 0.0,
			"0.02": 0.0,
			"0.021": 0.0,
			"0.022": 0.0,
			"0.023": 0.0,
			"0.024": 0.0,
			"0.025": 0.0
		}
	}
}
