{
	 "smiles": "FC(F)(F)C1=CC(=CC=C1)N1C(=O)C=CC1=O", 
	 "Tm": 341.15, 
	 "num_atms": 23, 
	 "gaussian": { 
		 "optdone": 1, 
		 "sigma_profile": "yes", 
		 "theory": "DFT", 
		 "functional": "B3LYP", 
		 "basiset": "6-31G**", 
		 "properties": { 
			 "R2extent": 4793.3735, 
			 "electric_dipole_moment_norm": 3.88096207402, 
			 "electric_quadrupole_moment_norm": 13.8632748505, 
			 "total_energy": -927.508677109, 
			 "HOMO_LUMO_gap": 0.13539, 
			 "cosmo_polarized_energy": -9.28, 
			 "cosmo_cavitation_energy": 29.7, 
			 "cosmo_dispersion_energy": -21.16, 
			 "cosmo_repulsion_energy": 1.53, 
			 "cosmo_total_nonelectrostatic_energy": 10.07, 
			 "SMD_solvation_energy": 7.76 
		},
		"coords": [
			{
				"x": -3.2986063568,
				"y": -0.9429617509,
				"z": 0.2232913934,
				"element": "F" 
			},
			{
				"x": -2.3020072049,
				"y": -1.540500477,
				"z": 0.915535136,
				"element": "C" 
			},
			{
				"x": -1.6974097588,
				"y": -2.3963720084,
				"z": 0.0603189654,
				"element": "F" 
			},
			{
				"x": -2.8758914087,
				"y": -2.2817390129,
				"z": 1.8877966746,
				"element": "F" 
			},
			{
				"x": -1.3294862976,
				"y": -0.5309301756,
				"z": 1.4677926284,
				"element": "C" 
			},
			{
				"x": -0.6679408047,
				"y": 0.2972720496,
				"z": 0.5582629021,
				"element": "C" 
			},
			{
				"x": 0.2459621269,
				"y": 1.2523798997,
				"z": 1.0242573391,
				"element": "C" 
			},
			{
				"x": 0.4809622997,
				"y": 1.3591337526,
				"z": 2.4072735362,
				"element": "C" 
			},
			{
				"x": -0.1914990666,
				"y": 0.5213951397,
				"z": 3.2932038692,
				"element": "C" 
			},
			{
				"x": -1.1016552171,
				"y": -0.4306044394,
				"z": 2.8381329098,
				"element": "C" 
			},
			{
				"x": 0.9324641667,
				"y": 2.109893559,
				"z": 0.1008121573,
				"element": "N" 
			},
			{
				"x": 1.8785057946,
				"y": 3.1139617732,
				"z": 0.4401968461,
				"element": "C" 
			},
			{
				"x": 2.2660945479,
				"y": 3.418551221,
				"z": 1.5482480044,
				"element": "O" 
			},
			{
				"x": 2.3239950664,
				"y": 3.7454501632,
				"z": -0.8403031311,
				"element": "C" 
			},
			{
				"x": 1.6901812008,
				"y": 3.159427889,
				"z": -1.8546201177,
				"element": "C" 
			},
			{
				"x": 0.7830681904,
				"y": 2.1011338908,
				"z": -1.3126067832,
				"element": "C" 
			},
			{
				"x": 0.0640211759,
				"y": 1.3822711266,
				"z": -1.9728449079,
				"element": "O" 
			},
			{
				"x": -0.863239512,
				"y": 0.1981131859,
				"z": -0.4987286672,
				"element": "H" 
			},
			{
				"x": 1.1816204075,
				"y": 2.0894453379,
				"z": 2.7815280421,
				"element": "H" 
			},
			{
				"x": 0.0032316835,
				"y": 0.6188916847,
				"z": 4.3568513406,
				"element": "H" 
			},
			{
				"x": -1.6242316528,
				"y": -1.0817194023,
				"z": 3.528627719,
				"element": "H" 
			},
			{
				"x": 3.051228346,
				"y": 4.5462575899,
				"z": -0.8426612464,
				"element": "H" 
			},
			{
				"x": 1.7541322735,
				"y": 3.3469490037,
				"z": -2.9180646102,
				"element": "H" 
			}
		],
		 "valence_orbital": [ 
			{
				"type": "occ",
				"energy": -0.32365,
				"method": "rhf"
			},
			{
				"type": "occ",
				"energy": -0.30784,
				"method": "rhf"
			},
			{
				"type": "occ",
				"energy": -0.28517,
				"method": "rhf"
			},
			{
				"type": "occ",
				"energy": -0.26753,
				"method": "rhf"
			},
			{
				"type": "occ",
				"energy": -0.24736,
				"method": "rhf"
			},
			{
				"type": "unocc",
				"energy": -0.11197,
				"method": "rhf"
			},
			{
				"type": "unocc",
				"energy": -0.02926,
				"method": "rhf"
			},
			{
				"type": "unocc",
				"energy": -0.02353,
				"method": "rhf"
			},
			{
				"type": "unocc",
				"energy": 0.04946,
				"method": "rhf"
			},
			{
				"type": "unocc",
				"energy": 0.05101,
				"method": "rhf"
			}
		],
		"cosmo_sigma_profile": { 
			"-0.025": 0.0,
			"-0.024": 0.0,
			"-0.023": 0.0,
			"-0.022": 0.0,
			"-0.021": 0.0,
			"-0.02": 0.0,
			"-0.019": 0.0,
			"-0.018": 0.0,
			"-0.017": 0.0,
			"-0.016": 0.0,
			"-0.015": 0.0,
			"-0.014": 0.0,
			"-0.013": 0.0,
			"-0.012": 0.0,
			"-0.011": 0.253443042486,
			"-0.01": 3.3133822604,
			"-0.009": 3.15432916469,
			"-0.008": 3.84665991419,
			"-0.007": 6.65566407657,
			"-0.006": 10.9655861179,
			"-0.005": 13.218311802,
			"-0.004": 13.4851135759,
			"-0.003": 16.1694535551,
			"-0.002": 16.878310963,
			"-0.001": 14.9521691946,
			"0.0": 17.9684442864,
			"0.001": 18.9885811579,
			"0.002": 30.0206659469,
			"0.003": 40.9466326279,
			"0.004": 6.38636897068,
			"0.005": 2.16187051006,
			"0.006": 2.24073298944,
			"0.007": 3.94844843088,
			"0.008": 3.81795864811,
			"0.009": 4.88454092923,
			"0.01": 4.67468399109,
			"0.011": 1.87796022946,
			"0.012": 0.0114981901353,
			"0.013": 0.0,
			"0.014": 0.0,
			"0.015": 0.0,
			"0.016": 0.0,
			"0.017": 0.0,
			"0.018": 0.0,
			"0.019": 0.0,
			"0.02": 0.0,
			"0.021": 0.0,
			"0.022": 0.0,
			"0.023": 0.0,
			"0.024": 0.0,
			"0.025": 0.0
		}
	}
}
