{
	 "smiles": "COC1=C(OC(F)F)C=CC(=C1)C(=O)CBr", 
	 "Tm": 318.65, 
	 "num_atms": 25, 
	 "gaussian": { 
		 "optdone": 1, 
		 "sigma_profile": "yes", 
		 "theory": "DFT", 
		 "functional": "B3LYP", 
		 "basiset": "6-31G**", 
		 "properties": { 
			 "R2extent": 6521.2572, 
			 "electric_dipole_moment_norm": 3.87024730088, 
			 "electric_quadrupole_moment_norm": 14.482412279, 
			 "total_energy": -3383.21701387, 
			 "HOMO_LUMO_gap": 0.16175, 
			 "cosmo_polarized_energy": -12.18, 
			 "cosmo_cavitation_energy": 33.05, 
			 "cosmo_dispersion_energy": -23.1, 
			 "cosmo_repulsion_energy": 1.78, 
			 "cosmo_total_nonelectrostatic_energy": 11.74, 
			 "SMD_solvation_energy": 7.16 
		},
		"coords": [
			{
				"x": 0.1127227398,
				"y": -0.8736415519,
				"z": -3.3665646408,
				"element": "C" 
			},
			{
				"x": 0.6469046356,
				"y": 0.3497634901,
				"z": -2.8728082995,
				"element": "O" 
			},
			{
				"x": 1.1609752935,
				"y": 0.3666543163,
				"z": -1.6108909562,
				"element": "C" 
			},
			{
				"x": 1.6989569035,
				"y": 1.5979031545,
				"z": -1.1775567789,
				"element": "C" 
			},
			{
				"x": 1.7709580432,
				"y": 2.6775521336,
				"z": -2.0396811591,
				"element": "O" 
			},
			{
				"x": 0.5782367524,
				"y": 3.2883180506,
				"z": -2.3805793332,
				"element": "C" 
			},
			{
				"x": 0.8748323956,
				"y": 4.176897852,
				"z": -3.3442181582,
				"element": "F" 
			},
			{
				"x": 0.0873622312,
				"y": 3.9728272843,
				"z": -1.3112341868,
				"element": "F" 
			},
			{
				"x": 2.24362948,
				"y": 1.722944202,
				"z": 0.09529733,
				"element": "C" 
			},
			{
				"x": 2.2656939373,
				"y": 0.6316507672,
				"z": 0.9587164479,
				"element": "C" 
			},
			{
				"x": 1.7367082938,
				"y": -0.5971665296,
				"z": 0.5456996215,
				"element": "C" 
			},
			{
				"x": 1.1843207493,
				"y": -0.7238010173,
				"z": -0.7418120628,
				"element": "C" 
			},
			{
				"x": 1.810667986,
				"y": -1.7400209641,
				"z": 1.5022856466,
				"element": "C" 
			},
			{
				"x": 2.2703786714,
				"y": -1.607857256,
				"z": 2.6252865401,
				"element": "O" 
			},
			{
				"x": 1.3621820492,
				"y": -3.1343851543,
				"z": 1.068264071,
				"element": "C" 
			},
			{
				"x": -0.6123167616,
				"y": -3.2687693481,
				"z": 0.9657141015,
				"element": "Br" 
			},
			{
				"x": -0.2271427027,
				"y": -0.6621829492,
				"z": -4.3808026736,
				"element": "H" 
			},
			{
				"x": -0.7350042477,
				"y": -1.2163949644,
				"z": -2.7611044932,
				"element": "H" 
			},
			{
				"x": 0.8781700466,
				"y": -1.6585294389,
				"z": -3.3973051039,
				"element": "H" 
			},
			{
				"x": -0.1834219886,
				"y": 2.5873049616,
				"z": -2.7308851956,
				"element": "H" 
			},
			{
				"x": 2.6488877028,
				"y": 2.6862676569,
				"z": 0.3850468986,
				"element": "H" 
			},
			{
				"x": 2.6869504582,
				"y": 0.7100612423,
				"z": 1.9541044686,
				"element": "H" 
			},
			{
				"x": 0.7501521474,
				"y": -1.6637420493,
				"z": -1.0546802924,
				"element": "H" 
			},
			{
				"x": 1.7355649147,
				"y": -3.419689279,
				"z": 0.0848635569,
				"element": "H" 
			},
			{
				"x": 1.6720302691,
				"y": -3.8481646092,
				"z": 1.8270446518,
				"element": "H" 
			}
		],
		 "valence_orbital": [ 
			{
				"type": "occ",
				"energy": -0.30102,
				"method": "rhf"
			},
			{
				"type": "occ",
				"energy": -0.29244,
				"method": "rhf"
			},
			{
				"type": "occ",
				"energy": -0.26959,
				"method": "rhf"
			},
			{
				"type": "occ",
				"energy": -0.26452,
				"method": "rhf"
			},
			{
				"type": "occ",
				"energy": -0.24249,
				"method": "rhf"
			},
			{
				"type": "unocc",
				"energy": -0.08074,
				"method": "rhf"
			},
			{
				"type": "unocc",
				"energy": -0.02149,
				"method": "rhf"
			},
			{
				"type": "unocc",
				"energy": -0.01291,
				"method": "rhf"
			},
			{
				"type": "unocc",
				"energy": 0.0402,
				"method": "rhf"
			},
			{
				"type": "unocc",
				"energy": 0.0718,
				"method": "rhf"
			}
		],
		"cosmo_sigma_profile": { 
			"-0.025": 0.0,
			"-0.024": 0.0,
			"-0.023": 0.0,
			"-0.022": 0.0,
			"-0.021": 0.0,
			"-0.02": 0.0,
			"-0.019": 0.0,
			"-0.018": 0.0,
			"-0.017": 0.0,
			"-0.016": 0.0,
			"-0.015": 0.0,
			"-0.014": 0.0,
			"-0.013": 0.0,
			"-0.012": 0.0,
			"-0.011": 0.00113809185201,
			"-0.01": 1.22770718137,
			"-0.009": 4.26825983984,
			"-0.008": 7.05438146308,
			"-0.007": 9.3009760166,
			"-0.006": 16.8058040091,
			"-0.005": 19.2876110655,
			"-0.004": 16.751916705,
			"-0.003": 12.9152748609,
			"-0.002": 13.1405274259,
			"-0.001": 13.2960712419,
			"0.0": 16.9671994141,
			"0.001": 21.8395767631,
			"0.002": 24.8805082136,
			"0.003": 27.1756231849,
			"0.004": 28.3027096419,
			"0.005": 11.7865737532,
			"0.006": 5.18283530351,
			"0.007": 3.76483428104,
			"0.008": 3.84257746175,
			"0.009": 2.11506577197,
			"0.01": 2.99315663217,
			"0.011": 3.82373492693,
			"0.012": 0.734275764683,
			"0.013": 0.0,
			"0.014": 0.0,
			"0.015": 0.0,
			"0.016": 0.0,
			"0.017": 0.0,
			"0.018": 0.0,
			"0.019": 0.0,
			"0.02": 0.0,
			"0.021": 0.0,
			"0.022": 0.0,
			"0.023": 0.0,
			"0.024": 0.0,
			"0.025": 0.0
		}
	}
}
