{
	 "smiles": "FC(F)S(=O)(=O)C1=CC=C(C=C1)S(Cl)(=O)=O", 
	 "Tm": 413.15, 
	 "num_atms": 21, 
	 "gaussian": { 
		 "optdone": 1, 
		 "sigma_profile": "yes", 
		 "theory": "DFT", 
		 "functional": "B3LYP", 
		 "basiset": "6-31G**", 
		 "properties": { 
			 "R2extent": 8797.3447, 
			 "electric_dipole_moment_norm": 2.22406387273, 
			 "electric_quadrupole_moment_norm": 25.2953919732, 
			 "total_energy": -2026.73164113, 
			 "HOMO_LUMO_gap": 0.20069, 
			 "cosmo_polarized_energy": -17.28, 
			 "cosmo_cavitation_energy": 32.16, 
			 "cosmo_dispersion_energy": -23.67, 
			 "cosmo_repulsion_energy": 1.72, 
			 "cosmo_total_nonelectrostatic_energy": 10.22, 
			 "SMD_solvation_energy": 4.43 
		},
		"coords": [
			{
				"x": -2.2188600303,
				"y": -0.6777512518,
				"z": 1.158661706,
				"element": "F" 
			},
			{
				"x": -3.1759292367,
				"y": 0.255128441,
				"z": 0.9678530681,
				"element": "C" 
			},
			{
				"x": -3.7392494073,
				"y": 0.5758483352,
				"z": 2.1422294019,
				"element": "F" 
			},
			{
				"x": -2.359011444,
				"y": 1.8097828736,
				"z": 0.3172883309,
				"element": "S" 
			},
			{
				"x": -1.4007850464,
				"y": 2.2597379134,
				"z": 1.3297163201,
				"element": "O" 
			},
			{
				"x": -3.4488951759,
				"y": 2.6572262674,
				"z": -0.1815567979,
				"element": "O" 
			},
			{
				"x": -1.4367153751,
				"y": 1.1889080166,
				"z": -1.1017281004,
				"element": "C" 
			},
			{
				"x": -0.1797211284,
				"y": 0.6140848788,
				"z": -0.8956392487,
				"element": "C" 
			},
			{
				"x": 0.5340692832,
				"y": 0.142118357,
				"z": -1.9950528342,
				"element": "C" 
			},
			{
				"x": -0.0370585842,
				"y": 0.2688337729,
				"z": -3.2624547843,
				"element": "C" 
			},
			{
				"x": -1.2880024824,
				"y": 0.8467699152,
				"z": -3.477055446,
				"element": "C" 
			},
			{
				"x": -1.9999846231,
				"y": 1.3148150203,
				"z": -2.3729393135,
				"element": "C" 
			},
			{
				"x": 0.8685631317,
				"y": -0.3639729059,
				"z": -4.6787632045,
				"element": "S" 
			},
			{
				"x": 1.9926415121,
				"y": 1.3493087778,
				"z": -5.2337363192,
				"element": "Cl" 
			},
			{
				"x": -0.0691651776,
				"y": -0.6163683002,
				"z": -5.7643300631,
				"element": "O" 
			},
			{
				"x": 1.826876631,
				"y": -1.3602888522,
				"z": -4.2203470646,
				"element": "O" 
			},
			{
				"x": -3.928359496,
				"y": -0.0980231821,
				"z": 0.254271631,
				"element": "H" 
			},
			{
				"x": 0.2332130861,
				"y": 0.5496212266,
				"z": 0.1046470616,
				"element": "H" 
			},
			{
				"x": 1.5082661248,
				"y": -0.3183817633,
				"z": -1.876336785,
				"element": "H" 
			},
			{
				"x": -1.6927981444,
				"y": 0.9221484766,
				"z": -4.4798971876,
				"element": "H" 
			},
			{
				"x": -2.9694944171,
				"y": 1.7864539831,
				"z": -2.4908303706,
				"element": "H" 
			}
		],
		 "valence_orbital": [ 
			{
				"type": "occ",
				"energy": -0.33529,
				"method": "rhf"
			},
			{
				"type": "occ",
				"energy": -0.32957,
				"method": "rhf"
			},
			{
				"type": "occ",
				"energy": -0.32009,
				"method": "rhf"
			},
			{
				"type": "occ",
				"energy": -0.31489,
				"method": "rhf"
			},
			{
				"type": "occ",
				"energy": -0.31384,
				"method": "rhf"
			},
			{
				"type": "unocc",
				"energy": -0.11315,
				"method": "rhf"
			},
			{
				"type": "unocc",
				"energy": -0.07807,
				"method": "rhf"
			},
			{
				"type": "unocc",
				"energy": -0.06486,
				"method": "rhf"
			},
			{
				"type": "unocc",
				"energy": 0.01545,
				"method": "rhf"
			},
			{
				"type": "unocc",
				"energy": 0.02336,
				"method": "rhf"
			}
		],
		"cosmo_sigma_profile": { 
			"-0.025": 0.0,
			"-0.024": 0.0,
			"-0.023": 0.0,
			"-0.022": 0.0,
			"-0.021": 0.0,
			"-0.02": 0.0,
			"-0.019": 0.0,
			"-0.018": 0.0,
			"-0.017": 0.0,
			"-0.016": 0.0,
			"-0.015": 0.0,
			"-0.014": 0.24947832504,
			"-0.013": 2.17170679672,
			"-0.012": 3.4037381929,
			"-0.011": 2.13037728079,
			"-0.01": 3.99011857879,
			"-0.009": 8.38186309092,
			"-0.008": 7.84479335299,
			"-0.007": 9.19509121286,
			"-0.006": 7.48158538979,
			"-0.005": 9.03772321741,
			"-0.004": 10.5122995338,
			"-0.003": 14.2156925763,
			"-0.002": 21.1070447445,
			"-0.001": 21.424471808,
			"0.0": 15.4199629599,
			"0.001": 18.1193511499,
			"0.002": 30.1068841303,
			"0.003": 16.3357330316,
			"0.004": 6.46176876072,
			"0.005": 6.20486237241,
			"0.006": 6.13510738682,
			"0.007": 10.9825052903,
			"0.008": 12.1958634214,
			"0.009": 9.8693109045,
			"0.01": 7.70788281975,
			"0.011": 1.22000023272,
			"0.012": 0.0,
			"0.013": 0.0,
			"0.014": 0.0,
			"0.015": 0.0,
			"0.016": 0.0,
			"0.017": 0.0,
			"0.018": 0.0,
			"0.019": 0.0,
			"0.02": 0.0,
			"0.021": 0.0,
			"0.022": 0.0,
			"0.023": 0.0,
			"0.024": 0.0,
			"0.025": 0.0
		}
	}
}
