{
	 "smiles": "NCC(O)COC1=CC2=C(OCO2)C=C1", 
	 "Tm": 381.15, 
	 "num_atms": 28, 
	 "gaussian": { 
		 "optdone": 1, 
		 "sigma_profile": "yes", 
		 "theory": "DFT", 
		 "functional": "B3LYP", 
		 "basiset": "6-31G**", 
		 "properties": { 
			 "R2extent": 4668.9224, 
			 "electric_dipole_moment_norm": 1.52880630559, 
			 "electric_quadrupole_moment_norm": 14.3826221107, 
			 "total_energy": -744.494464168, 
			 "HOMO_LUMO_gap": 0.19601, 
			 "cosmo_polarized_energy": -13.03, 
			 "cosmo_cavitation_energy": 31.36, 
			 "cosmo_dispersion_energy": -23.3, 
			 "cosmo_repulsion_energy": 1.86, 
			 "cosmo_total_nonelectrostatic_energy": 9.93, 
			 "SMD_solvation_energy": 5.14 
		},
		"coords": [
			{
				"x": 0.2268728229,
				"y": -3.6399488771,
				"z": 2.6735773648,
				"element": "N" 
			},
			{
				"x": 1.2895549183,
				"y": -3.3457387308,
				"z": 1.7063563949,
				"element": "C" 
			},
			{
				"x": 0.7306388072,
				"y": -3.3490600209,
				"z": 0.2729530044,
				"element": "C" 
			},
			{
				"x": 1.7784863343,
				"y": -3.2738340832,
				"z": -0.6820665433,
				"element": "O" 
			},
			{
				"x": -0.2909353967,
				"y": -2.2367089044,
				"z": 0.0457243303,
				"element": "C" 
			},
			{
				"x": 0.4464646293,
				"y": -1.0104189901,
				"z": 0.0692198986,
				"element": "O" 
			},
			{
				"x": -0.21429621,
				"y": 0.1698951048,
				"z": -0.1498112591,
				"element": "C" 
			},
			{
				"x": 0.6120322287,
				"y": 1.3163499246,
				"z": -0.1537118256,
				"element": "C" 
			},
			{
				"x": -0.0074561146,
				"y": 2.527355106,
				"z": -0.3674549073,
				"element": "C" 
			},
			{
				"x": -1.3822113535,
				"y": 2.6366475781,
				"z": -0.5728422451,
				"element": "C" 
			},
			{
				"x": -1.7198953474,
				"y": 3.9605361316,
				"z": -0.7599276819,
				"element": "O" 
			},
			{
				"x": -0.4980972938,
				"y": 4.6967677893,
				"z": -0.663397018,
				"element": "C" 
			},
			{
				"x": 0.5699778849,
				"y": 3.7710052054,
				"z": -0.4169685852,
				"element": "O" 
			},
			{
				"x": -2.1970643195,
				"y": 1.5271447423,
				"z": -0.5706560683,
				"element": "C" 
			},
			{
				"x": -1.5925922297,
				"y": 0.2705674124,
				"z": -0.3537445041,
				"element": "C" 
			},
			{
				"x": 0.0274424877,
				"y": -4.6374726026,
				"z": 2.6824949403,
				"element": "H" 
			},
			{
				"x": 0.5276826419,
				"y": -3.3998029814,
				"z": 3.6134465909,
				"element": "H" 
			},
			{
				"x": 1.6837999725,
				"y": -2.3464085076,
				"z": 1.9211928916,
				"element": "H" 
			},
			{
				"x": 2.1409393675,
				"y": -4.0438037844,
				"z": 1.7285816289,
				"element": "H" 
			},
			{
				"x": 0.2209809607,
				"y": -4.3063571011,
				"z": 0.0979527,
				"element": "H" 
			},
			{
				"x": 2.0318985769,
				"y": -2.3401097452,
				"z": -0.7234430332,
				"element": "H" 
			},
			{
				"x": -1.0447563982,
				"y": -2.2521307727,
				"z": 0.8407719436,
				"element": "H" 
			},
			{
				"x": -0.7743484898,
				"y": -2.3579910303,
				"z": -0.9323453626,
				"element": "H" 
			},
			{
				"x": 1.6794654165,
				"y": 1.2269564966,
				"z": 0.0067289371,
				"element": "H" 
			},
			{
				"x": -0.3098178273,
				"y": 5.2244607243,
				"z": -1.6070235805,
				"element": "H" 
			},
			{
				"x": -0.5608047942,
				"y": 5.4079969522,
				"z": 0.1700962112,
				"element": "H" 
			},
			{
				"x": -3.2661346002,
				"y": 1.6120165875,
				"z": -0.7291032895,
				"element": "H" 
			},
			{
				"x": -2.2166266744,
				"y": -0.6135136231,
				"z": -0.3436009326,
				"element": "H" 
			}
		],
		 "valence_orbital": [ 
			{
				"type": "occ",
				"energy": -0.28459,
				"method": "rhf"
			},
			{
				"type": "occ",
				"energy": -0.26685,
				"method": "rhf"
			},
			{
				"type": "occ",
				"energy": -0.23819,
				"method": "rhf"
			},
			{
				"type": "occ",
				"energy": -0.23544,
				"method": "rhf"
			},
			{
				"type": "occ",
				"energy": -0.19429,
				"method": "rhf"
			},
			{
				"type": "unocc",
				"energy": 0.00172,
				"method": "rhf"
			},
			{
				"type": "unocc",
				"energy": 0.02601,
				"method": "rhf"
			},
			{
				"type": "unocc",
				"energy": 0.07795,
				"method": "rhf"
			},
			{
				"type": "unocc",
				"energy": 0.08814,
				"method": "rhf"
			},
			{
				"type": "unocc",
				"energy": 0.09882,
				"method": "rhf"
			}
		],
		"cosmo_sigma_profile": { 
			"-0.025": 0.0,
			"-0.024": 0.0,
			"-0.023": 0.0,
			"-0.022": 0.0,
			"-0.021": 0.0,
			"-0.02": 0.0,
			"-0.019": 0.0,
			"-0.018": 0.0,
			"-0.017": 0.0,
			"-0.016": 0.0,
			"-0.015": 0.0,
			"-0.014": 0.0,
			"-0.013": 0.0468160169591,
			"-0.012": 0.378413632173,
			"-0.011": 0.67283672674,
			"-0.01": 2.43111872226,
			"-0.009": 3.28887383653,
			"-0.008": 4.56918907802,
			"-0.007": 13.5756508985,
			"-0.006": 15.5938680826,
			"-0.005": 19.2524089212,
			"-0.004": 18.5893126345,
			"-0.003": 15.1231715731,
			"-0.002": 16.6478836195,
			"-0.001": 14.8636808033,
			"0.0": 13.8702425014,
			"0.001": 11.2541040618,
			"0.002": 14.2265537559,
			"0.003": 18.2605192434,
			"0.004": 17.6730111434,
			"0.005": 11.0591893319,
			"0.006": 6.64174594858,
			"0.007": 3.50305872704,
			"0.008": 5.15152042235,
			"0.009": 5.55082889151,
			"0.01": 3.96240805438,
			"0.011": 1.8777709474,
			"0.012": 1.97633366759,
			"0.013": 2.58170101236,
			"0.014": 2.5277063569,
			"0.015": 1.27100290276,
			"0.016": 0.409532832379,
			"0.017": 0.0498603146605,
			"0.018": 0.0,
			"0.019": 0.0,
			"0.02": 0.0,
			"0.021": 0.0,
			"0.022": 0.0,
			"0.023": 0.0,
			"0.024": 0.0,
			"0.025": 0.0
		}
	}
}
