{
	 "smiles": "CNS(=O)(=O)C1=CC=C(C)C=C1", 
	 "Tm": 351.65, 
	 "num_atms": 23, 
	 "gaussian": { 
		 "optdone": 1, 
		 "sigma_profile": "yes", 
		 "theory": "DFT", 
		 "functional": "B3LYP", 
		 "basiset": "6-31G**", 
		 "properties": { 
			 "R2extent": 3002.6646, 
			 "electric_dipole_moment_norm": 6.25849591036, 
			 "electric_quadrupole_moment_norm": 15.900929692, 
			 "total_energy": -914.80294463, 
			 "HOMO_LUMO_gap": 0.22005, 
			 "cosmo_polarized_energy": -15.74, 
			 "cosmo_cavitation_energy": 27.7, 
			 "cosmo_dispersion_energy": -20.49, 
			 "cosmo_repulsion_energy": 1.59, 
			 "cosmo_total_nonelectrostatic_energy": 8.8, 
			 "SMD_solvation_energy": 3.77 
		},
		"coords": [
			{
				"x": -0.655813659,
				"y": -1.89058986,
				"z": -3.539086125,
				"element": "C" 
			},
			{
				"x": 0.6566731205,
				"y": -1.6959028561,
				"z": -2.9226368559,
				"element": "N" 
			},
			{
				"x": 0.8365889227,
				"y": -1.9793428428,
				"z": -1.2753206851,
				"element": "S" 
			},
			{
				"x": 0.240842542,
				"y": -3.2916049897,
				"z": -1.01951863,
				"element": "O" 
			},
			{
				"x": 2.2382610519,
				"y": -1.6715670333,
				"z": -0.9876671612,
				"element": "O" 
			},
			{
				"x": -0.1702906558,
				"y": -0.7601586751,
				"z": -0.4215977099,
				"element": "C" 
			},
			{
				"x": -1.496845072,
				"y": -1.0563543326,
				"z": -0.1019581028,
				"element": "C" 
			},
			{
				"x": -2.2760131001,
				"y": -0.0906406175,
				"z": 0.5347850706,
				"element": "C" 
			},
			{
				"x": -1.7508637838,
				"y": 1.1675519187,
				"z": 0.8591831607,
				"element": "C" 
			},
			{
				"x": -2.6067169001,
				"y": 2.2172623797,
				"z": 1.5262004624,
				"element": "C" 
			},
			{
				"x": -0.4105452817,
				"y": 1.4341264327,
				"z": 0.5389545301,
				"element": "C" 
			},
			{
				"x": 0.381643821,
				"y": 0.4826125698,
				"z": -0.0982179719,
				"element": "C" 
			},
			{
				"x": -1.4082607751,
				"y": -1.1551926005,
				"z": -3.2207733647,
				"element": "H" 
			},
			{
				"x": -0.5350747775,
				"y": -1.8264314915,
				"z": -4.623293991,
				"element": "H" 
			},
			{
				"x": -1.0078877192,
				"y": -2.8932945786,
				"z": -3.292053106,
				"element": "H" 
			},
			{
				"x": 1.1430346521,
				"y": -0.8449033946,
				"z": -3.1877678889,
				"element": "H" 
			},
			{
				"x": -1.8970335637,
				"y": -2.0398156925,
				"z": -0.3230983373,
				"element": "H" 
			},
			{
				"x": -3.3056477927,
				"y": -0.3230558453,
				"z": 0.7936844291,
				"element": "H" 
			},
			{
				"x": -2.0260721402,
				"y": 2.8154023817,
				"z": 2.2348665584,
				"element": "H" 
			},
			{
				"x": -3.0269646996,
				"y": 2.9092749028,
				"z": 0.7857355022,
				"element": "H" 
			},
			{
				"x": -3.4446692904,
				"y": 1.7675651632,
				"z": 2.0659246335,
				"element": "H" 
			},
			{
				"x": 0.0206713676,
				"y": 2.3963501007,
				"z": 0.8029173832,
				"element": "H" 
			},
			{
				"x": 1.4249837331,
				"y": 0.6824089607,
				"z": -0.3188618004,
				"element": "H" 
			}
		],
		 "valence_orbital": [ 
			{
				"type": "occ",
				"energy": -0.30177,
				"method": "rhf"
			},
			{
				"type": "occ",
				"energy": -0.29853,
				"method": "rhf"
			},
			{
				"type": "occ",
				"energy": -0.28232,
				"method": "rhf"
			},
			{
				"type": "occ",
				"energy": -0.26971,
				"method": "rhf"
			},
			{
				"type": "occ",
				"energy": -0.2556,
				"method": "rhf"
			},
			{
				"type": "unocc",
				"energy": -0.03555,
				"method": "rhf"
			},
			{
				"type": "unocc",
				"energy": -0.02153,
				"method": "rhf"
			},
			{
				"type": "unocc",
				"energy": 0.06146,
				"method": "rhf"
			},
			{
				"type": "unocc",
				"energy": 0.08051,
				"method": "rhf"
			},
			{
				"type": "unocc",
				"energy": 0.08882,
				"method": "rhf"
			}
		],
		"cosmo_sigma_profile": { 
			"-0.025": 0.0,
			"-0.024": 0.0,
			"-0.023": 0.0,
			"-0.022": 0.0,
			"-0.021": 0.0,
			"-0.02": 0.0,
			"-0.019": 0.0,
			"-0.018": 0.0,
			"-0.017": 0.0,
			"-0.016": 0.0,
			"-0.015": 0.67203679107,
			"-0.014": 1.24046191491,
			"-0.013": 0.973282813273,
			"-0.012": 1.16185387126,
			"-0.011": 1.55568494346,
			"-0.01": 0.991059108831,
			"-0.009": 1.08855059249,
			"-0.008": 1.04261766623,
			"-0.007": 4.3552957522,
			"-0.006": 11.5155864812,
			"-0.005": 17.8560240391,
			"-0.004": 20.0795116577,
			"-0.003": 21.0516079026,
			"-0.002": 21.3946576555,
			"-0.001": 15.8882577146,
			"0.0": 13.3674547014,
			"0.001": 10.6148058786,
			"0.002": 11.4139939957,
			"0.003": 13.1386167871,
			"0.004": 8.35133186202,
			"0.005": 3.16279035486,
			"0.006": 3.49163861374,
			"0.007": 4.390677861,
			"0.008": 4.56109093035,
			"0.009": 3.88644542525,
			"0.01": 6.96441434887,
			"0.011": 9.33115077312,
			"0.012": 5.9564904744,
			"0.013": 0.0557515893761,
			"0.014": 0.0,
			"0.015": 0.0,
			"0.016": 0.0,
			"0.017": 0.0,
			"0.018": 0.0,
			"0.019": 0.0,
			"0.02": 0.0,
			"0.021": 0.0,
			"0.022": 0.0,
			"0.023": 0.0,
			"0.024": 0.0,
			"0.025": 0.0
		}
	}
}
