{
	 "smiles": "CC1=CC=C(C=C1)S(=O)(=O)OC1CCCC1C1=CC=CC=C1", 
	 "Tm": 339.15, 
	 "num_atms": 42, 
	 "gaussian": { 
		 "optdone": 1, 
		 "sigma_profile": "yes", 
		 "theory": "DFT", 
		 "functional": "B3LYP", 
		 "basiset": "6-31G**", 
		 "properties": { 
			 "R2extent": 9059.5179, 
			 "electric_dipole_moment_norm": 5.6469261612, 
			 "electric_quadrupole_moment_norm": 19.608158925, 
			 "total_energy": -1321.76920182, 
			 "HOMO_LUMO_gap": 0.19299, 
			 "cosmo_polarized_energy": -15.56, 
			 "cosmo_cavitation_energy": 45.01, 
			 "cosmo_dispersion_energy": -31.01, 
			 "cosmo_repulsion_energy": 2.36, 
			 "cosmo_total_nonelectrostatic_energy": 16.36, 
			 "SMD_solvation_energy": 6.06 
		},
		"coords": [
			{
				"x": 4.0278315619,
				"y": -3.0059121843,
				"z": 3.7527041627,
				"element": "C" 
			},
			{
				"x": 2.743005562,
				"y": -2.6564173804,
				"z": 3.0414887252,
				"element": "C" 
			},
			{
				"x": 2.017332166,
				"y": -1.5087138611,
				"z": 3.3830559466,
				"element": "C" 
			},
			{
				"x": 0.817249229,
				"y": -1.1957314619,
				"z": 2.7428303892,
				"element": "C" 
			},
			{
				"x": 0.341534743,
				"y": -2.0444309864,
				"z": 1.7440696804,
				"element": "C" 
			},
			{
				"x": 1.0415276773,
				"y": -3.2006822624,
				"z": 1.385522608,
				"element": "C" 
			},
			{
				"x": 2.2357792733,
				"y": -3.4948817632,
				"z": 2.034413576,
				"element": "C" 
			},
			{
				"x": -1.1917065295,
				"y": -1.6578866308,
				"z": 0.9094789727,
				"element": "S" 
			},
			{
				"x": -1.8178884395,
				"y": -0.5322452768,
				"z": 1.6030638159,
				"element": "O" 
			},
			{
				"x": -1.9077311211,
				"y": -2.8947905797,
				"z": 0.6350497984,
				"element": "O" 
			},
			{
				"x": -0.6676349981,
				"y": -1.161851447,
				"z": -0.5648221329,
				"element": "O" 
			},
			{
				"x": -0.2227658292,
				"y": 0.2118256916,
				"z": -0.71413473,
				"element": "C" 
			},
			{
				"x": 0.7885764844,
				"y": 0.2848314022,
				"z": -1.8840529946,
				"element": "C" 
			},
			{
				"x": 0.4461306539,
				"y": 1.590199311,
				"z": -2.6469930814,
				"element": "C" 
			},
			{
				"x": -0.5213561882,
				"y": 2.3529211481,
				"z": -1.7184090601,
				"element": "C" 
			},
			{
				"x": -1.3427336843,
				"y": 1.2433850277,
				"z": -1.0072921198,
				"element": "C" 
			},
			{
				"x": -2.5278158242,
				"y": 0.7706740808,
				"z": -1.8361865409,
				"element": "C" 
			},
			{
				"x": -3.7786926355,
				"y": 1.3569323315,
				"z": -1.5876079519,
				"element": "C" 
			},
			{
				"x": -4.8999288916,
				"y": 1.0271274582,
				"z": -2.3478945141,
				"element": "C" 
			},
			{
				"x": -4.7951848984,
				"y": 0.0904379113,
				"z": -3.3772034246,
				"element": "C" 
			},
			{
				"x": -3.5626302411,
				"y": -0.5114501214,
				"z": -3.6297339973,
				"element": "C" 
			},
			{
				"x": -2.4415066638,
				"y": -0.1758564739,
				"z": -2.8681340156,
				"element": "C" 
			},
			{
				"x": 3.8714645009,
				"y": -3.8273769361,
				"z": 4.4623232631,
				"element": "H" 
			},
			{
				"x": 4.4199656979,
				"y": -2.1542705858,
				"z": 4.3147785346,
				"element": "H" 
			},
			{
				"x": 4.7982434759,
				"y": -3.332593686,
				"z": 3.0468553621,
				"element": "H" 
			},
			{
				"x": 2.3912227974,
				"y": -0.851816301,
				"z": 4.1637468234,
				"element": "H" 
			},
			{
				"x": 0.2454903944,
				"y": -0.3167728943,
				"z": 3.0191789089,
				"element": "H" 
			},
			{
				"x": 0.6461668959,
				"y": -3.8588727527,
				"z": 0.6193054299,
				"element": "H" 
			},
			{
				"x": 2.7839269664,
				"y": -4.3924675102,
				"z": 1.7601572502,
				"element": "H" 
			},
			{
				"x": 0.2714634705,
				"y": 0.5132936781,
				"z": 0.2155222984,
				"element": "H" 
			},
			{
				"x": 0.6893527159,
				"y": -0.6025265417,
				"z": -2.5151772051,
				"element": "H" 
			},
			{
				"x": 1.8133311345,
				"y": 0.2852291768,
				"z": -1.5006987455,
				"element": "H" 
			},
			{
				"x": 1.3347905126,
				"y": 2.1778705119,
				"z": -2.8943305011,
				"element": "H" 
			},
			{
				"x": -0.0563186023,
				"y": 1.3541504853,
				"z": -3.590084782,
				"element": "H" 
			},
			{
				"x": -1.1585760415,
				"y": 3.0651849993,
				"z": -2.2492606457,
				"element": "H" 
			},
			{
				"x": 0.0466351828,
				"y": 2.9173374052,
				"z": -0.9673916221,
				"element": "H" 
			},
			{
				"x": -1.740331189,
				"y": 1.6105784099,
				"z": -0.0576431699,
				"element": "H" 
			},
			{
				"x": -3.8733222945,
				"y": 2.0803676147,
				"z": -0.7813706766,
				"element": "H" 
			},
			{
				"x": -5.8556970498,
				"y": 1.4957628289,
				"z": -2.1302284232,
				"element": "H" 
			},
			{
				"x": -5.666663808,
				"y": -0.1750203118,
				"z": -3.9687929929,
				"element": "H" 
			},
			{
				"x": -3.4703957122,
				"y": -1.253229477,
				"z": -4.4182493246,
				"element": "H" 
			},
			{
				"x": -1.503640454,
				"y": -0.6797120467,
				"z": -3.0711528938,
				"element": "H" 
			}
		],
		 "valence_orbital": [ 
			{
				"type": "occ",
				"energy": -0.29526,
				"method": "rhf"
			},
			{
				"type": "occ",
				"energy": -0.27174,
				"method": "rhf"
			},
			{
				"type": "occ",
				"energy": -0.26236,
				"method": "rhf"
			},
			{
				"type": "occ",
				"energy": -0.23895,
				"method": "rhf"
			},
			{
				"type": "occ",
				"energy": -0.23235,
				"method": "rhf"
			},
			{
				"type": "unocc",
				"energy": -0.03936,
				"method": "rhf"
			},
			{
				"type": "unocc",
				"energy": -0.02302,
				"method": "rhf"
			},
			{
				"type": "unocc",
				"energy": 0.00719,
				"method": "rhf"
			},
			{
				"type": "unocc",
				"energy": 0.00872,
				"method": "rhf"
			},
			{
				"type": "unocc",
				"energy": 0.04838,
				"method": "rhf"
			}
		],
		"cosmo_sigma_profile": { 
			"-0.025": 0.0,
			"-0.024": 0.0,
			"-0.023": 0.0,
			"-0.022": 0.0,
			"-0.021": 0.0,
			"-0.02": 0.0,
			"-0.019": 0.0,
			"-0.018": 0.0,
			"-0.017": 0.0,
			"-0.016": 0.0,
			"-0.015": 0.0,
			"-0.014": 0.0,
			"-0.013": 0.0,
			"-0.012": 0.0,
			"-0.011": 0.0,
			"-0.01": 0.0,
			"-0.009": 0.0,
			"-0.008": 0.404524069417,
			"-0.007": 3.96635588273,
			"-0.006": 13.1411210778,
			"-0.005": 29.7533158458,
			"-0.004": 32.6677354204,
			"-0.003": 38.8212464762,
			"-0.002": 34.1564285599,
			"-0.001": 35.0652702129,
			"0.0": 33.2656453588,
			"0.001": 22.1333372233,
			"0.002": 21.3896034059,
			"0.003": 20.8103818404,
			"0.004": 13.3357404487,
			"0.005": 11.9829180475,
			"0.006": 13.7451915557,
			"0.007": 7.06847181004,
			"0.008": 3.77895362588,
			"0.009": 6.59049884855,
			"0.01": 8.77088474162,
			"0.011": 5.32090538599,
			"0.012": 0.0404172685822,
			"0.013": 0.0,
			"0.014": 0.0,
			"0.015": 0.0,
			"0.016": 0.0,
			"0.017": 0.0,
			"0.018": 0.0,
			"0.019": 0.0,
			"0.02": 0.0,
			"0.021": 0.0,
			"0.022": 0.0,
			"0.023": 0.0,
			"0.024": 0.0,
			"0.025": 0.0
		}
	}
}
