{
	 "smiles": "ClCC1=NC(=NN1)C1=CC=CS1", 
	 "Tm": 433.15, 
	 "num_atms": 18, 
	 "gaussian": { 
		 "optdone": 1, 
		 "sigma_profile": "yes", 
		 "theory": "DFT", 
		 "functional": "B3LYP", 
		 "basiset": "6-31G**", 
		 "properties": { 
			 "R2extent": 4635.1052, 
			 "electric_dipole_moment_norm": 1.24234403448, 
			 "electric_quadrupole_moment_norm": 11.3192800588, 
			 "total_energy": -1292.97564934, 
			 "HOMO_LUMO_gap": 0.18124, 
			 "cosmo_polarized_energy": -12.57, 
			 "cosmo_cavitation_energy": 26.36, 
			 "cosmo_dispersion_energy": -20.45, 
			 "cosmo_repulsion_energy": 1.6, 
			 "cosmo_total_nonelectrostatic_energy": 7.5, 
			 "SMD_solvation_energy": 1.51 
		},
		"coords": [
			{
				"x": -0.163093821,
				"y": 5.1456025026,
				"z": -1.1603932714,
				"element": "Cl" 
			},
			{
				"x": 1.2946271837,
				"y": 4.0633527901,
				"z": -1.1866331385,
				"element": "C" 
			},
			{
				"x": 0.9776457628,
				"y": 2.6745501365,
				"z": -0.7416015758,
				"element": "C" 
			},
			{
				"x": 1.5943185328,
				"y": 1.5886380792,
				"z": -1.1703639482,
				"element": "N" 
			},
			{
				"x": 1.0155266192,
				"y": 0.5866974906,
				"z": -0.4323353704,
				"element": "C" 
			},
			{
				"x": 0.073852676,
				"y": 1.0017282047,
				"z": 0.4157378495,
				"element": "N" 
			},
			{
				"x": 0.0769635088,
				"y": 2.3414156321,
				"z": 0.2094433104,
				"element": "N" 
			},
			{
				"x": 1.3922151832,
				"y": -0.8095807736,
				"z": -0.5704792956,
				"element": "C" 
			},
			{
				"x": 0.8900406713,
				"y": -1.8991455272,
				"z": 0.1024965679,
				"element": "C" 
			},
			{
				"x": 1.4988918444,
				"y": -3.1233315992,
				"z": -0.292548604,
				"element": "C" 
			},
			{
				"x": 2.4544523098,
				"y": -2.9499717331,
				"z": -1.2589535639,
				"element": "C" 
			},
			{
				"x": 2.6295075903,
				"y": -1.2856134329,
				"z": -1.705975653,
				"element": "S" 
			},
			{
				"x": 1.6779598349,
				"y": 4.0361726227,
				"z": -2.2056507432,
				"element": "H" 
			},
			{
				"x": 2.0336866488,
				"y": 4.5366275311,
				"z": -0.5366139742,
				"element": "H" 
			},
			{
				"x": -0.5893613076,
				"y": 2.9342536941,
				"z": 0.6826877547,
				"element": "H" 
			},
			{
				"x": 0.1120055728,
				"y": -1.8107294646,
				"z": 0.8512143408,
				"element": "H" 
			},
			{
				"x": 1.237534544,
				"y": -4.0896198494,
				"z": 0.1234926865,
				"element": "H" 
			},
			{
				"x": 3.0673266458,
				"y": -3.7022463037,
				"z": -1.7361233717,
				"element": "H" 
			}
		],
		 "valence_orbital": [ 
			{
				"type": "occ",
				"energy": -0.31197,
				"method": "rhf"
			},
			{
				"type": "occ",
				"energy": -0.28753,
				"method": "rhf"
			},
			{
				"type": "occ",
				"energy": -0.28591,
				"method": "rhf"
			},
			{
				"type": "occ",
				"energy": -0.24922,
				"method": "rhf"
			},
			{
				"type": "occ",
				"energy": -0.21699,
				"method": "rhf"
			},
			{
				"type": "unocc",
				"energy": -0.03575,
				"method": "rhf"
			},
			{
				"type": "unocc",
				"energy": -0.01949,
				"method": "rhf"
			},
			{
				"type": "unocc",
				"energy": 0.02067,
				"method": "rhf"
			},
			{
				"type": "unocc",
				"energy": 0.03802,
				"method": "rhf"
			},
			{
				"type": "unocc",
				"energy": 0.04988,
				"method": "rhf"
			}
		],
		"cosmo_sigma_profile": { 
			"-0.025": 0.0,
			"-0.024": 0.0,
			"-0.023": 0.0,
			"-0.022": 0.0,
			"-0.021": 0.0,
			"-0.02": 0.0,
			"-0.019": 0.0,
			"-0.018": 0.0663757146789,
			"-0.017": 0.741556635876,
			"-0.016": 1.14220499996,
			"-0.015": 0.893024606011,
			"-0.014": 0.809724561832,
			"-0.013": 0.750644262554,
			"-0.012": 0.966086124323,
			"-0.011": 0.907758294835,
			"-0.01": 1.88529660305,
			"-0.009": 6.41903201072,
			"-0.008": 8.29474847114,
			"-0.007": 8.80584982591,
			"-0.006": 9.60689112668,
			"-0.005": 8.48919416373,
			"-0.004": 9.5561649747,
			"-0.003": 9.296092288,
			"-0.002": 9.48807121678,
			"-0.001": 11.6452129523,
			"0.0": 10.7242719647,
			"0.001": 13.1916043457,
			"0.002": 17.491528045,
			"0.003": 23.1141411202,
			"0.004": 24.1442418282,
			"0.005": 17.1365534827,
			"0.006": 4.62469688948,
			"0.007": 3.0789933853,
			"0.008": 2.66232070064,
			"0.009": 1.99252825527,
			"0.01": 1.74254468252,
			"0.011": 2.04119307051,
			"0.012": 2.62258340046,
			"0.013": 1.75456342127,
			"0.014": 0.290492586008,
			"0.015": 0.0,
			"0.016": 0.0,
			"0.017": 0.0,
			"0.018": 0.0,
			"0.019": 0.0,
			"0.02": 0.0,
			"0.021": 0.0,
			"0.022": 0.0,
			"0.023": 0.0,
			"0.024": 0.0,
			"0.025": 0.0
		}
	}
}
