{
	 "smiles": "ClS(=O)(=O)C=CC1=CC=C(Br)C=C1", 
	 "Tm": 423.15, 
	 "num_atms": 19, 
	 "gaussian": { 
		 "optdone": 1, 
		 "sigma_profile": "yes", 
		 "theory": "DFT", 
		 "functional": "B3LYP", 
		 "basiset": "6-31G**", 
		 "properties": { 
			 "R2extent": 8030.8637, 
			 "electric_dipole_moment_norm": 4.96277383023, 
			 "electric_quadrupole_moment_norm": 24.5325057752, 
			 "total_energy": -3888.61420493, 
			 "HOMO_LUMO_gap": 0.15812, 
			 "cosmo_polarized_energy": -11.95, 
			 "cosmo_cavitation_energy": 30.11, 
			 "cosmo_dispersion_energy": -22.98, 
			 "cosmo_repulsion_energy": 1.78, 
			 "cosmo_total_nonelectrostatic_energy": 8.91, 
			 "SMD_solvation_energy": 2.85 
		},
		"coords": [
			{
				"x": 5.3744811413,
				"y": -0.4389418079,
				"z": -0.4957475664,
				"element": "Cl" 
			},
			{
				"x": 3.9831630268,
				"y": -0.7142085712,
				"z": 1.1018310595,
				"element": "S" 
			},
			{
				"x": 4.3775107649,
				"y": -1.9512096781,
				"z": 1.7641353501,
				"element": "O" 
			},
			{
				"x": 3.9101319345,
				"y": 0.558710618,
				"z": 1.8099182815,
				"element": "O" 
			},
			{
				"x": 2.49805896,
				"y": -0.9964841091,
				"z": 0.1906729324,
				"element": "C" 
			},
			{
				"x": 1.5311707229,
				"y": -0.0659089596,
				"z": 0.1973913137,
				"element": "C" 
			},
			{
				"x": 0.2275874984,
				"y": -0.1485167555,
				"z": -0.457751053,
				"element": "C" 
			},
			{
				"x": -0.662324705,
				"y": 0.930626316,
				"z": -0.3126237275,
				"element": "C" 
			},
			{
				"x": -1.9186965494,
				"y": 0.9175271942,
				"z": -0.9121209786,
				"element": "C" 
			},
			{
				"x": -2.2951466867,
				"y": -0.1907148195,
				"z": -1.6692675409,
				"element": "C" 
			},
			{
				"x": -4.0091380613,
				"y": -0.2257556523,
				"z": -2.4967380786,
				"element": "Br" 
			},
			{
				"x": -1.4328598727,
				"y": -1.2792152155,
				"z": -1.8318358915,
				"element": "C" 
			},
			{
				"x": -0.1822059326,
				"y": -1.2534327318,
				"z": -1.2283583891,
				"element": "C" 
			},
			{
				"x": 2.4819838818,
				"y": -1.9596310549,
				"z": -0.3051374617,
				"element": "H" 
			},
			{
				"x": 1.7290386894,
				"y": 0.8497843984,
				"z": 0.7510046027,
				"element": "H" 
			},
			{
				"x": -0.3649255753,
				"y": 1.7923995205,
				"z": 0.2782793927,
				"element": "H" 
			},
			{
				"x": -2.5963907402,
				"y": 1.7549179486,
				"z": -0.7940262678,
				"element": "H" 
			},
			{
				"x": -1.7413666551,
				"y": -2.1326886503,
				"z": -2.4242764674,
				"element": "H" 
			},
			{
				"x": 0.4791281584,
				"y": -2.10355799,
				"z": -1.3620495103,
				"element": "H" 
			}
		],
		 "valence_orbital": [ 
			{
				"type": "occ",
				"energy": -0.31257,
				"method": "rhf"
			},
			{
				"type": "occ",
				"energy": -0.3109,
				"method": "rhf"
			},
			{
				"type": "occ",
				"energy": -0.30778,
				"method": "rhf"
			},
			{
				"type": "occ",
				"energy": -0.2923,
				"method": "rhf"
			},
			{
				"type": "occ",
				"energy": -0.2592,
				"method": "rhf"
			},
			{
				"type": "unocc",
				"energy": -0.10108,
				"method": "rhf"
			},
			{
				"type": "unocc",
				"energy": -0.06646,
				"method": "rhf"
			},
			{
				"type": "unocc",
				"energy": -0.0405,
				"method": "rhf"
			},
			{
				"type": "unocc",
				"energy": -0.0134,
				"method": "rhf"
			},
			{
				"type": "unocc",
				"energy": 0.00424,
				"method": "rhf"
			}
		],
		"cosmo_sigma_profile": { 
			"-0.025": 0.0,
			"-0.024": 0.0,
			"-0.023": 0.0,
			"-0.022": 0.0,
			"-0.021": 0.0,
			"-0.02": 0.0,
			"-0.019": 0.0,
			"-0.018": 0.0,
			"-0.017": 0.0,
			"-0.016": 0.0,
			"-0.015": 0.0,
			"-0.014": 0.0,
			"-0.013": 0.0,
			"-0.012": 0.721828784399,
			"-0.011": 3.29990662569,
			"-0.01": 2.65290280449,
			"-0.009": 4.39937728954,
			"-0.008": 7.41812558182,
			"-0.007": 9.76370071614,
			"-0.006": 8.74269121252,
			"-0.005": 9.34174811104,
			"-0.004": 11.7075528726,
			"-0.003": 11.8549093842,
			"-0.002": 13.0650210704,
			"-0.001": 17.5691652755,
			"0.0": 21.4954014472,
			"0.001": 26.2525927003,
			"0.002": 26.1188670175,
			"0.003": 21.0624108815,
			"0.004": 23.2388326763,
			"0.005": 3.89195668298,
			"0.006": 2.82479536154,
			"0.007": 4.70132665878,
			"0.008": 10.7223428044,
			"0.009": 7.22777448094,
			"0.01": 0.431446512235,
			"0.011": 0.0,
			"0.012": 0.0,
			"0.013": 0.0,
			"0.014": 0.0,
			"0.015": 0.0,
			"0.016": 0.0,
			"0.017": 0.0,
			"0.018": 0.0,
			"0.019": 0.0,
			"0.02": 0.0,
			"0.021": 0.0,
			"0.022": 0.0,
			"0.023": 0.0,
			"0.024": 0.0,
			"0.025": 0.0
		}
	}
}
