{
	 "smiles": "O=C1CCCCCCN1", 
	 "Tm": 309.65, 
	 "num_atms": 22, 
	 "gaussian": { 
		 "optdone": 1, 
		 "sigma_profile": "yes", 
		 "theory": "DFT", 
		 "functional": "B3LYP", 
		 "basiset": "6-31G**", 
		 "properties": { 
			 "R2extent": 1566.214, 
			 "electric_dipole_moment_norm": 3.8747837759, 
			 "electric_quadrupole_moment_norm": 13.7660093644, 
			 "total_energy": -404.568112502, 
			 "HOMO_LUMO_gap": 0.25987, 
			 "cosmo_polarized_energy": -10.32, 
			 "cosmo_cavitation_energy": 22.42, 
			 "cosmo_dispersion_energy": -17.04, 
			 "cosmo_repulsion_energy": 1.4, 
			 "cosmo_total_nonelectrostatic_energy": 6.78, 
			 "SMD_solvation_energy": 3.05 
		},
		"coords": [
			{
				"x": 0.8905801244,
				"y": -1.3177045306,
				"z": 2.9828272446,
				"element": "O" 
			},
			{
				"x": -0.0463759276,
				"y": -0.8755701599,
				"z": 2.3271518629,
				"element": "C" 
			},
			{
				"x": -0.2775098973,
				"y": 0.627850852,
				"z": 2.1933792379,
				"element": "C" 
			},
			{
				"x": 0.1444244618,
				"y": 1.2936576954,
				"z": 0.8528690044,
				"element": "C" 
			},
			{
				"x": -0.9629871961,
				"y": 1.4292392854,
				"z": -0.2152920668,
				"element": "C" 
			},
			{
				"x": -1.1139360836,
				"y": 0.2929720004,
				"z": -1.2473767452,
				"element": "C" 
			},
			{
				"x": -1.0571741415,
				"y": -1.1522397987,
				"z": -0.7156775421,
				"element": "C" 
			},
			{
				"x": -1.82277943,
				"y": -1.4123620092,
				"z": 0.6094240089,
				"element": "C" 
			},
			{
				"x": -0.9516519977,
				"y": -1.7282274287,
				"z": 1.7374191116,
				"element": "N" 
			},
			{
				"x": 0.3213912964,
				"y": 1.0534225209,
				"z": 3.0012923091,
				"element": "H" 
			},
			{
				"x": -1.3269645661,
				"y": 0.8697804794,
				"z": 2.4035016191,
				"element": "H" 
			},
			{
				"x": 1.0257795414,
				"y": 0.7845299232,
				"z": 0.4429015868,
				"element": "H" 
			},
			{
				"x": 0.4828342738,
				"y": 2.304349609,
				"z": 1.1055231291,
				"element": "H" 
			},
			{
				"x": -1.9188398911,
				"y": 1.5917506897,
				"z": 0.2999327776,
				"element": "H" 
			},
			{
				"x": -0.7878153283,
				"y": 2.3510510393,
				"z": -0.7833065474,
				"element": "H" 
			},
			{
				"x": -2.0641864321,
				"y": 0.449526887,
				"z": -1.7746078118,
				"element": "H" 
			},
			{
				"x": -0.3323011229,
				"y": 0.396310661,
				"z": -2.0106974223,
				"element": "H" 
			},
			{
				"x": -1.4300890068,
				"y": -1.8209960347,
				"z": -1.5005139607,
				"element": "H" 
			},
			{
				"x": -0.0130988114,
				"y": -1.4411090803,
				"z": -0.5516244227,
				"element": "H" 
			},
			{
				"x": -2.5087912989,
				"y": -2.2568769917,
				"z": 0.4990617559,
				"element": "H" 
			},
			{
				"x": -2.4470311463,
				"y": -0.5528671993,
				"z": 0.8737736244,
				"element": "H" 
			},
			{
				"x": -0.65537742,
				"y": -2.6936884096,
				"z": 1.8196392466,
				"element": "H" 
			}
		],
		 "valence_orbital": [ 
			{
				"type": "occ",
				"energy": -0.33012,
				"method": "rhf"
			},
			{
				"type": "occ",
				"energy": -0.32286,
				"method": "rhf"
			},
			{
				"type": "occ",
				"energy": -0.31802,
				"method": "rhf"
			},
			{
				"type": "occ",
				"energy": -0.24492,
				"method": "rhf"
			},
			{
				"type": "occ",
				"energy": -0.23228,
				"method": "rhf"
			},
			{
				"type": "unocc",
				"energy": 0.02759,
				"method": "rhf"
			},
			{
				"type": "unocc",
				"energy": 0.07222,
				"method": "rhf"
			},
			{
				"type": "unocc",
				"energy": 0.08715,
				"method": "rhf"
			},
			{
				"type": "unocc",
				"energy": 0.09539,
				"method": "rhf"
			},
			{
				"type": "unocc",
				"energy": 0.11206,
				"method": "rhf"
			}
		],
		"cosmo_sigma_profile": { 
			"-0.025": 0.0,
			"-0.024": 0.0,
			"-0.023": 0.0,
			"-0.022": 0.0,
			"-0.021": 0.0,
			"-0.02": 0.0,
			"-0.019": 0.0,
			"-0.018": 0.0,
			"-0.017": 0.0,
			"-0.016": 0.0,
			"-0.015": 0.0,
			"-0.014": 0.0,
			"-0.013": 0.242516853303,
			"-0.012": 1.19000383353,
			"-0.011": 0.896102394491,
			"-0.01": 1.09123571849,
			"-0.009": 0.784801506585,
			"-0.008": 1.36105300574,
			"-0.007": 0.837230154874,
			"-0.006": 2.69109881004,
			"-0.005": 7.2856063461,
			"-0.004": 9.49858402456,
			"-0.003": 23.0949928523,
			"-0.002": 30.4522794015,
			"-0.001": 29.5254578896,
			"0.0": 21.3424815149,
			"0.001": 10.2664025483,
			"0.002": 2.17566746691,
			"0.003": 2.40725917678,
			"0.004": 1.7799849167,
			"0.005": 2.52267430374,
			"0.006": 2.22828743908,
			"0.007": 1.68205586338,
			"0.008": 2.16371748293,
			"0.009": 1.30372469103,
			"0.01": 1.27697750354,
			"0.011": 1.18142446154,
			"0.012": 1.2647603471,
			"0.013": 2.23866991905,
			"0.014": 5.60145866802,
			"0.015": 3.8614141831,
			"0.016": 0.571888878772,
			"0.017": 0.0,
			"0.018": 0.0,
			"0.019": 0.0,
			"0.02": 0.0,
			"0.021": 0.0,
			"0.022": 0.0,
			"0.023": 0.0,
			"0.024": 0.0,
			"0.025": 0.0
		}
	}
}
