{
	 "smiles": "OC(=O)C1=C(ON=C1C(F)(F)F)C(F)(F)F", 
	 "Tm": 443.15, 
	 "num_atms": 17, 
	 "gaussian": { 
		 "optdone": 1, 
		 "sigma_profile": "yes", 
		 "theory": "DFT", 
		 "functional": "B3LYP", 
		 "basiset": "6-31G**", 
		 "properties": { 
			 "R2extent": 3789.1714, 
			 "electric_dipole_moment_norm": 1.78338057352, 
			 "electric_quadrupole_moment_norm": 10.6372926447, 
			 "total_energy": -1108.64756038, 
			 "HOMO_LUMO_gap": 0.22461, 
			 "cosmo_polarized_energy": -9.86, 
			 "cosmo_cavitation_energy": 26.06, 
			 "cosmo_dispersion_energy": -18.13, 
			 "cosmo_repulsion_energy": 1.3, 
			 "cosmo_total_nonelectrostatic_energy": 9.23, 
			 "SMD_solvation_energy": 8.09 
		},
		"coords": [
			{
				"x": -1.9087457662,
				"y": 0.8589189278,
				"z": -1.7435284565,
				"element": "O" 
			},
			{
				"x": -1.5704898437,
				"y": 0.0673937791,
				"z": -0.7092250555,
				"element": "C" 
			},
			{
				"x": -2.0199765185,
				"y": -1.0429611269,
				"z": -0.5296836468,
				"element": "O" 
			},
			{
				"x": -0.5830193559,
				"y": 0.7084663683,
				"z": 0.1869580685,
				"element": "C" 
			},
			{
				"x": -0.0543497033,
				"y": 0.1441927693,
				"z": 1.3178663078,
				"element": "C" 
			},
			{
				"x": 0.8075484054,
				"y": 0.9857360034,
				"z": 1.8977232227,
				"element": "O" 
			},
			{
				"x": 0.8807650361,
				"y": 2.1579200092,
				"z": 1.1572404922,
				"element": "N" 
			},
			{
				"x": 0.0592086179,
				"y": 1.9893767794,
				"z": 0.1498513437,
				"element": "C" 
			},
			{
				"x": -0.085309182,
				"y": 3.1117493715,
				"z": -0.8538780616,
				"element": "C" 
			},
			{
				"x": 0.2657118258,
				"y": 2.6950496,
				"z": -2.0824981846,
				"element": "F" 
			},
			{
				"x": -1.3575460429,
				"y": 3.5424983653,
				"z": -0.901126799,
				"element": "F" 
			},
			{
				"x": 0.6959978047,
				"y": 4.1483534724,
				"z": -0.5239206918,
				"element": "F" 
			},
			{
				"x": -0.2542594026,
				"y": -1.1922116067,
				"z": 2.0021346885,
				"element": "C" 
			},
			{
				"x": 0.5119660217,
				"y": -1.2582628425,
				"z": 3.1017982801,
				"element": "F" 
			},
			{
				"x": -1.5332155414,
				"y": -1.3491464552,
				"z": 2.3669568541,
				"element": "F" 
			},
			{
				"x": 0.0890979719,
				"y": -2.1966650406,
				"z": 1.1856456306,
				"element": "F" 
			},
			{
				"x": -2.5544843269,
				"y": 0.3643916261,
				"z": -2.2759139925,
				"element": "H" 
			}
		],
		 "valence_orbital": [ 
			{
				"type": "occ",
				"energy": -0.35998,
				"method": "rhf"
			},
			{
				"type": "occ",
				"energy": -0.35585,
				"method": "rhf"
			},
			{
				"type": "occ",
				"energy": -0.3486,
				"method": "rhf"
			},
			{
				"type": "occ",
				"energy": -0.31703,
				"method": "rhf"
			},
			{
				"type": "occ",
				"energy": -0.31005,
				"method": "rhf"
			},
			{
				"type": "unocc",
				"energy": -0.08544,
				"method": "rhf"
			},
			{
				"type": "unocc",
				"energy": -0.05422,
				"method": "rhf"
			},
			{
				"type": "unocc",
				"energy": 0.05083,
				"method": "rhf"
			},
			{
				"type": "unocc",
				"energy": 0.05667,
				"method": "rhf"
			},
			{
				"type": "unocc",
				"energy": 0.05686,
				"method": "rhf"
			}
		],
		"cosmo_sigma_profile": { 
			"-0.025": 0.0,
			"-0.024": 0.0,
			"-0.023": 0.0,
			"-0.022": 0.0,
			"-0.021": 0.0,
			"-0.02": 0.381675634099,
			"-0.019": 1.21216589433,
			"-0.018": 0.947513161958,
			"-0.017": 0.712484440939,
			"-0.016": 0.770399508338,
			"-0.015": 0.221506100066,
			"-0.014": 0.912128293837,
			"-0.013": 1.09567062858,
			"-0.012": 0.818423212841,
			"-0.011": 0.147122441506,
			"-0.01": 0.512378885907,
			"-0.009": 1.57683990167,
			"-0.008": 3.08537669186,
			"-0.007": 4.68319339607,
			"-0.006": 8.48484287978,
			"-0.005": 11.6011678142,
			"-0.004": 8.04831666902,
			"-0.003": 7.08690825434,
			"-0.002": 9.96103202074,
			"-0.001": 11.7356952687,
			"0.0": 13.4680346282,
			"0.001": 37.7772495837,
			"0.002": 35.7667985028,
			"0.003": 13.1617998596,
			"0.004": 9.24829232053,
			"0.005": 6.31924550343,
			"0.006": 4.91899943199,
			"0.007": 3.56703256955,
			"0.008": 3.75110204625,
			"0.009": 3.49542399973,
			"0.01": 4.30566167378,
			"0.011": 0.97357654065,
			"0.012": 0.0,
			"0.013": 0.0,
			"0.014": 0.0,
			"0.015": 0.0,
			"0.016": 0.0,
			"0.017": 0.0,
			"0.018": 0.0,
			"0.019": 0.0,
			"0.02": 0.0,
			"0.021": 0.0,
			"0.022": 0.0,
			"0.023": 0.0,
			"0.024": 0.0,
			"0.025": 0.0
		}
	}
}
