{
	 "smiles": "SC1=C(Br)C=CC=N1", 
	 "Tm": 473.15, 
	 "num_atms": 12, 
	 "gaussian": { 
		 "optdone": 1, 
		 "sigma_profile": "yes", 
		 "theory": "DFT", 
		 "functional": "B3LYP", 
		 "basiset": "6-31G**", 
		 "properties": { 
			 "R2extent": 2663.6887, 
			 "electric_dipole_moment_norm": 2.35002197862, 
			 "electric_quadrupole_moment_norm": 4.13534463618, 
			 "total_energy": -3217.27547977, 
			 "HOMO_LUMO_gap": 0.19446, 
			 "cosmo_polarized_energy": -6.11, 
			 "cosmo_cavitation_energy": 20.07, 
			 "cosmo_dispersion_energy": -16.09, 
			 "cosmo_repulsion_energy": 1.28, 
			 "cosmo_total_nonelectrostatic_energy": 5.25, 
			 "SMD_solvation_energy": 0.82 
		},
		"coords": [
			{
				"x": 0.0601947534,
				"y": -1.8016950855,
				"z": -3.1317482081,
				"element": "S" 
			},
			{
				"x": -0.1531257425,
				"y": -0.7652900366,
				"z": -1.6990151643,
				"element": "C" 
			},
			{
				"x": -0.4256305534,
				"y": -1.3297003402,
				"z": -0.4395812729,
				"element": "C" 
			},
			{
				"x": -0.5753025788,
				"y": -3.2161119416,
				"z": -0.2240643816,
				"element": "Br" 
			},
			{
				"x": -0.5870673546,
				"y": -0.4949793965,
				"z": 0.6600424713,
				"element": "C" 
			},
			{
				"x": -0.4731918638,
				"y": 0.8833621419,
				"z": 0.4792199707,
				"element": "C" 
			},
			{
				"x": -0.2016274315,
				"y": 1.3548677335,
				"z": -0.8032695639,
				"element": "C" 
			},
			{
				"x": -0.0454615252,
				"y": 0.5561699348,
				"z": -1.864389385,
				"element": "N" 
			},
			{
				"x": 0.276560236,
				"y": -0.7499806466,
				"z": -3.9454916958,
				"element": "H" 
			},
			{
				"x": -0.7973578627,
				"y": -0.9208026733,
				"z": 1.6349703913,
				"element": "H" 
			},
			{
				"x": -0.5923367367,
				"y": 1.5684528426,
				"z": 1.3116628604,
				"element": "H" 
			},
			{
				"x": -0.1036533401,
				"y": 2.4212074674,
				"z": -0.9949360221,
				"element": "H" 
			}
		],
		 "valence_orbital": [ 
			{
				"type": "occ",
				"energy": -0.31728,
				"method": "rhf"
			},
			{
				"type": "occ",
				"energy": -0.3029,
				"method": "rhf"
			},
			{
				"type": "occ",
				"energy": -0.27347,
				"method": "rhf"
			},
			{
				"type": "occ",
				"energy": -0.2703,
				"method": "rhf"
			},
			{
				"type": "occ",
				"energy": -0.23485,
				"method": "rhf"
			},
			{
				"type": "unocc",
				"energy": -0.04039,
				"method": "rhf"
			},
			{
				"type": "unocc",
				"energy": -0.02628,
				"method": "rhf"
			},
			{
				"type": "unocc",
				"energy": -0.01063,
				"method": "rhf"
			},
			{
				"type": "unocc",
				"energy": 0.0308,
				"method": "rhf"
			},
			{
				"type": "unocc",
				"energy": 0.08134,
				"method": "rhf"
			}
		],
		"cosmo_sigma_profile": { 
			"-0.025": 0.0,
			"-0.024": 0.0,
			"-0.023": 0.0,
			"-0.022": 0.0,
			"-0.021": 0.0,
			"-0.02": 0.0,
			"-0.019": 0.0,
			"-0.018": 0.0,
			"-0.017": 0.0,
			"-0.016": 0.0,
			"-0.015": 0.0,
			"-0.014": 0.0,
			"-0.013": 0.0,
			"-0.012": 0.0,
			"-0.011": 0.525493470365,
			"-0.01": 1.48471008368,
			"-0.009": 1.48320485651,
			"-0.008": 4.97582905389,
			"-0.007": 7.64786901117,
			"-0.006": 8.04569806934,
			"-0.005": 8.03102298998,
			"-0.004": 7.10410406976,
			"-0.003": 7.21074922372,
			"-0.002": 7.80684246928,
			"-0.001": 9.98985082694,
			"0.0": 18.7480053079,
			"0.001": 19.0772800518,
			"0.002": 16.4035377526,
			"0.003": 15.2033181047,
			"0.004": 14.49928992,
			"0.005": 4.77464820401,
			"0.006": 4.57066829367,
			"0.007": 3.85568676368,
			"0.008": 2.1671584155,
			"0.009": 1.00755935033,
			"0.01": 0.572450513225,
			"0.011": 0.600062234564,
			"0.012": 1.04652834579,
			"0.013": 0.343328558625,
			"0.014": 0.00998330007205,
			"0.015": 0.0,
			"0.016": 0.0,
			"0.017": 0.0,
			"0.018": 0.0,
			"0.019": 0.0,
			"0.02": 0.0,
			"0.021": 0.0,
			"0.022": 0.0,
			"0.023": 0.0,
			"0.024": 0.0,
			"0.025": 0.0
		}
	}
}
