{
	 "smiles": "C[Si](C)(Cl)O[Si](C)(C)O[Si](C)(C)Cl", 
	 "Tm": 220.15, 
	 "num_atms": 31, 
	 "gaussian": { 
		 "optdone": 1, 
		 "sigma_profile": "yes", 
		 "theory": "DFT", 
		 "functional": "B3LYP", 
		 "basiset": "6-31G**", 
		 "properties": { 
			 "R2extent": 5239.7078, 
			 "electric_dipole_moment_norm": 2.42639338319, 
			 "electric_quadrupole_moment_norm": 10.7387129541, 
			 "total_energy": -2179.20690674, 
			 "HOMO_LUMO_gap": 0.32576, 
			 "cosmo_polarized_energy": -7.01, 
			 "cosmo_cavitation_energy": 43.05, 
			 "cosmo_dispersion_energy": -21.58, 
			 "cosmo_repulsion_energy": 2.03, 
			 "cosmo_total_nonelectrostatic_energy": 23.5, 
			 "SMD_solvation_energy": 9.11 
		},
		"coords": [
			{
				"x": 1.2107296971,
				"y": -0.1174841012,
				"z": 3.4411154053,
				"element": "C" 
			},
			{
				"x": 0.2449525545,
				"y": 1.0501604742,
				"z": 2.3474351907,
				"element": "Si" 
			},
			{
				"x": -1.5371698366,
				"y": 1.2719986181,
				"z": 2.8671196231,
				"element": "C" 
			},
			{
				"x": 1.1713620055,
				"y": 2.9395355358,
				"z": 2.4600504308,
				"element": "Cl" 
			},
			{
				"x": 0.3538802993,
				"y": 0.5264710059,
				"z": 0.7919009575,
				"element": "O" 
			},
			{
				"x": 0.0834591149,
				"y": 0.7051690224,
				"z": -0.8381882476,
				"element": "Si" 
			},
			{
				"x": 1.7109658361,
				"y": 1.0539630086,
				"z": -1.6874201424,
				"element": "C" 
			},
			{
				"x": -1.2121715785,
				"y": 2.0193407777,
				"z": -1.1472975011,
				"element": "C" 
			},
			{
				"x": -0.4864078485,
				"y": -0.7513507911,
				"z": -1.4081312156,
				"element": "O" 
			},
			{
				"x": -1.1605574911,
				"y": -2.2118064574,
				"z": -1.0660661838,
				"element": "Si" 
			},
			{
				"x": 0.0638460375,
				"y": -3.3300741051,
				"z": -0.1996030502,
				"element": "C" 
			},
			{
				"x": -1.8587469727,
				"y": -2.9341964085,
				"z": -2.6414511176,
				"element": "C" 
			},
			{
				"x": -2.7731693602,
				"y": -1.916929988,
				"z": 0.2622153533,
				"element": "Cl" 
			},
			{
				"x": 1.2137984675,
				"y": 0.2256415589,
				"z": 4.4803146319,
				"element": "H" 
			},
			{
				"x": 2.2486084063,
				"y": -0.1965036033,
				"z": 3.104757516,
				"element": "H" 
			},
			{
				"x": 0.7649373921,
				"y": -1.118008554,
				"z": 3.4131648502,
				"element": "H" 
			},
			{
				"x": -2.0343475402,
				"y": 2.0298343651,
				"z": 2.2543767125,
				"element": "H" 
			},
			{
				"x": -2.0826693985,
				"y": 0.3294502458,
				"z": 2.7486526542,
				"element": "H" 
			},
			{
				"x": -1.6070867829,
				"y": 1.5851332699,
				"z": 3.9136861438,
				"element": "H" 
			},
			{
				"x": 2.4377150682,
				"y": 0.2643158456,
				"z": -1.4715309747,
				"element": "H" 
			},
			{
				"x": 1.5865741261,
				"y": 1.1115427379,
				"z": -2.7738537336,
				"element": "H" 
			},
			{
				"x": 2.1344177838,
				"y": 2.0031311457,
				"z": -1.3425698756,
				"element": "H" 
			},
			{
				"x": -0.8889202517,
				"y": 2.9932319246,
				"z": -0.7641642696,
				"element": "H" 
			},
			{
				"x": -2.1566597823,
				"y": 1.757001496,
				"z": -0.6596056045,
				"element": "H" 
			},
			{
				"x": -1.40987853,
				"y": 2.128044575,
				"z": -2.2190235461,
				"element": "H" 
			},
			{
				"x": 0.9222181769,
				"y": -3.5286746,
				"z": -0.851068519,
				"element": "H" 
			},
			{
				"x": -0.3915490436,
				"y": -4.2885189369,
				"z": 0.0683142716,
				"element": "H" 
			},
			{
				"x": 0.4359676919,
				"y": -2.8598384255,
				"z": 0.7153859963,
				"element": "H" 
			},
			{
				"x": -1.0584856457,
				"y": -3.0906218678,
				"z": -3.3731533224,
				"element": "H" 
			},
			{
				"x": -2.3455012284,
				"y": -3.8963768895,
				"z": -2.4544626192,
				"element": "H" 
			},
			{
				"x": -2.5963113667,
				"y": -2.2588808791,
				"z": -3.0846998146,
				"element": "H" 
			}
		],
		 "valence_orbital": [ 
			{
				"type": "occ",
				"energy": -0.31047,
				"method": "rhf"
			},
			{
				"type": "occ",
				"energy": -0.30564,
				"method": "rhf"
			},
			{
				"type": "occ",
				"energy": -0.29613,
				"method": "rhf"
			},
			{
				"type": "occ",
				"energy": -0.29157,
				"method": "rhf"
			},
			{
				"type": "occ",
				"energy": -0.28147,
				"method": "rhf"
			},
			{
				"type": "unocc",
				"energy": 0.04429,
				"method": "rhf"
			},
			{
				"type": "unocc",
				"energy": 0.05639,
				"method": "rhf"
			},
			{
				"type": "unocc",
				"energy": 0.0583,
				"method": "rhf"
			},
			{
				"type": "unocc",
				"energy": 0.06514,
				"method": "rhf"
			},
			{
				"type": "unocc",
				"energy": 0.07366,
				"method": "rhf"
			}
		],
		"cosmo_sigma_profile": { 
			"-0.025": 0.0,
			"-0.024": 0.0,
			"-0.023": 0.0,
			"-0.022": 0.0,
			"-0.021": 0.0,
			"-0.02": 0.0,
			"-0.019": 0.0,
			"-0.018": 0.0,
			"-0.017": 0.0,
			"-0.016": 0.0,
			"-0.015": 0.0,
			"-0.014": 0.0,
			"-0.013": 0.0,
			"-0.012": 0.0,
			"-0.011": 0.0,
			"-0.01": 0.0,
			"-0.009": 0.0,
			"-0.008": 0.0,
			"-0.007": 0.0,
			"-0.006": 0.99086729385,
			"-0.005": 17.0217313037,
			"-0.004": 32.1966889533,
			"-0.003": 32.2213503812,
			"-0.002": 38.686991552,
			"-0.001": 37.2108929215,
			"0.0": 39.5980402864,
			"0.001": 32.4807475534,
			"0.002": 25.0760473311,
			"0.003": 16.4724261115,
			"0.004": 13.7271480918,
			"0.005": 14.875631128,
			"0.006": 20.1626111173,
			"0.007": 5.52565320598,
			"0.008": 1.01874067655,
			"0.009": 0.0338028793714,
			"0.01": 0.0,
			"0.011": 0.0,
			"0.012": 0.0,
			"0.013": 0.0,
			"0.014": 0.0,
			"0.015": 0.0,
			"0.016": 0.0,
			"0.017": 0.0,
			"0.018": 0.0,
			"0.019": 0.0,
			"0.02": 0.0,
			"0.021": 0.0,
			"0.022": 0.0,
			"0.023": 0.0,
			"0.024": 0.0,
			"0.025": 0.0
		}
	}
}
