{
	 "smiles": "NC(=O)C(F)(F)C(F)(F)F", 
	 "Tm": 368.15, 
	 "num_atms": 12, 
	 "gaussian": { 
		 "optdone": 1, 
		 "sigma_profile": "yes", 
		 "theory": "DFT", 
		 "functional": "B3LYP", 
		 "basiset": "6-31G**", 
		 "properties": { 
			 "R2extent": 2201.2833, 
			 "electric_dipole_moment_norm": 3.79029560984, 
			 "electric_quadrupole_moment_norm": 5.0118850755, 
			 "total_energy": -744.69926741, 
			 "HOMO_LUMO_gap": 0.26134, 
			 "cosmo_polarized_energy": -10.52, 
			 "cosmo_cavitation_energy": 19.15, 
			 "cosmo_dispersion_energy": -13.25, 
			 "cosmo_repulsion_energy": 1.01, 
			 "cosmo_total_nonelectrostatic_energy": 6.91, 
			 "SMD_solvation_energy": 6.22 
		},
		"coords": [
			{
				"x": 0.2121229259,
				"y": 1.1073247026,
				"z": 0.615423906,
				"element": "N" 
			},
			{
				"x": 0.4946654764,
				"y": -0.2049257663,
				"z": 0.8044185307,
				"element": "C" 
			},
			{
				"x": 1.5747667532,
				"y": -0.7312994447,
				"z": 0.6145581804,
				"element": "O" 
			},
			{
				"x": -0.7325584132,
				"y": -1.0055757589,
				"z": 1.3019092736,
				"element": "C" 
			},
			{
				"x": -1.7426851831,
				"y": -0.8934872712,
				"z": 0.392245668,
				"element": "F" 
			},
			{
				"x": -1.1771642968,
				"y": -0.4670455633,
				"z": 2.4735658925,
				"element": "F" 
			},
			{
				"x": -0.4723325485,
				"y": -2.5063018379,
				"z": 1.5387987042,
				"element": "C" 
			},
			{
				"x": -1.6088955269,
				"y": -3.0818265725,
				"z": 1.9667408855,
				"element": "F" 
			},
			{
				"x": 0.4681739611,
				"y": -2.6778555551,
				"z": 2.4728961823,
				"element": "F" 
			},
			{
				"x": -0.0960134476,
				"y": -3.1025466756,
				"z": 0.4033082463,
				"element": "F" 
			},
			{
				"x": 0.9489427011,
				"y": 1.7147752194,
				"z": 0.2902539284,
				"element": "H" 
			},
			{
				"x": -0.7043224015,
				"y": 1.4884645234,
				"z": 0.7896806022,
				"element": "H" 
			}
		],
		 "valence_orbital": [ 
			{
				"type": "occ",
				"energy": -0.41835,
				"method": "rhf"
			},
			{
				"type": "occ",
				"energy": -0.40926,
				"method": "rhf"
			},
			{
				"type": "occ",
				"energy": -0.37521,
				"method": "rhf"
			},
			{
				"type": "occ",
				"energy": -0.29852,
				"method": "rhf"
			},
			{
				"type": "occ",
				"energy": -0.28288,
				"method": "rhf"
			},
			{
				"type": "unocc",
				"energy": -0.02154,
				"method": "rhf"
			},
			{
				"type": "unocc",
				"energy": 0.05699,
				"method": "rhf"
			},
			{
				"type": "unocc",
				"energy": 0.08916,
				"method": "rhf"
			},
			{
				"type": "unocc",
				"energy": 0.11015,
				"method": "rhf"
			},
			{
				"type": "unocc",
				"energy": 0.12119,
				"method": "rhf"
			}
		],
		"cosmo_sigma_profile": { 
			"-0.025": 0.0,
			"-0.024": 0.0,
			"-0.023": 0.0,
			"-0.022": 0.0,
			"-0.021": 0.0,
			"-0.02": 0.0,
			"-0.019": 0.0,
			"-0.018": 0.0,
			"-0.017": 0.00500768314232,
			"-0.016": 1.56521595037,
			"-0.015": 2.43051723433,
			"-0.014": 1.96914378507,
			"-0.013": 2.18901288578,
			"-0.012": 2.06347692755,
			"-0.011": 2.42939509822,
			"-0.01": 2.05376742512,
			"-0.009": 1.57206736571,
			"-0.008": 1.82780214963,
			"-0.007": 1.21183686031,
			"-0.006": 1.48331725719,
			"-0.005": 1.7358922866,
			"-0.004": 4.01818792666,
			"-0.003": 4.7241844035,
			"-0.002": 4.79577096268,
			"-0.001": 9.92598619048,
			"0.0": 16.1066358115,
			"0.001": 33.1071224738,
			"0.002": 32.4513419043,
			"0.003": 3.99608935023,
			"0.004": 2.1533198769,
			"0.005": 2.04616505431,
			"0.006": 1.96785856284,
			"0.007": 1.70850265043,
			"0.008": 1.56273057787,
			"0.009": 1.94049631353,
			"0.01": 2.76023760676,
			"0.011": 4.06132522607,
			"0.012": 2.74426502147,
			"0.013": 0.334263688725,
			"0.014": 0.0,
			"0.015": 0.0,
			"0.016": 0.0,
			"0.017": 0.0,
			"0.018": 0.0,
			"0.019": 0.0,
			"0.02": 0.0,
			"0.021": 0.0,
			"0.022": 0.0,
			"0.023": 0.0,
			"0.024": 0.0,
			"0.025": 0.0
		}
	}
}
