{
	 "smiles": "CC(NS(=O)(=O)CC1=CC=C(CN)C=C1)C(N)=O", 
	 "Tm": 414.15, 
	 "num_atms": 35, 
	 "gaussian": { 
		 "optdone": 1, 
		 "sigma_profile": "yes", 
		 "theory": "DFT", 
		 "functional": "B3LYP", 
		 "basiset": "6-31G**", 
		 "properties": { 
			 "R2extent": 7375.4271, 
			 "electric_dipole_moment_norm": 3.74442199678, 
			 "electric_quadrupole_moment_norm": 13.8722106378, 
			 "total_energy": -1217.48950563, 
			 "HOMO_LUMO_gap": 0.20828, 
			 "cosmo_polarized_energy": -23.17, 
			 "cosmo_cavitation_energy": 39.83, 
			 "cosmo_dispersion_energy": -27.43, 
			 "cosmo_repulsion_energy": 2.12, 
			 "cosmo_total_nonelectrostatic_energy": 14.52, 
			 "SMD_solvation_energy": 4.99 
		},
		"coords": [
			{
				"x": 2.9613550311,
				"y": 2.197861578,
				"z": 2.3804170997,
				"element": "C" 
			},
			{
				"x": 1.8177419339,
				"y": 1.5386358838,
				"z": 3.145496513,
				"element": "C" 
			},
			{
				"x": 1.0143921109,
				"y": 0.7106628333,
				"z": 2.2126779374,
				"element": "N" 
			},
			{
				"x": -0.5991496153,
				"y": 0.3674693889,
				"z": 2.556977939,
				"element": "S" 
			},
			{
				"x": -0.792479674,
				"y": -1.0812276394,
				"z": 2.4436933823,
				"element": "O" 
			},
			{
				"x": -0.9728757762,
				"y": 1.0912460394,
				"z": 3.7884227343,
				"element": "O" 
			},
			{
				"x": -1.5120027427,
				"y": 1.1845468138,
				"z": 1.1983368122,
				"element": "C" 
			},
			{
				"x": -1.1808385016,
				"y": 0.6567200348,
				"z": -0.1683612552,
				"element": "C" 
			},
			{
				"x": -0.2805539689,
				"y": 1.3381555603,
				"z": -0.9972136925,
				"element": "C" 
			},
			{
				"x": 0.0292579522,
				"y": 0.8455094606,
				"z": -2.2637190708,
				"element": "C" 
			},
			{
				"x": -0.5461546488,
				"y": -0.341206598,
				"z": -2.7370589583,
				"element": "C" 
			},
			{
				"x": -0.259354451,
				"y": -0.8417805254,
				"z": -4.1425648531,
				"element": "C" 
			},
			{
				"x": -1.1818961553,
				"y": -0.3612365664,
				"z": -5.1840214277,
				"element": "N" 
			},
			{
				"x": -1.437273319,
				"y": -1.0248425085,
				"z": -1.8976088852,
				"element": "C" 
			},
			{
				"x": -1.7533520334,
				"y": -0.5358535068,
				"z": -0.6323349484,
				"element": "C" 
			},
			{
				"x": 2.362315517,
				"y": 0.6657203624,
				"z": 4.3038765324,
				"element": "C" 
			},
			{
				"x": 1.5126037741,
				"y": 0.5250628586,
				"z": 5.3583588316,
				"element": "N" 
			},
			{
				"x": 3.4691384793,
				"y": 0.1464369991,
				"z": 4.2444610725,
				"element": "O" 
			},
			{
				"x": 3.5095010104,
				"y": 2.8776682351,
				"z": 3.0389484621,
				"element": "H" 
			},
			{
				"x": 3.6687551962,
				"y": 1.4430498622,
				"z": 2.0292250419,
				"element": "H" 
			},
			{
				"x": 2.5729266098,
				"y": 2.761970317,
				"z": 1.5289988735,
				"element": "H" 
			},
			{
				"x": 1.14106247,
				"y": 2.2962831449,
				"z": 3.5477035387,
				"element": "H" 
			},
			{
				"x": 1.4823644279,
				"y": -0.1400545342,
				"z": 1.908312227,
				"element": "H" 
			},
			{
				"x": -2.5589325193,
				"y": 1.020061278,
				"z": 1.470680824,
				"element": "H" 
			},
			{
				"x": -1.287871962,
				"y": 2.2481155763,
				"z": 1.3065998102,
				"element": "H" 
			},
			{
				"x": 0.1821937097,
				"y": 2.2566083718,
				"z": -0.64634325,
				"element": "H" 
			},
			{
				"x": 0.7323492268,
				"y": 1.3877629673,
				"z": -2.8920733899,
				"element": "H" 
			},
			{
				"x": 0.754812274,
				"y": -0.5491966579,
				"z": -4.4371446984,
				"element": "H" 
			},
			{
				"x": -0.2868826058,
				"y": -1.9371859436,
				"z": -4.1557382013,
				"element": "H" 
			},
			{
				"x": -1.1779539863,
				"y": 0.6570116461,
				"z": -5.1936309881,
				"element": "H" 
			},
			{
				"x": -2.1336811635,
				"y": -0.6293919577,
				"z": -4.9409419575,
				"element": "H" 
			},
			{
				"x": -1.8855221064,
				"y": -1.9557393762,
				"z": -2.237671786,
				"element": "H" 
			},
			{
				"x": -2.4339536646,
				"y": -1.0886246747,
				"z": 0.0083645293,
				"element": "H" 
			},
			{
				"x": 0.5356228108,
				"y": 0.7736905311,
				"z": 5.2522448618,
				"element": "H" 
			},
			{
				"x": 1.7628363603,
				"y": -0.1612092542,
				"z": 6.0562303394,
				"element": "H" 
			}
		],
		 "valence_orbital": [ 
			{
				"type": "occ",
				"energy": -0.26846,
				"method": "rhf"
			},
			{
				"type": "occ",
				"energy": -0.26362,
				"method": "rhf"
			},
			{
				"type": "occ",
				"energy": -0.26291,
				"method": "rhf"
			},
			{
				"type": "occ",
				"energy": -0.2446,
				"method": "rhf"
			},
			{
				"type": "occ",
				"energy": -0.23654,
				"method": "rhf"
			},
			{
				"type": "unocc",
				"energy": -0.02826,
				"method": "rhf"
			},
			{
				"type": "unocc",
				"energy": -0.01632,
				"method": "rhf"
			},
			{
				"type": "unocc",
				"energy": 0.01392,
				"method": "rhf"
			},
			{
				"type": "unocc",
				"energy": 0.05892,
				"method": "rhf"
			},
			{
				"type": "unocc",
				"energy": 0.06926,
				"method": "rhf"
			}
		],
		"cosmo_sigma_profile": { 
			"-0.025": 0.0,
			"-0.024": 0.0,
			"-0.023": 0.0,
			"-0.022": 0.0,
			"-0.021": 0.0,
			"-0.02": 0.0,
			"-0.019": 0.0,
			"-0.018": 0.0,
			"-0.017": 0.0,
			"-0.016": 0.0,
			"-0.015": 0.179883244883,
			"-0.014": 1.40687765295,
			"-0.013": 1.72306817447,
			"-0.012": 2.10211743162,
			"-0.011": 1.79285065309,
			"-0.01": 2.73267529399,
			"-0.009": 7.79370172706,
			"-0.008": 9.21716098163,
			"-0.007": 10.5534343939,
			"-0.006": 17.3202499636,
			"-0.005": 25.6727148481,
			"-0.004": 26.021120006,
			"-0.003": 22.5969217138,
			"-0.002": 21.6200626458,
			"-0.001": 19.1994283735,
			"0.0": 18.440779958,
			"0.001": 13.3502199052,
			"0.002": 12.4317596222,
			"0.003": 11.1404530036,
			"0.004": 14.7018649876,
			"0.005": 14.7117483945,
			"0.006": 6.69338583214,
			"0.007": 5.61219337325,
			"0.008": 5.2627814407,
			"0.009": 6.24122794895,
			"0.01": 7.07247544053,
			"0.011": 9.426716994,
			"0.012": 4.66509883426,
			"0.013": 5.01579521669,
			"0.014": 4.1290913939,
			"0.015": 0.949680564315,
			"0.016": 0.717673093932,
			"0.017": 0.597911909492,
			"0.018": 0.753207546757,
			"0.019": 0.584005615059,
			"0.02": 0.230610131574,
			"0.021": 0.0,
			"0.022": 0.0,
			"0.023": 0.0,
			"0.024": 0.0,
			"0.025": 0.0
		}
	}
}
