{
	 "smiles": "FC(F)(F)C1=CC=C(C=C1)C1CCCCC1=O", 
	 "Tm": 370.15, 
	 "num_atms": 30, 
	 "gaussian": { 
		 "optdone": 1, 
		 "sigma_profile": "yes", 
		 "theory": "DFT", 
		 "functional": "B3LYP", 
		 "basiset": "6-31G**", 
		 "properties": { 
			 "R2extent": 6577.6619, 
			 "electric_dipole_moment_norm": 5.16041565089, 
			 "electric_quadrupole_moment_norm": 11.4634769826, 
			 "total_energy": -877.976900527, 
			 "HOMO_LUMO_gap": 0.21891, 
			 "cosmo_polarized_energy": -10.33, 
			 "cosmo_cavitation_energy": 33.86, 
			 "cosmo_dispersion_energy": -23.8, 
			 "cosmo_repulsion_energy": 1.8, 
			 "cosmo_total_nonelectrostatic_energy": 11.85, 
			 "SMD_solvation_energy": 6.71 
		},
		"coords": [
			{
				"x": 3.7709667454,
				"y": -0.6755272246,
				"z": 4.2553753908,
				"element": "F" 
			},
			{
				"x": 2.5454975148,
				"y": -1.2462861109,
				"z": 4.2112414236,
				"element": "C" 
			},
			{
				"x": 1.9340303235,
				"y": -0.9459454169,
				"z": 5.3812549744,
				"element": "F" 
			},
			{
				"x": 2.7229665516,
				"y": -2.587023164,
				"z": 4.1966993223,
				"element": "F" 
			},
			{
				"x": 1.7497415557,
				"y": -0.7722046746,
				"z": 3.0270329144,
				"element": "C" 
			},
			{
				"x": 1.9105938256,
				"y": 0.5342986871,
				"z": 2.5560958929,
				"element": "C" 
			},
			{
				"x": 1.1380223082,
				"y": 0.9915615363,
				"z": 1.492862506,
				"element": "C" 
			},
			{
				"x": 0.1915399471,
				"y": 0.1573407801,
				"z": 0.8798868351,
				"element": "C" 
			},
			{
				"x": 0.0403421978,
				"y": -1.1466776887,
				"z": 1.3664270018,
				"element": "C" 
			},
			{
				"x": 0.8096859728,
				"y": -1.613838584,
				"z": 2.4307461941,
				"element": "C" 
			},
			{
				"x": -0.6079754409,
				"y": 0.6201416263,
				"z": -0.3193357412,
				"element": "C" 
			},
			{
				"x": 0.2380694155,
				"y": 0.6786638133,
				"z": -1.6201903424,
				"element": "C" 
			},
			{
				"x": -0.6183648282,
				"y": 0.9420665713,
				"z": -2.8850252361,
				"element": "C" 
			},
			{
				"x": -1.9531772658,
				"y": 1.6529570271,
				"z": -2.5702269212,
				"element": "C" 
			},
			{
				"x": -1.8119748253,
				"y": 2.6374826894,
				"z": -1.4039138045,
				"element": "C" 
			},
			{
				"x": -1.3150894044,
				"y": 1.9728719164,
				"z": -0.1208111014,
				"element": "C" 
			},
			{
				"x": -1.4642911574,
				"y": 2.49320209,
				"z": 0.9662772844,
				"element": "O" 
			},
			{
				"x": 2.642045751,
				"y": 1.1878271,
				"z": 3.0194421461,
				"element": "H" 
			},
			{
				"x": 1.2633208367,
				"y": 2.0121981602,
				"z": 1.1467750914,
				"element": "H" 
			},
			{
				"x": -0.6879596707,
				"y": -1.8091821127,
				"z": 0.9055326043,
				"element": "H" 
			},
			{
				"x": 0.6858972734,
				"y": -2.6289023028,
				"z": 2.7923771489,
				"element": "H" 
			},
			{
				"x": -1.4169560216,
				"y": -0.1074264877,
				"z": -0.4883148568,
				"element": "H" 
			},
			{
				"x": 0.9910182826,
				"y": 1.4670630124,
				"z": -1.5007854748,
				"element": "H" 
			},
			{
				"x": 0.7973834723,
				"y": -0.2559629378,
				"z": -1.724206919,
				"element": "H" 
			},
			{
				"x": -0.0342813485,
				"y": 1.5468412258,
				"z": -3.5878699972,
				"element": "H" 
			},
			{
				"x": -0.8289562059,
				"y": -0.0026159036,
				"z": -3.3982904354,
				"element": "H" 
			},
			{
				"x": -2.325438043,
				"y": 2.1707287993,
				"z": -3.4602929297,
				"element": "H" 
			},
			{
				"x": -2.7181591921,
				"y": 0.9096073854,
				"z": -2.3133669375,
				"element": "H" 
			},
			{
				"x": -2.7476243986,
				"y": 3.156293489,
				"z": -1.1735826364,
				"element": "H" 
			},
			{
				"x": -1.0821741717,
				"y": 3.4217466989,
				"z": -1.6551133968,
				"element": "H" 
			}
		],
		 "valence_orbital": [ 
			{
				"type": "occ",
				"energy": -0.33509,
				"method": "rhf"
			},
			{
				"type": "occ",
				"energy": -0.32439,
				"method": "rhf"
			},
			{
				"type": "occ",
				"energy": -0.26275,
				"method": "rhf"
			},
			{
				"type": "occ",
				"energy": -0.25655,
				"method": "rhf"
			},
			{
				"type": "occ",
				"energy": -0.24425,
				"method": "rhf"
			},
			{
				"type": "unocc",
				"energy": -0.02534,
				"method": "rhf"
			},
			{
				"type": "unocc",
				"energy": -0.01952,
				"method": "rhf"
			},
			{
				"type": "unocc",
				"energy": -0.01192,
				"method": "rhf"
			},
			{
				"type": "unocc",
				"energy": 0.06584,
				"method": "rhf"
			},
			{
				"type": "unocc",
				"energy": 0.09089,
				"method": "rhf"
			}
		],
		"cosmo_sigma_profile": { 
			"-0.025": 0.0,
			"-0.024": 0.0,
			"-0.023": 0.0,
			"-0.022": 0.0,
			"-0.021": 0.0,
			"-0.02": 0.0,
			"-0.019": 0.0,
			"-0.018": 0.0,
			"-0.017": 0.0,
			"-0.016": 0.0,
			"-0.015": 0.0,
			"-0.014": 0.0,
			"-0.013": 0.0,
			"-0.012": 0.0,
			"-0.011": 0.0,
			"-0.01": 0.0,
			"-0.009": 0.0,
			"-0.008": 0.00948924837192,
			"-0.007": 4.68007602543,
			"-0.006": 15.7833917406,
			"-0.005": 15.4426578051,
			"-0.004": 18.4672700359,
			"-0.003": 26.2731315273,
			"-0.002": 29.6318517106,
			"-0.001": 22.3247810284,
			"0.0": 21.6945339371,
			"0.001": 17.3827011013,
			"0.002": 21.5028538287,
			"0.003": 38.8634953648,
			"0.004": 12.8596240851,
			"0.005": 2.6669910259,
			"0.006": 1.88690146389,
			"0.007": 2.36796587392,
			"0.008": 1.4255225169,
			"0.009": 1.74805596129,
			"0.01": 2.28729072968,
			"0.011": 2.80325999785,
			"0.012": 4.94480507467,
			"0.013": 2.06544108361,
			"0.014": 0.156362521501,
			"0.015": 0.0,
			"0.016": 0.0,
			"0.017": 0.0,
			"0.018": 0.0,
			"0.019": 0.0,
			"0.02": 0.0,
			"0.021": 0.0,
			"0.022": 0.0,
			"0.023": 0.0,
			"0.024": 0.0,
			"0.025": 0.0
		}
	}
}
