{
	 "smiles": "FC(F)(F)CCBr", 
	 "Tm": 298.15, 
	 "num_atms": 11, 
	 "gaussian": { 
		 "optdone": 1, 
		 "sigma_profile": "yes", 
		 "theory": "DFT", 
		 "functional": "B3LYP", 
		 "basiset": "6-31G**", 
		 "properties": { 
			 "R2extent": 2207.5538, 
			 "electric_dipole_moment_norm": 2.63900747631, 
			 "electric_quadrupole_moment_norm": 5.79158571205, 
			 "total_energy": -2987.66802245, 
			 "HOMO_LUMO_gap": 0.27048, 
			 "cosmo_polarized_energy": -6.09, 
			 "cosmo_cavitation_energy": 18.01, 
			 "cosmo_dispersion_energy": -13.38, 
			 "cosmo_repulsion_energy": 1.09, 
			 "cosmo_total_nonelectrostatic_energy": 5.72, 
			 "SMD_solvation_energy": 3.14 
		},
		"coords": [
			{
				"x": -2.1422595618,
				"y": -1.0132490606,
				"z": -2.367820224,
				"element": "F" 
			},
			{
				"x": -1.4731485182,
				"y": 0.1525211705,
				"z": -2.3695606414,
				"element": "C" 
			},
			{
				"x": -2.0376376393,
				"y": 0.9433198355,
				"z": -3.3090237587,
				"element": "F" 
			},
			{
				"x": -0.2047386462,
				"y": -0.1065859424,
				"z": -2.7668399934,
				"element": "F" 
			},
			{
				"x": -1.4910492406,
				"y": 0.8506906182,
				"z": -1.0226908843,
				"element": "C" 
			},
			{
				"x": -0.687069607,
				"y": 0.1614400277,
				"z": 0.0708990607,
				"element": "C" 
			},
			{
				"x": -1.5469128039,
				"y": -1.4705218606,
				"z": 0.7793382014,
				"element": "Br" 
			},
			{
				"x": -2.5321738481,
				"y": 0.9930497243,
				"z": -0.7228811717,
				"element": "H" 
			},
			{
				"x": -1.054933011,
				"y": 1.8428946527,
				"z": -1.188683582,
				"element": "H" 
			},
			{
				"x": 0.294616701,
				"y": -0.1466855561,
				"z": -0.2856714655,
				"element": "H" 
			},
			{
				"x": -0.5735938249,
				"y": 0.8173263908,
				"z": 0.9321344589,
				"element": "H" 
			}
		],
		 "valence_orbital": [ 
			{
				"type": "occ",
				"energy": -0.40101,
				"method": "rhf"
			},
			{
				"type": "occ",
				"energy": -0.37804,
				"method": "rhf"
			},
			{
				"type": "occ",
				"energy": -0.36797,
				"method": "rhf"
			},
			{
				"type": "occ",
				"energy": -0.28141,
				"method": "rhf"
			},
			{
				"type": "occ",
				"energy": -0.27825,
				"method": "rhf"
			},
			{
				"type": "unocc",
				"energy": -0.00777,
				"method": "rhf"
			},
			{
				"type": "unocc",
				"energy": 0.07849,
				"method": "rhf"
			},
			{
				"type": "unocc",
				"energy": 0.11637,
				"method": "rhf"
			},
			{
				"type": "unocc",
				"energy": 0.12135,
				"method": "rhf"
			},
			{
				"type": "unocc",
				"energy": 0.13453,
				"method": "rhf"
			}
		],
		"cosmo_sigma_profile": { 
			"-0.025": 0.0,
			"-0.024": 0.0,
			"-0.023": 0.0,
			"-0.022": 0.0,
			"-0.021": 0.0,
			"-0.02": 0.0,
			"-0.019": 0.0,
			"-0.018": 0.0,
			"-0.017": 0.0,
			"-0.016": 0.0,
			"-0.015": 0.0,
			"-0.014": 0.0,
			"-0.013": 0.0,
			"-0.012": 0.0,
			"-0.011": 0.0,
			"-0.01": 0.0,
			"-0.009": 0.598026349299,
			"-0.008": 7.50008919714,
			"-0.007": 9.26370148703,
			"-0.006": 8.93600202659,
			"-0.005": 8.11175533376,
			"-0.004": 6.10826280345,
			"-0.003": 5.30019505347,
			"-0.002": 5.23350094989,
			"-0.001": 6.05166054278,
			"0.0": 5.87859895852,
			"0.001": 8.4655375873,
			"0.002": 13.3174849904,
			"0.003": 31.2796350087,
			"0.004": 10.133776497,
			"0.005": 8.60184801832,
			"0.006": 10.5692835848,
			"0.007": 0.597749363507,
			"0.008": 0.0,
			"0.009": 0.0,
			"0.01": 0.0,
			"0.011": 0.0,
			"0.012": 0.0,
			"0.013": 0.0,
			"0.014": 0.0,
			"0.015": 0.0,
			"0.016": 0.0,
			"0.017": 0.0,
			"0.018": 0.0,
			"0.019": 0.0,
			"0.02": 0.0,
			"0.021": 0.0,
			"0.022": 0.0,
			"0.023": 0.0,
			"0.024": 0.0,
			"0.025": 0.0
		}
	}
}
