{
	 "smiles": "NS(=O)(=O)C1=C(Cl)C=CC(Br)=C1", 
	 "Tm": 453.15, 
	 "num_atms": 17, 
	 "gaussian": { 
		 "optdone": 1, 
		 "sigma_profile": "yes", 
		 "theory": "DFT", 
		 "functional": "B3LYP", 
		 "basiset": "6-31G**", 
		 "properties": { 
			 "R2extent": 5344.0056, 
			 "electric_dipole_moment_norm": 3.47701405519, 
			 "electric_quadrupole_moment_norm": 13.2559459285, 
			 "total_energy": -3866.55648334, 
			 "HOMO_LUMO_gap": 0.20174, 
			 "cosmo_polarized_energy": -14.13, 
			 "cosmo_cavitation_energy": 26.83, 
			 "cosmo_dispersion_energy": -20.88, 
			 "cosmo_repulsion_energy": 1.62, 
			 "cosmo_total_nonelectrostatic_energy": 7.56, 
			 "SMD_solvation_energy": 2.85 
		},
		"coords": [
			{
				"x": 0.1850443351,
				"y": -2.3487899167,
				"z": -0.9605158635,
				"element": "N" 
			},
			{
				"x": 0.3850981902,
				"y": -0.9498367399,
				"z": -0.0439047381,
				"element": "S" 
			},
			{
				"x": 1.7916613991,
				"y": -0.805397793,
				"z": 0.3269552999,
				"element": "O" 
			},
			{
				"x": -0.6797864675,
				"y": -0.9612491654,
				"z": 0.9618104323,
				"element": "O" 
			},
			{
				"x": -0.0254560526,
				"y": 0.3633601583,
				"z": -1.2153169915,
				"element": "C" 
			},
			{
				"x": 0.6839800429,
				"y": 0.603670908,
				"z": -2.3997329896,
				"element": "C" 
			},
			{
				"x": 2.0136906161,
				"y": -0.4084026521,
				"z": -2.9144468876,
				"element": "Cl" 
			},
			{
				"x": 0.3218339852,
				"y": 1.6740112606,
				"z": -3.2181877228,
				"element": "C" 
			},
			{
				"x": -0.7350359016,
				"y": 2.5088471498,
				"z": -2.8605641318,
				"element": "C" 
			},
			{
				"x": -1.4326803469,
				"y": 2.2637207517,
				"z": -1.6796488752,
				"element": "C" 
			},
			{
				"x": -2.8808037563,
				"y": 3.3981896088,
				"z": -1.1861659097,
				"element": "Br" 
			},
			{
				"x": -1.0860828341,
				"y": 1.1973574871,
				"z": -0.8547904344,
				"element": "C" 
			},
			{
				"x": -0.4412096121,
				"y": -2.9802070693,
				"z": -0.468560853,
				"element": "H" 
			},
			{
				"x": 1.0823837408,
				"y": -2.7754040593,
				"z": -1.1715905349,
				"element": "H" 
			},
			{
				"x": 0.8713915463,
				"y": 1.8510636512,
				"z": -4.1359271534,
				"element": "H" 
			},
			{
				"x": -1.0112474531,
				"y": 3.3406542728,
				"z": -3.4981130733,
				"element": "H" 
			},
			{
				"x": -1.6231814316,
				"y": 0.9963121475,
				"z": 0.0638004266,
				"element": "H" 
			}
		],
		 "valence_orbital": [ 
			{
				"type": "occ",
				"energy": -0.31482,
				"method": "rhf"
			},
			{
				"type": "occ",
				"energy": -0.30455,
				"method": "rhf"
			},
			{
				"type": "occ",
				"energy": -0.30222,
				"method": "rhf"
			},
			{
				"type": "occ",
				"energy": -0.28655,
				"method": "rhf"
			},
			{
				"type": "occ",
				"energy": -0.25776,
				"method": "rhf"
			},
			{
				"type": "unocc",
				"energy": -0.05602,
				"method": "rhf"
			},
			{
				"type": "unocc",
				"energy": -0.04161,
				"method": "rhf"
			},
			{
				"type": "unocc",
				"energy": -0.01565,
				"method": "rhf"
			},
			{
				"type": "unocc",
				"energy": 0.01023,
				"method": "rhf"
			},
			{
				"type": "unocc",
				"energy": 0.05615,
				"method": "rhf"
			}
		],
		"cosmo_sigma_profile": { 
			"-0.025": 0.0,
			"-0.024": 0.0,
			"-0.023": 0.0,
			"-0.022": 0.0,
			"-0.021": 0.0,
			"-0.02": 0.0,
			"-0.019": 0.0,
			"-0.018": 0.0,
			"-0.017": 0.0,
			"-0.016": 0.076500842439,
			"-0.015": 2.03854980994,
			"-0.014": 1.93369439365,
			"-0.013": 2.51450023687,
			"-0.012": 2.80858473081,
			"-0.011": 1.80116419902,
			"-0.01": 1.01183699304,
			"-0.009": 4.61384298876,
			"-0.008": 6.39510742223,
			"-0.007": 6.00481529094,
			"-0.006": 5.85174449197,
			"-0.005": 7.48667458692,
			"-0.004": 8.99380559665,
			"-0.003": 11.9161172326,
			"-0.002": 12.7491971197,
			"-0.001": 19.8090391105,
			"0.0": 26.5505645212,
			"0.001": 15.1365877947,
			"0.002": 14.3659275963,
			"0.003": 17.1592213966,
			"0.004": 12.8453422446,
			"0.005": 4.43765821709,
			"0.006": 4.36408387606,
			"0.007": 3.80431816539,
			"0.008": 3.36423373088,
			"0.009": 5.68128001275,
			"0.01": 10.5960064652,
			"0.011": 6.36367480889,
			"0.012": 0.121848904388,
			"0.013": 0.0,
			"0.014": 0.0,
			"0.015": 0.0,
			"0.016": 0.0,
			"0.017": 0.0,
			"0.018": 0.0,
			"0.019": 0.0,
			"0.02": 0.0,
			"0.021": 0.0,
			"0.022": 0.0,
			"0.023": 0.0,
			"0.024": 0.0,
			"0.025": 0.0
		}
	}
}
