{
	 "smiles": "CN(C)S(=O)(=O)C1=CC(C(O)=O)=C(C)O1", 
	 "Tm": 442.15, 
	 "num_atms": 26, 
	 "gaussian": { 
		 "optdone": 1, 
		 "sigma_profile": "yes", 
		 "theory": "DFT", 
		 "functional": "B3LYP", 
		 "basiset": "6-31G**", 
		 "properties": { 
			 "R2extent": 4023.2366, 
			 "electric_dipole_moment_norm": 3.49750353538, 
			 "electric_quadrupole_moment_norm": 32.2436410379, 
			 "total_energy": -1140.44721714, 
			 "HOMO_LUMO_gap": 0.20416, 
			 "cosmo_polarized_energy": -21.42, 
			 "cosmo_cavitation_energy": 31.74, 
			 "cosmo_dispersion_energy": -22.77, 
			 "cosmo_repulsion_energy": 1.75, 
			 "cosmo_total_nonelectrostatic_energy": 10.72, 
			 "SMD_solvation_energy": 5.93 
		},
		"coords": [
			{
				"x": -2.2456651068,
				"y": 2.0732616591,
				"z": 2.1749999402,
				"element": "C" 
			},
			{
				"x": -0.8186081346,
				"y": 2.4059877246,
				"z": 2.1037790241,
				"element": "N" 
			},
			{
				"x": 0.0024736297,
				"y": 1.9118785627,
				"z": 3.2125885104,
				"element": "C" 
			},
			{
				"x": -0.1087373506,
				"y": 2.4040744617,
				"z": 0.5866580037,
				"element": "S" 
			},
			{
				"x": 1.2587222035,
				"y": 2.8956764025,
				"z": 0.7466343173,
				"element": "O" 
			},
			{
				"x": -1.0662158746,
				"y": 3.0101242852,
				"z": -0.3328027421,
				"element": "O" 
			},
			{
				"x": 0.0972676708,
				"y": 0.7037137643,
				"z": 0.1099086789,
				"element": "C" 
			},
			{
				"x": 1.2183557015,
				"y": -0.0506319721,
				"z": -0.0341629024,
				"element": "C" 
			},
			{
				"x": 0.7649910512,
				"y": -1.3566878799,
				"z": -0.4327312731,
				"element": "C" 
			},
			{
				"x": 1.5655995809,
				"y": -2.568303534,
				"z": -0.7300044445,
				"element": "C" 
			},
			{
				"x": 2.9048316029,
				"y": -2.3840521045,
				"z": -0.8604525389,
				"element": "O" 
			},
			{
				"x": 1.0980811539,
				"y": -3.6785164566,
				"z": -0.851339788,
				"element": "O" 
			},
			{
				"x": -0.6124704958,
				"y": -1.2918571696,
				"z": -0.488094104,
				"element": "C" 
			},
			{
				"x": -1.6713562443,
				"y": -2.2744714896,
				"z": -0.8302861874,
				"element": "C" 
			},
			{
				"x": -1.0212515912,
				"y": -0.0365733097,
				"z": -0.1618809141,
				"element": "O" 
			},
			{
				"x": -2.764893358,
				"y": 2.52434552,
				"z": 1.3305217305,
				"element": "H" 
			},
			{
				"x": -2.644389121,
				"y": 2.4991404337,
				"z": 3.100119053,
				"element": "H" 
			},
			{
				"x": -2.4245700521,
				"y": 0.9885860256,
				"z": 2.1798674391,
				"element": "H" 
			},
			{
				"x": 1.0187639933,
				"y": 2.290043019,
				"z": 3.1075143076,
				"element": "H" 
			},
			{
				"x": 0.0207246215,
				"y": 0.8131067952,
				"z": 3.2678481784,
				"element": "H" 
			},
			{
				"x": -0.4196395656,
				"y": 2.3007348554,
				"z": 4.1433074736,
				"element": "H" 
			},
			{
				"x": 2.2237147066,
				"y": 0.3051877714,
				"z": 0.1411833524,
				"element": "H" 
			},
			{
				"x": 3.1279302393,
				"y": -1.4432971683,
				"z": -0.8513398404,
				"element": "H" 
			},
			{
				"x": -1.2070267868,
				"y": -3.2342049729,
				"z": -1.0534380973,
				"element": "H" 
			},
			{
				"x": -2.366778319,
				"y": -2.3972207153,
				"z": 0.0074393856,
				"element": "H" 
			},
			{
				"x": -2.2513541545,
				"y": -1.931744508,
				"z": -1.6941365625,
				"element": "H" 
			}
		],
		 "valence_orbital": [ 
			{
				"type": "occ",
				"energy": -0.31675,
				"method": "rhf"
			},
			{
				"type": "occ",
				"energy": -0.3141,
				"method": "rhf"
			},
			{
				"type": "occ",
				"energy": -0.28596,
				"method": "rhf"
			},
			{
				"type": "occ",
				"energy": -0.28173,
				"method": "rhf"
			},
			{
				"type": "occ",
				"energy": -0.25505,
				"method": "rhf"
			},
			{
				"type": "unocc",
				"energy": -0.05089,
				"method": "rhf"
			},
			{
				"type": "unocc",
				"energy": -0.03075,
				"method": "rhf"
			},
			{
				"type": "unocc",
				"energy": 0.04868,
				"method": "rhf"
			},
			{
				"type": "unocc",
				"energy": 0.05782,
				"method": "rhf"
			},
			{
				"type": "unocc",
				"energy": 0.06239,
				"method": "rhf"
			}
		],
		"cosmo_sigma_profile": { 
			"-0.025": 0.0,
			"-0.024": 0.0,
			"-0.023": 0.0,
			"-0.022": 0.0,
			"-0.021": 0.0,
			"-0.02": 0.207836799651,
			"-0.019": 0.857358151772,
			"-0.018": 1.42031254444,
			"-0.017": 1.12439816187,
			"-0.016": 0.902143307589,
			"-0.015": 1.03608562667,
			"-0.014": 0.946722482506,
			"-0.013": 1.02303724773,
			"-0.012": 1.15922190373,
			"-0.011": 1.85852684642,
			"-0.01": 1.09515793354,
			"-0.009": 1.08086138705,
			"-0.008": 1.14261242654,
			"-0.007": 4.5348699154,
			"-0.006": 13.5999710531,
			"-0.005": 18.5259774073,
			"-0.004": 21.6505473523,
			"-0.003": 29.024023943,
			"-0.002": 27.808922843,
			"-0.001": 16.1768339742,
			"0.0": 12.048467172,
			"0.001": 8.72169347655,
			"0.002": 6.60508030819,
			"0.003": 5.98266403866,
			"0.004": 8.25349530468,
			"0.005": 7.79858731821,
			"0.006": 7.65640233973,
			"0.007": 6.44414700739,
			"0.008": 6.07678676859,
			"0.009": 8.8702506368,
			"0.01": 13.8831450176,
			"0.011": 10.4622043564,
			"0.012": 3.05976050855,
			"0.013": 1.17504357987,
			"0.014": 0.0,
			"0.015": 0.0,
			"0.016": 0.0,
			"0.017": 0.0,
			"0.018": 0.0,
			"0.019": 0.0,
			"0.02": 0.0,
			"0.021": 0.0,
			"0.022": 0.0,
			"0.023": 0.0,
			"0.024": 0.0,
			"0.025": 0.0
		}
	}
}
