{
	 "smiles": "[O-][N+](=O)C1=CC=C(C=C1)N=C=O", 
	 "Tm": 330.65, 
	 "num_atms": 16, 
	 "gaussian": { 
		 "optdone": 1, 
		 "sigma_profile": "yes", 
		 "theory": "DFT", 
		 "functional": "B3LYP", 
		 "basiset": "6-31G**", 
		 "properties": { 
			 "R2extent": 2818.5581, 
			 "electric_dipole_moment_norm": 2.72125891087, 
			 "electric_quadrupole_moment_norm": 19.1582200368, 
			 "total_energy": -604.227579027, 
			 "HOMO_LUMO_gap": 0.16939, 
			 "cosmo_polarized_energy": -9.33, 
			 "cosmo_cavitation_energy": 23.12, 
			 "cosmo_dispersion_energy": -16.66, 
			 "cosmo_repulsion_energy": 1.32, 
			 "cosmo_total_nonelectrostatic_energy": 7.79, 
			 "SMD_solvation_energy": 8.66 
		},
		"coords": [
			{
				"x": -0.7805768057,
				"y": 1.978645423,
				"z": -3.4726055767,
				"element": "O" 
			},
			{
				"x": -1.2203249208,
				"y": 1.075800629,
				"z": -2.7606323948,
				"element": "N" 
			},
			{
				"x": -2.1708589355,
				"y": 0.3504214729,
				"z": -3.0526189168,
				"element": "O" 
			},
			{
				"x": -0.5624746071,
				"y": 0.8475948705,
				"z": -1.468080094,
				"element": "C" 
			},
			{
				"x": 0.5178074102,
				"y": 1.652729217,
				"z": -1.1070937058,
				"element": "C" 
			},
			{
				"x": 1.1401570879,
				"y": 1.4372122316,
				"z": 0.1151565932,
				"element": "C" 
			},
			{
				"x": 0.6787689321,
				"y": 0.418724604,
				"z": 0.9680982394,
				"element": "C" 
			},
			{
				"x": -0.4097739398,
				"y": -0.3803014968,
				"z": 0.5860476164,
				"element": "C" 
			},
			{
				"x": -1.0343930564,
				"y": -0.1668610499,
				"z": -0.6362401873,
				"element": "C" 
			},
			{
				"x": 1.271842491,
				"y": 0.1672864722,
				"z": 2.2016143377,
				"element": "N" 
			},
			{
				"x": 2.1788925892,
				"y": 0.5858515472,
				"z": 2.88916225,
				"element": "C" 
			},
			{
				"x": 3.0202271028,
				"y": 0.8909987862,
				"z": 3.6510290814,
				"element": "O" 
			},
			{
				"x": 0.8516250913,
				"y": 2.4293831755,
				"z": -1.783666464,
				"element": "H" 
			},
			{
				"x": 1.9824487501,
				"y": 2.0522036285,
				"z": 0.4156347824,
				"element": "H" 
			},
			{
				"x": -0.7514367382,
				"y": -1.1605935312,
				"z": 1.2565330587,
				"element": "H" 
			},
			{
				"x": -1.8759304511,
				"y": -0.7682959799,
				"z": -0.9559386197,
				"element": "H" 
			}
		],
		 "valence_orbital": [ 
			{
				"type": "occ",
				"energy": -0.31465,
				"method": "rhf"
			},
			{
				"type": "occ",
				"energy": -0.31247,
				"method": "rhf"
			},
			{
				"type": "occ",
				"energy": -0.29559,
				"method": "rhf"
			},
			{
				"type": "occ",
				"energy": -0.29211,
				"method": "rhf"
			},
			{
				"type": "occ",
				"energy": -0.26691,
				"method": "rhf"
			},
			{
				"type": "unocc",
				"energy": -0.09752,
				"method": "rhf"
			},
			{
				"type": "unocc",
				"energy": -0.04079,
				"method": "rhf"
			},
			{
				"type": "unocc",
				"energy": -0.02233,
				"method": "rhf"
			},
			{
				"type": "unocc",
				"energy": -0.01108,
				"method": "rhf"
			},
			{
				"type": "unocc",
				"energy": 0.06128,
				"method": "rhf"
			}
		],
		"cosmo_sigma_profile": { 
			"-0.025": 0.0,
			"-0.024": 0.0,
			"-0.023": 0.0,
			"-0.022": 0.0,
			"-0.021": 0.0,
			"-0.02": 0.0,
			"-0.019": 0.0,
			"-0.018": 0.0,
			"-0.017": 0.0,
			"-0.016": 0.0,
			"-0.015": 0.0,
			"-0.014": 0.0,
			"-0.013": 0.0,
			"-0.012": 0.0,
			"-0.011": 0.0,
			"-0.01": 0.447409213241,
			"-0.009": 2.98195682843,
			"-0.008": 6.48136359128,
			"-0.007": 9.03586663578,
			"-0.006": 9.85866944923,
			"-0.005": 8.06717349477,
			"-0.004": 11.4370849228,
			"-0.003": 12.5314964719,
			"-0.002": 13.8695619884,
			"-0.001": 15.7982447537,
			"0.0": 20.9097620159,
			"0.001": 15.8833443141,
			"0.002": 6.7056147881,
			"0.003": 6.28483527349,
			"0.004": 5.62959546245,
			"0.005": 5.77740120159,
			"0.006": 8.63974808957,
			"0.007": 12.3738943136,
			"0.008": 7.78319080869,
			"0.009": 4.53483212602,
			"0.01": 2.8057429877,
			"0.011": 0.168001433242,
			"0.012": 0.0,
			"0.013": 0.0,
			"0.014": 0.0,
			"0.015": 0.0,
			"0.016": 0.0,
			"0.017": 0.0,
			"0.018": 0.0,
			"0.019": 0.0,
			"0.02": 0.0,
			"0.021": 0.0,
			"0.022": 0.0,
			"0.023": 0.0,
			"0.024": 0.0,
			"0.025": 0.0
		}
	}
}
