{
	 "smiles": "CC1=CC=C(NC(=O)CO)C=C1", 
	 "Tm": 413.15, 
	 "num_atms": 23, 
	 "gaussian": { 
		 "optdone": 1, 
		 "sigma_profile": "yes", 
		 "theory": "DFT", 
		 "functional": "B3LYP", 
		 "basiset": "6-31G**", 
		 "properties": { 
			 "R2extent": 2591.6837, 
			 "electric_dipole_moment_norm": 4.71952540834, 
			 "electric_quadrupole_moment_norm": 12.3555596191, 
			 "total_energy": -554.788926666, 
			 "HOMO_LUMO_gap": 0.20412, 
			 "cosmo_polarized_energy": -13.86, 
			 "cosmo_cavitation_energy": 26.49, 
			 "cosmo_dispersion_energy": -19.27, 
			 "cosmo_repulsion_energy": 1.55, 
			 "cosmo_total_nonelectrostatic_energy": 8.77, 
			 "SMD_solvation_energy": 5.24 
		},
		"coords": [
			{
				"x": -0.2727503752,
				"y": 0.2104566799,
				"z": -3.9129900738,
				"element": "C" 
			},
			{
				"x": -0.0343469574,
				"y": -0.0766877197,
				"z": -2.44975393,
				"element": "C" 
			},
			{
				"x": 0.6036985192,
				"y": -1.2564169902,
				"z": -2.0383280993,
				"element": "C" 
			},
			{
				"x": 0.7901079059,
				"y": -1.5505529267,
				"z": -0.6911314582,
				"element": "C" 
			},
			{
				"x": 0.3595895685,
				"y": -0.6549554757,
				"z": 0.2986933379,
				"element": "C" 
			},
			{
				"x": 0.5958707078,
				"y": -0.9613776672,
				"z": 1.6581517577,
				"element": "N" 
			},
			{
				"x": -0.2003244327,
				"y": -0.805108443,
				"z": 2.7786305286,
				"element": "C" 
			},
			{
				"x": 0.261251362,
				"y": -1.020570112,
				"z": 3.8898692095,
				"element": "O" 
			},
			{
				"x": -1.6671684368,
				"y": -0.3774584135,
				"z": 2.6140602044,
				"element": "C" 
			},
			{
				"x": -2.380481515,
				"y": -0.9984700538,
				"z": 1.5659029424,
				"element": "O" 
			},
			{
				"x": -0.2418432899,
				"y": 0.5480325322,
				"z": -0.1000486846,
				"element": "C" 
			},
			{
				"x": -0.4504491843,
				"y": 0.8151615131,
				"z": -1.4549266578,
				"element": "C" 
			},
			{
				"x": -0.4523995306,
				"y": 1.2751165039,
				"z": -4.0873161745,
				"element": "H" 
			},
			{
				"x": 0.5827073827,
				"y": -0.0923276414,
				"z": -4.5251308418,
				"element": "H" 
			},
			{
				"x": -1.1475944556,
				"y": -0.3352103214,
				"z": -4.2880004255,
				"element": "H" 
			},
			{
				"x": 0.9492858098,
				"y": -1.9655858788,
				"z": -2.7864009202,
				"element": "H" 
			},
			{
				"x": 1.2625470096,
				"y": -2.4831126173,
				"z": -0.3954369834,
				"element": "H" 
			},
			{
				"x": 1.4829899189,
				"y": -1.3943368131,
				"z": 1.8853781081,
				"element": "H" 
			},
			{
				"x": -2.146533589,
				"y": -0.6710246098,
				"z": 3.5497227291,
				"element": "H" 
			},
			{
				"x": -1.7101824596,
				"y": 0.7228656762,
				"z": 2.5637363033,
				"element": "H" 
			},
			{
				"x": -2.0877288437,
				"y": -0.6210130981,
				"z": 0.725459276,
				"element": "H" 
			},
			{
				"x": -0.5103034497,
				"y": 1.2913664431,
				"z": 0.6441451633,
				"element": "H" 
			},
			{
				"x": -0.9230416648,
				"y": 1.7517094334,
				"z": -1.7398853113,
				"element": "H" 
			}
		],
		 "valence_orbital": [ 
			{
				"type": "occ",
				"energy": -0.29939,
				"method": "rhf"
			},
			{
				"type": "occ",
				"energy": -0.2942,
				"method": "rhf"
			},
			{
				"type": "occ",
				"energy": -0.26889,
				"method": "rhf"
			},
			{
				"type": "occ",
				"energy": -0.24237,
				"method": "rhf"
			},
			{
				"type": "occ",
				"energy": -0.22948,
				"method": "rhf"
			},
			{
				"type": "unocc",
				"energy": -0.02536,
				"method": "rhf"
			},
			{
				"type": "unocc",
				"energy": -0.02058,
				"method": "rhf"
			},
			{
				"type": "unocc",
				"energy": 0.02667,
				"method": "rhf"
			},
			{
				"type": "unocc",
				"energy": 0.07716,
				"method": "rhf"
			},
			{
				"type": "unocc",
				"energy": 0.09123,
				"method": "rhf"
			}
		],
		"cosmo_sigma_profile": { 
			"-0.025": 0.0,
			"-0.024": 0.0,
			"-0.023": 0.0,
			"-0.022": 0.0,
			"-0.021": 0.0,
			"-0.02": 0.0,
			"-0.019": 0.0,
			"-0.018": 0.0,
			"-0.017": 0.0,
			"-0.016": 0.0,
			"-0.015": 0.167348916196,
			"-0.014": 0.751340464682,
			"-0.013": 1.08759447382,
			"-0.012": 0.874093793247,
			"-0.011": 1.08958750929,
			"-0.01": 1.28818332411,
			"-0.009": 2.54648657248,
			"-0.008": 5.50393897687,
			"-0.007": 6.78690905074,
			"-0.006": 10.0811631699,
			"-0.005": 13.8091625542,
			"-0.004": 18.7445060134,
			"-0.003": 16.9758917655,
			"-0.002": 15.1806362464,
			"-0.001": 15.2877499857,
			"0.0": 16.6049406861,
			"0.001": 12.5352750666,
			"0.002": 11.9659214037,
			"0.003": 11.0437459509,
			"0.004": 9.16499577292,
			"0.005": 7.53261200158,
			"0.006": 2.57853043052,
			"0.007": 2.33390269973,
			"0.008": 1.87869716792,
			"0.009": 2.47575908781,
			"0.01": 2.32640280268,
			"0.011": 3.31405891089,
			"0.012": 4.11768395772,
			"0.013": 7.44329115167,
			"0.014": 3.79893177474,
			"0.015": 0.0785730268977,
			"0.016": 0.0,
			"0.017": 0.0,
			"0.018": 0.0,
			"0.019": 0.0,
			"0.02": 0.0,
			"0.021": 0.0,
			"0.022": 0.0,
			"0.023": 0.0,
			"0.024": 0.0,
			"0.025": 0.0
		}
	}
}
