{
	 "smiles": "[O-][N+](=O)C1=CC(=CC=C1C(Cl)C(Cl)C1=CC=CC(=C1)C(Cl)C(Cl)C1=C(C=C(C=C1)C#N)[N+]([O-])=O)C#N", 
	 "Tm": 521.15, 
	 "num_atms": 50, 
	 "gaussian": { 
		 "optdone": 1, 
		 "sigma_profile": "yes", 
		 "theory": "DFT", 
		 "functional": "B3LYP", 
		 "basiset": "6-31G**", 
		 "properties": { 
			 "R2extent": 19470.4867, 
			 "electric_dipole_moment_norm": 9.22495590992, 
			 "electric_quadrupole_moment_norm": 30.0205932708, 
			 "total_energy": -3283.40058198, 
			 "HOMO_LUMO_gap": 0.15938, 
			 "cosmo_polarized_energy": -34.72, 
			 "cosmo_cavitation_energy": 63.38, 
			 "cosmo_dispersion_energy": -37.63, 
			 "cosmo_repulsion_energy": 2.76, 
			 "cosmo_total_nonelectrostatic_energy": 28.51, 
			 "SMD_solvation_energy": 15.0 
		},
		"coords": [
			{
				"x": 2.7300441037,
				"y": 1.3479891868,
				"z": 4.1652523598,
				"element": "O" 
			},
			{
				"x": 2.234060269,
				"y": 1.2146592454,
				"z": 3.0569131411,
				"element": "N" 
			},
			{
				"x": 2.6548796847,
				"y": 0.4898180478,
				"z": 2.1556059978,
				"element": "O" 
			},
			{
				"x": 1.057347177,
				"y": 2.0496678553,
				"z": 2.7299581946,
				"element": "C" 
			},
			{
				"x": 1.2806416833,
				"y": 2.9428490403,
				"z": 1.6876781788,
				"element": "C" 
			},
			{
				"x": 0.2683390853,
				"y": 3.8298734032,
				"z": 1.3044446741,
				"element": "C" 
			},
			{
				"x": -0.9666734642,
				"y": 3.7867064014,
				"z": 1.9647660612,
				"element": "C" 
			},
			{
				"x": -1.171236466,
				"y": 2.8551164481,
				"z": 2.9745276707,
				"element": "C" 
			},
			{
				"x": -0.1788998097,
				"y": 1.9514597444,
				"z": 3.3945373839,
				"element": "C" 
			},
			{
				"x": -0.6071909067,
				"y": 0.9677854905,
				"z": 4.474904725,
				"element": "C" 
			},
			{
				"x": 0.1822862014,
				"y": 1.3081666229,
				"z": 6.0791886154,
				"element": "Cl" 
			},
			{
				"x": -0.6454897712,
				"y": -0.5578341917,
				"z": 4.1806282436,
				"element": "C" 
			},
			{
				"x": 0.9667498083,
				"y": -1.3888428468,
				"z": 4.2402514868,
				"element": "Cl" 
			},
			{
				"x": -1.3832927316,
				"y": -0.8749247423,
				"z": 2.89295293,
				"element": "C" 
			},
			{
				"x": -2.7091503034,
				"y": -1.3169543813,
				"z": 2.966263741,
				"element": "C" 
			},
			{
				"x": -3.4222260175,
				"y": -1.6027424591,
				"z": 1.8014174711,
				"element": "C" 
			},
			{
				"x": -2.8145319285,
				"y": -1.4471366516,
				"z": 0.5589579248,
				"element": "C" 
			},
			{
				"x": -1.4881818145,
				"y": -1.0022528209,
				"z": 0.4668353602,
				"element": "C" 
			},
			{
				"x": -0.779860475,
				"y": -0.7222551525,
				"z": 1.6383636826,
				"element": "C" 
			},
			{
				"x": -0.8947885418,
				"y": -0.7991456889,
				"z": -0.9076481994,
				"element": "C" 
			},
			{
				"x": -1.228550891,
				"y": 0.9340692501,
				"z": -1.4583145241,
				"element": "Cl" 
			},
			{
				"x": 0.6157554418,
				"y": -1.0605601297,
				"z": -1.0580100768,
				"element": "C" 
			},
			{
				"x": 0.9164794038,
				"y": -2.8129332608,
				"z": -0.6019552313,
				"element": "Cl" 
			},
			{
				"x": 1.1299807421,
				"y": -0.8332227774,
				"z": -2.4716400037,
				"element": "C" 
			},
			{
				"x": 2.1184888877,
				"y": 0.1013729654,
				"z": -2.833854518,
				"element": "C" 
			},
			{
				"x": 2.5786490126,
				"y": 0.2265311334,
				"z": -4.1441260574,
				"element": "C" 
			},
			{
				"x": 2.0330177428,
				"y": -0.5735189302,
				"z": -5.1502988208,
				"element": "C" 
			},
			{
				"x": 1.0440859564,
				"y": -1.5149454384,
				"z": -4.819935191,
				"element": "C" 
			},
			{
				"x": 0.6230977818,
				"y": -1.6386721392,
				"z": -3.5043305231,
				"element": "C" 
			},
			{
				"x": 2.4836335445,
				"y": -0.4381619958,
				"z": -6.5049601872,
				"element": "C" 
			},
			{
				"x": 2.8414028361,
				"y": -0.3362948048,
				"z": -7.6064208715,
				"element": "N" 
			},
			{
				"x": 2.7452034361,
				"y": 1.0333755045,
				"z": -1.8691973267,
				"element": "N" 
			},
			{
				"x": 2.104362169,
				"y": 1.3546706198,
				"z": -0.8677158618,
				"element": "O" 
			},
			{
				"x": 3.8645396946,
				"y": 1.452699213,
				"z": -2.142400392,
				"element": "O" 
			},
			{
				"x": 0.4910819318,
				"y": 4.7621201053,
				"z": 0.2379462985,
				"element": "C" 
			},
			{
				"x": 0.6594286751,
				"y": 5.5236483272,
				"z": -0.6242107587,
				"element": "N" 
			},
			{
				"x": 2.2273689155,
				"y": 2.926439485,
				"z": 1.1624759487,
				"element": "H" 
			},
			{
				"x": -1.7604611871,
				"y": 4.4666704372,
				"z": 1.6767735832,
				"element": "H" 
			},
			{
				"x": -2.1431609186,
				"y": 2.8184423372,
				"z": 3.4563797928,
				"element": "H" 
			},
			{
				"x": -1.6579678017,
				"y": 1.1966453527,
				"z": 4.6637300873,
				"element": "H" 
			},
			{
				"x": -1.1920894118,
				"y": -0.9925166386,
				"z": 5.0188779015,
				"element": "H" 
			},
			{
				"x": -3.1815203352,
				"y": -1.4522476719,
				"z": 3.9358809572,
				"element": "H" 
			},
			{
				"x": -4.4464730793,
				"y": -1.956673191,
				"z": 1.8650705109,
				"element": "H" 
			},
			{
				"x": -3.3712722464,
				"y": -1.6695028772,
				"z": -0.3473539552,
				"element": "H" 
			},
			{
				"x": 0.2570987262,
				"y": -0.4104724244,
				"z": 1.588736062,
				"element": "H" 
			},
			{
				"x": -1.4383471581,
				"y": -1.4088071287,
				"z": -1.6304331856,
				"element": "H" 
			},
			{
				"x": 1.1792182154,
				"y": -0.4741313609,
				"z": -0.3418629241,
				"element": "H" 
			},
			{
				"x": 3.3528177243,
				"y": 0.9501936407,
				"z": -4.3629832903,
				"element": "H" 
			},
			{
				"x": 0.6214747934,
				"y": -2.1474392858,
				"z": -5.5927860455,
				"element": "H" 
			},
			{
				"x": -0.1063683845,
				"y": -2.4023808673,
				"z": -3.2578810401,
				"element": "H" 
			}
		],
		 "valence_orbital": [ 
			{
				"type": "occ",
				"energy": -0.29427,
				"method": "rhf"
			},
			{
				"type": "occ",
				"energy": -0.29196,
				"method": "rhf"
			},
			{
				"type": "occ",
				"energy": -0.28757,
				"method": "rhf"
			},
			{
				"type": "occ",
				"energy": -0.2765,
				"method": "rhf"
			},
			{
				"type": "occ",
				"energy": -0.27543,
				"method": "rhf"
			},
			{
				"type": "unocc",
				"energy": -0.11605,
				"method": "rhf"
			},
			{
				"type": "unocc",
				"energy": -0.09662,
				"method": "rhf"
			},
			{
				"type": "unocc",
				"energy": -0.08641,
				"method": "rhf"
			},
			{
				"type": "unocc",
				"energy": -0.07861,
				"method": "rhf"
			},
			{
				"type": "unocc",
				"energy": -0.05704,
				"method": "rhf"
			}
		],
		"cosmo_sigma_profile": { 
			"-0.025": 0.0,
			"-0.024": 0.0253136343891,
			"-0.023": 0.0123296706109,
			"-0.022": 0.0,
			"-0.021": 0.0,
			"-0.02": 0.0,
			"-0.019": 0.000594791257237,
			"-0.018": 0.00521865574276,
			"-0.017": 0.0,
			"-0.016": 0.0,
			"-0.015": 0.0,
			"-0.014": 0.00391153949012,
			"-0.013": 0.0325013540187,
			"-0.012": 1.08552583299,
			"-0.011": 5.21171534263,
			"-0.01": 12.3726681964,
			"-0.009": 19.7035229594,
			"-0.008": 20.3103104811,
			"-0.007": 18.2625306719,
			"-0.006": 19.657021557,
			"-0.005": 20.7847971593,
			"-0.004": 21.6995310455,
			"-0.003": 30.1111504522,
			"-0.002": 30.4359411687,
			"-0.001": 32.8166811536,
			"0.0": 31.2235946859,
			"0.001": 32.5561565707,
			"0.002": 31.7155523416,
			"0.003": 37.4362133202,
			"0.004": 39.1837727969,
			"0.005": 33.2412532516,
			"0.006": 22.2909401766,
			"0.007": 18.3776464616,
			"0.008": 17.3727890371,
			"0.009": 8.84988156356,
			"0.01": 5.82453072731,
			"0.011": 4.66241736688,
			"0.012": 4.0601279757,
			"0.013": 1.34219158997,
			"0.014": -1.34267749494,
			"0.015": 0.0844838889774,
			"0.016": -0.0828885149774,
			"0.017": 0.535819337308,
			"0.018": -0.525664386308,
			"0.019": 0.117056249692,
			"0.02": -0.114812674692,
			"0.021": 0.0,
			"0.022": 0.0,
			"0.023": 1.24088618689,
			"0.024": 1.33567743291,
			"0.025": -2.50400777679
		}
	}
}
