{
	 "smiles": "CC1=CC(CBr)=CC(C)=C1F", 
	 "Tm": 318.15, 
	 "num_atms": 21, 
	 "gaussian": { 
		 "optdone": 1, 
		 "sigma_profile": "yes", 
		 "theory": "DFT", 
		 "functional": "B3LYP", 
		 "basiset": "6-31G**", 
		 "properties": { 
			 "R2extent": 4805.3852, 
			 "electric_dipole_moment_norm": 2.09101935907, 
			 "electric_quadrupole_moment_norm": 11.8302285312, 
			 "total_energy": -3020.24718854, 
			 "HOMO_LUMO_gap": 0.20239, 
			 "cosmo_polarized_energy": -6.15, 
			 "cosmo_cavitation_energy": 27.15, 
			 "cosmo_dispersion_energy": -19.67, 
			 "cosmo_repulsion_energy": 1.59, 
			 "cosmo_total_nonelectrostatic_energy": 9.06, 
			 "SMD_solvation_energy": 3.85 
		},
		"coords": [
			{
				"x": -1.5627612026,
				"y": 2.31003804,
				"z": 0.1068098129,
				"element": "C" 
			},
			{
				"x": -0.3082035055,
				"y": 1.483400121,
				"z": -0.0131786853,
				"element": "C" 
			},
			{
				"x": 0.1943277123,
				"y": 1.0406710368,
				"z": -1.239310464,
				"element": "C" 
			},
			{
				"x": 1.3623409763,
				"y": 0.2711609209,
				"z": -1.3172907108,
				"element": "C" 
			},
			{
				"x": 1.8701073087,
				"y": -0.2009588836,
				"z": -2.6382026291,
				"element": "C" 
			},
			{
				"x": 3.1503403439,
				"y": 1.1021628967,
				"z": -3.48567794,
				"element": "Br" 
			},
			{
				"x": 2.0410413138,
				"y": -0.0579422145,
				"z": -0.1368003732,
				"element": "C" 
			},
			{
				"x": 1.5781716538,
				"y": 0.3612293058,
				"z": 1.1129999003,
				"element": "C" 
			},
			{
				"x": 2.2819870487,
				"y": 0.0229129734,
				"z": 2.4021194491,
				"element": "C" 
			},
			{
				"x": 0.4097944524,
				"y": 1.1236766335,
				"z": 1.127761516,
				"element": "C" 
			},
			{
				"x": -0.0606341206,
				"y": 1.5398299317,
				"z": 2.3303873039,
				"element": "F" 
			},
			{
				"x": -2.0005856021,
				"y": 2.4981439687,
				"z": -0.8763752918,
				"element": "H" 
			},
			{
				"x": -1.3571828295,
				"y": 3.276072524,
				"z": 0.5801817195,
				"element": "H" 
			},
			{
				"x": -2.3131124923,
				"y": 1.8073287257,
				"z": 0.7264207628,
				"element": "H" 
			},
			{
				"x": -0.33486697,
				"y": 1.3059456179,
				"z": -2.151276957,
				"element": "H" 
			},
			{
				"x": 1.0815996851,
				"y": -0.3108726258,
				"z": -3.3801802637,
				"element": "H" 
			},
			{
				"x": 2.445847965,
				"y": -1.1216442318,
				"z": -2.5659654175,
				"element": "H" 
			},
			{
				"x": 2.951851956,
				"y": -0.649380093,
				"z": -0.1890442856,
				"element": "H" 
			},
			{
				"x": 1.6269333488,
				"y": -0.5366624691,
				"z": 3.0784751902,
				"element": "H" 
			},
			{
				"x": 2.5884685993,
				"y": 0.9287878295,
				"z": 2.935990277,
				"element": "H" 
			},
			{
				"x": 3.1735343585,
				"y": -0.5795000079,
				"z": 2.2124570862,
				"element": "H" 
			}
		],
		 "valence_orbital": [ 
			{
				"type": "occ",
				"energy": -0.33741,
				"method": "rhf"
			},
			{
				"type": "occ",
				"energy": -0.26961,
				"method": "rhf"
			},
			{
				"type": "occ",
				"energy": -0.26772,
				"method": "rhf"
			},
			{
				"type": "occ",
				"energy": -0.25044,
				"method": "rhf"
			},
			{
				"type": "occ",
				"energy": -0.23709,
				"method": "rhf"
			},
			{
				"type": "unocc",
				"energy": -0.0347,
				"method": "rhf"
			},
			{
				"type": "unocc",
				"energy": -0.0087,
				"method": "rhf"
			},
			{
				"type": "unocc",
				"energy": 0.03022,
				"method": "rhf"
			},
			{
				"type": "unocc",
				"energy": 0.08822,
				"method": "rhf"
			},
			{
				"type": "unocc",
				"energy": 0.10306,
				"method": "rhf"
			}
		],
		"cosmo_sigma_profile": { 
			"-0.025": 0.0,
			"-0.024": 0.0,
			"-0.023": 0.0,
			"-0.022": 0.0,
			"-0.021": 0.0,
			"-0.02": 0.0,
			"-0.019": 0.0,
			"-0.018": 0.0,
			"-0.017": 0.0,
			"-0.016": 0.0,
			"-0.015": 0.0,
			"-0.014": 0.0,
			"-0.013": 0.0,
			"-0.012": 0.0,
			"-0.011": 0.0,
			"-0.01": 0.0,
			"-0.009": 0.0,
			"-0.008": 1.19884614046,
			"-0.007": 6.87155977058,
			"-0.006": 9.14640892447,
			"-0.005": 12.7597385155,
			"-0.004": 17.088998447,
			"-0.003": 15.8585947047,
			"-0.002": 16.8051532469,
			"-0.001": 21.4310559771,
			"0.0": 23.1560332977,
			"0.001": 16.0721121495,
			"0.002": 13.5394969957,
			"0.003": 13.1904665365,
			"0.004": 19.6614649827,
			"0.005": 13.1337551791,
			"0.006": 10.6015954745,
			"0.007": 7.75848842662,
			"0.008": 0.0,
			"0.009": 0.0,
			"0.01": 0.0,
			"0.011": 0.0,
			"0.012": 0.0,
			"0.013": 0.0,
			"0.014": 0.0,
			"0.015": 0.0,
			"0.016": 0.0,
			"0.017": 0.0,
			"0.018": 0.0,
			"0.019": 0.0,
			"0.02": 0.0,
			"0.021": 0.0,
			"0.022": 0.0,
			"0.023": 0.0,
			"0.024": 0.0,
			"0.025": 0.0
		}
	}
}
