{
	 "smiles": "[O-][N+](=O)C1=C(S)N=CC=C1", 
	 "Tm": 436.15, 
	 "num_atms": 14, 
	 "gaussian": { 
		 "optdone": 1, 
		 "sigma_profile": "yes", 
		 "theory": "DFT", 
		 "functional": "B3LYP", 
		 "basiset": "6-31G**", 
		 "properties": { 
			 "R2extent": 1676.9085, 
			 "electric_dipole_moment_norm": 4.39489465289, 
			 "electric_quadrupole_moment_norm": 8.12410079763, 
			 "total_energy": -850.966644685, 
			 "HOMO_LUMO_gap": 0.15192, 
			 "cosmo_polarized_energy": -9.71, 
			 "cosmo_cavitation_energy": 20.6, 
			 "cosmo_dispersion_energy": -16.18, 
			 "cosmo_repulsion_energy": 1.26, 
			 "cosmo_total_nonelectrostatic_energy": 5.67, 
			 "SMD_solvation_energy": 4.23 
		},
		"coords": [
			{
				"x": -1.2380035103,
				"y": 2.6401813869,
				"z": -0.6438774356,
				"element": "O" 
			},
			{
				"x": -0.7067571235,
				"y": 1.8057803377,
				"z": -1.3811714322,
				"element": "N" 
			},
			{
				"x": -0.446243261,
				"y": 1.990531083,
				"z": -2.5700015634,
				"element": "O" 
			},
			{
				"x": -0.3670384083,
				"y": 0.5135894488,
				"z": -0.7961024482,
				"element": "C" 
			},
			{
				"x": -0.6271226361,
				"y": 0.2094848353,
				"z": 0.5584666446,
				"element": "C" 
			},
			{
				"x": -1.3841249217,
				"y": 1.3373256115,
				"z": 1.6935437694,
				"element": "S" 
			},
			{
				"x": -0.2970858405,
				"y": -0.9944084271,
				"z": 1.0553995122,
				"element": "N" 
			},
			{
				"x": 0.2764642341,
				"y": -1.8952670046,
				"z": 0.2582988585,
				"element": "C" 
			},
			{
				"x": 0.5666021147,
				"y": -1.6721751687,
				"z": -1.0912087579,
				"element": "C" 
			},
			{
				"x": 0.2338804274,
				"y": -0.4360649314,
				"z": -1.6231622922,
				"element": "C" 
			},
			{
				"x": -1.3099080863,
				"y": 0.4296033342,
				"z": 2.6926188653,
				"element": "H" 
			},
			{
				"x": 0.5175776051,
				"y": -2.8485440103,
				"z": 0.7245249836,
				"element": "H" 
			},
			{
				"x": 1.0346666634,
				"y": -2.440655226,
				"z": -1.6957343615,
				"element": "H" 
			},
			{
				"x": 0.4212927428,
				"y": -0.1748812691,
				"z": -2.6574943427,
				"element": "H" 
			}
		],
		 "valence_orbital": [ 
			{
				"type": "occ",
				"energy": -0.31767,
				"method": "rhf"
			},
			{
				"type": "occ",
				"energy": -0.31529,
				"method": "rhf"
			},
			{
				"type": "occ",
				"energy": -0.30213,
				"method": "rhf"
			},
			{
				"type": "occ",
				"energy": -0.28465,
				"method": "rhf"
			},
			{
				"type": "occ",
				"energy": -0.25291,
				"method": "rhf"
			},
			{
				"type": "unocc",
				"energy": -0.10099,
				"method": "rhf"
			},
			{
				"type": "unocc",
				"energy": -0.05095,
				"method": "rhf"
			},
			{
				"type": "unocc",
				"energy": -0.0165,
				"method": "rhf"
			},
			{
				"type": "unocc",
				"energy": 0.02031,
				"method": "rhf"
			},
			{
				"type": "unocc",
				"energy": 0.06502,
				"method": "rhf"
			}
		],
		"cosmo_sigma_profile": { 
			"-0.025": 0.0,
			"-0.024": 0.0,
			"-0.023": 0.0,
			"-0.022": 0.0,
			"-0.021": 0.0,
			"-0.02": 0.0,
			"-0.019": 0.0,
			"-0.018": 0.0,
			"-0.017": 0.0,
			"-0.016": 0.0,
			"-0.015": 0.0,
			"-0.014": 0.0,
			"-0.013": 0.0,
			"-0.012": 0.0,
			"-0.011": 0.125332385536,
			"-0.01": 1.13162657734,
			"-0.009": 3.51331275439,
			"-0.008": 7.71567023233,
			"-0.007": 10.0813267275,
			"-0.006": 7.89149851361,
			"-0.005": 8.05439622349,
			"-0.004": 8.47732174741,
			"-0.003": 12.1332101822,
			"-0.002": 13.1530941047,
			"-0.001": 12.9153037092,
			"0.0": 12.6327471639,
			"0.001": 7.99039876178,
			"0.002": 7.26123558561,
			"0.003": 5.7758107446,
			"0.004": 5.82964314209,
			"0.005": 7.29561047608,
			"0.006": 10.0966653993,
			"0.007": 11.6183940921,
			"0.008": 6.52777318875,
			"0.009": 5.0388902892,
			"0.01": 2.16959947998,
			"0.011": 0.646929399418,
			"0.012": 0.446525031899,
			"0.013": 0.00204560358811,
			"0.014": 0.0,
			"0.015": 0.0,
			"0.016": 0.0,
			"0.017": 0.0,
			"0.018": 0.0,
			"0.019": 0.0,
			"0.02": 0.0,
			"0.021": 0.0,
			"0.022": 0.0,
			"0.023": 0.0,
			"0.024": 0.0,
			"0.025": 0.0
		}
	}
}
