{
	 "smiles": "CC1=CC2=NC(C)=CC=C2C=C1", 
	 "Tm": 334.15, 
	 "num_atms": 23, 
	 "gaussian": { 
		 "optdone": 1, 
		 "sigma_profile": "yes", 
		 "theory": "DFT", 
		 "functional": "B3LYP", 
		 "basiset": "6-31G**", 
		 "properties": { 
			 "R2extent": 2312.2944, 
			 "electric_dipole_moment_norm": 1.57367663133, 
			 "electric_quadrupole_moment_norm": 9.72510242774, 
			 "total_energy": -480.576591512, 
			 "HOMO_LUMO_gap": 0.18183, 
			 "cosmo_polarized_energy": -6.91, 
			 "cosmo_cavitation_energy": 26.23, 
			 "cosmo_dispersion_energy": -19.5, 
			 "cosmo_repulsion_energy": 1.54, 
			 "cosmo_total_nonelectrostatic_energy": 8.27, 
			 "SMD_solvation_energy": 3.0 
		},
		"coords": [
			{
				"x": 3.4115922979,
				"y": -0.6195980693,
				"z": 2.0338521529,
				"element": "C" 
			},
			{
				"x": 2.2626308067,
				"y": -0.2472137078,
				"z": 1.1283301771,
				"element": "C" 
			},
			{
				"x": 0.9520795916,
				"y": -0.3184440338,
				"z": 1.5570677541,
				"element": "C" 
			},
			{
				"x": -0.1278357192,
				"y": 0.0321123206,
				"z": 0.7048093258,
				"element": "C" 
			},
			{
				"x": -1.4000200145,
				"y": -0.062333371,
				"z": 1.1954840724,
				"element": "N" 
			},
			{
				"x": -2.4092548515,
				"y": 0.2625112141,
				"z": 0.407107397,
				"element": "C" 
			},
			{
				"x": -3.8020642914,
				"y": 0.1483952935,
				"z": 0.9765343441,
				"element": "C" 
			},
			{
				"x": -2.2242046891,
				"y": 0.7077350558,
				"z": -0.9354124634,
				"element": "C" 
			},
			{
				"x": -0.9536329305,
				"y": 0.8084774333,
				"z": -1.4443595297,
				"element": "C" 
			},
			{
				"x": 0.1535306152,
				"y": 0.4679749933,
				"z": -0.626180861,
				"element": "C" 
			},
			{
				"x": 1.5047101033,
				"y": 0.5366349988,
				"z": -1.0542961171,
				"element": "C" 
			},
			{
				"x": 2.5262027422,
				"y": 0.1892010057,
				"z": -0.2014565077,
				"element": "C" 
			},
			{
				"x": 4.0019344235,
				"y": -1.4401596273,
				"z": 1.6089618326,
				"element": "H" 
			},
			{
				"x": 3.0581888048,
				"y": -0.9344149158,
				"z": 3.0190181665,
				"element": "H" 
			},
			{
				"x": 4.0956430109,
				"y": 0.225699935,
				"z": 2.1749897073,
				"element": "H" 
			},
			{
				"x": 0.7056910524,
				"y": -0.645914826,
				"z": 2.5627889272,
				"element": "H" 
			},
			{
				"x": -4.3160781364,
				"y": 1.1168158881,
				"z": 0.9604941368,
				"element": "H" 
			},
			{
				"x": -3.750455618,
				"y": -0.2067834307,
				"z": 2.006683118,
				"element": "H" 
			},
			{
				"x": -4.412625456,
				"y": -0.5489927034,
				"z": 0.3907692692,
				"element": "H" 
			},
			{
				"x": -3.0903476582,
				"y": 0.9619083063,
				"z": -1.5395803403,
				"element": "H" 
			},
			{
				"x": -0.7833919463,
				"y": 1.145060687,
				"z": -2.4644104766,
				"element": "H" 
			},
			{
				"x": 1.7211379484,
				"y": 0.8681438058,
				"z": -2.0670999222,
				"element": "H" 
			},
			{
				"x": 3.5571699142,
				"y": 0.2463837476,
				"z": -0.5422941629,
				"element": "H" 
			}
		],
		 "valence_orbital": [ 
			{
				"type": "occ",
				"energy": -0.31977,
				"method": "rhf"
			},
			{
				"type": "occ",
				"energy": -0.29699,
				"method": "rhf"
			},
			{
				"type": "occ",
				"energy": -0.24512,
				"method": "rhf"
			},
			{
				"type": "occ",
				"energy": -0.23536,
				"method": "rhf"
			},
			{
				"type": "occ",
				"energy": -0.22414,
				"method": "rhf"
			},
			{
				"type": "unocc",
				"energy": -0.04231,
				"method": "rhf"
			},
			{
				"type": "unocc",
				"energy": -0.0108,
				"method": "rhf"
			},
			{
				"type": "unocc",
				"energy": 0.02877,
				"method": "rhf"
			},
			{
				"type": "unocc",
				"energy": 0.08523,
				"method": "rhf"
			},
			{
				"type": "unocc",
				"energy": 0.10338,
				"method": "rhf"
			}
		],
		"cosmo_sigma_profile": { 
			"-0.025": 0.0,
			"-0.024": 0.0,
			"-0.023": 0.0,
			"-0.022": 0.0,
			"-0.021": 0.0,
			"-0.02": 0.0,
			"-0.019": 0.0,
			"-0.018": 0.0,
			"-0.017": 0.0,
			"-0.016": 0.0,
			"-0.015": 0.0,
			"-0.014": 0.0,
			"-0.013": 0.0,
			"-0.012": 0.0,
			"-0.011": 0.0,
			"-0.01": 0.0,
			"-0.009": 0.0,
			"-0.008": 0.0,
			"-0.007": 1.73621851969,
			"-0.006": 7.7524594027,
			"-0.005": 12.3009420917,
			"-0.004": 22.181606113,
			"-0.003": 21.8265400899,
			"-0.002": 19.19725294,
			"-0.001": 17.7030592345,
			"0.0": 21.8340808678,
			"0.001": 13.2589182931,
			"0.002": 15.3571212323,
			"0.003": 18.7006320293,
			"0.004": 15.8203616763,
			"0.005": 8.46682180851,
			"0.006": 2.12278401854,
			"0.007": 1.82453272961,
			"0.008": 1.30621774745,
			"0.009": 1.02741645954,
			"0.01": 1.33297116224,
			"0.011": 1.17791760042,
			"0.012": 1.03745636544,
			"0.013": 0.859388247833,
			"0.014": 0.691264608599,
			"0.015": 0.552842656501,
			"0.016": 0.668831695391,
			"0.017": 0.00960672870356,
			"0.018": 0.0,
			"0.019": 0.0,
			"0.02": 0.0,
			"0.021": 0.0,
			"0.022": 0.0,
			"0.023": 0.0,
			"0.024": 0.0,
			"0.025": 0.0
		}
	}
}
