{
	 "smiles": "CC(C)C(NC(=O)OC(C)(C)C)C(N)=NO", 
	 "Tm": 456.15, 
	 "num_atms": 37, 
	 "gaussian": { 
		 "optdone": 1, 
		 "sigma_profile": "yes", 
		 "theory": "DFT", 
		 "functional": "B3LYP", 
		 "basiset": "6-31G**", 
		 "properties": { 
			 "R2extent": 5409.3966, 
			 "electric_dipole_moment_norm": 2.59227897804, 
			 "electric_quadrupole_moment_norm": 8.8210781926, 
			 "total_energy": -783.645281941, 
			 "HOMO_LUMO_gap": 0.24717, 
			 "cosmo_polarized_energy": -15.01, 
			 "cosmo_cavitation_energy": 38.21, 
			 "cosmo_dispersion_energy": -26.24, 
			 "cosmo_repulsion_energy": 2.11, 
			 "cosmo_total_nonelectrostatic_energy": 14.08, 
			 "SMD_solvation_energy": 7.35 
		},
		"coords": [
			{
				"x": -0.4992947834,
				"y": -0.1524833927,
				"z": -2.5777248629,
				"element": "C" 
			},
			{
				"x": -0.5206916163,
				"y": -1.3516376525,
				"z": -1.6200871706,
				"element": "C" 
			},
			{
				"x": -0.6872898921,
				"y": -2.6742742619,
				"z": -2.3789940302,
				"element": "C" 
			},
			{
				"x": 0.697067736,
				"y": -1.4163069019,
				"z": -0.6473648427,
				"element": "C" 
			},
			{
				"x": 0.7417596406,
				"y": -0.2528660157,
				"z": 0.2448975859,
				"element": "N" 
			},
			{
				"x": -0.0699232446,
				"y": -0.184499958,
				"z": 1.3442555179,
				"element": "C" 
			},
			{
				"x": -0.998710531,
				"y": -0.9486970848,
				"z": 1.5608591664,
				"element": "O" 
			},
			{
				"x": 0.3127565048,
				"y": 0.8594361815,
				"z": 2.1209040089,
				"element": "O" 
			},
			{
				"x": -0.414265654,
				"y": 1.1879591424,
				"z": 3.3560696523,
				"element": "C" 
			},
			{
				"x": -0.318484999,
				"y": 0.0234343911,
				"z": 4.347914985,
				"element": "C" 
			},
			{
				"x": 0.3497329086,
				"y": 2.4084297294,
				"z": 3.8766430833,
				"element": "C" 
			},
			{
				"x": -1.8663066986,
				"y": 1.5542219944,
				"z": 3.0297721947,
				"element": "C" 
			},
			{
				"x": 2.0475936071,
				"y": -1.5510607589,
				"z": -1.3201316278,
				"element": "C" 
			},
			{
				"x": 2.6613266075,
				"y": -0.4125211266,
				"z": -1.8139306723,
				"element": "N" 
			},
			{
				"x": 2.5844391484,
				"y": -2.7229660681,
				"z": -1.3159827609,
				"element": "N" 
			},
			{
				"x": 3.8305106885,
				"y": -2.6797459123,
				"z": -2.0105140266,
				"element": "O" 
			},
			{
				"x": -0.3195701531,
				"y": 0.7858249219,
				"z": -2.0410895497,
				"element": "H" 
			},
			{
				"x": -1.463189779,
				"y": -0.0558430935,
				"z": -3.0877954514,
				"element": "H" 
			},
			{
				"x": 0.2618246738,
				"y": -0.2677927381,
				"z": -3.3594082877,
				"element": "H" 
			},
			{
				"x": -1.3805801847,
				"y": -1.2321997604,
				"z": -0.9512955469,
				"element": "H" 
			},
			{
				"x": -1.5972016391,
				"y": -2.6539812953,
				"z": -2.9878467505,
				"element": "H" 
			},
			{
				"x": 0.1607356718,
				"y": -2.8659587735,
				"z": -3.0449612529,
				"element": "H" 
			},
			{
				"x": -0.7631988076,
				"y": -3.5219015759,
				"z": -1.6902836665,
				"element": "H" 
			},
			{
				"x": 0.5642660627,
				"y": -2.3193895911,
				"z": -0.0434909746,
				"element": "H" 
			},
			{
				"x": 1.5831403192,
				"y": 0.3057986348,
				"z": 0.2603860237,
				"element": "H" 
			},
			{
				"x": 0.7294811645,
				"y": -0.2385402172,
				"z": 4.525241057,
				"element": "H" 
			},
			{
				"x": -0.843477264,
				"y": -0.8544601164,
				"z": 3.9708634541,
				"element": "H" 
			},
			{
				"x": -0.7615689429,
				"y": 0.3177659203,
				"z": 5.3049803997,
				"element": "H" 
			},
			{
				"x": -0.0960702097,
				"y": 2.7605221434,
				"z": 4.8116827447,
				"element": "H" 
			},
			{
				"x": 0.3173856065,
				"y": 3.2240596879,
				"z": 3.1483119112,
				"element": "H" 
			},
			{
				"x": 1.3973526482,
				"y": 2.1563490283,
				"z": 4.0654079388,
				"element": "H" 
			},
			{
				"x": -2.4069530406,
				"y": 0.6927365279,
				"z": 2.6370930165,
				"element": "H" 
			},
			{
				"x": -2.370020745,
				"y": 1.9053258495,
				"z": 3.936334263,
				"element": "H" 
			},
			{
				"x": -1.8972786143,
				"y": 2.3609088177,
				"z": 2.2903304233,
				"element": "H" 
			},
			{
				"x": 3.4860768496,
				"y": -0.6091157861,
				"z": -2.3664180007,
				"element": "H" 
			},
			{
				"x": 2.0522927339,
				"y": 0.2904809218,
				"z": -2.206642195,
				"element": "H" 
			},
			{
				"x": 4.1233342272,
				"y": -3.5966118116,
				"z": -1.9477857565,
				"element": "H" 
			}
		],
		 "valence_orbital": [ 
			{
				"type": "occ",
				"energy": -0.28401,
				"method": "rhf"
			},
			{
				"type": "occ",
				"energy": -0.27673,
				"method": "rhf"
			},
			{
				"type": "occ",
				"energy": -0.26012,
				"method": "rhf"
			},
			{
				"type": "occ",
				"energy": -0.24892,
				"method": "rhf"
			},
			{
				"type": "occ",
				"energy": -0.22043,
				"method": "rhf"
			},
			{
				"type": "unocc",
				"energy": 0.02674,
				"method": "rhf"
			},
			{
				"type": "unocc",
				"energy": 0.05631,
				"method": "rhf"
			},
			{
				"type": "unocc",
				"energy": 0.06383,
				"method": "rhf"
			},
			{
				"type": "unocc",
				"energy": 0.08812,
				"method": "rhf"
			},
			{
				"type": "unocc",
				"energy": 0.09246,
				"method": "rhf"
			}
		],
		"cosmo_sigma_profile": { 
			"-0.025": 0.0,
			"-0.024": 0.0,
			"-0.023": 0.0,
			"-0.022": 0.0,
			"-0.021": 0.0,
			"-0.02": 0.0,
			"-0.019": 0.0,
			"-0.018": 0.0,
			"-0.017": 0.424118767916,
			"-0.016": 0.798400532429,
			"-0.015": 0.785589735212,
			"-0.014": 1.57290478352,
			"-0.013": 0.232064622231,
			"-0.012": 1.16983597882,
			"-0.011": 3.37893231157,
			"-0.01": 3.16373630514,
			"-0.009": 3.39389574205,
			"-0.008": 4.81406752686,
			"-0.007": 3.95923759694,
			"-0.006": 3.30996204361,
			"-0.005": 4.02564711551,
			"-0.004": 16.3352550607,
			"-0.003": 28.7193829024,
			"-0.002": 30.9993954856,
			"-0.001": 34.2535167564,
			"0.0": 39.0220843556,
			"0.001": 37.056859786,
			"0.002": 12.9955442811,
			"0.003": 7.8531565052,
			"0.004": 8.74052010903,
			"0.005": 7.68670451175,
			"0.006": 7.28295731781,
			"0.007": 8.2494911196,
			"0.008": 7.48037836094,
			"0.009": 4.23318346371,
			"0.01": 3.56180276066,
			"0.011": 2.5661733684,
			"0.012": 2.70833365651,
			"0.013": 3.28287511027,
			"0.014": 1.38866688502,
			"0.015": 0.354941516426,
			"0.016": 0.0,
			"0.017": 0.0,
			"0.018": 0.0,
			"0.019": 0.0,
			"0.02": 0.0,
			"0.021": 0.0,
			"0.022": 0.0,
			"0.023": 0.0,
			"0.024": 0.0,
			"0.025": 0.0
		}
	}
}
