{
	 "smiles": "CC(C)(NC1=CC=C(C=C1)[N+]([O-])=O)C(O)=O", 
	 "Tm": 441.15, 
	 "num_atms": 28, 
	 "gaussian": { 
		 "optdone": 1, 
		 "sigma_profile": "yes", 
		 "theory": "DFT", 
		 "functional": "B3LYP", 
		 "basiset": "6-31G**", 
		 "properties": { 
			 "R2extent": 4661.2602, 
			 "electric_dipole_moment_norm": 7.7744248932, 
			 "electric_quadrupole_moment_norm": 23.2714995662, 
			 "total_energy": -798.617407594, 
			 "HOMO_LUMO_gap": 0.15243, 
			 "cosmo_polarized_energy": -19.3, 
			 "cosmo_cavitation_energy": 32.13, 
			 "cosmo_dispersion_energy": -22.68, 
			 "cosmo_repulsion_energy": 1.77, 
			 "cosmo_total_nonelectrostatic_energy": 11.22, 
			 "SMD_solvation_energy": 8.61 
		},
		"coords": [
			{
				"x": 1.448695023,
				"y": 2.462936719,
				"z": -0.9974271238,
				"element": "C" 
			},
			{
				"x": 0.6498291175,
				"y": 2.2257758659,
				"z": 0.2954175005,
				"element": "C" 
			},
			{
				"x": 0.0048498426,
				"y": 3.5508664048,
				"z": 0.7567529258,
				"element": "C" 
			},
			{
				"x": -0.4360465054,
				"y": 1.2680805606,
				"z": 0.094199195,
				"element": "N" 
			},
			{
				"x": -0.3340783706,
				"y": -0.09014759,
				"z": -0.1078014189,
				"element": "C" 
			},
			{
				"x": -1.5288779282,
				"y": -0.8436086301,
				"z": -0.2176731188,
				"element": "C" 
			},
			{
				"x": -1.4978678599,
				"y": -2.2085428599,
				"z": -0.4319614578,
				"element": "C" 
			},
			{
				"x": -0.2636613741,
				"y": -2.8570156858,
				"z": -0.5427592537,
				"element": "C" 
			},
			{
				"x": 0.9291633513,
				"y": -2.1428438416,
				"z": -0.4340400377,
				"element": "C" 
			},
			{
				"x": 0.899796516,
				"y": -0.7722447828,
				"z": -0.2171945143,
				"element": "C" 
			},
			{
				"x": -0.225110954,
				"y": -4.2935469871,
				"z": -0.7689263092,
				"element": "N" 
			},
			{
				"x": -1.301340696,
				"y": -4.8926471545,
				"z": -0.8542724699,
				"element": "O" 
			},
			{
				"x": 0.8804196795,
				"y": -4.8345981359,
				"z": -0.862650788,
				"element": "O" 
			},
			{
				"x": 1.5984418601,
				"y": 1.7763684469,
				"z": 1.4303085622,
				"element": "C" 
			},
			{
				"x": 0.9194780634,
				"y": 1.3535912423,
				"z": 2.5185776672,
				"element": "O" 
			},
			{
				"x": 2.8074585571,
				"y": 1.826431155,
				"z": 1.3866413293,
				"element": "O" 
			},
			{
				"x": 2.2795349266,
				"y": 3.1461270597,
				"z": -0.8112256883,
				"element": "H" 
			},
			{
				"x": 1.8610508797,
				"y": 1.5360240219,
				"z": -1.3988886288,
				"element": "H" 
			},
			{
				"x": 0.7861197921,
				"y": 2.895319577,
				"z": -1.7517301503,
				"element": "H" 
			},
			{
				"x": 0.7723383531,
				"y": 4.3126456302,
				"z": 0.912763089,
				"element": "H" 
			},
			{
				"x": -0.5447764058,
				"y": 3.4145347677,
				"z": 1.6922302703,
				"element": "H" 
			},
			{
				"x": -0.6817210988,
				"y": 3.9121768835,
				"z": -0.0155081075,
				"element": "H" 
			},
			{
				"x": -1.3559929098,
				"y": 1.597085567,
				"z": 0.3452241184,
				"element": "H" 
			},
			{
				"x": -2.4857265524,
				"y": -0.3345111813,
				"z": -0.1354164171,
				"element": "H" 
			},
			{
				"x": -2.4092134426,
				"y": -2.7872189896,
				"z": -0.5171942906,
				"element": "H" 
			},
			{
				"x": 1.8699558804,
				"y": -2.6730522555,
				"z": -0.5163897402,
				"element": "H" 
			},
			{
				"x": 1.8382902816,
				"y": -0.2407290958,
				"z": -0.1235081963,
				"element": "H" 
			},
			{
				"x": 1.5882919735,
				"y": 1.1102432886,
				"z": 3.1808530533,
				"element": "H" 
			}
		],
		 "valence_orbital": [ 
			{
				"type": "occ",
				"energy": -0.29177,
				"method": "rhf"
			},
			{
				"type": "occ",
				"energy": -0.29082,
				"method": "rhf"
			},
			{
				"type": "occ",
				"energy": -0.27253,
				"method": "rhf"
			},
			{
				"type": "occ",
				"energy": -0.27122,
				"method": "rhf"
			},
			{
				"type": "occ",
				"energy": -0.22259,
				"method": "rhf"
			},
			{
				"type": "unocc",
				"energy": -0.07016,
				"method": "rhf"
			},
			{
				"type": "unocc",
				"energy": -0.02292,
				"method": "rhf"
			},
			{
				"type": "unocc",
				"energy": -0.01134,
				"method": "rhf"
			},
			{
				"type": "unocc",
				"energy": 0.02255,
				"method": "rhf"
			},
			{
				"type": "unocc",
				"energy": 0.0553,
				"method": "rhf"
			}
		],
		"cosmo_sigma_profile": { 
			"-0.025": 0.0,
			"-0.024": 0.0,
			"-0.023": 0.0,
			"-0.022": 0.0,
			"-0.021": 0.0,
			"-0.02": 0.0,
			"-0.019": 0.16003813836,
			"-0.018": 1.01233578605,
			"-0.017": 0.808188568635,
			"-0.016": 0.881672802623,
			"-0.015": 0.767337169269,
			"-0.014": 2.31994598893,
			"-0.013": 1.56177724976,
			"-0.012": 1.67252401583,
			"-0.011": 2.09642421525,
			"-0.01": 2.7776418325,
			"-0.009": 1.54254302244,
			"-0.008": 2.71186465688,
			"-0.007": 6.21638218113,
			"-0.006": 10.688115688,
			"-0.005": 15.212932629,
			"-0.004": 17.6682978699,
			"-0.003": 17.7836327017,
			"-0.002": 19.9446206475,
			"-0.001": 20.250185359,
			"0.0": 17.2582441539,
			"0.001": 15.7605560245,
			"0.002": 17.16536556,
			"0.003": 16.035061531,
			"0.004": 7.26306370106,
			"0.005": 5.26764343101,
			"0.006": 5.81818549811,
			"0.007": 6.16069996256,
			"0.008": 9.2604522353,
			"0.009": 11.1944509636,
			"0.01": 6.93426259454,
			"0.011": 7.84503764315,
			"0.012": 2.06873074259,
			"0.013": 0.0,
			"0.014": 0.0,
			"0.015": 0.0,
			"0.016": 0.0,
			"0.017": 0.0,
			"0.018": 0.0,
			"0.019": 0.0,
			"0.02": 0.0,
			"0.021": 0.0,
			"0.022": 0.0,
			"0.023": 0.0,
			"0.024": 0.0,
			"0.025": 0.0
		}
	}
}
