{
	 "smiles": "OCCF", 
	 "Tm": 246.45, 
	 "num_atms": 9, 
	 "gaussian": { 
		 "optdone": 1, 
		 "sigma_profile": "yes", 
		 "theory": "DFT", 
		 "functional": "B3LYP", 
		 "basiset": "6-31G**", 
		 "properties": { 
			 "R2extent": 663.359, 
			 "electric_dipole_moment_norm": 1.44825174952, 
			 "electric_quadrupole_moment_norm": 5.00663725369, 
			 "total_energy": -254.268982955, 
			 "HOMO_LUMO_gap": 0.35605, 
			 "cosmo_polarized_energy": -6.13, 
			 "cosmo_cavitation_energy": 12.35, 
			 "cosmo_dispersion_energy": -9.36, 
			 "cosmo_repulsion_energy": 0.87, 
			 "cosmo_total_nonelectrostatic_energy": 3.86, 
			 "SMD_solvation_energy": 2.89 
		},
		"coords": [
			{
				"x": 0.7485527432,
				"y": 0.9335655437,
				"z": 0.4877655941,
				"element": "O" 
			},
			{
				"x": -0.0889316616,
				"y": 1.2022435511,
				"z": 1.5960336811,
				"element": "C" 
			},
			{
				"x": -0.6118124249,
				"y": -0.0816212698,
				"z": 2.2083479852,
				"element": "C" 
			},
			{
				"x": 0.4944504228,
				"y": -0.8392578467,
				"z": 2.6140652653,
				"element": "F" 
			},
			{
				"x": 1.4075996712,
				"y": 0.2978210784,
				"z": 0.8002608357,
				"element": "H" 
			},
			{
				"x": -0.9263043253,
				"y": 1.8086954212,
				"z": 1.233786721,
				"element": "H" 
			},
			{
				"x": 0.4357367924,
				"y": 1.7830104214,
				"z": 2.3719894394,
				"element": "H" 
			},
			{
				"x": -1.1676606392,
				"y": -0.6693345847,
				"z": 1.469146517,
				"element": "H" 
			},
			{
				"x": -1.2454305787,
				"y": 0.1085776853,
				"z": 3.0829039613,
				"element": "H" 
			}
		],
		 "valence_orbital": [ 
			{
				"type": "occ",
				"energy": -0.41978,
				"method": "rhf"
			},
			{
				"type": "occ",
				"energy": -0.3699,
				"method": "rhf"
			},
			{
				"type": "occ",
				"energy": -0.34254,
				"method": "rhf"
			},
			{
				"type": "occ",
				"energy": -0.32915,
				"method": "rhf"
			},
			{
				"type": "occ",
				"energy": -0.27211,
				"method": "rhf"
			},
			{
				"type": "unocc",
				"energy": 0.08394,
				"method": "rhf"
			},
			{
				"type": "unocc",
				"energy": 0.11195,
				"method": "rhf"
			},
			{
				"type": "unocc",
				"energy": 0.12194,
				"method": "rhf"
			},
			{
				"type": "unocc",
				"energy": 0.14808,
				"method": "rhf"
			},
			{
				"type": "unocc",
				"energy": 0.1536,
				"method": "rhf"
			}
		],
		"cosmo_sigma_profile": { 
			"-0.025": 0.0,
			"-0.024": 0.0,
			"-0.023": 0.0,
			"-0.022": 0.0,
			"-0.021": 0.0,
			"-0.02": 0.0,
			"-0.019": 0.0,
			"-0.018": 0.0,
			"-0.017": 0.0,
			"-0.016": 0.0,
			"-0.015": 0.0,
			"-0.014": 0.402861080986,
			"-0.013": 0.494127861319,
			"-0.012": 0.608660269057,
			"-0.011": 0.945941092854,
			"-0.01": 0.377746588233,
			"-0.009": 0.942483647257,
			"-0.008": 0.744820834319,
			"-0.007": 1.26192377332,
			"-0.006": 8.65862965408,
			"-0.005": 11.8917665097,
			"-0.004": 10.2778171891,
			"-0.003": 7.67324741196,
			"-0.002": 5.72892281798,
			"-0.001": 4.35634294411,
			"0.0": 3.95433554486,
			"0.001": 3.03862623678,
			"0.002": 2.70636114441,
			"0.003": 3.11035476409,
			"0.004": 2.87076014453,
			"0.005": 4.54597745615,
			"0.006": 7.1518214264,
			"0.007": 3.84942841778,
			"0.008": 1.28480258841,
			"0.009": 1.23803055641,
			"0.01": 1.01970741321,
			"0.011": 1.22521243328,
			"0.012": 1.60603591456,
			"0.013": 1.86127835342,
			"0.014": 2.32269309412,
			"0.015": 0.250302164372,
			"0.016": 0.0,
			"0.017": 0.0,
			"0.018": 0.0,
			"0.019": 0.0,
			"0.02": 0.0,
			"0.021": 0.0,
			"0.022": 0.0,
			"0.023": 0.0,
			"0.024": 0.0,
			"0.025": 0.0
		}
	}
}
