{
	 "smiles": "CN1N=CC2=C1C=C(C=C2)C#N", 
	 "Tm": 378.15, 
	 "num_atms": 19, 
	 "gaussian": { 
		 "optdone": 1, 
		 "sigma_profile": "yes", 
		 "theory": "DFT", 
		 "functional": "B3LYP", 
		 "basiset": "6-31G**", 
		 "properties": { 
			 "R2extent": 2469.1261, 
			 "electric_dipole_moment_norm": 3.53864991487, 
			 "electric_quadrupole_moment_norm": 24.2031687903, 
			 "total_energy": -511.400484377, 
			 "HOMO_LUMO_gap": 0.17309, 
			 "cosmo_polarized_energy": -11.5, 
			 "cosmo_cavitation_energy": 24.5, 
			 "cosmo_dispersion_energy": -17.48, 
			 "cosmo_repulsion_energy": 1.37, 
			 "cosmo_total_nonelectrostatic_energy": 8.39, 
			 "SMD_solvation_energy": 4.76 
		},
		"coords": [
			{
				"x": -0.7665723277,
				"y": 0.9417134813,
				"z": -2.7336923064,
				"element": "C" 
			},
			{
				"x": -0.430651333,
				"y": 0.143614391,
				"z": -1.5716300255,
				"element": "N" 
			},
			{
				"x": 0.3454408906,
				"y": -0.9644189157,
				"z": -1.7028725033,
				"element": "N" 
			},
			{
				"x": 0.4811037887,
				"y": -1.4803490768,
				"z": -0.49243732,
				"element": "C" 
			},
			{
				"x": -0.216653388,
				"y": -0.7077991326,
				"z": 0.4816836552,
				"element": "C" 
			},
			{
				"x": -0.8001445866,
				"y": 0.3474331708,
				"z": -0.2699299105,
				"element": "C" 
			},
			{
				"x": -1.5831545676,
				"y": 1.3450056944,
				"z": 0.3233149517,
				"element": "C" 
			},
			{
				"x": -1.7702803387,
				"y": 1.2597035757,
				"z": 1.7042616161,
				"element": "C" 
			},
			{
				"x": -1.1930721344,
				"y": 0.2090442962,
				"z": 2.4738567788,
				"element": "C" 
			},
			{
				"x": -0.4224262832,
				"y": -0.7682364775,
				"z": 1.8725650619,
				"element": "C" 
			},
			{
				"x": -2.5634137501,
				"y": 2.2541941935,
				"z": 2.3666400768,
				"element": "C" 
			},
			{
				"x": -3.206533161,
				"y": 3.0600226356,
				"z": 2.9060627357,
				"element": "N" 
			},
			{
				"x": -1.8504536028,
				"y": 0.9722944392,
				"z": -2.8870412173,
				"element": "H" 
			},
			{
				"x": -0.3906259064,
				"y": 1.9647507998,
				"z": -2.6273766792,
				"element": "H" 
			},
			{
				"x": -0.2939397805,
				"y": 0.4719389948,
				"z": -3.5953330682,
				"element": "H" 
			},
			{
				"x": 1.0666739147,
				"y": -2.3787913506,
				"z": -0.3526496329,
				"element": "H" 
			},
			{
				"x": -2.0296058003,
				"y": 2.1513213249,
				"z": -0.2475785057,
				"element": "H" 
			},
			{
				"x": -1.3705378608,
				"y": 0.1909089062,
				"z": 3.543342236,
				"element": "H" 
			},
			{
				"x": 0.0143462272,
				"y": -1.5659509504,
				"z": 2.4653140566,
				"element": "H" 
			}
		],
		 "valence_orbital": [ 
			{
				"type": "occ",
				"energy": -0.33119,
				"method": "rhf"
			},
			{
				"type": "occ",
				"energy": -0.3068,
				"method": "rhf"
			},
			{
				"type": "occ",
				"energy": -0.30412,
				"method": "rhf"
			},
			{
				"type": "occ",
				"energy": -0.25705,
				"method": "rhf"
			},
			{
				"type": "occ",
				"energy": -0.23593,
				"method": "rhf"
			},
			{
				"type": "unocc",
				"energy": -0.06284,
				"method": "rhf"
			},
			{
				"type": "unocc",
				"energy": -0.01575,
				"method": "rhf"
			},
			{
				"type": "unocc",
				"energy": 0.03252,
				"method": "rhf"
			},
			{
				"type": "unocc",
				"energy": 0.03715,
				"method": "rhf"
			},
			{
				"type": "unocc",
				"energy": 0.08012,
				"method": "rhf"
			}
		],
		"cosmo_sigma_profile": { 
			"-0.025": 0.0,
			"-0.024": 0.0,
			"-0.023": 0.0,
			"-0.022": 0.0,
			"-0.021": 0.0,
			"-0.02": 0.0,
			"-0.019": 0.0,
			"-0.018": 0.0,
			"-0.017": 0.0,
			"-0.016": 0.0,
			"-0.015": 0.0,
			"-0.014": 0.0,
			"-0.013": 0.0,
			"-0.012": 0.0,
			"-0.011": 0.0,
			"-0.01": 0.0,
			"-0.009": 0.857391295927,
			"-0.008": 4.24506235858,
			"-0.007": 12.44004266,
			"-0.006": 16.9957540677,
			"-0.005": 15.2237327778,
			"-0.004": 12.7588235736,
			"-0.003": 14.0822537685,
			"-0.002": 10.3191796666,
			"-0.001": 11.8290660285,
			"0.0": 14.1905094646,
			"0.001": 15.5993821039,
			"0.002": 16.4026714052,
			"0.003": 11.5870250545,
			"0.004": 4.8542252337,
			"0.005": 4.25952385504,
			"0.006": 3.96502035096,
			"0.007": 4.18400719542,
			"0.008": 4.09951439226,
			"0.009": 5.64730876731,
			"0.01": 3.72579558271,
			"0.011": 3.98567642698,
			"0.012": 3.52728135775,
			"0.013": 2.44791524259,
			"0.014": 0.964049801988,
			"0.015": 0.0429846469345,
			"0.016": 0.0,
			"0.017": 0.0,
			"0.018": 0.0,
			"0.019": 0.0,
			"0.02": 0.0,
			"0.021": 0.0,
			"0.022": 0.0,
			"0.023": 0.0,
			"0.024": 0.0,
			"0.025": 0.0
		}
	}
}
