{
	 "smiles": "COC1=C(C2=C(C=C1)N=C(Cl)C=C2)S(Cl)(=O)=O", 
	 "Tm": 410.15, 
	 "num_atms": 24, 
	 "gaussian": { 
		 "optdone": 1, 
		 "sigma_profile": "yes", 
		 "theory": "DFT", 
		 "functional": "B3LYP", 
		 "basiset": "6-31G**", 
		 "properties": { 
			 "R2extent": 6304.7456, 
			 "electric_dipole_moment_norm": 3.65381067654, 
			 "electric_quadrupole_moment_norm": 22.2008561051, 
			 "total_energy": -1984.19116263, 
			 "HOMO_LUMO_gap": 0.15947, 
			 "cosmo_polarized_energy": -12.17, 
			 "cosmo_cavitation_energy": 33.24, 
			 "cosmo_dispersion_energy": -24.96, 
			 "cosmo_repulsion_energy": 1.88, 
			 "cosmo_total_nonelectrostatic_energy": 10.16, 
			 "SMD_solvation_energy": 3.44 
		},
		"coords": [
			{
				"x": -0.2639086756,
				"y": -2.388527607,
				"z": 2.3908636526,
				"element": "C" 
			},
			{
				"x": 0.6903844266,
				"y": -1.4628812386,
				"z": 1.8514920586,
				"element": "O" 
			},
			{
				"x": 0.3983089138,
				"y": -0.8471936939,
				"z": 0.681603481,
				"element": "C" 
			},
			{
				"x": 0.4210605377,
				"y": 0.5467465346,
				"z": 0.6245885977,
				"element": "C" 
			},
			{
				"x": 0.2866224186,
				"y": 1.2417346354,
				"z": -0.6240547977,
				"element": "C" 
			},
			{
				"x": 0.0553873398,
				"y": 0.4452577804,
				"z": -1.7952774968,
				"element": "C" 
			},
			{
				"x": -0.0065689986,
				"y": -0.9692121957,
				"z": -1.6979387672,
				"element": "C" 
			},
			{
				"x": 0.1678680031,
				"y": -1.6018329613,
				"z": -0.495300103,
				"element": "C" 
			},
			{
				"x": -0.1046164039,
				"y": 0.9812597521,
				"z": -3.0387708596,
				"element": "N" 
			},
			{
				"x": -0.036204594,
				"y": 2.2734592033,
				"z": -3.1622579418,
				"element": "C" 
			},
			{
				"x": -0.2454085976,
				"y": 2.947167195,
				"z": -4.7741129008,
				"element": "Cl" 
			},
			{
				"x": 0.1967365491,
				"y": 3.1687457413,
				"z": -2.0915014331,
				"element": "C" 
			},
			{
				"x": 0.3549418607,
				"y": 2.6505903045,
				"z": -0.8294512002,
				"element": "C" 
			},
			{
				"x": 0.5330808852,
				"y": 1.3931424319,
				"z": 2.2121332504,
				"element": "S" 
			},
			{
				"x": 2.535504754,
				"y": 0.9960478519,
				"z": 2.8107733636,
				"element": "Cl" 
			},
			{
				"x": -0.3494983922,
				"y": 0.7523994095,
				"z": 3.1787518379,
				"element": "O" 
			},
			{
				"x": 0.4747070357,
				"y": 2.8394048503,
				"z": 2.0237114562,
				"element": "O" 
			},
			{
				"x": 0.2280198079,
				"y": -2.8555744405,
				"z": 3.24382831,
				"element": "H" 
			},
			{
				"x": -1.1531076538,
				"y": -1.848072601,
				"z": 2.7279668043,
				"element": "H" 
			},
			{
				"x": -0.5417713016,
				"y": -3.1588647235,
				"z": 1.6640602203,
				"element": "H" 
			},
			{
				"x": -0.1730392215,
				"y": -1.5241015603,
				"z": -2.6148325381,
				"element": "H" 
			},
			{
				"x": 0.1658862744,
				"y": -2.6841987915,
				"z": -0.4300802957,
				"element": "H" 
			},
			{
				"x": 0.2491176172,
				"y": 4.2356636704,
				"z": -2.2716586517,
				"element": "H" 
			},
			{
				"x": 0.5329974149,
				"y": 3.3121404529,
				"z": 0.0054639533,
				"element": "H" 
			}
		],
		 "valence_orbital": [ 
			{
				"type": "occ",
				"energy": -0.31242,
				"method": "rhf"
			},
			{
				"type": "occ",
				"energy": -0.30879,
				"method": "rhf"
			},
			{
				"type": "occ",
				"energy": -0.29165,
				"method": "rhf"
			},
			{
				"type": "occ",
				"energy": -0.27717,
				"method": "rhf"
			},
			{
				"type": "occ",
				"energy": -0.25823,
				"method": "rhf"
			},
			{
				"type": "unocc",
				"energy": -0.09876,
				"method": "rhf"
			},
			{
				"type": "unocc",
				"energy": -0.07487,
				"method": "rhf"
			},
			{
				"type": "unocc",
				"energy": -0.04864,
				"method": "rhf"
			},
			{
				"type": "unocc",
				"energy": -0.02548,
				"method": "rhf"
			},
			{
				"type": "unocc",
				"energy": 0.02381,
				"method": "rhf"
			}
		],
		"cosmo_sigma_profile": { 
			"-0.025": 0.0,
			"-0.024": 0.0,
			"-0.023": 0.0,
			"-0.022": 0.0,
			"-0.021": 0.0,
			"-0.02": 0.0,
			"-0.019": 0.0,
			"-0.018": 0.0,
			"-0.017": 0.0,
			"-0.016": 0.0,
			"-0.015": 0.0,
			"-0.014": 0.0,
			"-0.013": 0.0,
			"-0.012": 0.0,
			"-0.011": 0.0,
			"-0.01": 0.665610534709,
			"-0.009": 3.8355628281,
			"-0.008": 5.99758639656,
			"-0.007": 10.6435324255,
			"-0.006": 11.3373880592,
			"-0.005": 13.7128185328,
			"-0.004": 17.538886275,
			"-0.003": 17.1888871295,
			"-0.002": 26.6291043168,
			"-0.001": 25.8034521317,
			"0.0": 23.5646755873,
			"0.001": 16.2314830581,
			"0.002": 15.4135951987,
			"0.003": 20.4877859848,
			"0.004": 20.355622488,
			"0.005": 8.61964293588,
			"0.006": 9.5383160529,
			"0.007": 7.6687320796,
			"0.008": 9.64214647103,
			"0.009": 5.31102447816,
			"0.01": 1.14519957063,
			"0.011": 0.688183452854,
			"0.012": 0.668256827465,
			"0.013": 0.275699231562,
			"0.014": 0.0,
			"0.015": 0.0,
			"0.016": 0.0,
			"0.017": 0.0,
			"0.018": 0.0,
			"0.019": 0.0,
			"0.02": 0.0,
			"0.021": 0.0,
			"0.022": 0.0,
			"0.023": 0.0,
			"0.024": 0.0,
			"0.025": 0.0
		}
	}
}
