{
	 "smiles": "OC(=O)C1=NOC(=C1)C1CC1", 
	 "Tm": 371.15, 
	 "num_atms": 18, 
	 "gaussian": { 
		 "optdone": 1, 
		 "sigma_profile": "yes", 
		 "theory": "DFT", 
		 "functional": "B3LYP", 
		 "basiset": "6-31G**", 
		 "properties": { 
			 "R2extent": 2350.0552, 
			 "electric_dipole_moment_norm": 7.34749208098, 
			 "electric_quadrupole_moment_norm": 15.3691761861, 
			 "total_energy": -551.299445369, 
			 "HOMO_LUMO_gap": 0.2121, 
			 "cosmo_polarized_energy": -19.27, 
			 "cosmo_cavitation_energy": 23.33, 
			 "cosmo_dispersion_energy": -16.99, 
			 "cosmo_repulsion_energy": 1.38, 
			 "cosmo_total_nonelectrostatic_energy": 7.72, 
			 "SMD_solvation_energy": 4.86 
		},
		"coords": [
			{
				"x": 1.6130013041,
				"y": -3.3247046422,
				"z": -1.8458013736,
				"element": "O" 
			},
			{
				"x": 1.637035548,
				"y": -2.0521332556,
				"z": -2.3271724511,
				"element": "C" 
			},
			{
				"x": 2.0118974414,
				"y": -1.8154410129,
				"z": -3.4442182733,
				"element": "O" 
			},
			{
				"x": 1.1386298291,
				"y": -1.0206086986,
				"z": -1.3601850122,
				"element": "C" 
			},
			{
				"x": 1.6091378825,
				"y": 0.2081817061,
				"z": -1.424075718,
				"element": "N" 
			},
			{
				"x": 0.9485789,
				"y": 0.8966520714,
				"z": -0.4133389416,
				"element": "O" 
			},
			{
				"x": 0.090566315,
				"y": 0.0747601169,
				"z": 0.2316591363,
				"element": "C" 
			},
			{
				"x": 0.1721721376,
				"y": -1.1738036427,
				"z": -0.3234206956,
				"element": "C" 
			},
			{
				"x": -0.6946020092,
				"y": 0.6803898123,
				"z": 1.3155813243,
				"element": "C" 
			},
			{
				"x": -2.1353473506,
				"y": 0.2523164247,
				"z": 1.5479994735,
				"element": "C" 
			},
			{
				"x": -1.0798836398,
				"y": -0.1410185444,
				"z": 2.5349750148,
				"element": "C" 
			},
			{
				"x": 1.4218068447,
				"y": -3.3196869687,
				"z": -0.8969655114,
				"element": "H" 
			},
			{
				"x": -0.4075232074,
				"y": -2.048930108,
				"z": -0.0701799502,
				"element": "H" 
			},
			{
				"x": -0.4582185949,
				"y": 1.7271742571,
				"z": 1.4772856599,
				"element": "H" 
			},
			{
				"x": -2.8431641001,
				"y": 1.028571667,
				"z": 1.820472534,
				"element": "H" 
			},
			{
				"x": -2.5374263628,
				"y": -0.5105229829,
				"z": 0.8884293343,
				"element": "H" 
			},
			{
				"x": -1.0508921092,
				"y": 0.3597153934,
				"z": 3.4974289834,
				"element": "H" 
			},
			{
				"x": -0.7541688285,
				"y": -1.1765115929,
				"z": 2.5584264664,
				"element": "H" 
			}
		],
		 "valence_orbital": [ 
			{
				"type": "occ",
				"energy": -0.3293,
				"method": "rhf"
			},
			{
				"type": "occ",
				"energy": -0.31727,
				"method": "rhf"
			},
			{
				"type": "occ",
				"energy": -0.31273,
				"method": "rhf"
			},
			{
				"type": "occ",
				"energy": -0.28174,
				"method": "rhf"
			},
			{
				"type": "occ",
				"energy": -0.26236,
				"method": "rhf"
			},
			{
				"type": "unocc",
				"energy": -0.05026,
				"method": "rhf"
			},
			{
				"type": "unocc",
				"energy": -0.00912,
				"method": "rhf"
			},
			{
				"type": "unocc",
				"energy": 0.05759,
				"method": "rhf"
			},
			{
				"type": "unocc",
				"energy": 0.06769,
				"method": "rhf"
			},
			{
				"type": "unocc",
				"energy": 0.073,
				"method": "rhf"
			}
		],
		"cosmo_sigma_profile": { 
			"-0.025": 0.0,
			"-0.024": 0.0,
			"-0.023": 0.0,
			"-0.022": 0.0,
			"-0.021": 0.0,
			"-0.02": 0.0154458339621,
			"-0.019": 0.454507319308,
			"-0.018": 1.22879673848,
			"-0.017": 0.919087526011,
			"-0.016": 0.978324545002,
			"-0.015": 0.938968956006,
			"-0.014": 1.14583737664,
			"-0.013": 1.58005454329,
			"-0.012": 1.28261266046,
			"-0.011": 1.14748714566,
			"-0.01": 1.26474678196,
			"-0.009": 3.02330790454,
			"-0.008": 3.78406123168,
			"-0.007": 4.49266930729,
			"-0.006": 11.9794631037,
			"-0.005": 12.7471388139,
			"-0.004": 10.8258656178,
			"-0.003": 10.5432537822,
			"-0.002": 10.8022619474,
			"-0.001": 15.021750083,
			"0.0": 13.3757374105,
			"0.001": 12.2168550383,
			"0.002": 7.94251940066,
			"0.003": 5.41788391047,
			"0.004": 4.89171700764,
			"0.005": 3.42960269819,
			"0.006": 6.05412218349,
			"0.007": 7.26279886301,
			"0.008": 5.12007596246,
			"0.009": 6.71288656309,
			"0.01": 7.16241580874,
			"0.011": 7.56501421871,
			"0.012": 3.88712763266,
			"0.013": 0.983336804299,
			"0.014": 0.152729172581,
			"0.015": 0.0,
			"0.016": 0.0,
			"0.017": 0.0,
			"0.018": 0.0,
			"0.019": 0.0,
			"0.02": 0.0,
			"0.021": 0.0,
			"0.022": 0.0,
			"0.023": 0.0,
			"0.024": 0.0,
			"0.025": 0.0
		}
	}
}
