{
	 "smiles": "NC1=C(N)N=C(Cl)C(Cl)=C1", 
	 "Tm": 423.15, 
	 "num_atms": 15, 
	 "gaussian": { 
		 "optdone": 1, 
		 "sigma_profile": "yes", 
		 "theory": "DFT", 
		 "functional": "B3LYP", 
		 "basiset": "6-31G**", 
		 "properties": { 
			 "R2extent": 3411.9904, 
			 "electric_dipole_moment_norm": 5.20334896389, 
			 "electric_quadrupole_moment_norm": 8.8710889309, 
			 "total_energy": -1278.19100103, 
			 "HOMO_LUMO_gap": 0.18333, 
			 "cosmo_polarized_energy": -13.62, 
			 "cosmo_cavitation_energy": 22.81, 
			 "cosmo_dispersion_energy": -17.58, 
			 "cosmo_repulsion_energy": 1.45, 
			 "cosmo_total_nonelectrostatic_energy": 6.68, 
			 "SMD_solvation_energy": 2.07 
		},
		"coords": [
			{
				"x": 0.9101974637,
				"y": 1.1848380225,
				"z": -1.7086343045,
				"element": "N" 
			},
			{
				"x": 1.1054451727,
				"y": 0.0734447494,
				"z": -0.8770743812,
				"element": "C" 
			},
			{
				"x": 0.0016958538,
				"y": -0.7798201207,
				"z": -0.613617609,
				"element": "C" 
			},
			{
				"x": -1.244317511,
				"y": -0.4518475929,
				"z": -1.1385626422,
				"element": "N" 
			},
			{
				"x": 0.1004160155,
				"y": -1.85625323,
				"z": 0.1597413915,
				"element": "N" 
			},
			{
				"x": 1.2691096608,
				"y": -2.1754988,
				"z": 0.7003000168,
				"element": "C" 
			},
			{
				"x": 1.2920919439,
				"y": -3.6098651405,
				"z": 1.7103476957,
				"element": "Cl" 
			},
			{
				"x": 2.4275872435,
				"y": -1.4326183902,
				"z": 0.4739791883,
				"element": "C" 
			},
			{
				"x": 3.9783102561,
				"y": -1.8603715739,
				"z": 1.1545614933,
				"element": "Cl" 
			},
			{
				"x": 2.3278393153,
				"y": -0.2851287607,
				"z": -0.323928186,
				"element": "C" 
			},
			{
				"x": 1.7020917394,
				"y": 1.8149178386,
				"z": -1.7434085135,
				"element": "H" 
			},
			{
				"x": 0.060110173,
				"y": 1.6934218006,
				"z": -1.4847435978,
				"element": "H" 
			},
			{
				"x": -1.2118497462,
				"y": -0.1295639201,
				"z": -2.0997124893,
				"element": "H" 
			},
			{
				"x": -1.9231718723,
				"y": -1.1899284098,
				"z": -0.9972326899,
				"element": "H" 
			},
			{
				"x": 3.2102442918,
				"y": 0.3242735278,
				"z": -0.4918153721,
				"element": "H" 
			}
		],
		 "valence_orbital": [ 
			{
				"type": "occ",
				"energy": -0.30466,
				"method": "rhf"
			},
			{
				"type": "occ",
				"energy": -0.29432,
				"method": "rhf"
			},
			{
				"type": "occ",
				"energy": -0.27849,
				"method": "rhf"
			},
			{
				"type": "occ",
				"energy": -0.26104,
				"method": "rhf"
			},
			{
				"type": "occ",
				"energy": -0.20907,
				"method": "rhf"
			},
			{
				"type": "unocc",
				"energy": -0.02574,
				"method": "rhf"
			},
			{
				"type": "unocc",
				"energy": -0.00558,
				"method": "rhf"
			},
			{
				"type": "unocc",
				"energy": 0.01543,
				"method": "rhf"
			},
			{
				"type": "unocc",
				"energy": 0.058,
				"method": "rhf"
			},
			{
				"type": "unocc",
				"energy": 0.06622,
				"method": "rhf"
			}
		],
		"cosmo_sigma_profile": { 
			"-0.025": 0.0,
			"-0.024": 0.0,
			"-0.023": 0.0,
			"-0.022": 0.0,
			"-0.021": 0.0,
			"-0.02": 0.0,
			"-0.019": 0.0,
			"-0.018": 0.0,
			"-0.017": 0.0,
			"-0.016": 0.0,
			"-0.015": 0.0,
			"-0.014": 0.100001390013,
			"-0.013": 2.50214250106,
			"-0.012": 4.99970520674,
			"-0.011": 5.65926070572,
			"-0.01": 5.83093437328,
			"-0.009": 5.08130926439,
			"-0.008": 5.31444298401,
			"-0.007": 3.84358691885,
			"-0.006": 4.68523600423,
			"-0.005": 4.4511650373,
			"-0.004": 3.5292475009,
			"-0.003": 4.88275503387,
			"-0.002": 7.37758285455,
			"-0.001": 8.42854047818,
			"0.0": 13.841679369,
			"0.001": 19.3983309925,
			"0.002": 16.7852152606,
			"0.003": 14.0053323505,
			"0.004": 18.995122768,
			"0.005": 14.987121085,
			"0.006": 6.01007886656,
			"0.007": 3.03243828308,
			"0.008": 3.05957696563,
			"0.009": 2.48738734066,
			"0.01": 1.87593098954,
			"0.011": 2.12800655399,
			"0.012": 2.00461952089,
			"0.013": 0.990548897123,
			"0.014": 0.0196448339452,
			"0.015": 0.0,
			"0.016": 0.0,
			"0.017": 0.0,
			"0.018": 0.0,
			"0.019": 0.0,
			"0.02": 0.0,
			"0.021": 0.0,
			"0.022": 0.0,
			"0.023": 0.0,
			"0.024": 0.0,
			"0.025": 0.0
		}
	}
}
