{
	 "smiles": "CCCCCCCCCCCCCCCCCC(=O)OCCO", 
	 "Tm": 333.65, 
	 "num_atms": 63, 
	 "gaussian": { 
		 "optdone": 1, 
		 "sigma_profile": "yes", 
		 "theory": "DFT", 
		 "functional": "B3LYP", 
		 "basiset": "6-31G**", 
		 "properties": { 
			 "R2extent": 15727.6351, 
			 "electric_dipole_moment_norm": 1.56494275295, 
			 "electric_quadrupole_moment_norm": 10.6545144643, 
			 "total_energy": -1011.96100769, 
			 "HOMO_LUMO_gap": 0.2716, 
			 "cosmo_polarized_energy": -10.22, 
			 "cosmo_cavitation_energy": 61.43, 
			 "cosmo_dispersion_energy": -39.25, 
			 "cosmo_repulsion_energy": 3.18, 
			 "cosmo_total_nonelectrostatic_energy": 25.35, 
			 "SMD_solvation_energy": 8.7 
		},
		"coords": [
			{
				"x": -4.4262782979,
				"y": -1.479880312,
				"z": -5.366797198,
				"element": "C" 
			},
			{
				"x": -3.8844693714,
				"y": -0.1540672317,
				"z": -4.8220910487,
				"element": "C" 
			},
			{
				"x": -4.502643038,
				"y": 0.2345539135,
				"z": -3.4714105317,
				"element": "C" 
			},
			{
				"x": -4.0450474068,
				"y": 1.5935376871,
				"z": -2.9165032978,
				"element": "C" 
			},
			{
				"x": -2.5620150544,
				"y": 1.6641204485,
				"z": -2.5228753345,
				"element": "C" 
			},
			{
				"x": -2.1740455455,
				"y": 3.0181324823,
				"z": -1.9123268107,
				"element": "C" 
			},
			{
				"x": -0.7285078157,
				"y": 3.1378372537,
				"z": -1.3964073762,
				"element": "C" 
			},
			{
				"x": 0.3754345168,
				"y": 3.0235170446,
				"z": -2.4739602684,
				"element": "C" 
			},
			{
				"x": 0.9742594915,
				"y": 1.6188766071,
				"z": -2.68139825,
				"element": "C" 
			},
			{
				"x": 1.8846585621,
				"y": 1.1497344261,
				"z": -1.5369228302,
				"element": "C" 
			},
			{
				"x": 2.4679024767,
				"y": -0.250707474,
				"z": -1.7719351245,
				"element": "C" 
			},
			{
				"x": 3.4768405069,
				"y": -0.7144688047,
				"z": -0.706234889,
				"element": "C" 
			},
			{
				"x": 2.9307057445,
				"y": -0.8649834944,
				"z": 0.7258289482,
				"element": "C" 
			},
			{
				"x": 1.8455087824,
				"y": -1.9418457791,
				"z": 0.8833862289,
				"element": "C" 
			},
			{
				"x": 1.296092653,
				"y": -2.0798933559,
				"z": 2.313609497,
				"element": "C" 
			},
			{
				"x": 2.2913011391,
				"y": -2.6633507012,
				"z": 3.3279144414,
				"element": "C" 
			},
			{
				"x": 1.7434431009,
				"y": -2.698564785,
				"z": 4.7669299723,
				"element": "C" 
			},
			{
				"x": 1.4126778537,
				"y": -1.3277151136,
				"z": 5.3255043159,
				"element": "C" 
			},
			{
				"x": 0.3580966181,
				"y": -1.0096948573,
				"z": 5.8284206406,
				"element": "O" 
			},
			{
				"x": 2.472502167,
				"y": -0.4816427486,
				"z": 5.1998119309,
				"element": "O" 
			},
			{
				"x": 2.2767868142,
				"y": 0.8867698514,
				"z": 5.6336789216,
				"element": "C" 
			},
			{
				"x": 1.849010517,
				"y": 1.7327973088,
				"z": 4.4430042872,
				"element": "C" 
			},
			{
				"x": 2.8145008267,
				"y": 1.7244276744,
				"z": 3.404734345,
				"element": "O" 
			},
			{
				"x": -3.9726473318,
				"y": -1.7338595732,
				"z": -6.3305678755,
				"element": "H" 
			},
			{
				"x": -5.5119115825,
				"y": -1.434897169,
				"z": -5.5114522229,
				"element": "H" 
			},
			{
				"x": -4.221114294,
				"y": -2.305423635,
				"z": -4.6754256917,
				"element": "H" 
			},
			{
				"x": -4.0775377055,
				"y": 0.6470424776,
				"z": -5.5491983014,
				"element": "H" 
			},
			{
				"x": -2.793426691,
				"y": -0.2223867645,
				"z": -4.7285020657,
				"element": "H" 
			},
			{
				"x": -4.2826432848,
				"y": -0.5511466591,
				"z": -2.7339166717,
				"element": "H" 
			},
			{
				"x": -5.5960661448,
				"y": 0.2480984127,
				"z": -3.578771245,
				"element": "H" 
			},
			{
				"x": -4.6537470817,
				"y": 1.8369730852,
				"z": -2.0349203274,
				"element": "H" 
			},
			{
				"x": -4.2608391589,
				"y": 2.3776397658,
				"z": -3.6568262367,
				"element": "H" 
			},
			{
				"x": -1.9383805673,
				"y": 1.4652064499,
				"z": -3.4023138328,
				"element": "H" 
			},
			{
				"x": -2.3422186692,
				"y": 0.8625377912,
				"z": -1.8021988885,
				"element": "H" 
			},
			{
				"x": -2.8569463153,
				"y": 3.2336680417,
				"z": -1.0785472039,
				"element": "H" 
			},
			{
				"x": -2.3512895737,
				"y": 3.8085341682,
				"z": -2.6562667081,
				"element": "H" 
			},
			{
				"x": -0.5621757459,
				"y": 2.3906514509,
				"z": -0.6087191938,
				"element": "H" 
			},
			{
				"x": -0.6370092726,
				"y": 4.1114569428,
				"z": -0.8993705401,
				"element": "H" 
			},
			{
				"x": 1.1985800326,
				"y": 3.7040347261,
				"z": -2.2187712591,
				"element": "H" 
			},
			{
				"x": -0.0239507086,
				"y": 3.3900627197,
				"z": -3.4293897727,
				"element": "H" 
			},
			{
				"x": 1.557754152,
				"y": 1.6187581242,
				"z": -3.6124612112,
				"element": "H" 
			},
			{
				"x": 0.1720782323,
				"y": 0.8846306944,
				"z": -2.828871101,
				"element": "H" 
			},
			{
				"x": 1.3276642139,
				"y": 1.1659270903,
				"z": -0.5916949804,
				"element": "H" 
			},
			{
				"x": 2.7072692527,
				"y": 1.8691261595,
				"z": -1.413677365,
				"element": "H" 
			},
			{
				"x": 1.6476436502,
				"y": -0.9764328385,
				"z": -1.8554935389,
				"element": "H" 
			},
			{
				"x": 2.9727912487,
				"y": -0.2636910266,
				"z": -2.7475736594,
				"element": "H" 
			},
			{
				"x": 3.9039483087,
				"y": -1.6767556366,
				"z": -1.0205772357,
				"element": "H" 
			},
			{
				"x": 4.3146257795,
				"y": -0.0045665673,
				"z": -0.6854459073,
				"element": "H" 
			},
			{
				"x": 3.7789504874,
				"y": -1.1041866768,
				"z": 1.3809643499,
				"element": "H" 
			},
			{
				"x": 2.5375786173,
				"y": 0.099284387,
				"z": 1.077297122,
				"element": "H" 
			},
			{
				"x": 1.0067479098,
				"y": -1.7111321697,
				"z": 0.2157671354,
				"element": "H" 
			},
			{
				"x": 2.2422459911,
				"y": -2.910861009,
				"z": 0.5472668504,
				"element": "H" 
			},
			{
				"x": 0.3998073332,
				"y": -2.7137709516,
				"z": 2.2981226888,
				"element": "H" 
			},
			{
				"x": 0.9555613571,
				"y": -1.0920757444,
				"z": 2.6558336616,
				"element": "H" 
			},
			{
				"x": 3.2246415945,
				"y": -2.0916937869,
				"z": 3.3260640686,
				"element": "H" 
			},
			{
				"x": 2.5532596397,
				"y": -3.6865714073,
				"z": 3.0308891207,
				"element": "H" 
			},
			{
				"x": 0.8284673654,
				"y": -3.2933531516,
				"z": 4.8310867444,
				"element": "H" 
			},
			{
				"x": 2.4871085397,
				"y": -3.1571762498,
				"z": 5.430545758,
				"element": "H" 
			},
			{
				"x": 3.2521337848,
				"y": 1.2088310106,
				"z": 6.0058729219,
				"element": "H" 
			},
			{
				"x": 1.5321596899,
				"y": 0.9150713362,
				"z": 6.432184268,
				"element": "H" 
			},
			{
				"x": 0.8657290582,
				"y": 1.3848728894,
				"z": 4.0911022618,
				"element": "H" 
			},
			{
				"x": 1.7365734268,
				"y": 2.7743265945,
				"z": 4.7631387629,
				"element": "H" 
			},
			{
				"x": 3.0135692208,
				"y": 0.7980566593,
				"z": 3.2121567521,
				"element": "H" 
			}
		],
		 "valence_orbital": [ 
			{
				"type": "occ",
				"energy": -0.30095,
				"method": "rhf"
			},
			{
				"type": "occ",
				"energy": -0.29679,
				"method": "rhf"
			},
			{
				"type": "occ",
				"energy": -0.29402,
				"method": "rhf"
			},
			{
				"type": "occ",
				"energy": -0.27646,
				"method": "rhf"
			},
			{
				"type": "occ",
				"energy": -0.26587,
				"method": "rhf"
			},
			{
				"type": "unocc",
				"energy": 0.00573,
				"method": "rhf"
			},
			{
				"type": "unocc",
				"energy": 0.05625,
				"method": "rhf"
			},
			{
				"type": "unocc",
				"energy": 0.08145,
				"method": "rhf"
			},
			{
				"type": "unocc",
				"energy": 0.09122,
				"method": "rhf"
			},
			{
				"type": "unocc",
				"energy": 0.09385,
				"method": "rhf"
			}
		],
		"cosmo_sigma_profile": { 
			"-0.025": 0.0,
			"-0.024": 0.0,
			"-0.023": 0.0,
			"-0.022": 0.0,
			"-0.021": 0.0,
			"-0.02": 0.0,
			"-0.019": 0.0,
			"-0.018": 0.0,
			"-0.017": 0.0,
			"-0.016": 0.0,
			"-0.015": 0.0,
			"-0.014": 0.0,
			"-0.013": 0.0,
			"-0.012": 0.0,
			"-0.011": 0.0,
			"-0.01": 0.0,
			"-0.009": 0.0,
			"-0.008": 0.528362606946,
			"-0.007": 1.86757073262,
			"-0.006": 10.0470962342,
			"-0.005": 14.984837188,
			"-0.004": 16.6865156506,
			"-0.003": 23.4987776847,
			"-0.002": 57.885194547,
			"-0.001": 91.9814010819,
			"0.0": 101.970523434,
			"0.001": 75.8490977207,
			"0.002": 33.8625335108,
			"0.003": 5.1498279973,
			"0.004": 3.54808417259,
			"0.005": 3.21036611173,
			"0.006": 3.52693808271,
			"0.007": 3.01259828017,
			"0.008": 2.59256549513,
			"0.009": 2.4301960366,
			"0.01": 3.52714250674,
			"0.011": 3.72532629729,
			"0.012": 5.20720757363,
			"0.013": 3.28432761621,
			"0.014": 2.12021355496,
			"0.015": 0.421731654455,
			"0.016": 0.0,
			"0.017": 0.0,
			"0.018": 0.0,
			"0.019": 0.0,
			"0.02": 0.0,
			"0.021": 0.0,
			"0.022": 0.0,
			"0.023": 0.0,
			"0.024": 0.0,
			"0.025": 0.0
		}
	}
}
