{
	 "smiles": "CC(O)C1=NC2=C(C=CC(=C2)C(F)(F)F)N1C", 
	 "Tm": 373.15, 
	 "num_atms": 28, 
	 "gaussian": { 
		 "optdone": 1, 
		 "sigma_profile": "yes", 
		 "theory": "DFT", 
		 "functional": "B3LYP", 
		 "basiset": "6-31G**", 
		 "properties": { 
			 "R2extent": 6299.0529, 
			 "electric_dipole_moment_norm": 6.54566041741, 
			 "electric_quadrupole_moment_norm": 10.9237977041, 
			 "total_energy": -910.065920407, 
			 "HOMO_LUMO_gap": 0.20445, 
			 "cosmo_polarized_energy": -13.46, 
			 "cosmo_cavitation_energy": 32.87, 
			 "cosmo_dispersion_energy": -23.28, 
			 "cosmo_repulsion_energy": 1.73, 
			 "cosmo_total_nonelectrostatic_energy": 11.32, 
			 "SMD_solvation_energy": 4.68 
		},
		"coords": [
			{
				"x": 1.6882511403,
				"y": -3.1226874611,
				"z": -1.5190363045,
				"element": "C" 
			},
			{
				"x": 0.6044860725,
				"y": -2.5882051519,
				"z": -0.572290722,
				"element": "C" 
			},
			{
				"x": -0.6932543507,
				"y": -3.0800187156,
				"z": -0.9239454828,
				"element": "O" 
			},
			{
				"x": 0.5577042346,
				"y": -1.0828841031,
				"z": -0.5469783732,
				"element": "C" 
			},
			{
				"x": 1.109400036,
				"y": -0.3917104916,
				"z": 0.4247298696,
				"element": "N" 
			},
			{
				"x": 0.9354988041,
				"y": 0.9337141139,
				"z": 0.0681399871,
				"element": "C" 
			},
			{
				"x": 0.2474793023,
				"y": 1.0184343496,
				"z": -1.1650256673,
				"element": "C" 
			},
			{
				"x": -0.0759994106,
				"y": 2.2418230681,
				"z": -1.7599039714,
				"element": "C" 
			},
			{
				"x": 0.3136174135,
				"y": 3.391283577,
				"z": -1.0838636071,
				"element": "C" 
			},
			{
				"x": 1.0020200067,
				"y": 3.3205818412,
				"z": 0.1476426462,
				"element": "C" 
			},
			{
				"x": 1.3202053968,
				"y": 2.1000376174,
				"z": 0.7368448194,
				"element": "C" 
			},
			{
				"x": 1.4318848213,
				"y": 4.6070217185,
				"z": 0.7939670484,
				"element": "C" 
			},
			{
				"x": 1.7973102077,
				"y": 4.4391651948,
				"z": 2.0834914751,
				"element": "F" 
			},
			{
				"x": 0.4444805376,
				"y": 5.534837689,
				"z": 0.7714699641,
				"element": "F" 
			},
			{
				"x": 2.4899033332,
				"y": 5.1639531733,
				"z": 0.1537496373,
				"element": "F" 
			},
			{
				"x": 0.0145625614,
				"y": -0.2900539308,
				"z": -1.5464003268,
				"element": "N" 
			},
			{
				"x": -0.6728634248,
				"y": -0.6893437894,
				"z": -2.7668713581,
				"element": "C" 
			},
			{
				"x": 1.7282448317,
				"y": -4.2173135783,
				"z": -1.4693218703,
				"element": "H" 
			},
			{
				"x": 1.4880797524,
				"y": -2.8346877825,
				"z": -2.5553408108,
				"element": "H" 
			},
			{
				"x": 2.6707792777,
				"y": -2.7374476378,
				"z": -1.2320984725,
				"element": "H" 
			},
			{
				"x": 0.8587593722,
				"y": -2.875341475,
				"z": 0.4560751774,
				"element": "H" 
			},
			{
				"x": -0.6486534783,
				"y": -4.0450085315,
				"z": -0.925572284,
				"element": "H" 
			},
			{
				"x": -0.6054469583,
				"y": 2.3031714484,
				"z": -2.7052050633,
				"element": "H" 
			},
			{
				"x": 0.0811512782,
				"y": 4.3649759371,
				"z": -1.5017848281,
				"element": "H" 
			},
			{
				"x": 1.8437856006,
				"y": 2.0491531485,
				"z": 1.6840187326,
				"element": "H" 
			},
			{
				"x": -1.6012329934,
				"y": -0.1188724285,
				"z": -2.8662270644,
				"element": "H" 
			},
			{
				"x": -0.0473334984,
				"y": -0.4983804309,
				"z": -3.6460409932,
				"element": "H" 
			},
			{
				"x": -0.9183198663,
				"y": -1.746897369,
				"z": -2.7030221575,
				"element": "H" 
			}
		],
		 "valence_orbital": [ 
			{
				"type": "occ",
				"energy": -0.30253,
				"method": "rhf"
			},
			{
				"type": "occ",
				"energy": -0.29076,
				"method": "rhf"
			},
			{
				"type": "occ",
				"energy": -0.27462,
				"method": "rhf"
			},
			{
				"type": "occ",
				"energy": -0.23533,
				"method": "rhf"
			},
			{
				"type": "occ",
				"energy": -0.23016,
				"method": "rhf"
			},
			{
				"type": "unocc",
				"energy": -0.02571,
				"method": "rhf"
			},
			{
				"type": "unocc",
				"energy": -0.00015,
				"method": "rhf"
			},
			{
				"type": "unocc",
				"energy": 0.0413,
				"method": "rhf"
			},
			{
				"type": "unocc",
				"energy": 0.0557,
				"method": "rhf"
			},
			{
				"type": "unocc",
				"energy": 0.08957,
				"method": "rhf"
			}
		],
		"cosmo_sigma_profile": { 
			"-0.025": 0.0,
			"-0.024": 0.0,
			"-0.023": 0.0,
			"-0.022": 0.0,
			"-0.021": 0.0,
			"-0.02": 0.0,
			"-0.019": 0.0,
			"-0.018": 0.0,
			"-0.017": 0.118340307308,
			"-0.016": 0.928017357283,
			"-0.015": 1.07362647541,
			"-0.014": 0.312333514022,
			"-0.013": 1.36855117778,
			"-0.012": 1.13963716408,
			"-0.011": 0.89291695007,
			"-0.01": 0.989490714591,
			"-0.009": 1.06276025409,
			"-0.008": 1.29046349531,
			"-0.007": 5.18442319837,
			"-0.006": 13.2583675303,
			"-0.005": 15.3023516984,
			"-0.004": 19.5269951848,
			"-0.003": 21.0620570238,
			"-0.002": 16.1524452446,
			"-0.001": 17.6886968162,
			"0.0": 17.7383045852,
			"0.001": 17.1593082364,
			"0.002": 21.514354635,
			"0.003": 46.0134490361,
			"0.004": 17.5897218472,
			"0.005": 4.16446490463,
			"0.006": 2.78061889306,
			"0.007": 2.37051685191,
			"0.008": 1.99150449159,
			"0.009": 1.8208200793,
			"0.01": 2.36216145616,
			"0.011": 2.10171743146,
			"0.012": 2.02092144506,
			"0.013": 1.11632626332,
			"0.014": 0.627247459951,
			"0.015": 1.0456761533,
			"0.016": 1.02685577356,
			"0.017": 0.507045479447,
			"0.018": 0.0202425558613,
			"0.019": 0.0,
			"0.02": 0.0,
			"0.021": 0.0,
			"0.022": 0.0,
			"0.023": 0.0,
			"0.024": 0.0,
			"0.025": 0.0
		}
	}
}
