{
	 "smiles": "SC(C1=CC=CC=C1)(C1=CC=CC=C1)C1=CC=CC=C1", 
	 "Tm": 379.15, 
	 "num_atms": 36, 
	 "gaussian": { 
		 "optdone": 1, 
		 "sigma_profile": "yes", 
		 "theory": "DFT", 
		 "functional": "B3LYP", 
		 "basiset": "6-31G**", 
		 "properties": { 
			 "R2extent": 5677.1701, 
			 "electric_dipole_moment_norm": 1.50273529938, 
			 "electric_quadrupole_moment_norm": 5.38106401281, 
			 "total_energy": -1131.84081419, 
			 "HOMO_LUMO_gap": 0.20413, 
			 "cosmo_polarized_energy": -8.13, 
			 "cosmo_cavitation_energy": 39.2, 
			 "cosmo_dispersion_energy": -27.42, 
			 "cosmo_repulsion_energy": 2.08, 
			 "cosmo_total_nonelectrostatic_energy": 13.86, 
			 "SMD_solvation_energy": 6.21 
		},
		"coords": [
			{
				"x": -1.7909121091,
				"y": -0.5186325775,
				"z": 0.0297643048,
				"element": "S" 
			},
			{
				"x": -0.035390589,
				"y": 0.1382815128,
				"z": -0.2856517655,
				"element": "C" 
			},
			{
				"x": -0.0439614742,
				"y": 1.6479776848,
				"z": -0.6144103831,
				"element": "C" 
			},
			{
				"x": 0.9929650223,
				"y": 2.1836445706,
				"z": -1.3963443968,
				"element": "C" 
			},
			{
				"x": 1.0623652146,
				"y": 3.5510862839,
				"z": -1.6633845404,
				"element": "C" 
			},
			{
				"x": 0.0941903601,
				"y": 4.4177238101,
				"z": -1.1546949948,
				"element": "C" 
			},
			{
				"x": -0.9393094569,
				"y": 3.8999226743,
				"z": -0.3747014736,
				"element": "C" 
			},
			{
				"x": -1.00544214,
				"y": 2.5311316512,
				"z": -0.1075011211,
				"element": "C" 
			},
			{
				"x": 0.8042486386,
				"y": -0.1660441938,
				"z": 0.9713840615,
				"element": "C" 
			},
			{
				"x": 0.8517869853,
				"y": -1.4747332252,
				"z": 1.4875441801,
				"element": "C" 
			},
			{
				"x": 1.606182321,
				"y": -1.7752187219,
				"z": 2.6181491405,
				"element": "C" 
			},
			{
				"x": 2.328722517,
				"y": -0.7723677284,
				"z": 3.2715714003,
				"element": "C" 
			},
			{
				"x": 2.2880178619,
				"y": 0.5273610692,
				"z": 2.7746981409,
				"element": "C" 
			},
			{
				"x": 1.5356162484,
				"y": 0.8278952182,
				"z": 1.6342532467,
				"element": "C" 
			},
			{
				"x": 0.4238210497,
				"y": -0.6521037145,
				"z": -1.5306824591,
				"element": "C" 
			},
			{
				"x": -0.3701845662,
				"y": -0.6181577566,
				"z": -2.6903985962,
				"element": "C" 
			},
			{
				"x": 0.016345237,
				"y": -1.2949097053,
				"z": -3.8446146823,
				"element": "C" 
			},
			{
				"x": 1.2173434624,
				"y": -2.00815741,
				"z": -3.8734024237,
				"element": "C" 
			},
			{
				"x": 2.0234321045,
				"y": -2.0313349139,
				"z": -2.7374669189,
				"element": "C" 
			},
			{
				"x": 1.6306107451,
				"y": -1.3603253618,
				"z": -1.5751922961,
				"element": "C" 
			},
			{
				"x": -1.9279544114,
				"y": -0.023824876,
				"z": 1.2764815687,
				"element": "H" 
			},
			{
				"x": 1.7525816218,
				"y": 1.5247017633,
				"z": -1.80299087,
				"element": "H" 
			},
			{
				"x": 1.8734703722,
				"y": 3.9360436489,
				"z": -2.2751469839,
				"element": "H" 
			},
			{
				"x": 0.1425224961,
				"y": 5.4818334855,
				"z": -1.3671556465,
				"element": "H" 
			},
			{
				"x": -1.7040794973,
				"y": 4.5593068281,
				"z": 0.0260931729,
				"element": "H" 
			},
			{
				"x": -1.8271679951,
				"y": 2.1509262899,
				"z": 0.4875127786,
				"element": "H" 
			},
			{
				"x": 0.2830929332,
				"y": -2.2582246636,
				"z": 0.9982000443,
				"element": "H" 
			},
			{
				"x": 1.6252390754,
				"y": -2.7945623016,
				"z": 2.9935815006,
				"element": "H" 
			},
			{
				"x": 2.9123603236,
				"y": -1.0050447139,
				"z": 4.1576513828,
				"element": "H" 
			},
			{
				"x": 2.8411177846,
				"y": 1.3198599116,
				"z": 3.2710251225,
				"element": "H" 
			},
			{
				"x": 1.5222007335,
				"y": 1.8465595592,
				"z": 1.2666244216,
				"element": "H" 
			},
			{
				"x": -1.2953964866,
				"y": -0.0497512523,
				"z": -2.6889342945,
				"element": "H" 
			},
			{
				"x": -0.6192361002,
				"y": -1.2596110285,
				"z": -4.7248733127,
				"element": "H" 
			},
			{
				"x": 1.5214490664,
				"y": -2.5341499569,
				"z": -4.7737529167,
				"element": "H" 
			},
			{
				"x": 2.9651283958,
				"y": -2.5730610471,
				"z": -2.7471536639,
				"element": "H" 
			},
			{
				"x": 2.2733242556,
				"y": -1.3905408129,
				"z": -0.7034807274,
				"element": "H" 
			}
		],
		 "valence_orbital": [ 
			{
				"type": "occ",
				"energy": -0.25427,
				"method": "rhf"
			},
			{
				"type": "occ",
				"energy": -0.24802,
				"method": "rhf"
			},
			{
				"type": "occ",
				"energy": -0.24427,
				"method": "rhf"
			},
			{
				"type": "occ",
				"energy": -0.2358,
				"method": "rhf"
			},
			{
				"type": "occ",
				"energy": -0.22701,
				"method": "rhf"
			},
			{
				"type": "unocc",
				"energy": -0.02288,
				"method": "rhf"
			},
			{
				"type": "unocc",
				"energy": -0.00889,
				"method": "rhf"
			},
			{
				"type": "unocc",
				"energy": -0.00818,
				"method": "rhf"
			},
			{
				"type": "unocc",
				"energy": -0.00472,
				"method": "rhf"
			},
			{
				"type": "unocc",
				"energy": 0.00358,
				"method": "rhf"
			}
		],
		"cosmo_sigma_profile": { 
			"-0.025": 0.0,
			"-0.024": 0.0,
			"-0.023": 0.0,
			"-0.022": 0.0,
			"-0.021": 0.0,
			"-0.02": 0.0,
			"-0.019": 0.0,
			"-0.018": 0.0,
			"-0.017": 0.0,
			"-0.016": 0.0,
			"-0.015": 0.0,
			"-0.014": 0.0,
			"-0.013": 0.0,
			"-0.012": 0.0,
			"-0.011": 0.0,
			"-0.01": 0.0156366084013,
			"-0.009": 1.27984644063,
			"-0.008": 2.3605370996,
			"-0.007": 1.86563288714,
			"-0.006": 11.7038298444,
			"-0.005": 26.4070544292,
			"-0.004": 30.2490270748,
			"-0.003": 28.4040369874,
			"-0.002": 22.3516656925,
			"-0.001": 21.8291569431,
			"0.0": 22.7874359571,
			"0.001": 23.0688169427,
			"0.002": 22.9910535186,
			"0.003": 26.6784452184,
			"0.004": 27.0995438776,
			"0.005": 28.8334152207,
			"0.006": 11.5300771591,
			"0.007": 2.73478636512,
			"0.008": 2.06133722466,
			"0.009": 1.08136405636,
			"0.01": 0.178368101541,
			"0.011": 0.0,
			"0.012": 0.0,
			"0.013": 0.0,
			"0.014": 0.0,
			"0.015": 0.0,
			"0.016": 0.0,
			"0.017": 0.0,
			"0.018": 0.0,
			"0.019": 0.0,
			"0.02": 0.0,
			"0.021": 0.0,
			"0.022": 0.0,
			"0.023": 0.0,
			"0.024": 0.0,
			"0.025": 0.0
		}
	}
}
