{
	 "smiles": "O=CC(C=O)C1=NC=CN=C1", 
	 "Tm": 477.15, 
	 "num_atms": 17, 
	 "gaussian": { 
		 "optdone": 1, 
		 "sigma_profile": "yes", 
		 "theory": "DFT", 
		 "functional": "B3LYP", 
		 "basiset": "6-31G**", 
		 "properties": { 
			 "R2extent": 2040.532, 
			 "electric_dipole_moment_norm": 3.31898234705, 
			 "electric_quadrupole_moment_norm": 5.11026804385, 
			 "total_energy": -530.257272886, 
			 "HOMO_LUMO_gap": 0.19063, 
			 "cosmo_polarized_energy": -13.02, 
			 "cosmo_cavitation_energy": 22.64, 
			 "cosmo_dispersion_energy": -16.03, 
			 "cosmo_repulsion_energy": 1.3, 
			 "cosmo_total_nonelectrostatic_energy": 7.91, 
			 "SMD_solvation_energy": 3.14 
		},
		"coords": [
			{
				"x": -1.5154656031,
				"y": -1.1744007354,
				"z": -1.0551228907,
				"element": "O" 
			},
			{
				"x": -1.5132334188,
				"y": -0.2913697021,
				"z": -1.8796492271,
				"element": "C" 
			},
			{
				"x": -0.8418372283,
				"y": 1.0686876584,
				"z": -1.6953174133,
				"element": "C" 
			},
			{
				"x": 0.2025559436,
				"y": 1.2886877129,
				"z": -2.7977427578,
				"element": "C" 
			},
			{
				"x": 0.4909795613,
				"y": 0.4611111307,
				"z": -3.6306572005,
				"element": "O" 
			},
			{
				"x": -0.2396803226,
				"y": 1.3234746519,
				"z": -0.3294132146,
				"element": "C" 
			},
			{
				"x": -0.5591978806,
				"y": 2.4836633776,
				"z": 0.2600160279,
				"element": "N" 
			},
			{
				"x": -0.0068849733,
				"y": 2.7221388224,
				"z": 1.4545287903,
				"element": "C" 
			},
			{
				"x": 0.8626857016,
				"y": 1.8128566295,
				"z": 2.0579825612,
				"element": "C" 
			},
			{
				"x": 1.1923137592,
				"y": 0.6560560745,
				"z": 1.472636686,
				"element": "N" 
			},
			{
				"x": 0.6402280427,
				"y": 0.4153192391,
				"z": 0.2804444917,
				"element": "C" 
			},
			{
				"x": -2.021616799,
				"y": -0.410609832,
				"z": -2.8575179668,
				"element": "H" 
			},
			{
				"x": -1.6046022163,
				"y": 1.847887576,
				"z": -1.8491158445,
				"element": "H" 
			},
			{
				"x": 0.6901578372,
				"y": 2.2858372177,
				"z": -2.7686931309,
				"element": "H" 
			},
			{
				"x": -0.2648181992,
				"y": 3.6608387388,
				"z": 1.9400359531,
				"element": "H" 
			},
			{
				"x": 1.3045689948,
				"y": 2.0214970556,
				"z": 3.0298839381,
				"element": "H" 
			},
			{
				"x": 0.8904468007,
				"y": -0.5257756154,
				"z": -0.2002988021,
				"element": "H" 
			}
		],
		 "valence_orbital": [ 
			{
				"type": "occ",
				"energy": -0.32095,
				"method": "rhf"
			},
			{
				"type": "occ",
				"energy": -0.29563,
				"method": "rhf"
			},
			{
				"type": "occ",
				"energy": -0.27952,
				"method": "rhf"
			},
			{
				"type": "occ",
				"energy": -0.26506,
				"method": "rhf"
			},
			{
				"type": "occ",
				"energy": -0.26022,
				"method": "rhf"
			},
			{
				"type": "unocc",
				"energy": -0.06959,
				"method": "rhf"
			},
			{
				"type": "unocc",
				"energy": -0.04602,
				"method": "rhf"
			},
			{
				"type": "unocc",
				"energy": -0.04113,
				"method": "rhf"
			},
			{
				"type": "unocc",
				"energy": -0.03065,
				"method": "rhf"
			},
			{
				"type": "unocc",
				"energy": 0.09384,
				"method": "rhf"
			}
		],
		"cosmo_sigma_profile": { 
			"-0.025": 0.0,
			"-0.024": 0.0,
			"-0.023": 0.0,
			"-0.022": 0.0,
			"-0.021": 0.0,
			"-0.02": 0.0,
			"-0.019": 0.0,
			"-0.018": 0.0,
			"-0.017": 0.0,
			"-0.016": 0.0,
			"-0.015": 0.0,
			"-0.014": 0.0,
			"-0.013": 0.0,
			"-0.012": 0.0,
			"-0.011": 0.162639401688,
			"-0.01": 3.73573633246,
			"-0.009": 3.87102298843,
			"-0.008": 12.7082721791,
			"-0.007": 14.4554248927,
			"-0.006": 11.6752837624,
			"-0.005": 8.71333257045,
			"-0.004": 9.58732455,
			"-0.003": 7.84350390839,
			"-0.002": 9.64313582157,
			"-0.001": 12.6488704545,
			"0.0": 11.0946887046,
			"0.001": 7.98995640062,
			"0.002": 7.51862323631,
			"0.003": 6.45533823285,
			"0.004": 5.04451304471,
			"0.005": 5.4460324467,
			"0.006": 6.6093088462,
			"0.007": 5.06804786821,
			"0.008": 5.95567421451,
			"0.009": 7.71396037929,
			"0.01": 8.46064299565,
			"0.011": 4.6377241584,
			"0.012": 1.9968501577,
			"0.013": 1.33810986899,
			"0.014": 1.08702783227,
			"0.015": 0.563179631264,
			"0.016": 0.0,
			"0.017": 0.0,
			"0.018": 0.0,
			"0.019": 0.0,
			"0.02": 0.0,
			"0.021": 0.0,
			"0.022": 0.0,
			"0.023": 0.0,
			"0.024": 0.0,
			"0.025": 0.0
		}
	}
}
