{
	 "smiles": "CCC1=NOC(C)=C1C(O)=O", 
	 "Tm": 396.15, 
	 "num_atms": 20, 
	 "gaussian": { 
		 "optdone": 1, 
		 "sigma_profile": "yes", 
		 "theory": "DFT", 
		 "functional": "B3LYP", 
		 "basiset": "6-31G**", 
		 "properties": { 
			 "R2extent": 1772.8099, 
			 "electric_dipole_moment_norm": 2.04448056239, 
			 "electric_quadrupole_moment_norm": 18.4884504472, 
			 "total_energy": -552.564336964, 
			 "HOMO_LUMO_gap": 0.22865, 
			 "cosmo_polarized_energy": -13.59, 
			 "cosmo_cavitation_energy": 23.66, 
			 "cosmo_dispersion_energy": -17.5, 
			 "cosmo_repulsion_energy": 1.41, 
			 "cosmo_total_nonelectrostatic_energy": 7.58, 
			 "SMD_solvation_energy": 5.28 
		},
		"coords": [
			{
				"x": 0.883830408,
				"y": -2.5488269681,
				"z": -0.4504898502,
				"element": "C" 
			},
			{
				"x": 1.7188886301,
				"y": -1.2569977606,
				"z": -0.3815866339,
				"element": "C" 
			},
			{
				"x": 0.8994628767,
				"y": -0.0017905648,
				"z": -0.5298051974,
				"element": "C" 
			},
			{
				"x": 1.0357007194,
				"y": 0.6896171623,
				"z": -1.6354656723,
				"element": "N" 
			},
			{
				"x": 0.1350698526,
				"y": 1.7636509233,
				"z": -1.5292924389,
				"element": "O" 
			},
			{
				"x": -0.5266029874,
				"y": 1.688812195,
				"z": -0.3680784764,
				"element": "C" 
			},
			{
				"x": -1.5275869328,
				"y": 2.7525639456,
				"z": -0.0909430553,
				"element": "C" 
			},
			{
				"x": -0.0917566737,
				"y": 0.5870490998,
				"z": 0.3365076353,
				"element": "C" 
			},
			{
				"x": -0.6004934912,
				"y": 0.1936530826,
				"z": 1.6685992051,
				"element": "C" 
			},
			{
				"x": 0.0812517882,
				"y": -0.7830040161,
				"z": 2.326588824,
				"element": "O" 
			},
			{
				"x": -1.5763199444,
				"y": 0.6855375892,
				"z": 2.191099085,
				"element": "O" 
			},
			{
				"x": 0.1406839973,
				"y": -2.5982715813,
				"z": 0.3506372782,
				"element": "H" 
			},
			{
				"x": 0.3544457441,
				"y": -2.6078695443,
				"z": -1.4052696995,
				"element": "H" 
			},
			{
				"x": 1.5327320659,
				"y": -3.4252527606,
				"z": -0.3649221701,
				"element": "H" 
			},
			{
				"x": 2.4591141353,
				"y": -1.2500483207,
				"z": -1.1867426788,
				"element": "H" 
			},
			{
				"x": 2.3031963681,
				"y": -1.2228222103,
				"z": 0.5508446867,
				"element": "H" 
			},
			{
				"x": -1.0472350712,
				"y": 3.7366584586,
				"z": -0.0929878768,
				"element": "H" 
			},
			{
				"x": -2.2957741379,
				"y": 2.7586864379,
				"z": -0.8713943385,
				"element": "H" 
			},
			{
				"x": -1.9940808711,
				"y": 2.5659828987,
				"z": 0.8750982126,
				"element": "H" 
			},
			{
				"x": 0.8906735241,
				"y": -1.0203280663,
				"z": 1.8546031611,
				"element": "H" 
			}
		],
		 "valence_orbital": [ 
			{
				"type": "occ",
				"energy": -0.32515,
				"method": "rhf"
			},
			{
				"type": "occ",
				"energy": -0.32213,
				"method": "rhf"
			},
			{
				"type": "occ",
				"energy": -0.30452,
				"method": "rhf"
			},
			{
				"type": "occ",
				"energy": -0.28148,
				"method": "rhf"
			},
			{
				"type": "occ",
				"energy": -0.27036,
				"method": "rhf"
			},
			{
				"type": "unocc",
				"energy": -0.04171,
				"method": "rhf"
			},
			{
				"type": "unocc",
				"energy": -0.01292,
				"method": "rhf"
			},
			{
				"type": "unocc",
				"energy": 0.04207,
				"method": "rhf"
			},
			{
				"type": "unocc",
				"energy": 0.09245,
				"method": "rhf"
			},
			{
				"type": "unocc",
				"energy": 0.10037,
				"method": "rhf"
			}
		],
		"cosmo_sigma_profile": { 
			"-0.025": 0.0,
			"-0.024": 0.0,
			"-0.023": 0.0,
			"-0.022": 0.0,
			"-0.021": 0.0,
			"-0.02": 0.0,
			"-0.019": 0.0,
			"-0.018": 0.0,
			"-0.017": 0.413379364899,
			"-0.016": 1.25049274997,
			"-0.015": 1.15145472664,
			"-0.014": 0.876534070076,
			"-0.013": 0.717559541875,
			"-0.012": 1.14826607612,
			"-0.011": 1.23640646908,
			"-0.01": 0.486474166493,
			"-0.009": 1.13677737929,
			"-0.008": 1.96949213631,
			"-0.007": 4.47709470759,
			"-0.006": 7.00547392925,
			"-0.005": 10.2530586128,
			"-0.004": 16.0547089836,
			"-0.003": 23.4546818221,
			"-0.002": 23.1389564054,
			"-0.001": 16.9240004277,
			"0.0": 12.2196861163,
			"0.001": 5.28707485212,
			"0.002": 4.56353657151,
			"0.003": 4.08779135797,
			"0.004": 4.62345889044,
			"0.005": 4.0022186438,
			"0.006": 5.5807973857,
			"0.007": 6.91535491181,
			"0.008": 5.85717731706,
			"0.009": 3.85621595477,
			"0.01": 6.88257268475,
			"0.011": 5.57411682397,
			"0.012": 3.89533269442,
			"0.013": 2.57628384871,
			"0.014": 0.292833251474,
			"0.015": 0.0,
			"0.016": 0.0,
			"0.017": 0.0,
			"0.018": 0.0,
			"0.019": 0.0,
			"0.02": 0.0,
			"0.021": 0.0,
			"0.022": 0.0,
			"0.023": 0.0,
			"0.024": 0.0,
			"0.025": 0.0
		}
	}
}
