{
	 "smiles": "CCC1=NC(=NC(Cl)=C1)C1=CC=C(C=C1)[N+]([O-])=O", 
	 "Tm": 377.15, 
	 "num_atms": 28, 
	 "gaussian": { 
		 "optdone": 1, 
		 "sigma_profile": "yes", 
		 "theory": "DFT", 
		 "functional": "B3LYP", 
		 "basiset": "6-31G**", 
		 "properties": { 
			 "R2extent": 7445.6466, 
			 "electric_dipole_moment_norm": 6.36997235159, 
			 "electric_quadrupole_moment_norm": 22.8752452455, 
			 "total_energy": -1238.1197751, 
			 "HOMO_LUMO_gap": 0.1654, 
			 "cosmo_polarized_energy": -10.21, 
			 "cosmo_cavitation_energy": 35.6, 
			 "cosmo_dispersion_energy": -25.68, 
			 "cosmo_repulsion_energy": 2.0, 
			 "cosmo_total_nonelectrostatic_energy": 11.92, 
			 "SMD_solvation_energy": 6.1 
		},
		"coords": [
			{
				"x": -1.7055308035,
				"y": 0.100614862,
				"z": 4.0834523951,
				"element": "C" 
			},
			{
				"x": -2.4891225345,
				"y": 0.4244759905,
				"z": 2.7993790448,
				"element": "C" 
			},
			{
				"x": -1.7882167224,
				"y": -0.0794269637,
				"z": 1.5617834088,
				"element": "C" 
			},
			{
				"x": -0.6421434656,
				"y": 0.5339001042,
				"z": 1.2214269799,
				"element": "N" 
			},
			{
				"x": 0.0041256402,
				"y": 0.0911902139,
				"z": 0.1374149256,
				"element": "C" 
			},
			{
				"x": -0.4016632106,
				"y": -0.9283533442,
				"z": -0.6469502958,
				"element": "N" 
			},
			{
				"x": -1.5258627207,
				"y": -1.5190956599,
				"z": -0.2983452596,
				"element": "C" 
			},
			{
				"x": -2.0742972482,
				"y": -2.8489683642,
				"z": -1.3045017181,
				"element": "Cl" 
			},
			{
				"x": -2.2869956127,
				"y": -1.145901502,
				"z": 0.8087398152,
				"element": "C" 
			},
			{
				"x": 1.2690739279,
				"y": 0.7711898896,
				"z": -0.2439303536,
				"element": "C" 
			},
			{
				"x": 1.9928420603,
				"y": 0.3426785601,
				"z": -1.3688787184,
				"element": "C" 
			},
			{
				"x": 3.176973365,
				"y": 0.9764038476,
				"z": -1.7284018364,
				"element": "C" 
			},
			{
				"x": 3.6288660802,
				"y": 2.0422517278,
				"z": -0.9519010806,
				"element": "C" 
			},
			{
				"x": 2.9313971663,
				"y": 2.4894627692,
				"z": 0.1694384275,
				"element": "C" 
			},
			{
				"x": 1.7489573332,
				"y": 1.8482537427,
				"z": 0.5195603793,
				"element": "C" 
			},
			{
				"x": 4.8820950713,
				"y": 2.7174898282,
				"z": -1.327564893,
				"element": "N" 
			},
			{
				"x": 5.4776622874,
				"y": 2.3032020513,
				"z": -2.3214435616,
				"element": "O" 
			},
			{
				"x": 5.2576804915,
				"y": 3.6551120209,
				"z": -0.6244160396,
				"element": "O" 
			},
			{
				"x": -2.2133846023,
				"y": 0.5195801327,
				"z": 4.9569293993,
				"element": "H" 
			},
			{
				"x": -1.6141912807,
				"y": -0.9803851701,
				"z": 4.2295855287,
				"element": "H" 
			},
			{
				"x": -0.6988901406,
				"y": 0.5238605069,
				"z": 4.0326189292,
				"element": "H" 
			},
			{
				"x": -3.4959856626,
				"y": -0.0027654784,
				"z": 2.8510738681,
				"element": "H" 
			},
			{
				"x": -2.5971424751,
				"y": 1.5110484944,
				"z": 2.7063215626,
				"element": "H" 
			},
			{
				"x": -3.2086097371,
				"y": -1.6531129485,
				"z": 1.0646616508,
				"element": "H" 
			},
			{
				"x": 1.6145290733,
				"y": -0.4885852505,
				"z": -1.9518054778,
				"element": "H" 
			},
			{
				"x": 3.7517441992,
				"y": 0.6636663617,
				"z": -2.5908986197,
				"element": "H" 
			},
			{
				"x": 3.3206513446,
				"y": 3.3216241398,
				"z": 0.7421971884,
				"element": "H" 
			},
			{
				"x": 1.1817381765,
				"y": 2.1703894383,
				"z": 1.3844543509,
				"element": "H" 
			}
		],
		 "valence_orbital": [ 
			{
				"type": "occ",
				"energy": -0.30526,
				"method": "rhf"
			},
			{
				"type": "occ",
				"energy": -0.29067,
				"method": "rhf"
			},
			{
				"type": "occ",
				"energy": -0.27819,
				"method": "rhf"
			},
			{
				"type": "occ",
				"energy": -0.27704,
				"method": "rhf"
			},
			{
				"type": "occ",
				"energy": -0.26589,
				"method": "rhf"
			},
			{
				"type": "unocc",
				"energy": -0.10049,
				"method": "rhf"
			},
			{
				"type": "unocc",
				"energy": -0.06001,
				"method": "rhf"
			},
			{
				"type": "unocc",
				"energy": -0.05205,
				"method": "rhf"
			},
			{
				"type": "unocc",
				"energy": -0.02432,
				"method": "rhf"
			},
			{
				"type": "unocc",
				"energy": 0.01699,
				"method": "rhf"
			}
		],
		"cosmo_sigma_profile": { 
			"-0.025": 0.0,
			"-0.024": 0.0,
			"-0.023": 0.0,
			"-0.022": 0.0,
			"-0.021": 0.0,
			"-0.02": 0.0,
			"-0.019": 0.0,
			"-0.018": 0.0,
			"-0.017": 0.0,
			"-0.016": 0.0,
			"-0.015": 0.0,
			"-0.014": 0.0,
			"-0.013": 0.0,
			"-0.012": 0.0,
			"-0.011": 0.0,
			"-0.01": 0.0,
			"-0.009": 1.27993835095,
			"-0.008": 3.29963967829,
			"-0.007": 6.78013105789,
			"-0.006": 10.5136706662,
			"-0.005": 11.4051754508,
			"-0.004": 17.0402535836,
			"-0.003": 25.0948258309,
			"-0.002": 34.3060250017,
			"-0.001": 31.7321920713,
			"0.0": 33.5385414662,
			"0.001": 28.1843418586,
			"0.002": 14.9792082892,
			"0.003": 15.2027839318,
			"0.004": 11.715837892,
			"0.005": 8.02103173551,
			"0.006": 7.62092869304,
			"0.007": 10.8837175874,
			"0.008": 9.53949668592,
			"0.009": 4.58554867933,
			"0.01": 2.2180014834,
			"0.011": 0.0613700740457,
			"0.012": 0.0,
			"0.013": 0.0,
			"0.014": 0.0,
			"0.015": 0.0,
			"0.016": 0.0,
			"0.017": 0.0,
			"0.018": 0.0,
			"0.019": 0.0,
			"0.02": 0.0,
			"0.021": 0.0,
			"0.022": 0.0,
			"0.023": 0.0,
			"0.024": 0.0,
			"0.025": 0.0
		}
	}
}
