{
	 "smiles": "OC1=CC=C(C=C1)C1CCCC1", 
	 "Tm": 338.15, 
	 "num_atms": 26, 
	 "gaussian": { 
		 "optdone": 1, 
		 "sigma_profile": "yes", 
		 "theory": "DFT", 
		 "functional": "B3LYP", 
		 "basiset": "6-31G**", 
		 "properties": { 
			 "R2extent": 3017.4148, 
			 "electric_dipole_moment_norm": 1.31498177554, 
			 "electric_quadrupole_moment_norm": 12.4598167318, 
			 "total_energy": -502.835945184, 
			 "HOMO_LUMO_gap": 0.21155, 
			 "cosmo_polarized_energy": -7.6, 
			 "cosmo_cavitation_energy": 27.17, 
			 "cosmo_dispersion_energy": -20.18, 
			 "cosmo_repulsion_energy": 1.61, 
			 "cosmo_total_nonelectrostatic_energy": 8.6, 
			 "SMD_solvation_energy": 4.2 
		},
		"coords": [
			{
				"x": 4.4886253022,
				"y": -2.8166082689,
				"z": 0.5378457547,
				"element": "O" 
			},
			{
				"x": 3.3485753747,
				"y": -2.161225586,
				"z": 0.1592209136,
				"element": "C" 
			},
			{
				"x": 2.0892710183,
				"y": -2.7646366811,
				"z": 0.160450413,
				"element": "C" 
			},
			{
				"x": 0.9649594573,
				"y": -2.0397169069,
				"z": -0.2424299241,
				"element": "C" 
			},
			{
				"x": 1.0619041687,
				"y": -0.7044022952,
				"z": -0.652625207,
				"element": "C" 
			},
			{
				"x": 2.3414232649,
				"y": -0.1231703994,
				"z": -0.6473755722,
				"element": "C" 
			},
			{
				"x": 3.4721448837,
				"y": -0.829002232,
				"z": -0.25040067,
				"element": "C" 
			},
			{
				"x": -0.1382351447,
				"y": 0.1382883462,
				"z": -1.0624540244,
				"element": "C" 
			},
			{
				"x": -0.7503166653,
				"y": 0.9113501668,
				"z": 0.1388990889,
				"element": "C" 
			},
			{
				"x": -1.6934151627,
				"y": -0.1082596926,
				"z": 0.7963021319,
				"element": "C" 
			},
			{
				"x": -2.3189520298,
				"y": -0.880776705,
				"z": -0.3925471148,
				"element": "C" 
			},
			{
				"x": -1.3565141224,
				"y": -0.6603761284,
				"z": -1.59929076,
				"element": "C" 
			},
			{
				"x": 4.2614634716,
				"y": -3.7205647973,
				"z": 0.791040999,
				"element": "H" 
			},
			{
				"x": 1.9829031286,
				"y": -3.8022472824,
				"z": 0.471874741,
				"element": "H" 
			},
			{
				"x": 0.0012922412,
				"y": -2.5399518787,
				"z": -0.2381454164,
				"element": "H" 
			},
			{
				"x": 2.45392862,
				"y": 0.9103332499,
				"z": -0.9675076403,
				"element": "H" 
			},
			{
				"x": 4.4556730985,
				"y": -0.3703449823,
				"z": -0.2568676441,
				"element": "H" 
			},
			{
				"x": 0.2103986603,
				"y": 0.8488856162,
				"z": -1.8208458632,
				"element": "H" 
			},
			{
				"x": -1.3275242296,
				"y": 1.7641231441,
				"z": -0.242187622,
				"element": "H" 
			},
			{
				"x": 0.0091588759,
				"y": 1.3045274854,
				"z": 0.8216665632,
				"element": "H" 
			},
			{
				"x": -1.111742324,
				"y": -0.7901472665,
				"z": 1.4265743305,
				"element": "H" 
			},
			{
				"x": -2.4442360726,
				"y": 0.3614339697,
				"z": 1.4395089418,
				"element": "H" 
			},
			{
				"x": -2.449909855,
				"y": -1.9422523526,
				"z": -0.1572325307,
				"element": "H" 
			},
			{
				"x": -3.3153876525,
				"y": -0.4914795982,
				"z": -0.6266114003,
				"element": "H" 
			},
			{
				"x": -1.857827291,
				"y": -0.0652480988,
				"z": -2.3695114507,
				"element": "H" 
			},
			{
				"x": -1.0546610163,
				"y": -1.5961308263,
				"z": -2.0783510375,
				"element": "H" 
			}
		],
		 "valence_orbital": [ 
			{
				"type": "occ",
				"energy": -0.31498,
				"method": "rhf"
			},
			{
				"type": "occ",
				"energy": -0.31318,
				"method": "rhf"
			},
			{
				"type": "occ",
				"energy": -0.30876,
				"method": "rhf"
			},
			{
				"type": "occ",
				"energy": -0.24613,
				"method": "rhf"
			},
			{
				"type": "occ",
				"energy": -0.21034,
				"method": "rhf"
			},
			{
				"type": "unocc",
				"energy": 0.00121,
				"method": "rhf"
			},
			{
				"type": "unocc",
				"energy": 0.01816,
				"method": "rhf"
			},
			{
				"type": "unocc",
				"energy": 0.07386,
				"method": "rhf"
			},
			{
				"type": "unocc",
				"energy": 0.08032,
				"method": "rhf"
			},
			{
				"type": "unocc",
				"energy": 0.09667,
				"method": "rhf"
			}
		],
		"cosmo_sigma_profile": { 
			"-0.025": 0.0,
			"-0.024": 0.0,
			"-0.023": 0.0,
			"-0.022": 0.0,
			"-0.021": 0.0,
			"-0.02": 0.0,
			"-0.019": 0.0,
			"-0.018": 0.127279229923,
			"-0.017": 0.764511515796,
			"-0.016": 1.00943647388,
			"-0.015": 1.40283132765,
			"-0.014": 0.825923423739,
			"-0.013": 1.00534872649,
			"-0.012": 0.88414571138,
			"-0.011": 0.902047456051,
			"-0.01": 0.932449806863,
			"-0.009": 1.49523358995,
			"-0.008": 0.95009626743,
			"-0.007": 1.04237111887,
			"-0.006": 2.25805053657,
			"-0.005": 5.92320063962,
			"-0.004": 9.24270156968,
			"-0.003": 14.1400575453,
			"-0.002": 24.1741136735,
			"-0.001": 29.6848769694,
			"0.0": 25.7696111264,
			"0.001": 24.2807631852,
			"0.002": 17.0266650884,
			"0.003": 8.15367038048,
			"0.004": 9.11670054987,
			"0.005": 9.73040569677,
			"0.006": 9.52774136607,
			"0.007": 4.16485042847,
			"0.008": 1.36792983812,
			"0.009": 1.78690697165,
			"0.01": 1.32671806679,
			"0.011": 1.97665549581,
			"0.012": 1.44123802365,
			"0.013": 0.00496668428679,
			"0.014": 0.0,
			"0.015": 0.0,
			"0.016": 0.0,
			"0.017": 0.0,
			"0.018": 0.0,
			"0.019": 0.0,
			"0.02": 0.0,
			"0.021": 0.0,
			"0.022": 0.0,
			"0.023": 0.0,
			"0.024": 0.0,
			"0.025": 0.0
		}
	}
}
