{
	 "smiles": "OC(=O)C1=C(C(F)F)N(N=C1)C1=C(Cl)C=CC=N1", 
	 "Tm": 452.15, 
	 "num_atms": 24, 
	 "gaussian": { 
		 "optdone": 1, 
		 "sigma_profile": "yes", 
		 "theory": "DFT", 
		 "functional": "B3LYP", 
		 "basiset": "6-31G**", 
		 "properties": { 
			 "R2extent": 5783.9319, 
			 "electric_dipole_moment_norm": 4.94479514945, 
			 "electric_quadrupole_moment_norm": 24.7518859845, 
			 "total_energy": -1359.21689479, 
			 "HOMO_LUMO_gap": 0.20889, 
			 "cosmo_polarized_energy": -18.96, 
			 "cosmo_cavitation_energy": 32.37, 
			 "cosmo_dispersion_energy": -22.56, 
			 "cosmo_repulsion_energy": 1.7, 
			 "cosmo_total_nonelectrostatic_energy": 11.52, 
			 "SMD_solvation_energy": 5.81 
		},
		"coords": [
			{
				"x": 3.5904869711,
				"y": 1.3125165485,
				"z": -0.7651197358,
				"element": "O" 
			},
			{
				"x": 2.5833957316,
				"y": 0.8441125827,
				"z": -1.5462367149,
				"element": "C" 
			},
			{
				"x": 2.8182698926,
				"y": 0.4990114553,
				"z": -2.6838605092,
				"element": "O" 
			},
			{
				"x": 1.2448470993,
				"y": 0.7818395477,
				"z": -0.9218766456,
				"element": "C" 
			},
			{
				"x": 0.0501318324,
				"y": 0.5123187734,
				"z": -1.5835197073,
				"element": "C" 
			},
			{
				"x": -0.1919004601,
				"y": 0.2463885608,
				"z": -3.0415900616,
				"element": "C" 
			},
			{
				"x": -0.6966124544,
				"y": 1.3547931373,
				"z": -3.6561099369,
				"element": "F" 
			},
			{
				"x": -1.1177168074,
				"y": -0.7569683707,
				"z": -3.1724391417,
				"element": "F" 
			},
			{
				"x": -0.9210214075,
				"y": 0.5104582462,
				"z": -0.6297440842,
				"element": "N" 
			},
			{
				"x": -0.4332291138,
				"y": 0.7581227849,
				"z": 0.6146394793,
				"element": "N" 
			},
			{
				"x": 0.8677858893,
				"y": 0.9219741028,
				"z": 0.4405199215,
				"element": "C" 
			},
			{
				"x": -2.3325864342,
				"y": 0.3538738881,
				"z": -0.8020092188,
				"element": "C" 
			},
			{
				"x": -3.022467879,
				"y": -0.6983291043,
				"z": -0.1822601707,
				"element": "C" 
			},
			{
				"x": -2.210226721,
				"y": -1.9298613852,
				"z": 0.7437658554,
				"element": "Cl" 
			},
			{
				"x": -4.4042916536,
				"y": -0.7673901299,
				"z": -0.3578756224,
				"element": "C" 
			},
			{
				"x": -5.0301887015,
				"y": 0.1908142071,
				"z": -1.1509300449,
				"element": "C" 
			},
			{
				"x": -4.2469152628,
				"y": 1.1813551547,
				"z": -1.7429339116,
				"element": "C" 
			},
			{
				"x": -2.926503217,
				"y": 1.2653065445,
				"z": -1.5613366362,
				"element": "N" 
			},
			{
				"x": 3.2487470663,
				"y": 1.6471322779,
				"z": 0.0752812911,
				"element": "H" 
			},
			{
				"x": 0.7352029934,
				"y": -0.0451726703,
				"z": -3.5369832404,
				"element": "H" 
			},
			{
				"x": 1.488945867,
				"y": 1.1144035729,
				"z": 1.3070739675,
				"element": "H" 
			},
			{
				"x": -4.965044934,
				"y": -1.5684997091,
				"z": 0.1107930167,
				"element": "H" 
			},
			{
				"x": -6.1029104746,
				"y": 0.1636190517,
				"z": -1.3108374181,
				"element": "H" 
			},
			{
				"x": -4.691297822,
				"y": 1.9407809328,
				"z": -2.3811107313,
				"element": "H" 
			}
		],
		 "valence_orbital": [ 
			{
				"type": "occ",
				"energy": -0.29397,
				"method": "rhf"
			},
			{
				"type": "occ",
				"energy": -0.29136,
				"method": "rhf"
			},
			{
				"type": "occ",
				"energy": -0.28256,
				"method": "rhf"
			},
			{
				"type": "occ",
				"energy": -0.27866,
				"method": "rhf"
			},
			{
				"type": "occ",
				"energy": -0.26997,
				"method": "rhf"
			},
			{
				"type": "unocc",
				"energy": -0.06108,
				"method": "rhf"
			},
			{
				"type": "unocc",
				"energy": -0.05198,
				"method": "rhf"
			},
			{
				"type": "unocc",
				"energy": -0.03643,
				"method": "rhf"
			},
			{
				"type": "unocc",
				"energy": -0.00874,
				"method": "rhf"
			},
			{
				"type": "unocc",
				"energy": 0.0117,
				"method": "rhf"
			}
		],
		"cosmo_sigma_profile": { 
			"-0.025": 0.0,
			"-0.024": 0.0,
			"-0.023": 0.0,
			"-0.022": 0.0,
			"-0.021": 0.0,
			"-0.02": 0.240786418523,
			"-0.019": 0.995541827353,
			"-0.018": 1.39827408651,
			"-0.017": 1.15245699037,
			"-0.016": 0.77212280022,
			"-0.015": 1.09254291503,
			"-0.014": 1.088050152,
			"-0.013": 1.21677242465,
			"-0.012": 1.1920968285,
			"-0.011": 1.83100473702,
			"-0.01": 1.76067669265,
			"-0.009": 4.45613450715,
			"-0.008": 9.46722261546,
			"-0.007": 11.1659485637,
			"-0.006": 8.54027637002,
			"-0.005": 8.39123023561,
			"-0.004": 10.6463972931,
			"-0.003": 12.4715194199,
			"-0.002": 17.4453431819,
			"-0.001": 23.8124343585,
			"0.0": 23.0840086981,
			"0.001": 15.1698932592,
			"0.002": 15.4963819849,
			"0.003": 20.1476040393,
			"0.004": 19.3255501012,
			"0.005": 9.64971074291,
			"0.006": 7.11189172886,
			"0.007": 4.77329244244,
			"0.008": 5.55289751481,
			"0.009": 5.88635446456,
			"0.01": 7.83977253759,
			"0.011": 5.3658042223,
			"0.012": 3.84059413267,
			"0.013": 1.28498612199,
			"0.014": 0.0,
			"0.015": 0.0,
			"0.016": 0.0,
			"0.017": 0.0,
			"0.018": 0.0,
			"0.019": 0.0,
			"0.02": 0.0,
			"0.021": 0.0,
			"0.022": 0.0,
			"0.023": 0.0,
			"0.024": 0.0,
			"0.025": 0.0
		}
	}
}
