{
	 "smiles": "NC(=O)C1=CC(F)=C(Br)C=C1", 
	 "Tm": 441.15, 
	 "num_atms": 16, 
	 "gaussian": { 
		 "optdone": 1, 
		 "sigma_profile": "yes", 
		 "theory": "DFT", 
		 "functional": "B3LYP", 
		 "basiset": "6-31G**", 
		 "properties": { 
			 "R2extent": 3364.7813, 
			 "electric_dipole_moment_norm": 4.24214248111, 
			 "electric_quadrupole_moment_norm": 11.2236756595, 
			 "total_energy": -3070.98611914, 
			 "HOMO_LUMO_gap": 0.19909, 
			 "cosmo_polarized_energy": -12.95, 
			 "cosmo_cavitation_energy": 23.64, 
			 "cosmo_dispersion_energy": -17.84, 
			 "cosmo_repulsion_energy": 1.42, 
			 "cosmo_total_nonelectrostatic_energy": 7.22, 
			 "SMD_solvation_energy": 4.25 
		},
		"coords": [
			{
				"x": 1.6014028934,
				"y": 2.6749521552,
				"z": 1.5020753615,
				"element": "N" 
			},
			{
				"x": 0.5352796814,
				"y": 2.493111991,
				"z": 0.6554403693,
				"element": "C" 
			},
			{
				"x": 0.0001437422,
				"y": 3.427760328,
				"z": 0.0739189388,
				"element": "O" 
			},
			{
				"x": 0.0756792205,
				"y": 1.0738071522,
				"z": 0.4595708138,
				"element": "C" 
			},
			{
				"x": -1.1942508588,
				"y": 0.8933143033,
				"z": -0.0986675785,
				"element": "C" 
			},
			{
				"x": -1.6794846255,
				"y": -0.3887322548,
				"z": -0.3045654896,
				"element": "C" 
			},
			{
				"x": -2.9026402925,
				"y": -0.5503664682,
				"z": -0.8293119424,
				"element": "F" 
			},
			{
				"x": -0.9135776519,
				"y": -1.5095398157,
				"z": 0.0249133792,
				"element": "C" 
			},
			{
				"x": -1.6103269119,
				"y": -3.2487122454,
				"z": -0.2727363048,
				"element": "Br" 
			},
			{
				"x": 0.3605691626,
				"y": -1.3336896762,
				"z": 0.5632761543,
				"element": "C" 
			},
			{
				"x": 0.852930296,
				"y": -0.0475900488,
				"z": 0.7802920613,
				"element": "C" 
			},
			{
				"x": 1.8259744033,
				"y": 3.6370734981,
				"z": 1.7119320773,
				"element": "H" 
			},
			{
				"x": 1.8157987883,
				"y": 1.9919658747,
				"z": 2.2116428775,
				"element": "H" 
			},
			{
				"x": -1.7915593305,
				"y": 1.7560105176,
				"z": -0.3706866811,
				"element": "H" 
			},
			{
				"x": 0.9613919418,
				"y": -2.2038842375,
				"z": 0.8018208432,
				"element": "H" 
			},
			{
				"x": 1.8605695415,
				"y": 0.0687189266,
				"z": 1.1658851203,
				"element": "H" 
			}
		],
		 "valence_orbital": [ 
			{
				"type": "occ",
				"energy": -0.2979,
				"method": "rhf"
			},
			{
				"type": "occ",
				"energy": -0.28358,
				"method": "rhf"
			},
			{
				"type": "occ",
				"energy": -0.27156,
				"method": "rhf"
			},
			{
				"type": "occ",
				"energy": -0.26148,
				"method": "rhf"
			},
			{
				"type": "occ",
				"energy": -0.25341,
				"method": "rhf"
			},
			{
				"type": "unocc",
				"energy": -0.05432,
				"method": "rhf"
			},
			{
				"type": "unocc",
				"energy": -0.0235,
				"method": "rhf"
			},
			{
				"type": "unocc",
				"energy": -0.00569,
				"method": "rhf"
			},
			{
				"type": "unocc",
				"energy": 0.04618,
				"method": "rhf"
			},
			{
				"type": "unocc",
				"energy": 0.07101,
				"method": "rhf"
			}
		],
		"cosmo_sigma_profile": { 
			"-0.025": 0.0,
			"-0.024": 0.0,
			"-0.023": 0.0,
			"-0.022": 0.0,
			"-0.021": 0.0,
			"-0.02": 0.0,
			"-0.019": 0.0,
			"-0.018": 0.0,
			"-0.017": 0.0,
			"-0.016": 0.0,
			"-0.015": 0.29354577824,
			"-0.014": 2.25005652899,
			"-0.013": 2.49103656771,
			"-0.012": 2.02286039235,
			"-0.011": 3.29792544725,
			"-0.01": 2.84819511873,
			"-0.009": 2.64185030711,
			"-0.008": 4.77456735915,
			"-0.007": 5.223872191,
			"-0.006": 6.03709485076,
			"-0.005": 6.24102906741,
			"-0.004": 6.83070671576,
			"-0.003": 7.32581060629,
			"-0.002": 9.38434635369,
			"-0.001": 17.0967602515,
			"0.0": 19.119855951,
			"0.001": 19.5268742194,
			"0.002": 16.1012597482,
			"0.003": 19.024137642,
			"0.004": 16.466035461,
			"0.005": 4.4364529137,
			"0.006": 2.04094041874,
			"0.007": 1.86362988763,
			"0.008": 1.59819754029,
			"0.009": 1.37940888342,
			"0.01": 1.12559819183,
			"0.011": 2.01354136524,
			"0.012": 2.71974605412,
			"0.013": 4.98360629529,
			"0.014": 1.89663955127,
			"0.015": 0.0504397559016,
			"0.016": 0.0,
			"0.017": 0.0,
			"0.018": 0.0,
			"0.019": 0.0,
			"0.02": 0.0,
			"0.021": 0.0,
			"0.022": 0.0,
			"0.023": 0.0,
			"0.024": 0.0,
			"0.025": 0.0
		}
	}
}
