{
	 "smiles": "BrC1=CC2=C(NCC(=O)N2)C=C1", 
	 "Tm": 443.15, 
	 "num_atms": 19, 
	 "gaussian": { 
		 "optdone": 1, 
		 "sigma_profile": "yes", 
		 "theory": "DFT", 
		 "functional": "B3LYP", 
		 "basiset": "6-31G**", 
		 "properties": { 
			 "R2extent": 5042.7278, 
			 "electric_dipole_moment_norm": 2.72295585164, 
			 "electric_quadrupole_moment_norm": 15.5564669279, 
			 "total_energy": -3065.2171272, 
			 "HOMO_LUMO_gap": 0.18288, 
			 "cosmo_polarized_energy": -14.3, 
			 "cosmo_cavitation_energy": 25.27, 
			 "cosmo_dispersion_energy": -19.58, 
			 "cosmo_repulsion_energy": 1.55, 
			 "cosmo_total_nonelectrostatic_energy": 7.25, 
			 "SMD_solvation_energy": 2.55 
		},
		"coords": [
			{
				"x": 2.9495692298,
				"y": 1.3816535729,
				"z": -3.8104553053,
				"element": "Br" 
			},
			{
				"x": 1.9106031362,
				"y": 1.0056266274,
				"z": -2.2505584893,
				"element": "C" 
			},
			{
				"x": 0.5218267314,
				"y": 1.116078017,
				"z": -2.3164646657,
				"element": "C" 
			},
			{
				"x": -0.240751969,
				"y": 0.837825546,
				"z": -1.1839355356,
				"element": "C" 
			},
			{
				"x": 0.3798577156,
				"y": 0.4606598838,
				"z": 0.0267066687,
				"element": "C" 
			},
			{
				"x": -0.4440810528,
				"y": 0.1353097853,
				"z": 1.1025378333,
				"element": "N" 
			},
			{
				"x": -1.7126963466,
				"y": 0.8438599287,
				"z": 1.2263890214,
				"element": "C" 
			},
			{
				"x": -2.4584200546,
				"y": 0.8850109476,
				"z": -0.1049868567,
				"element": "C" 
			},
			{
				"x": -3.6726629913,
				"y": 0.9614860887,
				"z": -0.1797638734,
				"element": "O" 
			},
			{
				"x": -1.6448374891,
				"y": 0.8884322951,
				"z": -1.2133074035,
				"element": "N" 
			},
			{
				"x": 1.7741695132,
				"y": 0.367495957,
				"z": 0.0638199341,
				"element": "C" 
			},
			{
				"x": 2.5448472656,
				"y": 0.6301749998,
				"z": -1.0703255881,
				"element": "C" 
			},
			{
				"x": 0.0369254095,
				"y": 1.4102270578,
				"z": -3.2411902335,
				"element": "H" 
			},
			{
				"x": 0.0426302874,
				"y": -0.0013174501,
				"z": 1.9784665641,
				"element": "H" 
			},
			{
				"x": -2.3578069842,
				"y": 0.3293260669,
				"z": 1.9408600633,
				"element": "H" 
			},
			{
				"x": -1.599605156,
				"y": 1.8889352402,
				"z": 1.5684004866,
				"element": "H" 
			},
			{
				"x": -2.1216762262,
				"y": 0.9898425057,
				"z": -2.1002593877,
				"element": "H" 
			},
			{
				"x": 2.2632937519,
				"y": 0.0753501246,
				"z": 0.9894301398,
				"element": "H" 
			},
			{
				"x": 3.624515229,
				"y": 0.5499228056,
				"z": -1.0287633724,
				"element": "H" 
			}
		],
		 "valence_orbital": [ 
			{
				"type": "occ",
				"energy": -0.28705,
				"method": "rhf"
			},
			{
				"type": "occ",
				"energy": -0.2825,
				"method": "rhf"
			},
			{
				"type": "occ",
				"energy": -0.26512,
				"method": "rhf"
			},
			{
				"type": "occ",
				"energy": -0.24323,
				"method": "rhf"
			},
			{
				"type": "occ",
				"energy": -0.20469,
				"method": "rhf"
			},
			{
				"type": "unocc",
				"energy": -0.02181,
				"method": "rhf"
			},
			{
				"type": "unocc",
				"energy": -0.00944,
				"method": "rhf"
			},
			{
				"type": "unocc",
				"energy": 0.00658,
				"method": "rhf"
			},
			{
				"type": "unocc",
				"energy": 0.02707,
				"method": "rhf"
			},
			{
				"type": "unocc",
				"energy": 0.07066,
				"method": "rhf"
			}
		],
		"cosmo_sigma_profile": { 
			"-0.025": 0.0,
			"-0.024": 0.0,
			"-0.023": 0.0,
			"-0.022": 0.0,
			"-0.021": 0.0,
			"-0.02": 0.0,
			"-0.019": 0.0,
			"-0.018": 0.0,
			"-0.017": 0.0,
			"-0.016": 0.210167175052,
			"-0.015": 0.936482234242,
			"-0.014": 2.11626241483,
			"-0.013": 2.56011286156,
			"-0.012": 2.78320956142,
			"-0.011": 2.95529618774,
			"-0.01": 2.51874604257,
			"-0.009": 2.85235729492,
			"-0.008": 3.82453159048,
			"-0.007": 6.44048500834,
			"-0.006": 11.7105133531,
			"-0.005": 11.370375021,
			"-0.004": 10.5750732822,
			"-0.003": 10.4726535571,
			"-0.002": 9.8368641145,
			"-0.001": 8.64185987087,
			"0.0": 10.6669889414,
			"0.001": 11.7627736303,
			"0.002": 15.0310030356,
			"0.003": 18.1281802101,
			"0.004": 21.3788575289,
			"0.005": 15.3962258691,
			"0.006": 2.34527393358,
			"0.007": 2.20342986667,
			"0.008": 1.94244953138,
			"0.009": 1.87715555091,
			"0.01": 1.7573709819,
			"0.011": 2.06738141167,
			"0.012": 3.53369086716,
			"0.013": 5.62591623181,
			"0.014": 1.46594219595,
			"0.015": 0.0111580217072,
			"0.016": 0.0,
			"0.017": 0.0,
			"0.018": 0.0,
			"0.019": 0.0,
			"0.02": 0.0,
			"0.021": 0.0,
			"0.022": 0.0,
			"0.023": 0.0,
			"0.024": 0.0,
			"0.025": 0.0
		}
	}
}
