{
	 "smiles": "NC1=CC=C(OCC(F)(F)F)C=C1", 
	 "Tm": 340.15, 
	 "num_atms": 21, 
	 "gaussian": { 
		 "optdone": 1, 
		 "sigma_profile": "yes", 
		 "theory": "DFT", 
		 "functional": "B3LYP", 
		 "basiset": "6-31G**", 
		 "properties": { 
			 "R2extent": 3167.4279, 
			 "electric_dipole_moment_norm": 2.50004299163, 
			 "electric_quadrupole_moment_norm": 13.010225327, 
			 "total_energy": -739.161513982, 
			 "HOMO_LUMO_gap": 0.19108, 
			 "cosmo_polarized_energy": -10.36, 
			 "cosmo_cavitation_energy": 26.39, 
			 "cosmo_dispersion_energy": -19.08, 
			 "cosmo_repulsion_energy": 1.46, 
			 "cosmo_total_nonelectrostatic_energy": 8.77, 
			 "SMD_solvation_energy": 5.8 
		},
		"coords": [
			{
				"x": -2.8647348424,
				"y": -0.1577962921,
				"z": -3.880613156,
				"element": "N" 
			},
			{
				"x": -1.9016691295,
				"y": -0.0474316447,
				"z": -2.8684031714,
				"element": "C" 
			},
			{
				"x": -0.565303393,
				"y": 0.2621597794,
				"z": -3.1760767256,
				"element": "C" 
			},
			{
				"x": 0.4048773831,
				"y": 0.3022636625,
				"z": -2.1807395163,
				"element": "C" 
			},
			{
				"x": 0.0637035098,
				"y": 0.0473376097,
				"z": -0.8502083977,
				"element": "C" 
			},
			{
				"x": 1.0953582364,
				"y": 0.1412994888,
				"z": 0.0717998893,
				"element": "O" 
			},
			{
				"x": 1.0893532344,
				"y": -0.7100807075,
				"z": 1.1933195838,
				"element": "C" 
			},
			{
				"x": 0.7137614388,
				"y": 0.0295838573,
				"z": 2.4704895787,
				"element": "C" 
			},
			{
				"x": -0.554859809,
				"y": 0.4935507984,
				"z": 2.4487896075,
				"element": "F" 
			},
			{
				"x": 0.8204093178,
				"y": -0.8169896151,
				"z": 3.5202125047,
				"element": "F" 
			},
			{
				"x": 1.5241203482,
				"y": 1.0765486977,
				"z": 2.6963116469,
				"element": "F" 
			},
			{
				"x": -1.2618977605,
				"y": -0.2447146013,
				"z": -0.5237009735,
				"element": "C" 
			},
			{
				"x": -2.2291584726,
				"y": -0.2993066387,
				"z": -1.5281632137,
				"element": "C" 
			},
			{
				"x": -2.6670385195,
				"y": 0.3892366419,
				"z": -4.70795871,
				"element": "H" 
			},
			{
				"x": -3.8166258383,
				"y": -0.014958477,
				"z": -3.5701075778,
				"element": "H" 
			},
			{
				"x": -0.2835265386,
				"y": 0.4583236167,
				"z": -4.2076563936,
				"element": "H" 
			},
			{
				"x": 1.4378373469,
				"y": 0.5327876902,
				"z": -2.4203874194,
				"element": "H" 
			},
			{
				"x": 0.4105688808,
				"y": -1.5609008644,
				"z": 1.0716820236,
				"element": "H" 
			},
			{
				"x": 2.1067720491,
				"y": -1.0896044599,
				"z": 1.3367591184,
				"element": "H" 
			},
			{
				"x": -1.5559892577,
				"y": -0.3989153926,
				"z": 0.5073915175,
				"element": "H" 
			},
			{
				"x": -3.2574581841,
				"y": -0.5313931494,
				"z": -1.2619402153,
				"element": "H" 
			}
		],
		 "valence_orbital": [ 
			{
				"type": "occ",
				"energy": -0.34593,
				"method": "rhf"
			},
			{
				"type": "occ",
				"energy": -0.32131,
				"method": "rhf"
			},
			{
				"type": "occ",
				"energy": -0.28199,
				"method": "rhf"
			},
			{
				"type": "occ",
				"energy": -0.25046,
				"method": "rhf"
			},
			{
				"type": "occ",
				"energy": -0.19387,
				"method": "rhf"
			},
			{
				"type": "unocc",
				"energy": -0.00279,
				"method": "rhf"
			},
			{
				"type": "unocc",
				"energy": 0.02283,
				"method": "rhf"
			},
			{
				"type": "unocc",
				"energy": 0.07795,
				"method": "rhf"
			},
			{
				"type": "unocc",
				"energy": 0.09256,
				"method": "rhf"
			},
			{
				"type": "unocc",
				"energy": 0.10209,
				"method": "rhf"
			}
		],
		"cosmo_sigma_profile": { 
			"-0.025": 0.0,
			"-0.024": 0.0,
			"-0.023": 0.0,
			"-0.022": 0.0,
			"-0.021": 0.0,
			"-0.02": 0.0,
			"-0.019": 0.0,
			"-0.018": 0.0,
			"-0.017": 0.0,
			"-0.016": 0.0,
			"-0.015": 0.0,
			"-0.014": 0.0,
			"-0.013": 0.0560728434163,
			"-0.012": 2.06677143636,
			"-0.011": 2.74865445482,
			"-0.01": 2.84053172391,
			"-0.009": 4.63000926713,
			"-0.008": 8.21150153233,
			"-0.007": 7.02524201345,
			"-0.006": 9.67933789889,
			"-0.005": 12.4976422288,
			"-0.004": 9.55259970007,
			"-0.003": 10.4087194551,
			"-0.002": 6.99133208108,
			"-0.001": 8.89360993917,
			"0.0": 8.73958653728,
			"0.001": 11.4345803928,
			"0.002": 26.272919256,
			"0.003": 31.4888547226,
			"0.004": 10.0569786508,
			"0.005": 11.6650770904,
			"0.006": 12.1247237884,
			"0.007": 3.65381136228,
			"0.008": 1.95632282062,
			"0.009": 1.88574904824,
			"0.01": 1.70030104496,
			"0.011": 0.6912878206,
			"0.012": 0.96932250953,
			"0.013": 0.419042970216,
			"0.014": 0.648529117183,
			"0.015": 0.699929508416,
			"0.016": 0.0181014811201,
			"0.017": 0.0,
			"0.018": 0.0,
			"0.019": 0.0,
			"0.02": 0.0,
			"0.021": 0.0,
			"0.022": 0.0,
			"0.023": 0.0,
			"0.024": 0.0,
			"0.025": 0.0
		}
	}
}
