{
	 "smiles": "OCC1=NN=NN1C1=CC=CC=C1", 
	 "Tm": 374.15, 
	 "num_atms": 21, 
	 "gaussian": { 
		 "optdone": 1, 
		 "sigma_profile": "yes", 
		 "theory": "DFT", 
		 "functional": "B3LYP", 
		 "basiset": "6-31G**", 
		 "properties": { 
			 "R2extent": 2662.1399, 
			 "electric_dipole_moment_norm": 5.50182733099, 
			 "electric_quadrupole_moment_norm": 11.954283733, 
			 "total_energy": -603.833204713, 
			 "HOMO_LUMO_gap": 0.21545, 
			 "cosmo_polarized_energy": -14.51, 
			 "cosmo_cavitation_energy": 25.54, 
			 "cosmo_dispersion_energy": -18.96, 
			 "cosmo_repulsion_energy": 1.49, 
			 "cosmo_total_nonelectrostatic_energy": 8.07, 
			 "SMD_solvation_energy": 2.73 
		},
		"coords": [
			{
				"x": -0.6951025412,
				"y": 2.2851245228,
				"z": -3.0103311323,
				"element": "O" 
			},
			{
				"x": 0.2050657486,
				"y": 1.5061097518,
				"z": -2.2624306146,
				"element": "C" 
			},
			{
				"x": -0.3915169303,
				"y": 0.166989625,
				"z": -1.9273486686,
				"element": "C" 
			},
			{
				"x": -1.3625690959,
				"y": -0.3712318602,
				"z": -2.6380407548,
				"element": "N" 
			},
			{
				"x": -1.6600831024,
				"y": -1.5596412872,
				"z": -2.0478897654,
				"element": "N" 
			},
			{
				"x": -0.9137058772,
				"y": -1.7647490044,
				"z": -1.0195923437,
				"element": "N" 
			},
			{
				"x": -0.0859242539,
				"y": -0.6802775456,
				"z": -0.9138652677,
				"element": "N" 
			},
			{
				"x": 0.8484672423,
				"y": -0.5726949832,
				"z": 0.1569055248,
				"element": "C" 
			},
			{
				"x": 2.1103204562,
				"y": -0.0156498168,
				"z": -0.0660604997,
				"element": "C" 
			},
			{
				"x": 3.0055030263,
				"y": 0.0928930994,
				"z": 0.998695536,
				"element": "C" 
			},
			{
				"x": 2.650338695,
				"y": -0.3683960769,
				"z": 2.2667080098,
				"element": "C" 
			},
			{
				"x": 1.3922300573,
				"y": -0.9405530868,
				"z": 2.4721715998,
				"element": "C" 
			},
			{
				"x": 0.4821032198,
				"y": -1.0411198804,
				"z": 1.4223295687,
				"element": "C" 
			},
			{
				"x": -1.2429652448,
				"y": 1.6734999748,
				"z": -3.5265304305,
				"element": "H" 
			},
			{
				"x": 0.4571638176,
				"y": 2.0477776935,
				"z": -1.3431691501,
				"element": "H" 
			},
			{
				"x": 1.1511501606,
				"y": 1.3453889047,
				"z": -2.8090868284,
				"element": "H" 
			},
			{
				"x": 2.4008871412,
				"y": 0.3057593378,
				"z": -1.0603875591,
				"element": "H" 
			},
			{
				"x": 3.9860053033,
				"y": 0.5267541751,
				"z": 0.8291459906,
				"element": "H" 
			},
			{
				"x": 3.3520546893,
				"y": -0.2868675359,
				"z": 3.0909502261,
				"element": "H" 
			},
			{
				"x": 1.1130302421,
				"y": -1.3042659688,
				"z": 3.4561520561,
				"element": "H" 
			},
			{
				"x": -0.4994527541,
				"y": -1.4776500386,
				"z": 1.5649745027,
				"element": "H" 
			}
		],
		 "valence_orbital": [ 
			{
				"type": "occ",
				"energy": -0.30113,
				"method": "rhf"
			},
			{
				"type": "occ",
				"energy": -0.29416,
				"method": "rhf"
			},
			{
				"type": "occ",
				"energy": -0.28387,
				"method": "rhf"
			},
			{
				"type": "occ",
				"energy": -0.28035,
				"method": "rhf"
			},
			{
				"type": "occ",
				"energy": -0.26596,
				"method": "rhf"
			},
			{
				"type": "unocc",
				"energy": -0.05051,
				"method": "rhf"
			},
			{
				"type": "unocc",
				"energy": -0.03155,
				"method": "rhf"
			},
			{
				"type": "unocc",
				"energy": -0.00212,
				"method": "rhf"
			},
			{
				"type": "unocc",
				"energy": 0.01682,
				"method": "rhf"
			},
			{
				"type": "unocc",
				"energy": 0.06487,
				"method": "rhf"
			}
		],
		"cosmo_sigma_profile": { 
			"-0.025": 0.0,
			"-0.024": 0.0,
			"-0.023": 0.0,
			"-0.022": 0.0,
			"-0.021": 0.0,
			"-0.02": 0.0,
			"-0.019": 0.0,
			"-0.018": 0.0,
			"-0.017": 0.0,
			"-0.016": 0.0,
			"-0.015": 0.0,
			"-0.014": 0.0,
			"-0.013": 0.202511493846,
			"-0.012": 0.603437849996,
			"-0.011": 1.22493486599,
			"-0.01": 1.88603124116,
			"-0.009": 2.3441514802,
			"-0.008": 4.45102646528,
			"-0.007": 13.0822041438,
			"-0.006": 16.9661596985,
			"-0.005": 18.179023001,
			"-0.004": 14.381350167,
			"-0.003": 11.2785931077,
			"-0.002": 10.1873428111,
			"-0.001": 8.64357385044,
			"0.0": 10.9515092075,
			"0.001": 11.4370545278,
			"0.002": 12.3053287452,
			"0.003": 15.2912913803,
			"0.004": 7.73778418908,
			"0.005": 4.30850639573,
			"0.006": 4.03180102696,
			"0.007": 6.07590613151,
			"0.008": 6.21185750862,
			"0.009": 5.42753069042,
			"0.01": 5.40594831892,
			"0.011": 5.570767921,
			"0.012": 3.09105308788,
			"0.013": 3.44577405034,
			"0.014": 0.259197797676,
			"0.015": 0.0,
			"0.016": 0.0,
			"0.017": 0.0,
			"0.018": 0.0,
			"0.019": 0.0,
			"0.02": 0.0,
			"0.021": 0.0,
			"0.022": 0.0,
			"0.023": 0.0,
			"0.024": 0.0,
			"0.025": 0.0
		}
	}
}
