{
	 "smiles": "O=C(C1=CC=CO1)C1=NN2C(S1)=NC(=O)C1=C2C=CC=C1", 
	 "Tm": 598.15, 
	 "num_atms": 28, 
	 "gaussian": { 
		 "optdone": 1, 
		 "sigma_profile": "yes", 
		 "theory": "DFT", 
		 "functional": "B3LYP", 
		 "basiset": "6-31G**", 
		 "properties": { 
			 "R2extent": 7528.9778, 
			 "electric_dipole_moment_norm": 8.67835659673, 
			 "electric_quadrupole_moment_norm": 5.36709383186, 
			 "total_energy": -1325.77145916, 
			 "HOMO_LUMO_gap": 0.13065, 
			 "cosmo_polarized_energy": -20.67, 
			 "cosmo_cavitation_energy": 36.08, 
			 "cosmo_dispersion_energy": -26.88, 
			 "cosmo_repulsion_energy": 1.93, 
			 "cosmo_total_nonelectrostatic_energy": 11.13, 
			 "SMD_solvation_energy": 5.81 
		},
		"coords": [
			{
				"x": 1.5108192179,
				"y": -4.1293589948,
				"z": 0.178907608,
				"element": "O" 
			},
			{
				"x": 0.9544730748,
				"y": -3.1643175925,
				"z": 0.692209921,
				"element": "C" 
			},
			{
				"x": 0.4456629856,
				"y": -3.1762321838,
				"z": 2.0587131397,
				"element": "C" 
			},
			{
				"x": -0.1999311756,
				"y": -2.2699986539,
				"z": 2.8709765063,
				"element": "C" 
			},
			{
				"x": -0.4203937002,
				"y": -2.9236393108,
				"z": 4.1128751666,
				"element": "C" 
			},
			{
				"x": 0.1048419515,
				"y": -4.1800416155,
				"z": 3.9717991789,
				"element": "C" 
			},
			{
				"x": 0.630458635,
				"y": -4.350971759,
				"z": 2.7427013133,
				"element": "O" 
			},
			{
				"x": 0.8042986506,
				"y": -1.9336580627,
				"z": -0.1418620664,
				"element": "C" 
			},
			{
				"x": 0.2493684434,
				"y": -0.817664704,
				"z": 0.213739463,
				"element": "N" 
			},
			{
				"x": 0.2941183697,
				"y": 0.0790795762,
				"z": -0.8038668252,
				"element": "N" 
			},
			{
				"x": 0.8954054518,
				"y": -0.3256334389,
				"z": -1.9955631264,
				"element": "C" 
			},
			{
				"x": 1.4453646744,
				"y": -1.995627573,
				"z": -1.7829304761,
				"element": "S" 
			},
			{
				"x": 1.0361936705,
				"y": 0.3695427467,
				"z": -3.0662380504,
				"element": "N" 
			},
			{
				"x": 0.5464293357,
				"y": 1.6879082596,
				"z": -3.0862859246,
				"element": "C" 
			},
			{
				"x": 0.6563386094,
				"y": 2.3879476317,
				"z": -4.079428681,
				"element": "O" 
			},
			{
				"x": -0.1109289358,
				"y": 2.1882528473,
				"z": -1.8418142141,
				"element": "C" 
			},
			{
				"x": -0.2339766656,
				"y": 1.3756441783,
				"z": -0.7007863145,
				"element": "C" 
			},
			{
				"x": -0.8495592088,
				"y": 1.8413505026,
				"z": 0.4671027636,
				"element": "C" 
			},
			{
				"x": -1.346108789,
				"y": 3.1391960952,
				"z": 0.4852228423,
				"element": "C" 
			},
			{
				"x": -1.234742449,
				"y": 3.9682287665,
				"z": -0.6411362795,
				"element": "C" 
			},
			{
				"x": -0.6216605168,
				"y": 3.4925505712,
				"z": -1.7925121953,
				"element": "C" 
			},
			{
				"x": -0.4740578144,
				"y": -1.2645831138,
				"z": 2.5946337234,
				"element": "H" 
			},
			{
				"x": -0.9018220241,
				"y": -2.5206137639,
				"z": 4.9917376641,
				"element": "H" 
			},
			{
				"x": 0.17453369,
				"y": -5.0285336655,
				"z": 4.6357712454,
				"element": "H" 
			},
			{
				"x": -0.9304363544,
				"y": 1.1934004597,
				"z": 1.3308537054,
				"element": "H" 
			},
			{
				"x": -1.8255323886,
				"y": 3.5106422514,
				"z": 1.3859670512,
				"element": "H" 
			},
			{
				"x": -1.6279591417,
				"y": 4.9794276468,
				"z": -0.6102055497,
				"element": "H" 
			},
			{
				"x": -0.5164975963,
				"y": 4.1027028988,
				"z": -2.6831815889,
				"element": "H" 
			}
		],
		 "valence_orbital": [ 
			{
				"type": "occ",
				"energy": -0.27883,
				"method": "rhf"
			},
			{
				"type": "occ",
				"energy": -0.2746,
				"method": "rhf"
			},
			{
				"type": "occ",
				"energy": -0.26356,
				"method": "rhf"
			},
			{
				"type": "occ",
				"energy": -0.25156,
				"method": "rhf"
			},
			{
				"type": "occ",
				"energy": -0.23821,
				"method": "rhf"
			},
			{
				"type": "unocc",
				"energy": -0.10756,
				"method": "rhf"
			},
			{
				"type": "unocc",
				"energy": -0.05695,
				"method": "rhf"
			},
			{
				"type": "unocc",
				"energy": -0.03908,
				"method": "rhf"
			},
			{
				"type": "unocc",
				"energy": -0.03232,
				"method": "rhf"
			},
			{
				"type": "unocc",
				"energy": -0.01141,
				"method": "rhf"
			}
		],
		"cosmo_sigma_profile": { 
			"-0.025": 0.0,
			"-0.024": 0.0,
			"-0.023": 0.0,
			"-0.022": 0.0,
			"-0.021": 0.0,
			"-0.02": 0.0,
			"-0.019": 0.0,
			"-0.018": 0.0,
			"-0.017": 0.0,
			"-0.016": 0.0,
			"-0.015": 0.0,
			"-0.014": 0.0,
			"-0.013": 0.0,
			"-0.012": 0.0,
			"-0.011": 0.511091607728,
			"-0.01": 2.23089011853,
			"-0.009": 2.29082429744,
			"-0.008": 6.63426279054,
			"-0.007": 14.8066590204,
			"-0.006": 17.8291797867,
			"-0.005": 21.1278867255,
			"-0.004": 18.790777378,
			"-0.003": 19.6281493766,
			"-0.002": 21.2297354543,
			"-0.001": 27.0290984369,
			"0.0": 28.1909366635,
			"0.001": 26.9385505658,
			"0.002": 21.9027300295,
			"0.003": 11.3117936256,
			"0.004": 4.96248686255,
			"0.005": 4.19840227614,
			"0.006": 4.02861562375,
			"0.007": 4.40814422861,
			"0.008": 3.87185152241,
			"0.009": 5.71936074656,
			"0.01": 6.31363524784,
			"0.011": 5.8206035628,
			"0.012": 6.2073117106,
			"0.013": 5.14959864409,
			"0.014": 3.27395608425,
			"0.015": 1.51854326024,
			"0.016": 0.0,
			"0.017": 0.0,
			"0.018": 0.0,
			"0.019": 0.0,
			"0.02": 0.0,
			"0.021": 0.0,
			"0.022": 0.0,
			"0.023": 0.0,
			"0.024": 0.0,
			"0.025": 0.0
		}
	}
}
