{
	 "smiles": "OC(=O)C1=CC=CC=C1I", 
	 "Tm": 435.15, 
	 "num_atms": 15, 
	 "gaussian": { 
		 "optdone": 1, 
		 "sigma_profile": "no", 
		 "theory": "DFT", 
		 "functional": "B3LYP", 
		 "basiset": "6-31G**", 
		 "properties": { 
			 "R2extent": 1733.7629, 
			 "electric_dipole_moment_norm": 4.65318195862, 
			 "electric_quadrupole_moment_norm": 9.43076886738, 
			 "total_energy": -431.591771597, 
			 "HOMO_LUMO_gap": 0.19938, 
			 "cosmo_polarized_energy": -80974.08, 
			 "cosmo_cavitation_energy": 22.35, 
			 "cosmo_dispersion_energy": -18.11, 
			 "cosmo_repulsion_energy": 1.41, 
			 "cosmo_total_nonelectrostatic_energy": 5.66, 
			 "SMD_solvation_energy": 4.21 
		},
		"coords": [
			{
				"x": 1.184585133,
				"y": -1.2216263374,
				"z": 0.3795960727,
				"element": "O" 
			},
			{
				"x": -0.0142825557,
				"y": -1.0440108438,
				"z": -0.2089502262,
				"element": "C" 
			},
			{
				"x": -0.8060518052,
				"y": -1.957442095,
				"z": -0.2461536739,
				"element": "O" 
			},
			{
				"x": -0.3777973409,
				"y": 0.3240583894,
				"z": -0.7513524074,
				"element": "C" 
			},
			{
				"x": -1.7606713269,
				"y": 0.587792858,
				"z": -0.7337112233,
				"element": "C" 
			},
			{
				"x": -2.2858891324,
				"y": 1.7932586593,
				"z": -1.1813160391,
				"element": "C" 
			},
			{
				"x": -1.4295958763,
				"y": 2.772694005,
				"z": -1.6839543136,
				"element": "C" 
			},
			{
				"x": -0.0574163996,
				"y": 2.534769413,
				"z": -1.7384702654,
				"element": "C" 
			},
			{
				"x": 0.4635981451,
				"y": 1.3235055832,
				"z": -1.2726433599,
				"element": "C" 
			},
			{
				"x": 2.5805720408,
				"y": 1.1130087341,
				"z": -1.4985763331,
				"element": "I" 
			},
			{
				"x": 1.7335598762,
				"y": -0.4221623926,
				"z": 0.3364344679,
				"element": "H" 
			},
			{
				"x": -2.4061014847,
				"y": -0.1979895185,
				"z": -0.3577597142,
				"element": "H" 
			},
			{
				"x": -3.3569545235,
				"y": 1.9647019018,
				"z": -1.1432101598,
				"element": "H" 
			},
			{
				"x": -1.8208400275,
				"y": 3.7199867944,
				"z": -2.0427067332,
				"element": "H" 
			},
			{
				"x": 0.6065852775,
				"y": 3.287654849,
				"z": -2.1470260914,
				"element": "H" 
			}
		],
		 "valence_orbital": [ 
			{
				"type": "occ",
				"energy": -0.31721,
				"method": "rhf"
			},
			{
				"type": "occ",
				"energy": -0.29087,
				"method": "rhf"
			},
			{
				"type": "occ",
				"energy": -0.28769,
				"method": "rhf"
			},
			{
				"type": "occ",
				"energy": -0.27073,
				"method": "rhf"
			},
			{
				"type": "occ",
				"energy": -0.26259,
				"method": "rhf"
			},
			{
				"type": "unocc",
				"energy": -0.06321,
				"method": "rhf"
			},
			{
				"type": "unocc",
				"energy": -0.05941,
				"method": "rhf"
			},
			{
				"type": "unocc",
				"energy": -0.03398,
				"method": "rhf"
			},
			{
				"type": "unocc",
				"energy": 0.03366,
				"method": "rhf"
			},
			{
				"type": "unocc",
				"energy": 0.03688,
				"method": "rhf"
			}
		],
		"cosmo_sigma_profile": { 
			"0.0": 0.0,
			"0.0": 0.0,
			"0.0": 0.0,
			"0.0": 0.0,
			"0.0": 0.0,
			"0.0": 0.0,
			"0.0": 0.0,
			"0.0": 0.0,
			"0.0": 0.0,
			"0.0": 0.0,
			"0.0": 0.0,
			"0.0": 0.0,
			"0.0": 0.0,
			"0.0": 0.0,
			"0.0": 0.0,
			"0.0": 0.0,
			"0.0": 0.0,
			"0.0": 0.0,
			"0.0": 0.0,
			"0.0": 0.0,
			"0.0": 0.0,
			"0.0": 0.0,
			"0.0": 0.0,
			"0.0": 0.0,
			"0.0": 0.0,
			"0.0": 0.0,
			"0.0": 0.0,
			"0.0": 0.0,
			"0.0": 0.0,
			"0.0": 0.0,
			"0.0": 0.0,
			"0.0": 0.0,
			"0.0": 0.0,
			"0.0": 0.0,
			"0.0": 0.0,
			"0.0": 0.0,
			"0.0": 0.0,
			"0.0": 0.0,
			"0.0": 0.0,
			"0.0": 0.0,
			"0.0": 0.0,
			"0.0": 0.0,
			"0.0": 0.0,
			"0.0": 0.0,
			"0.0": 0.0,
			"0.0": 0.0,
			"0.0": 0.0,
			"0.0": 0.0,
			"0.0": 0.0,
			"0.0": 0.0,
			"0.0": 0.0
		}
	}
}
