{
	 "smiles": "S=C=NCC1=CC=CC=C1", 
	 "Tm": 314.15, 
	 "num_atms": 17, 
	 "gaussian": { 
		 "optdone": 1, 
		 "sigma_profile": "yes", 
		 "theory": "DFT", 
		 "functional": "B3LYP", 
		 "basiset": "6-31G**", 
		 "properties": { 
			 "R2extent": 2237.9442, 
			 "electric_dipole_moment_norm": 3.87042170054, 
			 "electric_quadrupole_moment_norm": 15.5057596096, 
			 "total_energy": -761.999232412, 
			 "HOMO_LUMO_gap": 0.21227, 
			 "cosmo_polarized_energy": -7.24, 
			 "cosmo_cavitation_energy": 24.21, 
			 "cosmo_dispersion_energy": -17.5, 
			 "cosmo_repulsion_energy": 1.41, 
			 "cosmo_total_nonelectrostatic_energy": 8.12, 
			 "SMD_solvation_energy": 3.29 
		},
		"coords": [
			{
				"x": 4.0316683397,
				"y": -0.0084666544,
				"z": -0.8472957413,
				"element": "S" 
			},
			{
				"x": 2.6253125749,
				"y": 0.3745464415,
				"z": -1.4908232724,
				"element": "C" 
			},
			{
				"x": 1.6180027353,
				"y": 0.695361873,
				"z": -2.0445186268,
				"element": "N" 
			},
			{
				"x": 0.1792670083,
				"y": 0.7735766513,
				"z": -2.0803270612,
				"element": "C" 
			},
			{
				"x": -0.482934964,
				"y": 0.24437324,
				"z": -0.8226273424,
				"element": "C" 
			},
			{
				"x": -0.826748657,
				"y": -1.1085173986,
				"z": -0.7196751486,
				"element": "C" 
			},
			{
				"x": -1.4169823191,
				"y": -1.600374446,
				"z": 0.4448350368,
				"element": "C" 
			},
			{
				"x": -1.6679871808,
				"y": -0.7422269719,
				"z": 1.5173209227,
				"element": "C" 
			},
			{
				"x": -1.3275039059,
				"y": 0.6085063319,
				"z": 1.421490743,
				"element": "C" 
			},
			{
				"x": -0.7372673879,
				"y": 1.0988735506,
				"z": 0.2563306958,
				"element": "C" 
			},
			{
				"x": -0.0919864464,
				"y": 1.8221564288,
				"z": -2.2459316871,
				"element": "H" 
			},
			{
				"x": -0.1618034602,
				"y": 0.214726532,
				"z": -2.95916558,
				"element": "H" 
			},
			{
				"x": -0.6323210308,
				"y": -1.7781460382,
				"z": -1.5538257041,
				"element": "H" 
			},
			{
				"x": -1.6824991705,
				"y": -2.6512152425,
				"z": 0.5136520994,
				"element": "H" 
			},
			{
				"x": -2.1291103142,
				"y": -1.1241809943,
				"z": 2.4234177748,
				"element": "H" 
			},
			{
				"x": -1.5232069236,
				"y": 1.2803939401,
				"z": 2.2520181108,
				"element": "H" 
			},
			{
				"x": -0.4728988978,
				"y": 2.1509127568,
				"z": 0.1834247806,
				"element": "H" 
			}
		],
		 "valence_orbital": [ 
			{
				"type": "occ",
				"energy": -0.35232,
				"method": "rhf"
			},
			{
				"type": "occ",
				"energy": -0.26515,
				"method": "rhf"
			},
			{
				"type": "occ",
				"energy": -0.26269,
				"method": "rhf"
			},
			{
				"type": "occ",
				"energy": -0.24514,
				"method": "rhf"
			},
			{
				"type": "occ",
				"energy": -0.24066,
				"method": "rhf"
			},
			{
				"type": "unocc",
				"energy": -0.02839,
				"method": "rhf"
			},
			{
				"type": "unocc",
				"energy": -0.01427,
				"method": "rhf"
			},
			{
				"type": "unocc",
				"energy": 0.00045,
				"method": "rhf"
			},
			{
				"type": "unocc",
				"energy": 0.01664,
				"method": "rhf"
			},
			{
				"type": "unocc",
				"energy": 0.07889,
				"method": "rhf"
			}
		],
		"cosmo_sigma_profile": { 
			"-0.025": 0.0,
			"-0.024": 0.0,
			"-0.023": 0.0,
			"-0.022": 0.0,
			"-0.021": 0.0,
			"-0.02": 0.0,
			"-0.019": 0.0,
			"-0.018": 0.0,
			"-0.017": 0.0,
			"-0.016": 0.0,
			"-0.015": 0.0,
			"-0.014": 0.0,
			"-0.013": 0.0,
			"-0.012": 0.0,
			"-0.011": 0.0,
			"-0.01": 0.0,
			"-0.009": 0.0,
			"-0.008": 1.65826462691,
			"-0.007": 8.4311123469,
			"-0.006": 14.291253181,
			"-0.005": 14.4298591589,
			"-0.004": 15.3906064354,
			"-0.003": 10.9285471677,
			"-0.002": 10.3407056563,
			"-0.001": 11.3131133062,
			"0.0": 11.4024041123,
			"0.001": 18.1789092122,
			"0.002": 15.5278485073,
			"0.003": 15.6259156797,
			"0.004": 15.363197871,
			"0.005": 16.7278841295,
			"0.006": 14.0986826055,
			"0.007": 4.17140117706,
			"0.008": 0.0,
			"0.009": 0.0,
			"0.01": 0.0,
			"0.011": 0.0,
			"0.012": 0.0,
			"0.013": 0.0,
			"0.014": 0.0,
			"0.015": 0.0,
			"0.016": 0.0,
			"0.017": 0.0,
			"0.018": 0.0,
			"0.019": 0.0,
			"0.02": 0.0,
			"0.021": 0.0,
			"0.022": 0.0,
			"0.023": 0.0,
			"0.024": 0.0,
			"0.025": 0.0
		}
	}
}
