{
	 "smiles": "O=C=NC1=CC2=CC=CC=C2C=C1", 
	 "Tm": 327.65, 
	 "num_atms": 20, 
	 "gaussian": { 
		 "optdone": 1, 
		 "sigma_profile": "yes", 
		 "theory": "DFT", 
		 "functional": "B3LYP", 
		 "basiset": "6-31G**", 
		 "properties": { 
			 "R2extent": 4040.8279, 
			 "electric_dipole_moment_norm": 2.69783894441, 
			 "electric_quadrupole_moment_norm": 14.1942970745, 
			 "total_energy": -553.376089239, 
			 "HOMO_LUMO_gap": 0.17079, 
			 "cosmo_polarized_energy": -5.95, 
			 "cosmo_cavitation_energy": 25.57, 
			 "cosmo_dispersion_energy": -18.66, 
			 "cosmo_repulsion_energy": 1.45, 
			 "cosmo_total_nonelectrostatic_energy": 8.36, 
			 "SMD_solvation_energy": 6.42 
		},
		"coords": [
			{
				"x": -5.4235343328,
				"y": -3.7367695057,
				"z": -1.6836756353,
				"element": "O" 
			},
			{
				"x": -4.5140374924,
				"y": -3.2892653413,
				"z": -1.0812558876,
				"element": "C" 
			},
			{
				"x": -3.5970898285,
				"y": -2.9433076155,
				"z": -0.3725522673,
				"element": "N" 
			},
			{
				"x": -2.6331564216,
				"y": -1.9358749577,
				"z": -0.2785137122,
				"element": "C" 
			},
			{
				"x": -1.7289916463,
				"y": -1.975569891,
				"z": 0.7637737965,
				"element": "C" 
			},
			{
				"x": -0.7331809248,
				"y": -0.9745676669,
				"z": 0.8960644903,
				"element": "C" 
			},
			{
				"x": 0.2131413231,
				"y": -0.9889717938,
				"z": 1.9568710516,
				"element": "C" 
			},
			{
				"x": 1.1699880277,
				"y": -0.0043605765,
				"z": 2.0599376802,
				"element": "C" 
			},
			{
				"x": 1.2273429887,
				"y": 1.0431942989,
				"z": 1.1079546956,
				"element": "C" 
			},
			{
				"x": 0.3245752469,
				"y": 1.0854311051,
				"z": 0.0687007589,
				"element": "C" 
			},
			{
				"x": -0.6740749469,
				"y": 0.0855799085,
				"z": -0.0668671725,
				"element": "C" 
			},
			{
				"x": -1.6220812739,
				"y": 0.095214487,
				"z": -1.1265400772,
				"element": "C" 
			},
			{
				"x": -2.5780289254,
				"y": -0.8840974012,
				"z": -1.2369358278,
				"element": "C" 
			},
			{
				"x": -1.7842180226,
				"y": -2.7836664727,
				"z": 1.486144461,
				"element": "H" 
			},
			{
				"x": 0.168716439,
				"y": -1.7927797389,
				"z": 2.6869902342,
				"element": "H" 
			},
			{
				"x": 1.8873933018,
				"y": -0.0278328203,
				"z": 2.8750899792,
				"element": "H" 
			},
			{
				"x": 1.987289699,
				"y": 1.8133068227,
				"z": 1.2016055854,
				"element": "H" 
			},
			{
				"x": 0.3648895046,
				"y": 1.8872694781,
				"z": -0.6641325835,
				"element": "H" 
			},
			{
				"x": -1.5819808066,
				"y": 0.8968340106,
				"z": -1.8593066822,
				"element": "H" 
			},
			{
				"x": -3.2980619092,
				"y": -0.8690663292,
				"z": -2.0496528872,
				"element": "H" 
			}
		],
		 "valence_orbital": [ 
			{
				"type": "occ",
				"energy": -0.30903,
				"method": "rhf"
			},
			{
				"type": "occ",
				"energy": -0.30714,
				"method": "rhf"
			},
			{
				"type": "occ",
				"energy": -0.28744,
				"method": "rhf"
			},
			{
				"type": "occ",
				"energy": -0.24253,
				"method": "rhf"
			},
			{
				"type": "occ",
				"energy": -0.21867,
				"method": "rhf"
			},
			{
				"type": "unocc",
				"energy": -0.04788,
				"method": "rhf"
			},
			{
				"type": "unocc",
				"energy": -0.02453,
				"method": "rhf"
			},
			{
				"type": "unocc",
				"energy": 0.0122,
				"method": "rhf"
			},
			{
				"type": "unocc",
				"energy": 0.02306,
				"method": "rhf"
			},
			{
				"type": "unocc",
				"energy": 0.05653,
				"method": "rhf"
			}
		],
		"cosmo_sigma_profile": { 
			"-0.025": 0.0,
			"-0.024": 0.0,
			"-0.023": 0.0,
			"-0.022": 0.0,
			"-0.021": 0.0,
			"-0.02": 0.0,
			"-0.019": 0.0,
			"-0.018": 0.0,
			"-0.017": 0.0,
			"-0.016": 0.0,
			"-0.015": 0.0,
			"-0.014": 0.0,
			"-0.013": 0.0,
			"-0.012": 0.0,
			"-0.011": 0.0,
			"-0.01": 0.0,
			"-0.009": 0.0,
			"-0.008": 1.42238268149,
			"-0.007": 5.40887995053,
			"-0.006": 15.2732118555,
			"-0.005": 15.1086976641,
			"-0.004": 15.8782944231,
			"-0.003": 14.1913090474,
			"-0.002": 14.3171565232,
			"-0.001": 11.2379903634,
			"0.0": 12.5379048596,
			"0.001": 12.4413979479,
			"0.002": 17.7072924736,
			"0.003": 26.3324251475,
			"0.004": 20.7747788121,
			"0.005": 11.5536865064,
			"0.006": 2.9908884758,
			"0.007": 6.53699772423,
			"0.008": 3.5851416453,
			"0.009": 0.0,
			"0.01": 0.0,
			"0.011": 0.0,
			"0.012": 0.0,
			"0.013": 0.0,
			"0.014": 0.0,
			"0.015": 0.0,
			"0.016": 0.0,
			"0.017": 0.0,
			"0.018": 0.0,
			"0.019": 0.0,
			"0.02": 0.0,
			"0.021": 0.0,
			"0.022": 0.0,
			"0.023": 0.0,
			"0.024": 0.0,
			"0.025": 0.0
		}
	}
}
