{
	 "smiles": "CC(=O)CN1C(=O)N2CCC3=C(C=CC=C3)C2(C1=O)C1=CC=C(Cl)C=C1", 
	 "Tm": 447.15, 
	 "num_atms": 43, 
	 "gaussian": { 
		 "optdone": 1, 
		 "sigma_profile": "yes", 
		 "theory": "DFT", 
		 "functional": "B3LYP", 
		 "basiset": "6-31G**", 
		 "properties": { 
			 "R2extent": 10288.7863, 
			 "electric_dipole_moment_norm": 5.22930760809, 
			 "electric_quadrupole_moment_norm": 18.3804764372, 
			 "total_energy": -1567.7876754, 
			 "HOMO_LUMO_gap": 0.21057, 
			 "cosmo_polarized_energy": -17.7, 
			 "cosmo_cavitation_energy": 47.47, 
			 "cosmo_dispersion_energy": -31.5, 
			 "cosmo_repulsion_energy": 2.38, 
			 "cosmo_total_nonelectrostatic_energy": 18.35, 
			 "SMD_solvation_energy": 9.28 
		},
		"coords": [
			{
				"x": 2.98740729,
				"y": 0.504080755,
				"z": 2.2817757274,
				"element": "C" 
			},
			{
				"x": 3.4456902953,
				"y": -0.8536767683,
				"z": 1.7989518723,
				"element": "C" 
			},
			{
				"x": 4.6115501524,
				"y": -1.1860197434,
				"z": 1.7531982462,
				"element": "O" 
			},
			{
				"x": 2.374021043,
				"y": -1.8879162753,
				"z": 1.4051116549,
				"element": "C" 
			},
			{
				"x": 1.0692147275,
				"y": -1.3526355398,
				"z": 1.0625055495,
				"element": "N" 
			},
			{
				"x": 0.0209297133,
				"y": -1.202644052,
				"z": 1.9981682534,
				"element": "C" 
			},
			{
				"x": 0.1186730316,
				"y": -1.4100944678,
				"z": 3.1944561468,
				"element": "O" 
			},
			{
				"x": -1.0817125294,
				"y": -0.7725679901,
				"z": 1.3092750372,
				"element": "N" 
			},
			{
				"x": -2.2080501508,
				"y": -0.1655719789,
				"z": 2.0261138278,
				"element": "C" 
			},
			{
				"x": -2.9694509416,
				"y": 0.7922670757,
				"z": 1.0960596989,
				"element": "C" 
			},
			{
				"x": -2.0223588676,
				"y": 1.6654538314,
				"z": 0.3088916301,
				"element": "C" 
			},
			{
				"x": -0.9145104132,
				"y": 1.0544685775,
				"z": -0.3094371253,
				"element": "C" 
			},
			{
				"x": -0.0174599084,
				"y": 1.8219497085,
				"z": -1.0580893824,
				"element": "C" 
			},
			{
				"x": -0.2206750285,
				"y": 3.1978635493,
				"z": -1.1949987563,
				"element": "C" 
			},
			{
				"x": -1.3128316734,
				"y": 3.8089342654,
				"z": -0.5806688841,
				"element": "C" 
			},
			{
				"x": -2.2063005063,
				"y": 3.0426764986,
				"z": 0.1705999501,
				"element": "C" 
			},
			{
				"x": -0.7694820322,
				"y": -0.4574501936,
				"z": -0.0966588808,
				"element": "C" 
			},
			{
				"x": 0.7067883599,
				"y": -0.9229752879,
				"z": -0.1930547544,
				"element": "C" 
			},
			{
				"x": 1.4106478573,
				"y": -0.9225335852,
				"z": -1.1835703095,
				"element": "O" 
			},
			{
				"x": -1.6076812359,
				"y": -1.2858336286,
				"z": -1.0851366689,
				"element": "C" 
			},
			{
				"x": -2.2723307393,
				"y": -2.4451754406,
				"z": -0.669416537,
				"element": "C" 
			},
			{
				"x": -2.9932276106,
				"y": -3.2228643089,
				"z": -1.5760433395,
				"element": "C" 
			},
			{
				"x": -3.0384253342,
				"y": -2.8392250978,
				"z": -2.9147247653,
				"element": "C" 
			},
			{
				"x": -3.9470435026,
				"y": -3.8087669423,
				"z": -4.0636099005,
				"element": "Cl" 
			},
			{
				"x": -2.3736066017,
				"y": -1.6950021642,
				"z": -3.3545515906,
				"element": "C" 
			},
			{
				"x": -1.6618054018,
				"y": -0.9246839505,
				"z": -2.437033088,
				"element": "C" 
			},
			{
				"x": 2.2550553531,
				"y": 0.3885494671,
				"z": 3.0887042999,
				"element": "H" 
			},
			{
				"x": 3.8505394779,
				"y": 1.0718737174,
				"z": 2.6305026523,
				"element": "H" 
			},
			{
				"x": 2.4929644089,
				"y": 1.0528978576,
				"z": 1.4719685024,
				"element": "H" 
			},
			{
				"x": 2.2380188891,
				"y": -2.5537796298,
				"z": 2.263726113,
				"element": "H" 
			},
			{
				"x": 2.7554574497,
				"y": -2.4664400382,
				"z": 0.5616044497,
				"element": "H" 
			},
			{
				"x": -2.8782910735,
				"y": -0.9461905908,
				"z": 2.402188714,
				"element": "H" 
			},
			{
				"x": -1.8116284817,
				"y": 0.3700949857,
				"z": 2.8951639144,
				"element": "H" 
			},
			{
				"x": -3.5839351011,
				"y": 0.2033171339,
				"z": 0.4030742897,
				"element": "H" 
			},
			{
				"x": -3.6575315916,
				"y": 1.3974457871,
				"z": 1.6931852571,
				"element": "H" 
			},
			{
				"x": 0.8330513228,
				"y": 1.345200692,
				"z": -1.5333048207,
				"element": "H" 
			},
			{
				"x": 0.4796775556,
				"y": 3.7880994895,
				"z": -1.7784017413,
				"element": "H" 
			},
			{
				"x": -1.4690205302,
				"y": 4.8789258877,
				"z": -0.681510599,
				"element": "H" 
			},
			{
				"x": -3.0563640655,
				"y": 3.5174105765,
				"z": 0.6541099739,
				"element": "H" 
			},
			{
				"x": -2.2293705248,
				"y": -2.7456307185,
				"z": 0.3720649932,
				"element": "H" 
			},
			{
				"x": -3.5121546546,
				"y": -4.1162977736,
				"z": -1.2469433951,
				"element": "H" 
			},
			{
				"x": -2.4137843184,
				"y": -1.4102069568,
				"z": -4.399968863,
				"element": "H" 
			},
			{
				"x": -1.1483541086,
				"y": -0.0340267332,
				"z": -2.7808773523,
				"element": "H" 
			}
		],
		 "valence_orbital": [ 
			{
				"type": "occ",
				"energy": -0.26766,
				"method": "rhf"
			},
			{
				"type": "occ",
				"energy": -0.26467,
				"method": "rhf"
			},
			{
				"type": "occ",
				"energy": -0.25693,
				"method": "rhf"
			},
			{
				"type": "occ",
				"energy": -0.25068,
				"method": "rhf"
			},
			{
				"type": "occ",
				"energy": -0.24742,
				"method": "rhf"
			},
			{
				"type": "unocc",
				"energy": -0.03685,
				"method": "rhf"
			},
			{
				"type": "unocc",
				"energy": -0.02939,
				"method": "rhf"
			},
			{
				"type": "unocc",
				"energy": -0.02352,
				"method": "rhf"
			},
			{
				"type": "unocc",
				"energy": -0.02083,
				"method": "rhf"
			},
			{
				"type": "unocc",
				"energy": -0.01605,
				"method": "rhf"
			}
		],
		"cosmo_sigma_profile": { 
			"-0.025": 0.0,
			"-0.024": 0.0,
			"-0.023": 0.0,
			"-0.022": 0.0,
			"-0.021": 0.0,
			"-0.02": 0.0,
			"-0.019": 0.0,
			"-0.018": 0.0,
			"-0.017": 0.0,
			"-0.016": 0.0,
			"-0.015": 0.0,
			"-0.014": 0.0,
			"-0.013": 0.0,
			"-0.012": 0.0,
			"-0.011": 0.0,
			"-0.01": 0.0,
			"-0.009": 0.385877285915,
			"-0.008": 2.90427406155,
			"-0.007": 7.84159759471,
			"-0.006": 21.9533683454,
			"-0.005": 38.5692921226,
			"-0.004": 41.7828105325,
			"-0.003": 32.3095790515,
			"-0.002": 29.8159116939,
			"-0.001": 24.5833837888,
			"0.0": 21.9601941018,
			"0.001": 22.8594108238,
			"0.002": 26.7754052436,
			"0.003": 26.6681491393,
			"0.004": 21.9250394653,
			"0.005": 16.0728254464,
			"0.006": 4.2372983112,
			"0.007": 4.58815646711,
			"0.008": 4.08182948157,
			"0.009": 4.81554808572,
			"0.01": 6.71115941785,
			"0.011": 9.85942670328,
			"0.012": 8.3896182398,
			"0.013": 1.57620131855,
			"0.014": 0.0,
			"0.015": 0.0,
			"0.016": 0.0,
			"0.017": 0.0,
			"0.018": 0.0,
			"0.019": 0.0,
			"0.02": 0.0,
			"0.021": 0.0,
			"0.022": 0.0,
			"0.023": 0.0,
			"0.024": 0.0,
			"0.025": 0.0
		}
	}
}
