{
	 "smiles": "CC1=C(C=NN1)S(Cl)(=O)=O", 
	 "Tm": 369.15, 
	 "num_atms": 15, 
	 "gaussian": { 
		 "optdone": 1, 
		 "sigma_profile": "yes", 
		 "theory": "DFT", 
		 "functional": "B3LYP", 
		 "basiset": "6-31G**", 
		 "properties": { 
			 "R2extent": 2278.0627, 
			 "electric_dipole_moment_norm": 5.65749637649, 
			 "electric_quadrupole_moment_norm": 9.23938629942, 
			 "total_energy": -1273.68167068, 
			 "HOMO_LUMO_gap": 0.19769, 
			 "cosmo_polarized_energy": -14.74, 
			 "cosmo_cavitation_energy": 22.91, 
			 "cosmo_dispersion_energy": -17.28, 
			 "cosmo_repulsion_energy": 1.36, 
			 "cosmo_total_nonelectrostatic_energy": 6.99, 
			 "SMD_solvation_energy": 2.05 
		},
		"coords": [
			{
				"x": 1.3668891984,
				"y": -1.27985005,
				"z": 0.0246465433,
				"element": "C" 
			},
			{
				"x": 0.0655994765,
				"y": -0.5718999862,
				"z": 0.2076758617,
				"element": "C" 
			},
			{
				"x": -0.7625991053,
				"y": 0.1276355146,
				"z": -0.6716108859,
				"element": "C" 
			},
			{
				"x": -1.8549238635,
				"y": 0.6042707875,
				"z": 0.0974955029,
				"element": "C" 
			},
			{
				"x": -1.7373423507,
				"y": 0.2264988204,
				"z": 1.3595890265,
				"element": "N" 
			},
			{
				"x": -0.5725656109,
				"y": -0.473730248,
				"z": 1.3940976115,
				"element": "N" 
			},
			{
				"x": -0.5180728973,
				"y": 0.3656880381,
				"z": -2.3772091555,
				"element": "S" 
			},
			{
				"x": 0.7962457145,
				"y": 2.0572033491,
				"z": -2.4175269782,
				"element": "Cl" 
			},
			{
				"x": -1.7675384121,
				"y": 0.8150795309,
				"z": -2.9752863599,
				"element": "O" 
			},
			{
				"x": 0.2621604851,
				"y": -0.7389368278,
				"z": -2.9251410678,
				"element": "O" 
			},
			{
				"x": 1.3342054328,
				"y": -1.9073193873,
				"z": -0.8681009203,
				"element": "H" 
			},
			{
				"x": 2.1828545429,
				"y": -0.5616245025,
				"z": -0.1104188482,
				"element": "H" 
			},
			{
				"x": 1.5983976839,
				"y": -1.903196277,
				"z": 0.8925369806,
				"element": "H" 
			},
			{
				"x": -2.7027541976,
				"y": 1.1831479306,
				"z": -0.23909146,
				"element": "H" 
			},
			{
				"x": -0.2743560967,
				"y": -0.8753666924,
				"z": 2.2716441494,
				"element": "H" 
			}
		],
		 "valence_orbital": [ 
			{
				"type": "occ",
				"energy": -0.33511,
				"method": "rhf"
			},
			{
				"type": "occ",
				"energy": -0.31785,
				"method": "rhf"
			},
			{
				"type": "occ",
				"energy": -0.31127,
				"method": "rhf"
			},
			{
				"type": "occ",
				"energy": -0.29903,
				"method": "rhf"
			},
			{
				"type": "occ",
				"energy": -0.28145,
				"method": "rhf"
			},
			{
				"type": "unocc",
				"energy": -0.08376,
				"method": "rhf"
			},
			{
				"type": "unocc",
				"energy": -0.02122,
				"method": "rhf"
			},
			{
				"type": "unocc",
				"energy": 0.00434,
				"method": "rhf"
			},
			{
				"type": "unocc",
				"energy": 0.04894,
				"method": "rhf"
			},
			{
				"type": "unocc",
				"energy": 0.06832,
				"method": "rhf"
			}
		],
		"cosmo_sigma_profile": { 
			"-0.025": 0.0,
			"-0.024": 0.0,
			"-0.023": 0.0,
			"-0.022": 0.0,
			"-0.021": 0.0,
			"-0.02": 0.0,
			"-0.019": 0.00149361097854,
			"-0.018": 1.09628220838,
			"-0.017": 1.34382392251,
			"-0.016": 1.77323598093,
			"-0.015": 0.931053178549,
			"-0.014": 1.20929253072,
			"-0.013": 1.58531105254,
			"-0.012": 1.34735744489,
			"-0.011": 0.887398704092,
			"-0.01": 1.22281937715,
			"-0.009": 2.54362767007,
			"-0.008": 3.35640243899,
			"-0.007": 4.36553250408,
			"-0.006": 5.6260244086,
			"-0.005": 9.48822547691,
			"-0.004": 11.5292535719,
			"-0.003": 13.0149504546,
			"-0.002": 12.19896164,
			"-0.001": 12.7517391105,
			"0.0": 10.3985133081,
			"0.001": 11.6836744053,
			"0.002": 9.26609770498,
			"0.003": 13.6563187187,
			"0.004": 15.4694597359,
			"0.005": 5.99035954514,
			"0.006": 4.4334221872,
			"0.007": 6.09643175213,
			"0.008": 10.2053366253,
			"0.009": 6.93166399506,
			"0.01": 1.52710217287,
			"0.011": 0.785159916059,
			"0.012": 1.52882274763,
			"0.013": 0.939107659469,
			"0.014": 0.724131204429,
			"0.015": 0.0768426344011,
			"0.016": 0.0,
			"0.017": 0.0,
			"0.018": 0.0,
			"0.019": 0.0,
			"0.02": 0.0,
			"0.021": 0.0,
			"0.022": 0.0,
			"0.023": 0.0,
			"0.024": 0.0,
			"0.025": 0.0
		}
	}
}
