{
	 "smiles": "O=C1COC2=CC=CC=C2N1", 
	 "Tm": 447.15, 
	 "num_atms": 18, 
	 "gaussian": { 
		 "optdone": 1, 
		 "sigma_profile": "yes", 
		 "theory": "DFT", 
		 "functional": "B3LYP", 
		 "basiset": "6-31G**", 
		 "properties": { 
			 "R2extent": 1776.5462, 
			 "electric_dipole_moment_norm": 2.63579939487, 
			 "electric_quadrupole_moment_norm": 8.33967476464, 
			 "total_energy": -514.273155834, 
			 "HOMO_LUMO_gap": 0.19978, 
			 "cosmo_polarized_energy": -11.23, 
			 "cosmo_cavitation_energy": 21.9, 
			 "cosmo_dispersion_energy": -16.81, 
			 "cosmo_repulsion_energy": 1.34, 
			 "cosmo_total_nonelectrostatic_energy": 6.43, 
			 "SMD_solvation_energy": 4.6 
		},
		"coords": [
			{
				"x": -0.0232455898,
				"y": 0.3801431978,
				"z": 2.6186935783,
				"element": "O" 
			},
			{
				"x": -0.1954852728,
				"y": 0.2733872009,
				"z": 1.4162513366,
				"element": "C" 
			},
			{
				"x": -1.5004152761,
				"y": 0.674342663,
				"z": 0.7319615302,
				"element": "C" 
			},
			{
				"x": -1.7840611743,
				"y": -0.0561517324,
				"z": -0.462280707,
				"element": "O" 
			},
			{
				"x": -0.7316103858,
				"y": -0.1883472568,
				"z": -1.3320650715,
				"element": "C" 
			},
			{
				"x": -0.9801616596,
				"y": -0.3182815486,
				"z": -2.6952682562,
				"element": "C" 
			},
			{
				"x": 0.0829332474,
				"y": -0.5155432875,
				"z": -3.5794181601,
				"element": "C" 
			},
			{
				"x": 1.3925937325,
				"y": -0.5695939732,
				"z": -3.0993226997,
				"element": "C" 
			},
			{
				"x": 1.6440321079,
				"y": -0.4344292924,
				"z": -1.7329492886,
				"element": "C" 
			},
			{
				"x": 0.5839043855,
				"y": -0.2515615977,
				"z": -0.8433284257,
				"element": "C" 
			},
			{
				"x": 0.7729247162,
				"y": -0.1587130553,
				"z": 0.5468824632,
				"element": "N" 
			},
			{
				"x": -1.4598830376,
				"y": 1.7543876242,
				"z": 0.5199223428,
				"element": "H" 
			},
			{
				"x": -2.3221448847,
				"y": 0.4867684799,
				"z": 1.4229930552,
				"element": "H" 
			},
			{
				"x": -2.0076977861,
				"y": -0.2719585378,
				"z": -3.0404919997,
				"element": "H" 
			},
			{
				"x": -0.1146894367,
				"y": -0.6185859813,
				"z": -4.6416740494,
				"element": "H" 
			},
			{
				"x": 2.2216708207,
				"y": -0.7166349582,
				"z": -3.7840910396,
				"element": "H" 
			},
			{
				"x": 2.6604036185,
				"y": -0.4782202858,
				"z": -1.3501842084,
				"element": "H" 
			},
			{
				"x": 1.6758318749,
				"y": -0.3729076586,
				"z": 0.9505695996,
				"element": "H" 
			}
		],
		 "valence_orbital": [ 
			{
				"type": "occ",
				"energy": -0.3285,
				"method": "rhf"
			},
			{
				"type": "occ",
				"energy": -0.31423,
				"method": "rhf"
			},
			{
				"type": "occ",
				"energy": -0.26362,
				"method": "rhf"
			},
			{
				"type": "occ",
				"energy": -0.24475,
				"method": "rhf"
			},
			{
				"type": "occ",
				"energy": -0.2181,
				"method": "rhf"
			},
			{
				"type": "unocc",
				"energy": -0.01832,
				"method": "rhf"
			},
			{
				"type": "unocc",
				"energy": -0.00572,
				"method": "rhf"
			},
			{
				"type": "unocc",
				"energy": 0.02956,
				"method": "rhf"
			},
			{
				"type": "unocc",
				"energy": 0.07778,
				"method": "rhf"
			},
			{
				"type": "unocc",
				"energy": 0.08589,
				"method": "rhf"
			}
		],
		"cosmo_sigma_profile": { 
			"-0.025": 0.0,
			"-0.024": 0.0,
			"-0.023": 0.0,
			"-0.022": 0.0,
			"-0.021": 0.0,
			"-0.02": 0.0,
			"-0.019": 0.0,
			"-0.018": 0.0,
			"-0.017": 0.0,
			"-0.016": 0.160515969647,
			"-0.015": 1.34862609813,
			"-0.014": 1.0445494413,
			"-0.013": 1.25430884432,
			"-0.012": 1.40891534223,
			"-0.011": 1.11804707176,
			"-0.01": 1.30421447087,
			"-0.009": 0.868513646848,
			"-0.008": 3.54709914783,
			"-0.007": 7.72540256919,
			"-0.006": 11.2038389706,
			"-0.005": 11.7203378326,
			"-0.004": 13.3424053756,
			"-0.003": 11.1010496453,
			"-0.002": 9.66641775297,
			"-0.001": 8.51556630203,
			"0.0": 10.5499823796,
			"0.001": 9.24477634942,
			"0.002": 10.4870569423,
			"0.003": 11.1436280558,
			"0.004": 11.2106619038,
			"0.005": 10.5285128321,
			"0.006": 4.35455389006,
			"0.007": 2.40808941849,
			"0.008": 2.29752081062,
			"0.009": 2.52249692363,
			"0.01": 2.98185021861,
			"0.011": 2.19533567677,
			"0.012": 4.17103811876,
			"0.013": 4.9366199962,
			"0.014": 0.770467745718,
			"0.015": 0.0,
			"0.016": 0.0,
			"0.017": 0.0,
			"0.018": 0.0,
			"0.019": 0.0,
			"0.02": 0.0,
			"0.021": 0.0,
			"0.022": 0.0,
			"0.023": 0.0,
			"0.024": 0.0,
			"0.025": 0.0
		}
	}
}
