{
	 "smiles": "CCC(C)Br", 
	 "Tm": 161.15, 
	 "num_atms": 14, 
	 "gaussian": { 
		 "optdone": 1, 
		 "sigma_profile": "yes", 
		 "theory": "DFT", 
		 "functional": "B3LYP", 
		 "basiset": "6-31G**", 
		 "properties": { 
			 "R2extent": 863.7389, 
			 "electric_dipole_moment_norm": 2.31950602284, 
			 "electric_quadrupole_moment_norm": 1.96218161494, 
			 "total_energy": -2729.27288248, 
			 "HOMO_LUMO_gap": 0.26827, 
			 "cosmo_polarized_energy": -3.79, 
			 "cosmo_cavitation_energy": 18.09, 
			 "cosmo_dispersion_energy": -13.78, 
			 "cosmo_repulsion_energy": 1.2, 
			 "cosmo_total_nonelectrostatic_energy": 5.52, 
			 "SMD_solvation_energy": 2.1 
		},
		"coords": [
			{
				"x": 1.9036025791,
				"y": -0.268698104,
				"z": -1.800329332,
				"element": "C" 
			},
			{
				"x": 2.0032232051,
				"y": -0.2418502259,
				"z": -0.2728291871,
				"element": "C" 
			},
			{
				"x": 1.0503757306,
				"y": 0.7136409601,
				"z": 0.4485848921,
				"element": "C" 
			},
			{
				"x": 1.1518058372,
				"y": 2.1750965636,
				"z": 0.0365964828,
				"element": "C" 
			},
			{
				"x": -0.8526717628,
				"y": 0.1009131638,
				"z": 0.2056550765,
				"element": "Br" 
			},
			{
				"x": 0.8954357424,
				"y": -0.5465337083,
				"z": -2.1203089243,
				"element": "H" 
			},
			{
				"x": 2.6039314558,
				"y": -1.0018261585,
				"z": -2.2118845555,
				"element": "H" 
			},
			{
				"x": 2.1458044869,
				"y": 0.702026707,
				"z": -2.2439487081,
				"element": "H" 
			},
			{
				"x": 3.0194529205,
				"y": 0.0586155926,
				"z": 0.0238174914,
				"element": "H" 
			},
			{
				"x": 1.8515162196,
				"y": -1.2504034238,
				"z": 0.1257588305,
				"element": "H" 
			},
			{
				"x": 1.1845372745,
				"y": 0.6135668242,
				"z": 1.5267949571,
				"element": "H" 
			},
			{
				"x": 2.1810451816,
				"y": 2.5233840732,
				"z": 0.192207481,
				"element": "H" 
			},
			{
				"x": 0.897833612,
				"y": 2.3172677626,
				"z": -1.0163368103,
				"element": "H" 
			},
			{
				"x": 0.4846075177,
				"y": 2.7995999734,
				"z": 0.6347223059,
				"element": "H" 
			}
		],
		 "valence_orbital": [ 
			{
				"type": "occ",
				"energy": -0.3496,
				"method": "rhf"
			},
			{
				"type": "occ",
				"energy": -0.34281,
				"method": "rhf"
			},
			{
				"type": "occ",
				"energy": -0.32736,
				"method": "rhf"
			},
			{
				"type": "occ",
				"energy": -0.26592,
				"method": "rhf"
			},
			{
				"type": "occ",
				"energy": -0.26461,
				"method": "rhf"
			},
			{
				"type": "unocc",
				"energy": 0.00366,
				"method": "rhf"
			},
			{
				"type": "unocc",
				"energy": 0.08159,
				"method": "rhf"
			},
			{
				"type": "unocc",
				"energy": 0.11824,
				"method": "rhf"
			},
			{
				"type": "unocc",
				"energy": 0.13432,
				"method": "rhf"
			},
			{
				"type": "unocc",
				"energy": 0.14853,
				"method": "rhf"
			}
		],
		"cosmo_sigma_profile": { 
			"-0.025": 0.0,
			"-0.024": 0.0,
			"-0.023": 0.0,
			"-0.022": 0.0,
			"-0.021": 0.0,
			"-0.02": 0.0,
			"-0.019": 0.0,
			"-0.018": 0.0,
			"-0.017": 0.0,
			"-0.016": 0.0,
			"-0.015": 0.0,
			"-0.014": 0.0,
			"-0.013": 0.0,
			"-0.012": 0.0,
			"-0.011": 0.0,
			"-0.01": 0.0,
			"-0.009": 0.0,
			"-0.008": 0.0,
			"-0.007": 0.350464624318,
			"-0.006": 2.24396390589,
			"-0.005": 5.23107330345,
			"-0.004": 12.9693614088,
			"-0.003": 17.456873887,
			"-0.002": 16.6335949413,
			"-0.001": 19.9950863591,
			"0.0": 16.8147233696,
			"0.001": 12.6937053036,
			"0.002": 7.04081965769,
			"0.003": 4.29095214894,
			"0.004": 5.80862239452,
			"0.005": 5.77100283818,
			"0.006": 7.91550541464,
			"0.007": 8.24689952792,
			"0.008": 0.246183558296,
			"0.009": 0.0,
			"0.01": 0.0,
			"0.011": 0.0,
			"0.012": 0.0,
			"0.013": 0.0,
			"0.014": 0.0,
			"0.015": 0.0,
			"0.016": 0.0,
			"0.017": 0.0,
			"0.018": 0.0,
			"0.019": 0.0,
			"0.02": 0.0,
			"0.021": 0.0,
			"0.022": 0.0,
			"0.023": 0.0,
			"0.024": 0.0,
			"0.025": 0.0
		}
	}
}
