{
	 "smiles": "CC1=CC=C(C=C1)S(=O)(=O)OCCOCC1=CC=CC=C1", 
	 "Tm": 322.65, 
	 "num_atms": 39, 
	 "gaussian": { 
		 "optdone": 1, 
		 "sigma_profile": "yes", 
		 "theory": "DFT", 
		 "functional": "B3LYP", 
		 "basiset": "6-31G**", 
		 "properties": { 
			 "R2extent": 8604.9403, 
			 "electric_dipole_moment_norm": 4.85623187873, 
			 "electric_quadrupole_moment_norm": 24.2859531219, 
			 "total_energy": -1319.55572621, 
			 "HOMO_LUMO_gap": 0.19985, 
			 "cosmo_polarized_energy": -14.99, 
			 "cosmo_cavitation_energy": 44.63, 
			 "cosmo_dispersion_energy": -30.38, 
			 "cosmo_repulsion_energy": 2.34, 
			 "cosmo_total_nonelectrostatic_energy": 16.59, 
			 "SMD_solvation_energy": 6.61 
		},
		"coords": [
			{
				"x": -0.1420413244,
				"y": 5.4014956901,
				"z": 1.7770890979,
				"element": "C" 
			},
			{
				"x": -0.3748293729,
				"y": 4.3178014115,
				"z": 0.7524320806,
				"element": "C" 
			},
			{
				"x": -1.5485511742,
				"y": 3.5498639925,
				"z": 0.7751189727,
				"element": "C" 
			},
			{
				"x": -1.7611323839,
				"y": 2.5306626343,
				"z": -0.1503379581,
				"element": "C" 
			},
			{
				"x": -0.7805031804,
				"y": 2.2780908052,
				"z": -1.1105780843,
				"element": "C" 
			},
			{
				"x": 0.3927526248,
				"y": 3.0316424732,
				"z": -1.1678565474,
				"element": "C" 
			},
			{
				"x": 0.5856674529,
				"y": 4.046368799,
				"z": -0.2336111101,
				"element": "C" 
			},
			{
				"x": -1.0463751368,
				"y": 0.986543479,
				"z": -2.3061926143,
				"element": "S" 
			},
			{
				"x": -2.4775638341,
				"y": 0.713020338,
				"z": -2.4315666553,
				"element": "O" 
			},
			{
				"x": -0.2377731396,
				"y": 1.2370798246,
				"z": -3.4997069189,
				"element": "O" 
			},
			{
				"x": -0.3474013819,
				"y": -0.2432948487,
				"z": -1.4601014238,
				"element": "O" 
			},
			{
				"x": -0.3241146393,
				"y": -1.5261895994,
				"z": -2.1486988707,
				"element": "C" 
			},
			{
				"x": 0.3823150997,
				"y": -2.5367096883,
				"z": -1.2595279964,
				"element": "C" 
			},
			{
				"x": -0.4026804238,
				"y": -2.9602864696,
				"z": -0.1577315967,
				"element": "O" 
			},
			{
				"x": -0.2361396711,
				"y": -2.1990215911,
				"z": 1.0384833845,
				"element": "C" 
			},
			{
				"x": 1.0841790797,
				"y": -2.4592938876,
				"z": 1.740668374,
				"element": "C" 
			},
			{
				"x": 1.7822051875,
				"y": -1.4160017073,
				"z": 2.358705071,
				"element": "C" 
			},
			{
				"x": 2.9713680517,
				"y": -1.6642658477,
				"z": 3.048236077,
				"element": "C" 
			},
			{
				"x": 3.4814729068,
				"y": -2.9612248101,
				"z": 3.1162115502,
				"element": "C" 
			},
			{
				"x": 2.7961262677,
				"y": -4.0076855244,
				"z": 2.4927721372,
				"element": "C" 
			},
			{
				"x": 1.6051267843,
				"y": -3.7583939295,
				"z": 1.8120198544,
				"element": "C" 
			},
			{
				"x": -1.0851049164,
				"y": 5.8257509991,
				"z": 2.132936072,
				"element": "H" 
			},
			{
				"x": 0.4665641599,
				"y": 6.2138128762,
				"z": 1.3696396886,
				"element": "H" 
			},
			{
				"x": 0.3880110423,
				"y": 5.0040785316,
				"z": 2.6516403604,
				"element": "H" 
			},
			{
				"x": -2.3095495192,
				"y": 3.7581629464,
				"z": 1.52228154,
				"element": "H" 
			},
			{
				"x": -2.675794084,
				"y": 1.9480541506,
				"z": -0.1448275399,
				"element": "H" 
			},
			{
				"x": 1.1270933538,
				"y": 2.8320719887,
				"z": -1.9404376746,
				"element": "H" 
			},
			{
				"x": 1.4931290172,
				"y": 4.6427187313,
				"z": -0.2747172007,
				"element": "H" 
			},
			{
				"x": -1.3516555349,
				"y": -1.8447517753,
				"z": -2.3481670371,
				"element": "H" 
			},
			{
				"x": 0.2184655895,
				"y": -1.4101637733,
				"z": -3.0937054959,
				"element": "H" 
			},
			{
				"x": 0.5716922927,
				"y": -3.4274727673,
				"z": -1.870675769,
				"element": "H" 
			},
			{
				"x": 1.3538575977,
				"y": -2.1397724513,
				"z": -0.9365262392,
				"element": "H" 
			},
			{
				"x": -1.0676946193,
				"y": -2.5149490293,
				"z": 1.6794774574,
				"element": "H" 
			},
			{
				"x": -0.3578871776,
				"y": -1.1268867893,
				"z": 0.8445858675,
				"element": "H" 
			},
			{
				"x": 1.393287019,
				"y": -0.4020478849,
				"z": 2.2981645432,
				"element": "H" 
			},
			{
				"x": 3.5028099565,
				"y": -0.8439186199,
				"z": 3.5227287926,
				"element": "H" 
			},
			{
				"x": 4.4089041819,
				"y": -3.1560535097,
				"z": 3.6472721221,
				"element": "H" 
			},
			{
				"x": 3.1904293742,
				"y": -5.0191451835,
				"z": 2.5394270189,
				"element": "H" 
			},
			{
				"x": 1.0713344743,
				"y": -4.5667899839,
				"z": 1.3209766701,
				"element": "H" 
			}
		],
		 "valence_orbital": [ 
			{
				"type": "occ",
				"energy": -0.27343,
				"method": "rhf"
			},
			{
				"type": "occ",
				"energy": -0.26822,
				"method": "rhf"
			},
			{
				"type": "occ",
				"energy": -0.26177,
				"method": "rhf"
			},
			{
				"type": "occ",
				"energy": -0.24977,
				"method": "rhf"
			},
			{
				"type": "occ",
				"energy": -0.24283,
				"method": "rhf"
			},
			{
				"type": "unocc",
				"energy": -0.04298,
				"method": "rhf"
			},
			{
				"type": "unocc",
				"energy": -0.02384,
				"method": "rhf"
			},
			{
				"type": "unocc",
				"energy": -0.005,
				"method": "rhf"
			},
			{
				"type": "unocc",
				"energy": -0.00086,
				"method": "rhf"
			},
			{
				"type": "unocc",
				"energy": 0.04766,
				"method": "rhf"
			}
		],
		"cosmo_sigma_profile": { 
			"-0.025": 0.0,
			"-0.024": 0.0,
			"-0.023": 0.0,
			"-0.022": 0.0,
			"-0.021": 0.0,
			"-0.02": 0.0,
			"-0.019": 0.0,
			"-0.018": 0.0,
			"-0.017": 0.0,
			"-0.016": 0.0,
			"-0.015": 0.0,
			"-0.014": 0.0,
			"-0.013": 0.0,
			"-0.012": 0.0,
			"-0.011": 0.0,
			"-0.01": 0.0,
			"-0.009": 0.0,
			"-0.008": 0.503396518915,
			"-0.007": 8.20788374261,
			"-0.006": 20.4171883579,
			"-0.005": 34.6207996306,
			"-0.004": 31.1327697848,
			"-0.003": 31.3418029462,
			"-0.002": 26.6563306744,
			"-0.001": 29.9927197189,
			"0.0": 24.4900820791,
			"0.001": 23.337196305,
			"0.002": 26.0121135673,
			"0.003": 26.2316603194,
			"0.004": 13.0678568668,
			"0.005": 13.2138337357,
			"0.006": 11.7464081613,
			"0.007": 4.73810761378,
			"0.008": 3.77046846966,
			"0.009": 7.02157767491,
			"0.01": 10.8129626296,
			"0.011": 5.27448055555,
			"0.012": 1.25342511777,
			"0.013": 0.672461075744,
			"0.014": 0.0,
			"0.015": 0.0,
			"0.016": 0.0,
			"0.017": 0.0,
			"0.018": 0.0,
			"0.019": 0.0,
			"0.02": 0.0,
			"0.021": 0.0,
			"0.022": 0.0,
			"0.023": 0.0,
			"0.024": 0.0,
			"0.025": 0.0
		}
	}
}
