{
	 "smiles": "CC(C)(C)C1=CC=C(OCCCC(O)=O)C=C1", 
	 "Tm": 327.15, 
	 "num_atms": 37, 
	 "gaussian": { 
		 "optdone": 1, 
		 "sigma_profile": "yes", 
		 "theory": "DFT", 
		 "functional": "B3LYP", 
		 "basiset": "6-31G**", 
		 "properties": { 
			 "R2extent": 7249.9489, 
			 "electric_dipole_moment_norm": 3.01433600483, 
			 "electric_quadrupole_moment_norm": 22.3118045539, 
			 "total_energy": -771.23552834, 
			 "HOMO_LUMO_gap": 0.21245, 
			 "cosmo_polarized_energy": -15.86, 
			 "cosmo_cavitation_energy": 38.94, 
			 "cosmo_dispersion_energy": -27.28, 
			 "cosmo_repulsion_energy": 2.14, 
			 "cosmo_total_nonelectrostatic_energy": 13.79, 
			 "SMD_solvation_energy": 7.81 
		},
		"coords": [
			{
				"x": -4.1846194739,
				"y": 1.793630295,
				"z": 1.8100412057,
				"element": "C" 
			},
			{
				"x": -2.8179709602,
				"y": 1.8708364792,
				"z": 2.5314445632,
				"element": "C" 
			},
			{
				"x": -2.9428553516,
				"y": 1.2240774707,
				"z": 3.9315520085,
				"element": "C" 
			},
			{
				"x": -2.4602431585,
				"y": 3.3572724531,
				"z": 2.721196722,
				"element": "C" 
			},
			{
				"x": -1.7572536718,
				"y": 1.1170352257,
				"z": 1.7082749273,
				"element": "C" 
			},
			{
				"x": -1.916381605,
				"y": -0.2487309582,
				"z": 1.4340719161,
				"element": "C" 
			},
			{
				"x": -0.9856531443,
				"y": -0.9790867177,
				"z": 0.6931642203,
				"element": "C" 
			},
			{
				"x": 0.1557460097,
				"y": -0.3401296812,
				"z": 0.1959011861,
				"element": "C" 
			},
			{
				"x": 1.1338392667,
				"y": -0.9515983994,
				"z": -0.5400941901,
				"element": "O" 
			},
			{
				"x": 1.0034220499,
				"y": -2.3434327396,
				"z": -0.8323494086,
				"element": "C" 
			},
			{
				"x": 2.2017993289,
				"y": -2.7471490257,
				"z": -1.6830959033,
				"element": "C" 
			},
			{
				"x": 2.266225953,
				"y": -2.0104746257,
				"z": -3.0242813945,
				"element": "C" 
			},
			{
				"x": 1.1964350411,
				"y": -2.4661013647,
				"z": -4.0099392585,
				"element": "C" 
			},
			{
				"x": 1.1313119851,
				"y": -1.7549868808,
				"z": -5.1672328645,
				"element": "O" 
			},
			{
				"x": 0.4478955452,
				"y": -3.3957118797,
				"z": -3.8326224029,
				"element": "O" 
			},
			{
				"x": 0.3392236627,
				"y": 1.0219665284,
				"z": 0.4562059109,
				"element": "C" 
			},
			{
				"x": -0.6019965679,
				"y": 1.7306576407,
				"z": 1.1977717413,
				"element": "C" 
			},
			{
				"x": -4.9534450239,
				"y": 2.3207369491,
				"z": 2.3867903715,
				"element": "H" 
			},
			{
				"x": -4.5175886279,
				"y": 0.7595441708,
				"z": 1.6799526759,
				"element": "H" 
			},
			{
				"x": -4.1293433981,
				"y": 2.2528118446,
				"z": 0.81753112,
				"element": "H" 
			},
			{
				"x": -3.6996733972,
				"y": 1.7453103592,
				"z": 4.5291541751,
				"element": "H" 
			},
			{
				"x": -3.2364011573,
				"y": 0.171918288,
				"z": 3.8682752766,
				"element": "H" 
			},
			{
				"x": -1.9911060001,
				"y": 1.2723929049,
				"z": 4.4708894062,
				"element": "H" 
			},
			{
				"x": -1.5131669618,
				"y": 3.4836100347,
				"z": 3.256288057,
				"element": "H" 
			},
			{
				"x": -3.2395767847,
				"y": 3.8526114455,
				"z": 3.3095553283,
				"element": "H" 
			},
			{
				"x": -2.385409906,
				"y": 3.8838799574,
				"z": 1.7639601943,
				"element": "H" 
			},
			{
				"x": -2.79198848,
				"y": -0.7744801985,
				"z": 1.8043690053,
				"element": "H" 
			},
			{
				"x": -1.1616568849,
				"y": -2.0326242027,
				"z": 0.5107518904,
				"element": "H" 
			},
			{
				"x": 0.9882122065,
				"y": -2.9239207301,
				"z": 0.1004494475,
				"element": "H" 
			},
			{
				"x": 0.0689920134,
				"y": -2.5370642835,
				"z": -1.3727442351,
				"element": "H" 
			},
			{
				"x": 2.1464506416,
				"y": -3.8251147197,
				"z": -1.8627337924,
				"element": "H" 
			},
			{
				"x": 3.1189404959,
				"y": -2.5467718635,
				"z": -1.1192465701,
				"element": "H" 
			},
			{
				"x": 3.243225404,
				"y": -2.1697740846,
				"z": -3.5004825849,
				"element": "H" 
			},
			{
				"x": 2.1700786276,
				"y": -0.9300249602,
				"z": -2.8603147399,
				"element": "H" 
			},
			{
				"x": 1.7791049644,
				"y": -1.0359505941,
				"z": -5.1534822556,
				"element": "H" 
			},
			{
				"x": 1.2283352864,
				"y": 1.5104704996,
				"z": 0.0697407059,
				"element": "H" 
			},
			{
				"x": -0.419707927,
				"y": 2.784465363,
				"z": 1.3755875448,
				"element": "H" 
			}
		],
		 "valence_orbital": [ 
			{
				"type": "occ",
				"energy": -0.30938,
				"method": "rhf"
			},
			{
				"type": "occ",
				"energy": -0.30343,
				"method": "rhf"
			},
			{
				"type": "occ",
				"energy": -0.27378,
				"method": "rhf"
			},
			{
				"type": "occ",
				"energy": -0.2453,
				"method": "rhf"
			},
			{
				"type": "occ",
				"energy": -0.21043,
				"method": "rhf"
			},
			{
				"type": "unocc",
				"energy": 0.00202,
				"method": "rhf"
			},
			{
				"type": "unocc",
				"energy": 0.00799,
				"method": "rhf"
			},
			{
				"type": "unocc",
				"energy": 0.01792,
				"method": "rhf"
			},
			{
				"type": "unocc",
				"energy": 0.05412,
				"method": "rhf"
			},
			{
				"type": "unocc",
				"energy": 0.08247,
				"method": "rhf"
			}
		],
		"cosmo_sigma_profile": { 
			"-0.025": 0.0,
			"-0.024": 0.0,
			"-0.023": 0.0,
			"-0.022": 0.0,
			"-0.021": 0.0,
			"-0.02": 0.0,
			"-0.019": 0.502672948298,
			"-0.018": 1.13952909607,
			"-0.017": 0.958233002594,
			"-0.016": 1.54003805481,
			"-0.015": 0.897425193755,
			"-0.014": 0.58340696783,
			"-0.013": 1.01708948141,
			"-0.012": 1.38393795138,
			"-0.011": 1.19911413095,
			"-0.01": 1.17350993338,
			"-0.009": 1.45976547304,
			"-0.008": 1.49460062831,
			"-0.007": 3.32182428598,
			"-0.006": 5.58476501643,
			"-0.005": 14.5556562031,
			"-0.004": 21.5586312361,
			"-0.003": 30.7937876017,
			"-0.002": 36.2276858533,
			"-0.001": 28.9046178602,
			"0.0": 23.1722010824,
			"0.001": 28.2449571235,
			"0.002": 20.0499200747,
			"0.003": 10.6573753576,
			"0.004": 12.1266159129,
			"0.005": 12.9047114977,
			"0.006": 12.1767950337,
			"0.007": 6.3743537398,
			"0.008": 3.55269766425,
			"0.009": 4.13236945164,
			"0.01": 4.2272529719,
			"0.011": 5.40451040727,
			"0.012": 4.81189450574,
			"0.013": 1.80323988843,
			"0.014": 0.107693842781,
			"0.015": 0.0,
			"0.016": 0.0,
			"0.017": 0.0,
			"0.018": 0.0,
			"0.019": 0.0,
			"0.02": 0.0,
			"0.021": 0.0,
			"0.022": 0.0,
			"0.023": 0.0,
			"0.024": 0.0,
			"0.025": 0.0
		}
	}
}
