{
	 "smiles": "OC(=O)C1=CSC(=N1)C1=CSC=C1", 
	 "Tm": 439.15, 
	 "num_atms": 18, 
	 "gaussian": { 
		 "optdone": 1, 
		 "sigma_profile": "yes", 
		 "theory": "DFT", 
		 "functional": "B3LYP", 
		 "basiset": "6-31G**", 
		 "properties": { 
			 "R2extent": 4210.9302, 
			 "electric_dipole_moment_norm": 5.90331369148, 
			 "electric_quadrupole_moment_norm": 18.3357775998, 
			 "total_energy": -1309.43197756, 
			 "HOMO_LUMO_gap": 0.16861, 
			 "cosmo_polarized_energy": -12.55, 
			 "cosmo_cavitation_energy": 26.76, 
			 "cosmo_dispersion_energy": -20.91, 
			 "cosmo_repulsion_energy": 1.54, 
			 "cosmo_total_nonelectrostatic_energy": 7.39, 
			 "SMD_solvation_energy": 5.1 
		},
		"coords": [
			{
				"x": 1.8065213704,
				"y": 0.7874608644,
				"z": -2.7793698724,
				"element": "O" 
			},
			{
				"x": 1.9830559871,
				"y": -0.548141127,
				"z": -2.8345348071,
				"element": "C" 
			},
			{
				"x": 2.7659579423,
				"y": -1.074714729,
				"z": -3.5905619967,
				"element": "O" 
			},
			{
				"x": 1.1220198313,
				"y": -1.3056737979,
				"z": -1.8777673395,
				"element": "C" 
			},
			{
				"x": 1.1170582703,
				"y": -2.6664235402,
				"z": -1.7444937384,
				"element": "C" 
			},
			{
				"x": -0.0204930473,
				"y": -3.123643348,
				"z": -0.5311639803,
				"element": "S" 
			},
			{
				"x": -0.4201215497,
				"y": -1.4189728119,
				"z": -0.2813526077,
				"element": "C" 
			},
			{
				"x": 0.2615354276,
				"y": -0.6144992609,
				"z": -1.058029419,
				"element": "N" 
			},
			{
				"x": -1.4121125149,
				"y": -0.9929618859,
				"z": 0.6990281558,
				"element": "C" 
			},
			{
				"x": -1.7338076197,
				"y": 0.3311749766,
				"z": 0.9058986754,
				"element": "C" 
			},
			{
				"x": -2.9360141352,
				"y": 0.5179072864,
				"z": 2.1250128766,
				"element": "S" 
			},
			{
				"x": -3.0226503066,
				"y": -1.1980142411,
				"z": 2.3750521746,
				"element": "C" 
			},
			{
				"x": -2.1644627246,
				"y": -1.8689911603,
				"z": 1.5551018822,
				"element": "C" 
			},
			{
				"x": 1.129488899,
				"y": 0.9653766469,
				"z": -2.0998037494,
				"element": "H" 
			},
			{
				"x": 1.7126114152,
				"y": -3.3837264803,
				"z": -2.2893892662,
				"element": "H" 
			},
			{
				"x": -1.3177427856,
				"y": 1.1884817878,
				"z": 0.3976108802,
				"element": "H" 
			},
			{
				"x": -3.7005812569,
				"y": -1.6070149263,
				"z": 3.1107517267,
				"element": "H" 
			},
			{
				"x": -2.0676632022,
				"y": -2.9489242534,
				"z": 1.5567104052,
				"element": "H" 
			}
		],
		 "valence_orbital": [ 
			{
				"type": "occ",
				"energy": -0.30939,
				"method": "rhf"
			},
			{
				"type": "occ",
				"energy": -0.29773,
				"method": "rhf"
			},
			{
				"type": "occ",
				"energy": -0.27137,
				"method": "rhf"
			},
			{
				"type": "occ",
				"energy": -0.2663,
				"method": "rhf"
			},
			{
				"type": "occ",
				"energy": -0.23924,
				"method": "rhf"
			},
			{
				"type": "unocc",
				"energy": -0.07063,
				"method": "rhf"
			},
			{
				"type": "unocc",
				"energy": -0.04193,
				"method": "rhf"
			},
			{
				"type": "unocc",
				"energy": -0.01249,
				"method": "rhf"
			},
			{
				"type": "unocc",
				"energy": -0.00834,
				"method": "rhf"
			},
			{
				"type": "unocc",
				"energy": 0.01838,
				"method": "rhf"
			}
		],
		"cosmo_sigma_profile": { 
			"-0.025": 0.0,
			"-0.024": 0.0,
			"-0.023": 0.0,
			"-0.022": 0.0,
			"-0.021": 0.0,
			"-0.02": 0.0,
			"-0.019": 0.0,
			"-0.018": 0.0,
			"-0.017": 0.0,
			"-0.016": 0.0,
			"-0.015": 0.0,
			"-0.014": 0.177608046773,
			"-0.013": 0.286497325278,
			"-0.012": 0.953990522019,
			"-0.011": 1.06860705895,
			"-0.01": 2.4649505558,
			"-0.009": 5.28905649551,
			"-0.008": 7.35560335096,
			"-0.007": 7.67730156552,
			"-0.006": 9.59790623316,
			"-0.005": 9.04689022566,
			"-0.004": 9.28985492697,
			"-0.003": 12.3749665393,
			"-0.002": 15.4367148375,
			"-0.001": 17.5725398366,
			"0.0": 23.5335237894,
			"0.001": 19.7524285611,
			"0.002": 20.69979226,
			"0.003": 18.9653717047,
			"0.004": 7.57131224019,
			"0.005": 3.94869684336,
			"0.006": 2.48293180577,
			"0.007": 2.54190350523,
			"0.008": 2.91994212086,
			"0.009": 3.58250946509,
			"0.01": 5.09323993752,
			"0.011": 4.98803153819,
			"0.012": 4.72749229673,
			"0.013": 1.42822706373,
			"0.014": 0.0471998692579,
			"0.015": 0.0,
			"0.016": 0.0,
			"0.017": 0.0,
			"0.018": 0.0,
			"0.019": 0.0,
			"0.02": 0.0,
			"0.021": 0.0,
			"0.022": 0.0,
			"0.023": 0.0,
			"0.024": 0.0,
			"0.025": 0.0
		}
	}
}
