{
	 "smiles": "O=C1CC(C(=O)O1)=P(C1=CC=CC=C1)(C1=CC=CC=C1)C1=CC=CC=C1", 
	 "Tm": 440.15, 
	 "num_atms": 43, 
	 "gaussian": { 
		 "optdone": 1, 
		 "sigma_profile": "yes", 
		 "theory": "DFT", 
		 "functional": "B3LYP", 
		 "basiset": "6-31G**", 
		 "properties": { 
			 "R2extent": 8818.4364, 
			 "electric_dipole_moment_norm": 10.4985107996, 
			 "electric_quadrupole_moment_norm": 39.6213372827, 
			 "total_energy": -1415.59959607, 
			 "HOMO_LUMO_gap": 0.14773, 
			 "cosmo_polarized_energy": -23.54, 
			 "cosmo_cavitation_energy": 47.85, 
			 "cosmo_dispersion_energy": -31.59, 
			 "cosmo_repulsion_energy": 2.39, 
			 "cosmo_total_nonelectrostatic_energy": 18.65, 
			 "SMD_solvation_energy": 10.11 
		},
		"coords": [
			{
				"x": 3.0790497,
				"y": -2.2262853932,
				"z": 4.2695337214,
				"element": "O" 
			},
			{
				"x": 2.3761795187,
				"y": -1.548720753,
				"z": 3.5655282798,
				"element": "C" 
			},
			{
				"x": 2.2927606462,
				"y": -1.5698571701,
				"z": 2.0384636165,
				"element": "C" 
			},
			{
				"x": 1.2325601232,
				"y": -0.5302274609,
				"z": 1.7729847677,
				"element": "C" 
			},
			{
				"x": 0.8056389854,
				"y": 0.0354934193,
				"z": 3.0009191817,
				"element": "C" 
			},
			{
				"x": -0.0032195544,
				"y": 0.9058826429,
				"z": 3.279552515,
				"element": "O" 
			},
			{
				"x": 1.51279206,
				"y": -0.6136697764,
				"z": 4.0642716462,
				"element": "O" 
			},
			{
				"x": 0.5412921785,
				"y": -0.0457283355,
				"z": 0.2712470106,
				"element": "P" 
			},
			{
				"x": -1.2802212506,
				"y": -0.2407809894,
				"z": 0.2192425969,
				"element": "C" 
			},
			{
				"x": -2.060499951,
				"y": 0.4510599042,
				"z": -0.7202228644,
				"element": "C" 
			},
			{
				"x": -3.4399253799,
				"y": 0.2524223812,
				"z": -0.763201168,
				"element": "C" 
			},
			{
				"x": -4.0491239328,
				"y": -0.626717009,
				"z": 0.1355422496,
				"element": "C" 
			},
			{
				"x": -3.27786798,
				"y": -1.3085456901,
				"z": 1.0782408102,
				"element": "C" 
			},
			{
				"x": -1.8966182989,
				"y": -1.1177978168,
				"z": 1.1217419089,
				"element": "C" 
			},
			{
				"x": 0.8526735813,
				"y": 1.6893693469,
				"z": -0.2441928501,
				"element": "C" 
			},
			{
				"x": 1.1635948832,
				"y": 2.0227585238,
				"z": -1.5718809332,
				"element": "C" 
			},
			{
				"x": 1.3836041624,
				"y": 3.3552680903,
				"z": -1.9265531148,
				"element": "C" 
			},
			{
				"x": 1.2945666133,
				"y": 4.3594659126,
				"z": -0.961902777,
				"element": "C" 
			},
			{
				"x": 0.9823049984,
				"y": 4.0313288956,
				"z": 0.3596277349,
				"element": "C" 
			},
			{
				"x": 0.760077585,
				"y": 2.7041106548,
				"z": 0.725247602,
				"element": "C" 
			},
			{
				"x": 1.2571420225,
				"y": -1.112545427,
				"z": -1.0273749895,
				"element": "C" 
			},
			{
				"x": 2.6297557265,
				"y": -1.0170809029,
				"z": -1.3142212127,
				"element": "C" 
			},
			{
				"x": 3.2066095427,
				"y": -1.8550161708,
				"z": -2.2668174212,
				"element": "C" 
			},
			{
				"x": 2.4215046148,
				"y": -2.7941411489,
				"z": -2.9409883742,
				"element": "C" 
			},
			{
				"x": 1.0585465201,
				"y": -2.8924631683,
				"z": -2.6612845322,
				"element": "C" 
			},
			{
				"x": 0.4750259597,
				"y": -2.0550233242,
				"z": -1.70813761,
				"element": "C" 
			},
			{
				"x": 2.0542207343,
				"y": -2.5919624706,
				"z": 1.718482849,
				"element": "H" 
			},
			{
				"x": 3.2941456325,
				"y": -1.3471564215,
				"z": 1.6467490205,
				"element": "H" 
			},
			{
				"x": -1.5956791906,
				"y": 1.1506164869,
				"z": -1.4078212718,
				"element": "H" 
			},
			{
				"x": -4.0395482334,
				"y": 0.7911666682,
				"z": -1.4909205401,
				"element": "H" 
			},
			{
				"x": -5.1249602762,
				"y": -0.7732256816,
				"z": 0.1056912315,
				"element": "H" 
			},
			{
				"x": -3.7505331537,
				"y": -1.9818957223,
				"z": 1.7868343286,
				"element": "H" 
			},
			{
				"x": -1.292697573,
				"y": -1.6334397566,
				"z": 1.8610957039,
				"element": "H" 
			},
			{
				"x": 1.2426158123,
				"y": 1.2488878488,
				"z": -2.3284938611,
				"element": "H" 
			},
			{
				"x": 1.6270740853,
				"y": 3.6048894195,
				"z": -2.9552334753,
				"element": "H" 
			},
			{
				"x": 1.4686174009,
				"y": 5.3953070026,
				"z": -1.2388248523,
				"element": "H" 
			},
			{
				"x": 0.9113179036,
				"y": 4.8109237208,
				"z": 1.1122776309,
				"element": "H" 
			},
			{
				"x": 0.5072379627,
				"y": 2.4494290699,
				"z": 1.7506298717,
				"element": "H" 
			},
			{
				"x": 3.2448578954,
				"y": -0.2859548292,
				"z": -0.7982479828,
				"element": "H" 
			},
			{
				"x": 4.2678955959,
				"y": -1.7751990541,
				"z": -2.4819872906,
				"element": "H" 
			},
			{
				"x": 2.8730319522,
				"y": -3.446736813,
				"z": -3.6823809941,
				"element": "H" 
			},
			{
				"x": 0.4453845611,
				"y": -3.621036348,
				"z": -3.1830668937,
				"element": "H" 
			},
			{
				"x": -0.5851841836,
				"y": -2.1376723551,
				"z": -1.4943492687,
				"element": "H" 
			}
		],
		 "valence_orbital": [ 
			{
				"type": "occ",
				"energy": -0.26853,
				"method": "rhf"
			},
			{
				"type": "occ",
				"energy": -0.26534,
				"method": "rhf"
			},
			{
				"type": "occ",
				"energy": -0.26286,
				"method": "rhf"
			},
			{
				"type": "occ",
				"energy": -0.23895,
				"method": "rhf"
			},
			{
				"type": "occ",
				"energy": -0.19602,
				"method": "rhf"
			},
			{
				"type": "unocc",
				"energy": -0.04829,
				"method": "rhf"
			},
			{
				"type": "unocc",
				"energy": -0.04453,
				"method": "rhf"
			},
			{
				"type": "unocc",
				"energy": -0.03541,
				"method": "rhf"
			},
			{
				"type": "unocc",
				"energy": -0.03381,
				"method": "rhf"
			},
			{
				"type": "unocc",
				"energy": -0.01849,
				"method": "rhf"
			}
		],
		"cosmo_sigma_profile": { 
			"-0.025": 0.0,
			"-0.024": 0.0,
			"-0.023": 0.0,
			"-0.022": 0.0,
			"-0.021": 0.0,
			"-0.02": 0.0,
			"-0.019": 0.0,
			"-0.018": 0.0,
			"-0.017": 0.0,
			"-0.016": 0.0,
			"-0.015": 0.0,
			"-0.014": 0.0,
			"-0.013": 0.0,
			"-0.012": 0.0,
			"-0.011": 0.0,
			"-0.01": 0.0,
			"-0.009": 0.0,
			"-0.008": 0.132373483898,
			"-0.007": 10.1755251032,
			"-0.006": 34.5192599053,
			"-0.005": 38.4188410769,
			"-0.004": 35.7515899442,
			"-0.003": 28.8941816908,
			"-0.002": 27.3446269536,
			"-0.001": 23.1452882589,
			"0.0": 23.799817578,
			"0.001": 25.3690368923,
			"0.002": 28.0508499857,
			"0.003": 31.0218246652,
			"0.004": 23.7110353155,
			"0.005": 4.85404091794,
			"0.006": 3.96704817235,
			"0.007": 3.77674869084,
			"0.008": 5.19391887938,
			"0.009": 5.67773746661,
			"0.01": 7.30214976632,
			"0.011": 7.47330248045,
			"0.012": 7.17167197373,
			"0.013": 3.83720651681,
			"0.014": 3.11704128645,
			"0.015": 0.688778897682,
			"0.016": 0.0,
			"0.017": 0.0,
			"0.018": 0.0,
			"0.019": 0.0,
			"0.02": 0.0,
			"0.021": 0.0,
			"0.022": 0.0,
			"0.023": 0.0,
			"0.024": 0.0,
			"0.025": 0.0
		}
	}
}
