{
	 "smiles": "NC(=S)CC1=CC=C(Cl)C=C1", 
	 "Tm": 403.15, 
	 "num_atms": 19, 
	 "gaussian": { 
		 "optdone": 1, 
		 "sigma_profile": "yes", 
		 "theory": "DFT", 
		 "functional": "B3LYP", 
		 "basiset": "6-31G**", 
		 "properties": { 
			 "R2extent": 3720.4307, 
			 "electric_dipole_moment_norm": 3.31464519217, 
			 "electric_quadrupole_moment_norm": 21.0171215427, 
			 "total_energy": -1222.81675153, 
			 "HOMO_LUMO_gap": 0.17203, 
			 "cosmo_polarized_energy": -15.41, 
			 "cosmo_cavitation_energy": 26.74, 
			 "cosmo_dispersion_energy": -19.82, 
			 "cosmo_repulsion_energy": 1.57, 
			 "cosmo_total_nonelectrostatic_energy": 8.49, 
			 "SMD_solvation_energy": 3.15 
		},
		"coords": [
			{
				"x": 1.5794283565,
				"y": 1.9437707951,
				"z": 1.1472917705,
				"element": "N" 
			},
			{
				"x": 1.6295547267,
				"y": 1.843732051,
				"z": -0.191159652,
				"element": "C" 
			},
			{
				"x": 2.9959003555,
				"y": 2.1929493386,
				"z": -1.0737097095,
				"element": "S" 
			},
			{
				"x": 0.3166241218,
				"y": 1.4370452793,
				"z": -0.8716465309,
				"element": "C" 
			},
			{
				"x": -0.6909999814,
				"y": 0.709707861,
				"z": -0.0062257189,
				"element": "C" 
			},
			{
				"x": -1.7364219545,
				"y": 1.3982220969,
				"z": 0.6254385032,
				"element": "C" 
			},
			{
				"x": -2.6569891159,
				"y": 0.7336024263,
				"z": 1.438255428,
				"element": "C" 
			},
			{
				"x": -2.528762931,
				"y": -0.6418872432,
				"z": 1.6213203748,
				"element": "C" 
			},
			{
				"x": -3.6813309079,
				"y": -1.4912337821,
				"z": 2.6386053269,
				"element": "Cl" 
			},
			{
				"x": -1.4994673519,
				"y": -1.3553978252,
				"z": 1.0052816161,
				"element": "C" 
			},
			{
				"x": -0.589297936,
				"y": -0.6747798423,
				"z": 0.1988861155,
				"element": "C" 
			},
			{
				"x": 2.4106804945,
				"y": 2.2251327903,
				"z": 1.6463494597,
				"element": "H" 
			},
			{
				"x": 0.7528050032,
				"y": 1.6809148161,
				"z": 1.6659825082,
				"element": "H" 
			},
			{
				"x": -0.1239091748,
				"y": 2.3617720627,
				"z": -1.2634526487,
				"element": "H" 
			},
			{
				"x": 0.5859481321,
				"y": 0.838153366,
				"z": -1.7440730818,
				"element": "H" 
			},
			{
				"x": -1.8438818403,
				"y": 2.4692103637,
				"z": 0.4721468292,
				"element": "H" 
			},
			{
				"x": -3.4665045711,
				"y": 1.2737711286,
				"z": 1.9165990017,
				"element": "H" 
			},
			{
				"x": -1.4164027759,
				"y": -2.4263633386,
				"z": 1.1538278423,
				"element": "H" 
			},
			{
				"x": 0.2113273504,
				"y": -1.2300223441,
				"z": -0.2826174343,
				"element": "H" 
			}
		],
		 "valence_orbital": [ 
			{
				"type": "occ",
				"energy": -0.32309,
				"method": "rhf"
			},
			{
				"type": "occ",
				"energy": -0.27964,
				"method": "rhf"
			},
			{
				"type": "occ",
				"energy": -0.25953,
				"method": "rhf"
			},
			{
				"type": "occ",
				"energy": -0.2315,
				"method": "rhf"
			},
			{
				"type": "occ",
				"energy": -0.20768,
				"method": "rhf"
			},
			{
				"type": "unocc",
				"energy": -0.03565,
				"method": "rhf"
			},
			{
				"type": "unocc",
				"energy": -0.03228,
				"method": "rhf"
			},
			{
				"type": "unocc",
				"energy": -0.0262,
				"method": "rhf"
			},
			{
				"type": "unocc",
				"energy": 0.01839,
				"method": "rhf"
			},
			{
				"type": "unocc",
				"energy": 0.07328,
				"method": "rhf"
			}
		],
		"cosmo_sigma_profile": { 
			"-0.025": 0.0,
			"-0.024": 0.0,
			"-0.023": 0.0,
			"-0.022": 0.0,
			"-0.021": 0.0,
			"-0.02": 0.0,
			"-0.019": 0.0,
			"-0.018": 0.0,
			"-0.017": 0.0,
			"-0.016": 0.0329949158162,
			"-0.015": 0.931913255494,
			"-0.014": 1.9013936632,
			"-0.013": 1.81709982065,
			"-0.012": 1.63635365257,
			"-0.011": 2.37037494952,
			"-0.01": 2.07054696787,
			"-0.009": 0.945068930659,
			"-0.008": 2.61616276455,
			"-0.007": 12.2376250316,
			"-0.006": 16.2599720605,
			"-0.005": 12.5534762032,
			"-0.004": 10.4022964908,
			"-0.003": 11.0236569326,
			"-0.002": 11.116872136,
			"-0.001": 10.7374924328,
			"0.0": 12.8007135171,
			"0.001": 14.8494893706,
			"0.002": 18.4070916222,
			"0.003": 16.6225820648,
			"0.004": 13.9417988427,
			"0.005": 9.83378940407,
			"0.006": 4.2962653005,
			"0.007": 2.93352255504,
			"0.008": 4.89484244199,
			"0.009": 6.93741822831,
			"0.01": 5.47599590547,
			"0.011": 4.3677753903,
			"0.012": 3.46475492496,
			"0.013": 0.877039623091,
			"0.014": 0.0,
			"0.015": 0.0,
			"0.016": 0.0,
			"0.017": 0.0,
			"0.018": 0.0,
			"0.019": 0.0,
			"0.02": 0.0,
			"0.021": 0.0,
			"0.022": 0.0,
			"0.023": 0.0,
			"0.024": 0.0,
			"0.025": 0.0
		}
	}
}
