{
	 "smiles": "CC(C)(C)C1=CC(C=O)=CC(=C1O)C(C)(C)C", 
	 "Tm": 460.15, 
	 "num_atms": 39, 
	 "gaussian": { 
		 "optdone": 1, 
		 "sigma_profile": "yes", 
		 "theory": "DFT", 
		 "functional": "B3LYP", 
		 "basiset": "6-31G**", 
		 "properties": { 
			 "R2extent": 4653.4348, 
			 "electric_dipole_moment_norm": 5.18046111751, 
			 "electric_quadrupole_moment_norm": 15.9027259434, 
			 "total_energy": -735.315652986, 
			 "HOMO_LUMO_gap": 0.17977, 
			 "cosmo_polarized_energy": -10.51, 
			 "cosmo_cavitation_energy": 38.05, 
			 "cosmo_dispersion_energy": -26.21, 
			 "cosmo_repulsion_energy": 2.01, 
			 "cosmo_total_nonelectrostatic_energy": 13.85, 
			 "SMD_solvation_energy": 7.95 
		},
		"coords": [
			{
				"x": 3.3707110133,
				"y": 0.454861386,
				"z": -0.7896596307,
				"element": "C" 
			},
			{
				"x": 2.1700624592,
				"y": 0.9989016643,
				"z": 0.0127183579,
				"element": "C" 
			},
			{
				"x": 2.5314542395,
				"y": 0.8801315932,
				"z": 1.5144884784,
				"element": "C" 
			},
			{
				"x": 1.9945944779,
				"y": 2.4875044176,
				"z": -0.3787549724,
				"element": "C" 
			},
			{
				"x": 0.8797814274,
				"y": 0.2045059619,
				"z": -0.2958081132,
				"element": "C" 
			},
			{
				"x": 0.882088351,
				"y": -0.8554925091,
				"z": -1.1965861701,
				"element": "C" 
			},
			{
				"x": -0.2783725542,
				"y": -1.5837172064,
				"z": -1.4859228392,
				"element": "C" 
			},
			{
				"x": -0.2385018498,
				"y": -2.7000429341,
				"z": -2.4456333549,
				"element": "C" 
			},
			{
				"x": 0.7545050388,
				"y": -3.0740625673,
				"z": -3.0452356213,
				"element": "O" 
			},
			{
				"x": -1.4786848398,
				"y": -1.2466948979,
				"z": -0.8592908938,
				"element": "C" 
			},
			{
				"x": -1.5632973395,
				"y": -0.1957958927,
				"z": 0.0570015284,
				"element": "C" 
			},
			{
				"x": -0.3637433299,
				"y": 0.5165611956,
				"z": 0.3217069198,
				"element": "C" 
			},
			{
				"x": -0.3409680158,
				"y": 1.5626003384,
				"z": 1.2033176845,
				"element": "O" 
			},
			{
				"x": -2.9080045414,
				"y": 0.1604125689,
				"z": 0.7402585254,
				"element": "C" 
			},
			{
				"x": -2.8104830645,
				"y": -0.0185950594,
				"z": 2.2802530513,
				"element": "C" 
			},
			{
				"x": -4.0486681973,
				"y": -0.7694261717,
				"z": 0.2737134721,
				"element": "C" 
			},
			{
				"x": -3.3511859354,
				"y": 1.6026082141,
				"z": 0.370465751,
				"element": "C" 
			},
			{
				"x": 4.2604261748,
				"y": 1.0427993168,
				"z": -0.5431202104,
				"element": "H" 
			},
			{
				"x": 3.5901651542,
				"y": -0.5901213922,
				"z": -0.5481258665,
				"element": "H" 
			},
			{
				"x": 3.2149850065,
				"y": 0.5321405615,
				"z": -1.8705258137,
				"element": "H" 
			},
			{
				"x": 3.4620413446,
				"y": 1.4230916588,
				"z": 1.7151728007,
				"element": "H" 
			},
			{
				"x": 2.6900681086,
				"y": -0.1678890297,
				"z": 1.791078979,
				"element": "H" 
			},
			{
				"x": 1.7522787393,
				"y": 1.2912671369,
				"z": 2.1566537686,
				"element": "H" 
			},
			{
				"x": 2.9239152808,
				"y": 3.0338982787,
				"z": -0.1815854476,
				"element": "H" 
			},
			{
				"x": 1.7722741317,
				"y": 2.5814286152,
				"z": -1.4472855918,
				"element": "H" 
			},
			{
				"x": 1.1923987658,
				"y": 2.9665199298,
				"z": 0.1829728946,
				"element": "H" 
			},
			{
				"x": 1.7873530817,
				"y": -1.1556534923,
				"z": -1.7083761503,
				"element": "H" 
			},
			{
				"x": -1.2183762104,
				"y": -3.2085605635,
				"z": -2.5994881848,
				"element": "H" 
			},
			{
				"x": -2.3605450072,
				"y": -1.8284563469,
				"z": -1.1031679137,
				"element": "H" 
			},
			{
				"x": -1.2197380347,
				"y": 1.7029756106,
				"z": 1.5695816144,
				"element": "H" 
			},
			{
				"x": -3.766555766,
				"y": 0.2351849494,
				"z": 2.7503121324,
				"element": "H" 
			},
			{
				"x": -2.5776885322,
				"y": -1.0596347825,
				"z": 2.523746244,
				"element": "H" 
			},
			{
				"x": -2.0407640735,
				"y": 0.5919721321,
				"z": 2.762895253,
				"element": "H" 
			},
			{
				"x": -4.2242956524,
				"y": -0.6933764147,
				"z": -0.8036201735,
				"element": "H" 
			},
			{
				"x": -4.9764983048,
				"y": -0.4838490971,
				"z": 0.7791480591,
				"element": "H" 
			},
			{
				"x": -3.8495238691,
				"y": -1.816990331,
				"z": 0.5191902008,
				"element": "H" 
			},
			{
				"x": -3.4940971773,
				"y": 1.6862704666,
				"z": -0.7111224785,
				"element": "H" 
			},
			{
				"x": -4.30190476,
				"y": 1.8415525125,
				"z": 0.8588106236,
				"element": "H" 
			},
			{
				"x": -2.6385057397,
				"y": 2.3850701795,
				"z": 0.6499230876,
				"element": "H" 
			}
		],
		 "valence_orbital": [ 
			{
				"type": "occ",
				"energy": -0.31896,
				"method": "rhf"
			},
			{
				"type": "occ",
				"energy": -0.30905,
				"method": "rhf"
			},
			{
				"type": "occ",
				"energy": -0.25039,
				"method": "rhf"
			},
			{
				"type": "occ",
				"energy": -0.24263,
				"method": "rhf"
			},
			{
				"type": "occ",
				"energy": -0.22701,
				"method": "rhf"
			},
			{
				"type": "unocc",
				"energy": -0.04724,
				"method": "rhf"
			},
			{
				"type": "unocc",
				"energy": -0.00598,
				"method": "rhf"
			},
			{
				"type": "unocc",
				"energy": 0.04873,
				"method": "rhf"
			},
			{
				"type": "unocc",
				"energy": 0.0524,
				"method": "rhf"
			},
			{
				"type": "unocc",
				"energy": 0.08994,
				"method": "rhf"
			}
		],
		"cosmo_sigma_profile": { 
			"-0.025": 0.0,
			"-0.024": 0.0,
			"-0.023": 0.0,
			"-0.022": 0.0,
			"-0.021": 0.0,
			"-0.02": 0.0,
			"-0.019": 0.0,
			"-0.018": 0.0,
			"-0.017": 0.0,
			"-0.016": 0.0,
			"-0.015": 0.327814824603,
			"-0.014": 0.557149340385,
			"-0.013": 0.747858165199,
			"-0.012": 0.459363206167,
			"-0.011": 0.851557454787,
			"-0.01": 0.764221395557,
			"-0.009": 0.678127411986,
			"-0.008": 1.12868223324,
			"-0.007": 1.7948318012,
			"-0.006": 4.95814494661,
			"-0.005": 6.958521187,
			"-0.004": 14.4804620972,
			"-0.003": 34.0206153236,
			"-0.002": 38.898467443,
			"-0.001": 35.6478523544,
			"0.0": 38.9980636208,
			"0.001": 37.0850536007,
			"0.002": 25.7606295061,
			"0.003": 15.386628956,
			"0.004": 12.8559526564,
			"0.005": 3.61165425093,
			"0.006": 3.14734314646,
			"0.007": 1.35917834694,
			"0.008": 1.42377672634,
			"0.009": 2.12799166869,
			"0.01": 2.13293650933,
			"0.011": 2.86597154816,
			"0.012": 4.54840722326,
			"0.013": 2.51519628383,
			"0.014": 0.468884365221,
			"0.015": 0.0,
			"0.016": 0.0,
			"0.017": 0.0,
			"0.018": 0.0,
			"0.019": 0.0,
			"0.02": 0.0,
			"0.021": 0.0,
			"0.022": 0.0,
			"0.023": 0.0,
			"0.024": 0.0,
			"0.025": 0.0
		}
	}
}
