{
	 "smiles": "CCOC(=O)CN1CCN(CC1)S(=O)(=O)C1=CC=CC=C1", 
	 "Tm": 349.15, 
	 "num_atms": 41, 
	 "gaussian": { 
		 "optdone": 1, 
		 "sigma_profile": "yes", 
		 "theory": "DFT", 
		 "functional": "B3LYP", 
		 "basiset": "6-31G**", 
		 "properties": { 
			 "R2extent": 10525.7259, 
			 "electric_dipole_moment_norm": 4.98502774516, 
			 "electric_quadrupole_moment_norm": 31.1131542991, 
			 "total_energy": -1354.04737161, 
			 "HOMO_LUMO_gap": 0.18075, 
			 "cosmo_polarized_energy": -18.27, 
			 "cosmo_cavitation_energy": 44.6, 
			 "cosmo_dispersion_energy": -31.56, 
			 "cosmo_repulsion_energy": 2.41, 
			 "cosmo_total_nonelectrostatic_energy": 15.45, 
			 "SMD_solvation_energy": 4.37 
		},
		"coords": [
			{
				"x": 2.0349368423,
				"y": -4.67939164,
				"z": -5.0885972377,
				"element": "C" 
			},
			{
				"x": 0.9702962488,
				"y": -3.6676070798,
				"z": -4.7110115459,
				"element": "C" 
			},
			{
				"x": 1.5540951007,
				"y": -2.7626996919,
				"z": -3.7416660613,
				"element": "O" 
			},
			{
				"x": 0.7499371317,
				"y": -1.7818770137,
				"z": -3.2939214476,
				"element": "C" 
			},
			{
				"x": -0.3924465066,
				"y": -1.6186291517,
				"z": -3.6732516749,
				"element": "O" 
			},
			{
				"x": 1.4481200567,
				"y": -0.918100345,
				"z": -2.2498233029,
				"element": "C" 
			},
			{
				"x": 0.9330951612,
				"y": -1.2018621693,
				"z": -0.9119519466,
				"element": "N" 
			},
			{
				"x": -0.4445884316,
				"y": -0.7317744255,
				"z": -0.6628238875,
				"element": "C" 
			},
			{
				"x": -0.4958478644,
				"y": 0.5874801742,
				"z": 0.1142533313,
				"element": "C" 
			},
			{
				"x": 0.2233585743,
				"y": 0.4602639372,
				"z": 1.4065074505,
				"element": "N" 
			},
			{
				"x": 1.1965835923,
				"y": -0.6550325189,
				"z": 1.4796989381,
				"element": "C" 
			},
			{
				"x": 1.8827150526,
				"y": -0.7712836135,
				"z": 0.1237985336,
				"element": "C" 
			},
			{
				"x": -0.6802234526,
				"y": 0.7259587581,
				"z": 2.8077489448,
				"element": "S" 
			},
			{
				"x": 0.1892002334,
				"y": 0.3215187351,
				"z": 3.9177530241,
				"element": "O" 
			},
			{
				"x": -2.0374044798,
				"y": 0.1713427215,
				"z": 2.6855407098,
				"element": "O" 
			},
			{
				"x": -0.8435349752,
				"y": 2.5154746647,
				"z": 2.8076466201,
				"element": "C" 
			},
			{
				"x": 0.2978459753,
				"y": 3.3055936776,
				"z": 2.9712078378,
				"element": "C" 
			},
			{
				"x": 0.160836653,
				"y": 4.6914365985,
				"z": 3.0056413042,
				"element": "C" 
			},
			{
				"x": -1.1044636518,
				"y": 5.2749653791,
				"z": 2.8824334952,
				"element": "C" 
			},
			{
				"x": -2.2368056515,
				"y": 4.4743463331,
				"z": 2.7281574755,
				"element": "C" 
			},
			{
				"x": -2.112061967,
				"y": 3.0835143135,
				"z": 2.6925139902,
				"element": "C" 
			},
			{
				"x": 2.9056070436,
				"y": -4.1858857194,
				"z": -5.5299939097,
				"element": "H" 
			},
			{
				"x": 2.3659848902,
				"y": -5.244214391,
				"z": -4.2125105635,
				"element": "H" 
			},
			{
				"x": 1.6316755883,
				"y": -5.385407846,
				"z": -5.8211588473,
				"element": "H" 
			},
			{
				"x": 0.6274164109,
				"y": -3.085954095,
				"z": -5.5723936443,
				"element": "H" 
			},
			{
				"x": 0.0912680534,
				"y": -4.1403115615,
				"z": -4.2621130465,
				"element": "H" 
			},
			{
				"x": 1.3280827639,
				"y": 0.1393297925,
				"z": -2.5511535689,
				"element": "H" 
			},
			{
				"x": 2.5151201839,
				"y": -1.1521932536,
				"z": -2.2627322635,
				"element": "H" 
			},
			{
				"x": -0.9896701498,
				"y": -1.492745949,
				"z": -0.091657543,
				"element": "H" 
			},
			{
				"x": -0.9602610607,
				"y": -0.6248004934,
				"z": -1.6192079627,
				"element": "H" 
			},
			{
				"x": -0.0394684573,
				"y": 1.4000064296,
				"z": -0.464887284,
				"element": "H" 
			},
			{
				"x": -1.5388179654,
				"y": 0.8557123588,
				"z": 0.2995104054,
				"element": "H" 
			},
			{
				"x": 1.9271696242,
				"y": -0.4295315149,
				"z": 2.257461644,
				"element": "H" 
			},
			{
				"x": 0.7199321749,
				"y": -1.6111464687,
				"z": 1.7344342829,
				"element": "H" 
			},
			{
				"x": 2.6977910571,
				"y": -1.5023261612,
				"z": 0.1938736253,
				"element": "H" 
			},
			{
				"x": 2.3424246687,
				"y": 0.2064219805,
				"z": -0.1130128875,
				"element": "H" 
			},
			{
				"x": 1.2715019334,
				"y": 2.8384900602,
				"z": 3.0724544612,
				"element": "H" 
			},
			{
				"x": 1.0392561119,
				"y": 5.3171197752,
				"z": 3.1320107715,
				"element": "H" 
			},
			{
				"x": -1.2055032955,
				"y": 6.3560015465,
				"z": 2.9105813517,
				"element": "H" 
			},
			{
				"x": -3.2188373902,
				"y": 4.9288844368,
				"z": 2.6387046169,
				"element": "H" 
			},
			{
				"x": -2.9770158274,
				"y": 2.4386134304,
				"z": 2.5842358112,
				"element": "H" 
			}
		],
		 "valence_orbital": [ 
			{
				"type": "occ",
				"energy": -0.27515,
				"method": "rhf"
			},
			{
				"type": "occ",
				"energy": -0.274,
				"method": "rhf"
			},
			{
				"type": "occ",
				"energy": -0.26857,
				"method": "rhf"
			},
			{
				"type": "occ",
				"energy": -0.24282,
				"method": "rhf"
			},
			{
				"type": "occ",
				"energy": -0.2173,
				"method": "rhf"
			},
			{
				"type": "unocc",
				"energy": -0.03655,
				"method": "rhf"
			},
			{
				"type": "unocc",
				"energy": -0.01849,
				"method": "rhf"
			},
			{
				"type": "unocc",
				"energy": 0.0024,
				"method": "rhf"
			},
			{
				"type": "unocc",
				"energy": 0.05908,
				"method": "rhf"
			},
			{
				"type": "unocc",
				"energy": 0.08013,
				"method": "rhf"
			}
		],
		"cosmo_sigma_profile": { 
			"-0.025": 0.0,
			"-0.024": 0.0,
			"-0.023": 0.0,
			"-0.022": 0.0,
			"-0.021": 0.0,
			"-0.02": 0.0,
			"-0.019": 0.0,
			"-0.018": 0.0,
			"-0.017": 0.0,
			"-0.016": 0.0,
			"-0.015": 0.0,
			"-0.014": 0.0,
			"-0.013": 0.0,
			"-0.012": 0.0,
			"-0.011": 0.0,
			"-0.01": 0.0,
			"-0.009": 0.0,
			"-0.008": 0.243820870298,
			"-0.007": 6.39744391418,
			"-0.006": 13.6548507411,
			"-0.005": 36.566070684,
			"-0.004": 45.4612830352,
			"-0.003": 41.4720224919,
			"-0.002": 32.2058591815,
			"-0.001": 22.2267444796,
			"0.0": 23.9236430989,
			"0.001": 16.9034335537,
			"0.002": 18.060398548,
			"0.003": 21.183003376,
			"0.004": 12.0480310369,
			"0.005": 6.58491836023,
			"0.006": 6.96187277332,
			"0.007": 6.12814020629,
			"0.008": 6.50656950642,
			"0.009": 5.4783782636,
			"0.01": 7.38902112614,
			"0.011": 12.0025093688,
			"0.012": 8.90244645702,
			"0.013": 0.595322191416,
			"0.014": 0.141306346748,
			"0.015": 0.0,
			"0.016": 0.0,
			"0.017": 0.0,
			"0.018": 0.0,
			"0.019": 0.0,
			"0.02": 0.0,
			"0.021": 0.0,
			"0.022": 0.0,
			"0.023": 0.0,
			"0.024": 0.0,
			"0.025": 0.0
		}
	}
}
