{
	 "smiles": "CC1=C(C=CC=C1Br)S(Cl)(=O)=O", 
	 "Tm": 338.15, 
	 "num_atms": 18, 
	 "gaussian": { 
		 "optdone": 1, 
		 "sigma_profile": "yes", 
		 "theory": "DFT", 
		 "functional": "B3LYP", 
		 "basiset": "6-31G**", 
		 "properties": { 
			 "R2extent": 5624.6527, 
			 "electric_dipole_moment_norm": 4.17035478227, 
			 "electric_quadrupole_moment_norm": 16.4870983163, 
			 "total_energy": -3850.52452582, 
			 "HOMO_LUMO_gap": 0.17446, 
			 "cosmo_polarized_energy": -7.63, 
			 "cosmo_cavitation_energy": 26.98, 
			 "cosmo_dispersion_energy": -20.88, 
			 "cosmo_repulsion_energy": 1.6, 
			 "cosmo_total_nonelectrostatic_energy": 7.7, 
			 "SMD_solvation_energy": 2.4 
		},
		"coords": [
			{
				"x": 1.6784996001,
				"y": 2.2608966705,
				"z": 1.721096896,
				"element": "C" 
			},
			{
				"x": 0.9458184545,
				"y": 0.9430053415,
				"z": 1.7070637005,
				"element": "C" 
			},
			{
				"x": 1.5262285337,
				"y": -0.2600376218,
				"z": 1.2484281311,
				"element": "C" 
			},
			{
				"x": 0.857393197,
				"y": -1.4847145095,
				"z": 1.2138013177,
				"element": "C" 
			},
			{
				"x": -0.4569204569,
				"y": -1.546818903,
				"z": 1.6661320424,
				"element": "C" 
			},
			{
				"x": -1.0733040781,
				"y": -0.3949281224,
				"z": 2.1439303254,
				"element": "C" 
			},
			{
				"x": -0.3791714396,
				"y": 0.8163371423,
				"z": 2.1620292764,
				"element": "C" 
			},
			{
				"x": -1.3258199109,
				"y": 2.3267514354,
				"z": 2.8617950064,
				"element": "Br" 
			},
			{
				"x": 3.2431261237,
				"y": -0.3311666294,
				"z": 0.7064872093,
				"element": "S" 
			},
			{
				"x": 3.1302719515,
				"y": 0.5971700296,
				"z": -1.2180572762,
				"element": "Cl" 
			},
			{
				"x": 3.6012101584,
				"y": -1.7212196451,
				"z": 0.4546354543,
				"element": "O" 
			},
			{
				"x": 4.0787532901,
				"y": 0.5317679187,
				"z": 1.5314274909,
				"element": "O" 
			},
			{
				"x": 0.970404275,
				"y": 3.0874872845,
				"z": 1.7600145899,
				"element": "H" 
			},
			{
				"x": 2.3320280176,
				"y": 2.3265184804,
				"z": 2.5968206409,
				"element": "H" 
			},
			{
				"x": 2.3093711238,
				"y": 2.3832784032,
				"z": 0.8403084156,
				"element": "H" 
			},
			{
				"x": 1.3685136809,
				"y": -2.3649860987,
				"z": 0.8442276754,
				"element": "H" 
			},
			{
				"x": -0.9965254301,
				"y": -2.4878900626,
				"z": 1.6508025479,
				"element": "H" 
			},
			{
				"x": -2.0945770907,
				"y": -0.4261511137,
				"z": 2.5053565561,
				"element": "H" 
			}
		],
		 "valence_orbital": [ 
			{
				"type": "occ",
				"energy": -0.33084,
				"method": "rhf"
			},
			{
				"type": "occ",
				"energy": -0.31807,
				"method": "rhf"
			},
			{
				"type": "occ",
				"energy": -0.30576,
				"method": "rhf"
			},
			{
				"type": "occ",
				"energy": -0.29109,
				"method": "rhf"
			},
			{
				"type": "occ",
				"energy": -0.26916,
				"method": "rhf"
			},
			{
				"type": "unocc",
				"energy": -0.0947,
				"method": "rhf"
			},
			{
				"type": "unocc",
				"energy": -0.05432,
				"method": "rhf"
			},
			{
				"type": "unocc",
				"energy": -0.04337,
				"method": "rhf"
			},
			{
				"type": "unocc",
				"energy": -0.01674,
				"method": "rhf"
			},
			{
				"type": "unocc",
				"energy": 0.0531,
				"method": "rhf"
			}
		],
		"cosmo_sigma_profile": { 
			"-0.025": 0.0,
			"-0.024": 0.0,
			"-0.023": 0.0,
			"-0.022": 0.0,
			"-0.021": 0.0,
			"-0.02": 0.0,
			"-0.019": 0.0,
			"-0.018": 0.0,
			"-0.017": 0.0,
			"-0.016": 0.0,
			"-0.015": 0.0,
			"-0.014": 0.0,
			"-0.013": 0.0,
			"-0.012": 0.0,
			"-0.011": 0.0,
			"-0.01": 0.0,
			"-0.009": 0.704883777562,
			"-0.008": 5.79135238853,
			"-0.007": 6.78175459289,
			"-0.006": 6.61580054376,
			"-0.005": 8.20854417108,
			"-0.004": 11.6101592254,
			"-0.003": 16.9333897678,
			"-0.002": 22.243484595,
			"-0.001": 23.6369734173,
			"0.0": 25.0523591317,
			"0.001": 20.5854456604,
			"0.002": 16.6060249078,
			"0.003": 20.3204843067,
			"0.004": 12.5098222601,
			"0.005": 3.37942310601,
			"0.006": 3.82602038612,
			"0.007": 5.62316448688,
			"0.008": 8.77769510773,
			"0.009": 3.34618466411,
			"0.01": 0.0,
			"0.011": 0.0,
			"0.012": 0.0,
			"0.013": 0.0,
			"0.014": 0.0,
			"0.015": 0.0,
			"0.016": 0.0,
			"0.017": 0.0,
			"0.018": 0.0,
			"0.019": 0.0,
			"0.02": 0.0,
			"0.021": 0.0,
			"0.022": 0.0,
			"0.023": 0.0,
			"0.024": 0.0,
			"0.025": 0.0
		}
	}
}
