{
	 "smiles": "COC1=C(C(C)=CC=C1)[N+]([O-])=O", 
	 "Tm": 323.15, 
	 "num_atms": 21, 
	 "gaussian": { 
		 "optdone": 1, 
		 "sigma_profile": "yes", 
		 "theory": "DFT", 
		 "functional": "B3LYP", 
		 "basiset": "6-31G**", 
		 "properties": { 
			 "R2extent": 2289.3705, 
			 "electric_dipole_moment_norm": 4.41831011813, 
			 "electric_quadrupole_moment_norm": 15.6892812793, 
			 "total_energy": -590.580219002, 
			 "HOMO_LUMO_gap": 0.17176, 
			 "cosmo_polarized_energy": -9.9, 
			 "cosmo_cavitation_energy": 25.71, 
			 "cosmo_dispersion_energy": -18.15, 
			 "cosmo_repulsion_energy": 1.45, 
			 "cosmo_total_nonelectrostatic_energy": 9.01, 
			 "SMD_solvation_energy": 7.89 
		},
		"coords": [
			{
				"x": 2.0633405953,
				"y": -2.5270006877,
				"z": -1.476488739,
				"element": "C" 
			},
			{
				"x": 0.9413939412,
				"y": -2.3314961834,
				"z": -0.6253223895,
				"element": "O" 
			},
			{
				"x": 0.4379374371,
				"y": -1.077656176,
				"z": -0.49905678,
				"element": "C" 
			},
			{
				"x": -0.6675660151,
				"y": -0.9425268698,
				"z": 0.352083495,
				"element": "C" 
			},
			{
				"x": -1.30526456,
				"y": 0.2733608673,
				"z": 0.5936071464,
				"element": "C" 
			},
			{
				"x": -2.4922887693,
				"y": 0.355175253,
				"z": 1.5214250824,
				"element": "C" 
			},
			{
				"x": -0.7942344163,
				"y": 1.4026399668,
				"z": -0.0610877954,
				"element": "C" 
			},
			{
				"x": 0.3031284853,
				"y": 1.2956222997,
				"z": -0.911896648,
				"element": "C" 
			},
			{
				"x": 0.9260182147,
				"y": 0.0666947884,
				"z": -1.1387692057,
				"element": "C" 
			},
			{
				"x": -1.1710061029,
				"y": -2.1601314758,
				"z": 1.0201040995,
				"element": "N" 
			},
			{
				"x": -0.6996448446,
				"y": -2.4305047433,
				"z": 2.1206058122,
				"element": "O" 
			},
			{
				"x": -2.0406327263,
				"y": -2.8000396642,
				"z": 0.43645139,
				"element": "O" 
			},
			{
				"x": 2.9315701657,
				"y": -1.9514113107,
				"z": -1.1331651409,
				"element": "H" 
			},
			{
				"x": 1.8318205587,
				"y": -2.2540134995,
				"z": -2.5132495614,
				"element": "H" 
			},
			{
				"x": 2.2922255557,
				"y": -3.5917347023,
				"z": -1.4254265153,
				"element": "H" 
			},
			{
				"x": -3.3106006633,
				"y": -0.2821035677,
				"z": 1.169585633,
				"element": "H" 
			},
			{
				"x": -2.2277056184,
				"y": 0.0161861504,
				"z": 2.5287149944,
				"element": "H" 
			},
			{
				"x": -2.8608262211,
				"y": 1.3806915013,
				"z": 1.5899990044,
				"element": "H" 
			},
			{
				"x": -1.2657016618,
				"y": 2.3666008893,
				"z": 0.1032215772,
				"element": "H" 
			},
			{
				"x": 0.6856910033,
				"y": 2.1810524268,
				"z": -1.4107925631,
				"element": "H" 
			},
			{
				"x": 1.7782456418,
				"y": 0.0044947374,
				"z": -1.8041428961,
				"element": "H" 
			}
		],
		 "valence_orbital": [ 
			{
				"type": "occ",
				"energy": -0.30581,
				"method": "rhf"
			},
			{
				"type": "occ",
				"energy": -0.30301,
				"method": "rhf"
			},
			{
				"type": "occ",
				"energy": -0.29529,
				"method": "rhf"
			},
			{
				"type": "occ",
				"energy": -0.25539,
				"method": "rhf"
			},
			{
				"type": "occ",
				"energy": -0.23527,
				"method": "rhf"
			},
			{
				"type": "unocc",
				"energy": -0.06351,
				"method": "rhf"
			},
			{
				"type": "unocc",
				"energy": -0.02154,
				"method": "rhf"
			},
			{
				"type": "unocc",
				"energy": -0.00377,
				"method": "rhf"
			},
			{
				"type": "unocc",
				"energy": 0.07553,
				"method": "rhf"
			},
			{
				"type": "unocc",
				"energy": 0.09364,
				"method": "rhf"
			}
		],
		"cosmo_sigma_profile": { 
			"-0.025": 0.0,
			"-0.024": 0.0,
			"-0.023": 0.0,
			"-0.022": 0.0,
			"-0.021": 0.0,
			"-0.02": 0.0,
			"-0.019": 0.0,
			"-0.018": 0.0,
			"-0.017": 0.0,
			"-0.016": 0.0,
			"-0.015": 0.0,
			"-0.014": 0.0,
			"-0.013": 0.0,
			"-0.012": 0.0,
			"-0.011": 0.0,
			"-0.01": 0.0,
			"-0.009": 0.0,
			"-0.008": 0.230366517264,
			"-0.007": 4.69233814686,
			"-0.006": 16.891366673,
			"-0.005": 17.8201089965,
			"-0.004": 20.2786517413,
			"-0.003": 18.0895269823,
			"-0.002": 13.6797561223,
			"-0.001": 14.0402660585,
			"0.0": 10.2189180673,
			"0.001": 9.59000361909,
			"0.002": 12.6988879172,
			"0.003": 14.212002892,
			"0.004": 12.9125227161,
			"0.005": 6.86644006296,
			"0.006": 7.27786970295,
			"0.007": 11.683542587,
			"0.008": 7.87271987243,
			"0.009": 4.63839967611,
			"0.01": 0.639798318727,
			"0.011": 0.0,
			"0.012": 0.0,
			"0.013": 0.0,
			"0.014": 0.0,
			"0.015": 0.0,
			"0.016": 0.0,
			"0.017": 0.0,
			"0.018": 0.0,
			"0.019": 0.0,
			"0.02": 0.0,
			"0.021": 0.0,
			"0.022": 0.0,
			"0.023": 0.0,
			"0.024": 0.0,
			"0.025": 0.0
		}
	}
}
