{
	 "smiles": "CCC1=NNC(=O)C(C(O)=O)=C1CC", 
	 "Tm": 428.15, 
	 "num_atms": 26, 
	 "gaussian": { 
		 "optdone": 1, 
		 "sigma_profile": "yes", 
		 "theory": "DFT", 
		 "functional": "B3LYP", 
		 "basiset": "6-31G**", 
		 "properties": { 
			 "R2extent": 3468.0647, 
			 "electric_dipole_moment_norm": 5.72239675486, 
			 "electric_quadrupole_moment_norm": 13.9392009326, 
			 "total_energy": -685.380617847, 
			 "HOMO_LUMO_gap": 0.16762, 
			 "cosmo_polarized_energy": -14.85, 
			 "cosmo_cavitation_energy": 28.57, 
			 "cosmo_dispersion_energy": -21.07, 
			 "cosmo_repulsion_energy": 1.65, 
			 "cosmo_total_nonelectrostatic_energy": 9.16, 
			 "SMD_solvation_energy": 5.85 
		},
		"coords": [
			{
				"x": 1.8128122424,
				"y": -1.8456234868,
				"z": 0.9245105467,
				"element": "C" 
			},
			{
				"x": 2.3188798192,
				"y": -0.6177172989,
				"z": 0.1451410006,
				"element": "C" 
			},
			{
				"x": 1.3969243173,
				"y": 0.5795724655,
				"z": 0.2610850094,
				"element": "C" 
			},
			{
				"x": 1.7079316355,
				"y": 1.4027785189,
				"z": 1.2326832783,
				"element": "N" 
			},
			{
				"x": 0.9140111483,
				"y": 2.4601782486,
				"z": 1.4206025759,
				"element": "N" 
			},
			{
				"x": -0.2132356951,
				"y": 2.8054471928,
				"z": 0.7117038467,
				"element": "C" 
			},
			{
				"x": -0.8506463418,
				"y": 3.8216273783,
				"z": 1.0530514508,
				"element": "O" 
			},
			{
				"x": -0.5352337312,
				"y": 1.9122634623,
				"z": -0.3954068087,
				"element": "C" 
			},
			{
				"x": -1.7401727695,
				"y": 2.2664872778,
				"z": -1.2530309415,
				"element": "C" 
			},
			{
				"x": -2.4514433285,
				"y": 3.3137188287,
				"z": -0.8459437538,
				"element": "O" 
			},
			{
				"x": -2.0422460154,
				"y": 1.6427887906,
				"z": -2.2529430375,
				"element": "O" 
			},
			{
				"x": 0.250830653,
				"y": 0.7920635426,
				"z": -0.6083125313,
				"element": "C" 
			},
			{
				"x": 0.0031808395,
				"y": -0.2004730567,
				"z": -1.7229560744,
				"element": "C" 
			},
			{
				"x": 0.6773145798,
				"y": 0.2276567678,
				"z": -3.0431002012,
				"element": "C" 
			},
			{
				"x": 1.7119601256,
				"y": -1.6074629333,
				"z": 1.9875638523,
				"element": "H" 
			},
			{
				"x": 2.5178323347,
				"y": -2.6766962705,
				"z": 0.8268753901,
				"element": "H" 
			},
			{
				"x": 0.8376926259,
				"y": -2.1890175073,
				"z": 0.5645932376,
				"element": "H" 
			},
			{
				"x": 2.4780680738,
				"y": -0.8762971985,
				"z": -0.9056565967,
				"element": "H" 
			},
			{
				"x": 3.2881616329,
				"y": -0.3140280264,
				"z": 0.5497683253,
				"element": "H" 
			},
			{
				"x": 1.1732847676,
				"y": 3.0740519918,
				"z": 2.1851046926,
				"element": "H" 
			},
			{
				"x": -2.0132507065,
				"y": 3.7191886973,
				"z": -0.0425961516,
				"element": "H" 
			},
			{
				"x": -1.0679353842,
				"y": -0.2846229306,
				"z": -1.8980700849,
				"element": "H" 
			},
			{
				"x": 0.3808905348,
				"y": -1.1798759439,
				"z": -1.4210004084,
				"element": "H" 
			},
			{
				"x": 1.7576747394,
				"y": 0.3648786534,
				"z": -2.9263835093,
				"element": "H" 
			},
			{
				"x": 0.2398581127,
				"y": 1.1616333009,
				"z": -3.4002815941,
				"element": "H" 
			},
			{
				"x": 0.5135557897,
				"y": -0.5382204643,
				"z": -3.8068015128,
				"element": "H" 
			}
		],
		 "valence_orbital": [ 
			{
				"type": "occ",
				"energy": -0.31451,
				"method": "rhf"
			},
			{
				"type": "occ",
				"energy": -0.29902,
				"method": "rhf"
			},
			{
				"type": "occ",
				"energy": -0.28345,
				"method": "rhf"
			},
			{
				"type": "occ",
				"energy": -0.2654,
				"method": "rhf"
			},
			{
				"type": "occ",
				"energy": -0.26157,
				"method": "rhf"
			},
			{
				"type": "unocc",
				"energy": -0.09395,
				"method": "rhf"
			},
			{
				"type": "unocc",
				"energy": -0.02703,
				"method": "rhf"
			},
			{
				"type": "unocc",
				"energy": 0.02786,
				"method": "rhf"
			},
			{
				"type": "unocc",
				"energy": 0.07302,
				"method": "rhf"
			},
			{
				"type": "unocc",
				"energy": 0.07916,
				"method": "rhf"
			}
		],
		"cosmo_sigma_profile": { 
			"-0.025": 0.0,
			"-0.024": 0.0,
			"-0.023": 0.0,
			"-0.022": 0.0,
			"-0.021": 0.0,
			"-0.02": 0.0,
			"-0.019": 0.0,
			"-0.018": 0.0408392560157,
			"-0.017": 1.25652881742,
			"-0.016": 0.912598003382,
			"-0.015": 0.794879471931,
			"-0.014": 0.954464588704,
			"-0.013": 1.04625580219,
			"-0.012": 0.890838893489,
			"-0.011": 0.699990874373,
			"-0.01": 0.587831898628,
			"-0.009": 0.757127337272,
			"-0.008": 0.441669919005,
			"-0.007": 0.980408553475,
			"-0.006": 3.7686431345,
			"-0.005": 13.3568360716,
			"-0.004": 22.0122132697,
			"-0.003": 28.4205968321,
			"-0.002": 32.0073344918,
			"-0.001": 25.1356573063,
			"0.0": 21.0625186592,
			"0.001": 11.9693755457,
			"0.002": 4.03845850186,
			"0.003": 5.08304963142,
			"0.004": 4.99253228943,
			"0.005": 4.95961283806,
			"0.006": 3.19954635078,
			"0.007": 4.70794360008,
			"0.008": 5.12390409311,
			"0.009": 4.66390643776,
			"0.01": 5.63625397303,
			"0.011": 6.97751958283,
			"0.012": 6.33196503065,
			"0.013": 2.62791803043,
			"0.014": 0.581033959708,
			"0.015": 0.0,
			"0.016": 0.0,
			"0.017": 0.0,
			"0.018": 0.0,
			"0.019": 0.0,
			"0.02": 0.0,
			"0.021": 0.0,
			"0.022": 0.0,
			"0.023": 0.0,
			"0.024": 0.0,
			"0.025": 0.0
		}
	}
}
