{
	 "smiles": "OC1=C(Cl)C=C(C=C1)C1=CC=CC=C1", 
	 "Tm": 350.15, 
	 "num_atms": 23, 
	 "gaussian": { 
		 "optdone": 1, 
		 "sigma_profile": "yes", 
		 "theory": "DFT", 
		 "functional": "B3LYP", 
		 "basiset": "6-31G**", 
		 "properties": { 
			 "R2extent": 4281.1698, 
			 "electric_dipole_moment_norm": 0.942346273935, 
			 "electric_quadrupole_moment_norm": 7.02305708577, 
			 "total_energy": -998.123964583, 
			 "HOMO_LUMO_gap": 0.18827, 
			 "cosmo_polarized_energy": -7.11, 
			 "cosmo_cavitation_energy": 28.79, 
			 "cosmo_dispersion_energy": -21.5, 
			 "cosmo_repulsion_energy": 1.67, 
			 "cosmo_total_nonelectrostatic_energy": 8.96, 
			 "SMD_solvation_energy": 4.75 
		},
		"coords": [
			{
				"x": -0.3434196136,
				"y": -0.982376647,
				"z": -4.4109027074,
				"element": "O" 
			},
			{
				"x": 0.0537238523,
				"y": -0.5242001751,
				"z": -3.1994490625,
				"element": "C" 
			},
			{
				"x": -0.8340789969,
				"y": -0.1932424324,
				"z": -2.1651455938,
				"element": "C" 
			},
			{
				"x": -2.5666836874,
				"y": -0.3705375828,
				"z": -2.4628380323,
				"element": "Cl" 
			},
			{
				"x": -0.3845130075,
				"y": 0.2758783211,
				"z": -0.9362798558,
				"element": "C" 
			},
			{
				"x": 0.9887513672,
				"y": 0.4287961446,
				"z": -0.6930762365,
				"element": "C" 
			},
			{
				"x": 1.8788633242,
				"y": 0.0950113586,
				"z": -1.7299790586,
				"element": "C" 
			},
			{
				"x": 1.424152458,
				"y": -0.3706230617,
				"z": -2.9573176757,
				"element": "C" 
			},
			{
				"x": 1.478153208,
				"y": 0.9265557013,
				"z": 0.6174064153,
				"element": "C" 
			},
			{
				"x": 2.5837817516,
				"y": 1.7912420925,
				"z": 0.6921730752,
				"element": "C" 
			},
			{
				"x": 3.0465027879,
				"y": 2.2575894453,
				"z": 1.9218230198,
				"element": "C" 
			},
			{
				"x": 2.4111894434,
				"y": 1.8739934667,
				"z": 3.1043571745,
				"element": "C" 
			},
			{
				"x": 1.310375349,
				"y": 1.0173332111,
				"z": 3.0457287213,
				"element": "C" 
			},
			{
				"x": 0.8507816357,
				"y": 0.5468827281,
				"z": 1.8164634724,
				"element": "C" 
			},
			{
				"x": -1.311514756,
				"y": -1.0356098113,
				"z": -4.4230255889,
				"element": "H" 
			},
			{
				"x": -1.1104676074,
				"y": 0.5460572544,
				"z": -0.1776705206,
				"element": "H" 
			},
			{
				"x": 2.9478117071,
				"y": 0.1786299027,
				"z": -1.5615580028,
				"element": "H" 
			},
			{
				"x": 2.1145941789,
				"y": -0.6365818111,
				"z": -3.7509277454,
				"element": "H" 
			},
			{
				"x": 3.0670129824,
				"y": 2.1201219875,
				"z": -0.2231600299,
				"element": "H" 
			},
			{
				"x": 3.8986186884,
				"y": 2.9307067846,
				"z": 1.9552358781,
				"element": "H" 
			},
			{
				"x": 2.7705244804,
				"y": 2.2388743357,
				"z": 4.0621332526,
				"element": "H" 
			},
			{
				"x": 0.813999954,
				"y": 0.7052131571,
				"z": 3.9603153038,
				"element": "H" 
			},
			{
				"x": 0.0128405001,
				"y": -0.1435143697,
				"z": 1.7854937971,
				"element": "H" 
			}
		],
		 "valence_orbital": [ 
			{
				"type": "occ",
				"energy": -0.3297,
				"method": "rhf"
			},
			{
				"type": "occ",
				"energy": -0.26479,
				"method": "rhf"
			},
			{
				"type": "occ",
				"energy": -0.25499,
				"method": "rhf"
			},
			{
				"type": "occ",
				"energy": -0.25275,
				"method": "rhf"
			},
			{
				"type": "occ",
				"energy": -0.21604,
				"method": "rhf"
			},
			{
				"type": "unocc",
				"energy": -0.02777,
				"method": "rhf"
			},
			{
				"type": "unocc",
				"energy": -0.01596,
				"method": "rhf"
			},
			{
				"type": "unocc",
				"energy": -0.00417,
				"method": "rhf"
			},
			{
				"type": "unocc",
				"energy": 0.01892,
				"method": "rhf"
			},
			{
				"type": "unocc",
				"energy": 0.03014,
				"method": "rhf"
			}
		],
		"cosmo_sigma_profile": { 
			"-0.025": 0.0,
			"-0.024": 0.0,
			"-0.023": 0.0,
			"-0.022": 0.0,
			"-0.021": 0.0,
			"-0.02": 0.0,
			"-0.019": 0.0,
			"-0.018": 0.0,
			"-0.017": 0.0,
			"-0.016": 0.0171922950324,
			"-0.015": 0.436723206146,
			"-0.014": 0.844084980881,
			"-0.013": 0.685274829378,
			"-0.012": 0.605621217082,
			"-0.011": 0.631669380655,
			"-0.01": 0.96524046372,
			"-0.009": 0.983998788532,
			"-0.008": 0.860593936653,
			"-0.007": 3.21927182956,
			"-0.006": 11.6332992266,
			"-0.005": 17.4345807149,
			"-0.004": 18.2831791149,
			"-0.003": 16.6678853493,
			"-0.002": 13.167972519,
			"-0.001": 13.934066786,
			"0.0": 14.5007094136,
			"0.001": 19.6451602932,
			"0.002": 22.0748198961,
			"0.003": 26.978285524,
			"0.004": 23.1062907931,
			"0.005": 12.4928790567,
			"0.006": 7.14535216661,
			"0.007": 1.10491358683,
			"0.008": 1.90597986529,
			"0.009": 1.80630940544,
			"0.01": 1.47102863775,
			"0.011": 0.813992783936,
			"0.012": 0.0,
			"0.013": 0.0,
			"0.014": 0.0,
			"0.015": 0.0,
			"0.016": 0.0,
			"0.017": 0.0,
			"0.018": 0.0,
			"0.019": 0.0,
			"0.02": 0.0,
			"0.021": 0.0,
			"0.022": 0.0,
			"0.023": 0.0,
			"0.024": 0.0,
			"0.025": 0.0
		}
	}
}
