{
	 "smiles": "CC1=CC(Br)=CC(Br)=C1", 
	 "Tm": 312.15, 
	 "num_atms": 15, 
	 "gaussian": { 
		 "optdone": 1, 
		 "sigma_profile": "yes", 
		 "theory": "DFT", 
		 "functional": "B3LYP", 
		 "basiset": "6-31G**", 
		 "properties": { 
			 "R2extent": 5898.6674, 
			 "electric_dipole_moment_norm": 2.19094651692, 
			 "electric_quadrupole_moment_norm": 4.48790559504, 
			 "total_energy": -5413.17629968, 
			 "HOMO_LUMO_gap": 0.22153, 
			 "cosmo_polarized_energy": -3.89, 
			 "cosmo_cavitation_energy": 23.65, 
			 "cosmo_dispersion_energy": -18.24, 
			 "cosmo_repulsion_energy": 1.5, 
			 "cosmo_total_nonelectrostatic_energy": 6.91, 
			 "SMD_solvation_energy": 1.84 
		},
		"coords": [
			{
				"x": 1.5713977623,
				"y": 1.4231023341,
				"z": -1.6601138311,
				"element": "C" 
			},
			{
				"x": 1.59430286,
				"y": 0.9723392072,
				"z": -0.2182759221,
				"element": "C" 
			},
			{
				"x": 0.4134230822,
				"y": 0.9361614572,
				"z": 0.5343702942,
				"element": "C" 
			},
			{
				"x": 0.4541722519,
				"y": 0.5474254934,
				"z": 1.8710653837,
				"element": "C" 
			},
			{
				"x": -1.1673305881,
				"y": 0.5027385048,
				"z": 2.8816221902,
				"element": "Br" 
			},
			{
				"x": 1.6458060781,
				"y": 0.1842892612,
				"z": 2.4953608129,
				"element": "C" 
			},
			{
				"x": 2.8108604262,
				"y": 0.22239763,
				"z": 1.731957302,
				"element": "C" 
			},
			{
				"x": 4.4656343889,
				"y": -0.2744267628,
				"z": 2.5489807257,
				"element": "Br" 
			},
			{
				"x": 2.8003414202,
				"y": 0.6070359225,
				"z": 0.3935040148,
				"element": "C" 
			},
			{
				"x": 0.6152397854,
				"y": 1.1880428722,
				"z": -2.1359752289,
				"element": "H" 
			},
			{
				"x": 1.7163436974,
				"y": 2.5078376703,
				"z": -1.7332036237,
				"element": "H" 
			},
			{
				"x": 2.3675775708,
				"y": 0.9469290599,
				"z": -2.2391559657,
				"element": "H" 
			},
			{
				"x": -0.5329316973,
				"y": 1.2085153118,
				"z": 0.0801920593,
				"element": "H" 
			},
			{
				"x": 1.6651823765,
				"y": -0.1195769005,
				"z": 3.5336292646,
				"element": "H" 
			},
			{
				"x": 3.7260805855,
				"y": 0.6212889388,
				"z": -0.1711574759,
				"element": "H" 
			}
		],
		 "valence_orbital": [ 
			{
				"type": "occ",
				"energy": -0.29825,
				"method": "rhf"
			},
			{
				"type": "occ",
				"energy": -0.29507,
				"method": "rhf"
			},
			{
				"type": "occ",
				"energy": -0.28976,
				"method": "rhf"
			},
			{
				"type": "occ",
				"energy": -0.25413,
				"method": "rhf"
			},
			{
				"type": "occ",
				"energy": -0.24616,
				"method": "rhf"
			},
			{
				"type": "unocc",
				"energy": -0.02463,
				"method": "rhf"
			},
			{
				"type": "unocc",
				"energy": -0.02315,
				"method": "rhf"
			},
			{
				"type": "unocc",
				"energy": -0.01565,
				"method": "rhf"
			},
			{
				"type": "unocc",
				"energy": 0.0247,
				"method": "rhf"
			},
			{
				"type": "unocc",
				"energy": 0.09838,
				"method": "rhf"
			}
		],
		"cosmo_sigma_profile": { 
			"-0.025": 0.0,
			"-0.024": 0.0,
			"-0.023": 0.0,
			"-0.022": 0.0,
			"-0.021": 0.0,
			"-0.02": 0.0,
			"-0.019": 0.0,
			"-0.018": 0.0,
			"-0.017": 0.0,
			"-0.016": 0.0,
			"-0.015": 0.0,
			"-0.014": 0.0,
			"-0.013": 0.0,
			"-0.012": 0.0,
			"-0.011": 0.0,
			"-0.01": 0.0,
			"-0.009": 0.0,
			"-0.008": 0.510813885539,
			"-0.007": 4.1719980075,
			"-0.006": 5.99665724189,
			"-0.005": 11.0934894589,
			"-0.004": 12.5069822476,
			"-0.003": 14.4889073143,
			"-0.002": 15.7191119193,
			"-0.001": 16.9702069215,
			"0.0": 16.5136357001,
			"0.001": 19.5249767256,
			"0.002": 28.1163556207,
			"0.003": 20.6805503884,
			"0.004": 22.0462041839,
			"0.005": 7.45597920359,
			"0.006": 0.0,
			"0.007": 0.0,
			"0.008": 0.0,
			"0.009": 0.0,
			"0.01": 0.0,
			"0.011": 0.0,
			"0.012": 0.0,
			"0.013": 0.0,
			"0.014": 0.0,
			"0.015": 0.0,
			"0.016": 0.0,
			"0.017": 0.0,
			"0.018": 0.0,
			"0.019": 0.0,
			"0.02": 0.0,
			"0.021": 0.0,
			"0.022": 0.0,
			"0.023": 0.0,
			"0.024": 0.0,
			"0.025": 0.0
		}
	}
}
