{
	 "smiles": "CC(=O)C1=CC=C(C=C1)C(O)=O", 
	 "Tm": 482.15, 
	 "num_atms": 20, 
	 "gaussian": { 
		 "optdone": 1, 
		 "sigma_profile": "yes", 
		 "theory": "DFT", 
		 "functional": "B3LYP", 
		 "basiset": "6-31G**", 
		 "properties": { 
			 "R2extent": 3410.9894, 
			 "electric_dipole_moment_norm": 2.52167576425, 
			 "electric_quadrupole_moment_norm": 25.5382806633, 
			 "total_energy": -573.461446991, 
			 "HOMO_LUMO_gap": 0.17803, 
			 "cosmo_polarized_energy": -16.97, 
			 "cosmo_cavitation_energy": 24.93, 
			 "cosmo_dispersion_energy": -18.23, 
			 "cosmo_repulsion_energy": 1.44, 
			 "cosmo_total_nonelectrostatic_energy": 8.14, 
			 "SMD_solvation_energy": 6.2 
		},
		"coords": [
			{
				"x": -3.2149460846,
				"y": -1.8993534998,
				"z": -0.3136618655,
				"element": "C" 
			},
			{
				"x": -1.8961582238,
				"y": -1.7232866479,
				"z": 0.4159253059,
				"element": "C" 
			},
			{
				"x": -1.8285203595,
				"y": -1.8465438102,
				"z": 1.6285481443,
				"element": "O" 
			},
			{
				"x": -0.6631775633,
				"y": -1.3926853906,
				"z": -0.3804264086,
				"element": "C" 
			},
			{
				"x": 0.5428002657,
				"y": -1.2240795906,
				"z": 0.3156736455,
				"element": "C" 
			},
			{
				"x": 1.7154517833,
				"y": -0.9251607089,
				"z": -0.3680205542,
				"element": "C" 
			},
			{
				"x": 1.7051447356,
				"y": -0.7871206983,
				"z": -1.7651658025,
				"element": "C" 
			},
			{
				"x": 0.4980109478,
				"y": -0.9323829922,
				"z": -2.4602789935,
				"element": "C" 
			},
			{
				"x": -0.673484,
				"y": -1.2406124671,
				"z": -1.7755849292,
				"element": "C" 
			},
			{
				"x": 2.9308630947,
				"y": -0.4514519453,
				"z": -2.5656855201,
				"element": "C" 
			},
			{
				"x": 4.1316150186,
				"y": -0.7168613358,
				"z": -1.9885088111,
				"element": "O" 
			},
			{
				"x": 2.8834012262,
				"y": 0.0310107256,
				"z": -3.672329044,
				"element": "O" 
			},
			{
				"x": -3.9895878257,
				"y": -2.1330572605,
				"z": 0.4168804565,
				"element": "H" 
			},
			{
				"x": -3.4888741045,
				"y": -0.9871546994,
				"z": -0.8552582273,
				"element": "H" 
			},
			{
				"x": -3.1523022324,
				"y": -2.7091261079,
				"z": -1.0490694797,
				"element": "H" 
			},
			{
				"x": 0.5302689765,
				"y": -1.3271919585,
				"z": 1.395295998,
				"element": "H" 
			},
			{
				"x": 2.6277039124,
				"y": -0.762223894,
				"z": 0.2011882447,
				"element": "H" 
			},
			{
				"x": 0.5023496306,
				"y": -0.7996504742,
				"z": -3.5366022895,
				"element": "H" 
			},
			{
				"x": -1.5962495439,
				"y": -1.3592467489,
				"z": -2.3337155817,
				"element": "H" 
			},
			{
				"x": 4.0111903464,
				"y": -1.2374204956,
				"z": -1.1823042879,
				"element": "H" 
			}
		],
		 "valence_orbital": [ 
			{
				"type": "occ",
				"energy": -0.32383,
				"method": "rhf"
			},
			{
				"type": "occ",
				"energy": -0.28616,
				"method": "rhf"
			},
			{
				"type": "occ",
				"energy": -0.28323,
				"method": "rhf"
			},
			{
				"type": "occ",
				"energy": -0.27311,
				"method": "rhf"
			},
			{
				"type": "occ",
				"energy": -0.26318,
				"method": "rhf"
			},
			{
				"type": "unocc",
				"energy": -0.08515,
				"method": "rhf"
			},
			{
				"type": "unocc",
				"energy": -0.03183,
				"method": "rhf"
			},
			{
				"type": "unocc",
				"energy": -0.01048,
				"method": "rhf"
			},
			{
				"type": "unocc",
				"energy": 0.05251,
				"method": "rhf"
			},
			{
				"type": "unocc",
				"energy": 0.06153,
				"method": "rhf"
			}
		],
		"cosmo_sigma_profile": { 
			"-0.025": 0.0,
			"-0.024": 0.0,
			"-0.023": 0.0,
			"-0.022": 0.0,
			"-0.021": 0.0,
			"-0.02": 0.0,
			"-0.019": 0.481642999484,
			"-0.018": 0.822989473334,
			"-0.017": 1.31889263863,
			"-0.016": 0.805276735899,
			"-0.015": 0.831984155609,
			"-0.014": 0.568822976424,
			"-0.013": 0.994839448334,
			"-0.012": 2.0681185823,
			"-0.011": 0.75974672754,
			"-0.01": 1.35218403559,
			"-0.009": 1.35901237306,
			"-0.008": 1.83982042437,
			"-0.007": 9.3436562534,
			"-0.006": 15.5665845416,
			"-0.005": 12.1182968387,
			"-0.004": 11.6864180028,
			"-0.003": 11.8266292193,
			"-0.002": 14.18614455,
			"-0.001": 13.9052240535,
			"0.0": 11.5137276405,
			"0.001": 13.5557823513,
			"0.002": 16.9396724801,
			"0.003": 5.98005520755,
			"0.004": 3.11542759616,
			"0.005": 3.93857161464,
			"0.006": 3.94393984881,
			"0.007": 4.3847280747,
			"0.008": 3.59000484862,
			"0.009": 6.02687690447,
			"0.01": 7.39263872467,
			"0.011": 9.19953085683,
			"0.012": 6.19334780785,
			"0.013": 1.77750906493,
			"0.014": 0.0,
			"0.015": 0.0,
			"0.016": 0.0,
			"0.017": 0.0,
			"0.018": 0.0,
			"0.019": 0.0,
			"0.02": 0.0,
			"0.021": 0.0,
			"0.022": 0.0,
			"0.023": 0.0,
			"0.024": 0.0,
			"0.025": 0.0
		}
	}
}
