{
	 "smiles": "CC(=O)C1=CC(F)=C(OC2CCCCC2)C=C1", 
	 "Tm": 322.15, 
	 "num_atms": 34, 
	 "gaussian": { 
		 "optdone": 1, 
		 "sigma_profile": "yes", 
		 "theory": "DFT", 
		 "functional": "B3LYP", 
		 "basiset": "6-31G**", 
		 "properties": { 
			 "R2extent": 6139.3414, 
			 "electric_dipole_moment_norm": 3.68496248149, 
			 "electric_quadrupole_moment_norm": 12.8758959203, 
			 "total_energy": -794.016270411, 
			 "HOMO_LUMO_gap": 0.17885, 
			 "cosmo_polarized_energy": -8.73, 
			 "cosmo_cavitation_energy": 35.33, 
			 "cosmo_dispersion_energy": -25.7, 
			 "cosmo_repulsion_energy": 1.98, 
			 "cosmo_total_nonelectrostatic_energy": 11.6, 
			 "SMD_solvation_energy": 6.28 
		},
		"coords": [
			{
				"x": -1.6617384938,
				"y": 1.2531370833,
				"z": -4.4737273894,
				"element": "C" 
			},
			{
				"x": -2.3716120406,
				"y": 1.3689016109,
				"z": -3.1341115655,
				"element": "C" 
			},
			{
				"x": -3.2857397762,
				"y": 2.1668032063,
				"z": -2.9825910523,
				"element": "O" 
			},
			{
				"x": -1.9325981781,
				"y": 0.4912613175,
				"z": -2.0075921968,
				"element": "C" 
			},
			{
				"x": -0.8918931024,
				"y": -0.4391871255,
				"z": -2.1287024569,
				"element": "C" 
			},
			{
				"x": -0.5307764576,
				"y": -1.2309047462,
				"z": -1.0499573102,
				"element": "C" 
			},
			{
				"x": 0.4709889426,
				"y": -2.1304812357,
				"z": -1.2404509333,
				"element": "F" 
			},
			{
				"x": -1.1634007312,
				"y": -1.1268414893,
				"z": 0.2002504194,
				"element": "C" 
			},
			{
				"x": -0.9373523676,
				"y": -1.8799167118,
				"z": 1.3047143466,
				"element": "O" 
			},
			{
				"x": 0.3589027417,
				"y": -2.374854499,
				"z": 1.7395076345,
				"element": "C" 
			},
			{
				"x": 0.6583577677,
				"y": -3.7872923062,
				"z": 1.184943595,
				"element": "C" 
			},
			{
				"x": 2.1758824154,
				"y": -4.0567923957,
				"z": 1.1051154588,
				"element": "C" 
			},
			{
				"x": 2.9119780501,
				"y": -3.4298436731,
				"z": 2.2979801976,
				"element": "C" 
			},
			{
				"x": 2.758034847,
				"y": -1.8849529318,
				"z": 2.3167075748,
				"element": "C" 
			},
			{
				"x": 1.5156697972,
				"y": -1.3961176626,
				"z": 1.53312215,
				"element": "C" 
			},
			{
				"x": -2.2089989479,
				"y": -0.1895416741,
				"z": 0.3037813364,
				"element": "C" 
			},
			{
				"x": -2.5896257391,
				"y": 0.5980630167,
				"z": -0.7705235539,
				"element": "C" 
			},
			{
				"x": -1.7526728071,
				"y": 0.2401923409,
				"z": -4.8814920427,
				"element": "H" 
			},
			{
				"x": -0.5925638534,
				"y": 1.4708261745,
				"z": -4.3738331456,
				"element": "H" 
			},
			{
				"x": -2.1113009231,
				"y": 1.9632150844,
				"z": -5.1682190512,
				"element": "H" 
			},
			{
				"x": -0.3498948285,
				"y": -0.5809216796,
				"z": -3.057092782,
				"element": "H" 
			},
			{
				"x": 0.1949041514,
				"y": -2.4564362583,
				"z": 2.8199204923,
				"element": "H" 
			},
			{
				"x": 0.1781457252,
				"y": -4.5273475061,
				"z": 1.8353257204,
				"element": "H" 
			},
			{
				"x": 0.2078181032,
				"y": -3.8919855108,
				"z": 0.1967962992,
				"element": "H" 
			},
			{
				"x": 2.3595416054,
				"y": -5.1359097861,
				"z": 1.0622224925,
				"element": "H" 
			},
			{
				"x": 2.5734935875,
				"y": -3.6389166431,
				"z": 0.1719507787,
				"element": "H" 
			},
			{
				"x": 3.97295312,
				"y": -3.7013937004,
				"z": 2.2815366325,
				"element": "H" 
			},
			{
				"x": 2.504327976,
				"y": -3.8557325479,
				"z": 3.2242808262,
				"element": "H" 
			},
			{
				"x": 3.64658529,
				"y": -1.4127732261,
				"z": 1.8837984692,
				"element": "H" 
			},
			{
				"x": 2.700879857,
				"y": -1.5357201699,
				"z": 3.3541425343,
				"element": "H" 
			},
			{
				"x": 1.7548700847,
				"y": -1.3214959666,
				"z": 0.4699641954,
				"element": "H" 
			},
			{
				"x": 1.2214880493,
				"y": -0.3974193464,
				"z": 1.8729550762,
				"element": "H" 
			},
			{
				"x": -2.706766665,
				"y": -0.1117459775,
				"z": 1.2648138971,
				"element": "H" 
			},
			{
				"x": -3.3952872,
				"y": 1.3179249354,
				"z": -0.6778366475,
				"element": "H" 
			}
		],
		 "valence_orbital": [ 
			{
				"type": "occ",
				"energy": -0.30436,
				"method": "rhf"
			},
			{
				"type": "occ",
				"energy": -0.29381,
				"method": "rhf"
			},
			{
				"type": "occ",
				"energy": -0.25843,
				"method": "rhf"
			},
			{
				"type": "occ",
				"energy": -0.24566,
				"method": "rhf"
			},
			{
				"type": "occ",
				"energy": -0.23027,
				"method": "rhf"
			},
			{
				"type": "unocc",
				"energy": -0.05142,
				"method": "rhf"
			},
			{
				"type": "unocc",
				"energy": -0.00771,
				"method": "rhf"
			},
			{
				"type": "unocc",
				"energy": 0.04536,
				"method": "rhf"
			},
			{
				"type": "unocc",
				"energy": 0.07294,
				"method": "rhf"
			},
			{
				"type": "unocc",
				"energy": 0.07511,
				"method": "rhf"
			}
		],
		"cosmo_sigma_profile": { 
			"-0.025": 0.0,
			"-0.024": 0.0,
			"-0.023": 0.0,
			"-0.022": 0.0,
			"-0.021": 0.0,
			"-0.02": 0.0,
			"-0.019": 0.0,
			"-0.018": 0.0,
			"-0.017": 0.0,
			"-0.016": 0.0,
			"-0.015": 0.0,
			"-0.014": 0.0,
			"-0.013": 0.0,
			"-0.012": 0.0,
			"-0.011": 0.0,
			"-0.01": 0.0,
			"-0.009": 0.0,
			"-0.008": 0.826095143026,
			"-0.007": 4.12419850452,
			"-0.006": 8.96640904241,
			"-0.005": 11.2645713052,
			"-0.004": 13.5048777801,
			"-0.003": 23.6562634716,
			"-0.002": 38.4524501412,
			"-0.001": 40.8523973669,
			"0.0": 36.3480992631,
			"0.001": 30.7415905522,
			"0.002": 18.6707169855,
			"0.003": 13.4507620033,
			"0.004": 9.0818339762,
			"0.005": 3.55481149687,
			"0.006": 3.79867635305,
			"0.007": 3.07225388268,
			"0.008": 1.65200601611,
			"0.009": 3.47931468151,
			"0.01": 2.53495874829,
			"0.011": 2.86667536794,
			"0.012": 4.32817439338,
			"0.013": 1.8783101257,
			"0.014": 0.299143907094,
			"0.015": 0.0,
			"0.016": 0.0,
			"0.017": 0.0,
			"0.018": 0.0,
			"0.019": 0.0,
			"0.02": 0.0,
			"0.021": 0.0,
			"0.022": 0.0,
			"0.023": 0.0,
			"0.024": 0.0,
			"0.025": 0.0
		}
	}
}
