{
	 "smiles": "OC(=O)C1=CN(N=C1C1=CC=C(Br)C=C1)C1=CC=CC=C1", 
	 "Tm": 536.15, 
	 "num_atms": 32, 
	 "gaussian": { 
		 "optdone": 1, 
		 "sigma_profile": "yes", 
		 "theory": "DFT", 
		 "functional": "B3LYP", 
		 "basiset": "6-31G**", 
		 "properties": { 
			 "R2extent": 15275.9578, 
			 "electric_dipole_moment_norm": 3.0376820538, 
			 "electric_quadrupole_moment_norm": 12.3281748154, 
			 "total_energy": -3447.69165132, 
			 "HOMO_LUMO_gap": 0.17995, 
			 "cosmo_polarized_energy": -13.74, 
			 "cosmo_cavitation_energy": 40.01, 
			 "cosmo_dispersion_energy": -29.19, 
			 "cosmo_repulsion_energy": 2.22, 
			 "cosmo_total_nonelectrostatic_energy": 13.04, 
			 "SMD_solvation_energy": 6.23 
		},
		"coords": [
			{
				"x": -2.9149276741,
				"y": 2.3442950226,
				"z": -2.5746629668,
				"element": "O" 
			},
			{
				"x": -2.9521550617,
				"y": 1.5532397792,
				"z": -1.4752147295,
				"element": "C" 
			},
			{
				"x": -3.9300220674,
				"y": 1.5079028136,
				"z": -0.7503957667,
				"element": "O" 
			},
			{
				"x": -1.7218969349,
				"y": 0.7899906048,
				"z": -1.2312166783,
				"element": "C" 
			},
			{
				"x": -1.5873984853,
				"y": 0.041918771,
				"z": -0.0720764808,
				"element": "C" 
			},
			{
				"x": -0.3405706903,
				"y": -0.4792858971,
				"z": -0.0701974497,
				"element": "N" 
			},
			{
				"x": 0.3564081005,
				"y": -0.1245141097,
				"z": -1.1832940476,
				"element": "N" 
			},
			{
				"x": -0.4599813879,
				"y": 0.6462801887,
				"z": -1.9032070905,
				"element": "C" 
			},
			{
				"x": 0.051898632,
				"y": 1.1858098754,
				"z": -3.1801468425,
				"element": "C" 
			},
			{
				"x": 1.4091351275,
				"y": 1.536529956,
				"z": -3.2741012892,
				"element": "C" 
			},
			{
				"x": 1.9501978936,
				"y": 2.0033919148,
				"z": -4.4691048609,
				"element": "C" 
			},
			{
				"x": 1.1266341762,
				"y": 2.1162728065,
				"z": -5.5881399634,
				"element": "C" 
			},
			{
				"x": 1.8571419636,
				"y": 2.7596420507,
				"z": -7.2336119504,
				"element": "Br" 
			},
			{
				"x": -0.2205012888,
				"y": 1.7661315114,
				"z": -5.5262458612,
				"element": "C" 
			},
			{
				"x": -0.7511271519,
				"y": 1.3017003056,
				"z": -4.3240924897,
				"element": "C" 
			},
			{
				"x": 0.2583384709,
				"y": -1.3281371939,
				"z": 0.9035215221,
				"element": "C" 
			},
			{
				"x": 1.3418721853,
				"y": -2.1317990475,
				"z": 0.5353485266,
				"element": "C" 
			},
			{
				"x": 1.9238251827,
				"y": -2.9689846671,
				"z": 1.4851073938,
				"element": "C" 
			},
			{
				"x": 1.4304961754,
				"y": -3.0147610048,
				"z": 2.7908215399,
				"element": "C" 
			},
			{
				"x": 0.3513262325,
				"y": -2.2049441486,
				"z": 3.14835828,
				"element": "C" 
			},
			{
				"x": -0.23423527,
				"y": -1.3535373435,
				"z": 2.2123465066,
				"element": "C" 
			},
			{
				"x": -3.7739405722,
				"y": 2.7985079565,
				"z": -2.5962602383,
				"element": "H" 
			},
			{
				"x": -2.3093895845,
				"y": -0.1341491193,
				"z": 0.7090323269,
				"element": "H" 
			},
			{
				"x": 2.0399921387,
				"y": 1.440187027,
				"z": -2.3971966043,
				"element": "H" 
			},
			{
				"x": 2.9968141011,
				"y": 2.2789627525,
				"z": -4.5303004265,
				"element": "H" 
			},
			{
				"x": -0.8467784748,
				"y": 1.848979291,
				"z": -6.4071139559,
				"element": "H" 
			},
			{
				"x": -1.7972231904,
				"y": 1.0263438567,
				"z": -4.2802386205,
				"element": "H" 
			},
			{
				"x": 1.7096128574,
				"y": -2.0866176678,
				"z": -0.4821679556,
				"element": "H" 
			},
			{
				"x": 2.7646773792,
				"y": -3.5933343812,
				"z": 1.198277249,
				"element": "H" 
			},
			{
				"x": 1.8860932809,
				"y": -3.6719840275,
				"z": 3.5249780993,
				"element": "H" 
			},
			{
				"x": -0.0326033736,
				"y": -2.2226512745,
				"z": 4.1638217946,
				"element": "H" 
			},
			{
				"x": -1.0509126896,
				"y": -0.7036866013,
				"z": 2.5077730297,
				"element": "H" 
			}
		],
		 "valence_orbital": [ 
			{
				"type": "occ",
				"energy": -0.27062,
				"method": "rhf"
			},
			{
				"type": "occ",
				"energy": -0.26675,
				"method": "rhf"
			},
			{
				"type": "occ",
				"energy": -0.26017,
				"method": "rhf"
			},
			{
				"type": "occ",
				"energy": -0.2498,
				"method": "rhf"
			},
			{
				"type": "occ",
				"energy": -0.22593,
				"method": "rhf"
			},
			{
				"type": "unocc",
				"energy": -0.04598,
				"method": "rhf"
			},
			{
				"type": "unocc",
				"energy": -0.03944,
				"method": "rhf"
			},
			{
				"type": "unocc",
				"energy": -0.01757,
				"method": "rhf"
			},
			{
				"type": "unocc",
				"energy": -0.01004,
				"method": "rhf"
			},
			{
				"type": "unocc",
				"energy": 0.00354,
				"method": "rhf"
			}
		],
		"cosmo_sigma_profile": { 
			"-0.025": 0.0,
			"-0.024": 0.0,
			"-0.023": 0.0,
			"-0.022": 0.0,
			"-0.021": 0.0,
			"-0.02": 0.0,
			"-0.019": 0.0366456320342,
			"-0.018": 0.672980659911,
			"-0.017": 1.31606700805,
			"-0.016": 0.599187233625,
			"-0.015": 0.650515981574,
			"-0.014": 0.453862079677,
			"-0.013": 0.347882787791,
			"-0.012": 1.06108825342,
			"-0.011": 1.97576836826,
			"-0.01": 2.75577953152,
			"-0.009": 1.88410169136,
			"-0.008": 3.28227491622,
			"-0.007": 7.36174097487,
			"-0.006": 15.943743857,
			"-0.005": 20.858200699,
			"-0.004": 19.302440952,
			"-0.003": 17.9157842477,
			"-0.002": 20.3140086917,
			"-0.001": 20.1190227883,
			"0.0": 26.9220434935,
			"0.001": 28.5964488227,
			"0.002": 28.4604445935,
			"0.003": 33.8822724971,
			"0.004": 31.0240009151,
			"0.005": 14.4726302506,
			"0.006": 4.07172606406,
			"0.007": 3.26660496287,
			"0.008": 4.65589739798,
			"0.009": 3.37146720071,
			"0.01": 1.78202364587,
			"0.011": 2.99168324308,
			"0.012": 5.00839500814,
			"0.013": 0.370044228817,
			"0.014": 0.0,
			"0.015": 0.0,
			"0.016": 0.0,
			"0.017": 0.0,
			"0.018": 0.0,
			"0.019": 0.0,
			"0.02": 0.0,
			"0.021": 0.0,
			"0.022": 0.0,
			"0.023": 0.0,
			"0.024": 0.0,
			"0.025": 0.0
		}
	}
}
