{
	 "smiles": "CC1CCC(C)(COC(=S)NC2=CC=CC=C2)C1(C)C", 
	 "Tm": 374.15, 
	 "num_atms": 45, 
	 "gaussian": { 
		 "optdone": 1, 
		 "sigma_profile": "yes", 
		 "theory": "DFT", 
		 "functional": "B3LYP", 
		 "basiset": "6-31G**", 
		 "properties": { 
			 "R2extent": 7618.8438, 
			 "electric_dipole_moment_norm": 3.53016208693, 
			 "electric_quadrupole_moment_norm": 18.1878677387, 
			 "total_energy": -1191.05794856, 
			 "HOMO_LUMO_gap": 0.18446, 
			 "cosmo_polarized_energy": -10.98, 
			 "cosmo_cavitation_energy": 44.49, 
			 "cosmo_dispersion_energy": -29.97, 
			 "cosmo_repulsion_energy": 2.22, 
			 "cosmo_total_nonelectrostatic_energy": 16.74, 
			 "SMD_solvation_energy": 6.31 
		},
		"coords": [
			{
				"x": -1.8489840718,
				"y": 1.9302089745,
				"z": 2.7821322636,
				"element": "C" 
			},
			{
				"x": -1.0663890158,
				"y": 2.5584842547,
				"z": 1.6167159956,
				"element": "C" 
			},
			{
				"x": -1.9801586029,
				"y": 3.4096980398,
				"z": 0.7150908836,
				"element": "C" 
			},
			{
				"x": -2.6100827485,
				"y": 2.3947122706,
				"z": -0.2511840402,
				"element": "C" 
			},
			{
				"x": -1.5506833885,
				"y": 1.25692996,
				"z": -0.4740019591,
				"element": "C" 
			},
			{
				"x": -1.0571693786,
				"y": 1.2690704522,
				"z": -1.9350316812,
				"element": "C" 
			},
			{
				"x": -2.3081754133,
				"y": -0.0598169098,
				"z": -0.232283857,
				"element": "C" 
			},
			{
				"x": -1.4991440328,
				"y": -1.1964558717,
				"z": -0.6282595426,
				"element": "O" 
			},
			{
				"x": -1.8618018634,
				"y": -2.4211244834,
				"z": -0.2397981612,
				"element": "C" 
			},
			{
				"x": -3.1985620823,
				"y": -2.8124293739,
				"z": 0.6891471296,
				"element": "S" 
			},
			{
				"x": -0.999014554,
				"y": -3.3847166733,
				"z": -0.672647387,
				"element": "N" 
			},
			{
				"x": 0.1785238803,
				"y": -3.3045808666,
				"z": -1.4567338903,
				"element": "C" 
			},
			{
				"x": 1.1890720548,
				"y": -4.2424440638,
				"z": -1.1967472322,
				"element": "C" 
			},
			{
				"x": 2.3488654066,
				"y": -4.2588136621,
				"z": -1.9681091817,
				"element": "C" 
			},
			{
				"x": 2.5201244814,
				"y": -3.3366179857,
				"z": -3.0020546742,
				"element": "C" 
			},
			{
				"x": 1.5110592671,
				"y": -2.4081707579,
				"z": -3.2635950276,
				"element": "C" 
			},
			{
				"x": 0.3394305401,
				"y": -2.3902681338,
				"z": -2.5073132335,
				"element": "C" 
			},
			{
				"x": -0.4014466872,
				"y": 1.5557810546,
				"z": 0.6061782046,
				"element": "C" 
			},
			{
				"x": 0.8049858874,
				"y": 2.2846716532,
				"z": -0.0353147403,
				"element": "C" 
			},
			{
				"x": 0.1693424985,
				"y": 0.3031569954,
				"z": 1.2975864583,
				"element": "C" 
			},
			{
				"x": -2.2657049835,
				"y": 2.7216478432,
				"z": 3.4148546559,
				"element": "H" 
			},
			{
				"x": -1.2104017321,
				"y": 1.3083669192,
				"z": 3.4157102826,
				"element": "H" 
			},
			{
				"x": -2.6874509474,
				"y": 1.3101565976,
				"z": 2.449113465,
				"element": "H" 
			},
			{
				"x": -0.278856352,
				"y": 3.180677767,
				"z": 2.0613653206,
				"element": "H" 
			},
			{
				"x": -1.3894006849,
				"y": 4.147375039,
				"z": 0.1612933276,
				"element": "H" 
			},
			{
				"x": -2.7316458208,
				"y": 3.9688964531,
				"z": 1.2827260842,
				"element": "H" 
			},
			{
				"x": -3.5218684799,
				"y": 1.9800257175,
				"z": 0.1962956627,
				"element": "H" 
			},
			{
				"x": -2.9154413239,
				"y": 2.8480607187,
				"z": -1.1996419317,
				"element": "H" 
			},
			{
				"x": -0.6969694031,
				"y": 2.2577694571,
				"z": -2.2300614118,
				"element": "H" 
			},
			{
				"x": -0.2514589406,
				"y": 0.5502292498,
				"z": -2.1024276963,
				"element": "H" 
			},
			{
				"x": -1.8817945132,
				"y": 1.0081713083,
				"z": -2.6088163943,
				"element": "H" 
			},
			{
				"x": -2.6054593932,
				"y": -0.1919782905,
				"z": 0.8083360903,
				"element": "H" 
			},
			{
				"x": -3.2183372537,
				"y": -0.0832136394,
				"z": -0.8417562757,
				"element": "H" 
			},
			{
				"x": -1.2225344789,
				"y": -4.2937379004,
				"z": -0.2917814695,
				"element": "H" 
			},
			{
				"x": 1.0642849066,
				"y": -4.9517306425,
				"z": -0.3826088466,
				"element": "H" 
			},
			{
				"x": 3.1220089442,
				"y": -4.9907678786,
				"z": -1.7536730232,
				"element": "H" 
			},
			{
				"x": 3.4260970966,
				"y": -3.3452114741,
				"z": -3.6000620278,
				"element": "H" 
			},
			{
				"x": 1.6259288871,
				"y": -1.695282662,
				"z": -4.0751056791,
				"element": "H" 
			},
			{
				"x": -0.4477942233,
				"y": -1.6845770705,
				"z": -2.7337344181,
				"element": "H" 
			},
			{
				"x": 1.3070899844,
				"y": 1.6626178554,
				"z": -0.7814732629,
				"element": "H" 
			},
			{
				"x": 0.5292052448,
				"y": 3.226896779,
				"z": -0.5176136892,
				"element": "H" 
			},
			{
				"x": 1.5413482737,
				"y": 2.5188257468,
				"z": 0.7408938065,
				"element": "H" 
			},
			{
				"x": -0.5905871681,
				"y": -0.3029300198,
				"z": 1.7957624438,
				"element": "H" 
			},
			{
				"x": 0.6887717862,
				"y": -0.3394520116,
				"z": 0.5813339244,
				"element": "H" 
			},
			{
				"x": 0.8968783981,
				"y": 0.6034892649,
				"z": 2.0606947353,
				"element": "H" 
			}
		],
		 "valence_orbital": [ 
			{
				"type": "occ",
				"energy": -0.29007,
				"method": "rhf"
			},
			{
				"type": "occ",
				"energy": -0.26044,
				"method": "rhf"
			},
			{
				"type": "occ",
				"energy": -0.25672,
				"method": "rhf"
			},
			{
				"type": "occ",
				"energy": -0.21584,
				"method": "rhf"
			},
			{
				"type": "occ",
				"energy": -0.21556,
				"method": "rhf"
			},
			{
				"type": "unocc",
				"energy": -0.0311,
				"method": "rhf"
			},
			{
				"type": "unocc",
				"energy": -0.01118,
				"method": "rhf"
			},
			{
				"type": "unocc",
				"energy": 0.01738,
				"method": "rhf"
			},
			{
				"type": "unocc",
				"energy": 0.06646,
				"method": "rhf"
			},
			{
				"type": "unocc",
				"energy": 0.07165,
				"method": "rhf"
			}
		],
		"cosmo_sigma_profile": { 
			"-0.025": 0.0,
			"-0.024": 0.0,
			"-0.023": 0.0,
			"-0.022": 0.0,
			"-0.021": 0.0,
			"-0.02": 0.0,
			"-0.019": 0.0,
			"-0.018": 0.0,
			"-0.017": 0.0,
			"-0.016": 0.0,
			"-0.015": 0.493558556859,
			"-0.014": 1.00462607738,
			"-0.013": 1.26082534889,
			"-0.012": 0.546450044813,
			"-0.011": 1.23998129773,
			"-0.01": 1.36810400905,
			"-0.009": 0.914102506771,
			"-0.008": 1.25661718569,
			"-0.007": 2.15042047241,
			"-0.006": 7.4515151166,
			"-0.005": 12.1038830462,
			"-0.004": 19.1149768922,
			"-0.003": 27.3456149762,
			"-0.002": 41.7479663425,
			"-0.001": 50.1276297022,
			"0.0": 44.5173510233,
			"0.001": 40.8083973652,
			"0.002": 27.6201459687,
			"0.003": 13.855760742,
			"0.004": 13.3852979499,
			"0.005": 12.5499822418,
			"0.006": 5.21394288109,
			"0.007": 3.14547966039,
			"0.008": 5.27786260319,
			"0.009": 7.68025680663,
			"0.01": 6.20729124067,
			"0.011": 1.47537815972,
			"0.012": 0.0,
			"0.013": 0.0,
			"0.014": 0.0,
			"0.015": 0.0,
			"0.016": 0.0,
			"0.017": 0.0,
			"0.018": 0.0,
			"0.019": 0.0,
			"0.02": 0.0,
			"0.021": 0.0,
			"0.022": 0.0,
			"0.023": 0.0,
			"0.024": 0.0,
			"0.025": 0.0
		}
	}
}
