{
	 "smiles": "COC1=CC=C(C=C1F)C(=O)CCC(O)=O", 
	 "Tm": 444.15, 
	 "num_atms": 27, 
	 "gaussian": { 
		 "optdone": 1, 
		 "sigma_profile": "yes", 
		 "theory": "DFT", 
		 "functional": "B3LYP", 
		 "basiset": "6-31G**", 
		 "properties": { 
			 "R2extent": 6293.2822, 
			 "electric_dipole_moment_norm": 8.2051562313, 
			 "electric_quadrupole_moment_norm": 17.9475708008, 
			 "total_energy": -826.532298093, 
			 "HOMO_LUMO_gap": 0.16716, 
			 "cosmo_polarized_energy": -16.68, 
			 "cosmo_cavitation_energy": 31.79, 
			 "cosmo_dispersion_energy": -23.24, 
			 "cosmo_repulsion_energy": 1.78, 
			 "cosmo_total_nonelectrostatic_energy": 10.33, 
			 "SMD_solvation_energy": 7.99 
		},
		"coords": [
			{
				"x": -2.1384500281,
				"y": 5.4986097721,
				"z": 2.9616854959,
				"element": "C" 
			},
			{
				"x": -1.0739085987,
				"y": 4.54149805,
				"z": 3.0435255825,
				"element": "O" 
			},
			{
				"x": -1.0008083599,
				"y": 3.4771058301,
				"z": 2.2183124361,
				"element": "C" 
			},
			{
				"x": 0.0816021296,
				"y": 2.6082111859,
				"z": 2.4441281686,
				"element": "C" 
			},
			{
				"x": 0.277599178,
				"y": 1.4784768131,
				"z": 1.6649175198,
				"element": "C" 
			},
			{
				"x": -0.6115827499,
				"y": 1.1658621652,
				"z": 0.6208177654,
				"element": "C" 
			},
			{
				"x": -1.6980198766,
				"y": 2.0254633694,
				"z": 0.3902311169,
				"element": "C" 
			},
			{
				"x": -1.8823033371,
				"y": 3.1513781649,
				"z": 1.1674671739,
				"element": "C" 
			},
			{
				"x": -2.9442907185,
				"y": 3.948827109,
				"z": 0.8966486158,
				"element": "F" 
			},
			{
				"x": -0.4744352266,
				"y": -0.0312269626,
				"z": -0.2419443279,
				"element": "C" 
			},
			{
				"x": -1.3073509261,
				"y": -0.2557053297,
				"z": -1.1242231182,
				"element": "O" 
			},
			{
				"x": 0.7050685254,
				"y": -0.9720659227,
				"z": -0.0284515565,
				"element": "C" 
			},
			{
				"x": 0.9078669498,
				"y": -2.0227229888,
				"z": -1.1372377528,
				"element": "C" 
			},
			{
				"x": -0.0443014578,
				"y": -3.2221237578,
				"z": -1.0798802417,
				"element": "C" 
			},
			{
				"x": -1.3390209968,
				"y": -2.9560965724,
				"z": -1.323057164,
				"element": "O" 
			},
			{
				"x": 0.3379096335,
				"y": -4.3440320494,
				"z": -0.8380100714,
				"element": "O" 
			},
			{
				"x": -2.1416797865,
				"y": 6.0109635526,
				"z": 1.9967009168,
				"element": "H" 
			},
			{
				"x": -1.9319034999,
				"y": 6.2136605324,
				"z": 3.7586561264,
				"element": "H" 
			},
			{
				"x": -3.1108221298,
				"y": 5.0291170851,
				"z": 3.129272805,
				"element": "H" 
			},
			{
				"x": 0.7583374307,
				"y": 2.8579894584,
				"z": 3.2541102046,
				"element": "H" 
			},
			{
				"x": 1.1254083464,
				"y": 0.8384637174,
				"z": 1.8818582203,
				"element": "H" 
			},
			{
				"x": -2.4007846448,
				"y": 1.8062613913,
				"z": -0.4055750517,
				"element": "H" 
			},
			{
				"x": 1.6133086296,
				"y": -0.3637801057,
				"z": 0.0519292702,
				"element": "H" 
			},
			{
				"x": 0.5898873021,
				"y": -1.4583529646,
				"z": 0.9500019576,
				"element": "H" 
			},
			{
				"x": 0.8153231336,
				"y": -1.5355882966,
				"z": -2.1150135127,
				"element": "H" 
			},
			{
				"x": 1.915836986,
				"y": -2.4321460731,
				"z": -1.056344931,
				"element": "H" 
			},
			{
				"x": -1.4523859079,
				"y": -1.9884471734,
				"z": -1.4550256477,
				"element": "H" 
			}
		],
		 "valence_orbital": [ 
			{
				"type": "occ",
				"energy": -0.29051,
				"method": "rhf"
			},
			{
				"type": "occ",
				"energy": -0.28235,
				"method": "rhf"
			},
			{
				"type": "occ",
				"energy": -0.27645,
				"method": "rhf"
			},
			{
				"type": "occ",
				"energy": -0.25094,
				"method": "rhf"
			},
			{
				"type": "occ",
				"energy": -0.24659,
				"method": "rhf"
			},
			{
				"type": "unocc",
				"energy": -0.07943,
				"method": "rhf"
			},
			{
				"type": "unocc",
				"energy": -0.0264,
				"method": "rhf"
			},
			{
				"type": "unocc",
				"energy": 0.02272,
				"method": "rhf"
			},
			{
				"type": "unocc",
				"energy": 0.02542,
				"method": "rhf"
			},
			{
				"type": "unocc",
				"energy": 0.05886,
				"method": "rhf"
			}
		],
		"cosmo_sigma_profile": { 
			"-0.025": 0.0,
			"-0.024": 0.0,
			"-0.023": 0.0,
			"-0.022": 0.0,
			"-0.021": 0.0,
			"-0.02": 0.0,
			"-0.019": 0.0,
			"-0.018": 0.0,
			"-0.017": 0.0,
			"-0.016": 0.0,
			"-0.015": 0.0,
			"-0.014": 0.0,
			"-0.013": 0.0,
			"-0.012": 0.0,
			"-0.011": 0.0,
			"-0.01": 0.0,
			"-0.009": 0.0740037366565,
			"-0.008": 4.68136966437,
			"-0.007": 14.4573836347,
			"-0.006": 20.6147719446,
			"-0.005": 23.0132388703,
			"-0.004": 21.0789466282,
			"-0.003": 20.3204065742,
			"-0.002": 12.9325332705,
			"-0.001": 14.1779586715,
			"0.0": 16.5889677092,
			"0.001": 19.107418996,
			"0.002": 17.2948187866,
			"0.003": 13.0277174916,
			"0.004": 10.0000491991,
			"0.005": 4.19061341137,
			"0.006": 4.70163241878,
			"0.007": 4.88014182795,
			"0.008": 5.31286797322,
			"0.009": 4.53272220445,
			"0.01": 4.49438588073,
			"0.011": 5.02551251402,
			"0.012": 6.52443341629,
			"0.013": 4.83222526049,
			"0.014": 1.38275439872,
			"0.015": 0.00623477555923,
			"0.016": 0.0,
			"0.017": 0.0,
			"0.018": 0.0,
			"0.019": 0.0,
			"0.02": 0.0,
			"0.021": 0.0,
			"0.022": 0.0,
			"0.023": 0.0,
			"0.024": 0.0,
			"0.025": 0.0
		}
	}
}
