{
	 "smiles": "CC1=CC(=C(C)S1)C1=NC2=C(C(C)=NO2)C(=C1)C(O)=O", 
	 "Tm": 530.15, 
	 "num_atms": 32, 
	 "gaussian": { 
		 "optdone": 1, 
		 "sigma_profile": "yes", 
		 "theory": "DFT", 
		 "functional": "B3LYP", 
		 "basiset": "6-31G**", 
		 "properties": { 
			 "R2extent": 7782.2882, 
			 "electric_dipole_moment_norm": 4.77043345096, 
			 "electric_quadrupole_moment_norm": 14.7558102665, 
			 "total_energy": -1274.06473382, 
			 "HOMO_LUMO_gap": 0.1321, 
			 "cosmo_polarized_energy": -14.56, 
			 "cosmo_cavitation_energy": 38.05, 
			 "cosmo_dispersion_energy": -28.0, 
			 "cosmo_repulsion_energy": 2.07, 
			 "cosmo_total_nonelectrostatic_energy": 12.12, 
			 "SMD_solvation_energy": 5.92 
		},
		"coords": [
			{
				"x": 2.2849268411,
				"y": -0.615515552,
				"z": 5.4140842078,
				"element": "C" 
			},
			{
				"x": 1.4300641876,
				"y": -0.3873010737,
				"z": 4.2039652513,
				"element": "C" 
			},
			{
				"x": 1.6887836697,
				"y": -0.7074093068,
				"z": 2.9059458787,
				"element": "C" 
			},
			{
				"x": 0.6364486796,
				"y": -0.3621980133,
				"z": 1.9849612826,
				"element": "C" 
			},
			{
				"x": -0.4322052964,
				"y": 0.2551248818,
				"z": 2.6111186382,
				"element": "C" 
			},
			{
				"x": -1.7047343764,
				"y": 0.8329202581,
				"z": 2.0575639236,
				"element": "C" 
			},
			{
				"x": -0.1367167426,
				"y": 0.3851707621,
				"z": 4.3245990175,
				"element": "S" 
			},
			{
				"x": 0.7784410993,
				"y": -0.6468695815,
				"z": 0.5456441961,
				"element": "C" 
			},
			{
				"x": 2.0408150492,
				"y": -0.7960967855,
				"z": 0.0995473596,
				"element": "N" 
			},
			{
				"x": 2.1614877823,
				"y": -1.0582396906,
				"z": -1.1880140533,
				"element": "C" 
			},
			{
				"x": 1.1500123139,
				"y": -1.2042619273,
				"z": -2.1550340328,
				"element": "C" 
			},
			{
				"x": 1.8854861793,
				"y": -1.4704704091,
				"z": -3.3697842052,
				"element": "C" 
			},
			{
				"x": 1.4324137683,
				"y": -1.7196676816,
				"z": -4.7741363005,
				"element": "C" 
			},
			{
				"x": 3.1753178652,
				"y": -1.4788389261,
				"z": -3.1280515397,
				"element": "N" 
			},
			{
				"x": 3.3733921812,
				"y": -1.2229221003,
				"z": -1.7583423485,
				"element": "O" 
			},
			{
				"x": -0.1709751889,
				"y": -1.0701555332,
				"z": -1.6765839624,
				"element": "C" 
			},
			{
				"x": -0.3355921167,
				"y": -0.7961200773,
				"z": -0.3197892037,
				"element": "C" 
			},
			{
				"x": -1.3590163768,
				"y": -1.2302558789,
				"z": -2.5638265439,
				"element": "C" 
			},
			{
				"x": -2.5305979657,
				"y": -1.0465016763,
				"z": -1.9102915788,
				"element": "O" 
			},
			{
				"x": -1.3179819841,
				"y": -1.4953756658,
				"z": -3.7476617657,
				"element": "O" 
			},
			{
				"x": 2.5318838764,
				"y": 0.322852862,
				"z": 5.9235840662,
				"element": "H" 
			},
			{
				"x": 3.2225931709,
				"y": -1.0919352211,
				"z": 5.1155925409,
				"element": "H" 
			},
			{
				"x": 1.7942159454,
				"y": -1.2674319753,
				"z": 6.1458525431,
				"element": "H" 
			},
			{
				"x": 2.6045493943,
				"y": -1.1831261538,
				"z": 2.5773562263,
				"element": "H" 
			},
			{
				"x": -1.5311653416,
				"y": 1.3189419844,
				"z": 1.0930194655,
				"element": "H" 
			},
			{
				"x": -2.4780817458,
				"y": 0.0678737335,
				"z": 1.9119468571,
				"element": "H" 
			},
			{
				"x": -2.1194173741,
				"y": 1.5837977747,
				"z": 2.7358050698,
				"element": "H" 
			},
			{
				"x": 2.3097609724,
				"y": -1.8672532996,
				"z": -5.4072893186,
				"element": "H" 
			},
			{
				"x": 0.7885782961,
				"y": -2.6001482706,
				"z": -4.8269574041,
				"element": "H" 
			},
			{
				"x": 0.8460359744,
				"y": -0.8785782392,
				"z": -5.1508477614,
				"element": "H" 
			},
			{
				"x": -1.3371898912,
				"y": -0.7285996887,
				"z": 0.0757699772,
				"element": "H" 
			},
			{
				"x": -3.2282328465,
				"y": -1.1779095292,
				"z": -2.5734464829,
				"element": "H" 
			}
		],
		 "valence_orbital": [ 
			{
				"type": "occ",
				"energy": -0.28247,
				"method": "rhf"
			},
			{
				"type": "occ",
				"energy": -0.27977,
				"method": "rhf"
			},
			{
				"type": "occ",
				"energy": -0.26912,
				"method": "rhf"
			},
			{
				"type": "occ",
				"energy": -0.24159,
				"method": "rhf"
			},
			{
				"type": "occ",
				"energy": -0.22129,
				"method": "rhf"
			},
			{
				"type": "unocc",
				"energy": -0.08919,
				"method": "rhf"
			},
			{
				"type": "unocc",
				"energy": -0.03932,
				"method": "rhf"
			},
			{
				"type": "unocc",
				"energy": -0.00084,
				"method": "rhf"
			},
			{
				"type": "unocc",
				"energy": 0.01893,
				"method": "rhf"
			},
			{
				"type": "unocc",
				"energy": 0.02235,
				"method": "rhf"
			}
		],
		"cosmo_sigma_profile": { 
			"-0.025": 0.0,
			"-0.024": 0.0,
			"-0.023": 0.0,
			"-0.022": 0.0,
			"-0.021": 0.0,
			"-0.02": 0.0,
			"-0.019": 0.449216958916,
			"-0.018": 1.00366604354,
			"-0.017": 1.09194548749,
			"-0.016": 0.752921276406,
			"-0.015": 0.629467001336,
			"-0.014": 0.430942858299,
			"-0.013": 0.605971656922,
			"-0.012": 0.996361338523,
			"-0.011": 1.12517463913,
			"-0.01": 0.44085294181,
			"-0.009": 0.370485129772,
			"-0.008": 1.0193414688,
			"-0.007": 2.03625067771,
			"-0.006": 4.68377613515,
			"-0.005": 18.1473143929,
			"-0.004": 25.8868309434,
			"-0.003": 33.8849211285,
			"-0.002": 36.5152122079,
			"-0.001": 35.3940284645,
			"0.0": 21.7772382688,
			"0.001": 16.4056424154,
			"0.002": 15.0127508991,
			"0.003": 17.3439726244,
			"0.004": 18.2395264939,
			"0.005": 12.5816076956,
			"0.006": 8.48431317433,
			"0.007": 7.76987401126,
			"0.008": 7.71970523935,
			"0.009": 4.55509495932,
			"0.01": 4.32719569288,
			"0.011": 3.80362840512,
			"0.012": 1.53213308434,
			"0.013": 1.11840104455,
			"0.014": 0.272402014652,
			"0.015": 0.0,
			"0.016": 0.0,
			"0.017": 0.0,
			"0.018": 0.0,
			"0.019": 0.0,
			"0.02": 0.0,
			"0.021": 0.0,
			"0.022": 0.0,
			"0.023": 0.0,
			"0.024": 0.0,
			"0.025": 0.0
		}
	}
}
