{
	 "smiles": "CC1=CC=C(C=C1)C1=NNC(S)=NC1=O", 
	 "Tm": 499.15, 
	 "num_atms": 24, 
	 "gaussian": { 
		 "optdone": 1, 
		 "sigma_profile": "yes", 
		 "theory": "DFT", 
		 "functional": "B3LYP", 
		 "basiset": "6-31G**", 
		 "properties": { 
			 "R2extent": 5223.245, 
			 "electric_dipole_moment_norm": 3.85522560948, 
			 "electric_quadrupole_moment_norm": 21.9725518049, 
			 "total_energy": -1024.1304328, 
			 "HOMO_LUMO_gap": 0.16206, 
			 "cosmo_polarized_energy": -17.59, 
			 "cosmo_cavitation_energy": 30.43, 
			 "cosmo_dispersion_energy": -23.32, 
			 "cosmo_repulsion_energy": 1.77, 
			 "cosmo_total_nonelectrostatic_energy": 8.88, 
			 "SMD_solvation_energy": 3.4 
		},
		"coords": [
			{
				"x": -3.9954549808,
				"y": -1.3180023963,
				"z": 2.0418655573,
				"element": "C" 
			},
			{
				"x": -2.6395641282,
				"y": -0.8649861246,
				"z": 1.5583985949,
				"element": "C" 
			},
			{
				"x": -2.3309275826,
				"y": 0.4913767273,
				"z": 1.4182811095,
				"element": "C" 
			},
			{
				"x": -1.0889304786,
				"y": 0.9154356335,
				"z": 0.9455885719,
				"element": "C" 
			},
			{
				"x": -0.1017346925,
				"y": -0.0236725283,
				"z": 0.6008532379,
				"element": "C" 
			},
			{
				"x": -0.409837887,
				"y": -1.392581131,
				"z": 0.7425954928,
				"element": "C" 
			},
			{
				"x": -1.6502555237,
				"y": -1.8001318959,
				"z": 1.2112222654,
				"element": "C" 
			},
			{
				"x": 1.2433579824,
				"y": 0.3683527558,
				"z": 0.1205610804,
				"element": "C" 
			},
			{
				"x": 2.1605844336,
				"y": -0.5619915967,
				"z": 0.1499230391,
				"element": "N" 
			},
			{
				"x": 3.3884199527,
				"y": -0.2515033883,
				"z": -0.3244811668,
				"element": "N" 
			},
			{
				"x": 3.6919264248,
				"y": 0.9643266865,
				"z": -0.8473277115,
				"element": "C" 
			},
			{
				"x": 5.3604024723,
				"y": 1.129223591,
				"z": -1.4688446699,
				"element": "S" 
			},
			{
				"x": 2.849038768,
				"y": 1.941368651,
				"z": -0.9042091132,
				"element": "N" 
			},
			{
				"x": 1.5599946284,
				"y": 1.7516399967,
				"z": -0.389630428,
				"element": "C" 
			},
			{
				"x": 0.7589804446,
				"y": 2.6728047114,
				"z": -0.3731019808,
				"element": "O" 
			},
			{
				"x": -3.9095709929,
				"y": -2.1343870538,
				"z": 2.7667839683,
				"element": "H" 
			},
			{
				"x": -4.6070593396,
				"y": -1.6899545631,
				"z": 1.2102942945,
				"element": "H" 
			},
			{
				"x": -4.5459893454,
				"y": -0.4999839887,
				"z": 2.5145245308,
				"element": "H" 
			},
			{
				"x": -3.0754411223,
				"y": 1.2379245225,
				"z": 1.6832686671,
				"element": "H" 
			},
			{
				"x": -0.8789720243,
				"y": 1.9699231113,
				"z": 0.8364780915,
				"element": "H" 
			},
			{
				"x": 0.3385895044,
				"y": -2.1311734437,
				"z": 0.4784970014,
				"element": "H" 
			},
			{
				"x": -1.8611163353,
				"y": -2.8626744727,
				"z": 1.3071773826,
				"element": "H" 
			},
			{
				"x": 4.061642011,
				"y": -1.0029017029,
				"z": -0.266935507,
				"element": "H" 
			},
			{
				"x": 5.1793178109,
				"y": 2.4213678989,
				"z": -1.795882308,
				"element": "H" 
			}
		],
		 "valence_orbital": [ 
			{
				"type": "occ",
				"energy": -0.28456,
				"method": "rhf"
			},
			{
				"type": "occ",
				"energy": -0.26967,
				"method": "rhf"
			},
			{
				"type": "occ",
				"energy": -0.24891,
				"method": "rhf"
			},
			{
				"type": "occ",
				"energy": -0.24405,
				"method": "rhf"
			},
			{
				"type": "occ",
				"energy": -0.22852,
				"method": "rhf"
			},
			{
				"type": "unocc",
				"energy": -0.06646,
				"method": "rhf"
			},
			{
				"type": "unocc",
				"energy": -0.03761,
				"method": "rhf"
			},
			{
				"type": "unocc",
				"energy": -0.01961,
				"method": "rhf"
			},
			{
				"type": "unocc",
				"energy": 0.00141,
				"method": "rhf"
			},
			{
				"type": "unocc",
				"energy": 0.01609,
				"method": "rhf"
			}
		],
		"cosmo_sigma_profile": { 
			"-0.025": 0.0,
			"-0.024": 0.0,
			"-0.023": 0.0,
			"-0.022": 0.0,
			"-0.021": 0.0,
			"-0.02": 0.0,
			"-0.019": 0.470957161464,
			"-0.018": 1.48199356261,
			"-0.017": 1.39486799351,
			"-0.016": 1.22850862441,
			"-0.015": 1.07710002101,
			"-0.014": 0.848995285515,
			"-0.013": 1.17598160142,
			"-0.012": 2.78204985211,
			"-0.011": 2.25970916534,
			"-0.01": 1.72592727859,
			"-0.009": 2.44307618685,
			"-0.008": 2.33875539584,
			"-0.007": 2.83165004274,
			"-0.006": 5.45782922479,
			"-0.005": 10.9516333622,
			"-0.004": 19.8590960555,
			"-0.003": 19.9698866993,
			"-0.002": 19.1132790718,
			"-0.001": 18.6274934572,
			"0.0": 21.3145744409,
			"0.001": 17.2281162863,
			"0.002": 14.9419324351,
			"0.003": 14.2630624384,
			"0.004": 15.6627416108,
			"0.005": 16.3288841561,
			"0.006": 6.45521917412,
			"0.007": 3.39459071789,
			"0.008": 2.53676787912,
			"0.009": 1.9245824477,
			"0.01": 2.85755326433,
			"0.011": 2.82818328579,
			"0.012": 3.27529227673,
			"0.013": 3.49077366774,
			"0.014": 2.88613637003,
			"0.015": 1.33124232478,
			"0.016": 0.0,
			"0.017": 0.0,
			"0.018": 0.0,
			"0.019": 0.0,
			"0.02": 0.0,
			"0.021": 0.0,
			"0.022": 0.0,
			"0.023": 0.0,
			"0.024": 0.0,
			"0.025": 0.0
		}
	}
}
