{
	 "smiles": "OC(=O)C1(CC1)C1=C(F)C=CC=C1", 
	 "Tm": 380.15, 
	 "num_atms": 22, 
	 "gaussian": { 
		 "optdone": 1, 
		 "sigma_profile": "yes", 
		 "theory": "DFT", 
		 "functional": "B3LYP", 
		 "basiset": "6-31G**", 
		 "properties": { 
			 "R2extent": 2342.4256, 
			 "electric_dipole_moment_norm": 5.40055643892, 
			 "electric_quadrupole_moment_norm": 13.7426859456, 
			 "total_energy": -636.75355752, 
			 "HOMO_LUMO_gap": 0.22011, 
			 "cosmo_polarized_energy": -12.3, 
			 "cosmo_cavitation_energy": 26.28, 
			 "cosmo_dispersion_energy": -18.44, 
			 "cosmo_repulsion_energy": 1.43, 
			 "cosmo_total_nonelectrostatic_energy": 9.27, 
			 "SMD_solvation_energy": 5.91 
		},
		"coords": [
			{
				"x": 1.6525935933,
				"y": 2.4708166295,
				"z": 0.5392696922,
				"element": "O" 
			},
			{
				"x": 2.2634007232,
				"y": 1.2661795199,
				"z": 0.4557252228,
				"element": "C" 
			},
			{
				"x": 3.4597002742,
				"y": 1.1740796948,
				"z": 0.6066602418,
				"element": "O" 
			},
			{
				"x": 1.37264557,
				"y": 0.0718103655,
				"z": 0.1848379467,
				"element": "C" 
			},
			{
				"x": 1.8134404736,
				"y": -1.2012706614,
				"z": 0.9073127995,
				"element": "C" 
			},
			{
				"x": 2.0655216302,
				"y": -1.0643370012,
				"z": -0.5558815678,
				"element": "C" 
			},
			{
				"x": -0.0904290301,
				"y": 0.3206234086,
				"z": -0.0418730253,
				"element": "C" 
			},
			{
				"x": -0.5786216256,
				"y": 0.6372841379,
				"z": -1.3171663834,
				"element": "C" 
			},
			{
				"x": 0.2918290025,
				"y": 0.7008892476,
				"z": -2.3458362928,
				"element": "F" 
			},
			{
				"x": -1.9222244035,
				"y": 0.8882670556,
				"z": -1.5702588124,
				"element": "C" 
			},
			{
				"x": -2.8283350845,
				"y": 0.8320101369,
				"z": -0.5109050766,
				"element": "C" 
			},
			{
				"x": -2.3822312279,
				"y": 0.5280287334,
				"z": 0.7774864139,
				"element": "C" 
			},
			{
				"x": -1.0287078775,
				"y": 0.2758854433,
				"z": 1.0029689704,
				"element": "C" 
			},
			{
				"x": 0.6972735472,
				"y": 2.3608939611,
				"z": 0.4113303188,
				"element": "H" 
			},
			{
				"x": 2.6593367636,
				"y": -1.0967809056,
				"z": 1.5777784451,
				"element": "H" 
			},
			{
				"x": 1.0263935246,
				"y": -1.8714443034,
				"z": 1.2381763652,
				"element": "H" 
			},
			{
				"x": 3.081248891,
				"y": -0.8644614398,
				"z": -0.8782254422,
				"element": "H" 
			},
			{
				"x": 1.4535976677,
				"y": -1.6358375517,
				"z": -1.2454886245,
				"element": "H" 
			},
			{
				"x": -2.2346779839,
				"y": 1.1217829641,
				"z": -2.5823102052,
				"element": "H" 
			},
			{
				"x": -3.8805147452,
				"y": 1.0266465876,
				"z": -0.6945309185,
				"element": "H" 
			},
			{
				"x": -3.0858068271,
				"y": 0.4841965326,
				"z": 1.6027579934,
				"element": "H" 
			},
			{
				"x": -0.6789328558,
				"y": 0.0315374446,
				"z": 2.0020719387,
				"element": "H" 
			}
		],
		 "valence_orbital": [ 
			{
				"type": "occ",
				"energy": -0.31534,
				"method": "rhf"
			},
			{
				"type": "occ",
				"energy": -0.29445,
				"method": "rhf"
			},
			{
				"type": "occ",
				"energy": -0.28572,
				"method": "rhf"
			},
			{
				"type": "occ",
				"energy": -0.26749,
				"method": "rhf"
			},
			{
				"type": "occ",
				"energy": -0.25393,
				"method": "rhf"
			},
			{
				"type": "unocc",
				"energy": -0.03382,
				"method": "rhf"
			},
			{
				"type": "unocc",
				"energy": -0.01943,
				"method": "rhf"
			},
			{
				"type": "unocc",
				"energy": 0.01377,
				"method": "rhf"
			},
			{
				"type": "unocc",
				"energy": 0.07024,
				"method": "rhf"
			},
			{
				"type": "unocc",
				"energy": 0.08808,
				"method": "rhf"
			}
		],
		"cosmo_sigma_profile": { 
			"-0.025": 0.0,
			"-0.024": 0.0,
			"-0.023": 0.0,
			"-0.022": 0.0,
			"-0.021": 0.0,
			"-0.02": 0.0,
			"-0.019": 0.0,
			"-0.018": 0.0,
			"-0.017": 0.0,
			"-0.016": 0.0,
			"-0.015": 0.183780491715,
			"-0.014": 0.688769503308,
			"-0.013": 0.509403263264,
			"-0.012": 0.569901795943,
			"-0.011": 1.19243443148,
			"-0.01": 0.87184716772,
			"-0.009": 0.925532529738,
			"-0.008": 1.41275087951,
			"-0.007": 5.7382908089,
			"-0.006": 12.2919404589,
			"-0.005": 17.6105177538,
			"-0.004": 17.9141567066,
			"-0.003": 14.13065144,
			"-0.002": 15.8752520985,
			"-0.001": 16.1099508555,
			"0.0": 16.135423388,
			"0.001": 12.6736199799,
			"0.002": 14.8959932268,
			"0.003": 14.039734922,
			"0.004": 15.6289750967,
			"0.005": 3.60943183331,
			"0.006": 2.20523441868,
			"0.007": 2.68271987115,
			"0.008": 2.35825927213,
			"0.009": 2.95660342415,
			"0.01": 4.40066842519,
			"0.011": 4.27565002499,
			"0.012": 5.12304600369,
			"0.013": 2.2975092516,
			"0.014": 0.295190090985,
			"0.015": 0.0,
			"0.016": 0.0,
			"0.017": 0.0,
			"0.018": 0.0,
			"0.019": 0.0,
			"0.02": 0.0,
			"0.021": 0.0,
			"0.022": 0.0,
			"0.023": 0.0,
			"0.024": 0.0,
			"0.025": 0.0
		}
	}
}
