{
	 "smiles": "NC1=NC(=C(S1)C1=CC=CC=C1)C1=CC=CC=C1", 
	 "Tm": 455.15, 
	 "num_atms": 30, 
	 "gaussian": { 
		 "optdone": 1, 
		 "sigma_profile": "yes", 
		 "theory": "DFT", 
		 "functional": "B3LYP", 
		 "basiset": "6-31G**", 
		 "properties": { 
			 "R2extent": 5897.4185, 
			 "electric_dipole_moment_norm": 1.67244836393, 
			 "electric_quadrupole_moment_norm": 15.640786033, 
			 "total_energy": -1086.52562367, 
			 "HOMO_LUMO_gap": 0.15733, 
			 "cosmo_polarized_energy": -12.26, 
			 "cosmo_cavitation_energy": 35.53, 
			 "cosmo_dispersion_energy": -25.77, 
			 "cosmo_repulsion_energy": 1.97, 
			 "cosmo_total_nonelectrostatic_energy": 11.73, 
			 "SMD_solvation_energy": 4.17 
		},
		"coords": [
			{
				"x": 3.8655510963,
				"y": -2.0348918911,
				"z": -2.9466359535,
				"element": "N" 
			},
			{
				"x": 2.8320932283,
				"y": -1.2776474818,
				"z": -2.4414701811,
				"element": "C" 
			},
			{
				"x": 2.9501758293,
				"y": -0.4855259658,
				"z": -1.4183161583,
				"element": "N" 
			},
			{
				"x": 1.7325956985,
				"y": 0.0755637781,
				"z": -1.0593942866,
				"element": "C" 
			},
			{
				"x": 0.6573907021,
				"y": -0.2661769354,
				"z": -1.8536420055,
				"element": "C" 
			},
			{
				"x": 1.2000262289,
				"y": -1.4105458184,
				"z": -3.0897557657,
				"element": "S" 
			},
			{
				"x": -0.7359975364,
				"y": 0.2122714307,
				"z": -1.888933602,
				"element": "C" 
			},
			{
				"x": -1.8046292683,
				"y": -0.6888090304,
				"z": -2.0454687544,
				"element": "C" 
			},
			{
				"x": -3.1205237339,
				"y": -0.2320113895,
				"z": -2.1146153115,
				"element": "C" 
			},
			{
				"x": -3.3963187532,
				"y": 1.1330425512,
				"z": -2.0232348807,
				"element": "C" 
			},
			{
				"x": -2.3436171898,
				"y": 2.0390830174,
				"z": -1.8699634555,
				"element": "C" 
			},
			{
				"x": -1.0273933979,
				"y": 1.5870005374,
				"z": -1.812001444,
				"element": "C" 
			},
			{
				"x": 1.7243159197,
				"y": 0.9532219633,
				"z": 0.1337454008,
				"element": "C" 
			},
			{
				"x": 0.6213789581,
				"y": 1.0282866081,
				"z": 1.000997481,
				"element": "C" 
			},
			{
				"x": 0.6584100505,
				"y": 1.8490413563,
				"z": 2.1269262392,
				"element": "C" 
			},
			{
				"x": 1.7977985323,
				"y": 2.6043392971,
				"z": 2.4130489653,
				"element": "C" 
			},
			{
				"x": 2.9061999786,
				"y": 2.5235802347,
				"z": 1.5674841111,
				"element": "C" 
			},
			{
				"x": 2.8729205993,
				"y": 1.7021583174,
				"z": 0.4422493826,
				"element": "C" 
			},
			{
				"x": 4.7695785824,
				"y": -1.7420502144,
				"z": -2.5987438431,
				"element": "H" 
			},
			{
				"x": 3.8501815406,
				"y": -2.2254593182,
				"z": -3.9385465712,
				"element": "H" 
			},
			{
				"x": -1.5992980008,
				"y": -1.7542019824,
				"z": -2.1003324709,
				"element": "H" 
			},
			{
				"x": -3.9308693629,
				"y": -0.9456534537,
				"z": -2.2338570709,
				"element": "H" 
			},
			{
				"x": -4.4211726094,
				"y": 1.4889417422,
				"z": -2.0747932499,
				"element": "H" 
			},
			{
				"x": -2.546992329,
				"y": 3.1044715214,
				"z": -1.8081053909,
				"element": "H" 
			},
			{
				"x": -0.2124933886,
				"y": 2.2959437088,
				"z": -1.7108954596,
				"element": "H" 
			},
			{
				"x": -0.2607596235,
				"y": 0.4305667397,
				"z": 0.8005095411,
				"element": "H" 
			},
			{
				"x": -0.2023154302,
				"y": 1.8895817473,
				"z": 2.7886399221,
				"element": "H" 
			},
			{
				"x": 1.8247465686,
				"y": 3.2421195113,
				"z": 3.2920432233,
				"element": "H" 
			},
			{
				"x": 3.8012851119,
				"y": 3.0993667308,
				"z": 1.78637712,
				"element": "H" 
			},
			{
				"x": 3.7368319984,
				"y": 1.6231926878,
				"z": -0.208615531,
				"element": "H" 
			}
		],
		 "valence_orbital": [ 
			{
				"type": "occ",
				"energy": -0.25274,
				"method": "rhf"
			},
			{
				"type": "occ",
				"energy": -0.25241,
				"method": "rhf"
			},
			{
				"type": "occ",
				"energy": -0.24219,
				"method": "rhf"
			},
			{
				"type": "occ",
				"energy": -0.23996,
				"method": "rhf"
			},
			{
				"type": "occ",
				"energy": -0.19389,
				"method": "rhf"
			},
			{
				"type": "unocc",
				"energy": -0.03656,
				"method": "rhf"
			},
			{
				"type": "unocc",
				"energy": -0.00868,
				"method": "rhf"
			},
			{
				"type": "unocc",
				"energy": 0.00441,
				"method": "rhf"
			},
			{
				"type": "unocc",
				"energy": 0.01057,
				"method": "rhf"
			},
			{
				"type": "unocc",
				"energy": 0.01184,
				"method": "rhf"
			}
		],
		"cosmo_sigma_profile": { 
			"-0.025": 0.0,
			"-0.024": 0.0,
			"-0.023": 0.0,
			"-0.022": 0.0,
			"-0.021": 0.0,
			"-0.02": 0.0,
			"-0.019": 0.0,
			"-0.018": 0.0,
			"-0.017": 0.0,
			"-0.016": 0.0,
			"-0.015": 0.571857589502,
			"-0.014": 1.81759772091,
			"-0.013": 2.46130985115,
			"-0.012": 2.67269143421,
			"-0.011": 2.25652242509,
			"-0.01": 3.208630499,
			"-0.009": 1.85288799964,
			"-0.008": 1.68139282759,
			"-0.007": 1.71341528786,
			"-0.006": 8.46295283421,
			"-0.005": 18.8687435758,
			"-0.004": 23.3810625572,
			"-0.003": 20.9442957741,
			"-0.002": 16.3922853127,
			"-0.001": 18.661875204,
			"0.0": 17.3642529095,
			"0.001": 20.0289266072,
			"0.002": 27.5143050972,
			"0.003": 27.5346317136,
			"0.004": 23.645577268,
			"0.005": 22.3253948828,
			"0.006": 11.8435168162,
			"0.007": 2.52738157774,
			"0.008": 1.86366568836,
			"0.009": 1.90256641504,
			"0.01": 1.91430452446,
			"0.011": 1.47062662016,
			"0.012": 1.03801860653,
			"0.013": 0.786696195594,
			"0.014": 0.280586391625,
			"0.015": 0.0131418769744,
			"0.016": 0.0,
			"0.017": 0.0,
			"0.018": 0.0,
			"0.019": 0.0,
			"0.02": 0.0,
			"0.021": 0.0,
			"0.022": 0.0,
			"0.023": 0.0,
			"0.024": 0.0,
			"0.025": 0.0
		}
	}
}
