{
	 "smiles": "CC(C)C1=NOC(N)=N1", 
	 "Tm": 375.15, 
	 "num_atms": 18, 
	 "gaussian": { 
		 "optdone": 1, 
		 "sigma_profile": "yes", 
		 "theory": "DFT", 
		 "functional": "B3LYP", 
		 "basiset": "6-31G**", 
		 "properties": { 
			 "R2extent": 2368.845, 
			 "electric_dipole_moment_norm": 2.73143927445, 
			 "electric_quadrupole_moment_norm": 20.1681266274, 
			 "total_energy": -435.412841729, 
			 "HOMO_LUMO_gap": 0.25055, 
			 "cosmo_polarized_energy": -12.22, 
			 "cosmo_cavitation_energy": 21.68, 
			 "cosmo_dispersion_energy": -16.13, 
			 "cosmo_repulsion_energy": 1.36, 
			 "cosmo_total_nonelectrostatic_energy": 6.9, 
			 "SMD_solvation_energy": 2.44 
		},
		"coords": [
			{
				"x": -2.2614175789,
				"y": -0.9423895666,
				"z": -1.7550818571,
				"element": "C" 
			},
			{
				"x": -1.3331098638,
				"y": 0.1954302903,
				"z": -1.2878931741,
				"element": "C" 
			},
			{
				"x": -1.2717320745,
				"y": 1.3414119624,
				"z": -2.3053124824,
				"element": "C" 
			},
			{
				"x": -1.741375155,
				"y": 0.6631142163,
				"z": 0.0834716864,
				"element": "C" 
			},
			{
				"x": -2.107548897,
				"y": 1.8964480151,
				"z": 0.3286329183,
				"element": "N" 
			},
			{
				"x": -2.4040894966,
				"y": 1.8679067055,
				"z": 1.7290635778,
				"element": "O" 
			},
			{
				"x": -2.1684664707,
				"y": 0.6080118598,
				"z": 2.1206797584,
				"element": "C" 
			},
			{
				"x": -2.4186132999,
				"y": 0.2926050976,
				"z": 3.4188116484,
				"element": "N" 
			},
			{
				"x": -1.7567171449,
				"y": -0.1883154055,
				"z": 1.1694522318,
				"element": "N" 
			},
			{
				"x": -2.294839738,
				"y": -1.7481576107,
				"z": -1.0175933783,
				"element": "H" 
			},
			{
				"x": -3.2815079849,
				"y": -0.5722239104,
				"z": -1.9049181676,
				"element": "H" 
			},
			{
				"x": -1.906916588,
				"y": -1.3532602538,
				"z": -2.7058238496,
				"element": "H" 
			},
			{
				"x": -0.3257391344,
				"y": -0.2284546813,
				"z": -1.1704499134,
				"element": "H" 
			},
			{
				"x": -0.5889130563,
				"y": 2.1307599937,
				"z": -1.9800805149,
				"element": "H" 
			},
			{
				"x": -0.928886066,
				"y": 0.9634917773,
				"z": -3.2735369671,
				"element": "H" 
			},
			{
				"x": -2.2579625631,
				"y": 1.7945029437,
				"z": -2.4443457277,
				"element": "H" 
			},
			{
				"x": -2.0122641548,
				"y": -0.57248483,
				"z": 3.7402696511,
				"element": "H" 
			},
			{
				"x": -2.4415007332,
				"y": 1.0535033966,
				"z": 4.08055456,
				"element": "H" 
			}
		],
		 "valence_orbital": [ 
			{
				"type": "occ",
				"energy": -0.33894,
				"method": "rhf"
			},
			{
				"type": "occ",
				"energy": -0.32816,
				"method": "rhf"
			},
			{
				"type": "occ",
				"energy": -0.30161,
				"method": "rhf"
			},
			{
				"type": "occ",
				"energy": -0.28181,
				"method": "rhf"
			},
			{
				"type": "occ",
				"energy": -0.2412,
				"method": "rhf"
			},
			{
				"type": "unocc",
				"energy": 0.00935,
				"method": "rhf"
			},
			{
				"type": "unocc",
				"energy": 0.05436,
				"method": "rhf"
			},
			{
				"type": "unocc",
				"energy": 0.06549,
				"method": "rhf"
			},
			{
				"type": "unocc",
				"energy": 0.0972,
				"method": "rhf"
			},
			{
				"type": "unocc",
				"energy": 0.11354,
				"method": "rhf"
			}
		],
		"cosmo_sigma_profile": { 
			"-0.025": 0.0,
			"-0.024": 0.0,
			"-0.023": 0.0,
			"-0.022": 0.0,
			"-0.021": 0.0,
			"-0.02": 0.0,
			"-0.019": 0.0,
			"-0.018": 0.0,
			"-0.017": 0.0,
			"-0.016": 0.33141995913,
			"-0.015": 2.53775830123,
			"-0.014": 2.67502922802,
			"-0.013": 2.69692674067,
			"-0.012": 2.36646328749,
			"-0.011": 1.86767198348,
			"-0.01": 1.83466744858,
			"-0.009": 1.83229586544,
			"-0.008": 1.63152341011,
			"-0.007": 1.99767808287,
			"-0.006": 1.30726874015,
			"-0.005": 2.50577075339,
			"-0.004": 6.73724449559,
			"-0.003": 16.340755837,
			"-0.002": 19.0183499466,
			"-0.001": 18.2376401427,
			"0.0": 17.700941176,
			"0.001": 15.3892170989,
			"0.002": 6.63456270795,
			"0.003": 5.08221811514,
			"0.004": 4.69492174386,
			"0.005": 5.21592217881,
			"0.006": 4.40697367859,
			"0.007": 5.93507731353,
			"0.008": 6.37833248888,
			"0.009": 2.65855801581,
			"0.01": 3.51382033773,
			"0.011": 1.7338761214,
			"0.012": 2.36842930592,
			"0.013": 1.96634521369,
			"0.014": 1.73368287524,
			"0.015": 0.744351508282,
			"0.016": 0.0864318877994,
			"0.017": 0.0,
			"0.018": 0.0,
			"0.019": 0.0,
			"0.02": 0.0,
			"0.021": 0.0,
			"0.022": 0.0,
			"0.023": 0.0,
			"0.024": 0.0,
			"0.025": 0.0
		}
	}
}
