{
	 "smiles": "CN(C(=O)C(C)(C)C)C1=CC=C(O)C=C1", 
	 "Tm": 463.15, 
	 "num_atms": 32, 
	 "gaussian": { 
		 "optdone": 1, 
		 "sigma_profile": "yes", 
		 "theory": "DFT", 
		 "functional": "B3LYP", 
		 "basiset": "6-31G**", 
		 "properties": { 
			 "R2extent": 3738.6209, 
			 "electric_dipole_moment_norm": 3.73055562886, 
			 "electric_quadrupole_moment_norm": 14.671894498, 
			 "total_energy": -672.730794332, 
			 "HOMO_LUMO_gap": 0.20686, 
			 "cosmo_polarized_energy": -13.45, 
			 "cosmo_cavitation_energy": 33.37, 
			 "cosmo_dispersion_energy": -22.93, 
			 "cosmo_repulsion_energy": 1.79, 
			 "cosmo_total_nonelectrostatic_energy": 12.23, 
			 "SMD_solvation_energy": 6.8 
		},
		"coords": [
			{
				"x": 0.0378348389,
				"y": 2.2658277795,
				"z": 2.0907972715,
				"element": "C" 
			},
			{
				"x": -0.5443015149,
				"y": 1.5178322279,
				"z": 0.9657673042,
				"element": "N" 
			},
			{
				"x": -1.9132165116,
				"y": 1.6764484031,
				"z": 0.7870412646,
				"element": "C" 
			},
			{
				"x": -2.534237888,
				"y": 2.3794801497,
				"z": 1.5803177387,
				"element": "O" 
			},
			{
				"x": -2.677495344,
				"y": 1.0432337044,
				"z": -0.4146130921,
				"element": "C" 
			},
			{
				"x": -3.3654462119,
				"y": -0.2506135786,
				"z": 0.0807087114,
				"element": "C" 
			},
			{
				"x": -3.7748652061,
				"y": 2.0610325544,
				"z": -0.8040376207,
				"element": "C" 
			},
			{
				"x": -1.8376025619,
				"y": 0.7472199438,
				"z": -1.6725698767,
				"element": "C" 
			},
			{
				"x": 0.2581322168,
				"y": 0.4310621341,
				"z": 0.4837503549,
				"element": "C" 
			},
			{
				"x": 1.308011937,
				"y": 0.6770458881,
				"z": -0.4125827492,
				"element": "C" 
			},
			{
				"x": 2.1346230887,
				"y": -0.3530186784,
				"z": -0.8450076193,
				"element": "C" 
			},
			{
				"x": 1.924065627,
				"y": -1.6578827469,
				"z": -0.3794567289,
				"element": "C" 
			},
			{
				"x": 2.7594565426,
				"y": -2.6314603311,
				"z": -0.8441277299,
				"element": "O" 
			},
			{
				"x": 0.8927864207,
				"y": -1.9123742476,
				"z": 0.5301274272,
				"element": "C" 
			},
			{
				"x": 0.0769023243,
				"y": -0.868051203,
				"z": 0.9679509019,
				"element": "C" 
			},
			{
				"x": -0.1476199338,
				"y": 1.7657712026,
				"z": 3.0498216406,
				"element": "H" 
			},
			{
				"x": -0.4100187471,
				"y": 3.2581343165,
				"z": 2.1356050758,
				"element": "H" 
			},
			{
				"x": 1.1155861919,
				"y": 2.3437117822,
				"z": 1.9349917836,
				"element": "H" 
			},
			{
				"x": -4.0361807777,
				"y": -0.6349374916,
				"z": -0.6957879195,
				"element": "H" 
			},
			{
				"x": -2.6393006649,
				"y": -1.0359265884,
				"z": 0.3098733672,
				"element": "H" 
			},
			{
				"x": -3.9599634254,
				"y": -0.0526457677,
				"z": 0.977607524,
				"element": "H" 
			},
			{
				"x": -4.3916427238,
				"y": 2.319394896,
				"z": 0.0568308538,
				"element": "H" 
			},
			{
				"x": -3.333993815,
				"y": 2.9863270007,
				"z": -1.1898072293,
				"element": "H" 
			},
			{
				"x": -4.4086708262,
				"y": 1.6344924782,
				"z": -1.588746253,
				"element": "H" 
			},
			{
				"x": -1.2435280462,
				"y": 1.6164165024,
				"z": -1.9728744345,
				"element": "H" 
			},
			{
				"x": -2.5156521955,
				"y": 0.5103141529,
				"z": -2.500142706,
				"element": "H" 
			},
			{
				"x": -1.1631056388,
				"y": -0.1004575064,
				"z": -1.550708024,
				"element": "H" 
			},
			{
				"x": 1.4604924345,
				"y": 1.6872423804,
				"z": -0.780273597,
				"element": "H" 
			},
			{
				"x": 2.9427801407,
				"y": -0.1709779079,
				"z": -1.5454701837,
				"element": "H" 
			},
			{
				"x": 2.5138200029,
				"y": -3.4784014951,
				"z": -0.4497749469,
				"element": "H" 
			},
			{
				"x": 0.7342970015,
				"y": -2.9204680569,
				"z": 0.9073464375,
				"element": "H" 
			},
			{
				"x": -0.7051467346,
				"y": -1.0625718976,
				"z": 1.6951430541,
				"element": "H" 
			}
		],
		 "valence_orbital": [ 
			{
				"type": "occ",
				"energy": -0.31496,
				"method": "rhf"
			},
			{
				"type": "occ",
				"energy": -0.26511,
				"method": "rhf"
			},
			{
				"type": "occ",
				"energy": -0.25336,
				"method": "rhf"
			},
			{
				"type": "occ",
				"energy": -0.23202,
				"method": "rhf"
			},
			{
				"type": "occ",
				"energy": -0.22377,
				"method": "rhf"
			},
			{
				"type": "unocc",
				"energy": -0.01691,
				"method": "rhf"
			},
			{
				"type": "unocc",
				"energy": -0.00515,
				"method": "rhf"
			},
			{
				"type": "unocc",
				"energy": 0.02989,
				"method": "rhf"
			},
			{
				"type": "unocc",
				"energy": 0.0615,
				"method": "rhf"
			},
			{
				"type": "unocc",
				"energy": 0.08325,
				"method": "rhf"
			}
		],
		"cosmo_sigma_profile": { 
			"-0.025": 0.0,
			"-0.024": 0.0,
			"-0.023": 0.0,
			"-0.022": 0.0,
			"-0.021": 0.0,
			"-0.02": 0.0,
			"-0.019": 0.0,
			"-0.018": 0.535199533803,
			"-0.017": 1.06399744803,
			"-0.016": 1.14423453581,
			"-0.015": 1.29598856743,
			"-0.014": 1.1157707627,
			"-0.013": 0.760024409766,
			"-0.012": 0.550526785317,
			"-0.011": 0.773109281828,
			"-0.01": 1.9923478793,
			"-0.009": 1.01932278232,
			"-0.008": 0.743671864342,
			"-0.007": 2.1005497932,
			"-0.006": 7.24210921693,
			"-0.005": 9.53919135884,
			"-0.004": 14.3644357186,
			"-0.003": 25.8709599191,
			"-0.002": 28.6017697244,
			"-0.001": 28.8128729925,
			"0.0": 26.0490924812,
			"0.001": 29.9106086642,
			"0.002": 18.2155922846,
			"0.003": 14.9191421422,
			"0.004": 11.294130301,
			"0.005": 5.5449875813,
			"0.006": 2.32393688854,
			"0.007": 2.729441098,
			"0.008": 3.7468590858,
			"0.009": 2.74896588856,
			"0.01": 3.28130828303,
			"0.011": 2.89849698266,
			"0.012": 2.26018528901,
			"0.013": 2.54610014382,
			"0.014": 4.48113379349,
			"0.015": 0.520521997411,
			"0.016": 0.0,
			"0.017": 0.0,
			"0.018": 0.0,
			"0.019": 0.0,
			"0.02": 0.0,
			"0.021": 0.0,
			"0.022": 0.0,
			"0.023": 0.0,
			"0.024": 0.0,
			"0.025": 0.0
		}
	}
}
