{
	 "smiles": "OC(=O)CCCSC1=CC=CC=C1", 
	 "Tm": 340.15, 
	 "num_atms": 25, 
	 "gaussian": { 
		 "optdone": 1, 
		 "sigma_profile": "yes", 
		 "theory": "DFT", 
		 "functional": "B3LYP", 
		 "basiset": "6-31G**", 
		 "properties": { 
			 "R2extent": 3167.4165, 
			 "electric_dipole_moment_norm": 4.45828475762, 
			 "electric_quadrupole_moment_norm": 24.335928618, 
			 "total_energy": -936.942182891, 
			 "HOMO_LUMO_gap": 0.2017, 
			 "cosmo_polarized_energy": -15.02, 
			 "cosmo_cavitation_energy": 29.66, 
			 "cosmo_dispersion_energy": -21.0, 
			 "cosmo_repulsion_energy": 1.62, 
			 "cosmo_total_nonelectrostatic_energy": 10.28, 
			 "SMD_solvation_energy": 5.26 
		},
		"coords": [
			{
				"x": 1.3287246208,
				"y": 0.4474038685,
				"z": 2.6916947721,
				"element": "O" 
			},
			{
				"x": 2.624498885,
				"y": 0.4214481161,
				"z": 2.2693676859,
				"element": "C" 
			},
			{
				"x": 3.5160065752,
				"y": 0.2844213047,
				"z": 3.0692432259,
				"element": "O" 
			},
			{
				"x": 2.8221693626,
				"y": 0.5646658305,
				"z": 0.7672022663,
				"element": "C" 
			},
			{
				"x": 2.2489513886,
				"y": -0.6279253305,
				"z": -0.0235744042,
				"element": "C" 
			},
			{
				"x": 2.0746360692,
				"y": -0.3659775955,
				"z": -1.5222653612,
				"element": "C" 
			},
			{
				"x": 0.9166171549,
				"y": 1.0145699948,
				"z": -1.9461790211,
				"element": "S" 
			},
			{
				"x": -0.5374404079,
				"y": 0.5655355422,
				"z": -0.9934243816,
				"element": "C" 
			},
			{
				"x": -1.2635756698,
				"y": -0.6015991605,
				"z": -1.2699804872,
				"element": "C" 
			},
			{
				"x": -2.3926031268,
				"y": -0.920965907,
				"z": -0.5146256854,
				"element": "C" 
			},
			{
				"x": -2.8218153778,
				"y": -0.0710126116,
				"z": 0.5076796056,
				"element": "C" 
			},
			{
				"x": -2.1160220945,
				"y": 1.1033476339,
				"z": 0.774155154,
				"element": "C" 
			},
			{
				"x": -0.9737058285,
				"y": 1.4192677044,
				"z": 0.0321115185,
				"element": "C" 
			},
			{
				"x": 0.7232945961,
				"y": 0.5938648695,
				"z": 1.9478793923,
				"element": "H" 
			},
			{
				"x": 3.8933180801,
				"y": 0.6731293812,
				"z": 0.5845160074,
				"element": "H" 
			},
			{
				"x": 2.3311273939,
				"y": 1.4876891361,
				"z": 0.4338233211,
				"element": "H" 
			},
			{
				"x": 1.2797441385,
				"y": -0.9265776886,
				"z": 0.3908523257,
				"element": "H" 
			},
			{
				"x": 2.908013641,
				"y": -1.4959526326,
				"z": 0.0995222894,
				"element": "H" 
			},
			{
				"x": 1.7397105518,
				"y": -1.2769367776,
				"z": -2.0261053391,
				"element": "H" 
			},
			{
				"x": 3.0181737452,
				"y": -0.0618674741,
				"z": -1.9877811459,
				"element": "H" 
			},
			{
				"x": -0.9472882336,
				"y": -1.2535852347,
				"z": -2.0785216866,
				"element": "H" 
			},
			{
				"x": -2.9446503297,
				"y": -1.8305982812,
				"z": -0.7329451325,
				"element": "H" 
			},
			{
				"x": -3.7039434292,
				"y": -0.3204625645,
				"z": 1.0894451277,
				"element": "H" 
			},
			{
				"x": -2.4484197185,
				"y": 1.7738570812,
				"z": 1.5613447238,
				"element": "H" 
			},
			{
				"x": -0.4269219865,
				"y": 2.3365607955,
				"z": 0.2316652293,
				"element": "H" 
			}
		],
		 "valence_orbital": [ 
			{
				"type": "occ",
				"energy": -0.30655,
				"method": "rhf"
			},
			{
				"type": "occ",
				"energy": -0.27594,
				"method": "rhf"
			},
			{
				"type": "occ",
				"energy": -0.27469,
				"method": "rhf"
			},
			{
				"type": "occ",
				"energy": -0.26117,
				"method": "rhf"
			},
			{
				"type": "occ",
				"energy": -0.23695,
				"method": "rhf"
			},
			{
				"type": "unocc",
				"energy": -0.03525,
				"method": "rhf"
			},
			{
				"type": "unocc",
				"energy": -0.02757,
				"method": "rhf"
			},
			{
				"type": "unocc",
				"energy": 0.01543,
				"method": "rhf"
			},
			{
				"type": "unocc",
				"energy": 0.0335,
				"method": "rhf"
			},
			{
				"type": "unocc",
				"energy": 0.05532,
				"method": "rhf"
			}
		],
		"cosmo_sigma_profile": { 
			"-0.025": 0.0,
			"-0.024": 0.0,
			"-0.023": 0.0,
			"-0.022": 0.0220811323229,
			"-0.021": 0.0376350236771,
			"-0.02": 0.0741686255182,
			"-0.019": 0.0281604564818,
			"-0.018": 0.00679218718524,
			"-0.017": 0.00201587370777,
			"-0.016": 0.0539915257902,
			"-0.015": 0.0565068467469,
			"-0.014": 0.0589000945698,
			"-0.013": 0.0505816731355,
			"-0.012": 0.475881253861,
			"-0.011": 0.82175346131,
			"-0.01": 0.653795009584,
			"-0.009": 1.26995365134,
			"-0.008": 1.89059906205,
			"-0.007": 4.29456675435,
			"-0.006": 17.7418502532,
			"-0.005": 24.5326340852,
			"-0.004": 27.6301003722,
			"-0.003": 20.531310102,
			"-0.002": 18.6215841293,
			"-0.001": 12.1785367794,
			"0.0": 10.8774314776,
			"0.001": 10.5257686639,
			"0.002": 11.3747525027,
			"0.003": 12.1451862329,
			"0.004": 12.6839829503,
			"0.005": 9.64523875063,
			"0.006": 5.32638404192,
			"0.007": 3.80504018916,
			"0.008": 4.56421984864,
			"0.009": 4.8358620048,
			"0.01": 4.39041712529,
			"0.011": 5.88527580078,
			"0.012": 5.95270651725,
			"0.013": 3.37257417409,
			"0.014": 0.285850072112,
			"0.015": 0.0,
			"0.016": 0.0,
			"0.017": 0.0,
			"0.018": 0.0,
			"0.019": 0.0,
			"0.02": 0.0,
			"0.021": 0.0,
			"0.022": 0.0,
			"0.023": 0.0,
			"0.024": 0.0,
			"0.025": 0.0
		}
	}
}
