{
	 "smiles": "CC(C)(C)OC(=O)N[C@@H](CC1=CC=CC(F)=C1)C(O)=O", 
	 "Tm": 351.15, 
	 "num_atms": 38, 
	 "gaussian": { 
		 "optdone": 1, 
		 "sigma_profile": "yes", 
		 "theory": "DFT", 
		 "functional": "B3LYP", 
		 "basiset": "6-31G**", 
		 "properties": { 
			 "R2extent": 5831.1701, 
			 "electric_dipole_moment_norm": 4.58193313351, 
			 "electric_quadrupole_moment_norm": 12.3756905775, 
			 "total_energy": -999.877126848, 
			 "HOMO_LUMO_gap": 0.22188, 
			 "cosmo_polarized_energy": -16.24, 
			 "cosmo_cavitation_energy": 42.27, 
			 "cosmo_dispersion_energy": -26.38, 
			 "cosmo_repulsion_energy": 2.03, 
			 "cosmo_total_nonelectrostatic_energy": 17.92, 
			 "SMD_solvation_energy": 9.44 
		},
		"coords": [
			{
				"x": 0.2713741,
				"y": 3.125898192,
				"z": -2.2985992082,
				"element": "C" 
			},
			{
				"x": -0.2082570751,
				"y": 1.6726565628,
				"z": -2.2247840177,
				"element": "C" 
			},
			{
				"x": -1.6557522202,
				"y": 1.549475464,
				"z": -2.7074673449,
				"element": "C" 
			},
			{
				"x": 0.7061394962,
				"y": 0.7170870046,
				"z": -2.9978981298,
				"element": "C" 
			},
			{
				"x": -0.3050101787,
				"y": 1.2458547494,
				"z": -0.8176615528,
				"element": "O" 
			},
			{
				"x": 0.7923621042,
				"y": 1.1982024964,
				"z": -0.0291895445,
				"element": "C" 
			},
			{
				"x": 1.9256990356,
				"y": 1.5191453778,
				"z": -0.3430866023,
				"element": "O" 
			},
			{
				"x": 0.4804907948,
				"y": 0.7103458236,
				"z": 1.2187032665,
				"element": "N" 
			},
			{
				"x": -0.8494696435,
				"y": 0.4963575297,
				"z": 1.7475149461,
				"element": "C" 
			},
			{
				"x": -1.2096106639,
				"y": -1.0149518114,
				"z": 1.9083597102,
				"element": "C" 
			},
			{
				"x": -1.2665708345,
				"y": -1.7616239112,
				"z": 0.5957223129,
				"element": "C" 
			},
			{
				"x": -2.465319583,
				"y": -1.8367908499,
				"z": -0.1284357071,
				"element": "C" 
			},
			{
				"x": -2.520004092,
				"y": -2.5116921145,
				"z": -1.3484544449,
				"element": "C" 
			},
			{
				"x": -1.380520486,
				"y": -3.1278675056,
				"z": -1.8699193709,
				"element": "C" 
			},
			{
				"x": -0.2008330976,
				"y": -3.0482003572,
				"z": -1.13882497,
				"element": "C" 
			},
			{
				"x": 0.9080756261,
				"y": -3.6464497248,
				"z": -1.6225366214,
				"element": "F" 
			},
			{
				"x": -0.1225303116,
				"y": -2.3802338084,
				"z": 0.077931852,
				"element": "C" 
			},
			{
				"x": -0.9408781397,
				"y": 1.1675798303,
				"z": 3.114387631,
				"element": "C" 
			},
			{
				"x": -2.220288566,
				"y": 1.2897339823,
				"z": 3.5279603145,
				"element": "O" 
			},
			{
				"x": 0.0085988783,
				"y": 1.5176311168,
				"z": 3.7802665273,
				"element": "O" 
			},
			{
				"x": -0.3791040616,
				"y": 3.7721283612,
				"z": -1.7003424611,
				"element": "H" 
			},
			{
				"x": 1.2943898756,
				"y": 3.2177152426,
				"z": -1.9335781643,
				"element": "H" 
			},
			{
				"x": 0.2316769489,
				"y": 3.4726086805,
				"z": -3.3364221517,
				"element": "H" 
			},
			{
				"x": -1.7240220116,
				"y": 1.8302905232,
				"z": -3.762717412,
				"element": "H" 
			},
			{
				"x": -2.3129660224,
				"y": 2.2088173987,
				"z": -2.1322295557,
				"element": "H" 
			},
			{
				"x": -2.0115090226,
				"y": 0.521481087,
				"z": -2.5951108735,
				"element": "H" 
			},
			{
				"x": 0.6861082994,
				"y": 0.9730420633,
				"z": -4.0623234618,
				"element": "H" 
			},
			{
				"x": 0.3568558142,
				"y": -0.3140322154,
				"z": -2.8878658503,
				"element": "H" 
			},
			{
				"x": 1.7332884549,
				"y": 0.7842179615,
				"z": -2.6387466456,
				"element": "H" 
			},
			{
				"x": 1.2161448341,
				"y": 0.8384642497,
				"z": 1.9017144449,
				"element": "H" 
			},
			{
				"x": -1.5796826499,
				"y": 0.9590255288,
				"z": 1.0807947596,
				"element": "H" 
			},
			{
				"x": -0.4638950057,
				"y": -1.469188123,
				"z": 2.5704239422,
				"element": "H" 
			},
			{
				"x": -2.1783051163,
				"y": -1.0775120386,
				"z": 2.4142860722,
				"element": "H" 
			},
			{
				"x": -3.3618422722,
				"y": -1.3688662622,
				"z": 0.2694480521,
				"element": "H" 
			},
			{
				"x": -3.456925379,
				"y": -2.5686544324,
				"z": -1.8947492351,
				"element": "H" 
			},
			{
				"x": -1.3958206531,
				"y": -3.6667793321,
				"z": -2.810875833,
				"element": "H" 
			},
			{
				"x": 0.8244473474,
				"y": -2.3479974347,
				"z": 0.6057244573,
				"element": "H" 
			},
			{
				"x": -2.1885345235,
				"y": 1.6846806952,
				"z": 4.4160808698,
				"element": "H" 
			}
		],
		 "valence_orbital": [ 
			{
				"type": "occ",
				"energy": -0.28714,
				"method": "rhf"
			},
			{
				"type": "occ",
				"energy": -0.26105,
				"method": "rhf"
			},
			{
				"type": "occ",
				"energy": -0.26018,
				"method": "rhf"
			},
			{
				"type": "occ",
				"energy": -0.25434,
				"method": "rhf"
			},
			{
				"type": "occ",
				"energy": -0.24216,
				"method": "rhf"
			},
			{
				"type": "unocc",
				"energy": -0.02028,
				"method": "rhf"
			},
			{
				"type": "unocc",
				"energy": -0.00829,
				"method": "rhf"
			},
			{
				"type": "unocc",
				"energy": 0.00281,
				"method": "rhf"
			},
			{
				"type": "unocc",
				"energy": 0.05311,
				"method": "rhf"
			},
			{
				"type": "unocc",
				"energy": 0.06526,
				"method": "rhf"
			}
		],
		"cosmo_sigma_profile": { 
			"-0.025": 0.0,
			"-0.024": 0.0,
			"-0.023": 0.0,
			"-0.022": 0.0,
			"-0.021": 0.0,
			"-0.02": 0.0,
			"-0.019": 0.46624290546,
			"-0.018": 1.03204249893,
			"-0.017": 1.04544631545,
			"-0.016": 0.541987295381,
			"-0.015": 0.857288788281,
			"-0.014": 0.649225139501,
			"-0.013": 0.251042512558,
			"-0.012": 1.02284058827,
			"-0.011": 1.01568479015,
			"-0.01": 1.38211556494,
			"-0.009": 1.21003092,
			"-0.008": 2.03707651258,
			"-0.007": 4.17107178403,
			"-0.006": 14.7038266097,
			"-0.005": 18.164480869,
			"-0.004": 23.7916568375,
			"-0.003": 25.5156451954,
			"-0.002": 22.7359087563,
			"-0.001": 30.4806456965,
			"0.0": 40.003623007,
			"0.001": 37.4703278134,
			"0.002": 19.9931753079,
			"0.003": 16.7487227375,
			"0.004": 20.2133653799,
			"0.005": 12.721498067,
			"0.006": 4.35938985257,
			"0.007": 4.94612031315,
			"0.008": 4.39054466306,
			"0.009": 3.99605751445,
			"0.01": 3.76274378149,
			"0.011": 4.82141476599,
			"0.012": 2.84032045381,
			"0.013": 3.10478832599,
			"0.014": 1.9108448373,
			"0.015": 0.00327408161976,
			"0.016": 0.0,
			"0.017": 0.0,
			"0.018": 0.0,
			"0.019": 0.0,
			"0.02": 0.0,
			"0.021": 0.0,
			"0.022": 0.0,
			"0.023": 0.0,
			"0.024": 0.0,
			"0.025": 0.0
		}
	}
}
