{
	 "smiles": "COC1=CC=C(I)C(OC)=C1", 
	 "Tm": 312.15, 
	 "num_atms": 20, 
	 "gaussian": { 
		 "optdone": 1, 
		 "sigma_profile": "no", 
		 "theory": "DFT", 
		 "functional": "B3LYP", 
		 "basiset": "6-31G**", 
		 "properties": { 
			 "R2extent": 2627.3921, 
			 "electric_dipole_moment_norm": 4.13574741613, 
			 "electric_quadrupole_moment_norm": 4.3702937979, 
			 "total_energy": -472.080889413, 
			 "HOMO_LUMO_gap": 0.1822, 
			 "cosmo_polarized_energy": -96367.26, 
			 "cosmo_cavitation_energy": 26.69, 
			 "cosmo_dispersion_energy": -20.94, 
			 "cosmo_repulsion_energy": 1.66, 
			 "cosmo_total_nonelectrostatic_energy": 7.41, 
			 "SMD_solvation_energy": 5.34 
		},
		"coords": [
			{
				"x": 0.2566266671,
				"y": 2.1607034906,
				"z": 2.5704008185,
				"element": "C" 
			},
			{
				"x": 1.3700833867,
				"y": 2.4406373335,
				"z": 1.7379152493,
				"element": "O" 
			},
			{
				"x": 1.6514714488,
				"y": 1.5880043401,
				"z": 0.7118368963,
				"element": "C" 
			},
			{
				"x": 2.7634152521,
				"y": 1.9215438383,
				"z": -0.0700797836,
				"element": "C" 
			},
			{
				"x": 3.1184814614,
				"y": 1.103668666,
				"z": -1.1369675783,
				"element": "C" 
			},
			{
				"x": 2.3822186219,
				"y": -0.0426596086,
				"z": -1.4373441298,
				"element": "C" 
			},
			{
				"x": 2.9534790173,
				"y": -1.2606801657,
				"z": -3.0674689309,
				"element": "I" 
			},
			{
				"x": 1.2656413408,
				"y": -0.3821743413,
				"z": -0.6562433437,
				"element": "C" 
			},
			{
				"x": 0.5875838398,
				"y": -1.5087272796,
				"z": -0.9954536153,
				"element": "O" 
			},
			{
				"x": -0.5466531067,
				"y": -1.8875966102,
				"z": -0.2318167547,
				"element": "C" 
			},
			{
				"x": 0.9028998297,
				"y": 0.4406572932,
				"z": 0.4223252826,
				"element": "C" 
			},
			{
				"x": 0.2250815248,
				"y": 2.9617429097,
				"z": 3.3104070975,
				"element": "H" 
			},
			{
				"x": -0.6835220869,
				"y": 2.1581118649,
				"z": 2.0035414796,
				"element": "H" 
			},
			{
				"x": 0.3678983466,
				"y": 1.1984859886,
				"z": 3.0870758516,
				"element": "H" 
			},
			{
				"x": 3.330294834,
				"y": 2.8138540225,
				"z": 0.1698648806,
				"element": "H" 
			},
			{
				"x": 3.9794479859,
				"y": 1.3594567571,
				"z": -1.7445928041,
				"element": "H" 
			},
			{
				"x": -1.3340181327,
				"y": -1.1241432373,
				"z": -0.2705965232,
				"element": "H" 
			},
			{
				"x": -0.9161489665,
				"y": -2.8074487353,
				"z": -0.6866309296,
				"element": "H" 
			},
			{
				"x": -0.2825459255,
				"y": -2.0833755029,
				"z": 0.8151919571,
				"element": "H" 
			},
			{
				"x": 0.0440646616,
				"y": 0.1820389763,
				"z": 1.0248348802,
				"element": "H" 
			}
		],
		 "valence_orbital": [ 
			{
				"type": "occ",
				"energy": -0.31204,
				"method": "rhf"
			},
			{
				"type": "occ",
				"energy": -0.26898,
				"method": "rhf"
			},
			{
				"type": "occ",
				"energy": -0.2534,
				"method": "rhf"
			},
			{
				"type": "occ",
				"energy": -0.24128,
				"method": "rhf"
			},
			{
				"type": "occ",
				"energy": -0.20788,
				"method": "rhf"
			},
			{
				"type": "unocc",
				"energy": -0.02568,
				"method": "rhf"
			},
			{
				"type": "unocc",
				"energy": -0.00251,
				"method": "rhf"
			},
			{
				"type": "unocc",
				"energy": 0.00663,
				"method": "rhf"
			},
			{
				"type": "unocc",
				"energy": 0.04786,
				"method": "rhf"
			},
			{
				"type": "unocc",
				"energy": 0.05806,
				"method": "rhf"
			}
		],
		"cosmo_sigma_profile": { 
			"0.0": 0.0,
			"0.0": 0.0,
			"0.0": 0.0,
			"0.0": 0.0,
			"0.0": 0.0,
			"0.0": 0.0,
			"0.0": 0.0,
			"0.0": 0.0,
			"0.0": 0.0,
			"0.0": 0.0,
			"0.0": 0.0,
			"0.0": 0.0,
			"0.0": 0.0,
			"0.0": 0.0,
			"0.0": 0.0,
			"0.0": 0.0,
			"0.0": 0.0,
			"0.0": 0.0,
			"0.0": 0.0,
			"0.0": 0.0,
			"0.0": 0.0,
			"0.0": 0.0,
			"0.0": 0.0,
			"0.0": 0.0,
			"0.0": 0.0,
			"0.0": 0.0,
			"0.0": 0.0,
			"0.0": 0.0,
			"0.0": 0.0,
			"0.0": 0.0,
			"0.0": 0.0,
			"0.0": 0.0,
			"0.0": 0.0,
			"0.0": 0.0,
			"0.0": 0.0,
			"0.0": 0.0,
			"0.0": 0.0,
			"0.0": 0.0,
			"0.0": 0.0,
			"0.0": 0.0,
			"0.0": 0.0,
			"0.0": 0.0,
			"0.0": 0.0,
			"0.0": 0.0,
			"0.0": 0.0,
			"0.0": 0.0,
			"0.0": 0.0,
			"0.0": 0.0,
			"0.0": 0.0,
			"0.0": 0.0,
			"0.0": 0.0
		}
	}
}
