{
	 "smiles": "CC1(C)[C@@H](C=C(/Cl)C(F)(F)F)[C@H]1C(=O)O[C@H](C#N)C1=CC(OC2=CC=CC=C2)=CC=C1", 
	 "Tm": 328.75, 
	 "num_atms": 50, 
	 "gaussian": { 
		 "optdone": 1, 
		 "sigma_profile": "yes", 
		 "theory": "DFT", 
		 "functional": "B3LYP", 
		 "basiset": "6-31G**", 
		 "properties": { 
			 "R2extent": 22741.6171, 
			 "electric_dipole_moment_norm": 5.46581169635, 
			 "electric_quadrupole_moment_norm": 20.717303117, 
			 "total_energy": -1927.97884927, 
			 "HOMO_LUMO_gap": 0.19458, 
			 "cosmo_polarized_energy": -14.42, 
			 "cosmo_cavitation_energy": 59.51, 
			 "cosmo_dispersion_energy": -37.85, 
			 "cosmo_repulsion_energy": 2.9, 
			 "cosmo_total_nonelectrostatic_energy": 24.56, 
			 "SMD_solvation_energy": 13.06 
		},
		"coords": [
			{
				"x": -0.1956340263,
				"y": -4.0851763427,
				"z": 1.200355034,
				"element": "C" 
			},
			{
				"x": -1.3505457442,
				"y": -3.20688218,
				"z": 0.7491955997,
				"element": "C" 
			},
			{
				"x": -1.8736029966,
				"y": -3.557917999,
				"z": -0.6353491805,
				"element": "C" 
			},
			{
				"x": -2.3815733093,
				"y": -2.7130872206,
				"z": 1.7487117203,
				"element": "C" 
			},
			{
				"x": -2.3207344689,
				"y": -3.0463926105,
				"z": 3.1813063908,
				"element": "C" 
			},
			{
				"x": -3.3534548628,
				"y": -3.4493004733,
				"z": 3.9280231566,
				"element": "C" 
			},
			{
				"x": -4.9831983842,
				"y": -3.6535838895,
				"z": 3.3183011091,
				"element": "Cl" 
			},
			{
				"x": -3.2243676182,
				"y": -3.7770012327,
				"z": 5.3946689504,
				"element": "C" 
			},
			{
				"x": -3.5736774124,
				"y": -5.054008888,
				"z": 5.6493472388,
				"element": "F" 
			},
			{
				"x": -1.9545763408,
				"y": -3.6091269134,
				"z": 5.8173957941,
				"element": "F" 
			},
			{
				"x": -4.0147557556,
				"y": -2.9899632331,
				"z": 6.1504793607,
				"element": "F" 
			},
			{
				"x": -1.3906439084,
				"y": -1.7205915833,
				"z": 1.1049136717,
				"element": "C" 
			},
			{
				"x": -0.3226347698,
				"y": -1.0662496366,
				"z": 1.8989829938,
				"element": "C" 
			},
			{
				"x": 0.2583312457,
				"y": -1.5197875536,
				"z": 2.8684751791,
				"element": "O" 
			},
			{
				"x": -0.055405604,
				"y": 0.1638421866,
				"z": 1.3808284524,
				"element": "O" 
			},
			{
				"x": 0.9857787047,
				"y": 0.9298270831,
				"z": 2.0533045018,
				"element": "C" 
			},
			{
				"x": 0.4940469562,
				"y": 2.3141986968,
				"z": 2.1138975776,
				"element": "C" 
			},
			{
				"x": 0.1202890047,
				"y": 3.4104976633,
				"z": 2.175560577,
				"element": "N" 
			},
			{
				"x": 2.3119457528,
				"y": 0.7884984439,
				"z": 1.3289617545,
				"element": "C" 
			},
			{
				"x": 2.608973042,
				"y": 1.5912712289,
				"z": 0.2214302159,
				"element": "C" 
			},
			{
				"x": 3.8197417058,
				"y": 1.4082448832,
				"z": -0.450613005,
				"element": "C" 
			},
			{
				"x": 4.2234490102,
				"y": 2.1774325522,
				"z": -1.5151736873,
				"element": "O" 
			},
			{
				"x": 3.2971349653,
				"y": 2.8975003593,
				"z": -2.2578820186,
				"element": "C" 
			},
			{
				"x": 3.4757571179,
				"y": 4.2765011474,
				"z": -2.357129629,
				"element": "C" 
			},
			{
				"x": 2.6158450789,
				"y": 5.0198745816,
				"z": -3.1674397065,
				"element": "C" 
			},
			{
				"x": 1.5838411105,
				"y": 4.3897604653,
				"z": -3.8651870995,
				"element": "C" 
			},
			{
				"x": 1.4165756037,
				"y": 3.0068898301,
				"z": -3.7567918048,
				"element": "C" 
			},
			{
				"x": 2.2744055235,
				"y": 2.2516905845,
				"z": -2.9568589388,
				"element": "C" 
			},
			{
				"x": 4.7308716552,
				"y": 0.4372054535,
				"z": -0.0180657603,
				"element": "C" 
			},
			{
				"x": 4.4246077864,
				"y": -0.3518126528,
				"z": 1.0865594848,
				"element": "C" 
			},
			{
				"x": 3.2155894597,
				"y": -0.1855460888,
				"z": 1.7653858864,
				"element": "C" 
			},
			{
				"x": -0.5353494374,
				"y": -5.1222981266,
				"z": 1.2942082386,
				"element": "H" 
			},
			{
				"x": 0.6032770811,
				"y": -4.0633800998,
				"z": 0.4509499973,
				"element": "H" 
			},
			{
				"x": 0.2313307805,
				"y": -3.7707132461,
				"z": 2.151972284,
				"element": "H" 
			},
			{
				"x": -2.7116519516,
				"y": -2.9189354992,
				"z": -0.929980275,
				"element": "H" 
			},
			{
				"x": -1.0830006814,
				"y": -3.447901277,
				"z": -1.3860189,
				"element": "H" 
			},
			{
				"x": -2.2178758024,
				"y": -4.5977076275,
				"z": -0.6599454954,
				"element": "H" 
			},
			{
				"x": -3.3895520489,
				"y": -2.6205723103,
				"z": 1.3558395235,
				"element": "H" 
			},
			{
				"x": -1.3661610917,
				"y": -2.9498685821,
				"z": 3.6860282058,
				"element": "H" 
			},
			{
				"x": -1.8184349082,
				"y": -1.0636215535,
				"z": 0.3552608538,
				"element": "H" 
			},
			{
				"x": 1.0789935306,
				"y": 0.5435057449,
				"z": 3.0722361901,
				"element": "H" 
			},
			{
				"x": 1.9154963059,
				"y": 2.3590189961,
				"z": -0.1030366394,
				"element": "H" 
			},
			{
				"x": 4.2840081912,
				"y": 4.7450661646,
				"z": -1.8056153404,
				"element": "H" 
			},
			{
				"x": 2.7520553307,
				"y": 6.0942294318,
				"z": -3.2478217675,
				"element": "H" 
			},
			{
				"x": 0.914545484,
				"y": 4.9715926961,
				"z": -4.4913569538,
				"element": "H" 
			},
			{
				"x": 0.6197756034,
				"y": 2.5103410506,
				"z": -4.3028517879,
				"element": "H" 
			},
			{
				"x": 2.1618776727,
				"y": 1.1754573497,
				"z": -2.874900586,
				"element": "H" 
			},
			{
				"x": 5.666792514,
				"y": 0.3251757516,
				"z": -0.5551443711,
				"element": "H" 
			},
			{
				"x": 5.1339762168,
				"y": -1.1024749871,
				"z": 1.421672596,
				"element": "H" 
			},
			{
				"x": 2.9681186889,
				"y": -0.809920538,
				"z": 2.6175104079,
				"element": "H" 
			}
		],
		 "valence_orbital": [ 
			{
				"type": "occ",
				"energy": -0.27016,
				"method": "rhf"
			},
			{
				"type": "occ",
				"energy": -0.26254,
				"method": "rhf"
			},
			{
				"type": "occ",
				"energy": -0.26001,
				"method": "rhf"
			},
			{
				"type": "occ",
				"energy": -0.25776,
				"method": "rhf"
			},
			{
				"type": "occ",
				"energy": -0.23277,
				"method": "rhf"
			},
			{
				"type": "unocc",
				"energy": -0.03819,
				"method": "rhf"
			},
			{
				"type": "unocc",
				"energy": -0.03709,
				"method": "rhf"
			},
			{
				"type": "unocc",
				"energy": -0.01732,
				"method": "rhf"
			},
			{
				"type": "unocc",
				"energy": -0.01349,
				"method": "rhf"
			},
			{
				"type": "unocc",
				"energy": -0.01108,
				"method": "rhf"
			}
		],
		"cosmo_sigma_profile": { 
			"-0.025": 0.0,
			"-0.024": 0.0,
			"-0.023": 0.0,
			"-0.022": 0.0,
			"-0.021": 0.0,
			"-0.02": 0.0,
			"-0.019": 0.0,
			"-0.018": 0.0,
			"-0.017": 0.0,
			"-0.016": 0.0,
			"-0.015": 0.0,
			"-0.014": 0.0,
			"-0.013": 0.0,
			"-0.012": 0.0,
			"-0.011": 0.324654069212,
			"-0.01": 1.63931697575,
			"-0.009": 1.21366725765,
			"-0.008": 2.20975254584,
			"-0.007": 9.29086581836,
			"-0.006": 19.5077066401,
			"-0.005": 25.5437970758,
			"-0.004": 34.5693526146,
			"-0.003": 37.3669253121,
			"-0.002": 38.4867537932,
			"-0.001": 44.4547266391,
			"0.0": 46.7392160419,
			"0.001": 38.8195232834,
			"0.002": 55.205291906,
			"0.003": 54.3335874578,
			"0.004": 26.5644154908,
			"0.005": 12.824057086,
			"0.006": 6.24834855578,
			"0.007": 5.1793385417,
			"0.008": 5.93250871963,
			"0.009": 4.43365325753,
			"0.01": 3.60421024665,
			"0.011": 2.48008232313,
			"0.012": 1.57765354387,
			"0.013": 0.0373675350459,
			"0.014": 0.0,
			"0.015": 0.0,
			"0.016": 0.0,
			"0.017": 0.0,
			"0.018": 0.0,
			"0.019": 0.0,
			"0.02": 0.0,
			"0.021": 0.0,
			"0.022": 0.0,
			"0.023": 0.0,
			"0.024": 0.0,
			"0.025": 0.0
		}
	}
}
