{
	 "smiles": "OC(=O)CCC(=O)C1=CC2=C(OCCCO2)C=C1", 
	 "Tm": 423.15, 
	 "num_atms": 32, 
	 "gaussian": { 
		 "optdone": 1, 
		 "sigma_profile": "yes", 
		 "theory": "DFT", 
		 "functional": "B3LYP", 
		 "basiset": "6-31G**", 
		 "properties": { 
			 "R2extent": 6739.2938, 
			 "electric_dipole_moment_norm": 2.93654712375, 
			 "electric_quadrupole_moment_norm": 19.2051080471, 
			 "total_energy": -879.940990224, 
			 "HOMO_LUMO_gap": 0.18115, 
			 "cosmo_polarized_energy": -18.15, 
			 "cosmo_cavitation_energy": 35.69, 
			 "cosmo_dispersion_energy": -25.98, 
			 "cosmo_repulsion_energy": 2.02, 
			 "cosmo_total_nonelectrostatic_energy": 11.73, 
			 "SMD_solvation_energy": 7.47 
		},
		"coords": [
			{
				"x": 4.3111277355,
				"y": 1.3336921782,
				"z": -3.6407228051,
				"element": "O" 
			},
			{
				"x": 3.8168817107,
				"y": 1.3098907615,
				"z": -2.3818689703,
				"element": "C" 
			},
			{
				"x": 4.1909284902,
				"y": 0.514004937,
				"z": -1.5476618735,
				"element": "O" 
			},
			{
				"x": 2.8056517887,
				"y": 2.4141462209,
				"z": -2.1550608796,
				"element": "C" 
			},
			{
				"x": 1.9428719788,
				"y": 2.1492994148,
				"z": -0.9255906073,
				"element": "C" 
			},
			{
				"x": 0.9554427813,
				"y": 1.0061649252,
				"z": -1.1572869099,
				"element": "C" 
			},
			{
				"x": 0.8954237943,
				"y": 0.4565509643,
				"z": -2.2487038491,
				"element": "O" 
			},
			{
				"x": 0.0633229402,
				"y": 0.5882592796,
				"z": -0.0346845357,
				"element": "C" 
			},
			{
				"x": -0.8549984595,
				"y": -0.4436178523,
				"z": -0.2733746936,
				"element": "C" 
			},
			{
				"x": -1.7270859248,
				"y": -0.8870073684,
				"z": 0.7164776901,
				"element": "C" 
			},
			{
				"x": -1.6750946437,
				"y": -0.2920466261,
				"z": 1.9977868945,
				"element": "C" 
			},
			{
				"x": -2.5356397853,
				"y": -0.6044393747,
				"z": 3.0154855575,
				"element": "O" 
			},
			{
				"x": -2.6292247119,
				"y": -1.9725753616,
				"z": 3.4327584086,
				"element": "C" 
			},
			{
				"x": -3.4191045781,
				"y": -2.8491808121,
				"z": 2.4689344233,
				"element": "C" 
			},
			{
				"x": -2.7290608018,
				"y": -3.0346185873,
				"z": 1.1227647485,
				"element": "C" 
			},
			{
				"x": -2.6619634272,
				"y": -1.8271258941,
				"z": 0.3588088864,
				"element": "O" 
			},
			{
				"x": -0.754159665,
				"y": 0.7337153135,
				"z": 2.2386003072,
				"element": "C" 
			},
			{
				"x": 0.1033437477,
				"y": 1.1778648862,
				"z": 1.238319276,
				"element": "C" 
			},
			{
				"x": 4.9590723391,
				"y": 0.6107715121,
				"z": -3.688492817,
				"element": "H" 
			},
			{
				"x": 3.3675575594,
				"y": 3.3484876901,
				"z": -2.0322871463,
				"element": "H" 
			},
			{
				"x": 2.1964537553,
				"y": 2.518447861,
				"z": -3.0554573726,
				"element": "H" 
			},
			{
				"x": 2.5806017167,
				"y": 1.8990619965,
				"z": -0.0708060541,
				"element": "H" 
			},
			{
				"x": 1.381402644,
				"y": 3.0509577355,
				"z": -0.6512513131,
				"element": "H" 
			},
			{
				"x": -0.9009046291,
				"y": -0.895685852,
				"z": -1.2578168453,
				"element": "H" 
			},
			{
				"x": -1.6181483267,
				"y": -2.3785018262,
				"z": 3.5839875581,
				"element": "H" 
			},
			{
				"x": -3.1271333528,
				"y": -1.9294322742,
				"z": 4.4050575906,
				"element": "H" 
			},
			{
				"x": -3.557593076,
				"y": -3.8356356236,
				"z": 2.9318248641,
				"element": "H" 
			},
			{
				"x": -4.4128860953,
				"y": -2.415339846,
				"z": 2.3116353962,
				"element": "H" 
			},
			{
				"x": -1.717156995,
				"y": -3.4444051259,
				"z": 1.258942784,
				"element": "H" 
			},
			{
				"x": -3.2952749831,
				"y": -3.7298181623,
				"z": 0.4970347029,
				"element": "H" 
			},
			{
				"x": -0.7423408991,
				"y": 1.176637275,
				"z": 3.2291139293,
				"element": "H" 
			},
			{
				"x": 0.8044873725,
				"y": 1.9748776352,
				"z": 1.460233655,
				"element": "H" 
			}
		],
		 "valence_orbital": [ 
			{
				"type": "occ",
				"energy": -0.28911,
				"method": "rhf"
			},
			{
				"type": "occ",
				"energy": -0.27017,
				"method": "rhf"
			},
			{
				"type": "occ",
				"energy": -0.24893,
				"method": "rhf"
			},
			{
				"type": "occ",
				"energy": -0.24625,
				"method": "rhf"
			},
			{
				"type": "occ",
				"energy": -0.23159,
				"method": "rhf"
			},
			{
				"type": "unocc",
				"energy": -0.05044,
				"method": "rhf"
			},
			{
				"type": "unocc",
				"energy": -0.00554,
				"method": "rhf"
			},
			{
				"type": "unocc",
				"energy": 0.01859,
				"method": "rhf"
			},
			{
				"type": "unocc",
				"energy": 0.04501,
				"method": "rhf"
			},
			{
				"type": "unocc",
				"energy": 0.07971,
				"method": "rhf"
			}
		],
		"cosmo_sigma_profile": { 
			"-0.025": 0.0,
			"-0.024": 0.0,
			"-0.023": 0.0,
			"-0.022": 0.0,
			"-0.021": 0.0,
			"-0.02": 0.0,
			"-0.019": 0.0628959798299,
			"-0.018": 0.685142732918,
			"-0.017": 0.950941532832,
			"-0.016": 1.07237519814,
			"-0.015": 0.473966004746,
			"-0.014": 0.442896934686,
			"-0.013": 0.342779427944,
			"-0.012": 0.900660204856,
			"-0.011": 1.10983565944,
			"-0.01": 0.617959169308,
			"-0.009": 0.298175968216,
			"-0.008": 0.771334763249,
			"-0.007": 6.69749225076,
			"-0.006": 19.3216355235,
			"-0.005": 30.715591501,
			"-0.004": 28.743717748,
			"-0.003": 25.2975180129,
			"-0.002": 17.2835768004,
			"-0.001": 13.6594035718,
			"0.0": 12.0085779074,
			"0.001": 12.2334548091,
			"0.002": 17.7947335159,
			"0.003": 18.4159581821,
			"0.004": 11.3645592822,
			"0.005": 9.12722320053,
			"0.006": 7.35320697552,
			"0.007": 7.4246689595,
			"0.008": 6.93413046252,
			"0.009": 7.22876035356,
			"0.01": 7.64536972197,
			"0.011": 7.38004345206,
			"0.012": 7.01968416538,
			"0.013": 0.248514783629,
			"0.014": 0.0,
			"0.015": 0.0,
			"0.016": 0.0,
			"0.017": 0.0,
			"0.018": 0.0,
			"0.019": 0.0,
			"0.02": 0.0,
			"0.021": 0.0,
			"0.022": 0.0,
			"0.023": 0.0,
			"0.024": 0.0,
			"0.025": 0.0
		}
	}
}
