{
	 "smiles": "NC(=O)CC1=CC=C(F)C=C1", 
	 "Tm": 429.15, 
	 "num_atms": 19, 
	 "gaussian": { 
		 "optdone": 1, 
		 "sigma_profile": "yes", 
		 "theory": "DFT", 
		 "functional": "B3LYP", 
		 "basiset": "6-31G**", 
		 "properties": { 
			 "R2extent": 2303.7768, 
			 "electric_dipole_moment_norm": 2.51381019769, 
			 "electric_quadrupole_moment_norm": 22.3292369245, 
			 "total_energy": -539.502321188, 
			 "HOMO_LUMO_gap": 0.21163, 
			 "cosmo_polarized_energy": -12.71, 
			 "cosmo_cavitation_energy": 23.87, 
			 "cosmo_dispersion_energy": -17.05, 
			 "cosmo_repulsion_energy": 1.37, 
			 "cosmo_total_nonelectrostatic_energy": 8.19, 
			 "SMD_solvation_energy": 5.37 
		},
		"coords": [
			{
				"x": 2.0114762249,
				"y": 1.450904392,
				"z": -1.7494493392,
				"element": "N" 
			},
			{
				"x": 1.1308737829,
				"y": 0.636877095,
				"z": -2.3968507822,
				"element": "C" 
			},
			{
				"x": 1.1114949982,
				"y": 0.5095018011,
				"z": -3.6115404946,
				"element": "O" 
			},
			{
				"x": 0.1566864038,
				"y": -0.1614978409,
				"z": -1.5071943076,
				"element": "C" 
			},
			{
				"x": 0.102394712,
				"y": 0.1870860165,
				"z": -0.0377811056,
				"element": "C" 
			},
			{
				"x": -0.750809247,
				"y": 1.1989167058,
				"z": 0.4303856454,
				"element": "C" 
			},
			{
				"x": -0.7956321431,
				"y": 1.5432248219,
				"z": 1.780962963,
				"element": "C" 
			},
			{
				"x": 0.0284353549,
				"y": 0.8626431333,
				"z": 2.6706796229,
				"element": "C" 
			},
			{
				"x": -0.0095812962,
				"y": 1.1877023547,
				"z": 3.9793620931,
				"element": "F" 
			},
			{
				"x": 0.8883171129,
				"y": -0.1447205926,
				"z": 2.2489399192,
				"element": "C" 
			},
			{
				"x": 0.917587,
				"y": -0.4749270405,
				"z": 0.8934326497,
				"element": "C" 
			},
			{
				"x": 1.9827882236,
				"y": 1.5848263929,
				"z": -0.7519119524,
				"element": "H" 
			},
			{
				"x": 2.6515835883,
				"y": 1.9929944744,
				"z": -2.3090292123,
				"element": "H" 
			},
			{
				"x": 0.4297980985,
				"y": -1.2140899006,
				"z": -1.6424366653,
				"element": "H" 
			},
			{
				"x": -0.8259776443,
				"y": -0.0439574671,
				"z": -1.9740393431,
				"element": "H" 
			},
			{
				"x": -1.394002864,
				"y": 1.7224590555,
				"z": -0.272119986,
				"element": "H" 
			},
			{
				"x": -1.4568925757,
				"y": 2.319997524,
				"z": 2.1495744096,
				"element": "H" 
			},
			{
				"x": 1.5111362317,
				"y": -0.6572415462,
				"z": 2.974139059,
				"element": "H" 
			},
			{
				"x": 1.5812240387,
				"y": -1.2664993791,
				"z": 0.5550768264,
				"element": "H" 
			}
		],
		 "valence_orbital": [ 
			{
				"type": "occ",
				"energy": -0.3501,
				"method": "rhf"
			},
			{
				"type": "occ",
				"energy": -0.2725,
				"method": "rhf"
			},
			{
				"type": "occ",
				"energy": -0.26497,
				"method": "rhf"
			},
			{
				"type": "occ",
				"energy": -0.26288,
				"method": "rhf"
			},
			{
				"type": "occ",
				"energy": -0.23464,
				"method": "rhf"
			},
			{
				"type": "unocc",
				"energy": -0.02301,
				"method": "rhf"
			},
			{
				"type": "unocc",
				"energy": -0.01202,
				"method": "rhf"
			},
			{
				"type": "unocc",
				"energy": 0.03409,
				"method": "rhf"
			},
			{
				"type": "unocc",
				"energy": 0.07606,
				"method": "rhf"
			},
			{
				"type": "unocc",
				"energy": 0.0888,
				"method": "rhf"
			}
		],
		"cosmo_sigma_profile": { 
			"-0.025": 0.0,
			"-0.024": 0.0,
			"-0.023": 0.0,
			"-0.022": 0.0,
			"-0.021": 0.0,
			"-0.02": 0.0,
			"-0.019": 0.0,
			"-0.018": 0.0,
			"-0.017": 0.0,
			"-0.016": 0.0,
			"-0.015": 0.0,
			"-0.014": 0.441122928089,
			"-0.013": 1.70205550169,
			"-0.012": 1.49928399372,
			"-0.011": 1.77528694381,
			"-0.01": 2.06940845614,
			"-0.009": 2.58362736568,
			"-0.008": 1.39606560433,
			"-0.007": 5.88312299764,
			"-0.006": 15.7165527261,
			"-0.005": 14.5415292791,
			"-0.004": 11.567115263,
			"-0.003": 10.3514736598,
			"-0.002": 11.4668422054,
			"-0.001": 10.4137728585,
			"0.0": 10.8863775585,
			"0.001": 15.47672166,
			"0.002": 13.0712219566,
			"0.003": 13.9976194125,
			"0.004": 17.2577760713,
			"0.005": 6.47314429039,
			"0.006": 1.40343522157,
			"0.007": 0.897463742701,
			"0.008": 1.78932400613,
			"0.009": 1.16466287508,
			"0.01": 1.21304165652,
			"0.011": 1.06877996067,
			"0.012": 2.00506583728,
			"0.013": 2.59466779438,
			"0.014": 6.28629395875,
			"0.015": 2.71293073041,
			"0.016": 0.152963369243,
			"0.017": 0.0,
			"0.018": 0.0,
			"0.019": 0.0,
			"0.02": 0.0,
			"0.021": 0.0,
			"0.022": 0.0,
			"0.023": 0.0,
			"0.024": 0.0,
			"0.025": 0.0
		}
	}
}
