{
	 "smiles": "CS(=O)(=O)CCC(NC(=O)C1=C(Cl)C=CC=C1)C(O)=O", 
	 "Tm": 433.15, 
	 "num_atms": 34, 
	 "gaussian": { 
		 "optdone": 1, 
		 "sigma_profile": "yes", 
		 "theory": "DFT", 
		 "functional": "B3LYP", 
		 "basiset": "6-31G**", 
		 "properties": { 
			 "R2extent": 8820.5663, 
			 "electric_dipole_moment_norm": 7.17564190369, 
			 "electric_quadrupole_moment_norm": 24.4032645328, 
			 "total_energy": -1754.93182853, 
			 "HOMO_LUMO_gap": 0.21047, 
			 "cosmo_polarized_energy": -31.33, 
			 "cosmo_cavitation_energy": 42.12, 
			 "cosmo_dispersion_energy": -28.82, 
			 "cosmo_repulsion_energy": 2.21, 
			 "cosmo_total_nonelectrostatic_energy": 15.51, 
			 "SMD_solvation_energy": 7.81 
		},
		"coords": [
			{
				"x": -0.8623629665,
				"y": 3.2143218077,
				"z": -1.7401194564,
				"element": "C" 
			},
			{
				"x": 0.8323143883,
				"y": 3.2546818207,
				"z": -1.1076154179,
				"element": "S" 
			},
			{
				"x": 0.8563536797,
				"y": 4.1760337961,
				"z": 0.0394612745,
				"element": "O" 
			},
			{
				"x": 1.7341085435,
				"y": 3.4543423472,
				"z": -2.2525989945,
				"element": "O" 
			},
			{
				"x": 1.1118245078,
				"y": 1.582265078,
				"z": -0.4457572185,
				"element": "C" 
			},
			{
				"x": 1.1810567829,
				"y": 0.4954039326,
				"z": -1.5153879238,
				"element": "C" 
			},
			{
				"x": 1.3534039465,
				"y": -0.9221675712,
				"z": -0.9278955039,
				"element": "C" 
			},
			{
				"x": 0.2536618976,
				"y": -1.3240495932,
				"z": -0.056799037,
				"element": "N" 
			},
			{
				"x": -0.9327283752,
				"y": -1.742147921,
				"z": -0.614510834,
				"element": "C" 
			},
			{
				"x": -1.1533652697,
				"y": -1.6542818724,
				"z": -1.8150597091,
				"element": "O" 
			},
			{
				"x": -1.9409666804,
				"y": -2.2560101322,
				"z": 0.3809057658,
				"element": "C" 
			},
			{
				"x": -2.6940418924,
				"y": -3.4219887758,
				"z": 0.1627478145,
				"element": "C" 
			},
			{
				"x": -2.4280852188,
				"y": -4.436694715,
				"z": -1.2410714935,
				"element": "Cl" 
			},
			{
				"x": -3.6536102257,
				"y": -3.8368761438,
				"z": 1.0872308548,
				"element": "C" 
			},
			{
				"x": -3.8841404283,
				"y": -3.0857039307,
				"z": 2.2391378856,
				"element": "C" 
			},
			{
				"x": -3.1485022788,
				"y": -1.9247515898,
				"z": 2.4758675776,
				"element": "C" 
			},
			{
				"x": -2.1845509171,
				"y": -1.5231067043,
				"z": 1.5538271296,
				"element": "C" 
			},
			{
				"x": 2.703999295,
				"y": -1.0696466558,
				"z": -0.2351279706,
				"element": "C" 
			},
			{
				"x": 2.6541491063,
				"y": -1.859041865,
				"z": 0.8662412995,
				"element": "O" 
			},
			{
				"x": 3.7251545959,
				"y": -0.55950336,
				"z": -0.6304830369,
				"element": "O" 
			},
			{
				"x": -0.946622689,
				"y": 2.4778701286,
				"z": -2.5400853503,
				"element": "H" 
			},
			{
				"x": -1.5516709585,
				"y": 2.9959009971,
				"z": -0.92315769,
				"element": "H" 
			},
			{
				"x": -1.0517083885,
				"y": 4.2150616347,
				"z": -2.1327790284,
				"element": "H" 
			},
			{
				"x": 0.3220075808,
				"y": 1.4033262321,
				"z": 0.2894321337,
				"element": "H" 
			},
			{
				"x": 2.0624775096,
				"y": 1.6892368306,
				"z": 0.0868233284,
				"element": "H" 
			},
			{
				"x": 2.0196671853,
				"y": 0.6969566587,
				"z": -2.1851718151,
				"element": "H" 
			},
			{
				"x": 0.2664924368,
				"y": 0.4692349744,
				"z": -2.112716696,
				"element": "H" 
			},
			{
				"x": 1.3758145152,
				"y": -1.6094985367,
				"z": -1.7866256963,
				"element": "H" 
			},
			{
				"x": 0.4898400501,
				"y": -1.6515070528,
				"z": 0.8691808127,
				"element": "H" 
			},
			{
				"x": -4.2110789619,
				"y": -4.747486033,
				"z": 0.8982457217,
				"element": "H" 
			},
			{
				"x": -4.6381457848,
				"y": -3.4129570689,
				"z": 2.9485345756,
				"element": "H" 
			},
			{
				"x": -3.3253646931,
				"y": -1.3332213375,
				"z": 3.3685402563,
				"element": "H" 
			},
			{
				"x": -1.6205699826,
				"y": -0.61125322,
				"z": 1.7254375356,
				"element": "H" 
			},
			{
				"x": 3.5607896899,
				"y": -1.9043421595,
				"z": 1.214948906,
				"element": "H" 
			}
		],
		 "valence_orbital": [ 
			{
				"type": "occ",
				"energy": -0.28435,
				"method": "rhf"
			},
			{
				"type": "occ",
				"energy": -0.28348,
				"method": "rhf"
			},
			{
				"type": "occ",
				"energy": -0.27687,
				"method": "rhf"
			},
			{
				"type": "occ",
				"energy": -0.26922,
				"method": "rhf"
			},
			{
				"type": "occ",
				"energy": -0.26106,
				"method": "rhf"
			},
			{
				"type": "unocc",
				"energy": -0.05059,
				"method": "rhf"
			},
			{
				"type": "unocc",
				"energy": -0.03209,
				"method": "rhf"
			},
			{
				"type": "unocc",
				"energy": -0.02136,
				"method": "rhf"
			},
			{
				"type": "unocc",
				"energy": 0.01755,
				"method": "rhf"
			},
			{
				"type": "unocc",
				"energy": 0.02468,
				"method": "rhf"
			}
		],
		"cosmo_sigma_profile": { 
			"-0.025": 0.0,
			"-0.024": 0.0,
			"-0.023": 0.0,
			"-0.022": 0.0,
			"-0.021": 0.0,
			"-0.02": 0.0106447328164,
			"-0.019": 0.683193263142,
			"-0.018": 1.10858590203,
			"-0.017": 0.858660298292,
			"-0.016": 0.827258149745,
			"-0.015": 0.577913774514,
			"-0.014": 0.972139905452,
			"-0.013": 0.592977339499,
			"-0.012": 0.507705082655,
			"-0.011": 1.91957863992,
			"-0.01": 2.91540428876,
			"-0.009": 7.02465421956,
			"-0.008": 14.3794942222,
			"-0.007": 21.3383341821,
			"-0.006": 22.2824133374,
			"-0.005": 22.8526271522,
			"-0.004": 22.6672460929,
			"-0.003": 18.8877114302,
			"-0.002": 15.6241571563,
			"-0.001": 14.2072183588,
			"0.0": 15.6178102302,
			"0.001": 17.6422501013,
			"0.002": 21.0904881001,
			"0.003": 21.230705144,
			"0.004": 14.252385111,
			"0.005": 8.93611638816,
			"0.006": 4.56069187334,
			"0.007": 5.66079708409,
			"0.008": 5.52368629859,
			"0.009": 7.43816426824,
			"0.01": 7.07920254802,
			"0.011": 14.9058820285,
			"0.012": 15.4123559276,
			"0.013": 6.14906701339,
			"0.014": 0.6297917559,
			"0.015": 0.0,
			"0.016": 0.0,
			"0.017": 0.0,
			"0.018": 0.0,
			"0.019": 0.0,
			"0.02": 0.0,
			"0.021": 0.0,
			"0.022": 0.0,
			"0.023": 0.0,
			"0.024": 0.0,
			"0.025": 0.0
		}
	}
}
