{
	 "smiles": "CC1CC2C3CCC(O)(C(=O)COC(C)=O)C3(C)CC(O)C2C2(C)C=CC(=O)C=C12", 
	 "Tm": 479.15, 
	 "num_atms": 62, 
	 "gaussian": { 
		 "optdone": 1, 
		 "sigma_profile": "yes", 
		 "theory": "DFT", 
		 "functional": "B3LYP", 
		 "basiset": "6-31G**", 
		 "properties": { 
			 "R2extent": 14345.7775, 
			 "electric_dipole_moment_norm": 6.53754310579, 
			 "electric_quadrupole_moment_norm": 30.227109011, 
			 "total_energy": -1385.16158722, 
			 "HOMO_LUMO_gap": 0.17605, 
			 "cosmo_polarized_energy": -26.07, 
			 "cosmo_cavitation_energy": 55.59, 
			 "cosmo_dispersion_energy": -37.51, 
			 "cosmo_repulsion_energy": 2.75, 
			 "cosmo_total_nonelectrostatic_energy": 20.83, 
			 "SMD_solvation_energy": 10.53 
		},
		"coords": [
			{
				"x": 2.9097072327,
				"y": -0.2077455172,
				"z": 2.6158219522,
				"element": "C" 
			},
			{
				"x": 1.778533115,
				"y": -1.1441842145,
				"z": 2.1662363303,
				"element": "C" 
			},
			{
				"x": 0.5053203573,
				"y": -0.3382636694,
				"z": 1.7625940292,
				"element": "C" 
			},
			{
				"x": 0.3116551542,
				"y": -0.314762987,
				"z": 0.24373128,
				"element": "C" 
			},
			{
				"x": -0.7670325828,
				"y": 0.6910863158,
				"z": -0.2116223618,
				"element": "C" 
			},
			{
				"x": -2.1944894912,
				"y": 0.4770090487,
				"z": 0.3796549346,
				"element": "C" 
			},
			{
				"x": -3.2027881134,
				"y": 0.8017091513,
				"z": -0.7485126253,
				"element": "C" 
			},
			{
				"x": -2.3929784967,
				"y": 1.388695705,
				"z": -1.9339866748,
				"element": "C" 
			},
			{
				"x": -2.9798701297,
				"y": 1.0144042528,
				"z": -3.1608504318,
				"element": "O" 
			},
			{
				"x": -2.3729185533,
				"y": 2.9358927809,
				"z": -1.9182888035,
				"element": "C" 
			},
			{
				"x": -2.5821679352,
				"y": 3.5361916794,
				"z": -2.9579377935,
				"element": "O" 
			},
			{
				"x": -2.1396620527,
				"y": 3.7154717458,
				"z": -0.6254382592,
				"element": "C" 
			},
			{
				"x": -2.3081256027,
				"y": 5.1120945062,
				"z": -0.8351422917,
				"element": "O" 
			},
			{
				"x": -1.2270613419,
				"y": 5.7603241113,
				"z": -1.3533015303,
				"element": "C" 
			},
			{
				"x": -1.5714253179,
				"y": 7.1890085602,
				"z": -1.6813423405,
				"element": "C" 
			},
			{
				"x": -0.1499541894,
				"y": 5.2326977887,
				"z": -1.5146303054,
				"element": "O" 
			},
			{
				"x": -0.9442820038,
				"y": 0.7617726788,
				"z": -1.7551810169,
				"element": "C" 
			},
			{
				"x": 0.13735745,
				"y": 1.5971501582,
				"z": -2.462212715,
				"element": "C" 
			},
			{
				"x": -0.9879516455,
				"y": -0.6709329958,
				"z": -2.3606014929,
				"element": "C" 
			},
			{
				"x": 0.0894550544,
				"y": -1.6442516338,
				"z": -1.8617290568,
				"element": "C" 
			},
			{
				"x": 1.3582736768,
				"y": -1.228093611,
				"z": -2.3591545708,
				"element": "O" 
			},
			{
				"x": 0.0588417444,
				"y": -1.7280061628,
				"z": -0.3166821014,
				"element": "C" 
			},
			{
				"x": 1.0267101964,
				"y": -2.8160933127,
				"z": 0.3466259166,
				"element": "C" 
			},
			{
				"x": 0.2099039291,
				"y": -3.643387977,
				"z": 1.3880575268,
				"element": "C" 
			},
			{
				"x": 1.5012324873,
				"y": -3.8207711615,
				"z": -0.6758237444,
				"element": "C" 
			},
			{
				"x": 2.7877760222,
				"y": -4.0777942847,
				"z": -0.9567483669,
				"element": "C" 
			},
			{
				"x": 3.8806813453,
				"y": -3.360942198,
				"z": -0.2636050944,
				"element": "C" 
			},
			{
				"x": 5.0625148493,
				"y": -3.5877142167,
				"z": -0.5118269838,
				"element": "O" 
			},
			{
				"x": 3.4648045623,
				"y": -2.3763471054,
				"z": 0.7499192029,
				"element": "C" 
			},
			{
				"x": 2.1786304527,
				"y": -2.1177161961,
				"z": 1.0618182327,
				"element": "C" 
			},
			{
				"x": 3.2507588969,
				"y": 0.4297210829,
				"z": 1.79294335,
				"element": "H" 
			},
			{
				"x": 2.55231402,
				"y": 0.4416225297,
				"z": 3.4208578765,
				"element": "H" 
			},
			{
				"x": 3.7738101051,
				"y": -0.756898675,
				"z": 2.9994509078,
				"element": "H" 
			},
			{
				"x": 1.5159762682,
				"y": -1.7649984848,
				"z": 3.0357944463,
				"element": "H" 
			},
			{
				"x": 0.5978766749,
				"y": 0.6873048777,
				"z": 2.1394406467,
				"element": "H" 
			},
			{
				"x": -0.3855361217,
				"y": -0.7570321909,
				"z": 2.2461933472,
				"element": "H" 
			},
			{
				"x": 1.2577242689,
				"y": 0.0231394178,
				"z": -0.1997861621,
				"element": "H" 
			},
			{
				"x": -0.4073108184,
				"y": 1.6700363704,
				"z": 0.1295136911,
				"element": "H" 
			},
			{
				"x": -2.3452756782,
				"y": 1.1127708533,
				"z": 1.258190169,
				"element": "H" 
			},
			{
				"x": -2.3393211679,
				"y": -0.5503883943,
				"z": 0.7277031834,
				"element": "H" 
			},
			{
				"x": -3.6856419902,
				"y": -0.1035213207,
				"z": -1.1248808249,
				"element": "H" 
			},
			{
				"x": -4.0141722703,
				"y": 1.4631506946,
				"z": -0.4279561666,
				"element": "H" 
			},
			{
				"x": -2.9629551469,
				"y": 1.8151435359,
				"z": -3.7156031168,
				"element": "H" 
			},
			{
				"x": -2.8778855626,
				"y": 3.4271167994,
				"z": 0.1269552818,
				"element": "H" 
			},
			{
				"x": -1.1387964055,
				"y": 3.5062057502,
				"z": -0.2396034412,
				"element": "H" 
			},
			{
				"x": -2.2173471165,
				"y": 7.2017999063,
				"z": -2.5651024975,
				"element": "H" 
			},
			{
				"x": -2.1245408327,
				"y": 7.6527658541,
				"z": -0.8608948753,
				"element": "H" 
			},
			{
				"x": -0.6579605824,
				"y": 7.7444927765,
				"z": -1.8910879897,
				"element": "H" 
			},
			{
				"x": -0.1280527577,
				"y": 1.7299629566,
				"z": -3.5169513299,
				"element": "H" 
			},
			{
				"x": 0.2517187523,
				"y": 2.5939740378,
				"z": -2.022978137,
				"element": "H" 
			},
			{
				"x": 1.101932122,
				"y": 1.0887503674,
				"z": -2.4323921227,
				"element": "H" 
			},
			{
				"x": -1.9554233682,
				"y": -1.1384431356,
				"z": -2.1492812272,
				"element": "H" 
			},
			{
				"x": -0.9223121529,
				"y": -0.6030708351,
				"z": -3.4489045264,
				"element": "H" 
			},
			{
				"x": -0.1634294554,
				"y": -2.6284233256,
				"z": -2.2846723099,
				"element": "H" 
			},
			{
				"x": 1.9887460926,
				"y": -1.9429595031,
				"z": -2.1935620512,
				"element": "H" 
			},
			{
				"x": -0.9614933038,
				"y": -2.0365288202,
				"z": -0.0527184057,
				"element": "H" 
			},
			{
				"x": -0.2498738205,
				"y": -3.001659624,
				"z": 2.1431917531,
				"element": "H" 
			},
			{
				"x": 0.8525664663,
				"y": -4.3694381724,
				"z": 1.894775169,
				"element": "H" 
			},
			{
				"x": -0.5934719484,
				"y": -4.1908297176,
				"z": 0.8843272507,
				"element": "H" 
			},
			{
				"x": 0.7190137285,
				"y": -4.3887154768,
				"z": -1.17696434,
				"element": "H" 
			},
			{
				"x": 3.0826320415,
				"y": -4.8311595339,
				"z": -1.6819507457,
				"element": "H" 
			},
			{
				"x": 4.2865408899,
				"y": -1.8740918402,
				"z": 1.2484123528,
				"element": "H" 
			}
		],
		 "valence_orbital": [ 
			{
				"type": "occ",
				"energy": -0.27335,
				"method": "rhf"
			},
			{
				"type": "occ",
				"energy": -0.26701,
				"method": "rhf"
			},
			{
				"type": "occ",
				"energy": -0.25787,
				"method": "rhf"
			},
			{
				"type": "occ",
				"energy": -0.25306,
				"method": "rhf"
			},
			{
				"type": "occ",
				"energy": -0.2386,
				"method": "rhf"
			},
			{
				"type": "unocc",
				"energy": -0.06255,
				"method": "rhf"
			},
			{
				"type": "unocc",
				"energy": -0.03608,
				"method": "rhf"
			},
			{
				"type": "unocc",
				"energy": -0.00636,
				"method": "rhf"
			},
			{
				"type": "unocc",
				"energy": 0.00463,
				"method": "rhf"
			},
			{
				"type": "unocc",
				"energy": 0.0535,
				"method": "rhf"
			}
		],
		"cosmo_sigma_profile": { 
			"-0.025": 0.0,
			"-0.024": 0.0,
			"-0.023": 0.0,
			"-0.022": 0.0,
			"-0.021": 0.0,
			"-0.02": 0.0,
			"-0.019": 0.0,
			"-0.018": 0.0,
			"-0.017": 0.0,
			"-0.016": 0.0,
			"-0.015": 0.0,
			"-0.014": 0.0,
			"-0.013": 0.0,
			"-0.012": 0.0,
			"-0.011": 0.0163553613344,
			"-0.01": 0.446082191736,
			"-0.009": 3.01897969464,
			"-0.008": 5.18524252885,
			"-0.007": 11.4827724327,
			"-0.006": 17.817194355,
			"-0.005": 28.1258946654,
			"-0.004": 42.9717371723,
			"-0.003": 46.9587152547,
			"-0.002": 47.8841673024,
			"-0.001": 44.1988477557,
			"0.0": 36.781048619,
			"0.001": 26.4025339109,
			"0.002": 19.112294235,
			"0.003": 13.3950931046,
			"0.004": 8.765170358,
			"0.005": 8.63019830039,
			"0.006": 9.40657257443,
			"0.007": 9.87751529747,
			"0.008": 10.4054547499,
			"0.009": 7.66316895969,
			"0.01": 7.63514037781,
			"0.011": 5.89686199683,
			"0.012": 6.61721714387,
			"0.013": 7.21323936193,
			"0.014": 4.58093328218,
			"0.015": 1.07736962537,
			"0.016": 0.0,
			"0.017": 0.0,
			"0.018": 0.0,
			"0.019": 0.0,
			"0.02": 0.0,
			"0.021": 0.0,
			"0.022": 0.0,
			"0.023": 0.0,
			"0.024": 0.0,
			"0.025": 0.0
		}
	}
}
