{
	 "smiles": "CCNC1=C2C=CC=CC2=NC(S)=N1", 
	 "Tm": 557.15, 
	 "num_atms": 25, 
	 "gaussian": { 
		 "optdone": 1, 
		 "sigma_profile": "yes", 
		 "theory": "DFT", 
		 "functional": "B3LYP", 
		 "basiset": "6-31G**", 
		 "properties": { 
			 "R2extent": 3549.5547, 
			 "electric_dipole_moment_norm": 5.19380417998, 
			 "electric_quadrupole_moment_norm": 11.0138858392, 
			 "total_energy": -950.161600067, 
			 "HOMO_LUMO_gap": 0.16546, 
			 "cosmo_polarized_energy": -13.64, 
			 "cosmo_cavitation_energy": 30.19, 
			 "cosmo_dispersion_energy": -22.61, 
			 "cosmo_repulsion_energy": 1.75, 
			 "cosmo_total_nonelectrostatic_energy": 9.32, 
			 "SMD_solvation_energy": 1.66 
		},
		"coords": [
			{
				"x": -0.9703163718,
				"y": -3.7240842737,
				"z": -0.4131610479,
				"element": "C" 
			},
			{
				"x": 0.3381853272,
				"y": -2.9906588647,
				"z": -0.1025672078,
				"element": "C" 
			},
			{
				"x": 0.1700878395,
				"y": -1.8445367699,
				"z": 0.7866375078,
				"element": "N" 
			},
			{
				"x": -0.2283921258,
				"y": -0.6163590352,
				"z": 0.360972104,
				"element": "C" 
			},
			{
				"x": -0.4603315995,
				"y": 0.4589812751,
				"z": 1.3025652223,
				"element": "C" 
			},
			{
				"x": -0.3001223259,
				"y": 0.3639709685,
				"z": 2.7035840247,
				"element": "C" 
			},
			{
				"x": -0.5634057278,
				"y": 1.4499089321,
				"z": 3.5157418428,
				"element": "C" 
			},
			{
				"x": -0.9938459607,
				"y": 2.668686086,
				"z": 2.9466198325,
				"element": "C" 
			},
			{
				"x": -1.147803512,
				"y": 2.7902585743,
				"z": 1.5815598209,
				"element": "C" 
			},
			{
				"x": -0.8808210994,
				"y": 1.6915250479,
				"z": 0.7268058336,
				"element": "C" 
			},
			{
				"x": -1.0298804317,
				"y": 1.8544683003,
				"z": -0.6235479623,
				"element": "N" 
			},
			{
				"x": -0.7604787147,
				"y": 0.7984285103,
				"z": -1.3543620171,
				"element": "C" 
			},
			{
				"x": -0.9425471015,
				"y": 1.0382848708,
				"z": -3.1139167945,
				"element": "S" 
			},
			{
				"x": -0.3784767713,
				"y": -0.4343600144,
				"z": -0.9479083379,
				"element": "N" 
			},
			{
				"x": -1.6709671202,
				"y": -3.0529397508,
				"z": -0.9163059953,
				"element": "H" 
			},
			{
				"x": -1.4435330692,
				"y": -4.0992727463,
				"z": 0.5006171597,
				"element": "H" 
			},
			{
				"x": -0.7792965793,
				"y": -4.5789982345,
				"z": -1.070494707,
				"element": "H" 
			},
			{
				"x": 0.7898697812,
				"y": -2.622814128,
				"z": -1.0258523394,
				"element": "H" 
			},
			{
				"x": 1.0553398569,
				"y": -3.6676019434,
				"z": 0.3740590236,
				"element": "H" 
			},
			{
				"x": 0.1232903564,
				"y": -2.0304257202,
				"z": 1.7753003824,
				"element": "H" 
			},
			{
				"x": 0.0459333415,
				"y": -0.5591037153,
				"z": 3.1614152886,
				"element": "H" 
			},
			{
				"x": -0.4360228833,
				"y": 1.3684219164,
				"z": 4.5907405556,
				"element": "H" 
			},
			{
				"x": -1.1998058845,
				"y": 3.5177077558,
				"z": 3.5922442654,
				"element": "H" 
			},
			{
				"x": -1.4699199464,
				"y": 3.7178502797,
				"z": 1.1204243066,
				"element": "H" 
			},
			{
				"x": -0.5894392776,
				"y": -0.2182373208,
				"z": -3.4443707612,
				"element": "H" 
			}
		],
		 "valence_orbital": [ 
			{
				"type": "occ",
				"energy": -0.28387,
				"method": "rhf"
			},
			{
				"type": "occ",
				"energy": -0.25956,
				"method": "rhf"
			},
			{
				"type": "occ",
				"energy": -0.2474,
				"method": "rhf"
			},
			{
				"type": "occ",
				"energy": -0.24333,
				"method": "rhf"
			},
			{
				"type": "occ",
				"energy": -0.21156,
				"method": "rhf"
			},
			{
				"type": "unocc",
				"energy": -0.0461,
				"method": "rhf"
			},
			{
				"type": "unocc",
				"energy": -0.02,
				"method": "rhf"
			},
			{
				"type": "unocc",
				"energy": 0.02783,
				"method": "rhf"
			},
			{
				"type": "unocc",
				"energy": 0.03365,
				"method": "rhf"
			},
			{
				"type": "unocc",
				"energy": 0.06031,
				"method": "rhf"
			}
		],
		"cosmo_sigma_profile": { 
			"-0.025": 0.0,
			"-0.024": 0.0,
			"-0.023": 0.0,
			"-0.022": 0.0,
			"-0.021": 0.0,
			"-0.02": 0.0,
			"-0.019": 0.0,
			"-0.018": 0.0,
			"-0.017": 0.0,
			"-0.016": 0.06212600151,
			"-0.015": 0.804509003283,
			"-0.014": 1.30543811236,
			"-0.013": 1.66714469178,
			"-0.012": 0.919229715559,
			"-0.011": 1.32321806045,
			"-0.01": 2.54859596126,
			"-0.009": 2.70516793882,
			"-0.008": 3.18029781241,
			"-0.007": 4.13993537058,
			"-0.006": 8.8397741247,
			"-0.005": 12.2442786562,
			"-0.004": 15.762987431,
			"-0.003": 16.5970418825,
			"-0.002": 17.2830081722,
			"-0.001": 17.9417578267,
			"0.0": 20.8048295185,
			"0.001": 20.0010708974,
			"0.002": 17.9953398099,
			"0.003": 20.5537372599,
			"0.004": 19.0773718142,
			"0.005": 10.3632227353,
			"0.006": 7.46367974186,
			"0.007": 7.59921568641,
			"0.008": 5.43971962295,
			"0.009": 1.56275071931,
			"0.01": 0.888651458523,
			"0.011": 0.590957051235,
			"0.012": 1.45952609423,
			"0.013": 0.784781825976,
			"0.014": 0.98321952187,
			"0.015": 0.416154742066,
			"0.016": 0.0,
			"0.017": 0.0,
			"0.018": 0.0,
			"0.019": 0.0,
			"0.02": 0.0,
			"0.021": 0.0,
			"0.022": 0.0,
			"0.023": 0.0,
			"0.024": 0.0,
			"0.025": 0.0
		}
	}
}
