{
	 "smiles": "OC(=O)CCCCN1C(=O)C=CC1=O", 
	 "Tm": 358.15, 
	 "num_atms": 25, 
	 "gaussian": { 
		 "optdone": 1, 
		 "sigma_profile": "yes", 
		 "theory": "DFT", 
		 "functional": "B3LYP", 
		 "basiset": "6-31G**", 
		 "properties": { 
			 "R2extent": 4426.7611, 
			 "electric_dipole_moment_norm": 2.12183707669, 
			 "electric_quadrupole_moment_norm": 18.8565275329, 
			 "total_energy": -705.260904504, 
			 "HOMO_LUMO_gap": 0.17414, 
			 "cosmo_polarized_energy": -16.15, 
			 "cosmo_cavitation_energy": 30.24, 
			 "cosmo_dispersion_energy": -20.84, 
			 "cosmo_repulsion_energy": 1.67, 
			 "cosmo_total_nonelectrostatic_energy": 11.06, 
			 "SMD_solvation_energy": 7.53 
		},
		"coords": [
			{
				"x": 4.030337165,
				"y": -4.2898084677,
				"z": 1.3901215715,
				"element": "O" 
			},
			{
				"x": 3.3285557702,
				"y": -3.1327018233,
				"z": 1.467179788,
				"element": "C" 
			},
			{
				"x": 3.8158606282,
				"y": -2.1064136011,
				"z": 1.8904161548,
				"element": "O" 
			},
			{
				"x": 1.9045021145,
				"y": -3.3163754524,
				"z": 0.9849144835,
				"element": "C" 
			},
			{
				"x": 1.1021410954,
				"y": -2.0133426123,
				"z": 0.9234064672,
				"element": "C" 
			},
			{
				"x": 1.5718063292,
				"y": -1.0619713044,
				"z": -0.1844390555,
				"element": "C" 
			},
			{
				"x": 0.7785023541,
				"y": 0.2485465353,
				"z": -0.2561167107,
				"element": "C" 
			},
			{
				"x": -0.6290234763,
				"y": 0.0688141404,
				"z": -0.6066355029,
				"element": "N" 
			},
			{
				"x": -1.6962858955,
				"y": 0.1437514215,
				"z": 0.2945356903,
				"element": "C" 
			},
			{
				"x": -1.6061085859,
				"y": 0.3291720097,
				"z": 1.4913815111,
				"element": "O" 
			},
			{
				"x": -2.9451161491,
				"y": -0.0450692567,
				"z": -0.5224251954,
				"element": "C" 
			},
			{
				"x": -2.5983902027,
				"y": -0.2047162913,
				"z": -1.8029999392,
				"element": "C" 
			},
			{
				"x": -1.0997352052,
				"y": -0.1290295611,
				"z": -1.9076220841,
				"element": "C" 
			},
			{
				"x": -0.4122428031,
				"y": -0.211953452,
				"z": -2.9058730155,
				"element": "O" 
			},
			{
				"x": 4.9184493333,
				"y": -4.0895561185,
				"z": 1.730847949,
				"element": "H" 
			},
			{
				"x": 1.4308351505,
				"y": -4.0351323783,
				"z": 1.6657438,
				"element": "H" 
			},
			{
				"x": 1.9395912288,
				"y": -3.8168094384,
				"z": 0.0092612287,
				"element": "H" 
			},
			{
				"x": 0.0473842801,
				"y": -2.2686494484,
				"z": 0.7704521803,
				"element": "H" 
			},
			{
				"x": 1.1656921326,
				"y": -1.5062524147,
				"z": 1.8922856599,
				"element": "H" 
			},
			{
				"x": 1.5183745409,
				"y": -1.5591623859,
				"z": -1.1611293745,
				"element": "H" 
			},
			{
				"x": 2.6213891,
				"y": -0.8002311602,
				"z": -0.0130603895,
				"element": "H" 
			},
			{
				"x": 1.220311273,
				"y": 0.9086362643,
				"z": -1.0081431437,
				"element": "H" 
			},
			{
				"x": 0.7909619098,
				"y": 0.7628912293,
				"z": 0.708847447,
				"element": "H" 
			},
			{
				"x": -3.9283217065,
				"y": -0.037992418,
				"z": -0.0706353569,
				"element": "H" 
			},
			{
				"x": -3.2242703813,
				"y": -0.3617440156,
				"z": -2.6716141634,
				"element": "H" 
			}
		],
		 "valence_orbital": [ 
			{
				"type": "occ",
				"energy": -0.30784,
				"method": "rhf"
			},
			{
				"type": "occ",
				"energy": -0.29615,
				"method": "rhf"
			},
			{
				"type": "occ",
				"energy": -0.2774,
				"method": "rhf"
			},
			{
				"type": "occ",
				"energy": -0.27348,
				"method": "rhf"
			},
			{
				"type": "occ",
				"energy": -0.27045,
				"method": "rhf"
			},
			{
				"type": "unocc",
				"energy": -0.09631,
				"method": "rhf"
			},
			{
				"type": "unocc",
				"energy": 0.00726,
				"method": "rhf"
			},
			{
				"type": "unocc",
				"energy": 0.05426,
				"method": "rhf"
			},
			{
				"type": "unocc",
				"energy": 0.06469,
				"method": "rhf"
			},
			{
				"type": "unocc",
				"energy": 0.07761,
				"method": "rhf"
			}
		],
		"cosmo_sigma_profile": { 
			"-0.025": 0.0,
			"-0.024": 0.0,
			"-0.023": 0.0,
			"-0.022": 0.0,
			"-0.021": 0.0,
			"-0.02": 0.0,
			"-0.019": 0.0,
			"-0.018": 0.588356457781,
			"-0.017": 0.739493235612,
			"-0.016": 1.22177676956,
			"-0.015": 0.909430817498,
			"-0.014": 0.110931714374,
			"-0.013": 0.175180612574,
			"-0.012": 1.60940510558,
			"-0.011": 1.03061895257,
			"-0.01": 1.38718205822,
			"-0.009": 4.19524815824,
			"-0.008": 3.63820766064,
			"-0.007": 4.48730448048,
			"-0.006": 8.90125767518,
			"-0.005": 17.2911131818,
			"-0.004": 22.1162274901,
			"-0.003": 29.9410025427,
			"-0.002": 25.4760874575,
			"-0.001": 16.1970069595,
			"0.0": 12.7107869819,
			"0.001": 7.67830474641,
			"0.002": 7.01046818586,
			"0.003": 6.8452594846,
			"0.004": 5.67832016556,
			"0.005": 7.58998949919,
			"0.006": 5.97282571273,
			"0.007": 4.3529467623,
			"0.008": 5.62410172955,
			"0.009": 7.18113655496,
			"0.01": 8.43350763411,
			"0.011": 11.899494686,
			"0.012": 7.45019773703,
			"0.013": 0.389666297808,
			"0.014": 0.0,
			"0.015": 0.0,
			"0.016": 0.0,
			"0.017": 0.0,
			"0.018": 0.0,
			"0.019": 0.0,
			"0.02": 0.0,
			"0.021": 0.0,
			"0.022": 0.0,
			"0.023": 0.0,
			"0.024": 0.0,
			"0.025": 0.0
		}
	}
}
