{
	 "smiles": "NC1=C(C=CC(OC2=CC=CC=C2)=C1Cl)[N+]([O-])=O", 
	 "Tm": 354.65, 
	 "num_atms": 27, 
	 "gaussian": { 
		 "optdone": 1, 
		 "sigma_profile": "yes", 
		 "theory": "DFT", 
		 "functional": "B3LYP", 
		 "basiset": "6-31G**", 
		 "properties": { 
			 "R2extent": 6707.9034, 
			 "electric_dipole_moment_norm": 4.37601598946, 
			 "electric_quadrupole_moment_norm": 27.3854347893, 
			 "total_energy": -1257.9663788, 
			 "HOMO_LUMO_gap": 0.1461, 
			 "cosmo_polarized_energy": -11.42, 
			 "cosmo_cavitation_energy": 33.77, 
			 "cosmo_dispersion_energy": -24.84, 
			 "cosmo_repulsion_energy": 1.91, 
			 "cosmo_total_nonelectrostatic_energy": 10.84, 
			 "SMD_solvation_energy": 7.61 
		},
		"coords": [
			{
				"x": 3.0972725759,
				"y": -2.4768076311,
				"z": -2.3813498037,
				"element": "N" 
			},
			{
				"x": 1.8726575516,
				"y": -2.082249681,
				"z": -1.9753219639,
				"element": "C" 
			},
			{
				"x": 0.6571381484,
				"y": -2.6633860874,
				"z": -2.4528495898,
				"element": "C" 
			},
			{
				"x": -0.588445255,
				"y": -2.2135958129,
				"z": -1.9936883904,
				"element": "C" 
			},
			{
				"x": -0.6915994341,
				"y": -1.1946349899,
				"z": -1.0714184046,
				"element": "C" 
			},
			{
				"x": 0.4852294164,
				"y": -0.5936197689,
				"z": -0.5823103275,
				"element": "C" 
			},
			{
				"x": 0.4875616623,
				"y": 0.3990076578,
				"z": 0.346557372,
				"element": "O" 
			},
			{
				"x": -0.6979588649,
				"y": 1.0446441862,
				"z": 0.6931373151,
				"element": "C" 
			},
			{
				"x": -1.2906793589,
				"y": 1.9469892765,
				"z": -0.1904669448,
				"element": "C" 
			},
			{
				"x": -2.4303615551,
				"y": 2.6414283275,
				"z": 0.2169867069,
				"element": "C" 
			},
			{
				"x": -2.9617300635,
				"y": 2.4394852,
				"z": 1.4933159018,
				"element": "C" 
			},
			{
				"x": -2.3502673633,
				"y": 1.538602529,
				"z": 2.3674687521,
				"element": "C" 
			},
			{
				"x": -1.2128423141,
				"y": 0.8330009852,
				"z": 1.9700394836,
				"element": "C" 
			},
			{
				"x": 1.7312102554,
				"y": -1.0340280327,
				"z": -1.0279293668,
				"element": "C" 
			},
			{
				"x": 3.1790998632,
				"y": -0.2710015504,
				"z": -0.4000309334,
				"element": "Cl" 
			},
			{
				"x": 0.6520460512,
				"y": -3.7358921035,
				"z": -3.4203879523,
				"element": "N" 
			},
			{
				"x": -0.4333374841,
				"y": -4.1881737547,
				"z": -3.7898969012,
				"element": "O" 
			},
			{
				"x": 1.7386513152,
				"y": -4.1709702307,
				"z": -3.8514735857,
				"element": "O" 
			},
			{
				"x": 3.9143855111,
				"y": -2.0276229793,
				"z": -2.0026308355,
				"element": "H" 
			},
			{
				"x": 3.1484462923,
				"y": -3.227563646,
				"z": -3.0554280452,
				"element": "H" 
			},
			{
				"x": -1.4716961077,
				"y": -2.6994441924,
				"z": -2.3872460046,
				"element": "H" 
			},
			{
				"x": -1.6575649125,
				"y": -0.8593162568,
				"z": -0.717837374,
				"element": "H" 
			},
			{
				"x": -0.8571058903,
				"y": 2.1018664334,
				"z": -1.1730563873,
				"element": "H" 
			},
			{
				"x": -2.898427588,
				"y": 3.3467269526,
				"z": -0.4631759866,
				"element": "H" 
			},
			{
				"x": -3.8462067227,
				"y": 2.9857443058,
				"z": 1.8062086848,
				"element": "H" 
			},
			{
				"x": -2.7570258157,
				"y": 1.3818082529,
				"z": 3.361970192,
				"element": "H" 
			},
			{
				"x": -0.717249913,
				"y": 0.1320026109,
				"z": 2.6333143888,
				"element": "H" 
			}
		],
		 "valence_orbital": [ 
			{
				"type": "occ",
				"energy": -0.28416,
				"method": "rhf"
			},
			{
				"type": "occ",
				"energy": -0.27066,
				"method": "rhf"
			},
			{
				"type": "occ",
				"energy": -0.2634,
				"method": "rhf"
			},
			{
				"type": "occ",
				"energy": -0.24585,
				"method": "rhf"
			},
			{
				"type": "occ",
				"energy": -0.2267,
				"method": "rhf"
			},
			{
				"type": "unocc",
				"energy": -0.0806,
				"method": "rhf"
			},
			{
				"type": "unocc",
				"energy": -0.02343,
				"method": "rhf"
			},
			{
				"type": "unocc",
				"energy": -0.01753,
				"method": "rhf"
			},
			{
				"type": "unocc",
				"energy": -0.00872,
				"method": "rhf"
			},
			{
				"type": "unocc",
				"energy": 0.01286,
				"method": "rhf"
			}
		],
		"cosmo_sigma_profile": { 
			"-0.025": 0.0,
			"-0.024": 0.0,
			"-0.023": 0.0,
			"-0.022": 0.0,
			"-0.021": 0.0,
			"-0.02": 0.0,
			"-0.019": 0.0,
			"-0.018": 0.0,
			"-0.017": 0.0,
			"-0.016": 0.0,
			"-0.015": 0.0,
			"-0.014": 0.159917118845,
			"-0.013": 0.724927860047,
			"-0.012": 1.24544535166,
			"-0.011": 0.78937729147,
			"-0.01": 2.08900008538,
			"-0.009": 2.01760805302,
			"-0.008": 1.88803189991,
			"-0.007": 7.80518347411,
			"-0.006": 14.4471693191,
			"-0.005": 17.0771883425,
			"-0.004": 16.2181271921,
			"-0.003": 16.6895851733,
			"-0.002": 20.8409254695,
			"-0.001": 21.5716574043,
			"0.0": 28.7640824035,
			"0.001": 23.296808878,
			"0.002": 20.8490608324,
			"0.003": 20.1656508937,
			"0.004": 17.9136543434,
			"0.005": 8.87661193758,
			"0.006": 5.17135021978,
			"0.007": 5.11559099164,
			"0.008": 7.79482770032,
			"0.009": 5.48201940258,
			"0.01": 4.1425939731,
			"0.011": 2.75221950808,
			"0.012": 0.0918053256557,
			"0.013": 0.0,
			"0.014": 0.0,
			"0.015": 0.0,
			"0.016": 0.0,
			"0.017": 0.0,
			"0.018": 0.0,
			"0.019": 0.0,
			"0.02": 0.0,
			"0.021": 0.0,
			"0.022": 0.0,
			"0.023": 0.0,
			"0.024": 0.0,
			"0.025": 0.0
		}
	}
}
