{
	 "smiles": "CC(C)(C)OC(=O)N1CCCN(CC1)C1=CC(O)=CC=C1", 
	 "Tm": 417.15, 
	 "num_atms": 45, 
	 "gaussian": { 
		 "optdone": 1, 
		 "sigma_profile": "yes", 
		 "theory": "DFT", 
		 "functional": "B3LYP", 
		 "basiset": "6-31G**", 
		 "properties": { 
			 "R2extent": 9885.774, 
			 "electric_dipole_moment_norm": 2.58495252954, 
			 "electric_quadrupole_moment_norm": 15.6771952326, 
			 "total_energy": -959.364332672, 
			 "HOMO_LUMO_gap": 0.19933, 
			 "cosmo_polarized_energy": -15.86, 
			 "cosmo_cavitation_energy": 44.29, 
			 "cosmo_dispersion_energy": -31.1, 
			 "cosmo_repulsion_energy": 2.36, 
			 "cosmo_total_nonelectrostatic_energy": 15.55, 
			 "SMD_solvation_energy": 7.0 
		},
		"coords": [
			{
				"x": -0.475645174,
				"y": -3.4934860889,
				"z": 3.7602088621,
				"element": "C" 
			},
			{
				"x": -0.9143958402,
				"y": -2.111764991,
				"z": 4.2572036027,
				"element": "C" 
			},
			{
				"x": -2.4000859386,
				"y": -2.1157557592,
				"z": 4.6277199999,
				"element": "C" 
			},
			{
				"x": -0.0634266292,
				"y": -1.6197333438,
				"z": 5.4328272182,
				"element": "C" 
			},
			{
				"x": -0.863823369,
				"y": -1.139194804,
				"z": 3.154272746,
				"element": "O" 
			},
			{
				"x": 0.3098861596,
				"y": -0.8406186275,
				"z": 2.5418960102,
				"element": "C" 
			},
			{
				"x": 1.3974311391,
				"y": -1.3313819931,
				"z": 2.814313783,
				"element": "O" 
			},
			{
				"x": 0.1102085109,
				"y": 0.104634549,
				"z": 1.5653692277,
				"element": "N" 
			},
			{
				"x": 1.2594585698,
				"y": 0.5030858218,
				"z": 0.7487615919,
				"element": "C" 
			},
			{
				"x": 1.2312145856,
				"y": -0.0978283073,
				"z": -0.6652300081,
				"element": "C" 
			},
			{
				"x": -0.1618011356,
				"y": 0.0499176857,
				"z": -1.3063928639,
				"element": "C" 
			},
			{
				"x": -0.7642074737,
				"y": 1.3644428973,
				"z": -1.1156971931,
				"element": "N" 
			},
			{
				"x": -1.2952990667,
				"y": 1.7013622617,
				"z": 0.2088056457,
				"element": "C" 
			},
			{
				"x": -1.2462053236,
				"y": 0.5799044159,
				"z": 1.2466853665,
				"element": "C" 
			},
			{
				"x": -0.544343171,
				"y": 2.4047376738,
				"z": -2.0187195732,
				"element": "C" 
			},
			{
				"x": 0.2759562195,
				"y": 2.2398094444,
				"z": -3.1577763596,
				"element": "C" 
			},
			{
				"x": 0.4593990516,
				"y": 3.2831427122,
				"z": -4.0666267785,
				"element": "C" 
			},
			{
				"x": 1.2507968244,
				"y": 3.1385958151,
				"z": -5.1738023984,
				"element": "O" 
			},
			{
				"x": -0.1492006931,
				"y": 4.5269681034,
				"z": -3.8741160683,
				"element": "C" 
			},
			{
				"x": -0.9469988377,
				"y": 4.6942621295,
				"z": -2.7471043952,
				"element": "C" 
			},
			{
				"x": -1.1515302184,
				"y": 3.6667014626,
				"z": -1.827180125,
				"element": "C" 
			},
			{
				"x": 0.5758865475,
				"y": -3.4884387329,
				"z": 3.4732702176,
				"element": "H" 
			},
			{
				"x": -1.0788183103,
				"y": -3.7957781675,
				"z": 2.8979603963,
				"element": "H" 
			},
			{
				"x": -0.6242052083,
				"y": -4.2333550427,
				"z": 4.5535125396,
				"element": "H" 
			},
			{
				"x": -3.0109448309,
				"y": -2.4228403535,
				"z": 3.7736805269,
				"element": "H" 
			},
			{
				"x": -2.7229550972,
				"y": -1.1190190412,
				"z": 4.9424922191,
				"element": "H" 
			},
			{
				"x": -2.5802030277,
				"y": -2.8136540087,
				"z": 5.4507457526,
				"element": "H" 
			},
			{
				"x": -0.198749141,
				"y": -2.2885357685,
				"z": 6.2891217595,
				"element": "H" 
			},
			{
				"x": -0.3774652851,
				"y": -0.6152636466,
				"z": 5.7343402461,
				"element": "H" 
			},
			{
				"x": 0.9931023757,
				"y": -1.5953572973,
				"z": 5.1659900664,
				"element": "H" 
			},
			{
				"x": 2.151258509,
				"y": 0.1816538792,
				"z": 1.2858358953,
				"element": "H" 
			},
			{
				"x": 1.2863056195,
				"y": 1.5956038346,
				"z": 0.6837350262,
				"element": "H" 
			},
			{
				"x": 1.9915836684,
				"y": 0.4102852302,
				"z": -1.2706078205,
				"element": "H" 
			},
			{
				"x": 1.4975808772,
				"y": -1.1611081157,
				"z": -0.6279855642,
				"element": "H" 
			},
			{
				"x": -0.1319650863,
				"y": -0.1745114778,
				"z": -2.3747339788,
				"element": "H" 
			},
			{
				"x": -0.8327529201,
				"y": -0.6992519731,
				"z": -0.8767511368,
				"element": "H" 
			},
			{
				"x": -0.7674028327,
				"y": 2.5804705373,
				"z": 0.6051516553,
				"element": "H" 
			},
			{
				"x": -2.354225135,
				"y": 1.9895583384,
				"z": 0.1316969578,
				"element": "H" 
			},
			{
				"x": -1.8750901796,
				"y": -0.2597281479,
				"z": 0.9279865215,
				"element": "H" 
			},
			{
				"x": -1.7114509013,
				"y": 0.9744089629,
				"z": 2.1558349429,
				"element": "H" 
			},
			{
				"x": 0.7970873091,
				"y": 1.3050565668,
				"z": -3.3364746007,
				"element": "H" 
			},
			{
				"x": 1.5997830214,
				"y": 2.2383718275,
				"z": -5.1967918876,
				"element": "H" 
			},
			{
				"x": 0.0134005435,
				"y": 5.3215631276,
				"z": -4.593041403,
				"element": "H" 
			},
			{
				"x": -1.4324202341,
				"y": 5.6515351425,
				"z": -2.5767869546,
				"element": "H" 
			},
			{
				"x": -1.8007284716,
				"y": 3.845133269,
				"z": -0.9801996674,
				"element": "H" 
			}
		],
		 "valence_orbital": [ 
			{
				"type": "occ",
				"energy": -0.27333,
				"method": "rhf"
			},
			{
				"type": "occ",
				"energy": -0.25982,
				"method": "rhf"
			},
			{
				"type": "occ",
				"energy": -0.23733,
				"method": "rhf"
			},
			{
				"type": "occ",
				"energy": -0.21932,
				"method": "rhf"
			},
			{
				"type": "occ",
				"energy": -0.18715,
				"method": "rhf"
			},
			{
				"type": "unocc",
				"energy": 0.01218,
				"method": "rhf"
			},
			{
				"type": "unocc",
				"energy": 0.02942,
				"method": "rhf"
			},
			{
				"type": "unocc",
				"energy": 0.05233,
				"method": "rhf"
			},
			{
				"type": "unocc",
				"energy": 0.06997,
				"method": "rhf"
			},
			{
				"type": "unocc",
				"energy": 0.07508,
				"method": "rhf"
			}
		],
		"cosmo_sigma_profile": { 
			"-0.025": 0.0,
			"-0.024": 0.0,
			"-0.023": 0.0,
			"-0.022": 0.0,
			"-0.021": 0.0,
			"-0.02": 0.0,
			"-0.019": 0.0,
			"-0.018": 0.105408146187,
			"-0.017": 0.820751490997,
			"-0.016": 0.955927052797,
			"-0.015": 1.17718487084,
			"-0.014": 0.873521807362,
			"-0.013": 0.778727563715,
			"-0.012": 1.09356992011,
			"-0.011": 0.737188498241,
			"-0.01": 1.18248463682,
			"-0.009": 1.23633144281,
			"-0.008": 1.16574135337,
			"-0.007": 1.87637476617,
			"-0.006": 4.20656919958,
			"-0.005": 18.1587328668,
			"-0.004": 33.3743522496,
			"-0.003": 42.2896772847,
			"-0.002": 36.9779641066,
			"-0.001": 32.8564773369,
			"0.0": 35.2990466017,
			"0.001": 28.9771278448,
			"0.002": 13.9344617319,
			"0.003": 11.7999278157,
			"0.004": 11.7589999175,
			"0.005": 14.6964101489,
			"0.006": 14.4927038317,
			"0.007": 12.1417309288,
			"0.008": 6.18133481542,
			"0.009": 2.46184226644,
			"0.01": 2.66694394248,
			"0.011": 3.55976072232,
			"0.012": 3.52370875557,
			"0.013": 2.67083134632,
			"0.014": 1.59019862475,
			"0.015": 0.0,
			"0.016": 0.0,
			"0.017": 0.0,
			"0.018": 0.0,
			"0.019": 0.0,
			"0.02": 0.0,
			"0.021": 0.0,
			"0.022": 0.0,
			"0.023": 0.0,
			"0.024": 0.0,
			"0.025": 0.0
		}
	}
}
