{
	 "smiles": "CC(=N/CC(O)CO)C1=C(O)C2=CC=CC=C2N(C2=CC=CC=C2)C1=O", 
	 "Tm": 491.15, 
	 "num_atms": 46, 
	 "gaussian": { 
		 "optdone": 1, 
		 "sigma_profile": "yes", 
		 "theory": "DFT", 
		 "functional": "B3LYP", 
		 "basiset": "6-31G**", 
		 "properties": { 
			 "R2extent": 12263.278, 
			 "electric_dipole_moment_norm": 7.09225150287, 
			 "electric_quadrupole_moment_norm": 9.23212110352, 
			 "total_energy": -1184.57064896, 
			 "HOMO_LUMO_gap": 0.16073, 
			 "cosmo_polarized_energy": -23.81, 
			 "cosmo_cavitation_energy": 49.01, 
			 "cosmo_dispersion_energy": -33.98, 
			 "cosmo_repulsion_energy": 2.59, 
			 "cosmo_total_nonelectrostatic_energy": 17.62, 
			 "SMD_solvation_energy": 7.28 
		},
		"coords": [
			{
				"x": 0.9973211139,
				"y": 3.1560523263,
				"z": -0.3194184591,
				"element": "C" 
			},
			{
				"x": 0.1595856103,
				"y": 2.0676596403,
				"z": 0.3217750864,
				"element": "C" 
			},
			{
				"x": -0.5267529658,
				"y": 2.227337776,
				"z": 1.3887727712,
				"element": "N" 
			},
			{
				"x": -0.5437810434,
				"y": 3.5046916113,
				"z": 2.0852877095,
				"element": "C" 
			},
			{
				"x": -1.6158407916,
				"y": 3.4244274309,
				"z": 3.1866274581,
				"element": "C" 
			},
			{
				"x": -1.5106659087,
				"y": 2.1695193433,
				"z": 3.8490575032,
				"element": "O" 
			},
			{
				"x": -1.4243086784,
				"y": 4.4919133962,
				"z": 4.2642746726,
				"element": "C" 
			},
			{
				"x": -0.2074528495,
				"y": 4.2846848577,
				"z": 4.960809454,
				"element": "O" 
			},
			{
				"x": 0.1570979469,
				"y": 0.7107535971,
				"z": -0.3007590052,
				"element": "C" 
			},
			{
				"x": 0.3535659883,
				"y": -0.437774992,
				"z": 0.4215067345,
				"element": "C" 
			},
			{
				"x": 0.5938050375,
				"y": -0.3570886483,
				"z": 1.7525924236,
				"element": "O" 
			},
			{
				"x": 0.3246187245,
				"y": -1.7416934,
				"z": -0.216730129,
				"element": "C" 
			},
			{
				"x": 0.4421967119,
				"y": -2.9443183603,
				"z": 0.5086938009,
				"element": "C" 
			},
			{
				"x": 0.4352602793,
				"y": -4.1762984297,
				"z": -0.124508463,
				"element": "C" 
			},
			{
				"x": 0.2972963769,
				"y": -4.226867722,
				"z": -1.5181554862,
				"element": "C" 
			},
			{
				"x": 0.1527165227,
				"y": -3.0638738716,
				"z": -2.2596847791,
				"element": "C" 
			},
			{
				"x": 0.1542761459,
				"y": -1.8064015233,
				"z": -1.6238190479,
				"element": "C" 
			},
			{
				"x": -0.0168819674,
				"y": -0.6291965087,
				"z": -2.3442264306,
				"element": "N" 
			},
			{
				"x": -0.2009348875,
				"y": -0.6703820872,
				"z": -3.7765287749,
				"element": "C" 
			},
			{
				"x": 0.9134218367,
				"y": -0.6512999291,
				"z": -4.6164433467,
				"element": "C" 
			},
			{
				"x": 0.7357762228,
				"y": -0.6989266902,
				"z": -5.9997525133,
				"element": "C" 
			},
			{
				"x": -0.5506605747,
				"y": -0.7620649494,
				"z": -6.5387347955,
				"element": "C" 
			},
			{
				"x": -1.6617583432,
				"y": -0.7763245377,
				"z": -5.6927625589,
				"element": "C" 
			},
			{
				"x": -1.4895551071,
				"y": -0.7307223522,
				"z": -4.3091870422,
				"element": "C" 
			},
			{
				"x": -0.0727468891,
				"y": 0.6503269406,
				"z": -1.7427606418,
				"element": "C" 
			},
			{
				"x": -0.288169348,
				"y": 1.6401739279,
				"z": -2.4371857467,
				"element": "O" 
			},
			{
				"x": 1.65874155,
				"y": 3.5988205374,
				"z": 0.4346893069,
				"element": "H" 
			},
			{
				"x": 1.5939629371,
				"y": 2.779904105,
				"z": -1.1487129182,
				"element": "H" 
			},
			{
				"x": 0.35838769,
				"y": 3.9543665078,
				"z": -0.7111472628,
				"element": "H" 
			},
			{
				"x": -0.7432294372,
				"y": 4.3535391735,
				"z": 1.4155349904,
				"element": "H" 
			},
			{
				"x": 0.426650086,
				"y": 3.6862472108,
				"z": 2.5693741885,
				"element": "H" 
			},
			{
				"x": -2.6136881474,
				"y": 3.5374922486,
				"z": 2.7304147877,
				"element": "H" 
			},
			{
				"x": -1.2469846516,
				"y": 1.5486337623,
				"z": 3.1430528956,
				"element": "H" 
			},
			{
				"x": -1.3842051921,
				"y": 5.4904332848,
				"z": 3.8137410716,
				"element": "H" 
			},
			{
				"x": -2.2867783156,
				"y": 4.4652390698,
				"z": 4.9488010578,
				"element": "H" 
			},
			{
				"x": -0.1955780352,
				"y": 3.3290194519,
				"z": 5.1313074777,
				"element": "H" 
			},
			{
				"x": 0.9757046468,
				"y": -1.188440851,
				"z": 2.0621910613,
				"element": "H" 
			},
			{
				"x": 0.5060494174,
				"y": -2.9233844982,
				"z": 1.5939288037,
				"element": "H" 
			},
			{
				"x": 0.5241652192,
				"y": -5.0892233055,
				"z": 0.4547963931,
				"element": "H" 
			},
			{
				"x": 0.2910276779,
				"y": -5.1851181944,
				"z": -2.0288680956,
				"element": "H" 
			},
			{
				"x": 0.0308927691,
				"y": -3.115814648,
				"z": -3.3339516082,
				"element": "H" 
			},
			{
				"x": 1.907466419,
				"y": -0.5947876234,
				"z": -4.1840825132,
				"element": "H" 
			},
			{
				"x": 1.6018750344,
				"y": -0.6824971284,
				"z": -6.654550184,
				"element": "H" 
			},
			{
				"x": -0.687335891,
				"y": -0.7966960553,
				"z": -7.6155285868,
				"element": "H" 
			},
			{
				"x": -2.663773946,
				"y": -0.819451892,
				"z": -6.108920577,
				"element": "H" 
			},
			{
				"x": -2.3441789937,
				"y": -0.7334880018,
				"z": -3.6404106824,
				"element": "H" 
			}
		],
		 "valence_orbital": [ 
			{
				"type": "occ",
				"energy": -0.25397,
				"method": "rhf"
			},
			{
				"type": "occ",
				"energy": -0.24736,
				"method": "rhf"
			},
			{
				"type": "occ",
				"energy": -0.24274,
				"method": "rhf"
			},
			{
				"type": "occ",
				"energy": -0.23956,
				"method": "rhf"
			},
			{
				"type": "occ",
				"energy": -0.2229,
				"method": "rhf"
			},
			{
				"type": "unocc",
				"energy": -0.06217,
				"method": "rhf"
			},
			{
				"type": "unocc",
				"energy": -0.0211,
				"method": "rhf"
			},
			{
				"type": "unocc",
				"energy": -0.01728,
				"method": "rhf"
			},
			{
				"type": "unocc",
				"energy": -0.01386,
				"method": "rhf"
			},
			{
				"type": "unocc",
				"energy": 0.00605,
				"method": "rhf"
			}
		],
		"cosmo_sigma_profile": { 
			"-0.025": 0.0,
			"-0.024": 0.0,
			"-0.023": 0.0,
			"-0.022": 0.0,
			"-0.021": 0.0,
			"-0.02": 0.0,
			"-0.019": 0.475930555711,
			"-0.018": 0.902252164714,
			"-0.017": 1.10022090463,
			"-0.016": 0.88571119762,
			"-0.015": 0.440054143934,
			"-0.014": 1.00656385928,
			"-0.013": 0.703752947632,
			"-0.012": 1.09103344756,
			"-0.011": 1.74164330236,
			"-0.01": 1.07110953564,
			"-0.009": 2.05864675042,
			"-0.008": 1.98795143903,
			"-0.007": 6.25938336844,
			"-0.006": 19.7075680958,
			"-0.005": 29.0557086046,
			"-0.004": 35.2980287095,
			"-0.003": 33.8620993399,
			"-0.002": 33.6272868018,
			"-0.001": 32.702147781,
			"0.0": 28.8918300818,
			"0.001": 23.6697102893,
			"0.002": 22.1465445392,
			"0.003": 23.3707003416,
			"0.004": 22.6491934601,
			"0.005": 11.1982709996,
			"0.006": 7.40091103422,
			"0.007": 6.8584382409,
			"0.008": 5.4036854425,
			"0.009": 5.83525475951,
			"0.01": 4.65760024842,
			"0.011": 4.24463603557,
			"0.012": 4.22606002303,
			"0.013": 6.56042938019,
			"0.014": 6.22598454416,
			"0.015": 1.59239682334,
			"0.016": 0.0,
			"0.017": 0.0,
			"0.018": 0.0,
			"0.019": 0.0,
			"0.02": 0.0,
			"0.021": 0.0,
			"0.022": 0.0,
			"0.023": 0.0,
			"0.024": 0.0,
			"0.025": 0.0
		}
	}
}
