{
	 "smiles": "NC1=C(C=CC(F)=C1)C(F)(F)F", 
	 "Tm": 304.15, 
	 "num_atms": 17, 
	 "gaussian": { 
		 "optdone": 1, 
		 "sigma_profile": "yes", 
		 "theory": "DFT", 
		 "functional": "B3LYP", 
		 "basiset": "6-31G**", 
		 "properties": { 
			 "R2extent": 2313.8312, 
			 "electric_dipole_moment_norm": 1.76306347305, 
			 "electric_quadrupole_moment_norm": 9.41364708814, 
			 "total_energy": -723.877313575, 
			 "HOMO_LUMO_gap": 0.20384, 
			 "cosmo_polarized_energy": -6.92, 
			 "cosmo_cavitation_energy": 22.72, 
			 "cosmo_dispersion_energy": -16.48, 
			 "cosmo_repulsion_energy": 1.22, 
			 "cosmo_total_nonelectrostatic_energy": 7.47, 
			 "SMD_solvation_energy": 5.45 
		},
		"coords": [
			{
				"x": -0.3860851016,
				"y": -0.9439941629,
				"z": -0.8876318399,
				"element": "N" 
			},
			{
				"x": 0.5308073093,
				"y": -0.3837150501,
				"z": -0.0187233646,
				"element": "C" 
			},
			{
				"x": 0.2367319358,
				"y": 0.7811344077,
				"z": 0.736125251,
				"element": "C" 
			},
			{
				"x": 1.1757663878,
				"y": 1.2881009733,
				"z": 1.6381856508,
				"element": "C" 
			},
			{
				"x": 2.4122940719,
				"y": 0.6791749186,
				"z": 1.8250410995,
				"element": "C" 
			},
			{
				"x": 2.6807715091,
				"y": -0.4638546686,
				"z": 1.078445836,
				"element": "C" 
			},
			{
				"x": 3.8694021434,
				"y": -1.0786371238,
				"z": 1.2331407136,
				"element": "F" 
			},
			{
				"x": 1.7806877575,
				"y": -0.9990413659,
				"z": 0.1716085171,
				"element": "C" 
			},
			{
				"x": -1.099321,
				"y": 1.4459943175,
				"z": 0.6042730648,
				"element": "C" 
			},
			{
				"x": -1.4040652093,
				"y": 1.7235932459,
				"z": -0.7019463651,
				"element": "F" 
			},
			{
				"x": -2.1117969487,
				"y": 0.667657503,
				"z": 1.0544862794,
				"element": "F" 
			},
			{
				"x": -1.1662138541,
				"y": 2.6136362619,
				"z": 1.2724844704,
				"element": "F" 
			},
			{
				"x": -0.0189040578,
				"y": -1.6047399388,
				"z": -1.5556952083,
				"element": "H" 
			},
			{
				"x": -1.0958702005,
				"y": -0.3333380969,
				"z": -1.2628680659,
				"element": "H" 
			},
			{
				"x": 0.9264892151,
				"y": 2.1802924875,
				"z": 2.2006317413,
				"element": "H" 
			},
			{
				"x": 3.1475998033,
				"y": 1.0653253001,
				"z": 2.5202063008,
				"element": "H" 
			},
			{
				"x": 2.0510062386,
				"y": -1.8919890084,
				"z": -0.3823640808,
				"element": "H" 
			}
		],
		 "valence_orbital": [ 
			{
				"type": "occ",
				"energy": -0.3708,
				"method": "rhf"
			},
			{
				"type": "occ",
				"energy": -0.36154,
				"method": "rhf"
			},
			{
				"type": "occ",
				"energy": -0.3216,
				"method": "rhf"
			},
			{
				"type": "occ",
				"energy": -0.25936,
				"method": "rhf"
			},
			{
				"type": "occ",
				"energy": -0.22178,
				"method": "rhf"
			},
			{
				"type": "unocc",
				"energy": -0.01794,
				"method": "rhf"
			},
			{
				"type": "unocc",
				"energy": -0.00337,
				"method": "rhf"
			},
			{
				"type": "unocc",
				"energy": 0.07714,
				"method": "rhf"
			},
			{
				"type": "unocc",
				"energy": 0.09276,
				"method": "rhf"
			},
			{
				"type": "unocc",
				"energy": 0.12156,
				"method": "rhf"
			}
		],
		"cosmo_sigma_profile": { 
			"-0.025": 0.0,
			"-0.024": 0.0,
			"-0.023": 0.0,
			"-0.022": 0.0,
			"-0.021": 0.0,
			"-0.02": 0.0,
			"-0.019": 0.0,
			"-0.018": 0.0,
			"-0.017": 0.0,
			"-0.016": 0.0,
			"-0.015": 0.0,
			"-0.014": 0.583081195311,
			"-0.013": 1.52112160035,
			"-0.012": 1.81819770761,
			"-0.011": 2.99158665029,
			"-0.01": 2.09640095516,
			"-0.009": 2.38070490572,
			"-0.008": 3.08666650121,
			"-0.007": 5.08986048964,
			"-0.006": 6.37210151721,
			"-0.005": 5.94426437199,
			"-0.004": 5.98319135345,
			"-0.003": 5.91967861201,
			"-0.002": 8.31292315179,
			"-0.001": 7.72733611408,
			"0.0": 11.5164616876,
			"0.001": 19.4949185646,
			"0.002": 27.3940497576,
			"0.003": 38.5396148257,
			"0.004": 17.2908791819,
			"0.005": 3.58450232487,
			"0.006": 0.970010854285,
			"0.007": 0.817658642469,
			"0.008": 0.875315363383,
			"0.009": 0.677495125653,
			"0.01": 0.721415301635,
			"0.011": 0.389870707561,
			"0.012": 0.231805305916,
			"0.013": 0.0,
			"0.014": 0.0,
			"0.015": 0.0,
			"0.016": 0.0,
			"0.017": 0.0,
			"0.018": 0.0,
			"0.019": 0.0,
			"0.02": 0.0,
			"0.021": 0.0,
			"0.022": 0.0,
			"0.023": 0.0,
			"0.024": 0.0,
			"0.025": 0.0
		}
	}
}
