{
	 "smiles": "OC1=CC=C(C=C1)C(=O)NC1=NC=CC=C1", 
	 "Tm": 450.15, 
	 "num_atms": 26, 
	 "gaussian": { 
		 "optdone": 1, 
		 "sigma_profile": "yes", 
		 "theory": "DFT", 
		 "functional": "B3LYP", 
		 "basiset": "6-31G**", 
		 "properties": { 
			 "R2extent": 4314.0671, 
			 "electric_dipole_moment_norm": 4.90420788915, 
			 "electric_quadrupole_moment_norm": 9.99841292056, 
			 "total_energy": -723.261519215, 
			 "HOMO_LUMO_gap": 0.18197, 
			 "cosmo_polarized_energy": -18.4, 
			 "cosmo_cavitation_energy": 31.03, 
			 "cosmo_dispersion_energy": -22.36, 
			 "cosmo_repulsion_energy": 1.74, 
			 "cosmo_total_nonelectrostatic_energy": 10.41, 
			 "SMD_solvation_energy": 5.58 
		},
		"coords": [
			{
				"x": 4.4355997735,
				"y": -0.3619823175,
				"z": -3.2025065754,
				"element": "O" 
			},
			{
				"x": 3.2305280133,
				"y": -0.5764566819,
				"z": -2.603857517,
				"element": "C" 
			},
			{
				"x": 2.9314275835,
				"y": -1.8857769351,
				"z": -2.2056366993,
				"element": "C" 
			},
			{
				"x": 1.7128080372,
				"y": -2.1547086949,
				"z": -1.5988858478,
				"element": "C" 
			},
			{
				"x": 0.784828915,
				"y": -1.1306310635,
				"z": -1.3496780654,
				"element": "C" 
			},
			{
				"x": 1.093518243,
				"y": 0.1728387408,
				"z": -1.7594376761,
				"element": "C" 
			},
			{
				"x": 2.3024244453,
				"y": 0.450685837,
				"z": -2.3882904878,
				"element": "C" 
			},
			{
				"x": -0.5284359449,
				"y": -1.5226906574,
				"z": -0.7754215601,
				"element": "C" 
			},
			{
				"x": -0.9865473339,
				"y": -2.6493301748,
				"z": -0.9261912591,
				"element": "O" 
			},
			{
				"x": -1.3399059537,
				"y": -0.5691506192,
				"z": -0.1366692621,
				"element": "N" 
			},
			{
				"x": -1.0219274144,
				"y": 0.4738863049,
				"z": 0.7468701582,
				"element": "C" 
			},
			{
				"x": 0.2488073444,
				"y": 0.6438827873,
				"z": 1.1185024218,
				"element": "N" 
			},
			{
				"x": 0.5220345919,
				"y": 1.6389931405,
				"z": 1.9718906241,
				"element": "C" 
			},
			{
				"x": -0.4389116202,
				"y": 2.4898701896,
				"z": 2.5109036321,
				"element": "C" 
			},
			{
				"x": -1.7682129274,
				"y": 2.2959638686,
				"z": 2.1226406088,
				"element": "C" 
			},
			{
				"x": -2.0723329592,
				"y": 1.2829982177,
				"z": 1.2242659602,
				"element": "C" 
			},
			{
				"x": 4.518013977,
				"y": 0.5743085315,
				"z": -3.4263146448,
				"element": "H" 
			},
			{
				"x": 3.6591683028,
				"y": -2.6692615991,
				"z": -2.3880171019,
				"element": "H" 
			},
			{
				"x": 1.4548747784,
				"y": -3.1670667427,
				"z": -1.3074572042,
				"element": "H" 
			},
			{
				"x": 0.3818034188,
				"y": 0.9752836319,
				"z": -1.6041446497,
				"element": "H" 
			},
			{
				"x": 2.5278079477,
				"y": 1.4640435719,
				"z": -2.7141401102,
				"element": "H" 
			},
			{
				"x": -2.2738027233,
				"y": -0.9456575098,
				"z": -0.024211512,
				"element": "H" 
			},
			{
				"x": 1.5704782965,
				"y": 1.747821278,
				"z": 2.2442533126,
				"element": "H" 
			},
			{
				"x": -0.1586608341,
				"y": 3.2717257125,
				"z": 3.2083697267,
				"element": "H" 
			},
			{
				"x": -2.5580544622,
				"y": 2.9328316052,
				"z": 2.5105671691,
				"element": "H" 
			},
			{
				"x": -3.091231495,
				"y": 1.1157795786,
				"z": 0.8878965594,
				"element": "H" 
			}
		],
		 "valence_orbital": [ 
			{
				"type": "occ",
				"energy": -0.27088,
				"method": "rhf"
			},
			{
				"type": "occ",
				"energy": -0.25884,
				"method": "rhf"
			},
			{
				"type": "occ",
				"energy": -0.24889,
				"method": "rhf"
			},
			{
				"type": "occ",
				"energy": -0.22975,
				"method": "rhf"
			},
			{
				"type": "occ",
				"energy": -0.22179,
				"method": "rhf"
			},
			{
				"type": "unocc",
				"energy": -0.03982,
				"method": "rhf"
			},
			{
				"type": "unocc",
				"energy": -0.02497,
				"method": "rhf"
			},
			{
				"type": "unocc",
				"energy": -0.00149,
				"method": "rhf"
			},
			{
				"type": "unocc",
				"energy": 0.0003,
				"method": "rhf"
			},
			{
				"type": "unocc",
				"energy": 0.06415,
				"method": "rhf"
			}
		],
		"cosmo_sigma_profile": { 
			"-0.025": 0.0,
			"-0.024": 0.0,
			"-0.023": 0.0,
			"-0.022": 0.0,
			"-0.021": 0.0,
			"-0.02": 0.0,
			"-0.019": 0.0297153024649,
			"-0.018": 0.951308539014,
			"-0.017": 0.938953586598,
			"-0.016": 0.91667938878,
			"-0.015": 1.31203201323,
			"-0.014": 2.02946376093,
			"-0.013": 2.63902612372,
			"-0.012": 1.67081573205,
			"-0.011": 1.86623745559,
			"-0.01": 2.38273031974,
			"-0.009": 2.83327371504,
			"-0.008": 2.75258476083,
			"-0.007": 7.55460243906,
			"-0.006": 14.6242472106,
			"-0.005": 16.6140208682,
			"-0.004": 14.3227358514,
			"-0.003": 12.9472790743,
			"-0.002": 11.1375340534,
			"-0.001": 12.6246286092,
			"0.0": 14.8846143649,
			"0.001": 17.1116426642,
			"0.002": 21.9130187998,
			"0.003": 23.1969143496,
			"0.004": 16.8004319229,
			"0.005": 7.24604123658,
			"0.006": 4.37576993326,
			"0.007": 4.55505221001,
			"0.008": 4.70625605993,
			"0.009": 4.32382597987,
			"0.01": 3.96777384026,
			"0.011": 4.36363638106,
			"0.012": 4.59533179336,
			"0.013": 5.38801000132,
			"0.014": 1.03269799001,
			"0.015": 0.0,
			"0.016": 0.0,
			"0.017": 0.0,
			"0.018": 0.0,
			"0.019": 0.0,
			"0.02": 0.0,
			"0.021": 0.0,
			"0.022": 0.0,
			"0.023": 0.0,
			"0.024": 0.0,
			"0.025": 0.0
		}
	}
}
