{
	 "smiles": "N(NC1=CC=CC=C1)C1=CC=CC=C1", 
	 "Tm": 404.15, 
	 "num_atms": 26, 
	 "gaussian": { 
		 "optdone": 1, 
		 "sigma_profile": "yes", 
		 "theory": "DFT", 
		 "functional": "B3LYP", 
		 "basiset": "6-31G**", 
		 "properties": { 
			 "R2extent": 3656.9322, 
			 "electric_dipole_moment_norm": 1.46584172747, 
			 "electric_quadrupole_moment_norm": 4.6864801856, 
			 "total_energy": -573.981493772, 
			 "HOMO_LUMO_gap": 0.19731, 
			 "cosmo_polarized_energy": -9.74, 
			 "cosmo_cavitation_energy": 29.69, 
			 "cosmo_dispersion_energy": -21.56, 
			 "cosmo_repulsion_energy": 1.7, 
			 "cosmo_total_nonelectrostatic_energy": 9.82, 
			 "SMD_solvation_energy": 5.11 
		},
		"coords": [
			{
				"x": -1.2632703061,
				"y": 1.0075197412,
				"z": 0.177689064,
				"element": "N" 
			},
			{
				"x": -1.0006400171,
				"y": 0.9802165367,
				"z": -1.191915583,
				"element": "N" 
			},
			{
				"x": -0.2358088566,
				"y": -0.0842754693,
				"z": -1.7098620167,
				"element": "C" 
			},
			{
				"x": -0.0905252098,
				"y": -1.2970033941,
				"z": -1.0218390556,
				"element": "C" 
			},
			{
				"x": 0.6243209715,
				"y": -2.3429548383,
				"z": -1.6042557546,
				"element": "C" 
			},
			{
				"x": 1.2020147868,
				"y": -2.2048909349,
				"z": -2.8678661323,
				"element": "C" 
			},
			{
				"x": 1.0568077362,
				"y": -0.9945442793,
				"z": -3.5497297603,
				"element": "C" 
			},
			{
				"x": 0.3467608558,
				"y": 0.0596409108,
				"z": -2.9798212028,
				"element": "C" 
			},
			{
				"x": -0.4461677132,
				"y": 1.7785856895,
				"z": 1.0265387195,
				"element": "C" 
			},
			{
				"x": 0.8849924286,
				"y": 2.0778938339,
				"z": 0.6988687906,
				"element": "C" 
			},
			{
				"x": 1.6693100695,
				"y": 2.8165062341,
				"z": 1.5862294972,
				"element": "C" 
			},
			{
				"x": 1.1514156196,
				"y": 3.2649485136,
				"z": 2.8012960195,
				"element": "C" 
			},
			{
				"x": -0.174115434,
				"y": 2.9631751418,
				"z": 3.1263804087,
				"element": "C" 
			},
			{
				"x": -0.9694010033,
				"y": 2.2309329288,
				"z": 2.2500303904,
				"element": "C" 
			},
			{
				"x": -2.2540982355,
				"y": 1.1121070674,
				"z": 0.3589189011,
				"element": "H" 
			},
			{
				"x": -0.7537668965,
				"y": 1.8882635866,
				"z": -1.5784797758,
				"element": "H" 
			},
			{
				"x": -0.5346555582,
				"y": -1.4021082597,
				"z": -0.0388834203,
				"element": "H" 
			},
			{
				"x": 0.7312930488,
				"y": -3.2765401534,
				"z": -1.0583574332,
				"element": "H" 
			},
			{
				"x": 1.7574838301,
				"y": -3.0244247484,
				"z": -3.3130793431,
				"element": "H" 
			},
			{
				"x": 1.5014424966,
				"y": -0.8651955236,
				"z": -4.5327325566,
				"element": "H" 
			},
			{
				"x": 0.234414819,
				"y": 0.9972588892,
				"z": -3.5200524124,
				"element": "H" 
			},
			{
				"x": 1.30920649,
				"y": 1.7171215776,
				"z": -0.2315412503,
				"element": "H" 
			},
			{
				"x": 2.6991361197,
				"y": 3.0382542565,
				"z": 1.3199541121,
				"element": "H" 
			},
			{
				"x": 1.7682915545,
				"y": 3.8395632851,
				"z": 3.4850027979,
				"element": "H" 
			},
			{
				"x": -0.5963963859,
				"y": 3.3063817747,
				"z": 4.0668273929,
				"element": "H" 
			},
			{
				"x": -2.0015452106,
				"y": 2.0045676335,
				"z": 2.5083796032,
				"element": "H" 
			}
		],
		 "valence_orbital": [ 
			{
				"type": "occ",
				"energy": -0.30083,
				"method": "rhf"
			},
			{
				"type": "occ",
				"energy": -0.24932,
				"method": "rhf"
			},
			{
				"type": "occ",
				"energy": -0.24243,
				"method": "rhf"
			},
			{
				"type": "occ",
				"energy": -0.21316,
				"method": "rhf"
			},
			{
				"type": "occ",
				"energy": -0.19956,
				"method": "rhf"
			},
			{
				"type": "unocc",
				"energy": -0.00225,
				"method": "rhf"
			},
			{
				"type": "unocc",
				"energy": 0.00756,
				"method": "rhf"
			},
			{
				"type": "unocc",
				"energy": 0.01088,
				"method": "rhf"
			},
			{
				"type": "unocc",
				"energy": 0.02174,
				"method": "rhf"
			},
			{
				"type": "unocc",
				"energy": 0.08912,
				"method": "rhf"
			}
		],
		"cosmo_sigma_profile": { 
			"-0.025": 0.0,
			"-0.024": 0.0,
			"-0.023": 0.0,
			"-0.022": 0.0,
			"-0.021": 0.0,
			"-0.02": 0.0,
			"-0.019": 0.0,
			"-0.018": 0.0,
			"-0.017": 0.0,
			"-0.016": 0.0,
			"-0.015": 0.0,
			"-0.014": 0.0,
			"-0.013": 0.949628274309,
			"-0.012": 1.86435296322,
			"-0.011": 3.012750606,
			"-0.01": 2.19451504157,
			"-0.009": 3.06077999781,
			"-0.008": 3.00269814227,
			"-0.007": 3.59410171319,
			"-0.006": 6.3852646723,
			"-0.005": 16.7851154385,
			"-0.004": 18.5699087701,
			"-0.003": 22.8096436037,
			"-0.002": 16.1861106253,
			"-0.001": 14.4437424513,
			"0.0": 12.4916961903,
			"0.001": 11.5925870476,
			"0.002": 13.9552415164,
			"0.003": 15.4681422269,
			"0.004": 17.1193497994,
			"0.005": 19.2481684747,
			"0.006": 18.9023933802,
			"0.007": 12.373298535,
			"0.008": 1.5292462607,
			"0.009": 0.702819049672,
			"0.01": 0.399004394568,
			"0.011": 0.299913538901,
			"0.012": 0.0,
			"0.013": 0.0,
			"0.014": 0.0,
			"0.015": 0.0,
			"0.016": 0.0,
			"0.017": 0.0,
			"0.018": 0.0,
			"0.019": 0.0,
			"0.02": 0.0,
			"0.021": 0.0,
			"0.022": 0.0,
			"0.023": 0.0,
			"0.024": 0.0,
			"0.025": 0.0
		}
	}
}
