{
	 "smiles": "NC12C3=CC=CC=C3C(C3=CC=CC=C13)C1=CC=CC=C21", 
	 "Tm": 493.15, 
	 "num_atms": 36, 
	 "gaussian": { 
		 "optdone": 1, 
		 "sigma_profile": "yes", 
		 "theory": "DFT", 
		 "functional": "B3LYP", 
		 "basiset": "6-31G**", 
		 "properties": { 
			 "R2extent": 5064.1653, 
			 "electric_dipole_moment_norm": 1.07601224435, 
			 "electric_quadrupole_moment_norm": 7.51241346506, 
			 "total_energy": -825.926326105, 
			 "HOMO_LUMO_gap": 0.20609, 
			 "cosmo_polarized_energy": -11.45, 
			 "cosmo_cavitation_energy": 37.39, 
			 "cosmo_dispersion_energy": -26.62, 
			 "cosmo_repulsion_energy": 1.99, 
			 "cosmo_total_nonelectrostatic_energy": 12.76, 
			 "SMD_solvation_energy": 5.01 
		},
		"coords": [
			{
				"x": 1.6085407486,
				"y": 1.5636103229,
				"z": 1.5724909656,
				"element": "N" 
			},
			{
				"x": 1.0130113579,
				"y": 0.86557107,
				"z": 0.4468290897,
				"element": "C" 
			},
			{
				"x": -0.2083323248,
				"y": 0.0236753723,
				"z": 0.8571726446,
				"element": "C" 
			},
			{
				"x": -0.7197401286,
				"y": -0.1051717022,
				"z": 2.1427642441,
				"element": "C" 
			},
			{
				"x": -1.8422963509,
				"y": -0.9171629564,
				"z": 2.3559528358,
				"element": "C" 
			},
			{
				"x": -2.4459180872,
				"y": -1.5808302453,
				"z": 1.2891477334,
				"element": "C" 
			},
			{
				"x": -1.9394426816,
				"y": -1.4349214816,
				"z": -0.0094462025,
				"element": "C" 
			},
			{
				"x": -0.8250588232,
				"y": -0.6327313951,
				"z": -0.2218518859,
				"element": "C" 
			},
			{
				"x": -0.1554112248,
				"y": -0.3436191445,
				"z": -1.5657908483,
				"element": "C" 
			},
			{
				"x": -0.1420842847,
				"y": 1.1789245256,
				"z": -1.7067546815,
				"element": "C" 
			},
			{
				"x": -0.6761377604,
				"y": 1.9163341746,
				"z": -2.7562786143,
				"element": "C" 
			},
			{
				"x": -0.6000227316,
				"y": 3.3153748477,
				"z": -2.7241497145,
				"element": "C" 
			},
			{
				"x": -0.0030960831,
				"y": 3.9605203306,
				"z": -1.6423261607,
				"element": "C" 
			},
			{
				"x": 0.5334409622,
				"y": 3.2180199861,
				"z": -0.58131617,
				"element": "C" 
			},
			{
				"x": 0.4729062705,
				"y": 1.8304191465,
				"z": -0.62375492,
				"element": "C" 
			},
			{
				"x": 1.3040133847,
				"y": -0.7588330498,
				"z": -1.4010472842,
				"element": "C" 
			},
			{
				"x": 2.0040241371,
				"y": -1.6666031328,
				"z": -2.1861208524,
				"element": "C" 
			},
			{
				"x": 3.3485320795,
				"y": -1.9352616229,
				"z": -1.8951344177,
				"element": "C" 
			},
			{
				"x": 3.9754121105,
				"y": -1.2961238708,
				"z": -0.8271687582,
				"element": "C" 
			},
			{
				"x": 3.2665250924,
				"y": -0.3805470888,
				"z": -0.0366314984,
				"element": "C" 
			},
			{
				"x": 1.9338244043,
				"y": -0.1135220762,
				"z": -0.324146903,
				"element": "C" 
			},
			{
				"x": 2.4130228559,
				"y": 2.1007598955,
				"z": 1.257859326,
				"element": "H" 
			},
			{
				"x": 1.9564843683,
				"y": 0.8896535229,
				"z": 2.2503031073,
				"element": "H" 
			},
			{
				"x": -0.2659901101,
				"y": 0.4351572165,
				"z": 2.9673824358,
				"element": "H" 
			},
			{
				"x": -2.245844139,
				"y": -1.0229475507,
				"z": 3.35899897,
				"element": "H" 
			},
			{
				"x": -3.3163569212,
				"y": -2.2075739199,
				"z": 1.460942469,
				"element": "H" 
			},
			{
				"x": -2.4164123113,
				"y": -1.9414251242,
				"z": -0.844780465,
				"element": "H" 
			},
			{
				"x": -0.6492743561,
				"y": -0.8432890943,
				"z": -2.4025296143,
				"element": "H" 
			},
			{
				"x": -1.152575278,
				"y": 1.4116053528,
				"z": -3.5929901001,
				"element": "H" 
			},
			{
				"x": -1.0150733605,
				"y": 3.8966884375,
				"z": -3.5425573593,
				"element": "H" 
			},
			{
				"x": 0.0425112024,
				"y": 5.0455748431,
				"z": -1.6155099971,
				"element": "H" 
			},
			{
				"x": 0.9727123318,
				"y": 3.7192759951,
				"z": 0.2752092661,
				"element": "H" 
			},
			{
				"x": 1.5128128081,
				"y": -2.1639656804,
				"z": -3.0187288096,
				"element": "H" 
			},
			{
				"x": 3.9014280481,
				"y": -2.6439277952,
				"z": -2.505045204,
				"element": "H" 
			},
			{
				"x": 5.0175663832,
				"y": -1.5062617165,
				"z": -0.6039315537,
				"element": "H" 
			},
			{
				"x": 3.7597984112,
				"y": 0.115253608,
				"z": 0.7951389275,
				"element": "H" 
			}
		],
		 "valence_orbital": [ 
			{
				"type": "occ",
				"energy": -0.24658,
				"method": "rhf"
			},
			{
				"type": "occ",
				"energy": -0.24364,
				"method": "rhf"
			},
			{
				"type": "occ",
				"energy": -0.24207,
				"method": "rhf"
			},
			{
				"type": "occ",
				"energy": -0.24093,
				"method": "rhf"
			},
			{
				"type": "occ",
				"energy": -0.21409,
				"method": "rhf"
			},
			{
				"type": "unocc",
				"energy": -0.008,
				"method": "rhf"
			},
			{
				"type": "unocc",
				"energy": -0.00674,
				"method": "rhf"
			},
			{
				"type": "unocc",
				"energy": -0.00535,
				"method": "rhf"
			},
			{
				"type": "unocc",
				"energy": -0.00273,
				"method": "rhf"
			},
			{
				"type": "unocc",
				"energy": 0.0291,
				"method": "rhf"
			}
		],
		"cosmo_sigma_profile": { 
			"-0.025": 0.0,
			"-0.024": 0.0,
			"-0.023": 0.0,
			"-0.022": 0.0,
			"-0.021": 0.0,
			"-0.02": 0.0,
			"-0.019": 0.0,
			"-0.018": 0.0,
			"-0.017": 0.0,
			"-0.016": 0.0,
			"-0.015": 0.0,
			"-0.014": 0.0,
			"-0.013": 0.0,
			"-0.012": 0.0,
			"-0.011": 0.366862369748,
			"-0.01": 1.90064822082,
			"-0.009": 2.97774369193,
			"-0.008": 3.88514652676,
			"-0.007": 4.00788657638,
			"-0.006": 11.3638322402,
			"-0.005": 32.3616891448,
			"-0.004": 27.2801814434,
			"-0.003": 26.897935646,
			"-0.002": 18.7178071182,
			"-0.001": 17.2510781453,
			"0.0": 13.9295529134,
			"0.001": 16.5226099039,
			"0.002": 16.4980781728,
			"0.003": 18.4159226949,
			"0.004": 23.9322215164,
			"0.005": 29.2982790541,
			"0.006": 23.8472029349,
			"0.007": 3.50663755447,
			"0.008": 0.861687051603,
			"0.009": 0.887158382172,
			"0.01": 1.0278320697,
			"0.011": 0.506399621938,
			"0.012": 0.285396388374,
			"0.013": 0.359518856144,
			"0.014": 0.759394509767,
			"0.015": 0.599874912588,
			"0.016": 0.256138695493,
			"0.017": 0.247092471879,
			"0.018": 0.0,
			"0.019": 0.0,
			"0.02": 0.0,
			"0.021": 0.0,
			"0.022": 0.0,
			"0.023": 0.0,
			"0.024": 0.0,
			"0.025": 0.0
		}
	}
}
