{
	 "smiles": "CSC1=CC=C(C=CC(O)=O)C=C1", 
	 "Tm": 451.15, 
	 "num_atms": 23, 
	 "gaussian": { 
		 "optdone": 1, 
		 "sigma_profile": "yes", 
		 "theory": "DFT", 
		 "functional": "B3LYP", 
		 "basiset": "6-31G**", 
		 "properties": { 
			 "R2extent": 4564.8153, 
			 "electric_dipole_moment_norm": 2.82119787679, 
			 "electric_quadrupole_moment_norm": 13.7430095092, 
			 "total_energy": -935.725873524, 
			 "HOMO_LUMO_gap": 0.1443, 
			 "cosmo_polarized_energy": -11.58, 
			 "cosmo_cavitation_energy": 28.97, 
			 "cosmo_dispersion_energy": -21.83, 
			 "cosmo_repulsion_energy": 1.67, 
			 "cosmo_total_nonelectrostatic_energy": 8.81, 
			 "SMD_solvation_energy": 6.15 
		},
		"coords": [
			{
				"x": -4.4188930516,
				"y": 0.0631802007,
				"z": 1.7667265114,
				"element": "C" 
			},
			{
				"x": -3.108696188,
				"y": -1.1616284622,
				"z": 2.0839247547,
				"element": "S" 
			},
			{
				"x": -1.8972114706,
				"y": -0.818151673,
				"z": 0.8330579739,
				"element": "C" 
			},
			{
				"x": -0.7454709903,
				"y": -1.6271356367,
				"z": 0.8303036036,
				"element": "C" 
			},
			{
				"x": 0.2612215897,
				"y": -1.4414225981,
				"z": -0.1046225307,
				"element": "C" 
			},
			{
				"x": 0.1582159066,
				"y": -0.429519819,
				"z": -1.0857586241,
				"element": "C" 
			},
			{
				"x": 1.1415045215,
				"y": -0.1297906862,
				"z": -2.122353316,
				"element": "C" 
			},
			{
				"x": 2.3494808751,
				"y": -0.6219104445,
				"z": -2.4973923866,
				"element": "C" 
			},
			{
				"x": 3.1548947616,
				"y": -1.7194668579,
				"z": -1.9447534414,
				"element": "C" 
			},
			{
				"x": 4.3093694052,
				"y": -1.8511823201,
				"z": -2.6560553368,
				"element": "O" 
			},
			{
				"x": 2.9189713814,
				"y": -2.4576488402,
				"z": -1.0015346786,
				"element": "O" 
			},
			{
				"x": -1.0018426561,
				"y": 0.3719662646,
				"z": -1.0691043374,
				"element": "C" 
			},
			{
				"x": -2.0144564931,
				"y": 0.1902409624,
				"z": -0.1339331521,
				"element": "C" 
			},
			{
				"x": -4.8616753525,
				"y": -0.0701525878,
				"z": 0.777011828,
				"element": "H" 
			},
			{
				"x": -5.1832012453,
				"y": -0.123843082,
				"z": 2.52371031,
				"element": "H" 
			},
			{
				"x": -4.0497445308,
				"y": 1.0848281828,
				"z": 1.8822179216,
				"element": "H" 
			},
			{
				"x": -0.6411610779,
				"y": -2.4126244874,
				"z": 1.573819851,
				"element": "H" 
			},
			{
				"x": 1.1387955239,
				"y": -2.0743273794,
				"z": -0.089512605,
				"element": "H" 
			},
			{
				"x": 0.8169530816,
				"y": 0.7004970674,
				"z": -2.7502665731,
				"element": "H" 
			},
			{
				"x": 2.8231801831,
				"y": -0.1412607953,
				"z": -3.3474956607,
				"element": "H" 
			},
			{
				"x": 4.7879766169,
				"y": -2.587012826,
				"z": -2.2405460479,
				"element": "H" 
			},
			{
				"x": -1.1117488492,
				"y": 1.1594748752,
				"z": -1.810800902,
				"element": "H" 
			},
			{
				"x": -2.884861941,
				"y": 0.8349909425,
				"z": -0.1666431618,
				"element": "H" 
			}
		],
		 "valence_orbital": [ 
			{
				"type": "occ",
				"energy": -0.30992,
				"method": "rhf"
			},
			{
				"type": "occ",
				"energy": -0.26826,
				"method": "rhf"
			},
			{
				"type": "occ",
				"energy": -0.26564,
				"method": "rhf"
			},
			{
				"type": "occ",
				"energy": -0.25693,
				"method": "rhf"
			},
			{
				"type": "occ",
				"energy": -0.21001,
				"method": "rhf"
			},
			{
				"type": "unocc",
				"energy": -0.06571,
				"method": "rhf"
			},
			{
				"type": "unocc",
				"energy": -0.00577,
				"method": "rhf"
			},
			{
				"type": "unocc",
				"energy": 0.01717,
				"method": "rhf"
			},
			{
				"type": "unocc",
				"energy": 0.03146,
				"method": "rhf"
			},
			{
				"type": "unocc",
				"energy": 0.06991,
				"method": "rhf"
			}
		],
		"cosmo_sigma_profile": { 
			"-0.025": 0.0,
			"-0.024": 0.0,
			"-0.023": 0.0,
			"-0.022": 0.0,
			"-0.021": 0.0,
			"-0.02": 0.0,
			"-0.019": 0.0,
			"-0.018": 0.306526833022,
			"-0.017": 0.930935171561,
			"-0.016": 0.984647247328,
			"-0.015": 0.299194959682,
			"-0.014": 0.775807795477,
			"-0.013": 0.625339312265,
			"-0.012": 1.03153378708,
			"-0.011": 0.83136677614,
			"-0.01": 0.492001491563,
			"-0.009": 0.62525964342,
			"-0.008": 1.52981946614,
			"-0.007": 8.18850898941,
			"-0.006": 19.2020820936,
			"-0.005": 16.5757311684,
			"-0.004": 12.4936397485,
			"-0.003": 12.6594711315,
			"-0.002": 14.6770652177,
			"-0.001": 13.3923876815,
			"0.0": 12.83200444,
			"0.001": 14.5560542778,
			"0.002": 17.495187591,
			"0.003": 23.1219852224,
			"0.004": 23.4858975531,
			"0.005": 7.75676666982,
			"0.006": 6.91603715886,
			"0.007": 5.7327928118,
			"0.008": 5.02946433138,
			"0.009": 3.31333047006,
			"0.01": 3.40490661859,
			"0.011": 1.82821148486,
			"0.012": 2.11790974679,
			"0.013": 0.26736583629,
			"0.014": 0.0,
			"0.015": 0.0,
			"0.016": 0.0,
			"0.017": 0.0,
			"0.018": 0.0,
			"0.019": 0.0,
			"0.02": 0.0,
			"0.021": 0.0,
			"0.022": 0.0,
			"0.023": 0.0,
			"0.024": 0.0,
			"0.025": 0.0
		}
	}
}
