{
	 "smiles": "OC(=O)C1=CC=C(C=C1)S(=O)(=O)N1CCCC2=C1C=CC=C2", 
	 "Tm": 444.15, 
	 "num_atms": 37, 
	 "gaussian": { 
		 "optdone": 1, 
		 "sigma_profile": "no", 
		 "theory": "DFT", 
		 "functional": "B3LYP", 
		 "basiset": "6-31G**", 
		 "properties": { 
			 "R2extent": 7578.2181, 
			 "electric_dipole_moment_norm": 5.28998424667, 
			 "electric_quadrupole_moment_norm": 33.3812767322, 
			 "total_energy": -1372.51763385, 
			 "HOMO_LUMO_gap": 0.15052, 
			 "cosmo_polarized_energy": -1026.8, 
			 "cosmo_cavitation_energy": 41.42, 
			 "cosmo_dispersion_energy": -28.92, 
			 "cosmo_repulsion_energy": 2.15, 
			 "cosmo_total_nonelectrostatic_energy": 14.65, 
			 "SMD_solvation_energy": 6.17 
		},
		"coords": [
			{
				"x": 2.5820812014,
				"y": 2.0480235232,
				"z": 3.6540609659,
				"element": "O" 
			},
			{
				"x": 1.3480856524,
				"y": 2.395649956,
				"z": 3.204969507,
				"element": "C" 
			},
			{
				"x": 0.5734834995,
				"y": 2.9629035563,
				"z": 3.937383797,
				"element": "O" 
			},
			{
				"x": 1.0165384654,
				"y": 2.0381770379,
				"z": 1.7832315254,
				"element": "C" 
			},
			{
				"x": 1.9941440543,
				"y": 1.7860319445,
				"z": 0.8111244765,
				"element": "C" 
			},
			{
				"x": 1.625149889,
				"y": 1.4711030076,
				"z": -0.4964761464,
				"element": "C" 
			},
			{
				"x": 0.2692113159,
				"y": 1.4126495239,
				"z": -0.8232006826,
				"element": "C" 
			},
			{
				"x": -0.7208027649,
				"y": 1.6880077391,
				"z": 0.1274811495,
				"element": "C" 
			},
			{
				"x": -0.3397761837,
				"y": 2.0041285468,
				"z": 1.4268538739,
				"element": "C" 
			},
			{
				"x": -0.2102290661,
				"y": 0.9658505211,
				"z": -2.500938055,
				"element": "S" 
			},
			{
				"x": -1.3832942074,
				"y": 1.7671655153,
				"z": -2.8419010343,
				"element": "O" 
			},
			{
				"x": 1.0003860026,
				"y": 0.9841128351,
				"z": -3.3229460121,
				"element": "O" 
			},
			{
				"x": -0.6703595401,
				"y": -0.6693709201,
				"z": -2.4102760673,
				"element": "N" 
			},
			{
				"x": 0.4926950171,
				"y": -1.6037979372,
				"z": -2.3981157622,
				"element": "C" 
			},
			{
				"x": 0.1195421133,
				"y": -2.9753412957,
				"z": -1.8437969378,
				"element": "C" 
			},
			{
				"x": -0.6471434578,
				"y": -2.8067610408,
				"z": -0.5260895827,
				"element": "C" 
			},
			{
				"x": -1.9270210633,
				"y": -2.0640116368,
				"z": -0.8223666646,
				"element": "C" 
			},
			{
				"x": -1.9124122262,
				"y": -1.0417833554,
				"z": -1.7950254432,
				"element": "C" 
			},
			{
				"x": -3.1184293083,
				"y": -0.4418591836,
				"z": -2.191854828,
				"element": "C" 
			},
			{
				"x": -4.3142101928,
				"y": -0.8005020568,
				"z": -1.5723679328,
				"element": "C" 
			},
			{
				"x": -4.3339125295,
				"y": -1.7908100911,
				"z": -0.5898084811,
				"element": "C" 
			},
			{
				"x": -3.1445617974,
				"y": -2.4289945918,
				"z": -0.2419404086,
				"element": "C" 
			},
			{
				"x": 3.0246355647,
				"y": 1.4693669917,
				"z": 3.0181479818,
				"element": "H" 
			},
			{
				"x": 3.0519975687,
				"y": 1.8761206814,
				"z": 1.0454189917,
				"element": "H" 
			},
			{
				"x": 2.3697913918,
				"y": 1.3027125491,
				"z": -1.2662269091,
				"element": "H" 
			},
			{
				"x": -1.7671591237,
				"y": 1.6716986446,
				"z": -0.1553315073,
				"element": "H" 
			},
			{
				"x": -1.0790459995,
				"y": 2.2371240587,
				"z": 2.1852444843,
				"element": "H" 
			},
			{
				"x": 1.2898852576,
				"y": -1.1847777998,
				"z": -1.7720320776,
				"element": "H" 
			},
			{
				"x": 0.8821522446,
				"y": -1.6746869216,
				"z": -3.4161426194,
				"element": "H" 
			},
			{
				"x": 1.0431797465,
				"y": -3.5479092689,
				"z": -1.7066875268,
				"element": "H" 
			},
			{
				"x": -0.5018739955,
				"y": -3.5246340878,
				"z": -2.5597056397,
				"element": "H" 
			},
			{
				"x": -0.8707695458,
				"y": -3.7752897846,
				"z": -0.0680808087,
				"element": "H" 
			},
			{
				"x": -0.0226877953,
				"y": -2.2533615151,
				"z": 0.1903105519,
				"element": "H" 
			},
			{
				"x": -3.1093989735,
				"y": 0.305203993,
				"z": -2.9731927768,
				"element": "H" 
			},
			{
				"x": -5.2360784242,
				"y": -0.3159637238,
				"z": -1.8801407007,
				"element": "H" 
			},
			{
				"x": -5.2676907008,
				"y": -2.0808789519,
				"z": -0.1177675343,
				"element": "H" 
			},
			{
				"x": -3.1516020891,
				"y": -3.2290964625,
				"z": 0.4942848343,
				"element": "H" 
			}
		],
		 "valence_orbital": [ 
			{
				"type": "occ",
				"energy": -0.29144,
				"method": "rhf"
			},
			{
				"type": "occ",
				"energy": -0.28764,
				"method": "rhf"
			},
			{
				"type": "occ",
				"energy": -0.28137,
				"method": "rhf"
			},
			{
				"type": "occ",
				"energy": -0.25299,
				"method": "rhf"
			},
			{
				"type": "occ",
				"energy": -0.22816,
				"method": "rhf"
			},
			{
				"type": "unocc",
				"energy": -0.07764,
				"method": "rhf"
			},
			{
				"type": "unocc",
				"energy": -0.04137,
				"method": "rhf"
			},
			{
				"type": "unocc",
				"energy": -0.01479,
				"method": "rhf"
			},
			{
				"type": "unocc",
				"energy": -0.00938,
				"method": "rhf"
			},
			{
				"type": "unocc",
				"energy": 0.02208,
				"method": "rhf"
			}
		],
		"cosmo_sigma_profile": { 
			"0.0": 0.0,
			"0.0": 0.0,
			"0.0": 0.0,
			"0.0": 0.0,
			"0.0": 0.0,
			"0.0": 0.0,
			"0.0": 0.0,
			"0.0": 0.0,
			"0.0": 0.0,
			"0.0": 0.0,
			"0.0": 0.0,
			"0.0": 0.0,
			"0.0": 0.0,
			"0.0": 0.0,
			"0.0": 0.0,
			"0.0": 0.0,
			"0.0": 0.0,
			"0.0": 0.0,
			"0.0": 0.0,
			"0.0": 0.0,
			"0.0": 0.0,
			"0.0": 0.0,
			"0.0": 0.0,
			"0.0": 0.0,
			"0.0": 0.0,
			"0.0": 0.0,
			"0.0": 0.0,
			"0.0": 0.0,
			"0.0": 0.0,
			"0.0": 0.0,
			"0.0": 0.0,
			"0.0": 0.0,
			"0.0": 0.0,
			"0.0": 0.0,
			"0.0": 0.0,
			"0.0": 0.0,
			"0.0": 0.0,
			"0.0": 0.0,
			"0.0": 0.0,
			"0.0": 0.0,
			"0.0": 0.0,
			"0.0": 0.0,
			"0.0": 0.0,
			"0.0": 0.0,
			"0.0": 0.0,
			"0.0": 0.0,
			"0.0": 0.0,
			"0.0": 0.0,
			"0.0": 0.0,
			"0.0": 0.0,
			"0.0": 0.0
		}
	}
}
