{
	 "smiles": "OCNC(=O)C1=CC=CC=C1", 
	 "Tm": 368.15, 
	 "num_atms": 20, 
	 "gaussian": { 
		 "optdone": 1, 
		 "sigma_profile": "yes", 
		 "theory": "DFT", 
		 "functional": "B3LYP", 
		 "basiset": "6-31G**", 
		 "properties": { 
			 "R2extent": 2375.1547, 
			 "electric_dipole_moment_norm": 2.44788208254, 
			 "electric_quadrupole_moment_norm": 20.0259926755, 
			 "total_energy": -515.478011308, 
			 "HOMO_LUMO_gap": 0.21011, 
			 "cosmo_polarized_energy": -14.27, 
			 "cosmo_cavitation_energy": 23.75, 
			 "cosmo_dispersion_energy": -17.63, 
			 "cosmo_repulsion_energy": 1.43, 
			 "cosmo_total_nonelectrostatic_energy": 7.55, 
			 "SMD_solvation_energy": 4.49 
		},
		"coords": [
			{
				"x": -1.1511894532,
				"y": 2.3631311635,
				"z": -3.1308552055,
				"element": "O" 
			},
			{
				"x": -0.4500619666,
				"y": 2.7140662825,
				"z": -1.9485616069,
				"element": "C" 
			},
			{
				"x": 0.9347723952,
				"y": 2.3027832313,
				"z": -1.9277885655,
				"element": "N" 
			},
			{
				"x": 1.5197691355,
				"y": 1.1773605609,
				"z": -1.3647251029,
				"element": "C" 
			},
			{
				"x": 2.7304925529,
				"y": 1.171006142,
				"z": -1.1699483122,
				"element": "O" 
			},
			{
				"x": 0.6687176204,
				"y": -0.0042638403,
				"z": -1.0020078455,
				"element": "C" 
			},
			{
				"x": -0.4993865305,
				"y": -0.3750152204,
				"z": -1.6856701857,
				"element": "C" 
			},
			{
				"x": -1.1893046145,
				"y": -1.529460168,
				"z": -1.3095079884,
				"element": "C" 
			},
			{
				"x": -0.727092995,
				"y": -2.3157350755,
				"z": -0.2537174536,
				"element": "C" 
			},
			{
				"x": 0.442255661,
				"y": -1.9555279007,
				"z": 0.4226446119,
				"element": "C" 
			},
			{
				"x": 1.1416905051,
				"y": -0.8139588947,
				"z": 0.042921599,
				"element": "C" 
			},
			{
				"x": -0.6336382256,
				"y": 2.6770877011,
				"z": -3.8848188435,
				"element": "H" 
			},
			{
				"x": -0.4681564069,
				"y": 3.801740291,
				"z": -1.7972517836,
				"element": "H" 
			},
			{
				"x": -0.9994888356,
				"y": 2.2399781494,
				"z": -1.133488956,
				"element": "H" 
			},
			{
				"x": 1.6330886828,
				"y": 3.0153381931,
				"z": -2.1004364934,
				"element": "H" 
			},
			{
				"x": -0.8607572733,
				"y": 0.2234231242,
				"z": -2.5152590162,
				"element": "H" 
			},
			{
				"x": -2.088162672,
				"y": -1.8152558449,
				"z": -1.8482811505,
				"element": "H" 
			},
			{
				"x": -1.2705792209,
				"y": -3.2103279076,
				"z": 0.0373302556,
				"element": "H" 
			},
			{
				"x": 0.8104945443,
				"y": -2.5690984182,
				"z": 1.2397861777,
				"element": "H" 
			},
			{
				"x": 2.064537097,
				"y": -0.5308715687,
				"z": 0.5376358652,
				"element": "H" 
			}
		],
		 "valence_orbital": [ 
			{
				"type": "occ",
				"energy": -0.29865,
				"method": "rhf"
			},
			{
				"type": "occ",
				"energy": -0.26675,
				"method": "rhf"
			},
			{
				"type": "occ",
				"energy": -0.26018,
				"method": "rhf"
			},
			{
				"type": "occ",
				"energy": -0.25383,
				"method": "rhf"
			},
			{
				"type": "occ",
				"energy": -0.24395,
				"method": "rhf"
			},
			{
				"type": "unocc",
				"energy": -0.03384,
				"method": "rhf"
			},
			{
				"type": "unocc",
				"energy": -0.00379,
				"method": "rhf"
			},
			{
				"type": "unocc",
				"energy": 0.05081,
				"method": "rhf"
			},
			{
				"type": "unocc",
				"energy": 0.07047,
				"method": "rhf"
			},
			{
				"type": "unocc",
				"energy": 0.09713,
				"method": "rhf"
			}
		],
		"cosmo_sigma_profile": { 
			"-0.025": 0.0,
			"-0.024": 0.0,
			"-0.023": 0.0,
			"-0.022": 0.0,
			"-0.021": 0.0,
			"-0.02": 0.0,
			"-0.019": 0.0,
			"-0.018": 0.0,
			"-0.017": 0.0,
			"-0.016": 0.878688996847,
			"-0.015": 0.906905257159,
			"-0.014": 1.6927692874,
			"-0.013": 2.08381515174,
			"-0.012": 2.59889113081,
			"-0.011": 2.25742212273,
			"-0.01": 2.50395625605,
			"-0.009": 1.85226218952,
			"-0.008": 1.63714590908,
			"-0.007": 3.17009511001,
			"-0.006": 10.8542017227,
			"-0.005": 12.5380274067,
			"-0.004": 15.0736070294,
			"-0.003": 12.1540325572,
			"-0.002": 10.4906840372,
			"-0.001": 10.9106182926,
			"0.0": 10.3445378636,
			"0.001": 12.2314363441,
			"0.002": 12.3485204584,
			"0.003": 11.6175585776,
			"0.004": 13.8179306911,
			"0.005": 9.05898361152,
			"0.006": 1.99393761756,
			"0.007": 2.69610522358,
			"0.008": 2.51782939164,
			"0.009": 2.24067802154,
			"0.01": 2.53115462479,
			"0.011": 2.35264543495,
			"0.012": 3.52620537205,
			"0.013": 6.04117514623,
			"0.014": 3.63226869052,
			"0.015": 0.0903606198156,
			"0.016": 0.0,
			"0.017": 0.0,
			"0.018": 0.0,
			"0.019": 0.0,
			"0.02": 0.0,
			"0.021": 0.0,
			"0.022": 0.0,
			"0.023": 0.0,
			"0.024": 0.0,
			"0.025": 0.0
		}
	}
}
