{
	 "smiles": "CC(C)C1=C(C)SC(=O)N1", 
	 "Tm": 403.15, 
	 "num_atms": 21, 
	 "gaussian": { 
		 "optdone": 1, 
		 "sigma_profile": "yes", 
		 "theory": "DFT", 
		 "functional": "B3LYP", 
		 "basiset": "6-31G**", 
		 "properties": { 
			 "R2extent": 1902.8437, 
			 "electric_dipole_moment_norm": 5.10550469787, 
			 "electric_quadrupole_moment_norm": 12.23064798, 
			 "total_energy": -801.557556161, 
			 "HOMO_LUMO_gap": 0.21288, 
			 "cosmo_polarized_energy": -11.55, 
			 "cosmo_cavitation_energy": 25.07, 
			 "cosmo_dispersion_energy": -18.59, 
			 "cosmo_repulsion_energy": 1.48, 
			 "cosmo_total_nonelectrostatic_energy": 7.96, 
			 "SMD_solvation_energy": 5.08 
		},
		"coords": [
			{
				"x": -0.4604578914,
				"y": 2.607703928,
				"z": -1.5261925554,
				"element": "C" 
			},
			{
				"x": -0.3672745371,
				"y": 2.0578047036,
				"z": -0.0898264987,
				"element": "C" 
			},
			{
				"x": -1.7268540504,
				"y": 2.102932716,
				"z": 0.6337481623,
				"element": "C" 
			},
			{
				"x": 0.2813863061,
				"y": 0.6842363879,
				"z": -0.0306976991,
				"element": "C" 
			},
			{
				"x": -0.1237071442,
				"y": -0.5018235761,
				"z": -0.544046896,
				"element": "C" 
			},
			{
				"x": -1.3468155447,
				"y": -0.8456585308,
				"z": -1.3390998405,
				"element": "C" 
			},
			{
				"x": 1.038685008,
				"y": -1.7937846777,
				"z": -0.1670154586,
				"element": "S" 
			},
			{
				"x": 2.1145881398,
				"y": -0.6466548292,
				"z": 0.7309174931,
				"element": "C" 
			},
			{
				"x": 3.1629893752,
				"y": -0.9079101813,
				"z": 1.2814724257,
				"element": "O" 
			},
			{
				"x": 1.4986658274,
				"y": 0.5840832549,
				"z": 0.6575291896,
				"element": "N" 
			},
			{
				"x": -1.1416600499,
				"y": 2.0140996863,
				"z": -2.1426303597,
				"element": "H" 
			},
			{
				"x": 0.5185659317,
				"y": 2.6050914512,
				"z": -2.014361964,
				"element": "H" 
			},
			{
				"x": -0.8338104296,
				"y": 3.637260815,
				"z": -1.5145775315,
				"element": "H" 
			},
			{
				"x": 0.3030072414,
				"y": 2.7323903164,
				"z": 0.4608337169,
				"element": "H" 
			},
			{
				"x": -1.6380334799,
				"y": 1.7456069888,
				"z": 1.6639087729,
				"element": "H" 
			},
			{
				"x": -2.4737404494,
				"y": 1.4831362939,
				"z": 0.1293783464,
				"element": "H" 
			},
			{
				"x": -2.1086004297,
				"y": 3.1291332044,
				"z": 0.6596240495,
				"element": "H" 
			},
			{
				"x": -1.9548649423,
				"y": -1.6017676292,
				"z": -0.8283206107,
				"element": "H" 
			},
			{
				"x": -1.9759513829,
				"y": 0.0308980454,
				"z": -1.5015323368,
				"element": "H" 
			},
			{
				"x": -1.0819365927,
				"y": -1.2521531786,
				"z": -2.3224211183,
				"element": "H" 
			},
			{
				"x": 1.9490190944,
				"y": 1.3706748111,
				"z": 1.1040107128,
				"element": "H" 
			}
		],
		 "valence_orbital": [ 
			{
				"type": "occ",
				"energy": -0.3314,
				"method": "rhf"
			},
			{
				"type": "occ",
				"energy": -0.32471,
				"method": "rhf"
			},
			{
				"type": "occ",
				"energy": -0.28254,
				"method": "rhf"
			},
			{
				"type": "occ",
				"energy": -0.26059,
				"method": "rhf"
			},
			{
				"type": "occ",
				"energy": -0.20469,
				"method": "rhf"
			},
			{
				"type": "unocc",
				"energy": 0.00819,
				"method": "rhf"
			},
			{
				"type": "unocc",
				"energy": 0.01387,
				"method": "rhf"
			},
			{
				"type": "unocc",
				"energy": 0.04701,
				"method": "rhf"
			},
			{
				"type": "unocc",
				"energy": 0.06861,
				"method": "rhf"
			},
			{
				"type": "unocc",
				"energy": 0.07653,
				"method": "rhf"
			}
		],
		"cosmo_sigma_profile": { 
			"-0.025": 0.0,
			"-0.024": 0.0,
			"-0.023": 0.0,
			"-0.022": 0.0,
			"-0.021": 0.0,
			"-0.02": 0.0,
			"-0.019": 0.0,
			"-0.018": 0.0,
			"-0.017": 0.0,
			"-0.016": 0.562819620378,
			"-0.015": 1.11595991297,
			"-0.014": 1.30731719933,
			"-0.013": 1.31862585185,
			"-0.012": 1.04561654791,
			"-0.011": 1.22169337365,
			"-0.01": 1.23670236026,
			"-0.009": 0.914729566835,
			"-0.008": 0.981630585907,
			"-0.007": 1.33599822796,
			"-0.006": 2.9837393158,
			"-0.005": 6.3177675131,
			"-0.004": 11.6802402201,
			"-0.003": 23.5329980782,
			"-0.002": 22.5266241631,
			"-0.001": 20.5851202318,
			"0.0": 23.3769914869,
			"0.001": 21.5406303144,
			"0.002": 11.4697352158,
			"0.003": 10.2306888272,
			"0.004": 7.2393274795,
			"0.005": 4.98940801948,
			"0.006": 3.00103628256,
			"0.007": 1.79668708283,
			"0.008": 1.51852084241,
			"0.009": 1.26134965298,
			"0.01": 1.2706654567,
			"0.011": 1.80115369482,
			"0.012": 4.91540126563,
			"0.013": 5.68373874607,
			"0.014": 0.405780139468,
			"0.015": 0.0,
			"0.016": 0.0,
			"0.017": 0.0,
			"0.018": 0.0,
			"0.019": 0.0,
			"0.02": 0.0,
			"0.021": 0.0,
			"0.022": 0.0,
			"0.023": 0.0,
			"0.024": 0.0,
			"0.025": 0.0
		}
	}
}
