{
	 "smiles": "CCC(CC)N1N=CC(C(O)=O)=C1C", 
	 "Tm": 428.15, 
	 "num_atms": 30, 
	 "gaussian": { 
		 "optdone": 1, 
		 "sigma_profile": "yes", 
		 "theory": "DFT", 
		 "functional": "B3LYP", 
		 "basiset": "6-31G**", 
		 "properties": { 
			 "R2extent": 3754.8193, 
			 "electric_dipole_moment_norm": 4.14998866745, 
			 "electric_quadrupole_moment_norm": 10.4917457689, 
			 "total_energy": -650.681751069, 
			 "HOMO_LUMO_gap": 0.22857, 
			 "cosmo_polarized_energy": -12.36, 
			 "cosmo_cavitation_energy": 32.23, 
			 "cosmo_dispersion_energy": -22.26, 
			 "cosmo_repulsion_energy": 1.77, 
			 "cosmo_total_nonelectrostatic_energy": 11.74, 
			 "SMD_solvation_energy": 6.7 
		},
		"coords": [
			{
				"x": -2.3765871795,
				"y": 2.796929168,
				"z": -1.540779635,
				"element": "C" 
			},
			{
				"x": -2.2325545758,
				"y": 1.8306368122,
				"z": -0.3598915868,
				"element": "C" 
			},
			{
				"x": -1.7118072503,
				"y": 0.4151150904,
				"z": -0.6995973022,
				"element": "C" 
			},
			{
				"x": -2.5639217875,
				"y": -0.3300162941,
				"z": -1.7387725382,
				"element": "C" 
			},
			{
				"x": -2.1790474388,
				"y": -1.8024811776,
				"z": -1.908120675,
				"element": "C" 
			},
			{
				"x": -0.2960214609,
				"y": 0.4456324724,
				"z": -1.1086335456,
				"element": "N" 
			},
			{
				"x": 0.0261140696,
				"y": 0.7644317024,
				"z": -2.3964164145,
				"element": "N" 
			},
			{
				"x": 1.3478768663,
				"y": 0.7496108677,
				"z": -2.4293555484,
				"element": "C" 
			},
			{
				"x": 1.9029713346,
				"y": 0.4244989035,
				"z": -1.1670462008,
				"element": "C" 
			},
			{
				"x": 3.3396445945,
				"y": 0.3309669334,
				"z": -0.9192956938,
				"element": "C" 
			},
			{
				"x": 3.665883416,
				"y": -0.0004140614,
				"z": 0.3636334099,
				"element": "O" 
			},
			{
				"x": 4.1992598842,
				"y": 0.5253944335,
				"z": -1.7587262826,
				"element": "O" 
			},
			{
				"x": 0.7975035196,
				"y": 0.2345671645,
				"z": -0.3280008211,
				"element": "C" 
			},
			{
				"x": 0.7061663705,
				"y": -0.1291211529,
				"z": 1.1213758574,
				"element": "C" 
			},
			{
				"x": -1.434099236,
				"y": 2.9068945737,
				"z": -2.0823077991,
				"element": "H" 
			},
			{
				"x": -2.6872823703,
				"y": 3.7837767421,
				"z": -1.1831010251,
				"element": "H" 
			},
			{
				"x": -3.1309236114,
				"y": 2.4527051595,
				"z": -2.2547942388,
				"element": "H" 
			},
			{
				"x": -1.5605683607,
				"y": 2.2671478738,
				"z": 0.3897651858,
				"element": "H" 
			},
			{
				"x": -3.2037875655,
				"y": 1.7054566441,
				"z": 0.1363700205,
				"element": "H" 
			},
			{
				"x": -1.7276064574,
				"y": -0.1668740095,
				"z": 0.2282609041,
				"element": "H" 
			},
			{
				"x": -3.609404989,
				"y": -0.2518672918,
				"z": -1.4151568228,
				"element": "H" 
			},
			{
				"x": -2.4848639871,
				"y": 0.1841056088,
				"z": -2.6999767291,
				"element": "H" 
			},
			{
				"x": -1.1534381938,
				"y": -1.9007816218,
				"z": -2.2753739223,
				"element": "H" 
			},
			{
				"x": -2.2561611684,
				"y": -2.3504375386,
				"z": -0.9614584296,
				"element": "H" 
			},
			{
				"x": -2.8385526937,
				"y": -2.2943818881,
				"z": -2.6296713019,
				"element": "H" 
			},
			{
				"x": 1.8839586271,
				"y": 0.9649921434,
				"z": -3.3430561155,
				"element": "H" 
			},
			{
				"x": 4.6369793722,
				"y": -0.0237147952,
				"z": 0.3799849896,
				"element": "H" 
			},
			{
				"x": 1.7076174284,
				"y": -0.218711584,
				"z": 1.5381978592,
				"element": "H" 
			},
			{
				"x": 0.1592970134,
				"y": 0.6287610245,
				"z": 1.6933051472,
				"element": "H" 
			},
			{
				"x": 0.1892558295,
				"y": -1.085621903,
				"z": 1.2618392544,
				"element": "H" 
			}
		],
		 "valence_orbital": [ 
			{
				"type": "occ",
				"energy": -0.31144,
				"method": "rhf"
			},
			{
				"type": "occ",
				"energy": -0.28694,
				"method": "rhf"
			},
			{
				"type": "occ",
				"energy": -0.26892,
				"method": "rhf"
			},
			{
				"type": "occ",
				"energy": -0.25229,
				"method": "rhf"
			},
			{
				"type": "occ",
				"energy": -0.24614,
				"method": "rhf"
			},
			{
				"type": "unocc",
				"energy": -0.01757,
				"method": "rhf"
			},
			{
				"type": "unocc",
				"energy": 0.01947,
				"method": "rhf"
			},
			{
				"type": "unocc",
				"energy": 0.07034,
				"method": "rhf"
			},
			{
				"type": "unocc",
				"energy": 0.08524,
				"method": "rhf"
			},
			{
				"type": "unocc",
				"energy": 0.10041,
				"method": "rhf"
			}
		],
		"cosmo_sigma_profile": { 
			"-0.025": 0.0,
			"-0.024": 0.0,
			"-0.023": 0.0,
			"-0.022": 0.0,
			"-0.021": 0.0,
			"-0.02": 0.0,
			"-0.019": 0.0,
			"-0.018": 0.477405322949,
			"-0.017": 0.766802757258,
			"-0.016": 0.998971047491,
			"-0.015": 0.700403342443,
			"-0.014": 0.677811812715,
			"-0.013": 0.814391052328,
			"-0.012": 0.326352209578,
			"-0.011": 0.3925656182,
			"-0.01": 0.943463353384,
			"-0.009": 0.790208544708,
			"-0.008": 0.767634012849,
			"-0.007": 1.91466992323,
			"-0.006": 5.6639603499,
			"-0.005": 13.1205495456,
			"-0.004": 13.9708510429,
			"-0.003": 23.5922417922,
			"-0.002": 27.4641022496,
			"-0.001": 33.1919244533,
			"0.0": 29.5467938478,
			"0.001": 26.0347989879,
			"0.002": 16.8594287172,
			"0.003": 11.0242260253,
			"0.004": 7.57491901497,
			"0.005": 5.5280425327,
			"0.006": 5.11649935779,
			"0.007": 3.4922652715,
			"0.008": 2.65558337428,
			"0.009": 2.1933624025,
			"0.01": 3.42740491396,
			"0.011": 3.22931089163,
			"0.012": 6.14369961475,
			"0.013": 2.70207915565,
			"0.014": 0.192406118584,
			"0.015": 0.0,
			"0.016": 0.0,
			"0.017": 0.0,
			"0.018": 0.0,
			"0.019": 0.0,
			"0.02": 0.0,
			"0.021": 0.0,
			"0.022": 0.0,
			"0.023": 0.0,
			"0.024": 0.0,
			"0.025": 0.0
		}
	}
}
