{
	 "smiles": "CC1=CC=CC(C)=C1NC(=O)C=CC(O)=O", 
	 "Tm": 442.15, 
	 "num_atms": 29, 
	 "gaussian": { 
		 "optdone": 1, 
		 "sigma_profile": "yes", 
		 "theory": "DFT", 
		 "functional": "B3LYP", 
		 "basiset": "6-31G**", 
		 "properties": { 
			 "R2extent": 4217.3036, 
			 "electric_dipole_moment_norm": 2.51925567182, 
			 "electric_quadrupole_moment_norm": 15.5907150259, 
			 "total_energy": -745.549709087, 
			 "HOMO_LUMO_gap": 0.16704, 
			 "cosmo_polarized_energy": -16.11, 
			 "cosmo_cavitation_energy": 33.51, 
			 "cosmo_dispersion_energy": -22.52, 
			 "cosmo_repulsion_energy": 1.79, 
			 "cosmo_total_nonelectrostatic_energy": 12.78, 
			 "SMD_solvation_energy": 8.33 
		},
		"coords": [
			{
				"x": 2.80689436,
				"y": -0.3757482366,
				"z": 1.3154108781,
				"element": "C" 
			},
			{
				"x": 2.3522645207,
				"y": 1.0544356723,
				"z": 1.1558196756,
				"element": "C" 
			},
			{
				"x": 2.3892667631,
				"y": 1.9299570509,
				"z": 2.2480574624,
				"element": "C" 
			},
			{
				"x": 2.0095805599,
				"y": 3.263468351,
				"z": 2.1173752058,
				"element": "C" 
			},
			{
				"x": 1.5882505007,
				"y": 3.7481564505,
				"z": 0.880586278,
				"element": "C" 
			},
			{
				"x": 1.5216575916,
				"y": 2.9060671634,
				"z": -0.234009017,
				"element": "C" 
			},
			{
				"x": 1.0670273275,
				"y": 3.4344768286,
				"z": -1.5736935711,
				"element": "C" 
			},
			{
				"x": 1.8919846749,
				"y": 1.5542081019,
				"z": -0.0788619651,
				"element": "C" 
			},
			{
				"x": 1.8521174941,
				"y": 0.7099168731,
				"z": -1.2333921662,
				"element": "N" 
			},
			{
				"x": 1.128667561,
				"y": -0.4327573906,
				"z": -1.4861446019,
				"element": "C" 
			},
			{
				"x": 1.3442165298,
				"y": -1.1082439415,
				"z": -2.4870635111,
				"element": "O" 
			},
			{
				"x": 0.0220242258,
				"y": -0.8452653636,
				"z": -0.5681523375,
				"element": "C" 
			},
			{
				"x": -0.8359118822,
				"y": -0.0278428307,
				"z": 0.0579027999,
				"element": "C" 
			},
			{
				"x": -2.0089180455,
				"y": -0.5022477445,
				"z": 0.8280547088,
				"element": "C" 
			},
			{
				"x": -2.1212030532,
				"y": -1.8531088578,
				"z": 0.8747632247,
				"element": "O" 
			},
			{
				"x": -2.8002423643,
				"y": 0.2394633802,
				"z": 1.3746929443,
				"element": "O" 
			},
			{
				"x": 1.9578254662,
				"y": -1.0638181824,
				"z": 1.4036739609,
				"element": "H" 
			},
			{
				"x": 3.4008142243,
				"y": -0.7070098556,
				"z": 0.4583152107,
				"element": "H" 
			},
			{
				"x": 3.4136404463,
				"y": -0.4872785646,
				"z": 2.217698743,
				"element": "H" 
			},
			{
				"x": 2.7366988072,
				"y": 1.5578500736,
				"z": 3.2080874828,
				"element": "H" 
			},
			{
				"x": 2.0499827102,
				"y": 3.9268141294,
				"z": 2.976357873,
				"element": "H" 
			},
			{
				"x": 1.2999751584,
				"y": 4.79038497,
				"z": 0.7744601731,
				"element": "H" 
			},
			{
				"x": 1.8890197483,
				"y": 3.4641267749,
				"z": -2.3004998104,
				"element": "H" 
			},
			{
				"x": 0.6796795129,
				"y": 4.451772454,
				"z": -1.4781282436,
				"element": "H" 
			},
			{
				"x": 0.2837271329,
				"y": 2.8073815152,
				"z": -2.0116261776,
				"element": "H" 
			},
			{
				"x": 2.4766118002,
				"y": 0.9311857166,
				"z": -2.0014119157,
				"element": "H" 
			},
			{
				"x": -0.1405953864,
				"y": -1.9185883832,
				"z": -0.5528838218,
				"element": "H" 
			},
			{
				"x": -0.7362881766,
				"y": 1.0511403905,
				"z": 0.0377640718,
				"element": "H" 
			},
			{
				"x": -2.918868208,
				"y": -2.0351965451,
				"z": 1.3978464463,
				"element": "H" 
			}
		],
		 "valence_orbital": [ 
			{
				"type": "occ",
				"energy": -0.28602,
				"method": "rhf"
			},
			{
				"type": "occ",
				"energy": -0.28085,
				"method": "rhf"
			},
			{
				"type": "occ",
				"energy": -0.25803,
				"method": "rhf"
			},
			{
				"type": "occ",
				"energy": -0.24823,
				"method": "rhf"
			},
			{
				"type": "occ",
				"energy": -0.24043,
				"method": "rhf"
			},
			{
				"type": "unocc",
				"energy": -0.07339,
				"method": "rhf"
			},
			{
				"type": "unocc",
				"energy": -0.0148,
				"method": "rhf"
			},
			{
				"type": "unocc",
				"energy": -0.00792,
				"method": "rhf"
			},
			{
				"type": "unocc",
				"energy": 0.03567,
				"method": "rhf"
			},
			{
				"type": "unocc",
				"energy": 0.06878,
				"method": "rhf"
			}
		],
		"cosmo_sigma_profile": { 
			"-0.025": 0.0,
			"-0.024": 0.0,
			"-0.023": 0.0,
			"-0.022": 0.0,
			"-0.021": 0.0,
			"-0.02": 0.0,
			"-0.019": 0.1003502243,
			"-0.018": 1.13790937133,
			"-0.017": 0.802931232995,
			"-0.016": 0.638857251924,
			"-0.015": 0.771206710231,
			"-0.014": 1.32099539478,
			"-0.013": 1.86359707353,
			"-0.012": 1.21823110577,
			"-0.011": 1.67529296553,
			"-0.01": 1.51822316552,
			"-0.009": 2.26946713517,
			"-0.008": 1.86898419086,
			"-0.007": 2.76844944584,
			"-0.006": 6.27809533202,
			"-0.005": 16.2034114183,
			"-0.004": 23.9206936381,
			"-0.003": 25.8078728232,
			"-0.002": 26.0557278445,
			"-0.001": 24.6619349876,
			"0.0": 25.8624177599,
			"0.001": 15.734666973,
			"0.002": 11.2547394561,
			"0.003": 10.3384880482,
			"0.004": 10.7193001244,
			"0.005": 10.456629869,
			"0.006": 5.86642548861,
			"0.007": 3.84447014051,
			"0.008": 2.92675878454,
			"0.009": 3.07003682572,
			"0.01": 3.71488766463,
			"0.011": 6.15120358911,
			"0.012": 6.64937135516,
			"0.013": 6.17200857762,
			"0.014": 1.78929099499,
			"0.015": 0.0,
			"0.016": 0.0,
			"0.017": 0.0,
			"0.018": 0.0,
			"0.019": 0.0,
			"0.02": 0.0,
			"0.021": 0.0,
			"0.022": 0.0,
			"0.023": 0.0,
			"0.024": 0.0,
			"0.025": 0.0
		}
	}
}
