{
	 "smiles": "ClC1=NN=C(C=C1)N1C=CN=C1", 
	 "Tm": 459.15, 
	 "num_atms": 17, 
	 "gaussian": { 
		 "optdone": 1, 
		 "sigma_profile": "yes", 
		 "theory": "DFT", 
		 "functional": "B3LYP", 
		 "basiset": "6-31G**", 
		 "properties": { 
			 "R2extent": 3469.81, 
			 "electric_dipole_moment_norm": 3.19953111096, 
			 "electric_quadrupole_moment_norm": 15.1131343562, 
			 "total_energy": -948.897124071, 
			 "HOMO_LUMO_gap": 0.16311, 
			 "cosmo_polarized_energy": -15.07, 
			 "cosmo_cavitation_energy": 24.03, 
			 "cosmo_dispersion_energy": -18.21, 
			 "cosmo_repulsion_energy": 1.41, 
			 "cosmo_total_nonelectrostatic_energy": 7.24, 
			 "SMD_solvation_energy": 1.57 
		},
		"coords": [
			{
				"x": 3.9793956399,
				"y": 0.2836355156,
				"z": -3.0711866477,
				"element": "Cl" 
			},
			{
				"x": 2.4728475012,
				"y": 0.3072381362,
				"z": -2.1868363611,
				"element": "C" 
			},
			{
				"x": 1.3654580658,
				"y": 0.3273627865,
				"z": -2.9079836781,
				"element": "N" 
			},
			{
				"x": 0.185947198,
				"y": 0.345983042,
				"z": -2.2905718424,
				"element": "N" 
			},
			{
				"x": 0.1260782098,
				"y": 0.3442807154,
				"z": -0.9567294041,
				"element": "C" 
			},
			{
				"x": 1.2753944473,
				"y": 0.3232479884,
				"z": -0.1430114695,
				"element": "C" 
			},
			{
				"x": 2.4944837641,
				"y": 0.3040113171,
				"z": -0.7839111621,
				"element": "C" 
			},
			{
				"x": -1.1680940545,
				"y": 0.3649979523,
				"z": -0.4144956262,
				"element": "N" 
			},
			{
				"x": -2.3556769771,
				"y": 0.3864379668,
				"z": -1.1429134995,
				"element": "C" 
			},
			{
				"x": -3.3523472947,
				"y": 0.4013244198,
				"z": -0.2102098171,
				"element": "C" 
			},
			{
				"x": -2.8336958685,
				"y": 0.3900570953,
				"z": 1.0741501181,
				"element": "N" 
			},
			{
				"x": -1.5366893836,
				"y": 0.3685621574,
				"z": 0.9216308926,
				"element": "C" 
			},
			{
				"x": 1.2152190402,
				"y": 0.3220450827,
				"z": 0.9385843183,
				"element": "H" 
			},
			{
				"x": 3.4311465815,
				"y": 0.287114339,
				"z": -0.2392983892,
				"element": "H" 
			},
			{
				"x": -2.3431654924,
				"y": 0.3883790342,
				"z": -2.2193725328,
				"element": "H" 
			},
			{
				"x": -4.419110548,
				"y": 0.419596179,
				"z": -0.382785837,
				"element": "H" 
			},
			{
				"x": -0.814790829,
				"y": 0.3548262723,
				"z": 1.7248409379,
				"element": "H" 
			}
		],
		 "valence_orbital": [ 
			{
				"type": "occ",
				"energy": -0.31952,
				"method": "rhf"
			},
			{
				"type": "occ",
				"energy": -0.28091,
				"method": "rhf"
			},
			{
				"type": "occ",
				"energy": -0.26703,
				"method": "rhf"
			},
			{
				"type": "occ",
				"energy": -0.26509,
				"method": "rhf"
			},
			{
				"type": "occ",
				"energy": -0.24292,
				"method": "rhf"
			},
			{
				"type": "unocc",
				"energy": -0.07981,
				"method": "rhf"
			},
			{
				"type": "unocc",
				"energy": -0.06064,
				"method": "rhf"
			},
			{
				"type": "unocc",
				"energy": 0.01339,
				"method": "rhf"
			},
			{
				"type": "unocc",
				"energy": 0.02081,
				"method": "rhf"
			},
			{
				"type": "unocc",
				"energy": 0.05865,
				"method": "rhf"
			}
		],
		"cosmo_sigma_profile": { 
			"-0.025": 0.0,
			"-0.024": 0.0,
			"-0.023": 0.0,
			"-0.022": 0.0,
			"-0.021": 0.0,
			"-0.02": 0.0,
			"-0.019": 0.0,
			"-0.018": 0.0,
			"-0.017": 0.0,
			"-0.016": 0.0,
			"-0.015": 0.0,
			"-0.014": 0.0801240368365,
			"-0.013": 1.25011523727,
			"-0.012": 1.60866868301,
			"-0.011": 3.131643608,
			"-0.01": 4.220298439,
			"-0.009": 5.97192737682,
			"-0.008": 4.50585222642,
			"-0.007": 6.73180323043,
			"-0.006": 6.7592908597,
			"-0.005": 8.9791691783,
			"-0.004": 13.2000147272,
			"-0.003": 15.6097570762,
			"-0.002": 15.5117837751,
			"-0.001": 10.5875349127,
			"0.0": 10.8813648657,
			"0.001": 11.8269420559,
			"0.002": 12.190397126,
			"0.003": 14.4380114579,
			"0.004": 12.8079427741,
			"0.005": 5.95842979579,
			"0.006": 4.51570109938,
			"0.007": 2.42651966422,
			"0.008": 4.78489383861,
			"0.009": 4.31756071315,
			"0.01": 2.8061804852,
			"0.011": 2.96843251673,
			"0.012": 2.64145518775,
			"0.013": 2.13041027927,
			"0.014": 2.07627366115,
			"0.015": 0.886126067402,
			"0.016": 0.889677003554,
			"0.017": 0.882358389912,
			"0.018": 0.00249721233863,
			"0.019": 0.0,
			"0.02": 0.0,
			"0.021": 0.0,
			"0.022": 0.0,
			"0.023": 0.0,
			"0.024": 0.0,
			"0.025": 0.0
		}
	}
}
