{
	 "smiles": "NC1=C(O)C(=CC(Cl)=C1)[N+]([O-])=O", 
	 "Tm": 426.15, 
	 "num_atms": 17, 
	 "gaussian": { 
		 "optdone": 1, 
		 "sigma_profile": "yes", 
		 "theory": "DFT", 
		 "functional": "B3LYP", 
		 "basiset": "6-31G**", 
		 "properties": { 
			 "R2extent": 3409.5533, 
			 "electric_dipole_moment_norm": 4.18165653539, 
			 "electric_quadrupole_moment_norm": 7.12187344735, 
			 "total_energy": -1026.92544378, 
			 "HOMO_LUMO_gap": 0.11884, 
			 "cosmo_polarized_energy": -10.53, 
			 "cosmo_cavitation_energy": 23.64, 
			 "cosmo_dispersion_energy": -18.2, 
			 "cosmo_repulsion_energy": 1.45, 
			 "cosmo_total_nonelectrostatic_energy": 6.89, 
			 "SMD_solvation_energy": 6.11 
		},
		"coords": [
			{
				"x": -1.746944458,
				"y": -0.8107019508,
				"z": 1.2514918755,
				"element": "N" 
			},
			{
				"x": -1.2108327722,
				"y": -0.1956360513,
				"z": 0.1358033371,
				"element": "C" 
			},
			{
				"x": -1.2468459284,
				"y": -0.907233064,
				"z": -1.0964802395,
				"element": "C" 
			},
			{
				"x": -1.7454864029,
				"y": -2.1529839471,
				"z": -1.0528555559,
				"element": "O" 
			},
			{
				"x": -0.7581685234,
				"y": -0.2744295814,
				"z": -2.2530595066,
				"element": "C" 
			},
			{
				"x": -0.2344271479,
				"y": 1.0318542567,
				"z": -2.2321788484,
				"element": "C" 
			},
			{
				"x": -0.2074224425,
				"y": 1.6907765149,
				"z": -1.0215403522,
				"element": "C" 
			},
			{
				"x": 0.4409693925,
				"y": 3.3195216508,
				"z": -0.9338025319,
				"element": "Cl" 
			},
			{
				"x": -0.6867296819,
				"y": 1.0952294868,
				"z": 0.1559315425,
				"element": "C" 
			},
			{
				"x": -0.7769020492,
				"y": -0.9737688896,
				"z": -3.519855614,
				"element": "N" 
			},
			{
				"x": -1.2319858616,
				"y": -2.1437334543,
				"z": -3.545415568,
				"element": "O" 
			},
			{
				"x": -0.3520710012,
				"y": -0.4111581931,
				"z": -4.5201309014,
				"element": "O" 
			},
			{
				"x": -1.4223072307,
				"y": -0.4864011368,
				"z": 2.1498565791,
				"element": "H" 
			},
			{
				"x": -1.8560766483,
				"y": -1.8122930129,
				"z": 1.1793897947,
				"element": "H" 
			},
			{
				"x": -1.6892763308,
				"y": -2.4974581311,
				"z": -1.9793938973,
				"element": "H" 
			},
			{
				"x": 0.1290888822,
				"y": 1.4774875262,
				"z": -3.1470311713,
				"element": "H" 
			},
			{
				"x": -0.6538817956,
				"y": 1.6487279771,
				"z": 1.0883710577,
				"element": "H" 
			}
		],
		 "valence_orbital": [ 
			{
				"type": "occ",
				"energy": -0.32109,
				"method": "rhf"
			},
			{
				"type": "occ",
				"energy": -0.32003,
				"method": "rhf"
			},
			{
				"type": "occ",
				"energy": -0.30993,
				"method": "rhf"
			},
			{
				"type": "occ",
				"energy": -0.26282,
				"method": "rhf"
			},
			{
				"type": "occ",
				"energy": -0.22162,
				"method": "rhf"
			},
			{
				"type": "unocc",
				"energy": -0.10278,
				"method": "rhf"
			},
			{
				"type": "unocc",
				"energy": -0.01251,
				"method": "rhf"
			},
			{
				"type": "unocc",
				"energy": -0.00236,
				"method": "rhf"
			},
			{
				"type": "unocc",
				"energy": 0.01724,
				"method": "rhf"
			},
			{
				"type": "unocc",
				"energy": 0.06702,
				"method": "rhf"
			}
		],
		"cosmo_sigma_profile": { 
			"-0.025": 0.0,
			"-0.024": 0.0,
			"-0.023": 0.0,
			"-0.022": 0.0,
			"-0.021": 0.0,
			"-0.02": 0.0,
			"-0.019": 0.0,
			"-0.018": 0.0,
			"-0.017": 0.0,
			"-0.016": 0.0,
			"-0.015": 0.0,
			"-0.014": 0.972849290049,
			"-0.013": 1.56166888874,
			"-0.012": 2.19774648647,
			"-0.011": 2.83180128747,
			"-0.01": 3.47865155376,
			"-0.009": 3.15844184916,
			"-0.008": 4.20613885127,
			"-0.007": 6.71568192386,
			"-0.006": 7.78772731733,
			"-0.005": 6.70840701158,
			"-0.004": 7.86600234049,
			"-0.003": 7.3761592386,
			"-0.002": 10.6728567727,
			"-0.001": 14.3435228695,
			"0.0": 14.463623369,
			"0.001": 17.5177112441,
			"0.002": 17.0956320228,
			"0.003": 12.3232759467,
			"0.004": 13.7542590066,
			"0.005": 9.4289169761,
			"0.006": 6.86221151439,
			"0.007": 8.10875493952,
			"0.008": 5.52571405159,
			"0.009": 4.23897122177,
			"0.01": 1.52017779434,
			"0.011": 0.630437617878,
			"0.012": 0.524040397201,
			"0.013": 0.0,
			"0.014": 0.0,
			"0.015": 0.0,
			"0.016": 0.0,
			"0.017": 0.0,
			"0.018": 0.0,
			"0.019": 0.0,
			"0.02": 0.0,
			"0.021": 0.0,
			"0.022": 0.0,
			"0.023": 0.0,
			"0.024": 0.0,
			"0.025": 0.0
		}
	}
}
