{
	 "smiles": "O=C(C1=CC2=C(C=C1)C(=O)OC2=O)C1=CC=C2C(=O)OC(=O)C2=C1", 
	 "Tm": 495.15, 
	 "num_atms": 30, 
	 "gaussian": { 
		 "optdone": 1, 
		 "sigma_profile": "yes", 
		 "theory": "DFT", 
		 "functional": "B3LYP", 
		 "basiset": "6-31G**", 
		 "properties": { 
			 "R2extent": 11666.851, 
			 "electric_dipole_moment_norm": 2.61691348348, 
			 "electric_quadrupole_moment_norm": 53.1168641847, 
			 "total_energy": -1178.0159742, 
			 "HOMO_LUMO_gap": 0.16371, 
			 "cosmo_polarized_energy": -24.37, 
			 "cosmo_cavitation_energy": 38.9, 
			 "cosmo_dispersion_energy": -27.69, 
			 "cosmo_repulsion_energy": 2.04, 
			 "cosmo_total_nonelectrostatic_energy": 13.25, 
			 "SMD_solvation_energy": 10.77 
		},
		"coords": [
			{
				"x": 1.1033761863,
				"y": -0.7442619834,
				"z": 2.3057432122,
				"element": "O" 
			},
			{
				"x": 0.8461673956,
				"y": -0.282102458,
				"z": 1.2042545568,
				"element": "C" 
			},
			{
				"x": 1.8865957771,
				"y": 0.5257442791,
				"z": 0.4765201214,
				"element": "C" 
			},
			{
				"x": 3.2340621795,
				"y": 0.2490638197,
				"z": 0.7706865715,
				"element": "C" 
			},
			{
				"x": 4.1969535625,
				"y": 1.0242141224,
				"z": 0.1447074989,
				"element": "C" 
			},
			{
				"x": 3.8552405892,
				"y": 2.0605770152,
				"z": -0.7213153026,
				"element": "C" 
			},
			{
				"x": 2.5313238036,
				"y": 2.3688486759,
				"z": -1.0034339734,
				"element": "C" 
			},
			{
				"x": 1.5489886012,
				"y": 1.5801340013,
				"z": -0.3961296709,
				"element": "C" 
			},
			{
				"x": 5.1158736636,
				"y": 2.6848030284,
				"z": -1.2011748522,
				"element": "C" 
			},
			{
				"x": 5.2896417898,
				"y": 3.6010843405,
				"z": -1.9536183853,
				"element": "O" 
			},
			{
				"x": 6.169881111,
				"y": 1.9925738168,
				"z": -0.6005765589,
				"element": "O" 
			},
			{
				"x": 5.6799423231,
				"y": 0.9735643834,
				"z": 0.2266031513,
				"element": "C" 
			},
			{
				"x": 6.4022162309,
				"y": 0.2453643833,
				"z": 0.8442470054,
				"element": "O" 
			},
			{
				"x": -0.5069200032,
				"y": -0.5281320412,
				"z": 0.5932595671,
				"element": "C" 
			},
			{
				"x": -0.698295791,
				"y": -0.6324181532,
				"z": -0.7994774624,
				"element": "C" 
			},
			{
				"x": -1.9496915249,
				"y": -0.9376649331,
				"z": -1.3441816709,
				"element": "C" 
			},
			{
				"x": -3.0002007036,
				"y": -1.1202376401,
				"z": -0.4550940019,
				"element": "C" 
			},
			{
				"x": -4.4306809487,
				"y": -1.4391781155,
				"z": -0.7023140845,
				"element": "C" 
			},
			{
				"x": -5.0205158217,
				"y": -1.6080794637,
				"z": -1.7316372732,
				"element": "O" 
			},
			{
				"x": -5.0531678289,
				"y": -1.5218961591,
				"z": 0.5452768035,
				"element": "O" 
			},
			{
				"x": -4.1304486691,
				"y": -1.2803219766,
				"z": 1.5713788808,
				"element": "C" 
			},
			{
				"x": -4.4383937016,
				"y": -1.2962156217,
				"z": 2.7282524494,
				"element": "O" 
			},
			{
				"x": -2.8179545547,
				"y": -1.024965452,
				"z": 0.9227742028,
				"element": "C" 
			},
			{
				"x": -1.5793504734,
				"y": -0.7452502423,
				"z": 1.4772879899,
				"element": "C" 
			},
			{
				"x": 3.4903892049,
				"y": -0.5424992273,
				"z": 1.4660439896,
				"element": "H" 
			},
			{
				"x": 2.2733118835,
				"y": 3.1891175338,
				"z": -1.6647161395,
				"element": "H" 
			},
			{
				"x": 0.5036869426,
				"y": 1.8019345127,
				"z": -0.5828755865,
				"element": "H" 
			},
			{
				"x": 0.1482417024,
				"y": -0.4973990704,
				"z": -1.4642066313,
				"element": "H" 
			},
			{
				"x": -2.0961088877,
				"y": -1.0315603874,
				"z": -2.4149063462,
				"element": "H" 
			},
			{
				"x": -1.4230640383,
				"y": -0.6948409876,
				"z": 2.5491219393,
				"element": "H" 
			}
		],
		 "valence_orbital": [ 
			{
				"type": "occ",
				"energy": -0.31424,
				"method": "rhf"
			},
			{
				"type": "occ",
				"energy": -0.31346,
				"method": "rhf"
			},
			{
				"type": "occ",
				"energy": -0.30511,
				"method": "rhf"
			},
			{
				"type": "occ",
				"energy": -0.30495,
				"method": "rhf"
			},
			{
				"type": "occ",
				"energy": -0.29388,
				"method": "rhf"
			},
			{
				"type": "unocc",
				"energy": -0.13017,
				"method": "rhf"
			},
			{
				"type": "unocc",
				"energy": -0.1152,
				"method": "rhf"
			},
			{
				"type": "unocc",
				"energy": -0.09212,
				"method": "rhf"
			},
			{
				"type": "unocc",
				"energy": -0.0822,
				"method": "rhf"
			},
			{
				"type": "unocc",
				"energy": -0.04773,
				"method": "rhf"
			}
		],
		"cosmo_sigma_profile": { 
			"-0.025": 0.0,
			"-0.024": 0.0,
			"-0.023": 0.0,
			"-0.022": 0.0,
			"-0.021": 0.0,
			"-0.02": 0.0,
			"-0.019": 0.0,
			"-0.018": 0.0,
			"-0.017": 0.0,
			"-0.016": 0.0,
			"-0.015": 0.0,
			"-0.014": 0.0,
			"-0.013": 0.0,
			"-0.012": 0.0,
			"-0.011": 0.00611515881034,
			"-0.01": 1.91462439077,
			"-0.009": 9.76477386355,
			"-0.008": 17.308455694,
			"-0.007": 18.0935004078,
			"-0.006": 16.7912820272,
			"-0.005": 17.746270118,
			"-0.004": 23.0626769277,
			"-0.003": 24.3269802932,
			"-0.002": 28.5725836997,
			"-0.001": 23.2087772108,
			"0.0": 11.1018057881,
			"0.001": 7.11225930576,
			"0.002": 8.48766730815,
			"0.003": 7.73065658528,
			"0.004": 10.1793942404,
			"0.005": 9.57584925342,
			"0.006": 14.077001963,
			"0.007": 14.6750816913,
			"0.008": 15.0248420399,
			"0.009": 22.7558997134,
			"0.01": 14.320896985,
			"0.011": 1.28154585692,
			"0.012": 0.0,
			"0.013": 0.0,
			"0.014": 0.0,
			"0.015": 0.0,
			"0.016": 0.0,
			"0.017": 0.0,
			"0.018": 0.0,
			"0.019": 0.0,
			"0.02": 0.0,
			"0.021": 0.0,
			"0.022": 0.0,
			"0.023": 0.0,
			"0.024": 0.0,
			"0.025": 0.0
		}
	}
}
