{
	 "smiles": "CCOC(=O)NC(=O)NN1C(S)=NN=C1C(F)(F)F", 
	 "Tm": 505.15, 
	 "num_atms": 27, 
	 "gaussian": { 
		 "optdone": 1, 
		 "sigma_profile": "yes", 
		 "theory": "DFT", 
		 "functional": "B3LYP", 
		 "basiset": "6-31G**", 
		 "properties": { 
			 "R2extent": 6466.8165, 
			 "electric_dipole_moment_norm": 4.32811338692, 
			 "electric_quadrupole_moment_norm": 20.0944925908, 
			 "total_energy": -1468.66359144, 
			 "HOMO_LUMO_gap": 0.2278, 
			 "cosmo_polarized_energy": -21.61, 
			 "cosmo_cavitation_energy": 35.86, 
			 "cosmo_dispersion_energy": -24.59, 
			 "cosmo_repulsion_energy": 1.86, 
			 "cosmo_total_nonelectrostatic_energy": 13.13, 
			 "SMD_solvation_energy": 7.29 
		},
		"coords": [
			{
				"x": 1.1160789345,
				"y": 2.7439342493,
				"z": 2.349933463,
				"element": "C" 
			},
			{
				"x": 0.207828806,
				"y": 1.7064182172,
				"z": 1.7210382024,
				"element": "C" 
			},
			{
				"x": 1.0552246777,
				"y": 0.7703232383,
				"z": 1.0021301011,
				"element": "O" 
			},
			{
				"x": 0.4069997771,
				"y": -0.2180560448,
				"z": 0.3631629591,
				"element": "C" 
			},
			{
				"x": -0.792019552,
				"y": -0.3810103085,
				"z": 0.3460637805,
				"element": "O" 
			},
			{
				"x": 1.3580170304,
				"y": -1.0249416727,
				"z": -0.2663329377,
				"element": "N" 
			},
			{
				"x": 1.1934944186,
				"y": -2.2755827121,
				"z": -0.8697103076,
				"element": "C" 
			},
			{
				"x": 2.042844758,
				"y": -3.1393169091,
				"z": -0.7765750432,
				"element": "O" 
			},
			{
				"x": 0.0464590425,
				"y": -2.5102044095,
				"z": -1.6262764902,
				"element": "N" 
			},
			{
				"x": -0.7032150533,
				"y": -1.53943809,
				"z": -2.2520232371,
				"element": "N" 
			},
			{
				"x": -0.2971575148,
				"y": -0.7015426443,
				"z": -3.2720187177,
				"element": "C" 
			},
			{
				"x": 1.3224820412,
				"y": -0.7742122886,
				"z": -3.9604848635,
				"element": "S" 
			},
			{
				"x": -1.2753403608,
				"y": 0.0902291252,
				"z": -3.6301034085,
				"element": "N" 
			},
			{
				"x": -2.374197436,
				"y": -0.2359664989,
				"z": -2.8497423445,
				"element": "N" 
			},
			{
				"x": -2.0255920401,
				"y": -1.1898673437,
				"z": -2.0358792261,
				"element": "C" 
			},
			{
				"x": -2.9934252917,
				"y": -1.8699184443,
				"z": -1.1022821988,
				"element": "C" 
			},
			{
				"x": -2.3784795926,
				"y": -2.7183236738,
				"z": -0.261776447,
				"element": "F" 
			},
			{
				"x": -3.6771270275,
				"y": -0.9717794954,
				"z": -0.3856132172,
				"element": "F" 
			},
			{
				"x": -3.8863789398,
				"y": -2.5903336736,
				"z": -1.8171519413,
				"element": "F" 
			},
			{
				"x": 1.6863382572,
				"y": 3.2804821577,
				"z": 1.5865611162,
				"element": "H" 
			},
			{
				"x": 1.8192032134,
				"y": 2.2801041257,
				"z": 3.0474441269,
				"element": "H" 
			},
			{
				"x": 0.512608923,
				"y": 3.470426047,
				"z": 2.9023238503,
				"element": "H" 
			},
			{
				"x": -0.3673773729,
				"y": 1.1515049111,
				"z": 2.4678730016,
				"element": "H" 
			},
			{
				"x": -0.4989634185,
				"y": 2.1478611191,
				"z": 1.0128602006,
				"element": "H" 
			},
			{
				"x": 2.3091616339,
				"y": -0.8949650394,
				"z": 0.0562876054,
				"element": "H" 
			},
			{
				"x": 0.0684560267,
				"y": -3.4124685924,
				"z": -2.0880495206,
				"element": "H" 
			},
			{
				"x": 1.0428760599,
				"y": 0.1888446504,
				"z": -4.8590585063,
				"element": "H" 
			}
		],
		 "valence_orbital": [ 
			{
				"type": "occ",
				"energy": -0.31222,
				"method": "rhf"
			},
			{
				"type": "occ",
				"energy": -0.30393,
				"method": "rhf"
			},
			{
				"type": "occ",
				"energy": -0.29861,
				"method": "rhf"
			},
			{
				"type": "occ",
				"energy": -0.27168,
				"method": "rhf"
			},
			{
				"type": "occ",
				"energy": -0.25435,
				"method": "rhf"
			},
			{
				"type": "unocc",
				"energy": -0.02655,
				"method": "rhf"
			},
			{
				"type": "unocc",
				"energy": -0.02001,
				"method": "rhf"
			},
			{
				"type": "unocc",
				"energy": -0.00845,
				"method": "rhf"
			},
			{
				"type": "unocc",
				"energy": 0.01662,
				"method": "rhf"
			},
			{
				"type": "unocc",
				"energy": 0.0374,
				"method": "rhf"
			}
		],
		"cosmo_sigma_profile": { 
			"-0.025": 0.0,
			"-0.024": 0.0,
			"-0.023": 0.0,
			"-0.022": 0.0,
			"-0.021": 0.0,
			"-0.02": 0.0,
			"-0.019": 0.0,
			"-0.018": 0.194022165881,
			"-0.017": 1.86793123042,
			"-0.016": 1.96850867713,
			"-0.015": 1.81372058359,
			"-0.014": 1.71179986159,
			"-0.013": 3.68965713506,
			"-0.012": 3.49814788623,
			"-0.011": 3.61927238874,
			"-0.01": 3.13200908238,
			"-0.009": 3.21880260949,
			"-0.008": 3.08021164574,
			"-0.007": 4.13948904463,
			"-0.006": 7.82922774465,
			"-0.005": 14.292774531,
			"-0.004": 22.3130540448,
			"-0.003": 17.8069301027,
			"-0.002": 17.3068751995,
			"-0.001": 20.6603957101,
			"0.0": 18.8568231983,
			"0.001": 17.6631762159,
			"0.002": 34.5898239651,
			"0.003": 16.8052092614,
			"0.004": 10.829823649,
			"0.005": 10.3421803253,
			"0.006": 6.55167567152,
			"0.007": 4.68252203179,
			"0.008": 6.47530171673,
			"0.009": 6.30486550172,
			"0.01": 5.3823906347,
			"0.011": 8.64406139733,
			"0.012": 4.5395245113,
			"0.013": 2.42909131937,
			"0.014": 1.4408941116,
			"0.015": 0.52288361929,
			"0.016": 0.0,
			"0.017": 0.0,
			"0.018": 0.0,
			"0.019": 0.0,
			"0.02": 0.0,
			"0.021": 0.0,
			"0.022": 0.0,
			"0.023": 0.0,
			"0.024": 0.0,
			"0.025": 0.0
		}
	}
}
