{
	 "smiles": "NS(=O)(=O)CC1=CC(=CC=C1)C(O)=O", 
	 "Tm": 508.15, 
	 "num_atms": 23, 
	 "gaussian": { 
		 "optdone": 1, 
		 "sigma_profile": "yes", 
		 "theory": "DFT", 
		 "functional": "B3LYP", 
		 "basiset": "6-31G**", 
		 "properties": { 
			 "R2extent": 3895.3157, 
			 "electric_dipole_moment_norm": 7.17278602079, 
			 "electric_quadrupole_moment_norm": 13.7051650446, 
			 "total_energy": -1064.05626765, 
			 "HOMO_LUMO_gap": 0.21166, 
			 "cosmo_polarized_energy": -26.78, 
			 "cosmo_cavitation_energy": 29.29, 
			 "cosmo_dispersion_energy": -21.44, 
			 "cosmo_repulsion_energy": 1.66, 
			 "cosmo_total_nonelectrostatic_energy": 9.51, 
			 "SMD_solvation_energy": 5.62 
		},
		"coords": [
			{
				"x": 3.1244442604,
				"y": -1.2410112797,
				"z": 0.1160170376,
				"element": "N" 
			},
			{
				"x": 2.6846598929,
				"y": -0.4195851857,
				"z": 1.5353227105,
				"element": "S" 
			},
			{
				"x": 3.4098251,
				"y": -1.0524254146,
				"z": 2.6404557931,
				"element": "O" 
			},
			{
				"x": 2.7604160385,
				"y": 1.0207608904,
				"z": 1.2782207576,
				"element": "O" 
			},
			{
				"x": 0.9256021686,
				"y": -0.8766867576,
				"z": 1.7198630255,
				"element": "C" 
			},
			{
				"x": 0.047834391,
				"y": -0.3954622439,
				"z": 0.5987488247,
				"element": "C" 
			},
			{
				"x": -0.5024460214,
				"y": 0.888432329,
				"z": 0.6340744244,
				"element": "C" 
			},
			{
				"x": -1.3058256071,
				"y": 1.3513079343,
				"z": -0.41414707,
				"element": "C" 
			},
			{
				"x": -1.5801477461,
				"y": 0.5077559637,
				"z": -1.499589058,
				"element": "C" 
			},
			{
				"x": -1.0394501027,
				"y": -0.7771672425,
				"z": -1.538997136,
				"element": "C" 
			},
			{
				"x": -0.2230401021,
				"y": -1.2233051813,
				"z": -0.5008668254,
				"element": "C" 
			},
			{
				"x": -1.8791370407,
				"y": 2.7331103786,
				"z": -0.2910428365,
				"element": "C" 
			},
			{
				"x": -2.2551259172,
				"y": 3.3418903365,
				"z": -1.4477690887,
				"element": "O" 
			},
			{
				"x": -2.0175708525,
				"y": 3.3006549965,
				"z": 0.7658732963,
				"element": "O" 
			},
			{
				"x": 3.3444924733,
				"y": -0.5673785959,
				"z": -0.6130816468,
				"element": "H" 
			},
			{
				"x": 3.925956505,
				"y": -1.8325379441,
				"z": 0.3212060975,
				"element": "H" 
			},
			{
				"x": 0.6494392892,
				"y": -0.4317233073,
				"z": 2.6799275715,
				"element": "H" 
			},
			{
				"x": 0.9218959255,
				"y": -1.963657532,
				"z": 1.8242365058,
				"element": "H" 
			},
			{
				"x": -0.3156476327,
				"y": 1.5516471569,
				"z": 1.4719930982,
				"element": "H" 
			},
			{
				"x": -2.2486544851,
				"y": 0.8260224004,
				"z": -2.2957772064,
				"element": "H" 
			},
			{
				"x": -1.2630141573,
				"y": -1.4342231133,
				"z": -2.3737827325,
				"element": "H" 
			},
			{
				"x": 0.2050970105,
				"y": -2.2204594309,
				"z": -0.5377473112,
				"element": "H" 
			},
			{
				"x": -1.9260033901,
				"y": 2.8446408424,
				"z": -2.209238231,
				"element": "H" 
			}
		],
		 "valence_orbital": [ 
			{
				"type": "occ",
				"energy": -0.31029,
				"method": "rhf"
			},
			{
				"type": "occ",
				"energy": -0.30466,
				"method": "rhf"
			},
			{
				"type": "occ",
				"energy": -0.28359,
				"method": "rhf"
			},
			{
				"type": "occ",
				"energy": -0.2724,
				"method": "rhf"
			},
			{
				"type": "occ",
				"energy": -0.27085,
				"method": "rhf"
			},
			{
				"type": "unocc",
				"energy": -0.05919,
				"method": "rhf"
			},
			{
				"type": "unocc",
				"energy": -0.03834,
				"method": "rhf"
			},
			{
				"type": "unocc",
				"energy": 0.03139,
				"method": "rhf"
			},
			{
				"type": "unocc",
				"energy": 0.04905,
				"method": "rhf"
			},
			{
				"type": "unocc",
				"energy": 0.05587,
				"method": "rhf"
			}
		],
		"cosmo_sigma_profile": { 
			"-0.025": 0.0,
			"-0.024": 0.0,
			"-0.023": 0.0,
			"-0.022": 0.0,
			"-0.021": 0.0,
			"-0.02": 0.0,
			"-0.019": 0.309998844124,
			"-0.018": 0.740069313441,
			"-0.017": 0.962531964716,
			"-0.016": 1.08218194214,
			"-0.015": 2.30510944087,
			"-0.014": 3.15141276526,
			"-0.013": 3.28582384601,
			"-0.012": 3.76984255657,
			"-0.011": 3.51278501924,
			"-0.01": 3.35237040776,
			"-0.009": 7.2284016499,
			"-0.008": 7.53130760661,
			"-0.007": 12.5763637432,
			"-0.006": 11.2339056955,
			"-0.005": 13.1892112263,
			"-0.004": 9.42627097311,
			"-0.003": 9.42419353446,
			"-0.002": 9.5835168404,
			"-0.001": 8.97093818797,
			"0.0": 9.3328565643,
			"0.001": 10.8051789913,
			"0.002": 15.5493206345,
			"0.003": 11.709199707,
			"0.004": 5.15404038081,
			"0.005": 6.62702131306,
			"0.006": 5.35309781432,
			"0.007": 5.74919370006,
			"0.008": 6.21726057078,
			"0.009": 7.72360477236,
			"0.01": 10.7397121916,
			"0.011": 16.7288336975,
			"0.012": 8.42820019227,
			"0.013": 1.21366844235,
			"0.014": 0.0134811772452,
			"0.015": 0.0,
			"0.016": 0.0,
			"0.017": 0.0,
			"0.018": 0.0,
			"0.019": 0.0,
			"0.02": 0.0,
			"0.021": 0.0,
			"0.022": 0.0,
			"0.023": 0.0,
			"0.024": 0.0,
			"0.025": 0.0
		}
	}
}
