{
	 "smiles": "NC1=C(C=CN=C1)C1=CC(F)=CC=C1", 
	 "Tm": 340.15, 
	 "num_atms": 23, 
	 "gaussian": { 
		 "optdone": 1, 
		 "sigma_profile": "yes", 
		 "theory": "DFT", 
		 "functional": "B3LYP", 
		 "basiset": "6-31G**", 
		 "properties": { 
			 "R2extent": 3297.3875, 
			 "electric_dipole_moment_norm": 3.03416960633, 
			 "electric_quadrupole_moment_norm": 14.3762284435, 
			 "total_energy": -633.933920483, 
			 "HOMO_LUMO_gap": 0.17133, 
			 "cosmo_polarized_energy": -10.98, 
			 "cosmo_cavitation_energy": 27.44, 
			 "cosmo_dispersion_energy": -20.06, 
			 "cosmo_repulsion_energy": 1.54, 
			 "cosmo_total_nonelectrostatic_energy": 8.92, 
			 "SMD_solvation_energy": 3.66 
		},
		"coords": [
			{
				"x": 2.1003843731,
				"y": -1.3149091346,
				"z": 1.1713366458,
				"element": "N" 
			},
			{
				"x": 0.8172536139,
				"y": -1.428680843,
				"z": 0.6394890779,
				"element": "C" 
			},
			{
				"x": 0.26496892,
				"y": -0.47074617,
				"z": -0.2433557354,
				"element": "C" 
			},
			{
				"x": -1.028555007,
				"y": -0.7192706872,
				"z": -0.7231714432,
				"element": "C" 
			},
			{
				"x": -1.7152042792,
				"y": -1.8683834753,
				"z": -0.3439081193,
				"element": "C" 
			},
			{
				"x": -1.1945835297,
				"y": -2.7806595912,
				"z": 0.4882723054,
				"element": "N" 
			},
			{
				"x": 0.0292134954,
				"y": -2.5524632983,
				"z": 0.9572055441,
				"element": "C" 
			},
			{
				"x": 0.9909696598,
				"y": 0.7627719011,
				"z": -0.6489436274,
				"element": "C" 
			},
			{
				"x": 0.3239320033,
				"y": 1.9992912923,
				"z": -0.634560844,
				"element": "C" 
			},
			{
				"x": 0.9933844756,
				"y": 3.1425906715,
				"z": -1.0495994879,
				"element": "C" 
			},
			{
				"x": 0.3383804188,
				"y": 4.3221272439,
				"z": -1.0216339238,
				"element": "F" 
			},
			{
				"x": 2.3138906189,
				"y": 3.1171103028,
				"z": -1.4841781213,
				"element": "C" 
			},
			{
				"x": 2.9752859704,
				"y": 1.8887153561,
				"z": -1.4990765091,
				"element": "C" 
			},
			{
				"x": 2.3281835655,
				"y": 0.7232188454,
				"z": -1.0859475082,
				"element": "C" 
			},
			{
				"x": 2.2541046854,
				"y": -1.8535054087,
				"z": 2.0133227407,
				"element": "H" 
			},
			{
				"x": 2.456873116,
				"y": -0.3716383084,
				"z": 1.2481946253,
				"element": "H" 
			},
			{
				"x": -1.4861598671,
				"y": -0.0161448713,
				"z": -1.4125926901,
				"element": "H" 
			},
			{
				"x": -2.7154643355,
				"y": -2.0672354134,
				"z": -0.7218634117,
				"element": "H" 
			},
			{
				"x": 0.4355852598,
				"y": -3.3011564675,
				"z": 1.639112721,
				"element": "H" 
			},
			{
				"x": -0.7012657185,
				"y": 2.0797211327,
				"z": -0.2901253372,
				"element": "H" 
			},
			{
				"x": 2.7962413535,
				"y": 4.0364124825,
				"z": -1.797435936,
				"element": "H" 
			},
			{
				"x": 4.0039613545,
				"y": 1.8393346709,
				"z": -1.843648917,
				"element": "H" 
			},
			{
				"x": 2.8509198531,
				"y": -0.2266002303,
				"z": -1.1206920485,
				"element": "H" 
			}
		],
		 "valence_orbital": [ 
			{
				"type": "occ",
				"energy": -0.28895,
				"method": "rhf"
			},
			{
				"type": "occ",
				"energy": -0.25866,
				"method": "rhf"
			},
			{
				"type": "occ",
				"energy": -0.24918,
				"method": "rhf"
			},
			{
				"type": "occ",
				"energy": -0.24813,
				"method": "rhf"
			},
			{
				"type": "occ",
				"energy": -0.2126,
				"method": "rhf"
			},
			{
				"type": "unocc",
				"energy": -0.04127,
				"method": "rhf"
			},
			{
				"type": "unocc",
				"energy": -0.01157,
				"method": "rhf"
			},
			{
				"type": "unocc",
				"energy": 0.00229,
				"method": "rhf"
			},
			{
				"type": "unocc",
				"energy": 0.01369,
				"method": "rhf"
			},
			{
				"type": "unocc",
				"energy": 0.08204,
				"method": "rhf"
			}
		],
		"cosmo_sigma_profile": { 
			"-0.025": 0.0,
			"-0.024": 0.0,
			"-0.023": 0.0,
			"-0.022": 0.0,
			"-0.021": 0.0,
			"-0.02": 0.0,
			"-0.019": 0.0,
			"-0.018": 0.0,
			"-0.017": 0.0,
			"-0.016": 0.0,
			"-0.015": 0.0,
			"-0.014": 0.0305042519018,
			"-0.013": 0.91448424603,
			"-0.012": 1.95517871155,
			"-0.011": 1.92437843693,
			"-0.01": 2.90981346208,
			"-0.009": 2.94323714251,
			"-0.008": 2.40676023936,
			"-0.007": 6.62541790217,
			"-0.006": 11.28423711,
			"-0.005": 15.8639520114,
			"-0.004": 13.6437144209,
			"-0.003": 11.1823111483,
			"-0.002": 12.2844355145,
			"-0.001": 10.3658428937,
			"0.0": 14.3192003719,
			"0.001": 19.7302134832,
			"0.002": 20.3244123672,
			"0.003": 23.4047470538,
			"0.004": 22.0334473886,
			"0.005": 6.68610746274,
			"0.006": 3.65336255861,
			"0.007": 1.5288133687,
			"0.008": 2.34600885719,
			"0.009": 2.8278028805,
			"0.01": 1.19717654162,
			"0.011": 1.63137982901,
			"0.012": 1.55438766261,
			"0.013": 0.91385266965,
			"0.014": 1.01741938322,
			"0.015": 1.09478294363,
			"0.016": 0.927892395823,
			"0.017": 0.548929430819,
			"0.018": 0.0633859000107,
			"0.019": 0.0,
			"0.02": 0.0,
			"0.021": 0.0,
			"0.022": 0.0,
			"0.023": 0.0,
			"0.024": 0.0,
			"0.025": 0.0
		}
	}
}
