{
	 "smiles": "CCOC1=C2C=C(NC2=CC=C1)C(O)=O", 
	 "Tm": 529.15, 
	 "num_atms": 26, 
	 "gaussian": { 
		 "optdone": 1, 
		 "sigma_profile": "yes", 
		 "theory": "DFT", 
		 "functional": "B3LYP", 
		 "basiset": "6-31G**", 
		 "properties": { 
			 "R2extent": 4619.4052, 
			 "electric_dipole_moment_norm": 5.03757893536, 
			 "electric_quadrupole_moment_norm": 16.0964404571, 
			 "total_energy": -706.239058211, 
			 "HOMO_LUMO_gap": 0.15914, 
			 "cosmo_polarized_energy": -16.07, 
			 "cosmo_cavitation_energy": 30.45, 
			 "cosmo_dispersion_energy": -22.45, 
			 "cosmo_repulsion_energy": 1.77, 
			 "cosmo_total_nonelectrostatic_energy": 9.77, 
			 "SMD_solvation_energy": 6.35 
		},
		"coords": [
			{
				"x": -0.7309341787,
				"y": -3.4160996478,
				"z": 0.0859832111,
				"element": "C" 
			},
			{
				"x": -1.5434202592,
				"y": -2.1612638598,
				"z": 0.3519563254,
				"element": "C" 
			},
			{
				"x": -0.7226184323,
				"y": -1.0379303008,
				"z": 0.0262450051,
				"element": "O" 
			},
			{
				"x": -1.2378139021,
				"y": 0.2116919932,
				"z": 0.1842829091,
				"element": "C" 
			},
			{
				"x": -0.371162894,
				"y": 1.2783334349,
				"z": -0.1568058747,
				"element": "C" 
			},
			{
				"x": 0.9663625808,
				"y": 1.329383952,
				"z": -0.6454401064,
				"element": "C" 
			},
			{
				"x": 1.2864686356,
				"y": 2.6661767777,
				"z": -0.7938579327,
				"element": "C" 
			},
			{
				"x": 0.1997829984,
				"y": 3.4331372302,
				"z": -0.4160146281,
				"element": "N" 
			},
			{
				"x": -0.8288898968,
				"y": 2.6182763008,
				"z": -0.0217887137,
				"element": "C" 
			},
			{
				"x": -2.1189489114,
				"y": 2.9286702116,
				"z": 0.4409222471,
				"element": "C" 
			},
			{
				"x": -2.9361784549,
				"y": 1.859177133,
				"z": 0.7640485431,
				"element": "C" 
			},
			{
				"x": -2.5152523053,
				"y": 0.5128800105,
				"z": 0.6425844378,
				"element": "C" 
			},
			{
				"x": 2.4898013508,
				"y": 3.3772603335,
				"z": -1.2490314094,
				"element": "C" 
			},
			{
				"x": 3.5525594012,
				"y": 2.6200587934,
				"z": -1.6180350798,
				"element": "O" 
			},
			{
				"x": 2.5468993614,
				"y": 4.5890169347,
				"z": -1.2987062327,
				"element": "O" 
			},
			{
				"x": -0.4336934019,
				"y": -3.4680484712,
				"z": -0.9651780361,
				"element": "H" 
			},
			{
				"x": 0.1728343148,
				"y": -3.4287260124,
				"z": 0.7016355451,
				"element": "H" 
			},
			{
				"x": -1.324073101,
				"y": -4.3046258985,
				"z": 0.3227777959,
				"element": "H" 
			},
			{
				"x": -1.8469442441,
				"y": -2.1045164595,
				"z": 1.4065162404,
				"element": "H" 
			},
			{
				"x": -2.4545654643,
				"y": -2.1442874295,
				"z": -0.2620143396,
				"element": "H" 
			},
			{
				"x": 1.5930451068,
				"y": 0.4731324736,
				"z": -0.8537630531,
				"element": "H" 
			},
			{
				"x": 0.2226388691,
				"y": 4.4417047839,
				"z": -0.4477910808,
				"element": "H" 
			},
			{
				"x": -2.4576293923,
				"y": 3.9545119902,
				"z": 0.5400128825,
				"element": "H" 
			},
			{
				"x": -3.9420623705,
				"y": 2.0511257366,
				"z": 1.1259814945,
				"element": "H" 
			},
			{
				"x": -3.2064879549,
				"y": -0.2755994762,
				"z": 0.9132186005,
				"element": "H" 
			},
			{
				"x": 3.3454825448,
				"y": 1.6800594658,
				"z": -1.5195387506,
				"element": "H" 
			}
		],
		 "valence_orbital": [ 
			{
				"type": "occ",
				"energy": -0.31121,
				"method": "rhf"
			},
			{
				"type": "occ",
				"energy": -0.2767,
				"method": "rhf"
			},
			{
				"type": "occ",
				"energy": -0.27135,
				"method": "rhf"
			},
			{
				"type": "occ",
				"energy": -0.23287,
				"method": "rhf"
			},
			{
				"type": "occ",
				"energy": -0.20532,
				"method": "rhf"
			},
			{
				"type": "unocc",
				"energy": -0.04618,
				"method": "rhf"
			},
			{
				"type": "unocc",
				"energy": 0.02161,
				"method": "rhf"
			},
			{
				"type": "unocc",
				"energy": 0.02487,
				"method": "rhf"
			},
			{
				"type": "unocc",
				"energy": 0.05664,
				"method": "rhf"
			},
			{
				"type": "unocc",
				"energy": 0.09132,
				"method": "rhf"
			}
		],
		"cosmo_sigma_profile": { 
			"-0.025": 0.0,
			"-0.024": 0.0,
			"-0.023": 0.0,
			"-0.022": 0.0,
			"-0.021": 0.0,
			"-0.02": 0.0,
			"-0.019": 0.118873751584,
			"-0.018": 1.1500165869,
			"-0.017": 0.870693428368,
			"-0.016": 1.26009539535,
			"-0.015": 1.68717884329,
			"-0.014": 1.6937814169,
			"-0.013": 1.76661399998,
			"-0.012": 2.47226656161,
			"-0.011": 2.03237590398,
			"-0.01": 1.61014935492,
			"-0.009": 1.71686928326,
			"-0.008": 2.85236022797,
			"-0.007": 2.97927117034,
			"-0.006": 6.71334909583,
			"-0.005": 12.4659243513,
			"-0.004": 20.6241617869,
			"-0.003": 21.9076790544,
			"-0.002": 16.4901247335,
			"-0.001": 16.8942617832,
			"0.0": 15.8052498895,
			"0.001": 12.5366254727,
			"0.002": 11.077552043,
			"0.003": 16.4139822867,
			"0.004": 19.6147742712,
			"0.005": 12.0245096695,
			"0.006": 8.76743788114,
			"0.007": 4.90035778725,
			"0.008": 4.3510926047,
			"0.009": 3.95617797492,
			"0.01": 4.70120374853,
			"0.011": 4.5698914556,
			"0.012": 4.12663535514,
			"0.013": 1.92520206165,
			"0.014": 0.207397012908,
			"0.015": 0.0,
			"0.016": 0.0,
			"0.017": 0.0,
			"0.018": 0.0,
			"0.019": 0.0,
			"0.02": 0.0,
			"0.021": 0.0,
			"0.022": 0.0,
			"0.023": 0.0,
			"0.024": 0.0,
			"0.025": 0.0
		}
	}
}
