{
	 "smiles": "OC(=O)C1=CC=C(NC1=O)C1=CC=CO1", 
	 "Tm": 573.15, 
	 "num_atms": 22, 
	 "gaussian": { 
		 "optdone": 1, 
		 "sigma_profile": "yes", 
		 "theory": "DFT", 
		 "functional": "B3LYP", 
		 "basiset": "6-31G**", 
		 "properties": { 
			 "R2extent": 4247.7842, 
			 "electric_dipole_moment_norm": 6.6054869934, 
			 "electric_quadrupole_moment_norm": 16.3956259966, 
			 "total_energy": -740.928782749, 
			 "HOMO_LUMO_gap": 0.13467, 
			 "cosmo_polarized_energy": -20.92, 
			 "cosmo_cavitation_energy": 27.96, 
			 "cosmo_dispersion_energy": -20.74, 
			 "cosmo_repulsion_energy": 1.59, 
			 "cosmo_total_nonelectrostatic_energy": 8.81, 
			 "SMD_solvation_energy": 7.55 
		},
		"coords": [
			{
				"x": -3.6666846517,
				"y": 1.7076690087,
				"z": -1.1047543228,
				"element": "O" 
			},
			{
				"x": -2.7128014294,
				"y": 2.194465644,
				"z": -0.2872830393,
				"element": "C" 
			},
			{
				"x": -2.9397887324,
				"y": 3.0974045203,
				"z": 0.5027506597,
				"element": "O" 
			},
			{
				"x": -1.3844993996,
				"y": 1.5490655089,
				"z": -0.4274797771,
				"element": "C" 
			},
			{
				"x": -0.3789675469,
				"y": 2.0219751454,
				"z": 0.3948430389,
				"element": "C" 
			},
			{
				"x": 0.9315935512,
				"y": 1.5134456026,
				"z": 0.3806825437,
				"element": "C" 
			},
			{
				"x": 1.2279625275,
				"y": 0.4895745681,
				"z": -0.5001111834,
				"element": "C" 
			},
			{
				"x": 0.2402382228,
				"y": 0.0209985306,
				"z": -1.3122290217,
				"element": "N" 
			},
			{
				"x": -1.1094686801,
				"y": 0.4669143175,
				"z": -1.3719592388,
				"element": "C" 
			},
			{
				"x": -1.859333039,
				"y": -0.0767980277,
				"z": -2.1687248007,
				"element": "O" 
			},
			{
				"x": 2.5363986735,
				"y": -0.1231823001,
				"z": -0.6156122669,
				"element": "C" 
			},
			{
				"x": 3.739264186,
				"y": 0.0786883702,
				"z": 0.0138150102,
				"element": "C" 
			},
			{
				"x": 4.6560940369,
				"y": -0.8558642461,
				"z": -0.5523174419,
				"element": "C" 
			},
			{
				"x": 3.9552580556,
				"y": -1.5616056317,
				"z": -1.4856231781,
				"element": "C" 
			},
			{
				"x": 2.6663547462,
				"y": -1.130405343,
				"z": -1.5376643827,
				"element": "O" 
			},
			{
				"x": -4.4635583333,
				"y": 2.2237773921,
				"z": -0.8959516063,
				"element": "H" 
			},
			{
				"x": -0.6404297013,
				"y": 2.8260662637,
				"z": 1.0761119841,
				"element": "H" 
			},
			{
				"x": 1.6928971663,
				"y": 1.9088729774,
				"z": 1.0399804586,
				"element": "H" 
			},
			{
				"x": 0.4465416975,
				"y": -0.7295846213,
				"z": -1.9614395531,
				"element": "H" 
			},
			{
				"x": 3.9450670553,
				"y": 0.8047872969,
				"z": 0.7863675952,
				"element": "H" 
			},
			{
				"x": 5.697998805,
				"y": -0.9846236274,
				"z": -0.2984317251,
				"element": "H" 
			},
			{
				"x": 4.2112627899,
				"y": -2.361641349,
				"z": -2.1624697526,
				"element": "H" 
			}
		],
		 "valence_orbital": [ 
			{
				"type": "occ",
				"energy": -0.29735,
				"method": "rhf"
			},
			{
				"type": "occ",
				"energy": -0.2666,
				"method": "rhf"
			},
			{
				"type": "occ",
				"energy": -0.26459,
				"method": "rhf"
			},
			{
				"type": "occ",
				"energy": -0.25001,
				"method": "rhf"
			},
			{
				"type": "occ",
				"energy": -0.21617,
				"method": "rhf"
			},
			{
				"type": "unocc",
				"energy": -0.0815,
				"method": "rhf"
			},
			{
				"type": "unocc",
				"energy": -0.01075,
				"method": "rhf"
			},
			{
				"type": "unocc",
				"energy": 0.01086,
				"method": "rhf"
			},
			{
				"type": "unocc",
				"energy": 0.03345,
				"method": "rhf"
			},
			{
				"type": "unocc",
				"energy": 0.07345,
				"method": "rhf"
			}
		],
		"cosmo_sigma_profile": { 
			"-0.025": 0.0,
			"-0.024": 0.0,
			"-0.023": 0.0,
			"-0.022": 0.0,
			"-0.021": 0.0,
			"-0.02": 0.0,
			"-0.019": 0.0,
			"-0.018": 0.379464462165,
			"-0.017": 0.909958114674,
			"-0.016": 0.753737152479,
			"-0.015": 0.778097270383,
			"-0.014": 1.21624989919,
			"-0.013": 1.10092025142,
			"-0.012": 1.33644203641,
			"-0.011": 1.75410013277,
			"-0.01": 3.50968943855,
			"-0.009": 5.46066568275,
			"-0.008": 8.38709660994,
			"-0.007": 9.36976225255,
			"-0.006": 10.4385623789,
			"-0.005": 9.94975279178,
			"-0.004": 10.1599583807,
			"-0.003": 10.1642001042,
			"-0.002": 15.5691358526,
			"-0.001": 19.656576501,
			"0.0": 21.2934395299,
			"0.001": 20.4237942001,
			"0.002": 15.1904640271,
			"0.003": 10.0126014421,
			"0.004": 3.64009239935,
			"0.005": 2.89784267283,
			"0.006": 2.98316737293,
			"0.007": 3.01087568267,
			"0.008": 3.22246247132,
			"0.009": 2.91731425944,
			"0.01": 3.0945682882,
			"0.011": 4.46148640186,
			"0.012": 6.96301200876,
			"0.013": 5.83480804619,
			"0.014": 4.39914094012,
			"0.015": 1.92752218134,
			"0.016": 1.54694911098,
			"0.017": 0.51198773524,
			"0.018": 0.0,
			"0.019": 0.0,
			"0.02": 0.0,
			"0.021": 0.0,
			"0.022": 0.0,
			"0.023": 0.0,
			"0.024": 0.0,
			"0.025": 0.0
		}
	}
}
