{
	 "smiles": "CC1=NC(CC(O)=O)=C(C)S1", 
	 "Tm": 385.15, 
	 "num_atms": 20, 
	 "gaussian": { 
		 "optdone": 1, 
		 "sigma_profile": "yes", 
		 "theory": "DFT", 
		 "functional": "B3LYP", 
		 "basiset": "6-31G**", 
		 "properties": { 
			 "R2extent": 2414.3866, 
			 "electric_dipole_moment_norm": 6.21099842135, 
			 "electric_quadrupole_moment_norm": 20.9680373519, 
			 "total_energy": -875.578436361, 
			 "HOMO_LUMO_gap": 0.19835, 
			 "cosmo_polarized_energy": -12.71, 
			 "cosmo_cavitation_energy": 25.46, 
			 "cosmo_dispersion_energy": -19.06, 
			 "cosmo_repulsion_energy": 1.52, 
			 "cosmo_total_nonelectrostatic_energy": 7.92, 
			 "SMD_solvation_energy": 4.71 
		},
		"coords": [
			{
				"x": -0.998543799,
				"y": -3.243987922,
				"z": -1.2789844464,
				"element": "C" 
			},
			{
				"x": -0.9031620242,
				"y": -1.7634756152,
				"z": -1.0770388684,
				"element": "C" 
			},
			{
				"x": -0.3403482225,
				"y": -1.1937250619,
				"z": -0.0471749977,
				"element": "N" 
			},
			{
				"x": -0.4063835065,
				"y": 0.1888671268,
				"z": -0.0960331548,
				"element": "C" 
			},
			{
				"x": 0.2246911243,
				"y": 0.9685513017,
				"z": 1.0268465344,
				"element": "C" 
			},
			{
				"x": -0.0795677674,
				"y": 0.4756506905,
				"z": 2.4553355394,
				"element": "C" 
			},
			{
				"x": -0.152003245,
				"y": -0.8530707171,
				"z": 2.6221179287,
				"element": "O" 
			},
			{
				"x": -0.1827480102,
				"y": 1.2464638042,
				"z": 3.3801889093,
				"element": "O" 
			},
			{
				"x": -1.033543421,
				"y": 0.7087082775,
				"z": -1.1963019801,
				"element": "C" 
			},
			{
				"x": -1.2808872817,
				"y": 2.1458062809,
				"z": -1.5583432875,
				"element": "C" 
			},
			{
				"x": -1.5607478389,
				"y": -0.6099247208,
				"z": -2.2172629754,
				"element": "S" 
			},
			{
				"x": -0.4733241638,
				"y": -3.7439610514,
				"z": -0.4629559824,
				"element": "H" 
			},
			{
				"x": -2.0406016957,
				"y": -3.5809039354,
				"z": -1.2826572461,
				"element": "H" 
			},
			{
				"x": -0.5464059445,
				"y": -3.5503822146,
				"z": -2.2278089737,
				"element": "H" 
			},
			{
				"x": 1.3194589427,
				"y": 0.9298033742,
				"z": 0.9236276811,
				"element": "H" 
			},
			{
				"x": -0.0583453702,
				"y": 2.0207379544,
				"z": 0.9890834599,
				"element": "H" 
			},
			{
				"x": -0.1137681027,
				"y": -1.2997828654,
				"z": 1.7417370847,
				"element": "H" 
			},
			{
				"x": -0.3466805119,
				"y": 2.716909285,
				"z": -1.5692739972,
				"element": "H" 
			},
			{
				"x": -1.7342144424,
				"y": 2.2383276855,
				"z": -2.5479460606,
				"element": "H" 
			},
			{
				"x": -1.9561747194,
				"y": 2.6241883231,
				"z": -0.8401551673,
				"element": "H" 
			}
		],
		 "valence_orbital": [ 
			{
				"type": "occ",
				"energy": -0.3008,
				"method": "rhf"
			},
			{
				"type": "occ",
				"energy": -0.29706,
				"method": "rhf"
			},
			{
				"type": "occ",
				"energy": -0.29039,
				"method": "rhf"
			},
			{
				"type": "occ",
				"energy": -0.26255,
				"method": "rhf"
			},
			{
				"type": "occ",
				"energy": -0.23834,
				"method": "rhf"
			},
			{
				"type": "unocc",
				"energy": -0.03999,
				"method": "rhf"
			},
			{
				"type": "unocc",
				"energy": -0.00368,
				"method": "rhf"
			},
			{
				"type": "unocc",
				"energy": 0.02056,
				"method": "rhf"
			},
			{
				"type": "unocc",
				"energy": 0.03605,
				"method": "rhf"
			},
			{
				"type": "unocc",
				"energy": 0.07634,
				"method": "rhf"
			}
		],
		"cosmo_sigma_profile": { 
			"-0.025": 0.0,
			"-0.024": 0.0,
			"-0.023": 0.0,
			"-0.022": 0.0,
			"-0.021": 0.0,
			"-0.02": 0.0,
			"-0.019": 0.0,
			"-0.018": 0.0,
			"-0.017": 0.0,
			"-0.016": 0.0,
			"-0.015": 0.0,
			"-0.014": 0.0,
			"-0.013": 0.0,
			"-0.012": 0.0,
			"-0.011": 0.0,
			"-0.01": 0.0,
			"-0.009": 0.0,
			"-0.008": 1.21335075713,
			"-0.007": 3.13440775665,
			"-0.006": 12.440296174,
			"-0.005": 22.2206900482,
			"-0.004": 19.4643499646,
			"-0.003": 20.481480577,
			"-0.002": 20.6870129115,
			"-0.001": 19.3576629933,
			"0.0": 12.3660257121,
			"0.001": 15.2802317357,
			"0.002": 12.0748861403,
			"0.003": 7.78046421843,
			"0.004": 2.80032934661,
			"0.005": 3.04225737048,
			"0.006": 3.0068118709,
			"0.007": 2.74135809079,
			"0.008": 2.58313759571,
			"0.009": 3.02615553955,
			"0.01": 3.60539737389,
			"0.011": 5.14193884632,
			"0.012": 6.50851434486,
			"0.013": 4.29661568331,
			"0.014": 0.975384860634,
			"0.015": 0.0,
			"0.016": 0.0,
			"0.017": 0.0,
			"0.018": 0.0,
			"0.019": 0.0,
			"0.02": 0.0,
			"0.021": 0.0,
			"0.022": 0.0,
			"0.023": 0.0,
			"0.024": 0.0,
			"0.025": 0.0
		}
	}
}
