{
	 "smiles": "COC1=C(OC)C=C(CNS(=O)(=O)CC#N)C=C1", 
	 "Tm": 400.15, 
	 "num_atms": 32, 
	 "gaussian": { 
		 "optdone": 1, 
		 "sigma_profile": "yes", 
		 "theory": "DFT", 
		 "functional": "B3LYP", 
		 "basiset": "6-31G**", 
		 "properties": { 
			 "R2extent": 7671.9456, 
			 "electric_dipole_moment_norm": 4.65346251086, 
			 "electric_quadrupole_moment_norm": 30.9141290207, 
			 "total_energy": -1236.0655297, 
			 "HOMO_LUMO_gap": 0.21929, 
			 "cosmo_polarized_energy": -20.67, 
			 "cosmo_cavitation_energy": 38.25, 
			 "cosmo_dispersion_energy": -25.42, 
			 "cosmo_repulsion_energy": 1.96, 
			 "cosmo_total_nonelectrostatic_energy": 14.8, 
			 "SMD_solvation_energy": 8.21 
		},
		"coords": [
			{
				"x": -1.1284228813,
				"y": -1.3871324009,
				"z": 1.8982667631,
				"element": "C" 
			},
			{
				"x": -0.6207234006,
				"y": -0.046301467,
				"z": 1.8584847684,
				"element": "O" 
			},
			{
				"x": 0.0953028288,
				"y": 0.2747187147,
				"z": 0.729888607,
				"element": "C" 
			},
			{
				"x": 1.3538908898,
				"y": -0.3050443001,
				"z": 0.4606718141,
				"element": "C" 
			},
			{
				"x": 1.8979374876,
				"y": -1.2585396071,
				"z": 1.2892063753,
				"element": "O" 
			},
			{
				"x": 2.3152492266,
				"y": -0.7767918636,
				"z": 2.5737548007,
				"element": "C" 
			},
			{
				"x": 2.0501589602,
				"y": 0.0630487567,
				"z": -0.6887587191,
				"element": "C" 
			},
			{
				"x": 1.5311435415,
				"y": 1.0184078036,
				"z": -1.5745408157,
				"element": "C" 
			},
			{
				"x": 2.3086041497,
				"y": 1.4192102578,
				"z": -2.8109085017,
				"element": "C" 
			},
			{
				"x": 2.4348438985,
				"y": 0.3125999577,
				"z": -3.787605461,
				"element": "N" 
			},
			{
				"x": 1.1144877617,
				"y": -0.0677767719,
				"z": -4.754126485,
				"element": "S" 
			},
			{
				"x": 1.6523686175,
				"y": -0.5766282888,
				"z": -6.0143782485,
				"element": "O" 
			},
			{
				"x": 0.1124089289,
				"y": 0.9999169879,
				"z": -4.7087908618,
				"element": "O" 
			},
			{
				"x": 0.3488998169,
				"y": -1.4671232632,
				"z": -3.8435000307,
				"element": "C" 
			},
			{
				"x": 1.230134272,
				"y": -2.6155269392,
				"z": -3.710760553,
				"element": "C" 
			},
			{
				"x": 1.9339729559,
				"y": -3.5310058342,
				"z": -3.5997509662,
				"element": "N" 
			},
			{
				"x": 0.2942337731,
				"y": 1.6049514512,
				"z": -1.2879263095,
				"element": "C" 
			},
			{
				"x": -0.4175996439,
				"y": 1.2311316544,
				"z": -0.1458134715,
				"element": "C" 
			},
			{
				"x": -1.8372672747,
				"y": -1.5552217842,
				"z": 1.0778237137,
				"element": "H" 
			},
			{
				"x": -1.6518661344,
				"y": -1.4855914622,
				"z": 2.8510637969,
				"element": "H" 
			},
			{
				"x": -0.3208306595,
				"y": -2.1226503966,
				"z": 1.8398140438,
				"element": "H" 
			},
			{
				"x": 1.4770792833,
				"y": -0.3476651464,
				"z": 3.1311464085,
				"element": "H" 
			},
			{
				"x": 2.7120162005,
				"y": -1.6417557875,
				"z": 3.1084665121,
				"element": "H" 
			},
			{
				"x": 3.1058406344,
				"y": -0.0239208559,
				"z": 2.4655115652,
				"element": "H" 
			},
			{
				"x": 3.0077018136,
				"y": -0.4130636119,
				"z": -0.8788799787,
				"element": "H" 
			},
			{
				"x": 1.8520709973,
				"y": 2.3024813296,
				"z": -3.2697734378,
				"element": "H" 
			},
			{
				"x": 3.3382458318,
				"y": 1.6754561258,
				"z": -2.5412475214,
				"element": "H" 
			},
			{
				"x": 3.2557999272,
				"y": 0.3518786044,
				"z": -4.3852233966,
				"element": "H" 
			},
			{
				"x": 0.0576168639,
				"y": -1.0775414658,
				"z": -2.8644083215,
				"element": "H" 
			},
			{
				"x": -0.5497403367,
				"y": -1.7215956623,
				"z": -4.4134153858,
				"element": "H" 
			},
			{
				"x": -0.1240976502,
				"y": 2.3389154284,
				"z": -1.9699388689,
				"element": "H" 
			},
			{
				"x": -1.3834606791,
				"y": 1.6700598365,
				"z": 0.0831481656,
				"element": "H" 
			}
		],
		 "valence_orbital": [ 
			{
				"type": "occ",
				"energy": -0.30721,
				"method": "rhf"
			},
			{
				"type": "occ",
				"energy": -0.29373,
				"method": "rhf"
			},
			{
				"type": "occ",
				"energy": -0.27461,
				"method": "rhf"
			},
			{
				"type": "occ",
				"energy": -0.25573,
				"method": "rhf"
			},
			{
				"type": "occ",
				"energy": -0.24141,
				"method": "rhf"
			},
			{
				"type": "unocc",
				"energy": -0.02212,
				"method": "rhf"
			},
			{
				"type": "unocc",
				"energy": -0.01263,
				"method": "rhf"
			},
			{
				"type": "unocc",
				"energy": -0.00869,
				"method": "rhf"
			},
			{
				"type": "unocc",
				"energy": 0.0247,
				"method": "rhf"
			},
			{
				"type": "unocc",
				"energy": 0.05748,
				"method": "rhf"
			}
		],
		"cosmo_sigma_profile": { 
			"-0.025": 0.0,
			"-0.024": 0.0,
			"-0.023": 0.0,
			"-0.022": 0.0,
			"-0.021": 0.0,
			"-0.02": 0.0,
			"-0.019": 0.0,
			"-0.018": 0.0,
			"-0.017": 0.0,
			"-0.016": 0.310305623036,
			"-0.015": 1.45158347534,
			"-0.014": 0.700016061645,
			"-0.013": 1.74690984449,
			"-0.012": 4.18818800471,
			"-0.011": 3.29252947136,
			"-0.01": 3.19374264308,
			"-0.009": 3.98324390473,
			"-0.008": 5.6120338694,
			"-0.007": 6.39575062106,
			"-0.006": 11.5479941741,
			"-0.005": 21.970309772,
			"-0.004": 24.0089163741,
			"-0.003": 27.5014302068,
			"-0.002": 24.1625770786,
			"-0.001": 17.763688784,
			"0.0": 17.7598304785,
			"0.001": 15.0076734078,
			"0.002": 13.9474335096,
			"0.003": 15.0575894164,
			"0.004": 13.6492564556,
			"0.005": 10.7769784953,
			"0.006": 8.14306532198,
			"0.007": 8.11816833672,
			"0.008": 8.61489054929,
			"0.009": 10.3246316062,
			"0.01": 14.9644534706,
			"0.011": 7.39726389703,
			"0.012": 2.63837145314,
			"0.013": 0.075906233504,
			"0.014": 0.0,
			"0.015": 0.0,
			"0.016": 0.0,
			"0.017": 0.0,
			"0.018": 0.0,
			"0.019": 0.0,
			"0.02": 0.0,
			"0.021": 0.0,
			"0.022": 0.0,
			"0.023": 0.0,
			"0.024": 0.0,
			"0.025": 0.0
		}
	}
}
