{
	 "smiles": "CC(C(O)=O)C1=CC=CC=C1", 
	 "Tm": 303.65, 
	 "num_atms": 21, 
	 "gaussian": { 
		 "optdone": 1, 
		 "sigma_profile": "yes", 
		 "theory": "DFT", 
		 "functional": "B3LYP", 
		 "basiset": "6-31G**", 
		 "properties": { 
			 "R2extent": 2099.6102, 
			 "electric_dipole_moment_norm": 1.36710825467, 
			 "electric_quadrupole_moment_norm": 4.90045636038, 
			 "total_energy": -499.454229023, 
			 "HOMO_LUMO_gap": 0.23313, 
			 "cosmo_polarized_energy": -9.3, 
			 "cosmo_cavitation_energy": 24.83, 
			 "cosmo_dispersion_energy": -17.7, 
			 "cosmo_repulsion_energy": 1.45, 
			 "cosmo_total_nonelectrostatic_energy": 8.58, 
			 "SMD_solvation_energy": 5.45 
		},
		"coords": [
			{
				"x": 2.0406873323,
				"y": -1.0983810442,
				"z": -1.293930992,
				"element": "C" 
			},
			{
				"x": 1.0920070528,
				"y": -1.6236949858,
				"z": -0.2029265266,
				"element": "C" 
			},
			{
				"x": -0.2171470802,
				"y": -2.0948641335,
				"z": -0.8219916386,
				"element": "C" 
			},
			{
				"x": -0.7496739503,
				"y": -3.1397114132,
				"z": -0.1463358736,
				"element": "O" 
			},
			{
				"x": -0.7585353621,
				"y": -1.5999761014,
				"z": -1.7879651733,
				"element": "O" 
			},
			{
				"x": 0.7994625155,
				"y": -0.5695014352,
				"z": 0.8645202129,
				"element": "C" 
			},
			{
				"x": 0.0380127131,
				"y": 0.5684331051,
				"z": 0.5618960703,
				"element": "C" 
			},
			{
				"x": -0.1938771364,
				"y": 1.5434483582,
				"z": 1.5321035417,
				"element": "C" 
			},
			{
				"x": 0.3314768198,
				"y": 1.396534191,
				"z": 2.8178151755,
				"element": "C" 
			},
			{
				"x": 1.0875175881,
				"y": 0.2654995636,
				"z": 3.1281495352,
				"element": "C" 
			},
			{
				"x": 1.3165714123,
				"y": -0.711371549,
				"z": 2.1574324054,
				"element": "C" 
			},
			{
				"x": 2.9684840577,
				"y": -0.7377573508,
				"z": -0.8418236219,
				"element": "H" 
			},
			{
				"x": 2.2866621946,
				"y": -1.8870665567,
				"z": -2.0119056329,
				"element": "H" 
			},
			{
				"x": 1.5759534651,
				"y": -0.2769142636,
				"z": -1.8435271516,
				"element": "H" 
			},
			{
				"x": 1.5438125111,
				"y": -2.4877958478,
				"z": 0.2940383915,
				"element": "H" 
			},
			{
				"x": -1.595596914,
				"y": -3.3402425032,
				"z": -0.5820406367,
				"element": "H" 
			},
			{
				"x": -0.3820175678,
				"y": 0.6815760505,
				"z": -0.4334211717,
				"element": "H" 
			},
			{
				"x": -0.7880217946,
				"y": 2.4183939947,
				"z": 1.2835765239,
				"element": "H" 
			},
			{
				"x": 0.1504286746,
				"y": 2.1566886746,
				"z": 3.5722919485,
				"element": "H" 
			},
			{
				"x": 1.4976409924,
				"y": 0.1399967099,
				"z": 4.1263066094,
				"element": "H" 
			},
			{
				"x": 1.9036524759,
				"y": -1.5920934633,
				"z": 2.4057380046,
				"element": "H" 
			}
		],
		 "valence_orbital": [ 
			{
				"type": "occ",
				"energy": -0.33523,
				"method": "rhf"
			},
			{
				"type": "occ",
				"energy": -0.31842,
				"method": "rhf"
			},
			{
				"type": "occ",
				"energy": -0.27601,
				"method": "rhf"
			},
			{
				"type": "occ",
				"energy": -0.25075,
				"method": "rhf"
			},
			{
				"type": "occ",
				"energy": -0.24407,
				"method": "rhf"
			},
			{
				"type": "unocc",
				"energy": -0.01094,
				"method": "rhf"
			},
			{
				"type": "unocc",
				"energy": -0.00342,
				"method": "rhf"
			},
			{
				"type": "unocc",
				"energy": 0.01955,
				"method": "rhf"
			},
			{
				"type": "unocc",
				"energy": 0.07967,
				"method": "rhf"
			},
			{
				"type": "unocc",
				"energy": 0.0937,
				"method": "rhf"
			}
		],
		"cosmo_sigma_profile": { 
			"-0.025": 0.0,
			"-0.024": 0.0,
			"-0.023": 0.0,
			"-0.022": 0.0,
			"-0.021": 0.0,
			"-0.02": 0.0,
			"-0.019": 0.0206385574071,
			"-0.018": 0.72300222393,
			"-0.017": 1.06552661721,
			"-0.016": 0.701044532053,
			"-0.015": 1.04288241226,
			"-0.014": 0.641681356606,
			"-0.013": 0.120936089525,
			"-0.012": 0.565589483877,
			"-0.011": 1.2681895503,
			"-0.01": 0.913662272709,
			"-0.009": 0.313725262542,
			"-0.008": 0.48106922753,
			"-0.007": 0.975566779859,
			"-0.006": 8.13149853889,
			"-0.005": 13.1915378199,
			"-0.004": 17.5419753874,
			"-0.003": 18.3999778897,
			"-0.002": 15.6610616968,
			"-0.001": 14.7049168431,
			"0.0": 15.6418522114,
			"0.001": 12.9038222589,
			"0.002": 11.3551206651,
			"0.003": 10.4042535721,
			"0.004": 11.5960030334,
			"0.005": 11.6183315237,
			"0.006": 8.39088822619,
			"0.007": 2.86821268419,
			"0.008": 2.51050951958,
			"0.009": 3.03656287007,
			"0.01": 2.38792823679,
			"0.011": 2.93216661055,
			"0.012": 4.13406034288,
			"0.013": 0.166146491543,
			"0.014": 0.0,
			"0.015": 0.0,
			"0.016": 0.0,
			"0.017": 0.0,
			"0.018": 0.0,
			"0.019": 0.0,
			"0.02": 0.0,
			"0.021": 0.0,
			"0.022": 0.0,
			"0.023": 0.0,
			"0.024": 0.0,
			"0.025": 0.0
		}
	}
}
