{
	 "smiles": "CCC1=CC=C(S1)C(O)=O", 
	 "Tm": 334.15, 
	 "num_atms": 18, 
	 "gaussian": { 
		 "optdone": 1, 
		 "sigma_profile": "yes", 
		 "theory": "DFT", 
		 "functional": "B3LYP", 
		 "basiset": "6-31G**", 
		 "properties": { 
			 "R2extent": 3398.6595, 
			 "electric_dipole_moment_norm": 5.5345637633, 
			 "electric_quadrupole_moment_norm": 26.0576306674, 
			 "total_energy": -820.203279223, 
			 "HOMO_LUMO_gap": 0.18807, 
			 "cosmo_polarized_energy": -12.67, 
			 "cosmo_cavitation_energy": 23.71, 
			 "cosmo_dispersion_energy": -17.84, 
			 "cosmo_repulsion_energy": 1.42, 
			 "cosmo_total_nonelectrostatic_energy": 7.29, 
			 "SMD_solvation_energy": 5.07 
		},
		"coords": [
			{
				"x": 1.8264375037,
				"y": 1.2525621677,
				"z": -0.4433781854,
				"element": "C" 
			},
			{
				"x": 0.3673860899,
				"y": 0.7815996548,
				"z": -0.3062999395,
				"element": "C" 
			},
			{
				"x": 0.1994799139,
				"y": -0.4562967684,
				"z": 0.5300295437,
				"element": "C" 
			},
			{
				"x": -0.3875923088,
				"y": -0.5779071131,
				"z": 1.7667464508,
				"element": "C" 
			},
			{
				"x": -0.3698773135,
				"y": -1.8998989171,
				"z": 2.2850072365,
				"element": "C" 
			},
			{
				"x": 0.2373608422,
				"y": -2.8029345739,
				"z": 1.4472574666,
				"element": "C" 
			},
			{
				"x": 0.7848691153,
				"y": -2.009035787,
				"z": -0.0161671034,
				"element": "S" 
			},
			{
				"x": 0.3965875975,
				"y": -4.243885218,
				"z": 1.7434974649,
				"element": "C" 
			},
			{
				"x": 1.1540544371,
				"y": -4.9839452313,
				"z": 0.8884865804,
				"element": "O" 
			},
			{
				"x": -0.1185516617,
				"y": -4.7694567694,
				"z": 2.7032981094,
				"element": "O" 
			},
			{
				"x": 2.265042347,
				"y": 1.4571340735,
				"z": 0.5377451797,
				"element": "H" 
			},
			{
				"x": 1.8780702109,
				"y": 2.1681286499,
				"z": -1.0406587141,
				"element": "H" 
			},
			{
				"x": 2.4441154208,
				"y": 0.4946351014,
				"z": -0.9352278344,
				"element": "H" 
			},
			{
				"x": -0.2331519784,
				"y": 1.5726219912,
				"z": 0.1565939495,
				"element": "H" 
			},
			{
				"x": -0.0573431682,
				"y": 0.6170132367,
				"z": -1.3045549622,
				"element": "H" 
			},
			{
				"x": -0.824445052,
				"y": 0.2683837275,
				"z": 2.2859264537,
				"element": "H" 
			},
			{
				"x": -0.7807072639,
				"y": -2.2015652378,
				"z": 3.2408223087,
				"element": "H" 
			},
			{
				"x": 1.5878652683,
				"y": -4.4290529867,
				"z": 0.2245759953,
				"element": "H" 
			}
		],
		 "valence_orbital": [ 
			{
				"type": "occ",
				"energy": -0.35345,
				"method": "rhf"
			},
			{
				"type": "occ",
				"energy": -0.3142,
				"method": "rhf"
			},
			{
				"type": "occ",
				"energy": -0.27361,
				"method": "rhf"
			},
			{
				"type": "occ",
				"energy": -0.27024,
				"method": "rhf"
			},
			{
				"type": "occ",
				"energy": -0.2459,
				"method": "rhf"
			},
			{
				"type": "unocc",
				"energy": -0.05783,
				"method": "rhf"
			},
			{
				"type": "unocc",
				"energy": -0.00507,
				"method": "rhf"
			},
			{
				"type": "unocc",
				"energy": 0.02789,
				"method": "rhf"
			},
			{
				"type": "unocc",
				"energy": 0.05484,
				"method": "rhf"
			},
			{
				"type": "unocc",
				"energy": 0.09072,
				"method": "rhf"
			}
		],
		"cosmo_sigma_profile": { 
			"-0.025": 0.0,
			"-0.024": 0.0,
			"-0.023": 0.0,
			"-0.022": 0.0,
			"-0.021": 0.0,
			"-0.02": 0.0,
			"-0.019": 0.0,
			"-0.018": 0.18848544447,
			"-0.017": 0.982359093696,
			"-0.016": 0.628061071333,
			"-0.015": 0.690758750188,
			"-0.014": 0.87855841714,
			"-0.013": 0.961449661857,
			"-0.012": 1.34716426624,
			"-0.011": 1.55160641845,
			"-0.01": 0.395445067217,
			"-0.009": 0.392122476634,
			"-0.008": 1.1472547113,
			"-0.007": 4.85453608255,
			"-0.006": 5.80151599253,
			"-0.005": 11.2063021286,
			"-0.004": 13.7061014107,
			"-0.003": 16.032448786,
			"-0.002": 17.8298267915,
			"-0.001": 17.0152157778,
			"0.0": 16.4048511665,
			"0.001": 14.676550827,
			"0.002": 16.1265324881,
			"0.003": 12.6136283339,
			"0.004": 4.74036616879,
			"0.005": 2.23727688911,
			"0.006": 2.6640600281,
			"0.007": 2.05731511891,
			"0.008": 2.55938494275,
			"0.009": 3.47356506896,
			"0.01": 4.40159537146,
			"0.011": 5.00046005504,
			"0.012": 5.72322576427,
			"0.013": 1.9301011766,
			"0.014": 0.103076641361,
			"0.015": 0.0,
			"0.016": 0.0,
			"0.017": 0.0,
			"0.018": 0.0,
			"0.019": 0.0,
			"0.02": 0.0,
			"0.021": 0.0,
			"0.022": 0.0,
			"0.023": 0.0,
			"0.024": 0.0,
			"0.025": 0.0
		}
	}
}
