{
	 "smiles": "OC(=O)C1(CCCCC1)C1=CC(=CC=C1)C(F)(F)F", 
	 "Tm": 418.15, 
	 "num_atms": 34, 
	 "gaussian": { 
		 "optdone": 1, 
		 "sigma_profile": "yes", 
		 "theory": "DFT", 
		 "functional": "B3LYP", 
		 "basiset": "6-31G**", 
		 "properties": { 
			 "R2extent": 6211.2726, 
			 "electric_dipole_moment_norm": 3.49914372526, 
			 "electric_quadrupole_moment_norm": 11.5835485345, 
			 "total_energy": -992.523371761, 
			 "HOMO_LUMO_gap": 0.23101, 
			 "cosmo_polarized_energy": -10.55, 
			 "cosmo_cavitation_energy": 36.11, 
			 "cosmo_dispersion_energy": -24.9, 
			 "cosmo_repulsion_energy": 1.87, 
			 "cosmo_total_nonelectrostatic_energy": 13.07, 
			 "SMD_solvation_energy": 7.65 
		},
		"coords": [
			{
				"x": -0.1842365154,
				"y": -0.0962005447,
				"z": -3.6993268952,
				"element": "O" 
			},
			{
				"x": -0.604189323,
				"y": 0.6702702687,
				"z": -2.6577235099,
				"element": "C" 
			},
			{
				"x": -0.9010534091,
				"y": 1.8340194513,
				"z": -2.8112044584,
				"element": "O" 
			},
			{
				"x": -0.6722834269,
				"y": -0.1312718838,
				"z": -1.347336768,
				"element": "C" 
			},
			{
				"x": 0.6566258078,
				"y": -0.924471625,
				"z": -1.1507549889,
				"element": "C" 
			},
			{
				"x": 0.6558634085,
				"y": -1.7577037186,
				"z": 0.1462920852,
				"element": "C" 
			},
			{
				"x": -0.7066833213,
				"y": -2.4449676474,
				"z": 0.4176802725,
				"element": "C" 
			},
			{
				"x": -1.5434291209,
				"y": -2.5518698195,
				"z": -0.8636337958,
				"element": "C" 
			},
			{
				"x": -1.8318860969,
				"y": -1.1795794685,
				"z": -1.5187461824,
				"element": "C" 
			},
			{
				"x": -0.8585107699,
				"y": 0.8589081096,
				"z": -0.1827692117,
				"element": "C" 
			},
			{
				"x": -1.8963307256,
				"y": 0.7728757089,
				"z": 0.7469956642,
				"element": "C" 
			},
			{
				"x": -1.9868776495,
				"y": 1.671337939,
				"z": 1.817182449,
				"element": "C" 
			},
			{
				"x": -1.043868667,
				"y": 2.6829658488,
				"z": 1.9774038526,
				"element": "C" 
			},
			{
				"x": -0.0045093051,
				"y": 2.7854455881,
				"z": 1.0518792291,
				"element": "C" 
			},
			{
				"x": 0.0844189677,
				"y": 1.8881398461,
				"z": -0.007670393,
				"element": "C" 
			},
			{
				"x": -3.1494635834,
				"y": 1.5546168669,
				"z": 2.7644414324,
				"element": "C" 
			},
			{
				"x": -2.9006385466,
				"y": 2.1488055597,
				"z": 3.9519892611,
				"element": "F" 
			},
			{
				"x": -3.4616654063,
				"y": 0.2607138357,
				"z": 3.0164706829,
				"element": "F" 
			},
			{
				"x": -4.2673840831,
				"y": 2.1294438372,
				"z": 2.261919972,
				"element": "F" 
			},
			{
				"x": -0.208411627,
				"y": 0.4847379191,
				"z": -4.4780415233,
				"element": "H" 
			},
			{
				"x": 1.511686564,
				"y": -0.2404037799,
				"z": -1.1526154675,
				"element": "H" 
			},
			{
				"x": 0.7848008469,
				"y": -1.5777495495,
				"z": -2.0182119245,
				"element": "H" 
			},
			{
				"x": 1.4497066334,
				"y": -2.5088785943,
				"z": 0.0633776728,
				"element": "H" 
			},
			{
				"x": 0.9226127043,
				"y": -1.1200632633,
				"z": 0.9953113416,
				"element": "H" 
			},
			{
				"x": -0.5499702611,
				"y": -3.441743202,
				"z": 0.843907726,
				"element": "H" 
			},
			{
				"x": -1.2654802336,
				"y": -1.878522067,
				"z": 1.1699252794,
				"element": "H" 
			},
			{
				"x": -2.4937399332,
				"y": -3.0577340553,
				"z": -0.6594542544,
				"element": "H" 
			},
			{
				"x": -1.0110495462,
				"y": -3.1881159442,
				"z": -1.5816041877,
				"element": "H" 
			},
			{
				"x": -2.7648734748,
				"y": -0.7556527709,
				"z": -1.1398479007,
				"element": "H" 
			},
			{
				"x": -1.9945894189,
				"y": -1.3418086324,
				"z": -2.5872310235,
				"element": "H" 
			},
			{
				"x": -2.6491120221,
				"y": -0.0009186385,
				"z": 0.6710026667,
				"element": "H" 
			},
			{
				"x": -1.1182718427,
				"y": 3.3717869149,
				"z": 2.8113131312,
				"element": "H" 
			},
			{
				"x": 0.7387282921,
				"y": 3.5698973425,
				"z": 1.1574879653,
				"element": "H" 
			},
			{
				"x": 0.8952650852,
				"y": 1.9991901681,
				"z": -0.7202081994,
				"element": "H" 
			}
		],
		 "valence_orbital": [ 
			{
				"type": "occ",
				"energy": -0.3106,
				"method": "rhf"
			},
			{
				"type": "occ",
				"energy": -0.30768,
				"method": "rhf"
			},
			{
				"type": "occ",
				"energy": -0.27408,
				"method": "rhf"
			},
			{
				"type": "occ",
				"energy": -0.26094,
				"method": "rhf"
			},
			{
				"type": "occ",
				"energy": -0.25622,
				"method": "rhf"
			},
			{
				"type": "unocc",
				"energy": -0.02521,
				"method": "rhf"
			},
			{
				"type": "unocc",
				"energy": -0.01332,
				"method": "rhf"
			},
			{
				"type": "unocc",
				"energy": 0.00233,
				"method": "rhf"
			},
			{
				"type": "unocc",
				"energy": 0.06487,
				"method": "rhf"
			},
			{
				"type": "unocc",
				"energy": 0.08064,
				"method": "rhf"
			}
		],
		"cosmo_sigma_profile": { 
			"-0.025": 0.0,
			"-0.024": 0.0,
			"-0.023": 0.0,
			"-0.022": 0.0,
			"-0.021": 0.0,
			"-0.02": 0.0,
			"-0.019": 0.0550595925512,
			"-0.018": 0.566032831818,
			"-0.017": 0.844580113148,
			"-0.016": 1.13529192566,
			"-0.015": 0.485857759208,
			"-0.014": 0.79227553825,
			"-0.013": 0.487958114517,
			"-0.012": 0.772563294108,
			"-0.011": 0.740800157847,
			"-0.01": 0.788324442119,
			"-0.009": 0.285532396653,
			"-0.008": 0.926720376993,
			"-0.007": 4.67781747447,
			"-0.006": 9.56194700785,
			"-0.005": 11.0694220844,
			"-0.004": 10.9609195161,
			"-0.003": 23.111604787,
			"-0.002": 29.1033021422,
			"-0.001": 32.8154848619,
			"0.0": 31.2860829443,
			"0.001": 25.2206000246,
			"0.002": 22.7020787589,
			"0.003": 38.7132118108,
			"0.004": 12.3222831496,
			"0.005": 3.06778407215,
			"0.006": 3.02599329672,
			"0.007": 3.69887188529,
			"0.008": 2.09054642287,
			"0.009": 1.98001104184,
			"0.01": 2.52913079195,
			"0.011": 4.09585430643,
			"0.012": 3.93216177842,
			"0.013": 0.276822795379,
			"0.014": 0.0,
			"0.015": 0.0,
			"0.016": 0.0,
			"0.017": 0.0,
			"0.018": 0.0,
			"0.019": 0.0,
			"0.02": 0.0,
			"0.021": 0.0,
			"0.022": 0.0,
			"0.023": 0.0,
			"0.024": 0.0,
			"0.025": 0.0
		}
	}
}
