{
	 "smiles": "IC(I)=C(I)I", 
	 "Tm": 460.15, 
	 "num_atms": 6, 
	 "gaussian": { 
		 "optdone": 1, 
		 "sigma_profile": "yes", 
		 "theory": "DFT", 
		 "functional": "B3LYP", 
		 "basiset": "6-31G**", 
		 "properties": { 
			 "R2extent": 955.2573, 
			 "electric_dipole_moment_norm": 0.0, 
			 "electric_quadrupole_moment_norm": 6.07710150647, 
			 "total_energy": -121.706869934, 
			 "HOMO_LUMO_gap": 0.15916, 
			 "cosmo_polarized_energy": -3.51, 
			 "cosmo_cavitation_energy": 22.67, 
			 "cosmo_dispersion_energy": -21.85, 
			 "cosmo_repulsion_energy": 1.69, 
			 "cosmo_total_nonelectrostatic_energy": 2.51, 
			 "SMD_solvation_energy": 0.97 
		},
		"coords": [
			{
				"x": 2.0411108622,
				"y": -1.1447162583,
				"z": -1.2278788409,
				"element": "I" 
			},
			{
				"x": 0.7355979814,
				"y": 0.3442358814,
				"z": -0.484025371,
				"element": "C" 
			},
			{
				"x": 1.6648439027,
				"y": 1.6380939334,
				"z": 0.9078042143,
				"element": "I" 
			},
			{
				"x": -0.5509687098,
				"y": 0.4566524814,
				"z": -0.8571420021,
				"element": "C" 
			},
			{
				"x": -1.8564499189,
				"y": 1.9456225575,
				"z": -0.1132812218,
				"element": "I" 
			},
			{
				"x": -1.4802341175,
				"y": -0.8371885954,
				"z": -2.2489767785,
				"element": "I" 
			}
		],
		 "valence_orbital": [ 
			{
				"type": "occ",
				"energy": -0.28903,
				"method": "rhf"
			},
			{
				"type": "occ",
				"energy": -0.28734,
				"method": "rhf"
			},
			{
				"type": "occ",
				"energy": -0.2783,
				"method": "rhf"
			},
			{
				"type": "occ",
				"energy": -0.25024,
				"method": "rhf"
			},
			{
				"type": "occ",
				"energy": -0.24977,
				"method": "rhf"
			},
			{
				"type": "unocc",
				"energy": -0.09061,
				"method": "rhf"
			},
			{
				"type": "unocc",
				"energy": -0.08483,
				"method": "rhf"
			},
			{
				"type": "unocc",
				"energy": -0.08347,
				"method": "rhf"
			},
			{
				"type": "unocc",
				"energy": -0.0482,
				"method": "rhf"
			},
			{
				"type": "unocc",
				"energy": 0.01517,
				"method": "rhf"
			}
		],
		"cosmo_sigma_profile": { 
			"-0.025": 0.0,
			"-0.024": 0.0,
			"-0.023": 0.0,
			"-0.022": 0.0,
			"-0.021": 0.0,
			"-0.02": 0.0,
			"-0.019": 0.0,
			"-0.018": 0.0,
			"-0.017": 0.0,
			"-0.016": 0.0,
			"-0.015": 0.0,
			"-0.014": 0.0,
			"-0.013": 0.0,
			"-0.012": 0.0,
			"-0.011": 0.0,
			"-0.01": 0.263638983743,
			"-0.009": 3.63629602139,
			"-0.008": 4.88935243175,
			"-0.007": 5.84670720329,
			"-0.006": 5.17898533761,
			"-0.005": 5.71133586387,
			"-0.004": 5.99198096597,
			"-0.003": 7.23459344953,
			"-0.002": 9.46877450165,
			"-0.001": 19.6654664996,
			"0.0": 22.7332686228,
			"0.001": 23.3662466131,
			"0.002": 32.4107755388,
			"0.003": 51.415557683,
			"0.004": 4.20533202794,
			"0.005": 0.0,
			"0.006": 0.0,
			"0.007": 0.0,
			"0.008": 0.0,
			"0.009": 0.0,
			"0.01": 0.0,
			"0.011": 0.0,
			"0.012": 0.0,
			"0.013": 0.0,
			"0.014": 0.0,
			"0.015": 0.0,
			"0.016": 0.0,
			"0.017": 0.0,
			"0.018": 0.0,
			"0.019": 0.0,
			"0.02": 0.0,
			"0.021": 0.0,
			"0.022": 0.0,
			"0.023": 0.0,
			"0.024": 0.0,
			"0.025": 0.0
		}
	}
}
