{
	 "smiles": "CCC1=C(N)NN=C1C1=CC=NC=C1", 
	 "Tm": 428.15, 
	 "num_atms": 26, 
	 "gaussian": { 
		 "optdone": 1, 
		 "sigma_profile": "yes", 
		 "theory": "DFT", 
		 "functional": "B3LYP", 
		 "basiset": "6-31G**", 
		 "properties": { 
			 "R2extent": 3348.7781, 
			 "electric_dipole_moment_norm": 5.99570971112, 
			 "electric_quadrupole_moment_norm": 11.3343122928, 
			 "total_energy": -607.286948909, 
			 "HOMO_LUMO_gap": 0.18622, 
			 "cosmo_polarized_energy": -17.13, 
			 "cosmo_cavitation_energy": 29.37, 
			 "cosmo_dispersion_energy": -21.4, 
			 "cosmo_repulsion_energy": 1.69, 
			 "cosmo_total_nonelectrostatic_energy": 9.66, 
			 "SMD_solvation_energy": 2.55 
		},
		"coords": [
			{
				"x": 2.3712742746,
				"y": -1.1379724415,
				"z": 0.9514279386,
				"element": "C" 
			},
			{
				"x": 2.0615365711,
				"y": -0.763240774,
				"z": -0.5108421997,
				"element": "C" 
			},
			{
				"x": 1.0843292269,
				"y": 0.3690877539,
				"z": -0.6713585718,
				"element": "C" 
			},
			{
				"x": 1.4188814932,
				"y": 1.7171434136,
				"z": -0.6797552138,
				"element": "C" 
			},
			{
				"x": 2.6303467967,
				"y": 2.3868113127,
				"z": -0.4725564982,
				"element": "N" 
			},
			{
				"x": 0.2683351477,
				"y": 2.4059652156,
				"z": -0.9084109872,
				"element": "N" 
			},
			{
				"x": -0.8081505618,
				"y": 1.6050198186,
				"z": -1.061213654,
				"element": "N" 
			},
			{
				"x": -0.3280179367,
				"y": 0.3648378527,
				"z": -0.9105341794,
				"element": "C" 
			},
			{
				"x": -1.2579725764,
				"y": -0.7688668937,
				"z": -1.0592171171,
				"element": "C" 
			},
			{
				"x": -2.4405545037,
				"y": -0.6172977667,
				"z": -1.8028889628,
				"element": "C" 
			},
			{
				"x": -3.3115678299,
				"y": -1.6946048097,
				"z": -1.9274384667,
				"element": "C" 
			},
			{
				"x": -3.0992978331,
				"y": -2.9024106493,
				"z": -1.3825572421,
				"element": "N" 
			},
			{
				"x": -1.9753742199,
				"y": -3.0414928701,
				"z": -0.6706898971,
				"element": "C" 
			},
			{
				"x": -1.0388422393,
				"y": -2.025743149,
				"z": -0.4763796084,
				"element": "C" 
			},
			{
				"x": 1.4662967475,
				"y": -1.4428162986,
				"z": 1.4863559136,
				"element": "H" 
			},
			{
				"x": 2.7924917324,
				"y": -0.2868225691,
				"z": 1.4974114512,
				"element": "H" 
			},
			{
				"x": 3.0907117718,
				"y": -1.9622681326,
				"z": 1.0026164207,
				"element": "H" 
			},
			{
				"x": 1.6922600345,
				"y": -1.6443460295,
				"z": -1.0457184981,
				"element": "H" 
			},
			{
				"x": 3.0033525157,
				"y": -0.4920492734,
				"z": -1.0097532115,
				"element": "H" 
			},
			{
				"x": 3.3774246788,
				"y": 1.7478190766,
				"z": -0.2304472051,
				"element": "H" 
			},
			{
				"x": 2.9185091127,
				"y": 2.9555397346,
				"z": -1.2630125018,
				"element": "H" 
			},
			{
				"x": 0.1448485889,
				"y": 3.4063682824,
				"z": -0.8871057943,
				"element": "H" 
			},
			{
				"x": -2.6621217003,
				"y": 0.3347425883,
				"z": -2.2714918768,
				"element": "H" 
			},
			{
				"x": -4.2303169077,
				"y": -1.5854459119,
				"z": -2.5018354328,
				"element": "H" 
			},
			{
				"x": -1.8107100759,
				"y": -4.0200631966,
				"z": -0.2214716626,
				"element": "H" 
			},
			{
				"x": -0.169172308,
				"y": -2.2155942833,
				"z": 0.1410670571,
				"element": "H" 
			}
		],
		 "valence_orbital": [ 
			{
				"type": "occ",
				"energy": -0.28456,
				"method": "rhf"
			},
			{
				"type": "occ",
				"energy": -0.24988,
				"method": "rhf"
			},
			{
				"type": "occ",
				"energy": -0.24228,
				"method": "rhf"
			},
			{
				"type": "occ",
				"energy": -0.23223,
				"method": "rhf"
			},
			{
				"type": "occ",
				"energy": -0.21407,
				"method": "rhf"
			},
			{
				"type": "unocc",
				"energy": -0.02785,
				"method": "rhf"
			},
			{
				"type": "unocc",
				"energy": 0.00117,
				"method": "rhf"
			},
			{
				"type": "unocc",
				"energy": 0.03355,
				"method": "rhf"
			},
			{
				"type": "unocc",
				"energy": 0.0497,
				"method": "rhf"
			},
			{
				"type": "unocc",
				"energy": 0.07869,
				"method": "rhf"
			}
		],
		"cosmo_sigma_profile": { 
			"-0.025": 0.0,
			"-0.024": 0.0,
			"-0.023": 0.0,
			"-0.022": 0.0,
			"-0.021": 0.0,
			"-0.02": 0.0,
			"-0.019": 0.0,
			"-0.018": 0.0,
			"-0.017": 0.0647247656019,
			"-0.016": 1.26259807013,
			"-0.015": 1.00527306026,
			"-0.014": 1.42655181819,
			"-0.013": 2.17918937464,
			"-0.012": 3.40490074024,
			"-0.011": 4.3050969602,
			"-0.01": 3.23558911217,
			"-0.009": 4.0355326404,
			"-0.008": 3.41240303954,
			"-0.007": 3.29509904209,
			"-0.006": 7.35512757235,
			"-0.005": 11.3606470469,
			"-0.004": 13.9329390135,
			"-0.003": 15.4172131882,
			"-0.002": 15.3754640645,
			"-0.001": 16.6328380578,
			"0.0": 17.7619631004,
			"0.001": 16.5320942162,
			"0.002": 15.6440247886,
			"0.003": 22.0282228533,
			"0.004": 11.238686857,
			"0.005": 8.90909983469,
			"0.006": 5.59372874299,
			"0.007": 3.84637608608,
			"0.008": 2.90207696613,
			"0.009": 3.9714319674,
			"0.01": 3.67473546208,
			"0.011": 2.27017497625,
			"0.012": 2.7909201368,
			"0.013": 1.86285187015,
			"0.014": 2.63358435307,
			"0.015": 2.00176434693,
			"0.016": 1.03238093105,
			"0.017": 0.580097423309,
			"0.018": 0.111990793859,
			"0.019": 0.0,
			"0.02": 0.0,
			"0.021": 0.0,
			"0.022": 0.0,
			"0.023": 0.0,
			"0.024": 0.0,
			"0.025": 0.0
		}
	}
}
