{
	 "smiles": "OC1CC(O)C(O)CO1", 
	 "Tm": 343.65, 
	 "num_atms": 19, 
	 "gaussian": { 
		 "optdone": 1, 
		 "sigma_profile": "yes", 
		 "theory": "DFT", 
		 "functional": "B3LYP", 
		 "basiset": "6-31G**", 
		 "properties": { 
			 "R2extent": 1749.9464, 
			 "electric_dipole_moment_norm": 2.56233211352, 
			 "electric_quadrupole_moment_norm": 8.03168689318, 
			 "total_energy": -497.41930479, 
			 "HOMO_LUMO_gap": 0.31984, 
			 "cosmo_polarized_energy": -14.98, 
			 "cosmo_cavitation_energy": 20.93, 
			 "cosmo_dispersion_energy": -16.1, 
			 "cosmo_repulsion_energy": 1.34, 
			 "cosmo_total_nonelectrostatic_energy": 6.16, 
			 "SMD_solvation_energy": 3.32 
		},
		"coords": [
			{
				"x": 2.1201399816,
				"y": -2.2065998978,
				"z": 0.2118044202,
				"element": "O" 
			},
			{
				"x": 1.6907090712,
				"y": -0.916593247,
				"z": -0.082145897,
				"element": "C" 
			},
			{
				"x": 2.0405280596,
				"y": -0.6066588156,
				"z": -1.5512220093,
				"element": "C" 
			},
			{
				"x": 0.8987008893,
				"y": 0.1796594792,
				"z": -2.2084732845,
				"element": "C" 
			},
			{
				"x": 1.2726730798,
				"y": 0.8216273291,
				"z": -3.4286713133,
				"element": "O" 
			},
			{
				"x": 0.3177307464,
				"y": 1.2072051704,
				"z": -1.2312605567,
				"element": "C" 
			},
			{
				"x": -0.741475893,
				"y": 1.9294727884,
				"z": -1.828418004,
				"element": "O" 
			},
			{
				"x": -0.2113683954,
				"y": 0.4820855717,
				"z": 0.025475782,
				"element": "C" 
			},
			{
				"x": 0.2829653877,
				"y": -0.8544399128,
				"z": 0.1187590589,
				"element": "O" 
			},
			{
				"x": 1.8225325905,
				"y": -2.4120438419,
				"z": 1.1093000293,
				"element": "H" 
			},
			{
				"x": 2.161155286,
				"y": -0.1743818602,
				"z": 0.5938561926,
				"element": "H" 
			},
			{
				"x": 2.2128759189,
				"y": -1.5474481749,
				"z": -2.0800260878,
				"element": "H" 
			},
			{
				"x": 2.9715034313,
				"y": -0.0255208439,
				"z": -1.5931460246,
				"element": "H" 
			},
			{
				"x": 0.092685028,
				"y": -0.5042621053,
				"z": -2.4898628621,
				"element": "H" 
			},
			{
				"x": 2.0778591054,
				"y": 1.3317417142,
				"z": -3.2600429018,
				"element": "H" 
			},
			{
				"x": 1.1353251066,
				"y": 1.8984096515,
				"z": -0.9470910513,
				"element": "H" 
			},
			{
				"x": -0.4542569066,
				"y": 2.0994747718,
				"z": -2.7394992536,
				"element": "H" 
			},
			{
				"x": -1.2976941898,
				"y": 0.4049002213,
				"z": -0.0546677817,
				"element": "H" 
			},
			{
				"x": 0.0372117025,
				"y": 1.0445720018,
				"z": 0.9382315444,
				"element": "H" 
			}
		],
		 "valence_orbital": [ 
			{
				"type": "occ",
				"energy": -0.32464,
				"method": "rhf"
			},
			{
				"type": "occ",
				"energy": -0.30565,
				"method": "rhf"
			},
			{
				"type": "occ",
				"energy": -0.2866,
				"method": "rhf"
			},
			{
				"type": "occ",
				"energy": -0.26259,
				"method": "rhf"
			},
			{
				"type": "occ",
				"energy": -0.25831,
				"method": "rhf"
			},
			{
				"type": "unocc",
				"energy": 0.06153,
				"method": "rhf"
			},
			{
				"type": "unocc",
				"energy": 0.07291,
				"method": "rhf"
			},
			{
				"type": "unocc",
				"energy": 0.08786,
				"method": "rhf"
			},
			{
				"type": "unocc",
				"energy": 0.10152,
				"method": "rhf"
			},
			{
				"type": "unocc",
				"energy": 0.1177,
				"method": "rhf"
			}
		],
		"cosmo_sigma_profile": { 
			"-0.025": 0.0,
			"-0.024": 0.0,
			"-0.023": 0.0,
			"-0.022": 0.0,
			"-0.021": 0.0,
			"-0.02": 0.0,
			"-0.019": 0.0,
			"-0.018": 0.0,
			"-0.017": 0.0665966210124,
			"-0.016": 0.959542319063,
			"-0.015": 1.92539546685,
			"-0.014": 2.40534019115,
			"-0.013": 1.33623841278,
			"-0.012": 2.30831888138,
			"-0.011": 2.59134524688,
			"-0.01": 2.26563547219,
			"-0.009": 3.03573004031,
			"-0.008": 2.68452147739,
			"-0.007": 3.45695907281,
			"-0.006": 5.66909350553,
			"-0.005": 11.3570136741,
			"-0.004": 17.3039050491,
			"-0.003": 12.2994169344,
			"-0.002": 11.0108679218,
			"-0.001": 8.37855023207,
			"0.0": 7.47512342483,
			"0.001": 4.92358491432,
			"0.002": 5.53015025324,
			"0.003": 4.28547929071,
			"0.004": 4.9569101979,
			"0.005": 4.38232420132,
			"0.006": 4.89764800039,
			"0.007": 4.15279689309,
			"0.008": 3.78592507682,
			"0.009": 3.94637268118,
			"0.01": 5.37095719531,
			"0.011": 5.0973430487,
			"0.012": 6.27728058535,
			"0.013": 5.03914734534,
			"0.014": 1.91132074299,
			"0.015": 0.0515524337505,
			"0.016": 0.0,
			"0.017": 0.0,
			"0.018": 0.0,
			"0.019": 0.0,
			"0.02": 0.0,
			"0.021": 0.0,
			"0.022": 0.0,
			"0.023": 0.0,
			"0.024": 0.0,
			"0.025": 0.0
		}
	}
}
