{
	 "smiles": "CC1=CC=C(C=C1)P(=S)(C1=CC=C(C)C=C1)C1=CC=C(C)C=C1", 
	 "Tm": 459.15, 
	 "num_atms": 44, 
	 "gaussian": { 
		 "optdone": 1, 
		 "sigma_profile": "yes", 
		 "theory": "DFT", 
		 "functional": "B3LYP", 
		 "basiset": "6-31G**", 
		 "properties": { 
			 "R2extent": 9496.7552, 
			 "electric_dipole_moment_norm": 5.52319378349, 
			 "electric_quadrupole_moment_norm": 26.1780765669, 
			 "total_energy": -1552.48218825, 
			 "HOMO_LUMO_gap": 0.18124, 
			 "cosmo_polarized_energy": -15.04, 
			 "cosmo_cavitation_energy": 49.32, 
			 "cosmo_dispersion_energy": -33.75, 
			 "cosmo_repulsion_energy": 2.55, 
			 "cosmo_total_nonelectrostatic_energy": 18.12, 
			 "SMD_solvation_energy": 7.74 
		},
		"coords": [
			{
				"x": 2.8112566723,
				"y": -4.7569035639,
				"z": 1.422159158,
				"element": "C" 
			},
			{
				"x": 2.1752163751,
				"y": -3.5910894585,
				"z": 0.7038491868,
				"element": "C" 
			},
			{
				"x": 2.7006592735,
				"y": -3.1221179348,
				"z": -0.5094350466,
				"element": "C" 
			},
			{
				"x": 2.1025522202,
				"y": -2.0688485902,
				"z": -1.1954942271,
				"element": "C" 
			},
			{
				"x": 0.9582792452,
				"y": -1.4444793435,
				"z": -0.6774298361,
				"element": "C" 
			},
			{
				"x": 0.4228270483,
				"y": -1.9088294727,
				"z": 0.5315710899,
				"element": "C" 
			},
			{
				"x": 1.0291748332,
				"y": -2.9668467983,
				"z": 1.2106319976,
				"element": "C" 
			},
			{
				"x": 0.2250268869,
				"y": -0.0336062284,
				"z": -1.6021542932,
				"element": "P" 
			},
			{
				"x": 0.423874546,
				"y": -0.1945439923,
				"z": -3.565506184,
				"element": "S" 
			},
			{
				"x": 1.0249898513,
				"y": 1.4709659156,
				"z": -0.9095714951,
				"element": "C" 
			},
			{
				"x": 1.5957075258,
				"y": 1.4963717271,
				"z": 0.3701324852,
				"element": "C" 
			},
			{
				"x": 2.1691060211,
				"y": 2.6696882561,
				"z": 0.8628911177,
				"element": "C" 
			},
			{
				"x": 2.1945468051,
				"y": 3.8409818387,
				"z": 0.096575691,
				"element": "C" 
			},
			{
				"x": 2.8441356835,
				"y": 5.100557819,
				"z": 0.6172761144,
				"element": "C" 
			},
			{
				"x": 1.6250130598,
				"y": 3.803975357,
				"z": -1.1849895097,
				"element": "C" 
			},
			{
				"x": 1.0523306962,
				"y": 2.6385736336,
				"z": -1.6865338664,
				"element": "C" 
			},
			{
				"x": -1.5280521869,
				"y": 0.0503135356,
				"z": -1.0517996695,
				"element": "C" 
			},
			{
				"x": -2.4973524897,
				"y": -0.6589049507,
				"z": -1.7764813953,
				"element": "C" 
			},
			{
				"x": -3.829715666,
				"y": -0.6406169384,
				"z": -1.3737926261,
				"element": "C" 
			},
			{
				"x": -4.2388776925,
				"y": 0.0887305795,
				"z": -0.2473680213,
				"element": "C" 
			},
			{
				"x": -5.6920451617,
				"y": 0.1298083581,
				"z": 0.1603580037,
				"element": "C" 
			},
			{
				"x": -3.2664121317,
				"y": 0.7990671369,
				"z": 0.4664442688,
				"element": "C" 
			},
			{
				"x": -1.9275075158,
				"y": 0.7859010674,
				"z": 0.0721750897,
				"element": "C" 
			},
			{
				"x": 2.5227642725,
				"y": -4.7845518866,
				"z": 2.476739714,
				"element": "H" 
			},
			{
				"x": 3.9035922969,
				"y": -4.7116080117,
				"z": 1.3685082721,
				"element": "H" 
			},
			{
				"x": 2.5053863088,
				"y": -5.7098463059,
				"z": 0.9727679481,
				"element": "H" 
			},
			{
				"x": 3.5877770579,
				"y": -3.5935411817,
				"z": -0.9254841639,
				"element": "H" 
			},
			{
				"x": 2.5068293074,
				"y": -1.7341944451,
				"z": -2.1460218035,
				"element": "H" 
			},
			{
				"x": -0.4722450181,
				"y": -1.4542584911,
				"z": 0.944264798,
				"element": "H" 
			},
			{
				"x": 0.5989561148,
				"y": -3.3159418529,
				"z": 2.1461566834,
				"element": "H" 
			},
			{
				"x": 1.6033194919,
				"y": 0.6013520023,
				"z": 0.9841202137,
				"element": "H" 
			},
			{
				"x": 2.6095796721,
				"y": 2.6708684826,
				"z": 1.8569412779,
				"element": "H" 
			},
			{
				"x": 3.8556819596,
				"y": 5.2187878327,
				"z": 0.2093611856,
				"element": "H" 
			},
			{
				"x": 2.9300494471,
				"y": 5.0868903617,
				"z": 1.7074819188,
				"element": "H" 
			},
			{
				"x": 2.2755876065,
				"y": 5.9910875631,
				"z": 0.3311426516,
				"element": "H" 
			},
			{
				"x": 1.636280654,
				"y": 4.6999307011,
				"z": -1.800991675,
				"element": "H" 
			},
			{
				"x": 0.6383228942,
				"y": 2.619625857,
				"z": -2.6901040437,
				"element": "H" 
			},
			{
				"x": -2.2011039594,
				"y": -1.2079137717,
				"z": -2.665166813,
				"element": "H" 
			},
			{
				"x": -4.5672394266,
				"y": -1.1971222823,
				"z": -1.9471079953,
				"element": "H" 
			},
			{
				"x": -6.2537282118,
				"y": 0.8416046967,
				"z": -0.4572487053,
				"element": "H" 
			},
			{
				"x": -5.8079344628,
				"y": 0.4381827201,
				"z": 1.2032240722,
				"element": "H" 
			},
			{
				"x": -6.1689502372,
				"y": -0.8479409604,
				"z": 0.0388732717,
				"element": "H" 
			},
			{
				"x": -3.5591359637,
				"y": 1.377154873,
				"z": 1.3395323978,
				"element": "H" 
			},
			{
				"x": -1.1997237034,
				"y": 1.357486146,
				"z": 0.6394027626,
				"element": "H" 
			}
		],
		 "valence_orbital": [ 
			{
				"type": "occ",
				"energy": -0.25196,
				"method": "rhf"
			},
			{
				"type": "occ",
				"energy": -0.25196,
				"method": "rhf"
			},
			{
				"type": "occ",
				"energy": -0.24271,
				"method": "rhf"
			},
			{
				"type": "occ",
				"energy": -0.20755,
				"method": "rhf"
			},
			{
				"type": "occ",
				"energy": -0.20754,
				"method": "rhf"
			},
			{
				"type": "unocc",
				"energy": -0.0263,
				"method": "rhf"
			},
			{
				"type": "unocc",
				"energy": -0.02626,
				"method": "rhf"
			},
			{
				"type": "unocc",
				"energy": -0.01716,
				"method": "rhf"
			},
			{
				"type": "unocc",
				"energy": -0.01429,
				"method": "rhf"
			},
			{
				"type": "unocc",
				"energy": -0.00292,
				"method": "rhf"
			}
		],
		"cosmo_sigma_profile": { 
			"-0.025": 0.0,
			"-0.024": 0.0,
			"-0.023": 0.0,
			"-0.022": 0.0,
			"-0.021": 0.0,
			"-0.02": 0.0,
			"-0.019": 0.0,
			"-0.018": 0.0,
			"-0.017": 0.0,
			"-0.016": 0.0,
			"-0.015": 0.0,
			"-0.014": 0.0,
			"-0.013": 0.0,
			"-0.012": 0.0,
			"-0.011": 0.0,
			"-0.01": 0.0,
			"-0.009": 0.0227599528469,
			"-0.008": 0.226868295615,
			"-0.007": 0.147780782358,
			"-0.006": 9.43384774627,
			"-0.005": 30.4491150255,
			"-0.004": 46.3813885219,
			"-0.003": 36.3921912153,
			"-0.002": 38.7536164332,
			"-0.001": 41.3621204743,
			"0.0": 36.9481147942,
			"0.001": 27.5585254713,
			"0.002": 22.9577358303,
			"0.003": 25.5751890639,
			"0.004": 31.2288093672,
			"0.005": 14.6344294443,
			"0.006": 5.28827919464,
			"0.007": 3.9151397779,
			"0.008": 4.82914990639,
			"0.009": 6.27368581421,
			"0.01": 5.90907622062,
			"0.011": 4.4873689542,
			"0.012": 1.33874333459,
			"0.013": 0.0,
			"0.014": 0.0,
			"0.015": 0.0,
			"0.016": 0.0,
			"0.017": 0.0,
			"0.018": 0.0,
			"0.019": 0.0,
			"0.02": 0.0,
			"0.021": 0.0,
			"0.022": 0.0,
			"0.023": 0.0,
			"0.024": 0.0,
			"0.025": 0.0
		}
	}
}
