{
	 "smiles": "CC(=O)N1C(=O)[C@]2(O[C@]3(OC(=N[C@@H]23)C2=CC=CC=C2)C2=CC=CC=C2)C2=CC=CC=C12", 
	 "Tm": 492.0, 
	 "num_atms": 49, 
	 "gaussian": { 
		 "optdone": 1, 
		 "sigma_profile": "yes", 
		 "theory": "DFT", 
		 "functional": "B3LYP", 
		 "basiset": "6-31G**", 
		 "properties": { 
			 "R2extent": 12844.9815, 
			 "electric_dipole_moment_norm": 3.07213112513, 
			 "electric_quadrupole_moment_norm": 22.8826192074, 
			 "total_energy": -1373.90269296, 
			 "HOMO_LUMO_gap": 0.17891, 
			 "cosmo_polarized_energy": -16.6, 
			 "cosmo_cavitation_energy": 53.07, 
			 "cosmo_dispersion_energy": -36.01, 
			 "cosmo_repulsion_energy": 2.66, 
			 "cosmo_total_nonelectrostatic_energy": 19.72, 
			 "SMD_solvation_energy": 7.01 
		},
		"coords": [
			{
				"x": 2.5046521346,
				"y": -4.0908184179,
				"z": 0.5741223986,
				"element": "C" 
			},
			{
				"x": 1.0129557367,
				"y": -4.3228860213,
				"z": 0.5341530275,
				"element": "C" 
			},
			{
				"x": 0.530512941,
				"y": -5.4398214904,
				"z": 0.4882341162,
				"element": "O" 
			},
			{
				"x": 0.1669380309,
				"y": -3.1871188074,
				"z": 0.537493427,
				"element": "N" 
			},
			{
				"x": 0.5826637269,
				"y": -1.8360096142,
				"z": 0.6406274566,
				"element": "C" 
			},
			{
				"x": 1.7074580004,
				"y": -1.4413839249,
				"z": 0.8387174763,
				"element": "O" 
			},
			{
				"x": -0.6680917116,
				"y": -0.9529365914,
				"z": 0.482705474,
				"element": "C" 
			},
			{
				"x": -0.6927927529,
				"y": 0.1350871947,
				"z": 1.4469274326,
				"element": "O" 
			},
			{
				"x": -0.688663036,
				"y": 1.1501256855,
				"z": 0.4454689539,
				"element": "C" 
			},
			{
				"x": 0.5876600301,
				"y": 1.7996584581,
				"z": 0.3097973877,
				"element": "O" 
			},
			{
				"x": 1.2351797077,
				"y": 1.1937857989,
				"z": -0.7426138959,
				"element": "C" 
			},
			{
				"x": 0.6112968018,
				"y": 0.2701373536,
				"z": -1.379765182,
				"element": "N" 
			},
			{
				"x": -0.6464617802,
				"y": 0.0901081937,
				"z": -0.6983057837,
				"element": "C" 
			},
			{
				"x": 2.5750895578,
				"y": 1.7036359419,
				"z": -1.0528732051,
				"element": "C" 
			},
			{
				"x": 3.2757511942,
				"y": 1.1702891776,
				"z": -2.1463121467,
				"element": "C" 
			},
			{
				"x": 4.5450599437,
				"y": 1.6473929381,
				"z": -2.456970984,
				"element": "C" 
			},
			{
				"x": 5.1249487222,
				"y": 2.6563997772,
				"z": -1.6810818096,
				"element": "C" 
			},
			{
				"x": 4.4308996353,
				"y": 3.1869311247,
				"z": -0.5920359307,
				"element": "C" 
			},
			{
				"x": 3.1580891123,
				"y": 2.7145170486,
				"z": -0.2752167432,
				"element": "C" 
			},
			{
				"x": -1.7691395728,
				"y": 2.178794783,
				"z": 0.6219062801,
				"element": "C" 
			},
			{
				"x": -2.7843352167,
				"y": 1.9908480531,
				"z": 1.566953188,
				"element": "C" 
			},
			{
				"x": -3.8057314056,
				"y": 2.9342855852,
				"z": 1.6962236934,
				"element": "C" 
			},
			{
				"x": -3.8228890962,
				"y": 4.0665846122,
				"z": 0.8815184157,
				"element": "C" 
			},
			{
				"x": -2.8083846492,
				"y": 4.2590835531,
				"z": -0.0601995214,
				"element": "C" 
			},
			{
				"x": -1.7836374038,
				"y": 3.3234177744,
				"z": -0.1874120565,
				"element": "C" 
			},
			{
				"x": -1.7880795635,
				"y": -1.9395465304,
				"z": 0.5317841382,
				"element": "C" 
			},
			{
				"x": -3.1615026109,
				"y": -1.7259706475,
				"z": 0.5327214796,
				"element": "C" 
			},
			{
				"x": -4.015941548,
				"y": -2.8323847057,
				"z": 0.5147054538,
				"element": "C" 
			},
			{
				"x": -3.4851560298,
				"y": -4.1236770279,
				"z": 0.4826933565,
				"element": "C" 
			},
			{
				"x": -2.1039190222,
				"y": -4.3535781428,
				"z": 0.4778068513,
				"element": "C" 
			},
			{
				"x": -1.265004416,
				"y": -3.2414035396,
				"z": 0.5083633859,
				"element": "C" 
			},
			{
				"x": 2.8325393064,
				"y": -3.4380179806,
				"z": -0.2382725274,
				"element": "H" 
			},
			{
				"x": 2.8021365145,
				"y": -3.5975954348,
				"z": 1.5023400088,
				"element": "H" 
			},
			{
				"x": 2.9784179571,
				"y": -5.0693413945,
				"z": 0.4943609313,
				"element": "H" 
			},
			{
				"x": -1.4947441023,
				"y": -0.0002196781,
				"z": -1.3791352978,
				"element": "H" 
			},
			{
				"x": 2.8092050788,
				"y": 0.3873561164,
				"z": -2.7342044414,
				"element": "H" 
			},
			{
				"x": 5.0853320779,
				"y": 1.2334949293,
				"z": -3.30324739,
				"element": "H" 
			},
			{
				"x": 6.116767765,
				"y": 3.0262494799,
				"z": -1.9251624512,
				"element": "H" 
			},
			{
				"x": 4.8814431823,
				"y": 3.9681583268,
				"z": 0.0128889522,
				"element": "H" 
			},
			{
				"x": 2.6136188142,
				"y": 3.1172175829,
				"z": 0.5712397907,
				"element": "H" 
			},
			{
				"x": -2.7556103015,
				"y": 1.114977327,
				"z": 2.2050161453,
				"element": "H" 
			},
			{
				"x": -4.5847537873,
				"y": 2.784593865,
				"z": 2.4381989388,
				"element": "H" 
			},
			{
				"x": -4.618878791,
				"y": 4.7988413074,
				"z": 0.9814555812,
				"element": "H" 
			},
			{
				"x": -2.8123409922,
				"y": 5.1423969388,
				"z": -0.6922182627,
				"element": "H" 
			},
			{
				"x": -0.9874717097,
				"y": 3.4833876025,
				"z": -0.9074545063,
				"element": "H" 
			},
			{
				"x": -3.5591951604,
				"y": -0.7158096592,
				"z": 0.5549274506,
				"element": "H" 
			},
			{
				"x": -5.0916845092,
				"y": -2.6869399213,
				"z": 0.5228495889,
				"element": "H" 
			},
			{
				"x": -4.154986383,
				"y": -4.9784007076,
				"z": 0.4625626536,
				"element": "H" 
			},
			{
				"x": -1.6957204195,
				"y": -5.3524962923,
				"z": 0.4573187015,
				"element": "H" 
			}
		],
		 "valence_orbital": [ 
			{
				"type": "occ",
				"energy": -0.25898,
				"method": "rhf"
			},
			{
				"type": "occ",
				"energy": -0.25799,
				"method": "rhf"
			},
			{
				"type": "occ",
				"energy": -0.25104,
				"method": "rhf"
			},
			{
				"type": "occ",
				"energy": -0.24216,
				"method": "rhf"
			},
			{
				"type": "occ",
				"energy": -0.2352,
				"method": "rhf"
			},
			{
				"type": "unocc",
				"energy": -0.05629,
				"method": "rhf"
			},
			{
				"type": "unocc",
				"energy": -0.04353,
				"method": "rhf"
			},
			{
				"type": "unocc",
				"energy": -0.02389,
				"method": "rhf"
			},
			{
				"type": "unocc",
				"energy": -0.01584,
				"method": "rhf"
			},
			{
				"type": "unocc",
				"energy": -0.01149,
				"method": "rhf"
			}
		],
		"cosmo_sigma_profile": { 
			"-0.025": 0.0,
			"-0.024": 0.0,
			"-0.023": 0.0,
			"-0.022": 0.0,
			"-0.021": 0.0,
			"-0.02": 0.0,
			"-0.019": 0.0,
			"-0.018": 0.0,
			"-0.017": 0.0,
			"-0.016": 0.0,
			"-0.015": 0.0,
			"-0.014": 0.0,
			"-0.013": 0.0,
			"-0.012": 0.0,
			"-0.011": 0.0,
			"-0.01": 0.0901655365256,
			"-0.009": 0.31639868983,
			"-0.008": 0.837687726685,
			"-0.007": 7.15892713283,
			"-0.006": 30.7904457325,
			"-0.005": 41.069813548,
			"-0.004": 41.7423417931,
			"-0.003": 30.9540493824,
			"-0.002": 31.2193131189,
			"-0.001": 25.1906613423,
			"0.0": 23.6448537638,
			"0.001": 28.6685335497,
			"0.002": 32.2296809228,
			"0.003": 35.1999689623,
			"0.004": 36.6624405491,
			"0.005": 17.0658359306,
			"0.006": 8.98323859619,
			"0.007": 7.19407157395,
			"0.008": 7.63312123254,
			"0.009": 6.84897886762,
			"0.01": 6.20570217058,
			"0.011": 3.26591437404,
			"0.012": 2.52744212503,
			"0.013": 1.01437295898,
			"0.014": 0.195799457471,
			"0.015": 0.0,
			"0.016": 0.0,
			"0.017": 0.0,
			"0.018": 0.0,
			"0.019": 0.0,
			"0.02": 0.0,
			"0.021": 0.0,
			"0.022": 0.0,
			"0.023": 0.0,
			"0.024": 0.0,
			"0.025": 0.0
		}
	}
}
