{
	 "smiles": "NC(=O)C12CCN(CC1)CC2", 
	 "Tm": 509.15, 
	 "num_atms": 25, 
	 "gaussian": { 
		 "optdone": 1, 
		 "sigma_profile": "yes", 
		 "theory": "DFT", 
		 "functional": "B3LYP", 
		 "basiset": "6-31G**", 
		 "properties": { 
			 "R2extent": 2410.5195, 
			 "electric_dipole_moment_norm": 3.22484459315, 
			 "electric_quadrupole_moment_norm": 13.9411694344, 
			 "total_energy": -498.020559094, 
			 "HOMO_LUMO_gap": 0.2415, 
			 "cosmo_polarized_energy": -13.9, 
			 "cosmo_cavitation_energy": 24.72, 
			 "cosmo_dispersion_energy": -18.72, 
			 "cosmo_repulsion_energy": 1.48, 
			 "cosmo_total_nonelectrostatic_energy": 7.48, 
			 "SMD_solvation_energy": 0.79 
		},
		"coords": [
			{
				"x": 1.3155830365,
				"y": 1.1338104848,
				"z": -3.4455318266,
				"element": "N" 
			},
			{
				"x": 0.7024215975,
				"y": 0.1647151787,
				"z": -2.6975869467,
				"element": "C" 
			},
			{
				"x": 0.9282305518,
				"y": -1.0227938031,
				"z": -2.8900976092,
				"element": "O" 
			},
			{
				"x": -0.2719614966,
				"y": 0.6639370934,
				"z": -1.6181697157,
				"element": "C" 
			},
			{
				"x": -0.8733070809,
				"y": -0.5434652449,
				"z": -0.8667715853,
				"element": "C" 
			},
			{
				"x": -1.8571538063,
				"y": -0.0165963614,
				"z": 0.2217899384,
				"element": "C" 
			},
			{
				"x": -1.9378866784,
				"y": 1.4535675651,
				"z": 0.2300174695,
				"element": "N" 
			},
			{
				"x": -0.6041450812,
				"y": 2.006878313,
				"z": 0.4971539829,
				"element": "C" 
			},
			{
				"x": 0.4423795917,
				"y": 1.5702595205,
				"z": -0.5800483198,
				"element": "C" 
			},
			{
				"x": -2.4012547541,
				"y": 1.916745281,
				"z": -1.0841831616,
				"element": "C" 
			},
			{
				"x": -1.440176079,
				"y": 1.4773177275,
				"z": -2.2371961479,
				"element": "C" 
			},
			{
				"x": 1.1520031605,
				"y": 2.1172520182,
				"z": -3.3118389442,
				"element": "H" 
			},
			{
				"x": 1.9603644792,
				"y": 0.8362208061,
				"z": -4.1613428844,
				"element": "H" 
			},
			{
				"x": -1.3756561909,
				"y": -1.1999872303,
				"z": -1.5830113194,
				"element": "H" 
			},
			{
				"x": -0.0639879363,
				"y": -1.1348694954,
				"z": -0.4290042563,
				"element": "H" 
			},
			{
				"x": -1.5471130465,
				"y": -0.340987719,
				"z": 1.2211668586,
				"element": "H" 
			},
			{
				"x": -2.8678057029,
				"y": -0.4068315693,
				"z": 0.0592606676,
				"element": "H" 
			},
			{
				"x": -0.293816792,
				"y": 1.6760611242,
				"z": 1.4940082591,
				"element": "H" 
			},
			{
				"x": -0.6908752606,
				"y": 3.0985367158,
				"z": 0.5331828703,
				"element": "H" 
			},
			{
				"x": 1.2735743256,
				"y": 1.0199730118,
				"z": -0.1250276027,
				"element": "H" 
			},
			{
				"x": 0.8782390452,
				"y": 2.4490340958,
				"z": -1.0701565989,
				"element": "H" 
			},
			{
				"x": -2.4889818727,
				"y": 3.0083070357,
				"z": -1.0475679293,
				"element": "H" 
			},
			{
				"x": -3.4083710848,
				"y": 1.518641573,
				"z": -1.247533809,
				"element": "H" 
			},
			{
				"x": -1.0580001676,
				"y": 2.3540629617,
				"z": -2.7735465399,
				"element": "H" 
			},
			{
				"x": -1.9638027572,
				"y": 0.8606109171,
				"z": -2.9762648492,
				"element": "H" 
			}
		],
		 "valence_orbital": [ 
			{
				"type": "occ",
				"energy": -0.30378,
				"method": "rhf"
			},
			{
				"type": "occ",
				"energy": -0.30198,
				"method": "rhf"
			},
			{
				"type": "occ",
				"energy": -0.26258,
				"method": "rhf"
			},
			{
				"type": "occ",
				"energy": -0.24243,
				"method": "rhf"
			},
			{
				"type": "occ",
				"energy": -0.20939,
				"method": "rhf"
			},
			{
				"type": "unocc",
				"energy": 0.03211,
				"method": "rhf"
			},
			{
				"type": "unocc",
				"energy": 0.05242,
				"method": "rhf"
			},
			{
				"type": "unocc",
				"energy": 0.08218,
				"method": "rhf"
			},
			{
				"type": "unocc",
				"energy": 0.10665,
				"method": "rhf"
			},
			{
				"type": "unocc",
				"energy": 0.10711,
				"method": "rhf"
			}
		],
		"cosmo_sigma_profile": { 
			"-0.025": 0.0,
			"-0.024": 0.0,
			"-0.023": 0.0,
			"-0.022": 0.0,
			"-0.021": 0.0,
			"-0.02": 0.0,
			"-0.019": 0.0,
			"-0.018": 0.0,
			"-0.017": 0.0,
			"-0.016": 0.0,
			"-0.015": 0.0,
			"-0.014": 0.379342170159,
			"-0.013": 2.30134983169,
			"-0.012": 1.85486766814,
			"-0.011": 2.85375968151,
			"-0.01": 3.00750215624,
			"-0.009": 2.29738049626,
			"-0.008": 2.17361863325,
			"-0.007": 1.74213108972,
			"-0.006": 2.76963681772,
			"-0.005": 2.37982146142,
			"-0.004": 7.61790560691,
			"-0.003": 31.4447249303,
			"-0.002": 33.2944306248,
			"-0.001": 20.0293014648,
			"0.0": 19.4639846068,
			"0.001": 8.42591935697,
			"0.002": 5.26826386525,
			"0.003": 5.43557311728,
			"0.004": 4.78860732937,
			"0.005": 3.2724666535,
			"0.006": 2.33254465647,
			"0.007": 2.27438028259,
			"0.008": 2.61929182083,
			"0.009": 2.94489347818,
			"0.01": 1.40789547421,
			"0.011": 1.47163691295,
			"0.012": 3.16707861833,
			"0.013": 3.09059925285,
			"0.014": 6.17096288157,
			"0.015": 2.59221329223,
			"0.016": 0.456371932326,
			"0.017": 0.793602249445,
			"0.018": 0.294234402978,
			"0.019": 0.0,
			"0.02": 0.0,
			"0.021": 0.0,
			"0.022": 0.0,
			"0.023": 0.0,
			"0.024": 0.0,
			"0.025": 0.0
		}
	}
}
