{
	 "smiles": "CCN(C(=O)N(CC)C1=CC=CC=C1)C1=CC=CC=C1", 
	 "Tm": 352.15, 
	 "num_atms": 40, 
	 "gaussian": { 
		 "optdone": 1, 
		 "sigma_profile": "yes", 
		 "theory": "DFT", 
		 "functional": "B3LYP", 
		 "basiset": "6-31G**", 
		 "properties": { 
			 "R2extent": 6833.2806, 
			 "electric_dipole_moment_norm": 3.57409349626, 
			 "electric_quadrupole_moment_norm": 10.1281967196, 
			 "total_energy": -844.599360157, 
			 "HOMO_LUMO_gap": 0.18952, 
			 "cosmo_polarized_energy": -13.9, 
			 "cosmo_cavitation_energy": 41.15, 
			 "cosmo_dispersion_energy": -28.28, 
			 "cosmo_repulsion_energy": 2.17, 
			 "cosmo_total_nonelectrostatic_energy": 15.04, 
			 "SMD_solvation_energy": 7.5 
		},
		"coords": [
			{
				"x": -1.0881763057,
				"y": -2.0442683166,
				"z": -2.4834540787,
				"element": "C" 
			},
			{
				"x": 0.1938071706,
				"y": -1.4072305667,
				"z": -1.9446639672,
				"element": "C" 
			},
			{
				"x": 0.0460069409,
				"y": 0.0192808748,
				"z": -1.5981529399,
				"element": "N" 
			},
			{
				"x": 0.6208677427,
				"y": 0.5499288046,
				"z": -0.4342587433,
				"element": "C" 
			},
			{
				"x": 1.061772145,
				"y": 1.6850097379,
				"z": -0.3798636851,
				"element": "O" 
			},
			{
				"x": 0.6340245752,
				"y": -0.3391728787,
				"z": 0.6759247316,
				"element": "N" 
			},
			{
				"x": -0.6635317494,
				"y": -0.8926017571,
				"z": 1.1008122642,
				"element": "C" 
			},
			{
				"x": -1.5425467876,
				"y": 0.1007671285,
				"z": 1.871998948,
				"element": "C" 
			},
			{
				"x": 1.6994468453,
				"y": -0.2548655142,
				"z": 1.6124685589,
				"element": "C" 
			},
			{
				"x": 1.5446843783,
				"y": -0.6811662274,
				"z": 2.9426799088,
				"element": "C" 
			},
			{
				"x": 2.6280827332,
				"y": -0.6777753776,
				"z": 3.8246475374,
				"element": "C" 
			},
			{
				"x": 3.8849876482,
				"y": -0.2464216243,
				"z": 3.4115184863,
				"element": "C" 
			},
			{
				"x": 4.0447363573,
				"y": 0.1803634005,
				"z": 2.0903234358,
				"element": "C" 
			},
			{
				"x": 2.9769297161,
				"y": 0.1737635084,
				"z": 1.2001671078,
				"element": "C" 
			},
			{
				"x": -0.285296794,
				"y": 0.9390813599,
				"z": -2.6455014259,
				"element": "C" 
			},
			{
				"x": -1.0940369236,
				"y": 2.0494590845,
				"z": -2.3607313191,
				"element": "C" 
			},
			{
				"x": -1.4508481357,
				"y": 2.93954996,
				"z": -3.3687768894,
				"element": "C" 
			},
			{
				"x": -1.025046708,
				"y": 2.7310124937,
				"z": -4.6834908499,
				"element": "C" 
			},
			{
				"x": -0.229466276,
				"y": 1.6244618318,
				"z": -4.9728754331,
				"element": "C" 
			},
			{
				"x": 0.1443002324,
				"y": 0.7352581983,
				"z": -3.9625103592,
				"element": "C" 
			},
			{
				"x": -1.9029837744,
				"y": -1.9855523202,
				"z": -1.7552368292,
				"element": "H" 
			},
			{
				"x": -1.4237157612,
				"y": -1.5540553064,
				"z": -3.40089347,
				"element": "H" 
			},
			{
				"x": -0.9082730232,
				"y": -3.1001548038,
				"z": -2.7097606488,
				"element": "H" 
			},
			{
				"x": 0.534145771,
				"y": -1.9214176979,
				"z": -1.0466485111,
				"element": "H" 
			},
			{
				"x": 1.0009947503,
				"y": -1.5230637272,
				"z": -2.6801407297,
				"element": "H" 
			},
			{
				"x": -1.1998639913,
				"y": -1.2179144828,
				"z": 0.2094904654,
				"element": "H" 
			},
			{
				"x": -0.4715370994,
				"y": -1.7917210518,
				"z": 1.6933270202,
				"element": "H" 
			},
			{
				"x": -2.4760113317,
				"y": -0.3831974428,
				"z": 2.1795013432,
				"element": "H" 
			},
			{
				"x": -1.041569515,
				"y": 0.4819211986,
				"z": 2.7649533005,
				"element": "H" 
			},
			{
				"x": -1.798327774,
				"y": 0.9585551063,
				"z": 1.2424692865,
				"element": "H" 
			},
			{
				"x": 0.5835970228,
				"y": -1.0162523795,
				"z": 3.311342779,
				"element": "H" 
			},
			{
				"x": 2.4732627306,
				"y": -1.0138051488,
				"z": 4.8463045526,
				"element": "H" 
			},
			{
				"x": 4.7234109333,
				"y": -0.2397229958,
				"z": 4.1010548861,
				"element": "H" 
			},
			{
				"x": 5.0161089711,
				"y": 0.5200762953,
				"z": 1.741662779,
				"element": "H" 
			},
			{
				"x": 3.1294565536,
				"y": 0.5164353506,
				"z": 0.1848346957,
				"element": "H" 
			},
			{
				"x": -1.4297651048,
				"y": 2.2168857355,
				"z": -1.3435111299,
				"element": "H" 
			},
			{
				"x": -2.072868541,
				"y": 3.7965300698,
				"z": -3.1267512011,
				"element": "H" 
			},
			{
				"x": -1.3120140273,
				"y": 3.4223430179,
				"z": -5.4700417698,
				"element": "H" 
			},
			{
				"x": 0.1131397517,
				"y": 1.448273123,
				"z": -5.9885976233,
				"element": "H" 
			},
			{
				"x": 0.7774166532,
				"y": -0.1096966601,
				"z": -4.2096204834,
				"element": "H" 
			}
		],
		 "valence_orbital": [ 
			{
				"type": "occ",
				"energy": -0.25899,
				"method": "rhf"
			},
			{
				"type": "occ",
				"energy": -0.24758,
				"method": "rhf"
			},
			{
				"type": "occ",
				"energy": -0.24047,
				"method": "rhf"
			},
			{
				"type": "occ",
				"energy": -0.2201,
				"method": "rhf"
			},
			{
				"type": "occ",
				"energy": -0.20165,
				"method": "rhf"
			},
			{
				"type": "unocc",
				"energy": -0.01213,
				"method": "rhf"
			},
			{
				"type": "unocc",
				"energy": 0.00034,
				"method": "rhf"
			},
			{
				"type": "unocc",
				"energy": 0.00749,
				"method": "rhf"
			},
			{
				"type": "unocc",
				"energy": 0.01164,
				"method": "rhf"
			},
			{
				"type": "unocc",
				"energy": 0.03918,
				"method": "rhf"
			}
		],
		"cosmo_sigma_profile": { 
			"-0.025": 0.0,
			"-0.024": 0.0,
			"-0.023": 0.0,
			"-0.022": 0.0,
			"-0.021": 0.0,
			"-0.02": 0.0,
			"-0.019": 0.0,
			"-0.018": 0.0,
			"-0.017": 0.0,
			"-0.016": 0.0,
			"-0.015": 0.0,
			"-0.014": 0.0,
			"-0.013": 0.0,
			"-0.012": 0.0,
			"-0.011": 0.0,
			"-0.01": 0.0,
			"-0.009": 0.0,
			"-0.008": 0.103009993328,
			"-0.007": 2.1653741375,
			"-0.006": 10.4341309747,
			"-0.005": 26.4270775977,
			"-0.004": 38.5686726269,
			"-0.003": 42.2277664263,
			"-0.002": 31.7435673332,
			"-0.001": 26.6308086914,
			"0.0": 27.2082100033,
			"0.001": 19.6553184866,
			"0.002": 14.3921551182,
			"0.003": 15.455686706,
			"0.004": 14.860670687,
			"0.005": 15.8844851177,
			"0.006": 16.5941808178,
			"0.007": 6.36239157349,
			"0.008": 1.63892483777,
			"0.009": 2.74415033428,
			"0.01": 1.72691075962,
			"0.011": 2.14830284879,
			"0.012": 2.7543167237,
			"0.013": 4.80498592518,
			"0.014": 1.83966207601,
			"0.015": 0.000579579472345,
			"0.016": 0.0,
			"0.017": 0.0,
			"0.018": 0.0,
			"0.019": 0.0,
			"0.02": 0.0,
			"0.021": 0.0,
			"0.022": 0.0,
			"0.023": 0.0,
			"0.024": 0.0,
			"0.025": 0.0
		}
	}
}
