{
	 "smiles": "COC1=CC(C)C2CC3OC(=O)CC4C(C)=C(OC)C(=O)C(C34C)C2(C)C1=O", 
	 "Tm": 495.15, 
	 "num_atms": 56, 
	 "gaussian": { 
		 "optdone": 1, 
		 "sigma_profile": "yes", 
		 "theory": "DFT", 
		 "functional": "B3LYP", 
		 "basiset": "6-31G**", 
		 "properties": { 
			 "R2extent": 9493.2625, 
			 "electric_dipole_moment_norm": 4.3371154769, 
			 "electric_quadrupole_moment_norm": 30.8343047677, 
			 "total_energy": -1306.49671538, 
			 "HOMO_LUMO_gap": 0.16506, 
			 "cosmo_polarized_energy": -23.88, 
			 "cosmo_cavitation_energy": 50.05, 
			 "cosmo_dispersion_energy": -33.9, 
			 "cosmo_repulsion_energy": 2.48, 
			 "cosmo_total_nonelectrostatic_energy": 18.62, 
			 "SMD_solvation_energy": 11.24 
		},
		"coords": [
			{
				"x": -3.8067116177,
				"y": 4.6779806555,
				"z": 1.355089606,
				"element": "C" 
			},
			{
				"x": -3.5168217159,
				"y": 3.3071233586,
				"z": 1.5718021712,
				"element": "O" 
			},
			{
				"x": -2.6924301877,
				"y": 2.6892429626,
				"z": 0.6875966637,
				"element": "C" 
			},
			{
				"x": -2.1257270089,
				"y": 3.2475820746,
				"z": -0.4023056782,
				"element": "C" 
			},
			{
				"x": -1.2025661773,
				"y": 2.522808787,
				"z": -1.3466171583,
				"element": "C" 
			},
			{
				"x": -1.8288788158,
				"y": 2.3725538541,
				"z": -2.7523593841,
				"element": "C" 
			},
			{
				"x": -0.6359186172,
				"y": 1.2187230341,
				"z": -0.7204416763,
				"element": "C" 
			},
			{
				"x": 0.6123028777,
				"y": 1.5407259184,
				"z": 0.1565821689,
				"element": "C" 
			},
			{
				"x": 0.4879858531,
				"y": 1.1305473988,
				"z": 1.6244226914,
				"element": "C" 
			},
			{
				"x": 1.6893961897,
				"y": 1.5992105286,
				"z": 2.2915634428,
				"element": "O" 
			},
			{
				"x": 2.7708917967,
				"y": 0.8157740717,
				"z": 2.5312930441,
				"element": "C" 
			},
			{
				"x": 3.8400968653,
				"y": 1.3332285197,
				"z": 2.7539727349,
				"element": "O" 
			},
			{
				"x": 2.5324367985,
				"y": -0.6759742856,
				"z": 2.629691776,
				"element": "C" 
			},
			{
				"x": 1.4169117422,
				"y": -1.2405650371,
				"z": 1.7340365503,
				"element": "C" 
			},
			{
				"x": 1.8478396452,
				"y": -1.5176175897,
				"z": 0.2950061461,
				"element": "C" 
			},
			{
				"x": 3.3055804423,
				"y": -1.6236921006,
				"z": -0.0587968081,
				"element": "C" 
			},
			{
				"x": 0.8868594139,
				"y": -1.8749209947,
				"z": -0.5904359259,
				"element": "C" 
			},
			{
				"x": 1.2463713481,
				"y": -2.4202741808,
				"z": -1.7919720858,
				"element": "O" 
			},
			{
				"x": 0.3954601778,
				"y": -2.2412052323,
				"z": -2.9258276944,
				"element": "C" 
			},
			{
				"x": -0.5329669059,
				"y": -1.8710174825,
				"z": -0.1608382926,
				"element": "C" 
			},
			{
				"x": -1.3381813367,
				"y": -2.6766418988,
				"z": -0.6148571849,
				"element": "O" 
			},
			{
				"x": -0.9845041705,
				"y": -0.8039372306,
				"z": 0.846178852,
				"element": "C" 
			},
			{
				"x": 0.1345270024,
				"y": -0.356299096,
				"z": 1.8665252552,
				"element": "C" 
			},
			{
				"x": -0.4146284298,
				"y": -0.5044115845,
				"z": 3.3069749496,
				"element": "C" 
			},
			{
				"x": -1.6867039447,
				"y": 0.3787553711,
				"z": 0.0630964133,
				"element": "C" 
			},
			{
				"x": -2.7977130588,
				"y": -0.1873566215,
				"z": -0.8686960659,
				"element": "C" 
			},
			{
				"x": -2.4913176619,
				"y": 1.2495914991,
				"z": 1.0512120418,
				"element": "C" 
			},
			{
				"x": -3.0387827126,
				"y": 0.7757443001,
				"z": 2.0321775064,
				"element": "O" 
			},
			{
				"x": -4.3259348562,
				"y": 4.8337660351,
				"z": 0.4000133229,
				"element": "H" 
			},
			{
				"x": -4.458896693,
				"y": 4.9818570993,
				"z": 2.1747053043,
				"element": "H" 
			},
			{
				"x": -2.8941413674,
				"y": 5.2887194779,
				"z": 1.3683261694,
				"element": "H" 
			},
			{
				"x": -2.3424358082,
				"y": 4.2833219668,
				"z": -0.6491938346,
				"element": "H" 
			},
			{
				"x": -0.335347385,
				"y": 3.1808044248,
				"z": -1.5006782374,
				"element": "H" 
			},
			{
				"x": -1.1151662689,
				"y": 1.90430385,
				"z": -3.4390347636,
				"element": "H" 
			},
			{
				"x": -2.7426252892,
				"y": 1.7764308826,
				"z": -2.751619426,
				"element": "H" 
			},
			{
				"x": -2.0790481797,
				"y": 3.3586257386,
				"z": -3.1582259049,
				"element": "H" 
			},
			{
				"x": -0.2947895712,
				"y": 0.5876556337,
				"z": -1.5496361687,
				"element": "H" 
			},
			{
				"x": 1.4956774747,
				"y": 1.0521320466,
				"z": -0.265256108,
				"element": "H" 
			},
			{
				"x": 0.8212223927,
				"y": 2.6144285044,
				"z": 0.1483678081,
				"element": "H" 
			},
			{
				"x": -0.2926064159,
				"y": 1.7369305767,
				"z": 2.0937479306,
				"element": "H" 
			},
			{
				"x": 2.2718912049,
				"y": -0.8619698231,
				"z": 3.6777712548,
				"element": "H" 
			},
			{
				"x": 3.488784078,
				"y": -1.1733737701,
				"z": 2.4685029691,
				"element": "H" 
			},
			{
				"x": 1.1632848151,
				"y": -2.2210312136,
				"z": 2.161637037,
				"element": "H" 
			},
			{
				"x": 3.4268344435,
				"y": -1.8140163591,
				"z": -1.1249053522,
				"element": "H" 
			},
			{
				"x": 3.8513000409,
				"y": -0.7104181153,
				"z": 0.2047450062,
				"element": "H" 
			},
			{
				"x": 3.7881384182,
				"y": -2.4459974376,
				"z": 0.4865373048,
				"element": "H" 
			},
			{
				"x": 0.1984501523,
				"y": -1.1769579452,
				"z": -3.1127072083,
				"element": "H" 
			},
			{
				"x": 0.9494283428,
				"y": -2.6490514617,
				"z": -3.7734984128,
				"element": "H" 
			},
			{
				"x": -0.5492401457,
				"y": -2.7734831251,
				"z": -2.8032435945,
				"element": "H" 
			},
			{
				"x": -1.7870507814,
				"y": -1.2790670229,
				"z": 1.416259363,
				"element": "H" 
			},
			{
				"x": 0.2592448775,
				"y": -0.0594409958,
				"z": 4.0444313647,
				"element": "H" 
			},
			{
				"x": -0.5480167901,
				"y": -1.5617781284,
				"z": 3.5604915451,
				"element": "H" 
			},
			{
				"x": -1.3848896666,
				"y": -0.0154052922,
				"z": 3.3999338031,
				"element": "H" 
			},
			{
				"x": -2.3763982725,
				"y": -0.6438018233,
				"z": -1.766217906,
				"element": "H" 
			},
			{
				"x": -3.4848777584,
				"y": 0.6039040651,
				"z": -1.1762590885,
				"element": "H" 
			},
			{
				"x": -3.3749987829,
				"y": -0.9507667878,
				"z": -0.344568237,
				"element": "H" 
			}
		],
		 "valence_orbital": [ 
			{
				"type": "occ",
				"energy": -0.26253,
				"method": "rhf"
			},
			{
				"type": "occ",
				"energy": -0.25772,
				"method": "rhf"
			},
			{
				"type": "occ",
				"energy": -0.24611,
				"method": "rhf"
			},
			{
				"type": "occ",
				"energy": -0.24214,
				"method": "rhf"
			},
			{
				"type": "occ",
				"energy": -0.22639,
				"method": "rhf"
			},
			{
				"type": "unocc",
				"energy": -0.06133,
				"method": "rhf"
			},
			{
				"type": "unocc",
				"energy": -0.05679,
				"method": "rhf"
			},
			{
				"type": "unocc",
				"energy": 0.008,
				"method": "rhf"
			},
			{
				"type": "unocc",
				"energy": 0.04766,
				"method": "rhf"
			},
			{
				"type": "unocc",
				"energy": 0.05366,
				"method": "rhf"
			}
		],
		"cosmo_sigma_profile": { 
			"-0.025": 0.0,
			"-0.024": 0.0,
			"-0.023": 0.0,
			"-0.022": 0.0,
			"-0.021": 0.0,
			"-0.02": 0.0,
			"-0.019": 0.0,
			"-0.018": 0.0,
			"-0.017": 0.0,
			"-0.016": 0.0,
			"-0.015": 0.0,
			"-0.014": 0.0,
			"-0.013": 0.0,
			"-0.012": 0.0,
			"-0.011": 0.0,
			"-0.01": 0.00363619296901,
			"-0.009": 0.177654440913,
			"-0.008": 1.69185133141,
			"-0.007": 5.3497191548,
			"-0.006": 19.8846357464,
			"-0.005": 34.6880399984,
			"-0.004": 47.6808033311,
			"-0.003": 53.4747213938,
			"-0.002": 38.4720277348,
			"-0.001": 33.216972736,
			"0.0": 32.1455793627,
			"0.001": 20.7432142579,
			"0.002": 10.7706833359,
			"0.003": 8.70553297105,
			"0.004": 7.07231970089,
			"0.005": 8.56551376816,
			"0.006": 8.04999160109,
			"0.007": 7.04650128028,
			"0.008": 6.67646157309,
			"0.009": 6.11647991368,
			"0.01": 8.77026578042,
			"0.011": 10.062608664,
			"0.012": 11.2552510784,
			"0.013": 6.0117430698,
			"0.014": 1.99247658148,
			"0.015": 1.14508151447,
			"0.016": 0.29465130618,
			"0.017": 0.0,
			"0.018": 0.0,
			"0.019": 0.0,
			"0.02": 0.0,
			"0.021": 0.0,
			"0.022": 0.0,
			"0.023": 0.0,
			"0.024": 0.0,
			"0.025": 0.0
		}
	}
}
