{
	 "smiles": "ClC(=CC1=CC=CC=C1)C1=CC=CC2=C1C=CC=C2", 
	 "Tm": 390.15, 
	 "num_atms": 32, 
	 "gaussian": { 
		 "optdone": 1, 
		 "sigma_profile": "yes", 
		 "theory": "DFT", 
		 "functional": "B3LYP", 
		 "basiset": "6-31G**", 
		 "properties": { 
			 "R2extent": 6802.3163, 
			 "electric_dipole_moment_norm": 1.53391399042, 
			 "electric_quadrupole_moment_norm": 12.5836466181, 
			 "total_energy": -1153.9414235, 
			 "HOMO_LUMO_gap": 0.16402, 
			 "cosmo_polarized_energy": -7.29, 
			 "cosmo_cavitation_energy": 37.48, 
			 "cosmo_dispersion_energy": -26.97, 
			 "cosmo_repulsion_energy": 2.05, 
			 "cosmo_total_nonelectrostatic_energy": 12.55, 
			 "SMD_solvation_energy": 5.63 
		},
		"coords": [
			{
				"x": 0.7646149602,
				"y": -0.4214410194,
				"z": -2.1548263661,
				"element": "Cl" 
			},
			{
				"x": -0.1995440046,
				"y": 0.196096409,
				"z": -0.7970254223,
				"element": "C" 
			},
			{
				"x": -1.100620214,
				"y": -0.5493371101,
				"z": -0.1303381404,
				"element": "C" 
			},
			{
				"x": -1.5783451487,
				"y": -1.9330906427,
				"z": -0.2388025515,
				"element": "C" 
			},
			{
				"x": -1.2987861391,
				"y": -2.8220305244,
				"z": -1.2961600839,
				"element": "C" 
			},
			{
				"x": -1.8186861659,
				"y": -4.1149808047,
				"z": -1.2925288168,
				"element": "C" 
			},
			{
				"x": -2.6255887427,
				"y": -4.558492453,
				"z": -0.242875414,
				"element": "C" 
			},
			{
				"x": -2.9178594085,
				"y": -3.6897732019,
				"z": 0.81021577,
				"element": "C" 
			},
			{
				"x": -2.4040829242,
				"y": -2.3964888206,
				"z": 0.8069298966,
				"element": "C" 
			},
			{
				"x": 0.0412275835,
				"y": 1.6308428778,
				"z": -0.4914046548,
				"element": "C" 
			},
			{
				"x": -0.9750654429,
				"y": 2.5377722648,
				"z": -0.7375356768,
				"element": "C" 
			},
			{
				"x": -0.8086645066,
				"y": 3.9176094769,
				"z": -0.4769341594,
				"element": "C" 
			},
			{
				"x": 0.3822827244,
				"y": 4.385334737,
				"z": 0.0253023592,
				"element": "C" 
			},
			{
				"x": 1.4517460125,
				"y": 3.4928883739,
				"z": 0.3071946965,
				"element": "C" 
			},
			{
				"x": 1.2869967924,
				"y": 2.0905714864,
				"z": 0.054614976,
				"element": "C" 
			},
			{
				"x": 2.3553443903,
				"y": 1.2139985404,
				"z": 0.3872536953,
				"element": "C" 
			},
			{
				"x": 3.5305187006,
				"y": 1.6983730598,
				"z": 0.9181489367,
				"element": "C" 
			},
			{
				"x": 3.6991715178,
				"y": 3.0843183501,
				"z": 1.1480843665,
				"element": "C" 
			},
			{
				"x": 2.6790479185,
				"y": 3.9587434551,
				"z": 0.8515699423,
				"element": "C" 
			},
			{
				"x": -1.5620911232,
				"y": 0.0004990493,
				"z": 0.6887115939,
				"element": "H" 
			},
			{
				"x": -0.6826191502,
				"y": -2.5018265927,
				"z": -2.1245875281,
				"element": "H" 
			},
			{
				"x": -1.591358204,
				"y": -4.7807788132,
				"z": -2.1203518832,
				"element": "H" 
			},
			{
				"x": -3.0249769619,
				"y": -5.5685364637,
				"z": -0.2475265037,
				"element": "H" 
			},
			{
				"x": -3.5476219357,
				"y": -4.0179370962,
				"z": 1.6321877912,
				"element": "H" 
			},
			{
				"x": -2.6389667884,
				"y": -1.725465496,
				"z": 1.6293544906,
				"element": "H" 
			},
			{
				"x": -1.9104564812,
				"y": 2.1787179487,
				"z": -1.1554750268,
				"element": "H" 
			},
			{
				"x": -1.6245798869,
				"y": 4.6028458071,
				"z": -0.6866833552,
				"element": "H" 
			},
			{
				"x": 0.5220292163,
				"y": 5.445577827,
				"z": 0.2198993146,
				"element": "H" 
			},
			{
				"x": 2.2354984373,
				"y": 0.1490474657,
				"z": 0.2231496607,
				"element": "H" 
			},
			{
				"x": 4.3341670789,
				"y": 1.0109009833,
				"z": 1.1656938558,
				"element": "H" 
			},
			{
				"x": 4.631887038,
				"y": 3.4530457796,
				"z": 1.5649073768,
				"element": "H" 
			},
			{
				"x": 2.7944808581,
				"y": 5.0238951471,
				"z": 1.0353368603,
				"element": "H" 
			}
		],
		 "valence_orbital": [ 
			{
				"type": "occ",
				"energy": -0.28045,
				"method": "rhf"
			},
			{
				"type": "occ",
				"energy": -0.25184,
				"method": "rhf"
			},
			{
				"type": "occ",
				"energy": -0.24599,
				"method": "rhf"
			},
			{
				"type": "occ",
				"energy": -0.22593,
				"method": "rhf"
			},
			{
				"type": "occ",
				"energy": -0.21478,
				"method": "rhf"
			},
			{
				"type": "unocc",
				"energy": -0.05076,
				"method": "rhf"
			},
			{
				"type": "unocc",
				"energy": -0.03479,
				"method": "rhf"
			},
			{
				"type": "unocc",
				"energy": -0.01158,
				"method": "rhf"
			},
			{
				"type": "unocc",
				"energy": -0.00126,
				"method": "rhf"
			},
			{
				"type": "unocc",
				"energy": 0.0175,
				"method": "rhf"
			}
		],
		"cosmo_sigma_profile": { 
			"-0.025": 0.0,
			"-0.024": 0.0,
			"-0.023": 0.0,
			"-0.022": 0.0,
			"-0.021": 0.0,
			"-0.02": 0.0,
			"-0.019": 0.0,
			"-0.018": 0.0,
			"-0.017": 0.0,
			"-0.016": 0.0,
			"-0.015": 0.0,
			"-0.014": 0.0,
			"-0.013": 0.0,
			"-0.012": 0.0,
			"-0.011": 0.0,
			"-0.01": 0.0,
			"-0.009": 0.0,
			"-0.008": 0.383665285437,
			"-0.007": 2.99252046862,
			"-0.006": 18.8875361711,
			"-0.005": 22.2568052961,
			"-0.004": 26.436623045,
			"-0.003": 22.3051640962,
			"-0.002": 19.5855824258,
			"-0.001": 19.9245652563,
			"0.0": 19.6916038209,
			"0.001": 22.9650574516,
			"0.002": 25.8866802115,
			"0.003": 35.4367151819,
			"0.004": 38.3852421263,
			"0.005": 26.0806302029,
			"0.006": 2.37652010352,
			"0.007": 0.0,
			"0.008": 0.0,
			"0.009": 0.0,
			"0.01": 0.0,
			"0.011": 0.0,
			"0.012": 0.0,
			"0.013": 0.0,
			"0.014": 0.0,
			"0.015": 0.0,
			"0.016": 0.0,
			"0.017": 0.0,
			"0.018": 0.0,
			"0.019": 0.0,
			"0.02": 0.0,
			"0.021": 0.0,
			"0.022": 0.0,
			"0.023": 0.0,
			"0.024": 0.0,
			"0.025": 0.0
		}
	}
}
