{
	 "smiles": "CC(=NO)C1=CC=C(OCC(F)(F)F)C=C1", 
	 "Tm": 401.15, 
	 "num_atms": 26, 
	 "gaussian": { 
		 "optdone": 1, 
		 "sigma_profile": "yes", 
		 "theory": "DFT", 
		 "functional": "B3LYP", 
		 "basiset": "6-31G**", 
		 "properties": { 
			 "R2extent": 6171.5419, 
			 "electric_dipole_moment_norm": 2.01534496799, 
			 "electric_quadrupole_moment_norm": 9.64735672503, 
			 "total_energy": -891.74802281, 
			 "HOMO_LUMO_gap": 0.18654, 
			 "cosmo_polarized_energy": -11.62, 
			 "cosmo_cavitation_energy": 32.0, 
			 "cosmo_dispersion_energy": -22.88, 
			 "cosmo_repulsion_energy": 1.74, 
			 "cosmo_total_nonelectrostatic_energy": 10.86, 
			 "SMD_solvation_energy": 6.96 
		},
		"coords": [
			{
				"x": -2.7800548309,
				"y": -3.6074510778,
				"z": 1.7402819916,
				"element": "C" 
			},
			{
				"x": -1.3771287643,
				"y": -3.6864484709,
				"z": 1.1747105959,
				"element": "C" 
			},
			{
				"x": -0.994423576,
				"y": -4.9046334649,
				"z": 0.9847028765,
				"element": "N" 
			},
			{
				"x": 0.3170419779,
				"y": -5.0420880861,
				"z": 0.4999048213,
				"element": "O" 
			},
			{
				"x": -0.6401105169,
				"y": -2.4240764068,
				"z": 0.9167009973,
				"element": "C" 
			},
			{
				"x": -1.0500319537,
				"y": -1.2461479277,
				"z": 1.5639854686,
				"element": "C" 
			},
			{
				"x": -0.4159868793,
				"y": -0.0216561157,
				"z": 1.3523812011,
				"element": "C" 
			},
			{
				"x": 0.6526172785,
				"y": 0.050464523,
				"z": 0.4550446017,
				"element": "C" 
			},
			{
				"x": 1.3473239756,
				"y": 1.1930649786,
				"z": 0.162848177,
				"element": "O" 
			},
			{
				"x": 0.9728219385,
				"y": 2.385872253,
				"z": 0.8115178326,
				"element": "C" 
			},
			{
				"x": 1.8966925441,
				"y": 3.4844285748,
				"z": 0.3160177769,
				"element": "C" 
			},
			{
				"x": 1.7930589069,
				"y": 3.6646861811,
				"z": -1.0113780171,
				"element": "F" 
			},
			{
				"x": 1.5586567653,
				"y": 4.6435356821,
				"z": 0.9237524188,
				"element": "F" 
			},
			{
				"x": 3.1831459819,
				"y": 3.2238306777,
				"z": 0.6024149947,
				"element": "F" 
			},
			{
				"x": 1.0708904246,
				"y": -1.1047276422,
				"z": -0.217241836,
				"element": "C" 
			},
			{
				"x": 0.4415799994,
				"y": -2.3186754637,
				"z": 0.0126562679,
				"element": "C" 
			},
			{
				"x": -3.2131866689,
				"y": -4.6081387276,
				"z": 1.7637041377,
				"element": "H" 
			},
			{
				"x": -2.779561409,
				"y": -3.2147417866,
				"z": 2.7636658051,
				"element": "H" 
			},
			{
				"x": -3.4168285269,
				"y": -2.9533413061,
				"z": 1.135216069,
				"element": "H" 
			},
			{
				"x": 0.406060671,
				"y": -6.0027682049,
				"z": 0.4535692933,
				"element": "H" 
			},
			{
				"x": -1.8805373039,
				"y": -1.2714016439,
				"z": 2.2602396222,
				"element": "H" 
			},
			{
				"x": -0.7669763943,
				"y": 0.8538770767,
				"z": 1.8861798908,
				"element": "H" 
			},
			{
				"x": -0.0588275194,
				"y": 2.6766552903,
				"z": 0.5760966262,
				"element": "H" 
			},
			{
				"x": 1.0821641005,
				"y": 2.3141364135,
				"z": 1.90106227,
				"element": "H" 
			},
			{
				"x": 1.8960081489,
				"y": -1.0274371985,
				"z": -0.917527271,
				"element": "H" 
			},
			{
				"x": 0.7820916305,
				"y": -3.1970181274,
				"z": -0.5151066121,
				"element": "H" 
			}
		],
		 "valence_orbital": [ 
			{
				"type": "occ",
				"energy": -0.33511,
				"method": "rhf"
			},
			{
				"type": "occ",
				"energy": -0.26759,
				"method": "rhf"
			},
			{
				"type": "occ",
				"energy": -0.26601,
				"method": "rhf"
			},
			{
				"type": "occ",
				"energy": -0.25853,
				"method": "rhf"
			},
			{
				"type": "occ",
				"energy": -0.22018,
				"method": "rhf"
			},
			{
				"type": "unocc",
				"energy": -0.03364,
				"method": "rhf"
			},
			{
				"type": "unocc",
				"energy": -0.00929,
				"method": "rhf"
			},
			{
				"type": "unocc",
				"energy": 0.05215,
				"method": "rhf"
			},
			{
				"type": "unocc",
				"energy": 0.07586,
				"method": "rhf"
			},
			{
				"type": "unocc",
				"energy": 0.08238,
				"method": "rhf"
			}
		],
		"cosmo_sigma_profile": { 
			"-0.025": 0.0,
			"-0.024": 0.0,
			"-0.023": 0.0,
			"-0.022": 0.0,
			"-0.021": 0.0,
			"-0.02": 0.0,
			"-0.019": 0.0,
			"-0.018": 0.0473838464821,
			"-0.017": 0.724832350319,
			"-0.016": 0.868724102461,
			"-0.015": 1.03802106346,
			"-0.014": 0.969025385995,
			"-0.013": 0.608923347334,
			"-0.012": 0.345096701423,
			"-0.011": 0.766694229979,
			"-0.01": 0.633729794379,
			"-0.009": 4.03875029052,
			"-0.008": 9.63377867437,
			"-0.007": 7.72049832939,
			"-0.006": 9.71111563138,
			"-0.005": 11.3518857971,
			"-0.004": 13.3396109468,
			"-0.003": 13.612909877,
			"-0.002": 11.6299924108,
			"-0.001": 15.6895618922,
			"0.0": 14.4852133616,
			"0.001": 15.0780068327,
			"0.002": 34.7663665968,
			"0.003": 36.4399255855,
			"0.004": 18.9172699923,
			"0.005": 10.6505081191,
			"0.006": 6.64332258123,
			"0.007": 5.75612464113,
			"0.008": 2.32703550832,
			"0.009": 1.85236552266,
			"0.01": 1.74402666717,
			"0.011": 1.52617976709,
			"0.012": 0.716365417721,
			"0.013": 0.94239206829,
			"0.014": 0.165669246753,
			"0.015": 0.0,
			"0.016": 0.0,
			"0.017": 0.0,
			"0.018": 0.0,
			"0.019": 0.0,
			"0.02": 0.0,
			"0.021": 0.0,
			"0.022": 0.0,
			"0.023": 0.0,
			"0.024": 0.0,
			"0.025": 0.0
		}
	}
}
