{
	 "smiles": "NC1=NC=C(S1)C1=CC(Cl)=CC=C1", 
	 "Tm": 417.15, 
	 "num_atms": 20, 
	 "gaussian": { 
		 "optdone": 1, 
		 "sigma_profile": "yes", 
		 "theory": "DFT", 
		 "functional": "B3LYP", 
		 "basiset": "6-31G**", 
		 "properties": { 
			 "R2extent": 4670.6793, 
			 "electric_dipole_moment_norm": 3.40818617303, 
			 "electric_quadrupole_moment_norm": 12.5893734459, 
			 "total_energy": -1315.0592132, 
			 "HOMO_LUMO_gap": 0.16325, 
			 "cosmo_polarized_energy": -11.59, 
			 "cosmo_cavitation_energy": 28.02, 
			 "cosmo_dispersion_energy": -21.45, 
			 "cosmo_repulsion_energy": 1.65, 
			 "cosmo_total_nonelectrostatic_energy": 8.21, 
			 "SMD_solvation_energy": 2.47 
		},
		"coords": [
			{
				"x": -1.2564660284,
				"y": 2.4978563297,
				"z": -2.2918515452,
				"element": "N" 
			},
			{
				"x": -0.744035369,
				"y": 1.8793012409,
				"z": -1.1773686592,
				"element": "C" 
			},
			{
				"x": -0.3843069084,
				"y": 2.5149520464,
				"z": -0.0963397883,
				"element": "N" 
			},
			{
				"x": 0.0136211696,
				"y": 1.6266832252,
				"z": 0.8723078588,
				"element": "C" 
			},
			{
				"x": -0.0135145551,
				"y": 0.2913134201,
				"z": 0.567705479,
				"element": "C" 
			},
			{
				"x": -0.6170830441,
				"y": 0.1193416557,
				"z": -1.0870104404,
				"element": "S" 
			},
			{
				"x": 0.3663411882,
				"y": -0.8575170195,
				"z": 1.390733392,
				"element": "C" 
			},
			{
				"x": 1.2819555149,
				"y": -0.6887238121,
				"z": 2.4476167257,
				"element": "C" 
			},
			{
				"x": 1.6216358727,
				"y": -1.772319012,
				"z": 3.2496702518,
				"element": "C" 
			},
			{
				"x": 2.7642819075,
				"y": -1.5320961021,
				"z": 4.5670142903,
				"element": "Cl" 
			},
			{
				"x": 1.0974128201,
				"y": -3.0457996695,
				"z": 3.0271124176,
				"element": "C" 
			},
			{
				"x": 0.2035425457,
				"y": -3.2157235162,
				"z": 1.9694501808,
				"element": "C" 
			},
			{
				"x": -0.1639116909,
				"y": -2.1407388742,
				"z": 1.1636609834,
				"element": "C" 
			},
			{
				"x": -1.1047822192,
				"y": 3.4981204027,
				"z": -2.2947397627,
				"element": "H" 
			},
			{
				"x": -1.1038048044,
				"y": 2.0504500297,
				"z": -3.1840176875,
				"element": "H" 
			},
			{
				"x": 0.3170272366,
				"y": 2.0172843653,
				"z": 1.8372084384,
				"element": "H" 
			},
			{
				"x": 1.7398831467,
				"y": 0.2765154898,
				"z": 2.6285417128,
				"element": "H" 
			},
			{
				"x": 1.385928778,
				"y": -3.8760844153,
				"z": 3.6612693206,
				"element": "H" 
			},
			{
				"x": -0.2173084054,
				"y": -4.1985841492,
				"z": 1.7791375361,
				"element": "H" 
			},
			{
				"x": -0.8810171551,
				"y": -2.2923316353,
				"z": 0.3626992961,
				"element": "H" 
			}
		],
		 "valence_orbital": [ 
			{
				"type": "occ",
				"energy": -0.28463,
				"method": "rhf"
			},
			{
				"type": "occ",
				"energy": -0.27756,
				"method": "rhf"
			},
			{
				"type": "occ",
				"energy": -0.26749,
				"method": "rhf"
			},
			{
				"type": "occ",
				"energy": -0.24848,
				"method": "rhf"
			},
			{
				"type": "occ",
				"energy": -0.20496,
				"method": "rhf"
			},
			{
				"type": "unocc",
				"energy": -0.04171,
				"method": "rhf"
			},
			{
				"type": "unocc",
				"energy": -0.01534,
				"method": "rhf"
			},
			{
				"type": "unocc",
				"energy": 0.00273,
				"method": "rhf"
			},
			{
				"type": "unocc",
				"energy": 0.01971,
				"method": "rhf"
			},
			{
				"type": "unocc",
				"energy": 0.02915,
				"method": "rhf"
			}
		],
		"cosmo_sigma_profile": { 
			"-0.025": 0.0,
			"-0.024": 0.0,
			"-0.023": 0.0,
			"-0.022": 0.0,
			"-0.021": 0.0,
			"-0.02": 0.0,
			"-0.019": 0.0,
			"-0.018": 0.0,
			"-0.017": 0.0,
			"-0.016": 0.0,
			"-0.015": 0.73881955461,
			"-0.014": 2.46605256945,
			"-0.013": 2.43187343945,
			"-0.012": 2.60420046694,
			"-0.011": 2.15428044148,
			"-0.01": 3.15886479935,
			"-0.009": 2.12741637803,
			"-0.008": 3.56161105928,
			"-0.007": 7.13899077466,
			"-0.006": 10.7432021532,
			"-0.005": 9.89741036879,
			"-0.004": 9.94990289477,
			"-0.003": 9.96703022329,
			"-0.002": 9.85310161465,
			"-0.001": 10.9276822408,
			"0.0": 14.6205300204,
			"0.001": 19.7365902997,
			"0.002": 24.8762857293,
			"0.003": 30.3868317703,
			"0.004": 25.428060744,
			"0.005": 10.6722974874,
			"0.006": 2.46227386665,
			"0.007": 2.322673255,
			"0.008": 2.31270643797,
			"0.009": 1.85499367211,
			"0.01": 1.32982621836,
			"0.011": 1.4853992544,
			"0.012": 1.2270367081,
			"0.013": 0.960434984398,
			"0.014": 1.08699525902,
			"0.015": 0.826705078212,
			"0.016": 0.169622966948,
			"0.017": 0.0,
			"0.018": 0.0,
			"0.019": 0.0,
			"0.02": 0.0,
			"0.021": 0.0,
			"0.022": 0.0,
			"0.023": 0.0,
			"0.024": 0.0,
			"0.025": 0.0
		}
	}
}
