{
	 "smiles": "CC12CCC3C(CCC4=CC(O)=CC=C34)C1CCC2(O)C#C", 
	 "Tm": 414.15, 
	 "num_atms": 46, 
	 "gaussian": { 
		 "optdone": 1, 
		 "sigma_profile": "yes", 
		 "theory": "DFT", 
		 "functional": "B3LYP", 
		 "basiset": "6-31G**", 
		 "properties": { 
			 "R2extent": 8127.8777, 
			 "electric_dipole_moment_norm": 1.98308483429, 
			 "electric_quadrupole_moment_norm": 14.4929894525, 
			 "total_energy": -926.969007504, 
			 "HOMO_LUMO_gap": 0.20903, 
			 "cosmo_polarized_energy": -15.79, 
			 "cosmo_cavitation_energy": 42.75, 
			 "cosmo_dispersion_energy": -29.72, 
			 "cosmo_repulsion_energy": 2.19, 
			 "cosmo_total_nonelectrostatic_energy": 15.23, 
			 "SMD_solvation_energy": 7.47 
		},
		"coords": [
			{
				"x": 1.0540408506,
				"y": -2.2036086419,
				"z": 0.3763551004,
				"element": "C" 
			},
			{
				"x": 0.3691319589,
				"y": -1.126439418,
				"z": 1.2334054092,
				"element": "C" 
			},
			{
				"x": 0.8429604103,
				"y": 0.2759939382,
				"z": 0.7908189287,
				"element": "C" 
			},
			{
				"x": 0.4254588887,
				"y": 0.6047445537,
				"z": -0.6507399587,
				"element": "C" 
			},
			{
				"x": -1.0964995687,
				"y": 0.387944377,
				"z": -0.9284690749,
				"element": "C" 
			},
			{
				"x": -1.851014931,
				"y": -0.0274505001,
				"z": 0.358889965,
				"element": "C" 
			},
			{
				"x": -3.3279232294,
				"y": -0.2889635223,
				"z": 0.0127008235,
				"element": "C" 
			},
			{
				"x": -3.4926312887,
				"y": -1.4438600237,
				"z": -0.980746152,
				"element": "C" 
			},
			{
				"x": -2.5381432514,
				"y": -1.357043977,
				"z": -2.1571206009,
				"element": "C" 
			},
			{
				"x": -2.8088858395,
				"y": -2.1310429539,
				"z": -3.2904520467,
				"element": "C" 
			},
			{
				"x": -1.9775279405,
				"y": -2.0899427732,
				"z": -4.4086094534,
				"element": "C" 
			},
			{
				"x": -2.3081155397,
				"y": -2.8775195267,
				"z": -5.4776524961,
				"element": "O" 
			},
			{
				"x": -0.860748686,
				"y": -1.2497951523,
				"z": -4.4001685729,
				"element": "C" 
			},
			{
				"x": -0.590403387,
				"y": -0.4833131328,
				"z": -3.2694887665,
				"element": "C" 
			},
			{
				"x": -1.3985672535,
				"y": -0.5257999746,
				"z": -2.1229133478,
				"element": "C" 
			},
			{
				"x": -1.2081534492,
				"y": -1.2055360801,
				"z": 1.1379359439,
				"element": "C" 
			},
			{
				"x": -1.7348245385,
				"y": -1.2496873552,
				"z": 2.6058370878,
				"element": "C" 
			},
			{
				"x": -0.5665903203,
				"y": -0.7579555945,
				"z": 3.4732182738,
				"element": "C" 
			},
			{
				"x": 0.6688516181,
				"y": -1.3653019906,
				"z": 2.7749801429,
				"element": "C" 
			},
			{
				"x": 0.7593605303,
				"y": -2.7637992192,
				"z": 3.0929126779,
				"element": "O" 
			},
			{
				"x": 1.9334849271,
				"y": -0.7831114172,
				"z": 3.2361258403,
				"element": "C" 
			},
			{
				"x": 2.9636544057,
				"y": -0.2913101923,
				"z": 3.6291612036,
				"element": "C" 
			},
			{
				"x": 0.7751841677,
				"y": -2.1068046558,
				"z": -0.6761373595,
				"element": "H" 
			},
			{
				"x": 2.144078941,
				"y": -2.1262855105,
				"z": 0.4532147473,
				"element": "H" 
			},
			{
				"x": 0.7765488476,
				"y": -3.2076481162,
				"z": 0.7038336055,
				"element": "H" 
			},
			{
				"x": 0.4501273463,
				"y": 1.0382995823,
				"z": 1.4741969582,
				"element": "H" 
			},
			{
				"x": 1.9325787805,
				"y": 0.3348822756,
				"z": 0.8721505673,
				"element": "H" 
			},
			{
				"x": 0.7009842646,
				"y": 1.6429467678,
				"z": -0.8670273958,
				"element": "H" 
			},
			{
				"x": 1.0213959097,
				"y": -0.0092327357,
				"z": -1.3303175191,
				"element": "H" 
			},
			{
				"x": -1.5137120724,
				"y": 1.3699525158,
				"z": -1.1964273371,
				"element": "H" 
			},
			{
				"x": -1.8229635604,
				"y": 0.8447017491,
				"z": 1.0269165505,
				"element": "H" 
			},
			{
				"x": -3.913568019,
				"y": -0.4922529695,
				"z": 0.916528847,
				"element": "H" 
			},
			{
				"x": -3.7457260765,
				"y": 0.6266159149,
				"z": -0.4259589746,
				"element": "H" 
			},
			{
				"x": -3.3434273702,
				"y": -2.4041057224,
				"z": -0.4675372967,
				"element": "H" 
			},
			{
				"x": -4.5241787307,
				"y": -1.4709847644,
				"z": -1.3514295865,
				"element": "H" 
			},
			{
				"x": -3.6827393759,
				"y": -2.7761740431,
				"z": -3.3181400396,
				"element": "H" 
			},
			{
				"x": -1.6556235827,
				"y": -2.7454970932,
				"z": -6.1773971813,
				"element": "H" 
			},
			{
				"x": -0.2099197142,
				"y": -1.1905930751,
				"z": -5.2703686974,
				"element": "H" 
			},
			{
				"x": 0.2727190535,
				"y": 0.1751071191,
				"z": -3.2931857454,
				"element": "H" 
			},
			{
				"x": -1.4693169392,
				"y": -2.1385267604,
				"z": 0.627530187,
				"element": "H" 
			},
			{
				"x": -2.6324729867,
				"y": -0.6403247852,
				"z": 2.7465628107,
				"element": "H" 
			},
			{
				"x": -2.021274366,
				"y": -2.2700920228,
				"z": 2.8926964,
				"element": "H" 
			},
			{
				"x": -0.5061933509,
				"y": 0.3348478353,
				"z": 3.4561228889,
				"element": "H" 
			},
			{
				"x": -0.6182519358,
				"y": -1.0742003837,
				"z": 4.5184363014,
				"element": "H" 
			},
			{
				"x": -0.0974993457,
				"y": -3.1646591623,
				"z": 2.8947720669,
				"element": "H" 
			},
			{
				"x": 3.875435749,
				"y": 0.134526617,
				"z": 3.9786842751,
				"element": "H" 
			}
		],
		 "valence_orbital": [ 
			{
				"type": "occ",
				"energy": -0.27405,
				"method": "rhf"
			},
			{
				"type": "occ",
				"energy": -0.2667,
				"method": "rhf"
			},
			{
				"type": "occ",
				"energy": -0.24815,
				"method": "rhf"
			},
			{
				"type": "occ",
				"energy": -0.23859,
				"method": "rhf"
			},
			{
				"type": "occ",
				"energy": -0.21024,
				"method": "rhf"
			},
			{
				"type": "unocc",
				"energy": -0.00121,
				"method": "rhf"
			},
			{
				"type": "unocc",
				"energy": 0.01696,
				"method": "rhf"
			},
			{
				"type": "unocc",
				"energy": 0.03798,
				"method": "rhf"
			},
			{
				"type": "unocc",
				"energy": 0.05517,
				"method": "rhf"
			},
			{
				"type": "unocc",
				"energy": 0.07267,
				"method": "rhf"
			}
		],
		"cosmo_sigma_profile": { 
			"-0.025": 0.0,
			"-0.024": 0.0,
			"-0.023": 0.0,
			"-0.022": 0.0,
			"-0.021": 0.0,
			"-0.02": 0.0,
			"-0.019": 0.0,
			"-0.018": 0.00904095703038,
			"-0.017": 0.912323099081,
			"-0.016": 0.964455883074,
			"-0.015": 1.18500979259,
			"-0.014": 1.83668820098,
			"-0.013": 1.86674084692,
			"-0.012": 1.80831547052,
			"-0.011": 3.46519754898,
			"-0.01": 2.84571858933,
			"-0.009": 3.01684190626,
			"-0.008": 3.40205376402,
			"-0.007": 4.47367664486,
			"-0.006": 3.40333787873,
			"-0.005": 6.92996857168,
			"-0.004": 15.6696734871,
			"-0.003": 29.1905094709,
			"-0.002": 41.4545528662,
			"-0.001": 44.2870389474,
			"0.0": 39.2798844604,
			"0.001": 23.8541772096,
			"0.002": 16.4937796693,
			"0.003": 12.5500926631,
			"0.004": 13.7675352738,
			"0.005": 15.4227958109,
			"0.006": 15.2539668564,
			"0.007": 9.22781164653,
			"0.008": 4.12246748976,
			"0.009": 3.1200907839,
			"0.01": 3.34502086862,
			"0.011": 3.29778881292,
			"0.012": 3.39681557276,
			"0.013": 1.79978050486,
			"0.014": 1.74223817563,
			"0.015": 0.061448623743,
			"0.016": 0.0,
			"0.017": 0.0,
			"0.018": 0.0,
			"0.019": 0.0,
			"0.02": 0.0,
			"0.021": 0.0,
			"0.022": 0.0,
			"0.023": 0.0,
			"0.024": 0.0,
			"0.025": 0.0
		}
	}
}
