{
	 "smiles": "O=C1CN(C(=O)N1)C1=CC=CC=C1", 
	 "Tm": 464.15, 
	 "num_atms": 21, 
	 "gaussian": { 
		 "optdone": 1, 
		 "sigma_profile": "yes", 
		 "theory": "DFT", 
		 "functional": "B3LYP", 
		 "basiset": "6-31G**", 
		 "properties": { 
			 "R2extent": 2992.7523, 
			 "electric_dipole_moment_norm": 1.81993963087, 
			 "electric_quadrupole_moment_norm": 11.1887623972, 
			 "total_energy": -607.766083641, 
			 "HOMO_LUMO_gap": 0.20146, 
			 "cosmo_polarized_energy": -14.31, 
			 "cosmo_cavitation_energy": 25.21, 
			 "cosmo_dispersion_energy": -19.03, 
			 "cosmo_repulsion_energy": 1.49, 
			 "cosmo_total_nonelectrostatic_energy": 7.66, 
			 "SMD_solvation_energy": 5.47 
		},
		"coords": [
			{
				"x": -3.9211792666,
				"y": 1.2481278,
				"z": 0.0723732695,
				"element": "O" 
			},
			{
				"x": -2.7125059598,
				"y": 1.1909564128,
				"z": 0.0275819455,
				"element": "C" 
			},
			{
				"x": -1.8513835357,
				"y": 0.6331668187,
				"z": -1.1047084737,
				"element": "C" 
			},
			{
				"x": -0.4820415197,
				"y": 0.8143449398,
				"z": -0.6320773409,
				"element": "N" 
			},
			{
				"x": -0.4639705213,
				"y": 1.404092245,
				"z": 0.6243335881,
				"element": "C" 
			},
			{
				"x": 0.4829491284,
				"y": 1.7039898368,
				"z": 1.3230016297,
				"element": "O" 
			},
			{
				"x": -1.8112594355,
				"y": 1.611415432,
				"z": 0.9798016233,
				"element": "N" 
			},
			{
				"x": 0.6450468968,
				"y": 0.4213730579,
				"z": -1.3965392857,
				"element": "C" 
			},
			{
				"x": 1.9594148364,
				"y": 0.601374744,
				"z": -0.9300635225,
				"element": "C" 
			},
			{
				"x": 3.0322579665,
				"y": 0.1972105217,
				"z": -1.7216795902,
				"element": "C" 
			},
			{
				"x": 2.830621208,
				"y": -0.3854641989,
				"z": -2.9740998815,
				"element": "C" 
			},
			{
				"x": 1.5270392977,
				"y": -0.5625495068,
				"z": -3.4337188989,
				"element": "C" 
			},
			{
				"x": 0.4395280928,
				"y": -0.1646837494,
				"z": -2.6564333175,
				"element": "C" 
			},
			{
				"x": -2.049805755,
				"y": 1.1865798528,
				"z": -2.0296936597,
				"element": "H" 
			},
			{
				"x": -2.0978807891,
				"y": -0.4212373951,
				"z": -1.2741614468,
				"element": "H" 
			},
			{
				"x": -2.0627353938,
				"y": 2.0335258356,
				"z": 1.8622796847,
				"element": "H" 
			},
			{
				"x": 2.1256921408,
				"y": 1.051378435,
				"z": 0.0379222784,
				"element": "H" 
			},
			{
				"x": 4.0412853412,
				"y": 0.3432869479,
				"z": -1.3467393757,
				"element": "H" 
			},
			{
				"x": 3.6755239349,
				"y": -0.6958956134,
				"z": -3.5808523474,
				"element": "H" 
			},
			{
				"x": 1.3446283561,
				"y": -1.0135465018,
				"z": -4.4048382472,
				"element": "H" 
			},
			{
				"x": -0.5626250228,
				"y": -0.3154459148,
				"z": -3.0408886314,
				"element": "H" 
			}
		],
		 "valence_orbital": [ 
			{
				"type": "occ",
				"energy": -0.3,
				"method": "rhf"
			},
			{
				"type": "occ",
				"energy": -0.29949,
				"method": "rhf"
			},
			{
				"type": "occ",
				"energy": -0.27253,
				"method": "rhf"
			},
			{
				"type": "occ",
				"energy": -0.25688,
				"method": "rhf"
			},
			{
				"type": "occ",
				"energy": -0.22718,
				"method": "rhf"
			},
			{
				"type": "unocc",
				"energy": -0.02572,
				"method": "rhf"
			},
			{
				"type": "unocc",
				"energy": -0.0083,
				"method": "rhf"
			},
			{
				"type": "unocc",
				"energy": -0.00027,
				"method": "rhf"
			},
			{
				"type": "unocc",
				"energy": 0.06122,
				"method": "rhf"
			},
			{
				"type": "unocc",
				"energy": 0.078,
				"method": "rhf"
			}
		],
		"cosmo_sigma_profile": { 
			"-0.025": 0.0,
			"-0.024": 0.0,
			"-0.023": 0.0,
			"-0.022": 0.0,
			"-0.021": 0.0,
			"-0.02": 0.0,
			"-0.019": 0.0,
			"-0.018": 0.0,
			"-0.017": 0.758778128425,
			"-0.016": 1.40387287876,
			"-0.015": 0.900916252401,
			"-0.014": 1.00286946397,
			"-0.013": 0.785669373339,
			"-0.012": 0.976715208221,
			"-0.011": 0.776105745747,
			"-0.01": 0.820186116363,
			"-0.009": 3.85127467257,
			"-0.008": 10.0287286139,
			"-0.007": 7.9958899769,
			"-0.006": 10.7292470534,
			"-0.005": 12.5499254797,
			"-0.004": 12.5801592073,
			"-0.003": 14.4525307379,
			"-0.002": 11.9940298017,
			"-0.001": 9.96478543397,
			"0.0": 9.06087409426,
			"0.001": 7.90568424584,
			"0.002": 11.9234342702,
			"0.003": 10.7291751939,
			"0.004": 10.7487166035,
			"0.005": 13.0912815827,
			"0.006": 7.78597485273,
			"0.007": 2.01531211507,
			"0.008": 3.05003976787,
			"0.009": 3.13045324789,
			"0.01": 3.94535571962,
			"0.011": 7.5591567787,
			"0.012": 8.35580612094,
			"0.013": 1.26381527425,
			"0.014": 0.0,
			"0.015": 0.0,
			"0.016": 0.0,
			"0.017": 0.0,
			"0.018": 0.0,
			"0.019": 0.0,
			"0.02": 0.0,
			"0.021": 0.0,
			"0.022": 0.0,
			"0.023": 0.0,
			"0.024": 0.0,
			"0.025": 0.0
		}
	}
}
