{
	 "smiles": "COC1=CC(O)=C(C=C1)C(=O)C1=C(O)C=CC=C1", 
	 "Tm": 341.15, 
	 "num_atms": 30, 
	 "gaussian": { 
		 "optdone": 1, 
		 "sigma_profile": "yes", 
		 "theory": "DFT", 
		 "functional": "B3LYP", 
		 "basiset": "6-31G**", 
		 "properties": { 
			 "R2extent": 5719.897, 
			 "electric_dipole_moment_norm": 4.98237495779, 
			 "electric_quadrupole_moment_norm": 8.4925678861, 
			 "total_energy": -841.624195568, 
			 "HOMO_LUMO_gap": 0.14894, 
			 "cosmo_polarized_energy": -10.66, 
			 "cosmo_cavitation_energy": 33.45, 
			 "cosmo_dispersion_energy": -25.25, 
			 "cosmo_repulsion_energy": 1.91, 
			 "cosmo_total_nonelectrostatic_energy": 10.11, 
			 "SMD_solvation_energy": 7.22 
		},
		"coords": [
			{
				"x": 1.9152605867,
				"y": 4.437389497,
				"z": -1.1458428857,
				"element": "C" 
			},
			{
				"x": 1.4818761166,
				"y": 3.4678996124,
				"z": -2.0921442514,
				"element": "O" 
			},
			{
				"x": 0.9698651498,
				"y": 2.2963146711,
				"z": -1.6413463142,
				"element": "C" 
			},
			{
				"x": 0.5839243634,
				"y": 1.387905267,
				"z": -2.6274687051,
				"element": "C" 
			},
			{
				"x": 0.0589592948,
				"y": 0.1428034792,
				"z": -2.2799032695,
				"element": "C" 
			},
			{
				"x": -0.2374414204,
				"y": -0.703679919,
				"z": -3.2751348367,
				"element": "O" 
			},
			{
				"x": -0.1607597346,
				"y": -0.1865784067,
				"z": -0.9014207927,
				"element": "C" 
			},
			{
				"x": 0.2830212816,
				"y": 0.7422109525,
				"z": 0.0638500319,
				"element": "C" 
			},
			{
				"x": 0.8424232326,
				"y": 1.9621940333,
				"z": -0.2772067176,
				"element": "C" 
			},
			{
				"x": -0.7630407675,
				"y": -1.4787594424,
				"z": -0.5614912404,
				"element": "C" 
			},
			{
				"x": -0.7485602743,
				"y": -2.4024951442,
				"z": -1.4286753066,
				"element": "O" 
			},
			{
				"x": -1.3854088487,
				"y": -1.7665522743,
				"z": 0.7468204844,
				"element": "C" 
			},
			{
				"x": -1.4958156324,
				"y": -3.1236072975,
				"z": 1.1725825523,
				"element": "C" 
			},
			{
				"x": -1.1000228858,
				"y": -4.1584360818,
				"z": 0.4158778822,
				"element": "O" 
			},
			{
				"x": -2.0265917226,
				"y": -3.4142933249,
				"z": 2.4403584446,
				"element": "C" 
			},
			{
				"x": -2.5176702579,
				"y": -2.3979106771,
				"z": 3.2456182588,
				"element": "C" 
			},
			{
				"x": -2.4976348567,
				"y": -1.0655418454,
				"z": 2.8069813706,
				"element": "C" 
			},
			{
				"x": -1.9352570754,
				"y": -0.7637944284,
				"z": 1.5761881955,
				"element": "C" 
			},
			{
				"x": 2.7358516384,
				"y": 4.0567186799,
				"z": -0.5258138079,
				"element": "H" 
			},
			{
				"x": 2.2712407485,
				"y": 5.2858107715,
				"z": -1.7314165825,
				"element": "H" 
			},
			{
				"x": 1.0926261439,
				"y": 4.7640850495,
				"z": -0.4984236403,
				"element": "H" 
			},
			{
				"x": 0.7214685082,
				"y": 1.633668223,
				"z": -3.6737267091,
				"element": "H" 
			},
			{
				"x": -0.4633223877,
				"y": -1.566429684,
				"z": -2.8484779252,
				"element": "H" 
			},
			{
				"x": 0.2199354833,
				"y": 0.4785660297,
				"z": 1.1125739472,
				"element": "H" 
			},
			{
				"x": 1.1848250889,
				"y": 2.6319128388,
				"z": 0.5010114621,
				"element": "H" 
			},
			{
				"x": -0.9106854237,
				"y": -3.7917961559,
				"z": -0.4806692624,
				"element": "H" 
			},
			{
				"x": -2.0672824291,
				"y": -4.4542933963,
				"z": 2.7461613272,
				"element": "H" 
			},
			{
				"x": -2.9448391899,
				"y": -2.6435179101,
				"z": 4.2139304986,
				"element": "H" 
			},
			{
				"x": -2.9262094072,
				"y": -0.2783884065,
				"z": 3.4185581611,
				"element": "H" 
			},
			{
				"x": -1.9496353229,
				"y": 0.2598952896,
				"z": 1.2212496308,
				"element": "H" 
			}
		],
		 "valence_orbital": [ 
			{
				"type": "occ",
				"energy": -0.27393,
				"method": "rhf"
			},
			{
				"type": "occ",
				"energy": -0.26345,
				"method": "rhf"
			},
			{
				"type": "occ",
				"energy": -0.23972,
				"method": "rhf"
			},
			{
				"type": "occ",
				"energy": -0.2318,
				"method": "rhf"
			},
			{
				"type": "occ",
				"energy": -0.22419,
				"method": "rhf"
			},
			{
				"type": "unocc",
				"energy": -0.07525,
				"method": "rhf"
			},
			{
				"type": "unocc",
				"energy": -0.01693,
				"method": "rhf"
			},
			{
				"type": "unocc",
				"energy": 0.00296,
				"method": "rhf"
			},
			{
				"type": "unocc",
				"energy": 0.00474,
				"method": "rhf"
			},
			{
				"type": "unocc",
				"energy": 0.05343,
				"method": "rhf"
			}
		],
		"cosmo_sigma_profile": { 
			"-0.025": 0.0,
			"-0.024": 0.0,
			"-0.023": 0.0,
			"-0.022": 0.0,
			"-0.021": 0.0,
			"-0.02": 0.0,
			"-0.019": 0.0,
			"-0.018": 0.0,
			"-0.017": 0.0,
			"-0.016": 0.0,
			"-0.015": 0.0,
			"-0.014": 0.0,
			"-0.013": 0.0,
			"-0.012": 0.0,
			"-0.011": 0.0,
			"-0.01": 0.0,
			"-0.009": 0.0,
			"-0.008": 0.057558936454,
			"-0.007": 5.67939830445,
			"-0.006": 19.939857333,
			"-0.005": 23.5116236624,
			"-0.004": 23.369987836,
			"-0.003": 22.4407827827,
			"-0.002": 17.2133576171,
			"-0.001": 16.7585106587,
			"0.0": 16.6108241682,
			"0.001": 17.8945775079,
			"0.002": 24.6426730282,
			"0.003": 27.4468375521,
			"0.004": 17.8539516633,
			"0.005": 8.48222384325,
			"0.006": 5.03722956808,
			"0.007": 4.88318148998,
			"0.008": 4.29250381818,
			"0.009": 3.94258906468,
			"0.01": 4.02402867602,
			"0.011": 3.44594014559,
			"0.012": 0.758333002747,
			"0.013": 0.0,
			"0.014": 0.0,
			"0.015": 0.0,
			"0.016": 0.0,
			"0.017": 0.0,
			"0.018": 0.0,
			"0.019": 0.0,
			"0.02": 0.0,
			"0.021": 0.0,
			"0.022": 0.0,
			"0.023": 0.0,
			"0.024": 0.0,
			"0.025": 0.0
		}
	}
}
