{
	 "smiles": "COC1CCN(CC1)C(=O)NC1=CC(=CC=C1)C(O)=O", 
	 "Tm": 470.15, 
	 "num_atms": 38, 
	 "gaussian": { 
		 "optdone": 1, 
		 "sigma_profile": "yes", 
		 "theory": "DFT", 
		 "functional": "B3LYP", 
		 "basiset": "6-31G**", 
		 "properties": { 
			 "R2extent": 10084.3749, 
			 "electric_dipole_moment_norm": 8.00596545146, 
			 "electric_quadrupole_moment_norm": 33.8975880826, 
			 "total_energy": -954.756156596, 
			 "HOMO_LUMO_gap": 0.18111, 
			 "cosmo_polarized_energy": -24.83, 
			 "cosmo_cavitation_energy": 40.39, 
			 "cosmo_dispersion_energy": -29.43, 
			 "cosmo_repulsion_energy": 2.25, 
			 "cosmo_total_nonelectrostatic_energy": 13.21, 
			 "SMD_solvation_energy": 7.79 
		},
		"coords": [
			{
				"x": -4.114900086,
				"y": -3.4036990222,
				"z": 0.5068188985,
				"element": "C" 
			},
			{
				"x": -3.078984795,
				"y": -2.8449905116,
				"z": -0.2767809783,
				"element": "O" 
			},
			{
				"x": -1.7664407138,
				"y": -3.1528712179,
				"z": 0.1859551185,
				"element": "C" 
			},
			{
				"x": -1.4153741917,
				"y": -2.3875645365,
				"z": 1.4948603065,
				"element": "C" 
			},
			{
				"x": -0.0865404454,
				"y": -1.6302914303,
				"z": 1.3977309211,
				"element": "C" 
			},
			{
				"x": -0.0893577784,
				"y": -0.731716635,
				"z": 0.2391191833,
				"element": "N" 
			},
			{
				"x": -0.607796016,
				"y": -1.2513124643,
				"z": -1.0323517814,
				"element": "C" 
			},
			{
				"x": -0.810621904,
				"y": -2.7660735954,
				"z": -0.9470381203,
				"element": "C" 
			},
			{
				"x": 0.3190637163,
				"y": 0.5726570365,
				"z": 0.4305554872,
				"element": "C" 
			},
			{
				"x": 0.7790791986,
				"y": 0.973513458,
				"z": 1.4973825553,
				"element": "O" 
			},
			{
				"x": 0.1714447435,
				"y": 1.3909667168,
				"z": -0.6881971575,
				"element": "N" 
			},
			{
				"x": 0.5095232587,
				"y": 2.7496031601,
				"z": -0.8113618193,
				"element": "C" 
			},
			{
				"x": 0.2014814746,
				"y": 3.3782194531,
				"z": -2.0290427972,
				"element": "C" 
			},
			{
				"x": 0.4925633723,
				"y": 4.7312125014,
				"z": -2.2360352749,
				"element": "C" 
			},
			{
				"x": 1.0864829063,
				"y": 5.4794096724,
				"z": -1.2132903241,
				"element": "C" 
			},
			{
				"x": 1.4074730446,
				"y": 4.8508461006,
				"z": -0.01343216,
				"element": "C" 
			},
			{
				"x": 1.1312209199,
				"y": 3.5001361584,
				"z": 0.2014940426,
				"element": "C" 
			},
			{
				"x": 0.1615435329,
				"y": 5.430124916,
				"z": -3.5197045546,
				"element": "C" 
			},
			{
				"x": 0.0611961089,
				"y": 4.6446979151,
				"z": -4.6301599136,
				"element": "O" 
			},
			{
				"x": -0.0126411073,
				"y": 6.6221804801,
				"z": -3.6077457731,
				"element": "O" 
			},
			{
				"x": -4.0300081427,
				"y": -4.5004271248,
				"z": 0.5646179764,
				"element": "H" 
			},
			{
				"x": -5.0588374356,
				"y": -3.1481089252,
				"z": 0.019660335,
				"element": "H" 
			},
			{
				"x": -4.1320092135,
				"y": -3.0046453053,
				"z": 1.5314067481,
				"element": "H" 
			},
			{
				"x": -1.6945691444,
				"y": -4.2400051649,
				"z": 0.3520245319,
				"element": "H" 
			},
			{
				"x": -2.2133144136,
				"y": -1.6599579745,
				"z": 1.6801853792,
				"element": "H" 
			},
			{
				"x": -1.3819764934,
				"y": -3.0635100571,
				"z": 2.3558714653,
				"element": "H" 
			},
			{
				"x": 0.0808663804,
				"y": -1.0109394753,
				"z": 2.2783135196,
				"element": "H" 
			},
			{
				"x": 0.7561112275,
				"y": -2.3333795704,
				"z": 1.3346251208,
				"element": "H" 
			},
			{
				"x": -1.5731798902,
				"y": -0.785699309,
				"z": -1.2814027946,
				"element": "H" 
			},
			{
				"x": 0.0978307982,
				"y": -1.0297872654,
				"z": -1.8447486805,
				"element": "H" 
			},
			{
				"x": -1.2197005663,
				"y": -3.1302214014,
				"z": -1.8935399675,
				"element": "H" 
			},
			{
				"x": 0.1555062884,
				"y": -3.2588719612,
				"z": -0.7955740249,
				"element": "H" 
			},
			{
				"x": -0.3036590486,
				"y": 1.002835691,
				"z": -1.4875019348,
				"element": "H" 
			},
			{
				"x": -0.318197639,
				"y": 2.8072767119,
				"z": -2.7970866553,
				"element": "H" 
			},
			{
				"x": 1.2869587568,
				"y": 6.5314157513,
				"z": -1.380705453,
				"element": "H" 
			},
			{
				"x": 1.8807741482,
				"y": 5.4192425555,
				"z": 0.7819134811,
				"element": "H" 
			},
			{
				"x": 1.3712073749,
				"y": 3.0187626821,
				"z": 1.1382278348,
				"element": "H" 
			},
			{
				"x": 0.4129817738,
				"y": 3.7645719872,
				"z": -4.4373627404,
				"element": "H" 
			}
		],
		 "valence_orbital": [ 
			{
				"type": "occ",
				"energy": -0.2682,
				"method": "rhf"
			},
			{
				"type": "occ",
				"energy": -0.26233,
				"method": "rhf"
			},
			{
				"type": "occ",
				"energy": -0.26106,
				"method": "rhf"
			},
			{
				"type": "occ",
				"energy": -0.24494,
				"method": "rhf"
			},
			{
				"type": "occ",
				"energy": -0.22341,
				"method": "rhf"
			},
			{
				"type": "unocc",
				"energy": -0.0423,
				"method": "rhf"
			},
			{
				"type": "unocc",
				"energy": -0.01275,
				"method": "rhf"
			},
			{
				"type": "unocc",
				"energy": 0.0439,
				"method": "rhf"
			},
			{
				"type": "unocc",
				"energy": 0.05593,
				"method": "rhf"
			},
			{
				"type": "unocc",
				"energy": 0.0624,
				"method": "rhf"
			}
		],
		"cosmo_sigma_profile": { 
			"-0.025": 0.0,
			"-0.024": 0.0,
			"-0.023": 0.0,
			"-0.022": 0.0,
			"-0.021": 0.0,
			"-0.02": 0.0,
			"-0.019": 0.0742968405926,
			"-0.018": 0.720212351238,
			"-0.017": 0.73259905134,
			"-0.016": 1.51853816177,
			"-0.015": 0.986045897791,
			"-0.014": 1.67581182258,
			"-0.013": 2.29291338328,
			"-0.012": 3.13786914855,
			"-0.011": 3.54428167424,
			"-0.01": 2.11829591406,
			"-0.009": 2.2037866559,
			"-0.008": 3.04316098839,
			"-0.007": 4.4035459362,
			"-0.006": 6.95946259547,
			"-0.005": 13.0732598491,
			"-0.004": 30.8865099316,
			"-0.003": 39.9700604033,
			"-0.002": 33.8563204239,
			"-0.001": 23.5723223624,
			"0.0": 16.0555161247,
			"0.001": 15.7556330112,
			"0.002": 16.7419322923,
			"0.003": 18.6826223043,
			"0.004": 14.9173635203,
			"0.005": 7.0675229757,
			"0.006": 6.47074019922,
			"0.007": 5.50681869294,
			"0.008": 6.08866395438,
			"0.009": 5.88065409195,
			"0.01": 6.91104381148,
			"0.011": 8.56013136909,
			"0.012": 8.02805786808,
			"0.013": 4.51895039251,
			"0.014": 2.34528779686,
			"0.015": 0.036188596133,
			"0.016": 0.0,
			"0.017": 0.0,
			"0.018": 0.0,
			"0.019": 0.0,
			"0.02": 0.0,
			"0.021": 0.0,
			"0.022": 0.0,
			"0.023": 0.0,
			"0.024": 0.0,
			"0.025": 0.0
		}
	}
}
