{
	 "smiles": "ClCCC(=O)C1=CC=C(Br)C=C1", 
	 "Tm": 333.15, 
	 "num_atms": 20, 
	 "gaussian": { 
		 "optdone": 1, 
		 "sigma_profile": "yes", 
		 "theory": "DFT", 
		 "functional": "B3LYP", 
		 "basiset": "6-31G**", 
		 "properties": { 
			 "R2extent": 6940.3931, 
			 "electric_dipole_moment_norm": 1.81196172421, 
			 "electric_quadrupole_moment_norm": 7.01175166774, 
			 "total_energy": -3454.60415845, 
			 "HOMO_LUMO_gap": 0.18187, 
			 "cosmo_polarized_energy": -9.65, 
			 "cosmo_cavitation_energy": 28.57, 
			 "cosmo_dispersion_energy": -21.1, 
			 "cosmo_repulsion_energy": 1.7, 
			 "cosmo_total_nonelectrostatic_energy": 9.17, 
			 "SMD_solvation_energy": 3.77 
		},
		"coords": [
			{
				"x": -2.8429230661,
				"y": 2.1784150315,
				"z": -1.3142175682,
				"element": "Cl" 
			},
			{
				"x": -1.3238615952,
				"y": 1.5401006823,
				"z": -0.5519674451,
				"element": "C" 
			},
			{
				"x": -0.1346870663,
				"y": 1.6474994005,
				"z": -1.508925434,
				"element": "C" 
			},
			{
				"x": 1.1336071081,
				"y": 1.1170228758,
				"z": -0.8339779162,
				"element": "C" 
			},
			{
				"x": 1.8602252749,
				"y": 1.8908630388,
				"z": -0.2290222836,
				"element": "O" 
			},
			{
				"x": 1.4492379484,
				"y": -0.3457737863,
				"z": -0.8856549717,
				"element": "C" 
			},
			{
				"x": 2.6056220525,
				"y": -0.7889432421,
				"z": -0.2217869569,
				"element": "C" 
			},
			{
				"x": 2.9597531777,
				"y": -2.1325248296,
				"z": -0.221000298,
				"element": "C" 
			},
			{
				"x": 2.1445912633,
				"y": -3.0488627407,
				"z": -0.8904791163,
				"element": "C" 
			},
			{
				"x": 2.6194851448,
				"y": -4.8947263977,
				"z": -0.8947585425,
				"element": "Br" 
			},
			{
				"x": 0.9900515077,
				"y": -2.6385350546,
				"z": -1.5558452586,
				"element": "C" 
			},
			{
				"x": 0.6488044476,
				"y": -1.2869007119,
				"z": -1.5515328265,
				"element": "C" 
			},
			{
				"x": -1.1538035032,
				"y": 2.130364514,
				"z": 0.3491625937,
				"element": "H" 
			},
			{
				"x": -1.5331795602,
				"y": 0.5073892958,
				"z": -0.2688298833,
				"element": "H" 
			},
			{
				"x": -0.3560844831,
				"y": 1.1168137087,
				"z": -2.4385569667,
				"element": "H" 
			},
			{
				"x": 0.04606289,
				"y": 2.6978243088,
				"z": -1.7465850753,
				"element": "H" 
			},
			{
				"x": 3.2162687581,
				"y": -0.0533124843,
				"z": 0.2907707368,
				"element": "H" 
			},
			{
				"x": 3.8533934363,
				"y": -2.471381869,
				"z": 0.2904569625,
				"element": "H" 
			},
			{
				"x": 0.3700789822,
				"y": -3.3635460194,
				"z": -2.0702442208,
				"element": "H" 
			},
			{
				"x": -0.2498427174,
				"y": -0.9799857206,
				"z": -2.0763055294,
				"element": "H" 
			}
		],
		 "valence_orbital": [ 
			{
				"type": "occ",
				"energy": -0.30292,
				"method": "rhf"
			},
			{
				"type": "occ",
				"energy": -0.3012,
				"method": "rhf"
			},
			{
				"type": "occ",
				"energy": -0.28217,
				"method": "rhf"
			},
			{
				"type": "occ",
				"energy": -0.26362,
				"method": "rhf"
			},
			{
				"type": "occ",
				"energy": -0.26024,
				"method": "rhf"
			},
			{
				"type": "unocc",
				"energy": -0.07837,
				"method": "rhf"
			},
			{
				"type": "unocc",
				"energy": -0.03192,
				"method": "rhf"
			},
			{
				"type": "unocc",
				"energy": -0.00631,
				"method": "rhf"
			},
			{
				"type": "unocc",
				"energy": 0.00281,
				"method": "rhf"
			},
			{
				"type": "unocc",
				"energy": 0.03924,
				"method": "rhf"
			}
		],
		"cosmo_sigma_profile": { 
			"-0.025": 0.0,
			"-0.024": 0.0,
			"-0.023": 0.0,
			"-0.022": 0.0,
			"-0.021": 0.0,
			"-0.02": 0.0,
			"-0.019": 0.0,
			"-0.018": 0.0,
			"-0.017": 0.0,
			"-0.016": 0.0,
			"-0.015": 0.0,
			"-0.014": 0.0,
			"-0.013": 0.0,
			"-0.012": 0.0,
			"-0.011": 0.0,
			"-0.01": 0.105379917672,
			"-0.009": 1.75724402409,
			"-0.008": 4.91761022225,
			"-0.007": 11.5291785325,
			"-0.006": 16.4477120657,
			"-0.005": 16.4237869909,
			"-0.004": 13.6686223039,
			"-0.003": 13.8763351511,
			"-0.002": 10.7162115585,
			"-0.001": 13.1718908563,
			"0.0": 15.8933422443,
			"0.001": 22.2177082598,
			"0.002": 27.0804882181,
			"0.003": 13.9709803627,
			"0.004": 16.9288773791,
			"0.005": 8.4323740663,
			"0.006": 11.2410046469,
			"0.007": 3.76171165073,
			"0.008": 1.09062653152,
			"0.009": 1.97811799785,
			"0.01": 2.292325715,
			"0.011": 3.79062250226,
			"0.012": 2.186187259,
			"0.013": 0.436115293564,
			"0.014": 0.0,
			"0.015": 0.0,
			"0.016": 0.0,
			"0.017": 0.0,
			"0.018": 0.0,
			"0.019": 0.0,
			"0.02": 0.0,
			"0.021": 0.0,
			"0.022": 0.0,
			"0.023": 0.0,
			"0.024": 0.0,
			"0.025": 0.0
		}
	}
}
