{
	 "smiles": "ClC1=CC=C(C=C1)C1=C(Cl)C=C(Cl)C=C1Cl", 
	 "Tm": 338.15, 
	 "num_atms": 22, 
	 "gaussian": { 
		 "optdone": 1, 
		 "sigma_profile": "yes", 
		 "theory": "DFT", 
		 "functional": "B3LYP", 
		 "basiset": "6-31G**", 
		 "properties": { 
			 "R2extent": 7718.8265, 
			 "electric_dipole_moment_norm": 1.09734502323, 
			 "electric_quadrupole_moment_norm": 5.88691232991, 
			 "total_energy": -2301.66322163, 
			 "HOMO_LUMO_gap": 0.2107, 
			 "cosmo_polarized_energy": -5.93, 
			 "cosmo_cavitation_energy": 34.3, 
			 "cosmo_dispersion_energy": -24.42, 
			 "cosmo_repulsion_energy": 1.93, 
			 "cosmo_total_nonelectrostatic_energy": 11.82, 
			 "SMD_solvation_energy": 4.63 
		},
		"coords": [
			{
				"x": -3.3034195116,
				"y": -1.6223817305,
				"z": -2.4931069617,
				"element": "Cl" 
			},
			{
				"x": -2.0651179939,
				"y": -1.2844349877,
				"z": -1.2936831136,
				"element": "C" 
			},
			{
				"x": -0.8206997896,
				"y": -1.904394,
				"z": -1.3998042681,
				"element": "C" 
			},
			{
				"x": 0.1570697626,
				"y": -1.6315747171,
				"z": -0.4444219639,
				"element": "C" 
			},
			{
				"x": -0.0985168904,
				"y": -0.7478204617,
				"z": 0.6113599048,
				"element": "C" 
			},
			{
				"x": -1.3559663581,
				"y": -0.137437544,
				"z": 0.6966432502,
				"element": "C" 
			},
			{
				"x": -2.3432737034,
				"y": -0.400819575,
				"z": -0.2515457751,
				"element": "C" 
			},
			{
				"x": 0.9544665723,
				"y": -0.4604488865,
				"z": 1.6314077135,
				"element": "C" 
			},
			{
				"x": 1.8757674118,
				"y": 0.5912841351,
				"z": 1.4764992429,
				"element": "C" 
			},
			{
				"x": 1.8043614424,
				"y": 1.6087590335,
				"z": 0.049937911,
				"element": "Cl" 
			},
			{
				"x": 2.8652434579,
				"y": 0.8753261907,
				"z": 2.4168610211,
				"element": "C" 
			},
			{
				"x": 2.94303342,
				"y": 0.0822587394,
				"z": 3.5580286245,
				"element": "C" 
			},
			{
				"x": 4.1774542786,
				"y": 0.4191201234,
				"z": 4.7539562442,
				"element": "Cl" 
			},
			{
				"x": 2.0601782959,
				"y": -0.9729929865,
				"z": 3.7684685649,
				"element": "C" 
			},
			{
				"x": 1.0845277959,
				"y": -1.2252624387,
				"z": 2.8048939427,
				"element": "C" 
			},
			{
				"x": -0.0121945506,
				"y": -2.5615999029,
				"z": 3.0996550973,
				"element": "Cl" 
			},
			{
				"x": -0.621249891,
				"y": -2.5889096725,
				"z": -2.2166377648,
				"element": "H" 
			},
			{
				"x": 1.1279093545,
				"y": -2.1113512965,
				"z": -0.5218855338,
				"element": "H" 
			},
			{
				"x": -1.566792069,
				"y": 0.5497015178,
				"z": 1.5103414572,
				"element": "H" 
			},
			{
				"x": -3.3163732359,
				"y": 0.0725660285,
				"z": -0.1841009451,
				"element": "H" 
			},
			{
				"x": 3.5549636378,
				"y": 1.6945734701,
				"z": 2.2591762931,
				"element": "H" 
			},
			{
				"x": 2.1260285637,
				"y": -1.5860610392,
				"z": 4.6581570589,
				"element": "H" 
			}
		],
		 "valence_orbital": [ 
			{
				"type": "occ",
				"energy": -0.31686,
				"method": "rhf"
			},
			{
				"type": "occ",
				"energy": -0.27133,
				"method": "rhf"
			},
			{
				"type": "occ",
				"energy": -0.26563,
				"method": "rhf"
			},
			{
				"type": "occ",
				"energy": -0.26482,
				"method": "rhf"
			},
			{
				"type": "occ",
				"energy": -0.25216,
				"method": "rhf"
			},
			{
				"type": "unocc",
				"energy": -0.04146,
				"method": "rhf"
			},
			{
				"type": "unocc",
				"energy": -0.04067,
				"method": "rhf"
			},
			{
				"type": "unocc",
				"energy": -0.02452,
				"method": "rhf"
			},
			{
				"type": "unocc",
				"energy": -0.01984,
				"method": "rhf"
			},
			{
				"type": "unocc",
				"energy": -0.01792,
				"method": "rhf"
			}
		],
		"cosmo_sigma_profile": { 
			"-0.025": 0.0,
			"-0.024": 0.0,
			"-0.023": 0.0,
			"-0.022": 0.0,
			"-0.021": 0.0,
			"-0.02": 0.0,
			"-0.019": 0.0,
			"-0.018": 0.0,
			"-0.017": 0.0,
			"-0.016": 0.0,
			"-0.015": 0.0,
			"-0.014": 0.0,
			"-0.013": 0.0,
			"-0.012": 0.0,
			"-0.011": 0.0,
			"-0.01": 0.0,
			"-0.009": 1.75935732867,
			"-0.008": 3.80397035376,
			"-0.007": 10.9090628134,
			"-0.006": 10.6597772974,
			"-0.005": 11.6629533098,
			"-0.004": 10.9483466635,
			"-0.003": 14.2725703264,
			"-0.002": 18.2036571033,
			"-0.001": 24.8914031105,
			"0.0": 36.6922352405,
			"0.001": 29.9577817951,
			"0.002": 27.3596530519,
			"0.003": 37.8840365157,
			"0.004": 38.7808157781,
			"0.005": 7.77692309896,
			"0.006": 0.0,
			"0.007": 0.0,
			"0.008": 0.0,
			"0.009": 0.0,
			"0.01": 0.0,
			"0.011": 0.0,
			"0.012": 0.0,
			"0.013": 0.0,
			"0.014": 0.0,
			"0.015": 0.0,
			"0.016": 0.0,
			"0.017": 0.0,
			"0.018": 0.0,
			"0.019": 0.0,
			"0.02": 0.0,
			"0.021": 0.0,
			"0.022": 0.0,
			"0.023": 0.0,
			"0.024": 0.0,
			"0.025": 0.0
		}
	}
}
