{
	 "smiles": "NC(CC1=CC=C(O)C(=C1)[N+]([O-])=O)C(O)=O", 
	 "Tm": 507.15, 
	 "num_atms": 26, 
	 "gaussian": { 
		 "optdone": 1, 
		 "sigma_profile": "yes", 
		 "theory": "DFT", 
		 "functional": "B3LYP", 
		 "basiset": "6-31G**", 
		 "properties": { 
			 "R2extent": 5266.7745, 
			 "electric_dipole_moment_norm": 5.9068807623, 
			 "electric_quadrupole_moment_norm": 31.2638384456, 
			 "total_energy": -834.496346123, 
			 "HOMO_LUMO_gap": 0.16176, 
			 "cosmo_polarized_energy": -30.13, 
			 "cosmo_cavitation_energy": 31.19, 
			 "cosmo_dispersion_energy": -21.73, 
			 "cosmo_repulsion_energy": 1.7, 
			 "cosmo_total_nonelectrostatic_energy": 11.16, 
			 "SMD_solvation_energy": 7.49 
		},
		"coords": [
			{
				"x": 0.505941829,
				"y": -1.7204883407,
				"z": 1.643413346,
				"element": "N" 
			},
			{
				"x": 1.6193027206,
				"y": -0.8867595469,
				"z": 1.2437162416,
				"element": "C" 
			},
			{
				"x": 2.210295795,
				"y": -1.1604160903,
				"z": -0.1861379338,
				"element": "C" 
			},
			{
				"x": 1.2235973444,
				"y": -0.9945869556,
				"z": -1.3174210731,
				"element": "C" 
			},
			{
				"x": 0.9770443295,
				"y": 0.2610593697,
				"z": -1.8981313948,
				"element": "C" 
			},
			{
				"x": 0.0462677472,
				"y": 0.4125628208,
				"z": -2.9150989111,
				"element": "C" 
			},
			{
				"x": -0.6860302798,
				"y": -0.6793308898,
				"z": -3.4105425823,
				"element": "C" 
			},
			{
				"x": -1.602329545,
				"y": -0.522669436,
				"z": -4.3888742169,
				"element": "O" 
			},
			{
				"x": -0.4354678277,
				"y": -1.9409639337,
				"z": -2.8322768576,
				"element": "C" 
			},
			{
				"x": 0.499997702,
				"y": -2.0802530743,
				"z": -1.8022387936,
				"element": "C" 
			},
			{
				"x": -1.1230943904,
				"y": -3.1596967415,
				"z": -3.2743573297,
				"element": "N" 
			},
			{
				"x": -1.0149642224,
				"y": -4.1582077842,
				"z": -2.5554856603,
				"element": "O" 
			},
			{
				"x": -1.7516220569,
				"y": -3.1279024621,
				"z": -4.3280460568,
				"element": "O" 
			},
			{
				"x": 1.1775215471,
				"y": 0.576552046,
				"z": 1.3292860564,
				"element": "C" 
			},
			{
				"x": 2.1782765058,
				"y": 1.4922534921,
				"z": 1.419412963,
				"element": "O" 
			},
			{
				"x": 0.0304499575,
				"y": 0.9363961221,
				"z": 1.2454996077,
				"element": "O" 
			},
			{
				"x": -0.3565778905,
				"y": -1.3396964272,
				"z": 1.2634819666,
				"element": "H" 
			},
			{
				"x": 0.6161389028,
				"y": -2.6752495533,
				"z": 1.3170936776,
				"element": "H" 
			},
			{
				"x": 2.45045059,
				"y": -1.0361992613,
				"z": 1.9514821241,
				"element": "H" 
			},
			{
				"x": 3.0775668229,
				"y": -0.5066370079,
				"z": -0.3454847557,
				"element": "H" 
			},
			{
				"x": 2.5960536191,
				"y": -2.1860284971,
				"z": -0.1791466869,
				"element": "H" 
			},
			{
				"x": 1.5190386616,
				"y": 1.1350806854,
				"z": -1.5479061275,
				"element": "H" 
			},
			{
				"x": -0.1306508488,
				"y": 1.3964120235,
				"z": -3.3437530906,
				"element": "H" 
			},
			{
				"x": -1.6625488744,
				"y": 0.4179178464,
				"z": -4.6074135429,
				"element": "H" 
			},
			{
				"x": 0.6448439341,
				"y": -3.076729066,
				"z": -1.4028260488,
				"element": "H" 
			},
			{
				"x": 3.0279979272,
				"y": 1.0484806619,
				"z": 1.5547550793,
				"element": "H" 
			}
		],
		 "valence_orbital": [ 
			{
				"type": "occ",
				"energy": -0.28851,
				"method": "rhf"
			},
			{
				"type": "occ",
				"energy": -0.28681,
				"method": "rhf"
			},
			{
				"type": "occ",
				"energy": -0.27766,
				"method": "rhf"
			},
			{
				"type": "occ",
				"energy": -0.25571,
				"method": "rhf"
			},
			{
				"type": "occ",
				"energy": -0.24451,
				"method": "rhf"
			},
			{
				"type": "unocc",
				"energy": -0.08275,
				"method": "rhf"
			},
			{
				"type": "unocc",
				"energy": -0.02296,
				"method": "rhf"
			},
			{
				"type": "unocc",
				"energy": -0.01078,
				"method": "rhf"
			},
			{
				"type": "unocc",
				"energy": 0.00109,
				"method": "rhf"
			},
			{
				"type": "unocc",
				"energy": 0.03684,
				"method": "rhf"
			}
		],
		"cosmo_sigma_profile": { 
			"-0.025": 0.0,
			"-0.024": 0.0,
			"-0.023": 0.0,
			"-0.022": 0.0,
			"-0.021": 0.0,
			"-0.02": 0.0,
			"-0.019": 1.2764633155,
			"-0.018": 2.47077900632,
			"-0.017": 2.35135149285,
			"-0.016": 2.73245816572,
			"-0.015": 2.40435563697,
			"-0.014": 1.7749062495,
			"-0.013": 1.37783194004,
			"-0.012": 3.08207987932,
			"-0.011": 2.76376036421,
			"-0.01": 3.93879438003,
			"-0.009": 4.51703674929,
			"-0.008": 6.89252575391,
			"-0.007": 10.8892862415,
			"-0.006": 14.2827130587,
			"-0.005": 12.0551811575,
			"-0.004": 11.4034060106,
			"-0.003": 10.5296640311,
			"-0.002": 11.8797443077,
			"-0.001": 12.3388427157,
			"0.0": 13.5086909004,
			"0.001": 12.3174103282,
			"0.002": 10.3223911512,
			"0.003": 8.63123006576,
			"0.004": 6.3712969822,
			"0.005": 6.50568231633,
			"0.006": 6.83361672008,
			"0.007": 8.09499511784,
			"0.008": 13.7275994842,
			"0.009": 11.4753116559,
			"0.01": 11.4417534557,
			"0.011": 8.07268952737,
			"0.012": 4.90391190386,
			"0.013": 2.42132753867,
			"0.014": 0.663217980485,
			"0.015": 0.255471890696,
			"0.016": 0.745743971554,
			"0.017": 0.687892986549,
			"0.018": 0.445934771344,
			"0.019": 0.0494141041615,
			"0.02": 0.0,
			"0.021": 0.0,
			"0.022": 0.0,
			"0.023": 0.0,
			"0.024": 0.0,
			"0.025": 0.0
		}
	}
}
