{
	 "smiles": "NS(=O)(=O)C1=CC(C(O)=O)=C(C=C1)C1=CC(=CC=C1)C(F)(F)F", 
	 "Tm": 455.15, 
	 "num_atms": 33, 
	 "gaussian": { 
		 "optdone": 1, 
		 "sigma_profile": "yes", 
		 "theory": "DFT", 
		 "functional": "B3LYP", 
		 "basiset": "6-31G**", 
		 "properties": { 
			 "R2extent": 11090.7911, 
			 "electric_dipole_moment_norm": 6.20161850729, 
			 "electric_quadrupole_moment_norm": 28.8126803384, 
			 "total_energy": -1592.82507937, 
			 "HOMO_LUMO_gap": 0.1865, 
			 "cosmo_polarized_energy": -25.72, 
			 "cosmo_cavitation_energy": 41.68, 
			 "cosmo_dispersion_energy": -29.04, 
			 "cosmo_repulsion_energy": 2.13, 
			 "cosmo_total_nonelectrostatic_energy": 14.77, 
			 "SMD_solvation_energy": 8.86 
		},
		"coords": [
			{
				"x": 2.1059001995,
				"y": -2.0768091466,
				"z": -5.1524966804,
				"element": "N" 
			},
			{
				"x": 2.6426337106,
				"y": -0.5745476196,
				"z": -4.6339815522,
				"element": "S" 
			},
			{
				"x": 4.0673630502,
				"y": -0.7371890095,
				"z": -4.3579399527,
				"element": "O" 
			},
			{
				"x": 2.1150824145,
				"y": 0.3905572894,
				"z": -5.596139865,
				"element": "O" 
			},
			{
				"x": 1.8260198915,
				"y": -0.2446860366,
				"z": -3.061701363,
				"element": "C" 
			},
			{
				"x": 2.3599625671,
				"y": -0.7617718413,
				"z": -1.885913251,
				"element": "C" 
			},
			{
				"x": 1.7326170973,
				"y": -0.5173984884,
				"z": -0.657448108,
				"element": "C" 
			},
			{
				"x": 2.4662012992,
				"y": -1.0564094738,
				"z": 0.5329568661,
				"element": "C" 
			},
			{
				"x": 2.3077445371,
				"y": -0.3185620751,
				"z": 1.6514421885,
				"element": "O" 
			},
			{
				"x": 3.1859527593,
				"y": -2.0335873564,
				"z": 0.4914226918,
				"element": "O" 
			},
			{
				"x": 0.5293720449,
				"y": 0.2267605545,
				"z": -0.6119042744,
				"element": "C" 
			},
			{
				"x": 0.0285490268,
				"y": 0.7491832053,
				"z": -1.8168603951,
				"element": "C" 
			},
			{
				"x": 0.6668073086,
				"y": 0.531734627,
				"z": -3.0344977829,
				"element": "C" 
			},
			{
				"x": -0.2763068824,
				"y": 0.4380923535,
				"z": 0.6233903527,
				"element": "C" 
			},
			{
				"x": -0.6822447892,
				"y": 1.7283126273,
				"z": 0.985989571,
				"element": "C" 
			},
			{
				"x": -1.4834617666,
				"y": 1.9271515598,
				"z": 2.111926424,
				"element": "C" 
			},
			{
				"x": -1.8998849688,
				"y": 0.8415146752,
				"z": 2.8848125331,
				"element": "C" 
			},
			{
				"x": -1.5068589837,
				"y": -0.4469096617,
				"z": 2.5231373459,
				"element": "C" 
			},
			{
				"x": -0.7025588424,
				"y": -0.6479860683,
				"z": 1.4037489807,
				"element": "C" 
			},
			{
				"x": -1.9479333107,
				"y": 3.3172336491,
				"z": 2.4583915916,
				"element": "C" 
			},
			{
				"x": -2.1541452247,
				"y": 3.4616374506,
				"z": 3.7854408489,
				"element": "F" 
			},
			{
				"x": -3.1166693485,
				"y": 3.6156798674,
				"z": 1.8438822502,
				"element": "F" 
			},
			{
				"x": -1.0543820465,
				"y": 4.2562745876,
				"z": 2.0785229449,
				"element": "F" 
			},
			{
				"x": 2.4123885371,
				"y": -2.8415635883,
				"z": -4.5600889199,
				"element": "H" 
			},
			{
				"x": 1.1153180366,
				"y": -2.0995397784,
				"z": -5.3708315322,
				"element": "H" 
			},
			{
				"x": 3.2848997311,
				"y": -1.3277014104,
				"z": -1.8984431906,
				"element": "H" 
			},
			{
				"x": 2.8462185184,
				"y": -0.7498825402,
				"z": 2.336605695,
				"element": "H" 
			},
			{
				"x": -0.895439713,
				"y": 1.3183072014,
				"z": -1.7933993042,
				"element": "H" 
			},
			{
				"x": 0.2793540813,
				"y": 0.9566911533,
				"z": -3.9542413699,
				"element": "H" 
			},
			{
				"x": -0.3504795493,
				"y": 2.5830789342,
				"z": 0.4064719056,
				"element": "H" 
			},
			{
				"x": -2.5183309106,
				"y": 1.0059289659,
				"z": 3.7603173135,
				"element": "H" 
			},
			{
				"x": -1.8311169026,
				"y": -1.2972397487,
				"z": 3.1151022603,
				"element": "H" 
			},
			{
				"x": -0.4121715722,
				"y": -1.6559548582,
				"z": 1.1222257778,
				"element": "H" 
			}
		],
		 "valence_orbital": [ 
			{
				"type": "occ",
				"energy": -0.30071,
				"method": "rhf"
			},
			{
				"type": "occ",
				"energy": -0.29349,
				"method": "rhf"
			},
			{
				"type": "occ",
				"energy": -0.28489,
				"method": "rhf"
			},
			{
				"type": "occ",
				"energy": -0.27985,
				"method": "rhf"
			},
			{
				"type": "occ",
				"energy": -0.26286,
				"method": "rhf"
			},
			{
				"type": "unocc",
				"energy": -0.07636,
				"method": "rhf"
			},
			{
				"type": "unocc",
				"energy": -0.05541,
				"method": "rhf"
			},
			{
				"type": "unocc",
				"energy": -0.03793,
				"method": "rhf"
			},
			{
				"type": "unocc",
				"energy": -0.02098,
				"method": "rhf"
			},
			{
				"type": "unocc",
				"energy": 0.01606,
				"method": "rhf"
			}
		],
		"cosmo_sigma_profile": { 
			"-0.025": 0.0,
			"-0.024": 0.0,
			"-0.023": 0.0,
			"-0.022": 0.0,
			"-0.021": 0.0,
			"-0.02": 0.0,
			"-0.019": 0.395969647401,
			"-0.018": 0.941438440522,
			"-0.017": 1.19746652623,
			"-0.016": 1.14113450726,
			"-0.015": 2.79741640626,
			"-0.014": 3.39732594875,
			"-0.013": 3.41842121724,
			"-0.012": 4.13510036068,
			"-0.011": 3.61297980636,
			"-0.01": 3.42657809154,
			"-0.009": 2.11033838437,
			"-0.008": 4.17290125159,
			"-0.007": 14.4593291959,
			"-0.006": 15.893780869,
			"-0.005": 15.7025767265,
			"-0.004": 15.7534126302,
			"-0.003": 15.2378286093,
			"-0.002": 14.0658443158,
			"-0.001": 17.6945525456,
			"0.0": 28.7255047153,
			"0.001": 25.0484374123,
			"0.002": 29.5889439271,
			"0.003": 36.7482432111,
			"0.004": 9.33103500558,
			"0.005": 7.21642858204,
			"0.006": 6.90703862849,
			"0.007": 6.5073148261,
			"0.008": 7.86733960899,
			"0.009": 6.52885825535,
			"0.01": 10.5371324487,
			"0.011": 15.2190612112,
			"0.012": 4.20564720666,
			"0.013": 0.0154852257248,
			"0.014": 0.0,
			"0.015": 0.0,
			"0.016": 0.0,
			"0.017": 0.0,
			"0.018": 0.0,
			"0.019": 0.0,
			"0.02": 0.0,
			"0.021": 0.0,
			"0.022": 0.0,
			"0.023": 0.0,
			"0.024": 0.0,
			"0.025": 0.0
		}
	}
}
