{
	 "smiles": "ClC1=CC=C(C=C1)N1C(=O)C2ON=C(C2C1=O)C(=O)C1=CC=C2C=CC=CC2=C1", 
	 "Tm": 394.15, 
	 "num_atms": 42, 
	 "gaussian": { 
		 "optdone": 1, 
		 "sigma_profile": "yes", 
		 "theory": "DFT", 
		 "functional": "B3LYP", 
		 "basiset": "6-31G**", 
		 "properties": { 
			 "R2extent": 17975.2363, 
			 "electric_dipole_moment_norm": 2.59201542048, 
			 "electric_quadrupole_moment_norm": 18.9677673206, 
			 "total_energy": -1716.72979005, 
			 "HOMO_LUMO_gap": 0.13593, 
			 "cosmo_polarized_energy": -19.63, 
			 "cosmo_cavitation_energy": 49.95, 
			 "cosmo_dispersion_energy": -35.68, 
			 "cosmo_repulsion_energy": 2.63, 
			 "cosmo_total_nonelectrostatic_energy": 16.89, 
			 "SMD_solvation_energy": 9.15 
		},
		"coords": [
			{
				"x": 4.9121127135,
				"y": 2.6944253466,
				"z": 5.3856621446,
				"element": "Cl" 
			},
			{
				"x": 3.8409643302,
				"y": 2.7289017268,
				"z": 3.9958022894,
				"element": "C" 
			},
			{
				"x": 4.3700913615,
				"y": 2.5618911257,
				"z": 2.7167625344,
				"element": "C" 
			},
			{
				"x": 3.520352692,
				"y": 2.594162465,
				"z": 1.6133397094,
				"element": "C" 
			},
			{
				"x": 2.146700712,
				"y": 2.7835644501,
				"z": 1.7970897598,
				"element": "C" 
			},
			{
				"x": 1.6234202985,
				"y": 2.9458987637,
				"z": 3.0841979323,
				"element": "C" 
			},
			{
				"x": 2.4736007595,
				"y": 2.9230698824,
				"z": 4.1872974334,
				"element": "C" 
			},
			{
				"x": 1.2696357294,
				"y": 2.8134858236,
				"z": 0.6653296332,
				"element": "N" 
			},
			{
				"x": 0.2029107814,
				"y": 3.7198926003,
				"z": 0.5362928021,
				"element": "C" 
			},
			{
				"x": -0.0947507487,
				"y": 4.5884341378,
				"z": 1.3215620418,
				"element": "O" 
			},
			{
				"x": -0.5268561313,
				"y": 3.3998247191,
				"z": -0.7714999659,
				"element": "C" 
			},
			{
				"x": -1.8320890581,
				"y": 2.8172173227,
				"z": -0.4574652617,
				"element": "O" 
			},
			{
				"x": -1.8937216077,
				"y": 1.5241473936,
				"z": -0.9403835999,
				"element": "N" 
			},
			{
				"x": -0.7842965807,
				"y": 1.19047365,
				"z": -1.4974965137,
				"element": "C" 
			},
			{
				"x": 0.2657396165,
				"y": 2.2805092355,
				"z": -1.4309970553,
				"element": "C" 
			},
			{
				"x": 1.3906726052,
				"y": 1.9422532657,
				"z": -0.4376540767,
				"element": "C" 
			},
			{
				"x": 2.2314786044,
				"y": 1.0865249974,
				"z": -0.5676344054,
				"element": "O" 
			},
			{
				"x": -0.5615024974,
				"y": -0.0615449177,
				"z": -2.2926077845,
				"element": "C" 
			},
			{
				"x": 0.3190920142,
				"y": 0.0048182629,
				"z": -3.1445410853,
				"element": "O" 
			},
			{
				"x": -1.3671095738,
				"y": -1.2938808082,
				"z": -2.0780972055,
				"element": "C" 
			},
			{
				"x": -2.2956621537,
				"y": -1.4637265831,
				"z": -1.0103185813,
				"element": "C" 
			},
			{
				"x": -2.9829567,
				"y": -2.645728916,
				"z": -0.8729961354,
				"element": "C" 
			},
			{
				"x": -2.7912639248,
				"y": -3.7226506235,
				"z": -1.7804373588,
				"element": "C" 
			},
			{
				"x": -3.4888465402,
				"y": -4.9536402413,
				"z": -1.6627980687,
				"element": "C" 
			},
			{
				"x": -3.271805393,
				"y": -5.9726139255,
				"z": -2.5636219262,
				"element": "C" 
			},
			{
				"x": -2.3464048068,
				"y": -5.8113472754,
				"z": -3.6258538315,
				"element": "C" 
			},
			{
				"x": -1.6541080195,
				"y": -4.6312555436,
				"z": -3.7678995816,
				"element": "C" 
			},
			{
				"x": -1.8551501389,
				"y": -3.5583883403,
				"z": -2.8547680776,
				"element": "C" 
			},
			{
				"x": -1.1582982262,
				"y": -2.3347185199,
				"z": -2.9720175407,
				"element": "C" 
			},
			{
				"x": 5.4351142388,
				"y": 2.4109457726,
				"z": 2.5827319937,
				"element": "H" 
			},
			{
				"x": 3.924325059,
				"y": 2.4566156942,
				"z": 0.6188614751,
				"element": "H" 
			},
			{
				"x": 0.5619822526,
				"y": 3.1036986927,
				"z": 3.2255876092,
				"element": "H" 
			},
			{
				"x": 2.0758434219,
				"y": 3.0520895584,
				"z": 5.1873732177,
				"element": "H" 
			},
			{
				"x": -0.6962315587,
				"y": 4.3081578055,
				"z": -1.3530564386,
				"element": "H" 
			},
			{
				"x": 0.6987636782,
				"y": 2.480422862,
				"z": -2.4131676132,
				"element": "H" 
			},
			{
				"x": -2.4661937476,
				"y": -0.6555094518,
				"z": -0.3112416229,
				"element": "H" 
			},
			{
				"x": -3.6889598165,
				"y": -2.7703548619,
				"z": -0.0563083967,
				"element": "H" 
			},
			{
				"x": -4.1983154753,
				"y": -5.0790750935,
				"z": -0.849197135,
				"element": "H" 
			},
			{
				"x": -3.8119844263,
				"y": -6.9095812123,
				"z": -2.4631835358,
				"element": "H" 
			},
			{
				"x": -2.1873261487,
				"y": -6.6254161761,
				"z": -4.3266542281,
				"element": "H" 
			},
			{
				"x": -0.9428133082,
				"y": -4.500406837,
				"z": -4.5789281838,
				"element": "H" 
			},
			{
				"x": -0.4411542867,
				"y": -2.1936862272,
				"z": -3.7746653664,
				"element": "H" 
			}
		],
		 "valence_orbital": [ 
			{
				"type": "occ",
				"energy": -0.27328,
				"method": "rhf"
			},
			{
				"type": "occ",
				"energy": -0.26783,
				"method": "rhf"
			},
			{
				"type": "occ",
				"energy": -0.2569,
				"method": "rhf"
			},
			{
				"type": "occ",
				"energy": -0.24879,
				"method": "rhf"
			},
			{
				"type": "occ",
				"energy": -0.22821,
				"method": "rhf"
			},
			{
				"type": "unocc",
				"energy": -0.09228,
				"method": "rhf"
			},
			{
				"type": "unocc",
				"energy": -0.05405,
				"method": "rhf"
			},
			{
				"type": "unocc",
				"energy": -0.04755,
				"method": "rhf"
			},
			{
				"type": "unocc",
				"energy": -0.04039,
				"method": "rhf"
			},
			{
				"type": "unocc",
				"energy": -0.02642,
				"method": "rhf"
			}
		],
		"cosmo_sigma_profile": { 
			"-0.025": 0.0,
			"-0.024": 0.0,
			"-0.023": 0.0,
			"-0.022": 0.0,
			"-0.021": 0.0,
			"-0.02": 0.0,
			"-0.019": 0.0,
			"-0.018": 0.0,
			"-0.017": 0.0,
			"-0.016": 0.0,
			"-0.015": 0.0,
			"-0.014": 0.0,
			"-0.013": 0.159627979497,
			"-0.012": 1.19132801974,
			"-0.011": 1.81752561923,
			"-0.01": 8.92042542254,
			"-0.009": 5.91473509916,
			"-0.008": 6.90485874097,
			"-0.007": 17.7299895765,
			"-0.006": 26.0501916826,
			"-0.005": 22.5490919096,
			"-0.004": 24.1389275516,
			"-0.003": 19.6434618461,
			"-0.002": 20.6907236852,
			"-0.001": 20.5579536752,
			"0.0": 23.6503336625,
			"0.001": 31.3236862202,
			"0.002": 44.2171908012,
			"0.003": 37.5903182591,
			"0.004": 27.6654991147,
			"0.005": 13.0084203387,
			"0.006": 7.49353077434,
			"0.007": 9.04690588263,
			"0.008": 9.17180695455,
			"0.009": 9.7725629502,
			"0.01": 11.7384478862,
			"0.011": 4.59554710559,
			"0.012": 0.01834442339,
			"0.013": 0.0,
			"0.014": 0.0,
			"0.015": 0.0,
			"0.016": 0.0,
			"0.017": 0.0,
			"0.018": 0.0,
			"0.019": 0.0,
			"0.02": 0.0,
			"0.021": 0.0,
			"0.022": 0.0,
			"0.023": 0.0,
			"0.024": 0.0,
			"0.025": 0.0
		}
	}
}
