{
	 "smiles": "COC1=C(OC)C(Cl)=C(CC#N)C=C1", 
	 "Tm": 329.15, 
	 "num_atms": 24, 
	 "gaussian": { 
		 "optdone": 1, 
		 "sigma_profile": "yes", 
		 "theory": "DFT", 
		 "functional": "B3LYP", 
		 "basiset": "6-31G**", 
		 "properties": { 
			 "R2extent": 3383.319, 
			 "electric_dipole_moment_norm": 4.79951555576, 
			 "electric_quadrupole_moment_norm": 15.5298835421, 
			 "total_energy": -1052.4278189, 
			 "HOMO_LUMO_gap": 0.22383, 
			 "cosmo_polarized_energy": -12.82, 
			 "cosmo_cavitation_energy": 30.56, 
			 "cosmo_dispersion_energy": -20.95, 
			 "cosmo_repulsion_energy": 1.67, 
			 "cosmo_total_nonelectrostatic_energy": 11.27, 
			 "SMD_solvation_energy": 7.92 
		},
		"coords": [
			{
				"x": 0.985633616,
				"y": 3.6218893327,
				"z": -1.4247791599,
				"element": "C" 
			},
			{
				"x": 1.4072053785,
				"y": 2.6554408992,
				"z": -0.4508975287,
				"element": "O" 
			},
			{
				"x": 0.4428060002,
				"y": 1.7676479855,
				"z": -0.0458727616,
				"element": "C" 
			},
			{
				"x": -0.0373490182,
				"y": 0.7745306589,
				"z": -0.9225217763,
				"element": "C" 
			},
			{
				"x": 0.3935635542,
				"y": 0.7179580433,
				"z": -2.2189147944,
				"element": "O" 
			},
			{
				"x": 1.7153183975,
				"y": 0.178646075,
				"z": -2.3896570047,
				"element": "C" 
			},
			{
				"x": -0.9982377515,
				"y": -0.1346086943,
				"z": -0.4561893906,
				"element": "C" 
			},
			{
				"x": -1.5816849144,
				"y": -1.3591989913,
				"z": -1.5660562267,
				"element": "Cl" 
			},
			{
				"x": -1.4844814775,
				"y": -0.0805531649,
				"z": 0.8593031755,
				"element": "C" 
			},
			{
				"x": -2.5272787512,
				"y": -1.0607193024,
				"z": 1.3716842895,
				"element": "C" 
			},
			{
				"x": -1.9541377835,
				"y": -2.3531679043,
				"z": 1.7744996083,
				"element": "C" 
			},
			{
				"x": -1.4976127748,
				"y": -3.3671998722,
				"z": 2.1060609783,
				"element": "N" 
			},
			{
				"x": -0.97181143,
				"y": 0.9033871293,
				"z": 1.709812652,
				"element": "C" 
			},
			{
				"x": -0.0228665584,
				"y": 1.8213260943,
				"z": 1.2666597987,
				"element": "C" 
			},
			{
				"x": 1.861041858,
				"y": 4.2383639822,
				"z": -1.6364273198,
				"element": "H" 
			},
			{
				"x": 0.6407456145,
				"y": 3.1376656983,
				"z": -2.3425450301,
				"element": "H" 
			},
			{
				"x": 0.1865409486,
				"y": 4.2541492696,
				"z": -1.0186951451,
				"element": "H" 
			},
			{
				"x": 2.4554910041,
				"y": 0.7819885876,
				"z": -1.8554024642,
				"element": "H" 
			},
			{
				"x": 1.9158416368,
				"y": 0.2081000011,
				"z": -3.4618166611,
				"element": "H" 
			},
			{
				"x": 1.7563497807,
				"y": -0.8587990083,
				"z": -2.0400006114,
				"element": "H" 
			},
			{
				"x": -3.2917770694,
				"y": -1.2498361508,
				"z": 0.6110896312,
				"element": "H" 
			},
			{
				"x": -3.0350666465,
				"y": -0.6318137616,
				"z": 2.2420100229,
				"element": "H" 
			},
			{
				"x": -1.3300631142,
				"y": 0.9542660496,
				"z": 2.733882086,
				"element": "H" 
			},
			{
				"x": 0.3702295003,
				"y": 2.5888370437,
				"z": 1.9246736322,
				"element": "H" 
			}
		],
		 "valence_orbital": [ 
			{
				"type": "occ",
				"energy": -0.31677,
				"method": "rhf"
			},
			{
				"type": "occ",
				"energy": -0.30643,
				"method": "rhf"
			},
			{
				"type": "occ",
				"energy": -0.27857,
				"method": "rhf"
			},
			{
				"type": "occ",
				"energy": -0.25219,
				"method": "rhf"
			},
			{
				"type": "occ",
				"energy": -0.24836,
				"method": "rhf"
			},
			{
				"type": "unocc",
				"energy": -0.02453,
				"method": "rhf"
			},
			{
				"type": "unocc",
				"energy": -0.02229,
				"method": "rhf"
			},
			{
				"type": "unocc",
				"energy": 0.01558,
				"method": "rhf"
			},
			{
				"type": "unocc",
				"energy": 0.04219,
				"method": "rhf"
			},
			{
				"type": "unocc",
				"energy": 0.04854,
				"method": "rhf"
			}
		],
		"cosmo_sigma_profile": { 
			"-0.025": 0.0,
			"-0.024": 0.0,
			"-0.023": 0.0,
			"-0.022": 0.0,
			"-0.021": 0.0,
			"-0.02": 0.0,
			"-0.019": 0.0,
			"-0.018": 0.0,
			"-0.017": 0.0,
			"-0.016": 0.0,
			"-0.015": 0.0,
			"-0.014": 0.0,
			"-0.013": 0.0,
			"-0.012": 0.0,
			"-0.011": 0.0,
			"-0.01": 1.02895149134,
			"-0.009": 4.13336368328,
			"-0.008": 5.54591215785,
			"-0.007": 7.66912885242,
			"-0.006": 11.3864280412,
			"-0.005": 15.6486385941,
			"-0.004": 18.2526898115,
			"-0.003": 25.5003020204,
			"-0.002": 19.0787249232,
			"-0.001": 15.9400771144,
			"0.0": 18.5764810053,
			"0.001": 18.5164446189,
			"0.002": 17.8054422387,
			"0.003": 14.171214681,
			"0.004": 10.8274261066,
			"0.005": 4.94557229836,
			"0.006": 6.77123425729,
			"0.007": 4.97973036034,
			"0.008": 5.54061982978,
			"0.009": 5.26786951324,
			"0.01": 5.93742372569,
			"0.011": 4.14866820223,
			"0.012": 2.890612801,
			"0.013": 1.66206241804,
			"0.014": 0.163891093868,
			"0.015": 0.0,
			"0.016": 0.0,
			"0.017": 0.0,
			"0.018": 0.0,
			"0.019": 0.0,
			"0.02": 0.0,
			"0.021": 0.0,
			"0.022": 0.0,
			"0.023": 0.0,
			"0.024": 0.0,
			"0.025": 0.0
		}
	}
}
