{
	 "smiles": "CC1=C(NCC2=CC=C(Br)O2)C=C(C=C1)C(O)=O", 
	 "Tm": 399.15, 
	 "num_atms": 30, 
	 "gaussian": { 
		 "optdone": 1, 
		 "sigma_profile": "yes", 
		 "theory": "DFT", 
		 "functional": "B3LYP", 
		 "basiset": "6-31G**", 
		 "properties": { 
			 "R2extent": 7827.164, 
			 "electric_dipole_moment_norm": 4.6773433977, 
			 "electric_quadrupole_moment_norm": 23.8038180589, 
			 "total_energy": -3354.42020296, 
			 "HOMO_LUMO_gap": 0.17343, 
			 "cosmo_polarized_energy": -18.75, 
			 "cosmo_cavitation_energy": 37.33, 
			 "cosmo_dispersion_energy": -25.54, 
			 "cosmo_repulsion_energy": 2.01, 
			 "cosmo_total_nonelectrostatic_energy": 13.8, 
			 "SMD_solvation_energy": 5.71 
		},
		"coords": [
			{
				"x": 0.455871275,
				"y": -2.6567526239,
				"z": -0.9310859276,
				"element": "C" 
			},
			{
				"x": 1.3410393268,
				"y": -1.4547643311,
				"z": -0.7188588005,
				"element": "C" 
			},
			{
				"x": 0.8325942321,
				"y": -0.1333558932,
				"z": -0.7720183251,
				"element": "C" 
			},
			{
				"x": -0.5381768151,
				"y": 0.1153256989,
				"z": -1.0330571239,
				"element": "N" 
			},
			{
				"x": -1.5568543301,
				"y": -0.2688700182,
				"z": -0.0329250968,
				"element": "C" 
			},
			{
				"x": -1.496560489,
				"y": 0.4595319371,
				"z": 1.2714987857,
				"element": "C" 
			},
			{
				"x": -2.1615245293,
				"y": 1.5363442028,
				"z": 1.7831671694,
				"element": "C" 
			},
			{
				"x": -1.6143416857,
				"y": 1.7911908686,
				"z": 3.0832809951,
				"element": "C" 
			},
			{
				"x": -0.6532613223,
				"y": 0.8436629806,
				"z": 3.259012193,
				"element": "C" 
			},
			{
				"x": 0.5022840129,
				"y": 0.494424467,
				"z": 4.6859594689,
				"element": "Br" 
			},
			{
				"x": -0.5598458006,
				"y": 0.024078111,
				"z": 2.1820417176,
				"element": "O" 
			},
			{
				"x": 1.7164777188,
				"y": 0.9447463538,
				"z": -0.652809587,
				"element": "C" 
			},
			{
				"x": 3.0903137632,
				"y": 0.753760917,
				"z": -0.4831567832,
				"element": "C" 
			},
			{
				"x": 3.5871513458,
				"y": -0.5514785799,
				"z": -0.3827865785,
				"element": "C" 
			},
			{
				"x": 2.7122803099,
				"y": -1.6286196359,
				"z": -0.502689879,
				"element": "C" 
			},
			{
				"x": 3.9485867484,
				"y": 1.9769306856,
				"z": -0.3786179734,
				"element": "C" 
			},
			{
				"x": 5.2848301092,
				"y": 1.8042015833,
				"z": -0.5715869134,
				"element": "O" 
			},
			{
				"x": 3.5140029435,
				"y": 3.0806744922,
				"z": -0.1427708173,
				"element": "O" 
			},
			{
				"x": -0.3201645258,
				"y": -2.4398284747,
				"z": -1.6716298513,
				"element": "H" 
			},
			{
				"x": 1.041933916,
				"y": -3.5109827775,
				"z": -1.2810013459,
				"element": "H" 
			},
			{
				"x": -0.0457694247,
				"y": -2.9695366836,
				"z": -0.0064145223,
				"element": "H" 
			},
			{
				"x": -0.6664603903,
				"y": 1.0935628018,
				"z": -1.2718365284,
				"element": "H" 
			},
			{
				"x": -2.5361288272,
				"y": -0.0811966017,
				"z": -0.4838351805,
				"element": "H" 
			},
			{
				"x": -1.4895040648,
				"y": -1.3437462993,
				"z": 0.1452919998,
				"element": "H" 
			},
			{
				"x": -2.9542990811,
				"y": 2.086470157,
				"z": 1.295479755,
				"element": "H" 
			},
			{
				"x": -1.8930742032,
				"y": 2.5615093158,
				"z": 3.7855311566,
				"element": "H" 
			},
			{
				"x": 1.3460382481,
				"y": 1.9650921742,
				"z": -0.6878373935,
				"element": "H" 
			},
			{
				"x": 4.637955879,
				"y": -0.7458319664,
				"z": -0.1827020436,
				"element": "H" 
			},
			{
				"x": 3.1046053973,
				"y": -2.6406024758,
				"z": -0.444680681,
				"element": "H" 
			},
			{
				"x": 5.458000263,
				"y": 0.9117596143,
				"z": -0.9014618889,
				"element": "H" 
			}
		],
		 "valence_orbital": [ 
			{
				"type": "occ",
				"energy": -0.29118,
				"method": "rhf"
			},
			{
				"type": "occ",
				"energy": -0.2683,
				"method": "rhf"
			},
			{
				"type": "occ",
				"energy": -0.253,
				"method": "rhf"
			},
			{
				"type": "occ",
				"energy": -0.23379,
				"method": "rhf"
			},
			{
				"type": "occ",
				"energy": -0.2162,
				"method": "rhf"
			},
			{
				"type": "unocc",
				"energy": -0.04277,
				"method": "rhf"
			},
			{
				"type": "unocc",
				"energy": -0.01414,
				"method": "rhf"
			},
			{
				"type": "unocc",
				"energy": -0.00011,
				"method": "rhf"
			},
			{
				"type": "unocc",
				"energy": 0.00997,
				"method": "rhf"
			},
			{
				"type": "unocc",
				"energy": 0.05274,
				"method": "rhf"
			}
		],
		"cosmo_sigma_profile": { 
			"-0.025": 0.0,
			"-0.024": 0.0,
			"-0.023": 0.0,
			"-0.022": 0.0,
			"-0.021": 0.0,
			"-0.02": 0.0,
			"-0.019": 0.0203726390392,
			"-0.018": 0.784859155544,
			"-0.017": 0.56017934394,
			"-0.016": 1.27187129996,
			"-0.015": 0.768429964163,
			"-0.014": 1.16815590812,
			"-0.013": 0.702158474489,
			"-0.012": 2.00763073363,
			"-0.011": 2.29737341498,
			"-0.01": 2.9358379264,
			"-0.009": 2.8956058602,
			"-0.008": 4.51659864559,
			"-0.007": 9.52069295552,
			"-0.006": 14.9792934205,
			"-0.005": 18.5570810191,
			"-0.004": 16.2509789397,
			"-0.003": 18.9282580318,
			"-0.002": 18.5470206263,
			"-0.001": 19.6086099808,
			"0.0": 19.4245396106,
			"0.001": 20.9915232896,
			"0.002": 24.3728930369,
			"0.003": 30.4744401915,
			"0.004": 24.6019439579,
			"0.005": 9.51907021219,
			"0.006": 5.73641593136,
			"0.007": 3.69478938806,
			"0.008": 3.4406593607,
			"0.009": 3.54587162811,
			"0.01": 4.50303221173,
			"0.011": 6.36263876202,
			"0.012": 5.99013358901,
			"0.013": 2.29383876394,
			"0.014": 0.179161475475,
			"0.015": 0.0,
			"0.016": 0.0,
			"0.017": 0.0,
			"0.018": 0.0,
			"0.019": 0.0,
			"0.02": 0.0,
			"0.021": 0.0,
			"0.022": 0.0,
			"0.023": 0.0,
			"0.024": 0.0,
			"0.025": 0.0
		}
	}
}
