{
	 "smiles": "OC(=O)CN1C=NNC1=O", 
	 "Tm": 491.15, 
	 "num_atms": 15, 
	 "gaussian": { 
		 "optdone": 1, 
		 "sigma_profile": "yes", 
		 "theory": "DFT", 
		 "functional": "B3LYP", 
		 "basiset": "6-31G**", 
		 "properties": { 
			 "R2extent": 1988.4462, 
			 "electric_dipole_moment_norm": 2.85030066835, 
			 "electric_quadrupole_moment_norm": 13.6756187937, 
			 "total_energy": -545.367903613, 
			 "HOMO_LUMO_gap": 0.21514, 
			 "cosmo_polarized_energy": -18.5, 
			 "cosmo_cavitation_energy": 20.43, 
			 "cosmo_dispersion_energy": -15.16, 
			 "cosmo_repulsion_energy": 1.26, 
			 "cosmo_total_nonelectrostatic_energy": 6.53, 
			 "SMD_solvation_energy": 5.23 
		},
		"coords": [
			{
				"x": -2.6720032672,
				"y": 3.0029140749,
				"z": -0.5057817108,
				"element": "O" 
			},
			{
				"x": -2.5511714345,
				"y": 1.6762175141,
				"z": -0.7168364999,
				"element": "C" 
			},
			{
				"x": -3.4848381802,
				"y": 0.9371735048,
				"z": -0.9221093137,
				"element": "O" 
			},
			{
				"x": -1.0832634303,
				"y": 1.2756393426,
				"z": -0.7000866297,
				"element": "C" 
			},
			{
				"x": -0.8909425,
				"y": -0.1499485429,
				"z": -0.731772775,
				"element": "N" 
			},
			{
				"x": -1.3519918184,
				"y": -1.088781793,
				"z": -1.6287549331,
				"element": "C" 
			},
			{
				"x": -0.9757042271,
				"y": -2.2924377227,
				"z": -1.322188962,
				"element": "N" 
			},
			{
				"x": -0.2380001376,
				"y": -2.1258172438,
				"z": -0.1681170694,
				"element": "N" 
			},
			{
				"x": -0.1544428918,
				"y": -0.8226163424,
				"z": 0.2626013225,
				"element": "C" 
			},
			{
				"x": 0.4026470634,
				"y": -0.335038796,
				"z": 1.2340259658,
				"element": "O" 
			},
			{
				"x": -3.6209264617,
				"y": 3.2092560458,
				"z": -0.552032492,
				"element": "H" 
			},
			{
				"x": -0.6059207011,
				"y": 1.6367367755,
				"z": 0.2164754585,
				"element": "H" 
			},
			{
				"x": -0.5856663346,
				"y": 1.7734289736,
				"z": -1.5423774752,
				"element": "H" 
			},
			{
				"x": -1.9739224395,
				"y": -0.8468106336,
				"z": -2.4766982908,
				"element": "H" 
			},
			{
				"x": 0.1629467607,
				"y": -2.922115157,
				"z": 0.2992534048,
				"element": "H" 
			}
		],
		 "valence_orbital": [ 
			{
				"type": "occ",
				"energy": -0.32816,
				"method": "rhf"
			},
			{
				"type": "occ",
				"energy": -0.31727,
				"method": "rhf"
			},
			{
				"type": "occ",
				"energy": -0.30099,
				"method": "rhf"
			},
			{
				"type": "occ",
				"energy": -0.26886,
				"method": "rhf"
			},
			{
				"type": "occ",
				"energy": -0.22789,
				"method": "rhf"
			},
			{
				"type": "unocc",
				"energy": -0.01275,
				"method": "rhf"
			},
			{
				"type": "unocc",
				"energy": 0.01319,
				"method": "rhf"
			},
			{
				"type": "unocc",
				"energy": 0.05499,
				"method": "rhf"
			},
			{
				"type": "unocc",
				"energy": 0.06037,
				"method": "rhf"
			},
			{
				"type": "unocc",
				"energy": 0.08363,
				"method": "rhf"
			}
		],
		"cosmo_sigma_profile": { 
			"-0.025": 0.0,
			"-0.024": 0.0,
			"-0.023": 0.0,
			"-0.022": 0.0,
			"-0.021": 0.0,
			"-0.02": 0.0152196223819,
			"-0.019": 0.563781209346,
			"-0.018": 0.823312368593,
			"-0.017": 2.57474862789,
			"-0.016": 2.02565138835,
			"-0.015": 1.37197385066,
			"-0.014": 1.25257758439,
			"-0.013": 0.883643268589,
			"-0.012": 2.07176048668,
			"-0.011": 3.26611485337,
			"-0.01": 4.62700481261,
			"-0.009": 5.78814571007,
			"-0.008": 6.19543939555,
			"-0.007": 6.7630511333,
			"-0.006": 6.6237995005,
			"-0.005": 5.73748519709,
			"-0.004": 6.39318644037,
			"-0.003": 7.59508118796,
			"-0.002": 8.25949353138,
			"-0.001": 7.2777138502,
			"0.0": 7.36794123228,
			"0.001": 6.95984364867,
			"0.002": 5.22702604139,
			"0.003": 6.37256716157,
			"0.004": 5.24405617172,
			"0.005": 5.22834573059,
			"0.006": 4.99372411496,
			"0.007": 5.64519715403,
			"0.008": 4.59208201959,
			"0.009": 4.95548330732,
			"0.01": 5.97371464851,
			"0.011": 6.03989824904,
			"0.012": 3.29898238821,
			"0.013": 7.11132399526,
			"0.014": 3.68137457204,
			"0.015": 0.149805439526,
			"0.016": 0.0,
			"0.017": 0.0,
			"0.018": 0.0,
			"0.019": 0.0,
			"0.02": 0.0,
			"0.021": 0.0,
			"0.022": 0.0,
			"0.023": 0.0,
			"0.024": 0.0,
			"0.025": 0.0
		}
	}
}
