{
	 "smiles": "N#CCN1CCN(CC1)C1=NC=CC=N1", 
	 "Tm": 373.15, 
	 "num_atms": 28, 
	 "gaussian": { 
		 "optdone": 1, 
		 "sigma_profile": "yes", 
		 "theory": "DFT", 
		 "functional": "B3LYP", 
		 "basiset": "6-31G**", 
		 "properties": { 
			 "R2extent": 4296.8415, 
			 "electric_dipole_moment_norm": 4.20874025095, 
			 "electric_quadrupole_moment_norm": 16.2305913725, 
			 "total_energy": -662.616755205, 
			 "HOMO_LUMO_gap": 0.18223, 
			 "cosmo_polarized_energy": -14.39, 
			 "cosmo_cavitation_energy": 31.23, 
			 "cosmo_dispersion_energy": -22.57, 
			 "cosmo_repulsion_energy": 1.76, 
			 "cosmo_total_nonelectrostatic_energy": 10.42, 
			 "SMD_solvation_energy": 1.43 
		},
		"coords": [
			{
				"x": -1.7764213902,
				"y": -4.7957237552,
				"z": -1.2050973782,
				"element": "N" 
			},
			{
				"x": -1.3330815011,
				"y": -4.0998200583,
				"z": -0.3895825857,
				"element": "C" 
			},
			{
				"x": -0.7489169979,
				"y": -3.2207735783,
				"z": 0.6395869147,
				"element": "C" 
			},
			{
				"x": -1.061408316,
				"y": -1.8220992069,
				"z": 0.3906605004,
				"element": "N" 
			},
			{
				"x": -0.457524329,
				"y": -1.3285935761,
				"z": -0.8555414938,
				"element": "C" 
			},
			{
				"x": -0.4733385922,
				"y": 0.1953061401,
				"z": -0.9091689328,
				"element": "C" 
			},
			{
				"x": 0.3251295967,
				"y": 0.7387908876,
				"z": 0.1917452709,
				"element": "N" 
			},
			{
				"x": 0.4338434911,
				"y": -0.0673962707,
				"z": 1.40685981,
				"element": "C" 
			},
			{
				"x": -0.8189936515,
				"y": -0.9367345182,
				"z": 1.5470118452,
				"element": "C" 
			},
			{
				"x": 0.9539318277,
				"y": 1.9467994247,
				"z": 0.0840040079,
				"element": "C" 
			},
			{
				"x": 1.7171424176,
				"y": 2.3398784297,
				"z": 1.1303137217,
				"element": "N" 
			},
			{
				"x": 2.3146371355,
				"y": 3.5240058016,
				"z": 1.0055050908,
				"element": "C" 
			},
			{
				"x": 2.1913527542,
				"y": 4.3278549461,
				"z": -0.127272916,
				"element": "C" 
			},
			{
				"x": 1.384867911,
				"y": 3.8162068779,
				"z": -1.1436817124,
				"element": "C" 
			},
			{
				"x": 0.758144342,
				"y": 2.6440119458,
				"z": -1.059114263,
				"element": "N" 
			},
			{
				"x": -1.1717261747,
				"y": -3.5204525676,
				"z": 1.6045968876,
				"element": "H" 
			},
			{
				"x": 0.3375607882,
				"y": -3.4391431054,
				"z": 0.6778674424,
				"element": "H" 
			},
			{
				"x": 0.5877970826,
				"y": -1.6744381306,
				"z": -0.9650621018,
				"element": "H" 
			},
			{
				"x": -1.0174879093,
				"y": -1.7277535415,
				"z": -1.7081750621,
				"element": "H" 
			},
			{
				"x": -1.5087402381,
				"y": 0.5623502294,
				"z": -0.864822965,
				"element": "H" 
			},
			{
				"x": -0.0522611404,
				"y": 0.5420986595,
				"z": -1.8536324809,
				"element": "H" 
			},
			{
				"x": 0.5327882299,
				"y": 0.5986317625,
				"z": 2.2661110543,
				"element": "H" 
			},
			{
				"x": 1.3402041984,
				"y": -0.6915948571,
				"z": 1.3849226759,
				"element": "H" 
			},
			{
				"x": -1.6877064074,
				"y": -0.2792243284,
				"z": 1.680941694,
				"element": "H" 
			},
			{
				"x": -0.7358312016,
				"y": -1.5388358538,
				"z": 2.4571900959,
				"element": "H" 
			},
			{
				"x": 2.9243499233,
				"y": 3.8409380457,
				"z": 1.8512829351,
				"element": "H" 
			},
			{
				"x": 2.6891942599,
				"y": 5.2861733113,
				"z": -0.2123244209,
				"element": "H" 
			},
			{
				"x": 1.2297938912,
				"y": 4.3732368862,
				"z": -2.0673236345,
				"element": "H" 
			}
		],
		 "valence_orbital": [ 
			{
				"type": "occ",
				"energy": -0.30841,
				"method": "rhf"
			},
			{
				"type": "occ",
				"energy": -0.30401,
				"method": "rhf"
			},
			{
				"type": "occ",
				"energy": -0.24529,
				"method": "rhf"
			},
			{
				"type": "occ",
				"energy": -0.23081,
				"method": "rhf"
			},
			{
				"type": "occ",
				"energy": -0.21446,
				"method": "rhf"
			},
			{
				"type": "unocc",
				"energy": -0.03223,
				"method": "rhf"
			},
			{
				"type": "unocc",
				"energy": 0.00084,
				"method": "rhf"
			},
			{
				"type": "unocc",
				"energy": 0.01952,
				"method": "rhf"
			},
			{
				"type": "unocc",
				"energy": 0.03569,
				"method": "rhf"
			},
			{
				"type": "unocc",
				"energy": 0.07301,
				"method": "rhf"
			}
		],
		"cosmo_sigma_profile": { 
			"-0.025": 0.0,
			"-0.024": 0.0,
			"-0.023": 0.0,
			"-0.022": 0.0,
			"-0.021": 0.0,
			"-0.02": 0.0,
			"-0.019": 0.0,
			"-0.018": 0.0,
			"-0.017": 0.0,
			"-0.016": 0.0,
			"-0.015": 0.0,
			"-0.014": 0.0,
			"-0.013": 0.0,
			"-0.012": 0.0,
			"-0.011": 0.0,
			"-0.01": 0.0408718079401,
			"-0.009": 2.91072837384,
			"-0.008": 3.33007252929,
			"-0.007": 9.40332190625,
			"-0.006": 18.8610905718,
			"-0.005": 17.9660172704,
			"-0.004": 26.7807653949,
			"-0.003": 25.0810680721,
			"-0.002": 16.063759156,
			"-0.001": 11.911834769,
			"0.0": 12.9937900928,
			"0.001": 16.452358384,
			"0.002": 16.2058160435,
			"0.003": 11.1524837758,
			"0.004": 8.32210695173,
			"0.005": 6.64253665388,
			"0.006": 5.39226060111,
			"0.007": 6.71526977165,
			"0.008": 7.04543151897,
			"0.009": 6.04095820513,
			"0.01": 5.83622927346,
			"0.011": 4.72569460482,
			"0.012": 4.90777623036,
			"0.013": 2.77336182739,
			"0.014": 0.308815221855,
			"0.015": 0.0,
			"0.016": 0.0,
			"0.017": 0.0,
			"0.018": 0.0,
			"0.019": 0.0,
			"0.02": 0.0,
			"0.021": 0.0,
			"0.022": 0.0,
			"0.023": 0.0,
			"0.024": 0.0,
			"0.025": 0.0
		}
	}
}
