{
	 "smiles": "FC1=C(F)C(F)=C(OC(=O)C2CCN(CC2)C2=NC=NC3=C2SC=C3)C(F)=C1F", 
	 "Tm": 375.15, 
	 "num_atms": 41, 
	 "gaussian": { 
		 "optdone": 1, 
		 "sigma_profile": "yes", 
		 "theory": "DFT", 
		 "functional": "B3LYP", 
		 "basiset": "6-31G**", 
		 "properties": { 
			 "R2extent": 13885.7273, 
			 "electric_dipole_moment_norm": 4.89850957027, 
			 "electric_quadrupole_moment_norm": 14.781395016, 
			 "total_energy": -1905.167188, 
			 "HOMO_LUMO_gap": 0.17369, 
			 "cosmo_polarized_energy": -15.15, 
			 "cosmo_cavitation_energy": 48.42, 
			 "cosmo_dispersion_energy": -32.82, 
			 "cosmo_repulsion_energy": 2.3, 
			 "cosmo_total_nonelectrostatic_energy": 17.9, 
			 "SMD_solvation_energy": 7.94 
		},
		"coords": [
			{
				"x": 3.517168337,
				"y": 3.6885054602,
				"z": -4.0343581915,
				"element": "F" 
			},
			{
				"x": 2.5561154176,
				"y": 3.0668318876,
				"z": -3.3474726462,
				"element": "C" 
			},
			{
				"x": 1.7092665913,
				"y": 3.8001203606,
				"z": -2.51719719,
				"element": "C" 
			},
			{
				"x": 1.8633399321,
				"y": 5.1227412725,
				"z": -2.4084192014,
				"element": "F" 
			},
			{
				"x": 0.7038147318,
				"y": 3.1495403362,
				"z": -1.8069676533,
				"element": "C" 
			},
			{
				"x": -0.1089553136,
				"y": 3.8521037455,
				"z": -1.0128685589,
				"element": "F" 
			},
			{
				"x": 0.5364952376,
				"y": 1.7700517888,
				"z": -1.9208942929,
				"element": "C" 
			},
			{
				"x": -0.4918765774,
				"y": 1.1207015292,
				"z": -1.2717320187,
				"element": "O" 
			},
			{
				"x": -0.3385021682,
				"y": 0.9077016386,
				"z": 0.0944618435,
				"element": "C" 
			},
			{
				"x": 0.6272560257,
				"y": 1.2900778424,
				"z": 0.6974104083,
				"element": "O" 
			},
			{
				"x": -1.5605656944,
				"y": 0.1882392991,
				"z": 0.6512340251,
				"element": "C" 
			},
			{
				"x": -1.293038973,
				"y": -0.3445971412,
				"z": 2.0816113072,
				"element": "C" 
			},
			{
				"x": -1.0713120794,
				"y": -1.8683142127,
				"z": 2.0795490073,
				"element": "C" 
			},
			{
				"x": -0.311201782,
				"y": -2.2889229719,
				"z": 0.8986311126,
				"element": "N" 
			},
			{
				"x": -0.9626081535,
				"y": -2.0499092568,
				"z": -0.3927478768,
				"element": "C" 
			},
			{
				"x": -2.0384375962,
				"y": -0.9573165498,
				"z": -0.2640527931,
				"element": "C" 
			},
			{
				"x": 0.896051149,
				"y": -2.9285071928,
				"z": 1.0304964077,
				"element": "C" 
			},
			{
				"x": 1.4083759033,
				"y": -3.0035553897,
				"z": 2.2725492305,
				"element": "N" 
			},
			{
				"x": 2.59086888,
				"y": -3.6024743121,
				"z": 2.4582442945,
				"element": "C" 
			},
			{
				"x": 3.3735391919,
				"y": -4.1687869528,
				"z": 1.5519569928,
				"element": "N" 
			},
			{
				"x": 2.8737034109,
				"y": -4.1247576272,
				"z": 0.2949073651,
				"element": "C" 
			},
			{
				"x": 1.639153176,
				"y": -3.5168801811,
				"z": -0.0330511875,
				"element": "C" 
			},
			{
				"x": 1.3072378923,
				"y": -3.7030322188,
				"z": -1.7550856925,
				"element": "S" 
			},
			{
				"x": 2.805324223,
				"y": -4.5608874207,
				"z": -1.9879385243,
				"element": "C" 
			},
			{
				"x": 3.5246737394,
				"y": -4.7082520952,
				"z": -0.8465911941,
				"element": "C" 
			},
			{
				"x": 1.3949707821,
				"y": 1.0433860402,
				"z": -2.7443213354,
				"element": "C" 
			},
			{
				"x": 1.2538901578,
				"y": -0.2837616299,
				"z": -2.8490729826,
				"element": "F" 
			},
			{
				"x": 2.399256421,
				"y": 1.6868513435,
				"z": -3.4640537335,
				"element": "C" 
			},
			{
				"x": 3.2124120839,
				"y": 0.9866534596,
				"z": -4.2599431085,
				"element": "F" 
			},
			{
				"x": -2.3429931389,
				"y": 0.9584300248,
				"z": 0.6758413302,
				"element": "H" 
			},
			{
				"x": -2.1424632183,
				"y": -0.1118543395,
				"z": 2.7323758405,
				"element": "H" 
			},
			{
				"x": -0.4155126386,
				"y": 0.1595953453,
				"z": 2.4925268999,
				"element": "H" 
			},
			{
				"x": -2.0344361642,
				"y": -2.3972756057,
				"z": 2.0820536017,
				"element": "H" 
			},
			{
				"x": -0.5162205032,
				"y": -2.1803445356,
				"z": 2.9609185562,
				"element": "H" 
			},
			{
				"x": -0.214608203,
				"y": -1.7100312642,
				"z": -1.1143210348,
				"element": "H" 
			},
			{
				"x": -1.4183050881,
				"y": -2.9680799516,
				"z": -0.7911882043,
				"element": "H" 
			},
			{
				"x": -2.2882947565,
				"y": -0.5904111349,
				"z": -1.2614903154,
				"element": "H" 
			},
			{
				"x": -2.9572910785,
				"y": -1.3706013524,
				"z": 0.1642202067,
				"element": "H" 
			},
			{
				"x": 2.9454089419,
				"y": -3.6213368756,
				"z": 3.4879034977,
				"element": "H" 
			},
			{
				"x": 3.0591692064,
				"y": -4.9027645955,
				"z": -2.9825501564,
				"element": "H" 
			},
			{
				"x": 4.4816316949,
				"y": -5.2096765663,
				"z": -0.7758740356,
				"element": "H" 
			}
		],
		 "valence_orbital": [ 
			{
				"type": "occ",
				"energy": -0.26576,
				"method": "rhf"
			},
			{
				"type": "occ",
				"energy": -0.2648,
				"method": "rhf"
			},
			{
				"type": "occ",
				"energy": -0.24839,
				"method": "rhf"
			},
			{
				"type": "occ",
				"energy": -0.24436,
				"method": "rhf"
			},
			{
				"type": "occ",
				"energy": -0.20957,
				"method": "rhf"
			},
			{
				"type": "unocc",
				"energy": -0.03588,
				"method": "rhf"
			},
			{
				"type": "unocc",
				"energy": -0.03429,
				"method": "rhf"
			},
			{
				"type": "unocc",
				"energy": -0.02534,
				"method": "rhf"
			},
			{
				"type": "unocc",
				"energy": -0.01742,
				"method": "rhf"
			},
			{
				"type": "unocc",
				"energy": -0.00703,
				"method": "rhf"
			}
		],
		"cosmo_sigma_profile": { 
			"-0.025": 0.0,
			"-0.024": 0.0,
			"-0.023": 0.0,
			"-0.022": 0.0,
			"-0.021": 0.0,
			"-0.02": 0.0,
			"-0.019": 0.0,
			"-0.018": 0.0,
			"-0.017": 0.0,
			"-0.016": 0.0,
			"-0.015": 0.0,
			"-0.014": 0.0,
			"-0.013": 0.0,
			"-0.012": 0.0,
			"-0.011": 0.0,
			"-0.01": 0.593884805509,
			"-0.009": 2.28591498988,
			"-0.008": 3.17886352018,
			"-0.007": 7.46268304694,
			"-0.006": 12.010823419,
			"-0.005": 24.119291719,
			"-0.004": 40.7372357013,
			"-0.003": 34.4219624694,
			"-0.002": 28.703184528,
			"-0.001": 25.9299494318,
			"0.0": 26.1277139006,
			"0.001": 34.8151970182,
			"0.002": 61.278019816,
			"0.003": 37.4834274212,
			"0.004": 13.8975704756,
			"0.005": 6.09393232662,
			"0.006": 4.61273051335,
			"0.007": 4.32808943893,
			"0.008": 5.01693058602,
			"0.009": 5.65038130046,
			"0.01": 5.45643684885,
			"0.011": 2.09526570577,
			"0.012": 1.00188763488,
			"0.013": 0.679630565985,
			"0.014": 1.05278329857,
			"0.015": 0.874005839988,
			"0.016": 0.85636233938,
			"0.017": 0.364056032656,
			"0.018": 0.0,
			"0.019": 0.0,
			"0.02": 0.0,
			"0.021": 0.0,
			"0.022": 0.0,
			"0.023": 0.0,
			"0.024": 0.0,
			"0.025": 0.0
		}
	}
}
