{
	 "smiles": "COCCN1N=C(C=CC1=O)C(O)=O", 
	 "Tm": 430.15, 
	 "num_atms": 24, 
	 "gaussian": { 
		 "optdone": 1, 
		 "sigma_profile": "yes", 
		 "theory": "DFT", 
		 "functional": "B3LYP", 
		 "basiset": "6-31G**", 
		 "properties": { 
			 "R2extent": 4598.3669, 
			 "electric_dipole_moment_norm": 2.91038001986, 
			 "electric_quadrupole_moment_norm": 15.4390876826, 
			 "total_energy": -721.248427452, 
			 "HOMO_LUMO_gap": 0.16299, 
			 "cosmo_polarized_energy": -16.32, 
			 "cosmo_cavitation_energy": 29.06, 
			 "cosmo_dispersion_energy": -20.74, 
			 "cosmo_repulsion_energy": 1.65, 
			 "cosmo_total_nonelectrostatic_energy": 9.97, 
			 "SMD_solvation_energy": 6.85 
		},
		"coords": [
			{
				"x": 2.820236138,
				"y": 0.399231512,
				"z": 2.8663494286,
				"element": "C" 
			},
			{
				"x": 1.5240195601,
				"y": -0.1193451003,
				"z": 2.6142184051,
				"element": "O" 
			},
			{
				"x": 1.1398493035,
				"y": -0.0864865745,
				"z": 1.2565867786,
				"element": "C" 
			},
			{
				"x": 1.6655904347,
				"y": -1.3207664297,
				"z": 0.5004993422,
				"element": "C" 
			},
			{
				"x": 1.2251437358,
				"y": -1.3233368706,
				"z": -0.8990467349,
				"element": "N" 
			},
			{
				"x": 0.0903597834,
				"y": -1.970760037,
				"z": -1.1605853139,
				"element": "N" 
			},
			{
				"x": -0.3605148347,
				"y": -1.9856586812,
				"z": -2.3927071928,
				"element": "C" 
			},
			{
				"x": 0.3138659096,
				"y": -1.3350934401,
				"z": -3.4702075411,
				"element": "C" 
			},
			{
				"x": 1.4650360053,
				"y": -0.6667060658,
				"z": -3.2041540395,
				"element": "C" 
			},
			{
				"x": 1.9966942386,
				"y": -0.5989872783,
				"z": -1.8522037879,
				"element": "C" 
			},
			{
				"x": 3.0032703767,
				"y": 0.0020788519,
				"z": -1.4970809281,
				"element": "O" 
			},
			{
				"x": -1.6383498576,
				"y": -2.7372658327,
				"z": -2.6265905022,
				"element": "C" 
			},
			{
				"x": -2.1727906748,
				"y": -3.3106476955,
				"z": -1.5346751346,
				"element": "O" 
			},
			{
				"x": -2.1452922483,
				"y": -2.8165440518,
				"z": -3.7220664658,
				"element": "O" 
			},
			{
				"x": 2.9698500863,
				"y": 0.3604039731,
				"z": 3.94764151,
				"element": "H" 
			},
			{
				"x": 3.613748252,
				"y": -0.1872069103,
				"z": 2.3820258969,
				"element": "H" 
			},
			{
				"x": 2.9076514746,
				"y": 1.4426103226,
				"z": 2.5299573728,
				"element": "H" 
			},
			{
				"x": 1.4922445143,
				"y": 0.8275529078,
				"z": 0.75775847,
				"element": "H" 
			},
			{
				"x": 0.0445237258,
				"y": -0.093284947,
				"z": 1.2349412173,
				"element": "H" 
			},
			{
				"x": 1.2885196824,
				"y": -2.2326325015,
				"z": 0.964995978,
				"element": "H" 
			},
			{
				"x": 2.756143841,
				"y": -1.3297170529,
				"z": 0.4927195878,
				"element": "H" 
			},
			{
				"x": -0.118052108,
				"y": -1.3989721471,
				"z": -4.4627795493,
				"element": "H" 
			},
			{
				"x": 2.0336889246,
				"y": -0.1472730962,
				"z": -3.967188679,
				"element": "H" 
			},
			{
				"x": -1.5913362633,
				"y": -3.1127928549,
				"z": -0.7776081182,
				"element": "H" 
			}
		],
		 "valence_orbital": [ 
			{
				"type": "occ",
				"energy": -0.31976,
				"method": "rhf"
			},
			{
				"type": "occ",
				"energy": -0.28974,
				"method": "rhf"
			},
			{
				"type": "occ",
				"energy": -0.27703,
				"method": "rhf"
			},
			{
				"type": "occ",
				"energy": -0.27208,
				"method": "rhf"
			},
			{
				"type": "occ",
				"energy": -0.25472,
				"method": "rhf"
			},
			{
				"type": "unocc",
				"energy": -0.09173,
				"method": "rhf"
			},
			{
				"type": "unocc",
				"energy": -0.05165,
				"method": "rhf"
			},
			{
				"type": "unocc",
				"energy": 0.04249,
				"method": "rhf"
			},
			{
				"type": "unocc",
				"energy": 0.07672,
				"method": "rhf"
			},
			{
				"type": "unocc",
				"energy": 0.08238,
				"method": "rhf"
			}
		],
		"cosmo_sigma_profile": { 
			"-0.025": 0.0,
			"-0.024": 0.0,
			"-0.023": 0.0,
			"-0.022": 0.0,
			"-0.021": 0.0,
			"-0.02": 0.0,
			"-0.019": 0.0,
			"-0.018": 0.0,
			"-0.017": 0.0,
			"-0.016": 0.0,
			"-0.015": 0.399566823163,
			"-0.014": 0.375875105794,
			"-0.013": 0.813315005351,
			"-0.012": 0.347820260747,
			"-0.011": 0.935871956644,
			"-0.01": 1.10958625836,
			"-0.009": 1.98364899002,
			"-0.008": 4.76656205335,
			"-0.007": 6.53234736883,
			"-0.006": 10.9487305964,
			"-0.005": 20.0949336866,
			"-0.004": 27.2865711556,
			"-0.003": 27.2716489586,
			"-0.002": 23.8371442059,
			"-0.001": 16.9750763613,
			"0.0": 10.5526218746,
			"0.001": 5.05992624874,
			"0.002": 5.732843097,
			"0.003": 5.60414445393,
			"0.004": 5.08820122825,
			"0.005": 4.48128977809,
			"0.006": 5.39903168317,
			"0.007": 4.34971824492,
			"0.008": 5.8422341562,
			"0.009": 6.18936227297,
			"0.01": 7.92134327493,
			"0.011": 8.06507159128,
			"0.012": 7.01528679496,
			"0.013": 5.41362600541,
			"0.014": 0.545304229935,
			"0.015": 0.0,
			"0.016": 0.0,
			"0.017": 0.0,
			"0.018": 0.0,
			"0.019": 0.0,
			"0.02": 0.0,
			"0.021": 0.0,
			"0.022": 0.0,
			"0.023": 0.0,
			"0.024": 0.0,
			"0.025": 0.0
		}
	}
}
