{
	 "smiles": "CC(C)(C)OC(=O)NCCCN", 
	 "Tm": 296.15, 
	 "num_atms": 30, 
	 "gaussian": { 
		 "optdone": 1, 
		 "sigma_profile": "yes", 
		 "theory": "DFT", 
		 "functional": "B3LYP", 
		 "basiset": "6-31G**", 
		 "properties": { 
			 "R2extent": 3484.3138, 
			 "electric_dipole_moment_norm": 1.11440178123, 
			 "electric_quadrupole_moment_norm": 15.5939940115, 
			 "total_energy": -575.687288478, 
			 "HOMO_LUMO_gap": 0.29037, 
			 "cosmo_polarized_energy": -13.12, 
			 "cosmo_cavitation_energy": 31.72, 
			 "cosmo_dispersion_energy": -21.73, 
			 "cosmo_repulsion_energy": 1.78, 
			 "cosmo_total_nonelectrostatic_energy": 11.78, 
			 "SMD_solvation_energy": 4.43 
		},
		"coords": [
			{
				"x": 1.9927047297,
				"y": 0.5165923539,
				"z": 0.529810439,
				"element": "C" 
			},
			{
				"x": 0.5617860029,
				"y": 1.050655223,
				"z": 0.4235263846,
				"element": "C" 
			},
			{
				"x": 0.5065883036,
				"y": 2.276505297,
				"z": -0.4945589379,
				"element": "C" 
			},
			{
				"x": -0.0148326915,
				"y": 1.3405073979,
				"z": 1.8135806712,
				"element": "C" 
			},
			{
				"x": -0.1553988724,
				"y": -0.0751233256,
				"z": -0.194391765,
				"element": "O" 
			},
			{
				"x": -1.4788760307,
				"y": 0.0160287344,
				"z": -0.4756465646,
				"element": "C" 
			},
			{
				"x": -2.2046533505,
				"y": 0.9680800861,
				"z": -0.2334463667,
				"element": "O" 
			},
			{
				"x": -1.9194904008,
				"y": -1.1181764935,
				"z": -1.1045412033,
				"element": "N" 
			},
			{
				"x": -1.1688286098,
				"y": -2.3548674735,
				"z": -1.2792109205,
				"element": "C" 
			},
			{
				"x": -1.1429563073,
				"y": -3.2579037521,
				"z": -0.0376461402,
				"element": "C" 
			},
			{
				"x": -0.3616241952,
				"y": -4.5684833524,
				"z": -0.2478706242,
				"element": "C" 
			},
			{
				"x": -0.8958184166,
				"y": -5.5150782623,
				"z": -1.231148229,
				"element": "N" 
			},
			{
				"x": 2.3878343412,
				"y": 0.2693566287,
				"z": -0.4599253221,
				"element": "H" 
			},
			{
				"x": 2.6425829394,
				"y": 1.2708091862,
				"z": 0.9834388783,
				"element": "H" 
			},
			{
				"x": 2.0243099833,
				"y": -0.3847131534,
				"z": 1.1491317065,
				"element": "H" 
			},
			{
				"x": -0.5145831787,
				"y": 2.645931462,
				"z": -0.5895231824,
				"element": "H" 
			},
			{
				"x": 1.1358312349,
				"y": 3.0724368206,
				"z": -0.0829766206,
				"element": "H" 
			},
			{
				"x": 0.8871223839,
				"y": 2.0231345612,
				"z": -1.4892671293,
				"element": "H" 
			},
			{
				"x": 0.5916393749,
				"y": 2.1041156571,
				"z": 2.3115775091,
				"element": "H" 
			},
			{
				"x": 0.0065216644,
				"y": 0.4357545064,
				"z": 2.4297278148,
				"element": "H" 
			},
			{
				"x": -1.0428388035,
				"y": 1.6956139074,
				"z": 1.7412899522,
				"element": "H" 
			},
			{
				"x": -2.9206700957,
				"y": -1.1313975658,
				"z": -1.2295145156,
				"element": "H" 
			},
			{
				"x": -0.1471842807,
				"y": -2.0935008783,
				"z": -1.5686606857,
				"element": "H" 
			},
			{
				"x": -1.6178784921,
				"y": -2.8878836587,
				"z": -2.1250105928,
				"element": "H" 
			},
			{
				"x": -0.6909579609,
				"y": -2.695215034,
				"z": 0.7881992635,
				"element": "H" 
			},
			{
				"x": -2.1742035337,
				"y": -3.4903340014,
				"z": 0.2645804759,
				"element": "H" 
			},
			{
				"x": -0.2909820052,
				"y": -5.0925679205,
				"z": 0.7127138196,
				"element": "H" 
			},
			{
				"x": 0.6702792983,
				"y": -4.3342339043,
				"z": -0.5406795227,
				"element": "H" 
			},
			{
				"x": -1.8650109063,
				"y": -5.7376883702,
				"z": -1.0148867803,
				"element": "H" 
			},
			{
				"x": -0.8912121251,
				"y": -5.110754676,
				"z": -2.1636718118,
				"element": "H" 
			}
		],
		 "valence_orbital": [ 
			{
				"type": "occ",
				"energy": -0.32851,
				"method": "rhf"
			},
			{
				"type": "occ",
				"energy": -0.28525,
				"method": "rhf"
			},
			{
				"type": "occ",
				"energy": -0.25773,
				"method": "rhf"
			},
			{
				"type": "occ",
				"energy": -0.25118,
				"method": "rhf"
			},
			{
				"type": "occ",
				"energy": -0.23207,
				"method": "rhf"
			},
			{
				"type": "unocc",
				"energy": 0.0583,
				"method": "rhf"
			},
			{
				"type": "unocc",
				"energy": 0.06831,
				"method": "rhf"
			},
			{
				"type": "unocc",
				"energy": 0.08278,
				"method": "rhf"
			},
			{
				"type": "unocc",
				"energy": 0.08799,
				"method": "rhf"
			},
			{
				"type": "unocc",
				"energy": 0.1131,
				"method": "rhf"
			}
		],
		"cosmo_sigma_profile": { 
			"-0.025": 0.0,
			"-0.024": 0.0,
			"-0.023": 0.0,
			"-0.022": 0.0,
			"-0.021": 0.0,
			"-0.02": 0.0,
			"-0.019": 0.0,
			"-0.018": 0.0,
			"-0.017": 0.0,
			"-0.016": 0.0,
			"-0.015": 0.0,
			"-0.014": 0.139353557217,
			"-0.013": 1.18773956625,
			"-0.012": 0.780852050591,
			"-0.011": 1.05007872609,
			"-0.01": 1.26897465185,
			"-0.009": 3.42640750036,
			"-0.008": 4.07829797671,
			"-0.007": 4.88388583835,
			"-0.006": 4.60156870029,
			"-0.005": 6.92208875711,
			"-0.004": 16.1555862853,
			"-0.003": 29.846560526,
			"-0.002": 25.5625827124,
			"-0.001": 27.714876432,
			"0.0": 31.8916100652,
			"0.001": 27.0152537275,
			"0.002": 9.55460331927,
			"0.003": 6.74633689644,
			"0.004": 7.02755303151,
			"0.005": 5.60070261913,
			"0.006": 4.35680126133,
			"0.007": 2.0398400854,
			"0.008": 3.01042202366,
			"0.009": 1.85556733797,
			"0.01": 2.63601623793,
			"0.011": 2.00013582096,
			"0.012": 1.9266788441,
			"0.013": 2.89342536979,
			"0.014": 4.50621587281,
			"0.015": 1.36799136938,
			"0.016": 0.251969085242,
			"0.017": 0.796778560035,
			"0.018": 0.452034702838,
			"0.019": 0.7354882338,
			"0.02": 0.44294346613,
			"0.021": 0.0,
			"0.022": 0.0,
			"0.023": 0.0,
			"0.024": 0.0,
			"0.025": 0.0
		}
	}
}
