{
	 "smiles": "OC(=O)C1=CC2=C(O1)C=CC(=C2)[N+]([O-])=O", 
	 "Tm": 547.15, 
	 "num_atms": 20, 
	 "gaussian": { 
		 "optdone": 1, 
		 "sigma_profile": "yes", 
		 "theory": "DFT", 
		 "functional": "B3LYP", 
		 "basiset": "6-31G**", 
		 "properties": { 
			 "R2extent": 5359.1353, 
			 "electric_dipole_moment_norm": 2.99948302379, 
			 "electric_quadrupole_moment_norm": 31.0574207865, 
			 "total_energy": -776.738165476, 
			 "HOMO_LUMO_gap": 0.16804, 
			 "cosmo_polarized_energy": -16.46, 
			 "cosmo_cavitation_energy": 26.7, 
			 "cosmo_dispersion_energy": -19.83, 
			 "cosmo_repulsion_energy": 1.53, 
			 "cosmo_total_nonelectrostatic_energy": 8.4, 
			 "SMD_solvation_energy": 8.43 
		},
		"coords": [
			{
				"x": -4.7096406943,
				"y": 0.1439237011,
				"z": 2.8264603121,
				"element": "O" 
			},
			{
				"x": -3.4025992558,
				"y": -0.1768545294,
				"z": 2.9478549369,
				"element": "C" 
			},
			{
				"x": -2.9971468686,
				"y": -0.9165623053,
				"z": 3.8120822582,
				"element": "O" 
			},
			{
				"x": -2.498207385,
				"y": 0.4382771742,
				"z": 1.9523971214,
				"element": "C" 
			},
			{
				"x": -1.1534426249,
				"y": 0.3314857777,
				"z": 1.7900217795,
				"element": "C" 
			},
			{
				"x": -0.8207059934,
				"y": 1.1523189238,
				"z": 0.656837193,
				"element": "C" 
			},
			{
				"x": -2.0410376404,
				"y": 1.7075619129,
				"z": 0.2129766454,
				"element": "C" 
			},
			{
				"x": -3.0657945262,
				"y": 1.2742757871,
				"z": 1.0006630629,
				"element": "O" 
			},
			{
				"x": -2.152875895,
				"y": 2.569676076,
				"z": -0.874153643,
				"element": "C" 
			},
			{
				"x": -0.9748956457,
				"y": 2.8825286623,
				"z": -1.5406577243,
				"element": "C" 
			},
			{
				"x": 0.2464621451,
				"y": 2.3351732343,
				"z": -1.1072041186,
				"element": "C" 
			},
			{
				"x": 0.3602930138,
				"y": 1.474811487,
				"z": -0.0227918023,
				"element": "C" 
			},
			{
				"x": 1.4701129826,
				"y": 2.6949626764,
				"z": -1.8445017546,
				"element": "N" 
			},
			{
				"x": 1.3545291327,
				"y": 3.4575813817,
				"z": -2.802788902,
				"element": "O" 
			},
			{
				"x": 2.5319055951,
				"y": 2.2102617956,
				"z": -1.4565527852,
				"element": "O" 
			},
			{
				"x": -4.8378164672,
				"y": 0.7469055264,
				"z": 2.0772188425,
				"element": "H" 
			},
			{
				"x": -0.4953244558,
				"y": -0.2611410794,
				"z": 2.4076600267,
				"element": "H" 
			},
			{
				"x": -3.1096036627,
				"y": 2.9745196242,
				"z": -1.1828475485,
				"element": "H" 
			},
			{
				"x": -0.9712780852,
				"y": 3.5451973243,
				"z": -2.3963032813,
				"element": "H" 
			},
			{
				"x": 1.3291663308,
				"y": 1.0855968491,
				"z": 0.263029381,
				"element": "H" 
			}
		],
		 "valence_orbital": [ 
			{
				"type": "occ",
				"energy": -0.31796,
				"method": "rhf"
			},
			{
				"type": "occ",
				"energy": -0.30136,
				"method": "rhf"
			},
			{
				"type": "occ",
				"energy": -0.29636,
				"method": "rhf"
			},
			{
				"type": "occ",
				"energy": -0.2887,
				"method": "rhf"
			},
			{
				"type": "occ",
				"energy": -0.2671,
				"method": "rhf"
			},
			{
				"type": "unocc",
				"energy": -0.09906,
				"method": "rhf"
			},
			{
				"type": "unocc",
				"energy": -0.08455,
				"method": "rhf"
			},
			{
				"type": "unocc",
				"energy": -0.02187,
				"method": "rhf"
			},
			{
				"type": "unocc",
				"energy": 0.00081,
				"method": "rhf"
			},
			{
				"type": "unocc",
				"energy": 0.06038,
				"method": "rhf"
			}
		],
		"cosmo_sigma_profile": { 
			"-0.025": 0.0,
			"-0.024": 0.0,
			"-0.023": 0.0,
			"-0.022": 0.0,
			"-0.021": 0.0,
			"-0.02": 0.0,
			"-0.019": 0.0,
			"-0.018": 0.036074031182,
			"-0.017": 0.833023225245,
			"-0.016": 0.394039909041,
			"-0.015": 0.595518925764,
			"-0.014": 0.839562677273,
			"-0.013": 0.582480330332,
			"-0.012": 1.37268311977,
			"-0.011": 0.89606337621,
			"-0.01": 1.75731790591,
			"-0.009": 5.14958074635,
			"-0.008": 8.63646362861,
			"-0.007": 9.07274697575,
			"-0.006": 8.54911730534,
			"-0.005": 9.58605606042,
			"-0.004": 9.54644478635,
			"-0.003": 14.7708536261,
			"-0.002": 19.2267843608,
			"-0.001": 23.0245401293,
			"0.0": 21.2586545204,
			"0.001": 10.1475008642,
			"0.002": 4.37787302952,
			"0.003": 3.98728776418,
			"0.004": 4.83295346656,
			"0.005": 5.27216407105,
			"0.006": 6.1744555758,
			"0.007": 10.9452846192,
			"0.008": 10.2360325716,
			"0.009": 8.78735522041,
			"0.01": 6.79165859557,
			"0.011": 5.70092368543,
			"0.012": 2.42944193061,
			"0.013": 0.216736793643,
			"0.014": 0.0,
			"0.015": 0.0,
			"0.016": 0.0,
			"0.017": 0.0,
			"0.018": 0.0,
			"0.019": 0.0,
			"0.02": 0.0,
			"0.021": 0.0,
			"0.022": 0.0,
			"0.023": 0.0,
			"0.024": 0.0,
			"0.025": 0.0
		}
	}
}
