{
	 "smiles": "CC1=CC=C(Cl)C=C1N", 
	 "Tm": 297.65, 
	 "num_atms": 17, 
	 "gaussian": { 
		 "optdone": 1, 
		 "sigma_profile": "yes", 
		 "theory": "DFT", 
		 "functional": "B3LYP", 
		 "basiset": "6-31G**", 
		 "properties": { 
			 "R2extent": 1986.4148, 
			 "electric_dipole_moment_norm": 3.35720525735, 
			 "electric_quadrupole_moment_norm": 8.20260883805, 
			 "total_energy": -786.522209934, 
			 "HOMO_LUMO_gap": 0.20591, 
			 "cosmo_polarized_energy": -8.37, 
			 "cosmo_cavitation_energy": 22.04, 
			 "cosmo_dispersion_energy": -16.65, 
			 "cosmo_repulsion_energy": 1.37, 
			 "cosmo_total_nonelectrostatic_energy": 6.75, 
			 "SMD_solvation_energy": 3.44 
		},
		"coords": [
			{
				"x": -0.5458682595,
				"y": 2.6413987515,
				"z": 1.4682878048,
				"element": "C" 
			},
			{
				"x": -0.7042032324,
				"y": 1.6546285855,
				"z": 0.3388313148,
				"element": "C" 
			},
			{
				"x": -0.5588012081,
				"y": 2.0447868289,
				"z": -0.9932571758,
				"element": "C" 
			},
			{
				"x": -0.6847819251,
				"y": 1.1480332642,
				"z": -2.0561702863,
				"element": "C" 
			},
			{
				"x": -0.9666152602,
				"y": -0.1810292619,
				"z": -1.755120262,
				"element": "C" 
			},
			{
				"x": -1.1363490267,
				"y": -1.3499201861,
				"z": -3.0633360814,
				"element": "Cl" 
			},
			{
				"x": -1.1259502165,
				"y": -0.6159778331,
				"z": -0.4436823274,
				"element": "C" 
			},
			{
				"x": -0.9951183048,
				"y": 0.2974225006,
				"z": 0.6143237273,
				"element": "C" 
			},
			{
				"x": -1.0937846437,
				"y": -0.1466251976,
				"z": 1.9340500406,
				"element": "N" 
			},
			{
				"x": 0.2314556782,
				"y": 2.3231369653,
				"z": 2.174198463,
				"element": "H" 
			},
			{
				"x": -1.4741043554,
				"y": 2.7627753007,
				"z": 2.0453440713,
				"element": "H" 
			},
			{
				"x": -0.2720158182,
				"y": 3.6294869942,
				"z": 1.090462399,
				"element": "H" 
			},
			{
				"x": -0.336286474,
				"y": 3.086875822,
				"z": -1.2089484578,
				"element": "H" 
			},
			{
				"x": -0.5657559738,
				"y": 1.4709711607,
				"z": -3.0834258246,
				"element": "H" 
			},
			{
				"x": -1.3467077862,
				"y": -1.6590719202,
				"z": -0.240484899,
				"element": "H" 
			},
			{
				"x": -1.5576808578,
				"y": -1.0365699407,
				"z": 2.0528416243,
				"element": "H" 
			},
			{
				"x": -1.4147323357,
				"y": 0.5382781661,
				"z": 2.6036858691,
				"element": "H" 
			}
		],
		 "valence_orbital": [ 
			{
				"type": "occ",
				"energy": -0.34083,
				"method": "rhf"
			},
			{
				"type": "occ",
				"energy": -0.30359,
				"method": "rhf"
			},
			{
				"type": "occ",
				"energy": -0.2981,
				"method": "rhf"
			},
			{
				"type": "occ",
				"energy": -0.23761,
				"method": "rhf"
			},
			{
				"type": "occ",
				"energy": -0.2071,
				"method": "rhf"
			},
			{
				"type": "unocc",
				"energy": -0.00119,
				"method": "rhf"
			},
			{
				"type": "unocc",
				"energy": 0.0104,
				"method": "rhf"
			},
			{
				"type": "unocc",
				"energy": 0.03786,
				"method": "rhf"
			},
			{
				"type": "unocc",
				"energy": 0.07062,
				"method": "rhf"
			},
			{
				"type": "unocc",
				"energy": 0.10747,
				"method": "rhf"
			}
		],
		"cosmo_sigma_profile": { 
			"-0.025": 0.0,
			"-0.024": 0.0,
			"-0.023": 0.0,
			"-0.022": 0.0,
			"-0.021": 0.0,
			"-0.02": 0.0,
			"-0.019": 0.0,
			"-0.018": 0.0,
			"-0.017": 0.0,
			"-0.016": 0.0,
			"-0.015": 0.0,
			"-0.014": 0.0,
			"-0.013": 0.433718175023,
			"-0.012": 2.05590384231,
			"-0.011": 2.86245214019,
			"-0.01": 2.85134391646,
			"-0.009": 3.34575508762,
			"-0.008": 3.47118171754,
			"-0.007": 2.98868900527,
			"-0.006": 5.65687905858,
			"-0.005": 8.84843571096,
			"-0.004": 10.4402201833,
			"-0.003": 10.589397064,
			"-0.002": 11.0970640166,
			"-0.001": 11.8428404398,
			"0.0": 13.3416688754,
			"0.001": 9.99958232663,
			"0.002": 11.3239604374,
			"0.003": 15.2596134747,
			"0.004": 15.0567885124,
			"0.005": 22.2828821198,
			"0.006": 7.73355873938,
			"0.007": 0.984479387607,
			"0.008": 0.833938663819,
			"0.009": 0.901958875987,
			"0.01": 0.521625374021,
			"0.011": 0.625133139154,
			"0.012": 0.588551502533,
			"0.013": 0.574408505789,
			"0.014": 0.411194007454,
			"0.015": 0.0147334811862,
			"0.016": 0.0,
			"0.017": 0.0,
			"0.018": 0.0,
			"0.019": 0.0,
			"0.02": 0.0,
			"0.021": 0.0,
			"0.022": 0.0,
			"0.023": 0.0,
			"0.024": 0.0,
			"0.025": 0.0
		}
	}
}
