{
	 "smiles": "CC(C)C(=O)N(C)CC1=CC=C(C=C1)C(O)=O", 
	 "Tm": 413.15, 
	 "num_atms": 34, 
	 "gaussian": { 
		 "optdone": 1, 
		 "sigma_profile": "yes", 
		 "theory": "DFT", 
		 "functional": "B3LYP", 
		 "basiset": "6-31G**", 
		 "properties": { 
			 "R2extent": 5962.7349, 
			 "electric_dipole_moment_norm": 2.81638168756, 
			 "electric_quadrupole_moment_norm": 43.7903597284, 
			 "total_energy": -786.082507412, 
			 "HOMO_LUMO_gap": 0.19154, 
			 "cosmo_polarized_energy": -21.14, 
			 "cosmo_cavitation_energy": 37.0, 
			 "cosmo_dispersion_energy": -25.46, 
			 "cosmo_repulsion_energy": 1.99, 
			 "cosmo_total_nonelectrostatic_energy": 13.53, 
			 "SMD_solvation_energy": 8.22 
		},
		"coords": [
			{
				"x": -2.4391966271,
				"y": -2.4202925056,
				"z": -2.5984024781,
				"element": "C" 
			},
			{
				"x": -2.5936025865,
				"y": -2.1192415906,
				"z": -1.1013496793,
				"element": "C" 
			},
			{
				"x": -3.9438774218,
				"y": -2.6420334562,
				"z": -0.5691926128,
				"element": "C" 
			},
			{
				"x": -1.4508520068,
				"y": -2.7931242392,
				"z": -0.3238941748,
				"element": "C" 
			},
			{
				"x": -1.0096134395,
				"y": -3.8778024828,
				"z": -0.6915279908,
				"element": "O" 
			},
			{
				"x": -0.9500135964,
				"y": -2.1615156408,
				"z": 0.8001901373,
				"element": "N" 
			},
			{
				"x": 0.1355247293,
				"y": -2.8018950031,
				"z": 1.5385674771,
				"element": "C" 
			},
			{
				"x": -1.459259258,
				"y": -0.9256721026,
				"z": 1.3728596137,
				"element": "C" 
			},
			{
				"x": -0.6234642117,
				"y": 0.3171581235,
				"z": 1.0867994861,
				"element": "C" 
			},
			{
				"x": 0.2469502955,
				"y": 0.385116893,
				"z": -0.0048128247,
				"element": "C" 
			},
			{
				"x": 0.972372077,
				"y": 1.5486505642,
				"z": -0.2618133246,
				"element": "C" 
			},
			{
				"x": 0.8380565257,
				"y": 2.6695627182,
				"z": 0.5671010882,
				"element": "C" 
			},
			{
				"x": -0.050216165,
				"y": 2.6091848985,
				"z": 1.650704539,
				"element": "C" 
			},
			{
				"x": -0.760028614,
				"y": 1.4436100895,
				"z": 1.9118577416,
				"element": "C" 
			},
			{
				"x": 1.5730144089,
				"y": 3.9563311011,
				"z": 0.3405005767,
				"element": "C" 
			},
			{
				"x": 2.6929043121,
				"y": 3.8972146634,
				"z": -0.42923764,
				"element": "O" 
			},
			{
				"x": 1.2156838821,
				"y": 5.01343643,
				"z": 0.8049364595,
				"element": "O" 
			},
			{
				"x": -3.2742282823,
				"y": -1.9884511165,
				"z": -3.1592481753,
				"element": "H" 
			},
			{
				"x": -1.5095702939,
				"y": -2.00076021,
				"z": -2.995643928,
				"element": "H" 
			},
			{
				"x": -2.414609117,
				"y": -3.4989076662,
				"z": -2.7669816884,
				"element": "H" 
			},
			{
				"x": -2.5563951912,
				"y": -1.0327658956,
				"z": -0.9686126667,
				"element": "H" 
			},
			{
				"x": -4.7730262625,
				"y": -2.2017741074,
				"z": -1.1320175389,
				"element": "H" 
			},
			{
				"x": -4.092814258,
				"y": -2.4070064627,
				"z": 0.4902982337,
				"element": "H" 
			},
			{
				"x": -3.9932550058,
				"y": -3.7296514705,
				"z": -0.6801529297,
				"element": "H" 
			},
			{
				"x": 0.9674171479,
				"y": -2.1022342371,
				"z": 1.6745600784,
				"element": "H" 
			},
			{
				"x": 0.4701435112,
				"y": -3.6678593845,
				"z": 0.9706746169,
				"element": "H" 
			},
			{
				"x": -0.2082492426,
				"y": -3.1300036856,
				"z": 2.5278781778,
				"element": "H" 
			},
			{
				"x": -2.4824993085,
				"y": -0.7539205235,
				"z": 1.0306986917,
				"element": "H" 
			},
			{
				"x": -1.5315650774,
				"y": -1.0571459596,
				"z": 2.4607244824,
				"element": "H" 
			},
			{
				"x": 0.3588616636,
				"y": -0.4768458915,
				"z": -0.6546981833,
				"element": "H" 
			},
			{
				"x": 1.6129090853,
				"y": 1.5778433381,
				"z": -1.1404382254,
				"element": "H" 
			},
			{
				"x": -0.1607351413,
				"y": 3.4877184628,
				"z": 2.2771843738,
				"element": "H" 
			},
			{
				"x": -1.4322263232,
				"y": 1.4053146202,
				"z": 2.7659761699,
				"element": "H" 
			},
			{
				"x": 2.9408597918,
				"y": 2.9764617291,
				"z": -0.5900878831,
				"element": "H" 
			}
		],
		 "valence_orbital": [ 
			{
				"type": "occ",
				"energy": -0.27954,
				"method": "rhf"
			},
			{
				"type": "occ",
				"energy": -0.27679,
				"method": "rhf"
			},
			{
				"type": "occ",
				"energy": -0.26623,
				"method": "rhf"
			},
			{
				"type": "occ",
				"energy": -0.25052,
				"method": "rhf"
			},
			{
				"type": "occ",
				"energy": -0.24779,
				"method": "rhf"
			},
			{
				"type": "unocc",
				"energy": -0.05625,
				"method": "rhf"
			},
			{
				"type": "unocc",
				"energy": -0.0292,
				"method": "rhf"
			},
			{
				"type": "unocc",
				"energy": 0.01904,
				"method": "rhf"
			},
			{
				"type": "unocc",
				"energy": 0.0407,
				"method": "rhf"
			},
			{
				"type": "unocc",
				"energy": 0.05753,
				"method": "rhf"
			}
		],
		"cosmo_sigma_profile": { 
			"-0.025": 0.0,
			"-0.024": 0.0,
			"-0.023": 0.0,
			"-0.022": 0.0,
			"-0.021": 0.0,
			"-0.02": 0.0,
			"-0.019": 0.130884631688,
			"-0.018": 1.02395959533,
			"-0.017": 0.855023226451,
			"-0.016": 0.942412463559,
			"-0.015": 0.970564783972,
			"-0.014": 0.688230314576,
			"-0.013": 1.20944728667,
			"-0.012": 1.39386353752,
			"-0.011": 0.551543114053,
			"-0.01": 1.4376444301,
			"-0.009": 1.21418563269,
			"-0.008": 1.54941985736,
			"-0.007": 5.55149389217,
			"-0.006": 14.7844080817,
			"-0.005": 17.438289042,
			"-0.004": 21.8415973389,
			"-0.003": 30.0543466818,
			"-0.002": 29.4928552068,
			"-0.001": 27.8805220948,
			"0.0": 23.8914558164,
			"0.001": 21.8109921354,
			"0.002": 12.9678042305,
			"0.003": 15.9525502879,
			"0.004": 7.09066018917,
			"0.005": 4.00915533975,
			"0.006": 4.58232599607,
			"0.007": 3.809727957,
			"0.008": 4.66194077306,
			"0.009": 4.55571487651,
			"0.01": 5.50168596929,
			"0.011": 6.93466243253,
			"0.012": 6.96732219419,
			"0.013": 4.48046335413,
			"0.014": 4.73688526619,
			"0.015": 0.684613517803,
			"0.016": 0.0,
			"0.017": 0.0,
			"0.018": 0.0,
			"0.019": 0.0,
			"0.02": 0.0,
			"0.021": 0.0,
			"0.022": 0.0,
			"0.023": 0.0,
			"0.024": 0.0,
			"0.025": 0.0
		}
	}
}
