{
	 "smiles": "COCCCOC1=C(C)C(CS(=O)C2=NC3=CC=CC=C3N2)=NC=C1", 
	 "Tm": 372.65, 
	 "num_atms": 46, 
	 "gaussian": { 
		 "optdone": 1, 
		 "sigma_profile": "yes", 
		 "theory": "DFT", 
		 "functional": "B3LYP", 
		 "basiset": "6-31G**", 
		 "properties": { 
			 "R2extent": 14766.0779, 
			 "electric_dipole_moment_norm": 9.41996724676, 
			 "electric_quadrupole_moment_norm": 23.0509676613, 
			 "total_energy": -1486.62622891, 
			 "HOMO_LUMO_gap": 0.16985, 
			 "cosmo_polarized_energy": -24.43, 
			 "cosmo_cavitation_energy": 50.45, 
			 "cosmo_dispersion_energy": -35.48, 
			 "cosmo_repulsion_energy": 2.65, 
			 "cosmo_total_nonelectrostatic_energy": 17.62, 
			 "SMD_solvation_energy": 5.7 
		},
		"coords": [
			{
				"x": 3.7027081911,
				"y": 4.8837697329,
				"z": 4.3072168958,
				"element": "C" 
			},
			{
				"x": 4.2956843375,
				"y": 4.0124205965,
				"z": 3.3663357018,
				"element": "O" 
			},
			{
				"x": 3.5744115152,
				"y": 2.8062433941,
				"z": 3.1974749702,
				"element": "C" 
			},
			{
				"x": 4.2712814224,
				"y": 1.9846506211,
				"z": 2.1175579851,
				"element": "C" 
			},
			{
				"x": 4.2933451468,
				"y": 2.6862471733,
				"z": 0.7597333909,
				"element": "C" 
			},
			{
				"x": 2.9744752263,
				"y": 2.8841614642,
				"z": 0.2193777417,
				"element": "O" 
			},
			{
				"x": 2.333281164,
				"y": 1.8817663402,
				"z": -0.4248072887,
				"element": "C" 
			},
			{
				"x": 1.0292581724,
				"y": 2.1722348422,
				"z": -0.8905383383,
				"element": "C" 
			},
			{
				"x": 0.4112288237,
				"y": 3.5284774554,
				"z": -0.6443834747,
				"element": "C" 
			},
			{
				"x": 0.3572722526,
				"y": 1.1591756251,
				"z": -1.5906374862,
				"element": "C" 
			},
			{
				"x": -1.0242445782,
				"y": 1.372625156,
				"z": -2.1409329891,
				"element": "C" 
			},
			{
				"x": -2.405232866,
				"y": 0.8102020437,
				"z": -0.9658435458,
				"element": "S" 
			},
			{
				"x": -3.6353318208,
				"y": 1.5855704648,
				"z": -1.3488639453,
				"element": "O" 
			},
			{
				"x": -2.5695206921,
				"y": -0.8851477881,
				"z": -1.6201267298,
				"element": "C" 
			},
			{
				"x": -3.710341068,
				"y": -1.5206968509,
				"z": -1.5693946236,
				"element": "N" 
			},
			{
				"x": -3.4097094749,
				"y": -2.7932291071,
				"z": -2.034747545,
				"element": "C" 
			},
			{
				"x": -4.2475152075,
				"y": -3.9026217433,
				"z": -2.2144855841,
				"element": "C" 
			},
			{
				"x": -3.6794965298,
				"y": -5.0758315626,
				"z": -2.6974902108,
				"element": "C" 
			},
			{
				"x": -2.3040682612,
				"y": -5.1557622454,
				"z": -3.0031800375,
				"element": "C" 
			},
			{
				"x": -1.454059616,
				"y": -4.0666157703,
				"z": -2.8354886593,
				"element": "C" 
			},
			{
				"x": -2.0292393642,
				"y": -2.8896950513,
				"z": -2.3466393796,
				"element": "C" 
			},
			{
				"x": -1.5099278068,
				"y": -1.6386555187,
				"z": -2.0674702106,
				"element": "N" 
			},
			{
				"x": 0.8809328779,
				"y": -0.0686268709,
				"z": -1.805327144,
				"element": "N" 
			},
			{
				"x": 2.1076548836,
				"y": -0.3183724847,
				"z": -1.3451534564,
				"element": "C" 
			},
			{
				"x": 2.879051034,
				"y": 0.6131691195,
				"z": -0.6598065781,
				"element": "C" 
			},
			{
				"x": 2.6849740419,
				"y": 5.1777786041,
				"z": 4.0068619178,
				"element": "H" 
			},
			{
				"x": 3.6479991498,
				"y": 4.4274233502,
				"z": 5.3079172069,
				"element": "H" 
			},
			{
				"x": 4.3279509867,
				"y": 5.7780099532,
				"z": 4.3613652275,
				"element": "H" 
			},
			{
				"x": 2.5327559456,
				"y": 3.0161606812,
				"z": 2.9045574874,
				"element": "H" 
			},
			{
				"x": 3.5424973374,
				"y": 2.2373944915,
				"z": 4.1414154235,
				"element": "H" 
			},
			{
				"x": 3.7840650433,
				"y": 1.0064228492,
				"z": 2.0401344292,
				"element": "H" 
			},
			{
				"x": 5.3096807668,
				"y": 1.8078160392,
				"z": 2.4229005779,
				"element": "H" 
			},
			{
				"x": 4.9194095519,
				"y": 2.1526102197,
				"z": 0.0363666489,
				"element": "H" 
			},
			{
				"x": 4.689120767,
				"y": 3.6960513922,
				"z": 0.8783920583,
				"element": "H" 
			},
			{
				"x": 1.0449974213,
				"y": 4.1276785164,
				"z": 0.0081027235,
				"element": "H" 
			},
			{
				"x": -0.5742488314,
				"y": 3.4416332683,
				"z": -0.1760499975,
				"element": "H" 
			},
			{
				"x": 0.2795704718,
				"y": 4.0826886207,
				"z": -1.5813156452,
				"element": "H" 
			},
			{
				"x": -1.160545495,
				"y": 0.860115467,
				"z": -3.0940399093,
				"element": "H" 
			},
			{
				"x": -1.2756416465,
				"y": 2.4261640958,
				"z": -2.2637777097,
				"element": "H" 
			},
			{
				"x": -5.304299094,
				"y": -3.8322320881,
				"z": -1.9786786216,
				"element": "H" 
			},
			{
				"x": -4.3036485542,
				"y": -5.9522285658,
				"z": -2.845212921,
				"element": "H" 
			},
			{
				"x": -1.8991823449,
				"y": -6.0905465452,
				"z": -3.3800874178,
				"element": "H" 
			},
			{
				"x": -0.3971918768,
				"y": -4.1314935687,
				"z": -3.075544706,
				"element": "H" 
			},
			{
				"x": -0.5387707144,
				"y": -1.3042796215,
				"z": -2.135387676,
				"element": "H" 
			},
			{
				"x": 2.5000429414,
				"y": -1.3158827183,
				"z": -1.5306349362,
				"element": "H" 
			},
			{
				"x": 3.8686663703,
				"y": 0.3395565231,
				"z": -0.318263619,
				"element": "H" 
			}
		],
		 "valence_orbital": [ 
			{
				"type": "occ",
				"energy": -0.26249,
				"method": "rhf"
			},
			{
				"type": "occ",
				"energy": -0.25596,
				"method": "rhf"
			},
			{
				"type": "occ",
				"energy": -0.23356,
				"method": "rhf"
			},
			{
				"type": "occ",
				"energy": -0.21956,
				"method": "rhf"
			},
			{
				"type": "occ",
				"energy": -0.21373,
				"method": "rhf"
			},
			{
				"type": "unocc",
				"energy": -0.04388,
				"method": "rhf"
			},
			{
				"type": "unocc",
				"energy": -0.03214,
				"method": "rhf"
			},
			{
				"type": "unocc",
				"energy": -0.01611,
				"method": "rhf"
			},
			{
				"type": "unocc",
				"energy": 0.02545,
				"method": "rhf"
			},
			{
				"type": "unocc",
				"energy": 0.03159,
				"method": "rhf"
			}
		],
		"cosmo_sigma_profile": { 
			"-0.025": 0.0,
			"-0.024": 0.0,
			"-0.023": 0.0,
			"-0.022": 0.0,
			"-0.021": 0.0,
			"-0.02": 0.0,
			"-0.019": 0.0,
			"-0.018": 0.0,
			"-0.017": 0.0,
			"-0.016": 0.0,
			"-0.015": 0.0,
			"-0.014": 0.0,
			"-0.013": 0.0,
			"-0.012": 0.0,
			"-0.011": 0.0,
			"-0.01": 0.0,
			"-0.009": 0.516585384163,
			"-0.008": 4.82749960617,
			"-0.007": 12.5770281889,
			"-0.006": 19.0995651079,
			"-0.005": 26.8980394739,
			"-0.004": 37.2556112299,
			"-0.003": 47.3257306437,
			"-0.002": 40.0038220003,
			"-0.001": 34.7329607398,
			"0.0": 28.4151193066,
			"0.001": 27.5534346703,
			"0.002": 23.1693234853,
			"0.003": 17.0121404597,
			"0.004": 16.8226296096,
			"0.005": 15.9821063215,
			"0.006": 10.8743640688,
			"0.007": 4.64522589207,
			"0.008": 3.31653520051,
			"0.009": 2.72545432555,
			"0.01": 3.225124505,
			"0.011": 2.91334294019,
			"0.012": 4.47291163789,
			"0.013": 6.35637089797,
			"0.014": 6.7753585775,
			"0.015": 2.75866208553,
			"0.016": 1.36976294639,
			"0.017": 0.284678364981,
			"0.018": 0.0,
			"0.019": 0.0,
			"0.02": 0.0,
			"0.021": 0.0,
			"0.022": 0.0,
			"0.023": 0.0,
			"0.024": 0.0,
			"0.025": 0.0
		}
	}
}
