{
	 "smiles": "NC(=N)NC(=O)CC1=C(Cl)C=CC=C1Cl", 
	 "Tm": 499.15, 
	 "num_atms": 24, 
	 "gaussian": { 
		 "optdone": 1, 
		 "sigma_profile": "yes", 
		 "theory": "DFT", 
		 "functional": "B3LYP", 
		 "basiset": "6-31G**", 
		 "properties": { 
			 "R2extent": 5027.2791, 
			 "electric_dipole_moment_norm": 3.84167862529, 
			 "electric_quadrupole_moment_norm": 11.3891794643, 
			 "total_energy": -1508.24715082, 
			 "HOMO_LUMO_gap": 0.20666, 
			 "cosmo_polarized_energy": -17.84, 
			 "cosmo_cavitation_energy": 31.29, 
			 "cosmo_dispersion_energy": -22.15, 
			 "cosmo_repulsion_energy": 1.74, 
			 "cosmo_total_nonelectrostatic_energy": 10.88, 
			 "SMD_solvation_energy": 4.59 
		},
		"coords": [
			{
				"x": 2.0025939753,
				"y": -0.8132025683,
				"z": -0.2446940897,
				"element": "N" 
			},
			{
				"x": 2.9998462066,
				"y": -0.5481045189,
				"z": -1.1616294556,
				"element": "C" 
			},
			{
				"x": 4.2294325874,
				"y": -0.7287800478,
				"z": -0.8581683784,
				"element": "N" 
			},
			{
				"x": 2.5455197596,
				"y": -0.0809038254,
				"z": -2.4225099329,
				"element": "N" 
			},
			{
				"x": 1.515202492,
				"y": -0.486504945,
				"z": -3.2783258168,
				"element": "C" 
			},
			{
				"x": 1.6304905825,
				"y": -0.2448185759,
				"z": -4.4671578029,
				"element": "O" 
			},
			{
				"x": 0.3133539936,
				"y": -1.2827579856,
				"z": -2.7583862641,
				"element": "C" 
			},
			{
				"x": -0.6462014693,
				"y": -0.6816645478,
				"z": -1.7453813035,
				"element": "C" 
			},
			{
				"x": -1.1817758842,
				"y": -1.4658567148,
				"z": -0.6995535158,
				"element": "C" 
			},
			{
				"x": -0.7232000812,
				"y": -3.155195418,
				"z": -0.5170020075,
				"element": "Cl" 
			},
			{
				"x": -2.0978818757,
				"y": -0.9705808558,
				"z": 0.227179225,
				"element": "C" 
			},
			{
				"x": -2.5271933177,
				"y": 0.3500893817,
				"z": 0.1288153541,
				"element": "C" 
			},
			{
				"x": -2.0543945183,
				"y": 1.1560386585,
				"z": -0.9009164514,
				"element": "C" 
			},
			{
				"x": -1.1427680839,
				"y": 0.6351834904,
				"z": -1.8213290914,
				"element": "C" 
			},
			{
				"x": -0.6475590189,
				"y": 1.6994033194,
				"z": -3.1262795337,
				"element": "Cl" 
			},
			{
				"x": 2.3850070959,
				"y": -1.0779865845,
				"z": 0.6535970135,
				"element": "H" 
			},
			{
				"x": 1.2542690202,
				"y": -0.135959455,
				"z": -0.190667445,
				"element": "H" 
			},
			{
				"x": 4.8363004953,
				"y": -0.6383225734,
				"z": -1.6723780929,
				"element": "H" 
			},
			{
				"x": 3.2796411534,
				"y": 0.3444927558,
				"z": -2.9773577238,
				"element": "H" 
			},
			{
				"x": 0.6966448599,
				"y": -2.2198155767,
				"z": -2.3496270054,
				"element": "H" 
			},
			{
				"x": -0.2419366675,
				"y": -1.5254712109,
				"z": -3.6697203166,
				"element": "H" 
			},
			{
				"x": -2.4680487546,
				"y": -1.6216685243,
				"z": 1.0104333342,
				"element": "H" 
			},
			{
				"x": -3.2379008607,
				"y": 0.745808527,
				"z": 0.8472947474,
				"element": "H" 
			},
			{
				"x": -2.3902416898,
				"y": 2.1806777954,
				"z": -1.0099354466,
				"element": "H" 
			}
		],
		 "valence_orbital": [ 
			{
				"type": "occ",
				"energy": -0.27591,
				"method": "rhf"
			},
			{
				"type": "occ",
				"energy": -0.26992,
				"method": "rhf"
			},
			{
				"type": "occ",
				"energy": -0.26051,
				"method": "rhf"
			},
			{
				"type": "occ",
				"energy": -0.25708,
				"method": "rhf"
			},
			{
				"type": "occ",
				"energy": -0.24487,
				"method": "rhf"
			},
			{
				"type": "unocc",
				"energy": -0.03821,
				"method": "rhf"
			},
			{
				"type": "unocc",
				"energy": -0.03513,
				"method": "rhf"
			},
			{
				"type": "unocc",
				"energy": -0.01443,
				"method": "rhf"
			},
			{
				"type": "unocc",
				"energy": 0.00697,
				"method": "rhf"
			},
			{
				"type": "unocc",
				"energy": 0.04344,
				"method": "rhf"
			}
		],
		"cosmo_sigma_profile": { 
			"-0.025": 0.0,
			"-0.024": 0.0,
			"-0.023": 0.0,
			"-0.022": 0.0,
			"-0.021": 0.0,
			"-0.02": 0.0,
			"-0.019": 0.0,
			"-0.018": 0.0,
			"-0.017": 0.0,
			"-0.016": 0.0,
			"-0.015": 0.997083171195,
			"-0.014": 1.4925009235,
			"-0.013": 1.71756549746,
			"-0.012": 2.64186551289,
			"-0.011": 2.71573831505,
			"-0.01": 4.04288512404,
			"-0.009": 4.82181438337,
			"-0.008": 6.9163603825,
			"-0.007": 10.8985515243,
			"-0.006": 13.1541755322,
			"-0.005": 12.1374402846,
			"-0.004": 10.2639368946,
			"-0.003": 13.6332111634,
			"-0.002": 14.0522371818,
			"-0.001": 14.5556742285,
			"0.0": 19.4394204334,
			"0.001": 22.2394962879,
			"0.002": 19.9932769167,
			"0.003": 17.7306161483,
			"0.004": 16.4457996869,
			"0.005": 6.4749235162,
			"0.006": 4.40916361334,
			"0.007": 3.3941881556,
			"0.008": 4.12709234021,
			"0.009": 3.38521401018,
			"0.01": 2.80037912712,
			"0.011": 3.59178651498,
			"0.012": 5.15362057852,
			"0.013": 3.93319589204,
			"0.014": 1.6202095999,
			"0.015": 1.06852132881,
			"0.016": 1.41602071658,
			"0.017": 0.961451533634,
			"0.018": 0.734960713531,
			"0.019": 0.085920962729,
			"0.02": 0.0,
			"0.021": 0.0,
			"0.022": 0.0,
			"0.023": 0.0,
			"0.024": 0.0,
			"0.025": 0.0
		}
	}
}
