{
	 "smiles": "COC1=CC=C(N)C=C1N", 
	 "Tm": 340.65, 
	 "num_atms": 20, 
	 "gaussian": { 
		 "optdone": 1, 
		 "sigma_profile": "yes", 
		 "theory": "DFT", 
		 "functional": "B3LYP", 
		 "basiset": "6-31G**", 
		 "properties": { 
			 "R2extent": 1891.0522, 
			 "electric_dipole_moment_norm": 1.79845067211, 
			 "electric_quadrupole_moment_norm": 8.72503003491, 
			 "total_energy": -457.486996439, 
			 "HOMO_LUMO_gap": 0.19912, 
			 "cosmo_polarized_energy": -12.25, 
			 "cosmo_cavitation_energy": 23.37, 
			 "cosmo_dispersion_energy": -17.31, 
			 "cosmo_repulsion_energy": 1.42, 
			 "cosmo_total_nonelectrostatic_energy": 7.48, 
			 "SMD_solvation_energy": 4.58 
		},
		"coords": [
			{
				"x": 2.7646353615,
				"y": -0.8594893581,
				"z": -2.960555331,
				"element": "C" 
			},
			{
				"x": 2.6835242357,
				"y": -0.0068320289,
				"z": -1.8169341589,
				"element": "O" 
			},
			{
				"x": 1.3918072389,
				"y": 0.150020764,
				"z": -1.3265936046,
				"element": "C" 
			},
			{
				"x": 0.5509959285,
				"y": 1.1476588885,
				"z": -1.8050495092,
				"element": "C" 
			},
			{
				"x": -0.7291928523,
				"y": 1.3202210321,
				"z": -1.2791871492,
				"element": "C" 
			},
			{
				"x": -1.1779366754,
				"y": 0.4774612117,
				"z": -0.2491249329,
				"element": "C" 
			},
			{
				"x": -2.4376334938,
				"y": 0.6739794044,
				"z": 0.3343778929,
				"element": "N" 
			},
			{
				"x": -0.3247598246,
				"y": -0.5244349565,
				"z": 0.2383502681,
				"element": "C" 
			},
			{
				"x": 0.9594441373,
				"y": -0.7017289358,
				"z": -0.2897143706,
				"element": "C" 
			},
			{
				"x": 1.810541525,
				"y": -1.7186028719,
				"z": 0.1481554176,
				"element": "N" 
			},
			{
				"x": 3.8198376048,
				"y": -0.9117010945,
				"z": -3.2410988496,
				"element": "H" 
			},
			{
				"x": 2.3966467789,
				"y": -1.8684776724,
				"z": -2.7347791766,
				"element": "H" 
			},
			{
				"x": 2.1882170959,
				"y": -0.4520047534,
				"z": -3.8010350337,
				"element": "H" 
			},
			{
				"x": 0.9160778521,
				"y": 1.8008548775,
				"z": -2.5924846273,
				"element": "H" 
			},
			{
				"x": -1.374358279,
				"y": 2.1093613634,
				"z": -1.6551982082,
				"element": "H" 
			},
			{
				"x": -3.105788358,
				"y": 1.1355144329,
				"z": -0.268305431,
				"element": "H" 
			},
			{
				"x": -2.8386506092,
				"y": -0.1542363432,
				"z": 0.7540066279,
				"element": "H" 
			},
			{
				"x": -0.663436828,
				"y": -1.1742002383,
				"z": 1.0429779063,
				"element": "H" 
			},
			{
				"x": 2.7840695531,
				"y": -1.5072490604,
				"z": -0.0336170895,
				"element": "H" 
			},
			{
				"x": 1.6542596087,
				"y": -2.0181146611,
				"z": 1.1011093594,
				"element": "H" 
			}
		],
		 "valence_orbital": [ 
			{
				"type": "occ",
				"energy": -0.32077,
				"method": "rhf"
			},
			{
				"type": "occ",
				"energy": -0.27294,
				"method": "rhf"
			},
			{
				"type": "occ",
				"energy": -0.2614,
				"method": "rhf"
			},
			{
				"type": "occ",
				"energy": -0.20731,
				"method": "rhf"
			},
			{
				"type": "occ",
				"energy": -0.18094,
				"method": "rhf"
			},
			{
				"type": "unocc",
				"energy": 0.01818,
				"method": "rhf"
			},
			{
				"type": "unocc",
				"energy": 0.0363,
				"method": "rhf"
			},
			{
				"type": "unocc",
				"energy": 0.08432,
				"method": "rhf"
			},
			{
				"type": "unocc",
				"energy": 0.09265,
				"method": "rhf"
			},
			{
				"type": "unocc",
				"energy": 0.11594,
				"method": "rhf"
			}
		],
		"cosmo_sigma_profile": { 
			"-0.025": 0.0,
			"-0.024": 0.0,
			"-0.023": 0.0,
			"-0.022": 0.0,
			"-0.021": 0.0,
			"-0.02": 0.0,
			"-0.019": 0.0,
			"-0.018": 0.0,
			"-0.017": 0.0,
			"-0.016": 0.0,
			"-0.015": 0.0,
			"-0.014": 0.0,
			"-0.013": 0.0893056329779,
			"-0.012": 2.1117120294,
			"-0.011": 4.43148500179,
			"-0.01": 4.2967639516,
			"-0.009": 5.57277628529,
			"-0.008": 5.20065679515,
			"-0.007": 5.47754313559,
			"-0.006": 6.56639062998,
			"-0.005": 9.9070242914,
			"-0.004": 12.2847027114,
			"-0.003": 13.0263501622,
			"-0.002": 17.2840902263,
			"-0.001": 11.3480248677,
			"0.0": 7.73197625531,
			"0.001": 6.07236734164,
			"0.002": 8.49552151961,
			"0.003": 6.62850768304,
			"0.004": 6.79739819574,
			"0.005": 7.78119812468,
			"0.006": 10.6727303535,
			"0.007": 11.9945398534,
			"0.008": 5.79785014562,
			"0.009": 1.75258619933,
			"0.01": 2.83966173392,
			"0.011": 2.79586026291,
			"0.012": 2.70287433219,
			"0.013": 2.00759571641,
			"0.014": 1.03280036251,
			"0.015": 0.906716313461,
			"0.016": 0.22617805795,
			"0.017": 0.0,
			"0.018": 0.0,
			"0.019": 0.0,
			"0.02": 0.0,
			"0.021": 0.0,
			"0.022": 0.0,
			"0.023": 0.0,
			"0.024": 0.0,
			"0.025": 0.0
		}
	}
}
