{
	 "smiles": "O=C(N1CCCCC1)C1=CC(=CC=C1)C#N", 
	 "Tm": 335.15, 
	 "num_atms": 30, 
	 "gaussian": { 
		 "optdone": 1, 
		 "sigma_profile": "yes", 
		 "theory": "DFT", 
		 "functional": "B3LYP", 
		 "basiset": "6-31G**", 
		 "properties": { 
			 "R2extent": 5278.5211, 
			 "electric_dipole_moment_norm": 6.82871706326, 
			 "electric_quadrupole_moment_norm": 26.9051497336, 
			 "total_energy": -688.554180457, 
			 "HOMO_LUMO_gap": 0.18472, 
			 "cosmo_polarized_energy": -14.92, 
			 "cosmo_cavitation_energy": 33.36, 
			 "cosmo_dispersion_energy": -23.33, 
			 "cosmo_repulsion_energy": 1.83, 
			 "cosmo_total_nonelectrostatic_energy": 11.86, 
			 "SMD_solvation_energy": 6.42 
		},
		"coords": [
			{
				"x": -0.3464390847,
				"y": 0.7666768468,
				"z": 2.6737495354,
				"element": "O" 
			},
			{
				"x": -0.4448968201,
				"y": 0.3112164833,
				"z": 1.5360067788,
				"element": "C" 
			},
			{
				"x": 0.5280500836,
				"y": 0.4851788502,
				"z": 0.5793129421,
				"element": "N" 
			},
			{
				"x": 0.7317760365,
				"y": -0.3859663485,
				"z": -0.5838913154,
				"element": "C" 
			},
			{
				"x": 1.9597646368,
				"y": -1.2922985735,
				"z": -0.3917820971,
				"element": "C" 
			},
			{
				"x": 3.2111948872,
				"y": -0.476357436,
				"z": -0.0373482017,
				"element": "C" 
			},
			{
				"x": 2.9408619688,
				"y": 0.4361376465,
				"z": 1.1680199278,
				"element": "C" 
			},
			{
				"x": 1.6980475744,
				"y": 1.302843444,
				"z": 0.9272418107,
				"element": "C" 
			},
			{
				"x": -1.7118861122,
				"y": -0.4158430426,
				"z": 1.1515753003,
				"element": "C" 
			},
			{
				"x": -2.2563179936,
				"y": -1.3010106363,
				"z": 2.0861672175,
				"element": "C" 
			},
			{
				"x": -3.4770746373,
				"y": -1.9384817918,
				"z": 1.8243673678,
				"element": "C" 
			},
			{
				"x": -4.1775520013,
				"y": -1.663099455,
				"z": 0.6364080918,
				"element": "C" 
			},
			{
				"x": -3.649334297,
				"y": -0.7542997164,
				"z": -0.2755535049,
				"element": "C" 
			},
			{
				"x": -2.4218096165,
				"y": -0.1374419956,
				"z": -0.0246213125,
				"element": "C" 
			},
			{
				"x": -4.0189879875,
				"y": -2.8688373469,
				"z": 2.7733652613,
				"element": "C" 
			},
			{
				"x": -4.4608902919,
				"y": -3.6280241814,
				"z": 3.5357253427,
				"element": "N" 
			},
			{
				"x": 0.8744183543,
				"y": 0.2469688033,
				"z": -1.4718425215,
				"element": "H" 
			},
			{
				"x": -0.1595516421,
				"y": -0.9893931388,
				"z": -0.7502692607,
				"element": "H" 
			},
			{
				"x": 1.7446078996,
				"y": -2.0082804956,
				"z": 0.4120426397,
				"element": "H" 
			},
			{
				"x": 2.1200058479,
				"y": -1.8745041052,
				"z": -1.3070644847,
				"element": "H" 
			},
			{
				"x": 4.0558876829,
				"y": -1.1442320867,
				"z": 0.1650519819,
				"element": "H" 
			},
			{
				"x": 3.4985376346,
				"y": 0.1395529099,
				"z": -0.9017100407,
				"element": "H" 
			},
			{
				"x": 2.7781578325,
				"y": -0.168365416,
				"z": 2.0689385827,
				"element": "H" 
			},
			{
				"x": 3.8028699338,
				"y": 1.0838878442,
				"z": 1.3656183452,
				"element": "H" 
			},
			{
				"x": 1.4405971269,
				"y": 1.8845547454,
				"z": 1.8115512417,
				"element": "H" 
			},
			{
				"x": 1.8820736068,
				"y": 1.9931523841,
				"z": 0.0915671744,
				"element": "H" 
			},
			{
				"x": -1.7323922022,
				"y": -1.4795348367,
				"z": 3.0183516507,
				"element": "H" 
			},
			{
				"x": -5.1259491677,
				"y": -2.1541012061,
				"z": 0.4463684961,
				"element": "H" 
			},
			{
				"x": -4.1963580951,
				"y": -0.5222201496,
				"z": -1.1840393011,
				"element": "H" 
			},
			{
				"x": -2.0229111575,
				"y": 0.579622001,
				"z": -0.7356076484,
				"element": "H" 
			}
		],
		 "valence_orbital": [ 
			{
				"type": "occ",
				"energy": -0.3308,
				"method": "rhf"
			},
			{
				"type": "occ",
				"energy": -0.28353,
				"method": "rhf"
			},
			{
				"type": "occ",
				"energy": -0.26983,
				"method": "rhf"
			},
			{
				"type": "occ",
				"energy": -0.25468,
				"method": "rhf"
			},
			{
				"type": "occ",
				"energy": -0.24287,
				"method": "rhf"
			},
			{
				"type": "unocc",
				"energy": -0.05815,
				"method": "rhf"
			},
			{
				"type": "unocc",
				"energy": -0.04043,
				"method": "rhf"
			},
			{
				"type": "unocc",
				"energy": 0.02578,
				"method": "rhf"
			},
			{
				"type": "unocc",
				"energy": 0.0372,
				"method": "rhf"
			},
			{
				"type": "unocc",
				"energy": 0.07483,
				"method": "rhf"
			}
		],
		"cosmo_sigma_profile": { 
			"-0.025": 0.0,
			"-0.024": 0.0,
			"-0.023": 0.0,
			"-0.022": 0.0,
			"-0.021": 0.0,
			"-0.02": 0.0,
			"-0.019": 0.0,
			"-0.018": 0.0,
			"-0.017": 0.0,
			"-0.016": 0.0,
			"-0.015": 0.0,
			"-0.014": 0.0,
			"-0.013": 0.0,
			"-0.012": 0.0,
			"-0.011": 0.0,
			"-0.01": 0.0,
			"-0.009": 0.23066109295,
			"-0.008": 3.77212830946,
			"-0.007": 8.15288179881,
			"-0.006": 9.7825460863,
			"-0.005": 10.2182347945,
			"-0.004": 21.3830220026,
			"-0.003": 35.1614147784,
			"-0.002": 35.2057353481,
			"-0.001": 30.8955697959,
			"0.0": 25.9491371046,
			"0.001": 20.1770818527,
			"0.002": 11.5224480006,
			"0.003": 4.75929305395,
			"0.004": 3.48000101831,
			"0.005": 3.79874721111,
			"0.006": 4.1987289851,
			"0.007": 4.21669198174,
			"0.008": 5.32980719178,
			"0.009": 4.5857573522,
			"0.01": 5.17875179687,
			"0.011": 3.80423804725,
			"0.012": 4.14951196587,
			"0.013": 5.33650275688,
			"0.014": 3.27764471095,
			"0.015": 0.211183582135,
			"0.016": 0.0,
			"0.017": 0.0,
			"0.018": 0.0,
			"0.019": 0.0,
			"0.02": 0.0,
			"0.021": 0.0,
			"0.022": 0.0,
			"0.023": 0.0,
			"0.024": 0.0,
			"0.025": 0.0
		}
	}
}
