{
	 "smiles": "COC(=O)C1=C(N=CN1)C(=O)OC", 
	 "Tm": 472.15, 
	 "num_atms": 21, 
	 "gaussian": { 
		 "optdone": 1, 
		 "sigma_profile": "yes", 
		 "theory": "DFT", 
		 "functional": "B3LYP", 
		 "basiset": "6-31G**", 
		 "properties": { 
			 "R2extent": 2786.4299, 
			 "electric_dipole_moment_norm": 1.46165803114, 
			 "electric_quadrupole_moment_norm": 9.44512842581, 
			 "total_energy": -681.971142391, 
			 "HOMO_LUMO_gap": 0.19497, 
			 "cosmo_polarized_energy": -17.85, 
			 "cosmo_cavitation_energy": 26.73, 
			 "cosmo_dispersion_energy": -19.46, 
			 "cosmo_repulsion_energy": 1.56, 
			 "cosmo_total_nonelectrostatic_energy": 8.83, 
			 "SMD_solvation_energy": 6.75 
		},
		"coords": [
			{
				"x": 2.2470013502,
				"y": 0.7612059034,
				"z": 1.9837644047,
				"element": "C" 
			},
			{
				"x": 1.1869106571,
				"y": 0.2397636534,
				"z": 1.1646936986,
				"element": "O" 
			},
			{
				"x": -0.0036369518,
				"y": 0.1499182484,
				"z": 1.7565173568,
				"element": "C" 
			},
			{
				"x": -0.235556757,
				"y": 0.4972019083,
				"z": 2.9059950899,
				"element": "O" 
			},
			{
				"x": -1.0737669458,
				"y": -0.3934094203,
				"z": 0.8993006681,
				"element": "C" 
			},
			{
				"x": -1.2568392154,
				"y": -0.9273038063,
				"z": -0.3777984221,
				"element": "C" 
			},
			{
				"x": -2.5849278114,
				"y": -1.2087606773,
				"z": -0.5862671188,
				"element": "N" 
			},
			{
				"x": -3.2004691888,
				"y": -0.8647267093,
				"z": 0.5265841247,
				"element": "C" 
			},
			{
				"x": -2.3354371137,
				"y": -0.3689987124,
				"z": 1.4465237426,
				"element": "N" 
			},
			{
				"x": -0.2317622329,
				"y": -1.2312976742,
				"z": -1.4092947015,
				"element": "C" 
			},
			{
				"x": 0.9636253168,
				"y": -1.2992913936,
				"z": -1.2082098079,
				"element": "O" 
			},
			{
				"x": -0.8006405382,
				"y": -1.4376579412,
				"z": -2.6141690588,
				"element": "O" 
			},
			{
				"x": 0.1172476258,
				"y": -1.7751280114,
				"z": -3.6632682412,
				"element": "C" 
			},
			{
				"x": 3.1334967007,
				"y": 0.7421443953,
				"z": 1.351458649,
				"element": "H" 
			},
			{
				"x": 2.0196785213,
				"y": 1.7815917559,
				"z": 2.3025696988,
				"element": "H" 
			},
			{
				"x": 2.3900196247,
				"y": 0.136428463,
				"z": 2.8686501931,
				"element": "H" 
			},
			{
				"x": -4.2617553435,
				"y": -0.9563051057,
				"z": 0.7125841158,
				"element": "H" 
			},
			{
				"x": -2.5098949469,
				"y": -0.0250813781,
				"z": 2.3822175682,
				"element": "H" 
			},
			{
				"x": 0.6597294259,
				"y": -2.6933685846,
				"z": -3.4228519321,
				"element": "H" 
			},
			{
				"x": -0.4955712922,
				"y": -1.9144261211,
				"z": -4.5537308226,
				"element": "H" 
			},
			{
				"x": 0.8422491151,
				"y": -0.9713987923,
				"z": -3.8174692053,
				"element": "H" 
			}
		],
		 "valence_orbital": [ 
			{
				"type": "occ",
				"energy": -0.29905,
				"method": "rhf"
			},
			{
				"type": "occ",
				"energy": -0.29247,
				"method": "rhf"
			},
			{
				"type": "occ",
				"energy": -0.27886,
				"method": "rhf"
			},
			{
				"type": "occ",
				"energy": -0.26408,
				"method": "rhf"
			},
			{
				"type": "occ",
				"energy": -0.25184,
				"method": "rhf"
			},
			{
				"type": "unocc",
				"energy": -0.05687,
				"method": "rhf"
			},
			{
				"type": "unocc",
				"energy": 0.00908,
				"method": "rhf"
			},
			{
				"type": "unocc",
				"energy": 0.05009,
				"method": "rhf"
			},
			{
				"type": "unocc",
				"energy": 0.08392,
				"method": "rhf"
			},
			{
				"type": "unocc",
				"energy": 0.1138,
				"method": "rhf"
			}
		],
		"cosmo_sigma_profile": { 
			"-0.025": 0.0,
			"-0.024": 0.0,
			"-0.023": 0.0,
			"-0.022": 0.0,
			"-0.021": 0.0,
			"-0.02": 0.0,
			"-0.019": 0.0,
			"-0.018": 0.0,
			"-0.017": 0.774848686448,
			"-0.016": 1.06938950006,
			"-0.015": 0.709048684117,
			"-0.014": 1.34847927603,
			"-0.013": 0.983456046792,
			"-0.012": 0.756241467946,
			"-0.011": 1.17664195598,
			"-0.01": 4.17416847206,
			"-0.009": 2.64021666252,
			"-0.008": 2.46793898171,
			"-0.007": 4.08739314741,
			"-0.006": 13.3519364359,
			"-0.005": 16.1130800468,
			"-0.004": 22.0956717711,
			"-0.003": 21.3903486319,
			"-0.002": 15.8641282382,
			"-0.001": 14.2251447818,
			"0.0": 11.6928989719,
			"0.001": 8.48265807544,
			"0.002": 6.31595723313,
			"0.003": 4.52525381276,
			"0.004": 5.74626113346,
			"0.005": 6.23583327967,
			"0.006": 3.63628012722,
			"0.007": 4.90168266397,
			"0.008": 6.59072802468,
			"0.009": 3.74939431507,
			"0.01": 5.00339223382,
			"0.011": 8.17543412294,
			"0.012": 7.98268009765,
			"0.013": 2.7985326836,
			"0.014": 1.25255623191,
			"0.015": 1.42626862766,
			"0.016": 1.10719805029,
			"0.017": 0.678749094985,
			"0.018": 0.0,
			"0.019": 0.0,
			"0.02": 0.0,
			"0.021": 0.0,
			"0.022": 0.0,
			"0.023": 0.0,
			"0.024": 0.0,
			"0.025": 0.0
		}
	}
}
