{
	 "smiles": "OC(=O)C1=C(Cl)C(=CC=C1)C(F)(F)F", 
	 "Tm": 407.15, 
	 "num_atms": 18, 
	 "gaussian": { 
		 "optdone": 1, 
		 "sigma_profile": "yes", 
		 "theory": "DFT", 
		 "functional": "B3LYP", 
		 "basiset": "6-31G**", 
		 "properties": { 
			 "R2extent": 4208.2383, 
			 "electric_dipole_moment_norm": 4.1982562785, 
			 "electric_quadrupole_moment_norm": 8.81415537077, 
			 "total_energy": -1217.4320396, 
			 "HOMO_LUMO_gap": 0.20044, 
			 "cosmo_polarized_energy": -10.5, 
			 "cosmo_cavitation_energy": 25.79, 
			 "cosmo_dispersion_energy": -18.86, 
			 "cosmo_repulsion_energy": 1.41, 
			 "cosmo_total_nonelectrostatic_energy": 8.35, 
			 "SMD_solvation_energy": 6.54 
		},
		"coords": [
			{
				"x": -0.5245417818,
				"y": -2.2468589808,
				"z": 1.9548179606,
				"element": "O" 
			},
			{
				"x": -0.1253551221,
				"y": -1.9270217102,
				"z": 0.6945990574,
				"element": "C" 
			},
			{
				"x": -0.689855604,
				"y": -2.3645187688,
				"z": -0.2823592108,
				"element": "O" 
			},
			{
				"x": 1.070577555,
				"y": -1.0256986119,
				"z": 0.7122694205,
				"element": "C" 
			},
			{
				"x": 1.4554719346,
				"y": -0.2366921829,
				"z": -0.3915648429,
				"element": "C" 
			},
			{
				"x": 0.490149294,
				"y": -0.1894086077,
				"z": -1.8425033468,
				"element": "Cl" 
			},
			{
				"x": 2.6165933174,
				"y": 0.555948646,
				"z": -0.3173713152,
				"element": "C" 
			},
			{
				"x": 3.3843134131,
				"y": 0.5506123697,
				"z": 0.8493917235,
				"element": "C" 
			},
			{
				"x": 3.0093421764,
				"y": -0.2208401304,
				"z": 1.9454335075,
				"element": "C" 
			},
			{
				"x": 1.8596479686,
				"y": -0.9950971624,
				"z": 1.8745221437,
				"element": "C" 
			},
			{
				"x": 3.0703575984,
				"y": 1.4292146684,
				"z": -1.4716723847,
				"element": "C" 
			},
			{
				"x": 2.1596986688,
				"y": 2.3728701114,
				"z": -1.7805732034,
				"element": "F" 
			},
			{
				"x": 4.2180716549,
				"y": 2.0775326646,
				"z": -1.1654028215,
				"element": "F" 
			},
			{
				"x": 3.3127781359,
				"y": 0.7113806532,
				"z": -2.5851306542,
				"element": "F" 
			},
			{
				"x": -1.2712577751,
				"y": -2.8578641519,
				"z": 1.8415751429,
				"element": "H" 
			},
			{
				"x": 4.2775401515,
				"y": 1.1616332409,
				"z": 0.8883984555,
				"element": "H" 
			},
			{
				"x": 3.6108395561,
				"y": -0.2152215231,
				"z": 2.8482094748,
				"element": "H" 
			},
			{
				"x": 1.5527288583,
				"y": -1.5985705239,
				"z": 2.7196608931,
				"element": "H" 
			}
		],
		 "valence_orbital": [ 
			{
				"type": "occ",
				"energy": -0.33353,
				"method": "rhf"
			},
			{
				"type": "occ",
				"energy": -0.32279,
				"method": "rhf"
			},
			{
				"type": "occ",
				"energy": -0.29058,
				"method": "rhf"
			},
			{
				"type": "occ",
				"energy": -0.27908,
				"method": "rhf"
			},
			{
				"type": "occ",
				"energy": -0.26842,
				"method": "rhf"
			},
			{
				"type": "unocc",
				"energy": -0.06798,
				"method": "rhf"
			},
			{
				"type": "unocc",
				"energy": -0.04605,
				"method": "rhf"
			},
			{
				"type": "unocc",
				"energy": 0.0214,
				"method": "rhf"
			},
			{
				"type": "unocc",
				"energy": 0.03084,
				"method": "rhf"
			},
			{
				"type": "unocc",
				"energy": 0.07116,
				"method": "rhf"
			}
		],
		"cosmo_sigma_profile": { 
			"-0.025": 0.0,
			"-0.024": 0.0,
			"-0.023": 0.0,
			"-0.022": 0.0,
			"-0.021": 0.0,
			"-0.02": 0.0,
			"-0.019": 0.224464072702,
			"-0.018": 0.85541336595,
			"-0.017": 1.07145050232,
			"-0.016": 0.753144629064,
			"-0.015": 0.70895721364,
			"-0.014": 0.589962863264,
			"-0.013": 0.432651520166,
			"-0.012": 1.14213068411,
			"-0.011": 0.795385115731,
			"-0.01": 0.789518955512,
			"-0.009": 0.471832255653,
			"-0.008": 4.24882184707,
			"-0.007": 6.96158687985,
			"-0.006": 6.32187507381,
			"-0.005": 5.94573495807,
			"-0.004": 9.61944899948,
			"-0.003": 11.8311871532,
			"-0.002": 12.6900799446,
			"-0.001": 19.8740613314,
			"0.0": 19.2543031283,
			"0.001": 19.7886846266,
			"0.002": 27.5412563915,
			"0.003": 25.299955114,
			"0.004": 10.4596072584,
			"0.005": 3.30687241324,
			"0.006": 2.66800177947,
			"0.007": 2.26832494876,
			"0.008": 2.29280107992,
			"0.009": 2.15303989502,
			"0.01": 2.94118171018,
			"0.011": 5.05020225936,
			"0.012": 1.35487784359,
			"0.013": 0.0,
			"0.014": 0.0,
			"0.015": 0.0,
			"0.016": 0.0,
			"0.017": 0.0,
			"0.018": 0.0,
			"0.019": 0.0,
			"0.02": 0.0,
			"0.021": 0.0,
			"0.022": 0.0,
			"0.023": 0.0,
			"0.024": 0.0,
			"0.025": 0.0
		}
	}
}
