{
	 "smiles": "NC1=C(C=C(C(Br)=C1)S(N)(=O)=O)[N+]([O-])=O", 
	 "Tm": 542.15, 
	 "num_atms": 21, 
	 "gaussian": { 
		 "optdone": 1, 
		 "sigma_profile": "yes", 
		 "theory": "DFT", 
		 "functional": "B3LYP", 
		 "basiset": "6-31G**", 
		 "properties": { 
			 "R2extent": 4916.2289, 
			 "electric_dipole_moment_norm": 6.08400292406, 
			 "electric_quadrupole_moment_norm": 20.6155808577, 
			 "total_energy": -3666.82671286, 
			 "HOMO_LUMO_gap": 0.14876, 
			 "cosmo_polarized_energy": -22.53, 
			 "cosmo_cavitation_energy": 29.46, 
			 "cosmo_dispersion_energy": -22.79, 
			 "cosmo_repulsion_energy": 1.73, 
			 "cosmo_total_nonelectrostatic_energy": 8.4, 
			 "SMD_solvation_energy": 5.69 
		},
		"coords": [
			{
				"x": -2.971538699,
				"y": 0.0228411695,
				"z": 0.5860364811,
				"element": "N" 
			},
			{
				"x": -1.6466222858,
				"y": -0.0036753495,
				"z": 0.3296082192,
				"element": "C" 
			},
			{
				"x": -0.7052606043,
				"y": -0.7750595789,
				"z": 1.0692121729,
				"element": "C" 
			},
			{
				"x": 0.6540701634,
				"y": -0.7541503179,
				"z": 0.7474554032,
				"element": "C" 
			},
			{
				"x": 1.1376615931,
				"y": 0.0152416076,
				"z": -0.2965593308,
				"element": "C" 
			},
			{
				"x": 0.2202991181,
				"y": 0.7880343037,
				"z": -1.0420307161,
				"element": "C" 
			},
			{
				"x": 0.7660915476,
				"y": 1.8952315667,
				"z": -2.4879909034,
				"element": "Br" 
			},
			{
				"x": -1.1239788832,
				"y": 0.7782630061,
				"z": -0.7333473051,
				"element": "C" 
			},
			{
				"x": 2.8971556947,
				"y": -0.106716688,
				"z": -0.6404651168,
				"element": "S" 
			},
			{
				"x": 3.4492955509,
				"y": 1.4708036046,
				"z": -0.4078398446,
				"element": "N" 
			},
			{
				"x": 3.4726653481,
				"y": -0.9184283967,
				"z": 0.4347505263,
				"element": "O" 
			},
			{
				"x": 3.0720719121,
				"y": -0.4578230588,
				"z": -2.0494809969,
				"element": "O" 
			},
			{
				"x": -1.1040173149,
				"y": -1.6149456785,
				"z": 2.1848101244,
				"element": "N" 
			},
			{
				"x": -2.3095651284,
				"y": -1.6594789773,
				"z": 2.4930915663,
				"element": "O" 
			},
			{
				"x": -0.23649579,
				"y": -2.2474824962,
				"z": 2.7812558062,
				"element": "O" 
			},
			{
				"x": -3.324565491,
				"y": -0.5467541903,
				"z": 1.342614826,
				"element": "H" 
			},
			{
				"x": -3.5848290002,
				"y": 0.5812786948,
				"z": 0.0161617627,
				"element": "H" 
			},
			{
				"x": 1.3373375821,
				"y": -1.3563931166,
				"z": 1.3330893348,
				"element": "H" 
			},
			{
				"x": -1.8079643114,
				"y": 1.3848703302,
				"z": -1.3163391349,
				"element": "H" 
			},
			{
				"x": 4.1678685297,
				"y": 1.4678861246,
				"z": 0.3110032551,
				"element": "H" 
			},
			{
				"x": 3.7825204684,
				"y": 1.861057441,
				"z": -1.2844361297,
				"element": "H" 
			}
		],
		 "valence_orbital": [ 
			{
				"type": "occ",
				"energy": -0.30519,
				"method": "rhf"
			},
			{
				"type": "occ",
				"energy": -0.30118,
				"method": "rhf"
			},
			{
				"type": "occ",
				"energy": -0.29654,
				"method": "rhf"
			},
			{
				"type": "occ",
				"energy": -0.27819,
				"method": "rhf"
			},
			{
				"type": "occ",
				"energy": -0.24788,
				"method": "rhf"
			},
			{
				"type": "unocc",
				"energy": -0.09912,
				"method": "rhf"
			},
			{
				"type": "unocc",
				"energy": -0.04059,
				"method": "rhf"
			},
			{
				"type": "unocc",
				"energy": -0.02296,
				"method": "rhf"
			},
			{
				"type": "unocc",
				"energy": -0.02161,
				"method": "rhf"
			},
			{
				"type": "unocc",
				"energy": 0.05512,
				"method": "rhf"
			}
		],
		"cosmo_sigma_profile": { 
			"-0.025": 0.0,
			"-0.024": 0.0,
			"-0.023": 0.0,
			"-0.022": 0.0,
			"-0.021": 0.0,
			"-0.02": 0.0,
			"-0.019": 0.0,
			"-0.018": 0.0,
			"-0.017": 0.0,
			"-0.016": 0.635691475505,
			"-0.015": 3.81650382172,
			"-0.014": 3.98291745784,
			"-0.013": 3.48968255658,
			"-0.012": 4.92758637761,
			"-0.011": 4.43600427489,
			"-0.01": 3.66291415515,
			"-0.009": 4.1133430928,
			"-0.008": 4.183408342,
			"-0.007": 3.80099404265,
			"-0.006": 7.16197174981,
			"-0.005": 8.03924538441,
			"-0.004": 9.29799649159,
			"-0.003": 13.329688262,
			"-0.002": 20.4840124047,
			"-0.001": 20.425551157,
			"0.0": 16.343020503,
			"0.001": 12.0233827013,
			"0.002": 13.4148195136,
			"0.003": 10.1533158001,
			"0.004": 7.00260395061,
			"0.005": 6.26277308815,
			"0.006": 8.04494604475,
			"0.007": 9.64772605931,
			"0.008": 9.51785031571,
			"0.009": 8.73415463734,
			"0.01": 13.1670592967,
			"0.011": 8.29818154021,
			"0.012": 0.564323773983,
			"0.013": 0.0,
			"0.014": 0.0,
			"0.015": 0.0,
			"0.016": 0.0,
			"0.017": 0.0,
			"0.018": 0.0,
			"0.019": 0.0,
			"0.02": 0.0,
			"0.021": 0.0,
			"0.022": 0.0,
			"0.023": 0.0,
			"0.024": 0.0,
			"0.025": 0.0
		}
	}
}
