{
	 "smiles": "OC(=O)CNC(=O)C1=CNC(=O)NC1=O", 
	 "Tm": 575.15, 
	 "num_atms": 22, 
	 "gaussian": { 
		 "optdone": 1, 
		 "sigma_profile": "yes", 
		 "theory": "DFT", 
		 "functional": "B3LYP", 
		 "basiset": "6-31G**", 
		 "properties": { 
			 "R2extent": 4234.9183, 
			 "electric_dipole_moment_norm": 3.05669163149, 
			 "electric_quadrupole_moment_norm": 22.0578372367, 
			 "total_energy": -811.395866961, 
			 "HOMO_LUMO_gap": 0.18417, 
			 "cosmo_polarized_energy": -26.46, 
			 "cosmo_cavitation_energy": 28.11, 
			 "cosmo_dispersion_energy": -20.76, 
			 "cosmo_repulsion_energy": 1.65, 
			 "cosmo_total_nonelectrostatic_energy": 9.0, 
			 "SMD_solvation_energy": 7.73 
		},
		"coords": [
			{
				"x": 2.2790404041,
				"y": -2.698254059,
				"z": -0.7216761802,
				"element": "O" 
			},
			{
				"x": 2.2520402537,
				"y": -1.5308341037,
				"z": -1.3934088632,
				"element": "C" 
			},
			{
				"x": 3.0944570927,
				"y": -1.2004088236,
				"z": -2.1992212685,
				"element": "O" 
			},
			{
				"x": 1.031288065,
				"y": -0.7140833872,
				"z": -1.0217259772,
				"element": "C" 
			},
			{
				"x": 1.0859129441,
				"y": 0.550515169,
				"z": -1.7250005671,
				"element": "N" 
			},
			{
				"x": 0.5267218724,
				"y": 1.7490312484,
				"z": -1.3934362162,
				"element": "C" 
			},
			{
				"x": 0.9486570155,
				"y": 2.7982939982,
				"z": -1.8804215741,
				"element": "O" 
			},
			{
				"x": -0.5989861398,
				"y": 1.804266478,
				"z": -0.3969526671,
				"element": "C" 
			},
			{
				"x": -0.6983188672,
				"y": 2.9715233344,
				"z": 0.2987782723,
				"element": "C" 
			},
			{
				"x": -1.6867653809,
				"y": 3.2200558697,
				"z": 1.2019868391,
				"element": "N" 
			},
			{
				"x": -2.7265985821,
				"y": 2.326294005,
				"z": 1.4763758653,
				"element": "C" 
			},
			{
				"x": -3.6064400006,
				"y": 2.5646147964,
				"z": 2.2796219812,
				"element": "O" 
			},
			{
				"x": -2.629643733,
				"y": 1.165435642,
				"z": 0.7312549154,
				"element": "N" 
			},
			{
				"x": -1.6630932618,
				"y": 0.8093282255,
				"z": -0.234235645,
				"element": "C" 
			},
			{
				"x": -1.7984139996,
				"y": -0.2411527759,
				"z": -0.8453646801,
				"element": "O" 
			},
			{
				"x": 3.0707484664,
				"y": -3.1749657804,
				"z": -1.0231441953,
				"element": "H" 
			},
			{
				"x": 1.0253605811,
				"y": -0.5837712685,
				"z": 0.0677659583,
				"element": "H" 
			},
			{
				"x": 0.1325449777,
				"y": -1.2875759479,
				"z": -1.2686025156,
				"element": "H" 
			},
			{
				"x": 1.8644824481,
				"y": 0.6381491879,
				"z": -2.3708242408,
				"element": "H" 
			},
			{
				"x": 0.0265979407,
				"y": 3.7607246754,
				"z": 0.1328358864,
				"element": "H" 
			},
			{
				"x": -1.725282085,
				"y": 4.0925752376,
				"z": 1.7105137551,
				"element": "H" 
			},
			{
				"x": -3.3834100116,
				"y": 0.5001382789,
				"z": 0.8581811173,
				"element": "H" 
			}
		],
		 "valence_orbital": [ 
			{
				"type": "occ",
				"energy": -0.2976,
				"method": "rhf"
			},
			{
				"type": "occ",
				"energy": -0.28187,
				"method": "rhf"
			},
			{
				"type": "occ",
				"energy": -0.26934,
				"method": "rhf"
			},
			{
				"type": "occ",
				"energy": -0.26004,
				"method": "rhf"
			},
			{
				"type": "occ",
				"energy": -0.2471,
				"method": "rhf"
			},
			{
				"type": "unocc",
				"energy": -0.06293,
				"method": "rhf"
			},
			{
				"type": "unocc",
				"energy": -0.01597,
				"method": "rhf"
			},
			{
				"type": "unocc",
				"energy": -0.00561,
				"method": "rhf"
			},
			{
				"type": "unocc",
				"energy": 0.03378,
				"method": "rhf"
			},
			{
				"type": "unocc",
				"energy": 0.05092,
				"method": "rhf"
			}
		],
		"cosmo_sigma_profile": { 
			"-0.025": 0.0,
			"-0.024": 0.0,
			"-0.023": 0.0,
			"-0.022": 0.0,
			"-0.021": 0.0,
			"-0.02": 0.0,
			"-0.019": 0.571626399972,
			"-0.018": 1.94011252957,
			"-0.017": 2.68637711932,
			"-0.016": 2.84430187616,
			"-0.015": 3.09230310473,
			"-0.014": 2.54564187327,
			"-0.013": 3.01098352585,
			"-0.012": 2.29435986063,
			"-0.011": 3.21572206301,
			"-0.01": 3.05571030821,
			"-0.009": 3.52265363793,
			"-0.008": 6.15154459946,
			"-0.007": 8.0140551932,
			"-0.006": 10.7276903887,
			"-0.005": 10.8737172689,
			"-0.004": 12.9383755846,
			"-0.003": 16.6636770251,
			"-0.002": 13.4925955952,
			"-0.001": 10.0099877631,
			"0.0": 9.34809512646,
			"0.001": 5.87777088519,
			"0.002": 7.4697215726,
			"0.003": 6.24114194419,
			"0.004": 6.19928847686,
			"0.005": 5.70310606065,
			"0.006": 7.38479469788,
			"0.007": 6.31725386169,
			"0.008": 6.885222115,
			"0.009": 6.94245241982,
			"0.01": 7.75954485355,
			"0.011": 10.6713082849,
			"0.012": 10.1295587704,
			"0.013": 6.20267083157,
			"0.014": 3.0494469001,
			"0.015": 0.182646164366,
			"0.016": 0.0,
			"0.017": 0.0,
			"0.018": 0.0,
			"0.019": 0.0,
			"0.02": 0.0,
			"0.021": 0.0,
			"0.022": 0.0,
			"0.023": 0.0,
			"0.024": 0.0,
			"0.025": 0.0
		}
	}
}
