{
	 "smiles": "CC1=C(C#N)C(=NO1)C1=C(F)C=CC=C1Cl", 
	 "Tm": 352.65, 
	 "num_atms": 22, 
	 "gaussian": { 
		 "optdone": 1, 
		 "sigma_profile": "yes", 
		 "theory": "DFT", 
		 "functional": "B3LYP", 
		 "basiset": "6-31G**", 
		 "properties": { 
			 "R2extent": 3959.2939, 
			 "electric_dipole_moment_norm": 0.893997125275, 
			 "electric_quadrupole_moment_norm": 27.1635149651, 
			 "total_energy": -1167.47283732, 
			 "HOMO_LUMO_gap": 0.20791, 
			 "cosmo_polarized_energy": -12.18, 
			 "cosmo_cavitation_energy": 30.65, 
			 "cosmo_dispersion_energy": -21.12, 
			 "cosmo_repulsion_energy": 1.65, 
			 "cosmo_total_nonelectrostatic_energy": 11.18, 
			 "SMD_solvation_energy": 6.72 
		},
		"coords": [
			{
				"x": 3.0159214492,
				"y": 1.1009212394,
				"z": 3.6888425329,
				"element": "C" 
			},
			{
				"x": 2.0627826764,
				"y": 1.092222484,
				"z": 2.5488433555,
				"element": "C" 
			},
			{
				"x": 1.2604667256,
				"y": 0.1190478653,
				"z": 2.0058462375,
				"element": "C" 
			},
			{
				"x": 1.1298137047,
				"y": -1.223728941,
				"z": 2.439033637,
				"element": "C" 
			},
			{
				"x": 1.0242188199,
				"y": -2.3224446916,
				"z": 2.8073000794,
				"element": "N" 
			},
			{
				"x": 0.5843218696,
				"y": 0.7830612136,
				"z": 0.9220381784,
				"element": "C" 
			},
			{
				"x": 0.9629082874,
				"y": 2.0355745166,
				"z": 0.8283466054,
				"element": "N" 
			},
			{
				"x": 1.8923504989,
				"y": 2.2292850747,
				"z": 1.8585077225,
				"element": "O" 
			},
			{
				"x": -0.4053843747,
				"y": 0.206240535,
				"z": -0.0110358654,
				"element": "C" 
			},
			{
				"x": -0.0455411892,
				"y": -0.9101385682,
				"z": -0.7781968744,
				"element": "C" 
			},
			{
				"x": 1.1993543024,
				"y": -1.4013480432,
				"z": -0.629234191,
				"element": "F" 
			},
			{
				"x": -0.9007024055,
				"y": -1.5226110498,
				"z": -1.6816633711,
				"element": "C" 
			},
			{
				"x": -2.1838821204,
				"y": -1.0004014115,
				"z": -1.8337249735,
				"element": "C" 
			},
			{
				"x": -2.5938347768,
				"y": 0.106169596,
				"z": -1.09105485,
				"element": "C" 
			},
			{
				"x": -1.7104646331,
				"y": 0.7002107215,
				"z": -0.1890099477,
				"element": "C" 
			},
			{
				"x": -2.2871439985,
				"y": 2.0597884594,
				"z": 0.7499951095,
				"element": "Cl" 
			},
			{
				"x": 3.0478011605,
				"y": 0.1152050427,
				"z": 4.1561648409,
				"element": "H" 
			},
			{
				"x": 2.713060275,
				"y": 1.8396133539,
				"z": 4.4378003291,
				"element": "H" 
			},
			{
				"x": 4.0219613872,
				"y": 1.3647264949,
				"z": 3.3472505057,
				"element": "H" 
			},
			{
				"x": -0.5536075784,
				"y": -2.3818873233,
				"z": -2.2434988934,
				"element": "H" 
			},
			{
				"x": -2.8736887128,
				"y": -1.4608483755,
				"z": -2.5337675654,
				"element": "H" 
			},
			{
				"x": -3.5935113677,
				"y": 0.5095418072,
				"z": -1.199882602,
				"element": "H" 
			}
		],
		 "valence_orbital": [ 
			{
				"type": "occ",
				"energy": -0.31927,
				"method": "rhf"
			},
			{
				"type": "occ",
				"energy": -0.3156,
				"method": "rhf"
			},
			{
				"type": "occ",
				"energy": -0.27394,
				"method": "rhf"
			},
			{
				"type": "occ",
				"energy": -0.26939,
				"method": "rhf"
			},
			{
				"type": "occ",
				"energy": -0.26043,
				"method": "rhf"
			},
			{
				"type": "unocc",
				"energy": -0.05252,
				"method": "rhf"
			},
			{
				"type": "unocc",
				"energy": -0.04067,
				"method": "rhf"
			},
			{
				"type": "unocc",
				"energy": -0.02459,
				"method": "rhf"
			},
			{
				"type": "unocc",
				"energy": -0.00146,
				"method": "rhf"
			},
			{
				"type": "unocc",
				"energy": 0.01552,
				"method": "rhf"
			}
		],
		"cosmo_sigma_profile": { 
			"-0.025": 0.0,
			"-0.024": 0.0,
			"-0.023": 0.0,
			"-0.022": 0.0,
			"-0.021": 0.0,
			"-0.02": 0.0,
			"-0.019": 0.0,
			"-0.018": 0.0,
			"-0.017": 0.0,
			"-0.016": 0.0,
			"-0.015": 0.0,
			"-0.014": 0.0,
			"-0.013": 0.0,
			"-0.012": 0.0,
			"-0.011": 0.0,
			"-0.01": 0.0,
			"-0.009": 0.469640958468,
			"-0.008": 6.67196439671,
			"-0.007": 13.1862204365,
			"-0.006": 15.4639941362,
			"-0.005": 15.9628688,
			"-0.004": 17.8160676136,
			"-0.003": 16.3155330808,
			"-0.002": 16.2444840707,
			"-0.001": 17.0702023469,
			"0.0": 20.9562377389,
			"0.001": 19.8486125568,
			"0.002": 18.3717003905,
			"0.003": 18.4376251867,
			"0.004": 13.1660629844,
			"0.005": 6.61451970831,
			"0.006": 7.2969025957,
			"0.007": 5.2670257067,
			"0.008": 5.05189234165,
			"0.009": 4.90834095928,
			"0.01": 3.78456080551,
			"0.011": 4.16788804185,
			"0.012": 2.89588485274,
			"0.013": 0.6468817623,
			"0.014": 0.0,
			"0.015": 0.0,
			"0.016": 0.0,
			"0.017": 0.0,
			"0.018": 0.0,
			"0.019": 0.0,
			"0.02": 0.0,
			"0.021": 0.0,
			"0.022": 0.0,
			"0.023": 0.0,
			"0.024": 0.0,
			"0.025": 0.0
		}
	}
}
