{
	 "smiles": "CC1=C(CCO)C(=O)NN1", 
	 "Tm": 457.15, 
	 "num_atms": 20, 
	 "gaussian": { 
		 "optdone": 1, 
		 "sigma_profile": "yes", 
		 "theory": "DFT", 
		 "functional": "B3LYP", 
		 "basiset": "6-31G**", 
		 "properties": { 
			 "R2extent": 1568.1071, 
			 "electric_dipole_moment_norm": 5.53166016852, 
			 "electric_quadrupole_moment_norm": 11.8042808531, 
			 "total_energy": -494.581560551, 
			 "HOMO_LUMO_gap": 0.20238, 
			 "cosmo_polarized_energy": -22.59, 
			 "cosmo_cavitation_energy": 23.72, 
			 "cosmo_dispersion_energy": -17.07, 
			 "cosmo_repulsion_energy": 1.43, 
			 "cosmo_total_nonelectrostatic_energy": 8.08, 
			 "SMD_solvation_energy": 4.73 
		},
		"coords": [
			{
				"x": 0.6902645246,
				"y": -1.209299132,
				"z": 1.9020581222,
				"element": "C" 
			},
			{
				"x": -0.0299532727,
				"y": -0.1885470878,
				"z": 1.0805661043,
				"element": "C" 
			},
			{
				"x": -0.0338702322,
				"y": 0.0256009239,
				"z": -0.2599066692,
				"element": "C" 
			},
			{
				"x": 0.746232602,
				"y": -0.6397564361,
				"z": -1.3538209363,
				"element": "C" 
			},
			{
				"x": 0.2191826302,
				"y": -2.0194680285,
				"z": -1.7608984185,
				"element": "C" 
			},
			{
				"x": -1.1167216897,
				"y": -1.8741006929,
				"z": -2.211990002,
				"element": "O" 
			},
			{
				"x": -0.9497610006,
				"y": 1.1449331777,
				"z": -0.5191343097,
				"element": "C" 
			},
			{
				"x": -1.1599431909,
				"y": 1.7769048169,
				"z": -1.5433014349,
				"element": "O" 
			},
			{
				"x": -1.557786966,
				"y": 1.4252254388,
				"z": 0.7266006254,
				"element": "N" 
			},
			{
				"x": -0.8418906324,
				"y": 0.7449520656,
				"z": 1.7440357187,
				"element": "N" 
			},
			{
				"x": 1.180809674,
				"y": -0.7423736548,
				"z": 2.7626461358,
				"element": "H" 
			},
			{
				"x": 0.0020558707,
				"y": -1.9729624439,
				"z": 2.2864929092,
				"element": "H" 
			},
			{
				"x": 1.4490006575,
				"y": -1.7184843795,
				"z": 1.304442774,
				"element": "H" 
			},
			{
				"x": 0.7075414062,
				"y": 0.0167677423,
				"z": -2.2297910167,
				"element": "H" 
			},
			{
				"x": 1.8016178241,
				"y": -0.7507130306,
				"z": -1.0729126017,
				"element": "H" 
			},
			{
				"x": 0.8712344558,
				"y": -2.4278725476,
				"z": -2.5507650655,
				"element": "H" 
			},
			{
				"x": 0.278557496,
				"y": -2.7081440048,
				"z": -0.900669109,
				"element": "H" 
			},
			{
				"x": -1.4416194191,
				"y": -2.741674983,
				"z": -2.4816227986,
				"element": "H" 
			},
			{
				"x": -1.7196645775,
				"y": 2.4061508407,
				"z": 0.9262392095,
				"element": "H" 
			},
			{
				"x": -1.4801861602,
				"y": 0.3271614155,
				"z": 2.4202307631,
				"element": "H" 
			}
		],
		 "valence_orbital": [ 
			{
				"type": "occ",
				"energy": -0.32572,
				"method": "rhf"
			},
			{
				"type": "occ",
				"energy": -0.26456,
				"method": "rhf"
			},
			{
				"type": "occ",
				"energy": -0.26146,
				"method": "rhf"
			},
			{
				"type": "occ",
				"energy": -0.23315,
				"method": "rhf"
			},
			{
				"type": "occ",
				"energy": -0.21052,
				"method": "rhf"
			},
			{
				"type": "unocc",
				"energy": -0.00814,
				"method": "rhf"
			},
			{
				"type": "unocc",
				"energy": 0.06329,
				"method": "rhf"
			},
			{
				"type": "unocc",
				"energy": 0.08384,
				"method": "rhf"
			},
			{
				"type": "unocc",
				"energy": 0.09077,
				"method": "rhf"
			},
			{
				"type": "unocc",
				"energy": 0.10081,
				"method": "rhf"
			}
		],
		"cosmo_sigma_profile": { 
			"-0.025": 0.0,
			"-0.024": 0.0,
			"-0.023": 0.0,
			"-0.022": 0.0,
			"-0.021": 0.0,
			"-0.02": 0.0,
			"-0.019": 0.0,
			"-0.018": 0.0,
			"-0.017": 0.0,
			"-0.016": 0.269871585311,
			"-0.015": 2.13392916745,
			"-0.014": 3.07269041315,
			"-0.013": 3.79027238677,
			"-0.012": 3.13435951658,
			"-0.011": 2.89985273496,
			"-0.01": 2.92100409034,
			"-0.009": 2.64623271067,
			"-0.008": 3.27279842064,
			"-0.007": 2.8750351848,
			"-0.006": 6.2929775006,
			"-0.005": 11.1977650589,
			"-0.004": 13.8346901008,
			"-0.003": 18.2599310465,
			"-0.002": 18.1003142202,
			"-0.001": 14.6299842185,
			"0.0": 7.31598579889,
			"0.001": 5.5811428411,
			"0.002": 5.12917533373,
			"0.003": 5.400418073,
			"0.004": 3.58081571404,
			"0.005": 4.76431557645,
			"0.006": 3.67705591325,
			"0.007": 3.62285042534,
			"0.008": 4.79382529549,
			"0.009": 4.10625713706,
			"0.01": 3.42817599178,
			"0.011": 4.1744115972,
			"0.012": 4.2454065611,
			"0.013": 4.64814054247,
			"0.014": 6.99060910215,
			"0.015": 4.43588299717,
			"0.016": 0.0986935356346,
			"0.017": 0.0,
			"0.018": 0.0,
			"0.019": 0.0,
			"0.02": 0.0,
			"0.021": 0.0,
			"0.022": 0.0,
			"0.023": 0.0,
			"0.024": 0.0,
			"0.025": 0.0
		}
	}
}
