{
	 "smiles": "NC1=NC(=NN1)C1=CC2=C(OCCO2)C=C1", 
	 "Tm": 452.15, 
	 "num_atms": 26, 
	 "gaussian": { 
		 "optdone": 1, 
		 "sigma_profile": "yes", 
		 "theory": "DFT", 
		 "functional": "B3LYP", 
		 "basiset": "6-31G**", 
		 "properties": { 
			 "R2extent": 4655.0299, 
			 "electric_dipole_moment_norm": 2.61482977266, 
			 "electric_quadrupole_moment_norm": 31.1779408544, 
			 "total_energy": -756.523650329, 
			 "HOMO_LUMO_gap": 0.18387, 
			 "cosmo_polarized_energy": -21.25, 
			 "cosmo_cavitation_energy": 30.19, 
			 "cosmo_dispersion_energy": -23.26, 
			 "cosmo_repulsion_energy": 1.81, 
			 "cosmo_total_nonelectrostatic_energy": 8.74, 
			 "SMD_solvation_energy": 2.93 
		},
		"coords": [
			{
				"x": -4.9113320608,
				"y": 1.4354569814,
				"z": 0.5698071047,
				"element": "N" 
			},
			{
				"x": -3.5412606626,
				"y": 1.626054612,
				"z": 0.5452526869,
				"element": "C" 
			},
			{
				"x": -2.6331997201,
				"y": 0.709267617,
				"z": 0.269751843,
				"element": "N" 
			},
			{
				"x": -1.4452232102,
				"y": 1.3783726083,
				"z": 0.4583530472,
				"element": "C" 
			},
			{
				"x": -1.5742648852,
				"y": 2.6482757385,
				"z": 0.8216432907,
				"element": "N" 
			},
			{
				"x": -2.9359509687,
				"y": 2.7943650765,
				"z": 0.8727629668,
				"element": "N" 
			},
			{
				"x": -0.1379461309,
				"y": 0.7389067587,
				"z": 0.2626239668,
				"element": "C" 
			},
			{
				"x": -0.073315522,
				"y": -0.604801367,
				"z": -0.1236438652,
				"element": "C" 
			},
			{
				"x": 1.1584188505,
				"y": -1.2266480596,
				"z": -0.3107844134,
				"element": "C" 
			},
			{
				"x": 2.3475531525,
				"y": -0.5076412536,
				"z": -0.1016224642,
				"element": "C" 
			},
			{
				"x": 3.5851413025,
				"y": -1.0849483835,
				"z": -0.2575103874,
				"element": "O" 
			},
			{
				"x": 3.5546978069,
				"y": -2.5108939397,
				"z": -0.3020932647,
				"element": "C" 
			},
			{
				"x": 2.4283188997,
				"y": -2.9835950868,
				"z": -1.2075313103,
				"element": "C" 
			},
			{
				"x": 1.1707500269,
				"y": -2.548581358,
				"z": -0.6961673406,
				"element": "O" 
			},
			{
				"x": 2.2832807661,
				"y": 0.8372999021,
				"z": 0.271298759,
				"element": "C" 
			},
			{
				"x": 1.0539628756,
				"y": 1.4597124421,
				"z": 0.448993963,
				"element": "C" 
			},
			{
				"x": -5.1605576028,
				"y": 0.5440330839,
				"z": 0.1605435655,
				"element": "H" 
			},
			{
				"x": -5.4582932042,
				"y": 2.1927503614,
				"z": 0.1799359906,
				"element": "H" 
			},
			{
				"x": -3.3385501701,
				"y": 3.6558232944,
				"z": 1.2066956407,
				"element": "H" 
			},
			{
				"x": -0.9827105698,
				"y": -1.1722213414,
				"z": -0.2847513064,
				"element": "H" 
			},
			{
				"x": 4.5298167201,
				"y": -2.8309379683,
				"z": -0.6787076713,
				"element": "H" 
			},
			{
				"x": 3.4121160399,
				"y": -2.9140806869,
				"z": 0.7101309489,
				"element": "H" 
			},
			{
				"x": 2.3861884416,
				"y": -4.0751273279,
				"z": -1.2513139302,
				"element": "H" 
			},
			{
				"x": 2.57831648,
				"y": -2.5908652427,
				"z": -2.2231058027,
				"element": "H" 
			},
			{
				"x": 3.2152686077,
				"y": 1.3726249225,
				"z": 0.4224703534,
				"element": "H" 
			},
			{
				"x": 1.0041747375,
				"y": 2.5025986166,
				"z": 0.7410676292,
				"element": "H" 
			}
		],
		 "valence_orbital": [ 
			{
				"type": "occ",
				"energy": -0.27843,
				"method": "rhf"
			},
			{
				"type": "occ",
				"energy": -0.26506,
				"method": "rhf"
			},
			{
				"type": "occ",
				"energy": -0.23433,
				"method": "rhf"
			},
			{
				"type": "occ",
				"energy": -0.21991,
				"method": "rhf"
			},
			{
				"type": "occ",
				"energy": -0.19224,
				"method": "rhf"
			},
			{
				"type": "unocc",
				"energy": -0.00837,
				"method": "rhf"
			},
			{
				"type": "unocc",
				"energy": 0.01457,
				"method": "rhf"
			},
			{
				"type": "unocc",
				"energy": 0.04411,
				"method": "rhf"
			},
			{
				"type": "unocc",
				"energy": 0.06386,
				"method": "rhf"
			},
			{
				"type": "unocc",
				"energy": 0.09373,
				"method": "rhf"
			}
		],
		"cosmo_sigma_profile": { 
			"-0.025": 0.0,
			"-0.024": 0.0,
			"-0.023": 0.0,
			"-0.022": 0.0,
			"-0.021": 0.0,
			"-0.02": 0.0,
			"-0.019": 0.0,
			"-0.018": 0.0,
			"-0.017": 1.27374840085,
			"-0.016": 2.16315336698,
			"-0.015": 1.75068819007,
			"-0.014": 3.58767246113,
			"-0.013": 3.58671778164,
			"-0.012": 3.55668455169,
			"-0.011": 3.3635559894,
			"-0.01": 2.77809936607,
			"-0.009": 1.92026511567,
			"-0.008": 2.34473149348,
			"-0.007": 8.36922192615,
			"-0.006": 15.1340817445,
			"-0.005": 14.2920709452,
			"-0.004": 13.8748261998,
			"-0.003": 11.3001078997,
			"-0.002": 8.49050958222,
			"-0.001": 8.47261611774,
			"0.0": 10.2504202294,
			"0.001": 10.3213954088,
			"0.002": 12.7138194795,
			"0.003": 18.7023981399,
			"0.004": 22.6932940024,
			"0.005": 16.5931437849,
			"0.006": 7.24974821571,
			"0.007": 6.40056343166,
			"0.008": 5.37765121939,
			"0.009": 6.6131731559,
			"0.01": 6.6548015425,
			"0.011": 3.59414507379,
			"0.012": 2.75590236454,
			"0.013": 2.43332901754,
			"0.014": 1.73170977054,
			"0.015": 0.201946018237,
			"0.016": 0.0,
			"0.017": 0.0,
			"0.018": 0.0,
			"0.019": 0.0,
			"0.02": 0.0,
			"0.021": 0.0,
			"0.022": 0.0,
			"0.023": 0.0,
			"0.024": 0.0,
			"0.025": 0.0
		}
	}
}
