{
	 "smiles": "CC1=CC(C(=O)CCl)=C(C)N1C1=NOC=C1", 
	 "Tm": 361.15, 
	 "num_atms": 27, 
	 "gaussian": { 
		 "optdone": 1, 
		 "sigma_profile": "yes", 
		 "theory": "DFT", 
		 "functional": "B3LYP", 
		 "basiset": "6-31G**", 
		 "properties": { 
			 "R2extent": 5171.0589, 
			 "electric_dipole_moment_norm": 5.55915566071, 
			 "electric_quadrupole_moment_norm": 19.5886830456, 
			 "total_energy": -1145.87677299, 
			 "HOMO_LUMO_gap": 0.16744, 
			 "cosmo_polarized_energy": -15.24, 
			 "cosmo_cavitation_energy": 32.76, 
			 "cosmo_dispersion_energy": -23.16, 
			 "cosmo_repulsion_energy": 1.79, 
			 "cosmo_total_nonelectrostatic_energy": 11.39, 
			 "SMD_solvation_energy": 6.48 
		},
		"coords": [
			{
				"x": 0.0013342931,
				"y": -2.2276533158,
				"z": -1.0745901812,
				"element": "C" 
			},
			{
				"x": 0.1291613091,
				"y": -0.883803516,
				"z": -0.4328376654,
				"element": "C" 
			},
			{
				"x": 0.9565940492,
				"y": 0.1576214441,
				"z": -0.7272198601,
				"element": "C" 
			},
			{
				"x": 0.654867785,
				"y": 1.2502969629,
				"z": 0.1540471322,
				"element": "C" 
			},
			{
				"x": 1.3687147024,
				"y": 2.5265625292,
				"z": 0.0325947424,
				"element": "C" 
			},
			{
				"x": 2.2301089413,
				"y": 2.6888471334,
				"z": -0.8234915044,
				"element": "O" 
			},
			{
				"x": 1.0428421922,
				"y": 3.717651575,
				"z": 0.9394552493,
				"element": "C" 
			},
			{
				"x": 1.8577330499,
				"y": 3.5518940828,
				"z": 2.5592001746,
				"element": "Cl" 
			},
			{
				"x": -0.3839287238,
				"y": 0.8430820221,
				"z": 0.9910582729,
				"element": "C" 
			},
			{
				"x": -1.1052871296,
				"y": 1.5271181594,
				"z": 2.1111129229,
				"element": "C" 
			},
			{
				"x": -0.6968321939,
				"y": -0.460464895,
				"z": 0.6262677327,
				"element": "N" 
			},
			{
				"x": -1.7159585122,
				"y": -1.2445798451,
				"z": 1.1938865566,
				"element": "C" 
			},
			{
				"x": -2.951183138,
				"y": -0.7874919616,
				"z": 1.2505265244,
				"element": "N" 
			},
			{
				"x": -3.6775721668,
				"y": -1.7849645219,
				"z": 1.8889205437,
				"element": "O" 
			},
			{
				"x": -2.8608758667,
				"y": -2.8157245019,
				"z": 2.1785576302,
				"element": "C" 
			},
			{
				"x": -1.5944246647,
				"y": -2.545128516,
				"z": 1.7699179784,
				"element": "C" 
			},
			{
				"x": -1.0256029201,
				"y": -2.4371820583,
				"z": -1.3954706906,
				"element": "H" 
			},
			{
				"x": 0.3131542647,
				"y": -3.0487998332,
				"z": -0.4180184344,
				"element": "H" 
			},
			{
				"x": 0.640810404,
				"y": -2.256482645,
				"z": -1.9595690863,
				"element": "H" 
			},
			{
				"x": 1.7116426056,
				"y": 0.1833350226,
				"z": -1.4985518476,
				"element": "H" 
			},
			{
				"x": -0.0236337675,
				"y": 3.8380914358,
				"z": 1.1313305817,
				"element": "H" 
			},
			{
				"x": 1.454844083,
				"y": 4.6119663929,
				"z": 0.4757985807,
				"element": "H" 
			},
			{
				"x": -1.9830352327,
				"y": 2.0788827757,
				"z": 1.7545452198,
				"element": "H" 
			},
			{
				"x": -1.4696860313,
				"y": 0.8027532558,
				"z": 2.8428467691,
				"element": "H" 
			},
			{
				"x": -0.4423916703,
				"y": 2.2166018062,
				"z": 2.6338856165,
				"element": "H" 
			},
			{
				"x": -3.3191236865,
				"y": -3.6565953148,
				"z": 2.6787583768,
				"element": "H" 
			},
			{
				"x": -0.7072719753,
				"y": -3.1481336735,
				"z": 1.8753386651,
				"element": "H" 
			}
		],
		 "valence_orbital": [ 
			{
				"type": "occ",
				"energy": -0.30016,
				"method": "rhf"
			},
			{
				"type": "occ",
				"energy": -0.29107,
				"method": "rhf"
			},
			{
				"type": "occ",
				"energy": -0.25196,
				"method": "rhf"
			},
			{
				"type": "occ",
				"energy": -0.24657,
				"method": "rhf"
			},
			{
				"type": "occ",
				"energy": -0.21911,
				"method": "rhf"
			},
			{
				"type": "unocc",
				"energy": -0.05167,
				"method": "rhf"
			},
			{
				"type": "unocc",
				"energy": -0.03659,
				"method": "rhf"
			},
			{
				"type": "unocc",
				"energy": 0.00873,
				"method": "rhf"
			},
			{
				"type": "unocc",
				"energy": 0.03575,
				"method": "rhf"
			},
			{
				"type": "unocc",
				"energy": 0.04756,
				"method": "rhf"
			}
		],
		"cosmo_sigma_profile": { 
			"-0.025": 0.0,
			"-0.024": 0.0,
			"-0.023": 0.0,
			"-0.022": 0.0,
			"-0.021": 0.0,
			"-0.02": 0.0,
			"-0.019": 0.0,
			"-0.018": 0.0,
			"-0.017": 0.0,
			"-0.016": 0.0,
			"-0.015": 0.0,
			"-0.014": 0.0,
			"-0.013": 0.0,
			"-0.012": 0.33314437702,
			"-0.011": 2.06891404517,
			"-0.01": 2.56451576651,
			"-0.009": 3.90984075585,
			"-0.008": 7.23045667237,
			"-0.007": 8.53796045361,
			"-0.006": 11.5951628233,
			"-0.005": 19.347306171,
			"-0.004": 17.3404693038,
			"-0.003": 17.2137668189,
			"-0.002": 19.2304812708,
			"-0.001": 23.8441037469,
			"0.0": 17.2377537402,
			"0.001": 16.3013362868,
			"0.002": 13.8922734347,
			"0.003": 15.0531181367,
			"0.004": 15.2280891542,
			"0.005": 15.7204575564,
			"0.006": 10.2375967735,
			"0.007": 6.10365845393,
			"0.008": 3.13223364714,
			"0.009": 3.11391485258,
			"0.01": 3.70415261642,
			"0.011": 3.76932728677,
			"0.012": 5.25103963723,
			"0.013": 1.92900318084,
			"0.014": 0.012139907236,
			"0.015": 0.0,
			"0.016": 0.0,
			"0.017": 0.0,
			"0.018": 0.0,
			"0.019": 0.0,
			"0.02": 0.0,
			"0.021": 0.0,
			"0.022": 0.0,
			"0.023": 0.0,
			"0.024": 0.0,
			"0.025": 0.0
		}
	}
}
