{
	 "smiles": "FC(F)(F)C1=CC(Br)=CN=C1", 
	 "Tm": 318.15, 
	 "num_atms": 14, 
	 "gaussian": { 
		 "optdone": 1, 
		 "sigma_profile": "yes", 
		 "theory": "DFT", 
		 "functional": "B3LYP", 
		 "basiset": "6-31G**", 
		 "properties": { 
			 "R2extent": 2938.7854, 
			 "electric_dipole_moment_norm": 0.84521716736, 
			 "electric_quadrupole_moment_norm": 2.00305143219, 
			 "total_energy": -3156.11736638, 
			 "HOMO_LUMO_gap": 0.21224, 
			 "cosmo_polarized_energy": -4.87, 
			 "cosmo_cavitation_energy": 22.62, 
			 "cosmo_dispersion_energy": -16.64, 
			 "cosmo_repulsion_energy": 1.28, 
			 "cosmo_total_nonelectrostatic_energy": 7.26, 
			 "SMD_solvation_energy": 2.57 
		},
		"coords": [
			{
				"x": -2.2189576796,
				"y": 2.1019830804,
				"z": 2.1432991481,
				"element": "F" 
			},
			{
				"x": -0.9676705311,
				"y": 2.0062287046,
				"z": 1.6489695087,
				"element": "C" 
			},
			{
				"x": -0.1211699599,
				"y": 2.0095225274,
				"z": 2.7017382733,
				"element": "F" 
			},
			{
				"x": -0.7177704971,
				"y": 3.1243131597,
				"z": 0.9345009333,
				"element": "F" 
			},
			{
				"x": -0.7975038559,
				"y": 0.7660928807,
				"z": 0.8117011459,
				"element": "C" 
			},
			{
				"x": 0.1191533183,
				"y": 0.7462852638,
				"z": -0.2401072752,
				"element": "C" 
			},
			{
				"x": 0.2680266211,
				"y": -0.4429620296,
				"z": -0.9444145961,
				"element": "C" 
			},
			{
				"x": 1.4905911238,
				"y": -0.5599408222,
				"z": -2.3973688459,
				"element": "Br" 
			},
			{
				"x": -0.4908008135,
				"y": -1.5594102943,
				"z": -0.5820249056,
				"element": "C" 
			},
			{
				"x": -1.3703028852,
				"y": -1.5351138048,
				"z": 0.4228682799,
				"element": "N" 
			},
			{
				"x": -1.5188860938,
				"y": -0.3944793695,
				"z": 1.1036517659,
				"element": "C" 
			},
			{
				"x": 0.6882682051,
				"y": 1.6301853669,
				"z": -0.5025588106,
				"element": "H" 
			},
			{
				"x": -0.3827273272,
				"y": -2.4954094324,
				"z": -1.1237533568,
				"element": "H" 
			},
			{
				"x": -2.247249625,
				"y": -0.3996952307,
				"z": 1.909898735,
				"element": "H" 
			}
		],
		 "valence_orbital": [ 
			{
				"type": "occ",
				"energy": -0.34875,
				"method": "rhf"
			},
			{
				"type": "occ",
				"energy": -0.3125,
				"method": "rhf"
			},
			{
				"type": "occ",
				"energy": -0.31113,
				"method": "rhf"
			},
			{
				"type": "occ",
				"energy": -0.28129,
				"method": "rhf"
			},
			{
				"type": "occ",
				"energy": -0.27118,
				"method": "rhf"
			},
			{
				"type": "unocc",
				"energy": -0.05894,
				"method": "rhf"
			},
			{
				"type": "unocc",
				"energy": -0.04818,
				"method": "rhf"
			},
			{
				"type": "unocc",
				"energy": -0.01181,
				"method": "rhf"
			},
			{
				"type": "unocc",
				"energy": 0.09441,
				"method": "rhf"
			},
			{
				"type": "unocc",
				"energy": 0.11215,
				"method": "rhf"
			}
		],
		"cosmo_sigma_profile": { 
			"-0.025": 0.0,
			"-0.024": 0.0,
			"-0.023": 0.0,
			"-0.022": 0.0,
			"-0.021": 0.0,
			"-0.02": 0.0,
			"-0.019": 0.0,
			"-0.018": 0.0,
			"-0.017": 0.0,
			"-0.016": 0.0,
			"-0.015": 0.0,
			"-0.014": 0.0,
			"-0.013": 0.0,
			"-0.012": 0.0,
			"-0.011": 0.0,
			"-0.01": 0.0703117546749,
			"-0.009": 1.65915898985,
			"-0.008": 4.34971964885,
			"-0.007": 5.70965856448,
			"-0.006": 5.44894993075,
			"-0.005": 6.62234877969,
			"-0.004": 7.53546827428,
			"-0.003": 11.5767393583,
			"-0.002": 17.5791042195,
			"-0.001": 22.31904918,
			"0.0": 14.4670106764,
			"0.001": 14.3697404377,
			"0.002": 32.6652352767,
			"0.003": 25.1253266035,
			"0.004": 6.18162700492,
			"0.005": 1.56899104746,
			"0.006": 1.10908768738,
			"0.007": 1.56488448372,
			"0.008": 0.846242438154,
			"0.009": 1.05243954052,
			"0.01": 0.427476710474,
			"0.011": 0.896911419905,
			"0.012": 1.03930958243,
			"0.013": 0.852698571147,
			"0.014": 0.696197141886,
			"0.015": 0.440296160002,
			"0.016": 0.00122195630101,
			"0.017": 0.0,
			"0.018": 0.0,
			"0.019": 0.0,
			"0.02": 0.0,
			"0.021": 0.0,
			"0.022": 0.0,
			"0.023": 0.0,
			"0.024": 0.0,
			"0.025": 0.0
		}
	}
}
