{
	 "smiles": "OC(=O)C1=NNC(=C1)C1=CC=CS1", 
	 "Tm": 503.15, 
	 "num_atms": 19, 
	 "gaussian": { 
		 "optdone": 1, 
		 "sigma_profile": "yes", 
		 "theory": "DFT", 
		 "functional": "B3LYP", 
		 "basiset": "6-31G**", 
		 "properties": { 
			 "R2extent": 4310.2611, 
			 "electric_dipole_moment_norm": 7.64888788648, 
			 "electric_quadrupole_moment_norm": 29.5119833232, 
			 "total_energy": -966.573451384, 
			 "HOMO_LUMO_gap": 0.17854, 
			 "cosmo_polarized_energy": -22.62, 
			 "cosmo_cavitation_energy": 26.42, 
			 "cosmo_dispersion_energy": -19.95, 
			 "cosmo_repulsion_energy": 1.53, 
			 "cosmo_total_nonelectrostatic_energy": 8.0, 
			 "SMD_solvation_energy": 4.67 
		},
		"coords": [
			{
				"x": 0.9860446982,
				"y": -2.7619250015,
				"z": -2.4024503297,
				"element": "O" 
			},
			{
				"x": -0.3662130544,
				"y": -2.9274381033,
				"z": -2.4699550018,
				"element": "C" 
			},
			{
				"x": -0.8531728152,
				"y": -3.6850745106,
				"z": -3.2688842161,
				"element": "O" 
			},
			{
				"x": -1.1415955857,
				"y": -2.0924142621,
				"z": -1.5084176452,
				"element": "C" 
			},
			{
				"x": -2.392373688,
				"y": -2.4401664106,
				"z": -1.187486113,
				"element": "N" 
			},
			{
				"x": -2.7920943368,
				"y": -1.4844728818,
				"z": -0.3397974319,
				"element": "N" 
			},
			{
				"x": -1.8522716682,
				"y": -0.5180912759,
				"z": -0.0997759998,
				"element": "C" 
			},
			{
				"x": -0.7495935185,
				"y": -0.8967730153,
				"z": -0.8536266677,
				"element": "C" 
			},
			{
				"x": -2.1058001797,
				"y": 0.615451924,
				"z": 0.7703630144,
				"element": "C" 
			},
			{
				"x": -3.309449541,
				"y": 1.216695648,
				"z": 1.0668336185,
				"element": "C" 
			},
			{
				"x": -3.1835377272,
				"y": 2.3101639448,
				"z": 1.9710114502,
				"element": "C" 
			},
			{
				"x": -1.8888161783,
				"y": 2.537166597,
				"z": 2.3506209952,
				"element": "C" 
			},
			{
				"x": -0.7983294379,
				"y": 1.4053953111,
				"z": 1.6209232276,
				"element": "S" 
			},
			{
				"x": 1.2179313767,
				"y": -2.2447741264,
				"z": -1.618367796,
				"element": "H" 
			},
			{
				"x": -3.7020135793,
				"y": -1.5624660019,
				"z": 0.0903220318,
				"element": "H" 
			},
			{
				"x": 0.1664370354,
				"y": -0.334257092,
				"z": -0.9641465754,
				"element": "H" 
			},
			{
				"x": -4.2513797904,
				"y": 0.910088879,
				"z": 0.6249539911,
				"element": "H" 
			},
			{
				"x": -4.0197036739,
				"y": 2.9087832546,
				"z": 2.3129704572,
				"element": "H" 
			},
			{
				"x": -1.5072683358,
				"y": 3.300207123,
				"z": 3.0146089907,
				"element": "H" 
			}
		],
		 "valence_orbital": [ 
			{
				"type": "occ",
				"energy": -0.29797,
				"method": "rhf"
			},
			{
				"type": "occ",
				"energy": -0.28336,
				"method": "rhf"
			},
			{
				"type": "occ",
				"energy": -0.27432,
				"method": "rhf"
			},
			{
				"type": "occ",
				"energy": -0.26632,
				"method": "rhf"
			},
			{
				"type": "occ",
				"energy": -0.23451,
				"method": "rhf"
			},
			{
				"type": "unocc",
				"energy": -0.05597,
				"method": "rhf"
			},
			{
				"type": "unocc",
				"energy": -0.02895,
				"method": "rhf"
			},
			{
				"type": "unocc",
				"energy": 0.00553,
				"method": "rhf"
			},
			{
				"type": "unocc",
				"energy": 0.02025,
				"method": "rhf"
			},
			{
				"type": "unocc",
				"energy": 0.05685,
				"method": "rhf"
			}
		],
		"cosmo_sigma_profile": { 
			"-0.025": 0.0,
			"-0.024": 0.0,
			"-0.023": 0.0,
			"-0.022": 0.0,
			"-0.021": 0.0,
			"-0.02": 0.0,
			"-0.019": 0.0668995084467,
			"-0.018": 0.917824839372,
			"-0.017": 1.81283797938,
			"-0.016": 2.33247315287,
			"-0.015": 2.41717807945,
			"-0.014": 2.09654460533,
			"-0.013": 2.09628816422,
			"-0.012": 2.82719890978,
			"-0.011": 2.26971410823,
			"-0.01": 2.51072025124,
			"-0.009": 3.99974422578,
			"-0.008": 7.21844320739,
			"-0.007": 7.28787206784,
			"-0.006": 8.52724480204,
			"-0.005": 8.88014448276,
			"-0.004": 8.75543296394,
			"-0.003": 8.75725532734,
			"-0.002": 8.9314172475,
			"-0.001": 11.3217055602,
			"0.0": 13.1460387784,
			"0.001": 16.3846522779,
			"0.002": 16.9868268593,
			"0.003": 16.9689759896,
			"0.004": 13.2143319749,
			"0.005": 4.9107174461,
			"0.006": 3.8204315878,
			"0.007": 2.80503907227,
			"0.008": 3.31071767085,
			"0.009": 4.77937108615,
			"0.01": 5.7381021647,
			"0.011": 6.97002916096,
			"0.012": 6.5874021985,
			"0.013": 3.83350371448,
			"0.014": 1.80614939624,
			"0.015": 0.572139391666,
			"0.016": 0.0,
			"0.017": 0.0,
			"0.018": 0.0,
			"0.019": 0.0,
			"0.02": 0.0,
			"0.021": 0.0,
			"0.022": 0.0,
			"0.023": 0.0,
			"0.024": 0.0,
			"0.025": 0.0
		}
	}
}
