{
	 "smiles": "CCOC(=O)C1=C(C)N(N=C1)C1=CC=C(C=C1)C(O)=O", 
	 "Tm": 475.15, 
	 "num_atms": 34, 
	 "gaussian": { 
		 "optdone": 1, 
		 "sigma_profile": "yes", 
		 "theory": "DFT", 
		 "functional": "B3LYP", 
		 "basiset": "6-31G**", 
		 "properties": { 
			 "R2extent": 9569.6839, 
			 "electric_dipole_moment_norm": 3.82750803918, 
			 "electric_quadrupole_moment_norm": 34.2265408683, 
			 "total_energy": -952.338750546, 
			 "HOMO_LUMO_gap": 0.18262, 
			 "cosmo_polarized_energy": -21.05, 
			 "cosmo_cavitation_energy": 38.94, 
			 "cosmo_dispersion_energy": -27.78, 
			 "cosmo_repulsion_energy": 2.12, 
			 "cosmo_total_nonelectrostatic_energy": 13.28, 
			 "SMD_solvation_energy": 8.31 
		},
		"coords": [
			{
				"x": 1.3137071582,
				"y": -4.9129247088,
				"z": 1.3349056515,
				"element": "C" 
			},
			{
				"x": 0.1283534103,
				"y": -4.2062523954,
				"z": 1.9750722832,
				"element": "C" 
			},
			{
				"x": 0.0072507911,
				"y": -2.8425804994,
				"z": 1.501174956,
				"element": "O" 
			},
			{
				"x": 0.7584975401,
				"y": -1.9139098694,
				"z": 2.1475397628,
				"element": "C" 
			},
			{
				"x": 1.5007732234,
				"y": -2.1775959136,
				"z": 3.0755970187,
				"element": "O" 
			},
			{
				"x": 0.5851489105,
				"y": -0.5587215854,
				"z": 1.6106691809,
				"element": "C" 
			},
			{
				"x": -0.2338634478,
				"y": -0.0638592797,
				"z": 0.595814975,
				"element": "C" 
			},
			{
				"x": -1.2618919114,
				"y": -0.7544026116,
				"z": -0.2441391075,
				"element": "C" 
			},
			{
				"x": 0.0342016255,
				"y": 1.2813476274,
				"z": 0.5369323492,
				"element": "N" 
			},
			{
				"x": 0.9601203264,
				"y": 1.6768544831,
				"z": 1.4708161487,
				"element": "N" 
			},
			{
				"x": 1.2899673713,
				"y": 0.569416441,
				"z": 2.1046131811,
				"element": "C" 
			},
			{
				"x": -0.5319372806,
				"y": 2.2825048272,
				"z": -0.2959216193,
				"element": "C" 
			},
			{
				"x": -0.7645107072,
				"y": 3.5521890382,
				"z": 0.2474967555,
				"element": "C" 
			},
			{
				"x": -1.3121902194,
				"y": 4.5518230519,
				"z": -0.5485553682,
				"element": "C" 
			},
			{
				"x": -1.6406709102,
				"y": 4.3038200653,
				"z": -1.8898721613,
				"element": "C" 
			},
			{
				"x": -1.3686573539,
				"y": 3.0408660909,
				"z": -2.4300658142,
				"element": "C" 
			},
			{
				"x": -0.8163680016,
				"y": 2.0347340936,
				"z": -1.6450993118,
				"element": "C" 
			},
			{
				"x": -2.2285004168,
				"y": 5.336902791,
				"z": -2.8035436759,
				"element": "C" 
			},
			{
				"x": -2.8214096969,
				"y": 6.4111144699,
				"z": -2.2179564521,
				"element": "O" 
			},
			{
				"x": -2.1962151707,
				"y": 5.2479627101,
				"z": -4.0084623541,
				"element": "O" 
			},
			{
				"x": 1.3357567604,
				"y": -5.9610929416,
				"z": 1.6514708514,
				"element": "H" 
			},
			{
				"x": 1.2421013955,
				"y": -4.8856185929,
				"z": 0.2435047702,
				"element": "H" 
			},
			{
				"x": 2.2508205226,
				"y": -4.4423841198,
				"z": 1.6413280016,
				"element": "H" 
			},
			{
				"x": 0.218451837,
				"y": -4.1937754905,
				"z": 3.0635712955,
				"element": "H" 
			},
			{
				"x": -0.8176788091,
				"y": -4.6752692053,
				"z": 1.6936693361,
				"element": "H" 
			},
			{
				"x": -0.8397618476,
				"y": -1.1141156951,
				"z": -1.1899102699,
				"element": "H" 
			},
			{
				"x": -1.6334076697,
				"y": -1.6263453027,
				"z": 0.2925639735,
				"element": "H" 
			},
			{
				"x": -2.0970469452,
				"y": -0.0902693488,
				"z": -0.4798214805,
				"element": "H" 
			},
			{
				"x": 2.0230992846,
				"y": 0.5826084041,
				"z": 2.8989322788,
				"element": "H" 
			},
			{
				"x": -0.4955545364,
				"y": 3.7390306144,
				"z": 1.2796673415,
				"element": "H" 
			},
			{
				"x": -1.4488904428,
				"y": 5.5384919903,
				"z": -0.1126422387,
				"element": "H" 
			},
			{
				"x": -1.5832673483,
				"y": 2.8715000326,
				"z": -3.4794482724,
				"element": "H" 
			},
			{
				"x": -0.5800687508,
				"y": 1.0745290045,
				"z": -2.0866640191,
				"element": "H" 
			},
			{
				"x": -2.9131586903,
				"y": 6.2696218247,
				"z": -1.2658379662,
				"element": "H" 
			}
		],
		 "valence_orbital": [ 
			{
				"type": "occ",
				"energy": -0.28363,
				"method": "rhf"
			},
			{
				"type": "occ",
				"energy": -0.27815,
				"method": "rhf"
			},
			{
				"type": "occ",
				"energy": -0.27618,
				"method": "rhf"
			},
			{
				"type": "occ",
				"energy": -0.26035,
				"method": "rhf"
			},
			{
				"type": "occ",
				"energy": -0.25009,
				"method": "rhf"
			},
			{
				"type": "unocc",
				"energy": -0.06747,
				"method": "rhf"
			},
			{
				"type": "unocc",
				"energy": -0.03377,
				"method": "rhf"
			},
			{
				"type": "unocc",
				"energy": -0.02321,
				"method": "rhf"
			},
			{
				"type": "unocc",
				"energy": 0.0068,
				"method": "rhf"
			},
			{
				"type": "unocc",
				"energy": 0.04225,
				"method": "rhf"
			}
		],
		"cosmo_sigma_profile": { 
			"-0.025": 0.0,
			"-0.024": 0.0,
			"-0.023": 0.0,
			"-0.022": 0.0,
			"-0.021": 0.0,
			"-0.02": 0.0,
			"-0.019": 0.352372324095,
			"-0.018": 1.07485230186,
			"-0.017": 0.657565057986,
			"-0.016": 1.49905113585,
			"-0.015": 1.17254188188,
			"-0.014": 0.863152838214,
			"-0.013": 0.573241474371,
			"-0.012": 1.4184316902,
			"-0.011": 1.39976622929,
			"-0.01": 0.976504145802,
			"-0.009": 1.64559519958,
			"-0.008": 5.35136472358,
			"-0.007": 9.60272251054,
			"-0.006": 12.3634833319,
			"-0.005": 15.3954552336,
			"-0.004": 22.4223114412,
			"-0.003": 24.6880878383,
			"-0.002": 29.9891539066,
			"-0.001": 27.4916897345,
			"0.0": 26.1749342289,
			"0.001": 25.4521614496,
			"0.002": 23.6548818624,
			"0.003": 10.2948227123,
			"0.004": 7.14319729589,
			"0.005": 7.16542358609,
			"0.006": 6.57784823561,
			"0.007": 4.98251028451,
			"0.008": 5.45384837615,
			"0.009": 6.15008711623,
			"0.01": 7.70194128103,
			"0.011": 8.16361436879,
			"0.012": 9.66726077579,
			"0.013": 3.12415287722,
			"0.014": 0.184614737145,
			"0.015": 0.0,
			"0.016": 0.0,
			"0.017": 0.0,
			"0.018": 0.0,
			"0.019": 0.0,
			"0.02": 0.0,
			"0.021": 0.0,
			"0.022": 0.0,
			"0.023": 0.0,
			"0.024": 0.0,
			"0.025": 0.0
		}
	}
}
