{
	 "smiles": "O[C@H]1[C@@H]2CC[C@H]1[C@H]1O[C@@H]2C=C1", 
	 "Tm": 395.15, 
	 "num_atms": 23, 
	 "gaussian": { 
		 "optdone": 1, 
		 "sigma_profile": "yes", 
		 "theory": "DFT", 
		 "functional": "B3LYP", 
		 "basiset": "6-31G**", 
		 "properties": { 
			 "R2extent": 1514.7757, 
			 "electric_dipole_moment_norm": 2.13139980529, 
			 "electric_quadrupole_moment_norm": 3.49069138997, 
			 "total_energy": -500.563793738, 
			 "HOMO_LUMO_gap": 0.23995, 
			 "cosmo_polarized_energy": -8.86, 
			 "cosmo_cavitation_energy": 22.62, 
			 "cosmo_dispersion_energy": -17.84, 
			 "cosmo_repulsion_energy": 1.42, 
			 "cosmo_total_nonelectrostatic_energy": 6.2, 
			 "SMD_solvation_energy": 3.03 
		},
		"coords": [
			{
				"x": 1.8283704152,
				"y": 1.479201517,
				"z": 0.333640264,
				"element": "O" 
			},
			{
				"x": 1.02533354,
				"y": 0.9118447883,
				"z": -0.6869895874,
				"element": "C" 
			},
			{
				"x": 1.628188454,
				"y": -0.3316484063,
				"z": -1.3788598307,
				"element": "C" 
			},
			{
				"x": 0.5378730386,
				"y": -0.5402600996,
				"z": -2.4683814084,
				"element": "C" 
			},
			{
				"x": -0.8029450274,
				"y": -0.0886151821,
				"z": -1.7794865474,
				"element": "C" 
			},
			{
				"x": -0.3807334575,
				"y": 0.3388310777,
				"z": -0.3449530614,
				"element": "C" 
			},
			{
				"x": -0.2707302444,
				"y": -0.9462302077,
				"z": 0.5507010892,
				"element": "C" 
			},
			{
				"x": 0.2477159552,
				"y": -1.9868665262,
				"z": -0.2953091718,
				"element": "O" 
			},
			{
				"x": 1.6214476151,
				"y": -1.5788838797,
				"z": -0.4231693281,
				"element": "C" 
			},
			{
				"x": 1.9618393217,
				"y": -1.2325087473,
				"z": 1.0205779926,
				"element": "C" 
			},
			{
				"x": 0.8249976549,
				"y": -0.8510749672,
				"z": 1.6057348275,
				"element": "C" 
			},
			{
				"x": 1.4334922411,
				"y": 2.3273794063,
				"z": 0.5720707449,
				"element": "H" 
			},
			{
				"x": 0.8785100147,
				"y": 1.6753011,
				"z": -1.469327483,
				"element": "H" 
			},
			{
				"x": 2.6287150658,
				"y": -0.1462006179,
				"z": -1.7815002381,
				"element": "H" 
			},
			{
				"x": 0.487693754,
				"y": -1.5780710968,
				"z": -2.8034145249,
				"element": "H" 
			},
			{
				"x": 0.7581703202,
				"y": 0.083825924,
				"z": -3.3411936986,
				"element": "H" 
			},
			{
				"x": -1.2461030528,
				"y": 0.762063495,
				"z": -2.3087623914,
				"element": "H" 
			},
			{
				"x": -1.5405174349,
				"y": -0.8935176308,
				"z": -1.7661079716,
				"element": "H" 
			},
			{
				"x": -1.0515377955,
				"y": 1.0791000365,
				"z": 0.1066492424,
				"element": "H" 
			},
			{
				"x": -1.2555550076,
				"y": -1.2564032719,
				"z": 0.9143359422,
				"element": "H" 
			},
			{
				"x": 2.1876176502,
				"y": -2.4070862288,
				"z": -0.8604331765,
				"element": "H" 
			},
			{
				"x": 2.9628458905,
				"y": -1.1907481088,
				"z": 1.4318228872,
				"element": "H" 
			},
			{
				"x": 0.7011110891,
				"y": -0.4360323736,
				"z": 2.5987554292,
				"element": "H" 
			}
		],
		 "valence_orbital": [ 
			{
				"type": "occ",
				"energy": -0.31311,
				"method": "rhf"
			},
			{
				"type": "occ",
				"energy": -0.30269,
				"method": "rhf"
			},
			{
				"type": "occ",
				"energy": -0.26367,
				"method": "rhf"
			},
			{
				"type": "occ",
				"energy": -0.24151,
				"method": "rhf"
			},
			{
				"type": "occ",
				"energy": -0.21999,
				"method": "rhf"
			},
			{
				"type": "unocc",
				"energy": 0.01996,
				"method": "rhf"
			},
			{
				"type": "unocc",
				"energy": 0.06782,
				"method": "rhf"
			},
			{
				"type": "unocc",
				"energy": 0.09417,
				"method": "rhf"
			},
			{
				"type": "unocc",
				"energy": 0.12221,
				"method": "rhf"
			},
			{
				"type": "unocc",
				"energy": 0.13413,
				"method": "rhf"
			}
		],
		"cosmo_sigma_profile": { 
			"-0.025": 0.0,
			"-0.024": 0.0,
			"-0.023": 0.0,
			"-0.022": 0.0,
			"-0.021": 0.0,
			"-0.02": 0.0,
			"-0.019": 0.0,
			"-0.018": 0.0,
			"-0.017": 0.0,
			"-0.016": 0.102660468647,
			"-0.015": 0.892513730653,
			"-0.014": 1.13381014608,
			"-0.013": 0.631789975566,
			"-0.012": 0.863327146322,
			"-0.011": 1.22493368691,
			"-0.01": 0.745175448419,
			"-0.009": 0.297935870542,
			"-0.008": 0.875801808399,
			"-0.007": 1.37658052923,
			"-0.006": 2.93845871587,
			"-0.005": 7.33066326304,
			"-0.004": 11.9378444711,
			"-0.003": 23.267950144,
			"-0.002": 26.7103155728,
			"-0.001": 20.5482338158,
			"0.0": 13.6435146975,
			"0.001": 14.1467245638,
			"0.002": 9.0206529588,
			"0.003": 4.2732797817,
			"0.004": 3.28459291747,
			"0.005": 3.90849655969,
			"0.006": 3.2407330061,
			"0.007": 2.95202573609,
			"0.008": 3.69994808839,
			"0.009": 2.54583951127,
			"0.01": 2.51166173119,
			"0.011": 2.18498251843,
			"0.012": 3.11125255057,
			"0.013": 3.15131763074,
			"0.014": 2.16518866026,
			"0.015": 0.710194618762,
			"0.016": 0.0,
			"0.017": 0.0,
			"0.018": 0.0,
			"0.019": 0.0,
			"0.02": 0.0,
			"0.021": 0.0,
			"0.022": 0.0,
			"0.023": 0.0,
			"0.024": 0.0,
			"0.025": 0.0
		}
	}
}
