{
	 "smiles": "NNC(=O)C(=O)NCC1=CC=C(Cl)C=C1", 
	 "Tm": 465.15, 
	 "num_atms": 25, 
	 "gaussian": { 
		 "optdone": 1, 
		 "sigma_profile": "yes", 
		 "theory": "DFT", 
		 "functional": "B3LYP", 
		 "basiset": "6-31G**", 
		 "properties": { 
			 "R2extent": 5580.9421, 
			 "electric_dipole_moment_norm": 3.58840054899, 
			 "electric_quadrupole_moment_norm": 13.3358688667, 
			 "total_energy": -1123.86624367, 
			 "HOMO_LUMO_gap": 0.20171, 
			 "cosmo_polarized_energy": -15.95, 
			 "cosmo_cavitation_energy": 31.57, 
			 "cosmo_dispersion_energy": -23.05, 
			 "cosmo_repulsion_energy": 1.84, 
			 "cosmo_total_nonelectrostatic_energy": 10.35, 
			 "SMD_solvation_energy": 6.28 
		},
		"coords": [
			{
				"x": -3.4304078379,
				"y": -3.2888907433,
				"z": 3.5408720036,
				"element": "N" 
			},
			{
				"x": -2.1264575363,
				"y": -3.2637508401,
				"z": 2.9997155684,
				"element": "N" 
			},
			{
				"x": -1.5941267613,
				"y": -2.3788286857,
				"z": 2.1178775907,
				"element": "C" 
			},
			{
				"x": -0.4835387981,
				"y": -2.5491819172,
				"z": 1.6153828361,
				"element": "O" 
			},
			{
				"x": -2.494598325,
				"y": -1.199418779,
				"z": 1.704042577,
				"element": "C" 
			},
			{
				"x": -3.6902510205,
				"y": -1.3863954841,
				"z": 1.4711511742,
				"element": "O" 
			},
			{
				"x": -1.9112357059,
				"y": 0.013473505,
				"z": 1.5471235462,
				"element": "N" 
			},
			{
				"x": -0.5182979764,
				"y": 0.4344458611,
				"z": 1.7331432745,
				"element": "C" 
			},
			{
				"x": 0.1542511319,
				"y": 0.8168206233,
				"z": 0.4278434378,
				"element": "C" 
			},
			{
				"x": 0.4530648719,
				"y": 2.1525338288,
				"z": 0.1432987328,
				"element": "C" 
			},
			{
				"x": 1.0626972237,
				"y": 2.5143268393,
				"z": -1.0598946754,
				"element": "C" 
			},
			{
				"x": 1.3709100789,
				"y": 1.5185533378,
				"z": -1.983483889,
				"element": "C" 
			},
			{
				"x": 2.1379851183,
				"y": 1.9581667479,
				"z": -3.5037108396,
				"element": "Cl" 
			},
			{
				"x": 1.0844891771,
				"y": 0.176983552,
				"z": -1.7226099448,
				"element": "C" 
			},
			{
				"x": 0.4773799627,
				"y": -0.1675868523,
				"z": -0.5173304582,
				"element": "C" 
			},
			{
				"x": -3.4770061831,
				"y": -2.6223984647,
				"z": 4.3101505833,
				"element": "H" 
			},
			{
				"x": -4.0622415885,
				"y": -2.9557202844,
				"z": 2.8143687334,
				"element": "H" 
			},
			{
				"x": -1.5843012491,
				"y": -4.1091228929,
				"z": 3.1334045858,
				"element": "H" 
			},
			{
				"x": -2.552303123,
				"y": 0.7024831947,
				"z": 1.1694271199,
				"element": "H" 
			},
			{
				"x": 0.0174410336,
				"y": -0.385033901,
				"z": 2.2098979285,
				"element": "H" 
			},
			{
				"x": -0.5096370306,
				"y": 1.2910375574,
				"z": 2.4171666692,
				"element": "H" 
			},
			{
				"x": 0.2134740768,
				"y": 2.9268207439,
				"z": 0.8684126503,
				"element": "H" 
			},
			{
				"x": 1.2943940752,
				"y": 3.5510709929,
				"z": -1.2772231134,
				"element": "H" 
			},
			{
				"x": 1.3388604138,
				"y": -0.5836794483,
				"z": -2.4525096718,
				"element": "H" 
			},
			{
				"x": 0.2558559721,
				"y": -1.206908491,
				"z": -0.2935164196,
				"element": "H" 
			}
		],
		 "valence_orbital": [ 
			{
				"type": "occ",
				"energy": -0.27405,
				"method": "rhf"
			},
			{
				"type": "occ",
				"energy": -0.26631,
				"method": "rhf"
			},
			{
				"type": "occ",
				"energy": -0.26457,
				"method": "rhf"
			},
			{
				"type": "occ",
				"energy": -0.24698,
				"method": "rhf"
			},
			{
				"type": "occ",
				"energy": -0.24311,
				"method": "rhf"
			},
			{
				"type": "unocc",
				"energy": -0.0414,
				"method": "rhf"
			},
			{
				"type": "unocc",
				"energy": -0.01953,
				"method": "rhf"
			},
			{
				"type": "unocc",
				"energy": -0.01514,
				"method": "rhf"
			},
			{
				"type": "unocc",
				"energy": 0.0291,
				"method": "rhf"
			},
			{
				"type": "unocc",
				"energy": 0.05487,
				"method": "rhf"
			}
		],
		"cosmo_sigma_profile": { 
			"-0.025": 0.0,
			"-0.024": 0.0,
			"-0.023": 0.0,
			"-0.022": 0.0,
			"-0.021": 0.0,
			"-0.02": 0.0,
			"-0.019": 0.0,
			"-0.018": 0.0,
			"-0.017": 0.0,
			"-0.016": 0.0,
			"-0.015": 0.320190301757,
			"-0.014": 2.08858757803,
			"-0.013": 1.62058562788,
			"-0.012": 2.9371579066,
			"-0.011": 3.89879451338,
			"-0.01": 3.05635025908,
			"-0.009": 3.35773252022,
			"-0.008": 4.78610458399,
			"-0.007": 9.51590658031,
			"-0.006": 13.1415966819,
			"-0.005": 15.135745038,
			"-0.004": 13.4957716721,
			"-0.003": 12.1210177497,
			"-0.002": 13.311381558,
			"-0.001": 15.6971142568,
			"0.0": 17.0058794927,
			"0.001": 18.0935530289,
			"0.002": 19.4189050638,
			"0.003": 20.7810738634,
			"0.004": 20.2859627967,
			"0.005": 11.1536242508,
			"0.006": 3.74105841466,
			"0.007": 3.20613151004,
			"0.008": 2.68135698652,
			"0.009": 3.10369085117,
			"0.01": 3.9376087059,
			"0.011": 3.80235635488,
			"0.012": 6.01124959427,
			"0.013": 3.89554782764,
			"0.014": 0.614801421907,
			"0.015": 0.80243558906,
			"0.016": 0.53025831491,
			"0.017": 0.0,
			"0.018": 0.0,
			"0.019": 0.0,
			"0.02": 0.0,
			"0.021": 0.0,
			"0.022": 0.0,
			"0.023": 0.0,
			"0.024": 0.0,
			"0.025": 0.0
		}
	}
}
