{
	 "smiles": "CS(=O)(=O)NC1=C(F)C=C(C=C1)S(Cl)(=O)=O", 
	 "Tm": 438.15, 
	 "num_atms": 23, 
	 "gaussian": { 
		 "optdone": 1, 
		 "sigma_profile": "yes", 
		 "theory": "DFT", 
		 "functional": "B3LYP", 
		 "basiset": "6-31G**", 
		 "properties": { 
			 "R2extent": 7032.7296, 
			 "electric_dipole_moment_norm": 4.60721184557, 
			 "electric_quadrupole_moment_norm": 29.856807742, 
			 "total_energy": -1982.87402857, 
			 "HOMO_LUMO_gap": 0.17059, 
			 "cosmo_polarized_energy": -19.39, 
			 "cosmo_cavitation_energy": 33.12, 
			 "cosmo_dispersion_energy": -24.73, 
			 "cosmo_repulsion_energy": 1.82, 
			 "cosmo_total_nonelectrostatic_energy": 10.2, 
			 "SMD_solvation_energy": 4.5 
		},
		"coords": [
			{
				"x": -2.7142795283,
				"y": 1.7130008034,
				"z": -1.620851803,
				"element": "C" 
			},
			{
				"x": -2.7314392114,
				"y": 1.0502654939,
				"z": 0.0555889195,
				"element": "S" 
			},
			{
				"x": -3.3774668577,
				"y": 2.0129394983,
				"z": 0.9400246685,
				"element": "O" 
			},
			{
				"x": -3.1491718192,
				"y": -0.3466084637,
				"z": -0.024967869,
				"element": "O" 
			},
			{
				"x": -1.1035225186,
				"y": 1.0872942072,
				"z": 0.5326554966,
				"element": "N" 
			},
			{
				"x": -0.0493526482,
				"y": 0.3391463781,
				"z": 0.0050778467,
				"element": "C" 
			},
			{
				"x": 1.2484501002,
				"y": 0.8624708295,
				"z": 0.1603801274,
				"element": "C" 
			},
			{
				"x": 1.3638813676,
				"y": 2.0497544778,
				"z": 0.7979681715,
				"element": "F" 
			},
			{
				"x": 2.3763695391,
				"y": 0.2161921501,
				"z": -0.2993798335,
				"element": "C" 
			},
			{
				"x": 2.1943280727,
				"y": -1.0073546801,
				"z": -0.950884626,
				"element": "C" 
			},
			{
				"x": 0.9298328867,
				"y": -1.5684215167,
				"z": -1.1255167211,
				"element": "C" 
			},
			{
				"x": -0.1915659946,
				"y": -0.9010305366,
				"z": -0.6382657387,
				"element": "C" 
			},
			{
				"x": 3.6261818779,
				"y": -1.8678676916,
				"z": -1.5634475716,
				"element": "S" 
			},
			{
				"x": 3.7936340285,
				"y": -1.0599194801,
				"z": -3.5358244481,
				"element": "Cl" 
			},
			{
				"x": 3.305634578,
				"y": -3.2788074006,
				"z": -1.7333528015,
				"element": "O" 
			},
			{
				"x": 4.8072455585,
				"y": -1.4108834105,
				"z": -0.8423940097,
				"element": "O" 
			},
			{
				"x": -2.3769813702,
				"y": 2.7494313947,
				"z": -1.5876411976,
				"element": "H" 
			},
			{
				"x": -2.056033519,
				"y": 1.1005639382,
				"z": -2.2391619534,
				"element": "H" 
			},
			{
				"x": -3.7393140351,
				"y": 1.6558486757,
				"z": -1.9917390782,
				"element": "H" 
			},
			{
				"x": -0.8547030442,
				"y": 1.9426387021,
				"z": 1.0165371686,
				"element": "H" 
			},
			{
				"x": 3.3585387414,
				"y": 0.6493805807,
				"z": -0.1521982151,
				"element": "H" 
			},
			{
				"x": 0.8251194915,
				"y": -2.5290135896,
				"z": -1.6164478906,
				"element": "H" 
			},
			{
				"x": -1.1758856958,
				"y": -1.3429203603,
				"z": -0.7298586417,
				"element": "H" 
			}
		],
		 "valence_orbital": [ 
			{
				"type": "occ",
				"energy": -0.33487,
				"method": "rhf"
			},
			{
				"type": "occ",
				"energy": -0.33013,
				"method": "rhf"
			},
			{
				"type": "occ",
				"energy": -0.31835,
				"method": "rhf"
			},
			{
				"type": "occ",
				"energy": -0.29722,
				"method": "rhf"
			},
			{
				"type": "occ",
				"energy": -0.26758,
				"method": "rhf"
			},
			{
				"type": "unocc",
				"energy": -0.09699,
				"method": "rhf"
			},
			{
				"type": "unocc",
				"energy": -0.05311,
				"method": "rhf"
			},
			{
				"type": "unocc",
				"energy": -0.04555,
				"method": "rhf"
			},
			{
				"type": "unocc",
				"energy": 0.02147,
				"method": "rhf"
			},
			{
				"type": "unocc",
				"energy": 0.04363,
				"method": "rhf"
			}
		],
		"cosmo_sigma_profile": { 
			"-0.025": 0.0,
			"-0.024": 0.0,
			"-0.023": 0.0,
			"-0.022": 0.0,
			"-0.021": 0.0,
			"-0.02": 0.0,
			"-0.019": 0.0,
			"-0.018": 0.0,
			"-0.017": 0.0,
			"-0.016": 0.0,
			"-0.015": 0.435174193567,
			"-0.014": 1.15487453,
			"-0.013": 0.889770500773,
			"-0.012": 0.944255603541,
			"-0.011": 1.671152846,
			"-0.01": 3.59628698375,
			"-0.009": 7.02857545766,
			"-0.008": 11.6699964783,
			"-0.007": 12.5486338877,
			"-0.006": 12.9204695754,
			"-0.005": 13.4866074342,
			"-0.004": 12.9037310075,
			"-0.003": 12.177544475,
			"-0.002": 17.1599650909,
			"-0.001": 18.9449078498,
			"0.0": 18.7297996369,
			"0.001": 15.4142289079,
			"0.002": 15.8152169387,
			"0.003": 22.1439444776,
			"0.004": 11.0566649094,
			"0.005": 5.29597976381,
			"0.006": 6.54812479496,
			"0.007": 9.90537466329,
			"0.008": 12.5362108164,
			"0.009": 9.08153652279,
			"0.01": 10.2036653967,
			"0.011": 4.4741640112,
			"0.012": 0.00507869634823,
			"0.013": 0.0,
			"0.014": 0.0,
			"0.015": 0.0,
			"0.016": 0.0,
			"0.017": 0.0,
			"0.018": 0.0,
			"0.019": 0.0,
			"0.02": 0.0,
			"0.021": 0.0,
			"0.022": 0.0,
			"0.023": 0.0,
			"0.024": 0.0,
			"0.025": 0.0
		}
	}
}
