{
	 "smiles": "COC1=C(NC(=O)CC(N)=S)C=CC=C1", 
	 "Tm": 420.15, 
	 "num_atms": 27, 
	 "gaussian": { 
		 "optdone": 1, 
		 "sigma_profile": "yes", 
		 "theory": "DFT", 
		 "functional": "B3LYP", 
		 "basiset": "6-31G**", 
		 "properties": { 
			 "R2extent": 3458.0687, 
			 "electric_dipole_moment_norm": 6.97248763713, 
			 "electric_quadrupole_moment_norm": 12.4007894664, 
			 "total_energy": -1046.43281965, 
			 "HOMO_LUMO_gap": 0.16768, 
			 "cosmo_polarized_energy": -22.14, 
			 "cosmo_cavitation_energy": 32.2, 
			 "cosmo_dispersion_energy": -22.09, 
			 "cosmo_repulsion_energy": 1.72, 
			 "cosmo_total_nonelectrostatic_energy": 11.83, 
			 "SMD_solvation_energy": 5.97 
		},
		"coords": [
			{
				"x": 0.4069330688,
				"y": -1.4923694532,
				"z": 2.6959611307,
				"element": "C" 
			},
			{
				"x": -0.273196419,
				"y": -1.0776122454,
				"z": 1.5027682094,
				"element": "O" 
			},
			{
				"x": -0.8794548345,
				"y": 0.164823951,
				"z": 1.5914144541,
				"element": "C" 
			},
			{
				"x": -0.1534795426,
				"y": 1.347468223,
				"z": 1.3576633551,
				"element": "C" 
			},
			{
				"x": 1.2486874492,
				"y": 1.3577999016,
				"z": 1.1416029225,
				"element": "N" 
			},
			{
				"x": 2.0561882873,
				"y": 0.8003178848,
				"z": 0.1582211536,
				"element": "C" 
			},
			{
				"x": 3.2439030126,
				"y": 1.0776907769,
				"z": 0.1419324273,
				"element": "O" 
			},
			{
				"x": 1.472358078,
				"y": -0.203588799,
				"z": -0.8351594494,
				"element": "C" 
			},
			{
				"x": 0.2344728769,
				"y": 0.2328730523,
				"z": -1.604796727,
				"element": "C" 
			},
			{
				"x": -0.8035985195,
				"y": -0.6195809434,
				"z": -1.5089468807,
				"element": "N" 
			},
			{
				"x": 0.2000761176,
				"y": 1.6047802052,
				"z": -2.5439008042,
				"element": "S" 
			},
			{
				"x": -0.8331240328,
				"y": 2.5718623046,
				"z": 1.4382937719,
				"element": "C" 
			},
			{
				"x": -2.1931587769,
				"y": 2.6243121064,
				"z": 1.7320462039,
				"element": "C" 
			},
			{
				"x": -2.9085783641,
				"y": 1.4430581812,
				"z": 1.9376244594,
				"element": "C" 
			},
			{
				"x": -2.2475990927,
				"y": 0.2183025971,
				"z": 1.8631048555,
				"element": "C" 
			},
			{
				"x": 0.8332213735,
				"y": -2.4749396534,
				"z": 2.484824501,
				"element": "H" 
			},
			{
				"x": 1.2092010164,
				"y": -0.793409371,
				"z": 2.9549928669,
				"element": "H" 
			},
			{
				"x": -0.2952160562,
				"y": -1.5710798026,
				"z": 3.5343636379,
				"element": "H" 
			},
			{
				"x": 1.754114822,
				"y": 2.0940703296,
				"z": 1.6206166237,
				"element": "H" 
			},
			{
				"x": 2.2745039286,
				"y": -0.3703942128,
				"z": -1.5559812024,
				"element": "H" 
			},
			{
				"x": 1.2866546168,
				"y": -1.1394812944,
				"z": -0.2998925381,
				"element": "H" 
			},
			{
				"x": -1.6715067417,
				"y": -0.3699260924,
				"z": -1.9620730891,
				"element": "H" 
			},
			{
				"x": -0.816902865,
				"y": -1.3347038743,
				"z": -0.7935065919,
				"element": "H" 
			},
			{
				"x": -0.2773721041,
				"y": 3.4855079309,
				"z": 1.2483033757,
				"element": "H" 
			},
			{
				"x": -2.6947007503,
				"y": 3.5856000371,
				"z": 1.7832751955,
				"element": "H" 
			},
			{
				"x": -3.9717268986,
				"y": 1.4738924639,
				"z": 2.1550560891,
				"element": "H" 
			},
			{
				"x": -2.7742996497,
				"y": -0.7177742038,
				"z": 2.0227920497,
				"element": "H" 
			}
		],
		 "valence_orbital": [ 
			{
				"type": "occ",
				"energy": -0.26253,
				"method": "rhf"
			},
			{
				"type": "occ",
				"energy": -0.25713,
				"method": "rhf"
			},
			{
				"type": "occ",
				"energy": -0.23654,
				"method": "rhf"
			},
			{
				"type": "occ",
				"energy": -0.22717,
				"method": "rhf"
			},
			{
				"type": "occ",
				"energy": -0.2042,
				"method": "rhf"
			},
			{
				"type": "unocc",
				"energy": -0.03652,
				"method": "rhf"
			},
			{
				"type": "unocc",
				"energy": -0.02027,
				"method": "rhf"
			},
			{
				"type": "unocc",
				"energy": -0.01574,
				"method": "rhf"
			},
			{
				"type": "unocc",
				"energy": 0.02381,
				"method": "rhf"
			},
			{
				"type": "unocc",
				"energy": 0.06737,
				"method": "rhf"
			}
		],
		"cosmo_sigma_profile": { 
			"-0.025": 0.0,
			"-0.024": 0.0,
			"-0.023": 0.0,
			"-0.022": 0.0,
			"-0.021": 0.0,
			"-0.02": 0.0,
			"-0.019": 0.0,
			"-0.018": 0.0,
			"-0.017": 0.0,
			"-0.016": 0.0,
			"-0.015": 0.89325576384,
			"-0.014": 1.85186000949,
			"-0.013": 2.81238741712,
			"-0.012": 3.77590132799,
			"-0.011": 2.60585404085,
			"-0.01": 2.66032850155,
			"-0.009": 2.81700691632,
			"-0.008": 3.66364654907,
			"-0.007": 6.44294930401,
			"-0.006": 13.6539131858,
			"-0.005": 18.3589243488,
			"-0.004": 22.9530471512,
			"-0.003": 23.1262302559,
			"-0.002": 18.8472178694,
			"-0.001": 12.8912420365,
			"0.0": 10.0873440968,
			"0.001": 11.1518942362,
			"0.002": 10.0517123968,
			"0.003": 12.0835990414,
			"0.004": 13.4427201822,
			"0.005": 11.9477901363,
			"0.006": 7.59243096097,
			"0.007": 7.89824217576,
			"0.008": 6.65488970827,
			"0.009": 7.53538222728,
			"0.01": 4.58285850277,
			"0.011": 5.47977430196,
			"0.012": 5.24250717241,
			"0.013": 5.56069387734,
			"0.014": 1.28510350568,
			"0.015": 0.0,
			"0.016": 0.0,
			"0.017": 0.0,
			"0.018": 0.0,
			"0.019": 0.0,
			"0.02": 0.0,
			"0.021": 0.0,
			"0.022": 0.0,
			"0.023": 0.0,
			"0.024": 0.0,
			"0.025": 0.0
		}
	}
}
