{
	 "smiles": "CC(C)C1=CC(C(O)=O)=C(O)C=C1", 
	 "Tm": 397.15, 
	 "num_atms": 25, 
	 "gaussian": { 
		 "optdone": 1, 
		 "sigma_profile": "yes", 
		 "theory": "DFT", 
		 "functional": "B3LYP", 
		 "basiset": "6-31G**", 
		 "properties": { 
			 "R2extent": 2921.0366, 
			 "electric_dipole_moment_norm": 2.90204867637, 
			 "electric_quadrupole_moment_norm": 14.5404627994, 
			 "total_energy": -613.990032443, 
			 "HOMO_LUMO_gap": 0.18315, 
			 "cosmo_polarized_energy": -15.59, 
			 "cosmo_cavitation_energy": 28.58, 
			 "cosmo_dispersion_energy": -20.46, 
			 "cosmo_repulsion_energy": 1.65, 
			 "cosmo_total_nonelectrostatic_energy": 9.76, 
			 "SMD_solvation_energy": 6.57 
		},
		"coords": [
			{
				"x": 0.2774655227,
				"y": 0.3201847865,
				"z": 3.5465181646,
				"element": "C" 
			},
			{
				"x": -0.891460687,
				"y": 0.2786631353,
				"z": 2.5442690204,
				"element": "C" 
			},
			{
				"x": -1.4926791049,
				"y": -1.1366529294,
				"z": 2.4546853313,
				"element": "C" 
			},
			{
				"x": -0.4861385103,
				"y": 0.8115532558,
				"z": 1.1759472441,
				"element": "C" 
			},
			{
				"x": 0.4999272619,
				"y": 0.1879086878,
				"z": 0.4091434911,
				"element": "C" 
			},
			{
				"x": 0.8929487775,
				"y": 0.6574543524,
				"z": -0.8553381236,
				"element": "C" 
			},
			{
				"x": 1.9498664947,
				"y": -0.055224495,
				"z": -1.6179395531,
				"element": "C" 
			},
			{
				"x": 2.4282871208,
				"y": -1.1423339868,
				"z": -0.942739368,
				"element": "O" 
			},
			{
				"x": 2.3824142582,
				"y": 0.2395814859,
				"z": -2.7125685477,
				"element": "O" 
			},
			{
				"x": 0.26271432,
				"y": 1.8124346203,
				"z": -1.3752882422,
				"element": "C" 
			},
			{
				"x": 0.6213270547,
				"y": 2.2883751943,
				"z": -2.5930714211,
				"element": "O" 
			},
			{
				"x": -0.7275624767,
				"y": 2.4451963973,
				"z": -0.6134357855,
				"element": "C" 
			},
			{
				"x": -1.0921348115,
				"y": 1.9529630052,
				"z": 0.6352994926,
				"element": "C" 
			},
			{
				"x": 0.6819348682,
				"y": 1.3325694916,
				"z": 3.6428634344,
				"element": "H" 
			},
			{
				"x": 1.0951617607,
				"y": -0.336352991,
				"z": 3.2292282229,
				"element": "H" 
			},
			{
				"x": -0.0498341896,
				"y": -0.0129273363,
				"z": 4.5375268432,
				"element": "H" 
			},
			{
				"x": -1.6760203739,
				"y": 0.945582004,
				"z": 2.9263452511,
				"element": "H" 
			},
			{
				"x": -1.8297841605,
				"y": -1.4775173215,
				"z": 3.4397546169,
				"element": "H" 
			},
			{
				"x": -2.3487204715,
				"y": -1.1618489926,
				"z": 1.7732424977,
				"element": "H" 
			},
			{
				"x": -0.7542809195,
				"y": -1.8585604066,
				"z": 2.0886853495,
				"element": "H" 
			},
			{
				"x": 0.9964542527,
				"y": -0.6981583913,
				"z": 0.7869801846,
				"element": "H" 
			},
			{
				"x": 3.1021430974,
				"y": -1.5211112514,
				"z": -1.5299162784,
				"element": "H" 
			},
			{
				"x": 0.0919293081,
				"y": 3.074602285,
				"z": -2.7836123828,
				"element": "H" 
			},
			{
				"x": -1.2141341824,
				"y": 3.3339386848,
				"z": -1.0107279378,
				"element": "H" 
			},
			{
				"x": -1.8649242098,
				"y": 2.468680716,
				"z": 1.2004484959,
				"element": "H" 
			}
		],
		 "valence_orbital": [ 
			{
				"type": "occ",
				"energy": -0.32608,
				"method": "rhf"
			},
			{
				"type": "occ",
				"energy": -0.30672,
				"method": "rhf"
			},
			{
				"type": "occ",
				"energy": -0.26061,
				"method": "rhf"
			},
			{
				"type": "occ",
				"energy": -0.25963,
				"method": "rhf"
			},
			{
				"type": "occ",
				"energy": -0.22408,
				"method": "rhf"
			},
			{
				"type": "unocc",
				"energy": -0.04093,
				"method": "rhf"
			},
			{
				"type": "unocc",
				"energy": 0.00362,
				"method": "rhf"
			},
			{
				"type": "unocc",
				"energy": 0.06261,
				"method": "rhf"
			},
			{
				"type": "unocc",
				"energy": 0.06699,
				"method": "rhf"
			},
			{
				"type": "unocc",
				"energy": 0.08213,
				"method": "rhf"
			}
		],
		"cosmo_sigma_profile": { 
			"-0.025": 0.0,
			"-0.024": 0.0,
			"-0.023": 0.0,
			"-0.022": 0.0,
			"-0.021": 0.0,
			"-0.02": 0.0,
			"-0.019": 0.0,
			"-0.018": 0.877532245344,
			"-0.017": 2.01832150209,
			"-0.016": 2.29411427856,
			"-0.015": 1.76810469252,
			"-0.014": 1.6659739546,
			"-0.013": 2.03086576879,
			"-0.012": 1.39327545437,
			"-0.011": 1.42903674796,
			"-0.01": 1.93933208539,
			"-0.009": 2.0320479529,
			"-0.008": 1.19659052674,
			"-0.007": 2.85052630841,
			"-0.006": 4.54174756933,
			"-0.005": 7.93145304767,
			"-0.004": 9.56079571522,
			"-0.003": 15.387712497,
			"-0.002": 19.5253301209,
			"-0.001": 23.627152561,
			"0.0": 20.682087137,
			"0.001": 25.2893680492,
			"0.002": 17.5365048771,
			"0.003": 13.1129408366,
			"0.004": 11.7374644695,
			"0.005": 4.89898506066,
			"0.006": 4.2290462889,
			"0.007": 3.3729449086,
			"0.008": 2.8432226777,
			"0.009": 2.23809178,
			"0.01": 1.97316474241,
			"0.011": 2.49443804953,
			"0.012": 5.00769419458,
			"0.013": 2.68353424667,
			"0.014": 1.9200996442,
			"0.015": 1.20530457236,
			"0.016": 1.35799566385,
			"0.017": 0.200479791249,
			"0.018": 0.0,
			"0.019": 0.0,
			"0.02": 0.0,
			"0.021": 0.0,
			"0.022": 0.0,
			"0.023": 0.0,
			"0.024": 0.0,
			"0.025": 0.0
		}
	}
}
