{
	 "smiles": "OCC1OC(=O)C(O)C(O)C1O", 
	 "Tm": 426.15, 
	 "num_atms": 22, 
	 "gaussian": { 
		 "optdone": 1, 
		 "sigma_profile": "yes", 
		 "theory": "DFT", 
		 "functional": "B3LYP", 
		 "basiset": "6-31G**", 
		 "properties": { 
			 "R2extent": 2346.862, 
			 "electric_dipole_moment_norm": 2.43995012654, 
			 "electric_quadrupole_moment_norm": 7.37481266474, 
			 "total_energy": -685.978178689, 
			 "HOMO_LUMO_gap": 0.26219, 
			 "cosmo_polarized_energy": -16.59, 
			 "cosmo_cavitation_energy": 24.45, 
			 "cosmo_dispersion_energy": -18.57, 
			 "cosmo_repulsion_energy": 1.49, 
			 "cosmo_total_nonelectrostatic_energy": 7.37, 
			 "SMD_solvation_energy": 4.91 
		},
		"coords": [
			{
				"x": 2.4990727619,
				"y": -3.5357131347,
				"z": 0.4521731316,
				"element": "O" 
			},
			{
				"x": 1.7023215805,
				"y": -2.9855086588,
				"z": -0.575251086,
				"element": "C" 
			},
			{
				"x": 1.4341229302,
				"y": -1.4968251571,
				"z": -0.3200930135,
				"element": "C" 
			},
			{
				"x": 0.597306511,
				"y": -1.0569710226,
				"z": -1.4295538149,
				"element": "O" 
			},
			{
				"x": 0.0723008596,
				"y": 0.179326122,
				"z": -1.3947599079,
				"element": "C" 
			},
			{
				"x": -0.552279281,
				"y": 0.6359811052,
				"z": -2.3270257116,
				"element": "O" 
			},
			{
				"x": 0.2019605422,
				"y": 0.922376497,
				"z": -0.0717114242,
				"element": "C" 
			},
			{
				"x": -0.6436755962,
				"y": 2.0438437917,
				"z": -0.0480320748,
				"element": "O" 
			},
			{
				"x": -0.1962672793,
				"y": -0.0786243745,
				"z": 1.0199428061,
				"element": "C" 
			},
			{
				"x": -0.271410389,
				"y": 0.520718707,
				"z": 2.2969411108,
				"element": "O" 
			},
			{
				"x": 0.8246860168,
				"y": -1.2132992016,
				"z": 1.0769861212,
				"element": "C" 
			},
			{
				"x": 0.2409619228,
				"y": -2.4050221096,
				"z": 1.6057696907,
				"element": "O" 
			},
			{
				"x": 1.9152540151,
				"y": -3.5924993062,
				"z": 1.2240972245,
				"element": "H" 
			},
			{
				"x": 2.2503111021,
				"y": -3.0890465922,
				"z": -1.515697551,
				"element": "H" 
			},
			{
				"x": 0.7388143272,
				"y": -3.4993085808,
				"z": -0.6851841991,
				"element": "H" 
			},
			{
				"x": 2.3794710798,
				"y": -0.9476294076,
				"z": -0.3899460698,
				"element": "H" 
			},
			{
				"x": 1.2477139539,
				"y": 1.235238225,
				"z": 0.0844168788,
				"element": "H" 
			},
			{
				"x": -1.0351229611,
				"y": 2.0968447108,
				"z": -0.9386232076,
				"element": "H" 
			},
			{
				"x": -1.1691198965,
				"y": -0.5130021468,
				"z": 0.7355662383,
				"element": "H" 
			},
			{
				"x": -0.8350752338,
				"y": 1.3030158392,
				"z": 2.1990027408,
				"element": "H" 
			},
			{
				"x": 1.6457388547,
				"y": -0.8820338283,
				"z": 1.7272839867,
				"element": "H" 
			},
			{
				"x": -0.124885821,
				"y": -2.1777614771,
				"z": 2.471998131,
				"element": "H" 
			}
		],
		 "valence_orbital": [ 
			{
				"type": "occ",
				"energy": -0.31403,
				"method": "rhf"
			},
			{
				"type": "occ",
				"energy": -0.30365,
				"method": "rhf"
			},
			{
				"type": "occ",
				"energy": -0.29464,
				"method": "rhf"
			},
			{
				"type": "occ",
				"energy": -0.27924,
				"method": "rhf"
			},
			{
				"type": "occ",
				"energy": -0.27422,
				"method": "rhf"
			},
			{
				"type": "unocc",
				"energy": -0.01203,
				"method": "rhf"
			},
			{
				"type": "unocc",
				"energy": 0.04672,
				"method": "rhf"
			},
			{
				"type": "unocc",
				"energy": 0.06132,
				"method": "rhf"
			},
			{
				"type": "unocc",
				"energy": 0.07273,
				"method": "rhf"
			},
			{
				"type": "unocc",
				"energy": 0.09686,
				"method": "rhf"
			}
		],
		"cosmo_sigma_profile": { 
			"-0.025": 0.0,
			"-0.024": 0.0,
			"-0.023": 0.0,
			"-0.022": 0.0,
			"-0.021": 0.0,
			"-0.02": 0.0,
			"-0.019": 0.0,
			"-0.018": 0.0,
			"-0.017": 0.0599922266659,
			"-0.016": 0.485908855579,
			"-0.015": 0.695146097674,
			"-0.014": 1.03100198528,
			"-0.013": 2.22013846267,
			"-0.012": 1.57258780843,
			"-0.011": 1.90388409252,
			"-0.01": 4.01670071462,
			"-0.009": 4.8901207374,
			"-0.008": 7.3689229841,
			"-0.007": 9.73127159935,
			"-0.006": 10.1876434354,
			"-0.005": 12.9444382757,
			"-0.004": 12.5108547849,
			"-0.003": 11.7041396613,
			"-0.002": 10.6679042077,
			"-0.001": 9.30610839522,
			"0.0": 8.39417056056,
			"0.001": 6.47161833718,
			"0.002": 7.29763132153,
			"0.003": 5.89038012197,
			"0.004": 6.18979106334,
			"0.005": 4.96643892369,
			"0.006": 6.24795971023,
			"0.007": 5.83162636871,
			"0.008": 6.78313783872,
			"0.009": 7.40695334412,
			"0.01": 7.73385989338,
			"0.011": 6.3460935908,
			"0.012": 4.83050294431,
			"0.013": 2.0547981275,
			"0.014": 2.22449084287,
			"0.015": 0.0512667564936,
			"0.016": 0.0,
			"0.017": 0.0,
			"0.018": 0.0,
			"0.019": 0.0,
			"0.02": 0.0,
			"0.021": 0.0,
			"0.022": 0.0,
			"0.023": 0.0,
			"0.024": 0.0,
			"0.025": 0.0
		}
	}
}
