{
	 "smiles": "CC(=O)C1=CC=C2C=C3C=CC=CC3=CC2=C1", 
	 "Tm": 463.15, 
	 "num_atms": 29, 
	 "gaussian": { 
		 "optdone": 1, 
		 "sigma_profile": "yes", 
		 "theory": "DFT", 
		 "functional": "B3LYP", 
		 "basiset": "6-31G**", 
		 "properties": { 
			 "R2extent": 5149.2649, 
			 "electric_dipole_moment_norm": 3.64334517854, 
			 "electric_quadrupole_moment_norm": 15.6998105756, 
			 "total_energy": -692.182615194, 
			 "HOMO_LUMO_gap": 0.12553, 
			 "cosmo_polarized_energy": -10.37, 
			 "cosmo_cavitation_energy": 32.82, 
			 "cosmo_dispersion_energy": -24.07, 
			 "cosmo_repulsion_energy": 1.8, 
			 "cosmo_total_nonelectrostatic_energy": 10.54, 
			 "SMD_solvation_energy": 5.62 
		},
		"coords": [
			{
				"x": -4.6729307865,
				"y": -0.4763591175,
				"z": -1.8501717043,
				"element": "C" 
			},
			{
				"x": -3.5243670426,
				"y": 0.0931915655,
				"z": -2.6678439776,
				"element": "C" 
			},
			{
				"x": -3.7058903369,
				"y": 0.4547659103,
				"z": -3.8218389042,
				"element": "O" 
			},
			{
				"x": -2.1693140011,
				"y": 0.2061189617,
				"z": -2.0427089981,
				"element": "C" 
			},
			{
				"x": -1.1080781515,
				"y": 0.7475798818,
				"z": -2.8407899423,
				"element": "C" 
			},
			{
				"x": 0.1523111673,
				"y": 0.8783687222,
				"z": -2.3326817576,
				"element": "C" 
			},
			{
				"x": 0.4553161066,
				"y": 0.4805352369,
				"z": -0.9903940699,
				"element": "C" 
			},
			{
				"x": 1.7353252205,
				"y": 0.6013291867,
				"z": -0.4401698157,
				"element": "C" 
			},
			{
				"x": 2.0132200433,
				"y": 0.2063729214,
				"z": 0.8764793044,
				"element": "C" 
			},
			{
				"x": 3.317357935,
				"y": 0.3252078598,
				"z": 1.4491527643,
				"element": "C" 
			},
			{
				"x": 3.5585989527,
				"y": -0.0694214485,
				"z": 2.7392776845,
				"element": "C" 
			},
			{
				"x": 2.5090433023,
				"y": -0.6087882937,
				"z": 3.5397549429,
				"element": "C" 
			},
			{
				"x": 1.2445140277,
				"y": -0.7395900297,
				"z": 3.0288043967,
				"element": "C" 
			},
			{
				"x": 0.9495706811,
				"y": -0.3403034535,
				"z": 1.6878911234,
				"element": "C" 
			},
			{
				"x": -0.3324202027,
				"y": -0.4612081662,
				"z": 1.1365546292,
				"element": "C" 
			},
			{
				"x": -0.6079379894,
				"y": -0.0659993988,
				"z": -0.1791733131,
				"element": "C" 
			},
			{
				"x": -1.9116087059,
				"y": -0.18619601,
				"z": -0.7477073846,
				"element": "C" 
			},
			{
				"x": -5.5704090609,
				"y": -0.4788072721,
				"z": -2.469227021,
				"element": "H" 
			},
			{
				"x": -4.8536029771,
				"y": 0.1240653712,
				"z": -0.9519276673,
				"element": "H" 
			},
			{
				"x": -4.4553190896,
				"y": -1.4988832107,
				"z": -1.5229377041,
				"element": "H" 
			},
			{
				"x": -1.3468602488,
				"y": 1.0459324208,
				"z": -3.8554899928,
				"element": "H" 
			},
			{
				"x": 0.9522324429,
				"y": 1.2896251589,
				"z": -2.9430936264,
				"element": "H" 
			},
			{
				"x": 2.5370789648,
				"y": 1.012554093,
				"z": -1.0493295818,
				"element": "H" 
			},
			{
				"x": 4.1167461553,
				"y": 0.7364554756,
				"z": 0.8382650309,
				"element": "H" 
			},
			{
				"x": 4.5547662024,
				"y": 0.0268135157,
				"z": 3.161202475,
				"element": "H" 
			},
			{
				"x": 2.7201585603,
				"y": -0.9157903591,
				"z": 4.5598738255,
				"element": "H" 
			},
			{
				"x": 0.4421523924,
				"y": -1.1503587479,
				"z": 3.6362645315,
				"element": "H" 
			},
			{
				"x": -1.1345050432,
				"y": -0.8724867322,
				"z": 1.7456239037,
				"element": "H" 
			},
			{
				"x": -2.6998485184,
				"y": -0.5989240416,
				"z": -0.1248591509,
				"element": "H" 
			}
		],
		 "valence_orbital": [ 
			{
				"type": "occ",
				"energy": -0.30464,
				"method": "rhf"
			},
			{
				"type": "occ",
				"energy": -0.26366,
				"method": "rhf"
			},
			{
				"type": "occ",
				"energy": -0.2463,
				"method": "rhf"
			},
			{
				"type": "occ",
				"energy": -0.24583,
				"method": "rhf"
			},
			{
				"type": "occ",
				"energy": -0.20268,
				"method": "rhf"
			},
			{
				"type": "unocc",
				"energy": -0.07715,
				"method": "rhf"
			},
			{
				"type": "unocc",
				"energy": -0.04101,
				"method": "rhf"
			},
			{
				"type": "unocc",
				"energy": -0.00686,
				"method": "rhf"
			},
			{
				"type": "unocc",
				"energy": 0.01614,
				"method": "rhf"
			},
			{
				"type": "unocc",
				"energy": 0.03682,
				"method": "rhf"
			}
		],
		"cosmo_sigma_profile": { 
			"-0.025": 0.0,
			"-0.024": 0.0,
			"-0.023": 0.0,
			"-0.022": 0.0,
			"-0.021": 0.0,
			"-0.02": 0.0,
			"-0.019": 0.0,
			"-0.018": 0.0,
			"-0.017": 0.0,
			"-0.016": 0.0,
			"-0.015": 0.0,
			"-0.014": 0.0,
			"-0.013": 0.0,
			"-0.012": 0.0,
			"-0.011": 0.0,
			"-0.01": 0.0,
			"-0.009": 0.0,
			"-0.008": 0.144384424372,
			"-0.007": 5.24128534383,
			"-0.006": 23.5373217687,
			"-0.005": 22.1309660217,
			"-0.004": 21.3739666507,
			"-0.003": 18.878846979,
			"-0.002": 16.7671186178,
			"-0.001": 16.6015998669,
			"0.0": 15.3519118993,
			"0.001": 14.1783599547,
			"0.002": 23.040471457,
			"0.003": 38.3456009224,
			"0.004": 21.3171767366,
			"0.005": 8.5462947485,
			"0.006": 2.28056173849,
			"0.007": 1.36273869458,
			"0.008": 0.960249321058,
			"0.009": 2.33079367625,
			"0.01": 1.89785662722,
			"0.011": 2.84935354921,
			"0.012": 4.19507930857,
			"0.013": 1.66850903405,
			"0.014": 0.217682218176,
			"0.015": 0.0,
			"0.016": 0.0,
			"0.017": 0.0,
			"0.018": 0.0,
			"0.019": 0.0,
			"0.02": 0.0,
			"0.021": 0.0,
			"0.022": 0.0,
			"0.023": 0.0,
			"0.024": 0.0,
			"0.025": 0.0
		}
	}
}
