{
	 "smiles": "NC(CC1=CC=CC=C1)C(N)=O", 
	 "Tm": 367.15, 
	 "num_atms": 24, 
	 "gaussian": { 
		 "optdone": 1, 
		 "sigma_profile": "yes", 
		 "theory": "DFT", 
		 "functional": "B3LYP", 
		 "basiset": "6-31G**", 
		 "properties": { 
			 "R2extent": 2478.9669, 
			 "electric_dipole_moment_norm": 3.2235353108, 
			 "electric_quadrupole_moment_norm": 17.5995899995, 
			 "total_energy": -534.934056286, 
			 "HOMO_LUMO_gap": 0.23317, 
			 "cosmo_polarized_energy": -16.86, 
			 "cosmo_cavitation_energy": 27.24, 
			 "cosmo_dispersion_energy": -19.14, 
			 "cosmo_repulsion_energy": 1.55, 
			 "cosmo_total_nonelectrostatic_energy": 9.66, 
			 "SMD_solvation_energy": 4.18 
		},
		"coords": [
			{
				"x": -1.3724380181,
				"y": 0.7616093584,
				"z": -0.012453834,
				"element": "N" 
			},
			{
				"x": -0.2582119491,
				"y": 1.6966086694,
				"z": -0.0746393977,
				"element": "C" 
			},
			{
				"x": 0.8272159765,
				"y": 1.3128045091,
				"z": 0.9720855375,
				"element": "C" 
			},
			{
				"x": 1.4320882562,
				"y": -0.0614570046,
				"z": 0.774289267,
				"element": "C" 
			},
			{
				"x": 0.825431407,
				"y": -1.1949690251,
				"z": 1.3354650212,
				"element": "C" 
			},
			{
				"x": 1.3724419848,
				"y": -2.4651155148,
				"z": 1.1473161184,
				"element": "C" 
			},
			{
				"x": 2.5385942646,
				"y": -2.6226800138,
				"z": 0.3961994617,
				"element": "C" 
			},
			{
				"x": 3.1523745644,
				"y": -1.5021469537,
				"z": -0.1663020904,
				"element": "C" 
			},
			{
				"x": 2.602638417,
				"y": -0.2336885855,
				"z": 0.0221612871,
				"element": "C" 
			},
			{
				"x": 0.3405843855,
				"y": 1.8098658736,
				"z": -1.4956701449,
				"element": "C" 
			},
			{
				"x": 1.2069962971,
				"y": 2.8528961057,
				"z": -1.6927862501,
				"element": "N" 
			},
			{
				"x": 0.0744589346,
				"y": 1.0082060328,
				"z": -2.3788570188,
				"element": "O" 
			},
			{
				"x": -2.1248617267,
				"y": 1.1090824279,
				"z": -0.6034389763,
				"element": "H" 
			},
			{
				"x": -1.0728030229,
				"y": -0.1016262334,
				"z": -0.4642982359,
				"element": "H" 
			},
			{
				"x": -0.6332114365,
				"y": 2.6898842515,
				"z": 0.210079491,
				"element": "H" 
			},
			{
				"x": 0.3445331811,
				"y": 1.3652922296,
				"z": 1.9528824955,
				"element": "H" 
			},
			{
				"x": 1.620260219,
				"y": 2.06899049,
				"z": 0.9574465106,
				"element": "H" 
			},
			{
				"x": -0.083179988,
				"y": -1.0741910297,
				"z": 1.9185352815,
				"element": "H" 
			},
			{
				"x": 0.8894392133,
				"y": -3.3311779425,
				"z": 1.5914652308,
				"element": "H" 
			},
			{
				"x": 2.9674361858,
				"y": -3.6104126675,
				"z": 0.2528482907,
				"element": "H" 
			},
			{
				"x": 4.0613476001,
				"y": -1.6147169721,
				"z": -0.75072027,
				"element": "H" 
			},
			{
				"x": 3.0854449965,
				"y": 0.6344041534,
				"z": -0.4194727621,
				"element": "H" 
			},
			{
				"x": 1.3094170603,
				"y": 3.5959637414,
				"z": -1.0202395248,
				"element": "H" 
			},
			{
				"x": 1.5587031976,
				"y": 3.0008740998,
				"z": -2.627195488,
				"element": "H" 
			}
		],
		 "valence_orbital": [ 
			{
				"type": "occ",
				"energy": -0.2703,
				"method": "rhf"
			},
			{
				"type": "occ",
				"energy": -0.25529,
				"method": "rhf"
			},
			{
				"type": "occ",
				"energy": -0.24333,
				"method": "rhf"
			},
			{
				"type": "occ",
				"energy": -0.24222,
				"method": "rhf"
			},
			{
				"type": "occ",
				"energy": -0.23087,
				"method": "rhf"
			},
			{
				"type": "unocc",
				"energy": 0.0023,
				"method": "rhf"
			},
			{
				"type": "unocc",
				"energy": 0.00407,
				"method": "rhf"
			},
			{
				"type": "unocc",
				"energy": 0.02759,
				"method": "rhf"
			},
			{
				"type": "unocc",
				"energy": 0.06475,
				"method": "rhf"
			},
			{
				"type": "unocc",
				"energy": 0.09735,
				"method": "rhf"
			}
		],
		"cosmo_sigma_profile": { 
			"-0.025": 0.0,
			"-0.024": 0.0,
			"-0.023": 0.0,
			"-0.022": 0.0,
			"-0.021": 0.0,
			"-0.02": 0.0,
			"-0.019": 0.0,
			"-0.018": 0.0,
			"-0.017": 0.0,
			"-0.016": 0.0,
			"-0.015": 0.0119377957408,
			"-0.014": 1.2054250127,
			"-0.013": 2.88958725222,
			"-0.012": 2.25853137414,
			"-0.011": 2.79827479362,
			"-0.01": 3.91434998275,
			"-0.009": 4.09698932226,
			"-0.008": 3.1194392327,
			"-0.007": 4.79672286535,
			"-0.006": 7.57815636894,
			"-0.005": 13.9569126313,
			"-0.004": 16.0038162418,
			"-0.003": 20.1609823097,
			"-0.002": 14.8585618131,
			"-0.001": 13.3881842961,
			"0.0": 10.640747546,
			"0.001": 11.9771695885,
			"0.002": 11.8342928519,
			"0.003": 10.4337778937,
			"0.004": 10.2129034963,
			"0.005": 9.64604666801,
			"0.006": 9.97223469092,
			"0.007": 5.03844115246,
			"0.008": 2.55683588088,
			"0.009": 2.17032873474,
			"0.01": 2.0345595983,
			"0.011": 1.83354537,
			"0.012": 2.45347900856,
			"0.013": 3.76005491202,
			"0.014": 5.46395571255,
			"0.015": 1.10998149974,
			"0.016": 0.760578516483,
			"0.017": 0.294142272012,
			"0.018": 0.414978438632,
			"0.019": 0.140996991836,
			"0.02": 0.0,
			"0.021": 0.0,
			"0.022": 0.0,
			"0.023": 0.0,
			"0.024": 0.0,
			"0.025": 0.0
		}
	}
}
