{
	 "smiles": "ClC(=O)OCC1=CC2=CC=CC=C2S1(=O)=O", 
	 "Tm": 350.15, 
	 "num_atms": 23, 
	 "gaussian": { 
		 "optdone": 1, 
		 "sigma_profile": "yes", 
		 "theory": "DFT", 
		 "functional": "B3LYP", 
		 "basiset": "6-31G**", 
		 "properties": { 
			 "R2extent": 5718.9463, 
			 "electric_dipole_moment_norm": 7.46400788049, 
			 "electric_quadrupole_moment_norm": 7.84936076378, 
			 "total_energy": -1544.46524505, 
			 "HOMO_LUMO_gap": 0.17364, 
			 "cosmo_polarized_energy": -19.59, 
			 "cosmo_cavitation_energy": 32.36, 
			 "cosmo_dispersion_energy": -23.43, 
			 "cosmo_repulsion_energy": 1.8, 
			 "cosmo_total_nonelectrostatic_energy": 10.72, 
			 "SMD_solvation_energy": 5.74 
		},
		"coords": [
			{
				"x": -4.0848512735,
				"y": -3.3338215668,
				"z": -1.3011849164,
				"element": "Cl" 
			},
			{
				"x": -2.6118689276,
				"y": -3.4699052701,
				"z": -0.3236031899,
				"element": "C" 
			},
			{
				"x": -2.2913526803,
				"y": -4.4654448345,
				"z": 0.2565228984,
				"element": "O" 
			},
			{
				"x": -1.9588926062,
				"y": -2.3091913693,
				"z": -0.3676732433,
				"element": "O" 
			},
			{
				"x": -0.7232911721,
				"y": -2.2961163707,
				"z": 0.409496892,
				"element": "C" 
			},
			{
				"x": -0.146026217,
				"y": -0.9288828053,
				"z": 0.3466174165,
				"element": "C" 
			},
			{
				"x": 0.9775602392,
				"y": -0.5091467407,
				"z": -0.2543605861,
				"element": "C" 
			},
			{
				"x": 1.3337559804,
				"y": 0.897711804,
				"z": -0.0140534222,
				"element": "C" 
			},
			{
				"x": 2.4231397329,
				"y": 1.6043644428,
				"z": -0.5234190146,
				"element": "C" 
			},
			{
				"x": 2.5827853428,
				"y": 2.949673714,
				"z": -0.1725299146,
				"element": "C" 
			},
			{
				"x": 1.668852213,
				"y": 3.585205577,
				"z": 0.6718284134,
				"element": "C" 
			},
			{
				"x": 0.5685154623,
				"y": 2.8855436506,
				"z": 1.1877774918,
				"element": "C" 
			},
			{
				"x": 0.4331861785,
				"y": 1.5544112488,
				"z": 0.8364804919,
				"element": "C" 
			},
			{
				"x": -0.8762198681,
				"y": 0.417629827,
				"z": 1.3204669111,
				"element": "S" 
			},
			{
				"x": -0.7828031789,
				"y": 0.0526309131,
				"z": 2.7427402429,
				"element": "O" 
			},
			{
				"x": -2.1621060026,
				"y": 0.8630389638,
				"z": 0.7711779818,
				"element": "O" 
			},
			{
				"x": -0.0313096958,
				"y": -3.0327846546,
				"z": -0.0080139191,
				"element": "H" 
			},
			{
				"x": -0.9555978872,
				"y": -2.5799682449,
				"z": 1.4407319836,
				"element": "H" 
			},
			{
				"x": 1.6037625329,
				"y": -1.1562438558,
				"z": -0.8624516022,
				"element": "H" 
			},
			{
				"x": 3.1347100179,
				"y": 1.1173939098,
				"z": -1.1840068825,
				"element": "H" 
			},
			{
				"x": 3.4281253288,
				"y": 3.5071435262,
				"z": -0.5639004009,
				"element": "H" 
			},
			{
				"x": 1.8094588732,
				"y": 4.6295110913,
				"z": 0.9322262552,
				"element": "H" 
			},
			{
				"x": -0.1489323926,
				"y": 3.3707470443,
				"z": 1.8415301134,
				"element": "H" 
			}
		],
		 "valence_orbital": [ 
			{
				"type": "occ",
				"energy": -0.3112,
				"method": "rhf"
			},
			{
				"type": "occ",
				"energy": -0.3062,
				"method": "rhf"
			},
			{
				"type": "occ",
				"energy": -0.30033,
				"method": "rhf"
			},
			{
				"type": "occ",
				"energy": -0.28339,
				"method": "rhf"
			},
			{
				"type": "occ",
				"energy": -0.26438,
				"method": "rhf"
			},
			{
				"type": "unocc",
				"energy": -0.09074,
				"method": "rhf"
			},
			{
				"type": "unocc",
				"energy": -0.04621,
				"method": "rhf"
			},
			{
				"type": "unocc",
				"energy": -0.01126,
				"method": "rhf"
			},
			{
				"type": "unocc",
				"energy": 0.00193,
				"method": "rhf"
			},
			{
				"type": "unocc",
				"energy": 0.02131,
				"method": "rhf"
			}
		],
		"cosmo_sigma_profile": { 
			"-0.025": 0.0,
			"-0.024": 0.0,
			"-0.023": 0.0,
			"-0.022": 0.0,
			"-0.021": 0.0,
			"-0.02": 0.0,
			"-0.019": 0.0,
			"-0.018": 0.0,
			"-0.017": 0.0,
			"-0.016": 0.0,
			"-0.015": 0.0,
			"-0.014": 0.0,
			"-0.013": 0.0,
			"-0.012": 0.0,
			"-0.011": 0.150518160975,
			"-0.01": 4.72503114298,
			"-0.009": 8.64283700851,
			"-0.008": 11.7785085543,
			"-0.007": 15.7666374094,
			"-0.006": 16.5342694154,
			"-0.005": 12.1956892241,
			"-0.004": 11.3449574386,
			"-0.003": 13.2702055497,
			"-0.002": 14.2395928078,
			"-0.001": 16.2153612256,
			"0.0": 15.9576615959,
			"0.001": 20.2286857489,
			"0.002": 23.0602007028,
			"0.003": 15.1796251947,
			"0.004": 8.5398788162,
			"0.005": 6.28119856012,
			"0.006": 4.38396104942,
			"0.007": 6.7354307923,
			"0.008": 6.49564650584,
			"0.009": 8.00281076243,
			"0.01": 11.567772463,
			"0.011": 10.7807568977,
			"0.012": 0.959090681436,
			"0.013": 0.0,
			"0.014": 0.0,
			"0.015": 0.0,
			"0.016": 0.0,
			"0.017": 0.0,
			"0.018": 0.0,
			"0.019": 0.0,
			"0.02": 0.0,
			"0.021": 0.0,
			"0.022": 0.0,
			"0.023": 0.0,
			"0.024": 0.0,
			"0.025": 0.0
		}
	}
}
