{
	 "smiles": "ClC1=CC=C(OC2=NC(=CC=C2)C#N)C=C1", 
	 "Tm": 360.15, 
	 "num_atms": 23, 
	 "gaussian": { 
		 "optdone": 1, 
		 "sigma_profile": "yes", 
		 "theory": "DFT", 
		 "functional": "B3LYP", 
		 "basiset": "6-31G**", 
		 "properties": { 
			 "R2extent": 6113.73, 
			 "electric_dipole_moment_norm": 5.58005811081, 
			 "electric_quadrupole_moment_norm": 15.8413410644, 
			 "total_energy": -1106.38513976, 
			 "HOMO_LUMO_gap": 0.16786, 
			 "cosmo_polarized_energy": -12.44, 
			 "cosmo_cavitation_energy": 31.81, 
			 "cosmo_dispersion_energy": -22.43, 
			 "cosmo_repulsion_energy": 1.77, 
			 "cosmo_total_nonelectrostatic_energy": 11.15, 
			 "SMD_solvation_energy": 6.02 
		},
		"coords": [
			{
				"x": -2.01306076,
				"y": 1.5776283002,
				"z": 5.0178507077,
				"element": "Cl" 
			},
			{
				"x": -0.8877837797,
				"y": 0.8449997916,
				"z": 3.8846313325,
				"element": "C" 
			},
			{
				"x": 0.0671185725,
				"y": 1.6409971672,
				"z": 3.2542102377,
				"element": "C" 
			},
			{
				"x": 0.9561391688,
				"y": 1.0538865846,
				"z": 2.3539649934,
				"element": "C" 
			},
			{
				"x": 0.8812896874,
				"y": -0.3132551074,
				"z": 2.1012003722,
				"element": "C" 
			},
			{
				"x": 1.8648644885,
				"y": -0.85246245,
				"z": 1.2738064241,
				"element": "O" 
			},
			{
				"x": 1.5465841075,
				"y": -1.579499538,
				"z": 0.1691149498,
				"element": "C" 
			},
			{
				"x": 0.2843632957,
				"y": -1.7113998498,
				"z": -0.1998711392,
				"element": "N" 
			},
			{
				"x": 0.0405521395,
				"y": -2.4290212508,
				"z": -1.3143020017,
				"element": "C" 
			},
			{
				"x": 1.0347109029,
				"y": -3.0282040961,
				"z": -2.0881076986,
				"element": "C" 
			},
			{
				"x": 2.3620929389,
				"y": -2.870648955,
				"z": -1.6705268375,
				"element": "C" 
			},
			{
				"x": 2.6356009167,
				"y": -2.1399260517,
				"z": -0.5263033477,
				"element": "C" 
			},
			{
				"x": -1.3442614716,
				"y": -2.5660449711,
				"z": -1.698598295,
				"element": "C" 
			},
			{
				"x": -2.4494245812,
				"y": -2.697509033,
				"z": -2.0328963177,
				"element": "N" 
			},
			{
				"x": -0.0692091338,
				"y": -1.1106860532,
				"z": 2.7379704105,
				"element": "C" 
			},
			{
				"x": -0.9627201463,
				"y": -0.5257198182,
				"z": 3.6329622809,
				"element": "C" 
			},
			{
				"x": 0.114578931,
				"y": 2.704024307,
				"z": 3.4614563261,
				"element": "H" 
			},
			{
				"x": 1.7112101379,
				"y": 1.6473693565,
				"z": 1.8498076512,
				"element": "H" 
			},
			{
				"x": 0.776001972,
				"y": -3.5931382745,
				"z": -2.9756358649,
				"element": "H" 
			},
			{
				"x": 3.1708884262,
				"y": -3.3191094965,
				"z": -2.2388386098,
				"element": "H" 
			},
			{
				"x": 3.6434415533,
				"y": -1.987713891,
				"z": -0.1582711467,
				"element": "H" 
			},
			{
				"x": -0.1171635438,
				"y": -2.1735494178,
				"z": 2.5340763466,
				"element": "H" 
			},
			{
				"x": -1.7109138222,
				"y": -1.129917253,
				"z": 4.1333992261,
				"element": "H" 
			}
		],
		 "valence_orbital": [ 
			{
				"type": "occ",
				"energy": -0.3105,
				"method": "rhf"
			},
			{
				"type": "occ",
				"energy": -0.30129,
				"method": "rhf"
			},
			{
				"type": "occ",
				"energy": -0.27037,
				"method": "rhf"
			},
			{
				"type": "occ",
				"energy": -0.26835,
				"method": "rhf"
			},
			{
				"type": "occ",
				"energy": -0.23992,
				"method": "rhf"
			},
			{
				"type": "unocc",
				"energy": -0.07206,
				"method": "rhf"
			},
			{
				"type": "unocc",
				"energy": -0.038,
				"method": "rhf"
			},
			{
				"type": "unocc",
				"energy": -0.02039,
				"method": "rhf"
			},
			{
				"type": "unocc",
				"energy": -0.01169,
				"method": "rhf"
			},
			{
				"type": "unocc",
				"energy": 0.02655,
				"method": "rhf"
			}
		],
		"cosmo_sigma_profile": { 
			"-0.025": 0.0,
			"-0.024": 0.0,
			"-0.023": 0.0,
			"-0.022": 0.0,
			"-0.021": 0.0,
			"-0.02": 0.0,
			"-0.019": 0.0,
			"-0.018": 0.0,
			"-0.017": 0.0,
			"-0.016": 0.0,
			"-0.015": 0.0,
			"-0.014": 0.0,
			"-0.013": 0.0,
			"-0.012": 0.0,
			"-0.011": 0.0,
			"-0.01": 0.0,
			"-0.009": 2.84640120545,
			"-0.008": 9.37210870311,
			"-0.007": 15.108268131,
			"-0.006": 13.2838399601,
			"-0.005": 12.4976908506,
			"-0.004": 10.4617012945,
			"-0.003": 14.0905572818,
			"-0.002": 19.3533105395,
			"-0.001": 21.5080228832,
			"0.0": 22.5467648966,
			"0.001": 19.2572777291,
			"0.002": 23.723528319,
			"0.003": 20.3969960525,
			"0.004": 15.7462648232,
			"0.005": 12.3730447039,
			"0.006": 5.01018311424,
			"0.007": 5.26735578443,
			"0.008": 4.49738811062,
			"0.009": 4.16977347696,
			"0.01": 3.96998763187,
			"0.011": 2.71620280024,
			"0.012": 2.15234815287,
			"0.013": 0.289631233217,
			"0.014": 0.0,
			"0.015": 0.0,
			"0.016": 0.0,
			"0.017": 0.0,
			"0.018": 0.0,
			"0.019": 0.0,
			"0.02": 0.0,
			"0.021": 0.0,
			"0.022": 0.0,
			"0.023": 0.0,
			"0.024": 0.0,
			"0.025": 0.0
		}
	}
}
