{
	 "smiles": "[O-][N+](=O)C1=CC(F)=C(C=C1)C#N", 
	 "Tm": 343.15, 
	 "num_atms": 15, 
	 "gaussian": { 
		 "optdone": 1, 
		 "sigma_profile": "yes", 
		 "theory": "DFT", 
		 "functional": "B3LYP", 
		 "basiset": "6-31G**", 
		 "properties": { 
			 "R2extent": 2472.4383, 
			 "electric_dipole_moment_norm": 1.16604673577, 
			 "electric_quadrupole_moment_norm": 22.5987286049, 
			 "total_energy": -628.210414967, 
			 "HOMO_LUMO_gap": 0.17308, 
			 "cosmo_polarized_energy": -11.25, 
			 "cosmo_cavitation_energy": 22.58, 
			 "cosmo_dispersion_energy": -15.84, 
			 "cosmo_repulsion_energy": 1.23, 
			 "cosmo_total_nonelectrostatic_energy": 7.97, 
			 "SMD_solvation_energy": 8.12 
		},
		"coords": [
			{
				"x": 1.0255636849,
				"y": 1.219453406,
				"z": 2.4513647734,
				"element": "O" 
			},
			{
				"x": 1.5811416371,
				"y": 0.9424703611,
				"z": 1.3912888785,
				"element": "N" 
			},
			{
				"x": 2.7954059672,
				"y": 0.8608867011,
				"z": 1.2242013906,
				"element": "O" 
			},
			{
				"x": 0.7164387169,
				"y": 0.6862626493,
				"z": 0.2208320893,
				"element": "C" 
			},
			{
				"x": 1.3245253905,
				"y": 0.3702384847,
				"z": -0.9905452253,
				"element": "C" 
			},
			{
				"x": 0.4991388012,
				"y": 0.1328149356,
				"z": -2.0786456284,
				"element": "C" 
			},
			{
				"x": 1.0444252372,
				"y": -0.173637019,
				"z": -3.2594386611,
				"element": "F" 
			},
			{
				"x": -0.8997400472,
				"y": 0.2051995198,
				"z": -1.9761624124,
				"element": "C" 
			},
			{
				"x": -1.4725085295,
				"y": 0.527817905,
				"z": -0.7329088935,
				"element": "C" 
			},
			{
				"x": -0.6665418812,
				"y": 0.7703204442,
				"z": 0.373424267,
				"element": "C" 
			},
			{
				"x": -1.7166162425,
				"y": -0.046817533,
				"z": -3.1228605273,
				"element": "C" 
			},
			{
				"x": -2.3955193009,
				"y": -0.2486501236,
				"z": -4.0445916634,
				"element": "N" 
			},
			{
				"x": 2.4014652982,
				"y": 0.3122277243,
				"z": -1.0788761577,
				"element": "H" 
			},
			{
				"x": -2.5520210532,
				"y": 0.5846877311,
				"z": -0.6496992423,
				"element": "H" 
			},
			{
				"x": -1.0836576787,
				"y": 1.0202248133,
				"z": 1.3402170128,
				"element": "H" 
			}
		],
		 "valence_orbital": [ 
			{
				"type": "occ",
				"energy": -0.33371,
				"method": "rhf"
			},
			{
				"type": "occ",
				"energy": -0.33121,
				"method": "rhf"
			},
			{
				"type": "occ",
				"energy": -0.31571,
				"method": "rhf"
			},
			{
				"type": "occ",
				"energy": -0.30851,
				"method": "rhf"
			},
			{
				"type": "occ",
				"energy": -0.2959,
				"method": "rhf"
			},
			{
				"type": "unocc",
				"energy": -0.12282,
				"method": "rhf"
			},
			{
				"type": "unocc",
				"energy": -0.05665,
				"method": "rhf"
			},
			{
				"type": "unocc",
				"energy": -0.04754,
				"method": "rhf"
			},
			{
				"type": "unocc",
				"energy": 0.00794,
				"method": "rhf"
			},
			{
				"type": "unocc",
				"energy": 0.05274,
				"method": "rhf"
			}
		],
		"cosmo_sigma_profile": { 
			"-0.025": 0.0,
			"-0.024": 0.0,
			"-0.023": 0.0,
			"-0.022": 0.0,
			"-0.021": 0.0,
			"-0.02": 0.0,
			"-0.019": 0.0,
			"-0.018": 0.0,
			"-0.017": 0.0,
			"-0.016": 0.0,
			"-0.015": 0.0,
			"-0.014": 0.0,
			"-0.013": 0.0,
			"-0.012": 0.0,
			"-0.011": 0.112793679008,
			"-0.01": 2.59997516531,
			"-0.009": 5.34228124606,
			"-0.008": 6.74433892513,
			"-0.007": 5.69009132793,
			"-0.006": 7.66512131515,
			"-0.005": 8.67609415234,
			"-0.004": 17.0600372476,
			"-0.003": 20.9897834414,
			"-0.002": 13.3177803255,
			"-0.001": 10.3198617393,
			"0.0": 6.71437019878,
			"0.001": 6.51386860506,
			"0.002": 13.6096294507,
			"0.003": 6.29945815002,
			"0.004": 6.28093930831,
			"0.005": 5.18399854759,
			"0.006": 10.1120495393,
			"0.007": 10.9361172343,
			"0.008": 7.77620351258,
			"0.009": 5.75589934849,
			"0.01": 2.78984951536,
			"0.011": 2.35029326015,
			"0.012": 1.24884127135,
			"0.013": 0.0235695463936,
			"0.014": 0.0,
			"0.015": 0.0,
			"0.016": 0.0,
			"0.017": 0.0,
			"0.018": 0.0,
			"0.019": 0.0,
			"0.02": 0.0,
			"0.021": 0.0,
			"0.022": 0.0,
			"0.023": 0.0,
			"0.024": 0.0,
			"0.025": 0.0
		}
	}
}
