{
	 "smiles": "CC(C)CC1=NC(C)=C(S1)C(O)=O", 
	 "Tm": 443.15, 
	 "num_atms": 26, 
	 "gaussian": { 
		 "optdone": 1, 
		 "sigma_profile": "yes", 
		 "theory": "DFT", 
		 "functional": "B3LYP", 
		 "basiset": "6-31G**", 
		 "properties": { 
			 "R2extent": 4265.0959, 
			 "electric_dipole_moment_norm": 4.73211332176, 
			 "electric_quadrupole_moment_norm": 21.3136600137, 
			 "total_energy": -954.201078084, 
			 "HOMO_LUMO_gap": 0.18627, 
			 "cosmo_polarized_energy": -13.06, 
			 "cosmo_cavitation_energy": 30.42, 
			 "cosmo_dispersion_energy": -21.95, 
			 "cosmo_repulsion_energy": 1.71, 
			 "cosmo_total_nonelectrostatic_energy": 10.18, 
			 "SMD_solvation_energy": 4.81 
		},
		"coords": [
			{
				"x": -0.139530315,
				"y": 0.4845063759,
				"z": -2.1813369891,
				"element": "C" 
			},
			{
				"x": 0.4644896417,
				"y": 1.6724118961,
				"z": -1.4208273441,
				"element": "C" 
			},
			{
				"x": 1.9069043093,
				"y": 1.3881279698,
				"z": -0.980591202,
				"element": "C" 
			},
			{
				"x": -0.4335547551,
				"y": 2.1352108977,
				"z": -0.236906334,
				"element": "C" 
			},
			{
				"x": -0.5679569931,
				"y": 1.1545103051,
				"z": 0.8932692906,
				"element": "C" 
			},
			{
				"x": -1.3072952572,
				"y": 0.0792385562,
				"z": 0.8658922521,
				"element": "N" 
			},
			{
				"x": -1.2418975169,
				"y": -0.646326482,
				"z": 2.0315377859,
				"element": "C" 
			},
			{
				"x": -2.0420220086,
				"y": -1.9097587976,
				"z": 2.1443224698,
				"element": "C" 
			},
			{
				"x": -0.4198394553,
				"y": -0.1068001748,
				"z": 3.0064163683,
				"element": "C" 
			},
			{
				"x": 0.2932379165,
				"y": 1.3751941644,
				"z": 2.4087932524,
				"element": "S" 
			},
			{
				"x": -0.1808502112,
				"y": -0.6800348263,
				"z": 4.3452252339,
				"element": "C" 
			},
			{
				"x": 0.6611962306,
				"y": -0.0123165934,
				"z": 5.1803883973,
				"element": "O" 
			},
			{
				"x": -0.6994511369,
				"y": -1.7086660019,
				"z": 4.7206074677,
				"element": "O" 
			},
			{
				"x": 0.4854798248,
				"y": 0.2250897046,
				"z": -3.0424727227,
				"element": "H" 
			},
			{
				"x": -1.1433749294,
				"y": 0.7179595569,
				"z": -2.5515633823,
				"element": "H" 
			},
			{
				"x": -0.2234468539,
				"y": -0.398189862,
				"z": -1.541074676,
				"element": "H" 
			},
			{
				"x": 0.4882327644,
				"y": 2.531678001,
				"z": -2.105663347,
				"element": "H" 
			},
			{
				"x": 1.9598868224,
				"y": 0.5162206027,
				"z": -0.3195567424,
				"element": "H" 
			},
			{
				"x": 2.5389715947,
				"y": 1.1804247475,
				"z": -1.850009523,
				"element": "H" 
			},
			{
				"x": 2.3438381553,
				"y": 2.2402030112,
				"z": -0.447431164,
				"element": "H" 
			},
			{
				"x": -0.0439722423,
				"y": 3.0812558818,
				"z": 0.154549489,
				"element": "H" 
			},
			{
				"x": -1.4428872297,
				"y": 2.3316881173,
				"z": -0.6159864803,
				"element": "H" 
			},
			{
				"x": -1.3951841598,
				"y": -2.7674801896,
				"z": 2.3481392731,
				"element": "H" 
			},
			{
				"x": -2.5877324645,
				"y": -2.0711100032,
				"z": 1.2134069724,
				"element": "H" 
			},
			{
				"x": -2.7445857348,
				"y": -1.856058851,
				"z": 2.9804990382,
				"element": "H" 
			},
			{
				"x": 1.0137440039,
				"y": 0.7913219935,
				"z": 4.7727726163,
				"element": "H" 
			}
		],
		 "valence_orbital": [ 
			{
				"type": "occ",
				"energy": -0.31753,
				"method": "rhf"
			},
			{
				"type": "occ",
				"energy": -0.29702,
				"method": "rhf"
			},
			{
				"type": "occ",
				"energy": -0.28338,
				"method": "rhf"
			},
			{
				"type": "occ",
				"energy": -0.27588,
				"method": "rhf"
			},
			{
				"type": "occ",
				"energy": -0.2506,
				"method": "rhf"
			},
			{
				"type": "unocc",
				"energy": -0.06433,
				"method": "rhf"
			},
			{
				"type": "unocc",
				"energy": -0.01716,
				"method": "rhf"
			},
			{
				"type": "unocc",
				"energy": 0.00992,
				"method": "rhf"
			},
			{
				"type": "unocc",
				"energy": 0.06034,
				"method": "rhf"
			},
			{
				"type": "unocc",
				"energy": 0.07872,
				"method": "rhf"
			}
		],
		"cosmo_sigma_profile": { 
			"-0.025": 0.0,
			"-0.024": 0.0,
			"-0.023": 0.0,
			"-0.022": 0.0,
			"-0.021": 0.0,
			"-0.02": 0.0,
			"-0.019": 0.0,
			"-0.018": 0.388625720217,
			"-0.017": 0.966405952734,
			"-0.016": 0.58208080594,
			"-0.015": 0.736640493912,
			"-0.014": 1.12812649572,
			"-0.013": 0.936076161388,
			"-0.012": 1.28759979308,
			"-0.011": 1.08484194042,
			"-0.01": 0.885858170752,
			"-0.009": 0.752101457084,
			"-0.008": 1.43692181386,
			"-0.007": 1.53354723083,
			"-0.006": 3.81803523706,
			"-0.005": 8.0514379595,
			"-0.004": 12.9167096406,
			"-0.003": 26.7803344976,
			"-0.002": 29.1374743887,
			"-0.001": 32.2935001567,
			"0.0": 30.9679470796,
			"0.001": 25.0390430078,
			"0.002": 13.0220188993,
			"0.003": 5.90419877711,
			"0.004": 3.7668543653,
			"0.005": 4.23704146319,
			"0.006": 3.74005096941,
			"0.007": 3.52173574384,
			"0.008": 3.85056455259,
			"0.009": 4.63909962079,
			"0.01": 5.29263489585,
			"0.011": 5.04276771275,
			"0.012": 4.86549487433,
			"0.013": 2.0049337595,
			"0.014": 0.327924549517,
			"0.015": 0.0,
			"0.016": 0.0,
			"0.017": 0.0,
			"0.018": 0.0,
			"0.019": 0.0,
			"0.02": 0.0,
			"0.021": 0.0,
			"0.022": 0.0,
			"0.023": 0.0,
			"0.024": 0.0,
			"0.025": 0.0
		}
	}
}
