{
	 "smiles": "OC(=O)C1CC=CCC1C(=O)N1CCCC1", 
	 "Tm": 390.15, 
	 "num_atms": 33, 
	 "gaussian": { 
		 "optdone": 1, 
		 "sigma_profile": "yes", 
		 "theory": "DFT", 
		 "functional": "B3LYP", 
		 "basiset": "6-31G**", 
		 "properties": { 
			 "R2extent": 4158.4696, 
			 "electric_dipole_moment_norm": 4.89870745095, 
			 "electric_quadrupole_moment_norm": 6.11281392895, 
			 "total_energy": -747.962307287, 
			 "HOMO_LUMO_gap": 0.24461, 
			 "cosmo_polarized_energy": -15.81, 
			 "cosmo_cavitation_energy": 33.45, 
			 "cosmo_dispersion_energy": -24.19, 
			 "cosmo_repulsion_energy": 1.91, 
			 "cosmo_total_nonelectrostatic_energy": 11.17, 
			 "SMD_solvation_energy": 5.77 
		},
		"coords": [
			{
				"x": 0.0263887591,
				"y": -2.0440696647,
				"z": -2.2448047499,
				"element": "O" 
			},
			{
				"x": 1.0208096387,
				"y": -2.3361134463,
				"z": -1.3616787173,
				"element": "C" 
			},
			{
				"x": 1.4659433628,
				"y": -3.4582504592,
				"z": -1.2646608428,
				"element": "O" 
			},
			{
				"x": 1.5088422984,
				"y": -1.1042881332,
				"z": -0.605670625,
				"element": "C" 
			},
			{
				"x": 2.427992915,
				"y": -1.5066293948,
				"z": 0.5612037584,
				"element": "C" 
			},
			{
				"x": 1.6676728042,
				"y": -1.8316875017,
				"z": 1.8176133083,
				"element": "C" 
			},
			{
				"x": 0.3764208936,
				"y": -1.5478099739,
				"z": 2.002161112,
				"element": "C" 
			},
			{
				"x": -0.4855239739,
				"y": -0.86814365,
				"z": 0.9684338069,
				"element": "C" 
			},
			{
				"x": 0.3304191102,
				"y": -0.1979900187,
				"z": -0.1667251883,
				"element": "C" 
			},
			{
				"x": 0.8472325894,
				"y": 1.2005379756,
				"z": 0.2088276017,
				"element": "C" 
			},
			{
				"x": 2.0441420722,
				"y": 1.4513632463,
				"z": 0.3532524568,
				"element": "O" 
			},
			{
				"x": -0.0826792482,
				"y": 2.1927845208,
				"z": 0.3619021498,
				"element": "N" 
			},
			{
				"x": -1.5158188523,
				"y": 2.1660899643,
				"z": 0.0355289,
				"element": "C" 
			},
			{
				"x": -1.8547109109,
				"y": 3.6466615837,
				"z": -0.1960520797,
				"element": "C" 
			},
			{
				"x": -0.9117507248,
				"y": 4.3711637928,
				"z": 0.7782670075,
				"element": "C" 
			},
			{
				"x": 0.3832865387,
				"y": 3.5519446716,
				"z": 0.6922116224,
				"element": "C" 
			},
			{
				"x": -0.1720911157,
				"y": -2.8802461023,
				"z": -2.698729422,
				"element": "H" 
			},
			{
				"x": 2.1015689375,
				"y": -0.5370232836,
				"z": -1.3351823341,
				"element": "H" 
			},
			{
				"x": 3.1171214599,
				"y": -0.6795446872,
				"z": 0.757575148,
				"element": "H" 
			},
			{
				"x": 3.0249606089,
				"y": -2.3729778627,
				"z": 0.2586614517,
				"element": "H" 
			},
			{
				"x": 2.2268539584,
				"y": -2.3182123083,
				"z": 2.6147352949,
				"element": "H" 
			},
			{
				"x": -0.1106331531,
				"y": -1.8219318433,
				"z": 2.9361779226,
				"element": "H" 
			},
			{
				"x": -1.1750857333,
				"y": -1.6003442008,
				"z": 0.5223708484,
				"element": "H" 
			},
			{
				"x": -1.1283851338,
				"y": -0.128946896,
				"z": 1.4592752635,
				"element": "H" 
			},
			{
				"x": -0.3344386668,
				"y": -0.0738395531,
				"z": -1.0270618007,
				"element": "H" 
			},
			{
				"x": -2.1074737793,
				"y": 1.7624272676,
				"z": 0.8692318531,
				"element": "H" 
			},
			{
				"x": -1.7171453177,
				"y": 1.546202551,
				"z": -0.8428749012,
				"element": "H" 
			},
			{
				"x": -1.6172397972,
				"y": 3.9251684151,
				"z": -1.2291199784,
				"element": "H" 
			},
			{
				"x": -2.9125591817,
				"y": 3.8629203402,
				"z": -0.0236439752,
				"element": "H" 
			},
			{
				"x": -1.3196389962,
				"y": 4.3305066547,
				"z": 1.7949003519,
				"element": "H" 
			},
			{
				"x": -0.7556501602,
				"y": 5.4229301111,
				"z": 0.5247289025,
				"element": "H" 
			},
			{
				"x": 0.9591599479,
				"y": 3.54224415,
				"z": 1.6215767854,
				"element": "H" 
			},
			{
				"x": 1.0533088501,
				"y": 3.9161037349,
				"z": -0.0965309313,
				"element": "H" 
			}
		],
		 "valence_orbital": [ 
			{
				"type": "occ",
				"energy": -0.30549,
				"method": "rhf"
			},
			{
				"type": "occ",
				"energy": -0.27029,
				"method": "rhf"
			},
			{
				"type": "occ",
				"energy": -0.24135,
				"method": "rhf"
			},
			{
				"type": "occ",
				"energy": -0.23506,
				"method": "rhf"
			},
			{
				"type": "occ",
				"energy": -0.23296,
				"method": "rhf"
			},
			{
				"type": "unocc",
				"energy": 0.01165,
				"method": "rhf"
			},
			{
				"type": "unocc",
				"energy": 0.02662,
				"method": "rhf"
			},
			{
				"type": "unocc",
				"energy": 0.03512,
				"method": "rhf"
			},
			{
				"type": "unocc",
				"energy": 0.06766,
				"method": "rhf"
			},
			{
				"type": "unocc",
				"energy": 0.07948,
				"method": "rhf"
			}
		],
		"cosmo_sigma_profile": { 
			"-0.025": 0.0,
			"-0.024": 0.0,
			"-0.023": 0.0,
			"-0.022": 0.0,
			"-0.021": 0.0,
			"-0.02": 0.0,
			"-0.019": 0.0,
			"-0.018": 0.429959311974,
			"-0.017": 1.0042452216,
			"-0.016": 1.04730282872,
			"-0.015": 0.648618397784,
			"-0.014": 0.67297448223,
			"-0.013": 0.403743257423,
			"-0.012": 1.12491711581,
			"-0.011": 0.600928036466,
			"-0.01": 0.669322814499,
			"-0.009": 0.405583496676,
			"-0.008": 0.484416264101,
			"-0.007": 2.22071353052,
			"-0.006": 6.11118342549,
			"-0.005": 10.3508483016,
			"-0.004": 24.9982844224,
			"-0.003": 37.9313303098,
			"-0.002": 37.9135917032,
			"-0.001": 29.6697231185,
			"0.0": 21.7050374307,
			"0.001": 10.2379984432,
			"0.002": 8.26698338482,
			"0.003": 6.27569621796,
			"0.004": 7.10668743058,
			"0.005": 6.99176632469,
			"0.006": 6.32621951537,
			"0.007": 7.75215783891,
			"0.008": 4.86811459462,
			"0.009": 3.73589366097,
			"0.01": 3.35466913214,
			"0.011": 5.69509078309,
			"0.012": 5.47053827094,
			"0.013": 2.08975531543,
			"0.014": 3.42441357535,
			"0.015": 0.904424482573,
			"0.016": 0.0,
			"0.017": 0.0,
			"0.018": 0.0,
			"0.019": 0.0,
			"0.02": 0.0,
			"0.021": 0.0,
			"0.022": 0.0,
			"0.023": 0.0,
			"0.024": 0.0,
			"0.025": 0.0
		}
	}
}
