{
	 "smiles": "OC(=O)CSC1=NN=C(O1)C1=CC=C(F)C=C1", 
	 "Tm": 414.15, 
	 "num_atms": 24, 
	 "gaussian": { 
		 "optdone": 1, 
		 "sigma_profile": "yes", 
		 "theory": "DFT", 
		 "functional": "B3LYP", 
		 "basiset": "6-31G**", 
		 "properties": { 
			 "R2extent": 6553.0964, 
			 "electric_dipole_moment_norm": 5.30210212934, 
			 "electric_quadrupole_moment_norm": 17.1743018178, 
			 "total_energy": -1218.45182336, 
			 "HOMO_LUMO_gap": 0.17709, 
			 "cosmo_polarized_energy": -19.42, 
			 "cosmo_cavitation_energy": 32.81, 
			 "cosmo_dispersion_energy": -23.46, 
			 "cosmo_repulsion_energy": 1.76, 
			 "cosmo_total_nonelectrostatic_energy": 11.1, 
			 "SMD_solvation_energy": 5.14 
		},
		"coords": [
			{
				"x": -1.0437086646,
				"y": -1.6149619671,
				"z": -2.5518071982,
				"element": "O" 
			},
			{
				"x": -1.6752068395,
				"y": -1.0151212484,
				"z": -1.5167992375,
				"element": "C" 
			},
			{
				"x": -1.9712208053,
				"y": -1.5818644851,
				"z": -0.4939946428,
				"element": "O" 
			},
			{
				"x": -1.9062738678,
				"y": 0.4543862374,
				"z": -1.8390431786,
				"element": "C" 
			},
			{
				"x": -3.0992881484,
				"y": 1.2986705491,
				"z": -0.7500758068,
				"element": "S" 
			},
			{
				"x": -2.2333473177,
				"y": 1.2643424657,
				"z": 0.7728625186,
				"element": "C" 
			},
			{
				"x": -2.7562218749,
				"y": 1.3990396692,
				"z": 1.9505361926,
				"element": "N" 
			},
			{
				"x": -1.6861338249,
				"y": 1.4114839633,
				"z": 2.8446776975,
				"element": "N" 
			},
			{
				"x": -0.6024671697,
				"y": 1.2692821348,
				"z": 2.1429418546,
				"element": "C" 
			},
			{
				"x": -0.8718884607,
				"y": 1.1812655338,
				"z": 0.7971401313,
				"element": "O" 
			},
			{
				"x": 0.776721707,
				"y": 1.1911248165,
				"z": 2.6042813548,
				"element": "C" 
			},
			{
				"x": 1.0387867098,
				"y": 1.2659756704,
				"z": 3.9836775353,
				"element": "C" 
			},
			{
				"x": 2.3444045792,
				"y": 1.1979404392,
				"z": 4.4550856999,
				"element": "C" 
			},
			{
				"x": 3.3827124708,
				"y": 1.0539321494,
				"z": 3.5379851667,
				"element": "C" 
			},
			{
				"x": 4.648489335,
				"y": 0.987150396,
				"z": 3.991744779,
				"element": "F" 
			},
			{
				"x": 3.1536797405,
				"y": 0.9766712512,
				"z": 2.1683626542,
				"element": "C" 
			},
			{
				"x": 1.8430506368,
				"y": 1.0463616717,
				"z": 1.7033112998,
				"element": "C" 
			},
			{
				"x": -0.8937707382,
				"y": -2.5383651973,
				"z": -2.2861144382,
				"element": "H" 
			},
			{
				"x": -2.3098430029,
				"y": 0.5500688956,
				"z": -2.850368676,
				"element": "H" 
			},
			{
				"x": -0.9432937342,
				"y": 0.9724215518,
				"z": -1.8269797747,
				"element": "H" 
			},
			{
				"x": 0.2081190759,
				"y": 1.3768549476,
				"z": 4.6719557086,
				"element": "H" 
			},
			{
				"x": 2.5691835945,
				"y": 1.2532857509,
				"z": 5.5144402149,
				"element": "H" 
			},
			{
				"x": 3.9922929956,
				"y": 0.8647527331,
				"z": 1.4901777514,
				"element": "H" 
			},
			{
				"x": 1.645823604,
				"y": 0.9881020712,
				"z": 0.6386023934,
				"element": "H" 
			}
		],
		 "valence_orbital": [ 
			{
				"type": "occ",
				"energy": -0.30141,
				"method": "rhf"
			},
			{
				"type": "occ",
				"energy": -0.27955,
				"method": "rhf"
			},
			{
				"type": "occ",
				"energy": -0.27606,
				"method": "rhf"
			},
			{
				"type": "occ",
				"energy": -0.27144,
				"method": "rhf"
			},
			{
				"type": "occ",
				"energy": -0.22932,
				"method": "rhf"
			},
			{
				"type": "unocc",
				"energy": -0.05223,
				"method": "rhf"
			},
			{
				"type": "unocc",
				"energy": -0.02498,
				"method": "rhf"
			},
			{
				"type": "unocc",
				"energy": -0.01695,
				"method": "rhf"
			},
			{
				"type": "unocc",
				"energy": -0.00127,
				"method": "rhf"
			},
			{
				"type": "unocc",
				"energy": 0.01966,
				"method": "rhf"
			}
		],
		"cosmo_sigma_profile": { 
			"-0.025": 0.0,
			"-0.024": 0.0,
			"-0.023": 0.0,
			"-0.022": 0.0,
			"-0.021": 0.0,
			"-0.02": 0.0,
			"-0.019": 0.649615379322,
			"-0.018": 0.875291183485,
			"-0.017": 1.19812889281,
			"-0.016": 0.433860808155,
			"-0.015": 1.02893868,
			"-0.014": 0.661476067426,
			"-0.013": 0.505927506543,
			"-0.012": 0.321870233432,
			"-0.011": 2.09660096273,
			"-0.01": 3.59874909253,
			"-0.009": 4.57344569739,
			"-0.008": 8.12148545702,
			"-0.007": 10.7247392335,
			"-0.006": 12.115124533,
			"-0.005": 12.4638953136,
			"-0.004": 9.93484908695,
			"-0.003": 15.4566784648,
			"-0.002": 16.1216827395,
			"-0.001": 18.2577901923,
			"0.0": 22.5844427727,
			"0.001": 23.5547378299,
			"0.002": 20.7943165259,
			"0.003": 14.7410515926,
			"0.004": 16.074523897,
			"0.005": 7.4465210622,
			"0.006": 5.23116918396,
			"0.007": 6.49213027795,
			"0.008": 5.64815018213,
			"0.009": 4.86472331784,
			"0.01": 6.01022433332,
			"0.011": 6.77001478165,
			"0.012": 2.6624322271,
			"0.013": 2.70846987169,
			"0.014": 1.38439822811,
			"0.015": 0.186664199448,
			"0.016": 0.0,
			"0.017": 0.0,
			"0.018": 0.0,
			"0.019": 0.0,
			"0.02": 0.0,
			"0.021": 0.0,
			"0.022": 0.0,
			"0.023": 0.0,
			"0.024": 0.0,
			"0.025": 0.0
		}
	}
}
