{
	 "smiles": "CCN1C(S)=NC2=C(C=CC(=C2)C(O)=O)C1=O", 
	 "Tm": 290.15, 
	 "num_atms": 27, 
	 "gaussian": { 
		 "optdone": 1, 
		 "sigma_profile": "yes", 
		 "theory": "DFT", 
		 "functional": "B3LYP", 
		 "basiset": "6-31G**", 
		 "properties": { 
			 "R2extent": 5480.4603, 
			 "electric_dipole_moment_norm": 4.21531051763, 
			 "electric_quadrupole_moment_norm": 21.9301807343, 
			 "total_energy": -1158.59628675, 
			 "HOMO_LUMO_gap": 0.1638, 
			 "cosmo_polarized_energy": -18.59, 
			 "cosmo_cavitation_energy": 33.0, 
			 "cosmo_dispersion_energy": -24.64, 
			 "cosmo_repulsion_energy": 1.83, 
			 "cosmo_total_nonelectrostatic_energy": 10.2, 
			 "SMD_solvation_energy": 5.49 
		},
		"coords": [
			{
				"x": -3.335935783,
				"y": -1.1985221815,
				"z": -3.0230586958,
				"element": "C" 
			},
			{
				"x": -2.2524901532,
				"y": -2.1352727657,
				"z": -2.4877023328,
				"element": "C" 
			},
			{
				"x": -1.3799744866,
				"y": -1.4845232093,
				"z": -1.4873859286,
				"element": "N" 
			},
			{
				"x": -1.6335189484,
				"y": -1.5188850277,
				"z": -0.1298571828,
				"element": "C" 
			},
			{
				"x": -3.0869463002,
				"y": -2.4231938122,
				"z": 0.3904971683,
				"element": "S" 
			},
			{
				"x": -0.9115194529,
				"y": -0.9551531798,
				"z": 0.7846054793,
				"element": "N" 
			},
			{
				"x": 0.2107116678,
				"y": -0.2560343801,
				"z": 0.3824057597,
				"element": "C" 
			},
			{
				"x": 0.571355524,
				"y": -0.139566592,
				"z": -0.9776385858,
				"element": "C" 
			},
			{
				"x": 1.7201270453,
				"y": 0.5733667048,
				"z": -1.352715249,
				"element": "C" 
			},
			{
				"x": 2.5017760621,
				"y": 1.1808541042,
				"z": -0.3845428915,
				"element": "C" 
			},
			{
				"x": 2.1442605628,
				"y": 1.0822503235,
				"z": 0.9794955612,
				"element": "C" 
			},
			{
				"x": 1.0192654785,
				"y": 0.3584359966,
				"z": 1.3567161838,
				"element": "C" 
			},
			{
				"x": 2.9588085598,
				"y": 1.714577132,
				"z": 2.074255425,
				"element": "C" 
			},
			{
				"x": 3.7451572046,
				"y": 2.7638746414,
				"z": 1.7161814237,
				"element": "O" 
			},
			{
				"x": 2.9370572917,
				"y": 1.3358344686,
				"z": 3.2204676576,
				"element": "O" 
			},
			{
				"x": -0.2647479408,
				"y": -0.7740466765,
				"z": -1.9997121144,
				"element": "C" 
			},
			{
				"x": -0.060458557,
				"y": -0.7250194358,
				"z": -3.2056439697,
				"element": "O" 
			},
			{
				"x": -3.9947891474,
				"y": -0.8469538197,
				"z": -2.2241020051,
				"element": "H" 
			},
			{
				"x": -3.9467672459,
				"y": -1.7281614638,
				"z": -3.7607325157,
				"element": "H" 
			},
			{
				"x": -2.8796407982,
				"y": -0.3357136745,
				"z": -3.5141353127,
				"element": "H" 
			},
			{
				"x": -1.5940539145,
				"y": -2.4505739463,
				"z": -3.2977640552,
				"element": "H" 
			},
			{
				"x": -2.681451086,
				"y": -3.0305263085,
				"z": -2.0315964303,
				"element": "H" 
			},
			{
				"x": -2.8463365288,
				"y": -2.1598171451,
				"z": 1.6876293495,
				"element": "H" 
			},
			{
				"x": 1.9750735389,
				"y": 0.6247002107,
				"z": -2.4057655566,
				"element": "H" 
			},
			{
				"x": 3.412335838,
				"y": 1.6930566094,
				"z": -0.6838054572,
				"element": "H" 
			},
			{
				"x": 0.7587057365,
				"y": 0.2661138454,
				"z": 2.404575715,
				"element": "H" 
			},
			{
				"x": 3.5376958329,
				"y": 3.0464995817,
				"z": 0.8146285603,
				"element": "H" 
			}
		],
		 "valence_orbital": [ 
			{
				"type": "occ",
				"energy": -0.28772,
				"method": "rhf"
			},
			{
				"type": "occ",
				"energy": -0.28439,
				"method": "rhf"
			},
			{
				"type": "occ",
				"energy": -0.28041,
				"method": "rhf"
			},
			{
				"type": "occ",
				"energy": -0.27208,
				"method": "rhf"
			},
			{
				"type": "occ",
				"energy": -0.23915,
				"method": "rhf"
			},
			{
				"type": "unocc",
				"energy": -0.07535,
				"method": "rhf"
			},
			{
				"type": "unocc",
				"energy": -0.0519,
				"method": "rhf"
			},
			{
				"type": "unocc",
				"energy": -0.00675,
				"method": "rhf"
			},
			{
				"type": "unocc",
				"energy": 0.00742,
				"method": "rhf"
			},
			{
				"type": "unocc",
				"energy": 0.01049,
				"method": "rhf"
			}
		],
		"cosmo_sigma_profile": { 
			"-0.025": 0.0,
			"-0.024": 0.0,
			"-0.023": 0.0,
			"-0.022": 0.0,
			"-0.021": 0.0,
			"-0.02": 0.0,
			"-0.019": 0.570268506249,
			"-0.018": 0.824054798598,
			"-0.017": 1.12593639703,
			"-0.016": 1.0414362674,
			"-0.015": 0.588739675426,
			"-0.014": 1.10619991618,
			"-0.013": 1.10406977631,
			"-0.012": 2.38455577093,
			"-0.011": 2.11813618512,
			"-0.01": 2.43289228383,
			"-0.009": 2.74434910711,
			"-0.008": 3.17028210227,
			"-0.007": 4.63878299138,
			"-0.006": 9.3451753118,
			"-0.005": 14.3440731753,
			"-0.004": 21.2218820485,
			"-0.003": 22.2547505762,
			"-0.002": 19.151792248,
			"-0.001": 21.3975056628,
			"0.0": 24.1442857926,
			"0.001": 23.4992654918,
			"0.002": 15.6316881658,
			"0.003": 8.82422336236,
			"0.004": 7.10889681374,
			"0.005": 7.73142872145,
			"0.006": 7.0606553108,
			"0.007": 4.57935899364,
			"0.008": 5.28017467154,
			"0.009": 6.18852252389,
			"0.01": 7.75663756025,
			"0.011": 8.32395513822,
			"0.012": 7.54969537015,
			"0.013": 1.18271559837,
			"0.014": 0.0,
			"0.015": 0.0,
			"0.016": 0.0,
			"0.017": 0.0,
			"0.018": 0.0,
			"0.019": 0.0,
			"0.02": 0.0,
			"0.021": 0.0,
			"0.022": 0.0,
			"0.023": 0.0,
			"0.024": 0.0,
			"0.025": 0.0
		}
	}
}
