{
	 "smiles": "CC(C)(C)OC(=O)N1CCCC(O)C1", 
	 "Tm": 341.15, 
	 "num_atms": 33, 
	 "gaussian": { 
		 "optdone": 1, 
		 "sigma_profile": "yes", 
		 "theory": "DFT", 
		 "functional": "B3LYP", 
		 "basiset": "6-31G**", 
		 "properties": { 
			 "R2extent": 4251.5181, 
			 "electric_dipole_moment_norm": 1.8383138089, 
			 "electric_quadrupole_moment_norm": 6.13275633708, 
			 "total_energy": -672.977005586, 
			 "HOMO_LUMO_gap": 0.28679, 
			 "cosmo_polarized_energy": -10.9, 
			 "cosmo_cavitation_energy": 33.19, 
			 "cosmo_dispersion_energy": -23.47, 
			 "cosmo_repulsion_energy": 1.88, 
			 "cosmo_total_nonelectrostatic_energy": 11.59, 
			 "SMD_solvation_energy": 5.83 
		},
		"coords": [
			{
				"x": 0.4763834382,
				"y": 2.5313012524,
				"z": -4.1687453002,
				"element": "C" 
			},
			{
				"x": 0.0264684421,
				"y": 2.9660392495,
				"z": -2.7709916792,
				"element": "C" 
			},
			{
				"x": 0.8146182615,
				"y": 4.1958229148,
				"z": -2.3069542571,
				"element": "C" 
			},
			{
				"x": -1.4879203965,
				"y": 3.1993019802,
				"z": -2.7378821037,
				"element": "C" 
			},
			{
				"x": 0.3776563279,
				"y": 1.7993659793,
				"z": -1.9474560141,
				"element": "O" 
			},
			{
				"x": 0.1321357962,
				"y": 1.7911007816,
				"z": -0.6133191007,
				"element": "C" 
			},
			{
				"x": -0.3808978523,
				"y": 2.708625886,
				"z": 0.014756711,
				"element": "O" 
			},
			{
				"x": 0.5361913231,
				"y": 0.6114002468,
				"z": -0.0409751157,
				"element": "N" 
			},
			{
				"x": 1.1195644345,
				"y": -0.5226566913,
				"z": -0.7579955768,
				"element": "C" 
			},
			{
				"x": 0.2869515889,
				"y": -1.7919542411,
				"z": -0.5238817939,
				"element": "C" 
			},
			{
				"x": 0.0725076575,
				"y": -2.052469364,
				"z": 0.9747153238,
				"element": "C" 
			},
			{
				"x": -0.5199337678,
				"y": -0.8248761965,
				"z": 1.665040633,
				"element": "C" 
			},
			{
				"x": -0.5816750362,
				"y": -1.1044963334,
				"z": 3.058102324,
				"element": "O" 
			},
			{
				"x": 0.3505252486,
				"y": 0.4137519562,
				"z": 1.3919805457,
				"element": "C" 
			},
			{
				"x": -0.0557004338,
				"y": 1.6284954309,
				"z": -4.4831153882,
				"element": "H" 
			},
			{
				"x": 0.2701524447,
				"y": 3.3242983931,
				"z": -4.8937127711,
				"element": "H" 
			},
			{
				"x": 1.5500329579,
				"y": 2.3216262348,
				"z": -4.1813466327,
				"element": "H" 
			},
			{
				"x": 0.6364055162,
				"y": 5.0278244074,
				"z": -2.9961441966,
				"element": "H" 
			},
			{
				"x": 0.5129854988,
				"y": 4.4959796055,
				"z": -1.3035399879,
				"element": "H" 
			},
			{
				"x": 1.8878645645,
				"y": 3.979980266,
				"z": -2.3060829172,
				"element": "H" 
			},
			{
				"x": -2.0184071411,
				"y": 2.2893166107,
				"z": -3.0364536343,
				"element": "H" 
			},
			{
				"x": -1.7529636875,
				"y": 3.9931813199,
				"z": -3.4438885589,
				"element": "H" 
			},
			{
				"x": -1.8155279213,
				"y": 3.4892403179,
				"z": -1.739588109,
				"element": "H" 
			},
			{
				"x": 1.1790878807,
				"y": -0.2768960449,
				"z": -1.8158968091,
				"element": "H" 
			},
			{
				"x": 2.144876305,
				"y": -0.6827646817,
				"z": -0.3897755023,
				"element": "H" 
			},
			{
				"x": 0.7890394801,
				"y": -2.6472416373,
				"z": -0.9907230803,
				"element": "H" 
			},
			{
				"x": -0.6825267161,
				"y": -1.6749363883,
				"z": -1.0247341398,
				"element": "H" 
			},
			{
				"x": 1.0316236015,
				"y": -2.2811911194,
				"z": 1.4590825929,
				"element": "H" 
			},
			{
				"x": -0.58059339,
				"y": -2.9163398414,
				"z": 1.1368518828,
				"element": "H" 
			},
			{
				"x": -1.5268431042,
				"y": -0.6351207314,
				"z": 1.2565115067,
				"element": "H" 
			},
			{
				"x": -1.02402583,
				"y": -0.3635420026,
				"z": 3.4927548587,
				"element": "H" 
			},
			{
				"x": -0.102631087,
				"y": 1.3188916192,
				"z": 1.7992480447,
				"element": "H" 
			},
			{
				"x": 1.325275596,
				"y": 0.2616408209,
				"z": 1.8790582458,
				"element": "H" 
			}
		],
		 "valence_orbital": [ 
			{
				"type": "occ",
				"energy": -0.31586,
				"method": "rhf"
			},
			{
				"type": "occ",
				"energy": -0.28497,
				"method": "rhf"
			},
			{
				"type": "occ",
				"energy": -0.2749,
				"method": "rhf"
			},
			{
				"type": "occ",
				"energy": -0.257,
				"method": "rhf"
			},
			{
				"type": "occ",
				"energy": -0.23076,
				"method": "rhf"
			},
			{
				"type": "unocc",
				"energy": 0.05603,
				"method": "rhf"
			},
			{
				"type": "unocc",
				"energy": 0.07494,
				"method": "rhf"
			},
			{
				"type": "unocc",
				"energy": 0.08272,
				"method": "rhf"
			},
			{
				"type": "unocc",
				"energy": 0.09996,
				"method": "rhf"
			},
			{
				"type": "unocc",
				"energy": 0.10631,
				"method": "rhf"
			}
		],
		"cosmo_sigma_profile": { 
			"-0.025": 0.0,
			"-0.024": 0.0,
			"-0.023": 0.0,
			"-0.022": 0.0,
			"-0.021": 0.0,
			"-0.02": 0.0,
			"-0.019": 0.0,
			"-0.018": 0.0,
			"-0.017": 0.0,
			"-0.016": 0.242423721208,
			"-0.015": 1.00777891459,
			"-0.014": 1.1814982854,
			"-0.013": 1.28623126819,
			"-0.012": 0.645374589121,
			"-0.011": 0.726276148134,
			"-0.01": 1.14627035801,
			"-0.009": 1.00023277299,
			"-0.008": 1.00442676524,
			"-0.007": 0.944363342331,
			"-0.006": 1.51161462343,
			"-0.005": 1.54746373656,
			"-0.004": 20.1836130001,
			"-0.003": 37.226081512,
			"-0.002": 34.2971419311,
			"-0.001": 32.4623425725,
			"0.0": 35.2676015703,
			"0.001": 26.8946047718,
			"0.002": 9.62164814859,
			"0.003": 7.06097241763,
			"0.004": 6.31015174303,
			"0.005": 5.29376824002,
			"0.006": 4.46253660387,
			"0.007": 3.35187639171,
			"0.008": 2.55810612312,
			"0.009": 2.75080524077,
			"0.01": 2.18316327928,
			"0.011": 2.7765321359,
			"0.012": 3.34529583757,
			"0.013": 4.09462377418,
			"0.014": 3.79235523866,
			"0.015": 0.143713007659,
			"0.016": 0.0,
			"0.017": 0.0,
			"0.018": 0.0,
			"0.019": 0.0,
			"0.02": 0.0,
			"0.021": 0.0,
			"0.022": 0.0,
			"0.023": 0.0,
			"0.024": 0.0,
			"0.025": 0.0
		}
	}
}
