{
	 "smiles": "N#CC1=CC2=C(OCC2)C=C1", 
	 "Tm": 338.15, 
	 "num_atms": 18, 
	 "gaussian": { 
		 "optdone": 1, 
		 "sigma_profile": "yes", 
		 "theory": "DFT", 
		 "functional": "B3LYP", 
		 "basiset": "6-31G**", 
		 "properties": { 
			 "R2extent": 2286.3857, 
			 "electric_dipole_moment_norm": 5.4798411227, 
			 "electric_quadrupole_moment_norm": 24.2710843231, 
			 "total_energy": -477.129640675, 
			 "HOMO_LUMO_gap": 0.19438, 
			 "cosmo_polarized_energy": -10.85, 
			 "cosmo_cavitation_energy": 22.79, 
			 "cosmo_dispersion_energy": -16.73, 
			 "cosmo_repulsion_energy": 1.35, 
			 "cosmo_total_nonelectrostatic_energy": 7.41, 
			 "SMD_solvation_energy": 5.37 
		},
		"coords": [
			{
				"x": -2.8743472497,
				"y": -4.5039142605,
				"z": -0.4547765818,
				"element": "N" 
			},
			{
				"x": -2.4406313125,
				"y": -3.4507279202,
				"z": -0.2140539992,
				"element": "C" 
			},
			{
				"x": -1.9038091188,
				"y": -2.156561834,
				"z": 0.0796454695,
				"element": "C" 
			},
			{
				"x": -0.6076558904,
				"y": -1.815904225,
				"z": -0.3662192871,
				"element": "C" 
			},
			{
				"x": -0.1065930555,
				"y": -0.5626083731,
				"z": -0.0641146957,
				"element": "C" 
			},
			{
				"x": -0.8836943568,
				"y": 0.3446748316,
				"z": 0.6679341303,
				"element": "C" 
			},
			{
				"x": -0.2661310033,
				"y": 1.5327115616,
				"z": 0.8849927991,
				"element": "O" 
			},
			{
				"x": 1.1116125305,
				"y": 1.4095658214,
				"z": 0.4335455218,
				"element": "C" 
			},
			{
				"x": 1.1934076469,
				"y": 0.1217155664,
				"z": -0.4234157161,
				"element": "C" 
			},
			{
				"x": -2.1672307986,
				"y": 0.0361795035,
				"z": 1.1134609277,
				"element": "C" 
			},
			{
				"x": -2.6692752468,
				"y": -1.2279496234,
				"z": 0.8100143863,
				"element": "C" 
			},
			{
				"x": -0.027647941,
				"y": -2.5356572569,
				"z": -0.9350640659,
				"element": "H" 
			},
			{
				"x": 1.3591664218,
				"y": 2.3206247541,
				"z": -0.1146199117,
				"element": "H" 
			},
			{
				"x": 1.746936941,
				"y": 1.3474478374,
				"z": 1.3238955945,
				"element": "H" 
			},
			{
				"x": 2.0784176116,
				"y": -0.4731235413,
				"z": -0.1789290104,
				"element": "H" 
			},
			{
				"x": 1.2366258821,
				"y": 0.3500301637,
				"z": -1.4950715552,
				"element": "H" 
			},
			{
				"x": -2.7469015692,
				"y": 0.7569083827,
				"z": 1.6788113203,
				"element": "H" 
			},
			{
				"x": -3.6628494913,
				"y": -1.508811388,
				"z": 1.1428646736,
				"element": "H" 
			}
		],
		 "valence_orbital": [ 
			{
				"type": "occ",
				"energy": -0.34939,
				"method": "rhf"
			},
			{
				"type": "occ",
				"energy": -0.3217,
				"method": "rhf"
			},
			{
				"type": "occ",
				"energy": -0.31209,
				"method": "rhf"
			},
			{
				"type": "occ",
				"energy": -0.27116,
				"method": "rhf"
			},
			{
				"type": "occ",
				"energy": -0.2302,
				"method": "rhf"
			},
			{
				"type": "unocc",
				"energy": -0.03582,
				"method": "rhf"
			},
			{
				"type": "unocc",
				"energy": -0.02522,
				"method": "rhf"
			},
			{
				"type": "unocc",
				"energy": 0.04398,
				"method": "rhf"
			},
			{
				"type": "unocc",
				"energy": 0.0788,
				"method": "rhf"
			},
			{
				"type": "unocc",
				"energy": 0.08428,
				"method": "rhf"
			}
		],
		"cosmo_sigma_profile": { 
			"-0.025": 0.0,
			"-0.024": 0.0,
			"-0.023": 0.0,
			"-0.022": 0.0,
			"-0.021": 0.0,
			"-0.02": 0.0,
			"-0.019": 0.0,
			"-0.018": 0.0,
			"-0.017": 0.0,
			"-0.016": 0.0,
			"-0.015": 0.0,
			"-0.014": 0.0,
			"-0.013": 0.0,
			"-0.012": 0.0,
			"-0.011": 0.0,
			"-0.01": 0.0,
			"-0.009": 0.0,
			"-0.008": 2.29597183131,
			"-0.007": 6.80487689971,
			"-0.006": 15.3055897614,
			"-0.005": 19.5353233337,
			"-0.004": 17.458349601,
			"-0.003": 14.00149472,
			"-0.002": 10.258521385,
			"-0.001": 9.37909378061,
			"0.0": 11.5892313061,
			"0.001": 13.2100994922,
			"0.002": 15.0385866162,
			"0.003": 9.90977246614,
			"0.004": 4.56517757854,
			"0.005": 3.40474036538,
			"0.006": 3.50157309913,
			"0.007": 3.0741553601,
			"0.008": 5.52004381847,
			"0.009": 4.45773590458,
			"0.01": 5.19201921157,
			"0.011": 3.34158001455,
			"0.012": 2.70736502144,
			"0.013": 2.32297294241,
			"0.014": 0.628963261484,
			"0.015": 0.0,
			"0.016": 0.0,
			"0.017": 0.0,
			"0.018": 0.0,
			"0.019": 0.0,
			"0.02": 0.0,
			"0.021": 0.0,
			"0.022": 0.0,
			"0.023": 0.0,
			"0.024": 0.0,
			"0.025": 0.0
		}
	}
}
