{
	 "smiles": "CC1=CC=C2C3CCC4CC(O)CCC4(C)C3CCC2=C1C", 
	 "Tm": 461.15, 
	 "num_atms": 52, 
	 "gaussian": { 
		 "optdone": 1, 
		 "sigma_profile": "yes", 
		 "theory": "DFT", 
		 "functional": "B3LYP", 
		 "basiset": "6-31G**", 
		 "properties": { 
			 "R2extent": 7687.04, 
			 "electric_dipole_moment_norm": 1.36303702811, 
			 "electric_quadrupole_moment_norm": 14.5988808068, 
			 "total_energy": -893.564886474, 
			 "HOMO_LUMO_gap": 0.22515, 
			 "cosmo_polarized_energy": -8.47, 
			 "cosmo_cavitation_energy": 44.76, 
			 "cosmo_dispersion_energy": -32.08, 
			 "cosmo_repulsion_energy": 2.38, 
			 "cosmo_total_nonelectrostatic_energy": 15.06, 
			 "SMD_solvation_energy": 5.91 
		},
		"coords": [
			{
				"x": 1.8429837251,
				"y": -2.4467621892,
				"z": -4.4364632421,
				"element": "C" 
			},
			{
				"x": 0.9114918781,
				"y": -1.7431283616,
				"z": -3.4720772194,
				"element": "C" 
			},
			{
				"x": 0.7951341566,
				"y": -0.3510273653,
				"z": -3.5365158346,
				"element": "C" 
			},
			{
				"x": -0.0454700368,
				"y": 0.3526424193,
				"z": -2.6764665985,
				"element": "C" 
			},
			{
				"x": -0.7928564307,
				"y": -0.3280076891,
				"z": -1.714866499,
				"element": "C" 
			},
			{
				"x": -1.7674233109,
				"y": 0.3275857454,
				"z": -0.7488133419,
				"element": "C" 
			},
			{
				"x": -1.9026236747,
				"y": 1.8593483757,
				"z": -0.8229254693,
				"element": "C" 
			},
			{
				"x": -0.8005733614,
				"y": 2.6174324881,
				"z": -0.073667519,
				"element": "C" 
			},
			{
				"x": -0.6908598066,
				"y": 2.1415745947,
				"z": 1.3822492442,
				"element": "C" 
			},
			{
				"x": 0.3135847689,
				"y": 2.9979448564,
				"z": 2.1865078148,
				"element": "C" 
			},
			{
				"x": 0.7043471838,
				"y": 2.3883925948,
				"z": 3.5546522815,
				"element": "C" 
			},
			{
				"x": 0.8098351411,
				"y": 3.3822364677,
				"z": 4.5754987936,
				"element": "O" 
			},
			{
				"x": -0.3440619014,
				"y": 1.3796740687,
				"z": 4.0055926612,
				"element": "C" 
			},
			{
				"x": -0.4758545211,
				"y": 0.2066204045,
				"z": 3.0114953217,
				"element": "C" 
			},
			{
				"x": -0.4080700539,
				"y": 0.6130833609,
				"z": 1.4933593391,
				"element": "C" 
			},
			{
				"x": 1.0026972543,
				"y": 0.2857951149,
				"z": 0.9494967499,
				"element": "C" 
			},
			{
				"x": -1.5416077846,
				"y": -0.1501002274,
				"z": 0.722877453,
				"element": "C" 
			},
			{
				"x": -1.4064589265,
				"y": -1.7014105963,
				"z": 0.7866482952,
				"element": "C" 
			},
			{
				"x": -1.5519604962,
				"y": -2.396132642,
				"z": -0.586298363,
				"element": "C" 
			},
			{
				"x": -0.6924826545,
				"y": -1.7327233924,
				"z": -1.6408341449,
				"element": "C" 
			},
			{
				"x": 0.1524118563,
				"y": -2.4476607397,
				"z": -2.5110382543,
				"element": "C" 
			},
			{
				"x": 0.2331102765,
				"y": -3.9587884842,
				"z": -2.416028865,
				"element": "C" 
			},
			{
				"x": 2.627522372,
				"y": -3.0102067628,
				"z": -3.9176916336,
				"element": "H" 
			},
			{
				"x": 1.3120272196,
				"y": -3.1569405966,
				"z": -5.081506545,
				"element": "H" 
			},
			{
				"x": 2.3384515935,
				"y": -1.7220338141,
				"z": -5.0882677404,
				"element": "H" 
			},
			{
				"x": 1.3745351047,
				"y": 0.1929468304,
				"z": -4.2786716394,
				"element": "H" 
			},
			{
				"x": -0.1090771309,
				"y": 1.432595028,
				"z": -2.7637196235,
				"element": "H" 
			},
			{
				"x": -2.7560638051,
				"y": -0.07390516,
				"z": -1.0223984048,
				"element": "H" 
			},
			{
				"x": -1.9635182011,
				"y": 2.18654756,
				"z": -1.8671444789,
				"element": "H" 
			},
			{
				"x": -2.8665704096,
				"y": 2.1269238599,
				"z": -0.3695235325,
				"element": "H" 
			},
			{
				"x": 0.1652885236,
				"y": 2.4969772307,
				"z": -0.5787690324,
				"element": "H" 
			},
			{
				"x": -1.0197755663,
				"y": 3.6930942594,
				"z": -0.0893270324,
				"element": "H" 
			},
			{
				"x": -1.681457348,
				"y": 2.2983245532,
				"z": 1.8355819533,
				"element": "H" 
			},
			{
				"x": 1.2122631054,
				"y": 3.1889093358,
				"z": 1.5853864983,
				"element": "H" 
			},
			{
				"x": -0.1468100251,
				"y": 3.9735658265,
				"z": 2.3849110575,
				"element": "H" 
			},
			{
				"x": 1.6692000778,
				"y": 1.8628331656,
				"z": 3.4614910564,
				"element": "H" 
			},
			{
				"x": 1.4741440645,
				"y": 4.0243113053,
				"z": 4.2933536722,
				"element": "H" 
			},
			{
				"x": -0.0840382493,
				"y": 1.0049095311,
				"z": 5.0011479882,
				"element": "H" 
			},
			{
				"x": -1.2992115996,
				"y": 1.9080558362,
				"z": 4.1140943131,
				"element": "H" 
			},
			{
				"x": -1.421303623,
				"y": -0.3070826238,
				"z": 3.2188932867,
				"element": "H" 
			},
			{
				"x": 0.3130095654,
				"y": -0.5263361738,
				"z": 3.2189375,
				"element": "H" 
			},
			{
				"x": 1.1345495985,
				"y": 0.579278271,
				"z": -0.0930362343,
				"element": "H" 
			},
			{
				"x": 1.2122097569,
				"y": -0.7860767476,
				"z": 1.0079626713,
				"element": "H" 
			},
			{
				"x": 1.7745069536,
				"y": 0.788593229,
				"z": 1.5398300411,
				"element": "H" 
			},
			{
				"x": -2.4663149696,
				"y": 0.1235005729,
				"z": 1.2504509386,
				"element": "H" 
			},
			{
				"x": -2.1518124791,
				"y": -2.117214646,
				"z": 1.4733519394,
				"element": "H" 
			},
			{
				"x": -0.4323344697,
				"y": -1.9796538046,
				"z": 1.1989816482,
				"element": "H" 
			},
			{
				"x": -2.6059200984,
				"y": -2.3511968231,
				"z": -0.9009772445,
				"element": "H" 
			},
			{
				"x": -1.3175503371,
				"y": -3.457251872,
				"z": -0.4783005507,
				"element": "H" 
			},
			{
				"x": 0.9022771236,
				"y": -4.3818651541,
				"z": -3.1655688549,
				"element": "H" 
			},
			{
				"x": 0.6000227344,
				"y": -4.2834751929,
				"z": -1.4348912605,
				"element": "H" 
			},
			{
				"x": -0.7487427631,
				"y": -4.4249158278,
				"z": -2.5576633596,
				"element": "H" 
			}
		],
		 "valence_orbital": [ 
			{
				"type": "occ",
				"energy": -0.282,
				"method": "rhf"
			},
			{
				"type": "occ",
				"energy": -0.27239,
				"method": "rhf"
			},
			{
				"type": "occ",
				"energy": -0.2529,
				"method": "rhf"
			},
			{
				"type": "occ",
				"energy": -0.2257,
				"method": "rhf"
			},
			{
				"type": "occ",
				"energy": -0.21833,
				"method": "rhf"
			},
			{
				"type": "unocc",
				"energy": 0.00682,
				"method": "rhf"
			},
			{
				"type": "unocc",
				"energy": 0.01293,
				"method": "rhf"
			},
			{
				"type": "unocc",
				"energy": 0.07323,
				"method": "rhf"
			},
			{
				"type": "unocc",
				"energy": 0.08231,
				"method": "rhf"
			},
			{
				"type": "unocc",
				"energy": 0.09286,
				"method": "rhf"
			}
		],
		"cosmo_sigma_profile": { 
			"-0.025": 0.0,
			"-0.024": 0.0,
			"-0.023": 0.0,
			"-0.022": 0.0,
			"-0.021": 0.0,
			"-0.02": 0.0,
			"-0.019": 0.0,
			"-0.018": 0.0,
			"-0.017": 0.0,
			"-0.016": 0.0,
			"-0.015": 0.357168235927,
			"-0.014": 1.13957464282,
			"-0.013": 0.808383972293,
			"-0.012": 0.842718192234,
			"-0.011": 0.558842082415,
			"-0.01": 1.20068432814,
			"-0.009": 0.702534364983,
			"-0.008": 0.843508891765,
			"-0.007": 1.12743984987,
			"-0.006": 0.717770612485,
			"-0.005": 1.48340574029,
			"-0.004": 9.71153864128,
			"-0.003": 32.416667285,
			"-0.002": 58.7325315487,
			"-0.001": 68.6005257425,
			"0.0": 53.4700754053,
			"0.001": 42.1652583652,
			"0.002": 18.5983760562,
			"0.003": 8.8181276941,
			"0.004": 7.33955743685,
			"0.005": 7.62844464095,
			"0.006": 6.71510583811,
			"0.007": 6.38687869011,
			"0.008": 3.67767863913,
			"0.009": 1.37065722044,
			"0.01": 1.37617387457,
			"0.011": 1.2560956413,
			"0.012": 0.745390867121,
			"0.013": 1.6547565889,
			"0.014": 2.13445083623,
			"0.015": 1.64232146023,
			"0.016": 0.0595197155265,
			"0.017": 0.0,
			"0.018": 0.0,
			"0.019": 0.0,
			"0.02": 0.0,
			"0.021": 0.0,
			"0.022": 0.0,
			"0.023": 0.0,
			"0.024": 0.0,
			"0.025": 0.0
		}
	}
}
