{
	 "smiles": "CC1=CC=C(C)C(=C1)C(=O)N(NC(=O)C1=CC=CC=C1)C(C)(C)C", 
	 "Tm": 471.15, 
	 "num_atms": 48, 
	 "gaussian": { 
		 "optdone": 1, 
		 "sigma_profile": "yes", 
		 "theory": "DFT", 
		 "functional": "B3LYP", 
		 "basiset": "6-31G**", 
		 "properties": { 
			 "R2extent": 7660.903, 
			 "electric_dipole_moment_norm": 0.690111969176, 
			 "electric_quadrupole_moment_norm": 21.8066797214, 
			 "total_energy": -1036.55285956, 
			 "HOMO_LUMO_gap": 0.19053, 
			 "cosmo_polarized_energy": -16.19, 
			 "cosmo_cavitation_energy": 48.37, 
			 "cosmo_dispersion_energy": -30.87, 
			 "cosmo_repulsion_energy": 2.33, 
			 "cosmo_total_nonelectrostatic_energy": 19.83, 
			 "SMD_solvation_energy": 9.59 
		},
		"coords": [
			{
				"x": 2.3177344599,
				"y": 4.1581828566,
				"z": 1.5528782711,
				"element": "C" 
			},
			{
				"x": 0.9840006103,
				"y": 3.7374166965,
				"z": 0.9827161363,
				"element": "C" 
			},
			{
				"x": -0.1991946478,
				"y": 4.3968657141,
				"z": 1.3407209622,
				"element": "C" 
			},
			{
				"x": -1.4221430825,
				"y": 4.0036616299,
				"z": 0.8067063821,
				"element": "C" 
			},
			{
				"x": -1.5294487309,
				"y": 2.9230147488,
				"z": -0.0796628004,
				"element": "C" 
			},
			{
				"x": -2.8862415528,
				"y": 2.5785474019,
				"z": -0.6530259985,
				"element": "C" 
			},
			{
				"x": -0.3498569114,
				"y": 2.236698493,
				"z": -0.4191300522,
				"element": "C" 
			},
			{
				"x": 0.8847179161,
				"y": 2.6742176921,
				"z": 0.0837172547,
				"element": "C" 
			},
			{
				"x": -0.282688184,
				"y": 1.1290168738,
				"z": -1.4479684811,
				"element": "C" 
			},
			{
				"x": 0.3318059412,
				"y": 1.3095327145,
				"z": -2.4930546609,
				"element": "O" 
			},
			{
				"x": -0.8773543233,
				"y": -0.095532164,
				"z": -1.1538370179,
				"element": "N" 
			},
			{
				"x": -1.6066516897,
				"y": -0.1879633858,
				"z": 0.0252421386,
				"element": "N" 
			},
			{
				"x": -1.35144839,
				"y": -1.0022441126,
				"z": 1.1237479039,
				"element": "C" 
			},
			{
				"x": -2.2815542688,
				"y": -1.2169206574,
				"z": 1.8923359113,
				"element": "O" 
			},
			{
				"x": 0.0065401004,
				"y": -1.5889228855,
				"z": 1.3625579837,
				"element": "C" 
			},
			{
				"x": 1.2159018243,
				"y": -0.993132244,
				"z": 0.9787160797,
				"element": "C" 
			},
			{
				"x": 2.4299288449,
				"y": -1.6007630442,
				"z": 1.3017006212,
				"element": "C" 
			},
			{
				"x": 2.4492498976,
				"y": -2.8097070956,
				"z": 1.9990649288,
				"element": "C" 
			},
			{
				"x": 1.2477192381,
				"y": -3.403033465,
				"z": 2.3946642372,
				"element": "C" 
			},
			{
				"x": 0.0355109421,
				"y": -2.7901663915,
				"z": 2.089317127,
				"element": "C" 
			},
			{
				"x": -1.0407576882,
				"y": -1.1629524316,
				"z": -2.2307036372,
				"element": "C" 
			},
			{
				"x": -1.8094111095,
				"y": -2.3610487252,
				"z": -1.6538546481,
				"element": "C" 
			},
			{
				"x": 0.3492819051,
				"y": -1.64350535,
				"z": -2.689569138,
				"element": "C" 
			},
			{
				"x": -1.8396422932,
				"y": -0.5759430953,
				"z": -3.4109027779,
				"element": "C" 
			},
			{
				"x": 3.1454725066,
				"y": 3.830306474,
				"z": 0.9174226129,
				"element": "H" 
			},
			{
				"x": 2.4775066165,
				"y": 3.7265356214,
				"z": 2.5489097283,
				"element": "H" 
			},
			{
				"x": 2.3823570389,
				"y": 5.2457997102,
				"z": 1.6580374889,
				"element": "H" 
			},
			{
				"x": -0.1594999436,
				"y": 5.238813562,
				"z": 2.0276042554,
				"element": "H" 
			},
			{
				"x": -2.3214544656,
				"y": 4.5544634622,
				"z": 1.0725074911,
				"element": "H" 
			},
			{
				"x": -3.4145705434,
				"y": 3.4860204098,
				"z": -0.9620127612,
				"element": "H" 
			},
			{
				"x": -2.8176625755,
				"y": 1.9320529245,
				"z": -1.5318288133,
				"element": "H" 
			},
			{
				"x": -3.522892333,
				"y": 2.0836728934,
				"z": 0.0917161933,
				"element": "H" 
			},
			{
				"x": 1.789132373,
				"y": 2.1746880794,
				"z": -0.2536589151,
				"element": "H" 
			},
			{
				"x": -2.5915201641,
				"y": 0.0523797302,
				"z": -0.0257575003,
				"element": "H" 
			},
			{
				"x": 1.2158428725,
				"y": -0.0457555672,
				"z": 0.4583128307,
				"element": "H" 
			},
			{
				"x": 3.3617275137,
				"y": -1.125508351,
				"z": 1.0094021705,
				"element": "H" 
			},
			{
				"x": 3.3966103375,
				"y": -3.283228339,
				"z": 2.2406122378,
				"element": "H" 
			},
			{
				"x": 1.256717701,
				"y": -4.3378761009,
				"z": 2.9473854646,
				"element": "H" 
			},
			{
				"x": -0.9063021856,
				"y": -3.2213730906,
				"z": 2.410903779,
				"element": "H" 
			},
			{
				"x": -2.8110769208,
				"y": -2.094826938,
				"z": -1.3062030338,
				"element": "H" 
			},
			{
				"x": -1.9218040693,
				"y": -3.1021015142,
				"z": -2.4503285182,
				"element": "H" 
			},
			{
				"x": -1.27071668,
				"y": -2.8397756311,
				"z": -0.8325757286,
				"element": "H" 
			},
			{
				"x": 0.9127767445,
				"y": -2.0461968809,
				"z": -1.8429985804,
				"element": "H" 
			},
			{
				"x": 0.2290806218,
				"y": -2.4412413074,
				"z": -3.4303292308,
				"element": "H" 
			},
			{
				"x": 0.9177625138,
				"y": -0.8299767177,
				"z": -3.1377776621,
				"element": "H" 
			},
			{
				"x": -1.9637826685,
				"y": -1.3383333665,
				"z": -4.1866932371,
				"element": "H" 
			},
			{
				"x": -1.3249793633,
				"y": 0.2798672953,
				"z": -3.8484866276,
				"element": "H" 
			},
			{
				"x": -2.8400237354,
				"y": -0.2653261314,
				"z": -3.0880403696,
				"element": "H" 
			}
		],
		 "valence_orbital": [ 
			{
				"type": "occ",
				"energy": -0.26288,
				"method": "rhf"
			},
			{
				"type": "occ",
				"energy": -0.25559,
				"method": "rhf"
			},
			{
				"type": "occ",
				"energy": -0.24846,
				"method": "rhf"
			},
			{
				"type": "occ",
				"energy": -0.23955,
				"method": "rhf"
			},
			{
				"type": "occ",
				"energy": -0.23172,
				"method": "rhf"
			},
			{
				"type": "unocc",
				"energy": -0.04119,
				"method": "rhf"
			},
			{
				"type": "unocc",
				"energy": -0.01921,
				"method": "rhf"
			},
			{
				"type": "unocc",
				"energy": -0.00945,
				"method": "rhf"
			},
			{
				"type": "unocc",
				"energy": -0.00385,
				"method": "rhf"
			},
			{
				"type": "unocc",
				"energy": 0.02314,
				"method": "rhf"
			}
		],
		"cosmo_sigma_profile": { 
			"-0.025": 0.0,
			"-0.024": 0.0,
			"-0.023": 0.0,
			"-0.022": 0.0,
			"-0.021": 0.0,
			"-0.02": 0.0,
			"-0.019": 0.0,
			"-0.018": 0.0,
			"-0.017": 0.0,
			"-0.016": 0.0,
			"-0.015": 0.0,
			"-0.014": 0.0,
			"-0.013": 0.0,
			"-0.012": 0.253489507954,
			"-0.011": 0.775837335991,
			"-0.01": 1.89267055271,
			"-0.009": 1.92299616919,
			"-0.008": 2.1605776203,
			"-0.007": 3.59678936923,
			"-0.006": 13.3310163152,
			"-0.005": 20.4011986266,
			"-0.004": 38.5373744708,
			"-0.003": 34.1230609784,
			"-0.002": 37.3936361916,
			"-0.001": 40.1207244207,
			"0.0": 45.1376849395,
			"0.001": 33.5370193147,
			"0.002": 20.5920118548,
			"0.003": 17.8676041802,
			"0.004": 19.9254431165,
			"0.005": 13.1394149144,
			"0.006": 5.63356221573,
			"0.007": 4.15195924176,
			"0.008": 3.11202511383,
			"0.009": 2.68011329396,
			"0.01": 2.764965922,
			"0.011": 3.66161364734,
			"0.012": 5.59715013005,
			"0.013": 7.19526466685,
			"0.014": 1.86028077709,
			"0.015": 0.0386218695556,
			"0.016": 0.0,
			"0.017": 0.0,
			"0.018": 0.0,
			"0.019": 0.0,
			"0.02": 0.0,
			"0.021": 0.0,
			"0.022": 0.0,
			"0.023": 0.0,
			"0.024": 0.0,
			"0.025": 0.0
		}
	}
}
