{
	 "smiles": "[O-][N+](=O)C1=C(F)C(C#N)=C(F)C=C1", 
	 "Tm": 325.65, 
	 "num_atms": 15, 
	 "gaussian": { 
		 "optdone": 1, 
		 "sigma_profile": "yes", 
		 "theory": "DFT", 
		 "functional": "B3LYP", 
		 "basiset": "6-31G**", 
		 "properties": { 
			 "R2extent": 2843.1372, 
			 "electric_dipole_moment_norm": 4.46721480231, 
			 "electric_quadrupole_moment_norm": 22.8954440071, 
			 "total_energy": -727.428798957, 
			 "HOMO_LUMO_gap": 0.18863, 
			 "cosmo_polarized_energy": -12.58, 
			 "cosmo_cavitation_energy": 23.11, 
			 "cosmo_dispersion_energy": -16.18, 
			 "cosmo_repulsion_energy": 1.23, 
			 "cosmo_total_nonelectrostatic_energy": 8.17, 
			 "SMD_solvation_energy": 8.52 
		},
		"coords": [
			{
				"x": 1.2379459671,
				"y": 2.9092267359,
				"z": 2.116550349,
				"element": "O" 
			},
			{
				"x": 0.6869917047,
				"y": 2.274749706,
				"z": 1.2173919076,
				"element": "N" 
			},
			{
				"x": 0.5114560257,
				"y": 2.6766946123,
				"z": 0.0728005914,
				"element": "O" 
			},
			{
				"x": 0.2050828574,
				"y": 0.9273943278,
				"z": 1.5590504221,
				"element": "C" 
			},
			{
				"x": -0.428967229,
				"y": 0.1003078208,
				"z": 0.6233003681,
				"element": "C" 
			},
			{
				"x": -0.6396765566,
				"y": 0.4656390124,
				"z": -0.6310893632,
				"element": "F" 
			},
			{
				"x": -0.8716961985,
				"y": -1.1794561557,
				"z": 1.0008893241,
				"element": "C" 
			},
			{
				"x": -1.5188743114,
				"y": -2.0321802985,
				"z": 0.0566182272,
				"element": "C" 
			},
			{
				"x": -2.0465195471,
				"y": -2.7325603348,
				"z": -0.7057145027,
				"element": "N" 
			},
			{
				"x": -0.6616133111,
				"y": -1.5951281903,
				"z": 2.3243678513,
				"element": "C" 
			},
			{
				"x": -1.0825105901,
				"y": -2.8078014681,
				"z": 2.6783130682,
				"element": "F" 
			},
			{
				"x": -0.0336600978,
				"y": -0.784098077,
				"z": 3.2621485074,
				"element": "C" 
			},
			{
				"x": 0.3961049883,
				"y": 0.4757484291,
				"z": 2.8686078122,
				"element": "C" 
			},
			{
				"x": 0.1079766888,
				"y": -1.1455723864,
				"z": 4.2734240745,
				"element": "H" 
			},
			{
				"x": 0.8906596094,
				"y": 1.1442362666,
				"z": 3.5621413626,
				"element": "H" 
			}
		],
		 "valence_orbital": [ 
			{
				"type": "occ",
				"energy": -0.33057,
				"method": "rhf"
			},
			{
				"type": "occ",
				"energy": -0.32907,
				"method": "rhf"
			},
			{
				"type": "occ",
				"energy": -0.31232,
				"method": "rhf"
			},
			{
				"type": "occ",
				"energy": -0.30643,
				"method": "rhf"
			},
			{
				"type": "occ",
				"energy": -0.30238,
				"method": "rhf"
			},
			{
				"type": "unocc",
				"energy": -0.11375,
				"method": "rhf"
			},
			{
				"type": "unocc",
				"energy": -0.08485,
				"method": "rhf"
			},
			{
				"type": "unocc",
				"energy": -0.03304,
				"method": "rhf"
			},
			{
				"type": "unocc",
				"energy": 0.00108,
				"method": "rhf"
			},
			{
				"type": "unocc",
				"energy": 0.03471,
				"method": "rhf"
			}
		],
		"cosmo_sigma_profile": { 
			"-0.025": 0.0,
			"-0.024": 0.0,
			"-0.023": 0.0,
			"-0.022": 0.0,
			"-0.021": 0.0,
			"-0.02": 0.0,
			"-0.019": 0.0,
			"-0.018": 0.0,
			"-0.017": 0.0,
			"-0.016": 0.0,
			"-0.015": 0.0,
			"-0.014": 0.0,
			"-0.013": 0.0,
			"-0.012": 0.0,
			"-0.011": 0.261385521818,
			"-0.01": 2.86081045944,
			"-0.009": 4.57303662315,
			"-0.008": 5.25798665622,
			"-0.007": 6.38222397264,
			"-0.006": 13.364651086,
			"-0.005": 16.9292165496,
			"-0.004": 13.4780540717,
			"-0.003": 11.3229834706,
			"-0.002": 10.0864823702,
			"-0.001": 8.79306704075,
			"0.0": 7.26517936654,
			"0.001": 15.2446434799,
			"0.002": 13.0554322307,
			"0.003": 5.36187590852,
			"0.004": 6.48496466014,
			"0.005": 5.89933134428,
			"0.006": 9.89283451032,
			"0.007": 12.846589474,
			"0.008": 8.1134345234,
			"0.009": 5.6525011639,
			"0.01": 2.79675047351,
			"0.011": 2.13822284992,
			"0.012": 0.87768316862,
			"0.013": 0.0,
			"0.014": 0.0,
			"0.015": 0.0,
			"0.016": 0.0,
			"0.017": 0.0,
			"0.018": 0.0,
			"0.019": 0.0,
			"0.02": 0.0,
			"0.021": 0.0,
			"0.022": 0.0,
			"0.023": 0.0,
			"0.024": 0.0,
			"0.025": 0.0
		}
	}
}
