{
	 "smiles": "O=C(CC#N)N1CCN(CC1)C(C1=CC=CC=C1)C1=CC=CC=C1", 
	 "Tm": 384.15, 
	 "num_atms": 45, 
	 "gaussian": { 
		 "optdone": 1, 
		 "sigma_profile": "yes", 
		 "theory": "DFT", 
		 "functional": "B3LYP", 
		 "basiset": "6-31G**", 
		 "properties": { 
			 "R2extent": 8943.1107, 
			 "electric_dipole_moment_norm": 3.08237787917, 
			 "electric_quadrupole_moment_norm": 22.4843518523, 
			 "total_energy": -1014.24601918, 
			 "HOMO_LUMO_gap": 0.21211, 
			 "cosmo_polarized_energy": -17.97, 
			 "cosmo_cavitation_energy": 46.88, 
			 "cosmo_dispersion_energy": -30.97, 
			 "cosmo_repulsion_energy": 2.36, 
			 "cosmo_total_nonelectrostatic_energy": 18.27, 
			 "SMD_solvation_energy": 8.12 
		},
		"coords": [
			{
				"x": -2.2167908382,
				"y": -1.9455235412,
				"z": 3.9261705442,
				"element": "O" 
			},
			{
				"x": -2.2253244625,
				"y": -2.4481581899,
				"z": 2.81029458,
				"element": "C" 
			},
			{
				"x": -2.439446915,
				"y": -3.9793873107,
				"z": 2.6875726919,
				"element": "C" 
			},
			{
				"x": -1.3067134212,
				"y": -4.7006776241,
				"z": 2.1077250929,
				"element": "C" 
			},
			{
				"x": -0.4031790716,
				"y": -5.2571560839,
				"z": 1.6362048538,
				"element": "N" 
			},
			{
				"x": -2.0729151442,
				"y": -1.7323876305,
				"z": 1.6584347132,
				"element": "N" 
			},
			{
				"x": -1.8636847874,
				"y": -0.2839645625,
				"z": 1.7380426943,
				"element": "C" 
			},
			{
				"x": -0.6366643671,
				"y": 0.120296089,
				"z": 0.9184631325,
				"element": "C" 
			},
			{
				"x": -0.7795670357,
				"y": -0.344693552,
				"z": -0.463705005,
				"element": "N" 
			},
			{
				"x": -0.9120193505,
				"y": -1.8000552647,
				"z": -0.5072552266,
				"element": "C" 
			},
			{
				"x": -2.1478993751,
				"y": -2.2357785574,
				"z": 0.2877150614,
				"element": "C" 
			},
			{
				"x": 0.2017316004,
				"y": 0.196538811,
				"z": -1.4331566417,
				"element": "C" 
			},
			{
				"x": -0.0744374783,
				"y": 1.6759436941,
				"z": -1.7347798409,
				"element": "C" 
			},
			{
				"x": 0.9233658993,
				"y": 2.5085424805,
				"z": -2.2610446585,
				"element": "C" 
			},
			{
				"x": 0.6398935489,
				"y": 3.828013651,
				"z": -2.6184279012,
				"element": "C" 
			},
			{
				"x": -0.6473490497,
				"y": 4.3411591581,
				"z": -2.4560898478,
				"element": "C" 
			},
			{
				"x": -1.6512108053,
				"y": 3.5181626986,
				"z": -1.9432998373,
				"element": "C" 
			},
			{
				"x": -1.3681516597,
				"y": 2.1976201824,
				"z": -1.5925434732,
				"element": "C" 
			},
			{
				"x": 1.6573413937,
				"y": -0.1293847163,
				"z": -1.0844230095,
				"element": "C" 
			},
			{
				"x": 2.3799245539,
				"y": 0.5949506245,
				"z": -0.1224501127,
				"element": "C" 
			},
			{
				"x": 3.6783740004,
				"y": 0.2233670525,
				"z": 0.2269628691,
				"element": "C" 
			},
			{
				"x": 4.2832525564,
				"y": -0.8791391215,
				"z": -0.3807068558,
				"element": "C" 
			},
			{
				"x": 3.5813941059,
				"y": -1.6036850222,
				"z": -1.3439285751,
				"element": "C" 
			},
			{
				"x": 2.2814324962,
				"y": -1.2288772332,
				"z": -1.6893692387,
				"element": "C" 
			},
			{
				"x": -3.3405027782,
				"y": -4.2027035734,
				"z": 2.1043443467,
				"element": "H" 
			},
			{
				"x": -2.6059260264,
				"y": -4.3280453409,
				"z": 3.7089547791,
				"element": "H" 
			},
			{
				"x": -2.7544375732,
				"y": 0.2271801764,
				"z": 1.3478397338,
				"element": "H" 
			},
			{
				"x": -1.7408591013,
				"y": -0.0234137852,
				"z": 2.7889650104,
				"element": "H" 
			},
			{
				"x": 0.2665893589,
				"y": -0.2860714269,
				"z": 1.4041340981,
				"element": "H" 
			},
			{
				"x": -0.5561593902,
				"y": 1.211427241,
				"z": 0.9188793786,
				"element": "H" 
			},
			{
				"x": -0.0273038198,
				"y": -2.3238247716,
				"z": -0.1055868318,
				"element": "H" 
			},
			{
				"x": -1.0390213273,
				"y": -2.1139029588,
				"z": -1.5494834496,
				"element": "H" 
			},
			{
				"x": -2.2184883309,
				"y": -3.3226327928,
				"z": 0.2769481576,
				"element": "H" 
			},
			{
				"x": -3.0472811886,
				"y": -1.8253413159,
				"z": -0.1928024614,
				"element": "H" 
			},
			{
				"x": -0.0160667253,
				"y": -0.3445640965,
				"z": -2.3647809182,
				"element": "H" 
			},
			{
				"x": 1.9294068069,
				"y": 2.1248575942,
				"z": -2.3947973199,
				"element": "H" 
			},
			{
				"x": 1.4297675876,
				"y": 4.4548054715,
				"z": -3.0230918633,
				"element": "H" 
			},
			{
				"x": -0.8664796267,
				"y": 5.3693795999,
				"z": -2.7295319547,
				"element": "H" 
			},
			{
				"x": -2.660052153,
				"y": 3.9024333549,
				"z": -1.8188484817,
				"element": "H" 
			},
			{
				"x": -2.1499145086,
				"y": 1.5510890378,
				"z": -1.2087098094,
				"element": "H" 
			},
			{
				"x": 1.9315826822,
				"y": 1.4680093331,
				"z": 0.3417757135,
				"element": "H" 
			},
			{
				"x": 4.2198097395,
				"y": 0.7985133844,
				"z": 0.9728717125,
				"element": "H" 
			},
			{
				"x": 5.2945260621,
				"y": -1.1669521289,
				"z": -0.108437498,
				"element": "H" 
			},
			{
				"x": 4.0434668936,
				"y": -2.4589534302,
				"z": -1.8286571491,
				"element": "H" 
			},
			{
				"x": 1.744487025,
				"y": -1.7971156038,
				"z": -2.4454912024,
				"element": "H" 
			}
		],
		 "valence_orbital": [ 
			{
				"type": "occ",
				"energy": -0.25416,
				"method": "rhf"
			},
			{
				"type": "occ",
				"energy": -0.25175,
				"method": "rhf"
			},
			{
				"type": "occ",
				"energy": -0.24791,
				"method": "rhf"
			},
			{
				"type": "occ",
				"energy": -0.24165,
				"method": "rhf"
			},
			{
				"type": "occ",
				"energy": -0.22308,
				"method": "rhf"
			},
			{
				"type": "unocc",
				"energy": -0.01097,
				"method": "rhf"
			},
			{
				"type": "unocc",
				"energy": -0.00716,
				"method": "rhf"
			},
			{
				"type": "unocc",
				"energy": -0.00397,
				"method": "rhf"
			},
			{
				"type": "unocc",
				"energy": 0.00159,
				"method": "rhf"
			},
			{
				"type": "unocc",
				"energy": 0.00382,
				"method": "rhf"
			}
		],
		"cosmo_sigma_profile": { 
			"-0.025": 0.0,
			"-0.024": 0.0,
			"-0.023": 0.0,
			"-0.022": 0.0,
			"-0.021": 0.0,
			"-0.02": 0.0,
			"-0.019": 0.0,
			"-0.018": 0.0,
			"-0.017": 0.0,
			"-0.016": 0.0,
			"-0.015": 0.0,
			"-0.014": 0.0,
			"-0.013": 0.0,
			"-0.012": 0.0,
			"-0.011": 0.777656809495,
			"-0.01": 3.71555102356,
			"-0.009": 4.92268236726,
			"-0.008": 4.22793195584,
			"-0.007": 4.63318010577,
			"-0.006": 14.0546351694,
			"-0.005": 30.3507051894,
			"-0.004": 36.2972709379,
			"-0.003": 39.5044623708,
			"-0.002": 31.9170728325,
			"-0.001": 29.7451294905,
			"0.0": 23.8292051385,
			"0.001": 19.6010716495,
			"0.002": 19.6672595008,
			"0.003": 19.1753112711,
			"0.004": 17.9717596447,
			"0.005": 18.8398796044,
			"0.006": 16.7664506045,
			"0.007": 6.85465245281,
			"0.008": 3.56422404709,
			"0.009": 4.90563073471,
			"0.01": 3.99702328394,
			"0.011": 4.43465632715,
			"0.012": 4.96708633087,
			"0.013": 6.56814525328,
			"0.014": 0.8114407173,
			"0.015": 0.0,
			"0.016": 0.0,
			"0.017": 0.0,
			"0.018": 0.0,
			"0.019": 0.0,
			"0.02": 0.0,
			"0.021": 0.0,
			"0.022": 0.0,
			"0.023": 0.0,
			"0.024": 0.0,
			"0.0": 0.0
		}
	}
}
