{
	 "smiles": "FC(F)OC1=C(C#N)C(F)=CC=C1", 
	 "Tm": 303.15, 
	 "num_atms": 17, 
	 "gaussian": { 
		 "optdone": 1, 
		 "sigma_profile": "yes", 
		 "theory": "DFT", 
		 "functional": "B3LYP", 
		 "basiset": "6-31G**", 
		 "properties": { 
			 "R2extent": 3040.9073, 
			 "electric_dipole_moment_norm": 6.67838270542, 
			 "electric_quadrupole_moment_norm": 14.9803616942, 
			 "total_energy": -736.715821134, 
			 "HOMO_LUMO_gap": 0.20954, 
			 "cosmo_polarized_energy": -12.87, 
			 "cosmo_cavitation_energy": 24.59, 
			 "cosmo_dispersion_energy": -16.76, 
			 "cosmo_repulsion_energy": 1.28, 
			 "cosmo_total_nonelectrostatic_energy": 9.12, 
			 "SMD_solvation_energy": 7.18 
		},
		"coords": [
			{
				"x": -2.0893080624,
				"y": -0.79601281,
				"z": 0.4867200257,
				"element": "F" 
			},
			{
				"x": -1.4569569928,
				"y": 0.1541681527,
				"z": -0.2144578029,
				"element": "C" 
			},
			{
				"x": -1.3222476532,
				"y": -0.2689969639,
				"z": -1.4949514492,
				"element": "F" 
			},
			{
				"x": -0.2096959225,
				"y": 0.3085610006,
				"z": 0.3723238751,
				"element": "O" 
			},
			{
				"x": 0.5418682323,
				"y": 1.3803307362,
				"z": -0.0692633045,
				"element": "C" 
			},
			{
				"x": 1.5876616608,
				"y": 1.1390656496,
				"z": -0.9816601308,
				"element": "C" 
			},
			{
				"x": 1.8545597324,
				"y": -0.166363706,
				"z": -1.4966797979,
				"element": "C" 
			},
			{
				"x": 2.0941576487,
				"y": -1.2205601743,
				"z": -1.9229227763,
				"element": "N" 
			},
			{
				"x": 2.379782696,
				"y": 2.2311775374,
				"z": -1.3686251616,
				"element": "C" 
			},
			{
				"x": 3.3809000682,
				"y": 2.0162463541,
				"z": -2.2303648725,
				"element": "F" 
			},
			{
				"x": 2.1550571257,
				"y": 3.5148101283,
				"z": -0.8905979193,
				"element": "C" 
			},
			{
				"x": 1.1120073337,
				"y": 3.7201954621,
				"z": 0.0121547058,
				"element": "C" 
			},
			{
				"x": 0.3062271182,
				"y": 2.658433478,
				"z": 0.4292254265,
				"element": "C" 
			},
			{
				"x": -2.0422995201,
				"y": 1.0820121625,
				"z": -0.215570495,
				"element": "H" 
			},
			{
				"x": 2.7968508688,
				"y": 4.3227490992,
				"z": -1.2221477596,
				"element": "H" 
			},
			{
				"x": 0.9305254686,
				"y": 4.7165497596,
				"z": 0.4018683619,
				"element": "H" 
			},
			{
				"x": -0.4883898024,
				"y": 2.8069341339,
				"z": 1.1521490747,
				"element": "H" 
			}
		],
		 "valence_orbital": [ 
			{
				"type": "occ",
				"energy": -0.35931,
				"method": "rhf"
			},
			{
				"type": "occ",
				"energy": -0.34133,
				"method": "rhf"
			},
			{
				"type": "occ",
				"energy": -0.33722,
				"method": "rhf"
			},
			{
				"type": "occ",
				"energy": -0.28183,
				"method": "rhf"
			},
			{
				"type": "occ",
				"energy": -0.27756,
				"method": "rhf"
			},
			{
				"type": "unocc",
				"energy": -0.06802,
				"method": "rhf"
			},
			{
				"type": "unocc",
				"energy": -0.03587,
				"method": "rhf"
			},
			{
				"type": "unocc",
				"energy": 0.02575,
				"method": "rhf"
			},
			{
				"type": "unocc",
				"energy": 0.05854,
				"method": "rhf"
			},
			{
				"type": "unocc",
				"energy": 0.06096,
				"method": "rhf"
			}
		],
		"cosmo_sigma_profile": { 
			"-0.025": 0.0,
			"-0.024": 0.0,
			"-0.023": 0.0,
			"-0.022": 0.0,
			"-0.021": 0.0,
			"-0.02": 0.0,
			"-0.019": 0.0,
			"-0.018": 0.0,
			"-0.017": 0.0,
			"-0.016": 0.0,
			"-0.015": 0.0,
			"-0.014": 0.0,
			"-0.013": 0.0,
			"-0.012": 0.0,
			"-0.011": 1.1316945163,
			"-0.01": 3.98057298517,
			"-0.009": 5.96428138983,
			"-0.008": 8.31049964189,
			"-0.007": 8.14580667988,
			"-0.006": 7.19515129708,
			"-0.005": 5.54430286666,
			"-0.004": 6.65575292012,
			"-0.003": 11.3461513418,
			"-0.002": 15.6561370317,
			"-0.001": 14.0748246919,
			"0.0": 11.9182004317,
			"0.001": 15.074995642,
			"0.002": 15.6341792828,
			"0.003": 28.8282152704,
			"0.004": 10.7756171034,
			"0.005": 5.76329797256,
			"0.006": 4.81356137191,
			"0.007": 4.46221463213,
			"0.008": 3.59040440102,
			"0.009": 3.04976768051,
			"0.01": 2.75883970286,
			"0.011": 2.49152641951,
			"0.012": 2.06091939998,
			"0.013": 0.2964042647,
			"0.014": 0.0,
			"0.015": 0.0,
			"0.016": 0.0,
			"0.017": 0.0,
			"0.018": 0.0,
			"0.019": 0.0,
			"0.02": 0.0,
			"0.021": 0.0,
			"0.022": 0.0,
			"0.023": 0.0,
			"0.024": 0.0,
			"0.025": 0.0
		}
	}
}
