{
	 "smiles": "CC1=CSC(C(Cl)=O)=C1Cl", 
	 "Tm": 330.65, 
	 "num_atms": 14, 
	 "gaussian": { 
		 "optdone": 1, 
		 "sigma_profile": "yes", 
		 "theory": "DFT", 
		 "functional": "B3LYP", 
		 "basiset": "6-31G**", 
		 "properties": { 
			 "R2extent": 4147.459, 
			 "electric_dipole_moment_norm": 4.86645699149, 
			 "electric_quadrupole_moment_norm": 10.8206589351, 
			 "total_energy": -1624.83486881, 
			 "HOMO_LUMO_gap": 0.17842, 
			 "cosmo_polarized_energy": -6.85, 
			 "cosmo_cavitation_energy": 23.55, 
			 "cosmo_dispersion_energy": -18.14, 
			 "cosmo_repulsion_energy": 1.42, 
			 "cosmo_total_nonelectrostatic_energy": 6.83, 
			 "SMD_solvation_energy": 4.48 
		},
		"coords": [
			{
				"x": -0.6909535182,
				"y": -3.1288340449,
				"z": -0.3478984438,
				"element": "C" 
			},
			{
				"x": -0.5444735923,
				"y": -1.8771187444,
				"z": 0.4689136814,
				"element": "C" 
			},
			{
				"x": 0.6188033794,
				"y": -1.1617169935,
				"z": 0.6112064725,
				"element": "C" 
			},
			{
				"x": 0.462965467,
				"y": 0.2253545655,
				"z": 1.6129591488,
				"element": "S" 
			},
			{
				"x": -1.2353353042,
				"y": -0.1125850412,
				"z": 1.8909497876,
				"element": "C" 
			},
			{
				"x": -1.8916897232,
				"y": 0.8627527024,
				"z": 2.7589193549,
				"element": "C" 
			},
			{
				"x": -3.6418803116,
				"y": 0.6040138475,
				"z": 3.1073234733,
				"element": "Cl" 
			},
			{
				"x": -1.332536327,
				"y": 1.8096637714,
				"z": 3.2421992337,
				"element": "O" 
			},
			{
				"x": -1.6052031962,
				"y": -1.2645568889,
				"z": 1.2092187539,
				"element": "C" 
			},
			{
				"x": -3.1818609705,
				"y": -1.9874575418,
				"z": 1.1862380162,
				"element": "Cl" 
			},
			{
				"x": -1.0118434871,
				"y": -3.9719618909,
				"z": 0.2727600248,
				"element": "H" 
			},
			{
				"x": -1.4426356286,
				"y": -3.0034682355,
				"z": -1.1341480082,
				"element": "H" 
			},
			{
				"x": 0.2580067539,
				"y": -3.3930602715,
				"z": -0.8202709378,
				"element": "H" 
			},
			{
				"x": 1.5755364585,
				"y": -1.3955252342,
				"z": 0.1624294427,
				"element": "H" 
			}
		],
		 "valence_orbital": [ 
			{
				"type": "occ",
				"energy": -0.32088,
				"method": "rhf"
			},
			{
				"type": "occ",
				"energy": -0.31007,
				"method": "rhf"
			},
			{
				"type": "occ",
				"energy": -0.295,
				"method": "rhf"
			},
			{
				"type": "occ",
				"energy": -0.26636,
				"method": "rhf"
			},
			{
				"type": "occ",
				"energy": -0.2659,
				"method": "rhf"
			},
			{
				"type": "unocc",
				"energy": -0.08748,
				"method": "rhf"
			},
			{
				"type": "unocc",
				"energy": -0.01136,
				"method": "rhf"
			},
			{
				"type": "unocc",
				"energy": 0.00353,
				"method": "rhf"
			},
			{
				"type": "unocc",
				"energy": 0.01342,
				"method": "rhf"
			},
			{
				"type": "unocc",
				"energy": 0.04422,
				"method": "rhf"
			}
		],
		"cosmo_sigma_profile": { 
			"-0.025": 0.0,
			"-0.024": 0.0,
			"-0.023": 0.0,
			"-0.022": 0.0,
			"-0.021": 0.0,
			"-0.02": 0.0,
			"-0.019": 0.0,
			"-0.018": 0.0,
			"-0.017": 0.0,
			"-0.016": 0.0,
			"-0.015": 0.0,
			"-0.014": 0.0,
			"-0.013": 0.0,
			"-0.012": 0.0,
			"-0.011": 0.174724458972,
			"-0.01": 2.12141489973,
			"-0.009": 2.4399806577,
			"-0.008": 2.35830665575,
			"-0.007": 2.36742477882,
			"-0.006": 3.61697641626,
			"-0.005": 7.46455941289,
			"-0.004": 9.46584581338,
			"-0.003": 15.9895112767,
			"-0.002": 16.5459701661,
			"-0.001": 26.4255283798,
			"0.0": 21.5730322173,
			"0.001": 20.7466910382,
			"0.002": 17.9074036555,
			"0.003": 15.1262814671,
			"0.004": 12.9443061281,
			"0.005": 4.60280555576,
			"0.006": 2.51700846035,
			"0.007": 2.43558882674,
			"0.008": 3.68266685241,
			"0.009": 3.86452412593,
			"0.01": 1.18749003548,
			"0.011": 0.0,
			"0.012": 0.0,
			"0.013": 0.0,
			"0.014": 0.0,
			"0.015": 0.0,
			"0.016": 0.0,
			"0.017": 0.0,
			"0.018": 0.0,
			"0.019": 0.0,
			"0.02": 0.0,
			"0.021": 0.0,
			"0.022": 0.0,
			"0.023": 0.0,
			"0.024": 0.0,
			"0.025": 0.0
		}
	}
}
