{
	 "smiles": "FC1=CC=C(COC2=CC(=CC=C2)N2CCNCC2)C=C1", 
	 "Tm": 358.15, 
	 "num_atms": 40, 
	 "gaussian": { 
		 "optdone": 1, 
		 "sigma_profile": "yes", 
		 "theory": "DFT", 
		 "functional": "B3LYP", 
		 "basiset": "6-31G**", 
		 "properties": { 
			 "R2extent": 7640.9963, 
			 "electric_dipole_moment_norm": 2.15370418349, 
			 "electric_quadrupole_moment_norm": 10.0707508062, 
			 "total_energy": -943.79560123, 
			 "HOMO_LUMO_gap": 0.16268, 
			 "cosmo_polarized_energy": -12.38, 
			 "cosmo_cavitation_energy": 41.93, 
			 "cosmo_dispersion_energy": -28.59, 
			 "cosmo_repulsion_energy": 2.17, 
			 "cosmo_total_nonelectrostatic_energy": 15.52, 
			 "SMD_solvation_energy": 3.41 
		},
		"coords": [
			{
				"x": 0.157080136,
				"y": -5.4455620124,
				"z": -0.9477599127,
				"element": "F" 
			},
			{
				"x": -0.3441888414,
				"y": -4.3357078244,
				"z": -1.5304325632,
				"element": "C" 
			},
			{
				"x": -1.6578286493,
				"y": -3.9687477847,
				"z": -1.2636051655,
				"element": "C" 
			},
			{
				"x": -2.1632752914,
				"y": -2.815162652,
				"z": -1.865396592,
				"element": "C" 
			},
			{
				"x": -1.3726397011,
				"y": -2.0442747165,
				"z": -2.7258911527,
				"element": "C" 
			},
			{
				"x": -1.9592076531,
				"y": -0.8305994613,
				"z": -3.4237886446,
				"element": "C" 
			},
			{
				"x": -1.0096606897,
				"y": 0.1825420155,
				"z": -3.7314478296,
				"element": "O" 
			},
			{
				"x": -0.5766674522,
				"y": 1.0306051799,
				"z": -2.7397277128,
				"element": "C" 
			},
			{
				"x": -0.9153361248,
				"y": 0.8964326506,
				"z": -1.3950231511,
				"element": "C" 
			},
			{
				"x": -0.435670756,
				"y": 1.8166495518,
				"z": -0.4338248661,
				"element": "C" 
			},
			{
				"x": 0.3780219298,
				"y": 2.8758698411,
				"z": -0.8782546284,
				"element": "C" 
			},
			{
				"x": 0.6947882093,
				"y": 2.9980188733,
				"z": -2.2333828952,
				"element": "C" 
			},
			{
				"x": 0.2366803297,
				"y": 2.0866708328,
				"z": -3.1750145646,
				"element": "C" 
			},
			{
				"x": -0.8253094752,
				"y": 1.6736456638,
				"z": 0.9085769994,
				"element": "N" 
			},
			{
				"x": -0.5254413376,
				"y": 2.717332473,
				"z": 1.887815387,
				"element": "C" 
			},
			{
				"x": 0.7910323036,
				"y": 2.4472029551,
				"z": 2.6386103594,
				"element": "C" 
			},
			{
				"x": 0.8242147777,
				"y": 1.1162860925,
				"z": 3.2581364562,
				"element": "N" 
			},
			{
				"x": 0.4618916044,
				"y": 0.0688872977,
				"z": 2.2968698055,
				"element": "C" 
			},
			{
				"x": -0.8514094667,
				"y": 0.3489562347,
				"z": 1.5393176328,
				"element": "C" 
			},
			{
				"x": -0.0539276288,
				"y": -2.4445009771,
				"z": -2.9740227186,
				"element": "C" 
			},
			{
				"x": 0.4701734977,
				"y": -3.5892690278,
				"z": -2.3753793849,
				"element": "C" 
			},
			{
				"x": -2.2594073448,
				"y": -4.5744043945,
				"z": -0.5944123032,
				"element": "H" 
			},
			{
				"x": -3.188171108,
				"y": -2.5150388599,
				"z": -1.6593442723,
				"element": "H" 
			},
			{
				"x": -2.3610484587,
				"y": -1.1220934184,
				"z": -4.4008484811,
				"element": "H" 
			},
			{
				"x": -2.7924370756,
				"y": -0.4169907011,
				"z": -2.8396819465,
				"element": "H" 
			},
			{
				"x": -1.5635632363,
				"y": 0.0912350411,
				"z": -1.0797178413,
				"element": "H" 
			},
			{
				"x": 0.79166175,
				"y": 3.5904552082,
				"z": -0.177818847,
				"element": "H" 
			},
			{
				"x": 1.3284728002,
				"y": 3.8211705154,
				"z": -2.5525175744,
				"element": "H" 
			},
			{
				"x": 0.4802192049,
				"y": 2.1705498308,
				"z": -4.2280778628,
				"element": "H" 
			},
			{
				"x": -1.3486535357,
				"y": 2.7266392161,
				"z": 2.6192638974,
				"element": "H" 
			},
			{
				"x": -0.5290652273,
				"y": 3.6944780704,
				"z": 1.3993005282,
				"element": "H" 
			},
			{
				"x": 1.6330735294,
				"y": 2.5136204435,
				"z": 1.9379294174,
				"element": "H" 
			},
			{
				"x": 0.9518333217,
				"y": 3.2029039424,
				"z": 3.4165093878,
				"element": "H" 
			},
			{
				"x": 0.1595138237,
				"y": 1.0977521755,
				"z": 4.0308649105,
				"element": "H" 
			},
			{
				"x": 0.3964074394,
				"y": -0.8889062532,
				"z": 2.8264961615,
				"element": "H" 
			},
			{
				"x": 1.2772535589,
				"y": -0.0167696581,
				"z": 1.5665435213,
				"element": "H" 
			},
			{
				"x": -1.0259303408,
				"y": -0.4257565223,
				"z": 0.791453131,
				"element": "H" 
			},
			{
				"x": -1.6951892478,
				"y": 0.3180429041,
				"z": 2.2455508232,
				"element": "H" 
			},
			{
				"x": 0.5661956396,
				"y": -1.8447377661,
				"z": -3.6322980899,
				"element": "H" 
			},
			{
				"x": 1.4917147864,
				"y": -3.9079249793,
				"z": -2.5530694182,
				"element": "H" 
			}
		],
		 "valence_orbital": [ 
			{
				"type": "occ",
				"energy": -0.26334,
				"method": "rhf"
			},
			{
				"type": "occ",
				"energy": -0.24305,
				"method": "rhf"
			},
			{
				"type": "occ",
				"energy": -0.23179,
				"method": "rhf"
			},
			{
				"type": "occ",
				"energy": -0.21522,
				"method": "rhf"
			},
			{
				"type": "occ",
				"energy": -0.1784,
				"method": "rhf"
			},
			{
				"type": "unocc",
				"energy": -0.01572,
				"method": "rhf"
			},
			{
				"type": "unocc",
				"energy": -0.00485,
				"method": "rhf"
			},
			{
				"type": "unocc",
				"energy": 0.01281,
				"method": "rhf"
			},
			{
				"type": "unocc",
				"energy": 0.02492,
				"method": "rhf"
			},
			{
				"type": "unocc",
				"energy": 0.08036,
				"method": "rhf"
			}
		],
		"cosmo_sigma_profile": { 
			"-0.025": 0.0,
			"-0.024": 0.0,
			"-0.023": 0.0,
			"-0.022": 0.0,
			"-0.021": 0.0,
			"-0.02": 0.0,
			"-0.019": 0.0,
			"-0.018": 0.0,
			"-0.017": 0.0,
			"-0.016": 0.0,
			"-0.015": 0.0,
			"-0.014": 0.0,
			"-0.013": 0.0,
			"-0.012": 0.0,
			"-0.011": 0.0,
			"-0.01": 0.310283755689,
			"-0.009": 1.5167800719,
			"-0.008": 1.91657019073,
			"-0.007": 7.29418905796,
			"-0.006": 15.8734227772,
			"-0.005": 22.1619848203,
			"-0.004": 30.5408991266,
			"-0.003": 36.4491202929,
			"-0.002": 30.784476506,
			"-0.001": 25.350038607,
			"0.0": 19.1558547632,
			"0.001": 20.441222067,
			"0.002": 20.7436808904,
			"0.003": 20.3979408255,
			"0.004": 26.1496723244,
			"0.005": 17.3110223091,
			"0.006": 11.7026318474,
			"0.007": 9.83719306619,
			"0.008": 3.73085318265,
			"0.009": 2.39516318321,
			"0.01": 1.94179189589,
			"0.011": 1.23837665478,
			"0.012": 0.71497620644,
			"0.013": 0.373881315533,
			"0.014": 0.643843503898,
			"0.015": 0.902749972893,
			"0.016": 0.486642908563,
			"0.017": 0.648946569456,
			"0.018": 0.462194528441,
			"0.019": 0.17091483786,
			"0.02": 0.0,
			"0.021": 0.0,
			"0.022": 0.0,
			"0.023": 0.0,
			"0.024": 0.0,
			"0.025": 0.0
		}
	}
}
