{
	 "smiles": "NS(=O)(=O)C1=C(Cl)C=C(C=C1)C(F)(F)F", 
	 "Tm": 442.65, 
	 "num_atms": 20, 
	 "gaussian": { 
		 "optdone": 1, 
		 "sigma_profile": "yes", 
		 "theory": "DFT", 
		 "functional": "B3LYP", 
		 "basiset": "6-31G**", 
		 "properties": { 
			 "R2extent": 5155.3981, 
			 "electric_dipole_moment_norm": 3.94270980545, 
			 "electric_quadrupole_moment_norm": 20.4882428856, 
			 "total_energy": -1632.78347192, 
			 "HOMO_LUMO_gap": 0.209, 
			 "cosmo_polarized_energy": -16.03, 
			 "cosmo_cavitation_energy": 29.27, 
			 "cosmo_dispersion_energy": -21.55, 
			 "cosmo_repulsion_energy": 1.58, 
			 "cosmo_total_nonelectrostatic_energy": 9.3, 
			 "SMD_solvation_energy": 5.64 
		},
		"coords": [
			{
				"x": 1.5306246316,
				"y": 1.3439064142,
				"z": -2.8408875321,
				"element": "N" 
			},
			{
				"x": 1.5206086398,
				"y": 0.8115261844,
				"z": -1.235577208,
				"element": "S" 
			},
			{
				"x": 2.5042877893,
				"y": -0.2656409244,
				"z": -1.1290103961,
				"element": "O" 
			},
			{
				"x": 1.5660020109,
				"y": 2.0004132595,
				"z": -0.3847751952,
				"element": "O" 
			},
			{
				"x": -0.1266428231,
				"y": 0.0783449676,
				"z": -1.0822504936,
				"element": "C" 
			},
			{
				"x": -0.533659548,
				"y": -0.4954581708,
				"z": 0.1336880735,
				"element": "C" 
			},
			{
				"x": 0.5014013116,
				"y": -0.5315311281,
				"z": 1.5368634664,
				"element": "Cl" 
			},
			{
				"x": -1.8039297164,
				"y": -1.0581896513,
				"z": 0.2490794921,
				"element": "C" 
			},
			{
				"x": -2.6705821949,
				"y": -1.0502664217,
				"z": -0.8432416298,
				"element": "C" 
			},
			{
				"x": -2.275735619,
				"y": -0.480451654,
				"z": -2.0534015246,
				"element": "C" 
			},
			{
				"x": -1.0067964317,
				"y": 0.0810265879,
				"z": -2.1679602186,
				"element": "C" 
			},
			{
				"x": -4.0216063862,
				"y": -1.7114014905,
				"z": -0.7273761183,
				"element": "C" 
			},
			{
				"x": -4.4806330536,
				"y": -1.6939900571,
				"z": 0.5408213576,
				"element": "F" 
			},
			{
				"x": -4.9388124003,
				"y": -1.1009225399,
				"z": -1.5067549695,
				"element": "F" 
			},
			{
				"x": -3.9675415728,
				"y": -3.0042025281,
				"z": -1.1153626498,
				"element": "F" 
			},
			{
				"x": 2.2681828868,
				"y": 0.8608031972,
				"z": -3.3468087146,
				"element": "H" 
			},
			{
				"x": 1.6600924549,
				"y": 2.3520528138,
				"z": -2.8554425576,
				"element": "H" 
			},
			{
				"x": -2.1116469038,
				"y": -1.4912174847,
				"z": 1.1930517597,
				"element": "H" 
			},
			{
				"x": -2.9554421476,
				"y": -0.4669824093,
				"z": -2.8976706028,
				"element": "H" 
			},
			{
				"x": -0.6833709275,
				"y": 0.5300810351,
				"z": -3.0983843389,
				"element": "H" 
			}
		],
		 "valence_orbital": [ 
			{
				"type": "occ",
				"energy": -0.33145,
				"method": "rhf"
			},
			{
				"type": "occ",
				"energy": -0.32073,
				"method": "rhf"
			},
			{
				"type": "occ",
				"energy": -0.30196,
				"method": "rhf"
			},
			{
				"type": "occ",
				"energy": -0.29109,
				"method": "rhf"
			},
			{
				"type": "occ",
				"energy": -0.27363,
				"method": "rhf"
			},
			{
				"type": "unocc",
				"energy": -0.06463,
				"method": "rhf"
			},
			{
				"type": "unocc",
				"energy": -0.04402,
				"method": "rhf"
			},
			{
				"type": "unocc",
				"energy": 0.0038,
				"method": "rhf"
			},
			{
				"type": "unocc",
				"energy": 0.04271,
				"method": "rhf"
			},
			{
				"type": "unocc",
				"energy": 0.06567,
				"method": "rhf"
			}
		],
		"cosmo_sigma_profile": { 
			"-0.025": 0.0,
			"-0.024": 0.0,
			"-0.023": 0.0,
			"-0.022": 0.0,
			"-0.021": 0.0,
			"-0.02": 0.0,
			"-0.019": 0.0,
			"-0.018": 0.0,
			"-0.017": 0.0,
			"-0.016": 0.359219487049,
			"-0.015": 2.54739821109,
			"-0.014": 2.06430495084,
			"-0.013": 2.9141911368,
			"-0.012": 2.34236840376,
			"-0.011": 1.9421297318,
			"-0.01": 1.865688723,
			"-0.009": 2.66418327026,
			"-0.008": 5.52425844796,
			"-0.007": 7.48299861346,
			"-0.006": 7.05144745187,
			"-0.005": 7.27156417921,
			"-0.004": 8.64966970538,
			"-0.003": 9.66984738613,
			"-0.002": 16.0460329744,
			"-0.001": 25.7059888937,
			"0.0": 19.9883575393,
			"0.001": 15.8756595368,
			"0.002": 33.0972013377,
			"0.003": 20.6776031815,
			"0.004": 4.34545053868,
			"0.005": 3.58833958725,
			"0.006": 3.97472664414,
			"0.007": 4.28765598129,
			"0.008": 4.24147940333,
			"0.009": 4.12351167922,
			"0.01": 12.2742627797,
			"0.011": 6.49560182878,
			"0.012": 0.0956855976537,
			"0.013": 0.0,
			"0.014": 0.0,
			"0.015": 0.0,
			"0.016": 0.0,
			"0.017": 0.0,
			"0.018": 0.0,
			"0.019": 0.0,
			"0.02": 0.0,
			"0.021": 0.0,
			"0.022": 0.0,
			"0.023": 0.0,
			"0.024": 0.0,
			"0.025": 0.0
		}
	}
}
