{
	 "smiles": "SC1=NN=C(N1C1CCCCC1)C1=CC=CO1", 
	 "Tm": 408.15, 
	 "num_atms": 32, 
	 "gaussian": { 
		 "optdone": 1, 
		 "sigma_profile": "yes", 
		 "theory": "DFT", 
		 "functional": "B3LYP", 
		 "basiset": "6-31G**", 
		 "properties": { 
			 "R2extent": 4764.2642, 
			 "electric_dipole_moment_norm": 4.71557942993, 
			 "electric_quadrupole_moment_norm": 15.9391445602, 
			 "total_energy": -1103.93438927, 
			 "HOMO_LUMO_gap": 0.17974, 
			 "cosmo_polarized_energy": -13.73, 
			 "cosmo_cavitation_energy": 34.43, 
			 "cosmo_dispersion_energy": -25.42, 
			 "cosmo_repulsion_energy": 1.9, 
			 "cosmo_total_nonelectrostatic_energy": 10.91, 
			 "SMD_solvation_energy": 3.59 
		},
		"coords": [
			{
				"x": 2.1535988539,
				"y": 3.0614074318,
				"z": -0.0737577603,
				"element": "S" 
			},
			{
				"x": 0.516947666,
				"y": 2.5022442202,
				"z": 0.301122815,
				"element": "C" 
			},
			{
				"x": -0.3670445213,
				"y": 3.3246900217,
				"z": 0.8296588774,
				"element": "N" 
			},
			{
				"x": -1.5185914226,
				"y": 2.617235581,
				"z": 1.027816239,
				"element": "N" 
			},
			{
				"x": -1.3102967645,
				"y": 1.3862780622,
				"z": 0.6057275527,
				"element": "C" 
			},
			{
				"x": -0.0131730769,
				"y": 1.2444249765,
				"z": 0.1180528179,
				"element": "N" 
			},
			{
				"x": 0.5107566008,
				"y": -0.0322822524,
				"z": -0.4519773736,
				"element": "C" 
			},
			{
				"x": 1.1035172641,
				"y": -0.9542162119,
				"z": 0.6386388977,
				"element": "C" 
			},
			{
				"x": 2.5999997738,
				"y": -0.7455989111,
				"z": 0.8961355089,
				"element": "C" 
			},
			{
				"x": 3.3942415589,
				"y": -0.92846896,
				"z": -0.4037624571,
				"element": "C" 
			},
			{
				"x": 2.9542304856,
				"y": 0.0999495613,
				"z": -1.4544328136,
				"element": "C" 
			},
			{
				"x": 1.4303000319,
				"y": 0.1024588797,
				"z": -1.693310248,
				"element": "C" 
			},
			{
				"x": -2.3713984938,
				"y": 0.3959185491,
				"z": 0.6380395635,
				"element": "C" 
			},
			{
				"x": -3.7255890433,
				"y": 0.5740686574,
				"z": 0.7365881294,
				"element": "C" 
			},
			{
				"x": -4.302312065,
				"y": -0.7308606478,
				"z": 0.8118581849,
				"element": "C" 
			},
			{
				"x": -3.2665154024,
				"y": -1.6126923419,
				"z": 0.7516921077,
				"element": "C" 
			},
			{
				"x": -2.0791213281,
				"y": -0.9457501831,
				"z": 0.649232691,
				"element": "O" 
			},
			{
				"x": 1.864699111,
				"y": 4.2909301344,
				"z": 0.395424513,
				"element": "H" 
			},
			{
				"x": -0.3989168589,
				"y": -0.5115461087,
				"z": -0.8100758684,
				"element": "H" 
			},
			{
				"x": 0.9507410995,
				"y": -1.9869064637,
				"z": 0.2972708709,
				"element": "H" 
			},
			{
				"x": 0.5173401345,
				"y": -0.8457920156,
				"z": 1.555396533,
				"element": "H" 
			},
			{
				"x": 2.9380735627,
				"y": -1.4573918168,
				"z": 1.657995321,
				"element": "H" 
			},
			{
				"x": 2.7814251171,
				"y": 0.2577596459,
				"z": 1.3036569209,
				"element": "H" 
			},
			{
				"x": 3.2332551527,
				"y": -1.9479678042,
				"z": -0.7834610966,
				"element": "H" 
			},
			{
				"x": 4.4698051784,
				"y": -0.830325628,
				"z": -0.2180943481,
				"element": "H" 
			},
			{
				"x": 3.44866026,
				"y": -0.096332331,
				"z": -2.4131745465,
				"element": "H" 
			},
			{
				"x": 3.2986260031,
				"y": 1.0871497454,
				"z": -1.1381153676,
				"element": "H" 
			},
			{
				"x": 1.1943887176,
				"y": -0.7727760494,
				"z": -2.3117557852,
				"element": "H" 
			},
			{
				"x": 1.1308592021,
				"y": 0.9749930448,
				"z": -2.2837430496,
				"element": "H" 
			},
			{
				"x": -4.2287894791,
				"y": 1.5286303909,
				"z": 0.7553963477,
				"element": "H" 
			},
			{
				"x": -5.3508482403,
				"y": -0.9777406407,
				"z": 0.89499907,
				"element": "H" 
			},
			{
				"x": -3.1979690777,
				"y": -2.6890905359,
				"z": 0.762257753,
				"element": "H" 
			}
		],
		 "valence_orbital": [ 
			{
				"type": "occ",
				"energy": -0.28728,
				"method": "rhf"
			},
			{
				"type": "occ",
				"energy": -0.28204,
				"method": "rhf"
			},
			{
				"type": "occ",
				"energy": -0.25547,
				"method": "rhf"
			},
			{
				"type": "occ",
				"energy": -0.25099,
				"method": "rhf"
			},
			{
				"type": "occ",
				"energy": -0.20561,
				"method": "rhf"
			},
			{
				"type": "unocc",
				"energy": -0.02587,
				"method": "rhf"
			},
			{
				"type": "unocc",
				"energy": 0.01023,
				"method": "rhf"
			},
			{
				"type": "unocc",
				"energy": 0.03438,
				"method": "rhf"
			},
			{
				"type": "unocc",
				"energy": 0.04488,
				"method": "rhf"
			},
			{
				"type": "unocc",
				"energy": 0.05619,
				"method": "rhf"
			}
		],
		"cosmo_sigma_profile": { 
			"-0.025": 0.0,
			"-0.024": 0.0,
			"-0.023": 0.0,
			"-0.022": 0.0,
			"-0.021": 0.0,
			"-0.02": 0.0,
			"-0.019": 0.0,
			"-0.018": 0.0,
			"-0.017": 0.0,
			"-0.016": 0.0,
			"-0.015": 0.0,
			"-0.014": 0.0,
			"-0.013": 0.0,
			"-0.012": 0.461000934147,
			"-0.011": 1.361513858,
			"-0.01": 1.7830892496,
			"-0.009": 3.07591523295,
			"-0.008": 3.15583022351,
			"-0.007": 6.57882340894,
			"-0.006": 6.62733275996,
			"-0.005": 10.7502678661,
			"-0.004": 15.6522423119,
			"-0.003": 27.0311662571,
			"-0.002": 30.2453121176,
			"-0.001": 34.9452051522,
			"0.0": 33.2845651922,
			"0.001": 23.8127524793,
			"0.002": 16.7719511082,
			"0.003": 12.3628568871,
			"0.004": 12.4078965516,
			"0.005": 6.58385751466,
			"0.006": 3.60018198474,
			"0.007": 3.08017422656,
			"0.008": 1.95620468659,
			"0.009": 1.74833652143,
			"0.01": 2.32246556013,
			"0.011": 2.4221901971,
			"0.012": 1.94430364608,
			"0.013": 3.91290389026,
			"0.014": 2.8206621209,
			"0.015": 2.4694423912,
			"0.016": 1.26385579402,
			"0.017": 0.024995237944,
			"0.018": 0.0,
			"0.019": 0.0,
			"0.02": 0.0,
			"0.021": 0.0,
			"0.022": 0.0,
			"0.023": 0.0,
			"0.024": 0.0,
			"0.025": 0.0
		}
	}
}
