{
	 "smiles": "OC(=O)CCCCCCCCCCCC(O)=O", 
	 "Tm": 386.15, 
	 "num_atms": 41, 
	 "gaussian": { 
		 "optdone": 1, 
		 "sigma_profile": "yes", 
		 "theory": "DFT", 
		 "functional": "B3LYP", 
		 "basiset": "6-31G**", 
		 "properties": { 
			 "R2extent": 5582.9483, 
			 "electric_dipole_moment_norm": 5.83892395994, 
			 "electric_quadrupole_moment_norm": 22.5878424751, 
			 "total_energy": -810.805619237, 
			 "HOMO_LUMO_gap": 0.22545, 
			 "cosmo_polarized_energy": -15.34, 
			 "cosmo_cavitation_energy": 40.88, 
			 "cosmo_dispersion_energy": -26.98, 
			 "cosmo_repulsion_energy": 2.12, 
			 "cosmo_total_nonelectrostatic_energy": 16.02, 
			 "SMD_solvation_energy": 7.07 
		},
		"coords": [
			{
				"x": -3.0958159501,
				"y": 1.1987868933,
				"z": -0.1780299094,
				"element": "O" 
			},
			{
				"x": -3.3594679854,
				"y": 1.1560779154,
				"z": 1.147015826,
				"element": "C" 
			},
			{
				"x": -3.6954589849,
				"y": 2.1567676073,
				"z": 1.7380066406,
				"element": "O" 
			},
			{
				"x": -3.1587056783,
				"y": -0.1837327414,
				"z": 1.8502698615,
				"element": "C" 
			},
			{
				"x": -1.8258655584,
				"y": -0.1984507141,
				"z": 2.6293935501,
				"element": "C" 
			},
			{
				"x": -0.5906473876,
				"y": -0.2283841564,
				"z": 1.7196229448,
				"element": "C" 
			},
			{
				"x": 0.7319649198,
				"y": -0.1091977748,
				"z": 2.4871527321,
				"element": "C" 
			},
			{
				"x": 2.0084853333,
				"y": -0.3260969811,
				"z": 1.6538496508,
				"element": "C" 
			},
			{
				"x": 2.2085092079,
				"y": 0.6247823614,
				"z": 0.452023896,
				"element": "C" 
			},
			{
				"x": 1.6190945974,
				"y": 0.1207014452,
				"z": -0.8751124551,
				"element": "C" 
			},
			{
				"x": 1.9064929412,
				"y": 1.0505025378,
				"z": -2.0644478967,
				"element": "C" 
			},
			{
				"x": 1.3592564772,
				"y": 0.5431161261,
				"z": -3.4191394671,
				"element": "C" 
			},
			{
				"x": -0.0005061827,
				"y": 1.1177002738,
				"z": -3.8577073538,
				"element": "C" 
			},
			{
				"x": -1.1892226281,
				"y": 0.8856073382,
				"z": -2.9114289541,
				"element": "C" 
			},
			{
				"x": -1.58875439,
				"y": -0.5490638703,
				"z": -2.6585813407,
				"element": "C" 
			},
			{
				"x": -1.305734128,
				"y": -1.3827358582,
				"z": -3.6732515605,
				"element": "O" 
			},
			{
				"x": -2.1567192087,
				"y": -0.9526747933,
				"z": -1.6524116883,
				"element": "O" 
			},
			{
				"x": -2.8226869358,
				"y": 0.3274133686,
				"z": -0.5354851362,
				"element": "H" 
			},
			{
				"x": -3.1933399142,
				"y": -1.020250432,
				"z": 1.1424585785,
				"element": "H" 
			},
			{
				"x": -3.9910837697,
				"y": -0.2978747555,
				"z": 2.5505464744,
				"element": "H" 
			},
			{
				"x": -1.8133680038,
				"y": -1.0732452919,
				"z": 3.2916335687,
				"element": "H" 
			},
			{
				"x": -1.7985954175,
				"y": 0.6868755963,
				"z": 3.2762317405,
				"element": "H" 
			},
			{
				"x": -0.6001446866,
				"y": -1.1597502863,
				"z": 1.1359467425,
				"element": "H" 
			},
			{
				"x": -0.6629119542,
				"y": 0.5888964315,
				"z": 0.9922148822,
				"element": "H" 
			},
			{
				"x": 0.7336256839,
				"y": -0.8361174952,
				"z": 3.3114269805,
				"element": "H" 
			},
			{
				"x": 0.7773400484,
				"y": 0.8817614322,
				"z": 2.9603448933,
				"element": "H" 
			},
			{
				"x": 2.0373134089,
				"y": -1.3655991131,
				"z": 1.2970307112,
				"element": "H" 
			},
			{
				"x": 2.8643111707,
				"y": -0.2221257868,
				"z": 2.3322621055,
				"element": "H" 
			},
			{
				"x": 1.7927576232,
				"y": 1.6140237107,
				"z": 0.6911366496,
				"element": "H" 
			},
			{
				"x": 3.2845891005,
				"y": 0.7842591823,
				"z": 0.3011551185,
				"element": "H" 
			},
			{
				"x": 2.0458649877,
				"y": -0.868595857,
				"z": -1.0949257186,
				"element": "H" 
			},
			{
				"x": 0.5406061207,
				"y": -0.037568193,
				"z": -0.7706898154,
				"element": "H" 
			},
			{
				"x": 1.5109809243,
				"y": 2.0548376811,
				"z": -1.8554600586,
				"element": "H" 
			},
			{
				"x": 2.9942900311,
				"y": 1.174212386,
				"z": -2.1425224439,
				"element": "H" 
			},
			{
				"x": 2.074063775,
				"y": 0.7922405518,
				"z": -4.2123962199,
				"element": "H" 
			},
			{
				"x": 1.3052770926,
				"y": -0.5531500414,
				"z": -3.4055762555,
				"element": "H" 
			},
			{
				"x": -0.2509374697,
				"y": 0.7146165202,
				"z": -4.8449741973,
				"element": "H" 
			},
			{
				"x": 0.0980626609,
				"y": 2.2031198321,
				"z": -3.9831227535,
				"element": "H" 
			},
			{
				"x": -1.0432601098,
				"y": 1.353067933,
				"z": -1.9348658731,
				"element": "H" 
			},
			{
				"x": -2.0834524315,
				"y": 1.3679696527,
				"z": -3.3308129707,
				"element": "H" 
			},
			{
				"x": -1.6365073299,
				"y": -2.2602226356,
				"z": -3.4141814791,
				"element": "H" 
			}
		],
		 "valence_orbital": [ 
			{
				"type": "occ",
				"energy": -0.30528,
				"method": "rhf"
			},
			{
				"type": "occ",
				"energy": -0.3038,
				"method": "rhf"
			},
			{
				"type": "occ",
				"energy": -0.30079,
				"method": "rhf"
			},
			{
				"type": "occ",
				"energy": -0.28617,
				"method": "rhf"
			},
			{
				"type": "occ",
				"energy": -0.24492,
				"method": "rhf"
			},
			{
				"type": "unocc",
				"energy": -0.01947,
				"method": "rhf"
			},
			{
				"type": "unocc",
				"energy": 0.02961,
				"method": "rhf"
			},
			{
				"type": "unocc",
				"energy": 0.05133,
				"method": "rhf"
			},
			{
				"type": "unocc",
				"energy": 0.07581,
				"method": "rhf"
			},
			{
				"type": "unocc",
				"energy": 0.09273,
				"method": "rhf"
			}
		],
		"cosmo_sigma_profile": { 
			"-0.025": 0.0,
			"-0.024": 0.0,
			"-0.023": 0.0,
			"-0.022": 0.0,
			"-0.021": 0.0,
			"-0.02": 0.0,
			"-0.019": 0.409365587845,
			"-0.018": 0.827064022116,
			"-0.017": 1.07080236611,
			"-0.016": 0.731641823942,
			"-0.015": 0.617909825547,
			"-0.014": 0.795941816168,
			"-0.013": 0.633491468201,
			"-0.012": 1.0630352574,
			"-0.011": 0.633708357419,
			"-0.01": 0.314644774545,
			"-0.009": 0.402995302834,
			"-0.008": 1.18798778987,
			"-0.007": 4.41042427467,
			"-0.006": 4.14252440227,
			"-0.005": 5.87774382409,
			"-0.004": 10.9403776739,
			"-0.003": 25.8031174721,
			"-0.002": 50.8605380046,
			"-0.001": 61.374223555,
			"0.0": 44.5093610664,
			"0.001": 32.2646724597,
			"0.002": 13.6651290024,
			"0.003": 5.55772556573,
			"0.004": 4.93224797434,
			"0.005": 4.89989167763,
			"0.006": 4.50114570013,
			"0.007": 4.12446745719,
			"0.008": 4.06630916083,
			"0.009": 3.37735512188,
			"0.01": 3.63688250625,
			"0.011": 4.07663737739,
			"0.012": 5.45668465664,
			"0.013": 5.7833085763,
			"0.014": 2.18847462966,
			"0.015": 0.0831671399513,
			"0.016": 0.0,
			"0.017": 0.0,
			"0.018": 0.0,
			"0.019": 0.0,
			"0.02": 0.0,
			"0.021": 0.0,
			"0.022": 0.0,
			"0.023": 0.0,
			"0.024": 0.0,
			"0.025": 0.0
		}
	}
}
