{
	 "smiles": "CN(C)C(=O)COC1=CC(=CC=C1)C(O)=O", 
	 "Tm": 467.15, 
	 "num_atms": 29, 
	 "gaussian": { 
		 "optdone": 1, 
		 "sigma_profile": "yes", 
		 "theory": "DFT", 
		 "functional": "B3LYP", 
		 "basiset": "6-31G**", 
		 "properties": { 
			 "R2extent": 5628.5998, 
			 "electric_dipole_moment_norm": 5.22847341869, 
			 "electric_quadrupole_moment_norm": 12.4186773841, 
			 "total_energy": -782.661360622, 
			 "HOMO_LUMO_gap": 0.1914, 
			 "cosmo_polarized_energy": -18.42, 
			 "cosmo_cavitation_energy": 33.44, 
			 "cosmo_dispersion_energy": -23.97, 
			 "cosmo_repulsion_energy": 1.88, 
			 "cosmo_total_nonelectrostatic_energy": 11.36, 
			 "SMD_solvation_energy": 7.72 
		},
		"coords": [
			{
				"x": 2.2518271189,
				"y": -2.358824555,
				"z": -1.5006935933,
				"element": "C" 
			},
			{
				"x": 2.3973342793,
				"y": -1.1223931522,
				"z": -0.7443386156,
				"element": "N" 
			},
			{
				"x": 3.5226975937,
				"y": -0.2846560439,
				"z": -1.1242238774,
				"element": "C" 
			},
			{
				"x": 1.5327448664,
				"y": -0.8716826427,
				"z": 0.2927632301,
				"element": "C" 
			},
			{
				"x": 0.6256866535,
				"y": -1.6354802386,
				"z": 0.5969725164,
				"element": "O" 
			},
			{
				"x": 1.7469634163,
				"y": 0.4431027167,
				"z": 1.0759434887,
				"element": "C" 
			},
			{
				"x": 0.821921348,
				"y": 0.5657070369,
				"z": 2.1351293447,
				"element": "O" 
			},
			{
				"x": -0.4313003395,
				"y": 1.0579194927,
				"z": 1.8213913937,
				"element": "C" 
			},
			{
				"x": -0.5976395682,
				"y": 2.3943300109,
				"z": 1.4591541335,
				"element": "C" 
			},
			{
				"x": -1.8876016646,
				"y": 2.8879266853,
				"z": 1.2182219697,
				"element": "C" 
			},
			{
				"x": -3.0001146424,
				"y": 2.047576483,
				"z": 1.3552820865,
				"element": "C" 
			},
			{
				"x": -2.8189943018,
				"y": 0.7169051175,
				"z": 1.7267427312,
				"element": "C" 
			},
			{
				"x": -1.5372088331,
				"y": 0.214005828,
				"z": 1.9545233167,
				"element": "C" 
			},
			{
				"x": -2.1243763941,
				"y": 4.302044512,
				"z": 0.8289647687,
				"element": "C" 
			},
			{
				"x": -0.9791109888,
				"y": 5.0260446809,
				"z": 0.7195760081,
				"element": "O" 
			},
			{
				"x": -3.2150899382,
				"y": 4.7958208368,
				"z": 0.6190611249,
				"element": "O" 
			},
			{
				"x": 1.377928827,
				"y": -2.8891987257,
				"z": -1.1265469019,
				"element": "H" 
			},
			{
				"x": 2.1217962844,
				"y": -2.140246893,
				"z": -2.5677362614,
				"element": "H" 
			},
			{
				"x": 3.1408917484,
				"y": -2.9918021311,
				"z": -1.3835286079,
				"element": "H" 
			},
			{
				"x": 3.5398212194,
				"y": 0.6488354286,
				"z": -0.5644854787,
				"element": "H" 
			},
			{
				"x": 3.4662803241,
				"y": -0.0345644838,
				"z": -2.1912126624,
				"element": "H" 
			},
			{
				"x": 4.475313044,
				"y": -0.803759568,
				"z": -0.9509387501,
				"element": "H" 
			},
			{
				"x": 2.7411051793,
				"y": 0.4486221989,
				"z": 1.5352949617,
				"element": "H" 
			},
			{
				"x": 1.6866770769,
				"y": 1.3030021987,
				"z": 0.3946523137,
				"element": "H" 
			},
			{
				"x": 0.2608077271,
				"y": 3.051701675,
				"z": 1.3819654064,
				"element": "H" 
			},
			{
				"x": -3.9872174729,
				"y": 2.4554825978,
				"z": 1.1683636742,
				"element": "H" 
			},
			{
				"x": -3.6785808841,
				"y": 0.061521813,
				"z": 1.8302273065,
				"element": "H" 
			},
			{
				"x": -1.3628135865,
				"y": -0.8232945501,
				"z": 2.2131439301,
				"element": "H" 
			},
			{
				"x": -1.2616480922,
				"y": 5.9207536715,
				"z": 0.4691310431,
				"element": "H" 
			}
		],
		 "valence_orbital": [ 
			{
				"type": "occ",
				"energy": -0.27175,
				"method": "rhf"
			},
			{
				"type": "occ",
				"energy": -0.25869,
				"method": "rhf"
			},
			{
				"type": "occ",
				"energy": -0.25596,
				"method": "rhf"
			},
			{
				"type": "occ",
				"energy": -0.24676,
				"method": "rhf"
			},
			{
				"type": "occ",
				"energy": -0.23474,
				"method": "rhf"
			},
			{
				"type": "unocc",
				"energy": -0.04334,
				"method": "rhf"
			},
			{
				"type": "unocc",
				"energy": -0.00208,
				"method": "rhf"
			},
			{
				"type": "unocc",
				"energy": 0.02219,
				"method": "rhf"
			},
			{
				"type": "unocc",
				"energy": 0.06353,
				"method": "rhf"
			},
			{
				"type": "unocc",
				"energy": 0.07506,
				"method": "rhf"
			}
		],
		"cosmo_sigma_profile": { 
			"-0.025": 0.0,
			"-0.024": 0.0,
			"-0.023": 0.0,
			"-0.022": 0.0,
			"-0.021": 0.0,
			"-0.02": 0.0,
			"-0.019": 0.0480202964103,
			"-0.018": 0.623480122672,
			"-0.017": 0.888045328103,
			"-0.016": 1.12970281356,
			"-0.015": 0.504338921698,
			"-0.014": 0.508812396558,
			"-0.013": 0.701344545645,
			"-0.012": 0.963221426357,
			"-0.011": 0.914916489278,
			"-0.01": 0.772270720694,
			"-0.009": 0.504847329953,
			"-0.008": 4.67525427605,
			"-0.007": 10.4449389825,
			"-0.006": 11.4925423967,
			"-0.005": 19.7740232899,
			"-0.004": 22.6708741195,
			"-0.003": 23.4670676125,
			"-0.002": 24.0429962788,
			"-0.001": 15.7655835341,
			"0.0": 14.4216032586,
			"0.001": 15.8555115406,
			"0.002": 16.9973232959,
			"0.003": 16.2575108734,
			"0.004": 9.61378376093,
			"0.005": 6.10989631577,
			"0.006": 6.01612248461,
			"0.007": 6.6194253039,
			"0.008": 5.11795271585,
			"0.009": 4.48790172451,
			"0.01": 4.96397236773,
			"0.011": 7.6445083731,
			"0.012": 6.59335628489,
			"0.013": 3.47555452853,
			"0.014": 1.12974017364,
			"0.015": 0.0,
			"0.016": 0.0,
			"0.017": 0.0,
			"0.018": 0.0,
			"0.019": 0.0,
			"0.02": 0.0,
			"0.021": 0.0,
			"0.022": 0.0,
			"0.023": 0.0,
			"0.024": 0.0,
			"0.025": 0.0
		}
	}
}
