{
	 "smiles": "CC(=O)NC1=C(I)C(C(O)=O)=C(I)C(NC(C)=O)=C1I", 
	 "Tm": 573.15, 
	 "num_atms": 29, 
	 "gaussian": { 
		 "optdone": 1, 
		 "sigma_profile": "no", 
		 "theory": "DFT", 
		 "functional": "B3LYP", 
		 "basiset": "6-31G**", 
		 "properties": { 
			 "R2extent": 7043.1505, 
			 "electric_dipole_moment_norm": 6.50037872204, 
			 "electric_quadrupole_moment_norm": 22.5011183926, 
			 "total_energy": -869.156910176, 
			 "HOMO_LUMO_gap": 0.15898, 
			 "cosmo_polarized_energy": -177409.71, 
			 "cosmo_cavitation_energy": 43.27, 
			 "cosmo_dispersion_energy": -31.17, 
			 "cosmo_repulsion_energy": 2.34, 
			 "cosmo_total_nonelectrostatic_energy": 14.44, 
			 "SMD_solvation_energy": 8.11 
		},
		"coords": [
			{
				"x": 0.3094213593,
				"y": -2.3270554111,
				"z": 1.7247686089,
				"element": "C" 
			},
			{
				"x": 1.7945910806,
				"y": -2.3238435204,
				"z": 2.0229985743,
				"element": "C" 
			},
			{
				"x": 2.3887400886,
				"y": -3.2668994674,
				"z": 2.5126291383,
				"element": "O" 
			},
			{
				"x": 2.4917704193,
				"y": -1.1444262697,
				"z": 1.7474181112,
				"element": "N" 
			},
			{
				"x": 1.9582439355,
				"y": 0.0578546239,
				"z": 1.2432054647,
				"element": "C" 
			},
			{
				"x": 1.7362205974,
				"y": 1.1628040324,
				"z": 2.0883660711,
				"element": "C" 
			},
			{
				"x": 2.231112516,
				"y": 0.9803985667,
				"z": 4.1409397133,
				"element": "I" 
			},
			{
				"x": 1.208490725,
				"y": 2.3655690813,
				"z": 1.599134539,
				"element": "C" 
			},
			{
				"x": 0.9455807701,
				"y": 3.5331279398,
				"z": 2.5355924225,
				"element": "C" 
			},
			{
				"x": 1.9861315382,
				"y": 4.3800771933,
				"z": 2.7054219233,
				"element": "O" 
			},
			{
				"x": -0.1070664043,
				"y": 3.710170986,
				"z": 3.0869929355,
				"element": "O" 
			},
			{
				"x": 0.8254201913,
				"y": 2.4305948224,
				"z": 0.2526423931,
				"element": "C" 
			},
			{
				"x": -0.0720175635,
				"y": 4.2070209248,
				"z": -0.4926842897,
				"element": "I" 
			},
			{
				"x": 1.0310585224,
				"y": 1.3515819804,
				"z": -0.6275327366,
				"element": "C" 
			},
			{
				"x": 0.6284227074,
				"y": 1.4267446158,
				"z": -1.9733522025,
				"element": "N" 
			},
			{
				"x": -0.3849262666,
				"y": 0.6134367778,
				"z": -2.4908290585,
				"element": "C" 
			},
			{
				"x": -0.7552000292,
				"y": 0.9290333413,
				"z": -3.9266057226,
				"element": "C" 
			},
			{
				"x": -0.8785216728,
				"y": -0.2940309788,
				"z": -1.8498089657,
				"element": "O" 
			},
			{
				"x": 1.6727256838,
				"y": 0.2010285387,
				"z": -0.1290557624,
				"element": "C" 
			},
			{
				"x": 2.3710060602,
				"y": -1.2814082394,
				"z": -1.4633580966,
				"element": "I" 
			},
			{
				"x": 0.0818606321,
				"y": -2.014848265,
				"z": 0.7022679355,
				"element": "H" 
			},
			{
				"x": -0.0625863594,
				"y": -3.3373734793,
				"z": 1.8916302752,
				"element": "H" 
			},
			{
				"x": -0.2077751136,
				"y": -1.6390388829,
				"z": 2.4030453492,
				"element": "H" 
			},
			{
				"x": 3.4362893224,
				"y": -1.143766248,
				"z": 2.1146509443,
				"element": "H" 
			},
			{
				"x": 2.7538034317,
				"y": 4.0759879459,
				"z": 2.1988737402,
				"element": "H" 
			},
			{
				"x": 0.8012656218,
				"y": 2.3018720442,
				"z": -2.4499085412,
				"element": "H" 
			},
			{
				"x": -0.0312906716,
				"y": 0.4543379358,
				"z": -4.598353512,
				"element": "H" 
			},
			{
				"x": -1.7421961875,
				"y": 0.5139644932,
				"z": -4.1299744633,
				"element": "H" 
			},
			{
				"x": -0.7575749344,
				"y": 2.0033849184,
				"z": -4.1354147886,
				"element": "H" 
			}
		],
		 "valence_orbital": [ 
			{
				"type": "occ",
				"energy": -0.27679,
				"method": "rhf"
			},
			{
				"type": "occ",
				"energy": -0.27172,
				"method": "rhf"
			},
			{
				"type": "occ",
				"energy": -0.26198,
				"method": "rhf"
			},
			{
				"type": "occ",
				"energy": -0.25773,
				"method": "rhf"
			},
			{
				"type": "occ",
				"energy": -0.25142,
				"method": "rhf"
			},
			{
				"type": "unocc",
				"energy": -0.09244,
				"method": "rhf"
			},
			{
				"type": "unocc",
				"energy": -0.06492,
				"method": "rhf"
			},
			{
				"type": "unocc",
				"energy": -0.06268,
				"method": "rhf"
			},
			{
				"type": "unocc",
				"energy": -0.05155,
				"method": "rhf"
			},
			{
				"type": "unocc",
				"energy": -0.0436,
				"method": "rhf"
			}
		],
		"cosmo_sigma_profile": { 
			"0.0": 0.0,
			"0.0": 0.0,
			"0.0": 0.0,
			"0.0": 0.0,
			"0.0": 0.0,
			"0.0": 0.0,
			"0.0": 0.0,
			"0.0": 0.0,
			"0.0": 0.0,
			"0.0": 0.0,
			"0.0": 0.0,
			"0.0": 0.0,
			"0.0": 0.0,
			"0.0": 0.0,
			"0.0": 0.0,
			"0.0": 0.0,
			"0.0": 0.0,
			"0.0": 0.0,
			"0.0": 0.0,
			"0.0": 0.0,
			"0.0": 0.0,
			"0.0": 0.0,
			"0.0": 0.0,
			"0.0": 0.0,
			"0.0": 0.0,
			"0.0": 0.0,
			"0.0": 0.0,
			"0.0": 0.0,
			"0.0": 0.0,
			"0.0": 0.0,
			"0.0": 0.0,
			"0.0": 0.0,
			"0.0": 0.0,
			"0.0": 0.0,
			"0.0": 0.0,
			"0.0": 0.0,
			"0.0": 0.0,
			"0.0": 0.0,
			"0.0": 0.0,
			"0.0": 0.0,
			"0.0": 0.0,
			"0.0": 0.0,
			"0.0": 0.0,
			"0.0": 0.0,
			"0.0": 0.0,
			"0.0": 0.0,
			"0.0": 0.0,
			"0.0": 0.0,
			"0.0": 0.0,
			"0.0": 0.0,
			"0.0": 0.0
		}
	}
}
