{
	 "smiles": "OC(C(O)C(=O)OCC1=CC=CC=C1)C(=O)OCC1=CC=CC=C1", 
	 "Tm": 337.15, 
	 "num_atms": 42, 
	 "gaussian": { 
		 "optdone": 1, 
		 "sigma_profile": "yes", 
		 "theory": "DFT", 
		 "functional": "B3LYP", 
		 "basiset": "6-31G**", 
		 "properties": { 
			 "R2extent": 8224.4306, 
			 "electric_dipole_moment_norm": 4.58475416244, 
			 "electric_quadrupole_moment_norm": 9.69642680682, 
			 "total_energy": -1148.11254411, 
			 "HOMO_LUMO_gap": 0.23192, 
			 "cosmo_polarized_energy": -16.87, 
			 "cosmo_cavitation_energy": 46.97, 
			 "cosmo_dispersion_energy": -29.75, 
			 "cosmo_repulsion_energy": 2.26, 
			 "cosmo_total_nonelectrostatic_energy": 19.48, 
			 "SMD_solvation_energy": 8.76 
		},
		"coords": [
			{
				"x": -3.2342720161,
				"y": 0.0396027671,
				"z": 1.9763913397,
				"element": "O" 
			},
			{
				"x": -2.0133779847,
				"y": 0.7373765677,
				"z": 1.9512010995,
				"element": "C" 
			},
			{
				"x": -2.2041335711,
				"y": 2.097876443,
				"z": 1.2071917346,
				"element": "C" 
			},
			{
				"x": -3.2890201047,
				"y": 2.7781894607,
				"z": 1.7772647705,
				"element": "O" 
			},
			{
				"x": -2.4535046171,
				"y": 1.8690133375,
				"z": -0.2878650761,
				"element": "C" 
			},
			{
				"x": -3.5500075819,
				"y": 1.6622501455,
				"z": -0.7600170851,
				"element": "O" 
			},
			{
				"x": -1.3021031564,
				"y": 1.9125087513,
				"z": -0.992969564,
				"element": "O" 
			},
			{
				"x": -1.3978281783,
				"y": 1.6918690441,
				"z": -2.4367067304,
				"element": "C" 
			},
			{
				"x": -1.1143980868,
				"y": 0.2580472593,
				"z": -2.7996750213,
				"element": "C" 
			},
			{
				"x": -2.1423443141,
				"y": -0.6948881181,
				"z": -2.7884594101,
				"element": "C" 
			},
			{
				"x": -1.8737678474,
				"y": -2.0240123672,
				"z": -3.1136029164,
				"element": "C" 
			},
			{
				"x": -0.5769756207,
				"y": -2.4151603541,
				"z": -3.4542466212,
				"element": "C" 
			},
			{
				"x": 0.4527223557,
				"y": -1.4723904789,
				"z": -3.4693478314,
				"element": "C" 
			},
			{
				"x": 0.1835126708,
				"y": -0.1418841076,
				"z": -3.1436664992,
				"element": "C" 
			},
			{
				"x": -0.936038656,
				"y": -0.1312349178,
				"z": 1.3139951738,
				"element": "C" 
			},
			{
				"x": -1.207141473,
				"y": -1.1584520709,
				"z": 0.722329714,
				"element": "O" 
			},
			{
				"x": 0.2866983334,
				"y": 0.3855977403,
				"z": 1.455873964,
				"element": "O" 
			},
			{
				"x": 1.3659310922,
				"y": -0.3008405642,
				"z": 0.7564916507,
				"element": "C" 
			},
			{
				"x": 2.514043666,
				"y": 0.6579041647,
				"z": 0.5917723808,
				"element": "C" 
			},
			{
				"x": 3.7947479918,
				"y": 0.3150446086,
				"z": 1.0355335846,
				"element": "C" 
			},
			{
				"x": 4.8692148689,
				"y": 1.186990546,
				"z": 0.8442766967,
				"element": "C" 
			},
			{
				"x": 4.666708341,
				"y": 2.4159159049,
				"z": 0.2166985763,
				"element": "C" 
			},
			{
				"x": 3.3870284002,
				"y": 2.7689523317,
				"z": -0.221932619,
				"element": "C" 
			},
			{
				"x": 2.3172978478,
				"y": 1.8942879882,
				"z": -0.0405326536,
				"element": "C" 
			},
			{
				"x": -3.1484304361,
				"y": -0.6766468864,
				"z": 1.323908532,
				"element": "H" 
			},
			{
				"x": -1.7236383589,
				"y": 0.9885282592,
				"z": 2.9783413308,
				"element": "H" 
			},
			{
				"x": -1.3085117674,
				"y": 2.7096610436,
				"z": 1.3370525042,
				"element": "H" 
			},
			{
				"x": -4.0505578802,
				"y": 2.1851860949,
				"z": 1.6711800817,
				"element": "H" 
			},
			{
				"x": -2.3937632713,
				"y": 2.0005495391,
				"z": -2.7577320494,
				"element": "H" 
			},
			{
				"x": -0.6475177807,
				"y": 2.3631025182,
				"z": -2.8588349091,
				"element": "H" 
			},
			{
				"x": -3.1476745107,
				"y": -0.3870191224,
				"z": -2.5168889854,
				"element": "H" 
			},
			{
				"x": -2.6768027033,
				"y": -2.7551673548,
				"z": -3.1021564821,
				"element": "H" 
			},
			{
				"x": -0.3702035016,
				"y": -3.4504991965,
				"z": -3.7095984651,
				"element": "H" 
			},
			{
				"x": 1.4618077474,
				"y": -1.7702448674,
				"z": -3.7395710042,
				"element": "H" 
			},
			{
				"x": 0.9853277952,
				"y": 0.5926595088,
				"z": -3.1597770425,
				"element": "H" 
			},
			{
				"x": 0.9749080868,
				"y": -0.647469731,
				"z": -0.2042677502,
				"element": "H" 
			},
			{
				"x": 1.6532538088,
				"y": -1.1780727019,
				"z": 1.3435169123,
				"element": "H" 
			},
			{
				"x": 3.9537819395,
				"y": -0.6381810719,
				"z": 1.5336711,
				"element": "H" 
			},
			{
				"x": 5.8595434099,
				"y": 0.9083681601,
				"z": 1.1926524982,
				"element": "H" 
			},
			{
				"x": 5.4995553767,
				"y": 3.098029958,
				"z": 0.0720997356,
				"element": "H" 
			},
			{
				"x": 3.2244990269,
				"y": 3.7273234769,
				"z": -0.7070510007,
				"element": "H" 
			},
			{
				"x": 1.3206306594,
				"y": 2.1679282918,
				"z": -0.3750436633,
				"element": "H" 
			}
		],
		 "valence_orbital": [ 
			{
				"type": "occ",
				"energy": -0.26543,
				"method": "rhf"
			},
			{
				"type": "occ",
				"energy": -0.25907,
				"method": "rhf"
			},
			{
				"type": "occ",
				"energy": -0.2563,
				"method": "rhf"
			},
			{
				"type": "occ",
				"energy": -0.25361,
				"method": "rhf"
			},
			{
				"type": "occ",
				"energy": -0.25077,
				"method": "rhf"
			},
			{
				"type": "unocc",
				"energy": -0.01885,
				"method": "rhf"
			},
			{
				"type": "unocc",
				"energy": -0.01725,
				"method": "rhf"
			},
			{
				"type": "unocc",
				"energy": -0.01151,
				"method": "rhf"
			},
			{
				"type": "unocc",
				"energy": -0.00693,
				"method": "rhf"
			},
			{
				"type": "unocc",
				"energy": -0.00425,
				"method": "rhf"
			}
		],
		"cosmo_sigma_profile": { 
			"-0.025": 0.0,
			"-0.024": 0.0,
			"-0.023": 0.0,
			"-0.022": 0.0,
			"-0.021": 0.0,
			"-0.02": 0.0,
			"-0.019": 0.0,
			"-0.018": 0.0,
			"-0.017": 0.0,
			"-0.016": 0.0,
			"-0.015": 0.0,
			"-0.014": 0.124669035539,
			"-0.013": 0.463399140918,
			"-0.012": 0.990811972982,
			"-0.011": 0.77090747628,
			"-0.01": 0.796923898762,
			"-0.009": 1.25560066393,
			"-0.008": 3.59429163472,
			"-0.007": 10.5625744637,
			"-0.006": 23.4360953876,
			"-0.005": 28.7916805836,
			"-0.004": 33.0491704764,
			"-0.003": 31.1090671985,
			"-0.002": 24.911399571,
			"-0.001": 28.5609250715,
			"0.0": 24.5414445469,
			"0.001": 23.6207651737,
			"0.002": 21.2047325104,
			"0.003": 22.2324492849,
			"0.004": 21.2201521368,
			"0.005": 24.122509003,
			"0.006": 11.7371821791,
			"0.007": 7.37026245286,
			"0.008": 6.69380875601,
			"0.009": 5.51585089715,
			"0.01": 7.19136849234,
			"0.011": 5.01412354059,
			"0.012": 3.21002281377,
			"0.013": 1.21032193203,
			"0.014": 0.0,
			"0.015": 0.0,
			"0.016": 0.0,
			"0.017": 0.0,
			"0.018": 0.0,
			"0.019": 0.0,
			"0.02": 0.0,
			"0.021": 0.0,
			"0.022": 0.0,
			"0.023": 0.0,
			"0.024": 0.0,
			"0.025": 0.0
		}
	}
}
