{
	 "smiles": "CC1=CC=C(C=C1)C1=NN(CC(O)=O)N=N1", 
	 "Tm": 462.15, 
	 "num_atms": 26, 
	 "gaussian": { 
		 "optdone": 1, 
		 "sigma_profile": "yes", 
		 "theory": "DFT", 
		 "functional": "B3LYP", 
		 "basiset": "6-31G**", 
		 "properties": { 
			 "R2extent": 5961.9826, 
			 "electric_dipole_moment_norm": 3.01535105253, 
			 "electric_quadrupole_moment_norm": 22.5519617612, 
			 "total_energy": -756.518670791, 
			 "HOMO_LUMO_gap": 0.19241, 
			 "cosmo_polarized_energy": -16.63, 
			 "cosmo_cavitation_energy": 32.07, 
			 "cosmo_dispersion_energy": -23.1, 
			 "cosmo_repulsion_energy": 1.81, 
			 "cosmo_total_nonelectrostatic_energy": 10.78, 
			 "SMD_solvation_energy": 4.43 
		},
		"coords": [
			{
				"x": -1.3552552307,
				"y": 1.8162507028,
				"z": -4.0391785376,
				"element": "C" 
			},
			{
				"x": -0.5981688999,
				"y": 1.4423915452,
				"z": -2.7874205218,
				"element": "C" 
			},
			{
				"x": -0.0823383117,
				"y": 2.4279443418,
				"z": -1.9341950623,
				"element": "C" 
			},
			{
				"x": 0.6415886979,
				"y": 2.0899513854,
				"z": -0.7943316747,
				"element": "C" 
			},
			{
				"x": 0.8669594823,
				"y": 0.7430325618,
				"z": -0.4758895408,
				"element": "C" 
			},
			{
				"x": 0.3518293551,
				"y": -0.251823003,
				"z": -1.3196747525,
				"element": "C" 
			},
			{
				"x": -0.3699816843,
				"y": 0.098722807,
				"z": -2.4564715929,
				"element": "C" 
			},
			{
				"x": 1.6256925046,
				"y": 0.3890297243,
				"z": 0.7259497178,
				"element": "C" 
			},
			{
				"x": 1.9053616955,
				"y": -0.8604145569,
				"z": 1.1043957188,
				"element": "N" 
			},
			{
				"x": 2.6018087002,
				"y": -0.6532968856,
				"z": 2.2187262343,
				"element": "N" 
			},
			{
				"x": 3.0934501686,
				"y": -1.7196915181,
				"z": 3.055467489,
				"element": "C" 
			},
			{
				"x": 1.9974377561,
				"y": -2.3061688549,
				"z": 3.9419308135,
				"element": "C" 
			},
			{
				"x": 2.4926723918,
				"y": -3.3614081143,
				"z": 4.6241986258,
				"element": "O" 
			},
			{
				"x": 0.8690368723,
				"y": -1.8977121171,
				"z": 4.0385141605,
				"element": "O" 
			},
			{
				"x": 2.7515476308,
				"y": 0.6336504376,
				"z": 2.5353814231,
				"element": "N" 
			},
			{
				"x": 2.1436443772,
				"y": 1.3056870494,
				"z": 1.5971261256,
				"element": "N" 
			},
			{
				"x": -1.8770690431,
				"y": 2.7707042086,
				"z": -3.9216478223,
				"element": "H" 
			},
			{
				"x": -2.0949601796,
				"y": 1.0542990451,
				"z": -4.3028135545,
				"element": "H" 
			},
			{
				"x": -0.6765341775,
				"y": 1.9202066099,
				"z": -4.8953508984,
				"element": "H" 
			},
			{
				"x": -0.2523238761,
				"y": 3.4765160839,
				"z": -2.1655876636,
				"element": "H" 
			},
			{
				"x": 1.0338424932,
				"y": 2.8612663286,
				"z": -0.14004167,
				"element": "H" 
			},
			{
				"x": 0.5163575521,
				"y": -1.2960872,
				"z": -1.0746546352,
				"element": "H" 
			},
			{
				"x": -0.7667915179,
				"y": -0.6839035163,
				"z": -3.0984013159,
				"element": "H" 
			},
			{
				"x": 3.8862483268,
				"y": -1.3109498984,
				"z": 3.6862370732,
				"element": "H" 
			},
			{
				"x": 3.5183635378,
				"y": -2.5065037861,
				"z": 2.4281468527,
				"element": "H" 
			},
			{
				"x": 1.7725813784,
				"y": -3.6941933806,
				"z": 5.186185008,
				"element": "H" 
			}
		],
		 "valence_orbital": [ 
			{
				"type": "occ",
				"energy": -0.30811,
				"method": "rhf"
			},
			{
				"type": "occ",
				"energy": -0.29649,
				"method": "rhf"
			},
			{
				"type": "occ",
				"energy": -0.28696,
				"method": "rhf"
			},
			{
				"type": "occ",
				"energy": -0.25063,
				"method": "rhf"
			},
			{
				"type": "occ",
				"energy": -0.22879,
				"method": "rhf"
			},
			{
				"type": "unocc",
				"energy": -0.03638,
				"method": "rhf"
			},
			{
				"type": "unocc",
				"energy": -0.02014,
				"method": "rhf"
			},
			{
				"type": "unocc",
				"energy": -0.01072,
				"method": "rhf"
			},
			{
				"type": "unocc",
				"energy": 0.00107,
				"method": "rhf"
			},
			{
				"type": "unocc",
				"energy": 0.05956,
				"method": "rhf"
			}
		],
		"cosmo_sigma_profile": { 
			"-0.025": 0.0,
			"-0.024": 0.0,
			"-0.023": 0.0,
			"-0.022": 0.0,
			"-0.021": 0.0,
			"-0.02": 0.0100984171155,
			"-0.019": 0.867345454036,
			"-0.018": 0.762130211759,
			"-0.017": 1.12885551715,
			"-0.016": 0.646773274508,
			"-0.015": 1.08656592145,
			"-0.014": 0.651749839151,
			"-0.013": 0.424342611828,
			"-0.012": 0.721658818303,
			"-0.011": 2.83040160631,
			"-0.01": 4.35795847553,
			"-0.009": 4.66014770288,
			"-0.008": 5.24659394641,
			"-0.007": 4.37631336372,
			"-0.006": 7.39246386981,
			"-0.005": 12.7353363896,
			"-0.004": 20.7222468752,
			"-0.003": 16.4753195883,
			"-0.002": 15.562755849,
			"-0.001": 18.4889572425,
			"0.0": 19.2997228447,
			"0.001": 17.8683233395,
			"0.002": 15.493851211,
			"0.003": 15.1117456009,
			"0.004": 15.3994069603,
			"0.005": 12.4440264625,
			"0.006": 6.52924437873,
			"0.007": 7.10906337359,
			"0.008": 8.04137478911,
			"0.009": 5.23505704051,
			"0.01": 7.441864887,
			"0.011": 5.47346997544,
			"0.012": 1.19620984003,
			"0.013": 0.617967860136,
			"0.014": 0.0,
			"0.015": 0.0,
			"0.016": 0.0,
			"0.017": 0.0,
			"0.018": 0.0,
			"0.019": 0.0,
			"0.02": 0.0,
			"0.021": 0.0,
			"0.022": 0.0,
			"0.023": 0.0,
			"0.024": 0.0,
			"0.025": 0.0
		}
	}
}
