{
	 "smiles": "CCCC1=NC2=NC(=NN2C(Cl)=C1)C(=O)OC", 
	 "Tm": 391.15, 
	 "num_atms": 28, 
	 "gaussian": { 
		 "optdone": 1, 
		 "sigma_profile": "yes", 
		 "theory": "DFT", 
		 "functional": "B3LYP", 
		 "basiset": "6-31G**", 
		 "properties": { 
			 "R2extent": 6547.1628, 
			 "electric_dipole_moment_norm": 3.99962969036, 
			 "electric_quadrupole_moment_norm": 17.5371734119, 
			 "total_energy": -1217.32551788, 
			 "HOMO_LUMO_gap": 0.18483, 
			 "cosmo_polarized_energy": -18.14, 
			 "cosmo_cavitation_energy": 35.18, 
			 "cosmo_dispersion_energy": -25.35, 
			 "cosmo_repulsion_energy": 2.0, 
			 "cosmo_total_nonelectrostatic_energy": 11.83, 
			 "SMD_solvation_energy": 3.35 
		},
		"coords": [
			{
				"x": -1.7966037279,
				"y": 1.4810335567,
				"z": 2.5798215285,
				"element": "C" 
			},
			{
				"x": -2.8966293833,
				"y": 1.3380549735,
				"z": 1.5241362701,
				"element": "C" 
			},
			{
				"x": -2.8941116849,
				"y": -0.0281923306,
				"z": 0.7991477605,
				"element": "C" 
			},
			{
				"x": -1.660528772,
				"y": -0.2625323798,
				"z": -0.0387039842,
				"element": "C" 
			},
			{
				"x": -0.7338274772,
				"y": -1.0792931,
				"z": 0.437159699,
				"element": "N" 
			},
			{
				"x": 0.3671973202,
				"y": -1.2641513691,
				"z": -0.3077448314,
				"element": "C" 
			},
			{
				"x": 1.435091133,
				"y": -2.0179233281,
				"z": -0.07476629,
				"element": "N" 
			},
			{
				"x": 2.2082291012,
				"y": -1.8081373294,
				"z": -1.1656969004,
				"element": "C" 
			},
			{
				"x": 1.7280006065,
				"y": -0.9728687067,
				"z": -2.0985960288,
				"element": "N" 
			},
			{
				"x": 0.5486629834,
				"y": -0.6209605108,
				"z": -1.5531051336,
				"element": "N" 
			},
			{
				"x": -0.4017597314,
				"y": 0.2199138737,
				"z": -2.0487386684,
				"element": "C" 
			},
			{
				"x": -0.1171136225,
				"y": 0.9619826442,
				"z": -3.5746808347,
				"element": "Cl" 
			},
			{
				"x": -1.5276117393,
				"y": 0.4132222089,
				"z": -1.2929725815,
				"element": "C" 
			},
			{
				"x": 3.5437639994,
				"y": -2.4433330719,
				"z": -1.3864224952,
				"element": "C" 
			},
			{
				"x": 4.2291566794,
				"y": -2.2501473547,
				"z": -2.3661932582,
				"element": "O" 
			},
			{
				"x": 3.8749050991,
				"y": -3.2466387914,
				"z": -0.3631349144,
				"element": "O" 
			},
			{
				"x": 5.14784508,
				"y": -3.8997188959,
				"z": -0.4947500571,
				"element": "C" 
			},
			{
				"x": -0.7981873749,
				"y": 1.3907843109,
				"z": 2.1410285205,
				"element": "H" 
			},
			{
				"x": -1.8580090358,
				"y": 2.4553963386,
				"z": 3.0746392514,
				"element": "H" 
			},
			{
				"x": -1.8858205889,
				"y": 0.7064014906,
				"z": 3.348740591,
				"element": "H" 
			},
			{
				"x": -3.8785878272,
				"y": 1.4629592133,
				"z": 1.9958663385,
				"element": "H" 
			},
			{
				"x": -2.8102789367,
				"y": 2.143804875,
				"z": 0.7832110882,
				"element": "H" 
			},
			{
				"x": -3.7796055369,
				"y": -0.0910489331,
				"z": 0.1545676031,
				"element": "H" 
			},
			{
				"x": -2.9563349485,
				"y": -0.8371053324,
				"z": 1.5325428812,
				"element": "H" 
			},
			{
				"x": -2.3071921284,
				"y": 1.071077295,
				"z": -1.6549095671,
				"element": "H" 
			},
			{
				"x": 5.95179219,
				"y": -3.1629208405,
				"z": -0.56834624,
				"element": "H" 
			},
			{
				"x": 5.1655401189,
				"y": -4.5303220004,
				"z": -1.387296671,
				"element": "H" 
			},
			{
				"x": 5.2599182045,
				"y": -4.5032365057,
				"z": 0.4052969237,
				"element": "H" 
			}
		],
		 "valence_orbital": [ 
			{
				"type": "occ",
				"energy": -0.29662,
				"method": "rhf"
			},
			{
				"type": "occ",
				"energy": -0.28716,
				"method": "rhf"
			},
			{
				"type": "occ",
				"energy": -0.28016,
				"method": "rhf"
			},
			{
				"type": "occ",
				"energy": -0.27518,
				"method": "rhf"
			},
			{
				"type": "occ",
				"energy": -0.26282,
				"method": "rhf"
			},
			{
				"type": "unocc",
				"energy": -0.07799,
				"method": "rhf"
			},
			{
				"type": "unocc",
				"energy": -0.04571,
				"method": "rhf"
			},
			{
				"type": "unocc",
				"energy": -0.01095,
				"method": "rhf"
			},
			{
				"type": "unocc",
				"energy": 0.00038,
				"method": "rhf"
			},
			{
				"type": "unocc",
				"energy": 0.079,
				"method": "rhf"
			}
		],
		"cosmo_sigma_profile": { 
			"-0.025": 0.0,
			"-0.024": 0.0,
			"-0.023": 0.0,
			"-0.022": 0.0,
			"-0.021": 0.0,
			"-0.02": 0.0,
			"-0.019": 0.0,
			"-0.018": 0.0,
			"-0.017": 0.0,
			"-0.016": 0.0,
			"-0.015": 0.0,
			"-0.014": 0.0,
			"-0.013": 0.0,
			"-0.012": 0.0,
			"-0.011": 0.0,
			"-0.01": 1.10838845258,
			"-0.009": 2.14226815823,
			"-0.008": 3.22137441542,
			"-0.007": 7.14074020624,
			"-0.006": 15.0124190684,
			"-0.005": 20.0091530796,
			"-0.004": 26.7015973919,
			"-0.003": 34.3897387455,
			"-0.002": 30.6508344785,
			"-0.001": 25.2103600656,
			"0.0": 19.5609539874,
			"0.001": 20.6045804039,
			"0.002": 11.3120422675,
			"0.003": 6.11415255246,
			"0.004": 5.06024481878,
			"0.005": 6.14967782961,
			"0.006": 5.03679429184,
			"0.007": 3.93343276535,
			"0.008": 5.50401140309,
			"0.009": 5.51278576512,
			"0.01": 6.59659268291,
			"0.011": 8.59689669904,
			"0.012": 5.72515491799,
			"0.013": 4.36659788177,
			"0.014": 1.9088537078,
			"0.015": 0.986749405151,
			"0.016": 0.131591355309,
			"0.017": 0.0,
			"0.018": 0.0,
			"0.019": 0.0,
			"0.02": 0.0,
			"0.021": 0.0,
			"0.022": 0.0,
			"0.023": 0.0,
			"0.024": 0.0,
			"0.025": 0.0
		}
	}
}
