{
	 "smiles": "O=C(N1CCN(CC1)C(=O)C1=CC=CC=C1)C1=CC=CC=C1", 
	 "Tm": 467.15, 
	 "num_atms": 40, 
	 "gaussian": { 
		 "optdone": 1, 
		 "sigma_profile": "yes", 
		 "theory": "DFT", 
		 "functional": "B3LYP", 
		 "basiset": "6-31G**", 
		 "properties": { 
			 "R2extent": 10485.3425, 
			 "electric_dipole_moment_norm": 2.79115311834, 
			 "electric_quadrupole_moment_norm": 30.9224551621, 
			 "total_energy": -956.733332251, 
			 "HOMO_LUMO_gap": 0.20552, 
			 "cosmo_polarized_energy": -19.22, 
			 "cosmo_cavitation_energy": 42.59, 
			 "cosmo_dispersion_energy": -30.3, 
			 "cosmo_repulsion_energy": 2.29, 
			 "cosmo_total_nonelectrostatic_energy": 14.58, 
			 "SMD_solvation_energy": 6.3 
		},
		"coords": [
			{
				"x": 1.2696699931,
				"y": 1.3822529584,
				"z": 2.4327265244,
				"element": "O" 
			},
			{
				"x": 0.2344850423,
				"y": 0.9059462233,
				"z": 1.9686749177,
				"element": "C" 
			},
			{
				"x": 0.2135847518,
				"y": 0.3840888447,
				"z": 0.6940182267,
				"element": "N" 
			},
			{
				"x": -0.7830786163,
				"y": -0.560808362,
				"z": 0.173909852,
				"element": "C" 
			},
			{
				"x": -0.1042984396,
				"y": -1.7489469499,
				"z": -0.5046860238,
				"element": "C" 
			},
			{
				"x": 0.7399134065,
				"y": -1.2899038309,
				"z": -1.615582849,
				"element": "N" 
			},
			{
				"x": 1.2530259148,
				"y": 0.082474399,
				"z": -1.5155265487,
				"element": "C" 
			},
			{
				"x": 1.4730150182,
				"y": 0.4759827346,
				"z": -0.0561850185,
				"element": "C" 
			},
			{
				"x": 1.2443285416,
				"y": -2.2764419367,
				"z": -2.4339852665,
				"element": "C" 
			},
			{
				"x": 1.0113497515,
				"y": -3.461962775,
				"z": -2.2014429792,
				"element": "O" 
			},
			{
				"x": 2.0562479811,
				"y": -1.8842627042,
				"z": -3.6381791956,
				"element": "C" 
			},
			{
				"x": 1.7267026403,
				"y": -0.8042118239,
				"z": -4.4690694618,
				"element": "C" 
			},
			{
				"x": 2.4703173309,
				"y": -0.5495495357,
				"z": -5.6224283383,
				"element": "C" 
			},
			{
				"x": 3.5544333548,
				"y": -1.3652713615,
				"z": -5.9502179118,
				"element": "C" 
			},
			{
				"x": 3.8810668195,
				"y": -2.450633807,
				"z": -5.1324899931,
				"element": "C" 
			},
			{
				"x": 3.127616973,
				"y": -2.7170225714,
				"z": -3.9916884055,
				"element": "C" 
			},
			{
				"x": -1.0351474296,
				"y": 0.9181080111,
				"z": 2.7755059855,
				"element": "C" 
			},
			{
				"x": -0.9224612307,
				"y": 0.7046179105,
				"z": 4.1568174906,
				"element": "C" 
			},
			{
				"x": -2.0486120244,
				"y": 0.7670661191,
				"z": 4.9741096216,
				"element": "C" 
			},
			{
				"x": -3.296878185,
				"y": 1.0728029217,
				"z": 4.424807581,
				"element": "C" 
			},
			{
				"x": -3.4126172858,
				"y": 1.3173891384,
				"z": 3.0555267968,
				"element": "C" 
			},
			{
				"x": -2.2881081369,
				"y": 1.2359842808,
				"z": 2.2327824077,
				"element": "C" 
			},
			{
				"x": -1.3983540812,
				"y": -0.9269937443,
				"z": 0.9964112518,
				"element": "H" 
			},
			{
				"x": -1.4548076315,
				"y": -0.0676906998,
				"z": -0.5428326748,
				"element": "H" 
			},
			{
				"x": -0.8559836044,
				"y": -2.4379556525,
				"z": -0.8980352936,
				"element": "H" 
			},
			{
				"x": 0.4913107816,
				"y": -2.3146797812,
				"z": 0.2240219775,
				"element": "H" 
			},
			{
				"x": 2.2018218551,
				"y": 0.1538054391,
				"z": -2.0483183735,
				"element": "H" 
			},
			{
				"x": 0.5602336653,
				"y": 0.7956408885,
				"z": -1.9840849839,
				"element": "H" 
			},
			{
				"x": 2.2406921744,
				"y": -0.1635737804,
				"z": 0.3992909683,
				"element": "H" 
			},
			{
				"x": 1.842894818,
				"y": 1.5025685331,
				"z": 0.0054670773,
				"element": "H" 
			},
			{
				"x": 0.8728487419,
				"y": -0.1771780235,
				"z": -4.2315208999,
				"element": "H" 
			},
			{
				"x": 2.1992322653,
				"y": 0.2820502962,
				"z": -6.2664564676,
				"element": "H" 
			},
			{
				"x": 4.1369075839,
				"y": -1.1622100308,
				"z": -6.8443232449,
				"element": "H" 
			},
			{
				"x": 4.7173056849,
				"y": -3.0939637972,
				"z": -5.3903983493,
				"element": "H" 
			},
			{
				"x": 3.3474496236,
				"y": -3.5746089025,
				"z": -3.364542933,
				"element": "H" 
			},
			{
				"x": 0.0589113453,
				"y": 0.5012046179,
				"z": 4.5722860562,
				"element": "H" 
			},
			{
				"x": -1.952930037,
				"y": 0.5869403078,
				"z": 6.0409206745,
				"element": "H" 
			},
			{
				"x": -4.1738249298,
				"y": 1.1295134547,
				"z": 5.0633066494,
				"element": "H" 
			},
			{
				"x": -4.3766292269,
				"y": 1.5767752364,
				"z": 2.6274881824,
				"element": "H" 
			},
			{
				"x": -2.3827351996,
				"y": 1.4469577549,
				"z": 1.1720229709,
				"element": "H" 
			}
		],
		 "valence_orbital": [ 
			{
				"type": "occ",
				"energy": -0.25908,
				"method": "rhf"
			},
			{
				"type": "occ",
				"energy": -0.25108,
				"method": "rhf"
			},
			{
				"type": "occ",
				"energy": -0.24362,
				"method": "rhf"
			},
			{
				"type": "occ",
				"energy": -0.2404,
				"method": "rhf"
			},
			{
				"type": "occ",
				"energy": -0.23877,
				"method": "rhf"
			},
			{
				"type": "unocc",
				"energy": -0.03325,
				"method": "rhf"
			},
			{
				"type": "unocc",
				"energy": -0.03129,
				"method": "rhf"
			},
			{
				"type": "unocc",
				"energy": -0.00935,
				"method": "rhf"
			},
			{
				"type": "unocc",
				"energy": -0.00934,
				"method": "rhf"
			},
			{
				"type": "unocc",
				"energy": 0.04649,
				"method": "rhf"
			}
		],
		"cosmo_sigma_profile": { 
			"-0.025": 0.0,
			"-0.024": 0.0,
			"-0.023": 0.0,
			"-0.022": 0.0,
			"-0.021": 0.0,
			"-0.02": 0.0,
			"-0.019": 0.0,
			"-0.018": 0.0,
			"-0.017": 0.0,
			"-0.016": 0.0,
			"-0.015": 0.0,
			"-0.014": 0.0,
			"-0.013": 0.0,
			"-0.012": 0.0,
			"-0.011": 0.0,
			"-0.01": 0.0,
			"-0.009": 0.0,
			"-0.008": 0.0,
			"-0.007": 2.24617840228,
			"-0.006": 24.2360708628,
			"-0.005": 45.0128647281,
			"-0.004": 44.0727321155,
			"-0.003": 28.3782093904,
			"-0.002": 22.6120148014,
			"-0.001": 20.0043098405,
			"0.0": 18.255767351,
			"0.001": 18.2678092099,
			"0.002": 19.0973989982,
			"0.003": 18.2296193459,
			"0.004": 22.4015732637,
			"0.005": 15.8237452723,
			"0.006": 3.16374639587,
			"0.007": 3.67019424682,
			"0.008": 2.81174212335,
			"0.009": 3.92459197223,
			"0.01": 2.91725957918,
			"0.011": 2.52159268103,
			"0.012": 4.24390022528,
			"0.013": 6.60542735805,
			"0.014": 8.71336322324,
			"0.015": 1.07007101205,
			"0.016": 0.0,
			"0.017": 0.0,
			"0.018": 0.0,
			"0.019": 0.0,
			"0.02": 0.0,
			"0.021": 0.0,
			"0.022": 0.0,
			"0.023": 0.0,
			"0.024": 0.0,
			"0.025": 0.0
		}
	}
}
