{
	 "smiles": "[O-][N+](=O)C1=CC=C(C=C1)C1=CN2C(SC3=C2C=CC=C3)=N1", 
	 "Tm": 559.15, 
	 "num_atms": 30, 
	 "gaussian": { 
		 "optdone": 1, 
		 "sigma_profile": "yes", 
		 "theory": "DFT", 
		 "functional": "B3LYP", 
		 "basiset": "6-31G**", 
		 "properties": { 
			 "R2extent": 10667.789, 
			 "electric_dipole_moment_norm": 9.20620259933, 
			 "electric_quadrupole_moment_norm": 17.0113332041, 
			 "total_energy": -1289.81571762, 
			 "HOMO_LUMO_gap": 0.13841, 
			 "cosmo_polarized_energy": -15.31, 
			 "cosmo_cavitation_energy": 37.54, 
			 "cosmo_dispersion_energy": -28.2, 
			 "cosmo_repulsion_energy": 2.03, 
			 "cosmo_total_nonelectrostatic_energy": 11.37, 
			 "SMD_solvation_energy": 6.57 
		},
		"coords": [
			{
				"x": 0.970376914,
				"y": 5.8580812185,
				"z": -3.0978649145,
				"element": "O" 
			},
			{
				"x": 1.6832886325,
				"y": 4.8691971655,
				"z": -2.9203720971,
				"element": "N" 
			},
			{
				"x": 2.7765041602,
				"y": 4.6903565529,
				"z": -3.4608701378,
				"element": "O" 
			},
			{
				"x": 1.1981467277,
				"y": 3.8334754628,
				"z": -2.0036979062,
				"element": "C" 
			},
			{
				"x": -0.0351320571,
				"y": 4.0021906711,
				"z": -1.3743762159,
				"element": "C" 
			},
			{
				"x": -0.4884669855,
				"y": 3.0166330016,
				"z": -0.5070438947,
				"element": "C" 
			},
			{
				"x": 0.27914192,
				"y": 1.8626269675,
				"z": -0.2618546341,
				"element": "C" 
			},
			{
				"x": 1.5197911906,
				"y": 1.7237207296,
				"z": -0.9136359421,
				"element": "C" 
			},
			{
				"x": 1.9837153328,
				"y": 2.7015505132,
				"z": -1.7825740088,
				"element": "C" 
			},
			{
				"x": -0.2245063482,
				"y": 0.8401042469,
				"z": 0.6577729182,
				"element": "C" 
			},
			{
				"x": 0.3711991452,
				"y": -0.354168293,
				"z": 1.0295710056,
				"element": "C" 
			},
			{
				"x": -0.513890524,
				"y": -0.9422783984,
				"z": 1.9116681845,
				"element": "N" 
			},
			{
				"x": -1.583886188,
				"y": -0.0756790056,
				"z": 2.0201969489,
				"element": "C" 
			},
			{
				"x": -2.816211178,
				"y": -0.6831935371,
				"z": 3.1199973906,
				"element": "S" 
			},
			{
				"x": -1.819157327,
				"y": -2.128381442,
				"z": 3.4061421197,
				"element": "C" 
			},
			{
				"x": -0.6119831529,
				"y": -2.1063895079,
				"z": 2.6767404867,
				"element": "C" 
			},
			{
				"x": 0.304220649,
				"y": -3.1528076684,
				"z": 2.7688108718,
				"element": "C" 
			},
			{
				"x": -0.0022465045,
				"y": -4.2274129386,
				"z": 3.6032622599,
				"element": "C" 
			},
			{
				"x": -1.1991044108,
				"y": -4.2544879192,
				"z": 4.3296175515,
				"element": "C" 
			},
			{
				"x": -2.116562039,
				"y": -3.2061209091,
				"z": 4.2370880478,
				"element": "C" 
			},
			{
				"x": -1.4537699637,
				"y": 0.9979662926,
				"z": 1.2911296429,
				"element": "N" 
			},
			{
				"x": -0.61449832,
				"y": 4.895233703,
				"z": -1.5727883648,
				"element": "H" 
			},
			{
				"x": -1.4427960467,
				"y": 3.1210088898,
				"z": -0.0041978983,
				"element": "H" 
			},
			{
				"x": 2.1304179638,
				"y": 0.8430250561,
				"z": -0.741262381,
				"element": "H" 
			},
			{
				"x": 2.9352855879,
				"y": 2.6082689574,
				"z": -2.2905373741,
				"element": "H" 
			},
			{
				"x": 1.3047308684,
				"y": -0.81882079,
				"z": 0.7579422651,
				"element": "H" 
			},
			{
				"x": 1.2305854313,
				"y": -3.1282227398,
				"z": 2.2044025046,
				"element": "H" 
			},
			{
				"x": 0.6987089459,
				"y": -5.0515662063,
				"z": 3.6880281885,
				"element": "H" 
			},
			{
				"x": -1.4199970071,
				"y": -5.0994929607,
				"z": 4.973838179,
				"element": "H" 
			},
			{
				"x": -3.043205417,
				"y": -3.2302171125,
				"z": 4.8013672042,
				"element": "H" 
			}
		],
		 "valence_orbital": [ 
			{
				"type": "occ",
				"energy": -0.28048,
				"method": "rhf"
			},
			{
				"type": "occ",
				"energy": -0.27465,
				"method": "rhf"
			},
			{
				"type": "occ",
				"energy": -0.27053,
				"method": "rhf"
			},
			{
				"type": "occ",
				"energy": -0.24079,
				"method": "rhf"
			},
			{
				"type": "occ",
				"energy": -0.22318,
				"method": "rhf"
			},
			{
				"type": "unocc",
				"energy": -0.08477,
				"method": "rhf"
			},
			{
				"type": "unocc",
				"energy": -0.0418,
				"method": "rhf"
			},
			{
				"type": "unocc",
				"energy": -0.03098,
				"method": "rhf"
			},
			{
				"type": "unocc",
				"energy": -0.01818,
				"method": "rhf"
			},
			{
				"type": "unocc",
				"energy": -0.01013,
				"method": "rhf"
			}
		],
		"cosmo_sigma_profile": { 
			"-0.025": 0.0,
			"-0.024": 0.0,
			"-0.023": 0.0,
			"-0.022": 0.0,
			"-0.021": 0.0,
			"-0.02": 0.0,
			"-0.019": 0.0,
			"-0.018": 0.0,
			"-0.017": 0.0,
			"-0.016": 0.0,
			"-0.015": 0.0,
			"-0.014": 0.0,
			"-0.013": 0.0,
			"-0.012": 0.0,
			"-0.011": 0.171519941714,
			"-0.01": 3.55715376005,
			"-0.009": 4.15650454433,
			"-0.008": 7.32034393147,
			"-0.007": 11.2138148135,
			"-0.006": 17.2609241304,
			"-0.005": 16.2533325085,
			"-0.004": 15.5662473376,
			"-0.003": 16.0603206401,
			"-0.002": 19.8537268846,
			"-0.001": 21.798322879,
			"0.0": 26.3725766829,
			"0.001": 31.8340056804,
			"0.002": 36.8267659784,
			"0.003": 21.1957767024,
			"0.004": 13.5268164979,
			"0.005": 5.97343148844,
			"0.006": 4.88418239776,
			"0.007": 6.87124663692,
			"0.008": 11.3991499919,
			"0.009": 5.79151469014,
			"0.01": 4.69569317733,
			"0.011": 2.16357162191,
			"0.012": 1.14113194629,
			"0.013": 0.56384006686,
			"0.014": 0.0,
			"0.015": 0.0,
			"0.016": 0.0,
			"0.017": 0.0,
			"0.018": 0.0,
			"0.019": 0.0,
			"0.02": 0.0,
			"0.021": 0.0,
			"0.022": 0.0,
			"0.023": 0.0,
			"0.024": 0.0,
			"0.025": 0.0
		}
	}
}
