{
	 "smiles": "FC1=CC(Br)=C(F)C=C1", 
	 "Tm": 242.15, 
	 "num_atms": 12, 
	 "gaussian": { 
		 "optdone": 1, 
		 "sigma_profile": "yes", 
		 "theory": "DFT", 
		 "functional": "B3LYP", 
		 "basiset": "6-31G**", 
		 "properties": { 
			 "R2extent": 3021.8949, 
			 "electric_dipole_moment_norm": 1.39639699584, 
			 "electric_quadrupole_moment_norm": 3.62045920706, 
			 "total_energy": -3001.51131654, 
			 "HOMO_LUMO_gap": 0.21353, 
			 "cosmo_polarized_energy": -3.66, 
			 "cosmo_cavitation_energy": 19.76, 
			 "cosmo_dispersion_energy": -14.9, 
			 "cosmo_repulsion_energy": 1.17, 
			 "cosmo_total_nonelectrostatic_energy": 6.04, 
			 "SMD_solvation_energy": 3.36 
		},
		"coords": [
			{
				"x": -0.22974859,
				"y": -3.295437146,
				"z": 1.4595644482,
				"element": "F" 
			},
			{
				"x": -0.0652913353,
				"y": -2.2332807637,
				"z": 0.6472484258,
				"element": "C" 
			},
			{
				"x": 0.0897942269,
				"y": -2.4562684616,
				"z": -0.7166377646,
				"element": "C" 
			},
			{
				"x": 0.2599741566,
				"y": -1.3574066956,
				"z": -1.5576520262,
				"element": "C" 
			},
			{
				"x": 0.4760785891,
				"y": -1.6019154609,
				"z": -3.4272853036,
				"element": "Br" 
			},
			{
				"x": 0.2715349669,
				"y": -0.0687790927,
				"z": -1.0223717335,
				"element": "C" 
			},
			{
				"x": 0.4351262809,
				"y": 0.9919242803,
				"z": -1.8288601718,
				"element": "F" 
			},
			{
				"x": 0.1149776657,
				"y": 0.1358759383,
				"z": 0.3444036077,
				"element": "C" 
			},
			{
				"x": -0.0559631369,
				"y": -0.9551570053,
				"z": 1.1953262446,
				"element": "C" 
			},
			{
				"x": 0.077483107,
				"y": -3.4652555011,
				"z": -1.1096722833,
				"element": "H" 
			},
			{
				"x": 0.1292765148,
				"y": 1.1515258853,
				"z": 0.7243237069,
				"element": "H" 
			},
			{
				"x": -0.1802424458,
				"y": -0.8256259772,
				"z": 2.2642128497,
				"element": "H" 
			}
		],
		 "valence_orbital": [ 
			{
				"type": "occ",
				"energy": -0.3632,
				"method": "rhf"
			},
			{
				"type": "occ",
				"energy": -0.32424,
				"method": "rhf"
			},
			{
				"type": "occ",
				"energy": -0.29726,
				"method": "rhf"
			},
			{
				"type": "occ",
				"energy": -0.2677,
				"method": "rhf"
			},
			{
				"type": "occ",
				"energy": -0.24775,
				"method": "rhf"
			},
			{
				"type": "unocc",
				"energy": -0.03422,
				"method": "rhf"
			},
			{
				"type": "unocc",
				"energy": -0.00996,
				"method": "rhf"
			},
			{
				"type": "unocc",
				"energy": -0.0075,
				"method": "rhf"
			},
			{
				"type": "unocc",
				"energy": 0.09358,
				"method": "rhf"
			},
			{
				"type": "unocc",
				"energy": 0.12985,
				"method": "rhf"
			}
		],
		"cosmo_sigma_profile": { 
			"-0.025": 0.0,
			"-0.024": 0.0,
			"-0.023": 0.0,
			"-0.022": 0.0,
			"-0.021": 0.0,
			"-0.02": 0.0,
			"-0.019": 0.0,
			"-0.018": 0.0,
			"-0.017": 0.0,
			"-0.016": 0.0,
			"-0.015": 0.0,
			"-0.014": 0.0,
			"-0.013": 0.0,
			"-0.012": 0.0,
			"-0.011": 0.0,
			"-0.01": 0.0,
			"-0.009": 1.4342608678,
			"-0.008": 5.36146423724,
			"-0.007": 4.8639919155,
			"-0.006": 6.04580992705,
			"-0.005": 5.23141341311,
			"-0.004": 6.20898385985,
			"-0.003": 6.24988338303,
			"-0.002": 7.42857113322,
			"-0.001": 13.9058211304,
			"0.0": 23.6096496219,
			"0.001": 21.4275437499,
			"0.002": 14.3915280766,
			"0.003": 18.4418345048,
			"0.004": 25.1184920086,
			"0.005": 3.32950377637,
			"0.006": 0.0746552277766,
			"0.007": 0.0,
			"0.008": 0.0,
			"0.009": 0.0,
			"0.01": 0.0,
			"0.011": 0.0,
			"0.012": 0.0,
			"0.013": 0.0,
			"0.014": 0.0,
			"0.015": 0.0,
			"0.016": 0.0,
			"0.017": 0.0,
			"0.018": 0.0,
			"0.019": 0.0,
			"0.02": 0.0,
			"0.021": 0.0,
			"0.022": 0.0,
			"0.023": 0.0,
			"0.024": 0.0,
			"0.025": 0.0
		}
	}
}
