{
	 "smiles": "BrC(Br)(Br)C1=CC=C2C=CC=CC2=N1", 
	 "Tm": 401.15, 
	 "num_atms": 20, 
	 "gaussian": { 
		 "optdone": 1, 
		 "sigma_profile": "yes", 
		 "theory": "DFT", 
		 "functional": "B3LYP", 
		 "basiset": "6-31G**", 
		 "properties": { 
			 "R2extent": 9837.4896, 
			 "electric_dipole_moment_norm": 3.8277868018, 
			 "electric_quadrupole_moment_norm": 9.62497370074, 
			 "total_energy": -8153.62992877, 
			 "HOMO_LUMO_gap": 0.17515, 
			 "cosmo_polarized_energy": -7.54, 
			 "cosmo_cavitation_energy": 30.85, 
			 "cosmo_dispersion_energy": -23.36, 
			 "cosmo_repulsion_energy": 1.82, 
			 "cosmo_total_nonelectrostatic_energy": 9.31, 
			 "SMD_solvation_energy": 0.59 
		},
		"coords": [
			{
				"x": 0.2842879802,
				"y": 4.5692412977,
				"z": 0.8026836281,
				"element": "Br" 
			},
			{
				"x": -1.141439816,
				"y": 3.3869365967,
				"z": 0.0878301279,
				"element": "C" 
			},
			{
				"x": -1.6928630306,
				"y": 4.0607078098,
				"z": -1.6545373486,
				"element": "Br" 
			},
			{
				"x": -2.6942915447,
				"y": 3.4744293723,
				"z": 1.3217387451,
				"element": "Br" 
			},
			{
				"x": -0.6207604072,
				"y": 1.9517470415,
				"z": 0.04806637,
				"element": "C" 
			},
			{
				"x": -0.1868036469,
				"y": 1.3463035727,
				"z": 1.2647110489,
				"element": "C" 
			},
			{
				"x": 0.2791766492,
				"y": 0.0583483348,
				"z": 1.2212290541,
				"element": "C" 
			},
			{
				"x": 0.3208710094,
				"y": -0.639327727,
				"z": -0.0152155453,
				"element": "C" 
			},
			{
				"x": 0.7868404169,
				"y": -1.971000624,
				"z": -0.1514880938,
				"element": "C" 
			},
			{
				"x": 0.7961981303,
				"y": -2.5805203926,
				"z": -1.3877504191,
				"element": "C" 
			},
			{
				"x": 0.341223852,
				"y": -1.8852577576,
				"z": -2.5350414369,
				"element": "C" 
			},
			{
				"x": -0.1173840968,
				"y": -0.589947684,
				"z": -2.433276695,
				"element": "C" 
			},
			{
				"x": -0.1379710999,
				"y": 0.0613564433,
				"z": -1.1734222297,
				"element": "C" 
			},
			{
				"x": -0.5991798765,
				"y": 1.3449582057,
				"z": -1.1117792017,
				"element": "N" 
			},
			{
				"x": -0.2282946502,
				"y": 1.898688439,
				"z": 2.1954097602,
				"element": "H" 
			},
			{
				"x": 0.6186191087,
				"y": -0.4367753503,
				"z": 2.1272118371,
				"element": "H" 
			},
			{
				"x": 1.1352299437,
				"y": -2.5014993706,
				"z": 0.7308416223,
				"element": "H" 
			},
			{
				"x": 1.1541400627,
				"y": -3.6009388276,
				"z": -1.4872706225,
				"element": "H" 
			},
			{
				"x": 0.3559521477,
				"y": -2.3816448729,
				"z": -3.5007862243,
				"element": "H" 
			},
			{
				"x": -0.471251132,
				"y": -0.035104507,
				"z": -3.2957543767,
				"element": "H" 
			}
		],
		 "valence_orbital": [ 
			{
				"type": "occ",
				"energy": -0.28582,
				"method": "rhf"
			},
			{
				"type": "occ",
				"energy": -0.26987,
				"method": "rhf"
			},
			{
				"type": "occ",
				"energy": -0.26255,
				"method": "rhf"
			},
			{
				"type": "occ",
				"energy": -0.25714,
				"method": "rhf"
			},
			{
				"type": "occ",
				"energy": -0.24537,
				"method": "rhf"
			},
			{
				"type": "unocc",
				"energy": -0.07022,
				"method": "rhf"
			},
			{
				"type": "unocc",
				"energy": -0.06444,
				"method": "rhf"
			},
			{
				"type": "unocc",
				"energy": -0.04768,
				"method": "rhf"
			},
			{
				"type": "unocc",
				"energy": -0.01076,
				"method": "rhf"
			},
			{
				"type": "unocc",
				"energy": 0.00155,
				"method": "rhf"
			}
		],
		"cosmo_sigma_profile": { 
			"-0.025": 0.0,
			"-0.024": 0.0,
			"-0.023": 0.0,
			"-0.022": 0.0,
			"-0.021": 0.0,
			"-0.02": 0.0,
			"-0.019": 0.0,
			"-0.018": 0.0,
			"-0.017": 0.0,
			"-0.016": 0.0,
			"-0.015": 0.0,
			"-0.014": 0.0,
			"-0.013": 0.0,
			"-0.012": 0.0,
			"-0.011": 0.0,
			"-0.01": 0.0,
			"-0.009": 0.0,
			"-0.008": 2.54882606202,
			"-0.007": 7.63381044265,
			"-0.006": 16.1391105212,
			"-0.005": 14.9078208819,
			"-0.004": 15.0397667107,
			"-0.003": 12.733064897,
			"-0.002": 13.2505907035,
			"-0.001": 17.4728949692,
			"0.0": 22.9650944416,
			"0.001": 27.7877180639,
			"0.002": 34.9779396014,
			"0.003": 40.2690708664,
			"0.004": 20.6020767141,
			"0.005": 1.99791976905,
			"0.006": 2.13259276669,
			"0.007": 1.59719293445,
			"0.008": 1.72191579621,
			"0.009": 1.07964093559,
			"0.01": 0.878531629829,
			"0.011": 1.24817162212,
			"0.012": 0.744564962863,
			"0.013": 0.019417820568,
			"0.014": 0.0,
			"0.015": 0.0,
			"0.016": 0.0,
			"0.017": 0.0,
			"0.018": 0.0,
			"0.019": 0.0,
			"0.02": 0.0,
			"0.021": 0.0,
			"0.022": 0.0,
			"0.023": 0.0,
			"0.024": 0.0,
			"0.025": 0.0
		}
	}
}
