{
	 "smiles": "CC1=CC(C)=C(O)C(=C1)[N+]([O-])=O", 
	 "Tm": 343.15, 
	 "num_atms": 21, 
	 "gaussian": { 
		 "optdone": 1, 
		 "sigma_profile": "yes", 
		 "theory": "DFT", 
		 "functional": "B3LYP", 
		 "basiset": "6-31G**", 
		 "properties": { 
			 "R2extent": 2399.6653, 
			 "electric_dipole_moment_norm": 4.05781059193, 
			 "electric_quadrupole_moment_norm": 8.46169521668, 
			 "total_energy": -590.620010365, 
			 "HOMO_LUMO_gap": 0.14084, 
			 "cosmo_polarized_energy": -7.3, 
			 "cosmo_cavitation_energy": 24.94, 
			 "cosmo_dispersion_energy": -18.62, 
			 "cosmo_repulsion_energy": 1.48, 
			 "cosmo_total_nonelectrostatic_energy": 7.8, 
			 "SMD_solvation_energy": 6.8 
		},
		"coords": [
			{
				"x": 3.0029346067,
				"y": -1.6562220684,
				"z": -0.1995988658,
				"element": "C" 
			},
			{
				"x": 1.6001458918,
				"y": -1.1027673144,
				"z": -0.2744531009,
				"element": "C" 
			},
			{
				"x": 1.3788311168,
				"y": 0.2932710118,
				"z": -0.2759061804,
				"element": "C" 
			},
			{
				"x": 0.1165496619,
				"y": 0.864607066,
				"z": -0.3423599592,
				"element": "C" 
			},
			{
				"x": -0.1002268964,
				"y": 2.3552686086,
				"z": -0.3427441893,
				"element": "C" 
			},
			{
				"x": -1.0123755024,
				"y": 0.0121242431,
				"z": -0.4125891623,
				"element": "C" 
			},
			{
				"x": -2.2202756999,
				"y": 0.5846848883,
				"z": -0.4759209869,
				"element": "O" 
			},
			{
				"x": -0.7987794139,
				"y": -1.3850401323,
				"z": -0.4116556798,
				"element": "C" 
			},
			{
				"x": 0.4948932156,
				"y": -1.9316100274,
				"z": -0.3431792406,
				"element": "C" 
			},
			{
				"x": -1.9168457777,
				"y": -2.2965637158,
				"z": -0.4817428381,
				"element": "N" 
			},
			{
				"x": -1.7097478038,
				"y": -3.5049405881,
				"z": -0.4797768745,
				"element": "O" 
			},
			{
				"x": -3.0754678683,
				"y": -1.8151736233,
				"z": -0.5429650297,
				"element": "O" 
			},
			{
				"x": 3.6118263081,
				"y": -1.316646544,
				"z": -1.0454246953,
				"element": "H" 
			},
			{
				"x": 3.5121249715,
				"y": -1.3307913402,
				"z": 0.7149118094,
				"element": "H" 
			},
			{
				"x": 2.9992165813,
				"y": -2.7490982393,
				"z": -0.2085451666,
				"element": "H" 
			},
			{
				"x": 2.2393714369,
				"y": 0.957147303,
				"z": -0.2223096538,
				"element": "H" 
			},
			{
				"x": -0.7241667878,
				"y": 2.6631609721,
				"z": 0.5030742643,
				"element": "H" 
			},
			{
				"x": -0.6245711917,
				"y": 2.6772032798,
				"z": -1.2488026231,
				"element": "H" 
			},
			{
				"x": 0.8521160541,
				"y": 2.8877072381,
				"z": -0.2843606593,
				"element": "H" 
			},
			{
				"x": -2.8712237226,
				"y": -0.1591000145,
				"z": -0.5183348795,
				"element": "H" 
			},
			{
				"x": 0.5926708199,
				"y": -3.0103210033,
				"z": -0.3462162886,
				"element": "H" 
			}
		],
		 "valence_orbital": [ 
			{
				"type": "occ",
				"energy": -0.31756,
				"method": "rhf"
			},
			{
				"type": "occ",
				"energy": -0.31409,
				"method": "rhf"
			},
			{
				"type": "occ",
				"energy": -0.30006,
				"method": "rhf"
			},
			{
				"type": "occ",
				"energy": -0.27295,
				"method": "rhf"
			},
			{
				"type": "occ",
				"energy": -0.23511,
				"method": "rhf"
			},
			{
				"type": "unocc",
				"energy": -0.09427,
				"method": "rhf"
			},
			{
				"type": "unocc",
				"energy": -0.00863,
				"method": "rhf"
			},
			{
				"type": "unocc",
				"energy": 0.0022,
				"method": "rhf"
			},
			{
				"type": "unocc",
				"energy": 0.08685,
				"method": "rhf"
			},
			{
				"type": "unocc",
				"energy": 0.10351,
				"method": "rhf"
			}
		],
		"cosmo_sigma_profile": { 
			"-0.025": 0.0,
			"-0.024": 0.0,
			"-0.023": 0.0,
			"-0.022": 0.0,
			"-0.021": 0.0,
			"-0.02": 0.0,
			"-0.019": 0.0,
			"-0.018": 0.0,
			"-0.017": 0.0,
			"-0.016": 0.0,
			"-0.015": 0.0,
			"-0.014": 0.0,
			"-0.013": 0.0,
			"-0.012": 0.0,
			"-0.011": 0.0,
			"-0.01": 0.0923274301243,
			"-0.009": 0.712219209508,
			"-0.008": 0.45564015766,
			"-0.007": 2.39749096925,
			"-0.006": 8.91482393776,
			"-0.005": 13.1901871196,
			"-0.004": 17.5990910988,
			"-0.003": 16.3740884099,
			"-0.002": 18.6790580409,
			"-0.001": 22.2021703254,
			"0.0": 25.5396296651,
			"0.001": 14.4456456346,
			"0.002": 11.92608796,
			"0.003": 9.03482343485,
			"0.004": 4.44298951839,
			"0.005": 3.64872491702,
			"0.006": 4.76610096698,
			"0.007": 7.81897754625,
			"0.008": 7.19114902329,
			"0.009": 5.59252731513,
			"0.01": 2.9811510589,
			"0.011": 0.136433936469,
			"0.012": 0.0,
			"0.013": 0.0,
			"0.014": 0.0,
			"0.015": 0.0,
			"0.016": 0.0,
			"0.017": 0.0,
			"0.018": 0.0,
			"0.019": 0.0,
			"0.02": 0.0,
			"0.021": 0.0,
			"0.022": 0.0,
			"0.023": 0.0,
			"0.024": 0.0,
			"0.025": 0.0
		}
	}
}
