{
	 "smiles": "CC(C)N1C2=C(NC1=C1C=CC(=N)C(C)=C1)C=C(F)C=C2", 
	 "Tm": 410.15, 
	 "num_atms": 39, 
	 "gaussian": { 
		 "optdone": 1, 
		 "sigma_profile": "yes", 
		 "theory": "DFT", 
		 "functional": "B3LYP", 
		 "basiset": "6-31G**", 
		 "properties": { 
			 "R2extent": 7986.3417, 
			 "electric_dipole_moment_norm": 6.08789461883, 
			 "electric_quadrupole_moment_norm": 31.7485117536, 
			 "total_energy": -922.730612109, 
			 "HOMO_LUMO_gap": 0.11274, 
			 "cosmo_polarized_energy": -22.95, 
			 "cosmo_cavitation_energy": 41.01, 
			 "cosmo_dispersion_energy": -28.65, 
			 "cosmo_repulsion_energy": 2.13, 
			 "cosmo_total_nonelectrostatic_energy": 14.49, 
			 "SMD_solvation_energy": 6.05 
		},
		"coords": [
			{
				"x": 0.0856066968,
				"y": -2.4785266444,
				"z": -1.3360134601,
				"element": "C" 
			},
			{
				"x": -0.8206493276,
				"y": -1.2811032558,
				"z": -1.0179109247,
				"element": "C" 
			},
			{
				"x": -1.4537409728,
				"y": -1.3346799242,
				"z": 0.3770406357,
				"element": "C" 
			},
			{
				"x": -0.1740171246,
				"y": 0.0207420396,
				"z": -1.3380115642,
				"element": "N" 
			},
			{
				"x": -0.4628881057,
				"y": 0.6401614802,
				"z": -2.5693171553,
				"element": "C" 
			},
			{
				"x": -0.1304552484,
				"y": 2.0008811742,
				"z": -2.4543300412,
				"element": "C" 
			},
			{
				"x": 0.3459258495,
				"y": 2.175784941,
				"z": -1.167658599,
				"element": "N" 
			},
			{
				"x": 0.394425837,
				"y": 0.9640531771,
				"z": -0.4854277843,
				"element": "C" 
			},
			{
				"x": 0.9685709399,
				"y": 0.847568681,
				"z": 0.7829332342,
				"element": "C" 
			},
			{
				"x": 1.1027709702,
				"y": 2.0216153999,
				"z": 1.6083203675,
				"element": "C" 
			},
			{
				"x": 1.6881891099,
				"y": 1.970655551,
				"z": 2.8335426399,
				"element": "C" 
			},
			{
				"x": 2.242990156,
				"y": 0.7401215962,
				"z": 3.3892754216,
				"element": "C" 
			},
			{
				"x": 2.815827405,
				"y": 0.6246909844,
				"z": 4.5527185152,
				"element": "N" 
			},
			{
				"x": 2.1363659381,
				"y": -0.4491615651,
				"z": 2.5293349019,
				"element": "C" 
			},
			{
				"x": 2.7519425623,
				"y": -1.7238853633,
				"z": 3.0338027818,
				"element": "C" 
			},
			{
				"x": 1.5235608561,
				"y": -0.3719122294,
				"z": 1.3147798183,
				"element": "C" 
			},
			{
				"x": -0.304608082,
				"y": 2.8976584932,
				"z": -3.5016121981,
				"element": "C" 
			},
			{
				"x": -0.8306606393,
				"y": 2.3660591175,
				"z": -4.6796742444,
				"element": "C" 
			},
			{
				"x": -1.010040944,
				"y": 3.1982531264,
				"z": -5.7270432168,
				"element": "F" 
			},
			{
				"x": -1.1762267507,
				"y": 1.0257125526,
				"z": -4.8236899659,
				"element": "C" 
			},
			{
				"x": -0.9908898713,
				"y": 0.1379655968,
				"z": -3.7543403581,
				"element": "C" 
			},
			{
				"x": 0.4905917828,
				"y": -2.4036582179,
				"z": -2.3494699547,
				"element": "H" 
			},
			{
				"x": 0.9249516185,
				"y": -2.5623044397,
				"z": -0.6425020098,
				"element": "H" 
			},
			{
				"x": -0.4965493658,
				"y": -3.4032586477,
				"z": -1.2687569818,
				"element": "H" 
			},
			{
				"x": -1.6552678301,
				"y": -1.3199440746,
				"z": -1.7260961659,
				"element": "H" 
			},
			{
				"x": -2.0814989259,
				"y": -2.2296841855,
				"z": 0.4291013057,
				"element": "H" 
			},
			{
				"x": -0.7206920151,
				"y": -1.3875813275,
				"z": 1.1815169946,
				"element": "H" 
			},
			{
				"x": -2.0919512806,
				"y": -0.4635916255,
				"z": 0.5489805988,
				"element": "H" 
			},
			{
				"x": 0.9130539268,
				"y": 2.9549520829,
				"z": -0.8744371957,
				"element": "H" 
			},
			{
				"x": 0.6619878691,
				"y": 2.9602268423,
				"z": 1.2776195591,
				"element": "H" 
			},
			{
				"x": 1.7376787593,
				"y": 2.8671266651,
				"z": 3.4481701926,
				"element": "H" 
			},
			{
				"x": 2.8216923264,
				"y": 1.5357730706,
				"z": 5.0221183134,
				"element": "H" 
			},
			{
				"x": 2.6284267067,
				"y": -2.5420344589,
				"z": 2.3170499421,
				"element": "H" 
			},
			{
				"x": 3.8195033581,
				"y": -1.5851847089,
				"z": 3.2369653198,
				"element": "H" 
			},
			{
				"x": 2.3053812773,
				"y": -2.0162230258,
				"z": 3.9904498015,
				"element": "H" 
			},
			{
				"x": 1.5194998551,
				"y": -1.2568314573,
				"z": 0.6887920095,
				"element": "H" 
			},
			{
				"x": -0.0562946117,
				"y": 3.9500698399,
				"z": -3.43094117,
				"element": "H" 
			},
			{
				"x": -1.578986661,
				"y": 0.6841499265,
				"z": -5.7700141799,
				"element": "H" 
			},
			{
				"x": -1.2429260441,
				"y": -0.9099571867,
				"z": -3.8701651833,
				"element": "H" 
			}
		],
		 "valence_orbital": [ 
			{
				"type": "occ",
				"energy": -0.25783,
				"method": "rhf"
			},
			{
				"type": "occ",
				"energy": -0.24338,
				"method": "rhf"
			},
			{
				"type": "occ",
				"energy": -0.23829,
				"method": "rhf"
			},
			{
				"type": "occ",
				"energy": -0.2236,
				"method": "rhf"
			},
			{
				"type": "occ",
				"energy": -0.15973,
				"method": "rhf"
			},
			{
				"type": "unocc",
				"energy": -0.04699,
				"method": "rhf"
			},
			{
				"type": "unocc",
				"energy": -0.01028,
				"method": "rhf"
			},
			{
				"type": "unocc",
				"energy": 0.00031,
				"method": "rhf"
			},
			{
				"type": "unocc",
				"energy": 0.02071,
				"method": "rhf"
			},
			{
				"type": "unocc",
				"energy": 0.06437,
				"method": "rhf"
			}
		],
		"cosmo_sigma_profile": { 
			"-0.025": 0.0,
			"-0.024": 0.0,
			"-0.023": 0.0,
			"-0.022": 0.0,
			"-0.021": 0.0,
			"-0.02": 0.0,
			"-0.019": 0.0,
			"-0.018": 0.0,
			"-0.017": 0.425735507464,
			"-0.016": 1.29331573971,
			"-0.015": 1.111865959,
			"-0.014": 1.21265192779,
			"-0.013": 1.1993606817,
			"-0.012": 1.37993781552,
			"-0.011": 1.54480630543,
			"-0.01": 1.03800431804,
			"-0.009": 1.92202924693,
			"-0.008": 4.74075570816,
			"-0.007": 8.6705219991,
			"-0.006": 10.9837613241,
			"-0.005": 17.8117548278,
			"-0.004": 25.3492858232,
			"-0.003": 24.9667637579,
			"-0.002": 24.7383310193,
			"-0.001": 26.6083303291,
			"0.0": 30.1072350467,
			"0.001": 29.2996496775,
			"0.002": 25.3789664966,
			"0.003": 16.7751970364,
			"0.004": 19.3777105419,
			"0.005": 11.4614622043,
			"0.006": 11.6697366693,
			"0.007": 7.4430509854,
			"0.008": 2.14030580321,
			"0.009": 2.22919599435,
			"0.01": 1.3610353157,
			"0.011": 1.04815351521,
			"0.012": 2.04124201789,
			"0.013": 1.69829579996,
			"0.014": 1.17956793495,
			"0.015": 1.31221859356,
			"0.016": 1.34357304206,
			"0.017": 1.36486647093,
			"0.018": 1.19286450451,
			"0.019": 0.616548355604,
			"0.02": 1.0014077821,
			"0.021": 0.478897195663,
			"0.022": 0.0,
			"0.023": 0.0,
			"0.024": 0.0,
			"0.025": 0.0
		}
	}
}
