{
	 "smiles": "COC(=O)C1=C(C(=O)OC)C(=O)C(C1=O)=C1NC2=C(C=CC=C2)C=C1", 
	 "Tm": 635.15, 
	 "num_atms": 38, 
	 "gaussian": { 
		 "optdone": 1, 
		 "sigma_profile": "yes", 
		 "theory": "DFT", 
		 "functional": "B3LYP", 
		 "basiset": "6-31G**", 
		 "properties": { 
			 "R2extent": 12394.472, 
			 "electric_dipole_moment_norm": 3.44798992748, 
			 "electric_quadrupole_moment_norm": 47.0636627103, 
			 "total_energy": -1199.85400212, 
			 "HOMO_LUMO_gap": 0.12088, 
			 "cosmo_polarized_energy": -22.9, 
			 "cosmo_cavitation_energy": 44.76, 
			 "cosmo_dispersion_energy": -31.0, 
			 "cosmo_repulsion_energy": 2.31, 
			 "cosmo_total_nonelectrostatic_energy": 16.07, 
			 "SMD_solvation_energy": 10.94 
		},
		"coords": [
			{
				"x": 0.4444481225,
				"y": -5.3795003275,
				"z": 1.6969840783,
				"element": "C" 
			},
			{
				"x": -0.0780523645,
				"y": -4.0563808404,
				"z": 1.9061385968,
				"element": "O" 
			},
			{
				"x": 0.7592201492,
				"y": -3.051645113,
				"z": 1.5663612331,
				"element": "C" 
			},
			{
				"x": 1.8602027592,
				"y": -3.2120934321,
				"z": 1.0886325133,
				"element": "O" 
			},
			{
				"x": 0.1611444282,
				"y": -1.7235308622,
				"z": 1.8567674063,
				"element": "C" 
			},
			{
				"x": -0.5775154161,
				"y": -1.356041147,
				"z": 2.921896215,
				"element": "C" 
			},
			{
				"x": -1.0938632615,
				"y": -2.1973144121,
				"z": 4.0360885279,
				"element": "C" 
			},
			{
				"x": -2.271477346,
				"y": -2.3161110697,
				"z": 4.2865460302,
				"element": "O" 
			},
			{
				"x": -0.0962107835,
				"y": -2.7794757171,
				"z": 4.7286291523,
				"element": "O" 
			},
			{
				"x": -0.5229618987,
				"y": -3.6133990167,
				"z": 5.8209833076,
				"element": "C" 
			},
			{
				"x": -0.9165492591,
				"y": 0.1336979307,
				"z": 2.8275914014,
				"element": "C" 
			},
			{
				"x": -1.5610341349,
				"y": 0.7439076805,
				"z": 3.6711423289,
				"element": "O" 
			},
			{
				"x": -0.3052706945,
				"y": 0.5980267089,
				"z": 1.5937637108,
				"element": "C" 
			},
			{
				"x": 0.3691627923,
				"y": -0.5138479367,
				"z": 0.9625815626,
				"element": "C" 
			},
			{
				"x": 0.9863745657,
				"y": -0.5136163417,
				"z": -0.108833531,
				"element": "O" 
			},
			{
				"x": -0.3358676145,
				"y": 1.8929914308,
				"z": 1.0597773271,
				"element": "C" 
			},
			{
				"x": 0.3020533126,
				"y": 2.1207068719,
				"z": -0.1257885111,
				"element": "N" 
			},
			{
				"x": 0.3549111553,
				"y": 3.3386341373,
				"z": -0.7652663502,
				"element": "C" 
			},
			{
				"x": -0.2939722102,
				"y": 4.449616748,
				"z": -0.1668602109,
				"element": "C" 
			},
			{
				"x": -0.2405153008,
				"y": 5.6977988487,
				"z": -0.821599691,
				"element": "C" 
			},
			{
				"x": 0.4313906455,
				"y": 5.8369116016,
				"z": -2.0238126979,
				"element": "C" 
			},
			{
				"x": 1.0700395378,
				"y": 4.7240851893,
				"z": -2.6036614221,
				"element": "C" 
			},
			{
				"x": 1.0368577642,
				"y": 3.4838489654,
				"z": -1.9870738601,
				"element": "C" 
			},
			{
				"x": -0.9716524819,
				"y": 4.2337273283,
				"z": 1.0794227236,
				"element": "C" 
			},
			{
				"x": -0.9972533808,
				"y": 3.0094519055,
				"z": 1.6763511437,
				"element": "C" 
			},
			{
				"x": -0.3557477659,
				"y": -6.0595961903,
				"z": 1.9876587945,
				"element": "H" 
			},
			{
				"x": 1.3328106269,
				"y": -5.5425681485,
				"z": 2.3125223197,
				"element": "H" 
			},
			{
				"x": 0.7109859622,
				"y": -5.5238422914,
				"z": 0.6472664456,
				"element": "H" 
			},
			{
				"x": -1.1226350808,
				"y": -3.0379773118,
				"z": 6.5301046423,
				"element": "H" 
			},
			{
				"x": -1.1190306526,
				"y": -4.4512904949,
				"z": 5.4507586823,
				"element": "H" 
			},
			{
				"x": 0.3927048961,
				"y": -3.97068422,
				"z": 6.2912798448,
				"element": "H" 
			},
			{
				"x": 0.7591932356,
				"y": 1.2905881632,
				"z": -0.5269726188,
				"element": "H" 
			},
			{
				"x": -0.7371343758,
				"y": 6.5491362017,
				"z": -0.3643239299,
				"element": "H" 
			},
			{
				"x": 0.4675406952,
				"y": 6.8009162778,
				"z": -2.5207475249,
				"element": "H" 
			},
			{
				"x": 1.5964998247,
				"y": 4.8362966613,
				"z": -3.5465590329,
				"element": "H" 
			},
			{
				"x": 1.5293006603,
				"y": 2.6245792672,
				"z": -2.4327951069,
				"element": "H" 
			},
			{
				"x": -1.4733151614,
				"y": 5.0763773482,
				"z": 1.5480430566,
				"element": "H" 
			},
			{
				"x": -1.5025819502,
				"y": 2.8245156068,
				"z": 2.6160034429,
				"element": "H" 
			}
		],
		 "valence_orbital": [ 
			{
				"type": "occ",
				"energy": -0.27625,
				"method": "rhf"
			},
			{
				"type": "occ",
				"energy": -0.2721,
				"method": "rhf"
			},
			{
				"type": "occ",
				"energy": -0.26019,
				"method": "rhf"
			},
			{
				"type": "occ",
				"energy": -0.23952,
				"method": "rhf"
			},
			{
				"type": "occ",
				"energy": -0.21374,
				"method": "rhf"
			},
			{
				"type": "unocc",
				"energy": -0.09286,
				"method": "rhf"
			},
			{
				"type": "unocc",
				"energy": -0.08102,
				"method": "rhf"
			},
			{
				"type": "unocc",
				"energy": -0.03711,
				"method": "rhf"
			},
			{
				"type": "unocc",
				"energy": -0.01139,
				"method": "rhf"
			},
			{
				"type": "unocc",
				"energy": 0.00292,
				"method": "rhf"
			}
		],
		"cosmo_sigma_profile": { 
			"-0.025": 0.0,
			"-0.024": 0.0,
			"-0.023": 0.0,
			"-0.022": 0.0,
			"-0.021": 0.0,
			"-0.02": 0.0,
			"-0.019": 0.0,
			"-0.018": 0.0,
			"-0.017": 0.0,
			"-0.016": 0.0,
			"-0.015": 0.0,
			"-0.014": 0.0,
			"-0.013": 0.0536985166723,
			"-0.012": 0.377799449498,
			"-0.011": 1.13424902467,
			"-0.01": 0.961310872249,
			"-0.009": 1.42486213056,
			"-0.008": 5.94372636912,
			"-0.007": 13.9061228114,
			"-0.006": 25.28285165,
			"-0.005": 26.4984526965,
			"-0.004": 34.7790685536,
			"-0.003": 27.7945002319,
			"-0.002": 26.2135484225,
			"-0.001": 25.4348885553,
			"0.0": 30.0023334539,
			"0.001": 25.6056639211,
			"0.002": 20.1771394839,
			"0.003": 17.2417357894,
			"0.004": 9.20261387748,
			"0.005": 7.31372999823,
			"0.006": 7.03502786435,
			"0.007": 4.92760913475,
			"0.008": 6.89426229336,
			"0.009": 7.07935659571,
			"0.01": 10.6977836264,
			"0.011": 15.1423804528,
			"0.012": 6.24065297327,
			"0.013": 2.04830318994,
			"0.014": 0.606314638444,
			"0.015": 0.0,
			"0.016": 0.0,
			"0.017": 0.0,
			"0.018": 0.0,
			"0.019": 0.0,
			"0.02": 0.0,
			"0.021": 0.0,
			"0.022": 0.0,
			"0.023": 0.0,
			"0.024": 0.0,
			"0.025": 0.0
		}
	}
}
