{
	 "smiles": "CN(C)C1=CC=C(C=C1)N=C1C=C(SC(=C1)C1=CC=CC=C1)C1=CC=CC=C1", 
	 "Tm": 438.15, 
	 "num_atms": 50, 
	 "gaussian": { 
		 "optdone": 1, 
		 "sigma_profile": "yes", 
		 "theory": "DFT", 
		 "functional": "B3LYP", 
		 "basiset": "6-31G**", 
		 "properties": { 
			 "R2extent": 16891.5692, 
			 "electric_dipole_moment_norm": 2.60375965865, 
			 "electric_quadrupole_moment_norm": 24.9097026893, 
			 "total_energy": -1473.58203627, 
			 "HOMO_LUMO_gap": 0.11006, 
			 "cosmo_polarized_energy": -13.87, 
			 "cosmo_cavitation_energy": 54.57, 
			 "cosmo_dispersion_energy": -38.86, 
			 "cosmo_repulsion_energy": 2.87, 
			 "cosmo_total_nonelectrostatic_energy": 18.58, 
			 "SMD_solvation_energy": 6.53 
		},
		"coords": [
			{
				"x": 1.9603919029,
				"y": -1.0544353719,
				"z": -6.5468863927,
				"element": "C" 
			},
			{
				"x": 2.1023739151,
				"y": -1.6277576944,
				"z": -5.2198719252,
				"element": "N" 
			},
			{
				"x": 3.4357779872,
				"y": -2.0159787295,
				"z": -4.7954390705,
				"element": "C" 
			},
			{
				"x": 1.1481942683,
				"y": -1.3229797513,
				"z": -4.2474287897,
				"element": "C" 
			},
			{
				"x": -0.0769602881,
				"y": -0.7011156242,
				"z": -4.5826040167,
				"element": "C" 
			},
			{
				"x": -1.0426365999,
				"y": -0.4444587305,
				"z": -3.6187316066,
				"element": "C" 
			},
			{
				"x": -0.8323461307,
				"y": -0.7390866701,
				"z": -2.2591793417,
				"element": "C" 
			},
			{
				"x": 0.385471437,
				"y": -1.3622916973,
				"z": -1.9252453133,
				"element": "C" 
			},
			{
				"x": 1.3483083555,
				"y": -1.6492145546,
				"z": -2.888312962,
				"element": "C" 
			},
			{
				"x": -1.875794854,
				"y": -0.5076672921,
				"z": -1.357905747,
				"element": "N" 
			},
			{
				"x": -1.7041366305,
				"y": 0.0359479272,
				"z": -0.1850542126,
				"element": "C" 
			},
			{
				"x": -0.4765911752,
				"y": 0.6622445869,
				"z": 0.2981277304,
				"element": "C" 
			},
			{
				"x": -0.2862085508,
				"y": 1.2104128267,
				"z": 1.522932143,
				"element": "C" 
			},
			{
				"x": -1.5277036217,
				"y": 1.2334673482,
				"z": 2.7829004732,
				"element": "S" 
			},
			{
				"x": -2.9310279171,
				"y": 0.5366494944,
				"z": 1.953006761,
				"element": "C" 
			},
			{
				"x": -2.8738283255,
				"y": 0.0702054291,
				"z": 0.6844483599,
				"element": "C" 
			},
			{
				"x": -4.1695789551,
				"y": 0.5037179674,
				"z": 2.7687109056,
				"element": "C" 
			},
			{
				"x": -4.1372385087,
				"y": 0.1967008188,
				"z": 4.1399697183,
				"element": "C" 
			},
			{
				"x": -5.313700245,
				"y": 0.1549972804,
				"z": 4.886984228,
				"element": "C" 
			},
			{
				"x": -6.5425190793,
				"y": 0.420546845,
				"z": 4.280775848,
				"element": "C" 
			},
			{
				"x": -6.5864864055,
				"y": 0.7321143279,
				"z": 2.9200582586,
				"element": "C" 
			},
			{
				"x": -5.4123157133,
				"y": 0.7790661913,
				"z": 2.1715663535,
				"element": "C" 
			},
			{
				"x": 0.9928234903,
				"y": 1.8500307257,
				"z": 1.9208824245,
				"element": "C" 
			},
			{
				"x": 2.2151708508,
				"y": 1.2874451749,
				"z": 1.5123229768,
				"element": "C" 
			},
			{
				"x": 3.424624773,
				"y": 1.8857649313,
				"z": 1.8586945177,
				"element": "C" 
			},
			{
				"x": 3.4385753309,
				"y": 3.0510861064,
				"z": 2.6283666202,
				"element": "C" 
			},
			{
				"x": 2.2322676465,
				"y": 3.6139322144,
				"z": 3.0479269845,
				"element": "C" 
			},
			{
				"x": 1.0199131945,
				"y": 3.019934993,
				"z": 2.7000106351,
				"element": "C" 
			},
			{
				"x": 1.0240138884,
				"y": -1.3771757871,
				"z": -7.015084753,
				"element": "H" 
			},
			{
				"x": 1.9763480766,
				"y": 0.0478967561,
				"z": -6.5482693138,
				"element": "H" 
			},
			{
				"x": 2.7776676118,
				"y": -1.4082595227,
				"z": -7.1781021848,
				"element": "H" 
			},
			{
				"x": 4.0462536216,
				"y": -2.2208296535,
				"z": -5.6768208549,
				"element": "H" 
			},
			{
				"x": 3.4062614594,
				"y": -2.9348778686,
				"z": -4.1991323086,
				"element": "H" 
			},
			{
				"x": 3.9434725192,
				"y": -1.2416154304,
				"z": -4.1969874941,
				"element": "H" 
			},
			{
				"x": -0.2882018421,
				"y": -0.4253926676,
				"z": -5.6086494581,
				"element": "H" 
			},
			{
				"x": -1.9848835128,
				"y": 0.0131394375,
				"z": -3.9048540669,
				"element": "H" 
			},
			{
				"x": 0.5652828306,
				"y": -1.662541185,
				"z": -0.8968179258,
				"element": "H" 
			},
			{
				"x": 2.2596022755,
				"y": -2.1423311553,
				"z": -2.5717440255,
				"element": "H" 
			},
			{
				"x": 0.3382321683,
				"y": 0.7453287362,
				"z": -0.4133960352,
				"element": "H" 
			},
			{
				"x": -3.7671430624,
				"y": -0.3715967717,
				"z": 0.2528467037,
				"element": "H" 
			},
			{
				"x": -3.18981474,
				"y": -0.033748541,
				"z": 4.6179016376,
				"element": "H" 
			},
			{
				"x": -5.2691263123,
				"y": -0.0929659062,
				"z": 5.9435233431,
				"element": "H" 
			},
			{
				"x": -7.4580699052,
				"y": 0.3889203604,
				"z": 4.8641021819,
				"element": "H" 
			},
			{
				"x": -7.5365768384,
				"y": 0.951267399,
				"z": 2.44137271,
				"element": "H" 
			},
			{
				"x": -5.4493249967,
				"y": 1.0496806884,
				"z": 1.1211434533,
				"element": "H" 
			},
			{
				"x": 2.2116098069,
				"y": 0.3671254554,
				"z": 0.9370543391,
				"element": "H" 
			},
			{
				"x": 4.3583857165,
				"y": 1.4339481774,
				"z": 1.5365794356,
				"element": "H" 
			},
			{
				"x": 4.3821740326,
				"y": 3.5141600992,
				"z": 2.9016947078,
				"element": "H" 
			},
			{
				"x": 2.2323543337,
				"y": 4.522855281,
				"z": 3.642526827,
				"element": "H" 
			},
			{
				"x": 0.0871627175,
				"y": 3.4780330257,
				"z": 3.0137875213,
				"element": "H" 
			}
		],
		 "valence_orbital": [ 
			{
				"type": "occ",
				"energy": -0.23816,
				"method": "rhf"
			},
			{
				"type": "occ",
				"energy": -0.23657,
				"method": "rhf"
			},
			{
				"type": "occ",
				"energy": -0.23418,
				"method": "rhf"
			},
			{
				"type": "occ",
				"energy": -0.20929,
				"method": "rhf"
			},
			{
				"type": "occ",
				"energy": -0.16466,
				"method": "rhf"
			},
			{
				"type": "unocc",
				"energy": -0.0546,
				"method": "rhf"
			},
			{
				"type": "unocc",
				"energy": -0.04021,
				"method": "rhf"
			},
			{
				"type": "unocc",
				"energy": -0.01114,
				"method": "rhf"
			},
			{
				"type": "unocc",
				"energy": -0.00771,
				"method": "rhf"
			},
			{
				"type": "unocc",
				"energy": 0.00678,
				"method": "rhf"
			}
		],
		"cosmo_sigma_profile": { 
			"-0.025": 0.0,
			"-0.024": 0.0,
			"-0.023": 0.0,
			"-0.022": 0.0,
			"-0.021": 0.0,
			"-0.02": 0.0,
			"-0.019": 0.0,
			"-0.018": 0.0,
			"-0.017": 0.0,
			"-0.016": 0.0,
			"-0.015": 0.0,
			"-0.014": 0.0,
			"-0.013": 0.0,
			"-0.012": 0.0,
			"-0.011": 0.0,
			"-0.01": 0.0,
			"-0.009": 0.0,
			"-0.008": 0.0,
			"-0.007": 1.63974860223,
			"-0.006": 20.5946984172,
			"-0.005": 35.396726233,
			"-0.004": 41.2820794595,
			"-0.003": 38.2824849434,
			"-0.002": 39.1542826699,
			"-0.001": 38.1801448678,
			"0.0": 31.78416997,
			"0.001": 37.9580625808,
			"0.002": 37.1154663539,
			"0.003": 31.3001633382,
			"0.004": 31.2347034151,
			"0.005": 21.524074274,
			"0.006": 12.1591043282,
			"0.007": 9.41748025503,
			"0.008": 3.15745956507,
			"0.009": 2.04684078387,
			"0.01": 0.930352359779,
			"0.011": 1.0362929659,
			"0.012": 1.182478888,
			"0.013": 1.13129320882,
			"0.014": 0.205254309093,
			"0.015": 0.84120084633,
			"0.016": 0.785750769134,
			"0.017": 0.170354566899,
			"0.018": 0.0,
			"0.019": 0.0,
			"0.02": 0.0,
			"0.021": 0.0,
			"0.022": 0.0,
			"0.023": 0.0,
			"0.024": 0.0,
			"0.025": 0.0
		}
	}
}
