{
	 "smiles": "CC(O)=O", 
	 "Tm": 289.95, 
	 "num_atms": 8, 
	 "gaussian": { 
		 "optdone": 1, 
		 "sigma_profile": "yes", 
		 "theory": "DFT", 
		 "functional": "B3LYP", 
		 "basiset": "6-31G**", 
		 "properties": { 
			 "R2extent": 534.2912, 
			 "electric_dipole_moment_norm": 4.28357563958, 
			 "electric_quadrupole_moment_norm": 6.63936566548, 
			 "total_energy": -229.077660857, 
			 "HOMO_LUMO_gap": 0.28144, 
			 "cosmo_polarized_energy": -13.4, 
			 "cosmo_cavitation_energy": 11.91, 
			 "cosmo_dispersion_energy": -8.89, 
			 "cosmo_repulsion_energy": 0.84, 
			 "cosmo_total_nonelectrostatic_energy": 3.86, 
			 "SMD_solvation_energy": 3.85 
		},
		"coords": [
			{
				"x": -0.5244752674,
				"y": -0.533549723,
				"z": -2.8562101693,
				"element": "C" 
			},
			{
				"x": -0.0851618821,
				"y": -0.1486658549,
				"z": -1.4541444838,
				"element": "C" 
			},
			{
				"x": -1.0746426581,
				"y": -0.1421407866,
				"z": -0.5158584001,
				"element": "O" 
			},
			{
				"x": 1.0415230058,
				"y": 0.1383770357,
				"z": -1.1432565245,
				"element": "O" 
			},
			{
				"x": -0.9550417122,
				"y": -1.5412330945,
				"z": -2.8636951468,
				"element": "H" 
			},
			{
				"x": 0.3370887867,
				"y": -0.5067143039,
				"z": -3.5219495558,
				"element": "H" 
			},
			{
				"x": -1.2881881504,
				"y": 0.1597480629,
				"z": -3.2262836062,
				"element": "H" 
			},
			{
				"x": -1.9190021224,
				"y": -0.3927213358,
				"z": -0.9160021136,
				"element": "H" 
			}
		],
		 "valence_orbital": [ 
			{
				"type": "occ",
				"energy": -0.41855,
				"method": "rhf"
			},
			{
				"type": "occ",
				"energy": -0.39771,
				"method": "rhf"
			},
			{
				"type": "occ",
				"energy": -0.37594,
				"method": "rhf"
			},
			{
				"type": "occ",
				"energy": -0.3156,
				"method": "rhf"
			},
			{
				"type": "occ",
				"energy": -0.27157,
				"method": "rhf"
			},
			{
				"type": "unocc",
				"energy": 0.00987,
				"method": "rhf"
			},
			{
				"type": "unocc",
				"energy": 0.05045,
				"method": "rhf"
			},
			{
				"type": "unocc",
				"energy": 0.11682,
				"method": "rhf"
			},
			{
				"type": "unocc",
				"energy": 0.1497,
				"method": "rhf"
			},
			{
				"type": "unocc",
				"energy": 0.15645,
				"method": "rhf"
			}
		],
		"cosmo_sigma_profile": { 
			"-0.025": 0.0,
			"-0.024": 0.0,
			"-0.023": 0.0,
			"-0.022": 0.0,
			"-0.021": 0.0,
			"-0.02": 0.0,
			"-0.019": 0.642885894807,
			"-0.018": 1.04671133965,
			"-0.017": 0.959807729859,
			"-0.016": 1.28412545531,
			"-0.015": 1.24993676127,
			"-0.014": 0.398651378897,
			"-0.013": 0.862006291062,
			"-0.012": 1.39989007362,
			"-0.011": 1.52703163874,
			"-0.01": 1.43734129757,
			"-0.009": 1.41277136811,
			"-0.008": 2.07113062657,
			"-0.007": 4.67421699442,
			"-0.006": 5.06719218797,
			"-0.005": 4.88378698221,
			"-0.004": 5.7669476181,
			"-0.003": 6.56221609156,
			"-0.002": 7.70007868667,
			"-0.001": 4.08508259183,
			"0.0": 1.80857464858,
			"0.001": 2.43347814552,
			"0.002": 1.60620135197,
			"0.003": 1.56919754921,
			"0.004": 1.33448929765,
			"0.005": 2.46703434512,
			"0.006": 1.94423675034,
			"0.007": 2.48182336926,
			"0.008": 2.3587913627,
			"0.009": 3.37833057822,
			"0.01": 3.94345142947,
			"0.011": 5.92041488882,
			"0.012": 6.46580244101,
			"0.013": 2.92169709398,
			"0.014": 0.14907866493,
			"0.015": 0.0,
			"0.016": 0.0,
			"0.017": 0.0,
			"0.018": 0.0,
			"0.019": 0.0,
			"0.02": 0.0,
			"0.021": 0.0,
			"0.022": 0.0,
			"0.023": 0.0,
			"0.024": 0.0,
			"0.025": 0.0
		}
	}
}
