{
	 "smiles": "CC1=C(NC(=O)CCN)C=CC(Br)=C1", 
	 "Tm": 351.15, 
	 "num_atms": 27, 
	 "gaussian": { 
		 "optdone": 1, 
		 "sigma_profile": "yes", 
		 "theory": "DFT", 
		 "functional": "B3LYP", 
		 "basiset": "6-31G**", 
		 "properties": { 
			 "R2extent": 7912.3443, 
			 "electric_dipole_moment_norm": 2.49397614463, 
			 "electric_quadrupole_moment_norm": 19.8861993827, 
			 "total_energy": -3145.05023751, 
			 "HOMO_LUMO_gap": 0.19264, 
			 "cosmo_polarized_energy": -14.25, 
			 "cosmo_cavitation_energy": 32.53, 
			 "cosmo_dispersion_energy": -23.72, 
			 "cosmo_repulsion_energy": 1.9, 
			 "cosmo_total_nonelectrostatic_energy": 10.71, 
			 "SMD_solvation_energy": 3.4 
		},
		"coords": [
			{
				"x": 2.0717364772,
				"y": -0.1171693474,
				"z": -1.6328331298,
				"element": "C" 
			},
			{
				"x": 1.1063143323,
				"y": 1.0372954915,
				"z": -1.7460566583,
				"element": "C" 
			},
			{
				"x": -0.1956517279,
				"y": 0.9525870076,
				"z": -1.2044565285,
				"element": "C" 
			},
			{
				"x": -0.5967217643,
				"y": -0.2531691658,
				"z": -0.5806246151,
				"element": "N" 
			},
			{
				"x": -1.2621507361,
				"y": -0.494255644,
				"z": 0.6093484736,
				"element": "C" 
			},
			{
				"x": -1.4965942371,
				"y": -1.6571349486,
				"z": 0.9246487487,
				"element": "O" 
			},
			{
				"x": -1.6400710785,
				"y": 0.6865043949,
				"z": 1.491590385,
				"element": "C" 
			},
			{
				"x": -1.7164616021,
				"y": 0.3033920351,
				"z": 2.9889396031,
				"element": "C" 
			},
			{
				"x": -2.7770992801,
				"y": -0.6158347916,
				"z": 3.383817575,
				"element": "N" 
			},
			{
				"x": -1.0773115059,
				"y": 2.032720213,
				"z": -1.335832664,
				"element": "C" 
			},
			{
				"x": -0.6779260696,
				"y": 3.2128898326,
				"z": -1.9597807817,
				"element": "C" 
			},
			{
				"x": 0.6078921385,
				"y": 3.2939970679,
				"z": -2.4852674059,
				"element": "C" 
			},
			{
				"x": 1.174404996,
				"y": 4.8968177822,
				"z": -3.3568868453,
				"element": "Br" 
			},
			{
				"x": 1.4879400572,
				"y": 2.2181152459,
				"z": -2.3898070477,
				"element": "C" 
			},
			{
				"x": 2.1572669124,
				"y": -0.4658137685,
				"z": -0.5981289806,
				"element": "H" 
			},
			{
				"x": 3.066351987,
				"y": 0.1710128802,
				"z": -1.9803858199,
				"element": "H" 
			},
			{
				"x": 1.7543245286,
				"y": -0.9774579562,
				"z": -2.2371563494,
				"element": "H" 
			},
			{
				"x": -0.3058783112,
				"y": -1.1199935579,
				"z": -1.0177443386,
				"element": "H" 
			},
			{
				"x": -2.6215227949,
				"y": 1.0608838561,
				"z": 1.1687494669,
				"element": "H" 
			},
			{
				"x": -0.9331401856,
				"y": 1.5101577028,
				"z": 1.3420433142,
				"element": "H" 
			},
			{
				"x": -0.7581786928,
				"y": -0.1369482443,
				"z": 3.2879364564,
				"element": "H" 
			},
			{
				"x": -1.8241984176,
				"y": 1.2303365588,
				"z": 3.5647492869,
				"element": "H" 
			},
			{
				"x": -2.6836118094,
				"y": -1.459246157,
				"z": 2.8226885854,
				"element": "H" 
			},
			{
				"x": -3.6855332455,
				"y": -0.213933359,
				"z": 3.1614127192,
				"element": "H" 
			},
			{
				"x": -2.0917818126,
				"y": 1.9440832422,
				"z": -0.964361102,
				"element": "H" 
			},
			{
				"x": -1.3648311912,
				"y": 4.0460801888,
				"z": -2.0515657602,
				"element": "H" 
			},
			{
				"x": 2.4852330329,
				"y": 2.3008834406,
				"z": -2.8081365876,
				"element": "H" 
			}
		],
		 "valence_orbital": [ 
			{
				"type": "occ",
				"energy": -0.28539,
				"method": "rhf"
			},
			{
				"type": "occ",
				"energy": -0.26919,
				"method": "rhf"
			},
			{
				"type": "occ",
				"energy": -0.26489,
				"method": "rhf"
			},
			{
				"type": "occ",
				"energy": -0.23233,
				"method": "rhf"
			},
			{
				"type": "occ",
				"energy": -0.22298,
				"method": "rhf"
			},
			{
				"type": "unocc",
				"energy": -0.03034,
				"method": "rhf"
			},
			{
				"type": "unocc",
				"energy": -0.02373,
				"method": "rhf"
			},
			{
				"type": "unocc",
				"energy": 0.00081,
				"method": "rhf"
			},
			{
				"type": "unocc",
				"energy": 0.01945,
				"method": "rhf"
			},
			{
				"type": "unocc",
				"energy": 0.07256,
				"method": "rhf"
			}
		],
		"cosmo_sigma_profile": { 
			"-0.025": 0.0,
			"-0.024": 0.0,
			"-0.023": 0.0,
			"-0.022": 0.0,
			"-0.021": 0.0,
			"-0.02": 0.0,
			"-0.019": 0.0,
			"-0.018": 0.0,
			"-0.017": 0.0,
			"-0.016": 0.0,
			"-0.015": 0.0,
			"-0.014": 0.0,
			"-0.013": 0.712270628621,
			"-0.012": 1.13704202337,
			"-0.011": 1.41910485631,
			"-0.01": 0.833096849583,
			"-0.009": 2.60882906093,
			"-0.008": 3.8148397869,
			"-0.007": 8.90971624046,
			"-0.006": 12.7565858495,
			"-0.005": 13.9802376567,
			"-0.004": 20.0084194952,
			"-0.003": 24.7236021395,
			"-0.002": 21.3442429058,
			"-0.001": 22.2494408454,
			"0.0": 17.0956983934,
			"0.001": 15.5531368758,
			"0.002": 18.924798042,
			"0.003": 22.2214673537,
			"0.004": 16.514303287,
			"0.005": 9.89892898171,
			"0.006": 1.56851892103,
			"0.007": 2.09238189811,
			"0.008": 2.11718341452,
			"0.009": 2.18898154162,
			"0.01": 2.20696548402,
			"0.011": 2.75626199094,
			"0.012": 3.19317009866,
			"0.013": 3.40828640614,
			"0.014": 1.17462434762,
			"0.015": 0.974597156872,
			"0.016": 1.00828483489,
			"0.017": 0.648609906954,
			"0.018": 0.541828664451,
			"0.019": 0.57215787526,
			"0.02": 0.701170667948,
			"0.021": 0.0,
			"0.022": 0.0,
			"0.023": 0.0,
			"0.024": 0.0,
			"0.025": 0.0
		}
	}
}
