{
	 "smiles": "NC1=CN=C(OC2=C(C=CC=C2)C#N)C=C1", 
	 "Tm": 366.15, 
	 "num_atms": 25, 
	 "gaussian": { 
		 "optdone": 1, 
		 "sigma_profile": "yes", 
		 "theory": "DFT", 
		 "functional": "B3LYP", 
		 "basiset": "6-31G**", 
		 "properties": { 
			 "R2extent": 4036.1389, 
			 "electric_dipole_moment_norm": 4.79637140138, 
			 "electric_quadrupole_moment_norm": 30.3594637127, 
			 "total_energy": -702.152221598, 
			 "HOMO_LUMO_gap": 0.15957, 
			 "cosmo_polarized_energy": -17.62, 
			 "cosmo_cavitation_energy": 31.35, 
			 "cosmo_dispersion_energy": -21.73, 
			 "cosmo_repulsion_energy": 1.72, 
			 "cosmo_total_nonelectrostatic_energy": 11.34, 
			 "SMD_solvation_energy": 5.85 
		},
		"coords": [
			{
				"x": 0.9336333086,
				"y": 4.0455198953,
				"z": -1.7650226536,
				"element": "N" 
			},
			{
				"x": 0.1948251993,
				"y": 2.9904147026,
				"z": -1.2233073939,
				"element": "C" 
			},
			{
				"x": 0.8146607617,
				"y": 1.8240858576,
				"z": -0.7569016094,
				"element": "C" 
			},
			{
				"x": 0.1466152705,
				"y": 0.7645565933,
				"z": -0.2818320764,
				"element": "N" 
			},
			{
				"x": -1.1705564208,
				"y": 0.8242629199,
				"z": -0.2579026314,
				"element": "C" 
			},
			{
				"x": -1.8890427149,
				"y": -0.2445144165,
				"z": 0.2489370002,
				"element": "O" 
			},
			{
				"x": -1.231485165,
				"y": -1.4222573224,
				"z": 0.5308810045,
				"element": "C" 
			},
			{
				"x": -0.8693099827,
				"y": -2.3107098256,
				"z": -0.4999386161,
				"element": "C" 
			},
			{
				"x": -0.2874124989,
				"y": -3.5464378421,
				"z": -0.1703808394,
				"element": "C" 
			},
			{
				"x": -0.0768615276,
				"y": -3.8908683788,
				"z": 1.1615773557,
				"element": "C" 
			},
			{
				"x": -0.4492510377,
				"y": -3.0052405753,
				"z": 2.1757364405,
				"element": "C" 
			},
			{
				"x": -1.022906607,
				"y": -1.7732307967,
				"z": 1.8612421261,
				"element": "C" 
			},
			{
				"x": -1.1095250896,
				"y": -1.9743795515,
				"z": -1.8706857982,
				"element": "C" 
			},
			{
				"x": -1.3054904793,
				"y": -1.7275739678,
				"z": -2.9903434703,
				"element": "N" 
			},
			{
				"x": -1.9117267368,
				"y": 1.9280577946,
				"z": -0.6924057453,
				"element": "C" 
			},
			{
				"x": -1.2120522636,
				"y": 3.0209649629,
				"z": -1.1790851765,
				"element": "C" 
			},
			{
				"x": 1.903602931,
				"y": 4.0731730024,
				"z": -1.4806008221,
				"element": "H" 
			},
			{
				"x": 0.4998247938,
				"y": 4.9552992722,
				"z": -1.6864729892,
				"element": "H" 
			},
			{
				"x": 1.900872579,
				"y": 1.7408300264,
				"z": -0.7692229543,
				"element": "H" 
			},
			{
				"x": -0.0114991218,
				"y": -4.2262292004,
				"z": -0.9695316897,
				"element": "H" 
			},
			{
				"x": 0.3705774742,
				"y": -4.8485119623,
				"z": 1.4073083458,
				"element": "H" 
			},
			{
				"x": -0.2907464231,
				"y": -3.2719764889,
				"z": 3.2163450082,
				"element": "H" 
			},
			{
				"x": -1.3185687036,
				"y": -1.0723216234,
				"z": 2.6342347908,
				"element": "H" 
			},
			{
				"x": -2.9945820049,
				"y": 1.9119327971,
				"z": -0.6494729517,
				"element": "H" 
			},
			{
				"x": -1.7480955409,
				"y": 3.8963541273,
				"z": -1.5366546544,
				"element": "H" 
			}
		],
		 "valence_orbital": [ 
			{
				"type": "occ",
				"energy": -0.27771,
				"method": "rhf"
			},
			{
				"type": "occ",
				"energy": -0.26981,
				"method": "rhf"
			},
			{
				"type": "occ",
				"energy": -0.26305,
				"method": "rhf"
			},
			{
				"type": "occ",
				"energy": -0.25135,
				"method": "rhf"
			},
			{
				"type": "occ",
				"energy": -0.20423,
				"method": "rhf"
			},
			{
				"type": "unocc",
				"energy": -0.04466,
				"method": "rhf"
			},
			{
				"type": "unocc",
				"energy": -0.02215,
				"method": "rhf"
			},
			{
				"type": "unocc",
				"energy": -0.01414,
				"method": "rhf"
			},
			{
				"type": "unocc",
				"energy": 0.01492,
				"method": "rhf"
			},
			{
				"type": "unocc",
				"energy": 0.04439,
				"method": "rhf"
			}
		],
		"cosmo_sigma_profile": { 
			"-0.025": 0.0,
			"-0.024": 0.0,
			"-0.023": 0.0,
			"-0.022": 0.0,
			"-0.021": 0.0,
			"-0.02": 0.0,
			"-0.019": 0.0,
			"-0.018": 0.0,
			"-0.017": 0.0,
			"-0.016": 0.0,
			"-0.015": 0.0,
			"-0.014": 0.0,
			"-0.013": 1.12020051189,
			"-0.012": 3.03974319478,
			"-0.011": 2.80271646899,
			"-0.01": 3.6944777044,
			"-0.009": 3.54800274101,
			"-0.008": 6.93966291559,
			"-0.007": 15.0347510969,
			"-0.006": 15.8485120892,
			"-0.005": 15.0081893733,
			"-0.004": 11.6543942384,
			"-0.003": 10.3744841254,
			"-0.002": 11.0656950285,
			"-0.001": 12.4479069377,
			"0.0": 14.8900099404,
			"0.001": 17.9749976393,
			"0.002": 23.3291883996,
			"0.003": 23.0282095272,
			"0.004": 11.3768038084,
			"0.005": 8.62072442366,
			"0.006": 6.26519396217,
			"0.007": 6.32795603833,
			"0.008": 6.66308476502,
			"0.009": 5.26107804018,
			"0.01": 4.84179559839,
			"0.011": 4.32798869764,
			"0.012": 3.6864244919,
			"0.013": 2.94726761318,
			"0.014": 0.544239906721,
			"0.015": 0.061257224759,
			"0.016": 0.0,
			"0.017": 0.0,
			"0.018": 0.0,
			"0.019": 0.0,
			"0.02": 0.0,
			"0.021": 0.0,
			"0.022": 0.0,
			"0.023": 0.0,
			"0.024": 0.0,
			"0.025": 0.0
		}
	}
}
