{
	 "smiles": "[O-][N+](=O)C1=CC(=C(Br)C=C1)[N+]([O-])=O", 
	 "Tm": 345.15, 
	 "num_atms": 16, 
	 "gaussian": { 
		 "optdone": 1, 
		 "sigma_profile": "yes", 
		 "theory": "DFT", 
		 "functional": "B3LYP", 
		 "basiset": "6-31G**", 
		 "properties": { 
			 "R2extent": 4432.4035, 
			 "electric_dipole_moment_norm": 3.86775148633, 
			 "electric_quadrupole_moment_norm": 10.5684955202, 
			 "total_energy": -3212.02703311, 
			 "HOMO_LUMO_gap": 0.17247, 
			 "cosmo_polarized_energy": -11.45, 
			 "cosmo_cavitation_energy": 24.85, 
			 "cosmo_dispersion_energy": -18.56, 
			 "cosmo_repulsion_energy": 1.46, 
			 "cosmo_total_nonelectrostatic_energy": 7.75, 
			 "SMD_solvation_energy": 7.82 
		},
		"coords": [
			{
				"x": 0.0971284306,
				"y": 1.4647741719,
				"z": 3.0222181534,
				"element": "O" 
			},
			{
				"x": -0.6382424759,
				"y": 0.8010717128,
				"z": 2.2961908025,
				"element": "N" 
			},
			{
				"x": -1.6317548256,
				"y": 0.1790721658,
				"z": 2.6660396686,
				"element": "O" 
			},
			{
				"x": -0.304744913,
				"y": 0.744410493,
				"z": 0.8622032628,
				"element": "C" 
			},
			{
				"x": 0.8167467142,
				"y": 1.421956069,
				"z": 0.4078946873,
				"element": "C" 
			},
			{
				"x": 1.1195739431,
				"y": 1.3825245306,
				"z": -0.9507932076,
				"element": "C" 
			},
			{
				"x": 0.3258227155,
				"y": 0.6463183172,
				"z": -1.8451249474,
				"element": "C" 
			},
			{
				"x": 0.6996120443,
				"y": 0.4559442102,
				"z": -3.6888162358,
				"element": "Br" 
			},
			{
				"x": -0.7875337769,
				"y": -0.0429802823,
				"z": -1.3475298159,
				"element": "C" 
			},
			{
				"x": -1.1165704318,
				"y": 0.0090206942,
				"z": 0.0014373334,
				"element": "C" 
			},
			{
				"x": 2.3050832663,
				"y": 2.162103362,
				"z": -1.3657717694,
				"element": "N" 
			},
			{
				"x": 2.2854458101,
				"y": 2.6891415819,
				"z": -2.4714083111,
				"element": "O" 
			},
			{
				"x": 3.2169853972,
				"y": 2.247277506,
				"z": -0.5464551476,
				"element": "O" 
			},
			{
				"x": 1.4480915378,
				"y": 1.9726504932,
				"z": 1.0924605538,
				"element": "H" 
			},
			{
				"x": -1.3922321827,
				"y": -0.6236914528,
				"z": -2.0335775964,
				"element": "H" 
			},
			{
				"x": -1.9807112533,
				"y": -0.5122935726,
				"z": 0.3938325693,
				"element": "H" 
			}
		],
		 "valence_orbital": [ 
			{
				"type": "occ",
				"energy": -0.32661,
				"method": "rhf"
			},
			{
				"type": "occ",
				"energy": -0.31419,
				"method": "rhf"
			},
			{
				"type": "occ",
				"energy": -0.31148,
				"method": "rhf"
			},
			{
				"type": "occ",
				"energy": -0.29864,
				"method": "rhf"
			},
			{
				"type": "occ",
				"energy": -0.29102,
				"method": "rhf"
			},
			{
				"type": "unocc",
				"energy": -0.11855,
				"method": "rhf"
			},
			{
				"type": "unocc",
				"energy": -0.10535,
				"method": "rhf"
			},
			{
				"type": "unocc",
				"energy": -0.04982,
				"method": "rhf"
			},
			{
				"type": "unocc",
				"energy": -0.03231,
				"method": "rhf"
			},
			{
				"type": "unocc",
				"energy": -0.02391,
				"method": "rhf"
			}
		],
		"cosmo_sigma_profile": { 
			"-0.025": 0.0,
			"-0.024": 0.0,
			"-0.023": 0.0,
			"-0.022": 0.0,
			"-0.021": 0.0,
			"-0.02": 0.0,
			"-0.019": 0.0,
			"-0.018": 0.0,
			"-0.017": 0.0,
			"-0.016": 0.0,
			"-0.015": 0.0,
			"-0.014": 0.0,
			"-0.013": 0.0,
			"-0.012": 0.0,
			"-0.011": 0.0,
			"-0.01": 1.13221801123,
			"-0.009": 5.8118820831,
			"-0.008": 7.41812674678,
			"-0.007": 8.03822978658,
			"-0.006": 9.49880568062,
			"-0.005": 9.71661679387,
			"-0.004": 17.1257198165,
			"-0.003": 19.6689521663,
			"-0.002": 14.6617501713,
			"-0.001": 12.5239172066,
			"0.0": 8.44919379954,
			"0.001": 9.79803452284,
			"0.002": 11.6730863967,
			"0.003": 7.40047226537,
			"0.004": 7.26725430676,
			"0.005": 7.8342447435,
			"0.006": 13.1458137437,
			"0.007": 18.7384954611,
			"0.008": 8.8258828237,
			"0.009": 5.04586747995,
			"0.01": 0.32791488405,
			"0.011": 0.0,
			"0.012": 0.0,
			"0.013": 0.0,
			"0.014": 0.0,
			"0.015": 0.0,
			"0.016": 0.0,
			"0.017": 0.0,
			"0.018": 0.0,
			"0.019": 0.0,
			"0.02": 0.0,
			"0.021": 0.0,
			"0.022": 0.0,
			"0.023": 0.0,
			"0.024": 0.0,
			"0.025": 0.0
		}
	}
}
