{
	 "smiles": "FC1=CC=C(C=CC(=O)C2=CC=CC=C2)C=C1", 
	 "Tm": 359.15, 
	 "num_atms": 28, 
	 "gaussian": { 
		 "optdone": 1, 
		 "sigma_profile": "yes", 
		 "theory": "DFT", 
		 "functional": "B3LYP", 
		 "basiset": "6-31G**", 
		 "properties": { 
			 "R2extent": 4365.0064, 
			 "electric_dipole_moment_norm": 2.78025879011, 
			 "electric_quadrupole_moment_norm": 16.8293722206, 
			 "total_energy": -753.262522222, 
			 "HOMO_LUMO_gap": 0.16358, 
			 "cosmo_polarized_energy": -9.86, 
			 "cosmo_cavitation_energy": 33.12, 
			 "cosmo_dispersion_energy": -22.62, 
			 "cosmo_repulsion_energy": 1.74, 
			 "cosmo_total_nonelectrostatic_energy": 12.24, 
			 "SMD_solvation_energy": 6.6 
		},
		"coords": [
			{
				"x": -3.0784405332,
				"y": -2.0281086692,
				"z": 1.4068712238,
				"element": "F" 
			},
			{
				"x": -1.8912347539,
				"y": -1.799095422,
				"z": 0.8108553986,
				"element": "C" 
			},
			{
				"x": -0.9742640509,
				"y": -0.9577047717,
				"z": 1.4322576322,
				"element": "C" 
			},
			{
				"x": 0.251397561,
				"y": -0.7256735837,
				"z": 0.8144449189,
				"element": "C" 
			},
			{
				"x": 0.565943528,
				"y": -1.3191078547,
				"z": -0.422663538,
				"element": "C" 
			},
			{
				"x": 1.8493874402,
				"y": -1.1066474237,
				"z": -1.1096993422,
				"element": "C" 
			},
			{
				"x": 2.680322591,
				"y": -0.048864414,
				"z": -1.0582894993,
				"element": "C" 
			},
			{
				"x": 2.5420222174,
				"y": 1.2344350765,
				"z": -0.2935262634,
				"element": "C" 
			},
			{
				"x": 3.4240639169,
				"y": 1.537070275,
				"z": 0.5031796427,
				"element": "O" 
			},
			{
				"x": 1.398582981,
				"y": 2.1644657374,
				"z": -0.5610265956,
				"element": "C" 
			},
			{
				"x": 1.2566670808,
				"y": 3.288160969,
				"z": 0.2694812434,
				"element": "C" 
			},
			{
				"x": 0.2314193005,
				"y": 4.2018543407,
				"z": 0.0474255047,
				"element": "C" 
			},
			{
				"x": -0.6577960476,
				"y": 4.009608691,
				"z": -1.0152295455,
				"element": "C" 
			},
			{
				"x": -0.5165496288,
				"y": 2.9016619066,
				"z": -1.8530657212,
				"element": "C" 
			},
			{
				"x": 0.5063238065,
				"y": 1.9809252533,
				"z": -1.6275558953,
				"element": "C" 
			},
			{
				"x": -0.3787577791,
				"y": -2.1875836812,
				"z": -1.0008270859,
				"element": "C" 
			},
			{
				"x": -1.6112136017,
				"y": -2.4255124256,
				"z": -0.3988925099,
				"element": "C" 
			},
			{
				"x": -1.2212439592,
				"y": -0.5092878945,
				"z": 2.3883317776,
				"element": "H" 
			},
			{
				"x": 0.9827268806,
				"y": -0.1004199163,
				"z": 1.3143120163,
				"element": "H" 
			},
			{
				"x": 2.1704837531,
				"y": -1.9443807378,
				"z": -1.7288224845,
				"element": "H" 
			},
			{
				"x": 3.6442188528,
				"y": -0.1365550974,
				"z": -1.5560829051,
				"element": "H" 
			},
			{
				"x": 1.9662660926,
				"y": 3.4206786873,
				"z": 1.0794901608,
				"element": "H" 
			},
			{
				"x": 0.1236788174,
				"y": 5.0657577369,
				"z": 0.6969569,
				"element": "H" 
			},
			{
				"x": -1.4567734569,
				"y": 4.7245066129,
				"z": -1.190921677,
				"element": "H" 
			},
			{
				"x": -1.2020631247,
				"y": 2.7556109746,
				"z": -2.682693265,
				"element": "H" 
			},
			{
				"x": 0.6200264366,
				"y": 1.1232583917,
				"z": -2.2813492199,
				"element": "H" 
			},
			{
				"x": -0.1453792755,
				"y": -2.6751022307,
				"z": -1.9436567215,
				"element": "H" 
			},
			{
				"x": -2.346615045,
				"y": -3.0864505305,
				"z": -0.8445041497,
				"element": "H" 
			}
		],
		 "valence_orbital": [ 
			{
				"type": "occ",
				"energy": -0.26911,
				"method": "rhf"
			},
			{
				"type": "occ",
				"energy": -0.25974,
				"method": "rhf"
			},
			{
				"type": "occ",
				"energy": -0.2581,
				"method": "rhf"
			},
			{
				"type": "occ",
				"energy": -0.25127,
				"method": "rhf"
			},
			{
				"type": "occ",
				"energy": -0.22963,
				"method": "rhf"
			},
			{
				"type": "unocc",
				"energy": -0.06605,
				"method": "rhf"
			},
			{
				"type": "unocc",
				"energy": -0.03509,
				"method": "rhf"
			},
			{
				"type": "unocc",
				"energy": -0.01687,
				"method": "rhf"
			},
			{
				"type": "unocc",
				"energy": -0.00657,
				"method": "rhf"
			},
			{
				"type": "unocc",
				"energy": 0.02963,
				"method": "rhf"
			}
		],
		"cosmo_sigma_profile": { 
			"-0.025": 0.0,
			"-0.024": 0.0,
			"-0.023": 0.0,
			"-0.022": 0.0,
			"-0.021": 0.0,
			"-0.02": 0.0,
			"-0.019": 0.0,
			"-0.018": 0.0,
			"-0.017": 0.0,
			"-0.016": 0.0,
			"-0.015": 0.0,
			"-0.014": 0.0,
			"-0.013": 0.0,
			"-0.012": 0.0,
			"-0.011": 0.0,
			"-0.01": 0.0,
			"-0.009": 0.0,
			"-0.008": 0.652104262989,
			"-0.007": 9.20917460099,
			"-0.006": 18.849619261,
			"-0.005": 22.2523996522,
			"-0.004": 20.5773011596,
			"-0.003": 16.849456717,
			"-0.002": 16.0969346667,
			"-0.001": 16.7917894153,
			"0.0": 19.2121311858,
			"0.001": 22.4886300108,
			"0.002": 22.9863241051,
			"0.003": 26.9628877752,
			"0.004": 28.884629759,
			"0.005": 6.48125581585,
			"0.006": 2.26446293498,
			"0.007": 1.79440848288,
			"0.008": 1.34553420569,
			"0.009": 1.81706980237,
			"0.01": 1.61014539228,
			"0.011": 3.49725912429,
			"0.012": 3.91158437037,
			"0.013": 1.56646139446,
			"0.014": 0.1752856192,
			"0.015": 0.0,
			"0.016": 0.0,
			"0.017": 0.0,
			"0.018": 0.0,
			"0.019": 0.0,
			"0.02": 0.0,
			"0.021": 0.0,
			"0.022": 0.0,
			"0.023": 0.0,
			"0.024": 0.0,
			"0.025": 0.0
		}
	}
}
