{
	 "smiles": "C(OCC1=CC=CC=C1)C1=CC=CC=C1", 
	 "Tm": 276.65, 
	 "num_atms": 29, 
	 "gaussian": { 
		 "optdone": 1, 
		 "sigma_profile": "yes", 
		 "theory": "DFT", 
		 "functional": "B3LYP", 
		 "basiset": "6-31G**", 
		 "properties": { 
			 "R2extent": 5214.927, 
			 "electric_dipole_moment_norm": 1.15651582782, 
			 "electric_quadrupole_moment_norm": 5.94942891545, 
			 "total_energy": -617.140217292, 
			 "HOMO_LUMO_gap": 0.23189, 
			 "cosmo_polarized_energy": -7.09, 
			 "cosmo_cavitation_energy": 32.59, 
			 "cosmo_dispersion_energy": -23.37, 
			 "cosmo_repulsion_energy": 1.85, 
			 "cosmo_total_nonelectrostatic_energy": 11.07, 
			 "SMD_solvation_energy": 5.34 
		},
		"coords": [
			{
				"x": -0.1435011326,
				"y": 1.1705848754,
				"z": 1.5728819997,
				"element": "C" 
			},
			{
				"x": -0.4485781038,
				"y": 0.2611574713,
				"z": 0.5281571661,
				"element": "O" 
			},
			{
				"x": -1.5486739191,
				"y": 0.6625454021,
				"z": -0.275942981,
				"element": "C" 
			},
			{
				"x": -1.8843837604,
				"y": -0.4264476748,
				"z": -1.2689580343,
				"element": "C" 
			},
			{
				"x": -1.6226875306,
				"y": -1.7713236594,
				"z": -0.9830464234,
				"element": "C" 
			},
			{
				"x": -1.978912634,
				"y": -2.768177679,
				"z": -1.8924782518,
				"element": "C" 
			},
			{
				"x": -2.6072770894,
				"y": -2.4347357085,
				"z": -3.0939466304,
				"element": "C" 
			},
			{
				"x": -2.8713463575,
				"y": -1.0950247693,
				"z": -3.3850195376,
				"element": "C" 
			},
			{
				"x": -2.5063490153,
				"y": -0.098195253,
				"z": -2.4793898504,
				"element": "C" 
			},
			{
				"x": 0.4951931386,
				"y": 2.4647177202,
				"z": 1.099367967,
				"element": "C" 
			},
			{
				"x": 1.4096916595,
				"y": 2.4520986277,
				"z": 0.0380378131,
				"element": "C" 
			},
			{
				"x": 2.0319932925,
				"y": 3.6304681521,
				"z": -0.3732598896,
				"element": "C" 
			},
			{
				"x": 1.7534746296,
				"y": 4.836121948,
				"z": 0.2759342838,
				"element": "C" 
			},
			{
				"x": 0.8431871534,
				"y": 4.856992592,
				"z": 1.3335382336,
				"element": "C" 
			},
			{
				"x": 0.2136935446,
				"y": 3.6774761457,
				"z": 1.7371525141,
				"element": "C" 
			},
			{
				"x": -1.0439952307,
				"y": 1.3950429691,
				"z": 2.167761064,
				"element": "H" 
			},
			{
				"x": 0.5515710569,
				"y": 0.6285605082,
				"z": 2.2253920557,
				"element": "H" 
			},
			{
				"x": -1.3263936042,
				"y": 1.600774696,
				"z": -0.8051752869,
				"element": "H" 
			},
			{
				"x": -2.4206857641,
				"y": 0.8621128657,
				"z": 0.3729306977,
				"element": "H" 
			},
			{
				"x": -1.1277987727,
				"y": -2.0243328331,
				"z": -0.0517325999,
				"element": "H" 
			},
			{
				"x": -1.7649393378,
				"y": -3.8082405298,
				"z": -1.6616875897,
				"element": "H" 
			},
			{
				"x": -2.8845206559,
				"y": -3.2120538066,
				"z": -3.8003821263,
				"element": "H" 
			},
			{
				"x": -3.3525932986,
				"y": -0.8245354495,
				"z": -4.3208009042,
				"element": "H" 
			},
			{
				"x": -2.7035435805,
				"y": 0.944925311,
				"z": -2.716775229,
				"element": "H" 
			},
			{
				"x": 1.6179242852,
				"y": 1.5125291739,
				"z": -0.4654086431,
				"element": "H" 
			},
			{
				"x": 2.7364689733,
				"y": 3.6086147731,
				"z": -1.2002007706,
				"element": "H" 
			},
			{
				"x": 2.2398072347,
				"y": 5.7533610902,
				"z": -0.043735324,
				"element": "H" 
			},
			{
				"x": 0.6154690253,
				"y": 5.7915622564,
				"z": 1.838670237,
				"element": "H" 
			},
			{
				"x": -0.5030942065,
				"y": 3.7004207849,
				"z": 2.5552160406,
				"element": "H" 
			}
		],
		 "valence_orbital": [ 
			{
				"type": "occ",
				"energy": -0.26466,
				"method": "rhf"
			},
			{
				"type": "occ",
				"energy": -0.24973,
				"method": "rhf"
			},
			{
				"type": "occ",
				"energy": -0.24396,
				"method": "rhf"
			},
			{
				"type": "occ",
				"energy": -0.24338,
				"method": "rhf"
			},
			{
				"type": "occ",
				"energy": -0.23609,
				"method": "rhf"
			},
			{
				"type": "unocc",
				"energy": -0.0042,
				"method": "rhf"
			},
			{
				"type": "unocc",
				"energy": -0.00135,
				"method": "rhf"
			},
			{
				"type": "unocc",
				"energy": 0.00346,
				"method": "rhf"
			},
			{
				"type": "unocc",
				"energy": 0.0048,
				"method": "rhf"
			},
			{
				"type": "unocc",
				"energy": 0.09525,
				"method": "rhf"
			}
		],
		"cosmo_sigma_profile": { 
			"-0.025": 0.0,
			"-0.024": 0.0,
			"-0.023": 0.0,
			"-0.022": 0.0,
			"-0.021": 0.0,
			"-0.02": 0.0,
			"-0.019": 0.0,
			"-0.018": 0.0,
			"-0.017": 0.0,
			"-0.016": 0.0,
			"-0.015": 0.0,
			"-0.014": 0.0,
			"-0.013": 0.0,
			"-0.012": 0.0,
			"-0.011": 0.0,
			"-0.01": 0.0,
			"-0.009": 0.0,
			"-0.008": 0.0,
			"-0.007": 0.0,
			"-0.006": 6.07130877021,
			"-0.005": 26.1949767686,
			"-0.004": 28.3238935259,
			"-0.003": 32.6624381807,
			"-0.002": 20.0051843294,
			"-0.001": 18.6953435086,
			"0.0": 15.9204632917,
			"0.001": 17.1464027544,
			"0.002": 15.0223032801,
			"0.003": 17.382061749,
			"0.004": 15.8961838344,
			"0.005": 18.2807432687,
			"0.006": 19.2931726305,
			"0.007": 4.46760803437,
			"0.008": 1.50487648304,
			"0.009": 0.790634744693,
			"0.01": 0.960039737959,
			"0.011": 0.461139868216,
			"0.012": 0.233623059323,
			"0.013": 0.0,
			"0.014": 0.0,
			"0.015": 0.0,
			"0.016": 0.0,
			"0.017": 0.0,
			"0.018": 0.0,
			"0.019": 0.0,
			"0.02": 0.0,
			"0.021": 0.0,
			"0.022": 0.0,
			"0.023": 0.0,
			"0.024": 0.0,
			"0.025": 0.0
		}
	}
}
