{
	 "smiles": "COC1=C(F)C=C(N)C(F)=C1", 
	 "Tm": 354.15, 
	 "num_atms": 18, 
	 "gaussian": { 
		 "optdone": 1, 
		 "sigma_profile": "yes", 
		 "theory": "DFT", 
		 "functional": "B3LYP", 
		 "basiset": "6-31G**", 
		 "properties": { 
			 "R2extent": 2113.1901, 
			 "electric_dipole_moment_norm": 1.45414657102, 
			 "electric_quadrupole_moment_norm": 14.1397482644, 
			 "total_energy": -600.586214196, 
			 "HOMO_LUMO_gap": 0.19746, 
			 "cosmo_polarized_energy": -8.4, 
			 "cosmo_cavitation_energy": 22.87, 
			 "cosmo_dispersion_energy": -16.84, 
			 "cosmo_repulsion_energy": 1.32, 
			 "cosmo_total_nonelectrostatic_energy": 7.36, 
			 "SMD_solvation_energy": 5.62 
		},
		"coords": [
			{
				"x": -2.3922606669,
				"y": 1.0819330524,
				"z": 0.182680165,
				"element": "C" 
			},
			{
				"x": -1.8722840114,
				"y": -0.2500503465,
				"z": 0.1320202003,
				"element": "O" 
			},
			{
				"x": -0.5455585251,
				"y": -0.3888149091,
				"z": 0.4492700684,
				"element": "C" 
			},
			{
				"x": 0.4846108733,
				"y": 0.211567983,
				"z": -0.2827687911,
				"element": "C" 
			},
			{
				"x": 0.1697552295,
				"y": 1.0099618391,
				"z": -1.3303099194,
				"element": "F" 
			},
			{
				"x": 1.8261251778,
				"y": 0.0207879615,
				"z": 0.0223061252,
				"element": "C" 
			},
			{
				"x": 2.197053911,
				"y": -0.8182021912,
				"z": 1.0825616089,
				"element": "C" 
			},
			{
				"x": 3.5218650648,
				"y": -1.0118300445,
				"z": 1.4693090553,
				"element": "N" 
			},
			{
				"x": 1.1576192209,
				"y": -1.4288704589,
				"z": 1.7987190335,
				"element": "C" 
			},
			{
				"x": 1.5081716544,
				"y": -2.2596913606,
				"z": 2.8169007527,
				"element": "F" 
			},
			{
				"x": -0.1801864775,
				"y": -1.2239563645,
				"z": 1.5106921351,
				"element": "C" 
			},
			{
				"x": -1.9201662909,
				"y": 1.7279562245,
				"z": -0.5629691051,
				"element": "H" 
			},
			{
				"x": -3.4594758319,
				"y": 0.9980117522,
				"z": -0.0317102487,
				"element": "H" 
			},
			{
				"x": -2.2565718767,
				"y": 1.5180185872,
				"z": 1.1806913721,
				"element": "H" 
			},
			{
				"x": 2.5759175074,
				"y": 0.5265394796,
				"z": -0.5772495814,
				"element": "H" 
			},
			{
				"x": 4.2000697753,
				"y": -0.9448673801,
				"z": 0.723266453,
				"element": "H" 
			},
			{
				"x": 3.6603372551,
				"y": -1.8309146749,
				"z": 2.0453860807,
				"element": "H" 
			},
			{
				"x": -0.9473219889,
				"y": -1.7197791495,
				"z": 2.0940045955,
				"element": "H" 
			}
		],
		 "valence_orbital": [ 
			{
				"type": "occ",
				"energy": -0.34491,
				"method": "rhf"
			},
			{
				"type": "occ",
				"energy": -0.30515,
				"method": "rhf"
			},
			{
				"type": "occ",
				"energy": -0.27582,
				"method": "rhf"
			},
			{
				"type": "occ",
				"energy": -0.24576,
				"method": "rhf"
			},
			{
				"type": "occ",
				"energy": -0.20109,
				"method": "rhf"
			},
			{
				"type": "unocc",
				"energy": -0.00363,
				"method": "rhf"
			},
			{
				"type": "unocc",
				"energy": 0.01734,
				"method": "rhf"
			},
			{
				"type": "unocc",
				"energy": 0.0743,
				"method": "rhf"
			},
			{
				"type": "unocc",
				"energy": 0.08118,
				"method": "rhf"
			},
			{
				"type": "unocc",
				"energy": 0.12059,
				"method": "rhf"
			}
		],
		"cosmo_sigma_profile": { 
			"-0.025": 0.0,
			"-0.024": 0.0,
			"-0.023": 0.0,
			"-0.022": 0.0,
			"-0.021": 0.0,
			"-0.02": 0.0,
			"-0.019": 0.0,
			"-0.018": 0.0,
			"-0.017": 0.0,
			"-0.016": 0.0,
			"-0.015": 0.0,
			"-0.014": 0.0,
			"-0.013": 1.11957721274,
			"-0.012": 2.08397120997,
			"-0.011": 2.46556336156,
			"-0.01": 2.70836806991,
			"-0.009": 2.92182909184,
			"-0.008": 3.7596004137,
			"-0.007": 4.51722644878,
			"-0.006": 5.74302262432,
			"-0.005": 7.86742570884,
			"-0.004": 10.4323597666,
			"-0.003": 12.595945954,
			"-0.002": 12.039286763,
			"-0.001": 8.95773509647,
			"0.0": 10.0334934887,
			"0.001": 13.5754324221,
			"0.002": 19.9908775738,
			"0.003": 19.1416874526,
			"0.004": 19.0745374338,
			"0.005": 8.17495286315,
			"0.006": 2.53449953307,
			"0.007": 2.44210918604,
			"0.008": 1.88683085213,
			"0.009": 1.93446897486,
			"0.01": 1.77353384537,
			"0.011": 2.45063190661,
			"0.012": 1.08124369574,
			"0.013": 0.669358862507,
			"0.014": 0.391366924209,
			"0.015": 0.0394765007393,
			"0.016": 0.0,
			"0.017": 0.0,
			"0.018": 0.0,
			"0.019": 0.0,
			"0.02": 0.0,
			"0.021": 0.0,
			"0.022": 0.0,
			"0.023": 0.0,
			"0.024": 0.0,
			"0.025": 0.0
		}
	}
}
