{
	 "smiles": "OC1=C(C=C(C=C1)[N+]([O-])=O)C#N", 
	 "Tm": 470.15, 
	 "num_atms": 16, 
	 "gaussian": { 
		 "optdone": 1, 
		 "sigma_profile": "yes", 
		 "theory": "DFT", 
		 "functional": "B3LYP", 
		 "basiset": "6-31G**", 
		 "properties": { 
			 "R2extent": 2795.9872, 
			 "electric_dipole_moment_norm": 5.92179942078, 
			 "electric_quadrupole_moment_norm": 16.2426535662, 
			 "total_energy": -604.204511285, 
			 "HOMO_LUMO_gap": 0.17413, 
			 "cosmo_polarized_energy": -19.19, 
			 "cosmo_cavitation_energy": 23.02, 
			 "cosmo_dispersion_energy": -16.4, 
			 "cosmo_repulsion_energy": 1.31, 
			 "cosmo_total_nonelectrostatic_energy": 7.93, 
			 "SMD_solvation_energy": 8.13 
		},
		"coords": [
			{
				"x": 0.9249510159,
				"y": 0.4955069126,
				"z": 1.7547224685,
				"element": "O" 
			},
			{
				"x": -0.1047991879,
				"y": 0.2689420242,
				"z": 0.9162151351,
				"element": "C" 
			},
			{
				"x": -0.4583138907,
				"y": -1.0813853328,
				"z": 0.678088958,
				"element": "C" 
			},
			{
				"x": -1.5195024343,
				"y": -1.3763633344,
				"z": -0.1835973599,
				"element": "C" 
			},
			{
				"x": -2.2104068011,
				"y": -0.335060123,
				"z": -0.7928158452,
				"element": "C" 
			},
			{
				"x": -1.8727592383,
				"y": 1.0000648183,
				"z": -0.5671559612,
				"element": "C" 
			},
			{
				"x": -0.8202628001,
				"y": 1.2975460608,
				"z": 0.287284888,
				"element": "C" 
			},
			{
				"x": -3.3225261609,
				"y": -0.6488951735,
				"z": -1.6956537561,
				"element": "N" 
			},
			{
				"x": -3.5946268158,
				"y": -1.8353313564,
				"z": -1.8730035726,
				"element": "O" 
			},
			{
				"x": -3.9125862302,
				"y": 0.2966038555,
				"z": -2.2182503775,
				"element": "O" 
			},
			{
				"x": 0.2684577781,
				"y": -2.1360004616,
				"z": 1.317371827,
				"element": "C" 
			},
			{
				"x": 0.8467937599,
				"y": -3.0061534824,
				"z": 1.8273265417,
				"element": "N" 
			},
			{
				"x": 1.0811010229,
				"y": 1.4453721457,
				"z": 1.8461382824,
				"element": "H" 
			},
			{
				"x": -1.8064268413,
				"y": -2.4015798529,
				"z": -0.379620299,
				"element": "H" 
			},
			{
				"x": -2.4375572995,
				"y": 1.7800091367,
				"z": -1.0623784441,
				"element": "H" 
			},
			{
				"x": -0.546235877,
				"y": 2.3327241633,
				"z": 0.4723275149,
				"element": "H" 
			}
		],
		 "valence_orbital": [ 
			{
				"type": "occ",
				"energy": -0.32068,
				"method": "rhf"
			},
			{
				"type": "occ",
				"energy": -0.3189,
				"method": "rhf"
			},
			{
				"type": "occ",
				"energy": -0.30255,
				"method": "rhf"
			},
			{
				"type": "occ",
				"energy": -0.29726,
				"method": "rhf"
			},
			{
				"type": "occ",
				"energy": -0.27405,
				"method": "rhf"
			},
			{
				"type": "unocc",
				"energy": -0.09992,
				"method": "rhf"
			},
			{
				"type": "unocc",
				"energy": -0.07323,
				"method": "rhf"
			},
			{
				"type": "unocc",
				"energy": -0.01691,
				"method": "rhf"
			},
			{
				"type": "unocc",
				"energy": 0.01779,
				"method": "rhf"
			},
			{
				"type": "unocc",
				"energy": 0.03433,
				"method": "rhf"
			}
		],
		"cosmo_sigma_profile": { 
			"-0.025": 0.0,
			"-0.024": 0.0,
			"-0.023": 0.0,
			"-0.022": 0.0,
			"-0.021": 0.0353089753209,
			"-0.02": 0.972798539495,
			"-0.019": 1.43793591312,
			"-0.018": 1.62723681544,
			"-0.017": 1.12439815996,
			"-0.016": 0.932067162309,
			"-0.015": 0.949286451273,
			"-0.014": 0.679890864081,
			"-0.013": 1.31780808146,
			"-0.012": 1.36839726407,
			"-0.011": 0.838435084763,
			"-0.01": 1.95410908715,
			"-0.009": 4.36461120848,
			"-0.008": 5.10931468356,
			"-0.007": 6.40180561993,
			"-0.006": 5.6066279042,
			"-0.005": 6.19876395087,
			"-0.004": 8.04516899552,
			"-0.003": 13.6818654175,
			"-0.002": 20.046550005,
			"-0.001": 14.3208947669,
			"0.0": 9.05826630662,
			"0.001": 5.49449251604,
			"0.002": 5.07012138294,
			"0.003": 4.83621989696,
			"0.004": 5.50455178454,
			"0.005": 7.09351195228,
			"0.006": 8.88355916599,
			"0.007": 14.3566235675,
			"0.008": 11.3879578836,
			"0.009": 7.52200328249,
			"0.01": 5.06354725984,
			"0.011": 2.48774455711,
			"0.012": 2.22199795905,
			"0.013": 0.528438469727,
			"0.014": 0.0,
			"0.015": 0.0,
			"0.016": 0.0,
			"0.017": 0.0,
			"0.018": 0.0,
			"0.019": 0.0,
			"0.02": 0.0,
			"0.021": 0.0,
			"0.022": 0.0,
			"0.023": 0.0,
			"0.024": 0.0,
			"0.025": 0.0
		}
	}
}
