{
	 "smiles": "CC12CCC(=O)C=C1CCC2=O", 
	 "Tm": 332.65, 
	 "num_atms": 24, 
	 "gaussian": { 
		 "optdone": 1, 
		 "sigma_profile": "yes", 
		 "theory": "DFT", 
		 "functional": "B3LYP", 
		 "basiset": "6-31G**", 
		 "properties": { 
			 "R2extent": 2358.5635, 
			 "electric_dipole_moment_norm": 3.00756298853, 
			 "electric_quadrupole_moment_norm": 20.0984784862, 
			 "total_energy": -538.735648196, 
			 "HOMO_LUMO_gap": 0.18186, 
			 "cosmo_polarized_energy": -13.38, 
			 "cosmo_cavitation_energy": 25.92, 
			 "cosmo_dispersion_energy": -18.69, 
			 "cosmo_repulsion_energy": 1.49, 
			 "cosmo_total_nonelectrostatic_energy": 8.71, 
			 "SMD_solvation_energy": 5.25 
		},
		"coords": [
			{
				"x": 1.2170632406,
				"y": 1.7997863387,
				"z": -1.5249800445,
				"element": "C" 
			},
			{
				"x": 0.7356103795,
				"y": 0.5473934162,
				"z": -0.7412527465,
				"element": "C" 
			},
			{
				"x": -0.7693944808,
				"y": 0.6196502327,
				"z": -0.4220407253,
				"element": "C" 
			},
			{
				"x": -1.6102871923,
				"y": 0.3304807695,
				"z": -1.6752697031,
				"element": "C" 
			},
			{
				"x": -1.2036565987,
				"y": -0.9548083965,
				"z": -2.3990607981,
				"element": "C" 
			},
			{
				"x": -1.994112231,
				"y": -1.5684850888,
				"z": -3.1015676149,
				"element": "O" 
			},
			{
				"x": 0.1883920621,
				"y": -1.4189979649,
				"z": -2.2152740858,
				"element": "C" 
			},
			{
				"x": 1.0763787358,
				"y": -0.7322834015,
				"z": -1.4767361432,
				"element": "C" 
			},
			{
				"x": 2.4871414615,
				"y": -1.1498203498,
				"z": -1.12213467,
				"element": "C" 
			},
			{
				"x": 2.6603836948,
				"y": -0.6617427635,
				"z": 0.3338050282,
				"element": "C" 
			},
			{
				"x": 1.6219641963,
				"y": 0.4536163962,
				"z": 0.5190086481,
				"element": "C" 
			},
			{
				"x": 1.5090091648,
				"y": 1.1581962105,
				"z": 1.496620937,
				"element": "O" 
			},
			{
				"x": 0.6585421437,
				"y": 1.9136741539,
				"z": -2.4578659053,
				"element": "H" 
			},
			{
				"x": 2.2793739515,
				"y": 1.7359101461,
				"z": -1.7814728198,
				"element": "H" 
			},
			{
				"x": 1.0705175776,
				"y": 2.692117315,
				"z": -0.9094777325,
				"element": "H" 
			},
			{
				"x": -1.0027260707,
				"y": -0.1263576287,
				"z": 0.3470146427,
				"element": "H" 
			},
			{
				"x": -1.0170896033,
				"y": 1.5965401437,
				"z": 0.0044466709,
				"element": "H" 
			},
			{
				"x": -1.5165710951,
				"y": 1.1506730873,
				"z": -2.400230713,
				"element": "H" 
			},
			{
				"x": -2.6753795321,
				"y": 0.253811125,
				"z": -1.4388865214,
				"element": "H" 
			},
			{
				"x": 0.4443034106,
				"y": -2.3614740533,
				"z": -2.6937208944,
				"element": "H" 
			},
			{
				"x": 3.2040842083,
				"y": -0.6375789105,
				"z": -1.7779076083,
				"element": "H" 
			},
			{
				"x": 2.6464661911,
				"y": -2.2234861509,
				"z": -1.249595048,
				"element": "H" 
			},
			{
				"x": 3.6630908847,
				"y": -0.3043678233,
				"z": 0.5834150517,
				"element": "H" 
			},
			{
				"x": 2.4173955011,
				"y": -1.4550468032,
				"z": 1.0516627954,
				"element": "H" 
			}
		],
		 "valence_orbital": [ 
			{
				"type": "occ",
				"energy": -0.3385,
				"method": "rhf"
			},
			{
				"type": "occ",
				"energy": -0.33262,
				"method": "rhf"
			},
			{
				"type": "occ",
				"energy": -0.27257,
				"method": "rhf"
			},
			{
				"type": "occ",
				"energy": -0.24858,
				"method": "rhf"
			},
			{
				"type": "occ",
				"energy": -0.23868,
				"method": "rhf"
			},
			{
				"type": "unocc",
				"energy": -0.05682,
				"method": "rhf"
			},
			{
				"type": "unocc",
				"energy": -0.02696,
				"method": "rhf"
			},
			{
				"type": "unocc",
				"energy": 0.05461,
				"method": "rhf"
			},
			{
				"type": "unocc",
				"energy": 0.07216,
				"method": "rhf"
			},
			{
				"type": "unocc",
				"energy": 0.09866,
				"method": "rhf"
			}
		],
		"cosmo_sigma_profile": { 
			"-0.025": 0.0,
			"-0.024": 0.0,
			"-0.023": 0.0,
			"-0.022": 0.0,
			"-0.021": 0.0,
			"-0.02": 0.0,
			"-0.019": 0.0,
			"-0.018": 0.0,
			"-0.017": 0.0,
			"-0.016": 0.0,
			"-0.015": 0.0,
			"-0.014": 0.0,
			"-0.013": 0.0,
			"-0.012": 0.0,
			"-0.011": 0.0,
			"-0.01": 0.0,
			"-0.009": 0.0,
			"-0.008": 0.055589803768,
			"-0.007": 3.29681555017,
			"-0.006": 14.7532859931,
			"-0.005": 20.8459995739,
			"-0.004": 25.576688929,
			"-0.003": 23.9327182736,
			"-0.002": 22.8757133461,
			"-0.001": 18.9774846128,
			"0.0": 10.0811026111,
			"0.001": 7.05104128018,
			"0.002": 7.60401625579,
			"0.003": 4.11869084805,
			"0.004": 2.84499466232,
			"0.005": 2.99463709242,
			"0.006": 3.08527766192,
			"0.007": 4.38569600493,
			"0.008": 2.09321171028,
			"0.009": 2.85556787864,
			"0.01": 4.23693365993,
			"0.011": 6.10816120656,
			"0.012": 7.76004026383,
			"0.013": 5.03972955684,
			"0.014": 2.2350302353,
			"0.015": 0.158506078449,
			"0.016": 0.0,
			"0.017": 0.0,
			"0.018": 0.0,
			"0.019": 0.0,
			"0.02": 0.0,
			"0.021": 0.0,
			"0.022": 0.0,
			"0.023": 0.0,
			"0.024": 0.0,
			"0.025": 0.0
		}
	}
}
