{
	 "smiles": "OC1=CC(OC2=CC=CC=C2)=CC=C1", 
	 "Tm": 314.65, 
	 "num_atms": 24, 
	 "gaussian": { 
		 "optdone": 1, 
		 "sigma_profile": "yes", 
		 "theory": "DFT", 
		 "functional": "B3LYP", 
		 "basiset": "6-31G**", 
		 "properties": { 
			 "R2extent": 3455.9418, 
			 "electric_dipole_moment_norm": 1.72528625451, 
			 "electric_quadrupole_moment_norm": 5.61573151869, 
			 "total_energy": -613.737094623, 
			 "HOMO_LUMO_gap": 0.20447, 
			 "cosmo_polarized_energy": -9.98, 
			 "cosmo_cavitation_energy": 28.43, 
			 "cosmo_dispersion_energy": -20.75, 
			 "cosmo_repulsion_energy": 1.64, 
			 "cosmo_total_nonelectrostatic_energy": 9.32, 
			 "SMD_solvation_energy": 5.4 
		},
		"coords": [
			{
				"x": -2.539979847,
				"y": 3.5556643752,
				"z": -0.0767389971,
				"element": "O" 
			},
			{
				"x": -2.5606442546,
				"y": 2.2775430641,
				"z": 0.4054734525,
				"element": "C" 
			},
			{
				"x": -1.5463587272,
				"y": 1.3594331836,
				"z": 0.1161638423,
				"element": "C" 
			},
			{
				"x": -1.6276516747,
				"y": 0.0667149977,
				"z": 0.6429877756,
				"element": "C" 
			},
			{
				"x": -0.698938919,
				"y": -0.9093369193,
				"z": 0.3418716223,
				"element": "O" 
			},
			{
				"x": 0.6391439569,
				"y": -0.5972942712,
				"z": 0.1958413112,
				"element": "C" 
			},
			{
				"x": 1.3080734065,
				"y": 0.2680819926,
				"z": 1.0675641153,
				"element": "C" 
			},
			{
				"x": 2.6783251581,
				"y": 0.474345431,
				"z": 0.9037061631,
				"element": "C" 
			},
			{
				"x": 3.3811132097,
				"y": -0.1797198342,
				"z": -0.1108248285,
				"element": "C" 
			},
			{
				"x": 2.7025752611,
				"y": -1.0487227261,
				"z": -0.9680835326,
				"element": "C" 
			},
			{
				"x": 1.3312887649,
				"y": -1.257808245,
				"z": -0.8214675002,
				"element": "C" 
			},
			{
				"x": -2.7065528983,
				"y": -0.3191518923,
				"z": 1.4391762517,
				"element": "C" 
			},
			{
				"x": -3.711271295,
				"y": 0.6118961873,
				"z": 1.7076403369,
				"element": "C" 
			},
			{
				"x": -3.6495975042,
				"y": 1.9088862921,
				"z": 1.2038948882,
				"element": "C" 
			},
			{
				"x": -1.7460786251,
				"y": 3.6806628555,
				"z": -0.6124969012,
				"element": "H" 
			},
			{
				"x": -0.7062464759,
				"y": 1.6404275503,
				"z": -0.5121284928,
				"element": "H" 
			},
			{
				"x": 0.761556784,
				"y": 0.7650693754,
				"z": 1.8617878836,
				"element": "H" 
			},
			{
				"x": 3.1991857032,
				"y": 1.1446801878,
				"z": 1.5816210619,
				"element": "H" 
			},
			{
				"x": 4.4477796655,
				"y": -0.0161698491,
				"z": -0.2296496506,
				"element": "H" 
			},
			{
				"x": 3.2396881208,
				"y": -1.5645473985,
				"z": -1.7588634028,
				"element": "H" 
			},
			{
				"x": 0.7847770667,
				"y": -1.9281019702,
				"z": -1.4766574527,
				"element": "H" 
			},
			{
				"x": -2.7424759654,
				"y": -1.330428172,
				"z": 1.8278503263,
				"element": "H" 
			},
			{
				"x": -4.5548568057,
				"y": 0.3208437418,
				"z": 2.3267599577,
				"element": "H" 
			},
			{
				"x": -4.4224541052,
				"y": 2.6402320436,
				"z": 1.4122717695,
				"element": "H" 
			}
		],
		 "valence_orbital": [ 
			{
				"type": "occ",
				"energy": -0.31333,
				"method": "rhf"
			},
			{
				"type": "occ",
				"energy": -0.25768,
				"method": "rhf"
			},
			{
				"type": "occ",
				"energy": -0.25134,
				"method": "rhf"
			},
			{
				"type": "occ",
				"energy": -0.22917,
				"method": "rhf"
			},
			{
				"type": "occ",
				"energy": -0.21388,
				"method": "rhf"
			},
			{
				"type": "unocc",
				"energy": -0.00941,
				"method": "rhf"
			},
			{
				"type": "unocc",
				"energy": -0.0042,
				"method": "rhf"
			},
			{
				"type": "unocc",
				"energy": 0.00734,
				"method": "rhf"
			},
			{
				"type": "unocc",
				"energy": 0.01887,
				"method": "rhf"
			},
			{
				"type": "unocc",
				"energy": 0.06893,
				"method": "rhf"
			}
		],
		"cosmo_sigma_profile": { 
			"-0.025": 0.0,
			"-0.024": 0.0,
			"-0.023": 0.0,
			"-0.022": 0.0,
			"-0.021": 0.0,
			"-0.02": 0.0,
			"-0.019": 0.0,
			"-0.018": 0.346040994897,
			"-0.017": 1.35621298873,
			"-0.016": 1.02922571936,
			"-0.015": 1.15427486227,
			"-0.014": 0.558223995241,
			"-0.013": 1.54319132222,
			"-0.012": 1.010444253,
			"-0.011": 0.607093654673,
			"-0.01": 0.868098605374,
			"-0.009": 1.47025750478,
			"-0.008": 1.02662819831,
			"-0.007": 1.05805220138,
			"-0.006": 12.3481874773,
			"-0.005": 17.5035846408,
			"-0.004": 17.0998931314,
			"-0.003": 16.2297389278,
			"-0.002": 13.1229344746,
			"-0.001": 11.9988431561,
			"0.0": 12.8480028412,
			"0.001": 14.6504316378,
			"0.002": 15.3526703383,
			"0.003": 19.8210373701,
			"0.004": 23.3995924333,
			"0.005": 20.2759018054,
			"0.006": 8.55762841653,
			"0.007": 3.32517445602,
			"0.008": 2.37970705807,
			"0.009": 2.28245865855,
			"0.01": 1.68241078888,
			"0.011": 2.33639212149,
			"0.012": 0.417747527047,
			"0.013": 0.0,
			"0.014": 0.0,
			"0.015": 0.0,
			"0.016": 0.0,
			"0.017": 0.0,
			"0.018": 0.0,
			"0.019": 0.0,
			"0.02": 0.0,
			"0.021": 0.0,
			"0.022": 0.0,
			"0.023": 0.0,
			"0.024": 0.0,
			"0.025": 0.0
		}
	}
}
