{
	 "smiles": "CC(=O)OCC1OC(S)C(OC(C)=O)C(OC(C)=O)C1OC(C)=O", 
	 "Tm": 389.15, 
	 "num_atms": 44, 
	 "gaussian": { 
		 "optdone": 1, 
		 "sigma_profile": "yes", 
		 "theory": "DFT", 
		 "functional": "B3LYP", 
		 "basiset": "6-31G**", 
		 "properties": { 
			 "R2extent": 8592.6694, 
			 "electric_dipole_moment_norm": 2.44369196709, 
			 "electric_quadrupole_moment_norm": 31.4336728748, 
			 "total_energy": -1620.78129989, 
			 "HOMO_LUMO_gap": 0.25312, 
			 "cosmo_polarized_energy": -23.95, 
			 "cosmo_cavitation_energy": 49.62, 
			 "cosmo_dispersion_energy": -30.71, 
			 "cosmo_repulsion_energy": 2.38, 
			 "cosmo_total_nonelectrostatic_energy": 21.29, 
			 "SMD_solvation_energy": 12.22 
		},
		"coords": [
			{
				"x": 2.9797433213,
				"y": 2.8879207856,
				"z": 1.0691282576,
				"element": "C" 
			},
			{
				"x": 3.0777748122,
				"y": 1.3846067166,
				"z": 1.1687678765,
				"element": "C" 
			},
			{
				"x": 3.7440636069,
				"y": 0.7793761417,
				"z": 1.9760659423,
				"element": "O" 
			},
			{
				"x": 2.3100715707,
				"y": 0.79999728,
				"z": 0.2099983395,
				"element": "O" 
			},
			{
				"x": 2.2036238189,
				"y": -0.6340494783,
				"z": 0.2350888175,
				"element": "C" 
			},
			{
				"x": 0.8077253299,
				"y": -1.0768573104,
				"z": 0.6648992602,
				"element": "C" 
			},
			{
				"x": 0.5419921048,
				"y": -0.4551288142,
				"z": 1.9232521295,
				"element": "O" 
			},
			{
				"x": -0.6184138723,
				"y": -0.8936100206,
				"z": 2.5785404606,
				"element": "C" 
			},
			{
				"x": -0.5028968532,
				"y": -2.647297943,
				"z": 3.2220125923,
				"element": "S" 
			},
			{
				"x": -1.8752039693,
				"y": -0.7256536749,
				"z": 1.7100831812,
				"element": "C" 
			},
			{
				"x": -2.1288671912,
				"y": 0.6945464942,
				"z": 1.6991760725,
				"element": "O" 
			},
			{
				"x": -3.4087555414,
				"y": 1.0786251601,
				"z": 1.4437539957,
				"element": "C" 
			},
			{
				"x": -3.5240787075,
				"y": 2.5820011544,
				"z": 1.4723637507,
				"element": "C" 
			},
			{
				"x": -4.3100247741,
				"y": 0.3001410287,
				"z": 1.2274895725,
				"element": "O" 
			},
			{
				"x": -1.6843184755,
				"y": -1.22319992,
				"z": 0.2684388464,
				"element": "C" 
			},
			{
				"x": -1.7675934315,
				"y": -2.6605919558,
				"z": 0.3466083531,
				"element": "O" 
			},
			{
				"x": -2.2493296285,
				"y": -3.3071333311,
				"z": -0.7573785261,
				"element": "C" 
			},
			{
				"x": -2.3483771229,
				"y": -4.7885485296,
				"z": -0.5000015508,
				"element": "C" 
			},
			{
				"x": -2.5502069726,
				"y": -2.7361576218,
				"z": -1.7788744242,
				"element": "O" 
			},
			{
				"x": -0.3259933116,
				"y": -0.8301315837,
				"z": -0.339527566,
				"element": "C" 
			},
			{
				"x": -0.4358871993,
				"y": 0.5529546868,
				"z": -0.7253417829,
				"element": "O" 
			},
			{
				"x": 0.1764847353,
				"y": 0.9127751239,
				"z": -1.8856272582,
				"element": "C" 
			},
			{
				"x": -0.0209263982,
				"y": 2.3829803505,
				"z": -2.152561325,
				"element": "C" 
			},
			{
				"x": 0.7960814538,
				"y": 0.1464578816,
				"z": -2.588563275,
				"element": "O" 
			},
			{
				"x": 3.1864962545,
				"y": 3.2170620331,
				"z": 0.0469798668,
				"element": "H" 
			},
			{
				"x": 3.6866789192,
				"y": 3.3443322501,
				"z": 1.7612010554,
				"element": "H" 
			},
			{
				"x": 1.9624371171,
				"y": 3.2036193104,
				"z": 1.3213052917,
				"element": "H" 
			},
			{
				"x": 2.9422067081,
				"y": -1.0268410651,
				"z": 0.935485061,
				"element": "H" 
			},
			{
				"x": 2.4083815674,
				"y": -0.9868240235,
				"z": -0.7780441369,
				"element": "H" 
			},
			{
				"x": 0.8527934946,
				"y": -2.1686305043,
				"z": 0.8034913502,
				"element": "H" 
			},
			{
				"x": -0.7233419265,
				"y": -0.2482986467,
				"z": 3.4512523154,
				"element": "H" 
			},
			{
				"x": 0.3803533414,
				"y": -2.3324588238,
				"z": 4.189566595,
				"element": "H" 
			},
			{
				"x": -2.732658057,
				"y": -1.2399815467,
				"z": 2.1483555073,
				"element": "H" 
			},
			{
				"x": -2.8430975621,
				"y": 3.0188270117,
				"z": 0.736282391,
				"element": "H" 
			},
			{
				"x": -3.2296418565,
				"y": 2.9625438655,
				"z": 2.4548367234,
				"element": "H" 
			},
			{
				"x": -4.5511182056,
				"y": 2.8711185002,
				"z": 1.2527099079,
				"element": "H" 
			},
			{
				"x": -2.4878902019,
				"y": -0.8502533786,
				"z": -0.3677518439,
				"element": "H" 
			},
			{
				"x": -3.0970687699,
				"y": -4.9769914796,
				"z": 0.2756118017,
				"element": "H" 
			},
			{
				"x": -2.63477043,
				"y": -5.2968398023,
				"z": -1.419954095,
				"element": "H" 
			},
			{
				"x": -1.3942239419,
				"y": -5.1748553618,
				"z": -0.1317831801,
				"element": "H" 
			},
			{
				"x": -0.1504833802,
				"y": -1.4269487064,
				"z": -1.237809714,
				"element": "H" 
			},
			{
				"x": 0.5178297088,
				"y": 2.9579526843,
				"z": -1.3933909146,
				"element": "H" 
			},
			{
				"x": -1.0792208714,
				"y": 2.6478275066,
				"z": -2.0823499516,
				"element": "H" 
			},
			{
				"x": 0.3652507873,
				"y": 2.6275175563,
				"z": -3.1414857704,
				"element": "H" 
			}
		],
		 "valence_orbital": [ 
			{
				"type": "occ",
				"energy": -0.28388,
				"method": "rhf"
			},
			{
				"type": "occ",
				"energy": -0.27916,
				"method": "rhf"
			},
			{
				"type": "occ",
				"energy": -0.27499,
				"method": "rhf"
			},
			{
				"type": "occ",
				"energy": -0.26895,
				"method": "rhf"
			},
			{
				"type": "occ",
				"energy": -0.25447,
				"method": "rhf"
			},
			{
				"type": "unocc",
				"energy": -0.00135,
				"method": "rhf"
			},
			{
				"type": "unocc",
				"energy": -0.00031,
				"method": "rhf"
			},
			{
				"type": "unocc",
				"energy": 0.0054,
				"method": "rhf"
			},
			{
				"type": "unocc",
				"energy": 0.01359,
				"method": "rhf"
			},
			{
				"type": "unocc",
				"energy": 0.01683,
				"method": "rhf"
			}
		],
		"cosmo_sigma_profile": { 
			"-0.025": 0.0,
			"-0.024": 0.0,
			"-0.023": 0.0,
			"-0.022": 0.0,
			"-0.021": 0.0,
			"-0.02": 0.0,
			"-0.019": 0.0,
			"-0.018": 0.0,
			"-0.017": 0.0,
			"-0.016": 0.0,
			"-0.015": 0.0,
			"-0.014": 0.0,
			"-0.013": 0.0,
			"-0.012": 0.0,
			"-0.011": 0.0,
			"-0.01": 1.64776949957,
			"-0.009": 3.73282870331,
			"-0.008": 6.41323518948,
			"-0.007": 13.1963837491,
			"-0.006": 29.1321437351,
			"-0.005": 32.5700345237,
			"-0.004": 39.4827976495,
			"-0.003": 39.0792776012,
			"-0.002": 40.9761718324,
			"-0.001": 25.2735790429,
			"0.0": 15.1464127728,
			"0.001": 13.285005133,
			"0.002": 16.0669827166,
			"0.003": 11.2424843514,
			"0.004": 13.0486208194,
			"0.005": 13.368957872,
			"0.006": 10.7779560107,
			"0.007": 11.5104023418,
			"0.008": 10.2308093911,
			"0.009": 11.0238606383,
			"0.01": 9.96490062437,
			"0.011": 14.7521150219,
			"0.012": 9.36420138684,
			"0.013": 1.3705966196,
			"0.014": 0.0,
			"0.015": 0.0,
			"0.016": 0.0,
			"0.017": 0.0,
			"0.018": 0.0,
			"0.019": 0.0,
			"0.02": 0.0,
			"0.021": 0.0,
			"0.022": 0.0,
			"0.023": 0.0,
			"0.024": 0.0,
			"0.025": 0.0
		}
	}
}
