{
	 "smiles": "OC(=O)C1=NOC(=N1)C1=C(F)C=CC(Cl)=C1", 
	 "Tm": 387.15, 
	 "num_atms": 20, 
	 "gaussian": { 
		 "optdone": 1, 
		 "sigma_profile": "yes", 
		 "theory": "DFT", 
		 "functional": "B3LYP", 
		 "basiset": "6-31G**", 
		 "properties": { 
			 "R2extent": 5334.5805, 
			 "electric_dipole_moment_norm": 7.00289132645, 
			 "electric_quadrupole_moment_norm": 21.8218071756, 
			 "total_energy": -1240.52830428, 
			 "HOMO_LUMO_gap": 0.17436, 
			 "cosmo_polarized_energy": -14.34, 
			 "cosmo_cavitation_energy": 29.13, 
			 "cosmo_dispersion_energy": -21.48, 
			 "cosmo_repulsion_energy": 1.64, 
			 "cosmo_total_nonelectrostatic_energy": 9.29, 
			 "SMD_solvation_energy": 5.41 
		},
		"coords": [
			{
				"x": -4.850165041,
				"y": 1.3991779297,
				"z": 0.4886880821,
				"element": "O" 
			},
			{
				"x": -4.1077783645,
				"y": 1.9860729964,
				"z": -0.4680824941,
				"element": "C" 
			},
			{
				"x": -4.5518410111,
				"y": 2.7627337577,
				"z": -1.2722965512,
				"element": "O" 
			},
			{
				"x": -2.6657755471,
				"y": 1.5625053244,
				"z": -0.417820752,
				"element": "C" 
			},
			{
				"x": -1.7485342446,
				"y": 1.9974408508,
				"z": -1.2454386172,
				"element": "N" 
			},
			{
				"x": -0.60131902,
				"y": 1.3340695597,
				"z": -0.8070047563,
				"element": "O" 
			},
			{
				"x": -0.9530577481,
				"y": 0.5632362768,
				"z": 0.2473061647,
				"element": "C" 
			},
			{
				"x": -2.2252884675,
				"y": 0.6698586751,
				"z": 0.5288527026,
				"element": "N" 
			},
			{
				"x": 0.0894098241,
				"y": -0.2337462998,
				"z": 0.8824814637,
				"element": "C" 
			},
			{
				"x": -0.1817890653,
				"y": -1.0628804531,
				"z": 1.9823506138,
				"element": "C" 
			},
			{
				"x": -1.4237017306,
				"y": -1.1375398883,
				"z": 2.4756960925,
				"element": "F" 
			},
			{
				"x": 0.8152813644,
				"y": -1.8207065033,
				"z": 2.5844715668,
				"element": "C" 
			},
			{
				"x": 2.1166278443,
				"y": -1.7635156089,
				"z": 2.0932496784,
				"element": "C" 
			},
			{
				"x": 2.4022772984,
				"y": -0.9423642629,
				"z": 0.9984403359,
				"element": "C" 
			},
			{
				"x": 4.0386745851,
				"y": -0.8690693003,
				"z": 0.3790528492,
				"element": "Cl" 
			},
			{
				"x": 1.408256807,
				"y": -0.1835429297,
				"z": 0.3941225433,
				"element": "C" 
			},
			{
				"x": -4.2782129388,
				"y": 0.8136970275,
				"z": 1.0182636081,
				"element": "H" 
			},
			{
				"x": 0.5580560946,
				"y": -2.4464726873,
				"z": 3.4315762758,
				"element": "H" 
			},
			{
				"x": 2.9040234963,
				"y": -2.3494538012,
				"z": 2.5534637726,
				"element": "H" 
			},
			{
				"x": 1.6422558643,
				"y": 0.4487993366,
				"z": -0.453472579,
				"element": "H" 
			}
		],
		 "valence_orbital": [ 
			{
				"type": "occ",
				"energy": -0.33443,
				"method": "rhf"
			},
			{
				"type": "occ",
				"energy": -0.32467,
				"method": "rhf"
			},
			{
				"type": "occ",
				"energy": -0.29179,
				"method": "rhf"
			},
			{
				"type": "occ",
				"energy": -0.28959,
				"method": "rhf"
			},
			{
				"type": "occ",
				"energy": -0.2713,
				"method": "rhf"
			},
			{
				"type": "unocc",
				"energy": -0.09694,
				"method": "rhf"
			},
			{
				"type": "unocc",
				"energy": -0.06045,
				"method": "rhf"
			},
			{
				"type": "unocc",
				"energy": -0.0441,
				"method": "rhf"
			},
			{
				"type": "unocc",
				"energy": 0.00326,
				"method": "rhf"
			},
			{
				"type": "unocc",
				"energy": 0.01058,
				"method": "rhf"
			}
		],
		"cosmo_sigma_profile": { 
			"-0.025": 0.0,
			"-0.024": 0.0,
			"-0.023": 0.0,
			"-0.022": 0.0,
			"-0.021": 0.0,
			"-0.02": 0.0,
			"-0.019": 0.0,
			"-0.018": 0.0,
			"-0.017": 0.0,
			"-0.016": 0.349541746477,
			"-0.015": 0.436508739504,
			"-0.014": 0.351713730547,
			"-0.013": 0.882590706451,
			"-0.012": 0.609689670591,
			"-0.011": 0.602742502708,
			"-0.01": 0.887345879439,
			"-0.009": 4.82322973105,
			"-0.008": 9.08572432304,
			"-0.007": 9.18006683487,
			"-0.006": 10.5995257769,
			"-0.005": 11.9005714885,
			"-0.004": 13.8230225977,
			"-0.003": 13.2842185648,
			"-0.002": 17.669782022,
			"-0.001": 18.8527605799,
			"0.0": 22.5081044538,
			"0.001": 13.2505734957,
			"0.002": 10.3710182592,
			"0.003": 20.3329654626,
			"0.004": 16.0283295248,
			"0.005": 6.37868303386,
			"0.006": 6.25793945325,
			"0.007": 4.68053616673,
			"0.008": 6.3710237202,
			"0.009": 7.16843782609,
			"0.01": 7.03993061024,
			"0.011": 4.63779637752,
			"0.012": 0.455060053302,
			"0.013": 0.0,
			"0.014": 0.0,
			"0.015": 0.0,
			"0.016": 0.0,
			"0.017": 0.0,
			"0.018": 0.0,
			"0.019": 0.0,
			"0.02": 0.0,
			"0.021": 0.0,
			"0.022": 0.0,
			"0.023": 0.0,
			"0.024": 0.0,
			"0.025": 0.0
		}
	}
}
