{
	 "smiles": "OC(=O)C=CC1=CSC=C1", 
	 "Tm": 429.15, 
	 "num_atms": 16, 
	 "gaussian": { 
		 "optdone": 1, 
		 "sigma_profile": "yes", 
		 "theory": "DFT", 
		 "functional": "B3LYP", 
		 "basiset": "6-31G**", 
		 "properties": { 
			 "R2extent": 2902.543, 
			 "electric_dipole_moment_norm": 5.47847644971, 
			 "electric_quadrupole_moment_norm": 9.43485529725, 
			 "total_energy": -818.968013914, 
			 "HOMO_LUMO_gap": 0.1679, 
			 "cosmo_polarized_energy": -15.94, 
			 "cosmo_cavitation_energy": 22.91, 
			 "cosmo_dispersion_energy": -17.37, 
			 "cosmo_repulsion_energy": 1.36, 
			 "cosmo_total_nonelectrostatic_energy": 6.89, 
			 "SMD_solvation_energy": 5.5 
		},
		"coords": [
			{
				"x": 2.4892512816,
				"y": 0.9469201194,
				"z": 0.1677017852,
				"element": "O" 
			},
			{
				"x": 1.7785671993,
				"y": 0.0492203179,
				"z": -0.5748805606,
				"element": "C" 
			},
			{
				"x": 2.3041470656,
				"y": -0.5162214013,
				"z": -1.5060289455,
				"element": "O" 
			},
			{
				"x": 0.3609548388,
				"y": -0.1790188728,
				"z": -0.2003048491,
				"element": "C" 
			},
			{
				"x": -0.4052258796,
				"y": 0.6897893299,
				"z": 0.4868815171,
				"element": "C" 
			},
			{
				"x": -1.8154256762,
				"y": 0.5410783895,
				"z": 0.8323594933,
				"element": "C" 
			},
			{
				"x": -2.6076208718,
				"y": -0.561799811,
				"z": 0.582256847,
				"element": "C" 
			},
			{
				"x": -4.2196144039,
				"y": -0.3471627158,
				"z": 1.1498297385,
				"element": "S" 
			},
			{
				"x": -3.8571526521,
				"y": 1.2434393865,
				"z": 1.7414600826,
				"element": "C" 
			},
			{
				"x": -2.5557250193,
				"y": 1.5751309358,
				"z": 1.5054678637,
				"element": "C" 
			},
			{
				"x": 2.0051210763,
				"y": 1.1592493011,
				"z": 0.9774637559,
				"element": "H" 
			},
			{
				"x": -0.0515795103,
				"y": -1.093742174,
				"z": -0.6145438423,
				"element": "H" 
			},
			{
				"x": 0.0359159624,
				"y": 1.6322593793,
				"z": 0.8134956932,
				"element": "H" 
			},
			{
				"x": -2.3284470235,
				"y": -1.4870710254,
				"z": 0.0982895993,
				"element": "H" 
			},
			{
				"x": -4.6251027094,
				"y": 1.831804089,
				"z": 2.2233692364,
				"element": "H" 
			},
			{
				"x": -2.1206636779,
				"y": 2.5264247519,
				"z": 1.7922825852,
				"element": "H" 
			}
		],
		 "valence_orbital": [ 
			{
				"type": "occ",
				"energy": -0.32752,
				"method": "rhf"
			},
			{
				"type": "occ",
				"energy": -0.30975,
				"method": "rhf"
			},
			{
				"type": "occ",
				"energy": -0.26984,
				"method": "rhf"
			},
			{
				"type": "occ",
				"energy": -0.26387,
				"method": "rhf"
			},
			{
				"type": "occ",
				"energy": -0.24037,
				"method": "rhf"
			},
			{
				"type": "unocc",
				"energy": -0.07247,
				"method": "rhf"
			},
			{
				"type": "unocc",
				"energy": -0.01577,
				"method": "rhf"
			},
			{
				"type": "unocc",
				"energy": 0.0131,
				"method": "rhf"
			},
			{
				"type": "unocc",
				"energy": 0.04992,
				"method": "rhf"
			},
			{
				"type": "unocc",
				"energy": 0.06418,
				"method": "rhf"
			}
		],
		"cosmo_sigma_profile": { 
			"-0.025": 0.0,
			"-0.024": 0.0,
			"-0.023": 0.0,
			"-0.022": 0.0,
			"-0.021": 0.0,
			"-0.02": 0.0,
			"-0.019": 0.0708198413361,
			"-0.018": 0.885347425777,
			"-0.017": 0.843576743345,
			"-0.016": 0.99395965669,
			"-0.015": 1.17619357996,
			"-0.014": 0.731194176282,
			"-0.013": 0.857990444659,
			"-0.012": 1.31356422343,
			"-0.011": 1.05005811961,
			"-0.01": 1.56074588936,
			"-0.009": 5.69423093379,
			"-0.008": 8.30286822283,
			"-0.007": 8.91496714626,
			"-0.006": 7.24866238522,
			"-0.005": 7.44730518006,
			"-0.004": 7.93413933889,
			"-0.003": 8.52483113856,
			"-0.002": 9.36486006069,
			"-0.001": 10.0122498637,
			"0.0": 9.88114848486,
			"0.001": 12.9915430877,
			"0.002": 16.8001412831,
			"0.003": 20.997570022,
			"0.004": 8.62089793164,
			"0.005": 4.32350491442,
			"0.006": 2.16272550793,
			"0.007": 2.3462002785,
			"0.008": 2.36577462018,
			"0.009": 2.8591878548,
			"0.01": 4.15634627931,
			"0.011": 5.14977934909,
			"0.012": 6.1178452145,
			"0.013": 4.04774529367,
			"0.014": 0.520607470939,
			"0.015": 0.0,
			"0.016": 0.0,
			"0.017": 0.0,
			"0.018": 0.0,
			"0.019": 0.0,
			"0.02": 0.0,
			"0.021": 0.0,
			"0.022": 0.0,
			"0.023": 0.0,
			"0.024": 0.0,
			"0.025": 0.0
		}
	}
}
