{
	 "smiles": "COC(=O)CC(=C)C(O)=O", 
	 "Tm": 341.15, 
	 "num_atms": 18, 
	 "gaussian": { 
		 "optdone": 1, 
		 "sigma_profile": "yes", 
		 "theory": "DFT", 
		 "functional": "B3LYP", 
		 "basiset": "6-31G**", 
		 "properties": { 
			 "R2extent": 1563.6353, 
			 "electric_dipole_moment_norm": 4.97675351409, 
			 "electric_quadrupole_moment_norm": 8.86695756616, 
			 "total_energy": -534.344008558, 
			 "HOMO_LUMO_gap": 0.20939, 
			 "cosmo_polarized_energy": -18.69, 
			 "cosmo_cavitation_energy": 23.06, 
			 "cosmo_dispersion_energy": -16.09, 
			 "cosmo_repulsion_energy": 1.33, 
			 "cosmo_total_nonelectrostatic_energy": 8.3, 
			 "SMD_solvation_energy": 7.33 
		},
		"coords": [
			{
				"x": 1.2585877081,
				"y": -1.6644781927,
				"z": 2.4695904565,
				"element": "C" 
			},
			{
				"x": 0.3489157368,
				"y": -0.9320387669,
				"z": 1.6312045645,
				"element": "O" 
			},
			{
				"x": 0.6887556058,
				"y": 0.3523399442,
				"z": 1.4068092601,
				"element": "C" 
			},
			{
				"x": 1.6359099117,
				"y": 0.9048336424,
				"z": 1.9162493255,
				"element": "O" 
			},
			{
				"x": -0.3171049093,
				"y": 1.0529378577,
				"z": 0.4953886439,
				"element": "C" 
			},
			{
				"x": -0.9332032063,
				"y": 0.1784291569,
				"z": -0.5680068034,
				"element": "C" 
			},
			{
				"x": -2.228946259,
				"y": -0.1567531582,
				"z": -0.5833308758,
				"element": "C" 
			},
			{
				"x": 0.0438666152,
				"y": -0.3503374965,
				"z": -1.5815119429,
				"element": "C" 
			},
			{
				"x": -0.4511059888,
				"y": -0.7597325335,
				"z": -2.776521012,
				"element": "O" 
			},
			{
				"x": 1.2300325577,
				"y": -0.4175787779,
				"z": -1.3566188233,
				"element": "O" 
			},
			{
				"x": 0.8404627028,
				"y": -2.6676795466,
				"z": 2.5509669919,
				"element": "H" 
			},
			{
				"x": 1.3358370959,
				"y": -1.1977429851,
				"z": 3.4546783852,
				"element": "H" 
			},
			{
				"x": 2.2504315349,
				"y": -1.6977167391,
				"z": 2.0127722788,
				"element": "H" 
			},
			{
				"x": 0.2193945184,
				"y": 1.8958396629,
				"z": 0.0521908749,
				"element": "H" 
			},
			{
				"x": -1.1059418738,
				"y": 1.4631335424,
				"z": 1.135967278,
				"element": "H" 
			},
			{
				"x": -2.9156746284,
				"y": 0.2025492068,
				"z": 0.1768010284,
				"element": "H" 
			},
			{
				"x": -2.651284833,
				"y": -0.8364167899,
				"z": -1.319021686,
				"element": "H" 
			},
			{
				"x": -1.3767322887,
				"y": -0.4912880269,
				"z": -2.8589079442,
				"element": "H" 
			}
		],
		 "valence_orbital": [ 
			{
				"type": "occ",
				"energy": -0.32502,
				"method": "rhf"
			},
			{
				"type": "occ",
				"energy": -0.30192,
				"method": "rhf"
			},
			{
				"type": "occ",
				"energy": -0.29876,
				"method": "rhf"
			},
			{
				"type": "occ",
				"energy": -0.27998,
				"method": "rhf"
			},
			{
				"type": "occ",
				"energy": -0.26571,
				"method": "rhf"
			},
			{
				"type": "unocc",
				"energy": -0.05632,
				"method": "rhf"
			},
			{
				"type": "unocc",
				"energy": 0.01629,
				"method": "rhf"
			},
			{
				"type": "unocc",
				"energy": 0.0543,
				"method": "rhf"
			},
			{
				"type": "unocc",
				"energy": 0.05644,
				"method": "rhf"
			},
			{
				"type": "unocc",
				"energy": 0.1044,
				"method": "rhf"
			}
		],
		"cosmo_sigma_profile": { 
			"-0.025": 0.0,
			"-0.024": 0.0,
			"-0.023": 0.0,
			"-0.022": 0.0,
			"-0.021": 0.0,
			"-0.02": 0.0,
			"-0.019": 0.225834780335,
			"-0.018": 0.840745085245,
			"-0.017": 1.27563319689,
			"-0.016": 0.449460024597,
			"-0.015": 1.421009708,
			"-0.014": 0.854866466415,
			"-0.013": 1.15221048967,
			"-0.012": 1.05745981389,
			"-0.011": 0.994607454201,
			"-0.01": 1.20827185858,
			"-0.009": 1.15449238526,
			"-0.008": 5.70417684323,
			"-0.007": 9.11423162253,
			"-0.006": 13.1902452697,
			"-0.005": 13.4609888822,
			"-0.004": 14.2538415361,
			"-0.003": 15.6115883215,
			"-0.002": 10.7447084199,
			"-0.001": 8.39120162908,
			"0.0": 6.32600524687,
			"0.001": 5.70911099237,
			"0.002": 5.48192200475,
			"0.003": 4.90275322783,
			"0.004": 5.32764387882,
			"0.005": 5.53464928715,
			"0.006": 5.50068729141,
			"0.007": 6.73290661269,
			"0.008": 6.22796511235,
			"0.009": 5.49183153695,
			"0.01": 7.33040828998,
			"0.011": 7.42653792309,
			"0.012": 7.70583035455,
			"0.013": 1.79591591882,
			"0.014": 0.0,
			"0.015": 0.0,
			"0.016": 0.0,
			"0.017": 0.0,
			"0.018": 0.0,
			"0.019": 0.0,
			"0.02": 0.0,
			"0.021": 0.0,
			"0.022": 0.0,
			"0.023": 0.0,
			"0.024": 0.0,
			"0.025": 0.0
		}
	}
}
