{
	 "smiles": "CC1=CC(C)=C(C=C1)C1(C)NC(=O)NC1=O", 
	 "Tm": 418.15, 
	 "num_atms": 30, 
	 "gaussian": { 
		 "optdone": 1, 
		 "sigma_profile": "yes", 
		 "theory": "DFT", 
		 "functional": "B3LYP", 
		 "basiset": "6-31G**", 
		 "properties": { 
			 "R2extent": 3782.6151, 
			 "electric_dipole_moment_norm": 3.12209492008, 
			 "electric_quadrupole_moment_norm": 14.8053573077, 
			 "total_energy": -725.717367912, 
			 "HOMO_LUMO_gap": 0.22238, 
			 "cosmo_polarized_energy": -15.44, 
			 "cosmo_cavitation_energy": 32.34, 
			 "cosmo_dispersion_energy": -23.19, 
			 "cosmo_repulsion_energy": 1.8, 
			 "cosmo_total_nonelectrostatic_energy": 10.95, 
			 "SMD_solvation_energy": 6.7 
		},
		"coords": [
			{
				"x": 3.5293296947,
				"y": -2.1276102474,
				"z": -2.7418697575,
				"element": "C" 
			},
			{
				"x": 2.4156562483,
				"y": -1.5730883279,
				"z": -1.8863584826,
				"element": "C" 
			},
			{
				"x": 1.6324385041,
				"y": -0.5017058954,
				"z": -2.3240563337,
				"element": "C" 
			},
			{
				"x": 0.6098885685,
				"y": 0.0669697502,
				"z": -1.5529664649,
				"element": "C" 
			},
			{
				"x": -0.1466861772,
				"y": 1.22736749,
				"z": -2.1720238324,
				"element": "C" 
			},
			{
				"x": 0.3561142708,
				"y": -0.4629770017,
				"z": -0.2651027535,
				"element": "C" 
			},
			{
				"x": 1.1227133711,
				"y": -1.5557514281,
				"z": 0.164850358,
				"element": "C" 
			},
			{
				"x": 2.1336497938,
				"y": -2.0993380202,
				"z": -0.6240621632,
				"element": "C" 
			},
			{
				"x": -0.7804201568,
				"y": 0.0754090205,
				"z": 0.6360495388,
				"element": "C" 
			},
			{
				"x": -2.1422755014,
				"y": -0.514148398,
				"z": 0.2118916513,
				"element": "C" 
			},
			{
				"x": -0.8043254881,
				"y": 1.5404455294,
				"z": 0.7299293457,
				"element": "N" 
			},
			{
				"x": -0.4958936543,
				"y": 2.0399694735,
				"z": 1.9651259543,
				"element": "C" 
			},
			{
				"x": -0.3793492871,
				"y": 3.1976165364,
				"z": 2.3105108024,
				"element": "O" 
			},
			{
				"x": -0.3541348005,
				"y": 0.907999766,
				"z": 2.7954539217,
				"element": "N" 
			},
			{
				"x": -0.5657034323,
				"y": -0.2785790423,
				"z": 2.1378536376,
				"element": "C" 
			},
			{
				"x": -0.6147872816,
				"y": -1.3837995185,
				"z": 2.6405543223,
				"element": "O" 
			},
			{
				"x": 4.4859694276,
				"y": -1.6440359713,
				"z": -2.5074114053,
				"element": "H" 
			},
			{
				"x": 3.3362972425,
				"y": -1.9666903463,
				"z": -3.806739675,
				"element": "H" 
			},
			{
				"x": 3.6613014254,
				"y": -3.2015464605,
				"z": -2.5788061309,
				"element": "H" 
			},
			{
				"x": 1.818535707,
				"y": -0.0882351833,
				"z": -3.3133549262,
				"element": "H" 
			},
			{
				"x": -0.0321913304,
				"y": 1.2137411098,
				"z": -3.2589412742,
				"element": "H" 
			},
			{
				"x": 0.2424651215,
				"y": 2.1957152663,
				"z": -1.8308659215,
				"element": "H" 
			},
			{
				"x": -1.2211352287,
				"y": 1.2031797132,
				"z": -1.9671952761,
				"element": "H" 
			},
			{
				"x": 0.915361931,
				"y": -2.0029861056,
				"z": 1.1292004009,
				"element": "H" 
			},
			{
				"x": 2.7031174392,
				"y": -2.9461621051,
				"z": -0.2492510591,
				"element": "H" 
			},
			{
				"x": -2.1244839077,
				"y": -1.5950404053,
				"z": 0.3693406288,
				"element": "H" 
			},
			{
				"x": -2.9508394763,
				"y": -0.0825146905,
				"z": 0.809440585,
				"element": "H" 
			},
			{
				"x": -2.3443946407,
				"y": -0.3213195504,
				"z": -0.8443500318,
				"element": "H" 
			},
			{
				"x": -0.8543058112,
				"y": 2.1652881378,
				"z": -0.0558963708,
				"element": "H" 
			},
			{
				"x": -0.2157125713,
				"y": 0.982426905,
				"z": 3.7929507118,
				"element": "H" 
			}
		],
		 "valence_orbital": [ 
			{
				"type": "occ",
				"energy": -0.28673,
				"method": "rhf"
			},
			{
				"type": "occ",
				"energy": -0.26686,
				"method": "rhf"
			},
			{
				"type": "occ",
				"energy": -0.26276,
				"method": "rhf"
			},
			{
				"type": "occ",
				"energy": -0.24822,
				"method": "rhf"
			},
			{
				"type": "occ",
				"energy": -0.23992,
				"method": "rhf"
			},
			{
				"type": "unocc",
				"energy": -0.01754,
				"method": "rhf"
			},
			{
				"type": "unocc",
				"energy": -0.00523,
				"method": "rhf"
			},
			{
				"type": "unocc",
				"energy": -0.00329,
				"method": "rhf"
			},
			{
				"type": "unocc",
				"energy": 0.06305,
				"method": "rhf"
			},
			{
				"type": "unocc",
				"energy": 0.07276,
				"method": "rhf"
			}
		],
		"cosmo_sigma_profile": { 
			"-0.025": 0.0,
			"-0.024": 0.0,
			"-0.023": 0.0,
			"-0.022": 0.0,
			"-0.021": 0.0,
			"-0.02": 0.0,
			"-0.019": 0.0,
			"-0.018": 0.0,
			"-0.017": 0.612383752014,
			"-0.016": 1.32532746753,
			"-0.015": 0.82828009139,
			"-0.014": 1.18709245649,
			"-0.013": 1.6964708336,
			"-0.012": 1.75421797144,
			"-0.011": 2.09319756291,
			"-0.01": 1.61206917755,
			"-0.009": 2.43473237597,
			"-0.008": 2.3126967258,
			"-0.007": 3.19036850271,
			"-0.006": 5.73583784324,
			"-0.005": 13.987716229,
			"-0.004": 21.6264342496,
			"-0.003": 23.5746778871,
			"-0.002": 25.1008514479,
			"-0.001": 28.243276132,
			"0.0": 24.7485055721,
			"0.001": 14.1101669938,
			"0.002": 11.53328536,
			"0.003": 9.30361452673,
			"0.004": 9.84322432329,
			"0.005": 9.18056396969,
			"0.006": 8.05834038817,
			"0.007": 2.55845579572,
			"0.008": 3.22481777718,
			"0.009": 2.61278772977,
			"0.01": 2.89677475776,
			"0.011": 5.05920373108,
			"0.012": 7.86112060315,
			"0.013": 6.5575696312,
			"0.014": 0.819922446149,
			"0.015": 0.0,
			"0.016": 0.0,
			"0.017": 0.0,
			"0.018": 0.0,
			"0.019": 0.0,
			"0.02": 0.0,
			"0.021": 0.0,
			"0.022": 0.0,
			"0.023": 0.0,
			"0.024": 0.0,
			"0.025": 0.0
		}
	}
}
