{
	 "smiles": "CCCCCC(O)C=CC1C(O)CC(=O)C1CC=CCCCC(O)=O", 
	 "Tm": 340.15, 
	 "num_atms": 57, 
	 "gaussian": { 
		 "optdone": 1, 
		 "sigma_profile": "yes", 
		 "theory": "DFT", 
		 "functional": "B3LYP", 
		 "basiset": "6-31G**", 
		 "properties": { 
			 "R2extent": 13845.5908, 
			 "electric_dipole_moment_norm": 3.42063505946, 
			 "electric_quadrupole_moment_norm": 32.2663380319, 
			 "total_energy": -1157.51495993, 
			 "HOMO_LUMO_gap": 0.19843, 
			 "cosmo_polarized_energy": -21.23, 
			 "cosmo_cavitation_energy": 56.33, 
			 "cosmo_dispersion_energy": -36.09, 
			 "cosmo_repulsion_energy": 2.84, 
			 "cosmo_total_nonelectrostatic_energy": 23.08, 
			 "SMD_solvation_energy": 9.4 
		},
		"coords": [
			{
				"x": 2.3802689751,
				"y": 0.5734818221,
				"z": 5.8964245102,
				"element": "C" 
			},
			{
				"x": 2.6668379046,
				"y": 1.9058263283,
				"z": 5.1941166899,
				"element": "C" 
			},
			{
				"x": 2.6852892592,
				"y": 1.8608749981,
				"z": 3.6553753172,
				"element": "C" 
			},
			{
				"x": 3.7993834211,
				"y": 0.9866330772,
				"z": 3.0340151452,
				"element": "C" 
			},
			{
				"x": 3.441469565,
				"y": -0.4854438825,
				"z": 2.7443296964,
				"element": "C" 
			},
			{
				"x": 2.8049172749,
				"y": -0.7380910729,
				"z": 1.3696263446,
				"element": "C" 
			},
			{
				"x": 2.7551875048,
				"y": -2.163909318,
				"z": 1.2300353935,
				"element": "O" 
			},
			{
				"x": 1.4226526688,
				"y": -0.1645545079,
				"z": 1.2016963407,
				"element": "C" 
			},
			{
				"x": 1.0653644721,
				"y": 0.6920803049,
				"z": 0.2395124997,
				"element": "C" 
			},
			{
				"x": -0.3249138527,
				"y": 1.2374888744,
				"z": 0.0396496984,
				"element": "C" 
			},
			{
				"x": -0.3779710125,
				"y": 2.7795859513,
				"z": 0.2448821202,
				"element": "C" 
			},
			{
				"x": -1.729189738,
				"y": 3.0918967894,
				"z": 0.5792940613,
				"element": "O" 
			},
			{
				"x": 0.0068847008,
				"y": 3.3601756048,
				"z": -1.1214975088,
				"element": "C" 
			},
			{
				"x": -0.5069490975,
				"y": 2.3400655791,
				"z": -2.1331249682,
				"element": "C" 
			},
			{
				"x": -0.6117963105,
				"y": 2.5536660145,
				"z": -3.3286339813,
				"element": "O" 
			},
			{
				"x": -0.8384295019,
				"y": 1.027175936,
				"z": -1.4156451397,
				"element": "C" 
			},
			{
				"x": -2.3616113957,
				"y": 0.7102460244,
				"z": -1.5191556939,
				"element": "C" 
			},
			{
				"x": -2.7351834024,
				"y": -0.661597245,
				"z": -0.9984590627,
				"element": "C" 
			},
			{
				"x": -2.7040536858,
				"y": -1.8029177015,
				"z": -1.7008593355,
				"element": "C" 
			},
			{
				"x": -2.2584251423,
				"y": -1.9292610482,
				"z": -3.1378577659,
				"element": "C" 
			},
			{
				"x": -3.4030871071,
				"y": -1.7860160724,
				"z": -4.1795934831,
				"element": "C" 
			},
			{
				"x": -2.9217742026,
				"y": -1.1602127554,
				"z": -5.5122940807,
				"element": "C" 
			},
			{
				"x": -2.5453973157,
				"y": 0.2867093618,
				"z": -5.2535609405,
				"element": "C" 
			},
			{
				"x": -1.218003454,
				"y": 0.4576253967,
				"z": -5.0895462765,
				"element": "O" 
			},
			{
				"x": -3.3564965596,
				"y": 1.1791212209,
				"z": -5.1054101192,
				"element": "O" 
			},
			{
				"x": 3.1622843431,
				"y": -0.167796471,
				"z": 5.7038683119,
				"element": "H" 
			},
			{
				"x": 2.3214851269,
				"y": 0.7102895033,
				"z": 6.9814742961,
				"element": "H" 
			},
			{
				"x": 1.426986339,
				"y": 0.1450478567,
				"z": 5.5653976796,
				"element": "H" 
			},
			{
				"x": 1.9122164888,
				"y": 2.6393648942,
				"z": 5.5072434458,
				"element": "H" 
			},
			{
				"x": 3.6311007255,
				"y": 2.2978163992,
				"z": 5.5466998787,
				"element": "H" 
			},
			{
				"x": 1.7055837747,
				"y": 1.5332986268,
				"z": 3.2864167454,
				"element": "H" 
			},
			{
				"x": 2.8085007429,
				"y": 2.8915970127,
				"z": 3.2980749328,
				"element": "H" 
			},
			{
				"x": 4.1386018029,
				"y": 1.4475845127,
				"z": 2.0967806889,
				"element": "H" 
			},
			{
				"x": 4.6718261804,
				"y": 1.0134426026,
				"z": 3.6995333427,
				"element": "H" 
			},
			{
				"x": 2.776327502,
				"y": -0.8923432287,
				"z": 3.5135134779,
				"element": "H" 
			},
			{
				"x": 4.3488097417,
				"y": -1.0999123169,
				"z": 2.7682220492,
				"element": "H" 
			},
			{
				"x": 3.4643780462,
				"y": -0.3030773428,
				"z": 0.5984645902,
				"element": "H" 
			},
			{
				"x": 2.286615301,
				"y": -2.3576493366,
				"z": 0.4072200086,
				"element": "H" 
			},
			{
				"x": 0.6756853599,
				"y": -0.5312154844,
				"z": 1.9075936691,
				"element": "H" 
			},
			{
				"x": 1.8293970951,
				"y": 1.0272051363,
				"z": -0.4666287811,
				"element": "H" 
			},
			{
				"x": -0.997443771,
				"y": 0.7769315039,
				"z": 0.7685608454,
				"element": "H" 
			},
			{
				"x": 0.3035774529,
				"y": 3.097428039,
				"z": 1.0451230318,
				"element": "H" 
			},
			{
				"x": -1.8140126422,
				"y": 4.0522777476,
				"z": 0.6436020186,
				"element": "H" 
			},
			{
				"x": -0.387297375,
				"y": 4.3609471586,
				"z": -1.3227015085,
				"element": "H" 
			},
			{
				"x": 1.0985368411,
				"y": 3.4173759735,
				"z": -1.2335171187,
				"element": "H" 
			},
			{
				"x": -0.2908394531,
				"y": 0.2223158597,
				"z": -1.918765445,
				"element": "H" 
			},
			{
				"x": -2.6603850354,
				"y": 0.8226695961,
				"z": -2.5645623205,
				"element": "H" 
			},
			{
				"x": -2.9023657651,
				"y": 1.4741921349,
				"z": -0.9535999402,
				"element": "H" 
			},
			{
				"x": -3.0745952845,
				"y": -0.7065515244,
				"z": 0.0354249822,
				"element": "H" 
			},
			{
				"x": -3.036509572,
				"y": -2.7160911139,
				"z": -1.2076459534,
				"element": "H" 
			},
			{
				"x": -1.4995109032,
				"y": -1.1724272744,
				"z": -3.3505504494,
				"element": "H" 
			},
			{
				"x": -1.7627313094,
				"y": -2.8968976503,
				"z": -3.2836615638,
				"element": "H" 
			},
			{
				"x": -4.1937735448,
				"y": -1.1448381732,
				"z": -3.7770080201,
				"element": "H" 
			},
			{
				"x": -3.8595652611,
				"y": -2.7615135291,
				"z": -4.3802464026,
				"element": "H" 
			},
			{
				"x": -3.7384140067,
				"y": -1.1739511574,
				"z": -6.2393404883,
				"element": "H" 
			},
			{
				"x": -2.0702620194,
				"y": -1.7126510107,
				"z": -5.9203242877,
				"element": "H" 
			},
			{
				"x": -1.0684808894,
				"y": 1.3410813757,
				"z": -4.6784811768,
				"element": "H" 
			}
		],
		 "valence_orbital": [ 
			{
				"type": "occ",
				"energy": -0.278,
				"method": "rhf"
			},
			{
				"type": "occ",
				"energy": -0.2666,
				"method": "rhf"
			},
			{
				"type": "occ",
				"energy": -0.25508,
				"method": "rhf"
			},
			{
				"type": "occ",
				"energy": -0.25159,
				"method": "rhf"
			},
			{
				"type": "occ",
				"energy": -0.24124,
				"method": "rhf"
			},
			{
				"type": "unocc",
				"energy": -0.04281,
				"method": "rhf"
			},
			{
				"type": "unocc",
				"energy": -0.00175,
				"method": "rhf"
			},
			{
				"type": "unocc",
				"energy": 0.01432,
				"method": "rhf"
			},
			{
				"type": "unocc",
				"energy": 0.02482,
				"method": "rhf"
			},
			{
				"type": "unocc",
				"energy": 0.05843,
				"method": "rhf"
			}
		],
		"cosmo_sigma_profile": { 
			"-0.025": 0.0,
			"-0.024": 0.0,
			"-0.023": 0.0,
			"-0.022": 0.0,
			"-0.021": 0.0,
			"-0.02": 0.0,
			"-0.019": 0.0,
			"-0.018": 0.0,
			"-0.017": 0.0,
			"-0.016": 0.56095052102,
			"-0.015": 1.35560695933,
			"-0.014": 1.71136538938,
			"-0.013": 2.11880685836,
			"-0.012": 1.63171041668,
			"-0.011": 1.94703208463,
			"-0.01": 2.75655784753,
			"-0.009": 1.40198288946,
			"-0.008": 2.82544004698,
			"-0.007": 6.65945654693,
			"-0.006": 8.08962483391,
			"-0.005": 14.5347605384,
			"-0.004": 27.7907564908,
			"-0.003": 38.374374301,
			"-0.002": 57.1888446177,
			"-0.001": 58.1789549513,
			"0.0": 52.145901481,
			"0.001": 44.1620721031,
			"0.002": 22.6021830415,
			"0.003": 14.8204299621,
			"0.004": 11.3033844082,
			"0.005": 8.47357476396,
			"0.006": 9.15941892333,
			"0.007": 6.65779438246,
			"0.008": 5.83341470036,
			"0.009": 6.79018394833,
			"0.01": 5.77739514579,
			"0.011": 5.33075347743,
			"0.012": 7.35627684383,
			"0.013": 5.4208785238,
			"0.014": 2.87613948481,
			"0.015": 0.526871528521,
			"0.016": 0.0,
			"0.017": 0.0,
			"0.018": 0.0,
			"0.019": 0.0,
			"0.02": 0.0,
			"0.021": 0.0,
			"0.022": 0.0,
			"0.023": 0.0,
			"0.024": 0.0,
			"0.025": 0.0
		}
	}
}
