{
	 "smiles": "COC1=CC=C(C=C1)N1C(C(CCC1=O)C(O)=O)C1=C(OC)C=CC=C1", 
	 "Tm": 479.15, 
	 "num_atms": 47, 
	 "gaussian": { 
		 "optdone": 1, 
		 "sigma_profile": "yes", 
		 "theory": "DFT", 
		 "functional": "B3LYP", 
		 "basiset": "6-31G**", 
		 "properties": { 
			 "R2extent": 9796.2019, 
			 "electric_dipole_moment_norm": 2.96973875955, 
			 "electric_quadrupole_moment_norm": 18.3678158135, 
			 "total_energy": -1205.64995522, 
			 "HOMO_LUMO_gap": 0.189, 
			 "cosmo_polarized_energy": -25.24, 
			 "cosmo_cavitation_energy": 47.88, 
			 "cosmo_dispersion_energy": -32.49, 
			 "cosmo_repulsion_energy": 2.44, 
			 "cosmo_total_nonelectrostatic_energy": 17.83, 
			 "SMD_solvation_energy": 10.24 
		},
		"coords": [
			{
				"x": 6.4706496537,
				"y": 2.9612306057,
				"z": -1.0383784425,
				"element": "C" 
			},
			{
				"x": 5.3498995326,
				"y": 2.9389707864,
				"z": -0.1698710232,
				"element": "O" 
			},
			{
				"x": 4.3286204604,
				"y": 2.0788747418,
				"z": -0.4577382128,
				"element": "C" 
			},
			{
				"x": 3.2532885978,
				"y": 2.0808374754,
				"z": 0.4383994034,
				"element": "C" 
			},
			{
				"x": 2.168137046,
				"y": 1.2348352119,
				"z": 0.2392248989,
				"element": "C" 
			},
			{
				"x": 2.121207252,
				"y": 0.3765877234,
				"z": -0.8699356423,
				"element": "C" 
			},
			{
				"x": 3.1959529955,
				"y": 0.3843217858,
				"z": -1.7659917936,
				"element": "C" 
			},
			{
				"x": 4.2937418343,
				"y": 1.2201193709,
				"z": -1.5631494721,
				"element": "C" 
			},
			{
				"x": 0.9687603558,
				"y": -0.4472687543,
				"z": -1.1163259045,
				"element": "N" 
			},
			{
				"x": -0.3545392052,
				"y": 0.1233261912,
				"z": -0.7931296365,
				"element": "C" 
			},
			{
				"x": -1.3829340199,
				"y": -0.3861805769,
				"z": -1.8554870729,
				"element": "C" 
			},
			{
				"x": -1.4871130722,
				"y": -1.9069663398,
				"z": -1.7609726325,
				"element": "C" 
			},
			{
				"x": -0.1100805325,
				"y": -2.5310939003,
				"z": -2.0065215736,
				"element": "C" 
			},
			{
				"x": 1.1290682509,
				"y": -1.7616958446,
				"z": -1.5419452307,
				"element": "C" 
			},
			{
				"x": 2.2270237692,
				"y": -2.294123825,
				"z": -1.6326972493,
				"element": "O" 
			},
			{
				"x": -2.7584223428,
				"y": 0.2761635638,
				"z": -1.7536458833,
				"element": "C" 
			},
			{
				"x": -2.8725245674,
				"y": 1.498099673,
				"z": -2.3427448841,
				"element": "O" 
			},
			{
				"x": -3.7221278361,
				"y": -0.2354050874,
				"z": -1.2396374225,
				"element": "O" 
			},
			{
				"x": -0.7916688649,
				"y": -0.1428590053,
				"z": 0.6495897142,
				"element": "C" 
			},
			{
				"x": -1.7196761114,
				"y": 0.7320169801,
				"z": 1.2541856115,
				"element": "C" 
			},
			{
				"x": -2.1046294976,
				"y": 1.7952972396,
				"z": 0.4873743403,
				"element": "O" 
			},
			{
				"x": -3.2646056453,
				"y": 2.5296121752,
				"z": 0.8645372007,
				"element": "C" 
			},
			{
				"x": -2.1740324969,
				"y": 0.5049088411,
				"z": 2.5560169938,
				"element": "C" 
			},
			{
				"x": -1.6924845324,
				"y": -0.5911304223,
				"z": 3.275011471,
				"element": "C" 
			},
			{
				"x": -0.7570996243,
				"y": -1.450452056,
				"z": 2.705128048,
				"element": "C" 
			},
			{
				"x": -0.311881965,
				"y": -1.2175345846,
				"z": 1.4012206104,
				"element": "C" 
			},
			{
				"x": 7.1603296335,
				"y": 3.6976992966,
				"z": -0.6228016566,
				"element": "H" 
			},
			{
				"x": 6.190909571,
				"y": 3.2648703493,
				"z": -2.0557968585,
				"element": "H" 
			},
			{
				"x": 6.9698804774,
				"y": 1.9845534568,
				"z": -1.0821186199,
				"element": "H" 
			},
			{
				"x": 3.2902477104,
				"y": 2.7453734269,
				"z": 1.2952617044,
				"element": "H" 
			},
			{
				"x": 1.3598088727,
				"y": 1.2386820056,
				"z": 0.9610103105,
				"element": "H" 
			},
			{
				"x": 3.1874133997,
				"y": -0.2798197864,
				"z": -2.6201916301,
				"element": "H" 
			},
			{
				"x": 5.1092495727,
				"y": 1.1932348794,
				"z": -2.2760411127,
				"element": "H" 
			},
			{
				"x": -0.2531244394,
				"y": 1.2050300091,
				"z": -0.9144325552,
				"element": "H" 
			},
			{
				"x": -0.9584921593,
				"y": -0.1144785889,
				"z": -2.833499334,
				"element": "H" 
			},
			{
				"x": -1.8748212712,
				"y": -2.1671910581,
				"z": -0.7730869715,
				"element": "H" 
			},
			{
				"x": -2.2123349895,
				"y": -2.2868092104,
				"z": -2.4866638098,
				"element": "H" 
			},
			{
				"x": 0.0538422607,
				"y": -2.666078191,
				"z": -3.0836031131,
				"element": "H" 
			},
			{
				"x": -0.0339848645,
				"y": -3.5324531502,
				"z": -1.5733803033,
				"element": "H" 
			},
			{
				"x": -2.0101767908,
				"y": 1.7971666403,
				"z": -2.6634655011,
				"element": "H" 
			},
			{
				"x": -4.1200888024,
				"y": 1.8602157649,
				"z": 1.004539929,
				"element": "H" 
			},
			{
				"x": -3.0913281293,
				"y": 3.1124966692,
				"z": 1.7772905281,
				"element": "H" 
			},
			{
				"x": -3.4694923741,
				"y": 3.2045144344,
				"z": 0.0333085282,
				"element": "H" 
			},
			{
				"x": -2.8927412206,
				"y": 1.1758767588,
				"z": 3.0112581251,
				"element": "H" 
			},
			{
				"x": -2.0493237602,
				"y": -0.7619375474,
				"z": 4.2865090898,
				"element": "H" 
			},
			{
				"x": -0.3704023848,
				"y": -2.2950889374,
				"z": 3.2662373105,
				"element": "H" 
			},
			{
				"x": 0.4336002538,
				"y": -1.8770491902,
				"z": 0.9692497246,
				"element": "H" 
			}
		],
		 "valence_orbital": [ 
			{
				"type": "occ",
				"energy": -0.2551,
				"method": "rhf"
			},
			{
				"type": "occ",
				"energy": -0.2505,
				"method": "rhf"
			},
			{
				"type": "occ",
				"energy": -0.24098,
				"method": "rhf"
			},
			{
				"type": "occ",
				"energy": -0.22609,
				"method": "rhf"
			},
			{
				"type": "occ",
				"energy": -0.20347,
				"method": "rhf"
			},
			{
				"type": "unocc",
				"energy": -0.01447,
				"method": "rhf"
			},
			{
				"type": "unocc",
				"energy": -0.00457,
				"method": "rhf"
			},
			{
				"type": "unocc",
				"energy": 0.00076,
				"method": "rhf"
			},
			{
				"type": "unocc",
				"energy": 0.00204,
				"method": "rhf"
			},
			{
				"type": "unocc",
				"energy": 0.00774,
				"method": "rhf"
			}
		],
		"cosmo_sigma_profile": { 
			"-0.025": 0.0,
			"-0.024": 0.0,
			"-0.023": 0.0,
			"-0.022": 0.0,
			"-0.021": 0.0,
			"-0.02": 0.0,
			"-0.019": 0.263362017279,
			"-0.018": 1.06357034555,
			"-0.017": 1.37086326455,
			"-0.016": 1.2390167524,
			"-0.015": 1.20175619728,
			"-0.014": 0.40533935531,
			"-0.013": 1.03544333147,
			"-0.012": 2.10136005815,
			"-0.011": 0.96261873262,
			"-0.01": 0.817620740706,
			"-0.009": 1.3297131816,
			"-0.008": 1.77698538858,
			"-0.007": 4.3636502069,
			"-0.006": 21.3652785874,
			"-0.005": 39.280351134,
			"-0.004": 39.5860885093,
			"-0.003": 37.7056322682,
			"-0.002": 27.0472876914,
			"-0.001": 20.2499333151,
			"0.0": 16.1909192533,
			"0.001": 18.7665071412,
			"0.002": 16.7629334439,
			"0.003": 21.4007942581,
			"0.004": 21.9131372156,
			"0.005": 21.320186629,
			"0.006": 11.0711734943,
			"0.007": 7.27347708382,
			"0.008": 5.4827627814,
			"0.009": 5.75278856037,
			"0.01": 6.74004407547,
			"0.011": 6.07201104699,
			"0.012": 6.76976059638,
			"0.013": 4.63887858442,
			"0.014": 4.51759638309,
			"0.015": 0.655179020138,
			"0.016": 0.0,
			"0.017": 0.0,
			"0.018": 0.0,
			"0.019": 0.0,
			"0.02": 0.0,
			"0.021": 0.0,
			"0.022": 0.0,
			"0.023": 0.0,
			"0.024": 0.0,
			"0.025": 0.0
		}
	}
}
