{
	 "smiles": "NCC(O)C1=CC2=C(OCCO2)C(Cl)=C1", 
	 "Tm": 405.15, 
	 "num_atms": 27, 
	 "gaussian": { 
		 "optdone": 1, 
		 "sigma_profile": "yes", 
		 "theory": "DFT", 
		 "functional": "B3LYP", 
		 "basiset": "6-31G**", 
		 "properties": { 
			 "R2extent": 5770.3749, 
			 "electric_dipole_moment_norm": 3.03587757658, 
			 "electric_quadrupole_moment_norm": 25.19953356, 
			 "total_energy": -1128.88136302, 
			 "HOMO_LUMO_gap": 0.2052, 
			 "cosmo_polarized_energy": -14.92, 
			 "cosmo_cavitation_energy": 31.76, 
			 "cosmo_dispersion_energy": -23.51, 
			 "cosmo_repulsion_energy": 1.88, 
			 "cosmo_total_nonelectrostatic_energy": 10.13, 
			 "SMD_solvation_energy": 3.93 
		},
		"coords": [
			{
				"x": 0.3508082602,
				"y": 2.2249709555,
				"z": -3.0771674507,
				"element": "N" 
			},
			{
				"x": -0.45808956,
				"y": 1.7568035973,
				"z": -1.9580657901,
				"element": "C" 
			},
			{
				"x": 0.1509467623,
				"y": 0.5930702531,
				"z": -1.1461456097,
				"element": "C" 
			},
			{
				"x": 1.4245562579,
				"y": 1.0627543802,
				"z": -0.7054326559,
				"element": "O" 
			},
			{
				"x": -0.7417768881,
				"y": 0.1719509658,
				"z": 0.0066770238,
				"element": "C" 
			},
			{
				"x": -0.6621588695,
				"y": 0.8278482014,
				"z": 1.2379249529,
				"element": "C" 
			},
			{
				"x": -1.5140137412,
				"y": 0.4756955421,
				"z": 2.282918208,
				"element": "C" 
			},
			{
				"x": -2.4818473195,
				"y": -0.5319281362,
				"z": 2.1115422151,
				"element": "C" 
			},
			{
				"x": -3.3460783784,
				"y": -0.8897256096,
				"z": 3.1083392046,
				"element": "O" 
			},
			{
				"x": -3.430341739,
				"y": 0.0633856427,
				"z": 4.1694515451,
				"element": "C" 
			},
			{
				"x": -2.0372938069,
				"y": 0.5113082757,
				"z": 4.5769189562,
				"element": "C" 
			},
			{
				"x": -1.3844408915,
				"y": 1.1431434476,
				"z": 3.4753085421,
				"element": "O" 
			},
			{
				"x": -2.5411248973,
				"y": -1.1907984821,
				"z": 0.8771429655,
				"element": "C" 
			},
			{
				"x": -3.7198675509,
				"y": -2.4678169618,
				"z": 0.6544648472,
				"element": "Cl" 
			},
			{
				"x": -1.6805150673,
				"y": -0.8524200255,
				"z": -0.1636892552,
				"element": "C" 
			},
			{
				"x": 1.2879947836,
				"y": 2.4232991208,
				"z": -2.7338260703,
				"element": "H" 
			},
			{
				"x": 0.4531221885,
				"y": 1.4822767371,
				"z": -3.7660904437,
				"element": "H" 
			},
			{
				"x": -0.6189670209,
				"y": 2.5940634885,
				"z": -1.268183813,
				"element": "H" 
			},
			{
				"x": -1.4438481817,
				"y": 1.4509892957,
				"z": -2.3253987061,
				"element": "H" 
			},
			{
				"x": 0.2784706393,
				"y": -0.2669968086,
				"z": -1.826145349,
				"element": "H" 
			},
			{
				"x": 1.8403924246,
				"y": 0.3595016532,
				"z": -0.1898717265,
				"element": "H" 
			},
			{
				"x": 0.0727065469,
				"y": 1.6084801238,
				"z": 1.4007108423,
				"element": "H" 
			},
			{
				"x": -4.0242458093,
				"y": 0.9284380117,
				"z": 3.845704504,
				"element": "H" 
			},
			{
				"x": -3.9463143775,
				"y": -0.437995991,
				"z": 4.9916173829,
				"element": "H" 
			},
			{
				"x": -2.0754415108,
				"y": 1.2513254615,
				"z": 5.3800975675,
				"element": "H" 
			},
			{
				"x": -1.4496128067,
				"y": -0.3534441935,
				"z": 4.9138454926,
				"element": "H" 
			},
			{
				"x": -1.7510194465,
				"y": -1.3905789453,
				"z": -1.1033473796,
				"element": "H" 
			}
		],
		 "valence_orbital": [ 
			{
				"type": "occ",
				"energy": -0.30632,
				"method": "rhf"
			},
			{
				"type": "occ",
				"energy": -0.28025,
				"method": "rhf"
			},
			{
				"type": "occ",
				"energy": -0.2381,
				"method": "rhf"
			},
			{
				"type": "occ",
				"energy": -0.23169,
				"method": "rhf"
			},
			{
				"type": "occ",
				"energy": -0.21486,
				"method": "rhf"
			},
			{
				"type": "unocc",
				"energy": -0.00966,
				"method": "rhf"
			},
			{
				"type": "unocc",
				"energy": -0.00122,
				"method": "rhf"
			},
			{
				"type": "unocc",
				"energy": 0.0306,
				"method": "rhf"
			},
			{
				"type": "unocc",
				"energy": 0.07542,
				"method": "rhf"
			},
			{
				"type": "unocc",
				"energy": 0.08677,
				"method": "rhf"
			}
		],
		"cosmo_sigma_profile": { 
			"-0.025": 0.0,
			"-0.024": 0.0,
			"-0.023": 0.0,
			"-0.022": 0.0,
			"-0.021": 0.0,
			"-0.02": 0.0,
			"-0.019": 0.0,
			"-0.018": 0.0,
			"-0.017": 0.0,
			"-0.016": 0.160274945319,
			"-0.015": 1.00176440123,
			"-0.014": 0.816051631659,
			"-0.013": 0.969332987285,
			"-0.012": 0.581804514704,
			"-0.011": 0.921893110517,
			"-0.01": 1.12130818379,
			"-0.009": 2.38650387184,
			"-0.008": 4.20397091616,
			"-0.007": 11.6983185679,
			"-0.006": 19.2104545623,
			"-0.005": 18.3894702507,
			"-0.004": 18.7082560518,
			"-0.003": 13.5464277478,
			"-0.002": 14.6253248574,
			"-0.001": 13.5328031819,
			"0.0": 13.8709461647,
			"0.001": 13.5112947165,
			"0.002": 18.348319515,
			"0.003": 21.0805369795,
			"0.004": 15.9104839062,
			"0.005": 12.399066739,
			"0.006": 6.7259198149,
			"0.007": 4.51674770532,
			"0.008": 4.18872986461,
			"0.009": 5.69954875455,
			"0.01": 5.25694110756,
			"0.011": 2.09724963264,
			"0.012": 1.21245001603,
			"0.013": 1.13960387442,
			"0.014": 0.893000453579,
			"0.015": 0.489994184904,
			"0.016": 0.752971291155,
			"0.017": 0.481171913801,
			"0.018": 0.813310959536,
			"0.019": 0.603071285473,
			"0.02": 0.217179191442,
			"0.021": 0.0,
			"0.022": 0.0,
			"0.023": 0.0,
			"0.024": 0.0,
			"0.025": 0.0
		}
	}
}
