{
	 "smiles": "CN1C=C(C(O)=O)C(=N1)C1CCCCC1", 
	 "Tm": 431.15, 
	 "num_atms": 31, 
	 "gaussian": { 
		 "optdone": 1, 
		 "sigma_profile": "yes", 
		 "theory": "DFT", 
		 "functional": "B3LYP", 
		 "basiset": "6-31G**", 
		 "properties": { 
			 "R2extent": 3951.874, 
			 "electric_dipole_moment_norm": 5.8721268549, 
			 "electric_quadrupole_moment_norm": 21.3906650911, 
			 "total_energy": -688.776779101, 
			 "HOMO_LUMO_gap": 0.22545, 
			 "cosmo_polarized_energy": -18.39, 
			 "cosmo_cavitation_energy": 32.62, 
			 "cosmo_dispersion_energy": -23.51, 
			 "cosmo_repulsion_energy": 1.86, 
			 "cosmo_total_nonelectrostatic_energy": 10.97, 
			 "SMD_solvation_energy": 5.21 
		},
		"coords": [
			{
				"x": -3.3230180374,
				"y": -2.4720826793,
				"z": -1.3137060631,
				"element": "C" 
			},
			{
				"x": -2.1950481455,
				"y": -1.936313757,
				"z": -0.574458431,
				"element": "N" 
			},
			{
				"x": -2.1038954155,
				"y": -1.682672965,
				"z": 0.7470338843,
				"element": "C" 
			},
			{
				"x": -0.8335625589,
				"y": -1.1592574969,
				"z": 0.9705999126,
				"element": "C" 
			},
			{
				"x": -0.2446206182,
				"y": -0.6999334711,
				"z": 2.2389190271,
				"element": "C" 
			},
			{
				"x": -0.8519655886,
				"y": -1.1402636785,
				"z": 3.3821698091,
				"element": "O" 
			},
			{
				"x": 0.7169617781,
				"y": 0.0321085879,
				"z": 2.3235012785,
				"element": "O" 
			},
			{
				"x": -0.2221904165,
				"y": -1.134390178,
				"z": -0.3225230388,
				"element": "C" 
			},
			{
				"x": -1.0578084095,
				"y": -1.6153076855,
				"z": -1.2410029692,
				"element": "N" 
			},
			{
				"x": 1.1499429824,
				"y": -0.6356981236,
				"z": -0.6919183118,
				"element": "C" 
			},
			{
				"x": 1.7293191725,
				"y": -1.3550273156,
				"z": -1.9257616478,
				"element": "C" 
			},
			{
				"x": 3.1245128741,
				"y": -0.8204218401,
				"z": -2.2821445713,
				"element": "C" 
			},
			{
				"x": 3.1113962044,
				"y": 0.700614525,
				"z": -2.4960509121,
				"element": "C" 
			},
			{
				"x": 2.5288816177,
				"y": 1.4278398654,
				"z": -1.2754044437,
				"element": "C" 
			},
			{
				"x": 1.134599206,
				"y": 0.8984825471,
				"z": -0.9096058479,
				"element": "C" 
			},
			{
				"x": -3.6535305686,
				"y": -1.7510882742,
				"z": -2.0655788338,
				"element": "H" 
			},
			{
				"x": -4.1404284388,
				"y": -2.6740853375,
				"z": -0.6196494976,
				"element": "H" 
			},
			{
				"x": -3.0329821941,
				"y": -3.399026445,
				"z": -1.8146535924,
				"element": "H" 
			},
			{
				"x": -2.9419612711,
				"y": -1.8536452993,
				"z": 1.409344929,
				"element": "H" 
			},
			{
				"x": -1.4742752644,
				"y": -1.8498541162,
				"z": 3.1728161944,
				"element": "H" 
			},
			{
				"x": 1.8031757429,
				"y": -0.8248272584,
				"z": 0.1690955564,
				"element": "H" 
			},
			{
				"x": 1.7694994931,
				"y": -2.4352904406,
				"z": -1.741953606,
				"element": "H" 
			},
			{
				"x": 1.0492044099,
				"y": -1.2129025068,
				"z": -2.7745291923,
				"element": "H" 
			},
			{
				"x": 3.8250076161,
				"y": -1.0640249968,
				"z": -1.4703947622,
				"element": "H" 
			},
			{
				"x": 3.5000649703,
				"y": -1.3283685742,
				"z": -3.1788148821,
				"element": "H" 
			},
			{
				"x": 2.5026728077,
				"y": 0.9346707306,
				"z": -3.3813612917,
				"element": "H" 
			},
			{
				"x": 4.1243121968,
				"y": 1.0635866659,
				"z": -2.7089440747,
				"element": "H" 
			},
			{
				"x": 2.4793079324,
				"y": 2.507607783,
				"z": -1.4615920997,
				"element": "H" 
			},
			{
				"x": 3.1998795126,
				"y": 1.2910680406,
				"z": -0.4158846703,
				"element": "H" 
			},
			{
				"x": 0.4255454426,
				"y": 1.1312635643,
				"z": -1.7164345264,
				"element": "H" 
			},
			{
				"x": 0.7702029674,
				"y": 1.3854401296,
				"z": -0.0001133255,
				"element": "H" 
			}
		],
		 "valence_orbital": [ 
			{
				"type": "occ",
				"energy": -0.29293,
				"method": "rhf"
			},
			{
				"type": "occ",
				"energy": -0.28601,
				"method": "rhf"
			},
			{
				"type": "occ",
				"energy": -0.26911,
				"method": "rhf"
			},
			{
				"type": "occ",
				"energy": -0.26278,
				"method": "rhf"
			},
			{
				"type": "occ",
				"energy": -0.24991,
				"method": "rhf"
			},
			{
				"type": "unocc",
				"energy": -0.02446,
				"method": "rhf"
			},
			{
				"type": "unocc",
				"energy": 0.01189,
				"method": "rhf"
			},
			{
				"type": "unocc",
				"energy": 0.05949,
				"method": "rhf"
			},
			{
				"type": "unocc",
				"energy": 0.08013,
				"method": "rhf"
			},
			{
				"type": "unocc",
				"energy": 0.09967,
				"method": "rhf"
			}
		],
		"cosmo_sigma_profile": { 
			"-0.025": 0.0,
			"-0.024": 0.0,
			"-0.023": 0.0,
			"-0.022": 0.0,
			"-0.021": 0.0,
			"-0.02": 0.0,
			"-0.019": 0.0225560951537,
			"-0.018": 0.980003022155,
			"-0.017": 0.965303940114,
			"-0.016": 1.06469824059,
			"-0.015": 1.47112809093,
			"-0.014": 0.912714771999,
			"-0.013": 0.958215833204,
			"-0.012": 1.39708874554,
			"-0.011": 2.7446445744,
			"-0.01": 2.8178635466,
			"-0.009": 2.84025287131,
			"-0.008": 2.94371283327,
			"-0.007": 4.48430537944,
			"-0.006": 8.24669223386,
			"-0.005": 7.2078737632,
			"-0.004": 10.802247158,
			"-0.003": 11.4312441433,
			"-0.002": 24.8282703765,
			"-0.001": 33.5575539714,
			"0.0": 33.4589869357,
			"0.001": 31.494898415,
			"0.002": 15.2219785932,
			"0.003": 7.03784431021,
			"0.004": 5.46560579221,
			"0.005": 4.72187500236,
			"0.006": 4.00548248953,
			"0.007": 3.96683132913,
			"0.008": 4.68381924038,
			"0.009": 4.41072521571,
			"0.01": 4.38845554864,
			"0.011": 5.76761201019,
			"0.012": 5.16053575554,
			"0.013": 3.91281207104,
			"0.014": 1.49955603123,
			"0.015": 0.0,
			"0.016": 0.0,
			"0.017": 0.0,
			"0.018": 0.0,
			"0.019": 0.0,
			"0.02": 0.0,
			"0.021": 0.0,
			"0.022": 0.0,
			"0.023": 0.0,
			"0.024": 0.0,
			"0.025": 0.0
		}
	}
}
