{
	 "smiles": "CCCCS(=O)(=O)NC(CC1=CC=C(OCCCCC2CCNCC2)C=C1)C(O)=O", 
	 "Tm": 496.15, 
	 "num_atms": 66, 
	 "gaussian": { 
		 "optdone": 1, 
		 "sigma_profile": "yes", 
		 "theory": "DFT", 
		 "functional": "B3LYP", 
		 "basiset": "6-31G**", 
		 "properties": { 
			 "R2extent": 15058.323, 
			 "electric_dipole_moment_norm": 3.93629924421, 
			 "electric_quadrupole_moment_norm": 19.7237362041, 
			 "total_energy": -1743.82044582, 
			 "HOMO_LUMO_gap": 0.18021, 
			 "cosmo_polarized_energy": -23.72, 
			 "cosmo_cavitation_energy": 64.69, 
			 "cosmo_dispersion_energy": -39.63, 
			 "cosmo_repulsion_energy": 2.93, 
			 "cosmo_total_nonelectrostatic_energy": 28.0, 
			 "SMD_solvation_energy": 6.76 
		},
		"coords": [
			{
				"x": 3.0959967888,
				"y": -0.5737961207,
				"z": 5.263868756,
				"element": "C" 
			},
			{
				"x": 1.7892568999,
				"y": 0.1735573608,
				"z": 4.9760841157,
				"element": "C" 
			},
			{
				"x": 0.8557218072,
				"y": -0.5305282692,
				"z": 3.977836081,
				"element": "C" 
			},
			{
				"x": 1.4343463698,
				"y": -0.8191066409,
				"z": 2.585739343,
				"element": "C" 
			},
			{
				"x": 1.9284188697,
				"y": 0.6969273973,
				"z": 1.6967200684,
				"element": "S" 
			},
			{
				"x": 3.3228791029,
				"y": 0.9940005084,
				"z": 2.0416903984,
				"element": "O" 
			},
			{
				"x": 0.8609744112,
				"y": 1.6907753259,
				"z": 1.8781453093,
				"element": "O" 
			},
			{
				"x": 1.9076957914,
				"y": 0.3712473376,
				"z": 0.049838757,
				"element": "N" 
			},
			{
				"x": 2.8701112968,
				"y": -0.5076868613,
				"z": -0.5914748778,
				"element": "C" 
			},
			{
				"x": 3.2802851558,
				"y": 0.0626763848,
				"z": -1.984098275,
				"element": "C" 
			},
			{
				"x": 2.1019534769,
				"y": 0.354849775,
				"z": -2.8864985921,
				"element": "C" 
			},
			{
				"x": 1.5152812438,
				"y": -0.6417655904,
				"z": -3.6840035414,
				"element": "C" 
			},
			{
				"x": 0.3864778271,
				"y": -0.3804672513,
				"z": -4.4513028002,
				"element": "C" 
			},
			{
				"x": -0.1940784524,
				"y": 0.8986626853,
				"z": -4.4523147348,
				"element": "C" 
			},
			{
				"x": -1.3043078328,
				"y": 1.0337050778,
				"z": -5.2334578491,
				"element": "O" 
			},
			{
				"x": -2.183849815,
				"y": 2.1616369129,
				"z": -5.1182965116,
				"element": "C" 
			},
			{
				"x": -3.5803599064,
				"y": 1.6867722148,
				"z": -4.7147765485,
				"element": "C" 
			},
			{
				"x": -3.6535160168,
				"y": 1.0305308203,
				"z": -3.3256575331,
				"element": "C" 
			},
			{
				"x": -3.4000364408,
				"y": 1.989627872,
				"z": -2.151895361,
				"element": "C" 
			},
			{
				"x": -3.4233984461,
				"y": 1.3314716191,
				"z": -0.7593830566,
				"element": "C" 
			},
			{
				"x": -2.2803555355,
				"y": 0.3173572747,
				"z": -0.5587536442,
				"element": "C" 
			},
			{
				"x": -2.27047216,
				"y": -0.2477506811,
				"z": 0.873130222,
				"element": "C" 
			},
			{
				"x": -2.230697556,
				"y": 0.7694152307,
				"z": 1.9245958485,
				"element": "N" 
			},
			{
				"x": -3.3078125123,
				"y": 1.7484958818,
				"z": 1.7590733079,
				"element": "C" 
			},
			{
				"x": -3.3648689441,
				"y": 2.3906111417,
				"z": 0.3597491852,
				"element": "C" 
			},
			{
				"x": 0.4037580256,
				"y": 1.915067608,
				"z": -3.6962125752,
				"element": "C" 
			},
			{
				"x": 1.5293030517,
				"y": 1.630776862,
				"z": -2.9195718987,
				"element": "C" 
			},
			{
				"x": 2.3273380043,
				"y": -1.9345172289,
				"z": -0.7007980937,
				"element": "C" 
			},
			{
				"x": 3.2272496771,
				"y": -2.7734886671,
				"z": -1.2580262653,
				"element": "O" 
			},
			{
				"x": 1.227496233,
				"y": -2.2956400567,
				"z": -0.3408911174,
				"element": "O" 
			},
			{
				"x": 3.7437632729,
				"y": -0.6008028085,
				"z": 4.3822880892,
				"element": "H" 
			},
			{
				"x": 3.6584254587,
				"y": -0.0781841982,
				"z": 6.061515605,
				"element": "H" 
			},
			{
				"x": 2.9059192145,
				"y": -1.6053942689,
				"z": 5.5846942395,
				"element": "H" 
			},
			{
				"x": 2.0175028341,
				"y": 1.1836464782,
				"z": 4.6179067589,
				"element": "H" 
			},
			{
				"x": 1.2291375675,
				"y": 0.3026830095,
				"z": 5.9103507204,
				"element": "H" 
			},
			{
				"x": -0.067378506,
				"y": 0.0444676668,
				"z": 3.8532373259,
				"element": "H" 
			},
			{
				"x": 0.5597142198,
				"y": -1.506531874,
				"z": 4.3856992348,
				"element": "H" 
			},
			{
				"x": 2.3330531217,
				"y": -1.4403584292,
				"z": 2.6217456464,
				"element": "H" 
			},
			{
				"x": 0.6983148167,
				"y": -1.3161569658,
				"z": 1.950469172,
				"element": "H" 
			},
			{
				"x": 0.9610332977,
				"y": 0.3027007874,
				"z": -0.3118428633,
				"element": "H" 
			},
			{
				"x": 3.7702238687,
				"y": -0.5375058272,
				"z": 0.0321702586,
				"element": "H" 
			},
			{
				"x": 3.8368138712,
				"y": 0.9830764416,
				"z": -1.7875030003,
				"element": "H" 
			},
			{
				"x": 3.9678575196,
				"y": -0.6485779542,
				"z": -2.4516729082,
				"element": "H" 
			},
			{
				"x": 1.9471252856,
				"y": -1.6395463569,
				"z": -3.7022272595,
				"element": "H" 
			},
			{
				"x": -0.0720048312,
				"y": -1.1540373198,
				"z": -5.0586656034,
				"element": "H" 
			},
			{
				"x": -1.8033881815,
				"y": 2.8910074992,
				"z": -4.4007950289,
				"element": "H" 
			},
			{
				"x": -2.2132714647,
				"y": 2.6467855235,
				"z": -6.1006052821,
				"element": "H" 
			},
			{
				"x": -3.9305074332,
				"y": 0.9760180643,
				"z": -5.4726918369,
				"element": "H" 
			},
			{
				"x": -4.2536913073,
				"y": 2.5541415241,
				"z": -4.7619499728,
				"element": "H" 
			},
			{
				"x": -2.9383931425,
				"y": 0.2010554404,
				"z": -3.3009787445,
				"element": "H" 
			},
			{
				"x": -4.6470214393,
				"y": 0.5790051875,
				"z": -3.2057973793,
				"element": "H" 
			},
			{
				"x": -2.4278872043,
				"y": 2.4870450326,
				"z": -2.2737739663,
				"element": "H" 
			},
			{
				"x": -4.155037738,
				"y": 2.7887903063,
				"z": -2.1783168881,
				"element": "H" 
			},
			{
				"x": -4.3761534613,
				"y": 0.7861558682,
				"z": -0.6542349526,
				"element": "H" 
			},
			{
				"x": -1.3244486611,
				"y": 0.827691726,
				"z": -0.7553245277,
				"element": "H" 
			},
			{
				"x": -2.3514573759,
				"y": -0.506316167,
				"z": -1.2789704779,
				"element": "H" 
			},
			{
				"x": -1.4206200205,
				"y": -0.9282290849,
				"z": 1.0013190337,
				"element": "H" 
			},
			{
				"x": -3.1758144963,
				"y": -0.8540310514,
				"z": 1.0246039634,
				"element": "H" 
			},
			{
				"x": -1.3305307304,
				"y": 1.2475190318,
				"z": 1.8962960836,
				"element": "H" 
			},
			{
				"x": -3.1965263606,
				"y": 2.521354836,
				"z": 2.5277477513,
				"element": "H" 
			},
			{
				"x": -4.2610266799,
				"y": 1.2376224608,
				"z": 1.9608720724,
				"element": "H" 
			},
			{
				"x": -2.4692680342,
				"y": 3.0132426324,
				"z": 0.2173726317,
				"element": "H" 
			},
			{
				"x": -4.2307647625,
				"y": 3.0630362315,
				"z": 0.2888057805,
				"element": "H" 
			},
			{
				"x": 0.0173505721,
				"y": 2.9270261685,
				"z": -3.7035843454,
				"element": "H" 
			},
			{
				"x": 1.9694987396,
				"y": 2.4264032078,
				"z": -2.3249265231,
				"element": "H" 
			},
			{
				"x": 2.8074677556,
				"y": -3.6501207418,
				"z": -1.290090924,
				"element": "H" 
			}
		],
		 "valence_orbital": [ 
			{
				"type": "occ",
				"energy": -0.29122,
				"method": "rhf"
			},
			{
				"type": "occ",
				"energy": -0.27916,
				"method": "rhf"
			},
			{
				"type": "occ",
				"energy": -0.25547,
				"method": "rhf"
			},
			{
				"type": "occ",
				"energy": -0.21839,
				"method": "rhf"
			},
			{
				"type": "occ",
				"energy": -0.20149,
				"method": "rhf"
			},
			{
				"type": "unocc",
				"energy": -0.02128,
				"method": "rhf"
			},
			{
				"type": "unocc",
				"energy": -0.00457,
				"method": "rhf"
			},
			{
				"type": "unocc",
				"energy": 0.00441,
				"method": "rhf"
			},
			{
				"type": "unocc",
				"energy": 0.04973,
				"method": "rhf"
			},
			{
				"type": "unocc",
				"energy": 0.05402,
				"method": "rhf"
			}
		],
		"cosmo_sigma_profile": { 
			"-0.025": 0.0,
			"-0.024": 0.0,
			"-0.023": 0.0,
			"-0.022": 0.0,
			"-0.021": 0.0,
			"-0.02": 0.0,
			"-0.019": 0.38251706623,
			"-0.018": 1.00952027619,
			"-0.017": 1.03102694281,
			"-0.016": 0.550357647732,
			"-0.015": 0.694177949213,
			"-0.014": 0.612259327826,
			"-0.013": 0.772478502936,
			"-0.012": 1.47446274715,
			"-0.011": 0.975545205467,
			"-0.01": 1.13288691693,
			"-0.009": 1.46822539222,
			"-0.008": 4.7389721273,
			"-0.007": 7.56777243034,
			"-0.006": 11.2489835766,
			"-0.005": 22.0543412624,
			"-0.004": 32.0458126175,
			"-0.003": 44.2732270065,
			"-0.002": 59.2929022531,
			"-0.001": 68.5559397498,
			"0.0": 58.7068723091,
			"0.001": 44.7578509751,
			"0.002": 26.8406729093,
			"0.003": 18.9219527718,
			"0.004": 16.7666229674,
			"0.005": 15.8608757131,
			"0.006": 13.0435896999,
			"0.007": 8.18880563686,
			"0.008": 7.25622481605,
			"0.009": 7.45061790889,
			"0.01": 7.91415292663,
			"0.011": 7.94909018722,
			"0.012": 6.05661738485,
			"0.013": 0.938223574157,
			"0.014": 0.879957087754,
			"0.015": 0.192959649879,
			"0.016": 0.437815768545,
			"0.017": 0.256127163217,
			"0.018": 0.512614137929,
			"0.019": 0.00900982816632,
			"0.02": 0.0,
			"0.021": 0.0,
			"0.022": 0.0,
			"0.023": 0.0,
			"0.024": 0.0,
			"0.025": 0.0
		}
	}
}
