{
	 "smiles": "SC1=NN=C(S1)N1CCCC1", 
	 "Tm": 453.15, 
	 "num_atms": 20, 
	 "gaussian": { 
		 "optdone": 1, 
		 "sigma_profile": "yes", 
		 "theory": "DFT", 
		 "functional": "B3LYP", 
		 "basiset": "6-31G**", 
		 "properties": { 
			 "R2extent": 3140.3163, 
			 "electric_dipole_moment_norm": 5.51692921289, 
			 "electric_quadrupole_moment_norm": 10.3673461122, 
			 "total_energy": -1194.65323322, 
			 "HOMO_LUMO_gap": 0.18785, 
			 "cosmo_polarized_energy": -13.13, 
			 "cosmo_cavitation_energy": 26.23, 
			 "cosmo_dispersion_energy": -20.81, 
			 "cosmo_repulsion_energy": 1.6, 
			 "cosmo_total_nonelectrostatic_energy": 7.02, 
			 "SMD_solvation_energy": 0.87 
		},
		"coords": [
			{
				"x": 4.0792861646,
				"y": 0.8334518932,
				"z": 0.8683787113,
				"element": "S" 
			},
			{
				"x": 2.470133251,
				"y": 0.2138987167,
				"z": 0.469688331,
				"element": "C" 
			},
			{
				"x": 2.2127147952,
				"y": -0.4938921696,
				"z": -0.5865958496,
				"element": "N" 
			},
			{
				"x": 0.9366399142,
				"y": -0.9574698874,
				"z": -0.6607752894,
				"element": "N" 
			},
			{
				"x": 0.1989291594,
				"y": -0.5843220766,
				"z": 0.371787945,
				"element": "C" 
			},
			{
				"x": 1.0736139582,
				"y": 0.3817281088,
				"z": 1.5627720523,
				"element": "S" 
			},
			{
				"x": -1.1044635717,
				"y": -0.9020441364,
				"z": 0.4990140453,
				"element": "N" 
			},
			{
				"x": -1.8202020668,
				"y": -1.6543718049,
				"z": -0.5423032256,
				"element": "C" 
			},
			{
				"x": -3.2908206302,
				"y": -1.4901928795,
				"z": -0.131718417,
				"element": "C" 
			},
			{
				"x": -3.2266868556,
				"y": -1.359821508,
				"z": 1.4008849159,
				"element": "C" 
			},
			{
				"x": -1.9482727339,
				"y": -0.5389658467,
				"z": 1.638073824,
				"element": "C" 
			},
			{
				"x": 3.7995450821,
				"y": 2.1465766263,
				"z": 0.7127078186,
				"element": "H" 
			},
			{
				"x": -1.5022020808,
				"y": -2.7052672447,
				"z": -0.5367821568,
				"element": "H" 
			},
			{
				"x": -1.587116299,
				"y": -1.2470532941,
				"z": -1.5297370263,
				"element": "H" 
			},
			{
				"x": -3.9097176024,
				"y": -2.3275885767,
				"z": -0.4635670624,
				"element": "H" 
			},
			{
				"x": -3.7018283162,
				"y": -0.5745812501,
				"z": -0.571347984,
				"element": "H" 
			},
			{
				"x": -4.1099260342,
				"y": -0.8818459758,
				"z": 1.831734654,
				"element": "H" 
			},
			{
				"x": -3.1220578494,
				"y": -2.3489390211,
				"z": 1.8598412744,
				"element": "H" 
			},
			{
				"x": -1.4562443411,
				"y": -0.787190328,
				"z": 2.5863571145,
				"element": "H" 
			},
			{
				"x": -2.1547239434,
				"y": 0.5417906544,
				"z": 1.6410863246,
				"element": "H" 
			}
		],
		 "valence_orbital": [ 
			{
				"type": "occ",
				"energy": -0.2977,
				"method": "rhf"
			},
			{
				"type": "occ",
				"energy": -0.2873,
				"method": "rhf"
			},
			{
				"type": "occ",
				"energy": -0.26248,
				"method": "rhf"
			},
			{
				"type": "occ",
				"energy": -0.24965,
				"method": "rhf"
			},
			{
				"type": "occ",
				"energy": -0.21307,
				"method": "rhf"
			},
			{
				"type": "unocc",
				"energy": -0.02522,
				"method": "rhf"
			},
			{
				"type": "unocc",
				"energy": -0.00145,
				"method": "rhf"
			},
			{
				"type": "unocc",
				"energy": 0.02938,
				"method": "rhf"
			},
			{
				"type": "unocc",
				"energy": 0.04731,
				"method": "rhf"
			},
			{
				"type": "unocc",
				"energy": 0.0619,
				"method": "rhf"
			}
		],
		"cosmo_sigma_profile": { 
			"-0.025": 0.0,
			"-0.024": 0.0,
			"-0.023": 0.0,
			"-0.022": 0.0,
			"-0.021": 0.0,
			"-0.02": 0.0,
			"-0.019": 0.0,
			"-0.018": 0.0,
			"-0.017": 0.0,
			"-0.016": 0.0,
			"-0.015": 0.0,
			"-0.014": 0.0,
			"-0.013": 0.0,
			"-0.012": 0.0849580154624,
			"-0.011": 2.1125515809,
			"-0.01": 2.1756416656,
			"-0.009": 1.91109753414,
			"-0.008": 1.62854555077,
			"-0.007": 1.68161514284,
			"-0.006": 3.03657910023,
			"-0.005": 10.5624863255,
			"-0.004": 27.0757913561,
			"-0.003": 30.1853510098,
			"-0.002": 20.6199394523,
			"-0.001": 20.14021348,
			"0.0": 18.2946001715,
			"0.001": 12.6431597254,
			"0.002": 9.01147475258,
			"0.003": 9.10798848648,
			"0.004": 5.63196534478,
			"0.005": 4.69367578156,
			"0.006": 4.58887597695,
			"0.007": 4.07069397924,
			"0.008": 3.55892289804,
			"0.009": 2.83125651499,
			"0.01": 2.97159142716,
			"0.011": 3.33508681807,
			"0.012": 3.39106268718,
			"0.013": 2.5228286273,
			"0.014": 3.04979001697,
			"0.015": 1.35793388583,
			"0.016": 0.00179919741954,
			"0.017": 0.0,
			"0.018": 0.0,
			"0.019": 0.0,
			"0.02": 0.0,
			"0.021": 0.0,
			"0.022": 0.0,
			"0.023": 0.0,
			"0.024": 0.0,
			"0.025": 0.0
		}
	}
}
