{
	 "smiles": "FC1=CC=C(C=C1)N1C(=S)NC2=C(C=CC=C2)C1=O", 
	 "Tm": 611.15, 
	 "num_atms": 28, 
	 "gaussian": { 
		 "optdone": 1, 
		 "sigma_profile": "yes", 
		 "theory": "DFT", 
		 "functional": "B3LYP", 
		 "basiset": "6-31G**", 
		 "properties": { 
			 "R2extent": 6713.7878, 
			 "electric_dipole_moment_norm": 5.19682354039, 
			 "electric_quadrupole_moment_norm": 11.8355335173, 
			 "total_energy": -1221.69706735, 
			 "HOMO_LUMO_gap": 0.15411, 
			 "cosmo_polarized_energy": -18.44, 
			 "cosmo_cavitation_energy": 35.21, 
			 "cosmo_dispersion_energy": -25.18, 
			 "cosmo_repulsion_energy": 1.85, 
			 "cosmo_total_nonelectrostatic_energy": 11.87, 
			 "SMD_solvation_energy": 6.1 
		},
		"coords": [
			{
				"x": 4.9405219748,
				"y": -4.4940394673,
				"z": -0.2532559295,
				"element": "F" 
			},
			{
				"x": 3.987748338,
				"y": -3.5612295241,
				"z": -0.0559137454,
				"element": "C" 
			},
			{
				"x": 2.8451225489,
				"y": -3.9082100307,
				"z": 0.6568172289,
				"element": "C" 
			},
			{
				"x": 1.8634286829,
				"y": -2.9404533974,
				"z": 0.8577749047,
				"element": "C" 
			},
			{
				"x": 2.0439145872,
				"y": -1.6541561926,
				"z": 0.3518348365,
				"element": "C" 
			},
			{
				"x": 3.1916647611,
				"y": -1.3246766013,
				"z": -0.3673659478,
				"element": "C" 
			},
			{
				"x": 4.179440358,
				"y": -2.2849540672,
				"z": -0.5740262815,
				"element": "C" 
			},
			{
				"x": 1.006415417,
				"y": -0.6610056186,
				"z": 0.5371909138,
				"element": "N" 
			},
			{
				"x": 1.0480126881,
				"y": 0.1609009074,
				"z": 1.6580209732,
				"element": "C" 
			},
			{
				"x": 2.222548214,
				"y": 0.1009646239,
				"z": 2.8423292269,
				"element": "S" 
			},
			{
				"x": 0.0261657853,
				"y": 1.0698779507,
				"z": 1.7496195985,
				"element": "N" 
			},
			{
				"x": -1.0108527244,
				"y": 1.2317847844,
				"z": 0.8456431063,
				"element": "C" 
			},
			{
				"x": -1.0456925026,
				"y": 0.3991367763,
				"z": -0.2824148443,
				"element": "C" 
			},
			{
				"x": -2.0806862852,
				"y": 0.5355196668,
				"z": -1.2172861501,
				"element": "C" 
			},
			{
				"x": -3.0695179625,
				"y": 1.4917334418,
				"z": -1.0286392838,
				"element": "C" 
			},
			{
				"x": -3.0264837615,
				"y": 2.3207159334,
				"z": 0.1033503569,
				"element": "C" 
			},
			{
				"x": -2.0080084827,
				"y": 2.1998216289,
				"z": 1.0406939479,
				"element": "C" 
			},
			{
				"x": 0.0042061201,
				"y": -0.612284839,
				"z": -0.4777699024,
				"element": "C" 
			},
			{
				"x": 0.0492073913,
				"y": -1.3737668799,
				"z": -1.4270260871,
				"element": "O" 
			},
			{
				"x": 2.7366822039,
				"y": -4.9163790168,
				"z": 1.0404790536,
				"element": "H" 
			},
			{
				"x": 0.9616198572,
				"y": -3.1807468617,
				"z": 1.410515238,
				"element": "H" 
			},
			{
				"x": 3.3130613761,
				"y": -0.3201777743,
				"z": -0.7582125025,
				"element": "H" 
			},
			{
				"x": 5.0850713944,
				"y": -2.0595309432,
				"z": -1.1257277345,
				"element": "H" 
			},
			{
				"x": 0.0739197314,
				"y": 1.6579967056,
				"z": 2.5708762844,
				"element": "H" 
			},
			{
				"x": -2.0773318713,
				"y": -0.1244132093,
				"z": -2.0780415402,
				"element": "H" 
			},
			{
				"x": -3.8718404419,
				"y": 1.599230987,
				"z": -1.7509797303,
				"element": "H" 
			},
			{
				"x": -3.7983873433,
				"y": 3.0696166851,
				"z": 0.2537999459,
				"element": "H" 
			},
			{
				"x": -1.9773500543,
				"y": 2.842724332,
				"z": 1.9157140639,
				"element": "H" 
			}
		],
		 "valence_orbital": [ 
			{
				"type": "occ",
				"energy": -0.26546,
				"method": "rhf"
			},
			{
				"type": "occ",
				"energy": -0.26359,
				"method": "rhf"
			},
			{
				"type": "occ",
				"energy": -0.25329,
				"method": "rhf"
			},
			{
				"type": "occ",
				"energy": -0.22473,
				"method": "rhf"
			},
			{
				"type": "occ",
				"energy": -0.21696,
				"method": "rhf"
			},
			{
				"type": "unocc",
				"energy": -0.06285,
				"method": "rhf"
			},
			{
				"type": "unocc",
				"energy": -0.04745,
				"method": "rhf"
			},
			{
				"type": "unocc",
				"energy": -0.01403,
				"method": "rhf"
			},
			{
				"type": "unocc",
				"energy": -0.00697,
				"method": "rhf"
			},
			{
				"type": "unocc",
				"energy": -0.00408,
				"method": "rhf"
			}
		],
		"cosmo_sigma_profile": { 
			"-0.025": 0.0,
			"-0.024": 0.0,
			"-0.023": 0.0,
			"-0.022": 0.0,
			"-0.021": 0.0,
			"-0.02": 0.0,
			"-0.019": 0.0,
			"-0.018": 0.0,
			"-0.017": 0.264074821142,
			"-0.016": 1.14300449159,
			"-0.015": 1.15617167925,
			"-0.014": 1.21453774743,
			"-0.013": 1.00105191966,
			"-0.012": 1.09820270756,
			"-0.011": 1.07034531574,
			"-0.01": 1.08153788847,
			"-0.009": 1.22675643622,
			"-0.008": 6.12382014408,
			"-0.007": 16.4636340693,
			"-0.006": 21.0547050333,
			"-0.005": 18.8764616967,
			"-0.004": 14.6894850296,
			"-0.003": 13.9858098036,
			"-0.002": 14.3030345909,
			"-0.001": 15.1958095765,
			"0.0": 20.5699595544,
			"0.001": 21.2824223349,
			"0.002": 21.6320287307,
			"0.003": 20.0704450901,
			"0.004": 17.6566414647,
			"0.005": 8.28903526922,
			"0.006": 5.66451633457,
			"0.007": 8.000229816,
			"0.008": 8.27661432817,
			"0.009": 10.3350064525,
			"0.01": 7.11230880492,
			"0.011": 4.23320983174,
			"0.012": 3.44675094717,
			"0.013": 0.156294018839,
			"0.014": 0.0,
			"0.015": 0.0,
			"0.016": 0.0,
			"0.017": 0.0,
			"0.018": 0.0,
			"0.019": 0.0,
			"0.02": 0.0,
			"0.021": 0.0,
			"0.022": 0.0,
			"0.023": 0.0,
			"0.024": 0.0,
			"0.025": 0.0
		}
	}
}
