{
	 "smiles": "O=C1CC[C@H]2[C@@H]1[C@@H]1CCC(=O)[C@H]21", 
	 "Tm": 539.15, 
	 "num_atms": 24, 
	 "gaussian": { 
		 "optdone": 1, 
		 "sigma_profile": "yes", 
		 "theory": "DFT", 
		 "functional": "B3LYP", 
		 "basiset": "6-31G**", 
		 "properties": { 
			 "R2extent": 2850.7614, 
			 "electric_dipole_moment_norm": 0.464443473417, 
			 "electric_quadrupole_moment_norm": 20.2133109863, 
			 "total_energy": -538.712363465, 
			 "HOMO_LUMO_gap": 0.20746, 
			 "cosmo_polarized_energy": -12.34, 
			 "cosmo_cavitation_energy": 25.63, 
			 "cosmo_dispersion_energy": -18.88, 
			 "cosmo_repulsion_energy": 1.53, 
			 "cosmo_total_nonelectrostatic_energy": 8.29, 
			 "SMD_solvation_energy": 4.64 
		},
		"coords": [
			{
				"x": 0.9115322281,
				"y": -1.5923178762,
				"z": -0.6278103942,
				"element": "O" 
			},
			{
				"x": 0.8513920169,
				"y": -0.5592138178,
				"z": 0.0029238804,
				"element": "C" 
			},
			{
				"x": 2.0331934039,
				"y": 0.1467469436,
				"z": 0.6808571983,
				"element": "C" 
			},
			{
				"x": 1.5746760765,
				"y": 1.6023351367,
				"z": 0.8779036966,
				"element": "C" 
			},
			{
				"x": 0.0385921762,
				"y": 1.5341589332,
				"z": 0.9957225245,
				"element": "C" 
			},
			{
				"x": -0.4268318165,
				"y": 0.2425043016,
				"z": 0.2574920765,
				"element": "C" 
			},
			{
				"x": -1.1929703079,
				"y": -0.2145637816,
				"z": 1.539093621,
				"element": "C" 
			},
			{
				"x": -2.7192546013,
				"y": 0.0943102947,
				"z": 1.5439821828,
				"element": "C" 
			},
			{
				"x": -2.9626056521,
				"y": 0.9615104646,
				"z": 2.7921303605,
				"element": "C" 
			},
			{
				"x": -1.656161857,
				"y": 1.7334188815,
				"z": 3.0012670676,
				"element": "C" 
			},
			{
				"x": -1.5318931051,
				"y": 2.7908855173,
				"z": 3.5800090244,
				"element": "O" 
			},
			{
				"x": -0.5330843371,
				"y": 0.9455437655,
				"z": 2.3327487015,
				"element": "C" 
			},
			{
				"x": 2.9450084745,
				"y": 0.0269335345,
				"z": 0.0907886295,
				"element": "H" 
			},
			{
				"x": 2.2097698238,
				"y": -0.3567957448,
				"z": 1.6416096956,
				"element": "H" 
			},
			{
				"x": 1.8401504639,
				"y": 2.195698003,
				"z": -0.005097776,
				"element": "H" 
			},
			{
				"x": 2.0328211679,
				"y": 2.0895187603,
				"z": 1.7441110518,
				"element": "H" 
			},
			{
				"x": -0.4408135207,
				"y": 2.4707218226,
				"z": 0.7003658477,
				"element": "H" 
			},
			{
				"x": -1.0223880769,
				"y": 0.3108158659,
				"z": -0.6576023959,
				"element": "H" 
			},
			{
				"x": -0.9888671621,
				"y": -1.236759597,
				"z": 1.8715487321,
				"element": "H" 
			},
			{
				"x": -2.990921727,
				"y": 0.6577328264,
				"z": 0.6441540003,
				"element": "H" 
			},
			{
				"x": -3.3192842454,
				"y": -0.8191081083,
				"z": 1.539069205,
				"element": "H" 
			},
			{
				"x": -3.1078749126,
				"y": 0.3320130644,
				"z": 3.681978844,
				"element": "H" 
			},
			{
				"x": -3.8188390922,
				"y": 1.6376511345,
				"z": 2.7310394284,
				"element": "H" 
			},
			{
				"x": 0.240054582,
				"y": 0.6922596756,
				"z": 3.0652147976,
				"element": "H" 
			}
		],
		 "valence_orbital": [ 
			{
				"type": "occ",
				"energy": -0.32624,
				"method": "rhf"
			},
			{
				"type": "occ",
				"energy": -0.32039,
				"method": "rhf"
			},
			{
				"type": "occ",
				"energy": -0.30601,
				"method": "rhf"
			},
			{
				"type": "occ",
				"energy": -0.24483,
				"method": "rhf"
			},
			{
				"type": "occ",
				"energy": -0.23823,
				"method": "rhf"
			},
			{
				"type": "unocc",
				"energy": -0.03077,
				"method": "rhf"
			},
			{
				"type": "unocc",
				"energy": -0.02071,
				"method": "rhf"
			},
			{
				"type": "unocc",
				"energy": 0.07793,
				"method": "rhf"
			},
			{
				"type": "unocc",
				"energy": 0.083,
				"method": "rhf"
			},
			{
				"type": "unocc",
				"energy": 0.09314,
				"method": "rhf"
			}
		],
		"cosmo_sigma_profile": { 
			"-0.025": 0.0,
			"-0.024": 0.0,
			"-0.023": 0.0,
			"-0.022": 0.0,
			"-0.021": 0.0,
			"-0.02": 0.0,
			"-0.019": 0.0,
			"-0.018": 0.0,
			"-0.017": 0.0,
			"-0.016": 0.0,
			"-0.015": 0.0,
			"-0.014": 0.0,
			"-0.013": 0.0,
			"-0.012": 0.0,
			"-0.011": 0.0,
			"-0.01": 0.0,
			"-0.009": 0.0,
			"-0.008": 0.0,
			"-0.007": 0.56019736715,
			"-0.006": 10.4736925959,
			"-0.005": 19.6043419732,
			"-0.004": 32.1145473266,
			"-0.003": 30.2631355311,
			"-0.002": 22.6198821194,
			"-0.001": 17.6469078997,
			"0.0": 12.2599855641,
			"0.001": 4.1128100023,
			"0.002": 3.57565684,
			"0.003": 2.53358613758,
			"0.004": 2.57379218644,
			"0.005": 2.93365223383,
			"0.006": 3.17536116185,
			"0.007": 3.22862530259,
			"0.008": 2.94335855924,
			"0.009": 3.23700169951,
			"0.01": 3.83559667063,
			"0.011": 7.34718815995,
			"0.012": 9.51636749613,
			"0.013": 5.28405435906,
			"0.014": 0.465332989785,
			"0.015": 0.0,
			"0.016": 0.0,
			"0.017": 0.0,
			"0.018": 0.0,
			"0.019": 0.0,
			"0.02": 0.0,
			"0.021": 0.0,
			"0.022": 0.0,
			"0.023": 0.0,
			"0.024": 0.0,
			"0.025": 0.0
		}
	}
}
