{
	 "smiles": "ClCCC(Cl)OP(=O)(OC(Cl)CCCl)OC(Cl)CCCl", 
	 "Tm": 299.85, 
	 "num_atms": 35, 
	 "gaussian": { 
		 "optdone": 1, 
		 "sigma_profile": "yes", 
		 "theory": "DFT", 
		 "functional": "B3LYP", 
		 "basiset": "6-31G**", 
		 "properties": { 
			 "R2extent": 11676.0868, 
			 "electric_dipole_moment_norm": 2.13361134465, 
			 "electric_quadrupole_moment_norm": 22.901016741, 
			 "total_energy": -3755.4972156, 
			 "HOMO_LUMO_gap": 0.27271, 
			 "cosmo_polarized_energy": -20.23, 
			 "cosmo_cavitation_energy": 50.32, 
			 "cosmo_dispersion_energy": -32.05, 
			 "cosmo_repulsion_energy": 2.56, 
			 "cosmo_total_nonelectrostatic_energy": 20.84, 
			 "SMD_solvation_energy": 7.14 
		},
		"coords": [
			{
				"x": -2.4155010929,
				"y": -2.9797031192,
				"z": 5.109708499,
				"element": "Cl" 
			},
			{
				"x": -1.6719594088,
				"y": -1.8729993049,
				"z": 3.882623022,
				"element": "C" 
			},
			{
				"x": -2.7008549184,
				"y": -0.846774798,
				"z": 3.4066003445,
				"element": "C" 
			},
			{
				"x": -2.1128597443,
				"y": 0.0858187549,
				"z": 2.3569726155,
				"element": "C" 
			},
			{
				"x": -3.3017036091,
				"y": 1.3864850199,
				"z": 1.9295794362,
				"element": "Cl" 
			},
			{
				"x": -1.8326604946,
				"y": -0.6481539955,
				"z": 1.1660572391,
				"element": "O" 
			},
			{
				"x": -0.3523492632,
				"y": -0.7895335833,
				"z": 0.5351823324,
				"element": "P" 
			},
			{
				"x": 0.5789373573,
				"y": -1.731581724,
				"z": 1.176796544,
				"element": "O" 
			},
			{
				"x": 0.1688542198,
				"y": 0.7467120636,
				"z": 0.4662189183,
				"element": "O" 
			},
			{
				"x": 1.4641607764,
				"y": 1.1040092244,
				"z": 0.9246708181,
				"element": "C" 
			},
			{
				"x": 1.3501260933,
				"y": 1.6713399169,
				"z": 2.660916193,
				"element": "Cl" 
			},
			{
				"x": 1.9968208878,
				"y": 2.2330092401,
				"z": 0.0574568339,
				"element": "C" 
			},
			{
				"x": 2.1966813114,
				"y": 1.8327812033,
				"z": -1.4008263472,
				"element": "C" 
			},
			{
				"x": 3.4734619635,
				"y": 0.5506914667,
				"z": -1.5865275979,
				"element": "Cl" 
			},
			{
				"x": -0.7230457752,
				"y": -1.1907175191,
				"z": -0.9785399338,
				"element": "O" 
			},
			{
				"x": -1.85589893,
				"y": -0.7539105766,
				"z": -1.7171804821,
				"element": "C" 
			},
			{
				"x": -1.5048123494,
				"y": 0.8381088875,
				"z": -2.5265904446,
				"element": "Cl" 
			},
			{
				"x": -2.2220494045,
				"y": -1.8577773034,
				"z": -2.70285355,
				"element": "C" 
			},
			{
				"x": -1.1062458916,
				"y": -2.3762494628,
				"z": -3.6114108772,
				"element": "C" 
			},
			{
				"x": -0.915399195,
				"y": -1.4379369459,
				"z": -5.1521839445,
				"element": "Cl" 
			},
			{
				"x": -0.8189886242,
				"y": -1.3966518645,
				"z": 4.3693129522,
				"element": "H" 
			},
			{
				"x": -1.3047748619,
				"y": -2.4988320534,
				"z": 3.0699807089,
				"element": "H" 
			},
			{
				"x": -3.0443471437,
				"y": -0.2443157447,
				"z": 4.2516768838,
				"element": "H" 
			},
			{
				"x": -3.5724646937,
				"y": -1.3510083369,
				"z": 2.9797355698,
				"element": "H" 
			},
			{
				"x": -1.2211273715,
				"y": 0.6097732234,
				"z": 2.7046914494,
				"element": "H" 
			},
			{
				"x": 2.1141630617,
				"y": 0.2305888333,
				"z": 0.9524491337,
				"element": "H" 
			},
			{
				"x": 1.2813205988,
				"y": 3.0626110425,
				"z": 0.0908500606,
				"element": "H" 
			},
			{
				"x": 2.9386217429,
				"y": 2.5843357987,
				"z": 0.4866732987,
				"element": "H" 
			},
			{
				"x": 2.5347324843,
				"y": 2.6890345988,
				"z": -1.9849276769,
				"element": "H" 
			},
			{
				"x": 1.2843440453,
				"y": 1.4323990533,
				"z": -1.842264706,
				"element": "H" 
			},
			{
				"x": -2.684224019,
				"y": -0.5446416286,
				"z": -1.041187205,
				"element": "H" 
			},
			{
				"x": -2.5479199077,
				"y": -2.6995977715,
				"z": -2.077628724,
				"element": "H" 
			},
			{
				"x": -3.0865978712,
				"y": -1.5377854156,
				"z": -3.2902413454,
				"element": "H" 
			},
			{
				"x": -1.3287155167,
				"y": -3.3979971566,
				"z": -3.9189171669,
				"element": "H" 
			},
			{
				"x": -0.1403244558,
				"y": -2.3630300227,
				"z": -3.1066728518,
				"element": "H" 
			}
		],
		 "valence_orbital": [ 
			{
				"type": "occ",
				"energy": -0.30517,
				"method": "rhf"
			},
			{
				"type": "occ",
				"energy": -0.30328,
				"method": "rhf"
			},
			{
				"type": "occ",
				"energy": -0.30238,
				"method": "rhf"
			},
			{
				"type": "occ",
				"energy": -0.30143,
				"method": "rhf"
			},
			{
				"type": "occ",
				"energy": -0.29193,
				"method": "rhf"
			},
			{
				"type": "unocc",
				"energy": -0.01922,
				"method": "rhf"
			},
			{
				"type": "unocc",
				"energy": -0.01034,
				"method": "rhf"
			},
			{
				"type": "unocc",
				"energy": -0.00163,
				"method": "rhf"
			},
			{
				"type": "unocc",
				"energy": 0.01318,
				"method": "rhf"
			},
			{
				"type": "unocc",
				"energy": 0.0137,
				"method": "rhf"
			}
		],
		"cosmo_sigma_profile": { 
			"-0.025": 0.0,
			"-0.024": 0.0,
			"-0.023": 0.0,
			"-0.022": 0.0,
			"-0.021": 0.0,
			"-0.02": 0.0,
			"-0.019": 0.0,
			"-0.018": 0.0,
			"-0.017": 0.0,
			"-0.016": 0.0,
			"-0.015": 0.0,
			"-0.014": 0.0,
			"-0.013": 0.0,
			"-0.012": 0.0,
			"-0.011": 0.0298233966775,
			"-0.01": 1.09448167639,
			"-0.009": 3.41534082254,
			"-0.008": 12.949229052,
			"-0.007": 24.2616338596,
			"-0.006": 26.7915016844,
			"-0.005": 24.4666835177,
			"-0.004": 24.165742349,
			"-0.003": 23.7970577027,
			"-0.002": 21.2140360929,
			"-0.001": 22.6307100223,
			"0.0": 27.489943013,
			"0.001": 24.1380319976,
			"0.002": 24.9451433345,
			"0.003": 27.6787935045,
			"0.004": 32.1208016217,
			"0.005": 34.5479508006,
			"0.006": 29.325065773,
			"0.007": 10.5946158536,
			"0.008": 1.83055483752,
			"0.009": 1.26948184635,
			"0.01": 1.38387755112,
			"0.011": 2.53535588743,
			"0.012": 3.77620245681,
			"0.013": 1.19806710829,
			"0.014": 0.0,
			"0.015": 0.0,
			"0.016": 0.0,
			"0.017": 0.0,
			"0.018": 0.0,
			"0.019": 0.0,
			"0.02": 0.0,
			"0.021": 0.0,
			"0.022": 0.0,
			"0.023": 0.0,
			"0.024": 0.0,
			"0.025": 0.0
		}
	}
}
