{
	 "smiles": "NC1=NC(CO)=C(Cl)C=C1", 
	 "Tm": 421.15, 
	 "num_atms": 17, 
	 "gaussian": { 
		 "optdone": 1, 
		 "sigma_profile": "yes", 
		 "theory": "DFT", 
		 "functional": "B3LYP", 
		 "basiset": "6-31G**", 
		 "properties": { 
			 "R2extent": 1959.6622, 
			 "electric_dipole_moment_norm": 3.50963010302, 
			 "electric_quadrupole_moment_norm": 15.9333523563, 
			 "total_energy": -877.770720883, 
			 "HOMO_LUMO_gap": 0.18963, 
			 "cosmo_polarized_energy": -12.23, 
			 "cosmo_cavitation_energy": 22.6, 
			 "cosmo_dispersion_energy": -17.19, 
			 "cosmo_repulsion_energy": 1.41, 
			 "cosmo_total_nonelectrostatic_energy": 6.82, 
			 "SMD_solvation_energy": 2.28 
		},
		"coords": [
			{
				"x": 3.3754869066,
				"y": 1.0413529862,
				"z": -0.3878737469,
				"element": "N" 
			},
			{
				"x": 2.1031348852,
				"y": 0.5087868167,
				"z": -0.3417562674,
				"element": "C" 
			},
			{
				"x": 1.2359549809,
				"y": 0.9711347382,
				"z": -1.2544902466,
				"element": "N" 
			},
			{
				"x": -0.0351348869,
				"y": 0.545019313,
				"z": -1.2434430205,
				"element": "C" 
			},
			{
				"x": -0.9476967583,
				"y": 1.1171970482,
				"z": -2.3150390129,
				"element": "C" 
			},
			{
				"x": -1.3907457826,
				"y": 0.1519883703,
				"z": -3.2579490652,
				"element": "O" 
			},
			{
				"x": -0.471933366,
				"y": -0.3821171919,
				"z": -0.2914640871,
				"element": "C" 
			},
			{
				"x": -2.1499816537,
				"y": -0.9357146835,
				"z": -0.2638423811,
				"element": "Cl" 
			},
			{
				"x": 0.422161196,
				"y": -0.8795317417,
				"z": 0.6571203874,
				"element": "C" 
			},
			{
				"x": 1.7332122671,
				"y": -0.4329058914,
				"z": 0.6403750802,
				"element": "C" 
			},
			{
				"x": 4.1273622984,
				"y": 0.4909564317,
				"z": -0.001652486,
				"element": "H" 
			},
			{
				"x": 3.5931058184,
				"y": 1.5199634437,
				"z": -1.2505344422,
				"element": "H" 
			},
			{
				"x": -1.7956799956,
				"y": 1.6316045217,
				"z": -1.8369883935,
				"element": "H" 
			},
			{
				"x": -0.3689099249,
				"y": 1.8570005054,
				"z": -2.8706716071,
				"element": "H" 
			},
			{
				"x": -2.0160100632,
				"y": -0.4307558452,
				"z": -2.8065965753,
				"element": "H" 
			},
			{
				"x": 0.0889295413,
				"y": -1.6009656877,
				"z": 1.3957566686,
				"element": "H" 
			},
			{
				"x": 2.4533445375,
				"y": -0.7920131337,
				"z": 1.3689491956,
				"element": "H" 
			}
		],
		 "valence_orbital": [ 
			{
				"type": "occ",
				"energy": -0.30643,
				"method": "rhf"
			},
			{
				"type": "occ",
				"energy": -0.28739,
				"method": "rhf"
			},
			{
				"type": "occ",
				"energy": -0.28056,
				"method": "rhf"
			},
			{
				"type": "occ",
				"energy": -0.25403,
				"method": "rhf"
			},
			{
				"type": "occ",
				"energy": -0.21873,
				"method": "rhf"
			},
			{
				"type": "unocc",
				"energy": -0.0291,
				"method": "rhf"
			},
			{
				"type": "unocc",
				"energy": -0.00645,
				"method": "rhf"
			},
			{
				"type": "unocc",
				"energy": 0.02448,
				"method": "rhf"
			},
			{
				"type": "unocc",
				"energy": 0.08004,
				"method": "rhf"
			},
			{
				"type": "unocc",
				"energy": 0.10417,
				"method": "rhf"
			}
		],
		"cosmo_sigma_profile": { 
			"-0.025": 0.0,
			"-0.024": 0.0,
			"-0.023": 0.0,
			"-0.022": 0.0,
			"-0.021": 0.0,
			"-0.02": 0.0,
			"-0.019": 0.0,
			"-0.018": 0.0,
			"-0.017": 0.0,
			"-0.016": 0.0,
			"-0.015": 0.0,
			"-0.014": 0.501833412115,
			"-0.013": 1.96589868101,
			"-0.012": 2.71996218673,
			"-0.011": 2.95971799223,
			"-0.01": 3.31043633498,
			"-0.009": 3.64790448637,
			"-0.008": 4.72197777216,
			"-0.007": 6.83884646224,
			"-0.006": 6.91324409241,
			"-0.005": 7.18212109791,
			"-0.004": 9.93295917576,
			"-0.003": 10.1455608307,
			"-0.002": 10.398666686,
			"-0.001": 10.57068284,
			"0.0": 10.1152024943,
			"0.001": 15.2183188656,
			"0.002": 17.2688959515,
			"0.003": 12.9317818033,
			"0.004": 9.10252194782,
			"0.005": 7.2198281427,
			"0.006": 4.23021555365,
			"0.007": 3.69640416033,
			"0.008": 3.30068289162,
			"0.009": 3.41018272226,
			"0.01": 2.52101040977,
			"0.011": 3.25096114214,
			"0.012": 2.64839026479,
			"0.013": 2.55478783936,
			"0.014": 2.09586659009,
			"0.015": 0.0573677930277,
			"0.016": 0.0,
			"0.017": 0.0,
			"0.018": 0.0,
			"0.019": 0.0,
			"0.02": 0.0,
			"0.021": 0.0,
			"0.022": 0.0,
			"0.023": 0.0,
			"0.024": 0.0,
			"0.025": 0.0
		}
	}
}
