{
	 "smiles": "CC1=CC=CC(C(O)=O)=C1F", 
	 "Tm": 388.15, 
	 "num_atms": 18, 
	 "gaussian": { 
		 "optdone": 1, 
		 "sigma_profile": "yes", 
		 "theory": "DFT", 
		 "functional": "B3LYP", 
		 "basiset": "6-31G**", 
		 "properties": { 
			 "R2extent": 2610.1895, 
			 "electric_dipole_moment_norm": 2.14260213292, 
			 "electric_quadrupole_moment_norm": 9.95284282253, 
			 "total_energy": -559.374678237, 
			 "HOMO_LUMO_gap": 0.19968, 
			 "cosmo_polarized_energy": -9.04, 
			 "cosmo_cavitation_energy": 22.76, 
			 "cosmo_dispersion_energy": -16.8, 
			 "cosmo_repulsion_energy": 1.33, 
			 "cosmo_total_nonelectrostatic_energy": 7.29, 
			 "SMD_solvation_energy": 5.67 
		},
		"coords": [
			{
				"x": 0.3513085617,
				"y": 1.3597465193,
				"z": 1.6321610993,
				"element": "C" 
			},
			{
				"x": 1.3182932387,
				"y": 0.9406038619,
				"z": 0.553976357,
				"element": "C" 
			},
			{
				"x": 2.7010467254,
				"y": 1.098064414,
				"z": 0.6742886069,
				"element": "C" 
			},
			{
				"x": 3.5707080451,
				"y": 0.6983973813,
				"z": -0.3453247918,
				"element": "C" 
			},
			{
				"x": 3.0599906833,
				"y": 0.1324539038,
				"z": -1.5050231855,
				"element": "C" 
			},
			{
				"x": 1.6752752816,
				"y": -0.0457367359,
				"z": -1.6704191776,
				"element": "C" 
			},
			{
				"x": 1.2273425859,
				"y": -0.6618495773,
				"z": -2.9505173243,
				"element": "C" 
			},
			{
				"x": -0.1099965136,
				"y": -0.8140789912,
				"z": -3.0658073211,
				"element": "O" 
			},
			{
				"x": 1.9918785396,
				"y": -1.0062119906,
				"z": -3.8321546077,
				"element": "O" 
			},
			{
				"x": 0.8358941008,
				"y": 0.3666408772,
				"z": -0.62783519,
				"element": "C" 
			},
			{
				"x": -0.4991708178,
				"y": 0.2234262206,
				"z": -0.7246705558,
				"element": "F" 
			},
			{
				"x": -0.2401811135,
				"y": 0.5096712324,
				"z": 1.9883374284,
				"element": "H" 
			},
			{
				"x": 0.8833560524,
				"y": 1.7880479805,
				"z": 2.4849077247,
				"element": "H" 
			},
			{
				"x": -0.3592995743,
				"y": 2.1058127191,
				"z": 1.2609883381,
				"element": "H" 
			},
			{
				"x": 3.0991227362,
				"y": 1.5415212548,
				"z": 1.5832707466,
				"element": "H" 
			},
			{
				"x": 4.6416184687,
				"y": 0.8307575218,
				"z": -0.2293100933,
				"element": "H" 
			},
			{
				"x": 3.7060440428,
				"y": -0.1881199297,
				"z": -2.3145555549,
				"element": "H" 
			},
			{
				"x": -0.2450310431,
				"y": -1.2212466619,
				"z": -3.938112499,
				"element": "H" 
			}
		],
		 "valence_orbital": [ 
			{
				"type": "occ",
				"energy": -0.34869,
				"method": "rhf"
			},
			{
				"type": "occ",
				"energy": -0.31698,
				"method": "rhf"
			},
			{
				"type": "occ",
				"energy": -0.2787,
				"method": "rhf"
			},
			{
				"type": "occ",
				"energy": -0.2635,
				"method": "rhf"
			},
			{
				"type": "occ",
				"energy": -0.24916,
				"method": "rhf"
			},
			{
				"type": "unocc",
				"energy": -0.04948,
				"method": "rhf"
			},
			{
				"type": "unocc",
				"energy": -0.00821,
				"method": "rhf"
			},
			{
				"type": "unocc",
				"energy": 0.05409,
				"method": "rhf"
			},
			{
				"type": "unocc",
				"energy": 0.0811,
				"method": "rhf"
			},
			{
				"type": "unocc",
				"energy": 0.09438,
				"method": "rhf"
			}
		],
		"cosmo_sigma_profile": { 
			"-0.025": 0.0,
			"-0.024": 0.0,
			"-0.023": 0.0,
			"-0.022": 0.0,
			"-0.021": 0.0,
			"-0.02": 0.0,
			"-0.019": 0.038319384778,
			"-0.018": 0.911834505517,
			"-0.017": 0.754213698458,
			"-0.016": 0.830758336015,
			"-0.015": 1.0287370151,
			"-0.014": 0.638195017375,
			"-0.013": 0.272778011418,
			"-0.012": 0.587137479469,
			"-0.011": 0.916628935711,
			"-0.01": 0.445214274971,
			"-0.009": 0.6064258921,
			"-0.008": 0.953833408743,
			"-0.007": 2.90567188412,
			"-0.006": 7.48375081613,
			"-0.005": 10.4639544672,
			"-0.004": 11.2216071988,
			"-0.003": 13.0308216277,
			"-0.002": 14.5953201922,
			"-0.001": 17.7925480382,
			"0.0": 17.8788555718,
			"0.001": 13.7323707157,
			"0.002": 13.3625494739,
			"0.003": 11.9451604648,
			"0.004": 12.1000070674,
			"0.005": 4.24614348421,
			"0.006": 3.18167230656,
			"0.007": 2.8328491624,
			"0.008": 3.49510635364,
			"0.009": 3.36194461689,
			"0.01": 2.37309081803,
			"0.011": 4.15360411513,
			"0.012": 3.51642778981,
			"0.013": 0.0435875096354,
			"0.014": 0.0,
			"0.015": 0.0,
			"0.016": 0.0,
			"0.017": 0.0,
			"0.018": 0.0,
			"0.019": 0.0,
			"0.02": 0.0,
			"0.021": 0.0,
			"0.022": 0.0,
			"0.023": 0.0,
			"0.024": 0.0,
			"0.025": 0.0
		}
	}
}
