{
	 "smiles": "BrC1=CC(Br)=C(OC2=CC(Br)=C(Br)C=C2Br)C=C1", 
	 "Tm": 355.15, 
	 "num_atms": 23, 
	 "gaussian": { 
		 "optdone": 1, 
		 "sigma_profile": "yes", 
		 "theory": "DFT", 
		 "functional": "B3LYP", 
		 "basiset": "6-31G**", 
		 "properties": { 
			 "R2extent": 16034.9863, 
			 "electric_dipole_moment_norm": 1.69706049391, 
			 "electric_quadrupole_moment_norm": 5.44178985537, 
			 "total_energy": -13392.509559, 
			 "HOMO_LUMO_gap": 0.19266, 
			 "cosmo_polarized_energy": -7.36, 
			 "cosmo_cavitation_energy": 40.27, 
			 "cosmo_dispersion_energy": -29.6, 
			 "cosmo_repulsion_energy": 2.34, 
			 "cosmo_total_nonelectrostatic_energy": 13.02, 
			 "SMD_solvation_energy": 1.46 
		},
		"coords": [
			{
				"x": -4.5871045105,
				"y": 2.9158527659,
				"z": -2.9752265426,
				"element": "Br" 
			},
			{
				"x": -3.297573761,
				"y": 2.1997369385,
				"z": -1.767662037,
				"element": "C" 
			},
			{
				"x": -2.2247765376,
				"y": 2.9955109001,
				"z": -1.3705898643,
				"element": "C" 
			},
			{
				"x": -1.2801077072,
				"y": 2.4724401594,
				"z": -0.4870042044,
				"element": "C" 
			},
			{
				"x": 0.1815924929,
				"y": 3.5512257331,
				"z": 0.0634529328,
				"element": "Br" 
			},
			{
				"x": -1.4130681496,
				"y": 1.1644247212,
				"z": -0.0060191099,
				"element": "C" 
			},
			{
				"x": -0.5391415821,
				"y": 0.6675061881,
				"z": 0.9396470792,
				"element": "O" 
			},
			{
				"x": 0.5485241775,
				"y": -0.0699574347,
				"z": 0.551932939,
				"element": "C" 
			},
			{
				"x": 0.8824354412,
				"y": -0.309013993,
				"z": -0.7803880774,
				"element": "C" 
			},
			{
				"x": 2.0063758915,
				"y": -1.0705567966,
				"z": -1.1054832777,
				"element": "C" 
			},
			{
				"x": 2.3845890504,
				"y": -1.3447478545,
				"z": -2.9462318127,
				"element": "Br" 
			},
			{
				"x": 2.8098416786,
				"y": -1.6014667085,
				"z": -0.0931598721,
				"element": "C" 
			},
			{
				"x": 4.3530920851,
				"y": -2.6474053272,
				"z": -0.45394981,
				"element": "Br" 
			},
			{
				"x": 2.4745395326,
				"y": -1.3610143819,
				"z": 1.2415681339,
				"element": "C" 
			},
			{
				"x": 1.3558961762,
				"y": -0.6043775823,
				"z": 1.5671184171,
				"element": "C" 
			},
			{
				"x": 0.9271434447,
				"y": -0.3014062913,
				"z": 3.3912284384,
				"element": "Br" 
			},
			{
				"x": -2.4971601753,
				"y": 0.3851675698,
				"z": -0.4122847403,
				"element": "C" 
			},
			{
				"x": -3.4450938115,
				"y": 0.8955202113,
				"z": -1.2961089701,
				"element": "C" 
			},
			{
				"x": -2.1206774528,
				"y": 4.008202559,
				"z": -1.7383623296,
				"element": "H" 
			},
			{
				"x": 0.2693412674,
				"y": 0.0990451568,
				"z": -1.5734245344,
				"element": "H" 
			},
			{
				"x": 3.0919958967,
				"y": -1.7697528404,
				"z": 2.0311688767,
				"element": "H" 
			},
			{
				"x": -2.5909789735,
				"y": -0.6212689423,
				"z": -0.0179232161,
				"element": "H" 
			},
			{
				"x": -4.2877844736,
				"y": 0.2910352496,
				"z": -1.6094984187,
				"element": "H" 
			}
		],
		 "valence_orbital": [ 
			{
				"type": "occ",
				"energy": -0.28506,
				"method": "rhf"
			},
			{
				"type": "occ",
				"energy": -0.27308,
				"method": "rhf"
			},
			{
				"type": "occ",
				"energy": -0.26109,
				"method": "rhf"
			},
			{
				"type": "occ",
				"energy": -0.25678,
				"method": "rhf"
			},
			{
				"type": "occ",
				"energy": -0.23896,
				"method": "rhf"
			},
			{
				"type": "unocc",
				"energy": -0.0463,
				"method": "rhf"
			},
			{
				"type": "unocc",
				"energy": -0.04267,
				"method": "rhf"
			},
			{
				"type": "unocc",
				"energy": -0.03581,
				"method": "rhf"
			},
			{
				"type": "unocc",
				"energy": -0.03087,
				"method": "rhf"
			},
			{
				"type": "unocc",
				"energy": -0.0282,
				"method": "rhf"
			}
		],
		"cosmo_sigma_profile": { 
			"-0.025": 0.0,
			"-0.024": 0.0,
			"-0.023": 0.0,
			"-0.022": 0.0,
			"-0.021": 0.0,
			"-0.02": 0.0,
			"-0.019": 0.0,
			"-0.018": 0.0,
			"-0.017": 0.0,
			"-0.016": 0.0,
			"-0.015": 0.0,
			"-0.014": 0.0,
			"-0.013": 0.0,
			"-0.012": 0.0,
			"-0.011": 0.0,
			"-0.01": 0.0,
			"-0.009": 1.7684570813,
			"-0.008": 7.29166483626,
			"-0.007": 8.85087196373,
			"-0.006": 9.45323064367,
			"-0.005": 14.5722182924,
			"-0.004": 16.017715983,
			"-0.003": 17.0363034316,
			"-0.002": 20.3596107204,
			"-0.001": 29.8630999106,
			"0.0": 51.4986036272,
			"0.001": 42.062106065,
			"0.002": 31.0202864659,
			"0.003": 41.7721518744,
			"0.004": 37.8320474646,
			"0.005": 7.3679271036,
			"0.006": 2.06304963702,
			"0.007": 2.09699213518,
			"0.008": 0.718502507257,
			"0.009": 0.0,
			"0.01": 0.0,
			"0.011": 0.0,
			"0.012": 0.0,
			"0.013": 0.0,
			"0.014": 0.0,
			"0.015": 0.0,
			"0.016": 0.0,
			"0.017": 0.0,
			"0.018": 0.0,
			"0.019": 0.0,
			"0.02": 0.0,
			"0.021": 0.0,
			"0.022": 0.0,
			"0.023": 0.0,
			"0.024": 0.0,
			"0.025": 0.0
		}
	}
}
