{
	 "smiles": "NC(=N)NC1=NC2=C(O1)C=CC=C2", 
	 "Tm": 453.15, 
	 "num_atms": 21, 
	 "gaussian": { 
		 "optdone": 1, 
		 "sigma_profile": "yes", 
		 "theory": "DFT", 
		 "functional": "B3LYP", 
		 "basiset": "6-31G**", 
		 "properties": { 
			 "R2extent": 3118.2818, 
			 "electric_dipole_moment_norm": 3.67402068312, 
			 "electric_quadrupole_moment_norm": 15.5736233815, 
			 "total_energy": -603.905608314, 
			 "HOMO_LUMO_gap": 0.19312, 
			 "cosmo_polarized_energy": -15.34, 
			 "cosmo_cavitation_energy": 25.7, 
			 "cosmo_dispersion_energy": -19.58, 
			 "cosmo_repulsion_energy": 1.55, 
			 "cosmo_total_nonelectrostatic_energy": 7.67, 
			 "SMD_solvation_energy": 1.79 
		},
		"coords": [
			{
				"x": 0.30786452,
				"y": 2.9222967512,
				"z": 2.4111468662,
				"element": "N" 
			},
			{
				"x": -0.7660215962,
				"y": 3.2963938609,
				"z": 1.6317548536,
				"element": "C" 
			},
			{
				"x": -1.636805975,
				"y": 4.2090206174,
				"z": 1.8608374851,
				"element": "N" 
			},
			{
				"x": -0.8979729261,
				"y": 2.6449372678,
				"z": 0.3907905502,
				"element": "N" 
			},
			{
				"x": -0.2513229753,
				"y": 1.593465958,
				"z": -0.1819933403,
				"element": "C" 
			},
			{
				"x": -0.4772338431,
				"y": 1.1335014858,
				"z": -1.3758596753,
				"element": "N" 
			},
			{
				"x": 0.4075196012,
				"y": 0.0602481068,
				"z": -1.4916097092,
				"element": "C" 
			},
			{
				"x": 1.1473872326,
				"y": -0.0640539738,
				"z": -0.3082617342,
				"element": "C" 
			},
			{
				"x": 0.7126129637,
				"y": 0.9390690085,
				"z": 0.5496959097,
				"element": "O" 
			},
			{
				"x": 2.1178234085,
				"y": -1.0215426766,
				"z": -0.0846297647,
				"element": "C" 
			},
			{
				"x": 2.3422435885,
				"y": -1.9113756486,
				"z": -1.1435364761,
				"element": "C" 
			},
			{
				"x": 1.6180251192,
				"y": -1.8153745972,
				"z": -2.3421325967,
				"element": "C" 
			},
			{
				"x": 0.642858316,
				"y": -0.8333216086,
				"z": -2.5380437097,
				"element": "C" 
			},
			{
				"x": 0.2545137119,
				"y": 3.1985197146,
				"z": 3.378981673,
				"element": "H" 
			},
			{
				"x": 0.7537513261,
				"y": 2.0348406565,
				"z": 2.2322602272,
				"element": "H" 
			},
			{
				"x": -1.4687604733,
				"y": 4.6626119055,
				"z": 2.7575107163,
				"element": "H" 
			},
			{
				"x": -1.6366776606,
				"y": 3.0395850849,
				"z": -0.1760896139,
				"element": "H" 
			},
			{
				"x": 2.6688903836,
				"y": -1.0814547426,
				"z": 0.8474109689,
				"element": "H" 
			},
			{
				"x": 3.0914101408,
				"y": -2.6887373835,
				"z": -1.0314943279,
				"element": "H" 
			},
			{
				"x": 1.8226165975,
				"y": -2.5244349441,
				"z": -3.1387390563,
				"element": "H" 
			},
			{
				"x": 0.08487854,
				"y": -0.7598948429,
				"z": -3.4651992459,
				"element": "H" 
			}
		],
		 "valence_orbital": [ 
			{
				"type": "occ",
				"energy": -0.29371,
				"method": "rhf"
			},
			{
				"type": "occ",
				"energy": -0.27444,
				"method": "rhf"
			},
			{
				"type": "occ",
				"energy": -0.25096,
				"method": "rhf"
			},
			{
				"type": "occ",
				"energy": -0.24634,
				"method": "rhf"
			},
			{
				"type": "occ",
				"energy": -0.21226,
				"method": "rhf"
			},
			{
				"type": "unocc",
				"energy": -0.01914,
				"method": "rhf"
			},
			{
				"type": "unocc",
				"energy": 0.00456,
				"method": "rhf"
			},
			{
				"type": "unocc",
				"energy": 0.03308,
				"method": "rhf"
			},
			{
				"type": "unocc",
				"energy": 0.06587,
				"method": "rhf"
			},
			{
				"type": "unocc",
				"energy": 0.08304,
				"method": "rhf"
			}
		],
		"cosmo_sigma_profile": { 
			"-0.025": 0.0,
			"-0.024": 0.0,
			"-0.023": 0.0,
			"-0.022": 0.0,
			"-0.021": 0.0,
			"-0.02": 0.0,
			"-0.019": 0.0,
			"-0.018": 0.0,
			"-0.017": 0.0,
			"-0.016": 0.0,
			"-0.015": 0.606633802679,
			"-0.014": 2.31340268903,
			"-0.013": 2.49252558468,
			"-0.012": 2.08920503472,
			"-0.011": 3.49068370085,
			"-0.01": 4.54044259256,
			"-0.009": 3.27257333025,
			"-0.008": 3.20563108108,
			"-0.007": 4.2867028678,
			"-0.006": 10.066649904,
			"-0.005": 12.1789475926,
			"-0.004": 11.4397886308,
			"-0.003": 14.0852025143,
			"-0.002": 12.3136990855,
			"-0.001": 13.7478671701,
			"0.0": 12.5411509944,
			"0.001": 14.2651186006,
			"0.002": 11.9437342065,
			"0.003": 11.3877989099,
			"0.004": 13.099968655,
			"0.005": 11.120991062,
			"0.006": 5.33812523295,
			"0.007": 3.00861260748,
			"0.008": 3.26022199874,
			"0.009": 2.07430060258,
			"0.01": 3.21148371335,
			"0.011": 3.02628414716,
			"0.012": 1.67089303202,
			"0.013": 2.25676815156,
			"0.014": 2.09949515242,
			"0.015": 1.96161880969,
			"0.016": 1.77991992404,
			"0.017": 1.03058198896,
			"0.018": 0.720167826467,
			"0.019": 0.0188545452233,
			"0.02": 0.0,
			"0.021": 0.0,
			"0.022": 0.0,
			"0.023": 0.0,
			"0.024": 0.0,
			"0.025": 0.0
		}
	}
}
