{
	 "smiles": "NC1=CC=C(OCC#C)C=C1", 
	 "Tm": 323.15, 
	 "num_atms": 20, 
	 "gaussian": { 
		 "optdone": 1, 
		 "sigma_profile": "yes", 
		 "theory": "DFT", 
		 "functional": "B3LYP", 
		 "basiset": "6-31G**", 
		 "properties": { 
			 "R2extent": 2609.1, 
			 "electric_dipole_moment_norm": 2.03424809205, 
			 "electric_quadrupole_moment_norm": 14.8480508687, 
			 "total_energy": -478.263289729, 
			 "HOMO_LUMO_gap": 0.18765, 
			 "cosmo_polarized_energy": -12.28, 
			 "cosmo_cavitation_energy": 25.21, 
			 "cosmo_dispersion_energy": -18.11, 
			 "cosmo_repulsion_energy": 1.45, 
			 "cosmo_total_nonelectrostatic_energy": 8.56, 
			 "SMD_solvation_energy": 5.9 
		},
		"coords": [
			{
				"x": -3.82696219,
				"y": -2.0497478045,
				"z": 1.058469467,
				"element": "N" 
			},
			{
				"x": -2.6950351046,
				"y": -1.4190121585,
				"z": 0.5171927355,
				"element": "C" 
			},
			{
				"x": -1.407257158,
				"y": -1.7210185348,
				"z": 0.9745347713,
				"element": "C" 
			},
			{
				"x": -0.2746417774,
				"y": -1.1411556164,
				"z": 0.3941627018,
				"element": "C" 
			},
			{
				"x": -0.415221225,
				"y": -0.2389940507,
				"z": -0.6632394677,
				"element": "C" 
			},
			{
				"x": 0.6208037882,
				"y": 0.3953962797,
				"z": -1.3087953095,
				"element": "O" 
			},
			{
				"x": 1.9392295592,
				"y": 0.0996760749,
				"z": -0.866699553,
				"element": "C" 
			},
			{
				"x": 2.8952740443,
				"y": 0.8582432462,
				"z": -1.6683773543,
				"element": "C" 
			},
			{
				"x": 3.7144844303,
				"y": 1.468711101,
				"z": -2.3095144117,
				"element": "C" 
			},
			{
				"x": -1.699949951,
				"y": 0.0709633706,
				"z": -1.1285004111,
				"element": "C" 
			},
			{
				"x": -2.8199019056,
				"y": -0.5094086193,
				"z": -0.5492560279,
				"element": "C" 
			},
			{
				"x": -4.6807992805,
				"y": -1.5145654853,
				"z": 0.9689114874,
				"element": "H" 
			},
			{
				"x": -3.7056247184,
				"y": -2.3729158712,
				"z": 2.0093941676,
				"element": "H" 
			},
			{
				"x": -1.2799720927,
				"y": -2.4240764854,
				"z": 1.7941914233,
				"element": "H" 
			},
			{
				"x": 0.7014559228,
				"y": -1.4053771638,
				"z": 0.7841427099,
				"element": "H" 
			},
			{
				"x": 2.0566886914,
				"y": 0.3598905186,
				"z": 0.1969048346,
				"element": "H" 
			},
			{
				"x": 2.1451266271,
				"y": -0.977847215,
				"z": -0.9625185071,
				"element": "H" 
			},
			{
				"x": 4.4287249029,
				"y": 2.0128029529,
				"z": -2.8831225742,
				"element": "H" 
			},
			{
				"x": -1.7982892058,
				"y": 0.7741617566,
				"z": -1.9491730159,
				"element": "H" 
			},
			{
				"x": -3.8081333574,
				"y": -0.2607262956,
				"z": -0.9286076659,
				"element": "H" 
			}
		],
		 "valence_orbital": [ 
			{
				"type": "occ",
				"energy": -0.27971,
				"method": "rhf"
			},
			{
				"type": "occ",
				"energy": -0.27863,
				"method": "rhf"
			},
			{
				"type": "occ",
				"energy": -0.26662,
				"method": "rhf"
			},
			{
				"type": "occ",
				"energy": -0.24599,
				"method": "rhf"
			},
			{
				"type": "occ",
				"energy": -0.18616,
				"method": "rhf"
			},
			{
				"type": "unocc",
				"energy": 0.00149,
				"method": "rhf"
			},
			{
				"type": "unocc",
				"energy": 0.02943,
				"method": "rhf"
			},
			{
				"type": "unocc",
				"energy": 0.03141,
				"method": "rhf"
			},
			{
				"type": "unocc",
				"energy": 0.05514,
				"method": "rhf"
			},
			{
				"type": "unocc",
				"energy": 0.08378,
				"method": "rhf"
			}
		],
		"cosmo_sigma_profile": { 
			"-0.025": 0.0,
			"-0.024": 0.0,
			"-0.023": 0.0,
			"-0.022": 0.0,
			"-0.021": 0.0,
			"-0.02": 0.0,
			"-0.019": 0.0,
			"-0.018": 0.0,
			"-0.017": 0.0,
			"-0.016": 0.0,
			"-0.015": 0.0,
			"-0.014": 0.0,
			"-0.013": 0.0235664149517,
			"-0.012": 2.47080730249,
			"-0.011": 4.15769927453,
			"-0.01": 3.96849911569,
			"-0.009": 3.8250633361,
			"-0.008": 5.05096099023,
			"-0.007": 10.7858758814,
			"-0.006": 13.6922800921,
			"-0.005": 11.7616029088,
			"-0.004": 11.423517188,
			"-0.003": 10.2351458376,
			"-0.002": 8.73153336946,
			"-0.001": 8.57054018707,
			"0.0": 7.00237865745,
			"0.001": 9.0571158448,
			"0.002": 9.30608585664,
			"0.003": 10.6579923591,
			"0.004": 14.4630215744,
			"0.005": 13.7851131912,
			"0.006": 21.0626132541,
			"0.007": 9.03817689167,
			"0.008": 3.79066949921,
			"0.009": 2.5080821602,
			"0.01": 1.98907233943,
			"0.011": 1.16619932623,
			"0.012": 1.10743061325,
			"0.013": 0.716091135546,
			"0.014": 0.707174545245,
			"0.015": 0.4745241857,
			"0.016": 0.261840521512,
			"0.017": 0.0,
			"0.018": 0.0,
			"0.019": 0.0,
			"0.02": 0.0,
			"0.021": 0.0,
			"0.022": 0.0,
			"0.023": 0.0,
			"0.024": 0.0,
			"0.025": 0.0
		}
	}
}
