{
	 "smiles": "CC1=CC(C(=O)N2CCC(CC2)C(O)=O)=C(O)C=C1", 
	 "Tm": 458.15, 
	 "num_atms": 36, 
	 "gaussian": { 
		 "optdone": 1, 
		 "sigma_profile": "yes", 
		 "theory": "DFT", 
		 "functional": "B3LYP", 
		 "basiset": "6-31G**", 
		 "properties": { 
			 "R2extent": 6290.6917, 
			 "electric_dipole_moment_norm": 1.99304585748, 
			 "electric_quadrupole_moment_norm": 28.7231789273, 
			 "total_energy": -899.423537512, 
			 "HOMO_LUMO_gap": 0.17257, 
			 "cosmo_polarized_energy": -19.51, 
			 "cosmo_cavitation_energy": 37.43, 
			 "cosmo_dispersion_energy": -26.85, 
			 "cosmo_repulsion_energy": 2.05, 
			 "cosmo_total_nonelectrostatic_energy": 12.63, 
			 "SMD_solvation_energy": 6.76 
		},
		"coords": [
			{
				"x": 3.9266300157,
				"y": -1.8107532995,
				"z": 2.5799759945,
				"element": "C" 
			},
			{
				"x": 2.7559605694,
				"y": -0.8565462718,
				"z": 2.6246808853,
				"element": "C" 
			},
			{
				"x": 2.1115637021,
				"y": -0.4372479172,
				"z": 1.4652181385,
				"element": "C" 
			},
			{
				"x": 1.0272146797,
				"y": 0.4632164411,
				"z": 1.4869181981,
				"element": "C" 
			},
			{
				"x": 0.3278039182,
				"y": 0.9309928147,
				"z": 0.2614194828,
				"element": "C" 
			},
			{
				"x": -0.2040581814,
				"y": 2.0622746261,
				"z": 0.2455589683,
				"element": "O" 
			},
			{
				"x": 0.2974432545,
				"y": 0.1418159881,
				"z": -0.8649907049,
				"element": "N" 
			},
			{
				"x": 0.1864031125,
				"y": -1.3264138018,
				"z": -0.8514828811,
				"element": "C" 
			},
			{
				"x": -1.271797855,
				"y": -1.7729226261,
				"z": -1.066004767,
				"element": "C" 
			},
			{
				"x": -1.9303963109,
				"y": -1.1387544036,
				"z": -2.3041392702,
				"element": "C" 
			},
			{
				"x": -1.7105722042,
				"y": 0.3971217402,
				"z": -2.2998912763,
				"element": "C" 
			},
			{
				"x": -0.2306490849,
				"y": 0.7442337993,
				"z": -2.0944467474,
				"element": "C" 
			},
			{
				"x": -1.4147548562,
				"y": -1.7659141112,
				"z": -3.6025271449,
				"element": "C" 
			},
			{
				"x": -2.0998548442,
				"y": -1.4262771063,
				"z": -4.7280879789,
				"element": "O" 
			},
			{
				"x": -0.4647244782,
				"y": -2.5064655547,
				"z": -3.6853019926,
				"element": "O" 
			},
			{
				"x": 0.6360826524,
				"y": 1.0256300796,
				"z": 2.7286125201,
				"element": "C" 
			},
			{
				"x": -0.3075883443,
				"y": 1.9784979782,
				"z": 2.8309431204,
				"element": "O" 
			},
			{
				"x": 1.2528735754,
				"y": 0.574229182,
				"z": 3.907327446,
				"element": "C" 
			},
			{
				"x": 2.2843932811,
				"y": -0.3494235991,
				"z": 3.851058824,
				"element": "C" 
			},
			{
				"x": 4.1453596918,
				"y": -2.1253517267,
				"z": 1.5556161079,
				"element": "H" 
			},
			{
				"x": 4.8358618554,
				"y": -1.3522797201,
				"z": 2.9865847775,
				"element": "H" 
			},
			{
				"x": 3.7320649886,
				"y": -2.7140520578,
				"z": 3.1701730301,
				"element": "H" 
			},
			{
				"x": 2.4755025861,
				"y": -0.7916655097,
				"z": 0.5054202524,
				"element": "H" 
			},
			{
				"x": 0.8173261737,
				"y": -1.7362255373,
				"z": -1.6455857003,
				"element": "H" 
			},
			{
				"x": 0.5394970564,
				"y": -1.7113353085,
				"z": 0.1023047671,
				"element": "H" 
			},
			{
				"x": -1.8593745323,
				"y": -1.4929485767,
				"z": -0.1834672714,
				"element": "H" 
			},
			{
				"x": -1.2956386462,
				"y": -2.8638677168,
				"z": -1.1470874019,
				"element": "H" 
			},
			{
				"x": -3.0118835825,
				"y": -1.3349202737,
				"z": -2.2676126583,
				"element": "H" 
			},
			{
				"x": -2.06789365,
				"y": 0.8538495433,
				"z": -3.2309869852,
				"element": "H" 
			},
			{
				"x": -2.2889290888,
				"y": 0.8393533215,
				"z": -1.4821700573,
				"element": "H" 
			},
			{
				"x": 0.3699883748,
				"y": 0.3663634966,
				"z": -2.9315937174,
				"element": "H" 
			},
			{
				"x": -0.0998523576,
				"y": 1.8233561628,
				"z": -2.0284528808,
				"element": "H" 
			},
			{
				"x": -2.8490061259,
				"y": -0.854493025,
				"z": -4.5080022779,
				"element": "H" 
			},
			{
				"x": -0.4702695895,
				"y": 2.2947884837,
				"z": 1.9077720938,
				"element": "H" 
			},
			{
				"x": 0.9192407884,
				"y": 0.9940371203,
				"z": 4.8505714755,
				"element": "H" 
			},
			{
				"x": 2.7584334556,
				"y": -0.6692026341,
				"z": 4.7763756314,
				"element": "H" 
			}
		],
		 "valence_orbital": [ 
			{
				"type": "occ",
				"energy": -0.28006,
				"method": "rhf"
			},
			{
				"type": "occ",
				"energy": -0.27135,
				"method": "rhf"
			},
			{
				"type": "occ",
				"energy": -0.25313,
				"method": "rhf"
			},
			{
				"type": "occ",
				"energy": -0.24616,
				"method": "rhf"
			},
			{
				"type": "occ",
				"energy": -0.21351,
				"method": "rhf"
			},
			{
				"type": "unocc",
				"energy": -0.04094,
				"method": "rhf"
			},
			{
				"type": "unocc",
				"energy": -0.00392,
				"method": "rhf"
			},
			{
				"type": "unocc",
				"energy": 0.01021,
				"method": "rhf"
			},
			{
				"type": "unocc",
				"energy": 0.03788,
				"method": "rhf"
			},
			{
				"type": "unocc",
				"energy": 0.04574,
				"method": "rhf"
			}
		],
		"cosmo_sigma_profile": { 
			"-0.025": 0.0,
			"-0.024": 0.0,
			"-0.023": 0.0,
			"-0.022": 0.0,
			"-0.021": 0.0,
			"-0.02": 0.0,
			"-0.019": 0.348503666132,
			"-0.018": 0.89533808149,
			"-0.017": 1.11116629994,
			"-0.016": 1.09527700661,
			"-0.015": 1.02137324493,
			"-0.014": 1.42105468206,
			"-0.013": 1.07634463022,
			"-0.012": 0.626270049009,
			"-0.011": 1.38790819919,
			"-0.01": 1.09896080804,
			"-0.009": 1.7427259668,
			"-0.008": 1.47626458408,
			"-0.007": 2.80559086434,
			"-0.006": 8.46091245152,
			"-0.005": 17.5680322474,
			"-0.004": 36.2651532172,
			"-0.003": 30.790307415,
			"-0.002": 27.6749264912,
			"-0.001": 22.0666507928,
			"0.0": 19.9385806919,
			"0.001": 15.2122955473,
			"0.002": 13.4721646983,
			"0.003": 15.5710557405,
			"0.004": 13.8990450864,
			"0.005": 11.444949098,
			"0.006": 4.9798162713,
			"0.007": 4.81308158464,
			"0.008": 5.2499443308,
			"0.009": 6.34440288559,
			"0.01": 7.21775590857,
			"0.011": 8.2402996362,
			"0.012": 7.4648825844,
			"0.013": 1.71654692635,
			"0.014": 0.0691221898951,
			"0.015": 0.0,
			"0.016": 0.0,
			"0.017": 0.0,
			"0.018": 0.0,
			"0.019": 0.0,
			"0.02": 0.0,
			"0.021": 0.0,
			"0.022": 0.0,
			"0.023": 0.0,
			"0.024": 0.0,
			"0.025": 0.0
		}
	}
}
