{
	 "smiles": "CN1C=CN=C1Cl", 
	 "Tm": 263.15, 
	 "num_atms": 12, 
	 "gaussian": { 
		 "optdone": 1, 
		 "sigma_profile": "yes", 
		 "theory": "DFT", 
		 "functional": "B3LYP", 
		 "basiset": "6-31G**", 
		 "properties": { 
			 "R2extent": 1903.6628, 
			 "electric_dipole_moment_norm": 4.26966855974, 
			 "electric_quadrupole_moment_norm": 10.976851022, 
			 "total_energy": -725.118395521, 
			 "HOMO_LUMO_gap": 0.24597, 
			 "cosmo_polarized_energy": -9.34, 
			 "cosmo_cavitation_energy": 17.65, 
			 "cosmo_dispersion_energy": -13.37, 
			 "cosmo_repulsion_energy": 1.12, 
			 "cosmo_total_nonelectrostatic_energy": 5.4, 
			 "SMD_solvation_energy": 1.81 
		},
		"coords": [
			{
				"x": 1.5069336448,
				"y": 0.3595480939,
				"z": -1.6696227383,
				"element": "C" 
			},
			{
				"x": 0.482369423,
				"y": -0.6299459727,
				"z": -1.9653864649,
				"element": "N" 
			},
			{
				"x": 0.6340536173,
				"y": -2.0067800816,
				"z": -2.002547902,
				"element": "C" 
			},
			{
				"x": -0.5995005394,
				"y": -2.5120026669,
				"z": -2.3220434733,
				"element": "C" 
			},
			{
				"x": -1.5166317648,
				"y": -1.4960445237,
				"z": -2.48596076,
				"element": "N" 
			},
			{
				"x": -0.8328933677,
				"y": -0.4044295655,
				"z": -2.2656143401,
				"element": "C" 
			},
			{
				"x": -1.4667103484,
				"y": 1.2057172399,
				"z": -2.3305885453,
				"element": "Cl" 
			},
			{
				"x": 1.6452423162,
				"y": 1.0377373237,
				"z": -2.5158657827,
				"element": "H" 
			},
			{
				"x": 1.2348366588,
				"y": 0.9462416507,
				"z": -0.7881792441,
				"element": "H" 
			},
			{
				"x": 2.4451617164,
				"y": -0.1609511867,
				"z": -1.4742978504,
				"element": "H" 
			},
			{
				"x": 1.5864890031,
				"y": -2.4728100463,
				"z": -1.8012913064,
				"element": "H" 
			},
			{
				"x": -0.8853503592,
				"y": -3.5470802648,
				"z": -2.4448015925,
				"element": "H" 
			}
		],
		 "valence_orbital": [ 
			{
				"type": "occ",
				"energy": -0.34354,
				"method": "rhf"
			},
			{
				"type": "occ",
				"energy": -0.32841,
				"method": "rhf"
			},
			{
				"type": "occ",
				"energy": -0.27825,
				"method": "rhf"
			},
			{
				"type": "occ",
				"energy": -0.27763,
				"method": "rhf"
			},
			{
				"type": "occ",
				"energy": -0.22603,
				"method": "rhf"
			},
			{
				"type": "unocc",
				"energy": 0.01994,
				"method": "rhf"
			},
			{
				"type": "unocc",
				"energy": 0.03603,
				"method": "rhf"
			},
			{
				"type": "unocc",
				"energy": 0.06275,
				"method": "rhf"
			},
			{
				"type": "unocc",
				"energy": 0.08716,
				"method": "rhf"
			},
			{
				"type": "unocc",
				"energy": 0.1129,
				"method": "rhf"
			}
		],
		"cosmo_sigma_profile": { 
			"-0.025": 0.0,
			"-0.024": 0.0,
			"-0.023": 0.0,
			"-0.022": 0.0,
			"-0.021": 0.0,
			"-0.02": 0.0,
			"-0.019": 0.0,
			"-0.018": 0.0,
			"-0.017": 0.0,
			"-0.016": 0.0,
			"-0.015": 0.0,
			"-0.014": 0.0,
			"-0.013": 0.0,
			"-0.012": 0.0,
			"-0.011": 0.0,
			"-0.01": 0.213028726396,
			"-0.009": 2.66213922324,
			"-0.008": 3.71262390283,
			"-0.007": 5.46801671009,
			"-0.006": 9.97626380046,
			"-0.005": 9.07861010868,
			"-0.004": 13.474359912,
			"-0.003": 12.5156297859,
			"-0.002": 7.20869979909,
			"-0.001": 7.3546927821,
			"0.0": 8.4323152171,
			"0.001": 8.70279250579,
			"0.002": 9.64280914612,
			"0.003": 11.3009185103,
			"0.004": 10.0542797889,
			"0.005": 6.76686519948,
			"0.006": 2.83075983846,
			"0.007": 2.01453611675,
			"0.008": 2.12687972324,
			"0.009": 1.28561621985,
			"0.01": 1.24920639158,
			"0.011": 1.30061948199,
			"0.012": 1.35092505007,
			"0.013": 0.950818616935,
			"0.014": 1.19879881324,
			"0.015": 1.14134153767,
			"0.016": 1.13804375586,
			"0.017": 0.462049452921,
			"0.018": 0.0,
			"0.019": 0.0,
			"0.02": 0.0,
			"0.021": 0.0,
			"0.022": 0.0,
			"0.023": 0.0,
			"0.024": 0.0,
			"0.025": 0.0
		}
	}
}
