{
	 "smiles": "O=C1C2=CC=CC(=C2C(=O)C2=C1C(=CC=C2)N(=O)=O)N(=O)=O", 
	 "Tm": 658.15, 
	 "num_atms": 28, 
	 "gaussian": { 
		 "optdone": 1, 
		 "sigma_profile": "yes", 
		 "theory": "DFT", 
		 "functional": "B3LYP", 
		 "basiset": "6-31G**", 
		 "properties": { 
			 "R2extent": 6637.1324, 
			 "electric_dipole_moment_norm": 0.118345299864, 
			 "electric_quadrupole_moment_norm": 49.4597919938, 
			 "total_energy": -1097.72935706, 
			 "HOMO_LUMO_gap": 0.14959, 
			 "cosmo_polarized_energy": -19.59, 
			 "cosmo_cavitation_energy": 35.27, 
			 "cosmo_dispersion_energy": -24.88, 
			 "cosmo_repulsion_energy": 1.83, 
			 "cosmo_total_nonelectrostatic_energy": 12.22, 
			 "SMD_solvation_energy": 11.43 
		},
		"coords": [
			{
				"x": -1.6847676373,
				"y": 1.206658705,
				"z": -2.3029299052,
				"element": "O" 
			},
			{
				"x": -1.2628556256,
				"y": 0.6719257345,
				"z": -1.2894525382,
				"element": "C" 
			},
			{
				"x": -2.1905911542,
				"y": 0.2755542786,
				"z": -0.1851477801,
				"element": "C" 
			},
			{
				"x": -3.5120139433,
				"y": 0.734280983,
				"z": -0.2401009272,
				"element": "C" 
			},
			{
				"x": -4.4117322311,
				"y": 0.3913245162,
				"z": 0.763525495,
				"element": "C" 
			},
			{
				"x": -3.9946235255,
				"y": -0.4019384857,
				"z": 1.8348383809,
				"element": "C" 
			},
			{
				"x": -2.6766503203,
				"y": -0.8402690789,
				"z": 1.8885894708,
				"element": "C" 
			},
			{
				"x": -1.7537864546,
				"y": -0.5403093692,
				"z": 0.8761903958,
				"element": "C" 
			},
			{
				"x": -0.3945640672,
				"y": -1.1572800018,
				"z": 0.826015966,
				"element": "C" 
			},
			{
				"x": -0.0962752499,
				"y": -2.1105666751,
				"z": 1.5284161102,
				"element": "O" 
			},
			{
				"x": 0.5873716284,
				"y": -0.5774315185,
				"z": -0.1418977516,
				"element": "C" 
			},
			{
				"x": 0.1874660165,
				"y": 0.3632464784,
				"z": -1.1104432766,
				"element": "C" 
			},
			{
				"x": 1.1752858183,
				"y": 0.8829301532,
				"z": -1.9594066511,
				"element": "C" 
			},
			{
				"x": 2.4964735693,
				"y": 0.4554735206,
				"z": -1.8975188283,
				"element": "C" 
			},
			{
				"x": 2.8679411153,
				"y": -0.4921870506,
				"z": -0.9410094342,
				"element": "C" 
			},
			{
				"x": 1.9186716535,
				"y": -1.0027367696,
				"z": -0.0620471547,
				"element": "C" 
			},
			{
				"x": 0.8912818984,
				"y": 1.9678751167,
				"z": -2.9242739687,
				"element": "N" 
			},
			{
				"x": 0.4682034611,
				"y": 3.0202203922,
				"z": -2.4637906459,
				"element": "O" 
			},
			{
				"x": 1.1838629885,
				"y": 1.7500514163,
				"z": -4.0956381352,
				"element": "O" 
			},
			{
				"x": -2.2905126312,
				"y": -1.5797208241,
				"z": 3.110412628,
				"element": "N" 
			},
			{
				"x": -1.4108008936,
				"y": -1.0833449421,
				"z": 3.8019210793,
				"element": "O" 
			},
			{
				"x": -2.9434788843,
				"y": -2.5848631153,
				"z": 3.3720367537,
				"element": "O" 
			},
			{
				"x": -3.8062787755,
				"y": 1.3510481164,
				"z": -1.0819846479,
				"element": "H" 
			},
			{
				"x": -5.4379771631,
				"y": 0.7414896249,
				"z": 0.7220347221,
				"element": "H" 
			},
			{
				"x": -4.6769206587,
				"y": -0.676994761,
				"z": 2.6313593959,
				"element": "H" 
			},
			{
				"x": 3.2204416955,
				"y": 0.8715646566,
				"z": -2.5891570538,
				"element": "H" 
			},
			{
				"x": 3.8999737673,
				"y": -0.8227588452,
				"z": -0.8849228421,
				"element": "H" 
			},
			{
				"x": 2.1782556033,
				"y": -1.7367422557,
				"z": 0.6926811429,
				"element": "H" 
			}
		],
		 "valence_orbital": [ 
			{
				"type": "occ",
				"energy": -0.30252,
				"method": "rhf"
			},
			{
				"type": "occ",
				"energy": -0.29271,
				"method": "rhf"
			},
			{
				"type": "occ",
				"energy": -0.29075,
				"method": "rhf"
			},
			{
				"type": "occ",
				"energy": -0.28607,
				"method": "rhf"
			},
			{
				"type": "occ",
				"energy": -0.2818,
				"method": "rhf"
			},
			{
				"type": "unocc",
				"energy": -0.13221,
				"method": "rhf"
			},
			{
				"type": "unocc",
				"energy": -0.10142,
				"method": "rhf"
			},
			{
				"type": "unocc",
				"energy": -0.08452,
				"method": "rhf"
			},
			{
				"type": "unocc",
				"energy": -0.06798,
				"method": "rhf"
			},
			{
				"type": "unocc",
				"energy": -0.05537,
				"method": "rhf"
			}
		],
		"cosmo_sigma_profile": { 
			"-0.025": 0.0,
			"-0.024": 0.0,
			"-0.023": 0.0,
			"-0.022": 0.0,
			"-0.021": 0.0,
			"-0.02": 0.0,
			"-0.019": 0.0,
			"-0.018": 0.0,
			"-0.017": 0.0,
			"-0.016": 0.0,
			"-0.015": 0.0,
			"-0.014": 0.0,
			"-0.013": 0.0,
			"-0.012": 0.0,
			"-0.011": 0.0855195271124,
			"-0.01": 3.43681200893,
			"-0.009": 9.85233123043,
			"-0.008": 16.1387473934,
			"-0.007": 13.5724198615,
			"-0.006": 13.3663652327,
			"-0.005": 12.220437582,
			"-0.004": 13.6714707044,
			"-0.003": 20.7277857168,
			"-0.002": 24.7172744525,
			"-0.001": 24.911401813,
			"0.0": 17.7716302684,
			"0.001": 6.82879637599,
			"0.002": 7.40616520595,
			"0.003": 8.69162051059,
			"0.004": 9.34217356116,
			"0.005": 9.78489623987,
			"0.006": 15.8293230806,
			"0.007": 27.4098660416,
			"0.008": 17.0656696768,
			"0.009": 10.0467467388,
			"0.01": 3.15038049245,
			"0.011": 0.0,
			"0.012": 0.0,
			"0.013": 0.0,
			"0.014": 0.0,
			"0.015": 0.0,
			"0.016": 0.0,
			"0.017": 0.0,
			"0.018": 0.0,
			"0.019": 0.0,
			"0.02": 0.0,
			"0.021": 0.0,
			"0.022": 0.0,
			"0.023": 0.0,
			"0.024": 0.0,
			"0.025": 0.0
		}
	}
}
