{
	 "smiles": "FC(F)(F)C1=CC(NC(=O)NC2=CC=C(Cl)C=C2)=CC=C1Cl", 
	 "Tm": 487.15, 
	 "num_atms": 31, 
	 "gaussian": { 
		 "optdone": 1, 
		 "sigma_profile": "yes", 
		 "theory": "DFT", 
		 "functional": "B3LYP", 
		 "basiset": "6-31G**", 
		 "properties": { 
			 "R2extent": 13130.8226, 
			 "electric_dipole_moment_norm": 5.83555384004, 
			 "electric_quadrupole_moment_norm": 16.6935979717, 
			 "total_energy": -1943.57800277, 
			 "HOMO_LUMO_gap": 0.18839, 
			 "cosmo_polarized_energy": -16.6, 
			 "cosmo_cavitation_energy": 41.33, 
			 "cosmo_dispersion_energy": -29.33, 
			 "cosmo_repulsion_energy": 2.16, 
			 "cosmo_total_nonelectrostatic_energy": 14.16, 
			 "SMD_solvation_energy": 8.13 
		},
		"coords": [
			{
				"x": -3.5804208181,
				"y": 0.1790507407,
				"z": 3.6119476299,
				"element": "F" 
			},
			{
				"x": -2.3010735287,
				"y": 0.5860515403,
				"z": 3.4745059699,
				"element": "C" 
			},
			{
				"x": -1.5154658734,
				"y": -0.4330902549,
				"z": 3.8806879207,
				"element": "F" 
			},
			{
				"x": -2.1063845899,
				"y": 1.6049762846,
				"z": 4.3373047234,
				"element": "F" 
			},
			{
				"x": -1.9940835516,
				"y": 0.9928663866,
				"z": 2.0489353691,
				"element": "C" 
			},
			{
				"x": -0.9892999346,
				"y": 0.3049306299,
				"z": 1.3648908186,
				"element": "C" 
			},
			{
				"x": -0.6682855368,
				"y": 0.6438126056,
				"z": 0.0430985889,
				"element": "C" 
			},
			{
				"x": 0.3183771982,
				"y": -0.0160667367,
				"z": -0.710229615,
				"element": "N" 
			},
			{
				"x": 1.1881225609,
				"y": -1.000962861,
				"z": -0.2795160709,
				"element": "C" 
			},
			{
				"x": 1.2446141589,
				"y": -1.43208302,
				"z": 0.8634201069,
				"element": "O" 
			},
			{
				"x": 2.0567085483,
				"y": -1.4872548589,
				"z": -1.2548079392,
				"element": "N" 
			},
			{
				"x": 2.1363529569,
				"y": -1.2158920031,
				"z": -2.6380565045,
				"element": "C" 
			},
			{
				"x": 0.9967870777,
				"y": -1.213881401,
				"z": -3.4590157905,
				"element": "C" 
			},
			{
				"x": 1.1088066531,
				"y": -0.957628242,
				"z": -4.82534778,
				"element": "C" 
			},
			{
				"x": 2.3664872198,
				"y": -0.7372052793,
				"z": -5.3843283838,
				"element": "C" 
			},
			{
				"x": 2.5106078216,
				"y": -0.4287142997,
				"z": -7.1055041827,
				"element": "Cl" 
			},
			{
				"x": 3.5133803081,
				"y": -0.7670800055,
				"z": -4.5897144609,
				"element": "C" 
			},
			{
				"x": 3.3933524847,
				"y": -0.9940579364,
				"z": -3.2215189016,
				"element": "C" 
			},
			{
				"x": -1.3701736118,
				"y": 1.6853464495,
				"z": -0.5806300848,
				"element": "C" 
			},
			{
				"x": -2.369325815,
				"y": 2.3720864444,
				"z": 0.09808469,
				"element": "C" 
			},
			{
				"x": -2.687824609,
				"y": 2.0317905152,
				"z": 1.4117012618,
				"element": "C" 
			},
			{
				"x": -3.9585209715,
				"y": 2.9380644192,
				"z": 2.2109575894,
				"element": "Cl" 
			},
			{
				"x": -0.447574965,
				"y": -0.4888853719,
				"z": 1.8559935849,
				"element": "H" 
			},
			{
				"x": 0.4601502598,
				"y": 0.3398425908,
				"z": -1.6449957182,
				"element": "H" 
			},
			{
				"x": 2.7874779754,
				"y": -2.0496202817,
				"z": -0.8410596583,
				"element": "H" 
			},
			{
				"x": 0.0247709152,
				"y": -1.4453087175,
				"z": -3.0359812046,
				"element": "H" 
			},
			{
				"x": 0.2262331222,
				"y": -0.9567364839,
				"z": -5.4553644716,
				"element": "H" 
			},
			{
				"x": 4.4876329184,
				"y": -0.5986953914,
				"z": -5.0349098277,
				"element": "H" 
			},
			{
				"x": 4.280461653,
				"y": -0.9930968403,
				"z": -2.5949146369,
				"element": "H" 
			},
			{
				"x": -1.1346710786,
				"y": 1.9647931831,
				"z": -1.604643915,
				"element": "H" 
			},
			{
				"x": -2.9070189484,
				"y": 3.1769481952,
				"z": -0.3899891076,
				"element": "H" 
			}
		],
		 "valence_orbital": [ 
			{
				"type": "occ",
				"energy": -0.28881,
				"method": "rhf"
			},
			{
				"type": "occ",
				"energy": -0.28266,
				"method": "rhf"
			},
			{
				"type": "occ",
				"energy": -0.27842,
				"method": "rhf"
			},
			{
				"type": "occ",
				"energy": -0.2476,
				"method": "rhf"
			},
			{
				"type": "occ",
				"energy": -0.23025,
				"method": "rhf"
			},
			{
				"type": "unocc",
				"energy": -0.04186,
				"method": "rhf"
			},
			{
				"type": "unocc",
				"energy": -0.04069,
				"method": "rhf"
			},
			{
				"type": "unocc",
				"energy": -0.03454,
				"method": "rhf"
			},
			{
				"type": "unocc",
				"energy": -0.02112,
				"method": "rhf"
			},
			{
				"type": "unocc",
				"energy": 0.01355,
				"method": "rhf"
			}
		],
		"cosmo_sigma_profile": { 
			"-0.025": 0.0,
			"-0.024": 0.0,
			"-0.023": 0.0,
			"-0.022": 0.0,
			"-0.021": 0.0,
			"-0.02": 0.0,
			"-0.019": 0.0,
			"-0.018": 0.0,
			"-0.017": 0.0,
			"-0.016": 0.0,
			"-0.015": 0.513164647019,
			"-0.014": 1.97029675582,
			"-0.013": 2.16179164161,
			"-0.012": 1.88442658262,
			"-0.011": 2.72345149056,
			"-0.01": 2.75679689098,
			"-0.009": 3.19931601584,
			"-0.008": 7.09180627501,
			"-0.007": 14.6779492284,
			"-0.006": 12.230447352,
			"-0.005": 11.8486912498,
			"-0.004": 9.92261335565,
			"-0.003": 12.1306749987,
			"-0.002": 15.3938268513,
			"-0.001": 21.2331804878,
			"0.0": 30.0422228885,
			"0.001": 40.0446158962,
			"0.002": 50.9578084269,
			"0.003": 45.1939960964,
			"0.004": 26.0673187029,
			"0.005": 10.1543692524,
			"0.006": 1.61128169593,
			"0.007": 0.951782830763,
			"0.008": 1.48319421056,
			"0.009": 1.46877329205,
			"0.01": 1.35762285571,
			"0.011": 1.85426655065,
			"0.012": 3.04337606907,
			"0.013": 2.78177594054,
			"0.014": 0.410779573252,
			"0.015": 0.0,
			"0.016": 0.0,
			"0.017": 0.0,
			"0.018": 0.0,
			"0.019": 0.0,
			"0.02": 0.0,
			"0.021": 0.0,
			"0.022": 0.0,
			"0.023": 0.0,
			"0.024": 0.0,
			"0.025": 0.0
		}
	}
}
