{
	 "smiles": "CC(C)(C)C1CCCCC1", 
	 "Tm": 232.05, 
	 "num_atms": 30, 
	 "gaussian": { 
		 "optdone": 1, 
		 "sigma_profile": "yes", 
		 "theory": "DFT", 
		 "functional": "B3LYP", 
		 "basiset": "6-31G**", 
		 "properties": { 
			 "R2extent": 1958.2071, 
			 "electric_dipole_moment_norm": 0.0417020383195, 
			 "electric_quadrupole_moment_norm": 0.55434280008, 
			 "total_energy": -393.141811962, 
			 "HOMO_LUMO_gap": 0.35118, 
			 "cosmo_polarized_energy": -0.76, 
			 "cosmo_cavitation_energy": 27.01, 
			 "cosmo_dispersion_energy": -19.96, 
			 "cosmo_repulsion_energy": 1.58, 
			 "cosmo_total_nonelectrostatic_energy": 8.63, 
			 "SMD_solvation_energy": 3.93 
		},
		"coords": [
			{
				"x": -0.6579235402,
				"y": -0.7996963047,
				"z": -1.8011526949,
				"element": "C" 
			},
			{
				"x": 0.1108890943,
				"y": -1.1593692812,
				"z": -0.5081042941,
				"element": "C" 
			},
			{
				"x": -0.5321463901,
				"y": -2.4292455774,
				"z": 0.0869327919,
				"element": "C" 
			},
			{
				"x": 1.5606634314,
				"y": -1.498169149,
				"z": -0.9187649446,
				"element": "C" 
			},
			{
				"x": 0.102238976,
				"y": 0.0994801187,
				"z": 0.4409771697,
				"element": "C" 
			},
			{
				"x": 1.1411521661,
				"y": 0.1274288734,
				"z": 1.5957058435,
				"element": "C" 
			},
			{
				"x": 0.7192864015,
				"y": -0.5891712134,
				"z": 2.8888472091,
				"element": "C" 
			},
			{
				"x": -0.6253380513,
				"y": -0.0552374895,
				"z": 3.3991317651,
				"element": "C" 
			},
			{
				"x": -1.7066558355,
				"y": -0.1736685808,
				"z": 2.3170726068,
				"element": "C" 
			},
			{
				"x": -1.2860851076,
				"y": 0.5138002465,
				"z": 1.0037760989,
				"element": "C" 
			},
			{
				"x": -1.7079593332,
				"y": -0.5603709889,
				"z": -1.6071810326,
				"element": "H" 
			},
			{
				"x": -0.6411848706,
				"y": -1.6409554169,
				"z": -2.5030993972,
				"element": "H" 
			},
			{
				"x": -0.2057794185,
				"y": 0.0623867368,
				"z": -2.3049735474,
				"element": "H" 
			},
			{
				"x": -1.5958380339,
				"y": -2.2876295727,
				"z": 0.2991850967,
				"element": "H" 
			},
			{
				"x": -0.0411807328,
				"y": -2.7506163162,
				"z": 1.0097452225,
				"element": "H" 
			},
			{
				"x": -0.4529045055,
				"y": -3.255956204,
				"z": -0.6290581107,
				"element": "H" 
			},
			{
				"x": 1.5619944083,
				"y": -2.244075562,
				"z": -1.7214527899,
				"element": "H" 
			},
			{
				"x": 2.0907703464,
				"y": -0.6127396465,
				"z": -1.2890440157,
				"element": "H" 
			},
			{
				"x": 2.1397970745,
				"y": -1.9148726622,
				"z": -0.0891790854,
				"element": "H" 
			},
			{
				"x": 0.4066947555,
				"y": 0.914218378,
				"z": -0.2320346655,
				"element": "H" 
			},
			{
				"x": 1.3035363763,
				"y": 1.1851626113,
				"z": 1.849111271,
				"element": "H" 
			},
			{
				"x": 2.1120428631,
				"y": -0.2439340019,
				"z": 1.2554458487,
				"element": "H" 
			},
			{
				"x": 0.6447745367,
				"y": -1.6715174706,
				"z": 2.725347681,
				"element": "H" 
			},
			{
				"x": 1.4966341597,
				"y": -0.44848566,
				"z": 3.6503669759,
				"element": "H" 
			},
			{
				"x": -0.5070324182,
				"y": 1.0013045146,
				"z": 3.6811145465,
				"element": "H" 
			},
			{
				"x": -0.9337258652,
				"y": -0.5876991703,
				"z": 4.307096344,
				"element": "H" 
			},
			{
				"x": -1.9224480292,
				"y": -1.2339702892,
				"z": 2.1445242344,
				"element": "H" 
			},
			{
				"x": -2.6440096895,
				"y": 0.2749426325,
				"z": 2.6694626293,
				"element": "H" 
			},
			{
				"x": -1.2482103762,
				"y": 1.5954253492,
				"z": 1.1959583052,
				"element": "H" 
			},
			{
				"x": -2.0676523923,
				"y": 0.3768310965,
				"z": 0.2488429378,
				"element": "H" 
			}
		],
		 "valence_orbital": [ 
			{
				"type": "occ",
				"energy": -0.3177,
				"method": "rhf"
			},
			{
				"type": "occ",
				"energy": -0.31638,
				"method": "rhf"
			},
			{
				"type": "occ",
				"energy": -0.28733,
				"method": "rhf"
			},
			{
				"type": "occ",
				"energy": -0.28589,
				"method": "rhf"
			},
			{
				"type": "occ",
				"energy": -0.28127,
				"method": "rhf"
			},
			{
				"type": "unocc",
				"energy": 0.06991,
				"method": "rhf"
			},
			{
				"type": "unocc",
				"energy": 0.10065,
				"method": "rhf"
			},
			{
				"type": "unocc",
				"energy": 0.11399,
				"method": "rhf"
			},
			{
				"type": "unocc",
				"energy": 0.11851,
				"method": "rhf"
			},
			{
				"type": "unocc",
				"energy": 0.13011,
				"method": "rhf"
			}
		],
		"cosmo_sigma_profile": { 
			"-0.025": 0.0,
			"-0.024": 0.0,
			"-0.023": 0.0,
			"-0.022": 0.0,
			"-0.021": 0.0,
			"-0.02": 0.0,
			"-0.019": 0.0,
			"-0.018": 0.0,
			"-0.017": 0.0,
			"-0.016": 0.0,
			"-0.015": 0.0,
			"-0.014": 0.0,
			"-0.013": 0.0,
			"-0.012": 0.0,
			"-0.011": 0.0,
			"-0.01": 0.0,
			"-0.009": 0.0,
			"-0.008": 0.0,
			"-0.007": 0.0,
			"-0.006": 0.0,
			"-0.005": 0.0,
			"-0.004": 0.0856698803732,
			"-0.003": 3.96122068008,
			"-0.002": 27.6224679015,
			"-0.001": 48.2733029771,
			"0.0": 48.0540978527,
			"0.001": 42.7737405549,
			"0.002": 32.725745195,
			"0.003": 2.45191474829,
			"0.004": 0.0,
			"0.005": 0.0,
			"0.006": 0.0,
			"0.007": 0.0,
			"0.008": 0.0,
			"0.009": 0.0,
			"0.01": 0.0,
			"0.011": 0.0,
			"0.012": 0.0,
			"0.013": 0.0,
			"0.014": 0.0,
			"0.015": 0.0,
			"0.016": 0.0,
			"0.017": 0.0,
			"0.018": 0.0,
			"0.019": 0.0,
			"0.02": 0.0,
			"0.021": 0.0,
			"0.022": 0.0,
			"0.023": 0.0,
			"0.024": 0.0,
			"0.025": 0.0
		}
	}
}
