{
	 "smiles": "COC(=O)C1=NSC=C1N", 
	 "Tm": 328.15, 
	 "num_atms": 16, 
	 "gaussian": { 
		 "optdone": 1, 
		 "sigma_profile": "yes", 
		 "theory": "DFT", 
		 "functional": "B3LYP", 
		 "basiset": "6-31G**", 
		 "properties": { 
			 "R2extent": 3160.602, 
			 "electric_dipole_moment_norm": 4.98871162125, 
			 "electric_quadrupole_moment_norm": 12.4614753087, 
			 "total_energy": -852.266072403, 
			 "HOMO_LUMO_gap": 0.16221, 
			 "cosmo_polarized_energy": -14.85, 
			 "cosmo_cavitation_energy": 22.21, 
			 "cosmo_dispersion_energy": -17.26, 
			 "cosmo_repulsion_energy": 1.36, 
			 "cosmo_total_nonelectrostatic_energy": 6.31, 
			 "SMD_solvation_energy": 4.24 
		},
		"coords": [
			{
				"x": 0.8098420313,
				"y": -0.886612851,
				"z": 1.6139619454,
				"element": "C" 
			},
			{
				"x": 1.4101156702,
				"y": -0.0655786705,
				"z": 0.5967185704,
				"element": "O" 
			},
			{
				"x": 0.5242769388,
				"y": 0.6256142601,
				"z": -0.1787178767,
				"element": "C" 
			},
			{
				"x": -0.6725328302,
				"y": 0.5451603178,
				"z": -0.0336092459,
				"element": "O" 
			},
			{
				"x": 1.2197947603,
				"y": 1.4560835814,
				"z": -1.2044440496,
				"element": "C" 
			},
			{
				"x": 0.4392421089,
				"y": 2.0455876548,
				"z": -2.1006757533,
				"element": "N" 
			},
			{
				"x": 1.3680040936,
				"y": 2.9028681025,
				"z": -3.1646717307,
				"element": "S" 
			},
			{
				"x": 2.8701078082,
				"y": 2.4944925067,
				"z": -2.4317617535,
				"element": "C" 
			},
			{
				"x": 2.6456390398,
				"y": 1.6824293627,
				"z": -1.3384338283,
				"element": "C" 
			},
			{
				"x": 3.6183659506,
				"y": 1.2199588517,
				"z": -0.4669058357,
				"element": "N" 
			},
			{
				"x": 1.6398338996,
				"y": -1.3526079554,
				"z": 2.1449497463,
				"element": "H" 
			},
			{
				"x": 0.1663103008,
				"y": -1.6452153413,
				"z": 1.1624601641,
				"element": "H" 
			},
			{
				"x": 0.2118573629,
				"y": -0.2756433128,
				"z": 2.2938701517,
				"element": "H" 
			},
			{
				"x": 3.8187495106,
				"y": 2.861425291,
				"z": -2.7997739311,
				"element": "H" 
			},
			{
				"x": 4.5482047957,
				"y": 1.1514833518,
				"z": -0.8537078313,
				"element": "H" 
			},
			{
				"x": 3.338788559,
				"y": 0.4224548506,
				"z": 0.0859412581,
				"element": "H" 
			}
		],
		 "valence_orbital": [ 
			{
				"type": "occ",
				"energy": -0.30841,
				"method": "rhf"
			},
			{
				"type": "occ",
				"energy": -0.2965,
				"method": "rhf"
			},
			{
				"type": "occ",
				"energy": -0.27819,
				"method": "rhf"
			},
			{
				"type": "occ",
				"energy": -0.27025,
				"method": "rhf"
			},
			{
				"type": "occ",
				"energy": -0.21608,
				"method": "rhf"
			},
			{
				"type": "unocc",
				"energy": -0.05387,
				"method": "rhf"
			},
			{
				"type": "unocc",
				"energy": 0.01321,
				"method": "rhf"
			},
			{
				"type": "unocc",
				"energy": 0.01665,
				"method": "rhf"
			},
			{
				"type": "unocc",
				"energy": 0.07054,
				"method": "rhf"
			},
			{
				"type": "unocc",
				"energy": 0.09931,
				"method": "rhf"
			}
		],
		"cosmo_sigma_profile": { 
			"-0.025": 0.0,
			"-0.024": 0.0,
			"-0.023": 0.0,
			"-0.022": 0.0,
			"-0.021": 0.0,
			"-0.02": 0.0,
			"-0.019": 0.0,
			"-0.018": 0.0,
			"-0.017": 0.0,
			"-0.016": 0.0,
			"-0.015": 0.0,
			"-0.014": 0.149819745741,
			"-0.013": 1.07773689139,
			"-0.012": 1.57033480926,
			"-0.011": 1.79457156542,
			"-0.01": 2.1209308064,
			"-0.009": 5.69501465692,
			"-0.008": 3.64466948481,
			"-0.007": 4.83948356462,
			"-0.006": 9.70784238547,
			"-0.005": 10.7916597061,
			"-0.004": 13.367070691,
			"-0.003": 13.0295709089,
			"-0.002": 11.2885100556,
			"-0.001": 11.8573861251,
			"0.0": 14.0795396883,
			"0.001": 14.6461692706,
			"0.002": 14.1171587249,
			"0.003": 6.27637814035,
			"0.004": 3.8169390047,
			"0.005": 3.79596319623,
			"0.006": 2.87361680034,
			"0.007": 3.5262878532,
			"0.008": 3.05209926831,
			"0.009": 2.54540320128,
			"0.01": 3.45161339405,
			"0.011": 5.40229997915,
			"0.012": 4.82516316304,
			"0.013": 2.81119651144,
			"0.014": 1.27216490083,
			"0.015": 2.05458196459,
			"0.016": 0.44736598304,
			"0.017": 0.0,
			"0.018": 0.0,
			"0.019": 0.0,
			"0.02": 0.0,
			"0.021": 0.0,
			"0.022": 0.0,
			"0.023": 0.0,
			"0.024": 0.0,
			"0.025": 0.0
		}
	}
}
