{
	 "smiles": "CC1(C)CCC(N)(CC1)C(N)=O", 
	 "Tm": 423.15, 
	 "num_atms": 30, 
	 "gaussian": { 
		 "optdone": 1, 
		 "sigma_profile": "yes", 
		 "theory": "DFT", 
		 "functional": "B3LYP", 
		 "basiset": "6-31G**", 
		 "properties": { 
			 "R2extent": 2504.9501, 
			 "electric_dipole_moment_norm": 3.11079927189, 
			 "electric_quadrupole_moment_norm": 10.8384196016, 
			 "total_energy": -538.569163711, 
			 "HOMO_LUMO_gap": 0.26675, 
			 "cosmo_polarized_energy": -12.24, 
			 "cosmo_cavitation_energy": 29.12, 
			 "cosmo_dispersion_energy": -20.92, 
			 "cosmo_repulsion_energy": 1.66, 
			 "cosmo_total_nonelectrostatic_energy": 9.85, 
			 "SMD_solvation_energy": 4.79 
		},
		"coords": [
			{
				"x": 1.1439755666,
				"y": 2.3377960646,
				"z": 0.1898009857,
				"element": "C" 
			},
			{
				"x": 0.4939941797,
				"y": 1.2439611784,
				"z": -0.6773676147,
				"element": "C" 
			},
			{
				"x": 1.1331352055,
				"y": 1.267313453,
				"z": -2.07798767,
				"element": "C" 
			},
			{
				"x": -1.0365450705,
				"y": 1.5159588224,
				"z": -0.7836083047,
				"element": "C" 
			},
			{
				"x": -1.8372507741,
				"y": 0.2283508891,
				"z": -1.0042010912,
				"element": "C" 
			},
			{
				"x": -1.7616481122,
				"y": -0.7162787695,
				"z": 0.2268769548,
				"element": "C" 
			},
			{
				"x": -2.8265038628,
				"y": -0.4960719676,
				"z": 1.2267771252,
				"element": "N" 
			},
			{
				"x": -0.3911884116,
				"y": -0.5314728825,
				"z": 0.9494645465,
				"element": "C" 
			},
			{
				"x": 0.7202454916,
				"y": -0.1582470287,
				"z": -0.0362726499,
				"element": "C" 
			},
			{
				"x": -1.8246651931,
				"y": -2.1897696801,
				"z": -0.255643605,
				"element": "C" 
			},
			{
				"x": -2.4849160432,
				"y": -3.02830625,
				"z": 0.5844165087,
				"element": "N" 
			},
			{
				"x": -1.2787642318,
				"y": -2.5617241763,
				"z": -1.2896259022,
				"element": "O" 
			},
			{
				"x": 0.9175784441,
				"y": 3.3367695765,
				"z": -0.2012344898,
				"element": "H" 
			},
			{
				"x": 0.7818672437,
				"y": 2.2989622166,
				"z": 1.224073996,
				"element": "H" 
			},
			{
				"x": 2.2342042861,
				"y": 2.227564332,
				"z": 0.2136688171,
				"element": "H" 
			},
			{
				"x": 0.6386796449,
				"y": 0.5611207966,
				"z": -2.7537866609,
				"element": "H" 
			},
			{
				"x": 2.1925236215,
				"y": 0.9898241544,
				"z": -2.0291939229,
				"element": "H" 
			},
			{
				"x": 1.0692244544,
				"y": 2.2659265376,
				"z": -2.525917746,
				"element": "H" 
			},
			{
				"x": -1.2292733712,
				"y": 2.2295287786,
				"z": -1.5936856412,
				"element": "H" 
			},
			{
				"x": -1.3878319249,
				"y": 2.0070146105,
				"z": 0.1353894605,
				"element": "H" 
			},
			{
				"x": -1.4521274003,
				"y": -0.3094086418,
				"z": -1.8752180854,
				"element": "H" 
			},
			{
				"x": -2.8902317409,
				"y": 0.4552474556,
				"z": -1.2153557129,
				"element": "H" 
			},
			{
				"x": -2.6710470014,
				"y": 0.387895011,
				"z": 1.705401849,
				"element": "H" 
			},
			{
				"x": -3.7276980491,
				"y": -0.4155768876,
				"z": 0.7585933393,
				"element": "H" 
			},
			{
				"x": -0.1400113955,
				"y": -1.4394146873,
				"z": 1.5072620933,
				"element": "H" 
			},
			{
				"x": -0.5028187066,
				"y": 0.2632806133,
				"z": 1.7000205764,
				"element": "H" 
			},
			{
				"x": 1.6941818784,
				"y": -0.1799981859,
				"z": 0.4673238673,
				"element": "H" 
			},
			{
				"x": 0.754058798,
				"y": -0.9264013648,
				"z": -0.816549605,
				"element": "H" 
			},
			{
				"x": -2.4823851857,
				"y": -4.0161555492,
				"z": 0.3851171069,
				"element": "H" 
			},
			{
				"x": -2.8694623398,
				"y": -2.6530884191,
				"z": 1.4399614749,
				"element": "H" 
			}
		],
		 "valence_orbital": [ 
			{
				"type": "occ",
				"energy": -0.30079,
				"method": "rhf"
			},
			{
				"type": "occ",
				"energy": -0.29393,
				"method": "rhf"
			},
			{
				"type": "occ",
				"energy": -0.26071,
				"method": "rhf"
			},
			{
				"type": "occ",
				"energy": -0.25606,
				"method": "rhf"
			},
			{
				"type": "occ",
				"energy": -0.22936,
				"method": "rhf"
			},
			{
				"type": "unocc",
				"energy": 0.03739,
				"method": "rhf"
			},
			{
				"type": "unocc",
				"energy": 0.06478,
				"method": "rhf"
			},
			{
				"type": "unocc",
				"energy": 0.09356,
				"method": "rhf"
			},
			{
				"type": "unocc",
				"energy": 0.10081,
				"method": "rhf"
			},
			{
				"type": "unocc",
				"energy": 0.11449,
				"method": "rhf"
			}
		],
		"cosmo_sigma_profile": { 
			"-0.025": 0.0,
			"-0.024": 0.0,
			"-0.023": 0.0,
			"-0.022": 0.0,
			"-0.021": 0.0,
			"-0.02": 0.0,
			"-0.019": 0.0,
			"-0.018": 0.0,
			"-0.017": 0.0,
			"-0.016": 0.0,
			"-0.015": 0.0,
			"-0.014": 0.230823676228,
			"-0.013": 1.33022071955,
			"-0.012": 0.618690466709,
			"-0.011": 0.930282619463,
			"-0.01": 3.16970902618,
			"-0.009": 4.21902813791,
			"-0.008": 5.54743062822,
			"-0.007": 5.76721764768,
			"-0.006": 5.42753009792,
			"-0.005": 5.57236841275,
			"-0.004": 5.21066637171,
			"-0.003": 11.184085266,
			"-0.002": 24.252100395,
			"-0.001": 31.2389675153,
			"0.0": 32.6144064361,
			"0.001": 29.7034802172,
			"0.002": 17.994852681,
			"0.003": 5.16494524005,
			"0.004": 3.70599704906,
			"0.005": 3.7129028269,
			"0.006": 3.47476241305,
			"0.007": 2.37607398883,
			"0.008": 1.85670263898,
			"0.009": 1.93832736469,
			"0.01": 2.46496295806,
			"0.011": 1.66288415233,
			"0.012": 2.46282303532,
			"0.013": 2.13241253769,
			"0.014": 4.31261410097,
			"0.015": 2.63266496859,
			"0.016": 0.183323790533,
			"0.017": 0.0,
			"0.018": 0.0,
			"0.019": 0.0,
			"0.02": 0.0,
			"0.021": 0.0,
			"0.022": 0.0,
			"0.023": 0.0,
			"0.024": 0.0,
			"0.025": 0.0
		}
	}
}
