{
	 "smiles": "COC1=CC2=C(C=C1)N=CC=C2", 
	 "Tm": 299.65, 
	 "num_atms": 21, 
	 "gaussian": { 
		 "optdone": 1, 
		 "sigma_profile": "yes", 
		 "theory": "DFT", 
		 "functional": "B3LYP", 
		 "basiset": "6-31G**", 
		 "properties": { 
			 "R2extent": 3245.7651, 
			 "electric_dipole_moment_norm": 1.92894632637, 
			 "electric_quadrupole_moment_norm": 12.4555561747, 
			 "total_energy": -516.455304983, 
			 "HOMO_LUMO_gap": 0.16389, 
			 "cosmo_polarized_energy": -8.58, 
			 "cosmo_cavitation_energy": 24.72, 
			 "cosmo_dispersion_energy": -18.67, 
			 "cosmo_repulsion_energy": 1.46, 
			 "cosmo_total_nonelectrostatic_energy": 7.5, 
			 "SMD_solvation_energy": 3.4 
		},
		"coords": [
			{
				"x": 4.2761699149,
				"y": 1.9630910032,
				"z": 0.1082003227,
				"element": "C" 
			},
			{
				"x": 3.2311967749,
				"y": 2.4080393779,
				"z": 0.9589713193,
				"element": "O" 
			},
			{
				"x": 2.0572832757,
				"y": 1.7118151965,
				"z": 0.9794974941,
				"element": "C" 
			},
			{
				"x": 1.0743655287,
				"y": 2.1915997996,
				"z": 1.8280017319,
				"element": "C" 
			},
			{
				"x": -0.1754122098,
				"y": 1.5397553952,
				"z": 1.9198903538,
				"element": "C" 
			},
			{
				"x": -0.4265359923,
				"y": 0.3720556565,
				"z": 1.1274164231,
				"element": "C" 
			},
			{
				"x": 0.6004035829,
				"y": -0.0932082519,
				"z": 0.2690135928,
				"element": "C" 
			},
			{
				"x": 1.8140669359,
				"y": 0.5544008528,
				"z": 0.191256962,
				"element": "C" 
			},
			{
				"x": -1.6095171741,
				"y": -0.3094660937,
				"z": 1.1639950108,
				"element": "N" 
			},
			{
				"x": -2.5501447541,
				"y": 0.1401872532,
				"z": 1.9687760227,
				"element": "C" 
			},
			{
				"x": -2.4082933366,
				"y": 1.2854355196,
				"z": 2.7963299083,
				"element": "C" 
			},
			{
				"x": -1.2247077269,
				"y": 1.9817865808,
				"z": 2.7709950647,
				"element": "C" 
			},
			{
				"x": 3.9784958649,
				"y": 1.981699617,
				"z": -0.9480570287,
				"element": "H" 
			},
			{
				"x": 5.1009914028,
				"y": 2.6615492441,
				"z": 0.2577617234,
				"element": "H" 
			},
			{
				"x": 4.6121594468,
				"y": 0.9513355552,
				"z": 0.3691472326,
				"element": "H" 
			},
			{
				"x": 1.2791362152,
				"y": 3.0770967441,
				"z": 2.4220677966,
				"element": "H" 
			},
			{
				"x": 0.3977466508,
				"y": -0.9780772531,
				"z": -0.3255553502,
				"element": "H" 
			},
			{
				"x": 2.5798387164,
				"y": 0.1744565521,
				"z": -0.4746231097,
				"element": "H" 
			},
			{
				"x": -3.4855623332,
				"y": -0.4185211005,
				"z": 1.9822220544,
				"element": "H" 
			},
			{
				"x": -3.2307445901,
				"y": 1.5943933848,
				"z": 3.4341269424,
				"element": "H" 
			},
			{
				"x": -1.0762361927,
				"y": 2.8635749665,
				"z": 3.389265533,
				"element": "H" 
			}
		],
		 "valence_orbital": [ 
			{
				"type": "occ",
				"energy": -0.30668,
				"method": "rhf"
			},
			{
				"type": "occ",
				"energy": -0.29927,
				"method": "rhf"
			},
			{
				"type": "occ",
				"energy": -0.24842,
				"method": "rhf"
			},
			{
				"type": "occ",
				"energy": -0.2415,
				"method": "rhf"
			},
			{
				"type": "occ",
				"energy": -0.2121,
				"method": "rhf"
			},
			{
				"type": "unocc",
				"energy": -0.04821,
				"method": "rhf"
			},
			{
				"type": "unocc",
				"energy": -0.0051,
				"method": "rhf"
			},
			{
				"type": "unocc",
				"energy": 0.02507,
				"method": "rhf"
			},
			{
				"type": "unocc",
				"energy": 0.09236,
				"method": "rhf"
			},
			{
				"type": "unocc",
				"energy": 0.09944,
				"method": "rhf"
			}
		],
		"cosmo_sigma_profile": { 
			"-0.025": 0.0,
			"-0.024": 0.0,
			"-0.023": 0.0,
			"-0.022": 0.0,
			"-0.021": 0.0,
			"-0.02": 0.0,
			"-0.019": 0.0,
			"-0.018": 0.0,
			"-0.017": 0.0,
			"-0.016": 0.0,
			"-0.015": 0.0,
			"-0.014": 0.0,
			"-0.013": 0.0,
			"-0.012": 0.0,
			"-0.011": 0.0,
			"-0.01": 0.0,
			"-0.009": 0.0,
			"-0.008": 0.0147683284903,
			"-0.007": 4.99615871869,
			"-0.006": 17.0197658509,
			"-0.005": 20.9024345196,
			"-0.004": 18.2131101154,
			"-0.003": 15.2468361099,
			"-0.002": 10.2736656191,
			"-0.001": 9.51140114779,
			"0.0": 8.59313085155,
			"0.001": 10.7254111802,
			"0.002": 19.2106757447,
			"0.003": 25.4601235231,
			"0.004": 13.6443550186,
			"0.005": 4.48356800204,
			"0.006": 3.42252431046,
			"0.007": 2.2328430629,
			"0.008": 3.59369639928,
			"0.009": 2.50801849718,
			"0.01": 2.63812684577,
			"0.011": 0.937843399789,
			"0.012": 0.803634928303,
			"0.013": 1.24260308541,
			"0.014": 0.681709103642,
			"0.015": 0.833487334981,
			"0.016": 0.601035246085,
			"0.017": 0.278549905197,
			"0.018": 0.0,
			"0.019": 0.0,
			"0.02": 0.0,
			"0.021": 0.0,
			"0.022": 0.0,
			"0.023": 0.0,
			"0.024": 0.0,
			"0.025": 0.0
		}
	}
}
