{
	 "smiles": "O=C1CC(CC2=CC=NC=C12)C1=CC=CC=C1", 
	 "Tm": 356.15, 
	 "num_atms": 30, 
	 "gaussian": { 
		 "optdone": 1, 
		 "sigma_profile": "yes", 
		 "theory": "DFT", 
		 "functional": "B3LYP", 
		 "basiset": "6-31G**", 
		 "properties": { 
			 "R2extent": 5123.9122, 
			 "electric_dipole_moment_norm": 4.815004081, 
			 "electric_quadrupole_moment_norm": 13.7993422307, 
			 "total_energy": -709.415359191, 
			 "HOMO_LUMO_gap": 0.1767, 
			 "cosmo_polarized_energy": -12.96, 
			 "cosmo_cavitation_energy": 33.15, 
			 "cosmo_dispersion_energy": -23.97, 
			 "cosmo_repulsion_energy": 1.82, 
			 "cosmo_total_nonelectrostatic_energy": 11.01, 
			 "SMD_solvation_energy": 4.14 
		},
		"coords": [
			{
				"x": 1.2170088692,
				"y": 3.0686564927,
				"z": -0.4806578715,
				"element": "O" 
			},
			{
				"x": 0.5644494768,
				"y": 2.0962156875,
				"z": -0.1343233245,
				"element": "C" 
			},
			{
				"x": 1.2315492644,
				"y": 0.7628819801,
				"z": 0.1804476561,
				"element": "C" 
			},
			{
				"x": 0.4642694652,
				"y": -0.0655029626,
				"z": 1.2319071469,
				"element": "C" 
			},
			{
				"x": -0.990060421,
				"y": -0.2708846898,
				"z": 0.7570674925,
				"element": "C" 
			},
			{
				"x": -1.6684502536,
				"y": 1.0331782963,
				"z": 0.4064642652,
				"element": "C" 
			},
			{
				"x": -3.0559771753,
				"y": 1.1880713999,
				"z": 0.4848317332,
				"element": "C" 
			},
			{
				"x": -3.6268118019,
				"y": 2.4107789903,
				"z": 0.1385650727,
				"element": "C" 
			},
			{
				"x": -2.9245943266,
				"y": 3.4802471734,
				"z": -0.2704707701,
				"element": "N" 
			},
			{
				"x": -1.6009468121,
				"y": 3.3339833633,
				"z": -0.3389426194,
				"element": "C" 
			},
			{
				"x": -0.9219558286,
				"y": 2.1467338099,
				"z": -0.019221409,
				"element": "C" 
			},
			{
				"x": 1.1556365927,
				"y": -1.3771756357,
				"z": 1.5664781809,
				"element": "C" 
			},
			{
				"x": 1.5778090017,
				"y": -1.6389113781,
				"z": 2.8761434963,
				"element": "C" 
			},
			{
				"x": 2.2107719905,
				"y": -2.8397763048,
				"z": 3.2027711304,
				"element": "C" 
			},
			{
				"x": 2.4319992552,
				"y": -3.8037363518,
				"z": 2.2190357181,
				"element": "C" 
			},
			{
				"x": 2.0165982967,
				"y": -3.5568663563,
				"z": 0.9086528493,
				"element": "C" 
			},
			{
				"x": 1.3855076212,
				"y": -2.3553323772,
				"z": 0.5871121353,
				"element": "C" 
			},
			{
				"x": 1.2884763689,
				"y": 0.2000756104,
				"z": -0.7629699233,
				"element": "H" 
			},
			{
				"x": 2.2610231089,
				"y": 0.9633384504,
				"z": 0.4888884049,
				"element": "H" 
			},
			{
				"x": 0.4234170017,
				"y": 0.5293999793,
				"z": 2.1540528936,
				"element": "H" 
			},
			{
				"x": -1.5691260316,
				"y": -0.8002501135,
				"z": 1.5213931853,
				"element": "H" 
			},
			{
				"x": -0.9913878926,
				"y": -0.9214321187,
				"z": -0.1294111186,
				"element": "H" 
			},
			{
				"x": -3.6861411012,
				"y": 0.3673274611,
				"z": 0.8161129112,
				"element": "H" 
			},
			{
				"x": -4.7059962635,
				"y": 2.5432617835,
				"z": 0.1963106698,
				"element": "H" 
			},
			{
				"x": -1.0194127115,
				"y": 4.1928070137,
				"z": -0.6651583671,
				"element": "H" 
			},
			{
				"x": 1.4099235296,
				"y": -0.8923108096,
				"z": 3.6487516907,
				"element": "H" 
			},
			{
				"x": 2.5306820742,
				"y": -3.019822334,
				"z": 4.225208647,
				"element": "H" 
			},
			{
				"x": 2.9245860777,
				"y": -4.7387808959,
				"z": 2.469317404,
				"element": "H" 
			},
			{
				"x": 2.185395901,
				"y": -4.3004534438,
				"z": 0.1348219218,
				"element": "H" 
			},
			{
				"x": 1.072356724,
				"y": -2.1809217199,
				"z": -0.4392792016,
				"element": "H" 
			}
		],
		 "valence_orbital": [ 
			{
				"type": "occ",
				"energy": -0.26933,
				"method": "rhf"
			},
			{
				"type": "occ",
				"energy": -0.26859,
				"method": "rhf"
			},
			{
				"type": "occ",
				"energy": -0.25775,
				"method": "rhf"
			},
			{
				"type": "occ",
				"energy": -0.25213,
				"method": "rhf"
			},
			{
				"type": "occ",
				"energy": -0.24123,
				"method": "rhf"
			},
			{
				"type": "unocc",
				"energy": -0.06453,
				"method": "rhf"
			},
			{
				"type": "unocc",
				"energy": -0.02981,
				"method": "rhf"
			},
			{
				"type": "unocc",
				"energy": -0.00982,
				"method": "rhf"
			},
			{
				"type": "unocc",
				"energy": -0.00817,
				"method": "rhf"
			},
			{
				"type": "unocc",
				"energy": 0.03076,
				"method": "rhf"
			}
		],
		"cosmo_sigma_profile": { 
			"-0.025": 0.0,
			"-0.024": 0.0,
			"-0.023": 0.0,
			"-0.022": 0.0,
			"-0.021": 0.0,
			"-0.02": 0.0,
			"-0.019": 0.0,
			"-0.018": 0.0,
			"-0.017": 0.0,
			"-0.016": 0.0,
			"-0.015": 0.0,
			"-0.014": 0.0,
			"-0.013": 0.0,
			"-0.012": 0.0,
			"-0.011": 0.0,
			"-0.01": 0.0,
			"-0.009": 0.0414408810439,
			"-0.008": 0.883000691966,
			"-0.007": 7.78889516097,
			"-0.006": 15.861690631,
			"-0.005": 27.5485393864,
			"-0.004": 25.6983623485,
			"-0.003": 24.3129648578,
			"-0.002": 18.5648842717,
			"-0.001": 17.132538065,
			"0.0": 20.9232885629,
			"0.001": 19.674390469,
			"0.002": 14.6698353143,
			"0.003": 12.7746140076,
			"0.004": 10.3629534487,
			"0.005": 11.240553685,
			"0.006": 10.047055669,
			"0.007": 4.37883685764,
			"0.008": 3.58670039338,
			"0.009": 2.14688270239,
			"0.01": 3.23217703061,
			"0.011": 3.688643545,
			"0.012": 4.76737813962,
			"0.013": 2.07325042337,
			"0.014": 1.17147071689,
			"0.015": 0.852671399184,
			"0.016": 0.672955731813,
			"0.017": 0.225501134058,
			"0.018": 0.0,
			"0.019": 0.0,
			"0.02": 0.0,
			"0.021": 0.0,
			"0.022": 0.0,
			"0.023": 0.0,
			"0.024": 0.0,
			"0.025": 0.0
		}
	}
}
