{
	 "smiles": "OCCN1C=NC(=N1)[N+]([O-])=O", 
	 "Tm": 350.15, 
	 "num_atms": 17, 
	 "gaussian": { 
		 "optdone": 1, 
		 "sigma_profile": "yes", 
		 "theory": "DFT", 
		 "functional": "B3LYP", 
		 "basiset": "6-31G**", 
		 "properties": { 
			 "R2extent": 1976.5858, 
			 "electric_dipole_moment_norm": 6.68102129693, 
			 "electric_quadrupole_moment_norm": 16.7463873824, 
			 "total_energy": -600.578542189, 
			 "HOMO_LUMO_gap": 0.1906, 
			 "cosmo_polarized_energy": -18.83, 
			 "cosmo_cavitation_energy": 22.44, 
			 "cosmo_dispersion_energy": -16.53, 
			 "cosmo_repulsion_energy": 1.35, 
			 "cosmo_total_nonelectrostatic_energy": 7.26, 
			 "SMD_solvation_energy": 4.45 
		},
		"coords": [
			{
				"x": 1.3794090209,
				"y": -2.5265149005,
				"z": -0.7619683017,
				"element": "O" 
			},
			{
				"x": 1.2716615104,
				"y": -1.9161694225,
				"z": -2.0234771541,
				"element": "C" 
			},
			{
				"x": -0.16887301,
				"y": -1.5149372413,
				"z": -2.3705444548,
				"element": "C" 
			},
			{
				"x": -0.6149414017,
				"y": -0.3594589172,
				"z": -1.5854685998,
				"element": "N" 
			},
			{
				"x": -1.2953226721,
				"y": 0.747857604,
				"z": -1.9741978345,
				"element": "C" 
			},
			{
				"x": -1.5031187369,
				"y": 1.5523022694,
				"z": -0.9448843355,
				"element": "N" 
			},
			{
				"x": -0.9156392775,
				"y": 0.8709868058,
				"z": 0.0569273215,
				"element": "C" 
			},
			{
				"x": -0.3632791441,
				"y": -0.2906450252,
				"z": -0.2613906857,
				"element": "N" 
			},
			{
				"x": -0.8708562576,
				"y": 1.3640265546,
				"z": 1.4325000154,
				"element": "N" 
			},
			{
				"x": -0.2638936253,
				"y": 0.6715418353,
				"z": 2.244649982,
				"element": "O" 
			},
			{
				"x": -1.4409234977,
				"y": 2.4242246477,
				"z": 1.6567449975,
				"element": "O" 
			},
			{
				"x": 1.0674806633,
				"y": -1.8854790022,
				"z": -0.1031048419,
				"element": "H" 
			},
			{
				"x": 1.5977033571,
				"y": -2.6543732096,
				"z": -2.7637302921,
				"element": "H" 
			},
			{
				"x": 1.9234394767,
				"y": -1.0334996009,
				"z": -2.1264772384,
				"element": "H" 
			},
			{
				"x": -0.2578370307,
				"y": -1.2328214425,
				"z": -3.423553617,
				"element": "H" 
			},
			{
				"x": -0.838877916,
				"y": -2.3566886965,
				"z": -2.1693228002,
				"element": "H" 
			},
			{
				"x": -1.6088314588,
				"y": 0.9204477414,
				"z": -2.9944021606,
				"element": "H" 
			}
		],
		 "valence_orbital": [ 
			{
				"type": "occ",
				"energy": -0.3148,
				"method": "rhf"
			},
			{
				"type": "occ",
				"energy": -0.31386,
				"method": "rhf"
			},
			{
				"type": "occ",
				"energy": -0.30909,
				"method": "rhf"
			},
			{
				"type": "occ",
				"energy": -0.29666,
				"method": "rhf"
			},
			{
				"type": "occ",
				"energy": -0.28432,
				"method": "rhf"
			},
			{
				"type": "unocc",
				"energy": -0.09372,
				"method": "rhf"
			},
			{
				"type": "unocc",
				"energy": -0.02891,
				"method": "rhf"
			},
			{
				"type": "unocc",
				"energy": 0.04105,
				"method": "rhf"
			},
			{
				"type": "unocc",
				"energy": 0.06516,
				"method": "rhf"
			},
			{
				"type": "unocc",
				"energy": 0.09337,
				"method": "rhf"
			}
		],
		"cosmo_sigma_profile": { 
			"-0.025": 0.0,
			"-0.024": 0.0,
			"-0.023": 0.0,
			"-0.022": 0.0,
			"-0.021": 0.0,
			"-0.02": 0.0,
			"-0.019": 0.0,
			"-0.018": 0.0,
			"-0.017": 0.0,
			"-0.016": 0.0,
			"-0.015": 0.0,
			"-0.014": 0.0,
			"-0.013": 1.00385116557,
			"-0.012": 3.21948297747,
			"-0.011": 2.30074255295,
			"-0.01": 2.70974125676,
			"-0.009": 4.10452986821,
			"-0.008": 6.97138977732,
			"-0.007": 10.9832017611,
			"-0.006": 14.8670140542,
			"-0.005": 15.721562641,
			"-0.004": 11.7420348806,
			"-0.003": 8.81533429171,
			"-0.002": 7.23769914497,
			"-0.001": 5.806038211,
			"0.0": 5.90921026443,
			"0.001": 4.93833612226,
			"0.002": 4.47904298883,
			"0.003": 4.7986737585,
			"0.004": 5.50015304498,
			"0.005": 6.42486309251,
			"0.006": 6.17398181997,
			"0.007": 13.9957501103,
			"0.008": 10.1772560856,
			"0.009": 6.0627055797,
			"0.01": 3.49529649869,
			"0.011": 2.64802140632,
			"0.012": 2.0912793853,
			"0.013": 3.78625221574,
			"0.014": 2.88274592755,
			"0.015": 0.147460822539,
			"0.016": 0.0,
			"0.017": 0.0,
			"0.018": 0.0,
			"0.019": 0.0,
			"0.02": 0.0,
			"0.021": 0.0,
			"0.022": 0.0,
			"0.023": 0.0,
			"0.024": 0.0,
			"0.025": 0.0
		}
	}
}
