{
	 "smiles": "OC(=O)CCC1=NC=C(O1)C1=CC=CO1", 
	 "Tm": 414.15, 
	 "num_atms": 24, 
	 "gaussian": { 
		 "optdone": 1, 
		 "sigma_profile": "yes", 
		 "theory": "DFT", 
		 "functional": "B3LYP", 
		 "basiset": "6-31G**", 
		 "properties": { 
			 "R2extent": 4148.3005, 
			 "electric_dipole_moment_norm": 1.4334020406, 
			 "electric_quadrupole_moment_norm": 14.4461669075, 
			 "total_energy": -742.111806763, 
			 "HOMO_LUMO_gap": 0.17076, 
			 "cosmo_polarized_energy": -15.17, 
			 "cosmo_cavitation_energy": 30.46, 
			 "cosmo_dispersion_energy": -21.34, 
			 "cosmo_repulsion_energy": 1.7, 
			 "cosmo_total_nonelectrostatic_energy": 10.82, 
			 "SMD_solvation_energy": 5.83 
		},
		"coords": [
			{
				"x": 2.4874471131,
				"y": -2.5881552086,
				"z": 1.7008778209,
				"element": "O" 
			},
			{
				"x": 1.4704270568,
				"y": -1.8410989353,
				"z": 2.1968894751,
				"element": "C" 
			},
			{
				"x": 0.3949121676,
				"y": -2.3118821904,
				"z": 2.4896046943,
				"element": "O" 
			},
			{
				"x": 1.8658437014,
				"y": -0.3847391431,
				"z": 2.3324987391,
				"element": "C" 
			},
			{
				"x": 2.2770317124,
				"y": 0.2585205158,
				"z": 0.9863638145,
				"element": "C" 
			},
			{
				"x": 1.1585340232,
				"y": 0.3400278758,
				"z": 0.0032044812,
				"element": "C" 
			},
			{
				"x": 1.0029280311,
				"y": -0.3128402879,
				"z": -1.1098060358,
				"element": "N" 
			},
			{
				"x": -0.2085567177,
				"y": 0.1292375365,
				"z": -1.6136649683,
				"element": "C" 
			},
			{
				"x": -0.7474592818,
				"y": 1.0516933927,
				"z": -0.7601426074,
				"element": "C" 
			},
			{
				"x": 0.1309843922,
				"y": 1.1939209346,
				"z": 0.2868526258,
				"element": "O" 
			},
			{
				"x": -1.9556827609,
				"y": 1.8337587899,
				"z": -0.7577521053,
				"element": "C" 
			},
			{
				"x": -3.0162350346,
				"y": 1.9039325747,
				"z": -1.6261032374,
				"element": "C" 
			},
			{
				"x": -3.9161878621,
				"y": 2.8712552239,
				"z": -1.0824880804,
				"element": "C" 
			},
			{
				"x": -3.3442829559,
				"y": 3.3185216093,
				"z": 0.0705939257,
				"element": "C" 
			},
			{
				"x": -2.1498709653,
				"y": 2.6980509989,
				"z": 0.2838913732,
				"element": "O" 
			},
			{
				"x": 2.1438194583,
				"y": -3.4933497673,
				"z": 1.6172097058,
				"element": "H" 
			},
			{
				"x": 2.7158031886,
				"y": -0.3244544941,
				"z": 3.0216674808,
				"element": "H" 
			},
			{
				"x": 1.0219000195,
				"y": 0.1465077109,
				"z": 2.7756869742,
				"element": "H" 
			},
			{
				"x": 3.0783498525,
				"y": -0.3205085885,
				"z": 0.5239104362,
				"element": "H" 
			},
			{
				"x": 2.6569783082,
				"y": 1.2667241249,
				"z": 1.1866876941,
				"element": "H" 
			},
			{
				"x": -0.6077086146,
				"y": -0.2407494565,
				"z": -2.5464618972,
				"element": "H" 
			},
			{
				"x": -3.1382150669,
				"y": 1.3345545395,
				"z": -2.5359880298,
				"element": "H" 
			},
			{
				"x": -4.8623146821,
				"y": 3.1877501002,
				"z": -1.49693227,
				"element": "H" 
			},
			{
				"x": -3.6380450831,
				"y": 4.0371221445,
				"z": 0.8193999904,
				"element": "H" 
			}
		],
		 "valence_orbital": [ 
			{
				"type": "occ",
				"energy": -0.29145,
				"method": "rhf"
			},
			{
				"type": "occ",
				"energy": -0.28751,
				"method": "rhf"
			},
			{
				"type": "occ",
				"energy": -0.27814,
				"method": "rhf"
			},
			{
				"type": "occ",
				"energy": -0.27217,
				"method": "rhf"
			},
			{
				"type": "occ",
				"energy": -0.20398,
				"method": "rhf"
			},
			{
				"type": "unocc",
				"energy": -0.03322,
				"method": "rhf"
			},
			{
				"type": "unocc",
				"energy": 0.00573,
				"method": "rhf"
			},
			{
				"type": "unocc",
				"energy": 0.02716,
				"method": "rhf"
			},
			{
				"type": "unocc",
				"energy": 0.05019,
				"method": "rhf"
			},
			{
				"type": "unocc",
				"energy": 0.07535,
				"method": "rhf"
			}
		],
		"cosmo_sigma_profile": { 
			"-0.025": 0.0,
			"-0.024": 0.0,
			"-0.023": 0.0,
			"-0.022": 0.0,
			"-0.021": 0.0,
			"-0.02": 0.0,
			"-0.019": 0.0116518314026,
			"-0.018": 0.827947356549,
			"-0.017": 0.967590110637,
			"-0.016": 0.806024697923,
			"-0.015": 0.572318722831,
			"-0.014": 0.501696294559,
			"-0.013": 0.761396235096,
			"-0.012": 0.980257592151,
			"-0.011": 0.65545023977,
			"-0.01": 1.19291283887,
			"-0.009": 2.32847088129,
			"-0.008": 5.4443127648,
			"-0.007": 13.1186946377,
			"-0.006": 14.5432810366,
			"-0.005": 16.5549065178,
			"-0.004": 15.9153952198,
			"-0.003": 14.2429558824,
			"-0.002": 13.4310948109,
			"-0.001": 13.0605570712,
			"0.0": 13.0323141827,
			"0.001": 16.8316018586,
			"0.002": 20.7211648771,
			"0.003": 14.8039007783,
			"0.004": 13.8018848886,
			"0.005": 10.0787413768,
			"0.006": 5.17566915286,
			"0.007": 6.30032439971,
			"0.008": 5.49912858521,
			"0.009": 4.1370969782,
			"0.01": 3.26187242878,
			"0.011": 5.66916925264,
			"0.012": 4.55574070915,
			"0.013": 1.41113314562,
			"0.014": 1.38991956811,
			"0.015": 0.588418376188,
			"0.016": 0.581658298025,
			"0.017": 0.0,
			"0.018": 0.0,
			"0.019": 0.0,
			"0.02": 0.0,
			"0.021": 0.0,
			"0.022": 0.0,
			"0.023": 0.0,
			"0.024": 0.0,
			"0.025": 0.0
		}
	}
}
