{
	 "smiles": "NC1=CC(OCC2=CN=CC=C2)=CC=C1", 
	 "Tm": 371.15, 
	 "num_atms": 27, 
	 "gaussian": { 
		 "optdone": 1, 
		 "sigma_profile": "yes", 
		 "theory": "DFT", 
		 "functional": "B3LYP", 
		 "basiset": "6-31G**", 
		 "properties": { 
			 "R2extent": 4078.5396, 
			 "electric_dipole_moment_norm": 1.41235807783, 
			 "electric_quadrupole_moment_norm": 10.7262184678, 
			 "total_energy": -649.221682387, 
			 "HOMO_LUMO_gap": 0.16847, 
			 "cosmo_polarized_energy": -13.51, 
			 "cosmo_cavitation_energy": 31.01, 
			 "cosmo_dispersion_energy": -22.15, 
			 "cosmo_repulsion_energy": 1.75, 
			 "cosmo_total_nonelectrostatic_energy": 10.62, 
			 "SMD_solvation_energy": 3.9 
		},
		"coords": [
			{
				"x": 2.3408135942,
				"y": 0.1903755278,
				"z": -0.8213525877,
				"element": "N" 
			},
			{
				"x": 1.0894762294,
				"y": 0.4489046324,
				"z": -1.3861329937,
				"element": "C" 
			},
			{
				"x": -0.0405440942,
				"y": 0.5718309039,
				"z": -0.555787893,
				"element": "C" 
			},
			{
				"x": -1.2821500735,
				"y": 0.884747343,
				"z": -1.1116521839,
				"element": "C" 
			},
			{
				"x": -2.4384111732,
				"y": 1.0329549553,
				"z": -0.3827764939,
				"element": "O" 
			},
			{
				"x": -2.3763478971,
				"y": 1.0200499826,
				"z": 1.0378619106,
				"element": "C" 
			},
			{
				"x": -2.2925865976,
				"y": -0.3700777202,
				"z": 1.6361809255,
				"element": "C" 
			},
			{
				"x": -1.6652328983,
				"y": -0.5829672995,
				"z": 2.8688725667,
				"element": "C" 
			},
			{
				"x": -1.5956265215,
				"y": -1.7683544696,
				"z": 3.485891093,
				"element": "N" 
			},
			{
				"x": -2.1631784152,
				"y": -2.8120874456,
				"z": 2.8693612093,
				"element": "C" 
			},
			{
				"x": -2.8079170478,
				"y": -2.7176860104,
				"z": 1.6342508134,
				"element": "C" 
			},
			{
				"x": -2.8752047295,
				"y": -1.4751055063,
				"z": 1.0090143593,
				"element": "C" 
			},
			{
				"x": -1.4220353755,
				"y": 1.0703456355,
				"z": -2.4937118812,
				"element": "C" 
			},
			{
				"x": -0.2986278451,
				"y": 0.9441395436,
				"z": -3.3044966855,
				"element": "C" 
			},
			{
				"x": 0.9525383,
				"y": 0.6379960592,
				"z": -2.7695862906,
				"element": "C" 
			},
			{
				"x": 2.3198406209,
				"y": -0.2875624168,
				"z": 0.0692046808,
				"element": "H" 
			},
			{
				"x": 3.0139840827,
				"y": -0.2232912316,
				"z": -1.4516660752,
				"element": "H" 
			},
			{
				"x": 0.0699825086,
				"y": 0.4023818545,
				"z": 0.5090135892,
				"element": "H" 
			},
			{
				"x": -3.3094769757,
				"y": 1.5010815387,
				"z": 1.3522188908,
				"element": "H" 
			},
			{
				"x": -1.549442744,
				"y": 1.6458903113,
				"z": 1.3987423839,
				"element": "H" 
			},
			{
				"x": -1.1896322647,
				"y": 0.2511751199,
				"z": 3.3864732117,
				"element": "H" 
			},
			{
				"x": -2.0954151975,
				"y": -3.7688327212,
				"z": 3.3843671774,
				"element": "H" 
			},
			{
				"x": -3.2451997011,
				"y": -3.5993442742,
				"z": 1.1757958091,
				"element": "H" 
			},
			{
				"x": -3.3596025585,
				"y": -1.3540771628,
				"z": 0.0449776397,
				"element": "H" 
			},
			{
				"x": -2.3981770483,
				"y": 1.3146794463,
				"z": -2.8971687518,
				"element": "H" 
			},
			{
				"x": -0.3971346153,
				"y": 1.0880097257,
				"z": -4.376975887,
				"element": "H" 
			},
			{
				"x": 1.8213084379,
				"y": 0.5473236787,
				"z": -3.4158185369,
				"element": "H" 
			}
		],
		 "valence_orbital": [ 
			{
				"type": "occ",
				"energy": -0.28503,
				"method": "rhf"
			},
			{
				"type": "occ",
				"energy": -0.25995,
				"method": "rhf"
			},
			{
				"type": "occ",
				"energy": -0.25555,
				"method": "rhf"
			},
			{
				"type": "occ",
				"energy": -0.22532,
				"method": "rhf"
			},
			{
				"type": "occ",
				"energy": -0.1959,
				"method": "rhf"
			},
			{
				"type": "unocc",
				"energy": -0.02743,
				"method": "rhf"
			},
			{
				"type": "unocc",
				"energy": -0.01601,
				"method": "rhf"
			},
			{
				"type": "unocc",
				"energy": 0.01289,
				"method": "rhf"
			},
			{
				"type": "unocc",
				"energy": 0.02511,
				"method": "rhf"
			},
			{
				"type": "unocc",
				"energy": 0.08147,
				"method": "rhf"
			}
		],
		"cosmo_sigma_profile": { 
			"-0.025": 0.0,
			"-0.024": 0.0,
			"-0.023": 0.0,
			"-0.022": 0.0,
			"-0.021": 0.0,
			"-0.02": 0.0,
			"-0.019": 0.0,
			"-0.018": 0.0,
			"-0.017": 0.0,
			"-0.016": 0.0,
			"-0.015": 0.0,
			"-0.014": 0.0,
			"-0.013": 0.14199590559,
			"-0.012": 2.05668855231,
			"-0.011": 3.02096586596,
			"-0.01": 3.23596376965,
			"-0.009": 2.33945449908,
			"-0.008": 4.06303375584,
			"-0.007": 8.94668381272,
			"-0.006": 17.1774954989,
			"-0.005": 20.0622323162,
			"-0.004": 18.2609638461,
			"-0.003": 14.6819117529,
			"-0.002": 13.4014390161,
			"-0.001": 12.9271259864,
			"0.0": 12.2076530543,
			"0.001": 13.9925874891,
			"0.002": 17.3807891667,
			"0.003": 17.8992780086,
			"0.004": 10.6609238903,
			"0.005": 12.1420803416,
			"0.006": 12.4171652594,
			"0.007": 11.0223213055,
			"0.008": 4.97325637148,
			"0.009": 2.24425034466,
			"0.01": 2.4592055111,
			"0.011": 2.35911006168,
			"0.012": 1.58653663739,
			"0.013": 1.68713844157,
			"0.014": 1.42836535877,
			"0.015": 1.22253602299,
			"0.016": 0.864870441441,
			"0.017": 0.306426747506,
			"0.018": 0.0,
			"0.019": 0.0,
			"0.02": 0.0,
			"0.021": 0.0,
			"0.022": 0.0,
			"0.023": 0.0,
			"0.024": 0.0,
			"0.025": 0.0
		}
	}
}
