{
	 "smiles": "CC(=O)C1=CC=C(C=C1)C1CCCCC1", 
	 "Tm": 341.15, 
	 "num_atms": 33, 
	 "gaussian": { 
		 "optdone": 1, 
		 "sigma_profile": "yes", 
		 "theory": "DFT", 
		 "functional": "B3LYP", 
		 "basiset": "6-31G**", 
		 "properties": { 
			 "R2extent": 5200.4357, 
			 "electric_dipole_moment_norm": 3.62558401089, 
			 "electric_quadrupole_moment_norm": 20.5048356424, 
			 "total_energy": -619.580667682, 
			 "HOMO_LUMO_gap": 0.19314, 
			 "cosmo_polarized_energy": -8.15, 
			 "cosmo_cavitation_energy": 33.76, 
			 "cosmo_dispersion_energy": -24.45, 
			 "cosmo_repulsion_energy": 1.91, 
			 "cosmo_total_nonelectrostatic_energy": 11.22, 
			 "SMD_solvation_energy": 5.47 
		},
		"coords": [
			{
				"x": -3.3564752347,
				"y": -2.5544044368,
				"z": 2.9526120302,
				"element": "C" 
			},
			{
				"x": -3.5828788962,
				"y": -1.0683885915,
				"z": 2.7229634198,
				"element": "C" 
			},
			{
				"x": -4.4833181004,
				"y": -0.482785785,
				"z": 3.3070856916,
				"element": "O" 
			},
			{
				"x": -2.6854207692,
				"y": -0.3391347178,
				"z": 1.7723021236,
				"element": "C" 
			},
			{
				"x": -2.9023305728,
				"y": 1.0317714668,
				"z": 1.5681982321,
				"element": "C" 
			},
			{
				"x": -2.0976917895,
				"y": 1.7530086022,
				"z": 0.6934684917,
				"element": "C" 
			},
			{
				"x": -1.0489760288,
				"y": 1.1376772404,
				"z": -0.0085211914,
				"element": "C" 
			},
			{
				"x": -0.8358815117,
				"y": -0.2342326774,
				"z": 0.2008588011,
				"element": "C" 
			},
			{
				"x": -1.639476077,
				"y": -0.9625773183,
				"z": 1.0746242192,
				"element": "C" 
			},
			{
				"x": -0.1629397588,
				"y": 1.9527135612,
				"z": -0.9346004287,
				"element": "C" 
			},
			{
				"x": 0.0463708707,
				"y": 1.3109153882,
				"z": -2.3467438391,
				"element": "C" 
			},
			{
				"x": 1.4624352319,
				"y": 0.7524411648,
				"z": -2.5505246123,
				"element": "C" 
			},
			{
				"x": 2.5378032722,
				"y": 1.8489352958,
				"z": -2.3959359924,
				"element": "C" 
			},
			{
				"x": 2.1854651854,
				"y": 2.8638136,
				"z": -1.2767476586,
				"element": "C" 
			},
			{
				"x": 1.2009335846,
				"y": 2.268529565,
				"z": -0.2620414972,
				"element": "C" 
			},
			{
				"x": -4.0961333843,
				"y": -2.9127285734,
				"z": 3.6690636829,
				"element": "H" 
			},
			{
				"x": -3.4540969571,
				"y": -3.1167408452,
				"z": 2.0173745759,
				"element": "H" 
			},
			{
				"x": -2.3504848757,
				"y": -2.7436221135,
				"z": 3.3432687175,
				"element": "H" 
			},
			{
				"x": -3.7145870194,
				"y": 1.5073265875,
				"z": 2.1080432228,
				"element": "H" 
			},
			{
				"x": -2.2837224085,
				"y": 2.8140683697,
				"z": 0.5448572771,
				"element": "H" 
			},
			{
				"x": -0.0338158059,
				"y": -0.7423978096,
				"z": -0.3269755703,
				"element": "H" 
			},
			{
				"x": -1.4460893498,
				"y": -2.0222621101,
				"z": 1.2091414921,
				"element": "H" 
			},
			{
				"x": -0.6669185439,
				"y": 2.9155760277,
				"z": -1.0847069097,
				"element": "H" 
			},
			{
				"x": -0.7000583027,
				"y": 0.5280314827,
				"z": -2.5166396942,
				"element": "H" 
			},
			{
				"x": -0.1377251632,
				"y": 2.0757950791,
				"z": -3.111474436,
				"element": "H" 
			},
			{
				"x": 1.5416688476,
				"y": 0.2849579136,
				"z": -3.5386053567,
				"element": "H" 
			},
			{
				"x": 1.6481061983,
				"y": -0.0488109713,
				"z": -1.8241783461,
				"element": "H" 
			},
			{
				"x": 2.6588853489,
				"y": 2.3818821734,
				"z": -3.3465178319,
				"element": "H" 
			},
			{
				"x": 3.5045467767,
				"y": 1.3765011831,
				"z": -2.1863011378,
				"element": "H" 
			},
			{
				"x": 1.7308970102,
				"y": 3.7616943545,
				"z": -1.7157660066,
				"element": "H" 
			},
			{
				"x": 3.0954585264,
				"y": 3.2027521944,
				"z": -0.769667798,
				"element": "H" 
			},
			{
				"x": 1.0395243661,
				"y": 2.9551544558,
				"z": 0.5764131172,
				"element": "H" 
			},
			{
				"x": 1.6212253308,
				"y": 1.3519402438,
				"z": 0.1712732125,
				"element": "H" 
			}
		],
		 "valence_orbital": [ 
			{
				"type": "occ",
				"energy": -0.30382,
				"method": "rhf"
			},
			{
				"type": "occ",
				"energy": -0.30154,
				"method": "rhf"
			},
			{
				"type": "occ",
				"energy": -0.2557,
				"method": "rhf"
			},
			{
				"type": "occ",
				"energy": -0.24469,
				"method": "rhf"
			},
			{
				"type": "occ",
				"energy": -0.24254,
				"method": "rhf"
			},
			{
				"type": "unocc",
				"energy": -0.0494,
				"method": "rhf"
			},
			{
				"type": "unocc",
				"energy": -0.00617,
				"method": "rhf"
			},
			{
				"type": "unocc",
				"energy": 0.04356,
				"method": "rhf"
			},
			{
				"type": "unocc",
				"energy": 0.07185,
				"method": "rhf"
			},
			{
				"type": "unocc",
				"energy": 0.08954,
				"method": "rhf"
			}
		],
		"cosmo_sigma_profile": { 
			"-0.025": 0.0,
			"-0.024": 0.0,
			"-0.023": 0.0,
			"-0.022": 0.0,
			"-0.021": 0.0,
			"-0.02": 0.0,
			"-0.019": 0.0,
			"-0.018": 0.0,
			"-0.017": 0.0,
			"-0.016": 0.0,
			"-0.015": 0.0,
			"-0.014": 0.0,
			"-0.013": 0.0,
			"-0.012": 0.0,
			"-0.011": 0.0,
			"-0.01": 0.0,
			"-0.009": 0.0,
			"-0.008": 0.0,
			"-0.007": 0.269093874677,
			"-0.006": 7.13788613075,
			"-0.005": 14.9886335252,
			"-0.004": 16.5626256191,
			"-0.003": 19.1458886838,
			"-0.002": 36.6712600727,
			"-0.001": 41.8662396702,
			"0.0": 36.373144412,
			"0.001": 28.7653367241,
			"0.002": 13.4139013696,
			"0.003": 10.9058533326,
			"0.004": 11.7946291138,
			"0.005": 7.73963637282,
			"0.006": 1.71213998858,
			"0.007": 2.05550853447,
			"0.008": 1.73261986658,
			"0.009": 1.34225952366,
			"0.01": 1.84338935566,
			"0.011": 2.62262659023,
			"0.012": 4.20979930398,
			"0.013": 2.35141500379,
			"0.014": 0.401185839578,
			"0.015": 0.0,
			"0.016": 0.0,
			"0.017": 0.0,
			"0.018": 0.0,
			"0.019": 0.0,
			"0.02": 0.0,
			"0.021": 0.0,
			"0.022": 0.0,
			"0.023": 0.0,
			"0.024": 0.0,
			"0.025": 0.0
		}
	}
}
