{
	 "smiles": "COC1=CC=C2N(C(=O)C=CC3=CC=CC=C3)C(C)=C(CC(O)=O)C2=C1", 
	 "Tm": 443.15, 
	 "num_atms": 45, 
	 "gaussian": { 
		 "optdone": 1, 
		 "sigma_profile": "yes", 
		 "theory": "DFT", 
		 "functional": "B3LYP", 
		 "basiset": "6-31G**", 
		 "properties": { 
			 "R2extent": 9621.644, 
			 "electric_dipole_moment_norm": 1.67025824949, 
			 "electric_quadrupole_moment_norm": 15.8369444755, 
			 "total_energy": -1167.33123388, 
			 "HOMO_LUMO_gap": 0.14989, 
			 "cosmo_polarized_energy": -18.19, 
			 "cosmo_cavitation_energy": 48.95, 
			 "cosmo_dispersion_energy": -31.83, 
			 "cosmo_repulsion_energy": 2.44, 
			 "cosmo_total_nonelectrostatic_energy": 19.55, 
			 "SMD_solvation_energy": 10.4 
		},
		"coords": [
			{
				"x": -0.9647617701,
				"y": 5.1081045176,
				"z": 1.2310512986,
				"element": "C" 
			},
			{
				"x": -1.1070183192,
				"y": 4.1026179338,
				"z": 2.2216724827,
				"element": "O" 
			},
			{
				"x": -0.6578233245,
				"y": 2.846092473,
				"z": 1.9244194453,
				"element": "C" 
			},
			{
				"x": -0.8016230635,
				"y": 1.8984852039,
				"z": 2.9589773276,
				"element": "C" 
			},
			{
				"x": -0.3841162729,
				"y": 0.5832065431,
				"z": 2.8034308101,
				"element": "C" 
			},
			{
				"x": 0.1773349431,
				"y": 0.2044343931,
				"z": 1.5787448342,
				"element": "C" 
			},
			{
				"x": 0.7352761348,
				"y": -1.0182361967,
				"z": 1.119846205,
				"element": "N" 
			},
			{
				"x": 0.8540466921,
				"y": -2.2311505015,
				"z": 1.8147785213,
				"element": "C" 
			},
			{
				"x": 1.6667043878,
				"y": -3.0828685326,
				"z": 1.4859610532,
				"element": "O" 
			},
			{
				"x": -0.0338536089,
				"y": -2.4888650656,
				"z": 2.9914725977,
				"element": "C" 
			},
			{
				"x": -1.3645786066,
				"y": -2.6778676277,
				"z": 2.9835817944,
				"element": "C" 
			},
			{
				"x": -2.2976384492,
				"y": -2.6094650266,
				"z": 1.8470681126,
				"element": "C" 
			},
			{
				"x": -3.6152360957,
				"y": -2.1725633897,
				"z": 2.0728905058,
				"element": "C" 
			},
			{
				"x": -4.5298782242,
				"y": -2.0875875337,
				"z": 1.0259209844,
				"element": "C" 
			},
			{
				"x": -4.1510718281,
				"y": -2.4611492185,
				"z": -0.2655176825,
				"element": "C" 
			},
			{
				"x": -2.8552436467,
				"y": -2.9267413442,
				"z": -0.4987232896,
				"element": "C" 
			},
			{
				"x": -1.9366904297,
				"y": -3.0040940156,
				"z": 0.5464197003,
				"element": "C" 
			},
			{
				"x": 1.2522101957,
				"y": -0.804128906,
				"z": -0.186828951,
				"element": "C" 
			},
			{
				"x": 1.9063867985,
				"y": -1.8825023808,
				"z": -0.9904601421,
				"element": "C" 
			},
			{
				"x": 1.0000470464,
				"y": 0.4902851957,
				"z": -0.5528306168,
				"element": "C" 
			},
			{
				"x": 1.3093744954,
				"y": 1.1492825299,
				"z": -1.8713031024,
				"element": "C" 
			},
			{
				"x": 2.3911440684,
				"y": 2.2091005829,
				"z": -1.7362467649,
				"element": "C" 
			},
			{
				"x": 3.6307235044,
				"y": 1.6682150902,
				"z": -1.7439694443,
				"element": "O" 
			},
			{
				"x": 2.1979297938,
				"y": 3.4001240683,
				"z": -1.6159618509,
				"element": "O" 
			},
			{
				"x": 0.3418292827,
				"y": 1.1523138142,
				"z": 0.5498348905,
				"element": "C" 
			},
			{
				"x": -0.0785483256,
				"y": 2.4823542984,
				"z": 0.7104669218,
				"element": "C" 
			},
			{
				"x": -1.3710592182,
				"y": 6.0221154073,
				"z": 1.667511354,
				"element": "H" 
			},
			{
				"x": -1.5267621526,
				"y": 4.8616637059,
				"z": 0.3206178904,
				"element": "H" 
			},
			{
				"x": 0.0875152004,
				"y": 5.2693774184,
				"z": 0.9643164073,
				"element": "H" 
			},
			{
				"x": -1.2438760472,
				"y": 2.2277261563,
				"z": 3.8932152074,
				"element": "H" 
			},
			{
				"x": -0.5017314937,
				"y": -0.1147194864,
				"z": 3.6199037419,
				"element": "H" 
			},
			{
				"x": 0.5153473357,
				"y": -2.6658690502,
				"z": 3.9133281605,
				"element": "H" 
			},
			{
				"x": -1.8279014952,
				"y": -2.9081989244,
				"z": 3.9427949956,
				"element": "H" 
			},
			{
				"x": -3.9146119452,
				"y": -1.8841422201,
				"z": 3.0772422922,
				"element": "H" 
			},
			{
				"x": -5.5392318675,
				"y": -1.7354458112,
				"z": 1.2179504543,
				"element": "H" 
			},
			{
				"x": -4.8652297516,
				"y": -2.4034211379,
				"z": -1.0817680252,
				"element": "H" 
			},
			{
				"x": -2.5620983465,
				"y": -3.242804312,
				"z": -1.4957311534,
				"element": "H" 
			},
			{
				"x": -0.9473857897,
				"y": -3.4105027551,
				"z": 0.364344065,
				"element": "H" 
			},
			{
				"x": 2.8527784896,
				"y": -2.2010034628,
				"z": -0.5479627021,
				"element": "H" 
			},
			{
				"x": 2.0993590928,
				"y": -1.5158038076,
				"z": -2.0009552985,
				"element": "H" 
			},
			{
				"x": 1.2812174956,
				"y": -2.7772205917,
				"z": -1.0624639583,
				"element": "H" 
			},
			{
				"x": 1.6332348058,
				"y": 0.4110586074,
				"z": -2.6084995218,
				"element": "H" 
			},
			{
				"x": 0.4193901,
				"y": 1.6557259077,
				"z": -2.2572656867,
				"element": "H" 
			},
			{
				"x": 4.2501510105,
				"y": 2.4058334103,
				"z": -1.6120204803,
				"element": "H" 
			},
			{
				"x": 0.0901691987,
				"y": 3.1988340413,
				"z": -0.0834533832,
				"element": "H" 
			}
		],
		 "valence_orbital": [ 
			{
				"type": "occ",
				"energy": -0.26698,
				"method": "rhf"
			},
			{
				"type": "occ",
				"energy": -0.25652,
				"method": "rhf"
			},
			{
				"type": "occ",
				"energy": -0.23488,
				"method": "rhf"
			},
			{
				"type": "occ",
				"energy": -0.20765,
				"method": "rhf"
			},
			{
				"type": "occ",
				"energy": -0.2026,
				"method": "rhf"
			},
			{
				"type": "unocc",
				"energy": -0.05271,
				"method": "rhf"
			},
			{
				"type": "unocc",
				"energy": -0.0255,
				"method": "rhf"
			},
			{
				"type": "unocc",
				"energy": -0.00651,
				"method": "rhf"
			},
			{
				"type": "unocc",
				"energy": -0.00165,
				"method": "rhf"
			},
			{
				"type": "unocc",
				"energy": 0.00813,
				"method": "rhf"
			}
		],
		"cosmo_sigma_profile": { 
			"-0.025": 0.0,
			"-0.024": 0.0,
			"-0.023": 0.0,
			"-0.022": 0.0,
			"-0.021": 0.0,
			"-0.02": 0.0,
			"-0.019": 0.0429894014396,
			"-0.018": 0.825237961397,
			"-0.017": 0.900635378798,
			"-0.016": 1.03275575819,
			"-0.015": 0.542935675332,
			"-0.014": 0.774180323886,
			"-0.013": 0.404227035496,
			"-0.012": 0.683577901642,
			"-0.011": 1.19343091319,
			"-0.01": 0.612376878186,
			"-0.009": 0.310952068791,
			"-0.008": 1.90068781657,
			"-0.007": 7.47620498532,
			"-0.006": 20.7385994195,
			"-0.005": 32.0943760745,
			"-0.004": 39.419855774,
			"-0.003": 35.4461038213,
			"-0.002": 27.2612753957,
			"-0.001": 25.3181080656,
			"0.0": 22.4396023399,
			"0.001": 20.2789468765,
			"0.002": 24.0463468917,
			"0.003": 24.5939430806,
			"0.004": 30.0419203805,
			"0.005": 27.6501335245,
			"0.006": 7.51149070551,
			"0.007": 7.02460564194,
			"0.008": 4.81308329304,
			"0.009": 5.52486835835,
			"0.01": 6.26048595297,
			"0.011": 6.16644687109,
			"0.012": 5.67497526594,
			"0.013": 1.09552443942,
			"0.014": 0.00860838518894,
			"0.015": 0.0,
			"0.016": 0.0,
			"0.017": 0.0,
			"0.018": 0.0,
			"0.019": 0.0,
			"0.02": 0.0,
			"0.021": 0.0,
			"0.022": 0.0,
			"0.023": 0.0,
			"0.024": 0.0,
			"0.025": 0.0
		}
	}
}
