{
	 "smiles": "CC1=CC(Cl)=NC(N)=N1", 
	 "Tm": 456.65, 
	 "num_atms": 15, 
	 "gaussian": { 
		 "optdone": 1, 
		 "sigma_profile": "yes", 
		 "theory": "DFT", 
		 "functional": "B3LYP", 
		 "basiset": "6-31G**", 
		 "properties": { 
			 "R2extent": 2407.8243, 
			 "electric_dipole_moment_norm": 2.37698388299, 
			 "electric_quadrupole_moment_norm": 14.4264064032, 
			 "total_energy": -818.618252607, 
			 "HOMO_LUMO_gap": 0.19853, 
			 "cosmo_polarized_energy": -9.09, 
			 "cosmo_cavitation_energy": 21.15, 
			 "cosmo_dispersion_energy": -16.16, 
			 "cosmo_repulsion_energy": 1.36, 
			 "cosmo_total_nonelectrostatic_energy": 6.35, 
			 "SMD_solvation_energy": 0.7 
		},
		"coords": [
			{
				"x": 1.4865416723,
				"y": -0.8805815991,
				"z": 2.3789332483,
				"element": "C" 
			},
			{
				"x": 0.5518197936,
				"y": 0.1658241611,
				"z": 1.8332279402,
				"element": "C" 
			},
			{
				"x": 1.0287425892,
				"y": 1.3779691076,
				"z": 1.3213701123,
				"element": "C" 
			},
			{
				"x": 0.0530279338,
				"y": 2.2504105598,
				"z": 0.8419846014,
				"element": "C" 
			},
			{
				"x": 0.5556156574,
				"y": 3.7969170801,
				"z": 0.1637827014,
				"element": "Cl" 
			},
			{
				"x": -1.2389475572,
				"y": 2.0050412841,
				"z": 0.8523612866,
				"element": "N" 
			},
			{
				"x": -1.5897732968,
				"y": 0.8085598794,
				"z": 1.3778148772,
				"element": "C" 
			},
			{
				"x": -2.9227961447,
				"y": 0.5435521315,
				"z": 1.4346822631,
				"element": "N" 
			},
			{
				"x": -0.7557472795,
				"y": -0.1260050595,
				"z": 1.862749603,
				"element": "N" 
			},
			{
				"x": 1.3519763389,
				"y": -1.8217392529,
				"z": 1.8364462189,
				"element": "H" 
			},
			{
				"x": 1.2519324587,
				"y": -1.0802025996,
				"z": 3.4293867033,
				"element": "H" 
			},
			{
				"x": 2.5317077737,
				"y": -0.5726981178,
				"z": 2.3016865251,
				"element": "H" 
			},
			{
				"x": 2.0818364572,
				"y": 1.6222824322,
				"z": 1.2919354281,
				"element": "H" 
			},
			{
				"x": -3.2070025561,
				"y": -0.3953619105,
				"z": 1.6602902376,
				"element": "H" 
			},
			{
				"x": -3.5492338406,
				"y": 1.1461319037,
				"z": 0.9268482535,
				"element": "H" 
			}
		],
		 "valence_orbital": [ 
			{
				"type": "occ",
				"energy": -0.31254,
				"method": "rhf"
			},
			{
				"type": "occ",
				"energy": -0.31173,
				"method": "rhf"
			},
			{
				"type": "occ",
				"energy": -0.2892,
				"method": "rhf"
			},
			{
				"type": "occ",
				"energy": -0.2576,
				"method": "rhf"
			},
			{
				"type": "occ",
				"energy": -0.23305,
				"method": "rhf"
			},
			{
				"type": "unocc",
				"energy": -0.03452,
				"method": "rhf"
			},
			{
				"type": "unocc",
				"energy": -0.00323,
				"method": "rhf"
			},
			{
				"type": "unocc",
				"energy": 0.03502,
				"method": "rhf"
			},
			{
				"type": "unocc",
				"energy": 0.08765,
				"method": "rhf"
			},
			{
				"type": "unocc",
				"energy": 0.11127,
				"method": "rhf"
			}
		],
		"cosmo_sigma_profile": { 
			"-0.025": 0.0,
			"-0.024": 0.0,
			"-0.023": 0.0,
			"-0.022": 0.0,
			"-0.021": 0.0,
			"-0.02": 0.0,
			"-0.019": 0.0,
			"-0.018": 0.0,
			"-0.017": 0.0,
			"-0.016": 0.0,
			"-0.015": 0.0152889554356,
			"-0.014": 1.49088922607,
			"-0.013": 2.21683150834,
			"-0.012": 1.70410509561,
			"-0.011": 2.06686741044,
			"-0.01": 2.57223936534,
			"-0.009": 1.52337606346,
			"-0.008": 1.57138988111,
			"-0.007": 4.29511740393,
			"-0.006": 4.80516141404,
			"-0.005": 7.64740242397,
			"-0.004": 8.18533347898,
			"-0.003": 8.49261342739,
			"-0.002": 12.3265677301,
			"-0.001": 17.9364100885,
			"0.0": 18.5551490376,
			"0.001": 13.4755713131,
			"0.002": 10.8588418401,
			"0.003": 9.68247602386,
			"0.004": 13.5073663146,
			"0.005": 6.61911535768,
			"0.006": 4.36166016969,
			"0.007": 4.04308097309,
			"0.008": 2.68498488671,
			"0.009": 2.15050461646,
			"0.01": 2.3025180591,
			"0.011": 1.80291439794,
			"0.012": 1.29703126308,
			"0.013": 1.76711262712,
			"0.014": 0.573970148141,
			"0.015": 0.259165410081,
			"0.016": 0.0,
			"0.017": 0.0,
			"0.018": 0.0,
			"0.019": 0.0,
			"0.02": 0.0,
			"0.021": 0.0,
			"0.022": 0.0,
			"0.023": 0.0,
			"0.024": 0.0,
			"0.025": 0.0
		}
	}
}
