{
	 "smiles": "ClC1=C2C(SC=C2C2=CC=CC=C2)=NC(CN2CCCCC2)=N1", 
	 "Tm": 353.15, 
	 "num_atms": 41, 
	 "gaussian": { 
		 "optdone": 1, 
		 "sigma_profile": "yes", 
		 "theory": "DFT", 
		 "functional": "B3LYP", 
		 "basiset": "6-31G**", 
		 "properties": { 
			 "R2extent": 11111.736, 
			 "electric_dipole_moment_norm": 2.70670121181, 
			 "electric_quadrupole_moment_norm": 14.2691722882, 
			 "total_energy": -1719.39202933, 
			 "HOMO_LUMO_gap": 0.14077, 
			 "cosmo_polarized_energy": -8.98, 
			 "cosmo_cavitation_energy": 46.05, 
			 "cosmo_dispersion_energy": -32.81, 
			 "cosmo_repulsion_energy": 2.48, 
			 "cosmo_total_nonelectrostatic_energy": 15.72, 
			 "SMD_solvation_energy": 2.1 
		},
		"coords": [
			{
				"x": 1.3624301313,
				"y": 2.8549414241,
				"z": 1.4168995026,
				"element": "Cl" 
			},
			{
				"x": 0.9072757395,
				"y": 1.1979893762,
				"z": 1.0547585344,
				"element": "C" 
			},
			{
				"x": 1.8426805887,
				"y": 0.2770753068,
				"z": 0.5401854359,
				"element": "C" 
			},
			{
				"x": 1.2963240059,
				"y": -1.0307164853,
				"z": 0.4228216424,
				"element": "C" 
			},
			{
				"x": 2.499695912,
				"y": -2.1874289562,
				"z": -0.1088063825,
				"element": "S" 
			},
			{
				"x": 3.6934374934,
				"y": -0.9174090413,
				"z": -0.1853661854,
				"element": "C" 
			},
			{
				"x": 3.2445021001,
				"y": 0.3259159179,
				"z": 0.1622063152,
				"element": "C" 
			},
			{
				"x": 4.1425350539,
				"y": 1.5089371623,
				"z": 0.0938311152,
				"element": "C" 
			},
			{
				"x": 5.335449839,
				"y": 1.5254510765,
				"z": 0.8318111195,
				"element": "C" 
			},
			{
				"x": 6.2233903964,
				"y": 2.5967473388,
				"z": 0.7241564674,
				"element": "C" 
			},
			{
				"x": 5.9321214843,
				"y": 3.6644471733,
				"z": -0.1252770999,
				"element": "C" 
			},
			{
				"x": 4.7489733341,
				"y": 3.6548659883,
				"z": -0.8683085713,
				"element": "C" 
			},
			{
				"x": 3.8615166098,
				"y": 2.5860010317,
				"z": -0.761484947,
				"element": "C" 
			},
			{
				"x": 0.0440755079,
				"y": -1.3828195259,
				"z": 0.6990782411,
				"element": "N" 
			},
			{
				"x": -0.7441614696,
				"y": -0.3940844799,
				"z": 1.1311962697,
				"element": "C" 
			},
			{
				"x": -2.2087643741,
				"y": -0.7136584156,
				"z": 1.3816087895,
				"element": "C" 
			},
			{
				"x": -3.0947556358,
				"y": -0.5126091911,
				"z": 0.2396724198,
				"element": "N" 
			},
			{
				"x": -2.8478326965,
				"y": -1.3642413188,
				"z": -0.9232121053,
				"element": "C" 
			},
			{
				"x": -4.1525952599,
				"y": -1.5048718054,
				"z": -1.7418078683,
				"element": "C" 
			},
			{
				"x": -5.0379650672,
				"y": -0.2468705938,
				"z": -1.6004535675,
				"element": "C" 
			},
			{
				"x": -4.1597582325,
				"y": 0.9948619108,
				"z": -1.4138507017,
				"element": "C" 
			},
			{
				"x": -3.3329811729,
				"y": 0.8932679578,
				"z": -0.1132708211,
				"element": "C" 
			},
			{
				"x": -0.3403340356,
				"y": 0.8815606612,
				"z": 1.32916007,
				"element": "N" 
			},
			{
				"x": 4.6923167169,
				"y": -1.1527926655,
				"z": -0.5274539026,
				"element": "H" 
			},
			{
				"x": 5.5566473104,
				"y": 0.6994853784,
				"z": 1.5014978444,
				"element": "H" 
			},
			{
				"x": 7.1396639889,
				"y": 2.597255913,
				"z": 1.3075145497,
				"element": "H" 
			},
			{
				"x": 6.6216791818,
				"y": 4.4994131143,
				"z": -0.2090142365,
				"element": "H" 
			},
			{
				"x": 4.5185899198,
				"y": 4.4798533051,
				"z": -1.5362053763,
				"element": "H" 
			},
			{
				"x": 2.9481747699,
				"y": 2.579851048,
				"z": -1.3482528077,
				"element": "H" 
			},
			{
				"x": -2.2738456249,
				"y": -1.7624767026,
				"z": 1.6886193549,
				"element": "H" 
			},
			{
				"x": -2.5628465682,
				"y": -0.0809975501,
				"z": 2.2024030458,
				"element": "H" 
			},
			{
				"x": -2.0357504648,
				"y": -0.9733836384,
				"z": -1.5640888412,
				"element": "H" 
			},
			{
				"x": -2.5057484009,
				"y": -2.3418464009,
				"z": -0.5708947781,
				"element": "H" 
			},
			{
				"x": -3.8951379793,
				"y": -1.6738006427,
				"z": -2.7946714338,
				"element": "H" 
			},
			{
				"x": -4.7109140006,
				"y": -2.385950214,
				"z": -1.4073017591,
				"element": "H" 
			},
			{
				"x": -5.6870946925,
				"y": -0.1359075873,
				"z": -2.4761773383,
				"element": "H" 
			},
			{
				"x": -5.694599591,
				"y": -0.3542236258,
				"z": -0.7298929807,
				"element": "H" 
			},
			{
				"x": -4.7615415785,
				"y": 1.9098080656,
				"z": -1.3908947908,
				"element": "H" 
			},
			{
				"x": -3.4878628098,
				"y": 1.0907842204,
				"z": -2.2765028138,
				"element": "H" 
			},
			{
				"x": -2.398034655,
				"y": 1.4671693337,
				"z": -0.2273161948,
				"element": "H" 
			},
			{
				"x": -3.8797557742,
				"y": 1.3519061364,
				"z": 0.7217847863,
				"element": "H" 
			}
		],
		 "valence_orbital": [ 
			{
				"type": "occ",
				"energy": -0.26686,
				"method": "rhf"
			},
			{
				"type": "occ",
				"energy": -0.26111,
				"method": "rhf"
			},
			{
				"type": "occ",
				"energy": -0.25573,
				"method": "rhf"
			},
			{
				"type": "occ",
				"energy": -0.23346,
				"method": "rhf"
			},
			{
				"type": "occ",
				"energy": -0.19897,
				"method": "rhf"
			},
			{
				"type": "unocc",
				"energy": -0.0582,
				"method": "rhf"
			},
			{
				"type": "unocc",
				"energy": -0.04034,
				"method": "rhf"
			},
			{
				"type": "unocc",
				"energy": -0.02101,
				"method": "rhf"
			},
			{
				"type": "unocc",
				"energy": -0.0075,
				"method": "rhf"
			},
			{
				"type": "unocc",
				"energy": 0.00729,
				"method": "rhf"
			}
		],
		"cosmo_sigma_profile": { 
			"-0.025": 0.0,
			"-0.024": 0.0,
			"-0.023": 0.0,
			"-0.022": 0.0,
			"-0.021": 0.0,
			"-0.02": 0.0,
			"-0.019": 0.0,
			"-0.018": 0.0,
			"-0.017": 0.0,
			"-0.016": 0.0,
			"-0.015": 0.0,
			"-0.014": 0.0,
			"-0.013": 0.0,
			"-0.012": 0.0,
			"-0.011": 0.0,
			"-0.01": 0.871378201659,
			"-0.009": 1.97860915266,
			"-0.008": 1.47249340183,
			"-0.007": 2.06350517054,
			"-0.006": 7.48228761947,
			"-0.005": 15.234674474,
			"-0.004": 20.2074603979,
			"-0.003": 29.6513134525,
			"-0.002": 47.8479023255,
			"-0.001": 51.9763405067,
			"0.0": 47.1807616385,
			"0.001": 39.105328255,
			"0.002": 25.4112696908,
			"0.003": 21.8876335985,
			"0.004": 18.4050186661,
			"0.005": 16.2115199588,
			"0.006": 6.73232362633,
			"0.007": 3.37597342415,
			"0.008": 3.36564544747,
			"0.009": 2.40897179967,
			"0.01": 1.74883288479,
			"0.011": 2.23486383495,
			"0.012": 1.23782254155,
			"0.013": 0.935250795491,
			"0.014": 0.2051216771,
			"0.015": 0.0,
			"0.016": 0.0,
			"0.017": 0.0,
			"0.018": 0.0,
			"0.019": 0.0,
			"0.02": 0.0,
			"0.021": 0.0,
			"0.022": 0.0,
			"0.023": 0.0,
			"0.024": 0.0,
			"0.025": 0.0
		}
	}
}
