{
	 "smiles": "CC(C)C(Br)C(=O)NC(C)(C)C", 
	 "Tm": 409.15, 
	 "num_atms": 30, 
	 "gaussian": { 
		 "optdone": 1, 
		 "sigma_profile": "yes", 
		 "theory": "DFT", 
		 "functional": "B3LYP", 
		 "basiset": "6-31G**", 
		 "properties": { 
			 "R2extent": 3832.3325, 
			 "electric_dipole_moment_norm": 1.61861853752, 
			 "electric_quadrupole_moment_norm": 9.92755516681, 
			 "total_energy": -3055.23501907, 
			 "HOMO_LUMO_gap": 0.24024, 
			 "cosmo_polarized_energy": -7.65, 
			 "cosmo_cavitation_energy": 32.51, 
			 "cosmo_dispersion_energy": -22.46, 
			 "cosmo_repulsion_energy": 1.79, 
			 "cosmo_total_nonelectrostatic_energy": 11.84, 
			 "SMD_solvation_energy": 4.91 
		},
		"coords": [
			{
				"x": -0.0412857463,
				"y": -3.932761909,
				"z": -1.18123099,
				"element": "C" 
			},
			{
				"x": -0.0794332035,
				"y": -2.5974790515,
				"z": -0.42910412,
				"element": "C" 
			},
			{
				"x": 1.1883505117,
				"y": -2.3737676727,
				"z": 0.4050771081,
				"element": "C" 
			},
			{
				"x": -0.4142266117,
				"y": -1.4139931463,
				"z": -1.3561511163,
				"element": "C" 
			},
			{
				"x": 1.0143034433,
				"y": -1.1346292481,
				"z": -2.7495946968,
				"element": "Br" 
			},
			{
				"x": -0.7762042108,
				"y": -0.1485044669,
				"z": -0.5528437448,
				"element": "C" 
			},
			{
				"x": -1.7599877565,
				"y": -0.2461404282,
				"z": 0.1805773247,
				"element": "O" 
			},
			{
				"x": -0.0057958061,
				"y": 0.9510908963,
				"z": -0.6817188161,
				"element": "N" 
			},
			{
				"x": -0.2330147944,
				"y": 2.244577919,
				"z": 0.0083510629,
				"element": "C" 
			},
			{
				"x": -0.1501999488,
				"y": 2.0443834211,
				"z": 1.5328218565,
				"element": "C" 
			},
			{
				"x": -1.6065664688,
				"y": 2.81647944,
				"z": -0.3895347348,
				"element": "C" 
			},
			{
				"x": 0.8871548119,
				"y": 3.1848806317,
				"z": -0.4619304797,
				"element": "C" 
			},
			{
				"x": 0.0764925071,
				"y": -4.7604926251,
				"z": -0.4746966069,
				"element": "H" 
			},
			{
				"x": 0.7958044059,
				"y": -3.9685484253,
				"z": -1.8852444782,
				"element": "H" 
			},
			{
				"x": -0.9651761806,
				"y": -4.1021237893,
				"z": -1.7449156329,
				"element": "H" 
			},
			{
				"x": -0.9392130453,
				"y": -2.6116739957,
				"z": 0.2539763651,
				"element": "H" 
			},
			{
				"x": 2.076887711,
				"y": -2.3323105609,
				"z": -0.2326647089,
				"element": "H" 
			},
			{
				"x": 1.3206031456,
				"y": -3.1959720148,
				"z": 1.1150838259,
				"element": "H" 
			},
			{
				"x": 1.1361163185,
				"y": -1.4434489051,
				"z": 0.9790304799,
				"element": "H" 
			},
			{
				"x": -1.288647575,
				"y": -1.6554459008,
				"z": -1.9614443757,
				"element": "H" 
			},
			{
				"x": 0.7527123278,
				"y": 0.898280741,
				"z": -1.3485633093,
				"element": "H" 
			},
			{
				"x": -0.9148387382,
				"y": 1.3413590782,
				"z": 1.867364525,
				"element": "H" 
			},
			{
				"x": 0.8334628613,
				"y": 1.6563965948,
				"z": 1.8173326322,
				"element": "H" 
			},
			{
				"x": -0.3020690835,
				"y": 2.999971239,
				"z": 2.0453234955,
				"element": "H" 
			},
			{
				"x": -2.4044898839,
				"y": 2.1325222575,
				"z": -0.0952404621,
				"element": "H" 
			},
			{
				"x": -1.7694268548,
				"y": 3.7798993186,
				"z": 0.1046100653,
				"element": "H" 
			},
			{
				"x": -1.6599335334,
				"y": 2.9733568216,
				"z": -1.4718141791,
				"element": "H" 
			},
			{
				"x": 0.7799543412,
				"y": 4.1635465012,
				"z": 0.0137514008,
				"element": "H" 
			},
			{
				"x": 0.8506373477,
				"y": 3.3330000625,
				"z": -1.5471269974,
				"element": "H" 
			},
			{
				"x": 1.8738297084,
				"y": 2.7881472173,
				"z": -0.197980693,
				"element": "H" 
			}
		],
		 "valence_orbital": [ 
			{
				"type": "occ",
				"energy": -0.32833,
				"method": "rhf"
			},
			{
				"type": "occ",
				"energy": -0.29343,
				"method": "rhf"
			},
			{
				"type": "occ",
				"energy": -0.28164,
				"method": "rhf"
			},
			{
				"type": "occ",
				"energy": -0.25602,
				"method": "rhf"
			},
			{
				"type": "occ",
				"energy": -0.24842,
				"method": "rhf"
			},
			{
				"type": "unocc",
				"energy": -0.00818,
				"method": "rhf"
			},
			{
				"type": "unocc",
				"energy": 0.0201,
				"method": "rhf"
			},
			{
				"type": "unocc",
				"energy": 0.07262,
				"method": "rhf"
			},
			{
				"type": "unocc",
				"energy": 0.09363,
				"method": "rhf"
			},
			{
				"type": "unocc",
				"energy": 0.11375,
				"method": "rhf"
			}
		],
		"cosmo_sigma_profile": { 
			"-0.025": 0.0,
			"-0.024": 0.0,
			"-0.023": 0.0,
			"-0.022": 0.0,
			"-0.021": 0.0,
			"-0.02": 0.0,
			"-0.019": 0.0,
			"-0.018": 0.0,
			"-0.017": 0.0,
			"-0.016": 0.0,
			"-0.015": 0.0,
			"-0.014": 0.0,
			"-0.013": 0.0,
			"-0.012": 0.0,
			"-0.011": 0.0,
			"-0.01": 0.0,
			"-0.009": 0.257676418668,
			"-0.008": 2.30405183121,
			"-0.007": 3.26042378108,
			"-0.006": 3.94963024382,
			"-0.005": 4.3969114249,
			"-0.004": 13.5262364315,
			"-0.003": 30.701373249,
			"-0.002": 30.6102671739,
			"-0.001": 33.3750507157,
			"0.0": 40.2364253735,
			"0.001": 38.9207545839,
			"0.002": 12.6778627059,
			"0.003": 7.31191273224,
			"0.004": 8.71928454197,
			"0.005": 7.0310504463,
			"0.006": 3.65539200564,
			"0.007": 1.548485973,
			"0.008": 1.84437079733,
			"0.009": 1.72246907826,
			"0.01": 0.747114508034,
			"0.011": 1.2999548383,
			"0.012": 2.08372010122,
			"0.013": 2.66670986692,
			"0.014": 1.99375184136,
			"0.015": 0.0641623632549,
			"0.016": 0.0,
			"0.017": 0.0,
			"0.018": 0.0,
			"0.019": 0.0,
			"0.02": 0.0,
			"0.021": 0.0,
			"0.022": 0.0,
			"0.023": 0.0,
			"0.024": 0.0,
			"0.025": 0.0
		}
	}
}
