{
	 "smiles": "CCCC(O)CCC", 
	 "Tm": 231.55, 
	 "num_atms": 24, 
	 "gaussian": { 
		 "optdone": 1, 
		 "sigma_profile": "yes", 
		 "theory": "DFT", 
		 "functional": "B3LYP", 
		 "basiset": "6-31G**", 
		 "properties": { 
			 "R2extent": 1509.382, 
			 "electric_dipole_moment_norm": 1.39317385491, 
			 "electric_quadrupole_moment_norm": 5.63210166457, 
			 "total_energy": -351.620726575, 
			 "HOMO_LUMO_gap": 0.33036, 
			 "cosmo_polarized_energy": -5.6, 
			 "cosmo_cavitation_energy": 24.34, 
			 "cosmo_dispersion_energy": -17.5, 
			 "cosmo_repulsion_energy": 1.47, 
			 "cosmo_total_nonelectrostatic_energy": 8.31, 
			 "SMD_solvation_energy": 3.93 
		},
		"coords": [
			{
				"x": 1.7142838964,
				"y": 1.1359369072,
				"z": 1.2804326211,
				"element": "C" 
			},
			{
				"x": 0.2585300969,
				"y": 1.2946760896,
				"z": 0.8229188714,
				"element": "C" 
			},
			{
				"x": -0.4301387309,
				"y": -0.0013066931,
				"z": 0.3446148542,
				"element": "C" 
			},
			{
				"x": -0.3495767993,
				"y": -0.2942142257,
				"z": -1.1681615918,
				"element": "C" 
			},
			{
				"x": -0.8863198443,
				"y": 0.796715904,
				"z": -1.925685795,
				"element": "O" 
			},
			{
				"x": 1.0510694026,
				"y": -0.5300864095,
				"z": -1.7432759971,
				"element": "C" 
			},
			{
				"x": 1.8076349974,
				"y": -1.7508472928,
				"z": -1.195796226,
				"element": "C" 
			},
			{
				"x": 1.1500998124,
				"y": -3.1022810523,
				"z": -1.5051710163,
				"element": "C" 
			},
			{
				"x": 1.791849095,
				"y": 0.414407285,
				"z": 2.1023705599,
				"element": "H" 
			},
			{
				"x": 2.3688162428,
				"y": 0.7893017372,
				"z": 0.4756902588,
				"element": "H" 
			},
			{
				"x": 2.115428783,
				"y": 2.0894416893,
				"z": 1.6407967101,
				"element": "H" 
			},
			{
				"x": -0.3169675767,
				"y": 1.7048740378,
				"z": 1.6620027273,
				"element": "H" 
			},
			{
				"x": 0.1922828985,
				"y": 2.0373512263,
				"z": 0.0192033016,
				"element": "H" 
			},
			{
				"x": -1.5006934045,
				"y": 0.0562075501,
				"z": 0.5907581314,
				"element": "H" 
			},
			{
				"x": -0.0530255728,
				"y": -0.8665163266,
				"z": 0.9060751621,
				"element": "H" 
			},
			{
				"x": -0.9551086073,
				"y": -1.1966552471,
				"z": -1.3547790302,
				"element": "H" 
			},
			{
				"x": -1.7905304036,
				"y": 0.95036717,
				"z": -1.6216702435,
				"element": "H" 
			},
			{
				"x": 1.6457555255,
				"y": 0.3778575441,
				"z": -1.5913516727,
				"element": "H" 
			},
			{
				"x": 0.9329667629,
				"y": -0.6335362808,
				"z": -2.8293036883,
				"element": "H" 
			},
			{
				"x": 2.8165360061,
				"y": -1.7430421494,
				"z": -1.6271062745,
				"element": "H" 
			},
			{
				"x": 1.9480908719,
				"y": -1.6529197016,
				"z": -0.1120453169,
				"element": "H" 
			},
			{
				"x": 0.9918884034,
				"y": -3.2262375579,
				"z": -2.5827467152,
				"element": "H" 
			},
			{
				"x": 1.7791598724,
				"y": -3.9312713061,
				"z": -1.1643491257,
				"element": "H" 
			},
			{
				"x": 0.1766682721,
				"y": -3.2095228975,
				"z": -1.0152205048,
				"element": "H" 
			}
		],
		 "valence_orbital": [ 
			{
				"type": "occ",
				"energy": -0.33055,
				"method": "rhf"
			},
			{
				"type": "occ",
				"energy": -0.32459,
				"method": "rhf"
			},
			{
				"type": "occ",
				"energy": -0.31637,
				"method": "rhf"
			},
			{
				"type": "occ",
				"energy": -0.29725,
				"method": "rhf"
			},
			{
				"type": "occ",
				"energy": -0.25899,
				"method": "rhf"
			},
			{
				"type": "unocc",
				"energy": 0.07137,
				"method": "rhf"
			},
			{
				"type": "unocc",
				"energy": 0.08992,
				"method": "rhf"
			},
			{
				"type": "unocc",
				"energy": 0.10488,
				"method": "rhf"
			},
			{
				"type": "unocc",
				"energy": 0.12454,
				"method": "rhf"
			},
			{
				"type": "unocc",
				"energy": 0.12756,
				"method": "rhf"
			}
		],
		"cosmo_sigma_profile": { 
			"-0.025": 0.0,
			"-0.024": 0.0,
			"-0.023": 0.0,
			"-0.022": 0.0,
			"-0.021": 0.0,
			"-0.02": 0.0,
			"-0.019": 0.0,
			"-0.018": 0.0,
			"-0.017": 0.0,
			"-0.016": 0.0,
			"-0.015": 0.331160746282,
			"-0.014": 0.950018379886,
			"-0.013": 0.748584123907,
			"-0.012": 1.06711231323,
			"-0.011": 0.71619457829,
			"-0.01": 1.04556908191,
			"-0.009": 0.98542929207,
			"-0.008": 1.00165825012,
			"-0.007": 0.886388241534,
			"-0.006": 0.932272918717,
			"-0.005": 1.61306300831,
			"-0.004": 1.26646233058,
			"-0.003": 9.5651378259,
			"-0.002": 29.8741986476,
			"-0.001": 33.2677261486,
			"0.0": 35.9824641384,
			"0.001": 32.2360872711,
			"0.002": 14.5826969004,
			"0.003": 2.7914014603,
			"0.004": 1.8772017993,
			"0.005": 1.65565338814,
			"0.006": 1.14148547162,
			"0.007": 1.30176054872,
			"0.008": 1.08395372123,
			"0.009": 1.47310512654,
			"0.01": 1.35325766452,
			"0.011": 1.5866085069,
			"0.012": 1.01169813254,
			"0.013": 0.786983980909,
			"0.014": 2.07045274216,
			"0.015": 1.17431402836,
			"0.016": 0.0,
			"0.017": 0.0,
			"0.018": 0.0,
			"0.019": 0.0,
			"0.02": 0.0,
			"0.021": 0.0,
			"0.022": 0.0,
			"0.023": 0.0,
			"0.024": 0.0,
			"0.025": 0.0
		}
	}
}
