{
	 "smiles": "FC1=CC=C(CC2=CN=C(NC(=O)CCl)S2)C=C1", 
	 "Tm": 423.15, 
	 "num_atms": 28, 
	 "gaussian": { 
		 "optdone": 1, 
		 "sigma_profile": "yes", 
		 "theory": "DFT", 
		 "functional": "B3LYP", 
		 "basiset": "6-31G**", 
		 "properties": { 
			 "R2extent": 8789.1627, 
			 "electric_dipole_moment_norm": 4.01796092191, 
			 "electric_quadrupole_moment_norm": 21.3604352041, 
			 "total_energy": -1606.2480794, 
			 "HOMO_LUMO_gap": 0.18144, 
			 "cosmo_polarized_energy": -13.99, 
			 "cosmo_cavitation_energy": 37.33, 
			 "cosmo_dispersion_energy": -26.31, 
			 "cosmo_repulsion_energy": 2.0, 
			 "cosmo_total_nonelectrostatic_energy": 13.02, 
			 "SMD_solvation_energy": 5.94 
		},
		"coords": [
			{
				"x": -2.3377948228,
				"y": -4.767375251,
				"z": -0.2093185614,
				"element": "F" 
			},
			{
				"x": -1.6235014938,
				"y": -3.8063360943,
				"z": 0.4122790578,
				"element": "C" 
			},
			{
				"x": -1.606159084,
				"y": -3.7678350204,
				"z": 1.80029054,
				"element": "C" 
			},
			{
				"x": -0.8643483694,
				"y": -2.7672551584,
				"z": 2.4313950552,
				"element": "C" 
			},
			{
				"x": -0.1489182581,
				"y": -1.8191678931,
				"z": 1.6914447974,
				"element": "C" 
			},
			{
				"x": 0.6794143556,
				"y": -0.7519750093,
				"z": 2.3936906844,
				"element": "C" 
			},
			{
				"x": 0.4115307019,
				"y": 0.6581363703,
				"z": 1.9496586725,
				"element": "C" 
			},
			{
				"x": 1.2752749348,
				"y": 1.5605788364,
				"z": 1.4025075875,
				"element": "C" 
			},
			{
				"x": 0.7866963628,
				"y": 2.8185354344,
				"z": 1.12310474,
				"element": "N" 
			},
			{
				"x": -0.4721373752,
				"y": 2.8953833317,
				"z": 1.4328195983,
				"element": "C" 
			},
			{
				"x": -1.2814255251,
				"y": 4.0134306192,
				"z": 1.278058906,
				"element": "N" 
			},
			{
				"x": -1.1015175604,
				"y": 5.1675188406,
				"z": 0.518128698,
				"element": "C" 
			},
			{
				"x": -1.8859294364,
				"y": 6.0904678382,
				"z": 0.6410385271,
				"element": "O" 
			},
			{
				"x": 0.0609445243,
				"y": 5.2247040732,
				"z": -0.4595241124,
				"element": "C" 
			},
			{
				"x": -0.2932740436,
				"y": 4.2060137916,
				"z": -1.9187699362,
				"element": "Cl" 
			},
			{
				"x": -1.167855206,
				"y": 1.4162044126,
				"z": 2.1006191526,
				"element": "S" 
			},
			{
				"x": -0.1925987002,
				"y": -1.8885832482,
				"z": 0.2914143227,
				"element": "C" 
			},
			{
				"x": -0.9266734617,
				"y": -2.8792665433,
				"z": -0.3568166224,
				"element": "C" 
			},
			{
				"x": -2.1650969847,
				"y": -4.5056237201,
				"z": 2.365603811,
				"element": "H" 
			},
			{
				"x": -0.8435620236,
				"y": -2.7285150954,
				"z": 3.517531067,
				"element": "H" 
			},
			{
				"x": 1.7477791859,
				"y": -0.9388289742,
				"z": 2.222985483,
				"element": "H" 
			},
			{
				"x": 0.5271679308,
				"y": -0.8391224026,
				"z": 3.4765896694,
				"element": "H" 
			},
			{
				"x": 2.3187770766,
				"y": 1.349182858,
				"z": 1.1963665821,
				"element": "H" 
			},
			{
				"x": -2.1338364151,
				"y": 4.0519155543,
				"z": 1.8234004696,
				"element": "H" 
			},
			{
				"x": 0.9826483249,
				"y": 4.8409812399,
				"z": -0.0270593854,
				"element": "H" 
			},
			{
				"x": 0.1526562836,
				"y": 6.2546741403,
				"z": -0.7970856496,
				"element": "H" 
			},
			{
				"x": 0.3483630376,
				"y": -1.1536703807,
				"z": -0.2983726928,
				"element": "H" 
			},
			{
				"x": -0.9680239589,
				"y": -2.9416725496,
				"z": -1.4388804614,
				"element": "H" 
			}
		],
		 "valence_orbital": [ 
			{
				"type": "occ",
				"energy": -0.2922,
				"method": "rhf"
			},
			{
				"type": "occ",
				"energy": -0.27442,
				"method": "rhf"
			},
			{
				"type": "occ",
				"energy": -0.26692,
				"method": "rhf"
			},
			{
				"type": "occ",
				"energy": -0.24702,
				"method": "rhf"
			},
			{
				"type": "occ",
				"energy": -0.23259,
				"method": "rhf"
			},
			{
				"type": "unocc",
				"energy": -0.05115,
				"method": "rhf"
			},
			{
				"type": "unocc",
				"energy": -0.02039,
				"method": "rhf"
			},
			{
				"type": "unocc",
				"energy": -0.01502,
				"method": "rhf"
			},
			{
				"type": "unocc",
				"energy": -0.01079,
				"method": "rhf"
			},
			{
				"type": "unocc",
				"energy": -0.00189,
				"method": "rhf"
			}
		],
		"cosmo_sigma_profile": { 
			"-0.025": 0.0,
			"-0.024": 0.0,
			"-0.023": 0.0,
			"-0.022": 0.0,
			"-0.021": 0.0,
			"-0.02": 0.0,
			"-0.019": 0.0,
			"-0.018": 0.0,
			"-0.017": 0.420919448028,
			"-0.016": 1.19283730709,
			"-0.015": 0.736556395102,
			"-0.014": 1.10830989449,
			"-0.013": 0.907960506156,
			"-0.012": 1.40894195819,
			"-0.011": 1.24695521321,
			"-0.01": 0.659311219443,
			"-0.009": 1.61582606277,
			"-0.008": 3.1175469741,
			"-0.007": 10.5316934915,
			"-0.006": 18.8621911236,
			"-0.005": 19.2032656618,
			"-0.004": 18.903383026,
			"-0.003": 14.9653834848,
			"-0.002": 17.4085524911,
			"-0.001": 17.0834117983,
			"0.0": 21.574742073,
			"0.001": 27.7145048193,
			"0.002": 24.4842654655,
			"0.003": 26.4143347584,
			"0.004": 28.2559966688,
			"0.005": 18.3501593369,
			"0.006": 8.19180406147,
			"0.007": 3.75149103298,
			"0.008": 2.18317740765,
			"0.009": 2.50939212909,
			"0.01": 2.24191603057,
			"0.011": 4.46334305814,
			"0.012": 3.59683481831,
			"0.013": 0.230181034074,
			"0.014": 0.0,
			"0.015": 0.0,
			"0.016": 0.0,
			"0.017": 0.0,
			"0.018": 0.0,
			"0.019": 0.0,
			"0.02": 0.0,
			"0.021": 0.0,
			"0.022": 0.0,
			"0.023": 0.0,
			"0.024": 0.0,
			"0.025": 0.0
		}
	}
}
