{
	 "smiles": "CCOC(=O)CC1=CC=CC=C1Br", 
	 "Tm": 310.15, 
	 "num_atms": 24, 
	 "gaussian": { 
		 "optdone": 1, 
		 "sigma_profile": "yes", 
		 "theory": "DFT", 
		 "functional": "B3LYP", 
		 "basiset": "6-31G**", 
		 "properties": { 
			 "R2extent": 3763.5921, 
			 "electric_dipole_moment_norm": 1.45821381834, 
			 "electric_quadrupole_moment_norm": 12.1179722524, 
			 "total_energy": -3109.56375318, 
			 "HOMO_LUMO_gap": 0.2274, 
			 "cosmo_polarized_energy": -9.49, 
			 "cosmo_cavitation_energy": 30.29, 
			 "cosmo_dispersion_energy": -21.47, 
			 "cosmo_repulsion_energy": 1.72, 
			 "cosmo_total_nonelectrostatic_energy": 10.53, 
			 "SMD_solvation_energy": 5.08 
		},
		"coords": [
			{
				"x": -0.3111415119,
				"y": -1.9804416627,
				"z": 3.6259122161,
				"element": "C" 
			},
			{
				"x": 0.6549043177,
				"y": -2.5088807264,
				"z": 2.5765359126,
				"element": "C" 
			},
			{
				"x": 1.2044280393,
				"y": -1.4299458282,
				"z": 1.7806578235,
				"element": "O" 
			},
			{
				"x": 0.4737431951,
				"y": -1.036540433,
				"z": 0.7145909294,
				"element": "C" 
			},
			{
				"x": -0.5827799937,
				"y": -1.528281897,
				"z": 0.3881620294,
				"element": "O" 
			},
			{
				"x": 1.2043364725,
				"y": 0.0755099179,
				"z": -0.0338691045,
				"element": "C" 
			},
			{
				"x": 0.3211835095,
				"y": 0.8421005109,
				"z": -0.9845227889,
				"element": "C" 
			},
			{
				"x": 0.3759819228,
				"y": 0.5886367519,
				"z": -2.361589109,
				"element": "C" 
			},
			{
				"x": -0.4238958999,
				"y": 1.2818337337,
				"z": -3.2682945181,
				"element": "C" 
			},
			{
				"x": -1.3067025753,
				"y": 2.2579522037,
				"z": -2.8072242324,
				"element": "C" 
			},
			{
				"x": -1.3852817027,
				"y": 2.5335793342,
				"z": -1.4424161288,
				"element": "C" 
			},
			{
				"x": -0.5776265456,
				"y": 1.8273913068,
				"z": -0.553265078,
				"element": "C" 
			},
			{
				"x": -0.7288837674,
				"y": 2.2452111941,
				"z": 1.3131531594,
				"element": "Br" 
			},
			{
				"x": -0.6599633415,
				"y": -2.8039016087,
				"z": 4.2581551949,
				"element": "H" 
			},
			{
				"x": -1.1802505657,
				"y": -1.5206121597,
				"z": 3.1494952698,
				"element": "H" 
			},
			{
				"x": 0.1759162544,
				"y": -1.2381693785,
				"z": 4.2649923711,
				"element": "H" 
			},
			{
				"x": 1.5277437258,
				"y": -2.9803289305,
				"z": 3.0348344245,
				"element": "H" 
			},
			{
				"x": 0.162918839,
				"y": -3.2224893343,
				"z": 1.9112769799,
				"element": "H" 
			},
			{
				"x": 2.0225944342,
				"y": -0.4003674874,
				"z": -0.5871947727,
				"element": "H" 
			},
			{
				"x": 1.6695106827,
				"y": 0.7333677287,
				"z": 0.7051790536,
				"element": "H" 
			},
			{
				"x": 1.0627103687,
				"y": -0.1725149399,
				"z": -2.7221903973,
				"element": "H" 
			},
			{
				"x": -0.3567578981,
				"y": 1.0602044809,
				"z": -4.3289859367,
				"element": "H" 
			},
			{
				"x": -1.9348618493,
				"y": 2.8071990001,
				"z": -3.5020785977,
				"element": "H" 
			},
			{
				"x": -2.0662261104,
				"y": 3.2887882236,
				"z": -1.0670146999,
				"element": "H" 
			}
		],
		 "valence_orbital": [ 
			{
				"type": "occ",
				"energy": -0.29601,
				"method": "rhf"
			},
			{
				"type": "occ",
				"energy": -0.28688,
				"method": "rhf"
			},
			{
				"type": "occ",
				"energy": -0.27112,
				"method": "rhf"
			},
			{
				"type": "occ",
				"energy": -0.25615,
				"method": "rhf"
			},
			{
				"type": "occ",
				"energy": -0.24127,
				"method": "rhf"
			},
			{
				"type": "unocc",
				"energy": -0.01387,
				"method": "rhf"
			},
			{
				"type": "unocc",
				"energy": -0.01254,
				"method": "rhf"
			},
			{
				"type": "unocc",
				"energy": 0.00619,
				"method": "rhf"
			},
			{
				"type": "unocc",
				"energy": 0.01846,
				"method": "rhf"
			},
			{
				"type": "unocc",
				"energy": 0.09933,
				"method": "rhf"
			}
		],
		"cosmo_sigma_profile": { 
			"-0.025": 0.0,
			"-0.024": 0.0,
			"-0.023": 0.0,
			"-0.022": 0.0,
			"-0.021": 0.0,
			"-0.02": 0.0,
			"-0.019": 0.0,
			"-0.018": 0.0,
			"-0.017": 0.0,
			"-0.016": 0.0,
			"-0.015": 0.0,
			"-0.014": 0.0,
			"-0.013": 0.0,
			"-0.012": 0.0,
			"-0.011": 0.0,
			"-0.01": 0.0,
			"-0.009": 0.0,
			"-0.008": 2.07317275406,
			"-0.007": 6.90009824283,
			"-0.006": 12.3875381389,
			"-0.005": 16.4141779384,
			"-0.004": 21.0732072911,
			"-0.003": 23.6408664471,
			"-0.002": 19.2826746627,
			"-0.001": 17.5989667958,
			"0.0": 18.7212468765,
			"0.001": 17.4790744112,
			"0.002": 19.4579179401,
			"0.003": 16.8920185405,
			"0.004": 21.3405481777,
			"0.005": 8.26473736594,
			"0.006": 3.15405365785,
			"0.007": 3.56124724497,
			"0.008": 3.71272225049,
			"0.009": 1.91932755089,
			"0.01": 1.9577906875,
			"0.011": 3.50853191411,
			"0.012": 3.74657843191,
			"0.013": 0.348326160388,
			"0.014": 0.0,
			"0.015": 0.0,
			"0.016": 0.0,
			"0.017": 0.0,
			"0.018": 0.0,
			"0.019": 0.0,
			"0.02": 0.0,
			"0.021": 0.0,
			"0.022": 0.0,
			"0.023": 0.0,
			"0.024": 0.0,
			"0.025": 0.0
		}
	}
}
