{
	 "smiles": "CC1=CN=NC2=C1C1=NON=C1C=C2", 
	 "Tm": 445.15, 
	 "num_atms": 20, 
	 "gaussian": { 
		 "optdone": 1, 
		 "sigma_profile": "yes", 
		 "theory": "DFT", 
		 "functional": "B3LYP", 
		 "basiset": "6-31G**", 
		 "properties": { 
			 "R2extent": 2466.2679, 
			 "electric_dipole_moment_norm": 0.902571869715, 
			 "electric_quadrupole_moment_norm": 22.2985030092, 
			 "total_energy": -640.684545434, 
			 "HOMO_LUMO_gap": 0.14745, 
			 "cosmo_polarized_energy": -11.66, 
			 "cosmo_cavitation_energy": 24.78, 
			 "cosmo_dispersion_energy": -18.73, 
			 "cosmo_repulsion_energy": 1.41, 
			 "cosmo_total_nonelectrostatic_energy": 7.47, 
			 "SMD_solvation_energy": 1.94 
		},
		"coords": [
			{
				"x": -1.2840615781,
				"y": 2.7918322226,
				"z": -0.1572632204,
				"element": "C" 
			},
			{
				"x": -0.1556629598,
				"y": 1.8883975012,
				"z": -0.5631944093,
				"element": "C" 
			},
			{
				"x": 1.0395545478,
				"y": 2.3961066532,
				"z": -1.0797912453,
				"element": "C" 
			},
			{
				"x": 2.0922683707,
				"y": 1.657357266,
				"z": -1.4646783124,
				"element": "N" 
			},
			{
				"x": 2.0427727727,
				"y": 0.3414978175,
				"z": -1.3666448861,
				"element": "N" 
			},
			{
				"x": 0.9302515562,
				"y": -0.2487968158,
				"z": -0.8787878236,
				"element": "C" 
			},
			{
				"x": -0.2092212517,
				"y": 0.4909897537,
				"z": -0.4587435951,
				"element": "C" 
			},
			{
				"x": -1.3159978444,
				"y": -0.2945970738,
				"z": 0.0382340664,
				"element": "C" 
			},
			{
				"x": -2.4913656242,
				"y": 0.0870567236,
				"z": 0.4940393013,
				"element": "N" 
			},
			{
				"x": -3.1354151188,
				"y": -1.0754230651,
				"z": 0.8249179078,
				"element": "O" 
			},
			{
				"x": -2.3733725628,
				"y": -2.1912859986,
				"z": 0.5808526046,
				"element": "N" 
			},
			{
				"x": -1.2425508462,
				"y": -1.7267101738,
				"z": 0.0931122519,
				"element": "C" 
			},
			{
				"x": -0.0722124381,
				"y": -2.439224114,
				"z": -0.3410165144,
				"element": "C" 
			},
			{
				"x": 0.9667360972,
				"y": -1.7024408791,
				"z": -0.8075352792,
				"element": "C" 
			},
			{
				"x": -1.5360884175,
				"y": 2.6555300126,
				"z": 0.8995163137,
				"element": "H" 
			},
			{
				"x": -1.0232162699,
				"y": 3.8393010391,
				"z": -0.3252995564,
				"element": "H" 
			},
			{
				"x": -2.1948736431,
				"y": 2.5599496752,
				"z": -0.7189851942,
				"element": "H" 
			},
			{
				"x": 1.171076313,
				"y": 3.4691262475,
				"z": -1.196799088,
				"element": "H" 
			},
			{
				"x": -0.042830846,
				"y": -3.5213290919,
				"z": -0.288872829,
				"element": "H" 
			},
			{
				"x": 1.884509743,
				"y": -2.1655377,
				"z": -1.1536604922,
				"element": "H" 
			}
		],
		 "valence_orbital": [ 
			{
				"type": "occ",
				"energy": -0.32466,
				"method": "rhf"
			},
			{
				"type": "occ",
				"energy": -0.32012,
				"method": "rhf"
			},
			{
				"type": "occ",
				"energy": -0.29158,
				"method": "rhf"
			},
			{
				"type": "occ",
				"energy": -0.26598,
				"method": "rhf"
			},
			{
				"type": "occ",
				"energy": -0.24533,
				"method": "rhf"
			},
			{
				"type": "unocc",
				"energy": -0.09788,
				"method": "rhf"
			},
			{
				"type": "unocc",
				"energy": -0.07765,
				"method": "rhf"
			},
			{
				"type": "unocc",
				"energy": -0.02623,
				"method": "rhf"
			},
			{
				"type": "unocc",
				"energy": 0.0077,
				"method": "rhf"
			},
			{
				"type": "unocc",
				"energy": 0.06831,
				"method": "rhf"
			}
		],
		"cosmo_sigma_profile": { 
			"-0.025": 0.0,
			"-0.024": 0.0,
			"-0.023": 0.0,
			"-0.022": 0.0,
			"-0.021": 0.0,
			"-0.02": 0.0,
			"-0.019": 0.0,
			"-0.018": 0.0,
			"-0.017": 0.0,
			"-0.016": 0.0,
			"-0.015": 0.0,
			"-0.014": 0.0,
			"-0.013": 0.0,
			"-0.012": 0.0,
			"-0.011": 0.0,
			"-0.01": 0.105954595383,
			"-0.009": 1.96635651654,
			"-0.008": 5.65256717244,
			"-0.007": 7.4198389064,
			"-0.006": 8.49319952162,
			"-0.005": 15.1497531683,
			"-0.004": 17.5233533534,
			"-0.003": 21.2944597995,
			"-0.002": 22.825153669,
			"-0.001": 17.1857434328,
			"0.0": 10.8140258295,
			"0.001": 8.0127327336,
			"0.002": 6.31078192375,
			"0.003": 5.64179387424,
			"0.004": 9.67889634119,
			"0.005": 9.9659111424,
			"0.006": 5.66149371779,
			"0.007": 3.7032148994,
			"0.008": 3.99154401082,
			"0.009": 4.27594423901,
			"0.01": 3.10899191522,
			"0.011": 3.03694816386,
			"0.012": 2.01023629996,
			"0.013": 3.30373413048,
			"0.014": 1.63114492909,
			"0.015": 1.81676566685,
			"0.016": 0.014014332484,
			"0.017": 0.0,
			"0.018": 0.0,
			"0.019": 0.0,
			"0.02": 0.0,
			"0.021": 0.0,
			"0.022": 0.0,
			"0.023": 0.0,
			"0.024": 0.0,
			"0.025": 0.0
		}
	}
}
