{
	 "smiles": "SC1=NN=CN1C1CC1", 
	 "Tm": 463.15, 
	 "num_atms": 16, 
	 "gaussian": { 
		 "optdone": 1, 
		 "sigma_profile": "yes", 
		 "theory": "DFT", 
		 "functional": "B3LYP", 
		 "basiset": "6-31G**", 
		 "properties": { 
			 "R2extent": 1602.6415, 
			 "electric_dipole_moment_norm": 6.65577591345, 
			 "electric_quadrupole_moment_norm": 13.3731041905, 
			 "total_energy": -757.120241421, 
			 "HOMO_LUMO_gap": 0.23761, 
			 "cosmo_polarized_energy": -17.71, 
			 "cosmo_cavitation_energy": 21.55, 
			 "cosmo_dispersion_energy": -16.12, 
			 "cosmo_repulsion_energy": 1.27, 
			 "cosmo_total_nonelectrostatic_energy": 6.7, 
			 "SMD_solvation_energy": 1.25 
		},
		"coords": [
			{
				"x": -1.2957187027,
				"y": 1.0536858665,
				"z": 0.4849557161,
				"element": "S" 
			},
			{
				"x": 0.421663841,
				"y": 1.0574653624,
				"z": 0.8983096073,
				"element": "C" 
			},
			{
				"x": 1.0191517552,
				"y": 2.0307255144,
				"z": 1.5471712718,
				"element": "N" 
			},
			{
				"x": 2.3127909521,
				"y": 1.6208798661,
				"z": 1.8044352543,
				"element": "N" 
			},
			{
				"x": 2.4481890413,
				"y": 0.4201941975,
				"z": 1.2991502679,
				"element": "C" 
			},
			{
				"x": 1.2861753277,
				"y": -0.002888063,
				"z": 0.7064644186,
				"element": "N" 
			},
			{
				"x": 0.9999959994,
				"y": -1.2806783257,
				"z": 0.1105078366,
				"element": "C" 
			},
			{
				"x": 2.0757918823,
				"y": -1.9756943347,
				"z": -0.679965051,
				"element": "C" 
			},
			{
				"x": 0.8789606362,
				"y": -1.3953282902,
				"z": -1.3905037819,
				"element": "C" 
			},
			{
				"x": -1.1470813347,
				"y": 0.7310235969,
				"z": -0.8174852194,
				"element": "H" 
			},
			{
				"x": 3.3472831116,
				"y": -0.1783365407,
				"z": 1.3218404964,
				"element": "H" 
			},
			{
				"x": 0.3365981824,
				"y": -1.8953672788,
				"z": 0.7130571139,
				"element": "H" 
			},
			{
				"x": 3.0246557149,
				"y": -1.4654797109,
				"z": -0.8079991767,
				"element": "H" 
			},
			{
				"x": 2.1546544011,
				"y": -3.0524346776,
				"z": -0.573601823,
				"element": "H" 
			},
			{
				"x": 1.0408135841,
				"y": -0.4948033066,
				"z": -1.9747553758,
				"element": "H" 
			},
			{
				"x": 0.1222756081,
				"y": -2.0666638756,
				"z": -1.7831815551,
				"element": "H" 
			}
		],
		 "valence_orbital": [ 
			{
				"type": "occ",
				"energy": -0.31206,
				"method": "rhf"
			},
			{
				"type": "occ",
				"energy": -0.29209,
				"method": "rhf"
			},
			{
				"type": "occ",
				"energy": -0.28767,
				"method": "rhf"
			},
			{
				"type": "occ",
				"energy": -0.2539,
				"method": "rhf"
			},
			{
				"type": "occ",
				"energy": -0.2447,
				"method": "rhf"
			},
			{
				"type": "unocc",
				"energy": -0.00709,
				"method": "rhf"
			},
			{
				"type": "unocc",
				"energy": 0.02583,
				"method": "rhf"
			},
			{
				"type": "unocc",
				"energy": 0.04058,
				"method": "rhf"
			},
			{
				"type": "unocc",
				"energy": 0.05177,
				"method": "rhf"
			},
			{
				"type": "unocc",
				"energy": 0.07504,
				"method": "rhf"
			}
		],
		"cosmo_sigma_profile": { 
			"-0.025": 0.0,
			"-0.024": 0.0,
			"-0.023": 0.0,
			"-0.022": 0.0,
			"-0.021": 0.0,
			"-0.02": 0.0,
			"-0.019": 0.0,
			"-0.018": 0.0,
			"-0.017": 0.0,
			"-0.016": 0.0,
			"-0.015": 0.0,
			"-0.014": 0.0,
			"-0.013": 0.0,
			"-0.012": 0.105543701812,
			"-0.011": 1.25881100979,
			"-0.01": 3.00007128454,
			"-0.009": 5.00450496171,
			"-0.008": 4.75950440115,
			"-0.007": 8.34021479705,
			"-0.006": 15.0613748378,
			"-0.005": 12.9332274764,
			"-0.004": 11.5246588331,
			"-0.003": 11.8687116754,
			"-0.002": 12.9753645333,
			"-0.001": 11.5937929593,
			"0.0": 9.35229765034,
			"0.001": 8.29111076758,
			"0.002": 7.2815568214,
			"0.003": 7.58580844816,
			"0.004": 4.28876476656,
			"0.005": 4.95411467546,
			"0.006": 3.91244700306,
			"0.007": 4.0709357243,
			"0.008": 3.69376448242,
			"0.009": 1.80178371178,
			"0.01": 2.49754536867,
			"0.011": 2.77474335058,
			"0.012": 2.84226330261,
			"0.013": 3.48457820886,
			"0.014": 3.26459759755,
			"0.015": 2.75832410896,
			"0.016": 2.4151928968,
			"0.017": 0.804187220579,
			"0.018": 0.0,
			"0.019": 0.0,
			"0.02": 0.0,
			"0.021": 0.0,
			"0.022": 0.0,
			"0.023": 0.0,
			"0.024": 0.0,
			"0.025": 0.0
		}
	}
}
