{
	 "smiles": "FC1=CC=C(C=C1)C#C", 
	 "Tm": 301.15, 
	 "num_atms": 14, 
	 "gaussian": { 
		 "optdone": 1, 
		 "sigma_profile": "yes", 
		 "theory": "DFT", 
		 "functional": "B3LYP", 
		 "basiset": "6-31G**", 
		 "properties": { 
			 "R2extent": 1320.6139, 
			 "electric_dipole_moment_norm": 0.669057351802, 
			 "electric_quadrupole_moment_norm": 5.43933244893, 
			 "total_energy": -407.627626249, 
			 "HOMO_LUMO_gap": 0.20109, 
			 "cosmo_polarized_energy": -4.77, 
			 "cosmo_cavitation_energy": 19.96, 
			 "cosmo_dispersion_energy": -13.96, 
			 "cosmo_repulsion_energy": 1.11, 
			 "cosmo_total_nonelectrostatic_energy": 7.11, 
			 "SMD_solvation_energy": 5.36 
		},
		"coords": [
			{
				"x": -2.1917726065,
				"y": 0.2719583312,
				"z": 2.0045898104,
				"element": "F" 
			},
			{
				"x": -1.1248597003,
				"y": 0.0120201739,
				"z": 1.2230641842,
				"element": "C" 
			},
			{
				"x": -0.3363098337,
				"y": 1.0711538622,
				"z": 0.7850226742,
				"element": "C" 
			},
			{
				"x": 0.7644310417,
				"y": 0.7986212197,
				"z": -0.0217591588,
				"element": "C" 
			},
			{
				"x": 1.0772779852,
				"y": -0.5244856224,
				"z": -0.3900084708,
				"element": "C" 
			},
			{
				"x": 0.2560653729,
				"y": -1.5712937374,
				"z": 0.0724794716,
				"element": "C" 
			},
			{
				"x": -0.8464564661,
				"y": -1.3070586535,
				"z": 0.8795852987,
				"element": "C" 
			},
			{
				"x": 2.2083949873,
				"y": -0.8000736068,
				"z": -1.2186261374,
				"element": "C" 
			},
			{
				"x": 3.1663317587,
				"y": -1.0334493045,
				"z": -1.9203719534,
				"element": "C" 
			},
			{
				"x": -0.589896149,
				"y": 2.0843825991,
				"z": 1.0769125554,
				"element": "H" 
			},
			{
				"x": 1.3926172922,
				"y": 1.6097475019,
				"z": -0.3743641438,
				"element": "H" 
			},
			{
				"x": 0.4911583182,
				"y": -2.5927381459,
				"z": -0.207263766,
				"element": "H" 
			},
			{
				"x": -1.4879559301,
				"y": -2.1022208301,
				"z": 1.2433639789,
				"element": "H" 
			},
			{
				"x": 4.0095739296,
				"y": -1.2389637875,
				"z": -2.5379243431,
				"element": "H" 
			}
		],
		 "valence_orbital": [ 
			{
				"type": "occ",
				"energy": -0.35284,
				"method": "rhf"
			},
			{
				"type": "occ",
				"energy": -0.30414,
				"method": "rhf"
			},
			{
				"type": "occ",
				"energy": -0.27593,
				"method": "rhf"
			},
			{
				"type": "occ",
				"energy": -0.26876,
				"method": "rhf"
			},
			{
				"type": "occ",
				"energy": -0.23086,
				"method": "rhf"
			},
			{
				"type": "unocc",
				"energy": -0.02977,
				"method": "rhf"
			},
			{
				"type": "unocc",
				"energy": -0.01735,
				"method": "rhf"
			},
			{
				"type": "unocc",
				"energy": 0.05096,
				"method": "rhf"
			},
			{
				"type": "unocc",
				"energy": 0.08382,
				"method": "rhf"
			},
			{
				"type": "unocc",
				"energy": 0.09057,
				"method": "rhf"
			}
		],
		"cosmo_sigma_profile": { 
			"-0.025": 0.0,
			"-0.024": 0.0,
			"-0.023": 0.0,
			"-0.022": 0.0,
			"-0.021": 0.0,
			"-0.02": 0.0,
			"-0.019": 0.0,
			"-0.018": 0.0,
			"-0.017": 0.0,
			"-0.016": 0.0,
			"-0.015": 0.0,
			"-0.014": 0.0,
			"-0.013": 0.0,
			"-0.012": 0.606244833457,
			"-0.011": 1.58855113379,
			"-0.01": 0.780478132072,
			"-0.009": 0.841228771409,
			"-0.008": 3.20310011525,
			"-0.007": 7.61011422372,
			"-0.006": 8.01588230257,
			"-0.005": 9.32741670814,
			"-0.004": 6.55381841393,
			"-0.003": 7.78181292116,
			"-0.002": 6.21876436054,
			"-0.001": 8.55371485993,
			"0.0": 13.4430496738,
			"0.001": 13.868607476,
			"0.002": 18.1848424668,
			"0.003": 21.404604511,
			"0.004": 16.2499695101,
			"0.005": 7.18371901693,
			"0.006": 8.5100865259,
			"0.007": 2.38973492452,
			"0.008": 0.0,
			"0.009": 0.0,
			"0.01": 0.0,
			"0.011": 0.0,
			"0.012": 0.0,
			"0.013": 0.0,
			"0.014": 0.0,
			"0.015": 0.0,
			"0.016": 0.0,
			"0.017": 0.0,
			"0.018": 0.0,
			"0.019": 0.0,
			"0.02": 0.0,
			"0.021": 0.0,
			"0.022": 0.0,
			"0.023": 0.0,
			"0.024": 0.0,
			"0.025": 0.0
		}
	}
}
