{
	 "smiles": "CC1=CN=C(C=O)C=C1", 
	 "Tm": 313.15, 
	 "num_atms": 16, 
	 "gaussian": { 
		 "optdone": 1, 
		 "sigma_profile": "yes", 
		 "theory": "DFT", 
		 "functional": "B3LYP", 
		 "basiset": "6-31G**", 
		 "properties": { 
			 "R2extent": 1498.4075, 
			 "electric_dipole_moment_norm": 4.25699179468, 
			 "electric_quadrupole_moment_norm": 8.47548601733, 
			 "total_energy": -400.930668117, 
			 "HOMO_LUMO_gap": 0.18281, 
			 "cosmo_polarized_energy": -8.34, 
			 "cosmo_cavitation_energy": 20.55, 
			 "cosmo_dispersion_energy": -15.06, 
			 "cosmo_repulsion_energy": 1.23, 
			 "cosmo_total_nonelectrostatic_energy": 6.72, 
			 "SMD_solvation_energy": 3.46 
		},
		"coords": [
			{
				"x": -1.4228348869,
				"y": 2.3558996364,
				"z": 1.2003562885,
				"element": "C" 
			},
			{
				"x": -0.5123069779,
				"y": 1.1814292783,
				"z": 0.9521266686,
				"element": "C" 
			},
			{
				"x": 0.0926455382,
				"y": 0.9808724976,
				"z": -0.29880096,
				"element": "C" 
			},
			{
				"x": 0.9077937386,
				"y": -0.0353850239,
				"z": -0.5871121004,
				"element": "N" 
			},
			{
				"x": 1.1616490303,
				"y": -0.9208699015,
				"z": 0.3891417869,
				"element": "C" 
			},
			{
				"x": 2.0752604394,
				"y": -2.0398640656,
				"z": 0.0288694578,
				"element": "C" 
			},
			{
				"x": 2.4048798267,
				"y": -2.9227442791,
				"z": 0.796901533,
				"element": "O" 
			},
			{
				"x": 0.6159983873,
				"y": -0.8238282347,
				"z": 1.6747464625,
				"element": "C" 
			},
			{
				"x": -0.2301540017,
				"y": 0.2416759718,
				"z": 1.9539671493,
				"element": "C" 
			},
			{
				"x": -1.5254204646,
				"y": 2.9767342699,
				"z": 0.3064700954,
				"element": "H" 
			},
			{
				"x": -1.0403273911,
				"y": 2.989784263,
				"z": 2.0082879297,
				"element": "H" 
			},
			{
				"x": -2.424434487,
				"y": 2.0248157865,
				"z": 1.4970458719,
				"element": "H" 
			},
			{
				"x": -0.0986073928,
				"y": 1.6865144415,
				"z": -1.1066791739,
				"element": "H" 
			},
			{
				"x": 2.4346948299,
				"y": -1.9961062964,
				"z": -1.0197596202,
				"element": "H" 
			},
			{
				"x": 0.8668610004,
				"y": -1.5779578299,
				"z": 2.4131210763,
				"element": "H" 
			},
			{
				"x": -0.6726971889,
				"y": 0.349829486,
				"z": 2.9413175347,
				"element": "H" 
			}
		],
		 "valence_orbital": [ 
			{
				"type": "occ",
				"energy": -0.37195,
				"method": "rhf"
			},
			{
				"type": "occ",
				"energy": -0.29618,
				"method": "rhf"
			},
			{
				"type": "occ",
				"energy": -0.27482,
				"method": "rhf"
			},
			{
				"type": "occ",
				"energy": -0.26577,
				"method": "rhf"
			},
			{
				"type": "occ",
				"energy": -0.25252,
				"method": "rhf"
			},
			{
				"type": "unocc",
				"energy": -0.06971,
				"method": "rhf"
			},
			{
				"type": "unocc",
				"energy": -0.032,
				"method": "rhf"
			},
			{
				"type": "unocc",
				"energy": 0.03278,
				"method": "rhf"
			},
			{
				"type": "unocc",
				"energy": 0.09251,
				"method": "rhf"
			},
			{
				"type": "unocc",
				"energy": 0.11296,
				"method": "rhf"
			}
		],
		"cosmo_sigma_profile": { 
			"-0.025": 0.0,
			"-0.024": 0.0,
			"-0.023": 0.0,
			"-0.022": 0.0,
			"-0.021": 0.0,
			"-0.02": 0.0,
			"-0.019": 0.0,
			"-0.018": 0.0,
			"-0.017": 0.0,
			"-0.016": 0.0,
			"-0.015": 0.0,
			"-0.014": 0.0,
			"-0.013": 0.0,
			"-0.012": 0.0,
			"-0.011": 0.0,
			"-0.01": 0.0,
			"-0.009": 0.0,
			"-0.008": 0.285916977045,
			"-0.007": 3.92676590082,
			"-0.006": 10.4593188715,
			"-0.005": 14.0466193803,
			"-0.004": 15.7175371631,
			"-0.003": 15.1087680221,
			"-0.002": 13.0869857487,
			"-0.001": 17.7288564155,
			"0.0": 15.1945614934,
			"0.001": 15.5500437943,
			"0.002": 7.50828729741,
			"0.003": 3.87195996392,
			"0.004": 3.99323372813,
			"0.005": 2.46327638267,
			"0.006": 2.87435337421,
			"0.007": 2.74768543389,
			"0.008": 3.19153133401,
			"0.009": 3.08929954118,
			"0.01": 3.59714340557,
			"0.011": 5.03060266289,
			"0.012": 2.77299724327,
			"0.013": 0.905540004345,
			"0.014": 0.828137063679,
			"0.015": 0.403993222165,
			"0.016": 0.0,
			"0.017": 0.0,
			"0.018": 0.0,
			"0.019": 0.0,
			"0.02": 0.0,
			"0.021": 0.0,
			"0.022": 0.0,
			"0.023": 0.0,
			"0.024": 0.0,
			"0.025": 0.0
		}
	}
}
