{
	 "smiles": "CCOC1C(=O)NC2=C(C(C3=CC=C(Br)C=C3)C3=C(O2)C2=C(OC3=O)C=CC=C2)C1=O", 
	 "Tm": 469.15, 
	 "num_atms": 47, 
	 "gaussian": { 
		 "optdone": 1, 
		 "sigma_profile": "yes", 
		 "theory": "DFT", 
		 "functional": "B3LYP", 
		 "basiset": "6-31G**", 
		 "properties": { 
			 "R2extent": 19218.3401, 
			 "electric_dipole_moment_norm": 6.96478861488, 
			 "electric_quadrupole_moment_norm": 31.8254371758, 
			 "total_energy": -3963.58428815, 
			 "HOMO_LUMO_gap": 0.14492, 
			 "cosmo_polarized_energy": -25.78, 
			 "cosmo_cavitation_energy": 54.48, 
			 "cosmo_dispersion_energy": -37.1, 
			 "cosmo_repulsion_energy": 2.81, 
			 "cosmo_total_nonelectrostatic_energy": 20.19, 
			 "SMD_solvation_energy": 10.11 
		},
		"coords": [
			{
				"x": 0.9080741667,
				"y": -0.1396938384,
				"z": 5.240387187,
				"element": "C" 
			},
			{
				"x": 2.0283382375,
				"y": -0.5979489823,
				"z": 4.3239882345,
				"element": "C" 
			},
			{
				"x": 1.4334016087,
				"y": -0.9781866417,
				"z": 3.0742775367,
				"element": "O" 
			},
			{
				"x": 2.3514422899,
				"y": -1.4817858484,
				"z": 2.1104020086,
				"element": "C" 
			},
			{
				"x": 2.978773435,
				"y": -0.270196678,
				"z": 1.4122852743,
				"element": "C" 
			},
			{
				"x": 3.8973748029,
				"y": 0.3769701425,
				"z": 1.8791265952,
				"element": "O" 
			},
			{
				"x": 2.3589197892,
				"y": 0.1169054745,
				"z": 0.2291181312,
				"element": "N" 
			},
			{
				"x": 1.4267408418,
				"y": -0.6567184762,
				"z": -0.4333389503,
				"element": "C" 
			},
			{
				"x": 0.9682959178,
				"y": -1.8601037401,
				"z": -0.0136293141,
				"element": "C" 
			},
			{
				"x": -0.058202629,
				"y": -2.6359407343,
				"z": -0.8093747513,
				"element": "C" 
			},
			{
				"x": -1.4270044087,
				"y": -2.6811224379,
				"z": -0.1165607403,
				"element": "C" 
			},
			{
				"x": -2.0245532245,
				"y": -1.514740758,
				"z": 0.3745312517,
				"element": "C" 
			},
			{
				"x": -3.2750453346,
				"y": -1.5502994603,
				"z": 0.9903240602,
				"element": "C" 
			},
			{
				"x": -3.933147122,
				"y": -2.7724765865,
				"z": 1.1128054356,
				"element": "C" 
			},
			{
				"x": -5.6479151921,
				"y": -2.8345889114,
				"z": 1.9581355076,
				"element": "Br" 
			},
			{
				"x": -3.3618289764,
				"y": -3.9481799446,
				"z": 0.6309110915,
				"element": "C" 
			},
			{
				"x": -2.1106323701,
				"y": -3.8937265694,
				"z": 0.0171579477,
				"element": "C" 
			},
			{
				"x": -0.1654036565,
				"y": -2.0296012361,
				"z": -2.1943122088,
				"element": "C" 
			},
			{
				"x": 0.3347050915,
				"y": -0.806928034,
				"z": -2.5015451056,
				"element": "C" 
			},
			{
				"x": 1.0551887915,
				"y": -0.0537135391,
				"z": -1.5980508943,
				"element": "O" 
			},
			{
				"x": 0.1679043818,
				"y": -0.1957183654,
				"z": -3.7976086625,
				"element": "C" 
			},
			{
				"x": -0.5303331183,
				"y": -0.9535567388,
				"z": -4.7550784868,
				"element": "C" 
			},
			{
				"x": -0.9978327379,
				"y": -2.2033985881,
				"z": -4.4765293824,
				"element": "O" 
			},
			{
				"x": -0.8324844927,
				"y": -2.8115842269,
				"z": -3.234847364,
				"element": "C" 
			},
			{
				"x": -1.2395457202,
				"y": -3.941823464,
				"z": -3.1017584962,
				"element": "O" 
			},
			{
				"x": -0.7605387939,
				"y": -0.4528939097,
				"z": -6.0382091461,
				"element": "C" 
			},
			{
				"x": -0.2876482135,
				"y": 0.8126190223,
				"z": -6.3658885105,
				"element": "C" 
			},
			{
				"x": 0.4139676994,
				"y": 1.581163666,
				"z": -5.4243127518,
				"element": "C" 
			},
			{
				"x": 0.6413852773,
				"y": 1.0813757909,
				"z": -4.1500300164,
				"element": "C" 
			},
			{
				"x": 1.5213136371,
				"y": -2.4235426912,
				"z": 1.2129676823,
				"element": "C" 
			},
			{
				"x": 1.3153037286,
				"y": -3.5736205563,
				"z": 1.5709819064,
				"element": "O" 
			},
			{
				"x": 1.3154098176,
				"y": 0.1436331768,
				"z": 6.2159420043,
				"element": "H" 
			},
			{
				"x": 0.1769237967,
				"y": -0.9395483831,
				"z": 5.386212364,
				"element": "H" 
			},
			{
				"x": 0.3918882981,
				"y": 0.7268294488,
				"z": 4.8170661159,
				"element": "H" 
			},
			{
				"x": 2.5568135054,
				"y": -1.4649813945,
				"z": 4.7483593326,
				"element": "H" 
			},
			{
				"x": 2.7650929745,
				"y": 0.1995918106,
				"z": 4.1658454662,
				"element": "H" 
			},
			{
				"x": 3.1526193484,
				"y": -2.0638541133,
				"z": 2.5820403031,
				"element": "H" 
			},
			{
				"x": 2.7200662365,
				"y": 0.9420317543,
				"z": -0.2342259129,
				"element": "H" 
			},
			{
				"x": 0.2869098471,
				"y": -3.6707242589,
				"z": -0.9046649283,
				"element": "H" 
			},
			{
				"x": -1.5091589594,
				"y": -0.5619186404,
				"z": 0.2896861918,
				"element": "H" 
			},
			{
				"x": -3.7299144913,
				"y": -0.6434525185,
				"z": 1.3721970082,
				"element": "H" 
			},
			{
				"x": -3.8846857402,
				"y": -4.8921529257,
				"z": 0.7331846659,
				"element": "H" 
			},
			{
				"x": -1.6661589025,
				"y": -4.8041790078,
				"z": -0.3708448638,
				"element": "H" 
			},
			{
				"x": -1.3021978882,
				"y": -1.0664370897,
				"z": -6.7494550432,
				"element": "H" 
			},
			{
				"x": -0.4640176808,
				"y": 1.2063302443,
				"z": -7.3621061329,
				"element": "H" 
			},
			{
				"x": 0.7788907001,
				"y": 2.5674033998,
				"z": -5.6918070079,
				"element": "H" 
			},
			{
				"x": 1.1797054316,
				"y": 1.6662853582,
				"z": -3.4130546322,
				"element": "H" 
			}
		],
		 "valence_orbital": [ 
			{
				"type": "occ",
				"energy": -0.25929,
				"method": "rhf"
			},
			{
				"type": "occ",
				"energy": -0.25211,
				"method": "rhf"
			},
			{
				"type": "occ",
				"energy": -0.2477,
				"method": "rhf"
			},
			{
				"type": "occ",
				"energy": -0.24546,
				"method": "rhf"
			},
			{
				"type": "occ",
				"energy": -0.23311,
				"method": "rhf"
			},
			{
				"type": "unocc",
				"energy": -0.08819,
				"method": "rhf"
			},
			{
				"type": "unocc",
				"energy": -0.06449,
				"method": "rhf"
			},
			{
				"type": "unocc",
				"energy": -0.02683,
				"method": "rhf"
			},
			{
				"type": "unocc",
				"energy": -0.01341,
				"method": "rhf"
			},
			{
				"type": "unocc",
				"energy": -0.00904,
				"method": "rhf"
			}
		],
		"cosmo_sigma_profile": { 
			"-0.025": 0.0,
			"-0.024": 0.0,
			"-0.023": 0.0,
			"-0.022": 0.0,
			"-0.021": 0.0,
			"-0.02": 0.0,
			"-0.019": 0.0,
			"-0.018": 0.0151164565472,
			"-0.017": 0.870362738405,
			"-0.016": 1.13231937065,
			"-0.015": 0.661568271562,
			"-0.014": 0.652210625619,
			"-0.013": 1.06243683804,
			"-0.012": 0.840683444948,
			"-0.011": 1.07351273417,
			"-0.01": 1.85179524145,
			"-0.009": 2.2638349157,
			"-0.008": 4.88210636554,
			"-0.007": 16.3628616737,
			"-0.006": 23.6626232132,
			"-0.005": 28.7511974172,
			"-0.004": 31.165561539,
			"-0.003": 37.5322255304,
			"-0.002": 35.2669646179,
			"-0.001": 30.8731606995,
			"0.0": 30.8360569754,
			"0.001": 30.7435273216,
			"0.002": 28.5544868836,
			"0.003": 31.8407796318,
			"0.004": 23.752921239,
			"0.005": 15.9735359552,
			"0.006": 6.6379436644,
			"0.007": 7.78474824142,
			"0.008": 6.99495676835,
			"0.009": 8.96430461927,
			"0.01": 8.07289290172,
			"0.011": 11.3646235544,
			"0.012": 7.68486936998,
			"0.013": 1.52631362232,
			"0.014": 0.0,
			"0.015": 0.0,
			"0.016": 0.0,
			"0.017": 0.0,
			"0.018": 0.0,
			"0.019": 0.0,
			"0.02": 0.0,
			"0.021": 0.0,
			"0.022": 0.0,
			"0.023": 0.0,
			"0.024": 0.0,
			"0.025": 0.0
		}
	}
}
