{
	 "smiles": "BrC=CBr", 
	 "Tm": 266.65, 
	 "num_atms": 6, 
	 "gaussian": { 
		 "optdone": 1, 
		 "sigma_profile": "yes", 
		 "theory": "DFT", 
		 "functional": "B3LYP", 
		 "basiset": "6-31G**", 
		 "properties": { 
			 "R2extent": 1874.8214, 
			 "electric_dipole_moment_norm": 0.0, 
			 "electric_quadrupole_moment_norm": 2.91967422498, 
			 "total_energy": -5220.19463248, 
			 "HOMO_LUMO_gap": 0.22539, 
			 "cosmo_polarized_energy": -2.96, 
			 "cosmo_cavitation_energy": 14.93, 
			 "cosmo_dispersion_energy": -12.09, 
			 "cosmo_repulsion_energy": 1.1, 
			 "cosmo_total_nonelectrostatic_energy": 3.94, 
			 "SMD_solvation_energy": 1.11 
		},
		"coords": [
			{
				"x": -1.8118898774,
				"y": 0.3816481691,
				"z": 1.7093491274,
				"element": "Br" 
			},
			{
				"x": -0.5148203772,
				"y": -0.4530385661,
				"z": 0.5973891822,
				"element": "C" 
			},
			{
				"x": -0.8665810633,
				"y": -1.3422827934,
				"z": -0.3225329427,
				"element": "C" 
			},
			{
				"x": 0.4304913238,
				"y": -2.1769943443,
				"z": -1.4344714759,
				"element": "Br" 
			},
			{
				"x": 0.5016267265,
				"y": -0.1361167076,
				"z": 0.7891497474,
				"element": "H" 
			},
			{
				"x": -1.8830267324,
				"y": -1.6592157578,
				"z": -0.5142836385,
				"element": "H" 
			}
		],
		 "valence_orbital": [ 
			{
				"type": "occ",
				"energy": -0.37118,
				"method": "rhf"
			},
			{
				"type": "occ",
				"energy": -0.31776,
				"method": "rhf"
			},
			{
				"type": "occ",
				"energy": -0.30006,
				"method": "rhf"
			},
			{
				"type": "occ",
				"energy": -0.30003,
				"method": "rhf"
			},
			{
				"type": "occ",
				"energy": -0.25177,
				"method": "rhf"
			},
			{
				"type": "unocc",
				"energy": -0.02638,
				"method": "rhf"
			},
			{
				"type": "unocc",
				"energy": -0.02164,
				"method": "rhf"
			},
			{
				"type": "unocc",
				"energy": 0.02672,
				"method": "rhf"
			},
			{
				"type": "unocc",
				"energy": 0.1117,
				"method": "rhf"
			},
			{
				"type": "unocc",
				"energy": 0.18699,
				"method": "rhf"
			}
		],
		"cosmo_sigma_profile": { 
			"-0.025": 0.0,
			"-0.024": 0.0,
			"-0.023": 0.0,
			"-0.022": 0.0,
			"-0.021": 0.0,
			"-0.02": 0.0,
			"-0.019": 0.0,
			"-0.018": 0.0,
			"-0.017": 0.0,
			"-0.016": 0.0,
			"-0.015": 0.0,
			"-0.014": 0.0,
			"-0.013": 0.0,
			"-0.012": 0.0,
			"-0.011": 0.0182962238121,
			"-0.01": 2.57130140849,
			"-0.009": 2.2840182489,
			"-0.008": 3.53896884553,
			"-0.007": 2.92810809984,
			"-0.006": 2.77664547613,
			"-0.005": 4.80122537762,
			"-0.004": 5.65273908104,
			"-0.003": 6.17602734359,
			"-0.002": 7.54644763035,
			"-0.001": 7.5091692737,
			"0.0": 9.27109587441,
			"0.001": 13.6451116405,
			"0.002": 17.4310294615,
			"0.003": 15.5396635216,
			"0.004": 23.310920094,
			"0.005": 1.82905656896,
			"0.006": 0.0,
			"0.007": 0.0,
			"0.008": 0.0,
			"0.009": 0.0,
			"0.01": 0.0,
			"0.011": 0.0,
			"0.012": 0.0,
			"0.013": 0.0,
			"0.014": 0.0,
			"0.015": 0.0,
			"0.016": 0.0,
			"0.017": 0.0,
			"0.018": 0.0,
			"0.019": 0.0,
			"0.02": 0.0,
			"0.021": 0.0,
			"0.022": 0.0,
			"0.023": 0.0,
			"0.024": 0.0,
			"0.025": 0.0
		}
	}
}
