{
	 "smiles": "NCC1=CC(NC(N)=O)=CC=C1", 
	 "Tm": 417.15, 
	 "num_atms": 23, 
	 "gaussian": { 
		 "optdone": 1, 
		 "sigma_profile": "yes", 
		 "theory": "DFT", 
		 "functional": "B3LYP", 
		 "basiset": "6-31G**", 
		 "properties": { 
			 "R2extent": 2792.9505, 
			 "electric_dipole_moment_norm": 3.22658122012, 
			 "electric_quadrupole_moment_norm": 15.4654948143, 
			 "total_energy": -550.982718472, 
			 "HOMO_LUMO_gap": 0.20673, 
			 "cosmo_polarized_energy": -17.82, 
			 "cosmo_cavitation_energy": 26.98, 
			 "cosmo_dispersion_energy": -19.44, 
			 "cosmo_repulsion_energy": 1.58, 
			 "cosmo_total_nonelectrostatic_energy": 9.12, 
			 "SMD_solvation_energy": 4.12 
		},
		"coords": [
			{
				"x": -3.521093633,
				"y": 1.4065669348,
				"z": -1.8930519131,
				"element": "N" 
			},
			{
				"x": -3.5248199763,
				"y": 0.0403519453,
				"z": -1.3444781509,
				"element": "C" 
			},
			{
				"x": -2.1554138096,
				"y": -0.5952801217,
				"z": -1.165706255,
				"element": "C" 
			},
			{
				"x": -1.468838128,
				"y": -0.4578497296,
				"z": 0.0477198814,
				"element": "C" 
			},
			{
				"x": -0.1794944301,
				"y": -0.9899465266,
				"z": 0.2115854505,
				"element": "C" 
			},
			{
				"x": 0.5317948628,
				"y": -0.9002109557,
				"z": 1.4245122254,
				"element": "N" 
			},
			{
				"x": 0.5901276702,
				"y": 0.096686109,
				"z": 2.3934219213,
				"element": "C" 
			},
			{
				"x": -0.1247222555,
				"y": 1.2520616559,
				"z": 2.1374101825,
				"element": "N" 
			},
			{
				"x": 1.2355203153,
				"y": -0.0710762736,
				"z": 3.418350048,
				"element": "O" 
			},
			{
				"x": 0.4075896619,
				"y": -1.6936503428,
				"z": -0.8530135191,
				"element": "C" 
			},
			{
				"x": -0.2827197378,
				"y": -1.8520339966,
				"z": -2.0513852711,
				"element": "C" 
			},
			{
				"x": -1.5539896553,
				"y": -1.3002570104,
				"z": -2.2155438436,
				"element": "C" 
			},
			{
				"x": -2.9674920077,
				"y": 2.0101394823,
				"z": -1.2880367057,
				"element": "H" 
			},
			{
				"x": -3.042562436,
				"y": 1.4063606202,
				"z": -2.7919554039,
				"element": "H" 
			},
			{
				"x": -4.1326702739,
				"y": -0.5812054724,
				"z": -2.0114804314,
				"element": "H" 
			},
			{
				"x": -4.0462567322,
				"y": 0.0712543456,
				"z": -0.381259707,
				"element": "H" 
			},
			{
				"x": -1.9551900132,
				"y": 0.03252017,
				"z": 0.8851421017,
				"element": "H" 
			},
			{
				"x": 1.1828134769,
				"y": -1.6441034087,
				"z": 1.6331244591,
				"element": "H" 
			},
			{
				"x": 0.124458251,
				"y": 2.002794408,
				"z": 2.7650607728,
				"element": "H" 
			},
			{
				"x": -0.284210248,
				"y": 1.5186608646,
				"z": 1.1760467054,
				"element": "H" 
			},
			{
				"x": 1.403415451,
				"y": -2.1116002498,
				"z": -0.7325149176,
				"element": "H" 
			},
			{
				"x": 0.1781910713,
				"y": -2.4072540833,
				"z": -2.8634849411,
				"element": "H" 
			},
			{
				"x": -2.0865374237,
				"y": -1.4291283644,
				"z": -3.1545626884,
				"element": "H" 
			}
		],
		 "valence_orbital": [ 
			{
				"type": "occ",
				"energy": -0.27561,
				"method": "rhf"
			},
			{
				"type": "occ",
				"energy": -0.26428,
				"method": "rhf"
			},
			{
				"type": "occ",
				"energy": -0.25796,
				"method": "rhf"
			},
			{
				"type": "occ",
				"energy": -0.23988,
				"method": "rhf"
			},
			{
				"type": "occ",
				"energy": -0.22254,
				"method": "rhf"
			},
			{
				"type": "unocc",
				"energy": -0.01581,
				"method": "rhf"
			},
			{
				"type": "unocc",
				"energy": -0.01278,
				"method": "rhf"
			},
			{
				"type": "unocc",
				"energy": 0.05871,
				"method": "rhf"
			},
			{
				"type": "unocc",
				"energy": 0.07609,
				"method": "rhf"
			},
			{
				"type": "unocc",
				"energy": 0.08938,
				"method": "rhf"
			}
		],
		"cosmo_sigma_profile": { 
			"-0.025": 0.0,
			"-0.024": 0.0,
			"-0.023": 0.0,
			"-0.022": 0.0,
			"-0.021": 0.0,
			"-0.02": 0.0,
			"-0.019": 0.0,
			"-0.018": 0.0,
			"-0.017": 0.0,
			"-0.016": 0.0,
			"-0.015": 0.00663986415439,
			"-0.014": 0.939032169874,
			"-0.013": 2.16159955782,
			"-0.012": 3.21855111427,
			"-0.011": 3.14271206357,
			"-0.01": 3.45130470884,
			"-0.009": 5.38524570716,
			"-0.008": 6.16344645794,
			"-0.007": 6.59949242497,
			"-0.006": 10.0007109085,
			"-0.005": 15.0987851265,
			"-0.004": 17.1838175771,
			"-0.003": 13.3080408256,
			"-0.002": 11.3494080809,
			"-0.001": 13.2574081149,
			"0.0": 11.0054924444,
			"0.001": 9.46081110531,
			"0.002": 11.7359451738,
			"0.003": 10.1996509233,
			"0.004": 10.6709642655,
			"0.005": 11.2727996328,
			"0.006": 7.02352103819,
			"0.007": 2.46207678197,
			"0.008": 2.30071111484,
			"0.009": 2.03766199206,
			"0.01": 2.37547957799,
			"0.011": 2.00235786466,
			"0.012": 2.37991011305,
			"0.013": 3.2864523749,
			"0.014": 7.64844398534,
			"0.015": 2.59803048268,
			"0.016": 0.107062269643,
			"0.017": 0.95639275509,
			"0.018": 0.742865027401,
			"0.019": 0.591727408116,
			"0.02": 0.303346140961,
			"0.021": 0.0,
			"0.022": 0.0,
			"0.023": 0.0,
			"0.024": 0.0,
			"0.025": 0.0
		}
	}
}
