{
	 "smiles": "COC1=CC(OC(F)(F)F)=CC=C1C#N", 
	 "Tm": 308.15, 
	 "num_atms": 21, 
	 "gaussian": { 
		 "optdone": 1, 
		 "sigma_profile": "yes", 
		 "theory": "DFT", 
		 "functional": "B3LYP", 
		 "basiset": "6-31G**", 
		 "properties": { 
			 "R2extent": 3992.2463, 
			 "electric_dipole_moment_norm": 4.01330232352, 
			 "electric_quadrupole_moment_norm": 24.5134483131, 
			 "total_energy": -851.26498023, 
			 "HOMO_LUMO_gap": 0.19519, 
			 "cosmo_polarized_energy": -11.16, 
			 "cosmo_cavitation_energy": 28.45, 
			 "cosmo_dispersion_energy": -19.85, 
			 "cosmo_repulsion_energy": 1.5, 
			 "cosmo_total_nonelectrostatic_energy": 10.1, 
			 "SMD_solvation_energy": 8.65 
		},
		"coords": [
			{
				"x": -0.814462472,
				"y": -2.6364581778,
				"z": -1.9972173049,
				"element": "C" 
			},
			{
				"x": 0.5207440953,
				"y": -2.3968279701,
				"z": -1.5634902736,
				"element": "O" 
			},
			{
				"x": 0.7854114153,
				"y": -1.2813465668,
				"z": -0.8516270639,
				"element": "C" 
			},
			{
				"x": -0.1670219434,
				"y": -0.3240790694,
				"z": -0.4997400463,
				"element": "C" 
			},
			{
				"x": 0.2194189107,
				"y": 0.7945530673,
				"z": 0.2407348181,
				"element": "C" 
			},
			{
				"x": -0.8339396933,
				"y": 1.659351988,
				"z": 0.5162563324,
				"element": "O" 
			},
			{
				"x": -0.646181919,
				"y": 2.8034317669,
				"z": 1.2284016516,
				"element": "C" 
			},
			{
				"x": 0.2194418565,
				"y": 3.6426138393,
				"z": 0.6308834651,
				"element": "F" 
			},
			{
				"x": -0.1847526248,
				"y": 2.5644285365,
				"z": 2.4695720147,
				"element": "F" 
			},
			{
				"x": -1.8285978223,
				"y": 3.4057198476,
				"z": 1.3216592743,
				"element": "F" 
			},
			{
				"x": 1.5388916127,
				"y": 0.9928129079,
				"z": 0.6467132977,
				"element": "C" 
			},
			{
				"x": 2.4820090819,
				"y": 0.0318444312,
				"z": 0.2905962774,
				"element": "C" 
			},
			{
				"x": 2.1335306497,
				"y": -1.1028914,
				"z": -0.451007506,
				"element": "C" 
			},
			{
				"x": 3.124436409,
				"y": -2.0720545066,
				"z": -0.8015355923,
				"element": "C" 
			},
			{
				"x": 3.9519660279,
				"y": -2.8437207204,
				"z": -1.0722103019,
				"element": "N" 
			},
			{
				"x": -1.1657600476,
				"y": -1.840438737,
				"z": -2.6643705306,
				"element": "H" 
			},
			{
				"x": -0.7816931396,
				"y": -3.5792916894,
				"z": -2.542924149,
				"element": "H" 
			},
			{
				"x": -1.4991642812,
				"y": -2.7308073675,
				"z": -1.1460785627,
				"element": "H" 
			},
			{
				"x": -1.2065999746,
				"y": -0.4186552817,
				"z": -0.7834757584,
				"element": "H" 
			},
			{
				"x": 1.8357946148,
				"y": 1.8593467674,
				"z": 1.2197843464,
				"element": "H" 
			},
			{
				"x": 3.5159292437,
				"y": 0.1593683349,
				"z": 0.5923756121,
				"element": "H" 
			}
		],
		 "valence_orbital": [ 
			{
				"type": "occ",
				"energy": -0.35277,
				"method": "rhf"
			},
			{
				"type": "occ",
				"energy": -0.33249,
				"method": "rhf"
			},
			{
				"type": "occ",
				"energy": -0.32687,
				"method": "rhf"
			},
			{
				"type": "occ",
				"energy": -0.27017,
				"method": "rhf"
			},
			{
				"type": "occ",
				"energy": -0.24676,
				"method": "rhf"
			},
			{
				"type": "unocc",
				"energy": -0.05157,
				"method": "rhf"
			},
			{
				"type": "unocc",
				"energy": -0.02178,
				"method": "rhf"
			},
			{
				"type": "unocc",
				"energy": 0.03609,
				"method": "rhf"
			},
			{
				"type": "unocc",
				"energy": 0.06969,
				"method": "rhf"
			},
			{
				"type": "unocc",
				"energy": 0.07424,
				"method": "rhf"
			}
		],
		"cosmo_sigma_profile": { 
			"-0.025": 0.0,
			"-0.024": 0.0,
			"-0.023": 0.0,
			"-0.022": 0.0,
			"-0.021": 0.0,
			"-0.02": 0.0,
			"-0.019": 0.0,
			"-0.018": 0.0,
			"-0.017": 0.0,
			"-0.016": 0.0,
			"-0.015": 0.0,
			"-0.014": 0.0,
			"-0.013": 0.0,
			"-0.012": 0.0,
			"-0.011": 0.0,
			"-0.01": 0.0,
			"-0.009": 1.96480214346,
			"-0.008": 5.48458166253,
			"-0.007": 9.89705598258,
			"-0.006": 13.4915646333,
			"-0.005": 11.5680750495,
			"-0.004": 12.4177886602,
			"-0.003": 9.79481301129,
			"-0.002": 13.1860318856,
			"-0.001": 21.7214277677,
			"0.0": 27.2252792556,
			"0.001": 36.8049964054,
			"0.002": 23.4792422746,
			"0.003": 5.07480121739,
			"0.004": 5.05061279128,
			"0.005": 3.85335865609,
			"0.006": 4.26648896175,
			"0.007": 5.09473632099,
			"0.008": 5.31702993638,
			"0.009": 3.53127104695,
			"0.01": 3.3574001617,
			"0.011": 2.91825245498,
			"0.012": 2.41318872688,
			"0.013": 1.72410765267,
			"0.014": 0.151797273249,
			"0.015": 0.0,
			"0.016": 0.0,
			"0.017": 0.0,
			"0.018": 0.0,
			"0.019": 0.0,
			"0.02": 0.0,
			"0.021": 0.0,
			"0.022": 0.0,
			"0.023": 0.0,
			"0.024": 0.0,
			"0.025": 0.0
		}
	}
}
