{
	 "smiles": "O=C1CCCC2=C1SC(=N2)C1=CC=NC=C1", 
	 "Tm": 433.15, 
	 "num_atms": 26, 
	 "gaussian": { 
		 "optdone": 1, 
		 "sigma_profile": "yes", 
		 "theory": "DFT", 
		 "functional": "B3LYP", 
		 "basiset": "6-31G**", 
		 "properties": { 
			 "R2extent": 5703.5277, 
			 "electric_dipole_moment_norm": 2.95926028764, 
			 "electric_quadrupole_moment_norm": 15.1860177716, 
			 "total_energy": -1046.22493242, 
			 "HOMO_LUMO_gap": 0.1547, 
			 "cosmo_polarized_energy": -11.88, 
			 "cosmo_cavitation_energy": 31.33, 
			 "cosmo_dispersion_energy": -23.85, 
			 "cosmo_repulsion_energy": 1.79, 
			 "cosmo_total_nonelectrostatic_energy": 9.27, 
			 "SMD_solvation_energy": 2.23 
		},
		"coords": [
			{
				"x": -2.8668584992,
				"y": -0.2632780198,
				"z": 0.8014608793,
				"element": "O" 
			},
			{
				"x": -1.8732229395,
				"y": -0.5932937204,
				"z": 0.1708401258,
				"element": "C" 
			},
			{
				"x": -1.8676811944,
				"y": -1.7547022584,
				"z": -0.8240229602,
				"element": "C" 
			},
			{
				"x": -0.837277386,
				"y": -1.58799491,
				"z": -1.9543075095,
				"element": "C" 
			},
			{
				"x": 0.583861781,
				"y": -1.3482964449,
				"z": -1.4143509028,
				"element": "C" 
			},
			{
				"x": 0.5742482066,
				"y": -0.2677423693,
				"z": -0.3703611394,
				"element": "C" 
			},
			{
				"x": -0.5710855707,
				"y": 0.0600390548,
				"z": 0.3296815048,
				"element": "C" 
			},
			{
				"x": -0.2388495943,
				"y": 1.3449167315,
				"z": 1.4509735278,
				"element": "S" 
			},
			{
				"x": 1.4279672331,
				"y": 1.3356676357,
				"z": 0.8927137466,
				"element": "C" 
			},
			{
				"x": 1.6878259418,
				"y": 0.4500479901,
				"z": -0.0464890182,
				"element": "N" 
			},
			{
				"x": 2.4453338194,
				"y": 2.2490542986,
				"z": 1.4298512333,
				"element": "C" 
			},
			{
				"x": 3.7589122623,
				"y": 2.1917106145,
				"z": 0.938671265,
				"element": "C" 
			},
			{
				"x": 4.7085527747,
				"y": 3.0653201399,
				"z": 1.4615925089,
				"element": "C" 
			},
			{
				"x": 4.4506811611,
				"y": 3.9706525444,
				"z": 2.4157834202,
				"element": "N" 
			},
			{
				"x": 3.1953916085,
				"y": 4.0190629423,
				"z": 2.8790059013,
				"element": "C" 
			},
			{
				"x": 2.1672203535,
				"y": 3.1934895119,
				"z": 2.4282482778,
				"element": "C" 
			},
			{
				"x": -1.6460182133,
				"y": -2.6648384412,
				"z": -0.2469240742,
				"element": "H" 
			},
			{
				"x": -2.8848621012,
				"y": -1.8659752706,
				"z": -1.2094766859,
				"element": "H" 
			},
			{
				"x": -0.8477391551,
				"y": -2.4722652056,
				"z": -2.5994701754,
				"element": "H" 
			},
			{
				"x": -1.1276441746,
				"y": -0.7356839319,
				"z": -2.5808824161,
				"element": "H" 
			},
			{
				"x": 0.9819716554,
				"y": -2.2719999828,
				"z": -0.969470599,
				"element": "H" 
			},
			{
				"x": 1.2741067573,
				"y": -1.0712018095,
				"z": -2.2173558463,
				"element": "H" 
			},
			{
				"x": 4.015030645,
				"y": 1.4758417651,
				"z": 0.1665926229,
				"element": "H" 
			},
			{
				"x": 5.7326095017,
				"y": 3.0365754398,
				"z": 1.0939665772,
				"element": "H" 
			},
			{
				"x": 2.9972552481,
				"y": 4.757704892,
				"z": 3.6533537206,
				"element": "H" 
			},
			{
				"x": 1.1728698788,
				"y": 3.2924888039,
				"z": 2.8531760154,
				"element": "H" 
			}
		],
		 "valence_orbital": [ 
			{
				"type": "occ",
				"energy": -0.29499,
				"method": "rhf"
			},
			{
				"type": "occ",
				"energy": -0.2721,
				"method": "rhf"
			},
			{
				"type": "occ",
				"energy": -0.2632,
				"method": "rhf"
			},
			{
				"type": "occ",
				"energy": -0.25306,
				"method": "rhf"
			},
			{
				"type": "occ",
				"energy": -0.2461,
				"method": "rhf"
			},
			{
				"type": "unocc",
				"energy": -0.0914,
				"method": "rhf"
			},
			{
				"type": "unocc",
				"energy": -0.03328,
				"method": "rhf"
			},
			{
				"type": "unocc",
				"energy": -0.01949,
				"method": "rhf"
			},
			{
				"type": "unocc",
				"energy": 0.00944,
				"method": "rhf"
			},
			{
				"type": "unocc",
				"energy": 0.02659,
				"method": "rhf"
			}
		],
		"cosmo_sigma_profile": { 
			"-0.025": 0.0,
			"-0.024": 0.0,
			"-0.023": 0.0,
			"-0.022": 0.0,
			"-0.021": 0.0,
			"-0.02": 0.0,
			"-0.019": 0.0,
			"-0.018": 0.0,
			"-0.017": 0.0,
			"-0.016": 0.0,
			"-0.015": 0.0,
			"-0.014": 0.0,
			"-0.013": 0.0,
			"-0.012": 0.0,
			"-0.011": 0.0,
			"-0.01": 0.0,
			"-0.009": 0.098873229091,
			"-0.008": 1.76751768124,
			"-0.007": 5.89589819512,
			"-0.006": 13.4265673408,
			"-0.005": 18.6323879398,
			"-0.004": 23.5088959014,
			"-0.003": 24.1590899216,
			"-0.002": 25.6519226433,
			"-0.001": 22.9739331948,
			"0.0": 21.2519521058,
			"0.001": 28.1706560274,
			"0.002": 15.1359759184,
			"0.003": 7.19497901203,
			"0.004": 5.50287022898,
			"0.005": 4.87791118692,
			"0.006": 4.14652408984,
			"0.007": 4.06761784959,
			"0.008": 3.18408051454,
			"0.009": 3.9815884198,
			"0.01": 4.04018889899,
			"0.011": 5.03310255481,
			"0.012": 4.7873910742,
			"0.013": 2.77955435748,
			"0.014": 1.04058403663,
			"0.015": 0.735639365527,
			"0.016": 0.803948221847,
			"0.017": 0.0203309972104,
			"0.018": 0.0,
			"0.019": 0.0,
			"0.02": 0.0,
			"0.021": 0.0,
			"0.022": 0.0,
			"0.023": 0.0,
			"0.024": 0.0,
			"0.025": 0.0
		}
	}
}
