{
	 "smiles": "ClC1=CC=C(C=C1)N1C=CC=C1", 
	 "Tm": 362.65, 
	 "num_atms": 20, 
	 "gaussian": { 
		 "optdone": 1, 
		 "sigma_profile": "yes", 
		 "theory": "DFT", 
		 "functional": "B3LYP", 
		 "basiset": "6-31G**", 
		 "properties": { 
			 "R2extent": 3131.9022, 
			 "electric_dipole_moment_norm": 0.991207374872, 
			 "electric_quadrupole_moment_norm": 9.25873931375, 
			 "total_energy": -900.812510215, 
			 "HOMO_LUMO_gap": 0.19048, 
			 "cosmo_polarized_energy": -6.81, 
			 "cosmo_cavitation_energy": 25.59, 
			 "cosmo_dispersion_energy": -19.36, 
			 "cosmo_repulsion_energy": 1.5, 
			 "cosmo_total_nonelectrostatic_energy": 7.73, 
			 "SMD_solvation_energy": 4.78 
		},
		"coords": [
			{
				"x": -2.7853517077,
				"y": -1.5394966151,
				"z": -3.0018161835,
				"element": "Cl" 
			},
			{
				"x": -1.5683186419,
				"y": -0.9479281594,
				"z": -1.8823102474,
				"element": "C" 
			},
			{
				"x": -0.2443237817,
				"y": -1.3609414929,
				"z": -2.0133272858,
				"element": "C" 
			},
			{
				"x": 0.7188457518,
				"y": -0.8907920829,
				"z": -1.1248540558,
				"element": "C" 
			},
			{
				"x": 0.3767988918,
				"y": -0.0024518379,
				"z": -0.093092988,
				"element": "C" 
			},
			{
				"x": -0.9629659824,
				"y": 0.4009250213,
				"z": 0.0208827368,
				"element": "C" 
			},
			{
				"x": -1.9292814335,
				"y": -0.0667910458,
				"z": -0.8654491601,
				"element": "C" 
			},
			{
				"x": 1.358134121,
				"y": 0.4745654808,
				"z": 0.8096192704,
				"element": "N" 
			},
			{
				"x": 1.1420373671,
				"y": 1.3521185942,
				"z": 1.8647005268,
				"element": "C" 
			},
			{
				"x": 2.3347945917,
				"y": 1.5736998008,
				"z": 2.5046697248,
				"element": "C" 
			},
			{
				"x": 3.3301283614,
				"y": 0.8088632972,
				"z": 1.8267958164,
				"element": "C" 
			},
			{
				"x": 2.7084924102,
				"y": 0.148394489,
				"z": 0.7978759827,
				"element": "C" 
			},
			{
				"x": 0.0365207792,
				"y": -2.0468075911,
				"z": -2.804917906,
				"element": "H" 
			},
			{
				"x": 1.7400314767,
				"y": -1.2277485623,
				"z": -1.249544329,
				"element": "H" 
			},
			{
				"x": -1.270788938,
				"y": 1.08466106,
				"z": 0.8016816322,
				"element": "H" 
			},
			{
				"x": -2.9599166632,
				"y": 0.2546249486,
				"z": -0.7635614414,
				"element": "H" 
			},
			{
				"x": 0.1641068016,
				"y": 1.7490225728,
				"z": 2.0782734597,
				"element": "H" 
			},
			{
				"x": 2.4768186125,
				"y": 2.2137866973,
				"z": 3.3639676527,
				"element": "H" 
			},
			{
				"x": 4.3824894695,
				"y": 0.7494151033,
				"z": 2.0661208183,
				"element": "H" 
			},
			{
				"x": 3.1211485139,
				"y": -0.5233196778,
				"z": 0.0643859762,
				"element": "H" 
			}
		],
		 "valence_orbital": [ 
			{
				"type": "occ",
				"energy": -0.31469,
				"method": "rhf"
			},
			{
				"type": "occ",
				"energy": -0.27855,
				"method": "rhf"
			},
			{
				"type": "occ",
				"energy": -0.27175,
				"method": "rhf"
			},
			{
				"type": "occ",
				"energy": -0.2187,
				"method": "rhf"
			},
			{
				"type": "occ",
				"energy": -0.21771,
				"method": "rhf"
			},
			{
				"type": "unocc",
				"energy": -0.02723,
				"method": "rhf"
			},
			{
				"type": "unocc",
				"energy": -0.02129,
				"method": "rhf"
			},
			{
				"type": "unocc",
				"energy": 0.02696,
				"method": "rhf"
			},
			{
				"type": "unocc",
				"energy": 0.04667,
				"method": "rhf"
			},
			{
				"type": "unocc",
				"energy": 0.08215,
				"method": "rhf"
			}
		],
		"cosmo_sigma_profile": { 
			"-0.025": 0.0,
			"-0.024": 0.0,
			"-0.023": 0.0,
			"-0.022": 0.0,
			"-0.021": 0.0,
			"-0.02": 0.0,
			"-0.019": 0.0,
			"-0.018": 0.0,
			"-0.017": 0.0,
			"-0.016": 0.0,
			"-0.015": 0.0,
			"-0.014": 0.0,
			"-0.013": 0.0,
			"-0.012": 0.0,
			"-0.011": 0.242887233218,
			"-0.01": 2.33296321493,
			"-0.009": 3.06282231188,
			"-0.008": 5.02349636549,
			"-0.007": 7.50094910148,
			"-0.006": 10.737733357,
			"-0.005": 10.959359028,
			"-0.004": 9.51206829937,
			"-0.003": 11.9712187757,
			"-0.002": 11.7662058869,
			"-0.001": 12.019108378,
			"0.0": 14.4743227526,
			"0.001": 17.326470724,
			"0.002": 22.640196076,
			"0.003": 23.6772936239,
			"0.004": 17.4006915978,
			"0.005": 13.7757777704,
			"0.006": 4.85408869327,
			"0.007": 6.32254786619,
			"0.008": 3.24565802719,
			"0.009": 0.000427794801976,
			"0.01": 0.0,
			"0.011": 0.0,
			"0.012": 0.0,
			"0.013": 0.0,
			"0.014": 0.0,
			"0.015": 0.0,
			"0.016": 0.0,
			"0.017": 0.0,
			"0.018": 0.0,
			"0.019": 0.0,
			"0.02": 0.0,
			"0.021": 0.0,
			"0.022": 0.0,
			"0.023": 0.0,
			"0.024": 0.0,
			"0.025": 0.0
		}
	}
}
