{
	 "smiles": "CC1=C(CCO)C(O)=NC(S)=N1", 
	 "Tm": 537.15, 
	 "num_atms": 22, 
	 "gaussian": { 
		 "optdone": 1, 
		 "sigma_profile": "yes", 
		 "theory": "DFT", 
		 "functional": "B3LYP", 
		 "basiset": "6-31G**", 
		 "properties": { 
			 "R2extent": 3703.6469, 
			 "electric_dipole_moment_norm": 0.997835517508, 
			 "electric_quadrupole_moment_norm": 22.2786432583, 
			 "total_energy": -930.917047896, 
			 "HOMO_LUMO_gap": 0.19931, 
			 "cosmo_polarized_energy": -13.43, 
			 "cosmo_cavitation_energy": 27.0, 
			 "cosmo_dispersion_energy": -20.55, 
			 "cosmo_repulsion_energy": 1.62, 
			 "cosmo_total_nonelectrostatic_energy": 8.07, 
			 "SMD_solvation_energy": 1.68 
		},
		"coords": [
			{
				"x": 2.6365215939,
				"y": 1.7028292136,
				"z": -0.4367558566,
				"element": "C" 
			},
			{
				"x": 2.2035664268,
				"y": 0.261110099,
				"z": -0.5303318413,
				"element": "C" 
			},
			{
				"x": 0.8655944886,
				"y": -0.1331300022,
				"z": -0.3580267296,
				"element": "C" 
			},
			{
				"x": -0.2676027112,
				"y": 0.8300431051,
				"z": -0.0759163822,
				"element": "C" 
			},
			{
				"x": -0.7859311218,
				"y": 0.8357844273,
				"z": 1.3818141859,
				"element": "C" 
			},
			{
				"x": -1.7221306137,
				"y": -0.1847717042,
				"z": 1.665672327,
				"element": "O" 
			},
			{
				"x": 0.6618163088,
				"y": -1.5178252973,
				"z": -0.4678514081,
				"element": "C" 
			},
			{
				"x": -0.5882260526,
				"y": -2.0134402741,
				"z": -0.285270642,
				"element": "O" 
			},
			{
				"x": 1.6121722249,
				"y": -2.4075758077,
				"z": -0.7365961173,
				"element": "N" 
			},
			{
				"x": 2.840593143,
				"y": -1.9005010293,
				"z": -0.8919775577,
				"element": "C" 
			},
			{
				"x": 4.1797797115,
				"y": -3.011034137,
				"z": -1.2603084498,
				"element": "S" 
			},
			{
				"x": 3.187035305,
				"y": -0.6212573891,
				"z": -0.7956698743,
				"element": "N" 
			},
			{
				"x": 3.7188140231,
				"y": 1.757156196,
				"z": -0.5551428439,
				"element": "H" 
			},
			{
				"x": 2.3606448754,
				"y": 2.1441891581,
				"z": 0.5265724602,
				"element": "H" 
			},
			{
				"x": 2.1675445404,
				"y": 2.3105860447,
				"z": -1.2190022376,
				"element": "H" 
			},
			{
				"x": -1.1211748228,
				"y": 0.6038682167,
				"z": -0.7258786737,
				"element": "H" 
			},
			{
				"x": 0.0598408525,
				"y": 1.8421216156,
				"z": -0.3292084345,
				"element": "H" 
			},
			{
				"x": 0.0746328575,
				"y": 0.8034621162,
				"z": 2.0718606791,
				"element": "H" 
			},
			{
				"x": -1.3085296873,
				"y": 1.7816431066,
				"z": 1.5637252909,
				"element": "H" 
			},
			{
				"x": -1.404983954,
				"y": -1.0070094617,
				"z": 1.2669941968,
				"element": "H" 
			},
			{
				"x": -0.5234405896,
				"y": -2.9746951029,
				"z": -0.4093078058,
				"element": "H" 
			},
			{
				"x": 3.4185632015,
				"y": -4.1220530934,
				"z": -1.2607942856,
				"element": "H" 
			}
		],
		 "valence_orbital": [ 
			{
				"type": "occ",
				"energy": -0.30542,
				"method": "rhf"
			},
			{
				"type": "occ",
				"energy": -0.28677,
				"method": "rhf"
			},
			{
				"type": "occ",
				"energy": -0.26877,
				"method": "rhf"
			},
			{
				"type": "occ",
				"energy": -0.25952,
				"method": "rhf"
			},
			{
				"type": "occ",
				"energy": -0.23713,
				"method": "rhf"
			},
			{
				"type": "unocc",
				"energy": -0.03782,
				"method": "rhf"
			},
			{
				"type": "unocc",
				"energy": -0.02381,
				"method": "rhf"
			},
			{
				"type": "unocc",
				"energy": 0.01837,
				"method": "rhf"
			},
			{
				"type": "unocc",
				"energy": 0.06024,
				"method": "rhf"
			},
			{
				"type": "unocc",
				"energy": 0.07836,
				"method": "rhf"
			}
		],
		"cosmo_sigma_profile": { 
			"-0.025": 0.0,
			"-0.024": 0.0,
			"-0.023": 0.0,
			"-0.022": 0.0,
			"-0.021": 0.0,
			"-0.02": 0.0,
			"-0.019": 0.0692902516707,
			"-0.018": 0.734312718083,
			"-0.017": 0.596923056599,
			"-0.016": 1.24235453433,
			"-0.015": 0.371074433143,
			"-0.014": 0.588654550339,
			"-0.013": 0.607241180033,
			"-0.012": 1.10185551741,
			"-0.011": 1.91608406727,
			"-0.01": 1.72452288647,
			"-0.009": 1.68315476219,
			"-0.008": 2.13973282438,
			"-0.007": 3.4251924241,
			"-0.006": 5.21679562587,
			"-0.005": 14.217528252,
			"-0.004": 18.5780396072,
			"-0.003": 18.1602822296,
			"-0.002": 20.4966495584,
			"-0.001": 22.5259087243,
			"0.0": 15.6632565438,
			"0.001": 9.33203978211,
			"0.002": 9.73073544579,
			"0.003": 11.5369350044,
			"0.004": 9.53939205176,
			"0.005": 10.3529712961,
			"0.006": 7.83071921248,
			"0.007": 6.21692027937,
			"0.008": 4.39683994877,
			"0.009": 3.07521810226,
			"0.01": 1.92885384767,
			"0.011": 1.9089405935,
			"0.012": 2.20602885455,
			"0.013": 2.67413361937,
			"0.014": 2.10419944791,
			"0.015": 1.90423589879,
			"0.016": 0.0340093820518,
			"0.017": 0.0,
			"0.018": 0.0,
			"0.019": 0.0,
			"0.02": 0.0,
			"0.021": 0.0,
			"0.022": 0.0,
			"0.023": 0.0,
			"0.024": 0.0,
			"0.025": 0.0
		}
	}
}
