{
	 "smiles": "CCOC1=C(O)C(Cl)=CC(=C1)C#N", 
	 "Tm": 400.15, 
	 "num_atms": 21, 
	 "gaussian": { 
		 "optdone": 1, 
		 "sigma_profile": "yes", 
		 "theory": "DFT", 
		 "functional": "B3LYP", 
		 "basiset": "6-31G**", 
		 "properties": { 
			 "R2extent": 4426.2494, 
			 "electric_dipole_moment_norm": 5.84658708137, 
			 "electric_quadrupole_moment_norm": 17.6458884072, 
			 "total_energy": -1013.14643383, 
			 "HOMO_LUMO_gap": 0.18848, 
			 "cosmo_polarized_energy": -12.91, 
			 "cosmo_cavitation_energy": 28.3, 
			 "cosmo_dispersion_energy": -20.3, 
			 "cosmo_repulsion_energy": 1.64, 
			 "cosmo_total_nonelectrostatic_energy": 9.64, 
			 "SMD_solvation_energy": 6.75 
		},
		"coords": [
			{
				"x": 3.3635286859,
				"y": 0.336185433,
				"z": 2.2139479645,
				"element": "C" 
			},
			{
				"x": 2.2762476986,
				"y": -0.4717833403,
				"z": 1.53073104,
				"element": "C" 
			},
			{
				"x": 2.2094512174,
				"y": -0.0450673971,
				"z": 0.1627944905,
				"element": "O" 
			},
			{
				"x": 1.2962029374,
				"y": -0.6313576596,
				"z": -0.6683374676,
				"element": "C" 
			},
			{
				"x": 1.3405959881,
				"y": -0.1149644837,
				"z": -1.9860111484,
				"element": "C" 
			},
			{
				"x": 2.2229978932,
				"y": 0.8535756224,
				"z": -2.3022068445,
				"element": "O" 
			},
			{
				"x": 0.4591239616,
				"y": -0.6256283782,
				"z": -2.9418279019,
				"element": "C" 
			},
			{
				"x": 0.5097110851,
				"y": 0.0074598786,
				"z": -4.5675739924,
				"element": "Cl" 
			},
			{
				"x": -0.4526605333,
				"y": -1.627512632,
				"z": -2.612192909,
				"element": "C" 
			},
			{
				"x": -0.4847512416,
				"y": -2.1279710499,
				"z": -1.3057033289,
				"element": "C" 
			},
			{
				"x": 0.3955020093,
				"y": -1.6278232836,
				"z": -0.3237397883,
				"element": "C" 
			},
			{
				"x": -1.417276687,
				"y": -3.1569379945,
				"z": -0.9568659652,
				"element": "C" 
			},
			{
				"x": -2.1716590498,
				"y": -3.9932423113,
				"z": -0.663863855,
				"element": "N" 
			},
			{
				"x": 3.4436237025,
				"y": 0.0369271586,
				"z": 3.2630793385,
				"element": "H" 
			},
			{
				"x": 4.3314069942,
				"y": 0.1692644087,
				"z": 1.7331697786,
				"element": "H" 
			},
			{
				"x": 3.1343673334,
				"y": 1.4047915201,
				"z": 2.1769866223,
				"element": "H" 
			},
			{
				"x": 1.3008770523,
				"y": -0.309236373,
				"z": 2.0078905909,
				"element": "H" 
			},
			{
				"x": 2.4993721298,
				"y": -1.5463040219,
				"z": 1.5634654336,
				"element": "H" 
			},
			{
				"x": 2.7274525654,
				"y": 1.0529378268,
				"z": -1.4967269265,
				"element": "H" 
			},
			{
				"x": -1.1284501105,
				"y": -2.0114283861,
				"z": -3.3663247789,
				"element": "H" 
			},
			{
				"x": 0.3555363678,
				"y": -2.0274845372,
				"z": 0.6811096477,
				"element": "H" 
			}
		],
		 "valence_orbital": [ 
			{
				"type": "occ",
				"energy": -0.33247,
				"method": "rhf"
			},
			{
				"type": "occ",
				"energy": -0.31877,
				"method": "rhf"
			},
			{
				"type": "occ",
				"energy": -0.31303,
				"method": "rhf"
			},
			{
				"type": "occ",
				"energy": -0.25752,
				"method": "rhf"
			},
			{
				"type": "occ",
				"energy": -0.23474,
				"method": "rhf"
			},
			{
				"type": "unocc",
				"energy": -0.04626,
				"method": "rhf"
			},
			{
				"type": "unocc",
				"energy": -0.02222,
				"method": "rhf"
			},
			{
				"type": "unocc",
				"energy": 0.01666,
				"method": "rhf"
			},
			{
				"type": "unocc",
				"energy": 0.03618,
				"method": "rhf"
			},
			{
				"type": "unocc",
				"energy": 0.0707,
				"method": "rhf"
			}
		],
		"cosmo_sigma_profile": { 
			"-0.025": 0.0,
			"-0.024": 0.0,
			"-0.023": 0.0,
			"-0.022": 0.0,
			"-0.021": 0.0,
			"-0.02": 0.0,
			"-0.019": 0.0,
			"-0.018": 0.0,
			"-0.017": 0.0,
			"-0.016": 0.139111189905,
			"-0.015": 0.421798557662,
			"-0.014": 0.697632985834,
			"-0.013": 0.72796687582,
			"-0.012": 0.544590759828,
			"-0.011": 0.853262169652,
			"-0.01": 0.679796151645,
			"-0.009": 2.35575469437,
			"-0.008": 5.14975569913,
			"-0.007": 6.1806980448,
			"-0.006": 9.31877559994,
			"-0.005": 11.9793353853,
			"-0.004": 16.5384751484,
			"-0.003": 15.6791409736,
			"-0.002": 15.7705274892,
			"-0.001": 23.8793254007,
			"0.0": 24.4306539712,
			"0.001": 23.0504177663,
			"0.002": 10.6841946522,
			"0.003": 10.8984264405,
			"0.004": 10.847530016,
			"0.005": 6.17689742702,
			"0.006": 4.24551951143,
			"0.007": 4.50515557095,
			"0.008": 5.60761933213,
			"0.009": 5.46864494739,
			"0.01": 5.05107614635,
			"0.011": 2.83704092327,
			"0.012": 2.56594767612,
			"0.013": 1.67437060136,
			"0.014": 0.14629472795,
			"0.015": 0.0,
			"0.016": 0.0,
			"0.017": 0.0,
			"0.018": 0.0,
			"0.019": 0.0,
			"0.02": 0.0,
			"0.021": 0.0,
			"0.022": 0.0,
			"0.023": 0.0,
			"0.024": 0.0,
			"0.025": 0.0
		}
	}
}
