{
	 "smiles": "CC12CCC3C(CCC4CCCCC34C)C1CCC2(O)C#CC1=CC=CC=C1", 
	 "Tm": 383.15, 
	 "num_atms": 64, 
	 "gaussian": { 
		 "optdone": 1, 
		 "sigma_profile": "yes", 
		 "theory": "DFT", 
		 "functional": "B3LYP", 
		 "basiset": "6-31G**", 
		 "properties": { 
			 "R2extent": 16115.3415, 
			 "electric_dipole_moment_norm": 1.39027175401, 
			 "electric_quadrupole_moment_norm": 10.4739810793, 
			 "total_energy": -1125.75547164, 
			 "HOMO_LUMO_gap": 0.1951, 
			 "cosmo_polarized_energy": -8.48, 
			 "cosmo_cavitation_energy": 56.51, 
			 "cosmo_dispersion_energy": -39.0, 
			 "cosmo_repulsion_energy": 2.88, 
			 "cosmo_total_nonelectrostatic_energy": 20.39, 
			 "SMD_solvation_energy": 7.75 
		},
		"coords": [
			{
				"x": -1.1818147696,
				"y": -0.1222127418,
				"z": 1.8457040667,
				"element": "C" 
			},
			{
				"x": -0.0025041104,
				"y": 0.4138841909,
				"z": 1.017108073,
				"element": "C" 
			},
			{
				"x": -0.2820966678,
				"y": 1.8730956415,
				"z": 0.602004579,
				"element": "C" 
			},
			{
				"x": -1.4991107051,
				"y": 2.003431521,
				"z": -0.3306755238,
				"element": "C" 
			},
			{
				"x": -1.5613996788,
				"y": 0.9223269103,
				"z": -1.4509615822,
				"element": "C" 
			},
			{
				"x": -0.2069849489,
				"y": 0.1932769135,
				"z": -1.6005312395,
				"element": "C" 
			},
			{
				"x": -0.2903057145,
				"y": -0.8811340948,
				"z": -2.6969987199,
				"element": "C" 
			},
			{
				"x": -0.7889821399,
				"y": -0.3198688356,
				"z": -4.028040303,
				"element": "C" 
			},
			{
				"x": -2.1628653089,
				"y": 0.3614386245,
				"z": -3.8765677672,
				"element": "C" 
			},
			{
				"x": -2.7276869527,
				"y": 0.8471269272,
				"z": -5.243003907,
				"element": "C" 
			},
			{
				"x": -2.4402309216,
				"y": 2.3317353213,
				"z": -5.5744114437,
				"element": "C" 
			},
			{
				"x": -1.1986325574,
				"y": 2.8494338101,
				"z": -4.8438374994,
				"element": "C" 
			},
			{
				"x": -1.322151301,
				"y": 2.7200879524,
				"z": -3.3077112091,
				"element": "C" 
			},
			{
				"x": -2.1444478529,
				"y": 1.4855044962,
				"z": -2.7970256572,
				"element": "C" 
			},
			{
				"x": -3.6047431223,
				"y": 1.9163021453,
				"z": -2.517725166,
				"element": "C" 
			},
			{
				"x": 0.2654294453,
				"y": -0.4535205282,
				"z": -0.2689526758,
				"element": "C" 
			},
			{
				"x": 1.7963231386,
				"y": -0.7554295203,
				"z": -0.2809437366,
				"element": "C" 
			},
			{
				"x": 2.422933565,
				"y": 0.2402437508,
				"z": 0.7000749181,
				"element": "C" 
			},
			{
				"x": 1.3697628235,
				"y": 0.3519847377,
				"z": 1.8179479055,
				"element": "C" 
			},
			{
				"x": 1.6405607072,
				"y": 1.5294296528,
				"z": 2.5839473282,
				"element": "O" 
			},
			{
				"x": 1.4543800787,
				"y": -0.8291821092,
				"z": 2.6976294248,
				"element": "C" 
			},
			{
				"x": 1.5596480962,
				"y": -1.7769049758,
				"z": 3.4496615689,
				"element": "C" 
			},
			{
				"x": 1.6899950525,
				"y": -2.892190319,
				"z": 4.3346328534,
				"element": "C" 
			},
			{
				"x": 2.7736027036,
				"y": -2.9685998596,
				"z": 5.2316507598,
				"element": "C" 
			},
			{
				"x": 2.8986042539,
				"y": -4.0547029647,
				"z": 6.0943706755,
				"element": "C" 
			},
			{
				"x": 1.9514585546,
				"y": -5.0815288695,
				"z": 6.0768110796,
				"element": "C" 
			},
			{
				"x": 0.8740281242,
				"y": -5.0162430451,
				"z": 5.1899557834,
				"element": "C" 
			},
			{
				"x": 0.7400528029,
				"y": -3.9322608604,
				"z": 4.3258524613,
				"element": "C" 
			},
			{
				"x": -1.0227936186,
				"y": -1.1638774837,
				"z": 2.1351546355,
				"element": "H" 
			},
			{
				"x": -1.3183471788,
				"y": 0.4623061228,
				"z": 2.7645187548,
				"element": "H" 
			},
			{
				"x": -2.1193333962,
				"y": -0.0704171504,
				"z": 1.2851769525,
				"element": "H" 
			},
			{
				"x": 0.6013682893,
				"y": 2.2855061399,
				"z": 0.1032996828,
				"element": "H" 
			},
			{
				"x": -0.4300905282,
				"y": 2.4931160953,
				"z": 1.4914782366,
				"element": "H" 
			},
			{
				"x": -1.4711197394,
				"y": 3.0059530425,
				"z": -0.7687420654,
				"element": "H" 
			},
			{
				"x": -2.4205138346,
				"y": 1.9677397017,
				"z": 0.2601673927,
				"element": "H" 
			},
			{
				"x": -2.2751714241,
				"y": 0.1478473146,
				"z": -1.1275155297,
				"element": "H" 
			},
			{
				"x": 0.5537317877,
				"y": 0.928283602,
				"z": -1.9066430423,
				"element": "H" 
			},
			{
				"x": -0.9808106186,
				"y": -1.6687410026,
				"z": -2.3595252398,
				"element": "H" 
			},
			{
				"x": 0.6847403514,
				"y": -1.3653538758,
				"z": -2.8306203237,
				"element": "H" 
			},
			{
				"x": -0.8716503877,
				"y": -1.1283963951,
				"z": -4.7659919709,
				"element": "H" 
			},
			{
				"x": -0.0484084528,
				"y": 0.3818430862,
				"z": -4.4302169401,
				"element": "H" 
			},
			{
				"x": -2.8429752947,
				"y": -0.4190756269,
				"z": -3.5031515496,
				"element": "H" 
			},
			{
				"x": -3.8092799945,
				"y": 0.6758176383,
				"z": -5.2779957065,
				"element": "H" 
			},
			{
				"x": -2.3025669367,
				"y": 0.2100047945,
				"z": -6.0282389589,
				"element": "H" 
			},
			{
				"x": -3.298989343,
				"y": 2.9550107584,
				"z": -5.2961243693,
				"element": "H" 
			},
			{
				"x": -2.3211638397,
				"y": 2.4555643529,
				"z": -6.6570145788,
				"element": "H" 
			},
			{
				"x": -0.3206149704,
				"y": 2.2981253717,
				"z": -5.2006562094,
				"element": "H" 
			},
			{
				"x": -1.015941685,
				"y": 3.8987967339,
				"z": -5.1041219439,
				"element": "H" 
			},
			{
				"x": -0.3132284755,
				"y": 2.7076798862,
				"z": -2.8804838458,
				"element": "H" 
			},
			{
				"x": -1.7935603729,
				"y": 3.6312251359,
				"z": -2.9211916375,
				"element": "H" 
			},
			{
				"x": -4.2008081491,
				"y": 1.0647917387,
				"z": -2.1679587833,
				"element": "H" 
			},
			{
				"x": -4.0947068606,
				"y": 2.3183100059,
				"z": -3.4079567344,
				"element": "H" 
			},
			{
				"x": -3.649956778,
				"y": 2.6927934571,
				"z": -1.7481038278,
				"element": "H" 
			},
			{
				"x": -0.2846802552,
				"y": -1.3973840978,
				"z": -0.1647738106,
				"element": "H" 
			},
			{
				"x": 1.9859972186,
				"y": -1.7767099348,
				"z": 0.0650313824,
				"element": "H" 
			},
			{
				"x": 2.2283610646,
				"y": -0.6731442692,
				"z": -1.2831172353,
				"element": "H" 
			},
			{
				"x": 2.5423397017,
				"y": 1.2314954548,
				"z": 0.2498473538,
				"element": "H" 
			},
			{
				"x": 3.3971568406,
				"y": -0.0696214228,
				"z": 1.0859183581,
				"element": "H" 
			},
			{
				"x": 1.1175404923,
				"y": 1.4778088966,
				"z": 3.3952707947,
				"element": "H" 
			},
			{
				"x": 3.5085469277,
				"y": -2.1700909772,
				"z": 5.240712796,
				"element": "H" 
			},
			{
				"x": 3.7385340285,
				"y": -4.1008518839,
				"z": 6.7815894122,
				"element": "H" 
			},
			{
				"x": 2.052567444,
				"y": -5.927806247,
				"z": 6.7500106608,
				"element": "H" 
			},
			{
				"x": 0.1349835793,
				"y": -5.8121067694,
				"z": 5.1720210967,
				"element": "H" 
			},
			{
				"x": -0.0964781859,
				"y": -3.8788660643,
				"z": 3.6363817466,
				"element": "H" 
			}
		],
		 "valence_orbital": [ 
			{
				"type": "occ",
				"energy": -0.26588,
				"method": "rhf"
			},
			{
				"type": "occ",
				"energy": -0.26486,
				"method": "rhf"
			},
			{
				"type": "occ",
				"energy": -0.25564,
				"method": "rhf"
			},
			{
				"type": "occ",
				"energy": -0.25301,
				"method": "rhf"
			},
			{
				"type": "occ",
				"energy": -0.22508,
				"method": "rhf"
			},
			{
				"type": "unocc",
				"energy": -0.02998,
				"method": "rhf"
			},
			{
				"type": "unocc",
				"energy": -0.00457,
				"method": "rhf"
			},
			{
				"type": "unocc",
				"energy": 0.04808,
				"method": "rhf"
			},
			{
				"type": "unocc",
				"energy": 0.06646,
				"method": "rhf"
			},
			{
				"type": "unocc",
				"energy": 0.0787,
				"method": "rhf"
			}
		],
		"cosmo_sigma_profile": { 
			"-0.025": 0.0,
			"-0.024": 0.0,
			"-0.023": 0.0,
			"-0.022": 0.0,
			"-0.021": 0.0,
			"-0.02": 0.0,
			"-0.019": 0.0,
			"-0.018": 0.0,
			"-0.017": 0.0,
			"-0.016": 0.0101486601841,
			"-0.015": 0.414704871813,
			"-0.014": 0.648440419411,
			"-0.013": 0.906439368877,
			"-0.012": 0.549264804379,
			"-0.011": 0.457238023335,
			"-0.01": 0.584320798061,
			"-0.009": 1.49784657583,
			"-0.008": 0.883720383182,
			"-0.007": 1.67819697766,
			"-0.006": 9.45432075159,
			"-0.005": 11.3724304772,
			"-0.004": 14.0080801204,
			"-0.003": 20.6254179164,
			"-0.002": 49.1879493969,
			"-0.001": 77.5410610347,
			"0.0": 76.937222476,
			"0.001": 63.2829024157,
			"0.002": 38.376766589,
			"0.003": 19.6701752911,
			"0.004": 19.7668886805,
			"0.005": 14.8864886412,
			"0.006": 3.09089418528,
			"0.007": 1.72845272948,
			"0.008": 1.48556830324,
			"0.009": 1.11262986412,
			"0.01": 1.64601936962,
			"0.011": 1.25515127615,
			"0.012": 1.45918373831,
			"0.013": 1.5603104743,
			"0.014": 0.865014894874,
			"0.015": 0.0,
			"0.016": 0.0,
			"0.017": 0.0,
			"0.018": 0.0,
			"0.019": 0.0,
			"0.02": 0.0,
			"0.021": 0.0,
			"0.022": 0.0,
			"0.023": 0.0,
			"0.024": 0.0,
			"0.025": 0.0
		}
	}
}
