{
	 "smiles": "BrC1=CC=C(NN=C(C#N)C2=NC(=CS2)C2=CC=CC=C2)C=C1", 
	 "Tm": 442.15, 
	 "num_atms": 34, 
	 "gaussian": { 
		 "optdone": 1, 
		 "sigma_profile": "yes", 
		 "theory": "DFT", 
		 "functional": "B3LYP", 
		 "basiset": "6-31G**", 
		 "properties": { 
			 "R2extent": 22212.7683, 
			 "electric_dipole_moment_norm": 6.17877788402, 
			 "electric_quadrupole_moment_norm": 7.45745209237, 
			 "total_energy": -3842.97389288, 
			 "HOMO_LUMO_gap": 0.12873, 
			 "cosmo_polarized_energy": -19.4, 
			 "cosmo_cavitation_energy": 45.12, 
			 "cosmo_dispersion_energy": -32.67, 
			 "cosmo_repulsion_energy": 2.42, 
			 "cosmo_total_nonelectrostatic_energy": 14.87, 
			 "SMD_solvation_energy": 6.09 
		},
		"coords": [
			{
				"x": -9.0179206305,
				"y": 2.6248620775,
				"z": 0.5089054057,
				"element": "Br" 
			},
			{
				"x": -7.1587468955,
				"y": 2.234543645,
				"z": 0.3217856583,
				"element": "C" 
			},
			{
				"x": -6.6543973655,
				"y": 1.8514490384,
				"z": -0.9216826667,
				"element": "C" 
			},
			{
				"x": -5.2995643191,
				"y": 1.5667755372,
				"z": -1.0652453042,
				"element": "C" 
			},
			{
				"x": -4.4501692699,
				"y": 1.6642981119,
				"z": 0.0443702765,
				"element": "C" 
			},
			{
				"x": -3.0722462548,
				"y": 1.4011421171,
				"z": -0.0571259988,
				"element": "N" 
			},
			{
				"x": -2.5621571264,
				"y": 0.914850274,
				"z": -1.1752068508,
				"element": "N" 
			},
			{
				"x": -1.29434562,
				"y": 0.6242723257,
				"z": -1.2975827949,
				"element": "C" 
			},
			{
				"x": -0.9307147603,
				"y": 0.059105973,
				"z": -2.5703445085,
				"element": "C" 
			},
			{
				"x": -0.6412148898,
				"y": -0.3925062366,
				"z": -3.6017930801,
				"element": "N" 
			},
			{
				"x": -0.1983465132,
				"y": 0.7769415481,
				"z": -0.3322040222,
				"element": "C" 
			},
			{
				"x": 0.9245901186,
				"y": 0.1239744028,
				"z": -0.4487718493,
				"element": "N" 
			},
			{
				"x": 1.8363518073,
				"y": 0.4448221911,
				"z": 0.5316877553,
				"element": "C" 
			},
			{
				"x": 1.3887744931,
				"y": 1.3868900768,
				"z": 1.4314690656,
				"element": "C" 
			},
			{
				"x": -0.2089383827,
				"y": 1.9044609779,
				"z": 1.0355369731,
				"element": "S" 
			},
			{
				"x": 3.1558247746,
				"y": -0.2177871641,
				"z": 0.5299056113,
				"element": "C" 
			},
			{
				"x": 3.5058097012,
				"y": -1.0588186555,
				"z": -0.5391185048,
				"element": "C" 
			},
			{
				"x": 4.7487679717,
				"y": -1.6886519667,
				"z": -0.5634344762,
				"element": "C" 
			},
			{
				"x": 5.6599276989,
				"y": -1.4922394358,
				"z": 0.4756792628,
				"element": "C" 
			},
			{
				"x": 5.3185056957,
				"y": -0.6600918846,
				"z": 1.544801916,
				"element": "C" 
			},
			{
				"x": 4.0774416968,
				"y": -0.0291799031,
				"z": 1.5729559863,
				"element": "C" 
			},
			{
				"x": -4.963231385,
				"y": 2.050261031,
				"z": 1.2893055011,
				"element": "C" 
			},
			{
				"x": -6.318796259,
				"y": 2.3358799048,
				"z": 1.4295170551,
				"element": "C" 
			},
			{
				"x": -7.3165197222,
				"y": 1.7760120664,
				"z": -1.7766254333,
				"element": "H" 
			},
			{
				"x": -4.8939544009,
				"y": 1.2687732337,
				"z": -2.0241506266,
				"element": "H" 
			},
			{
				"x": -2.5346821367,
				"y": 1.4096607866,
				"z": 0.8072506228,
				"element": "H" 
			},
			{
				"x": 1.9021498053,
				"y": 1.8174827489,
				"z": 2.2781148936,
				"element": "H" 
			},
			{
				"x": 2.7941571297,
				"y": -1.2074434384,
				"z": -1.3433584497,
				"element": "H" 
			},
			{
				"x": 5.0051901802,
				"y": -2.3344719899,
				"z": -1.3981383393,
				"element": "H" 
			},
			{
				"x": 6.6279317114,
				"y": -1.9842573294,
				"z": 0.4552477778,
				"element": "H" 
			},
			{
				"x": 6.0189928046,
				"y": -0.5045759551,
				"z": 2.3601596678,
				"element": "H" 
			},
			{
				"x": 3.8263083444,
				"y": 0.6062667394,
				"z": 2.4171565861,
				"element": "H" 
			},
			{
				"x": -4.3063000685,
				"y": 2.1275587927,
				"z": 2.1519946778,
				"element": "H" 
			},
			{
				"x": -6.7168779332,
				"y": 2.6330403592,
				"z": 2.3927382124,
				"element": "H" 
			}
		],
		 "valence_orbital": [ 
			{
				"type": "occ",
				"energy": -0.27784,
				"method": "rhf"
			},
			{
				"type": "occ",
				"energy": -0.27452,
				"method": "rhf"
			},
			{
				"type": "occ",
				"energy": -0.25804,
				"method": "rhf"
			},
			{
				"type": "occ",
				"energy": -0.23882,
				"method": "rhf"
			},
			{
				"type": "occ",
				"energy": -0.21908,
				"method": "rhf"
			},
			{
				"type": "unocc",
				"energy": -0.09035,
				"method": "rhf"
			},
			{
				"type": "unocc",
				"energy": -0.04692,
				"method": "rhf"
			},
			{
				"type": "unocc",
				"energy": -0.02744,
				"method": "rhf"
			},
			{
				"type": "unocc",
				"energy": -0.01955,
				"method": "rhf"
			},
			{
				"type": "unocc",
				"energy": -0.01156,
				"method": "rhf"
			}
		],
		"cosmo_sigma_profile": { 
			"-0.025": 0.0,
			"-0.024": 0.0,
			"-0.023": 0.0,
			"-0.022": 0.0,
			"-0.021": 0.0,
			"-0.02": 0.0,
			"-0.019": 0.0,
			"-0.018": 0.0,
			"-0.017": 0.0,
			"-0.016": 0.000983341309805,
			"-0.015": 0.601558068948,
			"-0.014": 0.935364376287,
			"-0.013": 2.00403604295,
			"-0.012": 1.32600085634,
			"-0.011": 1.94982249922,
			"-0.01": 4.13107782847,
			"-0.009": 3.96580732546,
			"-0.008": 5.83900437432,
			"-0.007": 9.93717734531,
			"-0.006": 16.7149963557,
			"-0.005": 17.8170333186,
			"-0.004": 20.9434835038,
			"-0.003": 23.2261637683,
			"-0.002": 23.3998698169,
			"-0.001": 25.4687543224,
			"0.0": 28.9853251469,
			"0.001": 33.1366484907,
			"0.002": 36.9879696935,
			"0.003": 34.5852213001,
			"0.004": 27.1700729671,
			"0.005": 20.8317765715,
			"0.006": 6.41778613225,
			"0.007": 5.38979069938,
			"0.008": 5.80606258266,
			"0.009": 4.31241878068,
			"0.01": 3.29924033412,
			"0.011": 2.62885619618,
			"0.012": 2.38523122,
			"0.013": 1.09789423759,
			"0.014": 0.0,
			"0.015": 0.0,
			"0.016": 0.0,
			"0.017": 0.0,
			"0.018": 0.0,
			"0.019": 0.0,
			"0.02": 0.0,
			"0.021": 0.0,
			"0.022": 0.0,
			"0.023": 0.0,
			"0.024": 0.0,
			"0.025": 0.0
		}
	}
}
