{
	 "smiles": "OCC1OC=CC(O)C1O", 
	 "Tm": 374.15, 
	 "num_atms": 20, 
	 "gaussian": { 
		 "optdone": 1, 
		 "sigma_profile": "yes", 
		 "theory": "DFT", 
		 "functional": "B3LYP", 
		 "basiset": "6-31G**", 
		 "properties": { 
			 "R2extent": 1424.6148, 
			 "electric_dipole_moment_norm": 4.02302962206, 
			 "electric_quadrupole_moment_norm": 4.79172650305, 
			 "total_energy": -535.504335617, 
			 "HOMO_LUMO_gap": 0.23994, 
			 "cosmo_polarized_energy": -13.05, 
			 "cosmo_cavitation_energy": 21.9, 
			 "cosmo_dispersion_energy": -16.72, 
			 "cosmo_repulsion_energy": 1.37, 
			 "cosmo_total_nonelectrostatic_energy": 6.56, 
			 "SMD_solvation_energy": 4.1 
		},
		"coords": [
			{
				"x": -0.6201211792,
				"y": -0.3174808508,
				"z": 2.9778109505,
				"element": "O" 
			},
			{
				"x": -0.7914864829,
				"y": -0.2268082323,
				"z": 1.5723563939,
				"element": "C" 
			},
			{
				"x": 0.0369745875,
				"y": -1.2972660434,
				"z": 0.8596389024,
				"element": "C" 
			},
			{
				"x": 1.4386604216,
				"y": -1.0754069984,
				"z": 1.1923546333,
				"element": "O" 
			},
			{
				"x": 2.1286557033,
				"y": -0.2447985164,
				"z": 0.3702184206,
				"element": "C" 
			},
			{
				"x": 1.7210851122,
				"y": 0.2113361536,
				"z": -0.822074753,
				"element": "C" 
			},
			{
				"x": 0.4049424127,
				"y": -0.1988627691,
				"z": -1.4150613298,
				"element": "C" 
			},
			{
				"x": -0.6208134971,
				"y": 0.8129979012,
				"z": -1.3240843701,
				"element": "O" 
			},
			{
				"x": -0.1523765012,
				"y": -1.4178496062,
				"z": -0.6659521973,
				"element": "C" 
			},
			{
				"x": -1.5092472317,
				"y": -1.6530819458,
				"z": -0.986612311,
				"element": "O" 
			},
			{
				"x": 0.3334714573,
				"y": -0.2863336075,
				"z": 3.1368987196,
				"element": "H" 
			},
			{
				"x": -1.8505533171,
				"y": -0.4033107857,
				"z": 1.3676908665,
				"element": "H" 
			},
			{
				"x": -0.5336574775,
				"y": 0.7691345009,
				"z": 1.1895292959,
				"element": "H" 
			},
			{
				"x": -0.1990385821,
				"y": -2.2607278948,
				"z": 1.3198966045,
				"element": "H" 
			},
			{
				"x": 3.0971959379,
				"y": 0.0036394174,
				"z": 0.7956248874,
				"element": "H" 
			},
			{
				"x": 2.3841667046,
				"y": 0.8623488186,
				"z": -1.3833888485,
				"element": "H" 
			},
			{
				"x": 0.5336160528,
				"y": -0.4707760162,
				"z": -2.4733594292,
				"element": "H" 
			},
			{
				"x": -0.3109348285,
				"y": 1.6097455956,
				"z": -1.7716521058,
				"element": "H" 
			},
			{
				"x": 0.4194513033,
				"y": -2.2941000228,
				"z": -0.9944641139,
				"element": "H" 
			},
			{
				"x": -1.8960905959,
				"y": -0.7781990978,
				"z": -1.1475702159,
				"element": "H" 
			}
		],
		 "valence_orbital": [ 
			{
				"type": "occ",
				"energy": -0.31604,
				"method": "rhf"
			},
			{
				"type": "occ",
				"energy": -0.29515,
				"method": "rhf"
			},
			{
				"type": "occ",
				"energy": -0.26783,
				"method": "rhf"
			},
			{
				"type": "occ",
				"energy": -0.26361,
				"method": "rhf"
			},
			{
				"type": "occ",
				"energy": -0.23236,
				"method": "rhf"
			},
			{
				"type": "unocc",
				"energy": 0.00758,
				"method": "rhf"
			},
			{
				"type": "unocc",
				"energy": 0.06898,
				"method": "rhf"
			},
			{
				"type": "unocc",
				"energy": 0.0832,
				"method": "rhf"
			},
			{
				"type": "unocc",
				"energy": 0.10608,
				"method": "rhf"
			},
			{
				"type": "unocc",
				"energy": 0.11772,
				"method": "rhf"
			}
		],
		"cosmo_sigma_profile": { 
			"-0.025": 0.0,
			"-0.024": 0.0,
			"-0.023": 0.0,
			"-0.022": 0.0,
			"-0.021": 0.0,
			"-0.02": 0.0,
			"-0.019": 0.0,
			"-0.018": 0.0,
			"-0.017": 0.0654838834107,
			"-0.016": 0.830551319192,
			"-0.015": 1.16302509955,
			"-0.014": 1.0461620088,
			"-0.013": 0.901687661986,
			"-0.012": 1.34091377083,
			"-0.011": 3.08199576615,
			"-0.01": 1.62347026354,
			"-0.009": 1.41115214255,
			"-0.008": 2.35701878554,
			"-0.007": 5.08330141084,
			"-0.006": 7.76010288221,
			"-0.005": 16.3458014579,
			"-0.004": 13.248983647,
			"-0.003": 11.3570616485,
			"-0.002": 11.6816470855,
			"-0.001": 9.2137539927,
			"0.0": 10.6773230401,
			"0.001": 8.11091072194,
			"0.002": 6.76180804165,
			"0.003": 8.14791851571,
			"0.004": 7.46750307406,
			"0.005": 7.11161626571,
			"0.006": 5.9986578298,
			"0.007": 4.27655393926,
			"0.008": 3.6356639419,
			"0.009": 3.01900625439,
			"0.01": 3.10743908958,
			"0.011": 2.36560974632,
			"0.012": 2.97909159092,
			"0.013": 3.78019763963,
			"0.014": 3.66727955476,
			"0.015": 0.755884610061,
			"0.016": 0.0,
			"0.017": 0.0,
			"0.018": 0.0,
			"0.019": 0.0,
			"0.02": 0.0,
			"0.021": 0.0,
			"0.022": 0.0,
			"0.023": 0.0,
			"0.024": 0.0,
			"0.025": 0.0
		}
	}
}
