{
	 "smiles": "CN(C)C1=CC=C(NC(=S)NN)C=C1", 
	 "Tm": 441.15, 
	 "num_atms": 28, 
	 "gaussian": { 
		 "optdone": 1, 
		 "sigma_profile": "yes", 
		 "theory": "DFT", 
		 "functional": "B3LYP", 
		 "basiset": "6-31G**", 
		 "properties": { 
			 "R2extent": 4923.3767, 
			 "electric_dipole_moment_norm": 7.49407385672, 
			 "electric_quadrupole_moment_norm": 14.1921420751, 
			 "total_energy": -968.564044868, 
			 "HOMO_LUMO_gap": 0.18005, 
			 "cosmo_polarized_energy": -16.63, 
			 "cosmo_cavitation_energy": 32.56, 
			 "cosmo_dispersion_energy": -24.14, 
			 "cosmo_repulsion_energy": 1.87, 
			 "cosmo_total_nonelectrostatic_energy": 10.29, 
			 "SMD_solvation_energy": 4.74 
		},
		"coords": [
			{
				"x": -0.8423672699,
				"y": -4.2320941517,
				"z": -0.1121891724,
				"element": "C" 
			},
			{
				"x": -1.1561293682,
				"y": -3.2070344656,
				"z": -1.0935222523,
				"element": "N" 
			},
			{
				"x": -1.9043682927,
				"y": -3.5886698107,
				"z": -2.2795013812,
				"element": "C" 
			},
			{
				"x": -1.0887360444,
				"y": -1.8705447696,
				"z": -0.7297843289,
				"element": "C" 
			},
			{
				"x": -0.5334672812,
				"y": -1.4695660888,
				"z": 0.508125735,
				"element": "C" 
			},
			{
				"x": -0.4508694048,
				"y": -0.1269792487,
				"z": 0.8614096008,
				"element": "C" 
			},
			{
				"x": -0.8935333416,
				"y": 0.8772728142,
				"z": -0.0097941862,
				"element": "C" 
			},
			{
				"x": -0.8451458294,
				"y": 2.2560584216,
				"z": 0.3475972575,
				"element": "N" 
			},
			{
				"x": 0.243715118,
				"y": 2.9958767113,
				"z": 0.718286026,
				"element": "C" 
			},
			{
				"x": 0.0938753158,
				"y": 4.6312683932,
				"z": 1.104297994,
				"element": "S" 
			},
			{
				"x": 1.4320373969,
				"y": 2.3350302527,
				"z": 0.7518067954,
				"element": "N" 
			},
			{
				"x": 2.6668399807,
				"y": 2.9684210414,
				"z": 0.9767388839,
				"element": "N" 
			},
			{
				"x": -1.4541793032,
				"y": 0.4922924098,
				"z": -1.2330950016,
				"element": "C" 
			},
			{
				"x": -1.567070248,
				"y": -0.848083713,
				"z": -1.5831605315,
				"element": "C" 
			},
			{
				"x": -0.9240756081,
				"y": -5.2132511382,
				"z": -0.5819179431,
				"element": "H" 
			},
			{
				"x": 0.186080658,
				"y": -4.1275937172,
				"z": 0.2524630645,
				"element": "H" 
			},
			{
				"x": -1.5152627652,
				"y": -4.211633319,
				"z": 0.7590694461,
				"element": "H" 
			},
			{
				"x": -1.8269743034,
				"y": -4.6678339286,
				"z": -2.4187715398,
				"element": "H" 
			},
			{
				"x": -2.971943153,
				"y": -3.3267935057,
				"z": -2.2152464835,
				"element": "H" 
			},
			{
				"x": -1.4926555276,
				"y": -3.1117734628,
				"z": -3.1764943604,
				"element": "H" 
			},
			{
				"x": -0.180152776,
				"y": -2.2090813805,
				"z": 1.2156015293,
				"element": "H" 
			},
			{
				"x": -0.0508289513,
				"y": 0.145295368,
				"z": 1.8332280346,
				"element": "H" 
			},
			{
				"x": -1.6856277475,
				"y": 2.8088766109,
				"z": 0.2529731367,
				"element": "H" 
			},
			{
				"x": 1.5033777485,
				"y": 1.4228839469,
				"z": 0.3216332529,
				"element": "H" 
			},
			{
				"x": 2.6904211084,
				"y": 3.2413277144,
				"z": 1.9593965266,
				"element": "H" 
			},
			{
				"x": 2.6498436411,
				"y": 3.8525276544,
				"z": 0.4638241783,
				"element": "H" 
			},
			{
				"x": -1.8107846867,
				"y": 1.2557639395,
				"z": -1.9190904459,
				"element": "H" 
			},
			{
				"x": -2.0213190651,
				"y": -1.0954625782,
				"z": -2.5342838346,
				"element": "H" 
			}
		],
		 "valence_orbital": [ 
			{
				"type": "occ",
				"energy": -0.26231,
				"method": "rhf"
			},
			{
				"type": "occ",
				"energy": -0.25694,
				"method": "rhf"
			},
			{
				"type": "occ",
				"energy": -0.21454,
				"method": "rhf"
			},
			{
				"type": "occ",
				"energy": -0.1996,
				"method": "rhf"
			},
			{
				"type": "occ",
				"energy": -0.19395,
				"method": "rhf"
			},
			{
				"type": "unocc",
				"energy": -0.0139,
				"method": "rhf"
			},
			{
				"type": "unocc",
				"energy": -0.01044,
				"method": "rhf"
			},
			{
				"type": "unocc",
				"energy": 0.02348,
				"method": "rhf"
			},
			{
				"type": "unocc",
				"energy": 0.07332,
				"method": "rhf"
			},
			{
				"type": "unocc",
				"energy": 0.08785,
				"method": "rhf"
			}
		],
		"cosmo_sigma_profile": { 
			"-0.025": 0.0,
			"-0.024": 0.0,
			"-0.023": 0.0,
			"-0.022": 0.0,
			"-0.021": 0.0,
			"-0.02": 0.0,
			"-0.019": 0.0,
			"-0.018": 0.0,
			"-0.017": 0.0,
			"-0.016": 0.0,
			"-0.015": 0.0526764635494,
			"-0.014": 0.562355580223,
			"-0.013": 1.036194824,
			"-0.012": 1.6413161547,
			"-0.011": 2.03924744442,
			"-0.01": 3.31267260698,
			"-0.009": 3.80295438923,
			"-0.008": 3.67560269263,
			"-0.007": 5.06951806799,
			"-0.006": 12.840190005,
			"-0.005": 17.8693452948,
			"-0.004": 21.5737488566,
			"-0.003": 23.498572551,
			"-0.002": 26.2139636799,
			"-0.001": 20.6446700451,
			"0.0": 12.7971253643,
			"0.001": 13.3785180008,
			"0.002": 11.3032296404,
			"0.003": 9.80860113363,
			"0.004": 11.1328612955,
			"0.005": 12.8848732656,
			"0.006": 8.90355929719,
			"0.007": 4.95599088477,
			"0.008": 3.7227599954,
			"0.009": 4.45214844446,
			"0.01": 6.58072864001,
			"0.011": 8.16285342385,
			"0.012": 4.58100852524,
			"0.013": 1.31972876112,
			"0.014": 0.833492571856,
			"0.015": 0.378556729876,
			"0.016": 0.508547459958,
			"0.017": 0.0946684999954,
			"0.018": 0.0,
			"0.019": 0.0,
			"0.02": 0.0,
			"0.021": 0.0,
			"0.022": 0.0,
			"0.023": 0.0,
			"0.024": 0.0,
			"0.025": 0.0
		}
	}
}
