{
	 "smiles": "NC1CCN(C1=O)C1=CC=C(Cl)C=C1", 
	 "Tm": 354.15, 
	 "num_atms": 25, 
	 "gaussian": { 
		 "optdone": 1, 
		 "sigma_profile": "yes", 
		 "theory": "DFT", 
		 "functional": "B3LYP", 
		 "basiset": "6-31G**", 
		 "properties": { 
			 "R2extent": 4510.5257, 
			 "electric_dipole_moment_norm": 4.36867161274, 
			 "electric_quadrupole_moment_norm": 9.378461562, 
			 "total_energy": -1032.62893242, 
			 "HOMO_LUMO_gap": 0.19859, 
			 "cosmo_polarized_energy": -12.45, 
			 "cosmo_cavitation_energy": 29.54, 
			 "cosmo_dispersion_energy": -22.32, 
			 "cosmo_repulsion_energy": 1.75, 
			 "cosmo_total_nonelectrostatic_energy": 8.98, 
			 "SMD_solvation_energy": 3.48 
		},
		"coords": [
			{
				"x": 0.2081903587,
				"y": -4.0315442861,
				"z": 1.1191304993,
				"element": "N" 
			},
			{
				"x": 0.5613960849,
				"y": -2.682535352,
				"z": 1.5301527321,
				"element": "C" 
			},
			{
				"x": -0.549868373,
				"y": -1.9011731395,
				"z": 2.240356739,
				"element": "C" 
			},
			{
				"x": -0.2531746354,
				"y": -0.4395893982,
				"z": 1.8689227259,
				"element": "C" 
			},
			{
				"x": 0.393201455,
				"y": -0.5379265586,
				"z": 0.5501890231,
				"element": "N" 
			},
			{
				"x": 0.8441583489,
				"y": -1.8199544747,
				"z": 0.2956226824,
				"element": "C" 
			},
			{
				"x": 1.3924918725,
				"y": -2.2307154085,
				"z": -0.7161345214,
				"element": "O" 
			},
			{
				"x": 0.5973281777,
				"y": 0.5989827985,
				"z": -0.2658759907,
				"element": "C" 
			},
			{
				"x": 1.0327954803,
				"y": 0.4836960969,
				"z": -1.5992213359,
				"element": "C" 
			},
			{
				"x": 1.2142618973,
				"y": 1.6228409278,
				"z": -2.3783050135,
				"element": "C" 
			},
			{
				"x": 0.9616657153,
				"y": 2.8850342473,
				"z": -1.8427715828,
				"element": "C" 
			},
			{
				"x": 1.1891144866,
				"y": 4.3185338449,
				"z": -2.8357341374,
				"element": "Cl" 
			},
			{
				"x": 0.5311815982,
				"y": 3.0185207156,
				"z": -0.5261110632,
				"element": "C" 
			},
			{
				"x": 0.3523157589,
				"y": 1.8797748394,
				"z": 0.257541954,
				"element": "C" 
			},
			{
				"x": 0.7536449858,
				"y": -4.2568784896,
				"z": 0.2883037069,
				"element": "H" 
			},
			{
				"x": 0.4558535119,
				"y": -4.7043718861,
				"z": 1.8379797591,
				"element": "H" 
			},
			{
				"x": 1.4852045177,
				"y": -2.6317827741,
				"z": 2.138412387,
				"element": "H" 
			},
			{
				"x": -1.507987848,
				"y": -2.2176847339,
				"z": 1.8177255491,
				"element": "H" 
			},
			{
				"x": -0.5796064593,
				"y": -2.0534466389,
				"z": 3.3221746343,
				"element": "H" 
			},
			{
				"x": 0.4211864335,
				"y": 0.0396989788,
				"z": 2.5920290666,
				"element": "H" 
			},
			{
				"x": -1.1601787174,
				"y": 0.1675469035,
				"z": 1.8001494189,
				"element": "H" 
			},
			{
				"x": 1.2328912497,
				"y": -0.4952065445,
				"z": -2.0102620819,
				"element": "H" 
			},
			{
				"x": 1.5491164014,
				"y": 1.5264390471,
				"z": -3.4052951098,
				"element": "H" 
			},
			{
				"x": 0.3397399311,
				"y": 4.0016052448,
				"z": -0.1105883987,
				"element": "H" 
			},
			{
				"x": 0.0294777677,
				"y": 2.0060360405,
				"z": 1.2839083577,
				"element": "H" 
			}
		],
		 "valence_orbital": [ 
			{
				"type": "occ",
				"energy": -0.29026,
				"method": "rhf"
			},
			{
				"type": "occ",
				"energy": -0.26435,
				"method": "rhf"
			},
			{
				"type": "occ",
				"energy": -0.26121,
				"method": "rhf"
			},
			{
				"type": "occ",
				"energy": -0.24452,
				"method": "rhf"
			},
			{
				"type": "occ",
				"energy": -0.22157,
				"method": "rhf"
			},
			{
				"type": "unocc",
				"energy": -0.02298,
				"method": "rhf"
			},
			{
				"type": "unocc",
				"energy": -0.01356,
				"method": "rhf"
			},
			{
				"type": "unocc",
				"energy": 0.03059,
				"method": "rhf"
			},
			{
				"type": "unocc",
				"energy": 0.03311,
				"method": "rhf"
			},
			{
				"type": "unocc",
				"energy": 0.08023,
				"method": "rhf"
			}
		],
		"cosmo_sigma_profile": { 
			"-0.025": 0.0,
			"-0.024": 0.0,
			"-0.023": 0.0,
			"-0.022": 0.0,
			"-0.021": 0.0,
			"-0.02": 0.0,
			"-0.019": 0.0,
			"-0.018": 0.0,
			"-0.017": 0.0,
			"-0.016": 0.0,
			"-0.015": 0.0,
			"-0.014": 0.0,
			"-0.013": 0.0,
			"-0.012": 0.0,
			"-0.011": 0.282346450776,
			"-0.01": 1.56670290265,
			"-0.009": 1.52147649594,
			"-0.008": 2.3161289576,
			"-0.007": 9.17319736639,
			"-0.006": 14.7440368083,
			"-0.005": 21.7390057768,
			"-0.004": 21.4069267737,
			"-0.003": 16.2544681945,
			"-0.002": 13.581395513,
			"-0.001": 13.4055464887,
			"0.0": 12.224629301,
			"0.001": 14.9493283189,
			"0.002": 17.9423023874,
			"0.003": 21.7596655748,
			"0.004": 19.275865939,
			"0.005": 11.5354661191,
			"0.006": 2.78853766592,
			"0.007": 2.15993021439,
			"0.008": 2.38153297304,
			"0.009": 2.63731070162,
			"0.01": 2.30378955871,
			"0.011": 2.8273117851,
			"0.012": 3.58539284142,
			"0.013": 1.54288642108,
			"0.014": 0.199399428679,
			"0.015": 0.651554599893,
			"0.016": 0.824727197214,
			"0.017": 0.369741171817,
			"0.018": 0.435727190555,
			"0.019": 0.16785023903,
			"0.02": 0.0,
			"0.021": 0.0,
			"0.022": 0.0,
			"0.023": 0.0,
			"0.024": 0.0,
			"0.025": 0.0
		}
	}
}
