{
	 "smiles": "NC(=O)C1CCN(CC1)C(=O)OCC1=CC=CC=C1", 
	 "Tm": 404.15, 
	 "num_atms": 37, 
	 "gaussian": { 
		 "optdone": 1, 
		 "sigma_profile": "yes", 
		 "theory": "DFT", 
		 "functional": "B3LYP", 
		 "basiset": "6-31G**", 
		 "properties": { 
			 "R2extent": 8053.9861, 
			 "electric_dipole_moment_norm": 3.67119719574, 
			 "electric_quadrupole_moment_norm": 40.1703052816, 
			 "total_energy": -879.553232829, 
			 "HOMO_LUMO_gap": 0.227, 
			 "cosmo_polarized_energy": -20.25, 
			 "cosmo_cavitation_energy": 39.86, 
			 "cosmo_dispersion_energy": -28.26, 
			 "cosmo_repulsion_energy": 2.2, 
			 "cosmo_total_nonelectrostatic_energy": 13.81, 
			 "SMD_solvation_energy": 7.23 
		},
		"coords": [
			{
				"x": 5.6829941947,
				"y": -0.2720245635,
				"z": 2.0514723398,
				"element": "N" 
			},
			{
				"x": 4.3213442751,
				"y": -0.2765859176,
				"z": 1.929782918,
				"element": "C" 
			},
			{
				"x": 3.6382313393,
				"y": -1.2172589775,
				"z": 2.3128924794,
				"element": "O" 
			},
			{
				"x": 3.7279948758,
				"y": 0.9506185266,
				"z": 1.2300122759,
				"element": "C" 
			},
			{
				"x": 2.2415481232,
				"y": 1.1504555807,
				"z": 1.612181345,
				"element": "C" 
			},
			{
				"x": 1.2821064015,
				"y": 0.5263967296,
				"z": 0.5965981267,
				"element": "C" 
			},
			{
				"x": 1.4970424452,
				"y": 1.1232690356,
				"z": -0.7304841696,
				"element": "N" 
			},
			{
				"x": 2.8421547552,
				"y": 1.5919424468,
				"z": -1.0761593677,
				"element": "C" 
			},
			{
				"x": 3.8886512304,
				"y": 0.7829628569,
				"z": -0.3093740999,
				"element": "C" 
			},
			{
				"x": 0.532558153,
				"y": 1.1984262634,
				"z": -1.6906627668,
				"element": "C" 
			},
			{
				"x": 0.6883772955,
				"y": 1.6804252154,
				"z": -2.8035744398,
				"element": "O" 
			},
			{
				"x": -0.647373029,
				"y": 0.6664460374,
				"z": -1.2576874099,
				"element": "O" 
			},
			{
				"x": -1.7271233141,
				"y": 0.7365115693,
				"z": -2.2082466838,
				"element": "C" 
			},
			{
				"x": -2.880063121,
				"y": -0.0885302604,
				"z": -1.6941984348,
				"element": "C" 
			},
			{
				"x": -4.1891933758,
				"y": 0.3921301952,
				"z": -1.8042817498,
				"element": "C" 
			},
			{
				"x": -5.2710700361,
				"y": -0.3851244492,
				"z": -1.3852232088,
				"element": "C" 
			},
			{
				"x": -5.0521622739,
				"y": -1.6500810039,
				"z": -0.8393334709,
				"element": "C" 
			},
			{
				"x": -3.7468613531,
				"y": -2.1339692029,
				"z": -0.7178443947,
				"element": "C" 
			},
			{
				"x": -2.6687272844,
				"y": -1.3608103387,
				"z": -1.1461605094,
				"element": "C" 
			},
			{
				"x": 6.1265856867,
				"y": -1.0715621258,
				"z": 2.4776583932,
				"element": "H" 
			},
			{
				"x": 6.2495938083,
				"y": 0.5168268897,
				"z": 1.7869517457,
				"element": "H" 
			},
			{
				"x": 4.293593367,
				"y": 1.8385888474,
				"z": 1.5411533779,
				"element": "H" 
			},
			{
				"x": 2.0279147359,
				"y": 2.2224660143,
				"z": 1.686448335,
				"element": "H" 
			},
			{
				"x": 2.0491102448,
				"y": 0.7038473293,
				"z": 2.5906167769,
				"element": "H" 
			},
			{
				"x": 1.4359224432,
				"y": -0.5600856753,
				"z": 0.5692176212,
				"element": "H" 
			},
			{
				"x": 0.2474143112,
				"y": 0.703054121,
				"z": 0.8921835886,
				"element": "H" 
			},
			{
				"x": 2.9496921947,
				"y": 2.6636549522,
				"z": -0.8495577181,
				"element": "H" 
			},
			{
				"x": 2.9694574918,
				"y": 1.4818521992,
				"z": -2.1547734836,
				"element": "H" 
			},
			{
				"x": 3.7773181904,
				"y": -0.2741293976,
				"z": -0.5773172315,
				"element": "H" 
			},
			{
				"x": 4.8913681335,
				"y": 1.0867029934,
				"z": -0.6273595392,
				"element": "H" 
			},
			{
				"x": -1.3650492199,
				"y": 0.3700289771,
				"z": -3.1750095144,
				"element": "H" 
			},
			{
				"x": -2.0220675573,
				"y": 1.7815074886,
				"z": -2.3512912733,
				"element": "H" 
			},
			{
				"x": -4.3639914252,
				"y": 1.3819845926,
				"z": -2.2190675934,
				"element": "H" 
			},
			{
				"x": -6.2818033751,
				"y": 0.0023361559,
				"z": -1.4773118374,
				"element": "H" 
			},
			{
				"x": -5.8914258101,
				"y": -2.2542089546,
				"z": -0.5066564076,
				"element": "H" 
			},
			{
				"x": -3.5689185436,
				"y": -3.1164757529,
				"z": -0.289586612,
				"element": "H" 
			},
			{
				"x": -1.6544439775,
				"y": -1.734488398,
				"z": -1.0456074072,
				"element": "H" 
			}
		],
		 "valence_orbital": [ 
			{
				"type": "occ",
				"energy": -0.26259,
				"method": "rhf"
			},
			{
				"type": "occ",
				"energy": -0.25227,
				"method": "rhf"
			},
			{
				"type": "occ",
				"energy": -0.24706,
				"method": "rhf"
			},
			{
				"type": "occ",
				"energy": -0.24045,
				"method": "rhf"
			},
			{
				"type": "occ",
				"energy": -0.22891,
				"method": "rhf"
			},
			{
				"type": "unocc",
				"energy": -0.00191,
				"method": "rhf"
			},
			{
				"type": "unocc",
				"energy": 0.00216,
				"method": "rhf"
			},
			{
				"type": "unocc",
				"energy": 0.02405,
				"method": "rhf"
			},
			{
				"type": "unocc",
				"energy": 0.05589,
				"method": "rhf"
			},
			{
				"type": "unocc",
				"energy": 0.06335,
				"method": "rhf"
			}
		],
		"cosmo_sigma_profile": { 
			"-0.025": 0.0,
			"-0.024": 0.0,
			"-0.023": 0.0,
			"-0.022": 0.0,
			"-0.021": 0.0,
			"-0.02": 0.0,
			"-0.019": 0.0,
			"-0.018": 0.0,
			"-0.017": 0.0,
			"-0.016": 0.0,
			"-0.015": 0.0280277790356,
			"-0.014": 1.54098811495,
			"-0.013": 2.63194717824,
			"-0.012": 1.91985211799,
			"-0.011": 2.97583229847,
			"-0.01": 2.427509379,
			"-0.009": 2.63889487576,
			"-0.008": 2.45137947244,
			"-0.007": 2.33263326028,
			"-0.006": 10.5901761074,
			"-0.005": 19.0923211676,
			"-0.004": 33.0818985497,
			"-0.003": 35.7274193973,
			"-0.002": 30.5878666122,
			"-0.001": 24.9210846156,
			"0.0": 20.7380923383,
			"0.001": 14.8198263852,
			"0.002": 14.559369961,
			"0.003": 14.0940189215,
			"0.004": 14.3971323465,
			"0.005": 15.5684558743,
			"0.006": 11.7510237283,
			"0.007": 3.57497559468,
			"0.008": 3.15331205674,
			"0.009": 2.27107807988,
			"0.01": 2.69133533733,
			"0.011": 2.93160135302,
			"0.012": 3.87073953735,
			"0.013": 6.16588519328,
			"0.014": 8.61611849057,
			"0.015": 0.994710444026,
			"0.016": 0.0,
			"0.017": 0.0,
			"0.018": 0.0,
			"0.019": 0.0,
			"0.02": 0.0,
			"0.021": 0.0,
			"0.022": 0.0,
			"0.023": 0.0,
			"0.024": 0.0,
			"0.025": 0.0
		}
	}
}
