{
	 "smiles": "CC(C)C1=C(N=C(N)S1)C1=CC=CC=C1", 
	 "Tm": 505.15, 
	 "num_atms": 29, 
	 "gaussian": { 
		 "optdone": 1, 
		 "sigma_profile": "yes", 
		 "theory": "DFT", 
		 "functional": "B3LYP", 
		 "basiset": "6-31G**", 
		 "properties": { 
			 "R2extent": 4199.7814, 
			 "electric_dipole_moment_norm": 1.4868038001, 
			 "electric_quadrupole_moment_norm": 11.0532943026, 
			 "total_energy": -973.418335757, 
			 "HOMO_LUMO_gap": 0.17694, 
			 "cosmo_polarized_energy": -11.17, 
			 "cosmo_cavitation_energy": 33.18, 
			 "cosmo_dispersion_energy": -24.09, 
			 "cosmo_repulsion_energy": 1.87, 
			 "cosmo_total_nonelectrostatic_energy": 10.96, 
			 "SMD_solvation_energy": 4.0 
		},
		"coords": [
			{
				"x": -1.2667020617,
				"y": 0.9166323778,
				"z": 1.8770662088,
				"element": "C" 
			},
			{
				"x": -1.208635208,
				"y": 0.0021372562,
				"z": 0.6364758708,
				"element": "C" 
			},
			{
				"x": -2.4803265539,
				"y": -0.8636704208,
				"z": 0.5357590239,
				"element": "C" 
			},
			{
				"x": 0.0528422353,
				"y": -0.8257605579,
				"z": 0.5916275356,
				"element": "C" 
			},
			{
				"x": 1.1410781166,
				"y": -0.767253673,
				"z": -0.2469347366,
				"element": "C" 
			},
			{
				"x": 2.1105508683,
				"y": -1.7490942261,
				"z": -0.0624107162,
				"element": "N" 
			},
			{
				"x": 1.7976971196,
				"y": -2.5474420879,
				"z": 0.9104578386,
				"element": "C" 
			},
			{
				"x": 2.5495071079,
				"y": -3.6435938712,
				"z": 1.2813405267,
				"element": "N" 
			},
			{
				"x": 0.2612449877,
				"y": -2.1907522403,
				"z": 1.6987107963,
				"element": "S" 
			},
			{
				"x": 1.3747087137,
				"y": 0.2079024022,
				"z": -1.3377059226,
				"element": "C" 
			},
			{
				"x": 1.0478515301,
				"y": 1.569019305,
				"z": -1.2202878011,
				"element": "C" 
			},
			{
				"x": 1.2820098645,
				"y": 2.4534168722,
				"z": -2.2741642178,
				"element": "C" 
			},
			{
				"x": 1.8594465616,
				"y": 1.9980284842,
				"z": -3.4598093985,
				"element": "C" 
			},
			{
				"x": 2.2127016137,
				"y": 0.6513102518,
				"z": -3.5790944969,
				"element": "C" 
			},
			{
				"x": 1.9782074739,
				"y": -0.2328514882,
				"z": -2.5288095777,
				"element": "C" 
			},
			{
				"x": -1.302825145,
				"y": 0.3250051445,
				"z": 2.7987332572,
				"element": "H" 
			},
			{
				"x": -2.1610158109,
				"y": 1.5488086418,
				"z": 1.8499167021,
				"element": "H" 
			},
			{
				"x": -0.388337263,
				"y": 1.5667188136,
				"z": 1.9366800722,
				"element": "H" 
			},
			{
				"x": -1.1797286119,
				"y": 0.6403879851,
				"z": -0.2532307637,
				"element": "H" 
			},
			{
				"x": -2.5939504736,
				"y": -1.5119314291,
				"z": 1.4119870022,
				"element": "H" 
			},
			{
				"x": -3.3699002757,
				"y": -0.2274273012,
				"z": 0.4773588994,
				"element": "H" 
			},
			{
				"x": -2.4549334121,
				"y": -1.50115389,
				"z": -0.3526605266,
				"element": "H" 
			},
			{
				"x": 2.5172968697,
				"y": -3.9022903734,
				"z": 2.2574325874,
				"element": "H" 
			},
			{
				"x": 3.4879957044,
				"y": -3.6119108963,
				"z": 0.9033650422,
				"element": "H" 
			},
			{
				"x": 0.6408342191,
				"y": 1.9468464775,
				"z": -0.288239723,
				"element": "H" 
			},
			{
				"x": 1.0259033694,
				"y": 3.5031877481,
				"z": -2.1605303885,
				"element": "H" 
			},
			{
				"x": 2.04383588,
				"y": 2.6873901658,
				"z": -4.2788294833,
				"element": "H" 
			},
			{
				"x": 2.6738317366,
				"y": 0.2890750894,
				"z": -4.493859603,
				"element": "H" 
			},
			{
				"x": 2.261510844,
				"y": -1.2765345598,
				"z": -2.6131440077,
				"element": "H" 
			}
		],
		 "valence_orbital": [ 
			{
				"type": "occ",
				"energy": -0.27217,
				"method": "rhf"
			},
			{
				"type": "occ",
				"energy": -0.2657,
				"method": "rhf"
			},
			{
				"type": "occ",
				"energy": -0.24369,
				"method": "rhf"
			},
			{
				"type": "occ",
				"energy": -0.2414,
				"method": "rhf"
			},
			{
				"type": "occ",
				"energy": -0.19611,
				"method": "rhf"
			},
			{
				"type": "unocc",
				"energy": -0.01917,
				"method": "rhf"
			},
			{
				"type": "unocc",
				"energy": 0.00498,
				"method": "rhf"
			},
			{
				"type": "unocc",
				"energy": 0.01642,
				"method": "rhf"
			},
			{
				"type": "unocc",
				"energy": 0.01741,
				"method": "rhf"
			},
			{
				"type": "unocc",
				"energy": 0.0685,
				"method": "rhf"
			}
		],
		"cosmo_sigma_profile": { 
			"-0.025": 0.0,
			"-0.024": 0.0,
			"-0.023": 0.0,
			"-0.022": 0.0,
			"-0.021": 0.0,
			"-0.02": 0.0,
			"-0.019": 0.0,
			"-0.018": 0.0,
			"-0.017": 0.0,
			"-0.016": 0.0,
			"-0.015": 0.196225494846,
			"-0.014": 1.34027562014,
			"-0.013": 2.79413054456,
			"-0.012": 2.12009585808,
			"-0.011": 2.72248823777,
			"-0.01": 2.73103760057,
			"-0.009": 1.82373302271,
			"-0.008": 2.15656836783,
			"-0.007": 1.36983336229,
			"-0.006": 4.88812273739,
			"-0.005": 9.60234414082,
			"-0.004": 15.5546039619,
			"-0.003": 26.8585594926,
			"-0.002": 25.0419281855,
			"-0.001": 21.9666437208,
			"0.0": 23.0062203187,
			"0.001": 24.5055604816,
			"0.002": 17.0326896201,
			"0.003": 20.7295355638,
			"0.004": 17.9937913276,
			"0.005": 14.6491045994,
			"0.006": 11.1021325122,
			"0.007": 3.42195154759,
			"0.008": 2.24894526813,
			"0.009": 1.52246647665,
			"0.01": 2.08674542471,
			"0.011": 2.24090172791,
			"0.012": 1.29094335888,
			"0.013": 0.716681645689,
			"0.014": 0.617983308134,
			"0.015": 0.337097034204,
			"0.016": 0.0,
			"0.017": 0.0,
			"0.018": 0.0,
			"0.019": 0.0,
			"0.02": 0.0,
			"0.021": 0.0,
			"0.022": 0.0,
			"0.023": 0.0,
			"0.024": 0.0,
			"0.025": 0.0
		}
	}
}
