{
	 "smiles": "ClS(=O)(=O)C1=CC2=C(NC(=O)O2)C=C1", 
	 "Tm": 426.15, 
	 "num_atms": 18, 
	 "gaussian": { 
		 "optdone": 1, 
		 "sigma_profile": "yes", 
		 "theory": "DFT", 
		 "functional": "B3LYP", 
		 "basiset": "6-31G**", 
		 "properties": { 
			 "R2extent": 4082.9465, 
			 "electric_dipole_moment_norm": 5.46257887174, 
			 "electric_quadrupole_moment_norm": 21.8823913663, 
			 "total_energy": -1483.12869645, 
			 "HOMO_LUMO_gap": 0.16831, 
			 "cosmo_polarized_energy": -18.37, 
			 "cosmo_cavitation_energy": 27.03, 
			 "cosmo_dispersion_energy": -20.75, 
			 "cosmo_repulsion_energy": 1.58, 
			 "cosmo_total_nonelectrostatic_energy": 7.87, 
			 "SMD_solvation_energy": 4.6 
		},
		"coords": [
			{
				"x": 2.8560979435,
				"y": 0.4270238326,
				"z": -2.7174137626,
				"element": "Cl" 
			},
			{
				"x": 1.1632867977,
				"y": 1.5744162432,
				"z": -2.1031522293,
				"element": "S" 
			},
			{
				"x": 1.6696307273,
				"y": 2.9069850825,
				"z": -1.7995824835,
				"element": "O" 
			},
			{
				"x": 0.1325702223,
				"y": 1.3373801402,
				"z": -3.1058034676,
				"element": "O" 
			},
			{
				"x": 0.7074595625,
				"y": 0.7565035011,
				"z": -0.5873453076,
				"element": "C" 
			},
			{
				"x": -0.1906433866,
				"y": -0.3210325473,
				"z": -0.6633708439,
				"element": "C" 
			},
			{
				"x": -0.5055099699,
				"y": -0.9068685292,
				"z": 0.5424425097,
				"element": "C" 
			},
			{
				"x": 0.0285475636,
				"y": -0.4621670736,
				"z": 1.7638035243,
				"element": "C" 
			},
			{
				"x": -0.5277300933,
				"y": -1.2891748856,
				"z": 2.7220272346,
				"element": "N" 
			},
			{
				"x": -1.3807409741,
				"y": -2.218918054,
				"z": 2.1361908349,
				"element": "C" 
			},
			{
				"x": -2.029785273,
				"y": -3.0843002848,
				"z": 2.6523534401,
				"element": "O" 
			},
			{
				"x": -1.3536223027,
				"y": -1.9618474871,
				"z": 0.7650999254,
				"element": "O" 
			},
			{
				"x": 0.914453488,
				"y": 0.607489818,
				"z": 1.8210600177,
				"element": "C" 
			},
			{
				"x": 1.256020268,
				"y": 1.2206255276,
				"z": 0.6113881771,
				"element": "C" 
			},
			{
				"x": -0.611139852,
				"y": -0.655475712,
				"z": -1.6036416332,
				"element": "H" 
			},
			{
				"x": -0.377845497,
				"y": -1.2677042494,
				"z": 3.7187169603,
				"element": "H" 
			},
			{
				"x": 1.3251039025,
				"y": 0.9609217262,
				"z": 2.7602144076,
				"element": "H" 
			},
			{
				"x": 1.9370468733,
				"y": 2.0634429517,
				"z": 0.5966126961,
				"element": "H" 
			}
		],
		 "valence_orbital": [ 
			{
				"type": "occ",
				"energy": -0.33152,
				"method": "rhf"
			},
			{
				"type": "occ",
				"energy": -0.31911,
				"method": "rhf"
			},
			{
				"type": "occ",
				"energy": -0.31717,
				"method": "rhf"
			},
			{
				"type": "occ",
				"energy": -0.29425,
				"method": "rhf"
			},
			{
				"type": "occ",
				"energy": -0.26321,
				"method": "rhf"
			},
			{
				"type": "unocc",
				"energy": -0.0949,
				"method": "rhf"
			},
			{
				"type": "unocc",
				"energy": -0.05344,
				"method": "rhf"
			},
			{
				"type": "unocc",
				"energy": -0.04255,
				"method": "rhf"
			},
			{
				"type": "unocc",
				"energy": 0.01797,
				"method": "rhf"
			},
			{
				"type": "unocc",
				"energy": 0.04293,
				"method": "rhf"
			}
		],
		"cosmo_sigma_profile": { 
			"-0.025": 0.0,
			"-0.024": 0.0,
			"-0.023": 0.0,
			"-0.022": 0.0,
			"-0.021": 0.0,
			"-0.02": 0.0,
			"-0.019": 0.150773085472,
			"-0.018": 1.75578135133,
			"-0.017": 1.32397219421,
			"-0.016": 1.25460948693,
			"-0.015": 1.33210130583,
			"-0.014": 0.986180676999,
			"-0.013": 1.14418103607,
			"-0.012": 1.43962543827,
			"-0.011": 0.740550489872,
			"-0.01": 2.51306395774,
			"-0.009": 5.22982619186,
			"-0.008": 6.24680970293,
			"-0.007": 7.36961917956,
			"-0.006": 7.12808149369,
			"-0.005": 8.53942428245,
			"-0.004": 9.98239514161,
			"-0.003": 12.268398971,
			"-0.002": 16.0992410983,
			"-0.001": 17.3593874751,
			"0.0": 17.18685235,
			"0.001": 12.219552155,
			"0.002": 10.4028543104,
			"0.003": 15.472228198,
			"0.004": 12.3219835615,
			"0.005": 5.88941864776,
			"0.006": 6.09071776754,
			"0.007": 9.15601306169,
			"0.008": 11.657307358,
			"0.009": 6.79633808644,
			"0.01": 3.44277994264,
			"0.011": 6.60886469993,
			"0.012": 1.06966980099,
			"0.013": 0.0,
			"0.014": 0.0,
			"0.015": 0.0,
			"0.016": 0.0,
			"0.017": 0.0,
			"0.018": 0.0,
			"0.019": 0.0,
			"0.02": 0.0,
			"0.021": 0.0,
			"0.022": 0.0,
			"0.023": 0.0,
			"0.024": 0.0,
			"0.025": 0.0
		}
	}
}
