{
	 "smiles": "CCOC(=O)N1CCN(CC1)S(Cl)(=O)=O", 
	 "Tm": 341.15, 
	 "num_atms": 28, 
	 "gaussian": { 
		 "optdone": 1, 
		 "sigma_profile": "yes", 
		 "theory": "DFT", 
		 "functional": "B3LYP", 
		 "basiset": "6-31G**", 
		 "properties": { 
			 "R2extent": 6570.8797, 
			 "electric_dipole_moment_norm": 4.68372159185, 
			 "electric_quadrupole_moment_norm": 14.8507200627, 
			 "total_energy": -1543.30428118, 
			 "HOMO_LUMO_gap": 0.1747, 
			 "cosmo_polarized_energy": -14.76, 
			 "cosmo_cavitation_energy": 33.88, 
			 "cosmo_dispersion_energy": -24.96, 
			 "cosmo_repulsion_energy": 1.94, 
			 "cosmo_total_nonelectrostatic_energy": 10.85, 
			 "SMD_solvation_energy": 3.78 
		},
		"coords": [
			{
				"x": 0.9722626798,
				"y": -0.1263645425,
				"z": 4.4362007594,
				"element": "C" 
			},
			{
				"x": 1.6206835448,
				"y": -0.9453762873,
				"z": 3.3365285638,
				"element": "C" 
			},
			{
				"x": 0.8161969595,
				"y": -0.7830712454,
				"z": 2.146449662,
				"element": "O" 
			},
			{
				"x": 1.2604925826,
				"y": -1.4546763376,
				"z": 1.0548448034,
				"element": "C" 
			},
			{
				"x": 2.2630260515,
				"y": -2.1494972194,
				"z": 1.0329373233,
				"element": "O" 
			},
			{
				"x": 0.4256592375,
				"y": -1.2456299983,
				"z": -0.0128096094,
				"element": "N" 
			},
			{
				"x": 0.7639204907,
				"y": -1.838381837,
				"z": -1.3008720572,
				"element": "C" 
			},
			{
				"x": 0.6930938483,
				"y": -0.7960774143,
				"z": -2.4153341261,
				"element": "C" 
			},
			{
				"x": -0.6152676329,
				"y": -0.083246754,
				"z": -2.3672163955,
				"element": "N" 
			},
			{
				"x": -1.5198970935,
				"y": -0.4055726747,
				"z": -1.2458376376,
				"element": "C" 
			},
			{
				"x": -0.7316916279,
				"y": -0.3493985836,
				"z": 0.0607819335,
				"element": "C" 
			},
			{
				"x": -1.3038258615,
				"y": 0.3165001917,
				"z": -3.8083281812,
				"element": "S" 
			},
			{
				"x": -2.0258379346,
				"y": -1.5733525698,
				"z": -4.5635798065,
				"element": "Cl" 
			},
			{
				"x": -0.251012101,
				"y": 0.7148755753,
				"z": -4.7259462501,
				"element": "O" 
			},
			{
				"x": -2.4955302244,
				"y": 1.1088961702,
				"z": -3.5576347339,
				"element": "O" 
			},
			{
				"x": 0.930649513,
				"y": 0.9323183884,
				"z": 4.1641784284,
				"element": "H" 
			},
			{
				"x": -0.0464219721,
				"y": -0.4721924115,
				"z": 4.6344611989,
				"element": "H" 
			},
			{
				"x": 1.5528805511,
				"y": -0.2214392893,
				"z": 5.3588820417,
				"element": "H" 
			},
			{
				"x": 1.6681408007,
				"y": -2.0089056957,
				"z": 3.5897341564,
				"element": "H" 
			},
			{
				"x": 2.6406409174,
				"y": -0.6117309983,
				"z": 3.1228821473,
				"element": "H" 
			},
			{
				"x": 0.0981661753,
				"y": -2.6805162882,
				"z": -1.5317976378,
				"element": "H" 
			},
			{
				"x": 1.7783948673,
				"y": -2.2320207268,
				"z": -1.2261869242,
				"element": "H" 
			},
			{
				"x": 0.8210549593,
				"y": -1.2862612155,
				"z": -3.3845805485,
				"element": "H" 
			},
			{
				"x": 1.4875213173,
				"y": -0.0522527818,
				"z": -2.3042795606,
				"element": "H" 
			},
			{
				"x": -1.9794860245,
				"y": -1.3933460907,
				"z": -1.3836801484,
				"element": "H" 
			},
			{
				"x": -2.3139980504,
				"y": 0.3409490344,
				"z": -1.225484809,
				"element": "H" 
			},
			{
				"x": -1.3921506886,
				"y": -0.645123452,
				"z": 0.8821481604,
				"element": "H" 
			},
			{
				"x": -0.4097652846,
				"y": 0.6811950538,
				"z": 0.2524392475,
				"element": "H" 
			}
		],
		 "valence_orbital": [ 
			{
				"type": "occ",
				"energy": -0.31551,
				"method": "rhf"
			},
			{
				"type": "occ",
				"energy": -0.30444,
				"method": "rhf"
			},
			{
				"type": "occ",
				"energy": -0.29166,
				"method": "rhf"
			},
			{
				"type": "occ",
				"energy": -0.28081,
				"method": "rhf"
			},
			{
				"type": "occ",
				"energy": -0.25621,
				"method": "rhf"
			},
			{
				"type": "unocc",
				"energy": -0.08151,
				"method": "rhf"
			},
			{
				"type": "unocc",
				"energy": 0.03853,
				"method": "rhf"
			},
			{
				"type": "unocc",
				"energy": 0.04809,
				"method": "rhf"
			},
			{
				"type": "unocc",
				"energy": 0.06367,
				"method": "rhf"
			},
			{
				"type": "unocc",
				"energy": 0.06889,
				"method": "rhf"
			}
		],
		"cosmo_sigma_profile": { 
			"-0.025": 0.0,
			"-0.024": 0.0,
			"-0.023": 0.0,
			"-0.022": 0.0,
			"-0.021": 0.0,
			"-0.02": 0.0,
			"-0.019": 0.0,
			"-0.018": 0.0,
			"-0.017": 0.0,
			"-0.016": 0.0,
			"-0.015": 0.0,
			"-0.014": 0.0,
			"-0.013": 0.0,
			"-0.012": 0.0,
			"-0.011": 0.0,
			"-0.01": 0.0,
			"-0.009": 0.0,
			"-0.008": 2.43037536706,
			"-0.007": 12.2705207987,
			"-0.006": 20.0125596236,
			"-0.005": 21.5422941287,
			"-0.004": 24.2476516601,
			"-0.003": 22.0444354166,
			"-0.002": 19.9211709518,
			"-0.001": 20.5893142648,
			"0.0": 19.0795513576,
			"0.001": 12.7910878133,
			"0.002": 12.3456131146,
			"0.003": 14.4106999089,
			"0.004": 16.1423266113,
			"0.005": 8.3954612948,
			"0.006": 6.4664447371,
			"0.007": 8.30099173323,
			"0.008": 11.4876115277,
			"0.009": 5.38217875065,
			"0.01": 1.13752945682,
			"0.011": 1.81422826551,
			"0.012": 1.94731680876,
			"0.013": 5.15092131529,
			"0.014": 0.961251139169,
			"0.015": 0.0,
			"0.016": 0.0,
			"0.017": 0.0,
			"0.018": 0.0,
			"0.019": 0.0,
			"0.02": 0.0,
			"0.021": 0.0,
			"0.022": 0.0,
			"0.023": 0.0,
			"0.024": 0.0,
			"0.025": 0.0
		}
	}
}
