{
	 "smiles": "COC1=CC=C(C=C1)C1=NOC(CBr)=C1", 
	 "Tm": 362.15, 
	 "num_atms": 25, 
	 "gaussian": { 
		 "optdone": 1, 
		 "sigma_profile": "yes", 
		 "theory": "DFT", 
		 "functional": "B3LYP", 
		 "basiset": "6-31G**", 
		 "properties": { 
			 "R2extent": 8920.4259, 
			 "electric_dipole_moment_norm": 4.77961620007, 
			 "electric_quadrupole_moment_norm": 13.2664890404, 
			 "total_energy": -3201.74318549, 
			 "HOMO_LUMO_gap": 0.16732, 
			 "cosmo_polarized_energy": -13.23, 
			 "cosmo_cavitation_energy": 32.29, 
			 "cosmo_dispersion_energy": -24.08, 
			 "cosmo_repulsion_energy": 1.88, 
			 "cosmo_total_nonelectrostatic_energy": 10.09, 
			 "SMD_solvation_energy": 5.0 
		},
		"coords": [
			{
				"x": -5.3831878216,
				"y": -1.0745572529,
				"z": -1.1155778769,
				"element": "C" 
			},
			{
				"x": -4.4927773381,
				"y": -2.1709419634,
				"z": -1.2594083641,
				"element": "O" 
			},
			{
				"x": -3.1541154868,
				"y": -1.9231914997,
				"z": -1.2515661882,
				"element": "C" 
			},
			{
				"x": -2.3246804591,
				"y": -3.0489631004,
				"z": -1.3935305792,
				"element": "C" 
			},
			{
				"x": -0.9477667745,
				"y": -2.906720666,
				"z": -1.3989395707,
				"element": "C" 
			},
			{
				"x": -0.3514161405,
				"y": -1.6372786613,
				"z": -1.2629228172,
				"element": "C" 
			},
			{
				"x": -1.1881504571,
				"y": -0.5252779199,
				"z": -1.1216628864,
				"element": "C" 
			},
			{
				"x": -2.5781068492,
				"y": -0.6548700361,
				"z": -1.1149433827,
				"element": "C" 
			},
			{
				"x": 1.112142527,
				"y": -1.4942982456,
				"z": -1.2683912256,
				"element": "C" 
			},
			{
				"x": 1.8932468102,
				"y": -2.5592675874,
				"z": -1.3503030393,
				"element": "N" 
			},
			{
				"x": 3.2005476295,
				"y": -2.0846346878,
				"z": -1.3365871799,
				"element": "O" 
			},
			{
				"x": 3.1823342064,
				"y": -0.7371251745,
				"z": -1.2448846632,
				"element": "C" 
			},
			{
				"x": 4.4863569799,
				"y": -0.0467679167,
				"z": -1.2285408352,
				"element": "C" 
			},
			{
				"x": 5.2763061085,
				"y": 0.0477244272,
				"z": 0.6059153663,
				"element": "Br" 
			},
			{
				"x": 1.8939670878,
				"y": -0.2982062695,
				"z": -1.1990362132,
				"element": "C" 
			},
			{
				"x": -5.2382459705,
				"y": -0.559124417,
				"z": -0.1576007759,
				"element": "H" 
			},
			{
				"x": -5.2697532878,
				"y": -0.3515696493,
				"z": -1.9334521811,
				"element": "H" 
			},
			{
				"x": -6.3883619179,
				"y": -1.4972083084,
				"z": -1.1472047585,
				"element": "H" 
			},
			{
				"x": -2.7899913786,
				"y": -4.0235026339,
				"z": -1.4981673505,
				"element": "H" 
			},
			{
				"x": -0.311790768,
				"y": -3.7783821711,
				"z": -1.5089720818,
				"element": "H" 
			},
			{
				"x": -0.7611302098,
				"y": 0.4667883766,
				"z": -1.0101467413,
				"element": "H" 
			},
			{
				"x": -3.1928065666,
				"y": 0.2299546551,
				"z": -1.0022146828,
				"element": "H" 
			},
			{
				"x": 4.3950526802,
				"y": 0.9868351163,
				"z": -1.5533666712,
				"element": "H" 
			},
			{
				"x": 5.2278940676,
				"y": -0.5742130251,
				"z": -1.8252274383,
				"element": "H" 
			},
			{
				"x": 1.556133329,
				"y": 0.7234986108,
				"z": -1.1251678631,
				"element": "H" 
			}
		],
		 "valence_orbital": [ 
			{
				"type": "occ",
				"energy": -0.28432,
				"method": "rhf"
			},
			{
				"type": "occ",
				"energy": -0.27868,
				"method": "rhf"
			},
			{
				"type": "occ",
				"energy": -0.26435,
				"method": "rhf"
			},
			{
				"type": "occ",
				"energy": -0.25732,
				"method": "rhf"
			},
			{
				"type": "occ",
				"energy": -0.21892,
				"method": "rhf"
			},
			{
				"type": "unocc",
				"energy": -0.0516,
				"method": "rhf"
			},
			{
				"type": "unocc",
				"energy": -0.02388,
				"method": "rhf"
			},
			{
				"type": "unocc",
				"energy": -0.00757,
				"method": "rhf"
			},
			{
				"type": "unocc",
				"energy": 0.03749,
				"method": "rhf"
			},
			{
				"type": "unocc",
				"energy": 0.07875,
				"method": "rhf"
			}
		],
		"cosmo_sigma_profile": { 
			"-0.025": 0.0,
			"-0.024": 0.0,
			"-0.023": 0.0,
			"-0.022": 0.0,
			"-0.021": 0.0,
			"-0.02": 0.0,
			"-0.019": 0.0,
			"-0.018": 0.0,
			"-0.017": 0.0,
			"-0.016": 0.0,
			"-0.015": 0.0,
			"-0.014": 0.0,
			"-0.013": 0.0,
			"-0.012": 0.0,
			"-0.011": 0.0,
			"-0.01": 1.01642333671,
			"-0.009": 7.34353525972,
			"-0.008": 7.48355549093,
			"-0.007": 8.19309661512,
			"-0.006": 15.8304468112,
			"-0.005": 19.838347325,
			"-0.004": 16.9369518059,
			"-0.003": 17.0647227209,
			"-0.002": 12.5126554804,
			"-0.001": 11.1650915515,
			"0.0": 15.2621908394,
			"0.001": 17.7331922207,
			"0.002": 20.2032047746,
			"0.003": 21.0169067701,
			"0.004": 21.9825938076,
			"0.005": 18.3406323866,
			"0.006": 10.6128521148,
			"0.007": 4.64915692934,
			"0.008": 5.02891625804,
			"0.009": 3.23425232872,
			"0.01": 2.88225792715,
			"0.011": 1.51287303698,
			"0.012": 1.20565938957,
			"0.013": 0.807330491937,
			"0.014": 0.069580122953,
			"0.015": 0.0,
			"0.016": 0.0,
			"0.017": 0.0,
			"0.018": 0.0,
			"0.019": 0.0,
			"0.02": 0.0,
			"0.021": 0.0,
			"0.022": 0.0,
			"0.023": 0.0,
			"0.024": 0.0,
			"0.025": 0.0
		}
	}
}
