{
	 "smiles": "OC(=O)C1=CC(NC(=O)C2=CC=C(Br)O2)=CC=C1", 
	 "Tm": 503.15, 
	 "num_atms": 26, 
	 "gaussian": { 
		 "optdone": 1, 
		 "sigma_profile": "yes", 
		 "theory": "DFT", 
		 "functional": "B3LYP", 
		 "basiset": "6-31G**", 
		 "properties": { 
			 "R2extent": 5878.0338, 
			 "electric_dipole_moment_norm": 4.11604691543, 
			 "electric_quadrupole_moment_norm": 25.5840855226, 
			 "total_energy": -3389.13262987, 
			 "HOMO_LUMO_gap": 0.17684, 
			 "cosmo_polarized_energy": -21.54, 
			 "cosmo_cavitation_energy": 34.92, 
			 "cosmo_dispersion_energy": -24.08, 
			 "cosmo_repulsion_energy": 1.88, 
			 "cosmo_total_nonelectrostatic_energy": 12.71, 
			 "SMD_solvation_energy": 7.09 
		},
		"coords": [
			{
				"x": -1.2314441609,
				"y": 2.4370929062,
				"z": -3.621857149,
				"element": "O" 
			},
			{
				"x": -0.6206893552,
				"y": 2.1014593159,
				"z": -2.454617016,
				"element": "C" 
			},
			{
				"x": -0.404927433,
				"y": 2.9478854413,
				"z": -1.6198664703,
				"element": "O" 
			},
			{
				"x": -0.2433859201,
				"y": 0.6582635401,
				"z": -2.2812251369,
				"element": "C" 
			},
			{
				"x": 0.7401761888,
				"y": 0.3709641434,
				"z": -1.3304460609,
				"element": "C" 
			},
			{
				"x": 1.1387070846,
				"y": -0.9498049973,
				"z": -1.1038296948,
				"element": "C" 
			},
			{
				"x": 2.1593088248,
				"y": -1.2849331645,
				"z": -0.1845222764,
				"element": "N" 
			},
			{
				"x": 2.5805623794,
				"y": -0.6621433529,
				"z": 0.9813773577,
				"element": "C" 
			},
			{
				"x": 3.7258818769,
				"y": -0.8235599022,
				"z": 1.3895442063,
				"element": "O" 
			},
			{
				"x": 1.6284805851,
				"y": 0.1313835297,
				"z": 1.7732372828,
				"element": "C" 
			},
			{
				"x": 1.87857017,
				"y": 0.978755684,
				"z": 2.8195169504,
				"element": "C" 
			},
			{
				"x": 0.6159423091,
				"y": 1.4406929792,
				"z": 3.2890389259,
				"element": "C" 
			},
			{
				"x": -0.3116930124,
				"y": 0.8273984896,
				"z": 2.494472673,
				"element": "C" 
			},
			{
				"x": -2.1755958735,
				"y": 0.9010880624,
				"z": 2.4917195332,
				"element": "Br" 
			},
			{
				"x": 0.2694520091,
				"y": 0.029833623,
				"z": 1.5721620049,
				"element": "O" 
			},
			{
				"x": 0.5548363887,
				"y": -1.9814986447,
				"z": -1.8549571548,
				"element": "C" 
			},
			{
				"x": -0.4228400367,
				"y": -1.6946746164,
				"z": -2.8041901458,
				"element": "C" 
			},
			{
				"x": -0.8334040058,
				"y": -0.379160897,
				"z": -3.0170340777,
				"element": "C" 
			},
			{
				"x": -1.1858863344,
				"y": 1.700073455,
				"z": -4.24642575,
				"element": "H" 
			},
			{
				"x": 1.1863496119,
				"y": 1.1948139211,
				"z": -0.7866167317,
				"element": "H" 
			},
			{
				"x": 2.8601999778,
				"y": -1.939181476,
				"z": -0.5120938727,
				"element": "H" 
			},
			{
				"x": 2.8591014307,
				"y": 1.2275911139,
				"z": 3.1969619425,
				"element": "H" 
			},
			{
				"x": 0.413238765,
				"y": 2.125975235,
				"z": 4.0972767705,
				"element": "H" 
			},
			{
				"x": 0.860704379,
				"y": -3.0082558874,
				"z": -1.6758949386,
				"element": "H" 
			},
			{
				"x": -0.8799909798,
				"y": -2.5037266274,
				"z": -3.365377415,
				"element": "H" 
			},
			{
				"x": -1.6356548691,
				"y": -0.1815318742,
				"z": -3.7230537565,
				"element": "H" 
			}
		],
		 "valence_orbital": [ 
			{
				"type": "occ",
				"energy": -0.28201,
				"method": "rhf"
			},
			{
				"type": "occ",
				"energy": -0.27246,
				"method": "rhf"
			},
			{
				"type": "occ",
				"energy": -0.26978,
				"method": "rhf"
			},
			{
				"type": "occ",
				"energy": -0.24463,
				"method": "rhf"
			},
			{
				"type": "occ",
				"energy": -0.23574,
				"method": "rhf"
			},
			{
				"type": "unocc",
				"energy": -0.0589,
				"method": "rhf"
			},
			{
				"type": "unocc",
				"energy": -0.05198,
				"method": "rhf"
			},
			{
				"type": "unocc",
				"energy": -0.02075,
				"method": "rhf"
			},
			{
				"type": "unocc",
				"energy": 0.00134,
				"method": "rhf"
			},
			{
				"type": "unocc",
				"energy": 0.02725,
				"method": "rhf"
			}
		],
		"cosmo_sigma_profile": { 
			"-0.025": 0.0,
			"-0.024": 0.0,
			"-0.023": 0.0,
			"-0.022": 0.0,
			"-0.021": 0.0,
			"-0.02": 0.0,
			"-0.019": 0.208101848809,
			"-0.018": 0.427787694081,
			"-0.017": 0.969708039611,
			"-0.016": 1.08881762629,
			"-0.015": 1.97842525153,
			"-0.014": 1.86506118523,
			"-0.013": 1.75105706907,
			"-0.012": 2.42371575658,
			"-0.011": 2.84617510377,
			"-0.01": 2.25655874972,
			"-0.009": 4.44986271439,
			"-0.008": 6.46897461328,
			"-0.007": 11.7554961535,
			"-0.006": 13.0227951808,
			"-0.005": 12.587382194,
			"-0.004": 14.1355139747,
			"-0.003": 12.7930286124,
			"-0.002": 14.0456989974,
			"-0.001": 20.8257866318,
			"0.0": 22.3177369156,
			"0.001": 24.1725084455,
			"0.002": 32.534012144,
			"0.003": 22.0749092575,
			"0.004": 7.65154615711,
			"0.005": 5.24835275522,
			"0.006": 4.2851777608,
			"0.007": 3.46333556316,
			"0.008": 3.93376762427,
			"0.009": 5.3668887439,
			"0.01": 6.47815497151,
			"0.011": 6.50005346329,
			"0.012": 8.53033643352,
			"0.013": 5.86804213139,
			"0.014": 0.243253302246,
			"0.015": 0.0,
			"0.016": 0.0,
			"0.017": 0.0,
			"0.018": 0.0,
			"0.019": 0.0,
			"0.02": 0.0,
			"0.021": 0.0,
			"0.022": 0.0,
			"0.023": 0.0,
			"0.024": 0.0,
			"0.025": 0.0
		}
	}
}
