{
	 "smiles": "CC1=NC(=CN1CC(O)=O)[N+]([O-])=O", 
	 "Tm": 518.15, 
	 "num_atms": 20, 
	 "gaussian": { 
		 "optdone": 1, 
		 "sigma_profile": "yes", 
		 "theory": "DFT", 
		 "functional": "B3LYP", 
		 "basiset": "6-31G**", 
		 "properties": { 
			 "R2extent": 4040.457, 
			 "electric_dipole_moment_norm": 4.09436857281, 
			 "electric_quadrupole_moment_norm": 30.3200050701, 
			 "total_energy": -697.903374736, 
			 "HOMO_LUMO_gap": 0.18887, 
			 "cosmo_polarized_energy": -27.22, 
			 "cosmo_cavitation_energy": 26.05, 
			 "cosmo_dispersion_energy": -18.36, 
			 "cosmo_repulsion_energy": 1.47, 
			 "cosmo_total_nonelectrostatic_energy": 9.16, 
			 "SMD_solvation_energy": 6.94 
		},
		"coords": [
			{
				"x": -0.773529719,
				"y": -0.2288594594,
				"z": 2.4926855707,
				"element": "C" 
			},
			{
				"x": 0.3147922671,
				"y": 0.5413259352,
				"z": 1.8208355801,
				"element": "C" 
			},
			{
				"x": 1.5017622317,
				"y": 0.7921887636,
				"z": 2.3279223676,
				"element": "N" 
			},
			{
				"x": 2.1487440047,
				"y": 1.5185442392,
				"z": 1.3740154743,
				"element": "C" 
			},
			{
				"x": 1.3741981127,
				"y": 1.731744879,
				"z": 0.2619040284,
				"element": "C" 
			},
			{
				"x": 0.1829844892,
				"y": 1.1014243173,
				"z": 0.5526969116,
				"element": "N" 
			},
			{
				"x": -0.9827061954,
				"y": 1.0254116685,
				"z": -0.3163204609,
				"element": "C" 
			},
			{
				"x": -2.1203905852,
				"y": 2.0132844876,
				"z": 0.0052435219,
				"element": "C" 
			},
			{
				"x": -1.8599050896,
				"y": 2.9815082028,
				"z": 0.9042688917,
				"element": "O" 
			},
			{
				"x": -3.1866835495,
				"y": 1.9146339172,
				"z": -0.5421341474,
				"element": "O" 
			},
			{
				"x": 3.5025661438,
				"y": 1.9973885333,
				"z": 1.5390172873,
				"element": "N" 
			},
			{
				"x": 3.961498712,
				"y": 2.6495659236,
				"z": 0.5942177626,
				"element": "O" 
			},
			{
				"x": 4.0899889302,
				"y": 1.73114956,
				"z": 2.5801115434,
				"element": "O" 
			},
			{
				"x": -1.6791387176,
				"y": 0.3735645797,
				"z": 2.6268476933,
				"element": "H" 
			},
			{
				"x": -1.0491409882,
				"y": -1.12666897,
				"z": 1.9274893745,
				"element": "H" 
			},
			{
				"x": -0.4135844933,
				"y": -0.5372895139,
				"z": 3.4744390309,
				"element": "H" 
			},
			{
				"x": 1.5677431158,
				"y": 2.2451864561,
				"z": -0.6658112785,
				"element": "H" 
			},
			{
				"x": -1.4100836615,
				"y": 0.0211080467,
				"z": -0.2840032152,
				"element": "H" 
			},
			{
				"x": -0.6674839651,
				"y": 1.2075532393,
				"z": -1.3467430477,
				"element": "H" 
			},
			{
				"x": -0.944831043,
				"y": 2.9216351939,
				"z": 1.2202171114,
				"element": "H" 
			}
		],
		 "valence_orbital": [ 
			{
				"type": "occ",
				"energy": -0.30829,
				"method": "rhf"
			},
			{
				"type": "occ",
				"energy": -0.3071,
				"method": "rhf"
			},
			{
				"type": "occ",
				"energy": -0.29853,
				"method": "rhf"
			},
			{
				"type": "occ",
				"energy": -0.29094,
				"method": "rhf"
			},
			{
				"type": "occ",
				"energy": -0.27322,
				"method": "rhf"
			},
			{
				"type": "unocc",
				"energy": -0.08435,
				"method": "rhf"
			},
			{
				"type": "unocc",
				"energy": -0.02585,
				"method": "rhf"
			},
			{
				"type": "unocc",
				"energy": -0.01945,
				"method": "rhf"
			},
			{
				"type": "unocc",
				"energy": 0.03379,
				"method": "rhf"
			},
			{
				"type": "unocc",
				"energy": 0.05487,
				"method": "rhf"
			}
		],
		"cosmo_sigma_profile": { 
			"-0.025": 0.0,
			"-0.024": 0.0,
			"-0.023": 0.0,
			"-0.022": 0.0,
			"-0.021": 0.0,
			"-0.02": 0.0,
			"-0.019": 0.0,
			"-0.018": 0.178929865709,
			"-0.017": 0.670285530172,
			"-0.016": 0.547405322964,
			"-0.015": 1.41401658884,
			"-0.014": 1.67520231838,
			"-0.013": 2.55394694382,
			"-0.012": 5.04162484411,
			"-0.011": 5.04859042883,
			"-0.01": 6.39470243453,
			"-0.009": 7.24641237901,
			"-0.008": 7.66471909734,
			"-0.007": 7.75273160861,
			"-0.006": 10.6304104274,
			"-0.005": 11.369626916,
			"-0.004": 9.42820405691,
			"-0.003": 11.5827470105,
			"-0.002": 12.8996027981,
			"-0.001": 8.546226928,
			"0.0": 5.58068576901,
			"0.001": 4.88221946608,
			"0.002": 4.13528072954,
			"0.003": 5.10374082264,
			"0.004": 4.36413360534,
			"0.005": 7.08226066358,
			"0.006": 6.06930834928,
			"0.007": 7.43975536074,
			"0.008": 15.3374011148,
			"0.009": 11.8180637499,
			"0.01": 9.07336464676,
			"0.011": 8.38077200727,
			"0.012": 3.54765525041,
			"0.013": 1.26865915557,
			"0.014": 1.75720974265,
			"0.015": 0.898248813184,
			"0.016": 0.437322869005,
			"0.017": 0.0,
			"0.018": 0.0,
			"0.019": 0.0,
			"0.02": 0.0,
			"0.021": 0.0,
			"0.022": 0.0,
			"0.023": 0.0,
			"0.024": 0.0,
			"0.025": 0.0
		}
	}
}
