{
	 "smiles": "CNC(NCCSCC1=CSC(CN(C)C)=N1)=C[N+]([O-])=O", 
	 "Tm": 476.15, 
	 "num_atms": 42, 
	 "gaussian": { 
		 "optdone": 1, 
		 "sigma_profile": "yes", 
		 "theory": "DFT", 
		 "functional": "B3LYP", 
		 "basiset": "6-31G**", 
		 "properties": { 
			 "R2extent": 8838.2279, 
			 "electric_dipole_moment_norm": 5.60287582051, 
			 "electric_quadrupole_moment_norm": 31.1253969846, 
			 "total_energy": -1690.387273, 
			 "HOMO_LUMO_gap": 0.17642, 
			 "cosmo_polarized_energy": -25.3, 
			 "cosmo_cavitation_energy": 46.88, 
			 "cosmo_dispersion_energy": -31.77, 
			 "cosmo_repulsion_energy": 2.38, 
			 "cosmo_total_nonelectrostatic_energy": 17.48, 
			 "SMD_solvation_energy": 7.53 
		},
		"coords": [
			{
				"x": -0.7684043327,
				"y": 5.0153003483,
				"z": -0.2062214699,
				"element": "C" 
			},
			{
				"x": -0.5898562016,
				"y": 3.6794104218,
				"z": -0.7532599402,
				"element": "N" 
			},
			{
				"x": -0.7270234938,
				"y": 2.5084138009,
				"z": -0.0780714278,
				"element": "C" 
			},
			{
				"x": -0.973030187,
				"y": 1.3860223481,
				"z": -0.8233447047,
				"element": "N" 
			},
			{
				"x": -1.7910199049,
				"y": 1.3031882602,
				"z": -2.024306041,
				"element": "C" 
			},
			{
				"x": -1.106410759,
				"y": 0.5411641778,
				"z": -3.1655139492,
				"element": "C" 
			},
			{
				"x": -0.7932436508,
				"y": -1.2469930759,
				"z": -2.8540290138,
				"element": "S" 
			},
			{
				"x": 0.8366003068,
				"y": -1.2320564442,
				"z": -1.9607897788,
				"element": "C" 
			},
			{
				"x": 0.79707166,
				"y": -1.751730077,
				"z": -0.5539649565,
				"element": "C" 
			},
			{
				"x": 1.5139058083,
				"y": -2.8137619816,
				"z": -0.0788070492,
				"element": "C" 
			},
			{
				"x": 1.2608496601,
				"y": -3.0104277924,
				"z": 1.6269610352,
				"element": "S" 
			},
			{
				"x": 0.175375733,
				"y": -1.6345112012,
				"z": 1.5824202016,
				"element": "C" 
			},
			{
				"x": -0.4494399569,
				"y": -1.1087046545,
				"z": 2.8494605822,
				"element": "C" 
			},
			{
				"x": -0.4265529813,
				"y": -2.1064036419,
				"z": 3.9124508235,
				"element": "N" 
			},
			{
				"x": -1.5403176274,
				"y": -3.0462396492,
				"z": 3.8130823558,
				"element": "C" 
			},
			{
				"x": -0.3446751712,
				"y": -1.5108584036,
				"z": 5.2439766487,
				"element": "C" 
			},
			{
				"x": 0.0336629354,
				"y": -1.1042849237,
				"z": 0.401037021,
				"element": "N" 
			},
			{
				"x": -0.6730634254,
				"y": 2.3374185464,
				"z": 1.3034173605,
				"element": "C" 
			},
			{
				"x": 0.1564254217,
				"y": 3.0287473606,
				"z": 2.1962473882,
				"element": "N" 
			},
			{
				"x": 0.8743394141,
				"y": 3.9704347809,
				"z": 1.8035477989,
				"element": "O" 
			},
			{
				"x": 0.1611857309,
				"y": 2.6245817643,
				"z": 3.3788725613,
				"element": "O" 
			},
			{
				"x": 0.1662220372,
				"y": 5.4434899004,
				"z": 0.1608137336,
				"element": "H" 
			},
			{
				"x": -1.2028828069,
				"y": 5.6532757484,
				"z": -0.9825951287,
				"element": "H" 
			},
			{
				"x": -1.4646400191,
				"y": 4.9626882814,
				"z": 0.6331047577,
				"element": "H" 
			},
			{
				"x": -0.2848519612,
				"y": 3.6087933904,
				"z": -1.7123436352,
				"element": "H" 
			},
			{
				"x": -0.8110078721,
				"y": 0.5062427494,
				"z": -0.3234021685,
				"element": "H" 
			},
			{
				"x": -2.745235126,
				"y": 0.8091136817,
				"z": -1.7937536529,
				"element": "H" 
			},
			{
				"x": -2.0287894892,
				"y": 2.3177551367,
				"z": -2.3613647337,
				"element": "H" 
			},
			{
				"x": -0.1636762877,
				"y": 1.0200428813,
				"z": -3.4498882114,
				"element": "H" 
			},
			{
				"x": -1.7593215331,
				"y": 0.5507882498,
				"z": -4.0444483441,
				"element": "H" 
			},
			{
				"x": 1.5342720736,
				"y": -1.8281716065,
				"z": -2.5528226106,
				"element": "H" 
			},
			{
				"x": 1.1895245793,
				"y": -0.1969104326,
				"z": -1.9676269264,
				"element": "H" 
			},
			{
				"x": 2.1669298664,
				"y": -3.4753620039,
				"z": -0.6303642827,
				"element": "H" 
			},
			{
				"x": -1.4677630757,
				"y": -0.7515180507,
				"z": 2.6121311985,
				"element": "H" 
			},
			{
				"x": 0.1145641118,
				"y": -0.2240436588,
				"z": 3.1703762382,
				"element": "H" 
			},
			{
				"x": -1.4152010819,
				"y": -3.8434834779,
				"z": 4.5518859211,
				"element": "H" 
			},
			{
				"x": -2.5209112774,
				"y": -2.5653802694,
				"z": 3.9863070804,
				"element": "H" 
			},
			{
				"x": -1.5562732052,
				"y": -3.5068956789,
				"z": 2.8214368606,
				"element": "H" 
			},
			{
				"x": 0.5287486468,
				"y": -0.8564112475,
				"z": 5.3064183279,
				"element": "H" 
			},
			{
				"x": -0.2306300026,
				"y": -2.3059779692,
				"z": 5.9872682518,
				"element": "H" 
			},
			{
				"x": -1.2380861453,
				"y": -0.9189618328,
				"z": 5.5122913142,
				"element": "H" 
			},
			{
				"x": -1.12687041,
				"y": 1.4657162447,
				"z": 1.7442105644,
				"element": "H" 
			}
		],
		 "valence_orbital": [ 
			{
				"type": "occ",
				"energy": -0.24706,
				"method": "rhf"
			},
			{
				"type": "occ",
				"energy": -0.23438,
				"method": "rhf"
			},
			{
				"type": "occ",
				"energy": -0.23222,
				"method": "rhf"
			},
			{
				"type": "occ",
				"energy": -0.22566,
				"method": "rhf"
			},
			{
				"type": "occ",
				"energy": -0.2086,
				"method": "rhf"
			},
			{
				"type": "unocc",
				"energy": -0.03218,
				"method": "rhf"
			},
			{
				"type": "unocc",
				"energy": -0.02958,
				"method": "rhf"
			},
			{
				"type": "unocc",
				"energy": 0.01082,
				"method": "rhf"
			},
			{
				"type": "unocc",
				"energy": 0.02403,
				"method": "rhf"
			},
			{
				"type": "unocc",
				"energy": 0.02876,
				"method": "rhf"
			}
		],
		"cosmo_sigma_profile": { 
			"-0.025": 0.0,
			"-0.024": 0.0,
			"-0.023": 0.0,
			"-0.022": 0.0,
			"-0.021": 0.0,
			"-0.02": 0.0,
			"-0.019": 0.0,
			"-0.018": 0.0,
			"-0.017": 0.0,
			"-0.016": 0.0,
			"-0.015": 0.269013693815,
			"-0.014": 1.40150901716,
			"-0.013": 0.962965224736,
			"-0.012": 1.96215765215,
			"-0.011": 1.31660996698,
			"-0.01": 1.38435782165,
			"-0.009": 2.67911703901,
			"-0.008": 4.68456951211,
			"-0.007": 7.25034108369,
			"-0.006": 17.4534037148,
			"-0.005": 22.9141814945,
			"-0.004": 30.7268720065,
			"-0.003": 36.220956989,
			"-0.002": 39.657455165,
			"-0.001": 37.4980481875,
			"0.0": 26.0004213464,
			"0.001": 21.3484230237,
			"0.002": 20.6294939176,
			"0.003": 19.4624674594,
			"0.004": 12.1550982452,
			"0.005": 9.79503084815,
			"0.006": 8.03749549133,
			"0.007": 7.07148790285,
			"0.008": 5.9334693727,
			"0.009": 7.07251145725,
			"0.01": 6.01417455964,
			"0.011": 6.83941703168,
			"0.012": 6.64717941046,
			"0.013": 4.18304111989,
			"0.014": 3.61767421416,
			"0.015": 1.36769369484,
			"0.016": 0.0,
			"0.017": 0.0,
			"0.018": 0.0,
			"0.019": 0.0,
			"0.02": 0.0,
			"0.021": 0.0,
			"0.022": 0.0,
			"0.023": 0.0,
			"0.024": 0.0,
			"0.025": 0.0
		}
	}
}
