{
	 "smiles": "NC1=C(N)C=C(Cl)C=C1", 
	 "Tm": 349.15, 
	 "num_atms": 16, 
	 "gaussian": { 
		 "optdone": 1, 
		 "sigma_profile": "yes", 
		 "theory": "DFT", 
		 "functional": "B3LYP", 
		 "basiset": "6-31G**", 
		 "properties": { 
			 "R2extent": 1602.5466, 
			 "electric_dipole_moment_norm": 3.43020920791, 
			 "electric_quadrupole_moment_norm": 8.07541407236, 
			 "total_energy": -802.559544663, 
			 "HOMO_LUMO_gap": 0.19882, 
			 "cosmo_polarized_energy": -10.96, 
			 "cosmo_cavitation_energy": 21.35, 
			 "cosmo_dispersion_energy": -16.34, 
			 "cosmo_repulsion_energy": 1.35, 
			 "cosmo_total_nonelectrostatic_energy": 6.36, 
			 "SMD_solvation_energy": 3.35 
		},
		"coords": [
			{
				"x": -1.9037100724,
				"y": 0.7834151623,
				"z": -2.2239117863,
				"element": "N" 
			},
			{
				"x": -1.0215224368,
				"y": 0.1328670945,
				"z": -1.3389939345,
				"element": "C" 
			},
			{
				"x": -0.340860125,
				"y": 0.9296017315,
				"z": -0.3864699286,
				"element": "C" 
			},
			{
				"x": -0.6410878146,
				"y": 2.3019100595,
				"z": -0.3466699908,
				"element": "N" 
			},
			{
				"x": 0.5561315919,
				"y": 0.3296857689,
				"z": 0.4997954443,
				"element": "C" 
			},
			{
				"x": 0.7884014232,
				"y": -1.0445812878,
				"z": 0.4293498333,
				"element": "C" 
			},
			{
				"x": 1.9269486963,
				"y": -1.7762658365,
				"z": 1.5597602151,
				"element": "Cl" 
			},
			{
				"x": 0.1539480721,
				"y": -1.8371861977,
				"z": -0.5197691285,
				"element": "C" 
			},
			{
				"x": -0.755101679,
				"y": -1.235393134,
				"z": -1.3949466097,
				"element": "C" 
			},
			{
				"x": -2.4503064587,
				"y": 0.1409098622,
				"z": -2.7843043828,
				"element": "H" 
			},
			{
				"x": -2.517231405,
				"y": 1.43482978,
				"z": -1.7424057836,
				"element": "H" 
			},
			{
				"x": -0.6995637312,
				"y": 2.7087019902,
				"z": -1.2756061921,
				"element": "H" 
			},
			{
				"x": -0.0099726886,
				"y": 2.8373231437,
				"z": 0.2364288666,
				"element": "H" 
			},
			{
				"x": 1.0802908435,
				"y": 0.9325991423,
				"z": 1.2346657785,
				"element": "H" 
			},
			{
				"x": 0.3487460837,
				"y": -2.9020507981,
				"z": -0.5688317008,
				"element": "H" 
			},
			{
				"x": -1.2737102994,
				"y": -1.8471664812,
				"z": -2.1292907001,
				"element": "H" 
			}
		],
		 "valence_orbital": [ 
			{
				"type": "occ",
				"energy": -0.31693,
				"method": "rhf"
			},
			{
				"type": "occ",
				"energy": -0.3004,
				"method": "rhf"
			},
			{
				"type": "occ",
				"energy": -0.28468,
				"method": "rhf"
			},
			{
				"type": "occ",
				"energy": -0.22887,
				"method": "rhf"
			},
			{
				"type": "occ",
				"energy": -0.19424,
				"method": "rhf"
			},
			{
				"type": "unocc",
				"energy": 0.00458,
				"method": "rhf"
			},
			{
				"type": "unocc",
				"energy": 0.01507,
				"method": "rhf"
			},
			{
				"type": "unocc",
				"energy": 0.04012,
				"method": "rhf"
			},
			{
				"type": "unocc",
				"energy": 0.06991,
				"method": "rhf"
			},
			{
				"type": "unocc",
				"energy": 0.09932,
				"method": "rhf"
			}
		],
		"cosmo_sigma_profile": { 
			"-0.025": 0.0,
			"-0.024": 0.0,
			"-0.023": 0.0,
			"-0.022": 0.0,
			"-0.021": 0.0,
			"-0.02": 0.0,
			"-0.019": 0.0,
			"-0.018": 0.0,
			"-0.017": 0.0,
			"-0.016": 0.0,
			"-0.015": 0.0,
			"-0.014": 0.0,
			"-0.013": 0.137658490705,
			"-0.012": 2.3262539053,
			"-0.011": 4.91731612718,
			"-0.01": 5.8735071294,
			"-0.009": 5.74037938411,
			"-0.008": 4.70504046894,
			"-0.007": 6.25051015909,
			"-0.006": 7.88314247454,
			"-0.005": 7.12398673111,
			"-0.004": 6.84580929396,
			"-0.003": 7.27641653336,
			"-0.002": 5.69286966263,
			"-0.001": 7.01031808774,
			"0.0": 8.01469233205,
			"0.001": 8.14145986082,
			"0.002": 8.87131975779,
			"0.003": 13.2867507789,
			"0.004": 16.2254885404,
			"0.005": 22.4545112454,
			"0.006": 12.3601271171,
			"0.007": 1.93341757445,
			"0.008": 1.49366860948,
			"0.009": 1.37972038329,
			"0.01": 0.759150008011,
			"0.011": 1.09622650062,
			"0.012": 1.74508972007,
			"0.013": 0.833498998396,
			"0.014": 0.841627567475,
			"0.015": 0.269385835562,
			"0.016": 0.0,
			"0.017": 0.0,
			"0.018": 0.0,
			"0.019": 0.0,
			"0.02": 0.0,
			"0.021": 0.0,
			"0.022": 0.0,
			"0.023": 0.0,
			"0.024": 0.0,
			"0.025": 0.0
		}
	}
}
