{
	 "smiles": "CS(=O)(=O)C1=C(N)SC=C1", 
	 "Tm": 364.15, 
	 "num_atms": 17, 
	 "gaussian": { 
		 "optdone": 1, 
		 "sigma_profile": "yes", 
		 "theory": "DFT", 
		 "functional": "B3LYP", 
		 "basiset": "6-31G**", 
		 "properties": { 
			 "R2extent": 2199.4187, 
			 "electric_dipole_moment_norm": 3.96052194793, 
			 "electric_quadrupole_moment_norm": 8.98798965954, 
			 "total_energy": -1196.24719678, 
			 "HOMO_LUMO_gap": 0.19531, 
			 "cosmo_polarized_energy": -15.37, 
			 "cosmo_cavitation_energy": 23.54, 
			 "cosmo_dispersion_energy": -18.48, 
			 "cosmo_repulsion_energy": 1.4, 
			 "cosmo_total_nonelectrostatic_energy": 6.46, 
			 "SMD_solvation_energy": 3.77 
		},
		"coords": [
			{
				"x": 1.9867137774,
				"y": -0.891569771,
				"z": 1.1980647683,
				"element": "C" 
			},
			{
				"x": 1.0823573777,
				"y": -0.4730957367,
				"z": -0.3101585613,
				"element": "S" 
			},
			{
				"x": 0.1838646564,
				"y": -1.597052242,
				"z": -0.6081064675,
				"element": "O" 
			},
			{
				"x": 2.0927586331,
				"y": -0.0348893017,
				"z": -1.3011897996,
				"element": "O" 
			},
			{
				"x": 0.1115010866,
				"y": 0.9343157234,
				"z": 0.1201698935,
				"element": "C" 
			},
			{
				"x": 0.539688285,
				"y": 2.240969532,
				"z": -0.0655935255,
				"element": "C" 
			},
			{
				"x": 1.7437522524,
				"y": 2.6873586553,
				"z": -0.5427173728,
				"element": "N" 
			},
			{
				"x": -0.691121381,
				"y": 3.3562337805,
				"z": 0.4933864504,
				"element": "S" 
			},
			{
				"x": -1.7605144277,
				"y": 2.0420021265,
				"z": 0.9494349586,
				"element": "C" 
			},
			{
				"x": -1.201946494,
				"y": 0.8324549352,
				"z": 0.6917486034,
				"element": "C" 
			},
			{
				"x": 2.6114639793,
				"y": -1.7548388618,
				"z": 0.9590679162,
				"element": "H" 
			},
			{
				"x": 2.6043341879,
				"y": -0.0404419072,
				"z": 1.4888275895,
				"element": "H" 
			},
			{
				"x": 1.2712375228,
				"y": -1.1441010577,
				"z": 1.9818259193,
				"element": "H" 
			},
			{
				"x": 1.767855073,
				"y": 3.6236445687,
				"z": -0.9195151573,
				"element": "H" 
			},
			{
				"x": 2.2418588179,
				"y": 1.9885232377,
				"z": -1.0886977058,
				"element": "H" 
			},
			{
				"x": -2.7340505921,
				"y": 2.2688237586,
				"z": 1.3586160957,
				"element": "H" 
			},
			{
				"x": -1.6927527546,
				"y": -0.1170374399,
				"z": 0.866836395,
				"element": "H" 
			}
		],
		 "valence_orbital": [ 
			{
				"type": "occ",
				"energy": -0.31156,
				"method": "rhf"
			},
			{
				"type": "occ",
				"energy": -0.29697,
				"method": "rhf"
			},
			{
				"type": "occ",
				"energy": -0.28862,
				"method": "rhf"
			},
			{
				"type": "occ",
				"energy": -0.26921,
				"method": "rhf"
			},
			{
				"type": "occ",
				"energy": -0.21519,
				"method": "rhf"
			},
			{
				"type": "unocc",
				"energy": -0.01988,
				"method": "rhf"
			},
			{
				"type": "unocc",
				"energy": -0.00191,
				"method": "rhf"
			},
			{
				"type": "unocc",
				"energy": 0.02226,
				"method": "rhf"
			},
			{
				"type": "unocc",
				"energy": 0.06944,
				"method": "rhf"
			},
			{
				"type": "unocc",
				"energy": 0.08364,
				"method": "rhf"
			}
		],
		"cosmo_sigma_profile": { 
			"-0.025": 0.0,
			"-0.024": 0.0,
			"-0.023": 0.0,
			"-0.022": 0.0,
			"-0.021": 0.0,
			"-0.02": 0.0,
			"-0.019": 0.0,
			"-0.018": 0.0,
			"-0.017": 0.0,
			"-0.016": 0.0,
			"-0.015": 0.544979860897,
			"-0.014": 1.4137684614,
			"-0.013": 2.05774975143,
			"-0.012": 0.965815403034,
			"-0.011": 1.28785397751,
			"-0.01": 2.1751731172,
			"-0.009": 3.57062649696,
			"-0.008": 8.8703717409,
			"-0.007": 10.0806678069,
			"-0.006": 11.2091203759,
			"-0.005": 11.2813779369,
			"-0.004": 11.6235542289,
			"-0.003": 11.2558743833,
			"-0.002": 8.05088605324,
			"-0.001": 7.06905885969,
			"0.0": 8.38142041084,
			"0.001": 11.9773922771,
			"0.002": 12.8155195242,
			"0.003": 12.8810013671,
			"0.004": 11.335424471,
			"0.005": 5.81434765296,
			"0.006": 3.28976783885,
			"0.007": 3.24901862703,
			"0.008": 3.56280592992,
			"0.009": 3.8979896968,
			"0.01": 4.19319583319,
			"0.011": 7.25156503616,
			"0.012": 8.04984148664,
			"0.013": 1.85545529014,
			"0.014": 0.0,
			"0.015": 0.0,
			"0.016": 0.0,
			"0.017": 0.0,
			"0.018": 0.0,
			"0.019": 0.0,
			"0.02": 0.0,
			"0.021": 0.0,
			"0.022": 0.0,
			"0.023": 0.0,
			"0.024": 0.0,
			"0.025": 0.0
		}
	}
}
