{
	 "smiles": "CC(C)(C)C1=CC=C(C=C1)C(O)CCC(O)=O", 
	 "Tm": 401.15, 
	 "num_atms": 37, 
	 "gaussian": { 
		 "optdone": 1, 
		 "sigma_profile": "yes", 
		 "theory": "DFT", 
		 "functional": "B3LYP", 
		 "basiset": "6-31G**", 
		 "properties": { 
			 "R2extent": 5851.1233, 
			 "electric_dipole_moment_norm": 3.02416692826, 
			 "electric_quadrupole_moment_norm": 18.9290977146, 
			 "total_energy": -771.237030587, 
			 "HOMO_LUMO_gap": 0.23034, 
			 "cosmo_polarized_energy": -17.54, 
			 "cosmo_cavitation_energy": 38.24, 
			 "cosmo_dispersion_energy": -26.35, 
			 "cosmo_repulsion_energy": 2.05, 
			 "cosmo_total_nonelectrostatic_energy": 13.95, 
			 "SMD_solvation_energy": 7.31 
		},
		"coords": [
			{
				"x": 0.8495957811,
				"y": -2.3401120413,
				"z": -3.6020921607,
				"element": "C" 
			},
			{
				"x": 0.6680709534,
				"y": -2.8388270479,
				"z": -2.155921923,
				"element": "C" 
			},
			{
				"x": -0.5996705837,
				"y": -3.724889267,
				"z": -2.1073630425,
				"element": "C" 
			},
			{
				"x": 1.9032736913,
				"y": -3.6927118215,
				"z": -1.7820453456,
				"element": "C" 
			},
			{
				"x": 0.522291158,
				"y": -1.6810763593,
				"z": -1.1514258934,
				"element": "C" 
			},
			{
				"x": 0.3464596165,
				"y": -1.9556777213,
				"z": 0.21659676,
				"element": "C" 
			},
			{
				"x": 0.2130493123,
				"y": -0.9374896768,
				"z": 1.1564682613,
				"element": "C" 
			},
			{
				"x": 0.2528823084,
				"y": 0.4075012128,
				"z": 0.764518009,
				"element": "C" 
			},
			{
				"x": 0.4314589558,
				"y": 0.6957621847,
				"z": -0.5918567577,
				"element": "C" 
			},
			{
				"x": 0.5592669731,
				"y": -0.3323157763,
				"z": -1.530120196,
				"element": "C" 
			},
			{
				"x": 0.0933402694,
				"y": 1.518225084,
				"z": 1.7914065088,
				"element": "C" 
			},
			{
				"x": 0.6227497703,
				"y": 1.1532828071,
				"z": 3.0661254109,
				"element": "O" 
			},
			{
				"x": -1.3776256319,
				"y": 1.8773303708,
				"z": 2.0697189122,
				"element": "C" 
			},
			{
				"x": -2.1178922803,
				"y": 2.5019414477,
				"z": 0.869772009,
				"element": "C" 
			},
			{
				"x": -1.5181136933,
				"y": 3.8364012005,
				"z": 0.4479092216,
				"element": "C" 
			},
			{
				"x": -1.810682367,
				"y": 4.8968876118,
				"z": 1.2501039918,
				"element": "O" 
			},
			{
				"x": -0.7927686341,
				"y": 3.9922881903,
				"z": -0.5049785412,
				"element": "O" 
			},
			{
				"x": 0.9466601714,
				"y": -3.1961871792,
				"z": -4.2777375957,
				"element": "H" 
			},
			{
				"x": -0.0076167509,
				"y": -1.7487420216,
				"z": -3.9402664504,
				"element": "H" 
			},
			{
				"x": 1.751455556,
				"y": -1.7291642467,
				"z": -3.712706221,
				"element": "H" 
			},
			{
				"x": -0.5094527201,
				"y": -4.5589118756,
				"z": -2.8126033286,
				"element": "H" 
			},
			{
				"x": -1.4908107482,
				"y": -3.1480616422,
				"z": -2.3760274418,
				"element": "H" 
			},
			{
				"x": -0.763582444,
				"y": -4.1477273035,
				"z": -1.1117149622,
				"element": "H" 
			},
			{
				"x": 2.8184787065,
				"y": -3.0924699795,
				"z": -1.8153159913,
				"element": "H" 
			},
			{
				"x": 2.017806353,
				"y": -4.5261601878,
				"z": -2.4844438591,
				"element": "H" 
			},
			{
				"x": 1.8175005146,
				"y": -4.1148234845,
				"z": -0.7763373614,
				"element": "H" 
			},
			{
				"x": 0.3146012144,
				"y": -2.985901804,
				"z": 0.5601529093,
				"element": "H" 
			},
			{
				"x": 0.0876941858,
				"y": -1.1785986959,
				"z": 2.2081072122,
				"element": "H" 
			},
			{
				"x": 0.4578274199,
				"y": 1.7313744866,
				"z": -0.9220524747,
				"element": "H" 
			},
			{
				"x": 0.696182844,
				"y": -0.0610750074,
				"z": -2.5706908543,
				"element": "H" 
			},
			{
				"x": 0.6061260521,
				"y": 2.4160992438,
				"z": 1.4129738514,
				"element": "H" 
			},
			{
				"x": 1.5338154101,
				"y": 0.8613479373,
				"z": 2.9287112504,
				"element": "H" 
			},
			{
				"x": -1.9034666069,
				"y": 0.9687024963,
				"z": 2.3816092571,
				"element": "H" 
			},
			{
				"x": -1.3882643918,
				"y": 2.5610229482,
				"z": 2.9275794704,
				"element": "H" 
			},
			{
				"x": -2.0716112265,
				"y": 1.8352152252,
				"z": 0.0067250195,
				"element": "H" 
			},
			{
				"x": -3.1753161529,
				"y": 2.6391410971,
				"z": 1.1289478666,
				"element": "H" 
			},
			{
				"x": -2.4002129861,
				"y": 4.6218995953,
				"z": 1.9663744793,
				"element": "H" 
			}
		],
		 "valence_orbital": [ 
			{
				"type": "occ",
				"energy": -0.31293,
				"method": "rhf"
			},
			{
				"type": "occ",
				"energy": -0.27774,
				"method": "rhf"
			},
			{
				"type": "occ",
				"energy": -0.27027,
				"method": "rhf"
			},
			{
				"type": "occ",
				"energy": -0.24647,
				"method": "rhf"
			},
			{
				"type": "occ",
				"energy": -0.23394,
				"method": "rhf"
			},
			{
				"type": "unocc",
				"energy": -0.0036,
				"method": "rhf"
			},
			{
				"type": "unocc",
				"energy": -5e-05,
				"method": "rhf"
			},
			{
				"type": "unocc",
				"energy": 0.00497,
				"method": "rhf"
			},
			{
				"type": "unocc",
				"energy": 0.04935,
				"method": "rhf"
			},
			{
				"type": "unocc",
				"energy": 0.08218,
				"method": "rhf"
			}
		],
		"cosmo_sigma_profile": { 
			"-0.025": 0.0,
			"-0.024": 0.0,
			"-0.023": 0.0,
			"-0.022": 0.0,
			"-0.021": 0.0,
			"-0.02": 0.0,
			"-0.019": 0.359258476883,
			"-0.018": 0.919143045237,
			"-0.017": 1.01172718984,
			"-0.016": 0.930783711837,
			"-0.015": 2.24716045401,
			"-0.014": 1.71032260847,
			"-0.013": 1.94717672024,
			"-0.012": 1.95465325299,
			"-0.011": 2.05983989932,
			"-0.01": 2.33509269051,
			"-0.009": 1.62324561406,
			"-0.008": 2.49618816356,
			"-0.007": 4.35375587994,
			"-0.006": 3.61172820885,
			"-0.005": 8.59222143024,
			"-0.004": 17.8171246399,
			"-0.003": 29.2374213726,
			"-0.002": 36.7676753621,
			"-0.001": 28.784269027,
			"0.0": 25.6535220775,
			"0.001": 30.4973132629,
			"0.002": 18.9239308177,
			"0.003": 10.0781862673,
			"0.004": 9.83367948161,
			"0.005": 9.0376043932,
			"0.006": 10.9578017114,
			"0.007": 5.25439946136,
			"0.008": 3.27429206324,
			"0.009": 4.06370637829,
			"0.01": 6.13765728776,
			"0.011": 6.3315188024,
			"0.012": 4.52722783663,
			"0.013": 3.65778248425,
			"0.014": 0.898936580802,
			"0.015": 0.0,
			"0.016": 0.0,
			"0.017": 0.0,
			"0.018": 0.0,
			"0.019": 0.0,
			"0.02": 0.0,
			"0.021": 0.0,
			"0.022": 0.0,
			"0.023": 0.0,
			"0.024": 0.0,
			"0.025": 0.0
		}
	}
}
