{
	 "smiles": "COC1=CC=C(CC#N)C=C1OC", 
	 "Tm": 336.55, 
	 "num_atms": 24, 
	 "gaussian": { 
		 "optdone": 1, 
		 "sigma_profile": "yes", 
		 "theory": "DFT", 
		 "functional": "B3LYP", 
		 "basiset": "6-31G**", 
		 "properties": { 
			 "R2extent": 2996.9889, 
			 "electric_dipole_moment_norm": 4.25583723608, 
			 "electric_quadrupole_moment_norm": 21.9299449981, 
			 "total_energy": -592.841328742, 
			 "HOMO_LUMO_gap": 0.22219, 
			 "cosmo_polarized_energy": -12.54, 
			 "cosmo_cavitation_energy": 28.89, 
			 "cosmo_dispersion_energy": -19.9, 
			 "cosmo_repulsion_energy": 1.61, 
			 "cosmo_total_nonelectrostatic_energy": 10.6, 
			 "SMD_solvation_energy": 7.89 
		},
		"coords": [
			{
				"x": 2.5405839024,
				"y": -0.4934107204,
				"z": -2.4055541641,
				"element": "C" 
			},
			{
				"x": 1.430695072,
				"y": 0.3850491654,
				"z": -2.6388572463,
				"element": "O" 
			},
			{
				"x": 0.7297331609,
				"y": 0.7436729029,
				"z": -1.5110991447,
				"element": "C" 
			},
			{
				"x": 0.7650866451,
				"y": 2.0726226318,
				"z": -1.0871276377,
				"element": "C" 
			},
			{
				"x": 0.0483510587,
				"y": 2.4798261596,
				"z": 0.037702324,
				"element": "C" 
			},
			{
				"x": -0.7093348672,
				"y": 1.5557701324,
				"z": 0.7631651044,
				"element": "C" 
			},
			{
				"x": -1.4718211446,
				"y": 1.9859735281,
				"z": 2.0091872887,
				"element": "C" 
			},
			{
				"x": -0.6697580072,
				"y": 1.8767124658,
				"z": 3.236276892,
				"element": "C" 
			},
			{
				"x": -0.0306635119,
				"y": 1.7898664148,
				"z": 4.2012774551,
				"element": "N" 
			},
			{
				"x": -0.7591756507,
				"y": 0.2271220103,
				"z": 0.330166688,
				"element": "C" 
			},
			{
				"x": -0.0576272032,
				"y": -0.1854891314,
				"z": -0.8029017016,
				"element": "C" 
			},
			{
				"x": -0.1243636047,
				"y": -1.5083250372,
				"z": -1.1739044072,
				"element": "O" 
			},
			{
				"x": -0.7949547938,
				"y": -1.7564541677,
				"z": -2.4167793425,
				"element": "C" 
			},
			{
				"x": 3.2837931073,
				"y": -0.0123997167,
				"z": -1.757956582,
				"element": "H" 
			},
			{
				"x": 2.9852989859,
				"y": -0.6876181591,
				"z": -3.3834412727,
				"element": "H" 
			},
			{
				"x": 2.2160805666,
				"y": -1.4343768146,
				"z": -1.9512817676,
				"element": "H" 
			},
			{
				"x": 1.3661248349,
				"y": 2.7754388963,
				"z": -1.6551750772,
				"element": "H" 
			},
			{
				"x": 0.0920785131,
				"y": 3.5174305507,
				"z": 0.3568440686,
				"element": "H" 
			},
			{
				"x": -1.8047803575,
				"y": 3.0258405956,
				"z": 1.9147814152,
				"element": "H" 
			},
			{
				"x": -2.3733188625,
				"y": 1.3765448145,
				"z": 2.1386464166,
				"element": "H" 
			},
			{
				"x": -1.3458005486,
				"y": -0.5161021545,
				"z": 0.8623874091,
				"element": "H" 
			},
			{
				"x": -1.8426967035,
				"y": -1.4356673513,
				"z": -2.3610050704,
				"element": "H" 
			},
			{
				"x": -0.3005406794,
				"y": -1.243356602,
				"z": -3.2469799848,
				"element": "H" 
			},
			{
				"x": -0.7566899122,
				"y": -2.8362704131,
				"z": -2.572471663,
				"element": "H" 
			}
		],
		 "valence_orbital": [ 
			{
				"type": "occ",
				"energy": -0.32059,
				"method": "rhf"
			},
			{
				"type": "occ",
				"energy": -0.30471,
				"method": "rhf"
			},
			{
				"type": "occ",
				"energy": -0.27285,
				"method": "rhf"
			},
			{
				"type": "occ",
				"energy": -0.25357,
				"method": "rhf"
			},
			{
				"type": "occ",
				"energy": -0.23772,
				"method": "rhf"
			},
			{
				"type": "unocc",
				"energy": -0.01553,
				"method": "rhf"
			},
			{
				"type": "unocc",
				"energy": -0.01269,
				"method": "rhf"
			},
			{
				"type": "unocc",
				"energy": 0.04163,
				"method": "rhf"
			},
			{
				"type": "unocc",
				"energy": 0.04455,
				"method": "rhf"
			},
			{
				"type": "unocc",
				"energy": 0.08074,
				"method": "rhf"
			}
		],
		"cosmo_sigma_profile": { 
			"-0.025": 0.0,
			"-0.024": 0.0,
			"-0.023": 0.0,
			"-0.022": 0.0,
			"-0.021": 0.0,
			"-0.02": 0.0,
			"-0.019": 0.0,
			"-0.018": 0.0,
			"-0.017": 0.0,
			"-0.016": 0.0,
			"-0.015": 0.0,
			"-0.014": 0.0,
			"-0.013": 0.0,
			"-0.012": 0.0,
			"-0.011": 0.0,
			"-0.01": 0.0,
			"-0.009": 2.7468706043,
			"-0.008": 7.88539443739,
			"-0.007": 7.91223428228,
			"-0.006": 11.8143439205,
			"-0.005": 16.3412022054,
			"-0.004": 18.4767782507,
			"-0.003": 22.4198646113,
			"-0.002": 20.6013678959,
			"-0.001": 15.9582597063,
			"0.0": 13.1984506361,
			"0.001": 11.5072686086,
			"0.002": 13.4737615266,
			"0.003": 13.0953907867,
			"0.004": 12.9831770721,
			"0.005": 4.73831420146,
			"0.006": 5.79749332147,
			"0.007": 5.09108440005,
			"0.008": 5.07154229532,
			"0.009": 5.26297356985,
			"0.01": 4.88866748523,
			"0.011": 5.33454870178,
			"0.012": 3.49857446035,
			"0.013": 1.96188322877,
			"0.014": 0.395188445552,
			"0.015": 0.0,
			"0.016": 0.0,
			"0.017": 0.0,
			"0.018": 0.0,
			"0.019": 0.0,
			"0.02": 0.0,
			"0.021": 0.0,
			"0.022": 0.0,
			"0.023": 0.0,
			"0.024": 0.0,
			"0.025": 0.0
		}
	}
}
