{
	 "smiles": "[O-][N+](=O)C1=CC(Cl)=CNC1=O", 
	 "Tm": 508.15, 
	 "num_atms": 14, 
	 "gaussian": { 
		 "optdone": 1, 
		 "sigma_profile": "yes", 
		 "theory": "DFT", 
		 "functional": "B3LYP", 
		 "basiset": "6-31G**", 
		 "properties": { 
			 "R2extent": 2518.3297, 
			 "electric_dipole_moment_norm": 6.5531729559, 
			 "electric_quadrupole_moment_norm": 19.1978307835, 
			 "total_energy": -987.589611708, 
			 "HOMO_LUMO_gap": 0.14479, 
			 "cosmo_polarized_energy": -20.86, 
			 "cosmo_cavitation_energy": 21.77, 
			 "cosmo_dispersion_energy": -16.35, 
			 "cosmo_repulsion_energy": 1.32, 
			 "cosmo_total_nonelectrostatic_energy": 6.74, 
			 "SMD_solvation_energy": 6.8 
		},
		"coords": [
			{
				"x": -0.0465180153,
				"y": 2.63132214,
				"z": 3.0152820389,
				"element": "O" 
			},
			{
				"x": 0.3442092792,
				"y": 1.6653270211,
				"z": 2.3723067545,
				"element": "N" 
			},
			{
				"x": 1.2108944973,
				"y": 0.8672508072,
				"z": 2.7435102433,
				"element": "O" 
			},
			{
				"x": -0.2410649358,
				"y": 1.4399985751,
				"z": 1.0463596684,
				"element": "C" 
			},
			{
				"x": 0.4107661283,
				"y": 0.5673234868,
				"z": 0.2134906652,
				"element": "C" 
			},
			{
				"x": -0.0662242321,
				"y": 0.3154486081,
				"z": -1.0922727174,
				"element": "C" 
			},
			{
				"x": 0.7784593403,
				"y": -0.7817846251,
				"z": -2.1538413873,
				"element": "Cl" 
			},
			{
				"x": -1.2043255895,
				"y": 0.9528529999,
				"z": -1.512449174,
				"element": "C" 
			},
			{
				"x": -1.8444524383,
				"y": 1.7995262421,
				"z": -0.6718758294,
				"element": "N" 
			},
			{
				"x": -1.4715858905,
				"y": 2.1371136201,
				"z": 0.6611839356,
				"element": "C" 
			},
			{
				"x": -2.1774509669,
				"y": 2.8976237193,
				"z": 1.2952781842,
				"element": "O" 
			},
			{
				"x": 1.3038235347,
				"y": 0.0758895515,
				"z": 0.5823356371,
				"element": "H" 
			},
			{
				"x": -1.6291813257,
				"y": 0.8139694423,
				"z": -2.4996304451,
				"element": "H" 
			},
			{
				"x": -2.6933493857,
				"y": 2.2659384113,
				"z": -0.9718775741,
				"element": "H" 
			}
		],
		 "valence_orbital": [ 
			{
				"type": "occ",
				"energy": -0.31669,
				"method": "rhf"
			},
			{
				"type": "occ",
				"energy": -0.30861,
				"method": "rhf"
			},
			{
				"type": "occ",
				"energy": -0.29591,
				"method": "rhf"
			},
			{
				"type": "occ",
				"energy": -0.27553,
				"method": "rhf"
			},
			{
				"type": "occ",
				"energy": -0.25292,
				"method": "rhf"
			},
			{
				"type": "unocc",
				"energy": -0.10813,
				"method": "rhf"
			},
			{
				"type": "unocc",
				"energy": -0.04472,
				"method": "rhf"
			},
			{
				"type": "unocc",
				"energy": -0.02179,
				"method": "rhf"
			},
			{
				"type": "unocc",
				"energy": -0.00835,
				"method": "rhf"
			},
			{
				"type": "unocc",
				"energy": 0.05776,
				"method": "rhf"
			}
		],
		"cosmo_sigma_profile": { 
			"-0.025": 0.0,
			"-0.024": 0.0,
			"-0.023": 0.0,
			"-0.022": 0.0,
			"-0.021": 0.0,
			"-0.02": 0.0,
			"-0.019": 0.0317481124992,
			"-0.018": 1.4202545895,
			"-0.017": 1.93773812732,
			"-0.016": 0.93536719011,
			"-0.015": 1.4553307677,
			"-0.014": 1.20452447565,
			"-0.013": 2.01293143327,
			"-0.012": 2.74891532625,
			"-0.011": 2.32799876412,
			"-0.01": 1.99198447089,
			"-0.009": 3.19061160335,
			"-0.008": 2.59980029887,
			"-0.007": 5.16828179151,
			"-0.006": 6.86568936689,
			"-0.005": 9.87582266323,
			"-0.004": 13.7736106618,
			"-0.003": 13.9305887214,
			"-0.002": 11.4680749066,
			"-0.001": 6.59282917,
			"0.0": 7.24393158956,
			"0.001": 6.80036873567,
			"0.002": 8.30116739356,
			"0.003": 11.8479038859,
			"0.004": 5.98189788075,
			"0.005": 3.00014155368,
			"0.006": 4.21421965229,
			"0.007": 6.73166442667,
			"0.008": 9.25650056132,
			"0.009": 6.76265842289,
			"0.01": 4.69552656876,
			"0.011": 2.93526355063,
			"0.012": 5.51683573996,
			"0.013": 2.74497165825,
			"0.014": 1.53054643519,
			"0.015": 0.759863599965,
			"0.016": 0.0,
			"0.017": 0.0,
			"0.018": 0.0,
			"0.019": 0.0,
			"0.02": 0.0,
			"0.021": 0.0,
			"0.022": 0.0,
			"0.023": 0.0,
			"0.024": 0.0,
			"0.025": 0.0
		}
	}
}
