{
	 "smiles": "CC(C)(C)OC(=O)NC(CCC(O)=O)C(O)=O", 
	 "Tm": 385.15, 
	 "num_atms": 34, 
	 "gaussian": { 
		 "optdone": 1, 
		 "sigma_profile": "yes", 
		 "theory": "DFT", 
		 "functional": "B3LYP", 
		 "basiset": "6-31G**", 
		 "properties": { 
			 "R2extent": 5246.8772, 
			 "electric_dipole_moment_norm": 1.28266307345, 
			 "electric_quadrupole_moment_norm": 20.0653985171, 
			 "total_energy": -897.473310515, 
			 "HOMO_LUMO_gap": 0.24527, 
			 "cosmo_polarized_energy": -20.48, 
			 "cosmo_cavitation_energy": 38.15, 
			 "cosmo_dispersion_energy": -25.11, 
			 "cosmo_repulsion_energy": 2.03, 
			 "cosmo_total_nonelectrostatic_energy": 15.07, 
			 "SMD_solvation_energy": 9.93 
		},
		"coords": [
			{
				"x": -0.8872211647,
				"y": -2.6116853803,
				"z": -2.7606573827,
				"element": "C" 
			},
			{
				"x": 0.1443151911,
				"y": -1.4945074917,
				"z": -2.5744760512,
				"element": "C" 
			},
			{
				"x": 1.5523232807,
				"y": -2.0735871934,
				"z": -2.4174342297,
				"element": "C" 
			},
			{
				"x": 0.1005499436,
				"y": -0.4659175748,
				"z": -3.7088246239,
				"element": "C" 
			},
			{
				"x": -0.0709165462,
				"y": -0.8213182265,
				"z": -1.2792444872,
				"element": "O" 
			},
			{
				"x": -1.2340886621,
				"y": -0.1825334579,
				"z": -1.0136156636,
				"element": "C" 
			},
			{
				"x": -2.1849233165,
				"y": -0.0654728362,
				"z": -1.7676224507,
				"element": "O" 
			},
			{
				"x": -1.2150975245,
				"y": 0.3728415717,
				"z": 0.2447253323,
				"element": "N" 
			},
			{
				"x": -0.2410307769,
				"y": 0.1129710924,
				"z": 1.2897340673,
				"element": "C" 
			},
			{
				"x": 0.5871071091,
				"y": 1.367017942,
				"z": 1.6653039788,
				"element": "C" 
			},
			{
				"x": 1.3992275638,
				"y": 1.895054422,
				"z": 0.474602398,
				"element": "C" 
			},
			{
				"x": 2.1994943391,
				"y": 3.1402572113,
				"z": 0.7864618263,
				"element": "C" 
			},
			{
				"x": 1.4428580135,
				"y": 4.0966925892,
				"z": 1.3837079934,
				"element": "O" 
			},
			{
				"x": 3.3709002151,
				"y": 3.3080045116,
				"z": 0.5309371958,
				"element": "O" 
			},
			{
				"x": -0.8683353465,
				"y": -0.4464704207,
				"z": 2.5665432314,
				"element": "C" 
			},
			{
				"x": -2.2140885945,
				"y": -0.3123608581,
				"z": 2.6036085767,
				"element": "O" 
			},
			{
				"x": -0.2271209947,
				"y": -0.9218058948,
				"z": 3.4757342669,
				"element": "O" 
			},
			{
				"x": -0.652343924,
				"y": -3.1785971963,
				"z": -3.6672737678,
				"element": "H" 
			},
			{
				"x": -0.8573109811,
				"y": -3.3026030283,
				"z": -1.9120521845,
				"element": "H" 
			},
			{
				"x": -1.8939661203,
				"y": -2.2034380986,
				"z": -2.8508046922,
				"element": "H" 
			},
			{
				"x": 2.2815655246,
				"y": -1.2778189974,
				"z": -2.2393581177,
				"element": "H" 
			},
			{
				"x": 1.8406532149,
				"y": -2.6080172861,
				"z": -3.3273266483,
				"element": "H" 
			},
			{
				"x": 1.5923610828,
				"y": -2.7744130507,
				"z": -1.5783222243,
				"element": "H" 
			},
			{
				"x": 0.3701343367,
				"y": -0.9505495176,
				"z": -4.6527574986,
				"element": "H" 
			},
			{
				"x": 0.8212575832,
				"y": 0.3367209621,
				"z": -3.5227281283,
				"element": "H" 
			},
			{
				"x": -0.8955431251,
				"y": -0.0337792108,
				"z": -3.8054822944,
				"element": "H" 
			},
			{
				"x": -2.105509663,
				"y": 0.7650039558,
				"z": 0.5159045663,
				"element": "H" 
			},
			{
				"x": 0.4410831418,
				"y": -0.6574531011,
				"z": 0.9249885114,
				"element": "H" 
			},
			{
				"x": 1.2507121845,
				"y": 1.0968514878,
				"z": 2.4928262471,
				"element": "H" 
			},
			{
				"x": -0.0854969578,
				"y": 2.1515095011,
				"z": 2.0280687017,
				"element": "H" 
			},
			{
				"x": 2.1023819478,
				"y": 1.1442353563,
				"z": 0.1072058403,
				"element": "H" 
			},
			{
				"x": 0.7135303195,
				"y": 2.1375440232,
				"z": -0.3463879948,
				"element": "H" 
			},
			{
				"x": 2.0352913858,
				"y": 4.8533130304,
				"z": 1.5300056746,
				"element": "H" 
			},
			{
				"x": -2.5013526797,
				"y": -0.6668888356,
				"z": 3.4621100317,
				"element": "H" 
			}
		],
		 "valence_orbital": [ 
			{
				"type": "occ",
				"energy": -0.30435,
				"method": "rhf"
			},
			{
				"type": "occ",
				"energy": -0.29414,
				"method": "rhf"
			},
			{
				"type": "occ",
				"energy": -0.27612,
				"method": "rhf"
			},
			{
				"type": "occ",
				"energy": -0.26657,
				"method": "rhf"
			},
			{
				"type": "occ",
				"energy": -0.25497,
				"method": "rhf"
			},
			{
				"type": "unocc",
				"energy": -0.0097,
				"method": "rhf"
			},
			{
				"type": "unocc",
				"energy": 0.0096,
				"method": "rhf"
			},
			{
				"type": "unocc",
				"energy": 0.0483,
				"method": "rhf"
			},
			{
				"type": "unocc",
				"energy": 0.05724,
				"method": "rhf"
			},
			{
				"type": "unocc",
				"energy": 0.07121,
				"method": "rhf"
			}
		],
		"cosmo_sigma_profile": { 
			"-0.025": 0.0,
			"-0.024": 0.0,
			"-0.023": 0.0,
			"-0.022": 0.0,
			"-0.021": 0.0,
			"-0.02": 0.0,
			"-0.019": 0.380737148444,
			"-0.018": 1.66746359326,
			"-0.017": 2.06346887644,
			"-0.016": 1.09357345301,
			"-0.015": 1.9268194545,
			"-0.014": 1.46652721713,
			"-0.013": 0.948102736833,
			"-0.012": 1.98930421766,
			"-0.011": 3.0335571301,
			"-0.01": 1.4832377411,
			"-0.009": 2.16033133182,
			"-0.008": 2.53220186691,
			"-0.007": 4.12113411453,
			"-0.006": 10.1957651232,
			"-0.005": 12.98003851,
			"-0.004": 23.5682528239,
			"-0.003": 25.1808155686,
			"-0.002": 27.8398940596,
			"-0.001": 26.5194965699,
			"0.0": 32.3688527367,
			"0.001": 23.3536446065,
			"0.002": 12.3911098333,
			"0.003": 10.4764476737,
			"0.004": 7.33670127484,
			"0.005": 7.27649211928,
			"0.006": 5.72622199437,
			"0.007": 5.74810599482,
			"0.008": 5.39400274371,
			"0.009": 5.33968094541,
			"0.01": 5.50033685907,
			"0.011": 9.66890258352,
			"0.012": 9.74837669877,
			"0.013": 4.72877304407,
			"0.014": 1.35563313013,
			"0.015": 0.0,
			"0.016": 0.0,
			"0.017": 0.0,
			"0.018": 0.0,
			"0.019": 0.0,
			"0.02": 0.0,
			"0.021": 0.0,
			"0.022": 0.0,
			"0.023": 0.0,
			"0.024": 0.0,
			"0.025": 0.0
		}
	}
}
