{
	 "smiles": "OC1=CC=C(C=C1)C1(OC(=O)C2=CC=CC=C12)C1=CC=C(O)C=C1", 
	 "Tm": 534.15, 
	 "num_atms": 38, 
	 "gaussian": { 
		 "optdone": 1, 
		 "sigma_profile": "yes", 
		 "theory": "DFT", 
		 "functional": "B3LYP", 
		 "basiset": "6-31G**", 
		 "properties": { 
			 "R2extent": 8400.3796, 
			 "electric_dipole_moment_norm": 5.4785976974, 
			 "electric_quadrupole_moment_norm": 24.6414641243, 
			 "total_energy": -1071.46598464, 
			 "HOMO_LUMO_gap": 0.17317, 
			 "cosmo_polarized_energy": -22.57, 
			 "cosmo_cavitation_energy": 42.53, 
			 "cosmo_dispersion_energy": -29.21, 
			 "cosmo_repulsion_energy": 2.22, 
			 "cosmo_total_nonelectrostatic_energy": 15.55, 
			 "SMD_solvation_energy": 8.65 
		},
		"coords": [
			{
				"x": -0.1243013286,
				"y": 1.5511695405,
				"z": 4.3661140415,
				"element": "O" 
			},
			{
				"x": -0.2373248525,
				"y": 1.1956028407,
				"z": 3.052613292,
				"element": "C" 
			},
			{
				"x": -0.4563603453,
				"y": -0.1222875783,
				"z": 2.6394280309,
				"element": "C" 
			},
			{
				"x": -0.553824676,
				"y": -0.4186538418,
				"z": 1.2803793028,
				"element": "C" 
			},
			{
				"x": -0.4445598251,
				"y": 0.5867169191,
				"z": 0.3129146578,
				"element": "C" 
			},
			{
				"x": -0.2260130211,
				"y": 1.9030584519,
				"z": 0.7419832727,
				"element": "C" 
			},
			{
				"x": -0.117964629,
				"y": 2.2086112406,
				"z": 2.0949861363,
				"element": "C" 
			},
			{
				"x": -0.6393894895,
				"y": 0.2562253586,
				"z": -1.1704811185,
				"element": "C" 
			},
			{
				"x": -0.0032861682,
				"y": 1.3109823703,
				"z": -1.9690963335,
				"element": "O" 
			},
			{
				"x": -0.8954207207,
				"y": 1.9393215229,
				"z": -2.8036358551,
				"element": "C" 
			},
			{
				"x": -0.5670101965,
				"y": 2.8103328113,
				"z": -3.5709067066,
				"element": "O" 
			},
			{
				"x": -2.2305138153,
				"y": 1.3616538252,
				"z": -2.5390258261,
				"element": "C" 
			},
			{
				"x": -3.460292453,
				"y": 1.7123794158,
				"z": -3.0930411482,
				"element": "C" 
			},
			{
				"x": -4.5918360304,
				"y": 1.0372452043,
				"z": -2.6379053056,
				"element": "C" 
			},
			{
				"x": -4.4777996424,
				"y": 0.0492650917,
				"z": -1.6476399536,
				"element": "C" 
			},
			{
				"x": -3.2379803016,
				"y": -0.2899204079,
				"z": -1.097341156,
				"element": "C" 
			},
			{
				"x": -2.107581653,
				"y": 0.375915726,
				"z": -1.5671784978,
				"element": "C" 
			},
			{
				"x": 0.0307755914,
				"y": -1.0589461845,
				"z": -1.5735995359,
				"element": "C" 
			},
			{
				"x": 1.4061204495,
				"y": -1.2022069698,
				"z": -1.3377543185,
				"element": "C" 
			},
			{
				"x": 2.0857765439,
				"y": -2.352943789,
				"z": -1.7208964841,
				"element": "C" 
			},
			{
				"x": 1.394253352,
				"y": -3.3967305237,
				"z": -2.3499176876,
				"element": "C" 
			},
			{
				"x": 2.0029397736,
				"y": -4.5530866314,
				"z": -2.7427838975,
				"element": "O" 
			},
			{
				"x": 0.0247818891,
				"y": -3.2691465017,
				"z": -2.5929289341,
				"element": "C" 
			},
			{
				"x": -0.6432108188,
				"y": -2.1061653051,
				"z": -2.2120332304,
				"element": "C" 
			},
			{
				"x": -0.2215234184,
				"y": 0.7641171151,
				"z": 4.9176258748,
				"element": "H" 
			},
			{
				"x": -0.5399269226,
				"y": -0.918801985,
				"z": 3.3761160329,
				"element": "H" 
			},
			{
				"x": -0.701978973,
				"y": -1.4496689788,
				"z": 0.9742271774,
				"element": "H" 
			},
			{
				"x": -0.1214763433,
				"y": 2.6944072228,
				"z": 0.0086131424,
				"element": "H" 
			},
			{
				"x": 0.0620345583,
				"y": 3.2257525179,
				"z": 2.4269588932,
				"element": "H" 
			},
			{
				"x": -3.5184783457,
				"y": 2.4903556934,
				"z": -3.8477325408,
				"element": "H" 
			},
			{
				"x": -5.5697162993,
				"y": 1.2798042018,
				"z": -3.0426213336,
				"element": "H" 
			},
			{
				"x": -5.3719974705,
				"y": -0.4582113433,
				"z": -1.2970333646,
				"element": "H" 
			},
			{
				"x": -3.1672538774,
				"y": -1.0440294809,
				"z": -0.3196761343,
				"element": "H" 
			},
			{
				"x": 1.9505892904,
				"y": -0.3974586561,
				"z": -0.8541910027,
				"element": "H" 
			},
			{
				"x": 3.1539597047,
				"y": -2.4419693137,
				"z": -1.5334497673,
				"element": "H" 
			},
			{
				"x": 2.94508983,
				"y": -4.5024607864,
				"z": -2.5353520854,
				"element": "H" 
			},
			{
				"x": -0.499940953,
				"y": -4.0812676558,
				"z": -3.0849713035,
				"element": "H" 
			},
			{
				"x": -1.7033584129,
				"y": -2.0219611366,
				"z": -2.4236663335,
				"element": "H" 
			}
		],
		 "valence_orbital": [ 
			{
				"type": "occ",
				"energy": -0.26494,
				"method": "rhf"
			},
			{
				"type": "occ",
				"energy": -0.25898,
				"method": "rhf"
			},
			{
				"type": "occ",
				"energy": -0.25513,
				"method": "rhf"
			},
			{
				"type": "occ",
				"energy": -0.22799,
				"method": "rhf"
			},
			{
				"type": "occ",
				"energy": -0.22049,
				"method": "rhf"
			},
			{
				"type": "unocc",
				"energy": -0.04732,
				"method": "rhf"
			},
			{
				"type": "unocc",
				"energy": -0.02444,
				"method": "rhf"
			},
			{
				"type": "unocc",
				"energy": -0.0143,
				"method": "rhf"
			},
			{
				"type": "unocc",
				"energy": -0.00131,
				"method": "rhf"
			},
			{
				"type": "unocc",
				"energy": 0.00125,
				"method": "rhf"
			}
		],
		"cosmo_sigma_profile": { 
			"-0.025": 0.0,
			"-0.024": 0.0,
			"-0.023": 0.0,
			"-0.022": 0.0,
			"-0.021": 0.0,
			"-0.02": 0.0,
			"-0.019": 0.0,
			"-0.018": 1.09967517603,
			"-0.017": 2.33790015362,
			"-0.016": 1.99126190617,
			"-0.015": 2.28500511674,
			"-0.014": 2.09213692543,
			"-0.013": 1.56928761528,
			"-0.012": 1.61897836883,
			"-0.011": 2.24242373075,
			"-0.01": 1.98307553881,
			"-0.009": 2.76285609452,
			"-0.008": 2.30618384324,
			"-0.007": 8.88165936818,
			"-0.006": 18.3910254922,
			"-0.005": 24.9297023365,
			"-0.004": 22.1301239184,
			"-0.003": 20.1448722998,
			"-0.002": 18.7494580274,
			"-0.001": 20.662937832,
			"0.0": 18.5758710733,
			"0.001": 19.676993855,
			"0.002": 25.6536937974,
			"0.003": 31.3695642303,
			"0.004": 25.0278974695,
			"0.005": 19.1001152852,
			"0.006": 5.42969893929,
			"0.007": 5.61891118066,
			"0.008": 5.34849559118,
			"0.009": 6.68345608839,
			"0.01": 6.17707238698,
			"0.011": 8.82774915265,
			"0.012": 5.91213921253,
			"0.013": 1.27514948158,
			"0.014": 0.0,
			"0.015": 0.0,
			"0.016": 0.0,
			"0.017": 0.0,
			"0.018": 0.0,
			"0.019": 0.0,
			"0.02": 0.0,
			"0.021": 0.0,
			"0.022": 0.0,
			"0.023": 0.0,
			"0.024": 0.0,
			"0.025": 0.0
		}
	}
}
