{
	 "smiles": "CC1=NN(C2CCOCC2)C(N)=C1", 
	 "Tm": 451.15, 
	 "num_atms": 28, 
	 "gaussian": { 
		 "optdone": 1, 
		 "sigma_profile": "yes", 
		 "theory": "DFT", 
		 "functional": "B3LYP", 
		 "basiset": "6-31G**", 
		 "properties": { 
			 "R2extent": 2610.2675, 
			 "electric_dipole_moment_norm": 3.80520027068, 
			 "electric_quadrupole_moment_norm": 9.86759798685, 
			 "total_energy": -591.453685923, 
			 "HOMO_LUMO_gap": 0.24449, 
			 "cosmo_polarized_energy": -13.21, 
			 "cosmo_cavitation_energy": 28.9, 
			 "cosmo_dispersion_energy": -21.28, 
			 "cosmo_repulsion_energy": 1.71, 
			 "cosmo_total_nonelectrostatic_energy": 9.33, 
			 "SMD_solvation_energy": 4.16 
		},
		"coords": [
			{
				"x": 2.2625402844,
				"y": -2.8073591456,
				"z": 1.3055464358,
				"element": "C" 
			},
			{
				"x": 1.7188330471,
				"y": -2.0418781448,
				"z": 0.137183318,
				"element": "C" 
			},
			{
				"x": 1.2753034851,
				"y": -0.798065421,
				"z": 0.3003927779,
				"element": "N" 
			},
			{
				"x": 0.8535621084,
				"y": -0.3991491586,
				"z": -0.9402989735,
				"element": "N" 
			},
			{
				"x": 0.2568246588,
				"y": 0.9226032541,
				"z": -1.1762363109,
				"element": "C" 
			},
			{
				"x": -1.2680661153,
				"y": 0.826980125,
				"z": -1.4115526149,
				"element": "C" 
			},
			{
				"x": -2.019564853,
				"y": 0.6387260273,
				"z": -0.0928904906,
				"element": "C" 
			},
			{
				"x": -1.7383683869,
				"y": 1.6999587003,
				"z": 0.8103263315,
				"element": "O" 
			},
			{
				"x": -0.3622571994,
				"y": 1.7108781715,
				"z": 1.1829735909,
				"element": "C" 
			},
			{
				"x": 0.5542455516,
				"y": 1.909867855,
				"z": -0.0316685924,
				"element": "C" 
			},
			{
				"x": 1.0466604086,
				"y": -1.3789331984,
				"z": -1.8707881426,
				"element": "C" 
			},
			{
				"x": 0.6370606739,
				"y": -1.2258500411,
				"z": -3.2004527173,
				"element": "N" 
			},
			{
				"x": 1.6044305258,
				"y": -2.4616341548,
				"z": -1.210746478,
				"element": "C" 
			},
			{
				"x": 2.2208225443,
				"y": -2.1884813936,
				"z": 2.2047519122,
				"element": "H" 
			},
			{
				"x": 1.6868130519,
				"y": -3.7217784718,
				"z": 1.4893006996,
				"element": "H" 
			},
			{
				"x": 3.3039402542,
				"y": -3.1068410736,
				"z": 1.1407317648,
				"element": "H" 
			},
			{
				"x": 0.7283553872,
				"y": 1.3151941946,
				"z": -2.0879410651,
				"element": "H" 
			},
			{
				"x": -1.4905089962,
				"y": 0.014067293,
				"z": -2.1102018667,
				"element": "H" 
			},
			{
				"x": -1.601961264,
				"y": 1.7648451244,
				"z": -1.8723833678,
				"element": "H" 
			},
			{
				"x": -1.7564988563,
				"y": -0.3304791959,
				"z": 0.3607866273,
				"element": "H" 
			},
			{
				"x": -3.1010313596,
				"y": 0.6524027301,
				"z": -0.259776275,
				"element": "H" 
			},
			{
				"x": -0.2446252087,
				"y": 2.5439935811,
				"z": 1.8829545976,
				"element": "H" 
			},
			{
				"x": -0.097702924,
				"y": 0.778085158,
				"z": 1.6958114522,
				"element": "H" 
			},
			{
				"x": 1.6016744359,
				"y": 1.8316015759,
				"z": 0.2728270226,
				"element": "H" 
			},
			{
				"x": 0.390730783,
				"y": 2.9176955832,
				"z": -0.4311724416,
				"element": "H" 
			},
			{
				"x": 0.8943712377,
				"y": -0.332881729,
				"z": -3.6082553845,
				"element": "H" 
			},
			{
				"x": 0.9822929969,
				"y": -1.977090931,
				"z": -3.7847298409,
				"element": "H" 
			},
			{
				"x": 1.8942237284,
				"y": -3.4083773141,
				"z": -1.6435919687,
				"element": "H" 
			}
		],
		 "valence_orbital": [ 
			{
				"type": "occ",
				"energy": -0.2949,
				"method": "rhf"
			},
			{
				"type": "occ",
				"energy": -0.26921,
				"method": "rhf"
			},
			{
				"type": "occ",
				"energy": -0.23838,
				"method": "rhf"
			},
			{
				"type": "occ",
				"energy": -0.22465,
				"method": "rhf"
			},
			{
				"type": "occ",
				"energy": -0.20213,
				"method": "rhf"
			},
			{
				"type": "unocc",
				"energy": 0.04236,
				"method": "rhf"
			},
			{
				"type": "unocc",
				"energy": 0.05629,
				"method": "rhf"
			},
			{
				"type": "unocc",
				"energy": 0.08207,
				"method": "rhf"
			},
			{
				"type": "unocc",
				"energy": 0.09781,
				"method": "rhf"
			},
			{
				"type": "unocc",
				"energy": 0.11808,
				"method": "rhf"
			}
		],
		"cosmo_sigma_profile": { 
			"-0.025": 0.0,
			"-0.024": 0.0,
			"-0.023": 0.0,
			"-0.022": 0.0,
			"-0.021": 0.0,
			"-0.02": 0.0,
			"-0.019": 0.0,
			"-0.018": 0.0,
			"-0.017": 0.0,
			"-0.016": 0.0,
			"-0.015": 0.0,
			"-0.014": 0.0,
			"-0.013": 1.18729291314,
			"-0.012": 3.59448243228,
			"-0.011": 2.90236304158,
			"-0.01": 3.47203532747,
			"-0.009": 2.5159968908,
			"-0.008": 2.85562659118,
			"-0.007": 2.52403837337,
			"-0.006": 3.41893075863,
			"-0.005": 6.95552346091,
			"-0.004": 18.1963672856,
			"-0.003": 22.697244342,
			"-0.002": 24.9058144626,
			"-0.001": 25.2174135648,
			"0.0": 21.8126552672,
			"0.001": 12.1539096388,
			"0.002": 8.84211483346,
			"0.003": 8.75405189457,
			"0.004": 7.15612006968,
			"0.005": 7.32109299968,
			"0.006": 8.52290905065,
			"0.007": 7.43953220437,
			"0.008": 5.31226844278,
			"0.009": 4.61084146583,
			"0.01": 3.89437635047,
			"0.011": 2.37746630031,
			"0.012": 2.08887690332,
			"0.013": 2.86799603114,
			"0.014": 1.71426933892,
			"0.015": 0.0223180955221,
			"0.016": 0.0,
			"0.017": 0.0,
			"0.018": 0.0,
			"0.019": 0.0,
			"0.02": 0.0,
			"0.021": 0.0,
			"0.022": 0.0,
			"0.023": 0.0,
			"0.024": 0.0,
			"0.025": 0.0
		}
	}
}
