{
	 "smiles": "FC1=CC(OC2=CC=C(C=C2Cl)C(F)(F)F)=CC=C1NC(=O)NC(=O)C1=C(F)C=CC=C1F", 
	 "Tm": 440.15, 
	 "num_atms": 44, 
	 "gaussian": { 
		 "optdone": 1, 
		 "sigma_profile": "yes", 
		 "theory": "DFT", 
		 "functional": "B3LYP", 
		 "basiset": "6-31G**", 
		 "properties": { 
			 "R2extent": 17802.0261, 
			 "electric_dipole_moment_norm": 4.55256244768, 
			 "electric_quadrupole_moment_norm": 36.8667296465, 
			 "total_energy": -2201.27448134, 
			 "HOMO_LUMO_gap": 0.16629, 
			 "cosmo_polarized_energy": -18.89, 
			 "cosmo_cavitation_energy": 54.94, 
			 "cosmo_dispersion_energy": -35.62, 
			 "cosmo_repulsion_energy": 2.5, 
			 "cosmo_total_nonelectrostatic_energy": 21.82, 
			 "SMD_solvation_energy": 12.61 
		},
		"coords": [
			{
				"x": -3.1935682296,
				"y": -3.7478152966,
				"z": 0.862102425,
				"element": "F" 
			},
			{
				"x": -2.6480236352,
				"y": -2.6027076168,
				"z": 1.3135206791,
				"element": "C" 
			},
			{
				"x": -3.221819729,
				"y": -1.3900179644,
				"z": 0.964578423,
				"element": "C" 
			},
			{
				"x": -2.6263329663,
				"y": -0.222414093,
				"z": 1.4378524335,
				"element": "C" 
			},
			{
				"x": -3.1841768645,
				"y": 0.9972595533,
				"z": 1.0797380653,
				"element": "O" 
			},
			{
				"x": -2.5392304372,
				"y": 1.7580429568,
				"z": 0.142765139,
				"element": "C" 
			},
			{
				"x": -1.4342120473,
				"y": 1.3144865274,
				"z": -0.5927891397,
				"element": "C" 
			},
			{
				"x": -0.8383581354,
				"y": 2.1499708755,
				"z": -1.5322072587,
				"element": "C" 
			},
			{
				"x": -1.3388739606,
				"y": 3.433977207,
				"z": -1.7529880044,
				"element": "C" 
			},
			{
				"x": -2.4453115378,
				"y": 3.8830067927,
				"z": -1.0276872036,
				"element": "C" 
			},
			{
				"x": -3.0401744428,
				"y": 3.0518190255,
				"z": -0.0852303142,
				"element": "C" 
			},
			{
				"x": -4.4165718817,
				"y": 3.622838735,
				"z": 0.8285268027,
				"element": "Cl" 
			},
			{
				"x": -0.7269360799,
				"y": 4.3125565785,
				"z": -2.8069375793,
				"element": "C" 
			},
			{
				"x": -1.2636309726,
				"y": 4.0852456478,
				"z": -4.0286251504,
				"element": "F" 
			},
			{
				"x": 0.6043939642,
				"y": 4.0994172458,
				"z": -2.9227563804,
				"element": "F" 
			},
			{
				"x": -0.907666169,
				"y": 5.6247771082,
				"z": -2.5385059555,
				"element": "F" 
			},
			{
				"x": -1.5205778461,
				"y": -0.2672265018,
				"z": 2.2864360624,
				"element": "C" 
			},
			{
				"x": -0.972285318,
				"y": -1.5008552889,
				"z": 2.6295146041,
				"element": "C" 
			},
			{
				"x": -1.5035338229,
				"y": -2.6869793387,
				"z": 2.1125992914,
				"element": "C" 
			},
			{
				"x": -0.9498738243,
				"y": -3.9549961194,
				"z": 2.3816265812,
				"element": "N" 
			},
			{
				"x": 0.3638016534,
				"y": -4.3489240584,
				"z": 2.3922179579,
				"element": "C" 
			},
			{
				"x": 0.7325463684,
				"y": -5.3913555121,
				"z": 2.9047188715,
				"element": "O" 
			},
			{
				"x": 1.320895092,
				"y": -3.4660511402,
				"z": 1.8170548449,
				"element": "N" 
			},
			{
				"x": 1.2374045056,
				"y": -2.871099207,
				"z": 0.5586605171,
				"element": "C" 
			},
			{
				"x": 0.2223642156,
				"y": -2.8575092908,
				"z": -0.1121928859,
				"element": "O" 
			},
			{
				"x": 2.4997578207,
				"y": -2.188853792,
				"z": 0.0891890521,
				"element": "C" 
			},
			{
				"x": 2.4185995581,
				"y": -1.0629588983,
				"z": -0.7514350031,
				"element": "C" 
			},
			{
				"x": 1.2162769368,
				"y": -0.5583708136,
				"z": -1.0727706854,
				"element": "F" 
			},
			{
				"x": 3.5369081237,
				"y": -0.4125737009,
				"z": -1.2579101293,
				"element": "C" 
			},
			{
				"x": 4.8049254533,
				"y": -0.8941155923,
				"z": -0.9379843729,
				"element": "C" 
			},
			{
				"x": 4.947880468,
				"y": -2.0075342967,
				"z": -0.1115655537,
				"element": "C" 
			},
			{
				"x": 3.8036105699,
				"y": -2.6181989146,
				"z": 0.3793350169,
				"element": "C" 
			},
			{
				"x": 3.9758651003,
				"y": -3.6996453215,
				"z": 1.1809513597,
				"element": "F" 
			},
			{
				"x": -4.0905174949,
				"y": -1.3564818664,
				"z": 0.3181455647,
				"element": "H" 
			},
			{
				"x": -1.0359046134,
				"y": 0.3214731299,
				"z": -0.4266150383,
				"element": "H" 
			},
			{
				"x": 0.0244130735,
				"y": 1.794425303,
				"z": -2.0837909553,
				"element": "H" 
			},
			{
				"x": -2.8394436938,
				"y": 4.8800435994,
				"z": -1.1835493685,
				"element": "H" 
			},
			{
				"x": -1.1002392483,
				"y": 0.6557837644,
				"z": 2.6700423474,
				"element": "H" 
			},
			{
				"x": -0.1115413369,
				"y": -1.5510865921,
				"z": 3.2865305512,
				"element": "H" 
			},
			{
				"x": -1.584088632,
				"y": -4.7083838475,
				"z": 2.6114351997,
				"element": "H" 
			},
			{
				"x": 2.2529331227,
				"y": -3.7157483373,
				"z": 2.1254841884,
				"element": "H" 
			},
			{
				"x": 3.39558213,
				"y": 0.4552729814,
				"z": -1.8915416716,
				"element": "H" 
			},
			{
				"x": 5.6856767759,
				"y": -0.3983873734,
				"z": -1.3325733663,
				"element": "H" 
			},
			{
				"x": 5.9178579873,
				"y": -2.4109062569,
				"z": 0.1544300382,
				"element": "H" 
			}
		],
		 "valence_orbital": [ 
			{
				"type": "occ",
				"energy": -0.27481,
				"method": "rhf"
			},
			{
				"type": "occ",
				"energy": -0.271,
				"method": "rhf"
			},
			{
				"type": "occ",
				"energy": -0.26484,
				"method": "rhf"
			},
			{
				"type": "occ",
				"energy": -0.2473,
				"method": "rhf"
			},
			{
				"type": "occ",
				"energy": -0.2362,
				"method": "rhf"
			},
			{
				"type": "unocc",
				"energy": -0.06991,
				"method": "rhf"
			},
			{
				"type": "unocc",
				"energy": -0.03327,
				"method": "rhf"
			},
			{
				"type": "unocc",
				"energy": -0.0301,
				"method": "rhf"
			},
			{
				"type": "unocc",
				"energy": -0.02873,
				"method": "rhf"
			},
			{
				"type": "unocc",
				"energy": -0.02315,
				"method": "rhf"
			}
		],
		"cosmo_sigma_profile": { 
			"-0.025": 0.0,
			"-0.024": 0.0,
			"-0.023": 0.0,
			"-0.022": 0.0,
			"-0.021": 0.0,
			"-0.02": 0.0,
			"-0.019": 0.0,
			"-0.018": 0.0,
			"-0.017": 0.0,
			"-0.016": 0.109798883487,
			"-0.015": 0.832820126097,
			"-0.014": 0.685422834042,
			"-0.013": 0.852447114356,
			"-0.012": 1.16799507372,
			"-0.011": 1.1963980116,
			"-0.01": 2.03776427914,
			"-0.009": 3.23170582186,
			"-0.008": 11.1614972947,
			"-0.007": 15.6227050163,
			"-0.006": 19.2137908989,
			"-0.005": 17.3689637721,
			"-0.004": 18.7889876675,
			"-0.003": 21.7390028304,
			"-0.002": 31.8348394229,
			"-0.001": 41.7017217867,
			"0.0": 46.8131978506,
			"0.001": 49.4809993872,
			"0.002": 49.1556479872,
			"0.003": 48.2031864244,
			"0.004": 19.9908370406,
			"0.005": 7.63520652405,
			"0.006": 5.39559636274,
			"0.007": 5.36348868059,
			"0.008": 5.28850943383,
			"0.009": 3.57159880487,
			"0.01": 3.52326374821,
			"0.011": 4.98024623262,
			"0.012": 6.82893103202,
			"0.013": 2.18421355837,
			"0.014": 0.0,
			"0.015": 0.0,
			"0.016": 0.0,
			"0.017": 0.0,
			"0.018": 0.0,
			"0.019": 0.0,
			"0.02": 0.0,
			"0.021": 0.0,
			"0.022": 0.0,
			"0.023": 0.0,
			"0.024": 0.0,
			"0.025": 0.0
		}
	}
}
