{
	 "smiles": "OC(=O)C1=NN(C=C1)C1=C(F)C=CC=C1F", 
	 "Tm": 453.15, 
	 "num_atms": 22, 
	 "gaussian": { 
		 "optdone": 1, 
		 "sigma_profile": "yes", 
		 "theory": "DFT", 
		 "functional": "B3LYP", 
		 "basiset": "6-31G**", 
		 "properties": { 
			 "R2extent": 3906.8572, 
			 "electric_dipole_moment_norm": 7.32166575651, 
			 "electric_quadrupole_moment_norm": 20.2853806925, 
			 "total_energy": -844.265788141, 
			 "HOMO_LUMO_gap": 0.20815, 
			 "cosmo_polarized_energy": -20.8, 
			 "cosmo_cavitation_energy": 28.92, 
			 "cosmo_dispersion_energy": -20.65, 
			 "cosmo_repulsion_energy": 1.56, 
			 "cosmo_total_nonelectrostatic_energy": 9.83, 
			 "SMD_solvation_energy": 6.76 
		},
		"coords": [
			{
				"x": -0.6729197765,
				"y": 2.694354978,
				"z": -3.8649937816,
				"element": "O" 
			},
			{
				"x": 0.2691346014,
				"y": 2.1903537902,
				"z": -3.016558623,
				"element": "C" 
			},
			{
				"x": 1.4405719103,
				"y": 2.2758263178,
				"z": -3.2799312106,
				"element": "O" 
			},
			{
				"x": -0.2812361784,
				"y": 1.5732156463,
				"z": -1.7750772879,
				"element": "C" 
			},
			{
				"x": 0.4626514905,
				"y": 0.7092888333,
				"z": -1.0844084452,
				"element": "N" 
			},
			{
				"x": -0.3080057771,
				"y": 0.359136159,
				"z": -0.0328118856,
				"element": "N" 
			},
			{
				"x": -1.5222451958,
				"y": 0.9939034165,
				"z": -0.034534778,
				"element": "C" 
			},
			{
				"x": -1.5441487349,
				"y": 1.7882784411,
				"z": -1.1555938616,
				"element": "C" 
			},
			{
				"x": 0.1764688524,
				"y": -0.5639520984,
				"z": 0.9258859585,
				"element": "C" 
			},
			{
				"x": 0.7718900431,
				"y": -1.7739745776,
				"z": 0.543933886,
				"element": "C" 
			},
			{
				"x": 0.8435763491,
				"y": -2.0820128843,
				"z": -0.7546581842,
				"element": "F" 
			},
			{
				"x": 1.2737375041,
				"y": -2.6681943824,
				"z": 1.4819608921,
				"element": "C" 
			},
			{
				"x": 1.1673672623,
				"y": -2.3635149132,
				"z": 2.8388697936,
				"element": "C" 
			},
			{
				"x": 0.5663845255,
				"y": -1.1760641953,
				"z": 3.257520029,
				"element": "C" 
			},
			{
				"x": 0.0883712275,
				"y": -0.295979328,
				"z": 2.2967646366,
				"element": "C" 
			},
			{
				"x": -0.4904545865,
				"y": 0.8553103923,
				"z": 2.6875457774,
				"element": "F" 
			},
			{
				"x": -1.5554901407,
				"y": 2.412646065,
				"z": -3.5866515405,
				"element": "H" 
			},
			{
				"x": -2.2420939043,
				"y": 0.836074629,
				"z": 0.7530722108,
				"element": "H" 
			},
			{
				"x": -2.3392508757,
				"y": 2.4577176139,
				"z": -1.4511558123,
				"element": "H" 
			},
			{
				"x": 1.7281437169,
				"y": -3.5884001326,
				"z": 1.1336295689,
				"element": "H" 
			},
			{
				"x": 1.5529902446,
				"y": -3.0589372014,
				"z": 3.5769079284,
				"element": "H" 
			},
			{
				"x": 0.4718574423,
				"y": -0.9146765695,
				"z": 4.3049847293,
				"element": "H" 
			}
		],
		 "valence_orbital": [ 
			{
				"type": "occ",
				"energy": -0.30318,
				"method": "rhf"
			},
			{
				"type": "occ",
				"energy": -0.27348,
				"method": "rhf"
			},
			{
				"type": "occ",
				"energy": -0.2688,
				"method": "rhf"
			},
			{
				"type": "occ",
				"energy": -0.26541,
				"method": "rhf"
			},
			{
				"type": "occ",
				"energy": -0.25749,
				"method": "rhf"
			},
			{
				"type": "unocc",
				"energy": -0.04934,
				"method": "rhf"
			},
			{
				"type": "unocc",
				"energy": -0.0224,
				"method": "rhf"
			},
			{
				"type": "unocc",
				"energy": -0.02118,
				"method": "rhf"
			},
			{
				"type": "unocc",
				"energy": 0.01102,
				"method": "rhf"
			},
			{
				"type": "unocc",
				"energy": 0.05019,
				"method": "rhf"
			}
		],
		"cosmo_sigma_profile": { 
			"-0.025": 0.0,
			"-0.024": 0.0,
			"-0.023": 0.0,
			"-0.022": 0.0,
			"-0.021": 0.0,
			"-0.02": 0.0,
			"-0.019": 0.116356056199,
			"-0.018": 0.772703459217,
			"-0.017": 1.29982039079,
			"-0.016": 0.680622009068,
			"-0.015": 1.57474652832,
			"-0.014": 0.656717492157,
			"-0.013": 1.00494819694,
			"-0.012": 1.52144480544,
			"-0.011": 1.37974927469,
			"-0.01": 2.94284727508,
			"-0.009": 4.31986151386,
			"-0.008": 7.80531938004,
			"-0.007": 9.95295418911,
			"-0.006": 10.8638313511,
			"-0.005": 9.60998477143,
			"-0.004": 9.64967353312,
			"-0.003": 11.0661484327,
			"-0.002": 12.150133504,
			"-0.001": 19.3317095027,
			"0.0": 19.7205487455,
			"0.001": 17.9515007124,
			"0.002": 20.0611262559,
			"0.003": 18.3183800538,
			"0.004": 7.45111451056,
			"0.005": 3.78683737916,
			"0.006": 3.91855723244,
			"0.007": 3.37170436709,
			"0.008": 3.89847022367,
			"0.009": 5.15507699022,
			"0.01": 6.13340005781,
			"0.011": 6.96517811612,
			"0.012": 6.09947179683,
			"0.013": 3.3338642123,
			"0.014": 1.00143125615,
			"0.015": 0.0,
			"0.016": 0.0,
			"0.017": 0.0,
			"0.018": 0.0,
			"0.019": 0.0,
			"0.02": 0.0,
			"0.021": 0.0,
			"0.022": 0.0,
			"0.023": 0.0,
			"0.024": 0.0,
			"0.025": 0.0
		}
	}
}
