{
	 "smiles": "C1CCCCCCCCCCCCC1", 
	 "Tm": 327.15, 
	 "num_atms": 42, 
	 "gaussian": { 
		 "optdone": 1, 
		 "sigma_profile": "yes", 
		 "theory": "DFT", 
		 "functional": "B3LYP", 
		 "basiset": "6-31G**", 
		 "properties": { 
			 "R2extent": 3926.954, 
			 "electric_dipole_moment_norm": 0.0258058132986, 
			 "electric_quadrupole_moment_norm": 0.322293360155, 
			 "total_energy": -550.392658876, 
			 "HOMO_LUMO_gap": 0.36769, 
			 "cosmo_polarized_energy": -0.88, 
			 "cosmo_cavitation_energy": 37.67, 
			 "cosmo_dispersion_energy": -25.91, 
			 "cosmo_repulsion_energy": 2.04, 
			 "cosmo_total_nonelectrostatic_energy": 13.81, 
			 "SMD_solvation_energy": 4.14 
		},
		"coords": [
			{
				"x": -2.5926312322,
				"y": 2.6405538633,
				"z": -0.3740264004,
				"element": "C" 
			},
			{
				"x": -2.4524192705,
				"y": 1.6103457491,
				"z": 0.770113884,
				"element": "C" 
			},
			{
				"x": -1.599697985,
				"y": 2.030377547,
				"z": 1.9894421367,
				"element": "C" 
			},
			{
				"x": -0.8086297894,
				"y": 0.838778343,
				"z": 2.567487191,
				"element": "C" 
			},
			{
				"x": 0.4221382118,
				"y": 0.4761003374,
				"z": 1.7093600286,
				"element": "C" 
			},
			{
				"x": 0.8862375867,
				"y": -0.9800396079,
				"z": 1.847819692,
				"element": "C" 
			},
			{
				"x": 2.1815884548,
				"y": -1.3192298871,
				"z": 1.0865875817,
				"element": "C" 
			},
			{
				"x": 2.1560504535,
				"y": -1.2141767372,
				"z": -0.4538311473,
				"element": "C" 
			},
			{
				"x": 1.2146291954,
				"y": -2.2115830698,
				"z": -1.1756959254,
				"element": "C" 
			},
			{
				"x": -0.1374226575,
				"y": -1.6262933345,
				"z": -1.6271218145,
				"element": "C" 
			},
			{
				"x": -0.0619532612,
				"y": -0.7429133428,
				"z": -2.888970583,
				"element": "C" 
			},
			{
				"x": -1.3175586667,
				"y": 0.1320220103,
				"z": -3.0847467172,
				"element": "C" 
			},
			{
				"x": -1.3008817492,
				"y": 1.367935296,
				"z": -2.1644474692,
				"element": "C" 
			},
			{
				"x": -2.6688648308,
				"y": 1.9502218605,
				"z": -1.7521424926,
				"element": "C" 
			},
			{
				"x": -3.4742610978,
				"y": 3.2727898356,
				"z": -0.2131679995,
				"element": "H" 
			},
			{
				"x": -1.7289577819,
				"y": 3.3197418036,
				"z": -0.3697073416,
				"element": "H" 
			},
			{
				"x": -3.4502125491,
				"y": 1.3048548077,
				"z": 1.1099897339,
				"element": "H" 
			},
			{
				"x": -2.0081826203,
				"y": 0.7001425175,
				"z": 0.3517384237,
				"element": "H" 
			},
			{
				"x": -2.2362735486,
				"y": 2.4753006063,
				"z": 2.763731532,
				"element": "H" 
			},
			{
				"x": -0.8893245893,
				"y": 2.8154341772,
				"z": 1.6960108969,
				"element": "H" 
			},
			{
				"x": -1.47980017,
				"y": -0.028986744,
				"z": 2.6383955775,
				"element": "H" 
			},
			{
				"x": -0.4855966709,
				"y": 1.0532746634,
				"z": 3.5939868691,
				"element": "H" 
			},
			{
				"x": 1.2492508998,
				"y": 1.1527836762,
				"z": 1.9663220151,
				"element": "H" 
			},
			{
				"x": 0.1974418078,
				"y": 0.6765846782,
				"z": 0.6557321744,
				"element": "H" 
			},
			{
				"x": 0.0751792626,
				"y": -1.6468421272,
				"z": 1.5232252726,
				"element": "H" 
			},
			{
				"x": 1.0462784315,
				"y": -1.2056109604,
				"z": 2.9113421409,
				"element": "H" 
			},
			{
				"x": 2.9825257327,
				"y": -0.6661321109,
				"z": 1.4607000032,
				"element": "H" 
			},
			{
				"x": 2.4815626817,
				"y": -2.3422411671,
				"z": 1.3525893533,
				"element": "H" 
			},
			{
				"x": 3.1838871792,
				"y": -1.3785652648,
				"z": -0.7996953999,
				"element": "H" 
			},
			{
				"x": 1.9115942898,
				"y": -0.1872692879,
				"z": -0.7548204798,
				"element": "H" 
			},
			{
				"x": 1.7236933583,
				"y": -2.6209493153,
				"z": -2.0582867566,
				"element": "H" 
			},
			{
				"x": 1.0336768154,
				"y": -3.071007447,
				"z": -0.5165687123,
				"element": "H" 
			},
			{
				"x": -0.5737478504,
				"y": -1.0546405216,
				"z": -0.7991274745,
				"element": "H" 
			},
			{
				"x": -0.8418668609,
				"y": -2.4451889252,
				"z": -1.8250648786,
				"element": "H" 
			},
			{
				"x": 0.8209789394,
				"y": -0.0902421109,
				"z": -2.8410910241,
				"element": "H" 
			},
			{
				"x": 0.0912737166,
				"y": -1.3912617874,
				"z": -3.7614445663,
				"element": "H" 
			},
			{
				"x": -2.2085064647,
				"y": -0.4759430044,
				"z": -2.8738286425,
				"element": "H" 
			},
			{
				"x": -1.4054106933,
				"y": 0.4417388482,
				"z": -4.1334291693,
				"element": "H" 
			},
			{
				"x": -0.6921059698,
				"y": 2.1575555878,
				"z": -2.624483303,
				"element": "H" 
			},
			{
				"x": -0.7636044463,
				"y": 1.0915198168,
				"z": -1.251217199,
				"element": "H" 
			},
			{
				"x": -3.0304734736,
				"y": 2.651631171,
				"z": -2.5141644971,
				"element": "H" 
			},
			{
				"x": -3.4149027873,
				"y": 1.1448295573,
				"z": -1.7023945128,
				"element": "H" 
			}
		],
		 "valence_orbital": [ 
			{
				"type": "occ",
				"energy": -0.30442,
				"method": "rhf"
			},
			{
				"type": "occ",
				"energy": -0.30131,
				"method": "rhf"
			},
			{
				"type": "occ",
				"energy": -0.29845,
				"method": "rhf"
			},
			{
				"type": "occ",
				"energy": -0.2931,
				"method": "rhf"
			},
			{
				"type": "occ",
				"energy": -0.29055,
				"method": "rhf"
			},
			{
				"type": "unocc",
				"energy": 0.07714,
				"method": "rhf"
			},
			{
				"type": "unocc",
				"energy": 0.09444,
				"method": "rhf"
			},
			{
				"type": "unocc",
				"energy": 0.09566,
				"method": "rhf"
			},
			{
				"type": "unocc",
				"energy": 0.10044,
				"method": "rhf"
			},
			{
				"type": "unocc",
				"energy": 0.10718,
				"method": "rhf"
			}
		],
		"cosmo_sigma_profile": { 
			"-0.025": 0.0,
			"-0.024": 0.0,
			"-0.023": 0.0,
			"-0.022": 0.0,
			"-0.021": 0.0,
			"-0.02": 0.0,
			"-0.019": 0.0,
			"-0.018": 0.0,
			"-0.017": 0.0,
			"-0.016": 0.0,
			"-0.015": 0.0,
			"-0.014": 0.0,
			"-0.013": 0.0,
			"-0.012": 0.0,
			"-0.011": 0.0,
			"-0.01": 0.0,
			"-0.009": 0.0,
			"-0.008": 0.0,
			"-0.007": 0.0,
			"-0.006": 0.0,
			"-0.005": 0.00915740001723,
			"-0.004": 0.503590192332,
			"-0.003": 4.40141581567,
			"-0.002": 27.605131893,
			"-0.001": 67.9786660318,
			"0.0": 85.1060112734,
			"0.001": 67.3121126918,
			"0.002": 33.2879555367,
			"0.003": 0.518962249286,
			"0.004": 0.0,
			"0.005": 0.0,
			"0.006": 0.0,
			"0.007": 0.0,
			"0.008": 0.0,
			"0.009": 0.0,
			"0.01": 0.0,
			"0.011": 0.0,
			"0.012": 0.0,
			"0.013": 0.0,
			"0.014": 0.0,
			"0.015": 0.0,
			"0.016": 0.0,
			"0.017": 0.0,
			"0.018": 0.0,
			"0.019": 0.0,
			"0.02": 0.0,
			"0.021": 0.0,
			"0.022": 0.0,
			"0.023": 0.0,
			"0.024": 0.0,
			"0.025": 0.0
		}
	}
}
