{
	 "smiles": "CC(=O)NC1=CC=C(C=C1)C1=CC=C(C=C1)N=NC1=CC=CC=C1", 
	 "Tm": 509.15, 
	 "num_atms": 41, 
	 "gaussian": { 
		 "optdone": 1, 
		 "sigma_profile": "yes", 
		 "theory": "DFT", 
		 "functional": "B3LYP", 
		 "basiset": "6-31G**", 
		 "properties": { 
			 "R2extent": 13967.0016, 
			 "electric_dipole_moment_norm": 2.11577063265, 
			 "electric_quadrupole_moment_norm": 45.3895458401, 
			 "total_energy": -1011.81357944, 
			 "HOMO_LUMO_gap": 0.12951, 
			 "cosmo_polarized_energy": -18.71, 
			 "cosmo_cavitation_energy": 46.09, 
			 "cosmo_dispersion_energy": -32.22, 
			 "cosmo_repulsion_energy": 2.44, 
			 "cosmo_total_nonelectrostatic_energy": 16.31, 
			 "SMD_solvation_energy": 6.35 
		},
		"coords": [
			{
				"x": 5.2021354558,
				"y": -4.2358991597,
				"z": 2.1725182881,
				"element": "C" 
			},
			{
				"x": 4.1685232679,
				"y": -5.3395750676,
				"z": 2.2866701941,
				"element": "C" 
			},
			{
				"x": 4.4815179773,
				"y": -6.4976340451,
				"z": 2.520576787,
				"element": "O" 
			},
			{
				"x": 2.8292582752,
				"y": -5.0268492654,
				"z": 2.1012055611,
				"element": "N" 
			},
			{
				"x": 2.1705734836,
				"y": -3.8177969792,
				"z": 1.7979537887,
				"element": "C" 
			},
			{
				"x": 2.5319915368,
				"y": -2.5862016663,
				"z": 2.3638676974,
				"element": "C" 
			},
			{
				"x": 1.8294652982,
				"y": -1.4292352959,
				"z": 2.0382491448,
				"element": "C" 
			},
			{
				"x": 0.7277363184,
				"y": -1.4544098871,
				"z": 1.1672553367,
				"element": "C" 
			},
			{
				"x": 0.3566999033,
				"y": -2.7002792899,
				"z": 0.6311299466,
				"element": "C" 
			},
			{
				"x": 1.064932674,
				"y": -3.8569667428,
				"z": 0.9329539009,
				"element": "C" 
			},
			{
				"x": -0.0198515099,
				"y": -0.2196252337,
				"z": 0.8330150841,
				"element": "C" 
			},
			{
				"x": -1.4153740795,
				"y": -0.2421395051,
				"z": 0.6518096286,
				"element": "C" 
			},
			{
				"x": -2.1230870082,
				"y": 0.9074002097,
				"z": 0.3195364343,
				"element": "C" 
			},
			{
				"x": -1.4477780865,
				"y": 2.129765754,
				"z": 0.1802725321,
				"element": "C" 
			},
			{
				"x": -0.0666320133,
				"y": 2.1793144765,
				"z": 0.4132394899,
				"element": "C" 
			},
			{
				"x": 0.6385897267,
				"y": 1.0169084747,
				"z": 0.7024593366,
				"element": "C" 
			},
			{
				"x": -2.1127981487,
				"y": 3.3864980923,
				"z": 0.0070504471,
				"element": "N" 
			},
			{
				"x": -3.0311186385,
				"y": 3.587941294,
				"z": -0.8166782708,
				"element": "N" 
			},
			{
				"x": -3.4041842889,
				"y": 2.6609368182,
				"z": -1.8457910288,
				"element": "C" 
			},
			{
				"x": -4.7773824076,
				"y": 2.4954706346,
				"z": -2.0728865164,
				"element": "C" 
			},
			{
				"x": -5.2175334077,
				"y": 1.7001937962,
				"z": -3.1288207231,
				"element": "C" 
			},
			{
				"x": -4.2938520205,
				"y": 1.1144694524,
				"z": -3.9986107109,
				"element": "C" 
			},
			{
				"x": -2.9261105476,
				"y": 1.3235968688,
				"z": -3.8020376186,
				"element": "C" 
			},
			{
				"x": -2.4751543858,
				"y": 2.0857408075,
				"z": -2.726126512,
				"element": "C" 
			},
			{
				"x": 6.1476965542,
				"y": -4.7072621073,
				"z": 1.9025129298,
				"element": "H" 
			},
			{
				"x": 5.3383136863,
				"y": -3.7420520616,
				"z": 3.1405645229,
				"element": "H" 
			},
			{
				"x": 4.9361246953,
				"y": -3.4747041612,
				"z": 1.4358793559,
				"element": "H" 
			},
			{
				"x": 2.2617593412,
				"y": -5.8658655606,
				"z": 2.0809697691,
				"element": "H" 
			},
			{
				"x": 3.3375213982,
				"y": -2.5340955997,
				"z": 3.086242708,
				"element": "H" 
			},
			{
				"x": 2.1157422733,
				"y": -0.4944498424,
				"z": 2.5106454328,
				"element": "H" 
			},
			{
				"x": -0.4766111864,
				"y": -2.7588065985,
				"z": -0.0624891578,
				"element": "H" 
			},
			{
				"x": 0.7763371523,
				"y": -4.8022107736,
				"z": 0.4809526171,
				"element": "H" 
			},
			{
				"x": -1.9576317182,
				"y": -1.1715266795,
				"z": 0.7972720253,
				"element": "H" 
			},
			{
				"x": -3.1993119554,
				"y": 0.8650935229,
				"z": 0.1941100776,
				"element": "H" 
			},
			{
				"x": 0.4404988225,
				"y": 3.1368465843,
				"z": 0.3451911098,
				"element": "H" 
			},
			{
				"x": 1.7163767933,
				"y": 1.0653841464,
				"z": 0.8241371447,
				"element": "H" 
			},
			{
				"x": -5.4802032996,
				"y": 2.9917386072,
				"z": -1.410780757,
				"element": "H" 
			},
			{
				"x": -6.282373073,
				"y": 1.555115496,
				"z": -3.2860269144,
				"element": "H" 
			},
			{
				"x": -4.6377875155,
				"y": 0.5130470306,
				"z": -4.8347580412,
				"element": "H" 
			},
			{
				"x": -2.205496527,
				"y": 0.8893617696,
				"z": -4.489123928,
				"element": "H" 
			},
			{
				"x": -1.4137228159,
				"y": 2.2491616864,
				"z": -2.5747111123,
				"element": "H" 
			}
		],
		 "valence_orbital": [ 
			{
				"type": "occ",
				"energy": -0.25985,
				"method": "rhf"
			},
			{
				"type": "occ",
				"energy": -0.25669,
				"method": "rhf"
			},
			{
				"type": "occ",
				"energy": -0.2558,
				"method": "rhf"
			},
			{
				"type": "occ",
				"energy": -0.2278,
				"method": "rhf"
			},
			{
				"type": "occ",
				"energy": -0.20728,
				"method": "rhf"
			},
			{
				"type": "unocc",
				"energy": -0.07777,
				"method": "rhf"
			},
			{
				"type": "unocc",
				"energy": -0.03283,
				"method": "rhf"
			},
			{
				"type": "unocc",
				"energy": -0.02079,
				"method": "rhf"
			},
			{
				"type": "unocc",
				"energy": -0.0168,
				"method": "rhf"
			},
			{
				"type": "unocc",
				"energy": -0.00845,
				"method": "rhf"
			}
		],
		"cosmo_sigma_profile": { 
			"-0.025": 0.0,
			"-0.024": 0.0,
			"-0.023": 0.0,
			"-0.022": 0.0,
			"-0.021": 0.0,
			"-0.02": 0.0,
			"-0.019": 0.0,
			"-0.018": 0.0,
			"-0.017": 0.0,
			"-0.016": 0.0,
			"-0.015": 0.0,
			"-0.014": 0.559730229539,
			"-0.013": 1.05031961407,
			"-0.012": 1.26167003851,
			"-0.011": 0.983481760008,
			"-0.01": 1.12548366511,
			"-0.009": 1.23094647364,
			"-0.008": 2.45497185829,
			"-0.007": 7.93605252794,
			"-0.006": 27.9902965688,
			"-0.005": 32.5777397055,
			"-0.004": 31.2620200672,
			"-0.003": 27.2847867834,
			"-0.002": 27.3034655963,
			"-0.001": 24.11889649,
			"0.0": 20.7139325405,
			"0.001": 22.7564617875,
			"0.002": 25.2926174094,
			"0.003": 31.4846003029,
			"0.004": 32.5078888785,
			"0.005": 12.1076584185,
			"0.006": 3.47263889296,
			"0.007": 3.9472868901,
			"0.008": 2.58352467626,
			"0.009": 2.06913832181,
			"0.01": 3.59863292093,
			"0.011": 4.31173170358,
			"0.012": 4.63669062459,
			"0.013": 7.06300130465,
			"0.014": 5.05722467558,
			"0.015": 0.550365042912,
			"0.016": 0.0,
			"0.017": 0.0,
			"0.018": 0.0,
			"0.019": 0.0,
			"0.02": 0.0,
			"0.021": 0.0,
			"0.022": 0.0,
			"0.023": 0.0,
			"0.024": 0.0,
			"0.025": 0.0
		}
	}
}
