{
	 "smiles": "C1CN=C(NC2=CC=CC3=C2CCCC3)N1", 
	 "Tm": 415.15, 
	 "num_atms": 33, 
	 "gaussian": { 
		 "optdone": 1, 
		 "sigma_profile": "yes", 
		 "theory": "DFT", 
		 "functional": "B3LYP", 
		 "basiset": "6-31G**", 
		 "properties": { 
			 "R2extent": 4916.0479, 
			 "electric_dipole_moment_norm": 3.36908245373, 
			 "electric_quadrupole_moment_norm": 11.0762654243, 
			 "total_energy": -669.891823621, 
			 "HOMO_LUMO_gap": 0.20621, 
			 "cosmo_polarized_energy": -13.6, 
			 "cosmo_cavitation_energy": 33.45, 
			 "cosmo_dispersion_energy": -25.4, 
			 "cosmo_repulsion_energy": 1.99, 
			 "cosmo_total_nonelectrostatic_energy": 10.05, 
			 "SMD_solvation_energy": 0.82 
		},
		"coords": [
			{
				"x": -0.8536539942,
				"y": 2.5609215818,
				"z": -4.2053223024,
				"element": "C" 
			},
			{
				"x": -0.4308686791,
				"y": 1.1064922826,
				"z": -4.5525101258,
				"element": "C" 
			},
			{
				"x": -0.1138744595,
				"y": 0.4604214569,
				"z": -3.274051711,
				"element": "N" 
			},
			{
				"x": -0.050949117,
				"y": 1.4011285638,
				"z": -2.4001449669,
				"element": "C" 
			},
			{
				"x": 0.2464039938,
				"y": 1.2881602093,
				"z": -1.0610351196,
				"element": "N" 
			},
			{
				"x": 0.5428727126,
				"y": 0.1372246222,
				"z": -0.304026206,
				"element": "C" 
			},
			{
				"x": 0.3955338386,
				"y": -1.1518093125,
				"z": -0.8427742575,
				"element": "C" 
			},
			{
				"x": 0.6592502983,
				"y": -2.2668977608,
				"z": -0.0520228882,
				"element": "C" 
			},
			{
				"x": 1.0655493097,
				"y": -2.1255571225,
				"z": 1.2736751581,
				"element": "C" 
			},
			{
				"x": 1.2163338573,
				"y": -0.8478244006,
				"z": 1.8157453808,
				"element": "C" 
			},
			{
				"x": 0.9683062427,
				"y": 0.2951053104,
				"z": 1.0343251388,
				"element": "C" 
			},
			{
				"x": 1.1912625676,
				"y": 1.6248586292,
				"z": 1.7277163666,
				"element": "C" 
			},
			{
				"x": 2.5539846774,
				"y": 1.657681704,
				"z": 2.4602592833,
				"element": "C" 
			},
			{
				"x": 2.8092947772,
				"y": 0.3945838202,
				"z": 3.3281349226,
				"element": "C" 
			},
			{
				"x": 1.6496158705,
				"y": -0.6211690658,
				"z": 3.2448172808,
				"element": "C" 
			},
			{
				"x": -0.2753640105,
				"y": 2.7191946493,
				"z": -2.8590947555,
				"element": "N" 
			},
			{
				"x": -0.4508937076,
				"y": 3.3032759276,
				"z": -4.9003844305,
				"element": "H" 
			},
			{
				"x": -1.9475021672,
				"y": 2.6651426691,
				"z": -4.1853149295,
				"element": "H" 
			},
			{
				"x": -1.2172981504,
				"y": 0.5616660306,
				"z": -5.0859109178,
				"element": "H" 
			},
			{
				"x": 0.4594938885,
				"y": 1.1002355676,
				"z": -5.196560682,
				"element": "H" 
			},
			{
				"x": 0.4315290194,
				"y": 2.1668052787,
				"z": -0.6055654667,
				"element": "H" 
			},
			{
				"x": 0.0912486036,
				"y": -1.2515246678,
				"z": -1.8759799197,
				"element": "H" 
			},
			{
				"x": 0.5444474459,
				"y": -3.2577802558,
				"z": -0.4829110373,
				"element": "H" 
			},
			{
				"x": 1.2670941288,
				"y": -2.99976132,
				"z": 1.8871841319,
				"element": "H" 
			},
			{
				"x": 1.1567940378,
				"y": 2.4811139777,
				"z": 1.0448796416,
				"element": "H" 
			},
			{
				"x": 0.3857489625,
				"y": 1.7977837475,
				"z": 2.4564835596,
				"element": "H" 
			},
			{
				"x": 3.3426118031,
				"y": 1.7498681145,
				"z": 1.7061616092,
				"element": "H" 
			},
			{
				"x": 2.6041641443,
				"y": 2.5641812826,
				"z": 3.0736385164,
				"element": "H" 
			},
			{
				"x": 2.9719443468,
				"y": 0.6735221594,
				"z": 4.3749486628,
				"element": "H" 
			},
			{
				"x": 3.7272653995,
				"y": -0.0990000386,
				"z": 2.9923823949,
				"element": "H" 
			},
			{
				"x": 0.7988209695,
				"y": -0.2362794391,
				"z": 3.8268337284,
				"element": "H" 
			},
			{
				"x": 1.9386377828,
				"y": -1.5673535597,
				"z": 3.7137655658,
				"element": "H" 
			},
			{
				"x": -0.8207043928,
				"y": 3.2975893583,
				"z": -2.2288416255,
				"element": "H" 
			}
		],
		 "valence_orbital": [ 
			{
				"type": "occ",
				"energy": -0.28412,
				"method": "rhf"
			},
			{
				"type": "occ",
				"energy": -0.25157,
				"method": "rhf"
			},
			{
				"type": "occ",
				"energy": -0.22632,
				"method": "rhf"
			},
			{
				"type": "occ",
				"energy": -0.21984,
				"method": "rhf"
			},
			{
				"type": "occ",
				"energy": -0.19439,
				"method": "rhf"
			},
			{
				"type": "unocc",
				"energy": 0.01182,
				"method": "rhf"
			},
			{
				"type": "unocc",
				"energy": 0.01469,
				"method": "rhf"
			},
			{
				"type": "unocc",
				"energy": 0.05949,
				"method": "rhf"
			},
			{
				"type": "unocc",
				"energy": 0.06751,
				"method": "rhf"
			},
			{
				"type": "unocc",
				"energy": 0.09079,
				"method": "rhf"
			}
		],
		"cosmo_sigma_profile": { 
			"-0.025": 0.0,
			"-0.024": 0.0,
			"-0.023": 0.0,
			"-0.022": 0.0,
			"-0.021": 0.0,
			"-0.02": 0.0,
			"-0.019": 0.0,
			"-0.018": 0.0,
			"-0.017": 0.0,
			"-0.016": 0.0,
			"-0.015": 0.585692870127,
			"-0.014": 1.40596828714,
			"-0.013": 2.33415658797,
			"-0.012": 2.46368887193,
			"-0.011": 2.2030397258,
			"-0.01": 1.65579563922,
			"-0.009": 1.70546181203,
			"-0.008": 2.55167620263,
			"-0.007": 1.6606842788,
			"-0.006": 2.13916200042,
			"-0.005": 4.95508835687,
			"-0.004": 15.8218760811,
			"-0.003": 30.4483851747,
			"-0.002": 37.4654202234,
			"-0.001": 34.712007254,
			"0.0": 24.2852996164,
			"0.001": 16.604699632,
			"0.002": 10.1115194765,
			"0.003": 9.65550653045,
			"0.004": 11.4462097799,
			"0.005": 12.2793723529,
			"0.006": 10.12030671,
			"0.007": 9.68437039176,
			"0.008": 3.41081556656,
			"0.009": 2.80650016124,
			"0.01": 2.30075978916,
			"0.011": 1.63791351144,
			"0.012": 2.50048316394,
			"0.013": 1.91725731346,
			"0.014": 1.25295505362,
			"0.015": 0.550624704547,
			"0.016": 0.0,
			"0.017": 0.0,
			"0.018": 0.0,
			"0.019": 0.0,
			"0.02": 0.0,
			"0.021": 0.0,
			"0.022": 0.0,
			"0.023": 0.0,
			"0.024": 0.0,
			"0.025": 0.0
		}
	}
}
