{
	 "smiles": "CC(NS(=O)(=O)C1=CC=C(N)C=C1)C1CC2CCC1C2", 
	 "Tm": 476.15, 
	 "num_atms": 42, 
	 "gaussian": { 
		 "optdone": 1, 
		 "sigma_profile": "yes", 
		 "theory": "DFT", 
		 "functional": "B3LYP", 
		 "basiset": "6-31G**", 
		 "properties": { 
			 "R2extent": 6923.0096, 
			 "electric_dipole_moment_norm": 6.26404717814, 
			 "electric_quadrupole_moment_norm": 25.9947699782, 
			 "total_energy": -1242.93359305, 
			 "HOMO_LUMO_gap": 0.20062, 
			 "cosmo_polarized_energy": -18.52, 
			 "cosmo_cavitation_energy": 42.28, 
			 "cosmo_dispersion_energy": -29.27, 
			 "cosmo_repulsion_energy": 2.21, 
			 "cosmo_total_nonelectrostatic_energy": 15.22, 
			 "SMD_solvation_energy": 5.32 
		},
		"coords": [
			{
				"x": -0.7092882703,
				"y": -3.0415360501,
				"z": -1.1092500526,
				"element": "C" 
			},
			{
				"x": -1.0160085903,
				"y": -1.5715969037,
				"z": -0.7757779283,
				"element": "C" 
			},
			{
				"x": 0.059833902,
				"y": -0.9606619603,
				"z": 0.0410148189,
				"element": "N" 
			},
			{
				"x": 0.1446782589,
				"y": -1.2901701191,
				"z": 1.7027398038,
				"element": "S" 
			},
			{
				"x": 1.5723168077,
				"y": -1.1499937053,
				"z": 2.0177328526,
				"element": "O" 
			},
			{
				"x": -0.5915933912,
				"y": -2.5207936491,
				"z": 2.0281395561,
				"element": "O" 
			},
			{
				"x": -0.7452074994,
				"y": 0.0556815535,
				"z": 2.4581097158,
				"element": "C" 
			},
			{
				"x": -0.1308889514,
				"y": 1.306131902,
				"z": 2.5899770661,
				"element": "C" 
			},
			{
				"x": -0.8176876279,
				"y": 2.3531202822,
				"z": 3.1865978578,
				"element": "C" 
			},
			{
				"x": -2.1318007123,
				"y": 2.1702633648,
				"z": 3.6656797163,
				"element": "C" 
			},
			{
				"x": -2.7968032848,
				"y": 3.2029634144,
				"z": 4.304276762,
				"element": "N" 
			},
			{
				"x": -2.7300107494,
				"y": 0.9021890727,
				"z": 3.534783172,
				"element": "C" 
			},
			{
				"x": -2.0410313596,
				"y": -0.1474544089,
				"z": 2.9393128418,
				"element": "C" 
			},
			{
				"x": -1.298273924,
				"y": -0.7596953402,
				"z": -2.0612060355,
				"element": "C" 
			},
			{
				"x": -0.0645893645,
				"y": -0.3999016916,
				"z": -2.9615136639,
				"element": "C" 
			},
			{
				"x": -0.3341475422,
				"y": 1.0730483398,
				"z": -3.3587694903,
				"element": "C" 
			},
			{
				"x": -0.0467079562,
				"y": 1.9707869038,
				"z": -2.1310094229,
				"element": "C" 
			},
			{
				"x": -1.2458381404,
				"y": 1.6623856858,
				"z": -1.1769805561,
				"element": "C" 
			},
			{
				"x": -2.04989405,
				"y": 0.597326058,
				"z": -1.958831174,
				"element": "C" 
			},
			{
				"x": -1.8783507909,
				"y": 1.1087236971,
				"z": -3.4085094558,
				"element": "C" 
			},
			{
				"x": -0.5468741477,
				"y": -3.6143505597,
				"z": -0.1946290473,
				"element": "H" 
			},
			{
				"x": 0.18827374,
				"y": -3.1165885117,
				"z": -1.7351986067,
				"element": "H" 
			},
			{
				"x": -1.5383958002,
				"y": -3.4955825832,
				"z": -1.6622431285,
				"element": "H" 
			},
			{
				"x": -1.9197335254,
				"y": -1.5373225993,
				"z": -0.1560894135,
				"element": "H" 
			},
			{
				"x": 0.9952356794,
				"y": -1.1236849418,
				"z": -0.3248424776,
				"element": "H" 
			},
			{
				"x": 0.8850008083,
				"y": 1.4482145646,
				"z": 2.2370319906,
				"element": "H" 
			},
			{
				"x": -0.3376796683,
				"y": 3.3218102503,
				"z": 3.2977514154,
				"element": "H" 
			},
			{
				"x": -3.8015879712,
				"y": 3.1297140443,
				"z": 4.364284288,
				"element": "H" 
			},
			{
				"x": -2.4714206679,
				"y": 4.1396519823,
				"z": 4.1164141932,
				"element": "H" 
			},
			{
				"x": -3.7353728213,
				"y": 0.7422865433,
				"z": 3.9153637089,
				"element": "H" 
			},
			{
				"x": -2.4930784503,
				"y": -1.1297107868,
				"z": 2.8572803336,
				"element": "H" 
			},
			{
				"x": -1.9563620442,
				"y": -1.4139763868,
				"z": -2.6478478664,
				"element": "H" 
			},
			{
				"x": 0.8942988932,
				"y": -0.4962137278,
				"z": -2.4400103449,
				"element": "H" 
			},
			{
				"x": -0.0142612504,
				"y": -1.0498601666,
				"z": -3.8412092697,
				"element": "H" 
			},
			{
				"x": 0.1879165619,
				"y": 1.384366802,
				"z": -4.2679295348,
				"element": "H" 
			},
			{
				"x": -0.0262209496,
				"y": 3.0278274999,
				"z": -2.4180162952,
				"element": "H" 
			},
			{
				"x": 0.9208423955,
				"y": 1.7388294527,
				"z": -1.673640392,
				"element": "H" 
			},
			{
				"x": -0.9242536573,
				"y": 1.3178126788,
				"z": -0.1955417179,
				"element": "H" 
			},
			{
				"x": -1.8675177229,
				"y": 2.5532219807,
				"z": -1.03145597,
				"element": "H" 
			},
			{
				"x": -3.0812796703,
				"y": 0.4820930238,
				"z": -1.610184712,
				"element": "H" 
			},
			{
				"x": -2.2816653323,
				"y": 2.1160601178,
				"z": -3.5603803342,
				"element": "H" 
			},
			{
				"x": -2.3075711624,
				"y": 0.4398848777,
				"z": -4.1631232027,
				"element": "H" 
			}
		],
		 "valence_orbital": [ 
			{
				"type": "occ",
				"energy": -0.28888,
				"method": "rhf"
			},
			{
				"type": "occ",
				"energy": -0.28345,
				"method": "rhf"
			},
			{
				"type": "occ",
				"energy": -0.2641,
				"method": "rhf"
			},
			{
				"type": "occ",
				"energy": -0.255,
				"method": "rhf"
			},
			{
				"type": "occ",
				"energy": -0.21884,
				"method": "rhf"
			},
			{
				"type": "unocc",
				"energy": -0.01822,
				"method": "rhf"
			},
			{
				"type": "unocc",
				"energy": -0.0133,
				"method": "rhf"
			},
			{
				"type": "unocc",
				"energy": 0.0561,
				"method": "rhf"
			},
			{
				"type": "unocc",
				"energy": 0.06833,
				"method": "rhf"
			},
			{
				"type": "unocc",
				"energy": 0.08433,
				"method": "rhf"
			}
		],
		"cosmo_sigma_profile": { 
			"-0.025": 0.0,
			"-0.024": 0.0,
			"-0.023": 0.0,
			"-0.022": 0.0,
			"-0.021": 0.0,
			"-0.02": 0.0,
			"-0.019": 0.0,
			"-0.018": 0.0,
			"-0.017": 0.0,
			"-0.016": 0.0,
			"-0.015": 0.0,
			"-0.014": 0.168772769742,
			"-0.013": 2.81023051174,
			"-0.012": 3.05519026148,
			"-0.011": 4.25047993504,
			"-0.01": 4.47798817981,
			"-0.009": 4.7036123208,
			"-0.008": 4.1308733744,
			"-0.007": 6.19573912271,
			"-0.006": 8.36934357022,
			"-0.005": 9.79908970108,
			"-0.004": 13.0333297559,
			"-0.003": 20.6678986438,
			"-0.002": 35.4212058461,
			"-0.001": 35.3268775895,
			"0.0": 35.7280161574,
			"0.001": 36.2208126436,
			"0.002": 26.2816958498,
			"0.003": 18.7546290173,
			"0.004": 17.31448019,
			"0.005": 5.9397478083,
			"0.006": 3.96221330314,
			"0.007": 3.70473321398,
			"0.008": 3.59286980477,
			"0.009": 4.73166674125,
			"0.01": 5.26974266601,
			"0.011": 8.3804060999,
			"0.012": 7.16251390929,
			"0.013": 0.717849109774,
			"0.014": 0.0,
			"0.015": 0.0,
			"0.016": 0.0,
			"0.017": 0.0,
			"0.018": 0.0,
			"0.019": 0.0,
			"0.02": 0.0,
			"0.021": 0.0,
			"0.022": 0.0,
			"0.023": 0.0,
			"0.024": 0.0,
			"0.025": 0.0
		}
	}
}
