{
	 "smiles": "CC1=NC(=NO1)C1=CC(CO)=CC=C1", 
	 "Tm": 330.15, 
	 "num_atms": 24, 
	 "gaussian": { 
		 "optdone": 1, 
		 "sigma_profile": "yes", 
		 "theory": "DFT", 
		 "functional": "B3LYP", 
		 "basiset": "6-31G**", 
		 "properties": { 
			 "R2extent": 3934.372, 
			 "electric_dipole_moment_norm": 2.18647447047, 
			 "electric_quadrupole_moment_norm": 12.9700029977, 
			 "total_energy": -647.005497853, 
			 "HOMO_LUMO_gap": 0.19509, 
			 "cosmo_polarized_energy": -11.93, 
			 "cosmo_cavitation_energy": 28.79, 
			 "cosmo_dispersion_energy": -21.33, 
			 "cosmo_repulsion_energy": 1.69, 
			 "cosmo_total_nonelectrostatic_energy": 9.16, 
			 "SMD_solvation_energy": 3.64 
		},
		"coords": [
			{
				"x": 2.4800477799,
				"y": 3.9565973505,
				"z": 0.486053198,
				"element": "C" 
			},
			{
				"x": 1.3427289303,
				"y": 3.0846072039,
				"z": 0.8855556395,
				"element": "C" 
			},
			{
				"x": 1.0323665833,
				"y": 1.9020884351,
				"z": 0.4448925428,
				"element": "N" 
			},
			{
				"x": -0.1046821509,
				"y": 1.597558914,
				"z": 1.1733338531,
				"element": "C" 
			},
			{
				"x": -0.472859039,
				"y": 2.5387149091,
				"z": 2.0145521629,
				"element": "N" 
			},
			{
				"x": 0.4945015238,
				"y": 3.5394189574,
				"z": 1.8258906507,
				"element": "O" 
			},
			{
				"x": -0.8370272993,
				"y": 0.332917399,
				"z": 1.0194101212,
				"element": "C" 
			},
			{
				"x": -0.3792130005,
				"y": -0.6234098493,
				"z": 0.1036364504,
				"element": "C" 
			},
			{
				"x": -1.056191638,
				"y": -1.8345348647,
				"z": -0.0624140678,
				"element": "C" 
			},
			{
				"x": -0.5766940265,
				"y": -2.8509694782,
				"z": -1.0828530029,
				"element": "C" 
			},
			{
				"x": -0.8793831178,
				"y": -4.1948161534,
				"z": -0.7369733039,
				"element": "O" 
			},
			{
				"x": -2.1969846059,
				"y": -2.0879122906,
				"z": 0.7082701524,
				"element": "C" 
			},
			{
				"x": -2.6538208071,
				"y": -1.1404359366,
				"z": 1.6273627989,
				"element": "C" 
			},
			{
				"x": -1.9829519487,
				"y": 0.0688260378,
				"z": 1.7859123133,
				"element": "C" 
			},
			{
				"x": 2.1145143405,
				"y": 4.908405168,
				"z": 0.0886255352,
				"element": "H" 
			},
			{
				"x": 3.1166196225,
				"y": 4.1787482497,
				"z": 1.3479752779,
				"element": "H" 
			},
			{
				"x": 3.0696150232,
				"y": 3.4491106748,
				"z": -0.2773373403,
				"element": "H" 
			},
			{
				"x": 0.514855342,
				"y": -0.4076722213,
				"z": -0.4738537914,
				"element": "H" 
			},
			{
				"x": -1.081186558,
				"y": -2.6831199081,
				"z": -2.0420887534,
				"element": "H" 
			},
			{
				"x": 0.5004848904,
				"y": -2.7103288828,
				"z": -1.2637072662,
				"element": "H" 
			},
			{
				"x": -0.4558985994,
				"y": -4.3781484966,
				"z": 0.1124380147,
				"element": "H" 
			},
			{
				"x": -2.7151110408,
				"y": -3.0336801582,
				"z": 0.5833781927,
				"element": "H" 
			},
			{
				"x": -3.53908756,
				"y": -1.346993369,
				"z": 2.2219142302,
				"element": "H" 
			},
			{
				"x": -2.3318426438,
				"y": 0.8090283095,
				"z": 2.4981263921,
				"element": "H" 
			}
		],
		 "valence_orbital": [ 
			{
				"type": "occ",
				"energy": -0.29544,
				"method": "rhf"
			},
			{
				"type": "occ",
				"energy": -0.29459,
				"method": "rhf"
			},
			{
				"type": "occ",
				"energy": -0.27894,
				"method": "rhf"
			},
			{
				"type": "occ",
				"energy": -0.25154,
				"method": "rhf"
			},
			{
				"type": "occ",
				"energy": -0.24003,
				"method": "rhf"
			},
			{
				"type": "unocc",
				"energy": -0.04494,
				"method": "rhf"
			},
			{
				"type": "unocc",
				"energy": -0.0106,
				"method": "rhf"
			},
			{
				"type": "unocc",
				"energy": -0.00066,
				"method": "rhf"
			},
			{
				"type": "unocc",
				"energy": 0.06769,
				"method": "rhf"
			},
			{
				"type": "unocc",
				"energy": 0.08226,
				"method": "rhf"
			}
		],
		"cosmo_sigma_profile": { 
			"-0.025": 0.0,
			"-0.024": 0.0,
			"-0.023": 0.0,
			"-0.022": 0.0,
			"-0.021": 0.0,
			"-0.02": 0.0,
			"-0.019": 0.0,
			"-0.018": 0.0,
			"-0.017": 0.0,
			"-0.016": 0.285382928473,
			"-0.015": 1.01830242526,
			"-0.014": 1.10999262788,
			"-0.013": 0.365525224243,
			"-0.012": 1.02500491557,
			"-0.011": 0.910129328312,
			"-0.01": 0.710531463957,
			"-0.009": 0.597806109796,
			"-0.008": 1.39511980038,
			"-0.007": 7.14475539623,
			"-0.006": 12.8071150872,
			"-0.005": 18.287424648,
			"-0.004": 21.3133436098,
			"-0.003": 20.6577880107,
			"-0.002": 17.0224013302,
			"-0.001": 11.856642364,
			"0.0": 12.5746200759,
			"0.001": 14.4532534214,
			"0.002": 15.3908142651,
			"0.003": 13.3971587164,
			"0.004": 16.5148844924,
			"0.005": 6.97002656073,
			"0.006": 5.42136086542,
			"0.007": 6.66148876822,
			"0.008": 4.31631571281,
			"0.009": 3.53560800301,
			"0.01": 3.42534766197,
			"0.011": 3.26238120002,
			"0.012": 3.36767347042,
			"0.013": 2.19426776928,
			"0.014": 1.69723594346,
			"0.015": 0.0123040784064,
			"0.016": 0.0,
			"0.017": 0.0,
			"0.018": 0.0,
			"0.019": 0.0,
			"0.02": 0.0,
			"0.021": 0.0,
			"0.022": 0.0,
			"0.023": 0.0,
			"0.024": 0.0,
			"0.025": 0.0
		}
	}
}
