{
	 "smiles": "O=C(CC#N)N1CCS(=O)(=O)CC1", 
	 "Tm": 431.15, 
	 "num_atms": 23, 
	 "gaussian": { 
		 "optdone": 1, 
		 "sigma_profile": "yes", 
		 "theory": "DFT", 
		 "functional": "B3LYP", 
		 "basiset": "6-31G**", 
		 "properties": { 
			 "R2extent": 2752.9842, 
			 "electric_dipole_moment_norm": 4.52289135952, 
			 "electric_quadrupole_moment_norm": 15.6744828849, 
			 "total_energy": -1006.06024375, 
			 "HOMO_LUMO_gap": 0.25807, 
			 "cosmo_polarized_energy": -24.56, 
			 "cosmo_cavitation_energy": 27.62, 
			 "cosmo_dispersion_energy": -20.03, 
			 "cosmo_repulsion_energy": 1.52, 
			 "cosmo_total_nonelectrostatic_energy": 9.11, 
			 "SMD_solvation_energy": 5.17 
		},
		"coords": [
			{
				"x": -0.2258318815,
				"y": 0.628535431,
				"z": -3.2078252376,
				"element": "O" 
			},
			{
				"x": -0.3435407359,
				"y": 1.1868559664,
				"z": -2.1280454688,
				"element": "C" 
			},
			{
				"x": 0.0854976676,
				"y": 2.6701386728,
				"z": -2.0038816888,
				"element": "C" 
			},
			{
				"x": 1.1743984281,
				"y": 2.8865194034,
				"z": -1.0517303451,
				"element": "C" 
			},
			{
				"x": 2.0291995236,
				"y": 3.0188881053,
				"z": -0.2771355555,
				"element": "N" 
			},
			{
				"x": -0.8613432158,
				"y": 0.568978704,
				"z": -1.0167602299,
				"element": "N" 
			},
			{
				"x": -1.0337088609,
				"y": 1.1654166235,
				"z": 0.3093958286,
				"element": "C" 
			},
			{
				"x": -0.0961449416,
				"y": 0.5341840368,
				"z": 1.3504060087,
				"element": "C" 
			},
			{
				"x": -0.4209836401,
				"y": -1.2496439941,
				"z": 1.4872051845,
				"element": "S" 
			},
			{
				"x": 0.662463526,
				"y": -1.8892068402,
				"z": 2.243603274,
				"element": "O" 
			},
			{
				"x": -1.8296659708,
				"y": -1.4018581349,
				"z": 1.8956917688,
				"element": "O" 
			},
			{
				"x": -0.3132329465,
				"y": -1.7323531942,
				"z": -0.2622099494,
				"element": "C" 
			},
			{
				"x": -1.227354513,
				"y": -0.8481651558,
				"z": -1.1206602329,
				"element": "C" 
			},
			{
				"x": -0.7656517285,
				"y": 3.3049573867,
				"z": -1.7311243929,
				"element": "H" 
			},
			{
				"x": 0.4120035014,
				"y": 2.9599514918,
				"z": -3.0048249429,
				"element": "H" 
			},
			{
				"x": -2.07222279,
				"y": 1.0187246021,
				"z": 0.6279935238,
				"element": "H" 
			},
			{
				"x": -0.8488677485,
				"y": 2.2382180197,
				"z": 0.2741746304,
				"element": "H" 
			},
			{
				"x": -0.2799769419,
				"y": 0.9403164451,
				"z": 2.3489695179,
				"element": "H" 
			},
			{
				"x": 0.9565221657,
				"y": 0.6730230115,
				"z": 1.0925417911,
				"element": "H" 
			},
			{
				"x": -0.6230609288,
				"y": -2.7806580465,
				"z": -0.295413725,
				"element": "H" 
			},
			{
				"x": 0.7352771865,
				"y": -1.655618541,
				"z": -0.561724514,
				"element": "H" 
			},
			{
				"x": -2.2660181451,
				"y": -0.9755889314,
				"z": -0.7968751246,
				"element": "H" 
			},
			{
				"x": -1.14325701,
				"y": -1.1319150619,
				"z": -2.1695701205,
				"element": "H" 
			}
		],
		 "valence_orbital": [ 
			{
				"type": "occ",
				"energy": -0.32203,
				"method": "rhf"
			},
			{
				"type": "occ",
				"energy": -0.30622,
				"method": "rhf"
			},
			{
				"type": "occ",
				"energy": -0.29475,
				"method": "rhf"
			},
			{
				"type": "occ",
				"energy": -0.285,
				"method": "rhf"
			},
			{
				"type": "occ",
				"energy": -0.28025,
				"method": "rhf"
			},
			{
				"type": "unocc",
				"energy": -0.02218,
				"method": "rhf"
			},
			{
				"type": "unocc",
				"energy": 0.00821,
				"method": "rhf"
			},
			{
				"type": "unocc",
				"energy": 0.01993,
				"method": "rhf"
			},
			{
				"type": "unocc",
				"energy": 0.04563,
				"method": "rhf"
			},
			{
				"type": "unocc",
				"energy": 0.05737,
				"method": "rhf"
			}
		],
		"cosmo_sigma_profile": { 
			"-0.025": 0.0,
			"-0.024": 0.0,
			"-0.023": 0.0,
			"-0.022": 0.0,
			"-0.021": 0.0,
			"-0.02": 0.0,
			"-0.019": 0.0,
			"-0.018": 0.0,
			"-0.017": 0.0,
			"-0.016": 0.0,
			"-0.015": 0.0,
			"-0.014": 0.0,
			"-0.013": 0.168239831236,
			"-0.012": 1.3616360986,
			"-0.011": 3.44149270243,
			"-0.01": 6.33470818539,
			"-0.009": 11.6082359724,
			"-0.008": 12.5603518234,
			"-0.007": 17.4344388358,
			"-0.006": 18.5472457936,
			"-0.005": 16.2122598465,
			"-0.004": 10.7678874053,
			"-0.003": 9.10495344784,
			"-0.002": 7.0201441952,
			"-0.001": 7.58241123077,
			"0.0": 5.53609720697,
			"0.001": 5.76065373773,
			"0.002": 5.35558803055,
			"0.003": 4.84479376588,
			"0.004": 4.33750262032,
			"0.005": 5.49824207109,
			"0.006": 5.17368752763,
			"0.007": 5.45129743305,
			"0.008": 6.75396673714,
			"0.009": 7.64507443939,
			"0.01": 7.49067906856,
			"0.011": 15.8113210671,
			"0.012": 14.3880985028,
			"0.013": 3.04028160451,
			"0.014": 0.0049124237349,
			"0.015": 0.0,
			"0.016": 0.0,
			"0.017": 0.0,
			"0.018": 0.0,
			"0.019": 0.0,
			"0.02": 0.0,
			"0.021": 0.0,
			"0.022": 0.0,
			"0.023": 0.0,
			"0.024": 0.0,
			"0.025": 0.0
		}
	}
}
