{
	 "smiles": "NC1CCCN(C1)C1=NC=CC(=C1)C(O)=O", 
	 "Tm": 526.15, 
	 "num_atms": 31, 
	 "gaussian": { 
		 "optdone": 1, 
		 "sigma_profile": "yes", 
		 "theory": "DFT", 
		 "functional": "B3LYP", 
		 "basiset": "6-31G**", 
		 "properties": { 
			 "R2extent": 4760.8317, 
			 "electric_dipole_moment_norm": 4.46897728905, 
			 "electric_quadrupole_moment_norm": 27.5703059996, 
			 "total_energy": -742.917593067, 
			 "HOMO_LUMO_gap": 0.15132, 
			 "cosmo_polarized_energy": -18.62, 
			 "cosmo_cavitation_energy": 33.08, 
			 "cosmo_dispersion_energy": -23.94, 
			 "cosmo_repulsion_energy": 1.87, 
			 "cosmo_total_nonelectrostatic_energy": 11.01, 
			 "SMD_solvation_energy": 3.92 
		},
		"coords": [
			{
				"x": 0.5063579749,
				"y": -0.4308383007,
				"z": -4.2144051961,
				"element": "N" 
			},
			{
				"x": 0.0678655793,
				"y": 0.8362475905,
				"z": -3.6229184989,
				"element": "C" 
			},
			{
				"x": 1.2968539543,
				"y": 1.7708184548,
				"z": -3.4789768929,
				"element": "C" 
			},
			{
				"x": 1.1960733046,
				"y": 2.6516969048,
				"z": -2.2291209294,
				"element": "C" 
			},
			{
				"x": 1.165338276,
				"y": 1.7790529708,
				"z": -0.964887359,
				"element": "C" 
			},
			{
				"x": 0.2870418764,
				"y": 0.6239630394,
				"z": -1.1567440817,
				"element": "N" 
			},
			{
				"x": -0.6655627883,
				"y": 0.7085514799,
				"z": -2.2647354404,
				"element": "C" 
			},
			{
				"x": 0.2268721805,
				"y": -0.3796907563,
				"z": -0.2184613378,
				"element": "C" 
			},
			{
				"x": -0.6052444768,
				"y": -1.4124013465,
				"z": -0.4649979789,
				"element": "N" 
			},
			{
				"x": -0.6812013472,
				"y": -2.4026218817,
				"z": 0.4264522788,
				"element": "C" 
			},
			{
				"x": 0.0510382113,
				"y": -2.4563743539,
				"z": 1.6086543341,
				"element": "C" 
			},
			{
				"x": 0.9266787096,
				"y": -1.3963367065,
				"z": 1.8662646446,
				"element": "C" 
			},
			{
				"x": 1.0157078079,
				"y": -0.3399501506,
				"z": 0.9611091336,
				"element": "C" 
			},
			{
				"x": 1.7205095695,
				"y": -1.4204303958,
				"z": 3.1435854013,
				"element": "C" 
			},
			{
				"x": 2.8801320818,
				"y": -0.7106958559,
				"z": 3.1453638227,
				"element": "O" 
			},
			{
				"x": 1.3749463422,
				"y": -2.0280373946,
				"z": 4.1275473837,
				"element": "O" 
			},
			{
				"x": -0.2989297021,
				"y": -1.0279280225,
				"z": -4.3921566037,
				"element": "H" 
			},
			{
				"x": 1.0806521928,
				"y": -0.9320233844,
				"z": -3.5376659557,
				"element": "H" 
			},
			{
				"x": -0.6468237261,
				"y": 1.2845613104,
				"z": -4.3255951542,
				"element": "H" 
			},
			{
				"x": 1.422146512,
				"y": 2.3758179431,
				"z": -4.3816854151,
				"element": "H" 
			},
			{
				"x": 2.1972581027,
				"y": 1.147564591,
				"z": -3.4029678609,
				"element": "H" 
			},
			{
				"x": 2.0491694423,
				"y": 3.3344442936,
				"z": -2.1585950925,
				"element": "H" 
			},
			{
				"x": 0.300354083,
				"y": 3.2820452333,
				"z": -2.2787932007,
				"element": "H" 
			},
			{
				"x": 2.1835869274,
				"y": 1.4179609432,
				"z": -0.7623758835,
				"element": "H" 
			},
			{
				"x": 0.855429927,
				"y": 2.3754159501,
				"z": -0.091309716,
				"element": "H" 
			},
			{
				"x": -1.3303589335,
				"y": 1.5721161034,
				"z": -2.1097935067,
				"element": "H" 
			},
			{
				"x": -1.282777034,
				"y": -0.1883643394,
				"z": -2.2434194725,
				"element": "H" 
			},
			{
				"x": -1.3735481994,
				"y": -3.2053491069,
				"z": 0.1770369815,
				"element": "H" 
			},
			{
				"x": -0.0443724526,
				"y": -3.274151844,
				"z": 2.3118399607,
				"element": "H" 
			},
			{
				"x": 1.6238847486,
				"y": 0.5283532118,
				"z": 1.1846933944,
				"element": "H" 
			},
			{
				"x": 3.085520856,
				"y": -0.4208161804,
				"z": 2.2450582412,
				"element": "H" 
			}
		],
		 "valence_orbital": [ 
			{
				"type": "occ",
				"energy": -0.29187,
				"method": "rhf"
			},
			{
				"type": "occ",
				"energy": -0.2768,
				"method": "rhf"
			},
			{
				"type": "occ",
				"energy": -0.2647,
				"method": "rhf"
			},
			{
				"type": "occ",
				"energy": -0.24314,
				"method": "rhf"
			},
			{
				"type": "occ",
				"energy": -0.20974,
				"method": "rhf"
			},
			{
				"type": "unocc",
				"energy": -0.05842,
				"method": "rhf"
			},
			{
				"type": "unocc",
				"energy": -0.00701,
				"method": "rhf"
			},
			{
				"type": "unocc",
				"energy": 0.04324,
				"method": "rhf"
			},
			{
				"type": "unocc",
				"energy": 0.05878,
				"method": "rhf"
			},
			{
				"type": "unocc",
				"energy": 0.07431,
				"method": "rhf"
			}
		],
		"cosmo_sigma_profile": { 
			"-0.025": 0.0,
			"-0.024": 0.0,
			"-0.023": 0.0,
			"-0.022": 0.0,
			"-0.021": 0.0,
			"-0.02": 0.0,
			"-0.019": 0.0,
			"-0.018": 0.471668619368,
			"-0.017": 1.03338671963,
			"-0.016": 1.07324124527,
			"-0.015": 1.04111255142,
			"-0.014": 1.04482141741,
			"-0.013": 0.506393266998,
			"-0.012": 1.23085201947,
			"-0.011": 1.63370761735,
			"-0.01": 1.10842679828,
			"-0.009": 2.37570675853,
			"-0.008": 4.39920736873,
			"-0.007": 5.40104388632,
			"-0.006": 8.89309773727,
			"-0.005": 10.8748792461,
			"-0.004": 21.9045706981,
			"-0.003": 31.3765098018,
			"-0.002": 28.1290757876,
			"-0.001": 21.1001627854,
			"0.0": 17.8855384125,
			"0.001": 15.2694680425,
			"0.002": 14.5383006275,
			"0.003": 10.6329428136,
			"0.004": 6.66204698067,
			"0.005": 5.75706301815,
			"0.006": 5.21909431222,
			"0.007": 4.54544809597,
			"0.008": 4.98236222238,
			"0.009": 6.40126123616,
			"0.01": 6.37309786697,
			"0.011": 6.89598440555,
			"0.012": 5.24806862321,
			"0.013": 1.52551003939,
			"0.014": 0.757290517031,
			"0.015": 0.54399383615,
			"0.016": 0.760393264841,
			"0.017": 0.48282010403,
			"0.018": 0.479735961882,
			"0.019": 0.772577370396,
			"0.02": 0.276768328761,
			"0.021": 0.0,
			"0.022": 0.0,
			"0.023": 0.0,
			"0.024": 0.0,
			"0.025": 0.0
		}
	}
}
