{
	 "smiles": "CCNC1=CC=C2C=CC=CC2=C1N=NC1=CC=C(C=C1)N=NC1=CC=CC=C1", 
	 "Tm": 403.15, 
	 "num_atms": 50, 
	 "gaussian": { 
		 "optdone": 1, 
		 "sigma_profile": "yes", 
		 "theory": "DFT", 
		 "functional": "B3LYP", 
		 "basiset": "6-31G**", 
		 "properties": { 
			 "R2extent": 15768.4576, 
			 "electric_dipole_moment_norm": 2.5767107424, 
			 "electric_quadrupole_moment_norm": 20.5878217473, 
			 "total_energy": -1200.87485638, 
			 "HOMO_LUMO_gap": 0.09892, 
			 "cosmo_polarized_energy": -14.98, 
			 "cosmo_cavitation_energy": 54.08, 
			 "cosmo_dispersion_energy": -36.9, 
			 "cosmo_repulsion_energy": 2.78, 
			 "cosmo_total_nonelectrostatic_energy": 19.97, 
			 "SMD_solvation_energy": 5.48 
		},
		"coords": [
			{
				"x": 0.9715908321,
				"y": -5.3726547203,
				"z": 3.6289401938,
				"element": "C" 
			},
			{
				"x": -0.2762644208,
				"y": -4.5621833122,
				"z": 3.2663510469,
				"element": "C" 
			},
			{
				"x": -0.5046673597,
				"y": -4.3999820046,
				"z": 1.8243300089,
				"element": "N" 
			},
			{
				"x": 0.3997096651,
				"y": -3.7921360227,
				"z": 0.950715999,
				"element": "C" 
			},
			{
				"x": 0.4928066285,
				"y": -4.3229171296,
				"z": -0.3703783616,
				"element": "C" 
			},
			{
				"x": 1.2922966813,
				"y": -3.7557640767,
				"z": -1.3261376027,
				"element": "C" 
			},
			{
				"x": 2.0889088923,
				"y": -2.6188156531,
				"z": -1.0291959595,
				"element": "C" 
			},
			{
				"x": 2.9687055153,
				"y": -2.0542106292,
				"z": -1.9880319907,
				"element": "C" 
			},
			{
				"x": 3.758716208,
				"y": -0.9707558855,
				"z": -1.6762695998,
				"element": "C" 
			},
			{
				"x": 3.7006572896,
				"y": -0.4176632273,
				"z": -0.376629853,
				"element": "C" 
			},
			{
				"x": 2.8501916822,
				"y": -0.936674845,
				"z": 0.5757485455,
				"element": "C" 
			},
			{
				"x": 2.0048166939,
				"y": -2.0420453703,
				"z": 0.2796265575,
				"element": "C" 
			},
			{
				"x": 1.1085397993,
				"y": -2.6202460397,
				"z": 1.2402266375,
				"element": "C" 
			},
			{
				"x": 1.0766068641,
				"y": -2.090103543,
				"z": 2.5762776507,
				"element": "N" 
			},
			{
				"x": 0.6441481014,
				"y": -0.9437775362,
				"z": 2.8354577233,
				"element": "N" 
			},
			{
				"x": -0.0527728535,
				"y": -0.1338202176,
				"z": 1.8863877863,
				"element": "C" 
			},
			{
				"x": -1.1542350542,
				"y": -0.6148246847,
				"z": 1.1509376599,
				"element": "C" 
			},
			{
				"x": -1.8906610445,
				"y": 0.2538636854,
				"z": 0.3612295052,
				"element": "C" 
			},
			{
				"x": -1.5335472486,
				"y": 1.6132762564,
				"z": 0.2812988001,
				"element": "C" 
			},
			{
				"x": -0.4485057944,
				"y": 2.0896587353,
				"z": 1.0315181573,
				"element": "C" 
			},
			{
				"x": 0.2707631076,
				"y": 1.2290677073,
				"z": 1.8515927919,
				"element": "C" 
			},
			{
				"x": -2.2045457235,
				"y": 2.5800407064,
				"z": -0.5026777272,
				"element": "N" 
			},
			{
				"x": -3.1956804164,
				"y": 2.1425191185,
				"z": -1.1500257233,
				"element": "N" 
			},
			{
				"x": -3.8643327901,
				"y": 3.1102031579,
				"z": -1.9399702424,
				"element": "C" 
			},
			{
				"x": -3.4928594968,
				"y": 4.4632287106,
				"z": -2.0353920968,
				"element": "C" 
			},
			{
				"x": -4.2272966255,
				"y": 5.3213584943,
				"z": -2.8451348875,
				"element": "C" 
			},
			{
				"x": -5.3321120769,
				"y": 4.8467209782,
				"z": -3.5645816738,
				"element": "C" 
			},
			{
				"x": -5.7020458666,
				"y": 3.5037932683,
				"z": -3.4711089095,
				"element": "C" 
			},
			{
				"x": -4.9698469565,
				"y": 2.6377150246,
				"z": -2.6608422201,
				"element": "C" 
			},
			{
				"x": 1.0509322093,
				"y": -5.4814452387,
				"z": 4.7159164707,
				"element": "H" 
			},
			{
				"x": 1.8743647583,
				"y": -4.8673887498,
				"z": 3.274778971,
				"element": "H" 
			},
			{
				"x": 0.9389330303,
				"y": -6.3757313501,
				"z": 3.188539588,
				"element": "H" 
			},
			{
				"x": -0.2116845117,
				"y": -3.5755287024,
				"z": 3.7289319265,
				"element": "H" 
			},
			{
				"x": -1.1752567975,
				"y": -5.0482055711,
				"z": 3.6609416395,
				"element": "H" 
			},
			{
				"x": -0.8969600401,
				"y": -5.2381172567,
				"z": 1.4142891729,
				"element": "H" 
			},
			{
				"x": -0.0955262642,
				"y": -5.2058494259,
				"z": -0.6105965692,
				"element": "H" 
			},
			{
				"x": 1.3426240912,
				"y": -4.18953733,
				"z": -2.321125578,
				"element": "H" 
			},
			{
				"x": 3.0122724669,
				"y": -2.5033745186,
				"z": -2.9771713585,
				"element": "H" 
			},
			{
				"x": 4.4300879519,
				"y": -0.5477661888,
				"z": -2.4174463085,
				"element": "H" 
			},
			{
				"x": 4.3381745579,
				"y": 0.4242165909,
				"z": -0.1219100055,
				"element": "H" 
			},
			{
				"x": 2.8384660801,
				"y": -0.5062043646,
				"z": 1.5701717131,
				"element": "H" 
			},
			{
				"x": -1.4383284057,
				"y": -1.6586976212,
				"z": 1.2302143201,
				"element": "H" 
			},
			{
				"x": -2.7462814761,
				"y": -0.0937572996,
				"z": -0.2060320115,
				"element": "H" 
			},
			{
				"x": -0.2017675417,
				"y": 3.1443619231,
				"z": 0.9658907219,
				"element": "H" 
			},
			{
				"x": 1.0899934351,
				"y": 1.5920805631,
				"z": 2.4637581179,
				"element": "H" 
			},
			{
				"x": -2.6350454416,
				"y": 4.8098139739,
				"z": -1.4707467337,
				"element": "H" 
			},
			{
				"x": -3.9424574924,
				"y": 6.3670769528,
				"z": -2.9206076111,
				"element": "H" 
			},
			{
				"x": -5.9001098843,
				"y": 5.5248751665,
				"z": -4.1950137267,
				"element": "H" 
			},
			{
				"x": -6.5578117606,
				"y": 3.1331141595,
				"z": -4.0275518713,
				"element": "H" 
			},
			{
				"x": -5.2320031979,
				"y": 1.5885933424,
				"z": -2.5671930838,
				"element": "H" 
			}
		],
		 "valence_orbital": [ 
			{
				"type": "occ",
				"energy": -0.23996,
				"method": "rhf"
			},
			{
				"type": "occ",
				"energy": -0.2252,
				"method": "rhf"
			},
			{
				"type": "occ",
				"energy": -0.22474,
				"method": "rhf"
			},
			{
				"type": "occ",
				"energy": -0.21658,
				"method": "rhf"
			},
			{
				"type": "occ",
				"energy": -0.18772,
				"method": "rhf"
			},
			{
				"type": "unocc",
				"energy": -0.0888,
				"method": "rhf"
			},
			{
				"type": "unocc",
				"energy": -0.05554,
				"method": "rhf"
			},
			{
				"type": "unocc",
				"energy": -0.03365,
				"method": "rhf"
			},
			{
				"type": "unocc",
				"energy": -0.00584,
				"method": "rhf"
			},
			{
				"type": "unocc",
				"energy": -0.00401,
				"method": "rhf"
			}
		],
		"cosmo_sigma_profile": { 
			"-0.025": 0.0,
			"-0.024": 0.0,
			"-0.023": 0.0,
			"-0.022": 0.0,
			"-0.021": 0.0,
			"-0.02": 0.0,
			"-0.019": 0.0,
			"-0.018": 0.0,
			"-0.017": 0.0,
			"-0.016": 0.0,
			"-0.015": 0.0,
			"-0.014": 0.0,
			"-0.013": 0.795133811779,
			"-0.012": 1.43867143661,
			"-0.011": 1.48022397803,
			"-0.01": 1.46423374879,
			"-0.009": 1.42075777243,
			"-0.008": 1.67446458427,
			"-0.007": 5.88572529407,
			"-0.006": 20.6832039781,
			"-0.005": 33.3232761813,
			"-0.004": 31.5583692444,
			"-0.003": 30.8657030777,
			"-0.002": 30.6977378445,
			"-0.001": 28.2660904417,
			"0.0": 29.4558718285,
			"0.001": 40.6026807605,
			"0.002": 45.0830683162,
			"0.003": 41.6925917587,
			"0.004": 39.1454052573,
			"0.005": 21.23021774,
			"0.006": 9.2162304349,
			"0.007": 5.55018443898,
			"0.008": 3.04454089574,
			"0.009": 1.95113735767,
			"0.01": 1.93808883196,
			"0.011": 1.90768829988,
			"0.012": 1.71899841764,
			"0.013": 0.844789073008,
			"0.014": 0.183669733433,
			"0.015": 0.0,
			"0.016": 0.0,
			"0.017": 0.0,
			"0.018": 0.0,
			"0.019": 0.0,
			"0.02": 0.0,
			"0.021": 0.0,
			"0.022": 0.0,
			"0.023": 0.0,
			"0.024": 0.0,
			"0.025": 0.0
		}
	}
}
