{
	 "smiles": "CP(O)(=O)C1=CC=CC=C1", 
	 "Tm": 406.15, 
	 "num_atms": 19, 
	 "gaussian": { 
		 "optdone": 1, 
		 "sigma_profile": "yes", 
		 "theory": "DFT", 
		 "functional": "B3LYP", 
		 "basiset": "6-31G**", 
		 "properties": { 
			 "R2extent": 3175.448, 
			 "electric_dipole_moment_norm": 3.31343453232, 
			 "electric_quadrupole_moment_norm": 11.7523481871, 
			 "total_energy": -764.025011071, 
			 "HOMO_LUMO_gap": 0.23111, 
			 "cosmo_polarized_energy": -14.37, 
			 "cosmo_cavitation_energy": 24.36, 
			 "cosmo_dispersion_energy": -17.82, 
			 "cosmo_repulsion_energy": 1.42, 
			 "cosmo_total_nonelectrostatic_energy": 7.96, 
			 "SMD_solvation_energy": 6.4 
		},
		"coords": [
			{
				"x": -0.3577350109,
				"y": 0.318760761,
				"z": -1.6354386197,
				"element": "C" 
			},
			{
				"x": -1.6254228209,
				"y": -0.6168801806,
				"z": -0.7309130149,
				"element": "P" 
			},
			{
				"x": -0.6465014335,
				"y": -1.5778244564,
				"z": 0.1691622829,
				"element": "O" 
			},
			{
				"x": -2.6387627687,
				"y": -1.3309299861,
				"z": -1.5622681333,
				"element": "O" 
			},
			{
				"x": -2.3873234632,
				"y": 0.5235383871,
				"z": 0.4642545157,
				"element": "C" 
			},
			{
				"x": -1.6574571374,
				"y": 1.0912043859,
				"z": 1.5199678359,
				"element": "C" 
			},
			{
				"x": -2.2767163576,
				"y": 1.9746402324,
				"z": 2.4033916524,
				"element": "C" 
			},
			{
				"x": -3.6275112227,
				"y": 2.2942570281,
				"z": 2.2396570142,
				"element": "C" 
			},
			{
				"x": -4.3602961196,
				"y": 1.726861549,
				"z": 1.1955264826,
				"element": "C" 
			},
			{
				"x": -3.7432932047,
				"y": 0.8426608954,
				"z": 0.3091471838,
				"element": "C" 
			},
			{
				"x": 0.167553044,
				"y": -0.3623252184,
				"z": -2.3095097057,
				"element": "H" 
			},
			{
				"x": 0.3609565005,
				"y": 0.7765129568,
				"z": -0.9513248205,
				"element": "H" 
			},
			{
				"x": -0.8437992302,
				"y": 1.0999200942,
				"z": -2.2247585037,
				"element": "H" 
			},
			{
				"x": -1.1473958655,
				"y": -2.3274290986,
				"z": 0.52252336,
				"element": "H" 
			},
			{
				"x": -0.6116066973,
				"y": 0.8317087694,
				"z": 1.6594438444,
				"element": "H" 
			},
			{
				"x": -1.7095596977,
				"y": 2.4102481302,
				"z": 3.2210364697,
				"element": "H" 
			},
			{
				"x": -4.1083198475,
				"y": 2.9824285161,
				"z": 2.9292229659,
				"element": "H" 
			},
			{
				"x": -5.4117357881,
				"y": 1.9703666256,
				"z": 1.0730505544,
				"element": "H" 
			},
			{
				"x": -4.3014728791,
				"y": 0.3841806089,
				"z": -0.501271364,
				"element": "H" 
			}
		],
		 "valence_orbital": [ 
			{
				"type": "occ",
				"energy": -0.32289,
				"method": "rhf"
			},
			{
				"type": "occ",
				"energy": -0.28042,
				"method": "rhf"
			},
			{
				"type": "occ",
				"energy": -0.26822,
				"method": "rhf"
			},
			{
				"type": "occ",
				"energy": -0.26203,
				"method": "rhf"
			},
			{
				"type": "occ",
				"energy": -0.26011,
				"method": "rhf"
			},
			{
				"type": "unocc",
				"energy": -0.029,
				"method": "rhf"
			},
			{
				"type": "unocc",
				"energy": -0.01167,
				"method": "rhf"
			},
			{
				"type": "unocc",
				"energy": 0.06117,
				"method": "rhf"
			},
			{
				"type": "unocc",
				"energy": 0.08245,
				"method": "rhf"
			},
			{
				"type": "unocc",
				"energy": 0.09763,
				"method": "rhf"
			}
		],
		"cosmo_sigma_profile": { 
			"-0.025": 0.0,
			"-0.024": 0.0,
			"-0.023": 0.0,
			"-0.022": 0.0,
			"-0.021": 0.0,
			"-0.02": 0.0,
			"-0.019": 0.0487638661903,
			"-0.018": 1.18981388719,
			"-0.017": 0.773084882113,
			"-0.016": 0.869724818983,
			"-0.015": 0.880831320624,
			"-0.014": 0.958053206726,
			"-0.013": 0.830299062374,
			"-0.012": 0.77453850813,
			"-0.011": 0.322534914828,
			"-0.01": 0.930408614879,
			"-0.009": 0.69887351934,
			"-0.008": 0.862713573591,
			"-0.007": 4.1176070991,
			"-0.006": 15.4946283571,
			"-0.005": 16.3246043747,
			"-0.004": 17.0449261583,
			"-0.003": 13.0253570467,
			"-0.002": 13.7511411118,
			"-0.001": 11.9822843924,
			"0.0": 9.4378149366,
			"0.001": 10.4878552471,
			"0.002": 10.1296392692,
			"0.003": 13.0442951903,
			"0.004": 13.4986236661,
			"0.005": 7.4351677371,
			"0.006": 1.50537993303,
			"0.007": 2.10504006706,
			"0.008": 2.79636831244,
			"0.009": 2.5213935378,
			"0.01": 1.44310020155,
			"0.011": 1.76609222526,
			"0.012": 1.75288804844,
			"0.013": 0.964374970264,
			"0.014": 1.99427037984,
			"0.015": 4.5166495708,
			"0.016": 4.73279020581,
			"0.017": 0.17636460313,
			"0.018": 0.0,
			"0.019": 0.0,
			"0.02": 0.0,
			"0.021": 0.0,
			"0.022": 0.0,
			"0.023": 0.0,
			"0.024": 0.0,
			"0.025": 0.0
		}
	}
}
