{
	 "smiles": "COC1=C(OC(F)F)C(Br)=CC(CC#N)=C1", 
	 "Tm": 475.15, 
	 "num_atms": 24, 
	 "gaussian": { 
		 "optdone": 1, 
		 "sigma_profile": "yes", 
		 "theory": "DFT", 
		 "functional": "B3LYP", 
		 "basiset": "6-31G**", 
		 "properties": { 
			 "R2extent": 6479.1002, 
			 "electric_dipole_moment_norm": 0.649141671748, 
			 "electric_quadrupole_moment_norm": 16.1958392947, 
			 "total_energy": -3362.12258003, 
			 "HOMO_LUMO_gap": 0.21105, 
			 "cosmo_polarized_energy": -14.25, 
			 "cosmo_cavitation_energy": 32.37, 
			 "cosmo_dispersion_energy": -22.52, 
			 "cosmo_repulsion_energy": 1.74, 
			 "cosmo_total_nonelectrostatic_energy": 11.59, 
			 "SMD_solvation_energy": 7.76 
		},
		"coords": [
			{
				"x": 1.8966720218,
				"y": 1.1451972117,
				"z": -2.8996979998,
				"element": "C" 
			},
			{
				"x": 1.3188077089,
				"y": 2.0085141364,
				"z": -1.9270653211,
				"element": "O" 
			},
			{
				"x": 0.5721400449,
				"y": 1.4616953474,
				"z": -0.9415020024,
				"element": "C" 
			},
			{
				"x": 0.0216652021,
				"y": 2.3655054272,
				"z": -0.0062501812,
				"element": "C" 
			},
			{
				"x": 0.2331790458,
				"y": 3.7260212003,
				"z": -0.173498331,
				"element": "O" 
			},
			{
				"x": 1.3527517856,
				"y": 4.2823612872,
				"z": 0.4026328765,
				"element": "C" 
			},
			{
				"x": 2.4969221106,
				"y": 3.7389567047,
				"z": -0.0822169743,
				"element": "F" 
			},
			{
				"x": 1.3742787834,
				"y": 4.0784669264,
				"z": 1.744300957,
				"element": "F" 
			},
			{
				"x": -0.824253175,
				"y": 1.8830530208,
				"z": 0.991763055,
				"element": "C" 
			},
			{
				"x": -1.67425172,
				"y": 3.0840563814,
				"z": 2.1963291449,
				"element": "Br" 
			},
			{
				"x": -1.0958864147,
				"y": 0.5190616076,
				"z": 1.1077219793,
				"element": "C" 
			},
			{
				"x": -0.5183053627,
				"y": -0.3760760161,
				"z": 0.2086533814,
				"element": "C" 
			},
			{
				"x": -0.7914545164,
				"y": -1.8658183794,
				"z": 0.3945623546,
				"element": "C" 
			},
			{
				"x": -0.4956187716,
				"y": -2.6867660573,
				"z": -0.7818001854,
				"element": "C" 
			},
			{
				"x": -0.2460560437,
				"y": -3.3288835235,
				"z": -1.7156726036,
				"element": "N" 
			},
			{
				"x": 0.3062773002,
				"y": 0.0933311118,
				"z": -0.8168679447,
				"element": "C" 
			},
			{
				"x": 1.128815528,
				"y": 0.594497438,
				"z": -3.4561982068,
				"element": "H" 
			},
			{
				"x": 2.4425764005,
				"y": 1.7960173788,
				"z": -3.5831526535,
				"element": "H" 
			},
			{
				"x": 2.5940414111,
				"y": 0.4338086924,
				"z": -2.4413366899,
				"element": "H" 
			},
			{
				"x": 1.3268383295,
				"y": 5.3523888646,
				"z": 0.185766445,
				"element": "H" 
			},
			{
				"x": -1.7563927309,
				"y": 0.1728258161,
				"z": 1.8945365049,
				"element": "H" 
			},
			{
				"x": -0.1951769482,
				"y": -2.2541850132,
				"z": 1.2311306324,
				"element": "H" 
			},
			{
				"x": -1.8413981855,
				"y": -2.0229131305,
				"z": 0.667093815,
				"element": "H" 
			},
			{
				"x": 0.7258281963,
				"y": -0.6090164329,
				"z": -1.5259320522,
				"element": "H" 
			}
		],
		 "valence_orbital": [ 
			{
				"type": "occ",
				"energy": -0.32936,
				"method": "rhf"
			},
			{
				"type": "occ",
				"energy": -0.30779,
				"method": "rhf"
			},
			{
				"type": "occ",
				"energy": -0.29111,
				"method": "rhf"
			},
			{
				"type": "occ",
				"energy": -0.2526,
				"method": "rhf"
			},
			{
				"type": "occ",
				"energy": -0.23902,
				"method": "rhf"
			},
			{
				"type": "unocc",
				"energy": -0.02797,
				"method": "rhf"
			},
			{
				"type": "unocc",
				"energy": -0.0189,
				"method": "rhf"
			},
			{
				"type": "unocc",
				"energy": -0.00589,
				"method": "rhf"
			},
			{
				"type": "unocc",
				"energy": 0.02648,
				"method": "rhf"
			},
			{
				"type": "unocc",
				"energy": 0.0322,
				"method": "rhf"
			}
		],
		"cosmo_sigma_profile": { 
			"-0.025": 0.0,
			"-0.024": 0.0,
			"-0.023": 0.0,
			"-0.022": 0.0,
			"-0.021": 0.0,
			"-0.02": 0.0,
			"-0.019": 0.0,
			"-0.018": 0.0,
			"-0.017": 0.0,
			"-0.016": 0.0,
			"-0.015": 0.0,
			"-0.014": 0.0,
			"-0.013": 0.0,
			"-0.012": 0.0,
			"-0.011": 1.12220810552,
			"-0.01": 4.10534914855,
			"-0.009": 8.81061580971,
			"-0.008": 7.66850545682,
			"-0.007": 10.7465509105,
			"-0.006": 17.773147003,
			"-0.005": 14.0976502262,
			"-0.004": 16.3016892865,
			"-0.003": 12.95742551,
			"-0.002": 9.96334082389,
			"-0.001": 10.8196563672,
			"0.0": 14.2752803034,
			"0.001": 19.8095463936,
			"0.002": 21.8845795735,
			"0.003": 18.3593638592,
			"0.004": 29.6156447819,
			"0.005": 11.1091264735,
			"0.006": 5.97519643516,
			"0.007": 6.1682911632,
			"0.008": 6.04932583949,
			"0.009": 5.24343784523,
			"0.01": 3.51887554027,
			"0.011": 2.81021839772,
			"0.012": 2.34003394491,
			"0.013": 1.40482510469,
			"0.014": 0.0414271812634,
			"0.015": 0.0,
			"0.016": 0.0,
			"0.017": 0.0,
			"0.018": 0.0,
			"0.019": 0.0,
			"0.02": 0.0,
			"0.021": 0.0,
			"0.022": 0.0,
			"0.023": 0.0,
			"0.024": 0.0,
			"0.025": 0.0
		}
	}
}
