{
	 "smiles": "CC1(C)OC(=O)C(C(=O)C2CCCC2)C(=O)O1", 
	 "Tm": 337.15, 
	 "num_atms": 33, 
	 "gaussian": { 
		 "optdone": 1, 
		 "sigma_profile": "yes", 
		 "theory": "DFT", 
		 "functional": "B3LYP", 
		 "basiset": "6-31G**", 
		 "properties": { 
			 "R2extent": 4715.4411, 
			 "electric_dipole_moment_norm": 4.08261211848, 
			 "electric_quadrupole_moment_norm": 21.9724164147, 
			 "total_energy": -843.05835051, 
			 "HOMO_LUMO_gap": 0.22674, 
			 "cosmo_polarized_energy": -15.81, 
			 "cosmo_cavitation_energy": 34.82, 
			 "cosmo_dispersion_energy": -24.54, 
			 "cosmo_repulsion_energy": 1.92, 
			 "cosmo_total_nonelectrostatic_energy": 12.2, 
			 "SMD_solvation_energy": 7.78 
		},
		"coords": [
			{
				"x": -0.0520402109,
				"y": 0.7246833677,
				"z": 3.3037992213,
				"element": "C" 
			},
			{
				"x": 0.8815833651,
				"y": 0.3632016194,
				"z": 2.151121732,
				"element": "C" 
			},
			{
				"x": 2.2875204488,
				"y": 0.0167727871,
				"z": 2.6108685055,
				"element": "C" 
			},
			{
				"x": 0.3997373055,
				"y": -0.8042875342,
				"z": 1.4586571468,
				"element": "O" 
			},
			{
				"x": -0.5567842099,
				"y": -0.7069089671,
				"z": 0.4991540799,
				"element": "C" 
			},
			{
				"x": -0.9856165048,
				"y": -1.6992430054,
				"z": -0.0313370171,
				"element": "O" 
			},
			{
				"x": -1.0091469745,
				"y": 0.7045893857,
				"z": 0.1503230313,
				"element": "C" 
			},
			{
				"x": -1.677658921,
				"y": 0.764213891,
				"z": -1.2455325242,
				"element": "C" 
			},
			{
				"x": -2.8453943435,
				"y": 1.0821944561,
				"z": -1.3198147396,
				"element": "O" 
			},
			{
				"x": -0.8399593333,
				"y": 0.4209089234,
				"z": -2.4622693575,
				"element": "C" 
			},
			{
				"x": -0.7981865334,
				"y": 1.5691833388,
				"z": -3.4984601276,
				"element": "C" 
			},
			{
				"x": -0.3732191879,
				"y": 0.8838630997,
				"z": -4.8181046098,
				"element": "C" 
			},
			{
				"x": -0.7566512859,
				"y": -0.618614612,
				"z": -4.6657555222,
				"element": "C" 
			},
			{
				"x": -1.4370192212,
				"y": -0.7445472939,
				"z": -3.2854198467,
				"element": "C" 
			},
			{
				"x": 0.1147971865,
				"y": 1.7237968505,
				"z": 0.279350838,
				"element": "C" 
			},
			{
				"x": 0.2276677928,
				"y": 2.6909402185,
				"z": -0.4291449501,
				"element": "O" 
			},
			{
				"x": 1.0298984038,
				"y": 1.4794028289,
				"z": 1.2527879322,
				"element": "O" 
			},
			{
				"x": 0.3466064891,
				"y": 1.589229698,
				"z": 3.8396354944,
				"element": "H" 
			},
			{
				"x": -1.057977298,
				"y": 0.9706149783,
				"z": 2.9563183294,
				"element": "H" 
			},
			{
				"x": -0.1243542541,
				"y": -0.1191849501,
				"z": 3.993826034,
				"element": "H" 
			},
			{
				"x": 2.9043360825,
				"y": -0.2314039404,
				"z": 1.7449552186,
				"element": "H" 
			},
			{
				"x": 2.7283075786,
				"y": 0.8698515974,
				"z": 3.1311923188,
				"element": "H" 
			},
			{
				"x": 2.2562178706,
				"y": -0.8415733404,
				"z": 3.285428337,
				"element": "H" 
			},
			{
				"x": -1.7939520399,
				"y": 0.9859696948,
				"z": 0.8641137929,
				"element": "H" 
			},
			{
				"x": 0.181613166,
				"y": 0.1659525475,
				"z": -2.152830684,
				"element": "H" 
			},
			{
				"x": -1.8098228371,
				"y": 1.9802040779,
				"z": -3.5828085597,
				"element": "H" 
			},
			{
				"x": -0.1346340809,
				"y": 2.3811059966,
				"z": -3.1913649545,
				"element": "H" 
			},
			{
				"x": 0.7055352345,
				"y": 0.9881607101,
				"z": -4.9747253678,
				"element": "H" 
			},
			{
				"x": -0.8604208121,
				"y": 1.3507476768,
				"z": -5.6795568824,
				"element": "H" 
			},
			{
				"x": 0.1411971477,
				"y": -1.2448551538,
				"z": -4.7038627818,
				"element": "H" 
			},
			{
				"x": -1.4145002058,
				"y": -0.9656469,
				"z": -5.4684138361,
				"element": "H" 
			},
			{
				"x": -2.5167721996,
				"y": -0.5787638751,
				"z": -3.366851079,
				"element": "H" 
			},
			{
				"x": -1.2839076177,
				"y": -1.7144581719,
				"z": -2.8060791721,
				"element": "H" 
			}
		],
		 "valence_orbital": [ 
			{
				"type": "occ",
				"energy": -0.32126,
				"method": "rhf"
			},
			{
				"type": "occ",
				"energy": -0.31197,
				"method": "rhf"
			},
			{
				"type": "occ",
				"energy": -0.30882,
				"method": "rhf"
			},
			{
				"type": "occ",
				"energy": -0.28919,
				"method": "rhf"
			},
			{
				"type": "occ",
				"energy": -0.25823,
				"method": "rhf"
			},
			{
				"type": "unocc",
				"energy": -0.03149,
				"method": "rhf"
			},
			{
				"type": "unocc",
				"energy": -0.03034,
				"method": "rhf"
			},
			{
				"type": "unocc",
				"energy": -0.00957,
				"method": "rhf"
			},
			{
				"type": "unocc",
				"energy": 0.06251,
				"method": "rhf"
			},
			{
				"type": "unocc",
				"energy": 0.08303,
				"method": "rhf"
			}
		],
		"cosmo_sigma_profile": { 
			"-0.025": 0.0,
			"-0.024": 0.0,
			"-0.023": 0.0,
			"-0.022": 0.0,
			"-0.021": 0.0,
			"-0.02": 0.0,
			"-0.019": 0.0,
			"-0.018": 0.0,
			"-0.017": 0.0,
			"-0.016": 0.0,
			"-0.015": 0.0,
			"-0.014": 0.0,
			"-0.013": 0.632649755591,
			"-0.012": 3.53818079635,
			"-0.011": 2.25059580054,
			"-0.01": 2.24408628068,
			"-0.009": 2.77899532896,
			"-0.008": 2.55925574458,
			"-0.007": 4.47344254532,
			"-0.006": 13.2639217371,
			"-0.005": 13.5942507415,
			"-0.004": 13.5759045368,
			"-0.003": 24.3556992544,
			"-0.002": 36.2197274579,
			"-0.001": 32.4659841264,
			"0.0": 20.6260912279,
			"0.001": 18.1115540177,
			"0.002": 9.56635089983,
			"0.003": 8.79209349196,
			"0.004": 7.23801719842,
			"0.005": 6.86084355054,
			"0.006": 7.03931729867,
			"0.007": 7.10714195185,
			"0.008": 8.57880841835,
			"0.009": 8.34564227303,
			"0.01": 9.57170037377,
			"0.011": 7.66713785596,
			"0.012": 0.933225877817,
			"0.013": 0.0,
			"0.014": 0.0,
			"0.015": 0.0,
			"0.016": 0.0,
			"0.017": 0.0,
			"0.018": 0.0,
			"0.019": 0.0,
			"0.02": 0.0,
			"0.021": 0.0,
			"0.022": 0.0,
			"0.023": 0.0,
			"0.024": 0.0,
			"0.025": 0.0
		}
	}
}
