{
	 "smiles": "ClCC(=O)NC1=C(C=C(Cl)C=C1)C(=O)C1=CC=CC=C1Cl", 
	 "Tm": 435.15, 
	 "num_atms": 31, 
	 "gaussian": { 
		 "optdone": 1, 
		 "sigma_profile": "yes", 
		 "theory": "DFT", 
		 "functional": "B3LYP", 
		 "basiset": "6-31G**", 
		 "properties": { 
			 "R2extent": 9091.8968, 
			 "electric_dipole_moment_norm": 2.51264808718, 
			 "electric_quadrupole_moment_norm": 18.3961592671, 
			 "total_energy": -2163.40752763, 
			 "HOMO_LUMO_gap": 0.17503, 
			 "cosmo_polarized_energy": -16.45, 
			 "cosmo_cavitation_energy": 41.33, 
			 "cosmo_dispersion_energy": -28.82, 
			 "cosmo_repulsion_energy": 2.25, 
			 "cosmo_total_nonelectrostatic_energy": 14.76, 
			 "SMD_solvation_energy": 6.97 
		},
		"coords": [
			{
				"x": 3.1499117543,
				"y": 1.6023128945,
				"z": 3.2901771082,
				"element": "Cl" 
			},
			{
				"x": 1.420494981,
				"y": 1.9610946597,
				"z": 2.8704662157,
				"element": "C" 
			},
			{
				"x": 0.7862872969,
				"y": 1.0844802953,
				"z": 1.7918707347,
				"element": "C" 
			},
			{
				"x": -0.4317649671,
				"y": 1.1045045352,
				"z": 1.685916785,
				"element": "O" 
			},
			{
				"x": 1.6295661417,
				"y": 0.3776868244,
				"z": 0.9888151318,
				"element": "N" 
			},
			{
				"x": 1.2152574787,
				"y": -0.4515711917,
				"z": -0.080791569,
				"element": "C" 
			},
			{
				"x": 0.2668525229,
				"y": -0.0308659413,
				"z": -1.0357145582,
				"element": "C" 
			},
			{
				"x": -0.1353315302,
				"y": -0.9294305226,
				"z": -2.0317092018,
				"element": "C" 
			},
			{
				"x": 0.4317389261,
				"y": -2.1991136046,
				"z": -2.1102859144,
				"element": "C" 
			},
			{
				"x": -0.0715833171,
				"y": -3.2949176939,
				"z": -3.3853408033,
				"element": "Cl" 
			},
			{
				"x": 1.3938713301,
				"y": -2.6075859761,
				"z": -1.1895237238,
				"element": "C" 
			},
			{
				"x": 1.7640637156,
				"y": -1.7341869578,
				"z": -0.1692955829,
				"element": "C" 
			},
			{
				"x": -0.2002865573,
				"y": 1.4035788435,
				"z": -1.1378734281,
				"element": "C" 
			},
			{
				"x": 0.5872732509,
				"y": 2.319774182,
				"z": -0.9890398151,
				"element": "O" 
			},
			{
				"x": -1.6467828112,
				"y": 1.6361064482,
				"z": -1.4766988418,
				"element": "C" 
			},
			{
				"x": -2.6211787701,
				"y": 0.9171422308,
				"z": -0.7643169367,
				"element": "C" 
			},
			{
				"x": -3.979365362,
				"y": 1.1454516323,
				"z": -0.9664158992,
				"element": "C" 
			},
			{
				"x": -4.3870515234,
				"y": 2.0894127147,
				"z": -1.9097853567,
				"element": "C" 
			},
			{
				"x": -3.43936646,
				"y": 2.8060192753,
				"z": -2.6398510648,
				"element": "C" 
			},
			{
				"x": -2.0794758843,
				"y": 2.5885003094,
				"z": -2.4154980173,
				"element": "C" 
			},
			{
				"x": -0.9432639565,
				"y": 3.5014286229,
				"z": -3.3936672107,
				"element": "Cl" 
			},
			{
				"x": 1.3847494032,
				"y": 2.9978723726,
				"z": 2.5304156385,
				"element": "H" 
			},
			{
				"x": 0.8321403712,
				"y": 1.8594639853,
				"z": 3.7809130029,
				"element": "H" 
			},
			{
				"x": 2.6104542302,
				"y": 0.3755208965,
				"z": 1.2358480744,
				"element": "H" 
			},
			{
				"x": -0.8717216154,
				"y": -0.6216331743,
				"z": -2.765346587,
				"element": "H" 
			},
			{
				"x": 1.8303319292,
				"y": -3.5977702145,
				"z": -1.254905797,
				"element": "H" 
			},
			{
				"x": 2.4792603095,
				"y": -2.0574900217,
				"z": 0.5815938789,
				"element": "H" 
			},
			{
				"x": -2.2882969312,
				"y": 0.204495215,
				"z": -0.0176597652,
				"element": "H" 
			},
			{
				"x": -4.7137570837,
				"y": 0.5903297188,
				"z": -0.3914612621,
				"element": "H" 
			},
			{
				"x": -5.4434286624,
				"y": 2.2711228202,
				"z": -2.0842145366,
				"element": "H" 
			},
			{
				"x": -3.7448982096,
				"y": 3.533466822,
				"z": -3.3836206984,
				"element": "H" 
			}
		],
		 "valence_orbital": [ 
			{
				"type": "occ",
				"energy": -0.27564,
				"method": "rhf"
			},
			{
				"type": "occ",
				"energy": -0.26474,
				"method": "rhf"
			},
			{
				"type": "occ",
				"energy": -0.25454,
				"method": "rhf"
			},
			{
				"type": "occ",
				"energy": -0.2502,
				"method": "rhf"
			},
			{
				"type": "occ",
				"energy": -0.24484,
				"method": "rhf"
			},
			{
				"type": "unocc",
				"energy": -0.06981,
				"method": "rhf"
			},
			{
				"type": "unocc",
				"energy": -0.03642,
				"method": "rhf"
			},
			{
				"type": "unocc",
				"energy": -0.03097,
				"method": "rhf"
			},
			{
				"type": "unocc",
				"energy": -0.01688,
				"method": "rhf"
			},
			{
				"type": "unocc",
				"energy": 0.00149,
				"method": "rhf"
			}
		],
		"cosmo_sigma_profile": { 
			"-0.025": 0.0,
			"-0.024": 0.0,
			"-0.023": 0.0,
			"-0.022": 0.0,
			"-0.021": 0.0,
			"-0.02": 0.0,
			"-0.019": 0.0,
			"-0.018": 0.0,
			"-0.017": 0.0,
			"-0.016": 0.0,
			"-0.015": 0.0,
			"-0.014": 0.541794316934,
			"-0.013": 0.881815665096,
			"-0.012": 1.23717306102,
			"-0.011": 0.788575640634,
			"-0.01": 2.02924972521,
			"-0.009": 5.06219747613,
			"-0.008": 9.94841957707,
			"-0.007": 15.8628885284,
			"-0.006": 18.3477092344,
			"-0.005": 18.4106356513,
			"-0.004": 15.2392319091,
			"-0.003": 15.0010788564,
			"-0.002": 17.4707095509,
			"-0.001": 22.7690253517,
			"0.0": 25.2952011572,
			"0.001": 36.1097704212,
			"0.002": 29.5470534502,
			"0.003": 27.6957629995,
			"0.004": 27.0663900423,
			"0.005": 16.9352775293,
			"0.006": 6.03479937528,
			"0.007": 4.22591723583,
			"0.008": 4.52328992196,
			"0.009": 3.2667583219,
			"0.01": 4.24137548602,
			"0.011": 5.9389649953,
			"0.012": 3.27187453273,
			"0.013": 0.880683259797,
			"0.014": 0.0198189382445,
			"0.015": 0.0,
			"0.016": 0.0,
			"0.017": 0.0,
			"0.018": 0.0,
			"0.019": 0.0,
			"0.02": 0.0,
			"0.021": 0.0,
			"0.022": 0.0,
			"0.023": 0.0,
			"0.024": 0.0,
			"0.025": 0.0
		}
	}
}
