{
	 "smiles": "CCC1=CC=CC=C1[N+]([O-])=O", 
	 "Tm": 260.85, 
	 "num_atms": 20, 
	 "gaussian": { 
		 "optdone": 1, 
		 "sigma_profile": "yes", 
		 "theory": "DFT", 
		 "functional": "B3LYP", 
		 "basiset": "6-31G**", 
		 "properties": { 
			 "R2extent": 2806.1933, 
			 "electric_dipole_moment_norm": 4.24234915348, 
			 "electric_quadrupole_moment_norm": 15.2247729927, 
			 "total_energy": -515.379151428, 
			 "HOMO_LUMO_gap": 0.18235, 
			 "cosmo_polarized_energy": -7.31, 
			 "cosmo_cavitation_energy": 23.56, 
			 "cosmo_dispersion_energy": -17.54, 
			 "cosmo_repulsion_energy": 1.4, 
			 "cosmo_total_nonelectrostatic_energy": 7.43, 
			 "SMD_solvation_energy": 6.07 
		},
		"coords": [
			{
				"x": -1.676961055,
				"y": 1.7870884487,
				"z": 0.3664603101,
				"element": "C" 
			},
			{
				"x": -0.2078403726,
				"y": 2.1726798922,
				"z": 0.1699302392,
				"element": "C" 
			},
			{
				"x": 0.6695580252,
				"y": 1.127976885,
				"z": -0.5018943731,
				"element": "C" 
			},
			{
				"x": 0.0988428986,
				"y": -0.0236297303,
				"z": -1.0663572714,
				"element": "C" 
			},
			{
				"x": 0.8604479766,
				"y": -1.0118027262,
				"z": -1.6890457536,
				"element": "C" 
			},
			{
				"x": 2.2477927606,
				"y": -0.8915086672,
				"z": -1.7594553344,
				"element": "C" 
			},
			{
				"x": 2.8562791171,
				"y": 0.2247432714,
				"z": -1.1996301396,
				"element": "C" 
			},
			{
				"x": 2.0775104685,
				"y": 1.2136757051,
				"z": -0.5927959067,
				"element": "C" 
			},
			{
				"x": 2.8287646419,
				"y": 2.3608709943,
				"z": -0.0490364923,
				"element": "N" 
			},
			{
				"x": 2.2213659736,
				"y": 3.4094547253,
				"z": 0.174376279,
				"element": "O" 
			},
			{
				"x": 4.0362681571,
				"y": 2.2134734218,
				"z": 0.1429909418,
				"element": "O" 
			},
			{
				"x": -2.1926687813,
				"y": 2.5904954845,
				"z": 0.9003351614,
				"element": "H" 
			},
			{
				"x": -1.7876869605,
				"y": 0.8723162366,
				"z": 0.9582927033,
				"element": "H" 
			},
			{
				"x": -2.2003939603,
				"y": 1.6423591655,
				"z": -0.5843233583,
				"element": "H" 
			},
			{
				"x": 0.2324621544,
				"y": 2.4315558893,
				"z": 1.1381625435,
				"element": "H" 
			},
			{
				"x": -0.1451380432,
				"y": 3.1002588913,
				"z": -0.408323605,
				"element": "H" 
			},
			{
				"x": -0.9755689257,
				"y": -0.1517911962,
				"z": -1.016134507,
				"element": "H" 
			},
			{
				"x": 0.3645452884,
				"y": -1.8785805716,
				"z": -2.11625726,
				"element": "H" 
			},
			{
				"x": 2.8498025444,
				"y": -1.6554490188,
				"z": -2.2405990868,
				"element": "H" 
			},
			{
				"x": 3.9306180923,
				"y": 0.3553128994,
				"z": -1.2185950901,
				"element": "H" 
			}
		],
		 "valence_orbital": [ 
			{
				"type": "occ",
				"energy": -0.30481,
				"method": "rhf"
			},
			{
				"type": "occ",
				"energy": -0.30126,
				"method": "rhf"
			},
			{
				"type": "occ",
				"energy": -0.28829,
				"method": "rhf"
			},
			{
				"type": "occ",
				"energy": -0.27259,
				"method": "rhf"
			},
			{
				"type": "occ",
				"energy": -0.26566,
				"method": "rhf"
			},
			{
				"type": "unocc",
				"energy": -0.08331,
				"method": "rhf"
			},
			{
				"type": "unocc",
				"energy": -0.02016,
				"method": "rhf"
			},
			{
				"type": "unocc",
				"energy": -0.00072,
				"method": "rhf"
			},
			{
				"type": "unocc",
				"energy": 0.08099,
				"method": "rhf"
			},
			{
				"type": "unocc",
				"energy": 0.10078,
				"method": "rhf"
			}
		],
		"cosmo_sigma_profile": { 
			"-0.025": 0.0,
			"-0.024": 0.0,
			"-0.023": 0.0,
			"-0.022": 0.0,
			"-0.021": 0.0,
			"-0.02": 0.0,
			"-0.019": 0.0,
			"-0.018": 0.0,
			"-0.017": 0.0,
			"-0.016": 0.0,
			"-0.015": 0.0,
			"-0.014": 0.0,
			"-0.013": 0.0,
			"-0.012": 0.0,
			"-0.011": 0.0,
			"-0.01": 0.0,
			"-0.009": 0.0,
			"-0.008": 0.0,
			"-0.007": 4.63384279845,
			"-0.006": 9.95269168658,
			"-0.005": 11.027936009,
			"-0.004": 13.7999936267,
			"-0.003": 19.1650341884,
			"-0.002": 18.6237476928,
			"-0.001": 19.5015702811,
			"0.0": 16.3745061695,
			"0.001": 15.7222469064,
			"0.002": 14.6258400051,
			"0.003": 11.7448262516,
			"0.004": 3.2634124844,
			"0.005": 3.18840300569,
			"0.006": 3.37371372678,
			"0.007": 5.34111813119,
			"0.008": 7.86088690127,
			"0.009": 4.68397017578,
			"0.01": 3.73890220666,
			"0.011": 0.680689153638,
			"0.012": 0.0,
			"0.013": 0.0,
			"0.014": 0.0,
			"0.015": 0.0,
			"0.016": 0.0,
			"0.017": 0.0,
			"0.018": 0.0,
			"0.019": 0.0,
			"0.02": 0.0,
			"0.021": 0.0,
			"0.022": 0.0,
			"0.023": 0.0,
			"0.024": 0.0,
			"0.025": 0.0
		}
	}
}
