{
	 "smiles": "CCCCCC1CCCCC1", 
	 "Tm": 215.35, 
	 "num_atms": 33, 
	 "gaussian": { 
		 "optdone": 1, 
		 "sigma_profile": "yes", 
		 "theory": "DFT", 
		 "functional": "B3LYP", 
		 "basiset": "6-31G**", 
		 "properties": { 
			 "R2extent": 3197.6241, 
			 "electric_dipole_moment_norm": 0.0319555941894, 
			 "electric_quadrupole_moment_norm": 0.813041456508, 
			 "total_energy": -432.453114578, 
			 "HOMO_LUMO_gap": 0.35492, 
			 "cosmo_polarized_energy": -0.7, 
			 "cosmo_cavitation_energy": 30.82, 
			 "cosmo_dispersion_energy": -22.33, 
			 "cosmo_repulsion_energy": 1.82, 
			 "cosmo_total_nonelectrostatic_energy": 10.31, 
			 "SMD_solvation_energy": 3.97 
		},
		"coords": [
			{
				"x": -1.8407907355,
				"y": -3.7840171418,
				"z": 1.4848407417,
				"element": "C" 
			},
			{
				"x": -1.4470445638,
				"y": -2.3523383319,
				"z": 1.1058966858,
				"element": "C" 
			},
			{
				"x": 0.0406632006,
				"y": -2.220670516,
				"z": 0.7437425528,
				"element": "C" 
			},
			{
				"x": 0.5287898703,
				"y": -0.7956072607,
				"z": 0.4007460858,
				"element": "C" 
			},
			{
				"x": 0.4514550044,
				"y": -0.3838574945,
				"z": -1.0825014559,
				"element": "C" 
			},
			{
				"x": -0.9466641884,
				"y": -0.2455719899,
				"z": -1.7260087992,
				"element": "C" 
			},
			{
				"x": -0.8289846946,
				"y": 0.0811268133,
				"z": -3.2515344541,
				"element": "C" 
			},
			{
				"x": -1.2491088503,
				"y": 1.5203520113,
				"z": -3.6144738443,
				"element": "C" 
			},
			{
				"x": -0.7235306163,
				"y": 2.5289316882,
				"z": -2.5849399926,
				"element": "C" 
			},
			{
				"x": -1.2994565718,
				"y": 2.2460550573,
				"z": -1.1719781696,
				"element": "C" 
			},
			{
				"x": -1.8362918433,
				"y": 0.8054492049,
				"z": -1.0308981124,
				"element": "C" 
			},
			{
				"x": -1.2567139157,
				"y": -4.1424455022,
				"z": 2.3404936128,
				"element": "H" 
			},
			{
				"x": -2.9001523153,
				"y": -3.8514249651,
				"z": 1.7538146133,
				"element": "H" 
			},
			{
				"x": -1.6645454845,
				"y": -4.4766632593,
				"z": 0.6537038932,
				"element": "H" 
			},
			{
				"x": -2.0742480976,
				"y": -2.0138243042,
				"z": 0.2732460899,
				"element": "H" 
			},
			{
				"x": -1.6689066549,
				"y": -1.678983654,
				"z": 1.9453044856,
				"element": "H" 
			},
			{
				"x": 0.2748582643,
				"y": -2.8968451999,
				"z": -0.0914307451,
				"element": "H" 
			},
			{
				"x": 0.6228346644,
				"y": -2.5942917556,
				"z": 1.5971459817,
				"element": "H" 
			},
			{
				"x": 1.5835669994,
				"y": -0.7158547594,
				"z": 0.6930595735,
				"element": "H" 
			},
			{
				"x": -0.0016827785,
				"y": -0.06703814,
				"z": 1.028550894,
				"element": "H" 
			},
			{
				"x": 1.0196668485,
				"y": -1.1199616786,
				"z": -1.6689496846,
				"element": "H" 
			},
			{
				"x": 0.992271755,
				"y": 0.5646661509,
				"z": -1.2021237802,
				"element": "H" 
			},
			{
				"x": -1.446405818,
				"y": -1.2171949066,
				"z": -1.6316663564,
				"element": "H" 
			},
			{
				"x": -1.4302774732,
				"y": -0.626623869,
				"z": -3.8343041352,
				"element": "H" 
			},
			{
				"x": 0.2099688113,
				"y": -0.0728620685,
				"z": -3.5706329955,
				"element": "H" 
			},
			{
				"x": -2.3436300672,
				"y": 1.5917012309,
				"z": -3.6651416001,
				"element": "H" 
			},
			{
				"x": -0.8829773613,
				"y": 1.7691497775,
				"z": -4.617507992,
				"element": "H" 
			},
			{
				"x": 0.372203522,
				"y": 2.4646096546,
				"z": -2.5636741745,
				"element": "H" 
			},
			{
				"x": -0.9599548992,
				"y": 3.5532422603,
				"z": -2.894681365,
				"element": "H" 
			},
			{
				"x": -0.529347127,
				"y": 2.4359660887,
				"z": -0.4153211176,
				"element": "H" 
			},
			{
				"x": -2.1150310777,
				"y": 2.9448332173,
				"z": -0.9511608686,
				"element": "H" 
			},
			{
				"x": -2.838091366,
				"y": 0.7498024281,
				"z": -1.4755217171,
				"element": "H" 
			},
			{
				"x": -1.9704424402,
				"y": 0.5612912138,
				"z": 0.0284061501,
				"element": "H" 
			}
		],
		 "valence_orbital": [ 
			{
				"type": "occ",
				"energy": -0.311,
				"method": "rhf"
			},
			{
				"type": "occ",
				"energy": -0.30883,
				"method": "rhf"
			},
			{
				"type": "occ",
				"energy": -0.28813,
				"method": "rhf"
			},
			{
				"type": "occ",
				"energy": -0.28508,
				"method": "rhf"
			},
			{
				"type": "occ",
				"energy": -0.28175,
				"method": "rhf"
			},
			{
				"type": "unocc",
				"energy": 0.07317,
				"method": "rhf"
			},
			{
				"type": "unocc",
				"energy": 0.09314,
				"method": "rhf"
			},
			{
				"type": "unocc",
				"energy": 0.10266,
				"method": "rhf"
			},
			{
				"type": "unocc",
				"energy": 0.11391,
				"method": "rhf"
			},
			{
				"type": "unocc",
				"energy": 0.12348,
				"method": "rhf"
			}
		],
		"cosmo_sigma_profile": { 
			"-0.025": 0.0,
			"-0.024": 0.0,
			"-0.023": 0.0,
			"-0.022": 0.0,
			"-0.021": 0.0,
			"-0.02": 0.0,
			"-0.019": 0.0,
			"-0.018": 0.0,
			"-0.017": 0.0,
			"-0.016": 0.0,
			"-0.015": 0.0,
			"-0.014": 0.0,
			"-0.013": 0.0,
			"-0.012": 0.0,
			"-0.011": 0.0,
			"-0.01": 0.0,
			"-0.009": 0.0,
			"-0.008": 0.0,
			"-0.007": 0.0,
			"-0.006": 0.0,
			"-0.005": 0.0,
			"-0.004": 0.0,
			"-0.003": 1.55596497424,
			"-0.002": 26.4230484016,
			"-0.001": 56.7117290794,
			"0.0": 66.6751367737,
			"0.001": 52.6596379991,
			"0.002": 30.3006051494,
			"0.003": 0.739899655533,
			"0.004": 0.0,
			"0.005": 0.0,
			"0.006": 0.0,
			"0.007": 0.0,
			"0.008": 0.0,
			"0.009": 0.0,
			"0.01": 0.0,
			"0.011": 0.0,
			"0.012": 0.0,
			"0.013": 0.0,
			"0.014": 0.0,
			"0.015": 0.0,
			"0.016": 0.0,
			"0.017": 0.0,
			"0.018": 0.0,
			"0.019": 0.0,
			"0.02": 0.0,
			"0.021": 0.0,
			"0.022": 0.0,
			"0.023": 0.0,
			"0.024": 0.0,
			"0.025": 0.0
		}
	}
}
