{
	 "smiles": "CC=C", 
	 "Tm": 88.15, 
	 "num_atms": 9, 
	 "gaussian": { 
		 "optdone": 1, 
		 "sigma_profile": "yes", 
		 "theory": "DFT", 
		 "functional": "B3LYP", 
		 "basiset": "6-31G**", 
		 "properties": { 
			 "R2extent": 656.9587, 
			 "electric_dipole_moment_norm": 0.367102083895, 
			 "electric_quadrupole_moment_norm": 1.57550627736, 
			 "total_energy": -117.91401439, 
			 "HOMO_LUMO_gap": 0.27735, 
			 "cosmo_polarized_energy": -1.42, 
			 "cosmo_cavitation_energy": 11.99, 
			 "cosmo_dispersion_energy": -8.75, 
			 "cosmo_repulsion_energy": 0.83, 
			 "cosmo_total_nonelectrostatic_energy": 4.06, 
			 "SMD_solvation_energy": 3.22 
		},
		"coords": [
			{
				"x": 1.1762513139,
				"y": 1.5307027499,
				"z": -0.353058721,
				"element": "C" 
			},
			{
				"x": 1.1417540121,
				"y": 1.7740802308,
				"z": 1.1287727008,
				"element": "C" 
			},
			{
				"x": 0.3874828597,
				"y": 2.6875699212,
				"z": 1.7402602364,
				"element": "C" 
			},
			{
				"x": 0.496852852,
				"y": 2.2032419031,
				"z": -0.8855785227,
				"element": "H" 
			},
			{
				"x": 2.1865899886,
				"y": 1.6773815973,
				"z": -0.755571282,
				"element": "H" 
			},
			{
				"x": 0.891196713,
				"y": 0.4982611012,
				"z": -0.5920689655,
				"element": "H" 
			},
			{
				"x": 1.7939117643,
				"y": 1.1412436941,
				"z": 1.7320345671,
				"element": "H" 
			},
			{
				"x": 0.4075119964,
				"y": 2.8150850045,
				"z": 2.8185235395,
				"element": "H" 
			},
			{
				"x": -0.2785515,
				"y": 3.3419337979,
				"z": 1.1821864472,
				"element": "H" 
			}
		],
		 "valence_orbital": [ 
			{
				"type": "occ",
				"energy": -0.41535,
				"method": "rhf"
			},
			{
				"type": "occ",
				"energy": -0.40796,
				"method": "rhf"
			},
			{
				"type": "occ",
				"energy": -0.36744,
				"method": "rhf"
			},
			{
				"type": "occ",
				"energy": -0.34125,
				"method": "rhf"
			},
			{
				"type": "occ",
				"energy": -0.25017,
				"method": "rhf"
			},
			{
				"type": "unocc",
				"energy": 0.02718,
				"method": "rhf"
			},
			{
				"type": "unocc",
				"energy": 0.11401,
				"method": "rhf"
			},
			{
				"type": "unocc",
				"energy": 0.13578,
				"method": "rhf"
			},
			{
				"type": "unocc",
				"energy": 0.15078,
				"method": "rhf"
			},
			{
				"type": "unocc",
				"energy": 0.17565,
				"method": "rhf"
			}
		],
		"cosmo_sigma_profile": { 
			"-0.025": 0.0,
			"-0.024": 0.0,
			"-0.023": 0.0,
			"-0.022": 0.0,
			"-0.021": 0.0,
			"-0.02": 0.0,
			"-0.019": 0.0,
			"-0.018": 0.0,
			"-0.017": 0.0,
			"-0.016": 0.0,
			"-0.015": 0.0,
			"-0.014": 0.0,
			"-0.013": 0.0,
			"-0.012": 0.0,
			"-0.011": 0.0,
			"-0.01": 0.0,
			"-0.009": 0.0,
			"-0.008": 0.0,
			"-0.007": 0.0,
			"-0.006": 0.0,
			"-0.005": 1.20697932467,
			"-0.004": 8.14722627376,
			"-0.003": 12.5694967746,
			"-0.002": 12.5443126957,
			"-0.001": 12.9376982788,
			"0.0": 13.6533969861,
			"0.001": 9.39421245977,
			"0.002": 4.35490782314,
			"0.003": 4.94068854482,
			"0.004": 4.05758242279,
			"0.005": 3.02237746688,
			"0.006": 3.50899867967,
			"0.007": 2.66071762122,
			"0.008": 1.25545491282,
			"0.009": 0.00120248828892,
			"0.01": 0.0,
			"0.011": 0.0,
			"0.012": 0.0,
			"0.013": 0.0,
			"0.014": 0.0,
			"0.015": 0.0,
			"0.016": 0.0,
			"0.017": 0.0,
			"0.018": 0.0,
			"0.019": 0.0,
			"0.02": 0.0,
			"0.021": 0.0,
			"0.022": 0.0,
			"0.023": 0.0,
			"0.024": 0.0,
			"0.025": 0.0
		}
	}
}
