{
	 "smiles": "OC(=O)CC(CC1=CC=CC=C1)C1=CC=CC=C1", 
	 "Tm": 364.15, 
	 "num_atms": 34, 
	 "gaussian": { 
		 "optdone": 1, 
		 "sigma_profile": "yes", 
		 "theory": "DFT", 
		 "functional": "B3LYP", 
		 "basiset": "6-31G**", 
		 "properties": { 
			 "R2extent": 5696.537, 
			 "electric_dipole_moment_norm": 1.68711478566, 
			 "electric_quadrupole_moment_norm": 13.2176426423, 
			 "total_energy": -769.819124881, 
			 "HOMO_LUMO_gap": 0.23122, 
			 "cosmo_polarized_energy": -12.69, 
			 "cosmo_cavitation_energy": 37.83, 
			 "cosmo_dispersion_energy": -25.08, 
			 "cosmo_repulsion_energy": 1.98, 
			 "cosmo_total_nonelectrostatic_energy": 14.72, 
			 "SMD_solvation_energy": 7.14 
		},
		"coords": [
			{
				"x": -2.0021003793,
				"y": 4.4244121078,
				"z": -0.9768321907,
				"element": "O" 
			},
			{
				"x": -1.1832148639,
				"y": 3.9328373376,
				"z": -1.9438220024,
				"element": "C" 
			},
			{
				"x": -1.3860753496,
				"y": 4.1307796388,
				"z": -3.1212780323,
				"element": "O" 
			},
			{
				"x": -0.024624046,
				"y": 3.1520079516,
				"z": -1.3625871581,
				"element": "C" 
			},
			{
				"x": -0.4470887277,
				"y": 2.0321531546,
				"z": -0.377487786,
				"element": "C" 
			},
			{
				"x": -1.3445112516,
				"y": 0.9768425873,
				"z": -1.0829838904,
				"element": "C" 
			},
			{
				"x": -2.0142670515,
				"y": 0.0143426467,
				"z": -0.1257302189,
				"element": "C" 
			},
			{
				"x": -1.4914972889,
				"y": -1.2629173656,
				"z": 0.1131839556,
				"element": "C" 
			},
			{
				"x": -2.1107337645,
				"y": -2.1333477166,
				"z": 1.0120876815,
				"element": "C" 
			},
			{
				"x": -3.2654032449,
				"y": -1.7383798563,
				"z": 1.6890844517,
				"element": "C" 
			},
			{
				"x": -3.7968875265,
				"y": -0.4671988811,
				"z": 1.4605598193,
				"element": "C" 
			},
			{
				"x": -3.1755225052,
				"y": 0.3985462365,
				"z": 0.5605206754,
				"element": "C" 
			},
			{
				"x": 0.7733154751,
				"y": 1.4122254733,
				"z": 0.2878956772,
				"element": "C" 
			},
			{
				"x": 0.9264902086,
				"y": 1.4662388617,
				"z": 1.6788203567,
				"element": "C" 
			},
			{
				"x": 2.0441105813,
				"y": 0.908384035,
				"z": 2.3027754564,
				"element": "C" 
			},
			{
				"x": 3.0325694152,
				"y": 0.2844656705,
				"z": 1.5414809185,
				"element": "C" 
			},
			{
				"x": 2.8934132742,
				"y": 0.2219383305,
				"z": 0.1531935359,
				"element": "C" 
			},
			{
				"x": 1.7745651697,
				"y": 0.7800196192,
				"z": -0.4653727153,
				"element": "C" 
			},
			{
				"x": -2.7002929715,
				"y": 4.9144080333,
				"z": -1.4430340598,
				"element": "H" 
			},
			{
				"x": 0.621840976,
				"y": 3.8616939273,
				"z": -0.832561311,
				"element": "H" 
			},
			{
				"x": 0.5431109347,
				"y": 2.7518675089,
				"z": -2.205689141,
				"element": "H" 
			},
			{
				"x": -1.0507720193,
				"y": 2.5033525528,
				"z": 0.4052302704,
				"element": "H" 
			},
			{
				"x": -2.11703405,
				"y": 1.5051262202,
				"z": -1.6549885192,
				"element": "H" 
			},
			{
				"x": -0.7433106591,
				"y": 0.4242234544,
				"z": -1.8140714649,
				"element": "H" 
			},
			{
				"x": -0.5907449968,
				"y": -1.5763280118,
				"z": -0.4076889242,
				"element": "H" 
			},
			{
				"x": -1.6908446998,
				"y": -3.1209869808,
				"z": 1.1817003007,
				"element": "H" 
			},
			{
				"x": -3.749631957,
				"y": -2.4160956038,
				"z": 2.3864150314,
				"element": "H" 
			},
			{
				"x": -4.6985785596,
				"y": -0.1522634525,
				"z": 1.9786936117,
				"element": "H" 
			},
			{
				"x": -3.597239273,
				"y": 1.3853884381,
				"z": 0.3816694422,
				"element": "H" 
			},
			{
				"x": 0.1585176888,
				"y": 1.946737512,
				"z": 2.2795809757,
				"element": "H" 
			},
			{
				"x": 2.1398377271,
				"y": 0.9608725459,
				"z": 3.3837088734,
				"element": "H" 
			},
			{
				"x": 3.9034051272,
				"y": -0.1499751906,
				"z": 2.0239203108,
				"element": "H" 
			},
			{
				"x": 3.6574205028,
				"y": -0.2613616763,
				"z": -0.4495240078,
				"element": "H" 
			},
			{
				"x": 1.6836781049,
				"y": 0.7215908916,
				"z": -1.5472699224,
				"element": "H" 
			}
		],
		 "valence_orbital": [ 
			{
				"type": "occ",
				"energy": -0.27503,
				"method": "rhf"
			},
			{
				"type": "occ",
				"energy": -0.2502,
				"method": "rhf"
			},
			{
				"type": "occ",
				"energy": -0.24711,
				"method": "rhf"
			},
			{
				"type": "occ",
				"energy": -0.24164,
				"method": "rhf"
			},
			{
				"type": "occ",
				"energy": -0.23729,
				"method": "rhf"
			},
			{
				"type": "unocc",
				"energy": -0.00607,
				"method": "rhf"
			},
			{
				"type": "unocc",
				"energy": -0.00254,
				"method": "rhf"
			},
			{
				"type": "unocc",
				"energy": -0.00114,
				"method": "rhf"
			},
			{
				"type": "unocc",
				"energy": 0.00413,
				"method": "rhf"
			},
			{
				"type": "unocc",
				"energy": 0.01297,
				"method": "rhf"
			}
		],
		"cosmo_sigma_profile": { 
			"-0.025": 0.0,
			"-0.024": 0.0,
			"-0.023": 0.0,
			"-0.022": 0.0,
			"-0.021": 0.0,
			"-0.02": 0.0,
			"-0.019": 0.00688398919799,
			"-0.018": 0.508581379564,
			"-0.017": 1.1986817518,
			"-0.016": 0.786477977319,
			"-0.015": 0.789213181869,
			"-0.014": 0.570306095731,
			"-0.013": 0.365280215423,
			"-0.012": 0.903158488179,
			"-0.011": 0.840559536079,
			"-0.01": 0.635774770068,
			"-0.009": 0.283791965709,
			"-0.008": 0.857416114104,
			"-0.007": 2.09648016463,
			"-0.006": 10.1829439026,
			"-0.005": 24.4458441407,
			"-0.004": 30.7878161268,
			"-0.003": 32.8068682373,
			"-0.002": 24.9024595532,
			"-0.001": 23.0935784274,
			"0.0": 16.649979436,
			"0.001": 15.8235677366,
			"0.002": 16.9784906579,
			"0.003": 16.1623430247,
			"0.004": 17.7294308704,
			"0.005": 17.688923652,
			"0.006": 20.1991797427,
			"0.007": 5.5491685281,
			"0.008": 2.5167812712,
			"0.009": 2.72388852887,
			"0.01": 1.849730211,
			"0.011": 4.02074213758,
			"0.012": 4.65838308283,
			"0.013": 1.06179218926,
			"0.014": 0.00340897738845,
			"0.015": 0.0,
			"0.016": 0.0,
			"0.017": 0.0,
			"0.018": 0.0,
			"0.019": 0.0,
			"0.02": 0.0,
			"0.021": 0.0,
			"0.022": 0.0,
			"0.023": 0.0,
			"0.024": 0.0,
			"0.025": 0.0
		}
	}
}
