{
	 "smiles": "OC(=O)C1=C(C=CC=C1)C(=O)C1=CC=CS1", 
	 "Tm": 415.15, 
	 "num_atms": 24, 
	 "gaussian": { 
		 "optdone": 1, 
		 "sigma_profile": "yes", 
		 "theory": "DFT", 
		 "functional": "B3LYP", 
		 "basiset": "6-31G**", 
		 "properties": { 
			 "R2extent": 4663.1092, 
			 "electric_dipole_moment_norm": 7.65754718562, 
			 "electric_quadrupole_moment_norm": 26.0489554731, 
			 "total_energy": -1085.95498236, 
			 "HOMO_LUMO_gap": 0.15918, 
			 "cosmo_polarized_energy": -15.81, 
			 "cosmo_cavitation_energy": 30.27, 
			 "cosmo_dispersion_energy": -22.68, 
			 "cosmo_repulsion_energy": 1.7, 
			 "cosmo_total_nonelectrostatic_energy": 9.29, 
			 "SMD_solvation_energy": 6.58 
		},
		"coords": [
			{
				"x": -0.0966204451,
				"y": -3.7389926112,
				"z": -1.3696563805,
				"element": "O" 
			},
			{
				"x": -1.2722459422,
				"y": -3.2351218731,
				"z": -1.7426277912,
				"element": "C" 
			},
			{
				"x": -2.26946957,
				"y": -3.9268173752,
				"z": -1.7708283286,
				"element": "O" 
			},
			{
				"x": -1.3462655275,
				"y": -1.7824279202,
				"z": -2.2028675463,
				"element": "C" 
			},
			{
				"x": -0.5618714567,
				"y": -0.6817691001,
				"z": -1.7682943474,
				"element": "C" 
			},
			{
				"x": -0.8131255718,
				"y": 0.5917211639,
				"z": -2.312298321,
				"element": "C" 
			},
			{
				"x": -1.8073814863,
				"y": 0.7932086821,
				"z": -3.2656789076,
				"element": "C" 
			},
			{
				"x": -2.5998238564,
				"y": -0.2809076288,
				"z": -3.6664176698,
				"element": "C" 
			},
			{
				"x": -2.3741415369,
				"y": -1.5438132974,
				"z": -3.1257414539,
				"element": "C" 
			},
			{
				"x": 0.5800334841,
				"y": -0.7891824722,
				"z": -0.800663471,
				"element": "C" 
			},
			{
				"x": 1.4185687487,
				"y": -1.6983063663,
				"z": -0.8851486275,
				"element": "O" 
			},
			{
				"x": 0.7245294606,
				"y": 0.2182486579,
				"z": 0.2502679846,
				"element": "C" 
			},
			{
				"x": -0.1749305649,
				"y": 1.1528548885,
				"z": 0.7344453808,
				"element": "C" 
			},
			{
				"x": 0.3282448708,
				"y": 1.8875327862,
				"z": 1.8363856836,
				"element": "C" 
			},
			{
				"x": 1.6021780304,
				"y": 1.5014559971,
				"z": 2.1813211975,
				"element": "C" 
			},
			{
				"x": 2.2032898858,
				"y": 0.2309557546,
				"z": 1.1861467808,
				"element": "S" 
			},
			{
				"x": 0.6156780679,
				"y": -3.0542397297,
				"z": -1.3740711065,
				"element": "H" 
			},
			{
				"x": -0.1969491628,
				"y": 1.4271128931,
				"z": -1.9990548699,
				"element": "H" 
			},
			{
				"x": -1.9619574247,
				"y": 1.7828078511,
				"z": -3.6848748537,
				"element": "H" 
			},
			{
				"x": -3.3911665845,
				"y": -0.1388127196,
				"z": -4.3962589193,
				"element": "H" 
			},
			{
				"x": -2.9960614523,
				"y": -2.3864945427,
				"z": -3.4047516974,
				"element": "H" 
			},
			{
				"x": -1.1670813168,
				"y": 1.2848114874,
				"z": 0.321165334,
				"element": "H" 
			},
			{
				"x": -0.2257174752,
				"y": 2.6616668766,
				"z": 2.3539633985,
				"element": "H" 
			},
			{
				"x": 2.2185868257,
				"y": 1.9002085981,
				"z": 2.976238532,
				"element": "H" 
			}
		],
		 "valence_orbital": [ 
			{
				"type": "occ",
				"energy": -0.28075,
				"method": "rhf"
			},
			{
				"type": "occ",
				"energy": -0.27671,
				"method": "rhf"
			},
			{
				"type": "occ",
				"energy": -0.27517,
				"method": "rhf"
			},
			{
				"type": "occ",
				"energy": -0.26559,
				"method": "rhf"
			},
			{
				"type": "occ",
				"energy": -0.25549,
				"method": "rhf"
			},
			{
				"type": "unocc",
				"energy": -0.09631,
				"method": "rhf"
			},
			{
				"type": "unocc",
				"energy": -0.04829,
				"method": "rhf"
			},
			{
				"type": "unocc",
				"energy": -0.03175,
				"method": "rhf"
			},
			{
				"type": "unocc",
				"energy": 0.00865,
				"method": "rhf"
			},
			{
				"type": "unocc",
				"energy": 0.01478,
				"method": "rhf"
			}
		],
		"cosmo_sigma_profile": { 
			"-0.025": 0.0,
			"-0.024": 0.0,
			"-0.023": 0.0,
			"-0.022": 0.0,
			"-0.021": 0.0,
			"-0.02": 0.0,
			"-0.019": 0.0,
			"-0.018": 0.0,
			"-0.017": 0.0,
			"-0.016": 0.0,
			"-0.015": 0.0,
			"-0.014": 0.0,
			"-0.013": 0.0,
			"-0.012": 0.0,
			"-0.011": 0.0,
			"-0.01": 1.25992435785,
			"-0.009": 2.42604780422,
			"-0.008": 4.38256454859,
			"-0.007": 14.1094372717,
			"-0.006": 16.4926769686,
			"-0.005": 17.9781029126,
			"-0.004": 15.6545924142,
			"-0.003": 15.7820731095,
			"-0.002": 14.6853297588,
			"-0.001": 14.3493590729,
			"0.0": 17.6663395436,
			"0.001": 26.2149489649,
			"0.002": 25.3850107465,
			"0.003": 15.7928708891,
			"0.004": 4.04265983263,
			"0.005": 4.34056836819,
			"0.006": 4.87866884943,
			"0.007": 3.75174054457,
			"0.008": 4.10312903185,
			"0.009": 4.91666629469,
			"0.01": 4.13045548227,
			"0.011": 4.81573649073,
			"0.012": 6.3139857932,
			"0.013": 2.62031125693,
			"0.014": 0.698822796401,
			"0.015": 0.0,
			"0.016": 0.0,
			"0.017": 0.0,
			"0.018": 0.0,
			"0.019": 0.0,
			"0.02": 0.0,
			"0.021": 0.0,
			"0.022": 0.0,
			"0.023": 0.0,
			"0.024": 0.0,
			"0.025": 0.0
		}
	}
}
