{
	 "smiles": "COC1=CC(CN2C(N)=NC3=C2C=CC=C3)=CC=C1", 
	 "Tm": 419.15, 
	 "num_atms": 34, 
	 "gaussian": { 
		 "optdone": 1, 
		 "sigma_profile": "yes", 
		 "theory": "DFT", 
		 "functional": "B3LYP", 
		 "basiset": "6-31G**", 
		 "properties": { 
			 "R2extent": 6138.4278, 
			 "electric_dipole_moment_norm": 4.30343813015, 
			 "electric_quadrupole_moment_norm": 13.4155928181, 
			 "total_energy": -820.120935503, 
			 "HOMO_LUMO_gap": 0.18918, 
			 "cosmo_polarized_energy": -18.19, 
			 "cosmo_cavitation_energy": 37.62, 
			 "cosmo_dispersion_energy": -26.67, 
			 "cosmo_repulsion_energy": 2.05, 
			 "cosmo_total_nonelectrostatic_energy": 13.0, 
			 "SMD_solvation_energy": 4.68 
		},
		"coords": [
			{
				"x": -0.742511447,
				"y": 0.4849334923,
				"z": -5.3441598029,
				"element": "C" 
			},
			{
				"x": -0.1812648281,
				"y": -0.0778943257,
				"z": -4.1689199927,
				"element": "O" 
			},
			{
				"x": -0.9999626924,
				"y": -0.2773915102,
				"z": -3.0951349784,
				"element": "C" 
			},
			{
				"x": -0.3805740348,
				"y": -0.8192743096,
				"z": -1.9574839132,
				"element": "C" 
			},
			{
				"x": -1.1129699951,
				"y": -1.0663044692,
				"z": -0.8002478856,
				"element": "C" 
			},
			{
				"x": -0.428947401,
				"y": -1.6785841858,
				"z": 0.4117694581,
				"element": "C" 
			},
			{
				"x": -0.5808853668,
				"y": -0.9065372351,
				"z": 1.6385633151,
				"element": "N" 
			},
			{
				"x": -1.4520254123,
				"y": -1.134530762,
				"z": 2.6903121789,
				"element": "C" 
			},
			{
				"x": -2.3232710745,
				"y": -2.2173997947,
				"z": 2.6874513287,
				"element": "N" 
			},
			{
				"x": -1.4265482811,
				"y": -0.2120320355,
				"z": 3.6212463245,
				"element": "N" 
			},
			{
				"x": -0.4893481704,
				"y": 0.7117360137,
				"z": 3.172444527,
				"element": "C" 
			},
			{
				"x": 0.0570916898,
				"y": 0.2995091416,
				"z": 1.9339257523,
				"element": "C" 
			},
			{
				"x": 1.0307647066,
				"y": 1.032745648,
				"z": 1.2603567545,
				"element": "C" 
			},
			{
				"x": 1.4605665211,
				"y": 2.2155948167,
				"z": 1.8668713292,
				"element": "C" 
			},
			{
				"x": 0.9320282113,
				"y": 2.6390737163,
				"z": 3.0983894027,
				"element": "C" 
			},
			{
				"x": -0.0447727736,
				"y": 1.8976758673,
				"z": 3.7634062392,
				"element": "C" 
			},
			{
				"x": -2.4858296549,
				"y": -0.7733153612,
				"z": -0.770727981,
				"element": "C" 
			},
			{
				"x": -3.0944504861,
				"y": -0.2335403954,
				"z": -1.8981021047,
				"element": "C" 
			},
			{
				"x": -2.3657347229,
				"y": 0.0195987528,
				"z": -3.0662625308,
				"element": "C" 
			},
			{
				"x": -1.154284007,
				"y": 1.4850988058,
				"z": -5.1574944386,
				"element": "H" 
			},
			{
				"x": 0.0755870083,
				"y": 0.5621761603,
				"z": -6.0619352474,
				"element": "H" 
			},
			{
				"x": -1.5305425242,
				"y": -0.1540069534,
				"z": -5.7634471443,
				"element": "H" 
			},
			{
				"x": 0.6825055313,
				"y": -1.0370731045,
				"z": -2.0085637798,
				"element": "H" 
			},
			{
				"x": -0.8321306436,
				"y": -2.6792570188,
				"z": 0.595521474,
				"element": "H" 
			},
			{
				"x": 0.6410046516,
				"y": -1.8033792881,
				"z": 0.2135052504,
				"element": "H" 
			},
			{
				"x": -1.891873253,
				"y": -3.1117225525,
				"z": 2.4833675104,
				"element": "H" 
			},
			{
				"x": -2.8234692322,
				"y": -2.2514254302,
				"z": 3.5679843669,
				"element": "H" 
			},
			{
				"x": 1.4294656728,
				"y": 0.7166327235,
				"z": 0.3017087228,
				"element": "H" 
			},
			{
				"x": 2.2147397717,
				"y": 2.8208500068,
				"z": 1.3725537983,
				"element": "H" 
			},
			{
				"x": 1.2914370521,
				"y": 3.5648780399,
				"z": 3.5384790583,
				"element": "H" 
			},
			{
				"x": -0.4561210557,
				"y": 2.221484526,
				"z": 4.7141848806,
				"element": "H" 
			},
			{
				"x": -3.0625527103,
				"y": -0.9686163118,
				"z": 0.1280752787,
				"element": "H" 
			},
			{
				"x": -4.1559416016,
				"y": -0.0031551233,
				"z": -1.8793616609,
				"element": "H" 
			},
			{
				"x": -2.865779448,
				"y": 0.4419524562,
				"z": -3.9295754904,
				"element": "H" 
			}
		],
		 "valence_orbital": [ 
			{
				"type": "occ",
				"energy": -0.26134,
				"method": "rhf"
			},
			{
				"type": "occ",
				"energy": -0.25181,
				"method": "rhf"
			},
			{
				"type": "occ",
				"energy": -0.22227,
				"method": "rhf"
			},
			{
				"type": "occ",
				"energy": -0.21105,
				"method": "rhf"
			},
			{
				"type": "occ",
				"energy": -0.19641,
				"method": "rhf"
			},
			{
				"type": "unocc",
				"energy": -0.00723,
				"method": "rhf"
			},
			{
				"type": "unocc",
				"energy": 0.00453,
				"method": "rhf"
			},
			{
				"type": "unocc",
				"energy": 0.00688,
				"method": "rhf"
			},
			{
				"type": "unocc",
				"energy": 0.03261,
				"method": "rhf"
			},
			{
				"type": "unocc",
				"energy": 0.06174,
				"method": "rhf"
			}
		],
		"cosmo_sigma_profile": { 
			"-0.025": 0.0,
			"-0.024": 0.0,
			"-0.023": 0.0,
			"-0.022": 0.0,
			"-0.021": 0.0,
			"-0.02": 0.0,
			"-0.019": 0.0,
			"-0.018": 0.0,
			"-0.017": 0.0,
			"-0.016": 0.0,
			"-0.015": 0.110473017333,
			"-0.014": 1.48268014955,
			"-0.013": 3.08438115359,
			"-0.012": 2.47827589999,
			"-0.011": 3.13967875889,
			"-0.01": 2.84624258292,
			"-0.009": 2.05477116321,
			"-0.008": 2.03377669938,
			"-0.007": 4.79156580478,
			"-0.006": 15.2969662138,
			"-0.005": 26.2084510087,
			"-0.004": 24.6510150095,
			"-0.003": 26.3107852146,
			"-0.002": 17.4732433064,
			"-0.001": 16.1899274246,
			"0.0": 14.3387321825,
			"0.001": 14.201505843,
			"0.002": 16.9371964888,
			"0.003": 17.3873279481,
			"0.004": 21.7588926322,
			"0.005": 22.0397352551,
			"0.006": 17.1470407541,
			"0.007": 9.01336518876,
			"0.008": 3.87505351099,
			"0.009": 3.12183883215,
			"0.01": 3.38912849263,
			"0.011": 2.12932143821,
			"0.012": 1.19831330122,
			"0.013": 0.306782629465,
			"0.014": 1.18490176991,
			"0.015": 1.45443829254,
			"0.016": 0.789826841162,
			"0.017": 0.839861883448,
			"0.018": 0.459048729555,
			"0.019": 0.0,
			"0.02": 0.0,
			"0.021": 0.0,
			"0.022": 0.0,
			"0.023": 0.0,
			"0.024": 0.0,
			"0.025": 0.0
		}
	}
}
