{
	 "smiles": "ClC1=CC2=C(NC(=O)C2)C=C1", 
	 "Tm": 469.15, 
	 "num_atms": 17, 
	 "gaussian": { 
		 "optdone": 1, 
		 "sigma_profile": "yes", 
		 "theory": "DFT", 
		 "functional": "B3LYP", 
		 "basiset": "6-31G**", 
		 "properties": { 
			 "R2extent": 2616.2132, 
			 "electric_dipole_moment_norm": 1.56768155567, 
			 "electric_quadrupole_moment_norm": 21.2502355735, 
			 "total_energy": -898.656233074, 
			 "HOMO_LUMO_gap": 0.19558, 
			 "cosmo_polarized_energy": -11.88, 
			 "cosmo_cavitation_energy": 23.09, 
			 "cosmo_dispersion_energy": -17.58, 
			 "cosmo_repulsion_energy": 1.42, 
			 "cosmo_total_nonelectrostatic_energy": 6.93, 
			 "SMD_solvation_energy": 4.07 
		},
		"coords": [
			{
				"x": 3.8554359393,
				"y": 0.0270692765,
				"z": 1.4983211974,
				"element": "Cl" 
			},
			{
				"x": 2.1427499876,
				"y": -0.3218430857,
				"z": 1.2947222481,
				"element": "C" 
			},
			{
				"x": 1.3063024596,
				"y": 0.6666508939,
				"z": 0.7593832957,
				"element": "C" 
			},
			{
				"x": -0.0398380766,
				"y": 0.3750445353,
				"z": 0.6058450525,
				"element": "C" 
			},
			{
				"x": -0.5365025911,
				"y": -0.8863327733,
				"z": 0.9831545462,
				"element": "C" 
			},
			{
				"x": -1.9120236884,
				"y": -0.9317177183,
				"z": 0.7313090709,
				"element": "N" 
			},
			{
				"x": -2.3976136061,
				"y": 0.2524817483,
				"z": 0.1909754293,
				"element": "C" 
			},
			{
				"x": -3.5511535844,
				"y": 0.4699667156,
				"z": -0.1160344164,
				"element": "O" 
			},
			{
				"x": -1.1862548506,
				"y": 1.1967880978,
				"z": 0.0726378315,
				"element": "C" 
			},
			{
				"x": 0.2918497524,
				"y": -1.8682423348,
				"z": 1.5144535774,
				"element": "C" 
			},
			{
				"x": 1.6510732791,
				"y": -1.5714862484,
				"z": 1.6686053946,
				"element": "C" 
			},
			{
				"x": 1.713144637,
				"y": 1.631591419,
				"z": 0.4760003015,
				"element": "H" 
			},
			{
				"x": -2.516447782,
				"y": -1.7201210507,
				"z": 0.909787837,
				"element": "H" 
			},
			{
				"x": -1.3811604129,
				"y": 2.1086693528,
				"z": 0.6478858319,
				"element": "H" 
			},
			{
				"x": -1.0641801765,
				"y": 1.4987494117,
				"z": -0.9734727491,
				"element": "H" 
			},
			{
				"x": -0.0931481441,
				"y": -2.8406356867,
				"z": 1.8049202403,
				"element": "H" 
			},
			{
				"x": 2.3265668576,
				"y": -2.3133325531,
				"z": 2.0797053113,
				"element": "H" 
			}
		],
		 "valence_orbital": [ 
			{
				"type": "occ",
				"energy": -0.31509,
				"method": "rhf"
			},
			{
				"type": "occ",
				"energy": -0.30067,
				"method": "rhf"
			},
			{
				"type": "occ",
				"energy": -0.26932,
				"method": "rhf"
			},
			{
				"type": "occ",
				"energy": -0.26437,
				"method": "rhf"
			},
			{
				"type": "occ",
				"energy": -0.22288,
				"method": "rhf"
			},
			{
				"type": "unocc",
				"energy": -0.0273,
				"method": "rhf"
			},
			{
				"type": "unocc",
				"energy": -0.0171,
				"method": "rhf"
			},
			{
				"type": "unocc",
				"energy": 0.02485,
				"method": "rhf"
			},
			{
				"type": "unocc",
				"energy": 0.02645,
				"method": "rhf"
			},
			{
				"type": "unocc",
				"energy": 0.08106,
				"method": "rhf"
			}
		],
		"cosmo_sigma_profile": { 
			"-0.025": 0.0,
			"-0.024": 0.0,
			"-0.023": 0.0,
			"-0.022": 0.0,
			"-0.021": 0.0,
			"-0.02": 0.0,
			"-0.019": 0.0,
			"-0.018": 0.0,
			"-0.017": 0.0,
			"-0.016": 0.740668748419,
			"-0.015": 1.5415494203,
			"-0.014": 0.948605178382,
			"-0.013": 1.34607608255,
			"-0.012": 1.24376083064,
			"-0.011": 0.793003894833,
			"-0.01": 1.31903355954,
			"-0.009": 1.13993926137,
			"-0.008": 2.69613654494,
			"-0.007": 10.4799809035,
			"-0.006": 10.8655139414,
			"-0.005": 12.3110000331,
			"-0.004": 10.9303757325,
			"-0.003": 9.01318204231,
			"-0.002": 8.93147222185,
			"-0.001": 9.69594012574,
			"0.0": 11.8230946504,
			"0.001": 13.1974335056,
			"0.002": 14.2057285223,
			"0.003": 18.608801295,
			"0.004": 15.0148680414,
			"0.005": 10.1783493101,
			"0.006": 1.8419537909,
			"0.007": 1.18396139172,
			"0.008": 1.26585501466,
			"0.009": 1.30473249963,
			"0.01": 1.66383065074,
			"0.011": 2.00556492925,
			"0.012": 4.08154686087,
			"0.013": 5.50210397374,
			"0.014": 1.53187718926,
			"0.015": 0.0,
			"0.016": 0.0,
			"0.017": 0.0,
			"0.018": 0.0,
			"0.019": 0.0,
			"0.02": 0.0,
			"0.021": 0.0,
			"0.022": 0.0,
			"0.023": 0.0,
			"0.024": 0.0,
			"0.025": 0.0
		}
	}
}
