{
	 "smiles": "CC(C)=CCCC(C)(O)C=C", 
	 "Tm": 298.15, 
	 "num_atms": 29, 
	 "gaussian": { 
		 "optdone": 1, 
		 "sigma_profile": "yes", 
		 "theory": "DFT", 
		 "functional": "B3LYP", 
		 "basiset": "6-31G**", 
		 "properties": { 
			 "R2extent": 2703.9725, 
			 "electric_dipole_moment_norm": 1.12801298751, 
			 "electric_quadrupole_moment_norm": 6.81057054218, 
			 "total_energy": -467.102869034, 
			 "HOMO_LUMO_gap": 0.23331, 
			 "cosmo_polarized_energy": -6.57, 
			 "cosmo_cavitation_energy": 30.37, 
			 "cosmo_dispersion_energy": -20.57, 
			 "cosmo_repulsion_energy": 1.68, 
			 "cosmo_total_nonelectrostatic_energy": 11.48, 
			 "SMD_solvation_energy": 5.85 
		},
		"coords": [
			{
				"x": 1.7691281607,
				"y": -2.3323485168,
				"z": -1.7478818897,
				"element": "C" 
			},
			{
				"x": 1.9013789326,
				"y": -1.9046334771,
				"z": -0.304903123,
				"element": "C" 
			},
			{
				"x": 3.2658689116,
				"y": -2.1505562082,
				"z": 0.292052768,
				"element": "C" 
			},
			{
				"x": 0.8613263931,
				"y": -1.3567389149,
				"z": 0.344645829,
				"element": "C" 
			},
			{
				"x": 0.8123409029,
				"y": -0.8772696721,
				"z": 1.7734275001,
				"element": "C" 
			},
			{
				"x": 0.8231373462,
				"y": 0.6571973166,
				"z": 1.961941979,
				"element": "C" 
			},
			{
				"x": -0.4411985706,
				"y": 1.4546685725,
				"z": 1.5699636682,
				"element": "C" 
			},
			{
				"x": -1.6780851062,
				"y": 0.9833530047,
				"z": 2.3438525927,
				"element": "C" 
			},
			{
				"x": -0.1087358615,
				"y": 2.7990271564,
				"z": 1.9898056224,
				"element": "O" 
			},
			{
				"x": -0.6437698207,
				"y": 1.5058329059,
				"z": 0.0671890371,
				"element": "C" 
			},
			{
				"x": -1.7762739358,
				"y": 1.2864474233,
				"z": -0.6036726505,
				"element": "C" 
			},
			{
				"x": 1.9728895986,
				"y": -3.4056634355,
				"z": -1.8627730439,
				"element": "H" 
			},
			{
				"x": 2.4967408372,
				"y": -1.8106011469,
				"z": -2.3842481701,
				"element": "H" 
			},
			{
				"x": 0.7689734967,
				"y": -2.1331626626,
				"z": -2.142501118,
				"element": "H" 
			},
			{
				"x": 4.0364902546,
				"y": -1.6108033275,
				"z": -0.274209918,
				"element": "H" 
			},
			{
				"x": 3.3459514055,
				"y": -1.8429116353,
				"z": 1.3361930341,
				"element": "H" 
			},
			{
				"x": 3.5292532033,
				"y": -3.2149810283,
				"z": 0.2326256178,
				"element": "H" 
			},
			{
				"x": -0.0609238548,
				"y": -1.2282793867,
				"z": -0.2188414902,
				"element": "H" 
			},
			{
				"x": 1.6639989893,
				"y": -1.2749830938,
				"z": 2.3342392819,
				"element": "H" 
			},
			{
				"x": -0.0790110544,
				"y": -1.2949297488,
				"z": 2.2607936859,
				"element": "H" 
			},
			{
				"x": 0.997315113,
				"y": 0.8810441762,
				"z": 3.0214619211,
				"element": "H" 
			},
			{
				"x": 1.6695880779,
				"y": 1.0853604559,
				"z": 1.4128569461,
				"element": "H" 
			},
			{
				"x": -2.5296227224,
				"y": 1.6454219184,
				"z": 2.1537071377,
				"element": "H" 
			},
			{
				"x": -1.4668714811,
				"y": 1.0089758805,
				"z": 3.4164110364,
				"element": "H" 
			},
			{
				"x": -1.9787572639,
				"y": -0.0326094158,
				"z": 2.0719112376,
				"element": "H" 
			},
			{
				"x": -0.8168132264,
				"y": 3.3762716141,
				"z": 1.6720030362,
				"element": "H" 
			},
			{
				"x": 0.24554088,
				"y": 1.8197408783,
				"z": -0.4789389729,
				"element": "H" 
			},
			{
				"x": -2.6946798144,
				"y": 0.9735864139,
				"z": -0.1154982201,
				"element": "H" 
			},
			{
				"x": -1.8217797913,
				"y": 1.4042439534,
				"z": -1.6825133348,
				"element": "H" 
			}
		],
		 "valence_orbital": [ 
			{
				"type": "occ",
				"energy": -0.31782,
				"method": "rhf"
			},
			{
				"type": "occ",
				"energy": -0.30613,
				"method": "rhf"
			},
			{
				"type": "occ",
				"energy": -0.27548,
				"method": "rhf"
			},
			{
				"type": "occ",
				"energy": -0.25238,
				"method": "rhf"
			},
			{
				"type": "occ",
				"energy": -0.22498,
				"method": "rhf"
			},
			{
				"type": "unocc",
				"energy": 0.00833,
				"method": "rhf"
			},
			{
				"type": "unocc",
				"energy": 0.03592,
				"method": "rhf"
			},
			{
				"type": "unocc",
				"energy": 0.08665,
				"method": "rhf"
			},
			{
				"type": "unocc",
				"energy": 0.10001,
				"method": "rhf"
			},
			{
				"type": "unocc",
				"energy": 0.11614,
				"method": "rhf"
			}
		],
		"cosmo_sigma_profile": { 
			"-0.025": 0.0,
			"-0.024": 0.0,
			"-0.023": 0.0,
			"-0.022": 0.0,
			"-0.021": 0.0,
			"-0.02": 0.0,
			"-0.019": 0.0,
			"-0.018": 0.0,
			"-0.017": 0.0,
			"-0.016": 0.0,
			"-0.015": 0.113656882462,
			"-0.014": 0.559632144207,
			"-0.013": 1.0591000173,
			"-0.012": 0.827184815185,
			"-0.011": 0.218972344915,
			"-0.01": 0.797739522362,
			"-0.009": 0.703123148245,
			"-0.008": 1.03665304088,
			"-0.007": 1.31940654138,
			"-0.006": 1.40792833447,
			"-0.005": 3.47670927229,
			"-0.004": 10.5144592625,
			"-0.003": 27.5564288779,
			"-0.002": 33.5165803854,
			"-0.001": 32.4333369621,
			"0.0": 33.5452562031,
			"0.001": 29.3340267503,
			"0.002": 15.4886117616,
			"0.003": 10.0127514628,
			"0.004": 7.8136590548,
			"0.005": 5.57270396393,
			"0.006": 4.68208176728,
			"0.007": 3.29584872159,
			"0.008": 1.35991753869,
			"0.009": 0.78508299543,
			"0.01": 0.903849522848,
			"0.011": 1.63769853985,
			"0.012": 1.34767311867,
			"0.013": 1.65037405393,
			"0.014": 1.7126917256,
			"0.015": 0.588991730924,
			"0.016": 0.0,
			"0.017": 0.0,
			"0.018": 0.0,
			"0.019": 0.0,
			"0.02": 0.0,
			"0.021": 0.0,
			"0.022": 0.0,
			"0.023": 0.0,
			"0.024": 0.0,
			"0.025": 0.0
		}
	}
}
