{
	 "smiles": "NC1=C(Cl)C=C(Cl)C=N1", 
	 "Tm": 355.15, 
	 "num_atms": 13, 
	 "gaussian": { 
		 "optdone": 1, 
		 "sigma_profile": "yes", 
		 "theory": "DFT", 
		 "functional": "B3LYP", 
		 "basiset": "6-31G**", 
		 "properties": { 
			 "R2extent": 2535.1715, 
			 "electric_dipole_moment_norm": 2.0425250892, 
			 "electric_quadrupole_moment_norm": 7.86048751096, 
			 "total_energy": -1222.83417305, 
			 "HOMO_LUMO_gap": 0.18437, 
			 "cosmo_polarized_energy": -7.14, 
			 "cosmo_cavitation_energy": 20.95, 
			 "cosmo_dispersion_energy": -16.19, 
			 "cosmo_repulsion_energy": 1.34, 
			 "cosmo_total_nonelectrostatic_energy": 6.09, 
			 "SMD_solvation_energy": 1.72 
		},
		"coords": [
			{
				"x": -2.999079192,
				"y": 0.8574883942,
				"z": 1.9755044388,
				"element": "N" 
			},
			{
				"x": -2.081662494,
				"y": 0.6345099517,
				"z": 0.9836832311,
				"element": "C" 
			},
			{
				"x": -2.4619421136,
				"y": 0.3043354948,
				"z": -0.3391887884,
				"element": "C" 
			},
			{
				"x": -4.1615154837,
				"y": 0.0994453991,
				"z": -0.7390939502,
				"element": "Cl" 
			},
			{
				"x": -1.4958262875,
				"y": 0.1375396785,
				"z": -1.3170979796,
				"element": "C" 
			},
			{
				"x": -0.1575171025,
				"y": 0.3057941347,
				"z": -0.9551833068,
				"element": "C" 
			},
			{
				"x": 1.1157140932,
				"y": 0.1108587281,
				"z": -2.1438851755,
				"element": "Cl" 
			},
			{
				"x": 0.1473696075,
				"y": 0.6242997068,
				"z": 0.3653696583,
				"element": "C" 
			},
			{
				"x": -0.7869971767,
				"y": 0.779298297,
				"z": 1.3050022167,
				"element": "N" 
			},
			{
				"x": -2.6216270692,
				"y": 0.8835354518,
				"z": 2.9106466027,
				"element": "H" 
			},
			{
				"x": -3.9310282464,
				"y": 0.4906958639,
				"z": 1.8638340956,
				"element": "H" 
			},
			{
				"x": -1.7758128877,
				"y": -0.1164294082,
				"z": -2.3326452928,
				"element": "H" 
			},
			{
				"x": 1.1810243526,
				"y": 0.7541283076,
				"z": 0.6758542501,
				"element": "H" 
			}
		],
		 "valence_orbital": [ 
			{
				"type": "occ",
				"energy": -0.32144,
				"method": "rhf"
			},
			{
				"type": "occ",
				"energy": -0.31265,
				"method": "rhf"
			},
			{
				"type": "occ",
				"energy": -0.2837,
				"method": "rhf"
			},
			{
				"type": "occ",
				"energy": -0.27609,
				"method": "rhf"
			},
			{
				"type": "occ",
				"energy": -0.22295,
				"method": "rhf"
			},
			{
				"type": "unocc",
				"energy": -0.03858,
				"method": "rhf"
			},
			{
				"type": "unocc",
				"energy": -0.01047,
				"method": "rhf"
			},
			{
				"type": "unocc",
				"energy": 0.00504,
				"method": "rhf"
			},
			{
				"type": "unocc",
				"energy": 0.04527,
				"method": "rhf"
			},
			{
				"type": "unocc",
				"energy": 0.08485,
				"method": "rhf"
			}
		],
		"cosmo_sigma_profile": { 
			"-0.025": 0.0,
			"-0.024": 0.0,
			"-0.023": 0.0,
			"-0.022": 0.0,
			"-0.021": 0.0,
			"-0.02": 0.0,
			"-0.019": 0.0,
			"-0.018": 0.0,
			"-0.017": 0.0,
			"-0.016": 0.0,
			"-0.015": 0.0,
			"-0.014": 0.364840430147,
			"-0.013": 2.06348519874,
			"-0.012": 1.5783480465,
			"-0.011": 1.46286670951,
			"-0.01": 3.05699050308,
			"-0.009": 2.85364603352,
			"-0.008": 3.82940842582,
			"-0.007": 4.97430954603,
			"-0.006": 4.2249247116,
			"-0.005": 5.70480923514,
			"-0.004": 4.86639500381,
			"-0.003": 6.46886288951,
			"-0.002": 9.96613387374,
			"-0.001": 12.3220174915,
			"0.0": 20.1238597184,
			"0.001": 23.5104274991,
			"0.002": 13.6750944904,
			"0.003": 13.4829771169,
			"0.004": 19.3770430869,
			"0.005": 7.10714114221,
			"0.006": 2.1978702899,
			"0.007": 2.22941458966,
			"0.008": 1.19649084475,
			"0.009": 1.17414164948,
			"0.01": 1.78771869262,
			"0.011": 0.976622847719,
			"0.012": 0.842476575942,
			"0.013": 0.871916856539,
			"0.014": 0.422856372123,
			"0.015": 0.0151915035156,
			"0.016": 0.0,
			"0.017": 0.0,
			"0.018": 0.0,
			"0.019": 0.0,
			"0.02": 0.0,
			"0.021": 0.0,
			"0.022": 0.0,
			"0.023": 0.0,
			"0.024": 0.0,
			"0.025": 0.0
		}
	}
}
