{
	 "smiles": "ClC(Cl)C1=CC(Cl)=C(C=C1Cl)C(Cl)Cl", 
	 "Tm": 345.15, 
	 "num_atms": 18, 
	 "gaussian": { 
		 "optdone": 1, 
		 "sigma_profile": "yes", 
		 "theory": "DFT", 
		 "functional": "B3LYP", 
		 "basiset": "6-31G**", 
		 "properties": { 
			 "R2extent": 6528.2498, 
			 "electric_dipole_moment_norm": 0.0, 
			 "electric_quadrupole_moment_norm": 14.3491895573, 
			 "total_energy": -3068.39797373, 
			 "HOMO_LUMO_gap": 0.18834, 
			 "cosmo_polarized_energy": -10.71, 
			 "cosmo_cavitation_energy": 32.58, 
			 "cosmo_dispersion_energy": -23.8, 
			 "cosmo_repulsion_energy": 1.9, 
			 "cosmo_total_nonelectrostatic_energy": 10.68, 
			 "SMD_solvation_energy": 3.54 
		},
		"coords": [
			{
				"x": -4.2128475184,
				"y": -1.6102643411,
				"z": -1.2399877236,
				"element": "Cl" 
			},
			{
				"x": -3.0420051061,
				"y": -0.2524028794,
				"z": -1.4664660111,
				"element": "C" 
			},
			{
				"x": -2.6415056134,
				"y": -0.0178202693,
				"z": -3.213027281,
				"element": "Cl" 
			},
			{
				"x": -1.8155537665,
				"y": -0.3909805343,
				"z": -0.6015657141,
				"element": "C" 
			},
			{
				"x": -1.6146915871,
				"y": 0.6045696311,
				"z": 0.3619260875,
				"element": "C" 
			},
			{
				"x": -0.5204167539,
				"y": 0.5922839164,
				"z": 1.2233713506,
				"element": "C" 
			},
			{
				"x": -0.3902950382,
				"y": 1.8943267242,
				"z": 2.3776190626,
				"element": "Cl" 
			},
			{
				"x": 0.427614393,
				"y": -0.4403346074,
				"z": 1.1448731829,
				"element": "C" 
			},
			{
				"x": 0.226754661,
				"y": -1.4358829142,
				"z": 0.1813765787,
				"element": "C" 
			},
			{
				"x": -0.8675198591,
				"y": -1.423598206,
				"z": -0.6800668722,
				"element": "C" 
			},
			{
				"x": -0.997628845,
				"y": -2.7256272086,
				"z": -1.8343312338,
				"element": "Cl" 
			},
			{
				"x": 1.6540690618,
				"y": -0.5789110865,
				"z": 2.0097687286,
				"element": "C" 
			},
			{
				"x": 1.2535899847,
				"y": -0.8135306622,
				"z": 3.7563247567,
				"element": "Cl" 
			},
			{
				"x": 2.8248883051,
				"y": 0.7789790307,
				"z": 1.783303013,
				"element": "Cl" 
			},
			{
				"x": -3.5894167139,
				"y": 0.6417755275,
				"z": -1.1807324985,
				"element": "H" 
			},
			{
				"x": -2.3292609768,
				"y": 1.4161796435,
				"z": 0.4479596014,
				"element": "H" 
			},
			{
				"x": 0.9413289284,
				"y": -2.2474885806,
				"z": 0.0953411639,
				"element": "H" 
			},
			{
				"x": 2.2014964445,
				"y": -1.4730731838,
				"z": 1.7240138085,
				"element": "H" 
			}
		],
		 "valence_orbital": [ 
			{
				"type": "occ",
				"energy": -0.31506,
				"method": "rhf"
			},
			{
				"type": "occ",
				"energy": -0.30915,
				"method": "rhf"
			},
			{
				"type": "occ",
				"energy": -0.30744,
				"method": "rhf"
			},
			{
				"type": "occ",
				"energy": -0.29334,
				"method": "rhf"
			},
			{
				"type": "occ",
				"energy": -0.26666,
				"method": "rhf"
			},
			{
				"type": "unocc",
				"energy": -0.07832,
				"method": "rhf"
			},
			{
				"type": "unocc",
				"energy": -0.05068,
				"method": "rhf"
			},
			{
				"type": "unocc",
				"energy": -0.02941,
				"method": "rhf"
			},
			{
				"type": "unocc",
				"energy": -0.02514,
				"method": "rhf"
			},
			{
				"type": "unocc",
				"energy": 0.00254,
				"method": "rhf"
			}
		],
		"cosmo_sigma_profile": { 
			"-0.025": 0.0,
			"-0.024": 0.0,
			"-0.023": 0.0,
			"-0.022": 0.0,
			"-0.021": 0.0,
			"-0.02": 0.0,
			"-0.019": 0.0,
			"-0.018": 0.0,
			"-0.017": 0.0,
			"-0.016": 0.0,
			"-0.015": 0.0,
			"-0.014": 0.0250389660464,
			"-0.013": 2.52676696841,
			"-0.012": 4.44510946052,
			"-0.011": 5.1753341863,
			"-0.01": 3.8544177056,
			"-0.009": 5.05758482152,
			"-0.008": 4.06423458627,
			"-0.007": 4.16676470228,
			"-0.006": 3.63587514826,
			"-0.005": 4.63211307823,
			"-0.004": 5.57879766696,
			"-0.003": 11.9938264194,
			"-0.002": 18.1630200543,
			"-0.001": 28.486870616,
			"0.0": 26.3093888692,
			"0.001": 19.7898717719,
			"0.002": 26.3123625629,
			"0.003": 34.7932181295,
			"0.004": 46.9723326821,
			"0.005": 17.6182720939,
			"0.006": 0.612374400283,
			"0.007": 0.0,
			"0.008": 0.0,
			"0.009": 0.0,
			"0.01": 0.0,
			"0.011": 0.0,
			"0.012": 0.0,
			"0.013": 0.0,
			"0.014": 0.0,
			"0.015": 0.0,
			"0.016": 0.0,
			"0.017": 0.0,
			"0.018": 0.0,
			"0.019": 0.0,
			"0.02": 0.0,
			"0.021": 0.0,
			"0.022": 0.0,
			"0.023": 0.0,
			"0.024": 0.0,
			"0.025": 0.0
		}
	}
}
