{
	 "smiles": "COC1=CC(=CC(OC)=C1)C(O)=O", 
	 "Tm": 458.15, 
	 "num_atms": 23, 
	 "gaussian": { 
		 "optdone": 1, 
		 "sigma_profile": "yes", 
		 "theory": "DFT", 
		 "functional": "B3LYP", 
		 "basiset": "6-31G**", 
		 "properties": { 
			 "R2extent": 3331.2098, 
			 "electric_dipole_moment_norm": 1.31715498329, 
			 "electric_quadrupole_moment_norm": 15.0442930479, 
			 "total_energy": -649.874436955, 
			 "HOMO_LUMO_gap": 0.17738, 
			 "cosmo_polarized_energy": -11.68, 
			 "cosmo_cavitation_energy": 27.52, 
			 "cosmo_dispersion_energy": -20.2, 
			 "cosmo_repulsion_energy": 1.61, 
			 "cosmo_total_nonelectrostatic_energy": 8.93, 
			 "SMD_solvation_energy": 7.58 
		},
		"coords": [
			{
				"x": -0.6232015615,
				"y": 0.5335644422,
				"z": 4.7803437498,
				"element": "C" 
			},
			{
				"x": 0.3634321776,
				"y": 0.6272409656,
				"z": 3.7643015393,
				"element": "O" 
			},
			{
				"x": -0.0173897832,
				"y": 0.4114590554,
				"z": 2.4728388393,
				"element": "C" 
			},
			{
				"x": -1.3248864204,
				"y": 0.1016679705,
				"z": 2.0765602857,
				"element": "C" 
			},
			{
				"x": -1.5829481855,
				"y": -0.0965376825,
				"z": 0.7148823154,
				"element": "C" 
			},
			{
				"x": -0.5738829558,
				"y": 0.0069725535,
				"z": -0.2487705995,
				"element": "C" 
			},
			{
				"x": 0.7261376309,
				"y": 0.3171224011,
				"z": 0.1655189971,
				"element": "C" 
			},
			{
				"x": 1.7916039352,
				"y": 0.4451910463,
				"z": -0.6742409585,
				"element": "O" 
			},
			{
				"x": 1.5752667838,
				"y": 0.252073951,
				"z": -2.0647078171,
				"element": "C" 
			},
			{
				"x": 1.0009188434,
				"y": 0.5181843495,
				"z": 1.5215944172,
				"element": "C" 
			},
			{
				"x": -2.9490552752,
				"y": -0.428138799,
				"z": 0.2273344723,
				"element": "C" 
			},
			{
				"x": -3.8693313243,
				"y": -0.5098878631,
				"z": 1.2230960842,
				"element": "O" 
			},
			{
				"x": -3.2488078073,
				"y": -0.6133952392,
				"z": -0.9362908831,
				"element": "O" 
			},
			{
				"x": -0.1069143241,
				"y": 0.7394631276,
				"z": 5.7190247593,
				"element": "H" 
			},
			{
				"x": -1.0661284764,
				"y": -0.4696353789,
				"z": 4.8246016863,
				"element": "H" 
			},
			{
				"x": -1.4228404202,
				"y": 1.2718684529,
				"z": 4.6388102474,
				"element": "H" 
			},
			{
				"x": -2.131851616,
				"y": 0.0127578279,
				"z": 2.7896943294,
				"element": "H" 
			},
			{
				"x": -0.834700404,
				"y": -0.1571109684,
				"z": -1.2855942425,
				"element": "H" 
			},
			{
				"x": 0.8595952338,
				"y": 0.979480602,
				"z": -2.4680510336,
				"element": "H" 
			},
			{
				"x": 1.2154151999,
				"y": -0.761569209,
				"z": -2.2815467335,
				"element": "H" 
			},
			{
				"x": 2.5453038682,
				"y": 0.3992649406,
				"z": -2.5414734551,
				"element": "H" 
			},
			{
				"x": 2.0097016435,
				"y": 0.7582257022,
				"z": 1.8374709414,
				"element": "H" 
			},
			{
				"x": -4.7078367623,
				"y": -0.7281622485,
				"z": 0.7841030586,
				"element": "H" 
			}
		],
		 "valence_orbital": [ 
			{
				"type": "occ",
				"energy": -0.32051,
				"method": "rhf"
			},
			{
				"type": "occ",
				"energy": -0.3032,
				"method": "rhf"
			},
			{
				"type": "occ",
				"energy": -0.27501,
				"method": "rhf"
			},
			{
				"type": "occ",
				"energy": -0.23216,
				"method": "rhf"
			},
			{
				"type": "occ",
				"energy": -0.22221,
				"method": "rhf"
			},
			{
				"type": "unocc",
				"energy": -0.04483,
				"method": "rhf"
			},
			{
				"type": "unocc",
				"energy": 0.01709,
				"method": "rhf"
			},
			{
				"type": "unocc",
				"energy": 0.06561,
				"method": "rhf"
			},
			{
				"type": "unocc",
				"energy": 0.07763,
				"method": "rhf"
			},
			{
				"type": "unocc",
				"energy": 0.10034,
				"method": "rhf"
			}
		],
		"cosmo_sigma_profile": { 
			"-0.025": 0.0,
			"-0.024": 0.0,
			"-0.023": 0.0,
			"-0.022": 0.0,
			"-0.021": 0.0,
			"-0.02": 0.0,
			"-0.019": 0.0305408758779,
			"-0.018": 1.0015180089,
			"-0.017": 0.605911545456,
			"-0.016": 0.681676571884,
			"-0.015": 1.18571787507,
			"-0.014": 0.710770926522,
			"-0.013": 0.336052754658,
			"-0.012": 0.602473102332,
			"-0.011": 0.956936361035,
			"-0.01": 0.509999958644,
			"-0.009": 0.451156338247,
			"-0.008": 0.657168389712,
			"-0.007": 2.57963420974,
			"-0.006": 13.998615906,
			"-0.005": 20.4164012309,
			"-0.004": 19.0019596759,
			"-0.003": 20.5516938195,
			"-0.002": 13.3721244205,
			"-0.001": 9.53571614546,
			"0.0": 10.080522655,
			"0.001": 11.8518490947,
			"0.002": 15.746093586,
			"0.003": 23.5181683173,
			"0.004": 10.0804496197,
			"0.005": 6.65963116052,
			"0.006": 6.36367572945,
			"0.007": 5.8812171448,
			"0.008": 4.07399657878,
			"0.009": 4.22704023957,
			"0.01": 4.90498378625,
			"0.011": 4.10376618269,
			"0.012": 3.82514380986,
			"0.013": 0.0772839781007,
			"0.014": 0.0,
			"0.015": 0.0,
			"0.016": 0.0,
			"0.017": 0.0,
			"0.018": 0.0,
			"0.019": 0.0,
			"0.02": 0.0,
			"0.021": 0.0,
			"0.022": 0.0,
			"0.023": 0.0,
			"0.024": 0.0,
			"0.025": 0.0
		}
	}
}
