{
	 "smiles": "CN1N=CC(C2=NC(=NO2)C2CC2)=C1N", 
	 "Tm": 433.15, 
	 "num_atms": 26, 
	 "gaussian": { 
		 "optdone": 1, 
		 "sigma_profile": "yes", 
		 "theory": "DFT", 
		 "functional": "B3LYP", 
		 "basiset": "6-31G**", 
		 "properties": { 
			 "R2extent": 4067.2092, 
			 "electric_dipole_moment_norm": 5.17027109637, 
			 "electric_quadrupole_moment_norm": 10.9019405873, 
			 "total_energy": -698.495795264, 
			 "HOMO_LUMO_gap": 0.19002, 
			 "cosmo_polarized_energy": -14.98, 
			 "cosmo_cavitation_energy": 30.5, 
			 "cosmo_dispersion_energy": -22.21, 
			 "cosmo_repulsion_energy": 1.73, 
			 "cosmo_total_nonelectrostatic_energy": 10.03, 
			 "SMD_solvation_energy": 3.08 
		},
		"coords": [
			{
				"x": 1.6434173818,
				"y": -2.9216855639,
				"z": -3.4220781181,
				"element": "C" 
			},
			{
				"x": 1.0386267135,
				"y": -1.6460923858,
				"z": -3.1023256131,
				"element": "N" 
			},
			{
				"x": 0.8018187286,
				"y": -0.7233918111,
				"z": -4.0971306303,
				"element": "N" 
			},
			{
				"x": 0.2437437366,
				"y": 0.3017557678,
				"z": -3.4806838241,
				"element": "C" 
			},
			{
				"x": 0.1174383925,
				"y": 0.08134761,
				"z": -2.081786391,
				"element": "C" 
			},
			{
				"x": -0.3863394438,
				"y": 0.9109510869,
				"z": -1.0323114985,
				"element": "C" 
			},
			{
				"x": -0.4400453611,
				"y": 0.6136375473,
				"z": 0.2498974971,
				"element": "N" 
			},
			{
				"x": -0.9911178154,
				"y": 1.7512243688,
				"z": 0.7967150159,
				"element": "C" 
			},
			{
				"x": -1.2692206591,
				"y": 2.6989545875,
				"z": -0.0663177808,
				"element": "N" 
			},
			{
				"x": -0.8623292688,
				"y": 2.1365786986,
				"z": -1.3048902639,
				"element": "O" 
			},
			{
				"x": -1.2599801581,
				"y": 1.912978003,
				"z": 2.2356955827,
				"element": "C" 
			},
			{
				"x": -0.3206420309,
				"y": 1.2804074499,
				"z": 3.2456838337,
				"element": "C" 
			},
			{
				"x": -1.6936423542,
				"y": 0.709441489,
				"z": 3.051870978,
				"element": "C" 
			},
			{
				"x": 0.6530385898,
				"y": -1.2011570328,
				"z": -1.8833074303,
				"element": "C" 
			},
			{
				"x": 0.7267107535,
				"y": -1.945435628,
				"z": -0.7300865369,
				"element": "N" 
			},
			{
				"x": 2.7107030067,
				"y": -2.9414967174,
				"z": -3.1700668804,
				"element": "H" 
			},
			{
				"x": 1.129134499,
				"y": -3.7226517323,
				"z": -2.8823796942,
				"element": "H" 
			},
			{
				"x": 1.5319562167,
				"y": -3.0759107021,
				"z": -4.4948312877,
				"element": "H" 
			},
			{
				"x": -0.0553071838,
				"y": 1.1770066269,
				"z": -4.0409721196,
				"element": "H" 
			},
			{
				"x": -1.6950784226,
				"y": 2.8741200906,
				"z": 2.4880030334,
				"element": "H" 
			},
			{
				"x": -0.1101761729,
				"y": 1.8449296858,
				"z": 4.1485863597,
				"element": "H" 
			},
			{
				"x": 0.520732934,
				"y": 0.7223302614,
				"z": 2.8483164955,
				"element": "H" 
			},
			{
				"x": -2.4428951876,
				"y": 0.8751639017,
				"z": 3.8195525583,
				"element": "H" 
			},
			{
				"x": -1.7801675105,
				"y": -0.2341050648,
				"z": 2.5232238974,
				"element": "H" 
			},
			{
				"x": 0.4687971272,
				"y": -1.3970372584,
				"z": 0.086940818,
				"element": "H" 
			},
			{
				"x": 1.5588234888,
				"y": -2.5063632785,
				"z": -0.605618001,
				"element": "H" 
			}
		],
		 "valence_orbital": [ 
			{
				"type": "occ",
				"energy": -0.2935,
				"method": "rhf"
			},
			{
				"type": "occ",
				"energy": -0.29088,
				"method": "rhf"
			},
			{
				"type": "occ",
				"energy": -0.27422,
				"method": "rhf"
			},
			{
				"type": "occ",
				"energy": -0.24462,
				"method": "rhf"
			},
			{
				"type": "occ",
				"energy": -0.21359,
				"method": "rhf"
			},
			{
				"type": "unocc",
				"energy": -0.02357,
				"method": "rhf"
			},
			{
				"type": "unocc",
				"energy": 0.02206,
				"method": "rhf"
			},
			{
				"type": "unocc",
				"energy": 0.03714,
				"method": "rhf"
			},
			{
				"type": "unocc",
				"energy": 0.0642,
				"method": "rhf"
			},
			{
				"type": "unocc",
				"energy": 0.09504,
				"method": "rhf"
			}
		],
		"cosmo_sigma_profile": { 
			"-0.025": 0.0,
			"-0.024": 0.0,
			"-0.023": 0.0,
			"-0.022": 0.0,
			"-0.021": 0.0,
			"-0.02": 0.0,
			"-0.019": 0.0,
			"-0.018": 0.0,
			"-0.017": 0.0,
			"-0.016": 0.0,
			"-0.015": 0.0966838855101,
			"-0.014": 1.12376701034,
			"-0.013": 1.46046347273,
			"-0.012": 1.34513722909,
			"-0.011": 1.46860227938,
			"-0.01": 2.61593862166,
			"-0.009": 1.87655298027,
			"-0.008": 3.36450158351,
			"-0.007": 5.92285509592,
			"-0.006": 12.7379771472,
			"-0.005": 16.6284593579,
			"-0.004": 16.8701631035,
			"-0.003": 18.0406589749,
			"-0.002": 15.3009262138,
			"-0.001": 17.0128781881,
			"0.0": 20.1989199133,
			"0.001": 20.0176020485,
			"0.002": 19.573416454,
			"0.003": 15.8547930412,
			"0.004": 9.16294775845,
			"0.005": 6.83327198174,
			"0.006": 5.42534284828,
			"0.007": 6.53738636581,
			"0.008": 4.90558400277,
			"0.009": 3.89994335685,
			"0.01": 3.2331007838,
			"0.011": 3.6083812672,
			"0.012": 2.56214059015,
			"0.013": 2.53509056716,
			"0.014": 2.03116036804,
			"0.015": 0.931986999499,
			"0.016": 0.0422018135467,
			"0.017": 0.0,
			"0.018": 0.0,
			"0.019": 0.0,
			"0.02": 0.0,
			"0.021": 0.0,
			"0.022": 0.0,
			"0.023": 0.0,
			"0.024": 0.0,
			"0.025": 0.0
		}
	}
}
