{
	 "smiles": "COC(=O)CCCCCN1C(S)=NC2=C(C=CC=C2)C1=O", 
	 "Tm": 290.15, 
	 "num_atms": 39, 
	 "gaussian": { 
		 "optdone": 1, 
		 "sigma_profile": "yes", 
		 "theory": "DFT", 
		 "functional": "B3LYP", 
		 "basiset": "6-31G**", 
		 "properties": { 
			 "R2extent": 9971.1902, 
			 "electric_dipole_moment_norm": 2.20863964014, 
			 "electric_quadrupole_moment_norm": 16.7441556162, 
			 "total_energy": -1315.85157054, 
			 "HOMO_LUMO_gap": 0.18036, 
			 "cosmo_polarized_energy": -15.77, 
			 "cosmo_cavitation_energy": 43.7, 
			 "cosmo_dispersion_energy": -31.1, 
			 "cosmo_repulsion_energy": 2.37, 
			 "cosmo_total_nonelectrostatic_energy": 14.98, 
			 "SMD_solvation_energy": 6.96 
		},
		"coords": [
			{
				"x": -3.6604270727,
				"y": -3.1798232754,
				"z": 3.8056271496,
				"element": "C" 
			},
			{
				"x": -3.2951441505,
				"y": -1.8165352961,
				"z": 3.5340545486,
				"element": "O" 
			},
			{
				"x": -1.9717868962,
				"y": -1.5983786734,
				"z": 3.3550916989,
				"element": "C" 
			},
			{
				"x": -1.1399776907,
				"y": -2.4794147023,
				"z": 3.3990720166,
				"element": "O" 
			},
			{
				"x": -1.6856530944,
				"y": -0.124202691,
				"z": 3.1345188964,
				"element": "C" 
			},
			{
				"x": -0.3442854567,
				"y": 0.1267971016,
				"z": 2.4328457697,
				"element": "C" 
			},
			{
				"x": -0.2903025506,
				"y": -0.3106511696,
				"z": 0.9590433809,
				"element": "C" 
			},
			{
				"x": -1.1833540752,
				"y": 0.5266765845,
				"z": 0.0326137642,
				"element": "C" 
			},
			{
				"x": -1.1548856172,
				"y": 0.1019464954,
				"z": -1.4442615346,
				"element": "C" 
			},
			{
				"x": 0.1658622561,
				"y": 0.2371324102,
				"z": -2.0941773204,
				"element": "N" 
			},
			{
				"x": 0.6208933163,
				"y": 1.4326366364,
				"z": -2.6163428018,
				"element": "C" 
			},
			{
				"x": -0.4911436141,
				"y": 2.8343678585,
				"z": -2.4987911547,
				"element": "S" 
			},
			{
				"x": 1.765032834,
				"y": 1.6199971315,
				"z": -3.1886945816,
				"element": "N" 
			},
			{
				"x": 2.6156413901,
				"y": 0.5341381373,
				"z": -3.3052315738,
				"element": "C" 
			},
			{
				"x": 2.2551814429,
				"y": -0.7485135979,
				"z": -2.8398214348,
				"element": "C" 
			},
			{
				"x": 3.1371585102,
				"y": -1.8327177983,
				"z": -2.9824673251,
				"element": "C" 
			},
			{
				"x": 4.3720421689,
				"y": -1.6432533247,
				"z": -3.5822794369,
				"element": "C" 
			},
			{
				"x": 4.7369172619,
				"y": -0.3654567357,
				"z": -4.046627957,
				"element": "C" 
			},
			{
				"x": 3.8746348535,
				"y": 0.7114573796,
				"z": -3.9131855222,
				"element": "C" 
			},
			{
				"x": 0.9531420438,
				"y": -0.9436876837,
				"z": -2.201865749,
				"element": "C" 
			},
			{
				"x": 0.5320005411,
				"y": -2.0117109658,
				"z": -1.7760107914,
				"element": "O" 
			},
			{
				"x": -4.7444130205,
				"y": -3.1776523418,
				"z": 3.9203684079,
				"element": "H" 
			},
			{
				"x": -3.3629991237,
				"y": -3.8301412515,
				"z": 2.9791794734,
				"element": "H" 
			},
			{
				"x": -3.1787345763,
				"y": -3.5339844505,
				"z": 4.7206478512,
				"element": "H" 
			},
			{
				"x": -1.6796471719,
				"y": 0.3428467764,
				"z": 4.128724307,
				"element": "H" 
			},
			{
				"x": -2.5315578284,
				"y": 0.3233796176,
				"z": 2.6039466342,
				"element": "H" 
			},
			{
				"x": -0.1076595086,
				"y": 1.1959525375,
				"z": 2.5065080627,
				"element": "H" 
			},
			{
				"x": 0.4319627376,
				"y": -0.4103908895,
				"z": 2.9867071622,
				"element": "H" 
			},
			{
				"x": 0.7489924638,
				"y": -0.2323336193,
				"z": 0.6197839146,
				"element": "H" 
			},
			{
				"x": -0.5501099058,
				"y": -1.3717155489,
				"z": 0.8770349829,
				"element": "H" 
			},
			{
				"x": -0.9130629507,
				"y": 1.5866985681,
				"z": 0.117974089,
				"element": "H" 
			},
			{
				"x": -2.2327869301,
				"y": 0.4546884055,
				"z": 0.3468898508,
				"element": "H" 
			},
			{
				"x": -1.8761598404,
				"y": 0.6843001845,
				"z": -2.0252213464,
				"element": "H" 
			},
			{
				"x": -1.4164054958,
				"y": -0.9526681924,
				"z": -1.5376489812,
				"element": "H" 
			},
			{
				"x": 0.3714300821,
				"y": 3.63340466,
				"z": -3.1520514028,
				"element": "H" 
			},
			{
				"x": 2.8231954068,
				"y": -2.802825177,
				"z": -2.6120821457,
				"element": "H" 
			},
			{
				"x": 5.0581718209,
				"y": -2.4770262368,
				"z": -3.6942342554,
				"element": "H" 
			},
			{
				"x": 5.7060564276,
				"y": -0.2214768532,
				"z": -4.5160481414,
				"element": "H" 
			},
			{
				"x": 4.1391810131,
				"y": 1.7022399904,
				"z": -4.2672885047,
				"element": "H" 
			}
		],
		 "valence_orbital": [ 
			{
				"type": "occ",
				"energy": -0.27573,
				"method": "rhf"
			},
			{
				"type": "occ",
				"energy": -0.26882,
				"method": "rhf"
			},
			{
				"type": "occ",
				"energy": -0.26526,
				"method": "rhf"
			},
			{
				"type": "occ",
				"energy": -0.25998,
				"method": "rhf"
			},
			{
				"type": "occ",
				"energy": -0.22298,
				"method": "rhf"
			},
			{
				"type": "unocc",
				"energy": -0.04262,
				"method": "rhf"
			},
			{
				"type": "unocc",
				"energy": -0.03402,
				"method": "rhf"
			},
			{
				"type": "unocc",
				"energy": 0.00272,
				"method": "rhf"
			},
			{
				"type": "unocc",
				"energy": 0.01415,
				"method": "rhf"
			},
			{
				"type": "unocc",
				"energy": 0.02738,
				"method": "rhf"
			}
		],
		"cosmo_sigma_profile": { 
			"-0.025": 0.0,
			"-0.024": 0.0,
			"-0.023": 0.0,
			"-0.022": 0.0,
			"-0.021": 0.0,
			"-0.02": 0.0,
			"-0.019": 0.0,
			"-0.018": 0.0,
			"-0.017": 0.0,
			"-0.016": 0.0,
			"-0.015": 0.0,
			"-0.014": 0.0,
			"-0.013": 0.0,
			"-0.012": 0.485946061248,
			"-0.011": 1.44691624666,
			"-0.01": 1.45040255677,
			"-0.009": 0.667795155082,
			"-0.008": 0.928440623225,
			"-0.007": 3.96799363403,
			"-0.006": 16.3102116665,
			"-0.005": 25.721871635,
			"-0.004": 35.451753895,
			"-0.003": 39.916595658,
			"-0.002": 34.2274538397,
			"-0.001": 27.6673361989,
			"0.0": 21.8388679836,
			"0.001": 21.6775642738,
			"0.002": 23.4915574528,
			"0.003": 21.9247381479,
			"0.004": 17.1328684466,
			"0.005": 8.95692340813,
			"0.006": 7.37777443208,
			"0.007": 6.28442438382,
			"0.008": 5.96615278255,
			"0.009": 4.64786996447,
			"0.01": 4.16812941299,
			"0.011": 5.85403302046,
			"0.012": 7.6333604665,
			"0.013": 2.93422296213,
			"0.014": 0.0,
			"0.015": 0.0,
			"0.016": 0.0,
			"0.017": 0.0,
			"0.018": 0.0,
			"0.019": 0.0,
			"0.02": 0.0,
			"0.021": 0.0,
			"0.022": 0.0,
			"0.023": 0.0,
			"0.024": 0.0,
			"0.025": 0.0
		}
	}
}
