{
	 "smiles": "FC1=CC=C(C=NN=C2SC(=NN2C2=CC=CC=C2)C(=O)C2=CC=C(Cl)C=C2)C=C1", 
	 "Tm": 423.15, 
	 "num_atms": 44, 
	 "gaussian": { 
		 "optdone": 1, 
		 "sigma_profile": "yes", 
		 "theory": "DFT", 
		 "functional": "B3LYP", 
		 "basiset": "6-31G**", 
		 "properties": { 
			 "R2extent": 22612.6517, 
			 "electric_dipole_moment_norm": 2.95871413455, 
			 "electric_quadrupole_moment_norm": 11.4369809347, 
			 "total_energy": -2099.14804515, 
			 "HOMO_LUMO_gap": 0.10865, 
			 "cosmo_polarized_energy": -13.34, 
			 "cosmo_cavitation_energy": 55.41, 
			 "cosmo_dispersion_energy": -37.75, 
			 "cosmo_repulsion_energy": 2.75, 
			 "cosmo_total_nonelectrostatic_energy": 20.41, 
			 "SMD_solvation_energy": 8.38 
		},
		"coords": [
			{
				"x": -7.1861939249,
				"y": -0.1321627229,
				"z": -2.4453747421,
				"element": "F" 
			},
			{
				"x": -6.0400294038,
				"y": 0.4843567536,
				"z": -2.0930824554,
				"element": "C" 
			},
			{
				"x": -5.9547122289,
				"y": 1.8669739393,
				"z": -2.2073404928,
				"element": "C" 
			},
			{
				"x": -4.7647659486,
				"y": 2.4913196252,
				"z": -1.8397570686,
				"element": "C" 
			},
			{
				"x": -3.6711288156,
				"y": 1.7474564789,
				"z": -1.3643014991,
				"element": "C" 
			},
			{
				"x": -2.4435194883,
				"y": 2.444608945,
				"z": -0.9893062538,
				"element": "C" 
			},
			{
				"x": -1.4047713226,
				"y": 1.8176702489,
				"z": -0.5527708134,
				"element": "N" 
			},
			{
				"x": -0.3667610197,
				"y": 2.6760606502,
				"z": -0.2285959616,
				"element": "N" 
			},
			{
				"x": 0.7351522439,
				"y": 2.1191741317,
				"z": 0.1420352425,
				"element": "C" 
			},
			{
				"x": 2.0672264295,
				"y": 3.138419035,
				"z": 0.7266903642,
				"element": "S" 
			},
			{
				"x": 2.9660969542,
				"y": 1.665348038,
				"z": 1.1005364568,
				"element": "C" 
			},
			{
				"x": 2.3674222721,
				"y": 0.5606720512,
				"z": 0.7925104867,
				"element": "N" 
			},
			{
				"x": 1.1460189451,
				"y": 0.7729630633,
				"z": 0.237049411,
				"element": "N" 
			},
			{
				"x": 0.4776032582,
				"y": -0.3959890203,
				"z": -0.2697660187,
				"element": "C" 
			},
			{
				"x": 0.2347666344,
				"y": -0.5245340591,
				"z": -1.6385124231,
				"element": "C" 
			},
			{
				"x": -0.3619258296,
				"y": -1.688363556,
				"z": -2.1185486585,
				"element": "C" 
			},
			{
				"x": -0.6982863369,
				"y": -2.7225084059,
				"z": -1.2398283177,
				"element": "C" 
			},
			{
				"x": -0.4372139721,
				"y": -2.5890246967,
				"z": 0.1249392137,
				"element": "C" 
			},
			{
				"x": 0.1517588099,
				"y": -1.4227323438,
				"z": 0.6158331309,
				"element": "C" 
			},
			{
				"x": 4.315001293,
				"y": 1.8277056262,
				"z": 1.7091116017,
				"element": "C" 
			},
			{
				"x": 4.672384564,
				"y": 2.9867289447,
				"z": 1.9089078216,
				"element": "O" 
			},
			{
				"x": 5.1956374182,
				"y": 0.6769261099,
				"z": 2.0645465183,
				"element": "C" 
			},
			{
				"x": 6.4121083299,
				"y": 0.9988532462,
				"z": 2.6931688122,
				"element": "C" 
			},
			{
				"x": 7.3112952233,
				"y": 0.0073372932,
				"z": 3.0638300399,
				"element": "C" 
			},
			{
				"x": 6.9924224688,
				"y": -1.3269862028,
				"z": 2.7999880901,
				"element": "C" 
			},
			{
				"x": 8.1192336915,
				"y": -2.5877213362,
				"z": 3.2620484743,
				"element": "Cl" 
			},
			{
				"x": 5.7945207694,
				"y": -1.6740022416,
				"z": 2.1752798379,
				"element": "C" 
			},
			{
				"x": 4.8982581541,
				"y": -0.6722751124,
				"z": 1.8092760523,
				"element": "C" 
			},
			{
				"x": -3.795434777,
				"y": 0.3474317107,
				"z": -1.262681148,
				"element": "C" 
			},
			{
				"x": -4.9769789373,
				"y": -0.2868228523,
				"z": -1.6252369366,
				"element": "C" 
			},
			{
				"x": -6.8058767984,
				"y": 2.4292012347,
				"z": -2.5754062517,
				"element": "H" 
			},
			{
				"x": -4.6803206042,
				"y": 3.5716750579,
				"z": -1.9215120209,
				"element": "H" 
			},
			{
				"x": -2.4253307197,
				"y": 3.5354805936,
				"z": -1.084587633,
				"element": "H" 
			},
			{
				"x": 0.5017911047,
				"y": 0.282603948,
				"z": -2.3117605053,
				"element": "H" 
			},
			{
				"x": -0.5571039602,
				"y": -1.7908393541,
				"z": -3.1816539284,
				"element": "H" 
			},
			{
				"x": -1.158066185,
				"y": -3.6300302736,
				"z": -1.6195352318,
				"element": "H" 
			},
			{
				"x": -0.6939649408,
				"y": -3.3900900075,
				"z": 0.8115064313,
				"element": "H" 
			},
			{
				"x": 0.3574595526,
				"y": -1.3023585124,
				"z": 1.6740864115,
				"element": "H" 
			},
			{
				"x": 6.633767784,
				"y": 2.0431585088,
				"z": 2.882816327,
				"element": "H" 
			},
			{
				"x": 8.2475314409,
				"y": 0.2575884497,
				"z": 3.5499578177,
				"element": "H" 
			},
			{
				"x": 5.567723811,
				"y": -2.7155544089,
				"z": 1.9773236494,
				"element": "H" 
			},
			{
				"x": 3.9690149316,
				"y": -0.9412098057,
				"z": 1.3246395469,
				"element": "H" 
			},
			{
				"x": -2.9527080905,
				"y": -0.2278977571,
				"z": -0.8959671878,
				"element": "H" 
			},
			{
				"x": -5.0914027803,
				"y": -1.3631110145,
				"z": -1.5526561897,
				"element": "H" 
			}
		],
		 "valence_orbital": [ 
			{
				"type": "occ",
				"energy": -0.26549,
				"method": "rhf"
			},
			{
				"type": "occ",
				"energy": -0.26152,
				"method": "rhf"
			},
			{
				"type": "occ",
				"energy": -0.25617,
				"method": "rhf"
			},
			{
				"type": "occ",
				"energy": -0.22904,
				"method": "rhf"
			},
			{
				"type": "occ",
				"energy": -0.20459,
				"method": "rhf"
			},
			{
				"type": "unocc",
				"energy": -0.09594,
				"method": "rhf"
			},
			{
				"type": "unocc",
				"energy": -0.05573,
				"method": "rhf"
			},
			{
				"type": "unocc",
				"energy": -0.02881,
				"method": "rhf"
			},
			{
				"type": "unocc",
				"energy": -0.02428,
				"method": "rhf"
			},
			{
				"type": "unocc",
				"energy": -0.02388,
				"method": "rhf"
			}
		],
		"cosmo_sigma_profile": { 
			"-0.025": 0.0,
			"-0.024": 0.0,
			"-0.023": 0.0,
			"-0.022": 0.0,
			"-0.021": 0.0,
			"-0.02": 0.0,
			"-0.019": 0.0,
			"-0.018": 0.0,
			"-0.017": 0.0,
			"-0.016": 0.0,
			"-0.015": 0.0,
			"-0.014": 0.0,
			"-0.013": 0.0,
			"-0.012": 0.0,
			"-0.011": 0.0,
			"-0.01": 0.0,
			"-0.009": 0.0,
			"-0.008": 3.67224743634,
			"-0.007": 15.8921631467,
			"-0.006": 23.815247086,
			"-0.005": 29.4543432491,
			"-0.004": 27.4898978075,
			"-0.003": 26.7353445985,
			"-0.002": 26.9222798577,
			"-0.001": 30.5013411977,
			"0.0": 44.0557916168,
			"0.001": 52.472243334,
			"0.002": 53.137321172,
			"0.003": 46.6354289667,
			"0.004": 37.667725079,
			"0.005": 9.6880335489,
			"0.006": 5.22727292025,
			"0.007": 4.13047567413,
			"0.008": 3.49416964832,
			"0.009": 3.72773676271,
			"0.01": 4.1428125805,
			"0.011": 2.58249756875,
			"0.012": 0.695902225535,
			"0.013": 0.377896865751,
			"0.014": 0.0,
			"0.015": 0.0,
			"0.016": 0.0,
			"0.017": 0.0,
			"0.018": 0.0,
			"0.019": 0.0,
			"0.02": 0.0,
			"0.021": 0.0,
			"0.022": 0.0,
			"0.023": 0.0,
			"0.024": 0.0,
			"0.025": 0.0
		}
	}
}
