{
	 "smiles": "COC1=C(C=CC=C1)N1C(C)=NN=C1SCC(O)=O", 
	 "Tm": 443.15, 
	 "num_atms": 32, 
	 "gaussian": { 
		 "optdone": 1, 
		 "sigma_profile": "yes", 
		 "theory": "DFT", 
		 "functional": "B3LYP", 
		 "basiset": "6-31G**", 
		 "properties": { 
			 "R2extent": 5210.7477, 
			 "electric_dipole_moment_norm": 4.67562987735, 
			 "electric_quadrupole_moment_norm": 20.0196589439, 
			 "total_energy": -1253.20290226, 
			 "HOMO_LUMO_gap": 0.19154, 
			 "cosmo_polarized_energy": -22.52, 
			 "cosmo_cavitation_energy": 38.26, 
			 "cosmo_dispersion_energy": -25.9, 
			 "cosmo_repulsion_energy": 1.98, 
			 "cosmo_total_nonelectrostatic_energy": 14.34, 
			 "SMD_solvation_energy": 6.28 
		},
		"coords": [
			{
				"x": 2.5378455248,
				"y": -1.6808959609,
				"z": -0.8667796364,
				"element": "C" 
			},
			{
				"x": 1.767350529,
				"y": -0.7551561008,
				"z": -0.1077282703,
				"element": "O" 
			},
			{
				"x": 1.7003728252,
				"y": 0.5313389992,
				"z": -0.5140158916,
				"element": "C" 
			},
			{
				"x": 0.7034342922,
				"y": 1.3193120689,
				"z": 0.103862615,
				"element": "C" 
			},
			{
				"x": 0.557353139,
				"y": 2.6640982707,
				"z": -0.226876081,
				"element": "C" 
			},
			{
				"x": 1.3967867978,
				"y": 3.2507589267,
				"z": -1.1762084747,
				"element": "C" 
			},
			{
				"x": 2.3740059274,
				"y": 2.4727083699,
				"z": -1.7952666659,
				"element": "C" 
			},
			{
				"x": 2.5296994187,
				"y": 1.1217155532,
				"z": -1.4751776875,
				"element": "C" 
			},
			{
				"x": -0.1478195716,
				"y": 0.7058968825,
				"z": 1.0726821584,
				"element": "N" 
			},
			{
				"x": -0.0181981462,
				"y": 0.7208376966,
				"z": 2.4523995482,
				"element": "C" 
			},
			{
				"x": 0.9875560436,
				"y": 1.5379072375,
				"z": 3.1882830835,
				"element": "C" 
			},
			{
				"x": -0.8946612742,
				"y": -0.0874723837,
				"z": 2.9949670583,
				"element": "N" 
			},
			{
				"x": -1.6301551355,
				"y": -0.6675677436,
				"z": 1.9735774429,
				"element": "N" 
			},
			{
				"x": -1.1638561154,
				"y": -0.1951795706,
				"z": 0.8452266754,
				"element": "C" 
			},
			{
				"x": -1.7419709675,
				"y": -0.5872516248,
				"z": -0.7781953928,
				"element": "S" 
			},
			{
				"x": -2.5244997212,
				"y": -2.1792246922,
				"z": -0.3758316331,
				"element": "C" 
			},
			{
				"x": -1.5576506841,
				"y": -3.346006587,
				"z": -0.2280389068,
				"element": "C" 
			},
			{
				"x": -2.2384947428,
				"y": -4.4408007517,
				"z": 0.183433505,
				"element": "O" 
			},
			{
				"x": -0.3695764728,
				"y": -3.3522267926,
				"z": -0.4470097569,
				"element": "O" 
			},
			{
				"x": 2.2687861446,
				"y": -1.6394356495,
				"z": -1.9281594083,
				"element": "H" 
			},
			{
				"x": 3.6131396967,
				"y": -1.4944060456,
				"z": -0.7518724154,
				"element": "H" 
			},
			{
				"x": 2.2824395296,
				"y": -2.663437502,
				"z": -0.4729456676,
				"element": "H" 
			},
			{
				"x": -0.2257637765,
				"y": 3.238232696,
				"z": 0.2587797015,
				"element": "H" 
			},
			{
				"x": 1.280492419,
				"y": 4.2983751198,
				"z": -1.4329019544,
				"element": "H" 
			},
			{
				"x": 3.0288303213,
				"y": 2.9163215374,
				"z": -2.5397333177,
				"element": "H" 
			},
			{
				"x": 3.2980343604,
				"y": 0.5356063037,
				"z": -1.9653820632,
				"element": "H" 
			},
			{
				"x": 0.8609938241,
				"y": 2.6094108653,
				"z": 3.0007308743,
				"element": "H" 
			},
			{
				"x": 0.8623065448,
				"y": 1.3504193543,
				"z": 4.2556576289,
				"element": "H" 
			},
			{
				"x": 2.0097318901,
				"y": 1.2694645725,
				"z": 2.9001527753,
				"element": "H" 
			},
			{
				"x": -3.0946169702,
				"y": -2.0739660229,
				"z": 0.5494916775,
				"element": "H" 
			},
			{
				"x": -3.2264450786,
				"y": -2.3998075746,
				"z": -1.1854593351,
				"element": "H" 
			},
			{
				"x": -1.5839505719,
				"y": -5.1541694513,
				"z": 0.2684378146,
				"element": "H" 
			}
		],
		 "valence_orbital": [ 
			{
				"type": "occ",
				"energy": -0.28134,
				"method": "rhf"
			},
			{
				"type": "occ",
				"energy": -0.26831,
				"method": "rhf"
			},
			{
				"type": "occ",
				"energy": -0.2455,
				"method": "rhf"
			},
			{
				"type": "occ",
				"energy": -0.22935,
				"method": "rhf"
			},
			{
				"type": "occ",
				"energy": -0.21462,
				"method": "rhf"
			},
			{
				"type": "unocc",
				"energy": -0.02308,
				"method": "rhf"
			},
			{
				"type": "unocc",
				"energy": -0.00377,
				"method": "rhf"
			},
			{
				"type": "unocc",
				"energy": 0.00511,
				"method": "rhf"
			},
			{
				"type": "unocc",
				"energy": 0.01444,
				"method": "rhf"
			},
			{
				"type": "unocc",
				"energy": 0.03476,
				"method": "rhf"
			}
		],
		"cosmo_sigma_profile": { 
			"-0.025": 0.0,
			"-0.024": 0.0,
			"-0.023": 0.0,
			"-0.022": 0.0,
			"-0.021": 0.0,
			"-0.02": 0.0,
			"-0.019": 0.399619332498,
			"-0.018": 0.918602396386,
			"-0.017": 0.883677335185,
			"-0.016": 1.00172514366,
			"-0.015": 0.816896894016,
			"-0.014": 0.474659213256,
			"-0.013": 0.229822179166,
			"-0.012": 0.881691477686,
			"-0.011": 0.933381739763,
			"-0.01": 2.93597322577,
			"-0.009": 2.93916249381,
			"-0.008": 3.04002259415,
			"-0.007": 9.00469610004,
			"-0.006": 20.1641330111,
			"-0.005": 26.6661062163,
			"-0.004": 25.0036623065,
			"-0.003": 24.0781720196,
			"-0.002": 20.1729463475,
			"-0.001": 19.3934605371,
			"0.0": 14.8405609243,
			"0.001": 14.6498838396,
			"0.002": 17.1823090309,
			"0.003": 19.3128116733,
			"0.004": 18.110552426,
			"0.005": 10.5536719067,
			"0.006": 7.54887634707,
			"0.007": 9.21936302271,
			"0.008": 7.1110392275,
			"0.009": 5.9908601658,
			"0.01": 4.92083904024,
			"0.011": 3.33182598753,
			"0.012": 3.44801948205,
			"0.013": 3.42325803402,
			"0.014": 3.18078488005,
			"0.015": 2.02672504223,
			"0.016": 1.18632516899,
			"0.017": 0.509167507397,
			"0.018": 0.0,
			"0.019": 0.0,
			"0.02": 0.0,
			"0.021": 0.0,
			"0.022": 0.0,
			"0.023": 0.0,
			"0.024": 0.0,
			"0.025": 0.0
		}
	}
}
