{
	 "smiles": "COC1=CC(CCl)=C(OC)C=C1", 
	 "Tm": 343.15, 
	 "num_atms": 23, 
	 "gaussian": { 
		 "optdone": 1, 
		 "sigma_profile": "yes", 
		 "theory": "DFT", 
		 "functional": "B3LYP", 
		 "basiset": "6-31G**", 
		 "properties": { 
			 "R2extent": 2928.0564, 
			 "electric_dipole_moment_norm": 4.18702513248, 
			 "electric_quadrupole_moment_norm": 10.4704855852, 
			 "total_energy": -960.206515126, 
			 "HOMO_LUMO_gap": 0.18067, 
			 "cosmo_polarized_energy": -10.02, 
			 "cosmo_cavitation_energy": 28.22, 
			 "cosmo_dispersion_energy": -20.57, 
			 "cosmo_repulsion_energy": 1.66, 
			 "cosmo_total_nonelectrostatic_energy": 9.31, 
			 "SMD_solvation_energy": 6.0 
		},
		"coords": [
			{
				"x": -1.1161585075,
				"y": 2.6211473254,
				"z": 3.0342799111,
				"element": "C" 
			},
			{
				"x": -0.6954090781,
				"y": 2.4943941379,
				"z": 1.6874076528,
				"element": "O" 
			},
			{
				"x": -0.372626524,
				"y": 1.2451821597,
				"z": 1.2317499577,
				"element": "C" 
			},
			{
				"x": 0.0259754154,
				"y": 1.1709308687,
				"z": -0.110304095,
				"element": "C" 
			},
			{
				"x": 0.3834795525,
				"y": -0.0396556332,
				"z": -0.6943708142,
				"element": "C" 
			},
			{
				"x": 0.8110167646,
				"y": -0.0965310186,
				"z": -2.1264169041,
				"element": "C" 
			},
			{
				"x": -0.5751926482,
				"y": -0.5274662243,
				"z": -3.2605273464,
				"element": "Cl" 
			},
			{
				"x": 0.341937593,
				"y": -1.2193457323,
				"z": 0.0843882412,
				"element": "C" 
			},
			{
				"x": 0.7132371809,
				"y": -2.3680270148,
				"z": -0.5568371067,
				"element": "O" 
			},
			{
				"x": 0.6688975004,
				"y": -3.5864567029,
				"z": 0.1658867143,
				"element": "C" 
			},
			{
				"x": -0.0530215371,
				"y": -1.1491382205,
				"z": 1.4191430739,
				"element": "C" 
			},
			{
				"x": -0.4117879882,
				"y": 0.077588477,
				"z": 1.9942705776,
				"element": "C" 
			},
			{
				"x": -2.0274481191,
				"y": 2.0409646203,
				"z": 3.2319335484,
				"element": "H" 
			},
			{
				"x": -1.3268953921,
				"y": 3.6807529398,
				"z": 3.1876866392,
				"element": "H" 
			},
			{
				"x": -0.3332950506,
				"y": 2.3050459104,
				"z": 3.736882273,
				"element": "H" 
			},
			{
				"x": 0.0466942599,
				"y": 2.0868113234,
				"z": -0.6931625883,
				"element": "H" 
			},
			{
				"x": 1.1745875029,
				"y": 0.8696038081,
				"z": -2.4743909472,
				"element": "H" 
			},
			{
				"x": 1.561618164,
				"y": -0.8657724748,
				"z": -2.2965239803,
				"element": "H" 
			},
			{
				"x": 0.9863143629,
				"y": -4.362843566,
				"z": -0.5317602673,
				"element": "H" 
			},
			{
				"x": -0.3467225023,
				"y": -3.8102064088,
				"z": 0.5167610685,
				"element": "H" 
			},
			{
				"x": 1.3509012302,
				"y": -3.5730003403,
				"z": 1.0264457163,
				"element": "H" 
			},
			{
				"x": -0.0894301634,
				"y": -2.0412775191,
				"z": 2.0326979784,
				"element": "H" 
			},
			{
				"x": -0.7147720161,
				"y": 0.0974992849,
				"z": 3.0343606973,
				"element": "H" 
			}
		],
		 "valence_orbital": [ 
			{
				"type": "occ",
				"energy": -0.29298,
				"method": "rhf"
			},
			{
				"type": "occ",
				"energy": -0.28334,
				"method": "rhf"
			},
			{
				"type": "occ",
				"energy": -0.27962,
				"method": "rhf"
			},
			{
				"type": "occ",
				"energy": -0.25175,
				"method": "rhf"
			},
			{
				"type": "occ",
				"energy": -0.20356,
				"method": "rhf"
			},
			{
				"type": "unocc",
				"energy": -0.02289,
				"method": "rhf"
			},
			{
				"type": "unocc",
				"energy": 0.01545,
				"method": "rhf"
			},
			{
				"type": "unocc",
				"energy": 0.05435,
				"method": "rhf"
			},
			{
				"type": "unocc",
				"energy": 0.08776,
				"method": "rhf"
			},
			{
				"type": "unocc",
				"energy": 0.10052,
				"method": "rhf"
			}
		],
		"cosmo_sigma_profile": { 
			"-0.025": 0.0,
			"-0.024": 0.0,
			"-0.023": 0.0,
			"-0.022": 0.0,
			"-0.021": 0.0,
			"-0.02": 0.0,
			"-0.019": 0.0,
			"-0.018": 0.0,
			"-0.017": 0.0,
			"-0.016": 0.0,
			"-0.015": 0.0,
			"-0.014": 0.0,
			"-0.013": 0.0,
			"-0.012": 0.0,
			"-0.011": 0.0,
			"-0.01": 0.0,
			"-0.009": 0.0,
			"-0.008": 0.822938214203,
			"-0.007": 5.22034069714,
			"-0.006": 15.7545168595,
			"-0.005": 24.6799614213,
			"-0.004": 23.5104052025,
			"-0.003": 23.1744419988,
			"-0.002": 13.2230598495,
			"-0.001": 8.97313161886,
			"0.0": 9.80013628377,
			"0.001": 9.22902428943,
			"0.002": 11.4693491721,
			"0.003": 13.0958554668,
			"0.004": 18.1914492355,
			"0.005": 15.9354882458,
			"0.006": 10.6761916936,
			"0.007": 12.9129148279,
			"0.008": 4.5293996204,
			"0.009": 2.62391772474,
			"0.01": 1.48368049349,
			"0.011": 0.550965775779,
			"0.012": 0.0,
			"0.013": 0.0,
			"0.014": 0.0,
			"0.015": 0.0,
			"0.016": 0.0,
			"0.017": 0.0,
			"0.018": 0.0,
			"0.019": 0.0,
			"0.02": 0.0,
			"0.021": 0.0,
			"0.022": 0.0,
			"0.023": 0.0,
			"0.024": 0.0,
			"0.025": 0.0
		}
	}
}
