{
	 "smiles": "CC1=NN(C=C1)C1=NC=CC(CO)=C1", 
	 "Tm": 366.15, 
	 "num_atms": 25, 
	 "gaussian": { 
		 "optdone": 1, 
		 "sigma_profile": "yes", 
		 "theory": "DFT", 
		 "functional": "B3LYP", 
		 "basiset": "6-31G**", 
		 "properties": { 
			 "R2extent": 3918.2754, 
			 "electric_dipole_moment_norm": 2.1454836541, 
			 "electric_quadrupole_moment_norm": 17.996396828, 
			 "total_energy": -627.149041043, 
			 "HOMO_LUMO_gap": 0.19388, 
			 "cosmo_polarized_energy": -11.34, 
			 "cosmo_cavitation_energy": 29.23, 
			 "cosmo_dispersion_energy": -21.77, 
			 "cosmo_repulsion_energy": 1.73, 
			 "cosmo_total_nonelectrostatic_energy": 9.19, 
			 "SMD_solvation_energy": 3.87 
		},
		"coords": [
			{
				"x": -2.2568826858,
				"y": 2.6606444224,
				"z": -1.1245120442,
				"element": "C" 
			},
			{
				"x": -1.1013092351,
				"y": 2.253356838,
				"z": -0.2628198597,
				"element": "C" 
			},
			{
				"x": -0.6702319981,
				"y": 0.9956216869,
				"z": -0.2624641346,
				"element": "N" 
			},
			{
				"x": 0.371117697,
				"y": 0.9772267596,
				"z": 0.6151455814,
				"element": "N" 
			},
			{
				"x": 0.6007434236,
				"y": 2.2078113193,
				"z": 1.1671730157,
				"element": "C" 
			},
			{
				"x": -0.331235808,
				"y": 3.0588907852,
				"z": 0.62405873,
				"element": "C" 
			},
			{
				"x": 1.0817550811,
				"y": -0.2161160792,
				"z": 0.8711460125,
				"element": "C" 
			},
			{
				"x": 2.0823875061,
				"y": -0.1135706671,
				"z": 1.7486949879,
				"element": "N" 
			},
			{
				"x": 2.7722544469,
				"y": -1.2292935805,
				"z": 2.0095420818,
				"element": "C" 
			},
			{
				"x": 2.5062251356,
				"y": -2.4658711179,
				"z": 1.4253393524,
				"element": "C" 
			},
			{
				"x": 1.4537082779,
				"y": -2.5525003282,
				"z": 0.5084816801,
				"element": "C" 
			},
			{
				"x": 1.0956232966,
				"y": -3.853405665,
				"z": -0.1726362977,
				"element": "C" 
			},
			{
				"x": 1.9646777777,
				"y": -4.8812927807,
				"z": 0.2686272943,
				"element": "O" 
			},
			{
				"x": 0.7216613863,
				"y": -1.4002561878,
				"z": 0.2225797344,
				"element": "C" 
			},
			{
				"x": -1.9669160283,
				"y": 3.4408949548,
				"z": -1.8372150945,
				"element": "H" 
			},
			{
				"x": -2.6249602538,
				"y": 1.7994338863,
				"z": -1.686293765,
				"element": "H" 
			},
			{
				"x": -3.0812639453,
				"y": 3.0598583187,
				"z": -0.522978966,
				"element": "H" 
			},
			{
				"x": 1.3957938138,
				"y": 2.3467096311,
				"z": 1.8815912938,
				"element": "H" 
			},
			{
				"x": -0.4489111716,
				"y": 4.1126949709,
				"z": 0.8302803336,
				"element": "H" 
			},
			{
				"x": 3.5839462828,
				"y": -1.1259775874,
				"z": 2.7272725473,
				"element": "H" 
			},
			{
				"x": 3.0941819444,
				"y": -3.3412691459,
				"z": 1.6694971289,
				"element": "H" 
			},
			{
				"x": 0.0428030844,
				"y": -4.0906330948,
				"z": 0.0525916636,
				"element": "H" 
			},
			{
				"x": 1.1620227025,
				"y": -3.7094815283,
				"z": -1.2636598813,
				"element": "H" 
			},
			{
				"x": 1.7165543352,
				"y": -5.6978560066,
				"z": -0.1801018469,
				"element": "H" 
			},
			{
				"x": -0.106045066,
				"y": -1.3933198037,
				"z": -0.4766395476,
				"element": "H" 
			}
		],
		 "valence_orbital": [ 
			{
				"type": "occ",
				"energy": -0.28322,
				"method": "rhf"
			},
			{
				"type": "occ",
				"energy": -0.2666,
				"method": "rhf"
			},
			{
				"type": "occ",
				"energy": -0.26471,
				"method": "rhf"
			},
			{
				"type": "occ",
				"energy": -0.24198,
				"method": "rhf"
			},
			{
				"type": "occ",
				"energy": -0.21954,
				"method": "rhf"
			},
			{
				"type": "unocc",
				"energy": -0.02566,
				"method": "rhf"
			},
			{
				"type": "unocc",
				"energy": -0.01789,
				"method": "rhf"
			},
			{
				"type": "unocc",
				"energy": 0.04925,
				"method": "rhf"
			},
			{
				"type": "unocc",
				"energy": 0.06484,
				"method": "rhf"
			},
			{
				"type": "unocc",
				"energy": 0.07216,
				"method": "rhf"
			}
		],
		"cosmo_sigma_profile": { 
			"-0.025": 0.0,
			"-0.024": 0.0,
			"-0.023": 0.0,
			"-0.022": 0.0,
			"-0.021": 0.0,
			"-0.02": 0.0,
			"-0.019": 0.0,
			"-0.018": 0.0,
			"-0.017": 0.132371110967,
			"-0.016": 1.15994557108,
			"-0.015": 1.20800127923,
			"-0.014": 0.912042309767,
			"-0.013": 0.607049616897,
			"-0.012": 1.42938224225,
			"-0.011": 0.791576307436,
			"-0.01": 0.430951212637,
			"-0.009": 0.378538330768,
			"-0.008": 1.79076099391,
			"-0.007": 5.06778579913,
			"-0.006": 10.366467966,
			"-0.005": 18.6996442989,
			"-0.004": 16.9504223732,
			"-0.003": 15.3620580233,
			"-0.002": 15.8713995174,
			"-0.001": 15.539257444,
			"0.0": 17.4485345739,
			"0.001": 18.4311426764,
			"0.002": 23.0266556069,
			"0.003": 16.1285700846,
			"0.004": 13.5729019446,
			"0.005": 8.5236747374,
			"0.006": 4.89138678136,
			"0.007": 5.17725136939,
			"0.008": 4.58440487918,
			"0.009": 3.85380031102,
			"0.01": 4.15345327811,
			"0.011": 4.56203167127,
			"0.012": 1.85432687069,
			"0.013": 0.0477923973136,
			"0.014": 0.0,
			"0.015": 0.0,
			"0.016": 0.0,
			"0.017": 0.0,
			"0.018": 0.0,
			"0.019": 0.0,
			"0.02": 0.0,
			"0.021": 0.0,
			"0.022": 0.0,
			"0.023": 0.0,
			"0.024": 0.0,
			"0.025": 0.0
		}
	}
}
