{
	 "smiles": "CN(C)C(C#N)C1=CNC=C1", 
	 "Tm": 345.15, 
	 "num_atms": 22, 
	 "gaussian": { 
		 "optdone": 1, 
		 "sigma_profile": "yes", 
		 "theory": "DFT", 
		 "functional": "B3LYP", 
		 "basiset": "6-31G**", 
		 "properties": { 
			 "R2extent": 1809.7448, 
			 "electric_dipole_moment_norm": 5.04935362992, 
			 "electric_quadrupole_moment_norm": 12.4434796424, 
			 "total_energy": -475.685020968, 
			 "HOMO_LUMO_gap": 0.24041, 
			 "cosmo_polarized_energy": -13.18, 
			 "cosmo_cavitation_energy": 25.56, 
			 "cosmo_dispersion_energy": -17.72, 
			 "cosmo_repulsion_energy": 1.43, 
			 "cosmo_total_nonelectrostatic_energy": 9.27, 
			 "SMD_solvation_energy": 3.94 
		},
		"coords": [
			{
				"x": -0.3047030281,
				"y": 2.647371274,
				"z": -0.5267535722,
				"element": "C" 
			},
			{
				"x": 0.6671147309,
				"y": 1.5756682774,
				"z": -0.3477948541,
				"element": "N" 
			},
			{
				"x": 1.3192863568,
				"y": 1.6377439003,
				"z": 0.9561904804,
				"element": "C" 
			},
			{
				"x": 0.1094434469,
				"y": 0.2479984634,
				"z": -0.6793065369,
				"element": "C" 
			},
			{
				"x": 1.2277398035,
				"y": -0.7079288914,
				"z": -0.8405803507,
				"element": "C" 
			},
			{
				"x": 2.1011968676,
				"y": -1.4647360936,
				"z": -0.9468545687,
				"element": "N" 
			},
			{
				"x": -0.9410993795,
				"y": -0.3187833822,
				"z": 0.2580444049,
				"element": "C" 
			},
			{
				"x": -0.7303432007,
				"y": -1.1706159954,
				"z": 1.3266691536,
				"element": "C" 
			},
			{
				"x": -1.9409472496,
				"y": -1.3970357557,
				"z": 1.929533757,
				"element": "N" 
			},
			{
				"x": -2.9305278734,
				"y": -0.7078221609,
				"z": 1.268989809,
				"element": "C" 
			},
			{
				"x": -2.3412153066,
				"y": -0.0285455239,
				"z": 0.2265664096,
				"element": "C" 
			},
			{
				"x": -1.1402684816,
				"y": 2.6196647545,
				"z": 0.1939286626,
				"element": "H" 
			},
			{
				"x": 0.2063060097,
				"y": 3.6089763905,
				"z": -0.4156527188,
				"element": "H" 
			},
			{
				"x": -0.7221874597,
				"y": 2.6052768167,
				"z": -1.5387339686,
				"element": "H" 
			},
			{
				"x": 0.6253715875,
				"y": 1.5166020021,
				"z": 1.8052397322,
				"element": "H" 
			},
			{
				"x": 1.8151571051,
				"y": 2.6084520326,
				"z": 1.0530994157,
				"element": "H" 
			},
			{
				"x": 2.0875705099,
				"y": 0.8619406724,
				"z": 1.0235090761,
				"element": "H" 
			},
			{
				"x": -0.3455327584,
				"y": 0.3554424937,
				"z": -1.6730183244,
				"element": "H" 
			},
			{
				"x": 0.1742779955,
				"y": -1.6454488654,
				"z": 1.6760636642,
				"element": "H" 
			},
			{
				"x": -2.0851553587,
				"y": -2.0005247514,
				"z": 2.7231298558,
				"element": "H" 
			},
			{
				"x": -3.9604189226,
				"y": -0.7613775185,
				"z": 1.588677844,
				"element": "H" 
			},
			{
				"x": -2.8531653945,
				"y": 0.5990818606,
				"z": -0.4896473707,
				"element": "H" 
			}
		],
		 "valence_orbital": [ 
			{
				"type": "occ",
				"energy": -0.32025,
				"method": "rhf"
			},
			{
				"type": "occ",
				"energy": -0.3175,
				"method": "rhf"
			},
			{
				"type": "occ",
				"energy": -0.25138,
				"method": "rhf"
			},
			{
				"type": "occ",
				"energy": -0.22502,
				"method": "rhf"
			},
			{
				"type": "occ",
				"energy": -0.2157,
				"method": "rhf"
			},
			{
				"type": "unocc",
				"energy": 0.02471,
				"method": "rhf"
			},
			{
				"type": "unocc",
				"energy": 0.03165,
				"method": "rhf"
			},
			{
				"type": "unocc",
				"energy": 0.04647,
				"method": "rhf"
			},
			{
				"type": "unocc",
				"energy": 0.06924,
				"method": "rhf"
			},
			{
				"type": "unocc",
				"energy": 0.08035,
				"method": "rhf"
			}
		],
		"cosmo_sigma_profile": { 
			"-0.025": 0.0,
			"-0.024": 0.0,
			"-0.023": 0.0,
			"-0.022": 0.0,
			"-0.021": 0.0,
			"-0.02": 0.0,
			"-0.019": 0.0,
			"-0.018": 0.0,
			"-0.017": 0.0,
			"-0.016": 0.646865236872,
			"-0.015": 1.93105240033,
			"-0.014": 1.08642765289,
			"-0.013": 1.55712894375,
			"-0.012": 0.860144970761,
			"-0.011": 1.03756910651,
			"-0.01": 1.38850181695,
			"-0.009": 1.2445808524,
			"-0.008": 4.22155128128,
			"-0.007": 8.63430313649,
			"-0.006": 6.27800127274,
			"-0.005": 9.27871536906,
			"-0.004": 14.715026803,
			"-0.003": 14.0390344145,
			"-0.002": 16.354344582,
			"-0.001": 22.2226681037,
			"0.0": 17.2938862705,
			"0.001": 7.94669655863,
			"0.002": 8.90695521325,
			"0.003": 8.42036343424,
			"0.004": 8.11949798914,
			"0.005": 8.11296352008,
			"0.006": 7.87218932164,
			"0.007": 7.61156572123,
			"0.008": 5.65319801823,
			"0.009": 3.79142107193,
			"0.01": 3.67158895746,
			"0.011": 3.61659627525,
			"0.012": 2.81883691792,
			"0.013": 2.25532143582,
			"0.014": 0.739522670475,
			"0.015": 0.0245965539473,
			"0.016": 0.0,
			"0.017": 0.0,
			"0.018": 0.0,
			"0.019": 0.0,
			"0.02": 0.0,
			"0.021": 0.0,
			"0.022": 0.0,
			"0.023": 0.0,
			"0.024": 0.0,
			"0.025": 0.0
		}
	}
}
