{
	 "smiles": "CCCC(O)(CCC)C1(C)CCC(C(O)=O)C(C)(C)O1", 
	 "Tm": 385.15, 
	 "num_atms": 50, 
	 "gaussian": { 
		 "optdone": 1, 
		 "sigma_profile": "yes", 
		 "theory": "DFT", 
		 "functional": "B3LYP", 
		 "basiset": "6-31G**", 
		 "properties": { 
			 "R2extent": 6680.1484, 
			 "electric_dipole_moment_norm": 3.02606809904, 
			 "electric_quadrupole_moment_norm": 11.3974675029, 
			 "total_energy": -928.692730443, 
			 "HOMO_LUMO_gap": 0.23853, 
			 "cosmo_polarized_energy": -16.19, 
			 "cosmo_cavitation_energy": 44.92, 
			 "cosmo_dispersion_energy": -30.2, 
			 "cosmo_repulsion_energy": 2.31, 
			 "cosmo_total_nonelectrostatic_energy": 17.03, 
			 "SMD_solvation_energy": 8.4 
		},
		"coords": [
			{
				"x": 1.1265776592,
				"y": -3.1996460215,
				"z": -2.9291965447,
				"element": "C" 
			},
			{
				"x": 0.6756481522,
				"y": -2.5031125503,
				"z": -1.640064984,
				"element": "C" 
			},
			{
				"x": 1.5575943868,
				"y": -1.2942940403,
				"z": -1.3021538392,
				"element": "C" 
			},
			{
				"x": 1.4463775335,
				"y": -0.6907628894,
				"z": 0.1243195763,
				"element": "C" 
			},
			{
				"x": 1.5306846687,
				"y": -1.7504022893,
				"z": 1.0920414687,
				"element": "O" 
			},
			{
				"x": 2.700086269,
				"y": 0.206804314,
				"z": 0.3744383111,
				"element": "C" 
			},
			{
				"x": 2.9534075216,
				"y": 1.468227614,
				"z": -0.4660316422,
				"element": "C" 
			},
			{
				"x": 4.3681845656,
				"y": 2.0205447475,
				"z": -0.2487176331,
				"element": "C" 
			},
			{
				"x": 0.0728831509,
				"y": 0.0269238993,
				"z": 0.4643966945,
				"element": "C" 
			},
			{
				"x": 0.210402298,
				"y": 0.7117956981,
				"z": 1.8427942062,
				"element": "C" 
			},
			{
				"x": -0.3926695541,
				"y": 0.9977198687,
				"z": -0.6317522753,
				"element": "C" 
			},
			{
				"x": -1.7694346095,
				"y": 1.6224402459,
				"z": -0.3240225109,
				"element": "C" 
			},
			{
				"x": -2.6863991834,
				"y": 0.7152643335,
				"z": 0.5332599351,
				"element": "C" 
			},
			{
				"x": -4.1711916678,
				"y": 0.942902986,
				"z": 0.2906810162,
				"element": "C" 
			},
			{
				"x": -4.4775279472,
				"y": 1.292375496,
				"z": -0.9849133363,
				"element": "O" 
			},
			{
				"x": -5.032457624,
				"y": 0.8219737802,
				"z": 1.1368723648,
				"element": "O" 
			},
			{
				"x": -2.3234771447,
				"y": -0.807146484,
				"z": 0.4245871193,
				"element": "C" 
			},
			{
				"x": -2.7910380085,
				"y": -1.4046265281,
				"z": -0.9145716278,
				"element": "C" 
			},
			{
				"x": -2.9485044357,
				"y": -1.5928376462,
				"z": 1.5855302745,
				"element": "C" 
			},
			{
				"x": -0.8992744275,
				"y": -1.0339801339,
				"z": 0.557062,
				"element": "O" 
			},
			{
				"x": 2.1550414285,
				"y": -3.5716050889,
				"z": -2.8462004717,
				"element": "H" 
			},
			{
				"x": 1.094743483,
				"y": -2.5179907101,
				"z": -3.7878768909,
				"element": "H" 
			},
			{
				"x": 0.4842387952,
				"y": -4.0550090202,
				"z": -3.1641932135,
				"element": "H" 
			},
			{
				"x": -0.3648818148,
				"y": -2.1919628149,
				"z": -1.7375004276,
				"element": "H" 
			},
			{
				"x": 0.7030590215,
				"y": -3.2036784794,
				"z": -0.7996076067,
				"element": "H" 
			},
			{
				"x": 1.4209518502,
				"y": -0.5104253705,
				"z": -2.0567284387,
				"element": "H" 
			},
			{
				"x": 2.606774415,
				"y": -1.6104787071,
				"z": -1.4112114222,
				"element": "H" 
			},
			{
				"x": 2.4069989026,
				"y": -2.1480330793,
				"z": 1.000294626,
				"element": "H" 
			},
			{
				"x": 2.7280257838,
				"y": 0.4692488395,
				"z": 1.4360925761,
				"element": "H" 
			},
			{
				"x": 3.5602248253,
				"y": -0.4623072732,
				"z": 0.2186724965,
				"element": "H" 
			},
			{
				"x": 2.2306525773,
				"y": 2.2498743327,
				"z": -0.2062039891,
				"element": "H" 
			},
			{
				"x": 2.8098536208,
				"y": 1.2552718104,
				"z": -1.5320466313,
				"element": "H" 
			},
			{
				"x": 5.1289855079,
				"y": 1.2920285547,
				"z": -0.5511971687,
				"element": "H" 
			},
			{
				"x": 4.5425303477,
				"y": 2.2603327194,
				"z": 0.8063739161,
				"element": "H" 
			},
			{
				"x": 4.5322883386,
				"y": 2.9342758159,
				"z": -0.8289728594,
				"element": "H" 
			},
			{
				"x": 0.6176386199,
				"y": -0.0040473703,
				"z": 2.558934108,
				"element": "H" 
			},
			{
				"x": -0.7526558662,
				"y": 1.0533307833,
				"z": 2.2202110935,
				"element": "H" 
			},
			{
				"x": 0.8687145304,
				"y": 1.5846867,
				"z": 1.7980227133,
				"element": "H" 
			},
			{
				"x": -0.4544270064,
				"y": 0.4388688516,
				"z": -1.5693483057,
				"element": "H" 
			},
			{
				"x": 0.3341404218,
				"y": 1.7961494001,
				"z": -0.7923932997,
				"element": "H" 
			},
			{
				"x": -1.641072726,
				"y": 2.5702057317,
				"z": 0.2100550209,
				"element": "H" 
			},
			{
				"x": -2.2621436798,
				"y": 1.8678984017,
				"z": -1.266585377,
				"element": "H" 
			},
			{
				"x": -2.570771951,
				"y": 0.9738068026,
				"z": 1.5876514919,
				"element": "H" 
			},
			{
				"x": -5.4445798845,
				"y": 1.3905687796,
				"z": -1.0029978469,
				"element": "H" 
			},
			{
				"x": -2.4023037765,
				"y": -0.850165518,
				"z": -1.772780841,
				"element": "H" 
			},
			{
				"x": -3.882938335,
				"y": -1.4067704912,
				"z": -0.9855388628,
				"element": "H" 
			},
			{
				"x": -2.4462505008,
				"y": -2.4388992042,
				"z": -0.9849222372,
				"element": "H" 
			},
			{
				"x": -2.6463162278,
				"y": -2.6413342277,
				"z": 1.5140059357,
				"element": "H" 
			},
			{
				"x": -2.5888489514,
				"y": -1.2032852088,
				"z": 2.5418131023,
				"element": "H" 
			},
			{
				"x": -4.0393433524,
				"y": -1.5317193594,
				"z": 1.5744202367,
				"element": "H" 
			}
		],
		 "valence_orbital": [ 
			{
				"type": "occ",
				"energy": -0.3021,
				"method": "rhf"
			},
			{
				"type": "occ",
				"energy": -0.28116,
				"method": "rhf"
			},
			{
				"type": "occ",
				"energy": -0.26682,
				"method": "rhf"
			},
			{
				"type": "occ",
				"energy": -0.25498,
				"method": "rhf"
			},
			{
				"type": "occ",
				"energy": -0.23551,
				"method": "rhf"
			},
			{
				"type": "unocc",
				"energy": 0.00302,
				"method": "rhf"
			},
			{
				"type": "unocc",
				"energy": 0.06108,
				"method": "rhf"
			},
			{
				"type": "unocc",
				"energy": 0.07287,
				"method": "rhf"
			},
			{
				"type": "unocc",
				"energy": 0.081,
				"method": "rhf"
			},
			{
				"type": "unocc",
				"energy": 0.09362,
				"method": "rhf"
			}
		],
		"cosmo_sigma_profile": { 
			"-0.025": 0.0,
			"-0.024": 0.0,
			"-0.023": 0.0,
			"-0.022": 0.0,
			"-0.021": 0.0,
			"-0.02": 0.0,
			"-0.019": 0.00570414601163,
			"-0.018": 0.672426586517,
			"-0.017": 0.719742986791,
			"-0.016": 1.02892898579,
			"-0.015": 0.946293262016,
			"-0.014": 1.33298202146,
			"-0.013": 1.32380988537,
			"-0.012": 1.49457175389,
			"-0.011": 2.08330127536,
			"-0.01": 1.54423468922,
			"-0.009": 1.65897220322,
			"-0.008": 1.24717164073,
			"-0.007": 1.99127042244,
			"-0.006": 4.00502893335,
			"-0.005": 4.85350069658,
			"-0.004": 15.1886917039,
			"-0.003": 32.7616467712,
			"-0.002": 49.5480224961,
			"-0.001": 48.5815616077,
			"0.0": 49.3920790575,
			"0.001": 47.1464829384,
			"0.002": 23.032443186,
			"0.003": 6.22291875248,
			"0.004": 5.50746300759,
			"0.005": 6.43078356551,
			"0.006": 4.85175614872,
			"0.007": 3.34766362743,
			"0.008": 3.97537020398,
			"0.009": 3.180413162,
			"0.01": 3.52153110724,
			"0.011": 4.13069988261,
			"0.012": 5.83387841421,
			"0.013": 1.93348864802,
			"0.014": 0.625255526056,
			"0.015": 1.23740946761,
			"0.016": 1.3448526358,
			"0.017": 0.831308203408,
			"0.018": 0.251882422229,
			"0.019": 0.972646062275,
			"0.02": 0.0643115092482,
			"0.021": 0.0,
			"0.022": 0.0,
			"0.023": 0.0,
			"0.024": 0.0,
			"0.025": 0.0
		}
	}
}
