{
	 "smiles": "COC1=C(C=C(C=C1N)C(C)(C)C)C(C)(C)C", 
	 "Tm": 353.15, 
	 "num_atms": 42, 
	 "gaussian": { 
		 "optdone": 1, 
		 "sigma_profile": "yes", 
		 "theory": "DFT", 
		 "functional": "B3LYP", 
		 "basiset": "6-31G**", 
		 "properties": { 
			 "R2extent": 4898.7437, 
			 "electric_dipole_moment_norm": 1.10855004849, 
			 "electric_quadrupole_moment_norm": 6.95795733818, 
			 "total_energy": -716.648118327, 
			 "HOMO_LUMO_gap": 0.20483, 
			 "cosmo_polarized_energy": -7.62, 
			 "cosmo_cavitation_energy": 40.03, 
			 "cosmo_dispersion_energy": -27.07, 
			 "cosmo_repulsion_energy": 2.09, 
			 "cosmo_total_nonelectrostatic_energy": 15.05, 
			 "SMD_solvation_energy": 7.62 
		},
		"coords": [
			{
				"x": -2.2506901732,
				"y": 1.689406658,
				"z": 1.0733241827,
				"element": "C" 
			},
			{
				"x": -1.7932285938,
				"y": 0.3614374021,
				"z": 1.3510984377,
				"element": "O" 
			},
			{
				"x": -0.5750040461,
				"y": 0.0506875302,
				"z": 0.7552116372,
				"element": "C" 
			},
			{
				"x": -0.4628306424,
				"y": -0.7149654474,
				"z": -0.4173361901,
				"element": "C" 
			},
			{
				"x": 0.8399322687,
				"y": -0.9383462686,
				"z": -0.9022847005,
				"element": "C" 
			},
			{
				"x": 1.9976066465,
				"y": -0.4653567702,
				"z": -0.274345754,
				"element": "C" 
			},
			{
				"x": 1.8455340123,
				"y": 0.2505592851,
				"z": 0.9160399255,
				"element": "C" 
			},
			{
				"x": 0.5747531039,
				"y": 0.5058107223,
				"z": 1.4386809877,
				"element": "C" 
			},
			{
				"x": 0.4059161962,
				"y": 1.244244369,
				"z": 2.6172563109,
				"element": "N" 
			},
			{
				"x": 3.3788075265,
				"y": -0.7561888188,
				"z": -0.8940736064,
				"element": "C" 
			},
			{
				"x": 4.5317028988,
				"y": -0.1620945204,
				"z": -0.0622987647,
				"element": "C" 
			},
			{
				"x": 3.5952455224,
				"y": -2.2852526307,
				"z": -0.9880315676,
				"element": "C" 
			},
			{
				"x": 3.4460861238,
				"y": -0.1414481847,
				"z": -2.3123001253,
				"element": "C" 
			},
			{
				"x": -1.6302717975,
				"y": -1.3565273448,
				"z": -1.2116096361,
				"element": "C" 
			},
			{
				"x": -1.6555813543,
				"y": -0.7638256007,
				"z": -2.642050147,
				"element": "C" 
			},
			{
				"x": -1.38847767,
				"y": -2.8857643225,
				"z": -1.2979914414,
				"element": "C" 
			},
			{
				"x": -3.0368214075,
				"y": -1.1677946793,
				"z": -0.6051138842,
				"element": "C" 
			},
			{
				"x": -2.4315750429,
				"y": 1.8291608154,
				"z": 0.0003983814,
				"element": "H" 
			},
			{
				"x": -1.5289068188,
				"y": 2.4393820913,
				"z": 1.415496397,
				"element": "H" 
			},
			{
				"x": -3.1920457828,
				"y": 1.8130331066,
				"z": 1.6145867769,
				"element": "H" 
			},
			{
				"x": 0.9500436992,
				"y": -1.5127827788,
				"z": -1.8148742909,
				"element": "H" 
			},
			{
				"x": 2.7074631301,
				"y": 0.6228508846,
				"z": 1.4596508335,
				"element": "H" 
			},
			{
				"x": -0.44449746,
				"y": 0.9954278511,
				"z": 3.1082861206,
				"element": "H" 
			},
			{
				"x": 1.2122905817,
				"y": 1.2298438648,
				"z": 3.227620244,
				"element": "H" 
			},
			{
				"x": 5.488977687,
				"y": -0.3875537339,
				"z": -0.5437574422,
				"element": "H" 
			},
			{
				"x": 4.5644578663,
				"y": -0.5833105745,
				"z": 0.9480477859,
				"element": "H" 
			},
			{
				"x": 4.4534556434,
				"y": 0.9268038691,
				"z": 0.0226874283,
				"element": "H" 
			},
			{
				"x": 2.8341457524,
				"y": -2.7669301928,
				"z": -1.6086246972,
				"element": "H" 
			},
			{
				"x": 4.5742104929,
				"y": -2.5070779441,
				"z": -1.4286450633,
				"element": "H" 
			},
			{
				"x": 3.5565875827,
				"y": -2.7469578741,
				"z": 0.004158801,
				"element": "H" 
			},
			{
				"x": 2.6762854047,
				"y": -0.553947574,
				"z": -2.9708787824,
				"element": "H" 
			},
			{
				"x": 3.3051944971,
				"y": 0.9437989082,
				"z": -2.2745025016,
				"element": "H" 
			},
			{
				"x": 4.4211710321,
				"y": -0.3423413645,
				"z": -2.7712404329,
				"element": "H" 
			},
			{
				"x": -1.8331456314,
				"y": 0.3165615443,
				"z": -2.614333652,
				"element": "H" 
			},
			{
				"x": -2.4602453806,
				"y": -1.2231796066,
				"z": -3.2277653268,
				"element": "H" 
			},
			{
				"x": -0.7160729684,
				"y": -0.9319949431,
				"z": -3.1759839157,
				"element": "H" 
			},
			{
				"x": -2.1936741897,
				"y": -3.3605432597,
				"z": -1.8700842349,
				"element": "H" 
			},
			{
				"x": -0.4433122597,
				"y": -3.1340810584,
				"z": -1.7874122744,
				"element": "H" 
			},
			{
				"x": -1.3745585456,
				"y": -3.332986761,
				"z": -0.2986739204,
				"element": "H" 
			},
			{
				"x": -3.7541052057,
				"y": -1.7273405021,
				"z": -1.2169139073,
				"element": "H" 
			},
			{
				"x": -3.0988312653,
				"y": -1.5379426026,
				"z": 0.4194878026,
				"element": "H" 
			},
			{
				"x": -3.354791433,
				"y": -0.1232735439,
				"z": -0.6058057939,
				"element": "H" 
			}
		],
		 "valence_orbital": [ 
			{
				"type": "occ",
				"energy": -0.30493,
				"method": "rhf"
			},
			{
				"type": "occ",
				"energy": -0.28442,
				"method": "rhf"
			},
			{
				"type": "occ",
				"energy": -0.26244,
				"method": "rhf"
			},
			{
				"type": "occ",
				"energy": -0.22324,
				"method": "rhf"
			},
			{
				"type": "occ",
				"energy": -0.19135,
				"method": "rhf"
			},
			{
				"type": "unocc",
				"energy": 0.01348,
				"method": "rhf"
			},
			{
				"type": "unocc",
				"energy": 0.02089,
				"method": "rhf"
			},
			{
				"type": "unocc",
				"energy": 0.07607,
				"method": "rhf"
			},
			{
				"type": "unocc",
				"energy": 0.08149,
				"method": "rhf"
			},
			{
				"type": "unocc",
				"energy": 0.09828,
				"method": "rhf"
			}
		],
		"cosmo_sigma_profile": { 
			"-0.025": 0.0,
			"-0.024": 0.0,
			"-0.023": 0.0,
			"-0.022": 0.0,
			"-0.021": 0.0,
			"-0.02": 0.0,
			"-0.019": 0.0,
			"-0.018": 0.0,
			"-0.017": 0.0,
			"-0.016": 0.0,
			"-0.015": 0.0,
			"-0.014": 0.0,
			"-0.013": 0.0,
			"-0.012": 0.86018475409,
			"-0.011": 1.04468575557,
			"-0.01": 2.10836555671,
			"-0.009": 2.71199933278,
			"-0.008": 2.84161150241,
			"-0.007": 1.99186829775,
			"-0.006": 2.20182686529,
			"-0.005": 5.25919489175,
			"-0.004": 11.5172427803,
			"-0.003": 26.7287181563,
			"-0.002": 50.2907796573,
			"-0.001": 38.7903044075,
			"0.0": 35.2604233254,
			"0.001": 44.5809033196,
			"0.002": 31.8140246361,
			"0.003": 10.5363279682,
			"0.004": 7.46431155047,
			"0.005": 7.80950589344,
			"0.006": 8.37231979067,
			"0.007": 7.98946200589,
			"0.008": 3.06211854271,
			"0.009": 1.86978631148,
			"0.01": 0.97943078923,
			"0.011": 1.62533920852,
			"0.012": 0.769861027795,
			"0.013": 0.664002143945,
			"0.014": 0.36876160712,
			"0.015": 0.00727673184807,
			"0.016": 0.0,
			"0.017": 0.0,
			"0.018": 0.0,
			"0.019": 0.0,
			"0.02": 0.0,
			"0.021": 0.0,
			"0.022": 0.0,
			"0.023": 0.0,
			"0.024": 0.0,
			"0.025": 0.0
		}
	}
}
