{
	 "smiles": "CC(C)C(NC(=O)C1=CC=CC=C1)C#N", 
	 "Tm": 380.15, 
	 "num_atms": 29, 
	 "gaussian": { 
		 "optdone": 1, 
		 "sigma_profile": "yes", 
		 "theory": "DFT", 
		 "functional": "B3LYP", 
		 "basiset": "6-31G**", 
		 "properties": { 
			 "R2extent": 4026.6711, 
			 "electric_dipole_moment_norm": 4.38926945402, 
			 "electric_quadrupole_moment_norm": 18.805404771, 
			 "total_energy": -650.449792601, 
			 "HOMO_LUMO_gap": 0.21312, 
			 "cosmo_polarized_energy": -15.36, 
			 "cosmo_cavitation_energy": 33.29, 
			 "cosmo_dispersion_energy": -22.47, 
			 "cosmo_repulsion_energy": 1.77, 
			 "cosmo_total_nonelectrostatic_energy": 12.59, 
			 "SMD_solvation_energy": 7.39 
		},
		"coords": [
			{
				"x": 0.4723117087,
				"y": -3.2283317953,
				"z": 0.1752098105,
				"element": "C" 
			},
			{
				"x": 0.2638203331,
				"y": -2.5952215941,
				"z": -1.2070535465,
				"element": "C" 
			},
			{
				"x": -1.2243998481,
				"y": -2.4062630105,
				"z": -1.5274988134,
				"element": "C" 
			},
			{
				"x": 1.0298383917,
				"y": -1.2474287295,
				"z": -1.365561589,
				"element": "C" 
			},
			{
				"x": 0.6023333167,
				"y": -0.2029849396,
				"z": -0.4462487505,
				"element": "N" 
			},
			{
				"x": -0.1136711015,
				"y": 0.8870329733,
				"z": -0.8862016228,
				"element": "C" 
			},
			{
				"x": -0.475914819,
				"y": 0.9934713332,
				"z": -2.0540344166,
				"element": "O" 
			},
			{
				"x": -0.4429545425,
				"y": 1.9228313201,
				"z": 0.1483522495,
				"element": "C" 
			},
			{
				"x": 0.2942746771,
				"y": 2.0993895848,
				"z": 1.3282371013,
				"element": "C" 
			},
			{
				"x": -0.0662659256,
				"y": 3.0914020374,
				"z": 2.2402013402,
				"element": "C" 
			},
			{
				"x": -1.1651978954,
				"y": 3.9128781329,
				"z": 1.9818985497,
				"element": "C" 
			},
			{
				"x": -1.8952357559,
				"y": 3.7502970174,
				"z": 0.8014818639,
				"element": "C" 
			},
			{
				"x": -1.5315779529,
				"y": 2.7658267706,
				"z": -0.1139193015,
				"element": "C" 
			},
			{
				"x": 2.4876272035,
				"y": -1.4525585362,
				"z": -1.2431330202,
				"element": "C" 
			},
			{
				"x": 3.6276870004,
				"y": -1.6370245908,
				"z": -1.1247138969,
				"element": "N" 
			},
			{
				"x": -0.0183040911,
				"y": -4.2051541723,
				"z": 0.2225908119,
				"element": "H" 
			},
			{
				"x": 0.0327020169,
				"y": -2.6092716737,
				"z": 0.9664620096,
				"element": "H" 
			},
			{
				"x": 1.5333862915,
				"y": -3.3756967722,
				"z": 0.4000535579,
				"element": "H" 
			},
			{
				"x": 0.6995320577,
				"y": -3.2660845401,
				"z": -1.9595215522,
				"element": "H" 
			},
			{
				"x": -1.7052680223,
				"y": -1.7532918342,
				"z": -0.7921706457,
				"element": "H" 
			},
			{
				"x": -1.7400924968,
				"y": -3.3713312382,
				"z": -1.5047638522,
				"element": "H" 
			},
			{
				"x": -1.372512863,
				"y": -1.9603024943,
				"z": -2.5152042188,
				"element": "H" 
			},
			{
				"x": 0.8242246842,
				"y": -0.8469514231,
				"z": -2.3644539625,
				"element": "H" 
			},
			{
				"x": 0.8000918373,
				"y": -0.311775416,
				"z": 0.5361168366,
				"element": "H" 
			},
			{
				"x": 1.1761579211,
				"y": 1.4964418275,
				"z": 1.5268974114,
				"element": "H" 
			},
			{
				"x": 0.5164306562,
				"y": 3.2283967209,
				"z": 3.1462388375,
				"element": "H" 
			},
			{
				"x": -1.4460358714,
				"y": 4.6833242114,
				"z": 2.6941299229,
				"element": "H" 
			},
			{
				"x": -2.7451456292,
				"y": 4.3938092683,
				"z": 0.5942740153,
				"element": "H" 
			},
			{
				"x": -2.0744412813,
				"y": 2.6307715621,
				"z": -1.0431651295,
				"element": "H" 
			}
		],
		 "valence_orbital": [ 
			{
				"type": "occ",
				"energy": -0.32412,
				"method": "rhf"
			},
			{
				"type": "occ",
				"energy": -0.27527,
				"method": "rhf"
			},
			{
				"type": "occ",
				"energy": -0.26958,
				"method": "rhf"
			},
			{
				"type": "occ",
				"energy": -0.26645,
				"method": "rhf"
			},
			{
				"type": "occ",
				"energy": -0.25991,
				"method": "rhf"
			},
			{
				"type": "unocc",
				"energy": -0.04679,
				"method": "rhf"
			},
			{
				"type": "unocc",
				"energy": -0.01738,
				"method": "rhf"
			},
			{
				"type": "unocc",
				"energy": 0.02328,
				"method": "rhf"
			},
			{
				"type": "unocc",
				"energy": 0.03288,
				"method": "rhf"
			},
			{
				"type": "unocc",
				"energy": 0.04869,
				"method": "rhf"
			}
		],
		"cosmo_sigma_profile": { 
			"-0.025": 0.0,
			"-0.024": 0.0,
			"-0.023": 0.0,
			"-0.022": 0.0,
			"-0.021": 0.0,
			"-0.02": 0.0,
			"-0.019": 0.0,
			"-0.018": 0.0,
			"-0.017": 0.0,
			"-0.016": 0.0,
			"-0.015": 0.219735471996,
			"-0.014": 0.910727360858,
			"-0.013": 1.2430679281,
			"-0.012": 1.38162025773,
			"-0.011": 1.3658842858,
			"-0.01": 1.79491514364,
			"-0.009": 2.2727878741,
			"-0.008": 3.36620187292,
			"-0.007": 4.70206675118,
			"-0.006": 12.4679402834,
			"-0.005": 15.4066738937,
			"-0.004": 19.5016260346,
			"-0.003": 25.1698424383,
			"-0.002": 26.4789796612,
			"-0.001": 21.8449221611,
			"0.0": 22.2850004156,
			"0.001": 17.2574333051,
			"0.002": 13.1417387529,
			"0.003": 13.3139058772,
			"0.004": 16.2579932354,
			"0.005": 7.21701117468,
			"0.006": 4.06795357358,
			"0.007": 3.49284067495,
			"0.008": 5.13425501813,
			"0.009": 4.74152597506,
			"0.01": 4.35453871192,
			"0.011": 4.78442703106,
			"0.012": 4.46124498356,
			"0.013": 5.14916181692,
			"0.014": 0.484522449232,
			"0.015": 0.0,
			"0.016": 0.0,
			"0.017": 0.0,
			"0.018": 0.0,
			"0.019": 0.0,
			"0.02": 0.0,
			"0.021": 0.0,
			"0.022": 0.0,
			"0.023": 0.0,
			"0.024": 0.0,
			"0.025": 0.0
		}
	}
}
