{
	 "smiles": "NC1=CC=C(N)C2=C1C(=O)C1=C(C(N)=CC=C1N)C2=O", 
	 "Tm": 558.15, 
	 "num_atms": 32, 
	 "gaussian": { 
		 "optdone": 1, 
		 "sigma_profile": "yes", 
		 "theory": "DFT", 
		 "functional": "B3LYP", 
		 "basiset": "6-31G**", 
		 "properties": { 
			 "R2extent": 5142.2678, 
			 "electric_dipole_moment_norm": 2.01026680319, 
			 "electric_quadrupole_moment_norm": 21.7147387861, 
			 "total_energy": -910.229961417, 
			 "HOMO_LUMO_gap": 0.08515, 
			 "cosmo_polarized_energy": -18.57, 
			 "cosmo_cavitation_energy": 33.79, 
			 "cosmo_dispersion_energy": -26.63, 
			 "cosmo_repulsion_energy": 1.97, 
			 "cosmo_total_nonelectrostatic_energy": 9.12, 
			 "SMD_solvation_energy": 5.06 
		},
		"coords": [
			{
				"x": -1.7725498717,
				"y": -3.3969048184,
				"z": -0.3466350609,
				"element": "N" 
			},
			{
				"x": -0.8554970983,
				"y": -2.5888127454,
				"z": -0.9602893551,
				"element": "C" 
			},
			{
				"x": -0.2504801801,
				"y": -3.0474321824,
				"z": -2.1598047761,
				"element": "C" 
			},
			{
				"x": 0.7125893374,
				"y": -2.3186919153,
				"z": -2.8049990355,
				"element": "C" 
			},
			{
				"x": 1.157947867,
				"y": -1.065280341,
				"z": -2.309179934,
				"element": "C" 
			},
			{
				"x": 2.1600886782,
				"y": -0.4213126143,
				"z": -2.9811971186,
				"element": "N" 
			},
			{
				"x": 0.5582192232,
				"y": -0.5628034973,
				"z": -1.1235757571,
				"element": "C" 
			},
			{
				"x": -0.452112886,
				"y": -1.3273190045,
				"z": -0.4466901836,
				"element": "C" 
			},
			{
				"x": -1.0884003393,
				"y": -0.7984332705,
				"z": 0.7647257408,
				"element": "C" 
			},
			{
				"x": -1.9920075459,
				"y": -1.4610447265,
				"z": 1.3478061504,
				"element": "O" 
			},
			{
				"x": -0.6791434018,
				"y": 0.5092390233,
				"z": 1.2887575095,
				"element": "C" 
			},
			{
				"x": 0.3310926608,
				"y": 1.2737823754,
				"z": 0.6118051287,
				"element": "C" 
			},
			{
				"x": 0.7108702554,
				"y": 2.5499612099,
				"z": 1.1067048859,
				"element": "C" 
			},
			{
				"x": 1.6980100216,
				"y": 3.3143477831,
				"z": 0.5482554517,
				"element": "N" 
			},
			{
				"x": 0.0495751574,
				"y": 3.043662104,
				"z": 2.2617675397,
				"element": "C" 
			},
			{
				"x": -0.9133518405,
				"y": 2.3148538162,
				"z": 2.9071149277,
				"element": "C" 
			},
			{
				"x": -1.3023036945,
				"y": 1.0263181191,
				"z": 2.4558570929,
				"element": "C" 
			},
			{
				"x": -2.2339814155,
				"y": 0.3384614777,
				"z": 3.1834567411,
				"element": "N" 
			},
			{
				"x": 0.9584308953,
				"y": 0.7505035423,
				"z": -0.606657609,
				"element": "C" 
			},
			{
				"x": 1.8310871281,
				"y": 1.4324623959,
				"z": -1.2140433648,
				"element": "O" 
			},
			{
				"x": -2.2795678142,
				"y": -2.9834750716,
				"z": 0.4282632019,
				"element": "H" 
			},
			{
				"x": -2.1647501307,
				"y": -4.1609918558,
				"z": -0.8721675883,
				"element": "H" 
			},
			{
				"x": -0.5608105237,
				"y": -4.0085214524,
				"z": -2.5630738064,
				"element": "H" 
			},
			{
				"x": 1.1615863345,
				"y": -2.7052371209,
				"z": -3.7169219409,
				"element": "H" 
			},
			{
				"x": 2.3587936644,
				"y": 0.5262037767,
				"z": -2.6792944667,
				"element": "H" 
			},
			{
				"x": 2.3796024778,
				"y": -0.7225472853,
				"z": -3.9165616061,
				"element": "H" 
			},
			{
				"x": 2.0532432901,
				"y": 2.9952799866,
				"z": -0.3464309914,
				"element": "H" 
			},
			{
				"x": 1.7604820523,
				"y": 4.2837164052,
				"z": 0.8133059693,
				"element": "H" 
			},
			{
				"x": 0.3295605501,
				"y": 4.0236640653,
				"z": 2.6410104305,
				"element": "H" 
			},
			{
				"x": -1.3925747461,
				"y": 2.7202332348,
				"z": 3.7951662302,
				"element": "H" 
			},
			{
				"x": -2.584245708,
				"y": -0.5147061588,
				"z": 2.7617325016,
				"element": "H" 
			},
			{
				"x": -2.7833023974,
				"y": 0.8448247445,
				"z": 3.8584930926,
				"element": "H" 
			}
		],
		 "valence_orbital": [ 
			{
				"type": "occ",
				"energy": -0.2447,
				"method": "rhf"
			},
			{
				"type": "occ",
				"energy": -0.24284,
				"method": "rhf"
			},
			{
				"type": "occ",
				"energy": -0.23642,
				"method": "rhf"
			},
			{
				"type": "occ",
				"energy": -0.18294,
				"method": "rhf"
			},
			{
				"type": "occ",
				"energy": -0.16175,
				"method": "rhf"
			},
			{
				"type": "unocc",
				"energy": -0.0766,
				"method": "rhf"
			},
			{
				"type": "unocc",
				"energy": -0.01304,
				"method": "rhf"
			},
			{
				"type": "unocc",
				"energy": -0.00441,
				"method": "rhf"
			},
			{
				"type": "unocc",
				"energy": 0.04146,
				"method": "rhf"
			},
			{
				"type": "unocc",
				"energy": 0.07459,
				"method": "rhf"
			}
		],
		"cosmo_sigma_profile": { 
			"-0.025": 0.0,
			"-0.024": 0.0,
			"-0.023": 0.0,
			"-0.022": 0.0,
			"-0.021": 0.0,
			"-0.02": 0.0,
			"-0.019": 0.0,
			"-0.018": 0.0,
			"-0.017": 0.0,
			"-0.016": 0.0,
			"-0.015": 0.0,
			"-0.014": 0.150860611,
			"-0.013": 3.7807853688,
			"-0.012": 5.95708940675,
			"-0.011": 6.37363707873,
			"-0.01": 5.50860083823,
			"-0.009": 5.23459716106,
			"-0.008": 7.030425982,
			"-0.007": 12.9832345937,
			"-0.006": 13.4520365997,
			"-0.005": 11.3554569241,
			"-0.004": 8.96072986288,
			"-0.003": 8.67443717906,
			"-0.002": 8.36199632886,
			"-0.001": 8.53326511733,
			"0.0": 8.94894858046,
			"0.001": 14.0138976463,
			"0.002": 18.7870309181,
			"0.003": 34.9319919151,
			"0.004": 37.8949475001,
			"0.005": 11.4130397385,
			"0.006": 7.77990532629,
			"0.007": 10.5403179142,
			"0.008": 7.27449833767,
			"0.009": 6.62193038429,
			"0.01": 4.29753558835,
			"0.011": 1.27594230447,
			"0.012": 0.0,
			"0.013": 0.0,
			"0.014": 0.0,
			"0.015": 0.0,
			"0.016": 0.0,
			"0.017": 0.0,
			"0.018": 0.0,
			"0.019": 0.0,
			"0.02": 0.0,
			"0.021": 0.0,
			"0.022": 0.0,
			"0.023": 0.0,
			"0.024": 0.0,
			"0.025": 0.0
		}
	}
}
