{
	 "smiles": "NS(=O)(=O)C1=C2CCCC2=CC(=C1)C(O)=O", 
	 "Tm": 573.15, 
	 "num_atms": 27, 
	 "gaussian": { 
		 "optdone": 1, 
		 "sigma_profile": "yes", 
		 "theory": "DFT", 
		 "functional": "B3LYP", 
		 "basiset": "6-31G**", 
		 "properties": { 
			 "R2extent": 4537.6681, 
			 "electric_dipole_moment_norm": 3.6003647718, 
			 "electric_quadrupole_moment_norm": 16.4384895906, 
			 "total_energy": -1141.49129287, 
			 "HOMO_LUMO_gap": 0.19861, 
			 "cosmo_polarized_energy": -19.09, 
			 "cosmo_cavitation_energy": 31.82, 
			 "cosmo_dispersion_energy": -23.85, 
			 "cosmo_repulsion_energy": 1.83, 
			 "cosmo_total_nonelectrostatic_energy": 9.8, 
			 "SMD_solvation_energy": 5.7 
		},
		"coords": [
			{
				"x": 2.3272640042,
				"y": -0.1156711384,
				"z": -2.647461677,
				"element": "N" 
			},
			{
				"x": 2.4744828104,
				"y": -0.736376149,
				"z": -1.0739400829,
				"element": "S" 
			},
			{
				"x": 2.0777152676,
				"y": -2.1445034824,
				"z": -1.1760598651,
				"element": "O" 
			},
			{
				"x": 3.7737760597,
				"y": -0.3517597885,
				"z": -0.513356958,
				"element": "O" 
			},
			{
				"x": 1.2114325265,
				"y": 0.1788799942,
				"z": -0.1878141777,
				"element": "C" 
			},
			{
				"x": -0.1427720327,
				"y": 0.0496743319,
				"z": -0.5135191738,
				"element": "C" 
			},
			{
				"x": -0.8161934349,
				"y": -0.7574514571,
				"z": -1.5998613231,
				"element": "C" 
			},
			{
				"x": -2.3045239584,
				"y": -0.7584600177,
				"z": -1.1691954305,
				"element": "C" 
			},
			{
				"x": -2.4850321159,
				"y": 0.5202488378,
				"z": -0.3141142566,
				"element": "C" 
			},
			{
				"x": -1.0926832943,
				"y": 0.7744864964,
				"z": 0.2247389049,
				"element": "C" 
			},
			{
				"x": -0.70108919,
				"y": 1.5977064896,
				"z": 1.2735324309,
				"element": "C" 
			},
			{
				"x": 0.6591362414,
				"y": 1.7043693161,
				"z": 1.6006302787,
				"element": "C" 
			},
			{
				"x": 1.6192908542,
				"y": 0.9944116229,
				"z": 0.8685590103,
				"element": "C" 
			},
			{
				"x": 1.0338383493,
				"y": 2.5865041902,
				"z": 2.7383237743,
				"element": "C" 
			},
			{
				"x": 2.3686262106,
				"y": 2.6197798503,
				"z": 2.9671411594,
				"element": "O" 
			},
			{
				"x": 0.2439114946,
				"y": 3.2231094464,
				"z": 3.4075254923,
				"element": "O" 
			},
			{
				"x": 2.4411541951,
				"y": -0.8869911258,
				"z": -3.301375675,
				"element": "H" 
			},
			{
				"x": 3.0317287947,
				"y": 0.6010583144,
				"z": -2.8070245434,
				"element": "H" 
			},
			{
				"x": -0.6727123308,
				"y": -0.2511128659,
				"z": -2.5642482707,
				"element": "H" 
			},
			{
				"x": -0.3928894706,
				"y": -1.7592317967,
				"z": -1.7018320618,
				"element": "H" 
			},
			{
				"x": -2.9889903274,
				"y": -0.7998494835,
				"z": -2.0203371574,
				"element": "H" 
			},
			{
				"x": -2.4989539502,
				"y": -1.6399216544,
				"z": -0.5488318644,
				"element": "H" 
			},
			{
				"x": -2.8057171457,
				"y": 1.3688577656,
				"z": -0.9342516382,
				"element": "H" 
			},
			{
				"x": -3.2339323788,
				"y": 0.4048845765,
				"z": 0.4757142368,
				"element": "H" 
			},
			{
				"x": -1.4205171565,
				"y": 2.1624374281,
				"z": 1.8581644493,
				"element": "H" 
			},
			{
				"x": 2.6710378627,
				"y": 1.0679062659,
				"z": 1.1154495308,
				"element": "H" 
			},
			{
				"x": 2.4953121151,
				"y": 3.2160140332,
				"z": 3.7232448878,
				"element": "H" 
			}
		],
		 "valence_orbital": [ 
			{
				"type": "occ",
				"energy": -0.30668,
				"method": "rhf"
			},
			{
				"type": "occ",
				"energy": -0.30032,
				"method": "rhf"
			},
			{
				"type": "occ",
				"energy": -0.28214,
				"method": "rhf"
			},
			{
				"type": "occ",
				"energy": -0.26931,
				"method": "rhf"
			},
			{
				"type": "occ",
				"energy": -0.25858,
				"method": "rhf"
			},
			{
				"type": "unocc",
				"energy": -0.05997,
				"method": "rhf"
			},
			{
				"type": "unocc",
				"energy": -0.03501,
				"method": "rhf"
			},
			{
				"type": "unocc",
				"energy": 0.03604,
				"method": "rhf"
			},
			{
				"type": "unocc",
				"energy": 0.05477,
				"method": "rhf"
			},
			{
				"type": "unocc",
				"energy": 0.07502,
				"method": "rhf"
			}
		],
		"cosmo_sigma_profile": { 
			"-0.025": 0.0,
			"-0.024": 0.0,
			"-0.023": 0.0,
			"-0.022": 0.0,
			"-0.021": 0.0,
			"-0.02": 0.0,
			"-0.019": 0.203623136844,
			"-0.018": 1.09290892457,
			"-0.017": 0.861728966261,
			"-0.016": 0.646821843887,
			"-0.015": 2.02740475968,
			"-0.014": 3.50151117672,
			"-0.013": 3.21746941441,
			"-0.012": 3.15634999769,
			"-0.011": 3.59916956505,
			"-0.01": 2.37825057507,
			"-0.009": 2.17941130363,
			"-0.008": 2.12853824421,
			"-0.007": 2.70124921067,
			"-0.006": 3.93207783955,
			"-0.005": 5.83509933685,
			"-0.004": 14.9880362329,
			"-0.003": 26.0299954533,
			"-0.002": 25.3645811406,
			"-0.001": 23.5632595036,
			"0.0": 22.8448286924,
			"0.001": 19.902543377,
			"0.002": 11.444932679,
			"0.003": 6.23392008463,
			"0.004": 6.96428570026,
			"0.005": 6.01357248075,
			"0.006": 7.06979763688,
			"0.007": 5.81394431692,
			"0.008": 5.49690284438,
			"0.009": 5.59002674107,
			"0.01": 9.03562388426,
			"0.011": 13.0815359778,
			"0.012": 5.19601920218,
			"0.013": 0.0109170408988,
			"0.014": 0.0,
			"0.015": 0.0,
			"0.016": 0.0,
			"0.017": 0.0,
			"0.018": 0.0,
			"0.019": 0.0,
			"0.02": 0.0,
			"0.021": 0.0,
			"0.022": 0.0,
			"0.023": 0.0,
			"0.024": 0.0,
			"0.025": 0.0
		}
	}
}
