{
	 "smiles": "CCCCCCCCCCCCCCCCOCC(O)CO", 
	 "Tm": 337.15, 
	 "num_atms": 62, 
	 "gaussian": { 
		 "optdone": 1, 
		 "sigma_profile": "yes", 
		 "theory": "DFT", 
		 "functional": "B3LYP", 
		 "basiset": "6-31G**", 
		 "properties": { 
			 "R2extent": 16266.295, 
			 "electric_dipole_moment_norm": 2.12216063011, 
			 "electric_quadrupole_moment_norm": 19.3542863852, 
			 "total_energy": -973.8205379, 
			 "HOMO_LUMO_gap": 0.32341, 
			 "cosmo_polarized_energy": -10.37, 
			 "cosmo_cavitation_energy": 60.38, 
			 "cosmo_dispersion_energy": -39.72, 
			 "cosmo_repulsion_energy": 3.22, 
			 "cosmo_total_nonelectrostatic_energy": 23.89, 
			 "SMD_solvation_energy": 8.05 
		},
		"coords": [
			{
				"x": 1.9060679065,
				"y": 2.9380424436,
				"z": 6.8923931697,
				"element": "C" 
			},
			{
				"x": 2.6608957919,
				"y": 1.6703749567,
				"z": 6.4741360989,
				"element": "C" 
			},
			{
				"x": 2.3663014499,
				"y": 1.1964401533,
				"z": 5.0411422553,
				"element": "C" 
			},
			{
				"x": 2.844745292,
				"y": 2.1501831794,
				"z": 3.9375176008,
				"element": "C" 
			},
			{
				"x": 2.5902053949,
				"y": 1.6153402932,
				"z": 2.5221119899,
				"element": "C" 
			},
			{
				"x": 3.0674801029,
				"y": 2.5611560335,
				"z": 1.4126763169,
				"element": "C" 
			},
			{
				"x": 2.8103773653,
				"y": 2.0277899098,
				"z": -0.0027474172,
				"element": "C" 
			},
			{
				"x": 3.3160152845,
				"y": 2.9714164724,
				"z": -1.105335127,
				"element": "C" 
			},
			{
				"x": 3.1180417088,
				"y": 2.4735625742,
				"z": -2.5542600944,
				"element": "C" 
			},
			{
				"x": 1.8024684455,
				"y": 2.8903508876,
				"z": -3.2414178312,
				"element": "C" 
			},
			{
				"x": 0.4889502724,
				"y": 2.339919264,
				"z": -2.6597754463,
				"element": "C" 
			},
			{
				"x": 0.3389880908,
				"y": 0.8142712808,
				"z": -2.7388297275,
				"element": "C" 
			},
			{
				"x": -1.0191564869,
				"y": 0.3191772831,
				"z": -2.220590114,
				"element": "C" 
			},
			{
				"x": -1.2540444417,
				"y": -1.1942018318,
				"z": -2.3549651485,
				"element": "C" 
			},
			{
				"x": -0.3411272747,
				"y": -2.058068773,
				"z": -1.4737036117,
				"element": "C" 
			},
			{
				"x": -0.5804983572,
				"y": -3.5631658049,
				"z": -1.6390338251,
				"element": "C" 
			},
			{
				"x": -1.938562198,
				"y": -3.9593635336,
				"z": -1.4862295423,
				"element": "O" 
			},
			{
				"x": -2.4565168098,
				"y": -3.8524605538,
				"z": -0.1640650317,
				"element": "C" 
			},
			{
				"x": -3.8811217585,
				"y": -4.3959686589,
				"z": -0.218196424,
				"element": "C" 
			},
			{
				"x": -3.8912619867,
				"y": -5.731802551,
				"z": -0.7008685895,
				"element": "O" 
			},
			{
				"x": -4.7956202711,
				"y": -3.529568035,
				"z": -1.0915275965,
				"element": "C" 
			},
			{
				"x": -4.7778229139,
				"y": -2.1998264159,
				"z": -0.5777911033,
				"element": "O" 
			},
			{
				"x": 2.1157193898,
				"y": 3.195257528,
				"z": 7.9359854866,
				"element": "H" 
			},
			{
				"x": 0.8225016618,
				"y": 2.8010566811,
				"z": 6.7959034975,
				"element": "H" 
			},
			{
				"x": 2.1855164157,
				"y": 3.8017364678,
				"z": 6.2803785368,
				"element": "H" 
			},
			{
				"x": 3.7416644888,
				"y": 1.8356388006,
				"z": 6.584048311,
				"element": "H" 
			},
			{
				"x": 2.4071367618,
				"y": 0.8604661944,
				"z": 7.1701142318,
				"element": "H" 
			},
			{
				"x": 1.284842309,
				"y": 1.0290976566,
				"z": 4.9317113142,
				"element": "H" 
			},
			{
				"x": 2.8401383198,
				"y": 0.2168798432,
				"z": 4.8891868047,
				"element": "H" 
			},
			{
				"x": 3.9205513044,
				"y": 2.3394473658,
				"z": 4.0658250554,
				"element": "H" 
			},
			{
				"x": 2.3506291607,
				"y": 3.1249090544,
				"z": 4.0442040439,
				"element": "H" 
			},
			{
				"x": 1.5151712754,
				"y": 1.4216860021,
				"z": 2.3962085558,
				"element": "H" 
			},
			{
				"x": 3.087417615,
				"y": 0.6413387842,
				"z": 2.4074302424,
				"element": "H" 
			},
			{
				"x": 2.5711934756,
				"y": 3.5354649942,
				"z": 1.5283911296,
				"element": "H" 
			},
			{
				"x": 4.1427906289,
				"y": 2.7540453731,
				"z": 1.5377361919,
				"element": "H" 
			},
			{
				"x": 1.7366525871,
				"y": 1.8381445702,
				"z": -0.1239198772,
				"element": "H" 
			},
			{
				"x": 3.3042014226,
				"y": 1.0518366643,
				"z": -0.1162738652,
				"element": "H" 
			},
			{
				"x": 4.3879388162,
				"y": 3.1386615623,
				"z": -0.934149301,
				"element": "H" 
			},
			{
				"x": 2.8417101452,
				"y": 3.9568833351,
				"z": -0.9908608814,
				"element": "H" 
			},
			{
				"x": 3.9354294122,
				"y": 2.8687936441,
				"z": -3.1705198434,
				"element": "H" 
			},
			{
				"x": 3.2328042152,
				"y": 1.3816768643,
				"z": -2.5838794485,
				"element": "H" 
			},
			{
				"x": 1.8613223674,
				"y": 2.5957697229,
				"z": -4.2987139389,
				"element": "H" 
			},
			{
				"x": 1.7498508013,
				"y": 3.9878588393,
				"z": -3.2397256827,
				"element": "H" 
			},
			{
				"x": -0.3451065722,
				"y": 2.8015179953,
				"z": -3.2065036235,
				"element": "H" 
			},
			{
				"x": 0.3731784321,
				"y": 2.666357094,
				"z": -1.6179020879,
				"element": "H" 
			},
			{
				"x": 1.1481877355,
				"y": 0.3350772176,
				"z": -2.1745467626,
				"element": "H" 
			},
			{
				"x": 0.4653291292,
				"y": 0.4940302733,
				"z": -3.7837171938,
				"element": "H" 
			},
			{
				"x": -1.8151048157,
				"y": 0.8459462294,
				"z": -2.7646351722,
				"element": "H" 
			},
			{
				"x": -1.133902167,
				"y": 0.6108663628,
				"z": -1.1664204751,
				"element": "H" 
			},
			{
				"x": -2.295096156,
				"y": -1.4176451898,
				"z": -2.0958284184,
				"element": "H" 
			},
			{
				"x": -1.1280965881,
				"y": -1.4904676918,
				"z": -3.4066513482,
				"element": "H" 
			},
			{
				"x": -0.4691270761,
				"y": -1.7688314368,
				"z": -0.4220875621,
				"element": "H" 
			},
			{
				"x": 0.71530717,
				"y": -1.8754129021,
				"z": -1.7087269473,
				"element": "H" 
			},
			{
				"x": 0.0561405493,
				"y": -4.1258483632,
				"z": -0.9365945412,
				"element": "H" 
			},
			{
				"x": -0.3089180295,
				"y": -3.872220108,
				"z": -2.6547897686,
				"element": "H" 
			},
			{
				"x": -1.8516289168,
				"y": -4.4581351063,
				"z": 0.5291464565,
				"element": "H" 
			},
			{
				"x": -2.4686634892,
				"y": -2.813677793,
				"z": 0.1858251609,
				"element": "H" 
			},
			{
				"x": -4.2826357023,
				"y": -4.4163842683,
				"z": 0.8017874184,
				"element": "H" 
			},
			{
				"x": -3.2672929991,
				"y": -5.7377785504,
				"z": -1.4426371623,
				"element": "H" 
			},
			{
				"x": -4.4272490746,
				"y": -3.5662063884,
				"z": -2.1264577133,
				"element": "H" 
			},
			{
				"x": -5.8053104285,
				"y": -3.9637590138,
				"z": -1.069673389,
				"element": "H" 
			},
			{
				"x": -5.3403981821,
				"y": -1.6529768822,
				"z": -1.1387082351,
				"element": "H" 
			}
		],
		 "valence_orbital": [ 
			{
				"type": "occ",
				"energy": -0.2991,
				"method": "rhf"
			},
			{
				"type": "occ",
				"energy": -0.2898,
				"method": "rhf"
			},
			{
				"type": "occ",
				"energy": -0.2698,
				"method": "rhf"
			},
			{
				"type": "occ",
				"energy": -0.25952,
				"method": "rhf"
			},
			{
				"type": "occ",
				"energy": -0.25593,
				"method": "rhf"
			},
			{
				"type": "unocc",
				"energy": 0.06748,
				"method": "rhf"
			},
			{
				"type": "unocc",
				"energy": 0.07714,
				"method": "rhf"
			},
			{
				"type": "unocc",
				"energy": 0.08503,
				"method": "rhf"
			},
			{
				"type": "unocc",
				"energy": 0.09071,
				"method": "rhf"
			},
			{
				"type": "unocc",
				"energy": 0.09792,
				"method": "rhf"
			}
		],
		"cosmo_sigma_profile": { 
			"-0.025": 0.0,
			"-0.024": 0.0,
			"-0.023": 0.0,
			"-0.022": 0.0,
			"-0.021": 0.0,
			"-0.02": 0.0,
			"-0.019": 0.0,
			"-0.018": 0.0,
			"-0.017": 0.0,
			"-0.016": 0.519677666484,
			"-0.015": 0.917351923231,
			"-0.014": 1.38251583435,
			"-0.013": 0.871906842262,
			"-0.012": 1.04238721419,
			"-0.011": 1.28961883226,
			"-0.01": 0.811686917563,
			"-0.009": 0.969898968289,
			"-0.008": 1.84579523223,
			"-0.007": 1.45623348366,
			"-0.006": 1.83868435818,
			"-0.005": 3.25197732793,
			"-0.004": 11.1827467683,
			"-0.003": 27.9536211176,
			"-0.002": 55.8162628725,
			"-0.001": 93.0988192986,
			"0.0": 96.593958746,
			"0.001": 77.093695055,
			"0.002": 38.2447606909,
			"0.003": 6.73009376862,
			"0.004": 5.11163958287,
			"0.005": 5.13130105818,
			"0.006": 4.84486833099,
			"0.007": 3.48795670508,
			"0.008": 3.15914268393,
			"0.009": 3.007262454,
			"0.01": 2.45504832569,
			"0.011": 2.31528446866,
			"0.012": 2.03953392589,
			"0.013": 2.86840670088,
			"0.014": 3.04056550416,
			"0.015": 0.489579705479,
			"0.016": 0.0,
			"0.017": 0.0,
			"0.018": 0.0,
			"0.019": 0.0,
			"0.02": 0.0,
			"0.021": 0.0,
			"0.022": 0.0,
			"0.023": 0.0,
			"0.024": 0.0,
			"0.025": 0.0
		}
	}
}
