{
	 "smiles": "NC1=CC(NC(=O)NC2=CC(=CC=C2)C(F)(F)F)=CC=C1", 
	 "Tm": 454.15, 
	 "num_atms": 33, 
	 "gaussian": { 
		 "optdone": 1, 
		 "sigma_profile": "yes", 
		 "theory": "DFT", 
		 "functional": "B3LYP", 
		 "basiset": "6-31G**", 
		 "properties": { 
			 "R2extent": 8737.5534, 
			 "electric_dipole_moment_norm": 3.96983829016, 
			 "electric_quadrupole_moment_norm": 19.3394935332, 
			 "total_energy": -1079.76318502, 
			 "HOMO_LUMO_gap": 0.19212, 
			 "cosmo_polarized_energy": -17.5, 
			 "cosmo_cavitation_energy": 39.39, 
			 "cosmo_dispersion_energy": -27.43, 
			 "cosmo_repulsion_energy": 2.04, 
			 "cosmo_total_nonelectrostatic_energy": 14.0, 
			 "SMD_solvation_energy": 8.33 
		},
		"coords": [
			{
				"x": 2.2112967775,
				"y": -2.8770283559,
				"z": -3.4014293839,
				"element": "N" 
			},
			{
				"x": 1.9051614336,
				"y": -1.5218296383,
				"z": -3.443346579,
				"element": "C" 
			},
			{
				"x": 2.1602105613,
				"y": -0.7025728866,
				"z": -2.328712754,
				"element": "C" 
			},
			{
				"x": 1.9045352305,
				"y": 0.6746560158,
				"z": -2.3828120641,
				"element": "C" 
			},
			{
				"x": 2.1719065177,
				"y": 1.5076723041,
				"z": -1.2697252936,
				"element": "N" 
			},
			{
				"x": 1.818728004,
				"y": 1.3736782335,
				"z": 0.0699656679,
				"element": "C" 
			},
			{
				"x": 2.1571770431,
				"y": 2.2229688297,
				"z": 0.8846851443,
				"element": "O" 
			},
			{
				"x": 1.0689006781,
				"y": 0.2503855201,
				"z": 0.3655460695,
				"element": "N" 
			},
			{
				"x": 0.5914908445,
				"y": -0.1607683632,
				"z": 1.6212367106,
				"element": "C" 
			},
			{
				"x": -0.2085286691,
				"y": -1.3133514811,
				"z": 1.6511996544,
				"element": "C" 
			},
			{
				"x": -0.7045037695,
				"y": -1.7964231699,
				"z": 2.8598429895,
				"element": "C" 
			},
			{
				"x": -0.4152031969,
				"y": -1.1429218198,
				"z": 4.0600277048,
				"element": "C" 
			},
			{
				"x": 0.3783303598,
				"y": 0.0023167721,
				"z": 4.0240006153,
				"element": "C" 
			},
			{
				"x": 0.8839437137,
				"y": 0.5026520209,
				"z": 2.8247489834,
				"element": "C" 
			},
			{
				"x": -1.6088155361,
				"y": -2.9984733104,
				"z": 2.8594636178,
				"element": "C" 
			},
			{
				"x": -1.4793520255,
				"y": -3.7273281127,
				"z": 3.989688036,
				"element": "F" 
			},
			{
				"x": -2.9128374116,
				"y": -2.6457035586,
				"z": 2.7692149783,
				"element": "F" 
			},
			{
				"x": -1.3569152271,
				"y": -3.8233275751,
				"z": 1.8150634541,
				"element": "F" 
			},
			{
				"x": 1.42193414,
				"y": 1.2534431595,
				"z": -3.5647411691,
				"element": "C" 
			},
			{
				"x": 1.1932043422,
				"y": 0.4401341107,
				"z": -4.6739441161,
				"element": "C" 
			},
			{
				"x": 1.4146691325,
				"y": -0.9328708532,
				"z": -4.6226516853,
				"element": "C" 
			},
			{
				"x": 1.7482512976,
				"y": -3.4576851166,
				"z": -4.0854415863,
				"element": "H" 
			},
			{
				"x": 2.2462485119,
				"y": -3.3017421688,
				"z": -2.4860466469,
				"element": "H" 
			},
			{
				"x": 2.614914402,
				"y": -1.1322235176,
				"z": -1.4408975511,
				"element": "H" 
			},
			{
				"x": 2.5216722677,
				"y": 2.4366225714,
				"z": -1.458700077,
				"element": "H" 
			},
			{
				"x": 0.7750318892,
				"y": -0.3127996648,
				"z": -0.4207593768,
				"element": "H" 
			},
			{
				"x": -0.4397738412,
				"y": -1.8400640797,
				"z": 0.7300871091,
				"element": "H" 
			},
			{
				"x": -0.7978714933,
				"y": -1.5288901181,
				"z": 4.9979452849,
				"element": "H" 
			},
			{
				"x": 0.6141390915,
				"y": 0.5208663874,
				"z": 4.9485662421,
				"element": "H" 
			},
			{
				"x": 1.495383669,
				"y": 1.3932520625,
				"z": 2.8003282335,
				"element": "H" 
			},
			{
				"x": 1.2164216021,
				"y": 2.3185014368,
				"z": -3.6012777362,
				"element": "H" 
			},
			{
				"x": 0.8175776257,
				"y": 0.8832980956,
				"z": -5.5918160673,
				"element": "H" 
			},
			{
				"x": 1.224972035,
				"y": -1.5524437297,
				"z": -5.4948084087,
				"element": "H" 
			}
		],
		 "valence_orbital": [ 
			{
				"type": "occ",
				"energy": -0.2686,
				"method": "rhf"
			},
			{
				"type": "occ",
				"energy": -0.26283,
				"method": "rhf"
			},
			{
				"type": "occ",
				"energy": -0.24217,
				"method": "rhf"
			},
			{
				"type": "occ",
				"energy": -0.22418,
				"method": "rhf"
			},
			{
				"type": "occ",
				"energy": -0.21501,
				"method": "rhf"
			},
			{
				"type": "unocc",
				"energy": -0.02289,
				"method": "rhf"
			},
			{
				"type": "unocc",
				"energy": -0.01845,
				"method": "rhf"
			},
			{
				"type": "unocc",
				"energy": -0.00917,
				"method": "rhf"
			},
			{
				"type": "unocc",
				"energy": 0.00069,
				"method": "rhf"
			},
			{
				"type": "unocc",
				"energy": 0.06203,
				"method": "rhf"
			}
		],
		"cosmo_sigma_profile": { 
			"-0.025": 0.0,
			"-0.024": 0.0,
			"-0.023": 0.0,
			"-0.022": 0.0,
			"-0.021": 0.0,
			"-0.02": 0.0,
			"-0.019": 0.0,
			"-0.018": 0.0,
			"-0.017": 0.0,
			"-0.016": 0.0,
			"-0.015": 0.0328874686974,
			"-0.014": 0.715387157931,
			"-0.013": 2.50636454843,
			"-0.012": 4.36399163724,
			"-0.011": 5.2830183977,
			"-0.01": 5.38725257424,
			"-0.009": 5.2353094107,
			"-0.008": 5.87672550113,
			"-0.007": 8.27666694782,
			"-0.006": 13.524834468,
			"-0.005": 14.7154110601,
			"-0.004": 16.6358189559,
			"-0.003": 15.2961433305,
			"-0.002": 13.8310195055,
			"-0.001": 15.8699741078,
			"0.0": 18.6274393196,
			"0.001": 22.5681999234,
			"0.002": 32.4172484792,
			"0.003": 49.7745044362,
			"0.004": 21.7566643649,
			"0.005": 11.5607213032,
			"0.006": 9.61136592074,
			"0.007": 3.34260998841,
			"0.008": 2.00835166231,
			"0.009": 1.68641328573,
			"0.01": 2.69886226209,
			"0.011": 2.57326227822,
			"0.012": 2.84129899809,
			"0.013": 4.17326081649,
			"0.014": 1.87960432882,
			"0.015": 0.0,
			"0.016": 0.0,
			"0.017": 0.0,
			"0.018": 0.0,
			"0.019": 0.0,
			"0.02": 0.0,
			"0.021": 0.0,
			"0.022": 0.0,
			"0.023": 0.0,
			"0.024": 0.0,
			"0.025": 0.0
		}
	}
}
