{
	 "smiles": "CCCCCCCCOC=O", 
	 "Tm": 234.05, 
	 "num_atms": 29, 
	 "gaussian": { 
		 "optdone": 1, 
		 "sigma_profile": "yes", 
		 "theory": "DFT", 
		 "functional": "B3LYP", 
		 "basiset": "6-31G**", 
		 "properties": { 
			 "R2extent": 3658.0009, 
			 "electric_dipole_moment_norm": 2.14820416395, 
			 "electric_quadrupole_moment_norm": 13.007256961, 
			 "total_energy": -504.274999038, 
			 "HOMO_LUMO_gap": 0.28673, 
			 "cosmo_polarized_energy": -6.15, 
			 "cosmo_cavitation_energy": 30.76, 
			 "cosmo_dispersion_energy": -21.44, 
			 "cosmo_repulsion_energy": 1.78, 
			 "cosmo_total_nonelectrostatic_energy": 11.09, 
			 "SMD_solvation_energy": 6.6 
		},
		"coords": [
			{
				"x": -4.1498251287,
				"y": 1.6079495033,
				"z": -0.2990958141,
				"element": "C" 
			},
			{
				"x": -3.8948208412,
				"y": 0.1237017133,
				"z": -0.0114203413,
				"element": "C" 
			},
			{
				"x": -2.8011595548,
				"y": -0.1401996254,
				"z": 1.0390382038,
				"element": "C" 
			},
			{
				"x": -1.3843986121,
				"y": 0.3414094835,
				"z": 0.676236079,
				"element": "C" 
			},
			{
				"x": -0.767306769,
				"y": -0.3637492672,
				"z": -0.5407404039,
				"element": "C" 
			},
			{
				"x": 0.6464706996,
				"y": 0.1190033906,
				"z": -0.9122798461,
				"element": "C" 
			},
			{
				"x": 1.74705902,
				"y": -0.1459562483,
				"z": 0.130988971,
				"element": "C" 
			},
			{
				"x": 2.0215663285,
				"y": -1.6154529062,
				"z": 0.4139726189,
				"element": "C" 
			},
			{
				"x": 2.4743908593,
				"y": -2.2311960027,
				"z": -0.8200753337,
				"element": "O" 
			},
			{
				"x": 2.7146508881,
				"y": -3.5492900815,
				"z": -0.7645120146,
				"element": "C" 
			},
			{
				"x": 2.5902188477,
				"y": -4.2535364337,
				"z": 0.2082884747,
				"element": "O" 
			},
			{
				"x": -4.4056277828,
				"y": 2.149886935,
				"z": 0.6190424047,
				"element": "H" 
			},
			{
				"x": -4.9797170538,
				"y": 1.7360330617,
				"z": -1.0018579503,
				"element": "H" 
			},
			{
				"x": -3.2733456763,
				"y": 2.0973378023,
				"z": -0.7367869822,
				"element": "H" 
			},
			{
				"x": -4.8264693208,
				"y": -0.3353228736,
				"z": 0.3432990686,
				"element": "H" 
			},
			{
				"x": -3.6480247642,
				"y": -0.3930763311,
				"z": -0.9475643479,
				"element": "H" 
			},
			{
				"x": -2.7635566278,
				"y": -1.2187445943,
				"z": 1.2453122153,
				"element": "H" 
			},
			{
				"x": -3.10121755,
				"y": 0.3372145443,
				"z": 1.9819843779,
				"element": "H" 
			},
			{
				"x": -1.3911409085,
				"y": 1.4256167997,
				"z": 0.4991764162,
				"element": "H" 
			},
			{
				"x": -0.7430340782,
				"y": 0.1886627966,
				"z": 1.5537159043,
				"element": "H" 
			},
			{
				"x": -0.7617290036,
				"y": -1.4489417915,
				"z": -0.3668260765,
				"element": "H" 
			},
			{
				"x": -1.4114538705,
				"y": -0.2111331594,
				"z": -1.4153168209,
				"element": "H" 
			},
			{
				"x": 0.6123748445,
				"y": 1.1992631903,
				"z": -1.1056331376,
				"element": "H" 
			},
			{
				"x": 0.9466473987,
				"y": -0.3512627407,
				"z": -1.855627781,
				"element": "H" 
			},
			{
				"x": 2.6798442419,
				"y": 0.321637588,
				"z": -0.206517631,
				"element": "H" 
			},
			{
				"x": 1.4950359603,
				"y": 0.3285401157,
				"z": 1.0873414199,
				"element": "H" 
			},
			{
				"x": 2.8015089206,
				"y": -1.7405245767,
				"z": 1.1717482529,
				"element": "H" 
			},
			{
				"x": 1.1342822643,
				"y": -2.1507094478,
				"z": 0.7648735692,
				"element": "H" 
			},
			{
				"x": 3.0479772689,
				"y": -3.8952608442,
				"z": -1.7559634952,
				"element": "H" 
			}
		],
		 "valence_orbital": [ 
			{
				"type": "occ",
				"energy": -0.31764,
				"method": "rhf"
			},
			{
				"type": "occ",
				"energy": -0.31188,
				"method": "rhf"
			},
			{
				"type": "occ",
				"energy": -0.30699,
				"method": "rhf"
			},
			{
				"type": "occ",
				"energy": -0.30098,
				"method": "rhf"
			},
			{
				"type": "occ",
				"energy": -0.27867,
				"method": "rhf"
			},
			{
				"type": "unocc",
				"energy": 0.00806,
				"method": "rhf"
			},
			{
				"type": "unocc",
				"energy": 0.07112,
				"method": "rhf"
			},
			{
				"type": "unocc",
				"energy": 0.09956,
				"method": "rhf"
			},
			{
				"type": "unocc",
				"energy": 0.10478,
				"method": "rhf"
			},
			{
				"type": "unocc",
				"energy": 0.11076,
				"method": "rhf"
			}
		],
		"cosmo_sigma_profile": { 
			"-0.025": 0.0,
			"-0.024": 0.0,
			"-0.023": 0.0,
			"-0.022": 0.0,
			"-0.021": 0.0,
			"-0.02": 0.0,
			"-0.019": 0.0,
			"-0.018": 0.0,
			"-0.017": 0.0,
			"-0.016": 0.0,
			"-0.015": 0.0,
			"-0.014": 0.0,
			"-0.013": 0.0,
			"-0.012": 0.0,
			"-0.011": 0.0,
			"-0.01": 0.0,
			"-0.009": 1.71359675949,
			"-0.008": 2.82325984406,
			"-0.007": 1.82283624275,
			"-0.006": 2.36409355541,
			"-0.005": 4.94762650555,
			"-0.004": 12.1113589561,
			"-0.003": 17.9022356061,
			"-0.002": 32.0273117315,
			"-0.001": 39.8112480507,
			"0.0": 41.6272054701,
			"0.001": 35.5904406281,
			"0.002": 14.9751770974,
			"0.003": 3.85257704379,
			"0.004": 3.21177306467,
			"0.005": 2.98352834965,
			"0.006": 2.10128440943,
			"0.007": 2.47864359214,
			"0.008": 2.42090652771,
			"0.009": 1.62393895559,
			"0.01": 2.46879178219,
			"0.011": 4.44344520907,
			"0.012": 3.86133657359,
			"0.013": 0.577187707931,
			"0.014": 0.0,
			"0.015": 0.0,
			"0.016": 0.0,
			"0.017": 0.0,
			"0.018": 0.0,
			"0.019": 0.0,
			"0.02": 0.0,
			"0.021": 0.0,
			"0.022": 0.0,
			"0.023": 0.0,
			"0.024": 0.0,
			"0.025": 0.0
		}
	}
}
