{
	 "smiles": "O=CC1=CC(CN2C=NC=N2)=CC=C1", 
	 "Tm": 328.15, 
	 "num_atms": 23, 
	 "gaussian": { 
		 "optdone": 1, 
		 "sigma_profile": "yes", 
		 "theory": "DFT", 
		 "functional": "B3LYP", 
		 "basiset": "6-31G**", 
		 "properties": { 
			 "R2extent": 3716.8562, 
			 "electric_dipole_moment_norm": 2.1773367677, 
			 "electric_quadrupole_moment_norm": 27.0409659916, 
			 "total_energy": -625.939659354, 
			 "HOMO_LUMO_gap": 0.18971, 
			 "cosmo_polarized_energy": -15.7, 
			 "cosmo_cavitation_energy": 28.37, 
			 "cosmo_dispersion_energy": -20.12, 
			 "cosmo_repulsion_energy": 1.56, 
			 "cosmo_total_nonelectrostatic_energy": 9.81, 
			 "SMD_solvation_energy": 3.98 
		},
		"coords": [
			{
				"x": -1.4790090347,
				"y": 0.1110523109,
				"z": -5.2297778858,
				"element": "O" 
			},
			{
				"x": -1.5185442789,
				"y": -0.4637399773,
				"z": -4.159186878,
				"element": "C" 
			},
			{
				"x": -0.8068850766,
				"y": -0.0182057544,
				"z": -2.9386121621,
				"element": "C" 
			},
			{
				"x": -0.9233996376,
				"y": -0.7601457286,
				"z": -1.7557800733,
				"element": "C" 
			},
			{
				"x": -0.2604206619,
				"y": -0.3599121153,
				"z": -0.594435863,
				"element": "C" 
			},
			{
				"x": -0.3659807357,
				"y": -1.1870206183,
				"z": 0.6751339205,
				"element": "C" 
			},
			{
				"x": -0.7780068371,
				"y": -0.4198731397,
				"z": 1.8460627485,
				"element": "N" 
			},
			{
				"x": -2.0174257973,
				"y": -0.188702512,
				"z": 2.3369354137,
				"element": "C" 
			},
			{
				"x": -1.9594580967,
				"y": 0.6154121261,
				"z": 3.3851566855,
				"element": "N" 
			},
			{
				"x": -0.6245036779,
				"y": 0.8622337188,
				"z": 3.4912603271,
				"element": "C" 
			},
			{
				"x": 0.136948543,
				"y": 0.2619648951,
				"z": 2.585872274,
				"element": "N" 
			},
			{
				"x": 0.5233383859,
				"y": 0.8025209085,
				"z": -0.6285086079,
				"element": "C" 
			},
			{
				"x": 0.637304047,
				"y": 1.5494641566,
				"z": -1.8040182577,
				"element": "C" 
			},
			{
				"x": -0.0227539016,
				"y": 1.143008759,
				"z": -2.9602026021,
				"element": "C" 
			},
			{
				"x": -2.1158828562,
				"y": -1.394718384,
				"z": -4.032669114,
				"element": "H" 
			},
			{
				"x": -1.5387048175,
				"y": -1.6586051861,
				"z": -1.7510305995,
				"element": "H" 
			},
			{
				"x": 0.5984677956,
				"y": -1.6363741743,
				"z": 0.9285004956,
				"element": "H" 
			},
			{
				"x": -1.0857567241,
				"y": -1.9988731875,
				"z": 0.5394875071,
				"element": "H" 
			},
			{
				"x": -2.910661381,
				"y": -0.6251653665,
				"z": 1.9110763636,
				"element": "H" 
			},
			{
				"x": -0.1986915044,
				"y": 1.493335701,
				"z": 4.2591910721,
				"element": "H" 
			},
			{
				"x": 1.0342073049,
				"y": 1.1214304218,
				"z": 0.2753186367,
				"element": "H" 
			},
			{
				"x": 1.2460106253,
				"y": 2.4486783983,
				"z": -1.8116315618,
				"element": "H" 
			},
			{
				"x": 0.0501083176,
				"y": 1.7031347479,
				"z": -3.8869418391,
				"element": "H" 
			}
		],
		 "valence_orbital": [ 
			{
				"type": "occ",
				"energy": -0.28226,
				"method": "rhf"
			},
			{
				"type": "occ",
				"energy": -0.27601,
				"method": "rhf"
			},
			{
				"type": "occ",
				"energy": -0.27319,
				"method": "rhf"
			},
			{
				"type": "occ",
				"energy": -0.26638,
				"method": "rhf"
			},
			{
				"type": "occ",
				"energy": -0.26187,
				"method": "rhf"
			},
			{
				"type": "unocc",
				"energy": -0.07216,
				"method": "rhf"
			},
			{
				"type": "unocc",
				"energy": -0.02662,
				"method": "rhf"
			},
			{
				"type": "unocc",
				"energy": -0.00079,
				"method": "rhf"
			},
			{
				"type": "unocc",
				"energy": 0.02502,
				"method": "rhf"
			},
			{
				"type": "unocc",
				"energy": 0.04717,
				"method": "rhf"
			}
		],
		"cosmo_sigma_profile": { 
			"-0.025": 0.0,
			"-0.024": 0.0,
			"-0.023": 0.0,
			"-0.022": 0.0,
			"-0.021": 0.0,
			"-0.02": 0.0,
			"-0.019": 0.0,
			"-0.018": 0.0,
			"-0.017": 0.0,
			"-0.016": 0.0,
			"-0.015": 0.0,
			"-0.014": 0.0,
			"-0.013": 0.0,
			"-0.012": 0.0,
			"-0.011": 0.313652337334,
			"-0.01": 3.71606936249,
			"-0.009": 4.18032884208,
			"-0.008": 9.77674078053,
			"-0.007": 12.1267309794,
			"-0.006": 15.2957134898,
			"-0.005": 15.422808213,
			"-0.004": 14.7683794586,
			"-0.003": 12.1964337574,
			"-0.002": 11.1176410522,
			"-0.001": 12.9337210649,
			"0.0": 15.4729425876,
			"0.001": 17.2065369089,
			"0.002": 17.6430129871,
			"0.003": 15.6033315992,
			"0.004": 6.8782644328,
			"0.005": 4.98925868071,
			"0.006": 4.49884559221,
			"0.007": 3.39391014906,
			"0.008": 4.80185458477,
			"0.009": 3.949105163,
			"0.01": 4.08789369071,
			"0.011": 6.86400778218,
			"0.012": 4.99120479484,
			"0.013": 1.60258581897,
			"0.014": 1.88968007775,
			"0.015": 1.13873445784,
			"0.016": 0.968503394609,
			"0.017": 0.398561099,
			"0.018": 0.0,
			"0.019": 0.0,
			"0.02": 0.0,
			"0.021": 0.0,
			"0.022": 0.0,
			"0.023": 0.0,
			"0.024": 0.0,
			"0.025": 0.0
		}
	}
}
