{
	 "smiles": "ClC(=O)N1C2=CC=CC=C2SC2=C1C=CC=C2", 
	 "Tm": 443.15, 
	 "num_atms": 25, 
	 "gaussian": { 
		 "optdone": 1, 
		 "sigma_profile": "yes", 
		 "theory": "DFT", 
		 "functional": "B3LYP", 
		 "basiset": "6-31G**", 
		 "properties": { 
			 "R2extent": 6264.3726, 
			 "electric_dipole_moment_norm": 4.05073602818, 
			 "electric_quadrupole_moment_norm": 21.8617210697, 
			 "total_energy": -1488.56607311, 
			 "HOMO_LUMO_gap": 0.18825, 
			 "cosmo_polarized_energy": -9.17, 
			 "cosmo_cavitation_energy": 32.25, 
			 "cosmo_dispersion_energy": -23.66, 
			 "cosmo_repulsion_energy": 1.77, 
			 "cosmo_total_nonelectrostatic_energy": 10.36, 
			 "SMD_solvation_energy": 5.66 
		},
		"coords": [
			{
				"x": -2.84421712,
				"y": -4.3858364747,
				"z": 0.7205558665,
				"element": "Cl" 
			},
			{
				"x": -3.1351420694,
				"y": -2.6334818177,
				"z": 0.3617444379,
				"element": "C" 
			},
			{
				"x": -4.2425629584,
				"y": -2.1855512119,
				"z": 0.4600988706,
				"element": "O" 
			},
			{
				"x": -2.0029546829,
				"y": -1.9334215859,
				"z": 0.0070382414,
				"element": "N" 
			},
			{
				"x": -0.6935063672,
				"y": -2.4922184136,
				"z": -0.176651712,
				"element": "C" 
			},
			{
				"x": -0.4428354046,
				"y": -3.4650061681,
				"z": -1.1480387303,
				"element": "C" 
			},
			{
				"x": 0.8394225871,
				"y": -3.9903547433,
				"z": -1.289531737,
				"element": "C" 
			},
			{
				"x": 1.8834538656,
				"y": -3.5164094858,
				"z": -0.4908080383,
				"element": "C" 
			},
			{
				"x": 1.6521838892,
				"y": -2.4989949426,
				"z": 0.4327869537,
				"element": "C" 
			},
			{
				"x": 0.3623700096,
				"y": -1.9815427291,
				"z": 0.5915266273,
				"element": "C" 
			},
			{
				"x": 0.0472714899,
				"y": -0.6566458703,
				"z": 1.7413176399,
				"element": "S" 
			},
			{
				"x": -1.1722990691,
				"y": 0.2228775512,
				"z": 0.7797869413,
				"element": "C" 
			},
			{
				"x": -2.0893085725,
				"y": -0.4936229876,
				"z": -0.0015405584,
				"element": "C" 
			},
			{
				"x": -3.0415991273,
				"y": 0.1822382693,
				"z": -0.7662270748,
				"element": "C" 
			},
			{
				"x": -3.1026973542,
				"y": 1.5739354813,
				"z": -0.7180747192,
				"element": "C" 
			},
			{
				"x": -2.20087231,
				"y": 2.2912569532,
				"z": 0.0713442254,
				"element": "C" 
			},
			{
				"x": -1.2269372597,
				"y": 1.619956565,
				"z": 0.8086220011,
				"element": "C" 
			},
			{
				"x": -1.2581092296,
				"y": -3.820112279,
				"z": -1.7683850133,
				"element": "H" 
			},
			{
				"x": 1.0241828449,
				"y": -4.7617697463,
				"z": -2.0302700764,
				"element": "H" 
			},
			{
				"x": 2.8847481155,
				"y": -3.9200627781,
				"z": -0.6056551706,
				"element": "H" 
			},
			{
				"x": 2.467411359,
				"y": -2.0930893537,
				"z": 1.0233955249,
				"element": "H" 
			},
			{
				"x": -3.7437533069,
				"y": -0.3842349114,
				"z": -1.365568144,
				"element": "H" 
			},
			{
				"x": -3.8542640855,
				"y": 2.0967303114,
				"z": -1.3010447479,
				"element": "H" 
			},
			{
				"x": -2.2453232046,
				"y": 3.3756005952,
				"z": 0.1026812329,
				"element": "H" 
			},
			{
				"x": -0.5053620391,
				"y": 2.1714597727,
				"z": 1.4030971594,
				"element": "H" 
			}
		],
		 "valence_orbital": [ 
			{
				"type": "occ",
				"energy": -0.29414,
				"method": "rhf"
			},
			{
				"type": "occ",
				"energy": -0.26935,
				"method": "rhf"
			},
			{
				"type": "occ",
				"energy": -0.2612,
				"method": "rhf"
			},
			{
				"type": "occ",
				"energy": -0.25195,
				"method": "rhf"
			},
			{
				"type": "occ",
				"energy": -0.22351,
				"method": "rhf"
			},
			{
				"type": "unocc",
				"energy": -0.03526,
				"method": "rhf"
			},
			{
				"type": "unocc",
				"energy": -0.02566,
				"method": "rhf"
			},
			{
				"type": "unocc",
				"energy": -0.02213,
				"method": "rhf"
			},
			{
				"type": "unocc",
				"energy": -0.01507,
				"method": "rhf"
			},
			{
				"type": "unocc",
				"energy": 0.0033,
				"method": "rhf"
			}
		],
		"cosmo_sigma_profile": { 
			"-0.025": 0.0,
			"-0.024": 0.0,
			"-0.023": 0.0,
			"-0.022": 0.0,
			"-0.021": 0.0,
			"-0.02": 0.0,
			"-0.019": 0.0,
			"-0.018": 0.0,
			"-0.017": 0.0,
			"-0.016": 0.0,
			"-0.015": 0.0,
			"-0.014": 0.0,
			"-0.013": 0.0,
			"-0.012": 0.0,
			"-0.011": 0.0,
			"-0.01": 0.0,
			"-0.009": 0.0,
			"-0.008": 0.841456970991,
			"-0.007": 11.9100326079,
			"-0.006": 18.9019634744,
			"-0.005": 19.8154493557,
			"-0.004": 16.1517286831,
			"-0.003": 13.6869259299,
			"-0.002": 16.279545214,
			"-0.001": 17.7722901071,
			"0.0": 19.1425173135,
			"0.001": 20.8365887327,
			"0.002": 27.4414099001,
			"0.003": 30.828821633,
			"0.004": 24.1382714748,
			"0.005": 7.53709056207,
			"0.006": 5.19331924785,
			"0.007": 2.85135761814,
			"0.008": 2.22849205383,
			"0.009": 3.75463804214,
			"0.01": 4.17206788608,
			"0.011": 0.895324259755,
			"0.012": 0.0,
			"0.013": 0.0,
			"0.014": 0.0,
			"0.015": 0.0,
			"0.016": 0.0,
			"0.017": 0.0,
			"0.018": 0.0,
			"0.019": 0.0,
			"0.02": 0.0,
			"0.021": 0.0,
			"0.022": 0.0,
			"0.023": 0.0,
			"0.024": 0.0,
			"0.025": 0.0
		}
	}
}
