{
	 "smiles": "CCOC1=CC=C(C=C1OC)C(=S)N1CCOCC1", 
	 "Tm": 392.15, 
	 "num_atms": 38, 
	 "gaussian": { 
		 "optdone": 1, 
		 "sigma_profile": "yes", 
		 "theory": "DFT", 
		 "functional": "B3LYP", 
		 "basiset": "6-31G**", 
		 "properties": { 
			 "R2extent": 7930.9901, 
			 "electric_dipole_moment_norm": 3.99993925079, 
			 "electric_quadrupole_moment_norm": 12.3674544297, 
			 "total_energy": -1223.51355152, 
			 "HOMO_LUMO_gap": 0.15242, 
			 "cosmo_polarized_energy": -16.03, 
			 "cosmo_cavitation_energy": 41.34, 
			 "cosmo_dispersion_energy": -29.1, 
			 "cosmo_repulsion_energy": 2.25, 
			 "cosmo_total_nonelectrostatic_energy": 14.49, 
			 "SMD_solvation_energy": 6.48 
		},
		"coords": [
			{
				"x": -5.6263678514,
				"y": -1.4984747082,
				"z": 2.6831132298,
				"element": "C" 
			},
			{
				"x": -4.1769791822,
				"y": -1.4604080696,
				"z": 2.2353154371,
				"element": "C" 
			},
			{
				"x": -3.7831737589,
				"y": -0.0744832717,
				"z": 2.1480664819,
				"element": "O" 
			},
			{
				"x": -2.4896293609,
				"y": 0.1525231867,
				"z": 1.747524335,
				"element": "C" 
			},
			{
				"x": -2.2623048521,
				"y": 0.7849949775,
				"z": 0.5238054625,
				"element": "C" 
			},
			{
				"x": -0.964673341,
				"y": 1.0561271792,
				"z": 0.0932526348,
				"element": "C" 
			},
			{
				"x": 0.1369738626,
				"y": 0.7022652626,
				"z": 0.8885010518,
				"element": "C" 
			},
			{
				"x": -0.0945020981,
				"y": 0.0952238569,
				"z": 2.1306118181,
				"element": "C" 
			},
			{
				"x": -1.3886540311,
				"y": -0.184473975,
				"z": 2.5614448708,
				"element": "C" 
			},
			{
				"x": -1.5644255257,
				"y": -0.8143012986,
				"z": 3.7732620458,
				"element": "O" 
			},
			{
				"x": -2.0979759405,
				"y": 0.0252359172,
				"z": 4.806189258,
				"element": "C" 
			},
			{
				"x": 1.5292051181,
				"y": 1.0553815594,
				"z": 0.4711050118,
				"element": "C" 
			},
			{
				"x": 2.476973145,
				"y": 1.9852173313,
				"z": 1.493930559,
				"element": "S" 
			},
			{
				"x": 1.9298355731,
				"y": 0.6324438653,
				"z": -0.7589338686,
				"element": "N" 
			},
			{
				"x": 1.341573569,
				"y": -0.5104073918,
				"z": -1.4780446205,
				"element": "C" 
			},
			{
				"x": 1.2598623508,
				"y": -0.2066998832,
				"z": -2.9740357078,
				"element": "C" 
			},
			{
				"x": 2.5312212559,
				"y": 0.1351715326,
				"z": -3.5004595713,
				"element": "O" 
			},
			{
				"x": 3.0674300323,
				"y": 1.2693906847,
				"z": -2.8313202707,
				"element": "C" 
			},
			{
				"x": 3.2223582815,
				"y": 1.0300482368,
				"z": -1.3292248466,
				"element": "C" 
			},
			{
				"x": -5.7402171328,
				"y": -1.040705146,
				"z": 3.6701068517,
				"element": "H" 
			},
			{
				"x": -5.9737296377,
				"y": -2.5347892822,
				"z": 2.74168527,
				"element": "H" 
			},
			{
				"x": -6.2643563731,
				"y": -0.9574828723,
				"z": 1.9783498575,
				"element": "H" 
			},
			{
				"x": -4.0593280786,
				"y": -1.9247472296,
				"z": 1.2462779928,
				"element": "H" 
			},
			{
				"x": -3.5248388777,
				"y": -1.9858275439,
				"z": 2.9408172649,
				"element": "H" 
			},
			{
				"x": -3.1224863041,
				"y": 1.062668615,
				"z": -0.0771349386,
				"element": "H" 
			},
			{
				"x": -0.8058301261,
				"y": 1.5620186417,
				"z": -0.8543468384,
				"element": "H" 
			},
			{
				"x": 0.7363052313,
				"y": -0.1538802606,
				"z": 2.7812582848,
				"element": "H" 
			},
			{
				"x": -1.4170871518,
				"y": 0.8586183491,
				"z": 5.0174656388,
				"element": "H" 
			},
			{
				"x": -3.0816625789,
				"y": 0.4182412741,
				"z": 4.5299293734,
				"element": "H" 
			},
			{
				"x": -2.1873566461,
				"y": -0.6030474563,
				"z": 5.6946240963,
				"element": "H" 
			},
			{
				"x": 0.3574457207,
				"y": -0.7421512588,
				"z": -1.0759014702,
				"element": "H" 
			},
			{
				"x": 1.9935693305,
				"y": -1.3832283397,
				"z": -1.3278424373,
				"element": "H" 
			},
			{
				"x": 0.5386467276,
				"y": 0.6093535644,
				"z": -3.1484144985,
				"element": "H" 
			},
			{
				"x": 0.9199014488,
				"y": -1.0928723679,
				"z": -3.5177982381,
				"element": "H" 
			},
			{
				"x": 4.0449280643,
				"y": 1.465071666,
				"z": -3.2805206039,
				"element": "H" 
			},
			{
				"x": 2.4236272618,
				"y": 2.148346574,
				"z": -2.9985005452,
				"element": "H" 
			},
			{
				"x": 3.5648793311,
				"y": 1.9298922322,
				"z": -0.8174925156,
				"element": "H" 
			},
			{
				"x": 3.9588425442,
				"y": 0.2348458487,
				"z": -1.1478658553,
				"element": "H" 
			}
		],
		 "valence_orbital": [ 
			{
				"type": "occ",
				"energy": -0.26771,
				"method": "rhf"
			},
			{
				"type": "occ",
				"energy": -0.25211,
				"method": "rhf"
			},
			{
				"type": "occ",
				"energy": -0.23735,
				"method": "rhf"
			},
			{
				"type": "occ",
				"energy": -0.22071,
				"method": "rhf"
			},
			{
				"type": "occ",
				"energy": -0.19849,
				"method": "rhf"
			},
			{
				"type": "unocc",
				"energy": -0.04607,
				"method": "rhf"
			},
			{
				"type": "unocc",
				"energy": -0.00773,
				"method": "rhf"
			},
			{
				"type": "unocc",
				"energy": 0.00703,
				"method": "rhf"
			},
			{
				"type": "unocc",
				"energy": 0.07706,
				"method": "rhf"
			},
			{
				"type": "unocc",
				"energy": 0.08828,
				"method": "rhf"
			}
		],
		"cosmo_sigma_profile": { 
			"-0.025": 0.0,
			"-0.024": 0.0,
			"-0.023": 0.0,
			"-0.022": 0.0,
			"-0.021": 0.0,
			"-0.02": 0.0,
			"-0.019": 0.0,
			"-0.018": 0.0,
			"-0.017": 0.0,
			"-0.016": 0.0,
			"-0.015": 0.0,
			"-0.014": 0.0,
			"-0.013": 0.0,
			"-0.012": 0.0,
			"-0.011": 0.0,
			"-0.01": 0.0,
			"-0.009": 0.0,
			"-0.008": 0.0,
			"-0.007": 1.29222929069,
			"-0.006": 18.5719745608,
			"-0.005": 32.5212906619,
			"-0.004": 38.0848501183,
			"-0.003": 38.9946170029,
			"-0.002": 33.7539313241,
			"-0.001": 24.6522274176,
			"0.0": 21.5508510108,
			"0.001": 16.6928858791,
			"0.002": 15.8844293187,
			"0.003": 12.7513397932,
			"0.004": 10.3272989373,
			"0.005": 8.71383868378,
			"0.006": 8.65618786043,
			"0.007": 8.00496944094,
			"0.008": 9.55136181444,
			"0.009": 10.2060862234,
			"0.01": 6.29311641863,
			"0.011": 6.03255480657,
			"0.012": 3.90146548418,
			"0.013": 1.55394325441,
			"0.014": 0.0,
			"0.015": 0.0,
			"0.016": 0.0,
			"0.017": 0.0,
			"0.018": 0.0,
			"0.019": 0.0,
			"0.02": 0.0,
			"0.021": 0.0,
			"0.022": 0.0,
			"0.023": 0.0,
			"0.024": 0.0,
			"0.025": 0.0
		}
	}
}
