{
	 "smiles": "CC1=CC=CN=C1NC(=O)C(F)(F)C(F)(F)C(F)(F)C(F)(F)C(F)(F)C(F)(F)C(F)(F)C(F)(F)F", 
	 "Tm": 434.15, 
	 "num_atms": 42, 
	 "gaussian": { 
		 "optdone": 1, 
		 "sigma_profile": "yes", 
		 "theory": "DFT", 
		 "functional": "B3LYP", 
		 "basiset": "6-31G**", 
		 "properties": { 
			 "R2extent": 19117.8709, 
			 "electric_dipole_moment_norm": 3.46223449379, 
			 "electric_quadrupole_moment_norm": 20.6645720633, 
			 "total_energy": -2457.76959735, 
			 "HOMO_LUMO_gap": 0.20511, 
			 "cosmo_polarized_energy": -9.05, 
			 "cosmo_cavitation_energy": 51.04, 
			 "cosmo_dispersion_energy": -33.43, 
			 "cosmo_repulsion_energy": 2.17, 
			 "cosmo_total_nonelectrostatic_energy": 19.78, 
			 "SMD_solvation_energy": 12.64 
		},
		"coords": [
			{
				"x": 3.9629388629,
				"y": 0.3147651244,
				"z": -1.0418390311,
				"element": "C" 
			},
			{
				"x": 4.6087209216,
				"y": -0.3681911355,
				"z": 0.1335989474,
				"element": "C" 
			},
			{
				"x": 5.8968167248,
				"y": -0.9077237388,
				"z": 0.0366888459,
				"element": "C" 
			},
			{
				"x": 6.5287891378,
				"y": -1.4583623057,
				"z": 1.1488901467,
				"element": "C" 
			},
			{
				"x": 5.8506373233,
				"y": -1.4350720859,
				"z": 2.3657665464,
				"element": "C" 
			},
			{
				"x": 4.6116107268,
				"y": -0.9529415045,
				"z": 2.4925984882,
				"element": "N" 
			},
			{
				"x": 4.0097896126,
				"y": -0.4669471915,
				"z": 1.4045400313,
				"element": "C" 
			},
			{
				"x": 2.7051493184,
				"y": 0.0340657037,
				"z": 1.6735666186,
				"element": "N" 
			},
			{
				"x": 1.5704578476,
				"y": -0.2759112453,
				"z": 0.9836030467,
				"element": "C" 
			},
			{
				"x": 1.478996582,
				"y": -0.9269407787,
				"z": -0.0388895114,
				"element": "O" 
			},
			{
				"x": 0.2928004401,
				"y": 0.3394332644,
				"z": 1.6210559786,
				"element": "C" 
			},
			{
				"x": -0.7550275931,
				"y": -0.4785413815,
				"z": 1.3976079264,
				"element": "F" 
			},
			{
				"x": 0.4582467289,
				"y": 0.4618982864,
				"z": 2.9768355708,
				"element": "F" 
			},
			{
				"x": -0.0591470398,
				"y": 1.7678023592,
				"z": 1.1269523444,
				"element": "C" 
			},
			{
				"x": 1.0086683219,
				"y": 2.55669143,
				"z": 1.4260742551,
				"element": "F" 
			},
			{
				"x": -1.1227587493,
				"y": 2.2148288479,
				"z": 1.8310958094,
				"element": "F" 
			},
			{
				"x": -0.3340373971,
				"y": 2.0082268724,
				"z": -0.3862408579,
				"element": "C" 
			},
			{
				"x": 0.8325787488,
				"y": 1.7802007411,
				"z": -1.042313127,
				"element": "F" 
			},
			{
				"x": -0.6443889695,
				"y": 3.3211969712,
				"z": -0.5008888266,
				"element": "F" 
			},
			{
				"x": -1.4193718623,
				"y": 1.2083078172,
				"z": -1.180857207,
				"element": "C" 
			},
			{
				"x": -1.0738916529,
				"y": -0.0933443263,
				"z": -1.2201424315,
				"element": "F" 
			},
			{
				"x": -1.3624036419,
				"y": 1.7189837317,
				"z": -2.4351988602,
				"element": "F" 
			},
			{
				"x": -2.8890477898,
				"y": 1.3228623065,
				"z": -0.6886523325,
				"element": "C" 
			},
			{
				"x": -3.2565227728,
				"y": 2.6230413658,
				"z": -0.734604006,
				"element": "F" 
			},
			{
				"x": -2.9562510662,
				"y": 0.882959319,
				"z": 0.5918118393,
				"element": "F" 
			},
			{
				"x": -3.9040729123,
				"y": 0.4724976268,
				"z": -1.5085869254,
				"element": "C" 
			},
			{
				"x": -3.6846706717,
				"y": 0.6569832255,
				"z": -2.8310563195,
				"element": "F" 
			},
			{
				"x": -3.7066354841,
				"y": -0.8286823749,
				"z": -1.2076740829,
				"element": "F" 
			},
			{
				"x": -5.4131985185,
				"y": 0.8004763397,
				"z": -1.2828316044,
				"element": "C" 
			},
			{
				"x": -6.1015913076,
				"y": -0.1118632615,
				"z": -2.0080269024,
				"element": "F" 
			},
			{
				"x": -5.6688825916,
				"y": 2.0336667504,
				"z": -1.770679057,
				"element": "F" 
			},
			{
				"x": -5.9539123129,
				"y": 0.7366254338,
				"z": 0.1660836133,
				"element": "C" 
			},
			{
				"x": -5.5967402248,
				"y": -0.4112116359,
				"z": 0.753806549,
				"element": "F" 
			},
			{
				"x": -7.2892614364,
				"y": 0.8109966606,
				"z": 0.1331134751,
				"element": "F" 
			},
			{
				"x": -5.4855867774,
				"y": 1.7653327023,
				"z": 0.8849213837,
				"element": "F" 
			},
			{
				"x": 3.4586774228,
				"y": 1.2364480187,
				"z": -0.7351814401,
				"element": "H" 
			},
			{
				"x": 3.2018946344,
				"y": -0.3213640757,
				"z": -1.501886069,
				"element": "H" 
			},
			{
				"x": 4.7154890128,
				"y": 0.5689638964,
				"z": -1.7929710139,
				"element": "H" 
			},
			{
				"x": 6.4110480302,
				"y": -0.8683289368,
				"z": -0.9199610158,
				"element": "H" 
			},
			{
				"x": 7.5299968348,
				"y": -1.8707729114,
				"z": 1.0805272029,
				"element": "H" 
			},
			{
				"x": 6.3125305922,
				"y": -1.8156050961,
				"z": 3.2741265607,
				"element": "H" 
			},
			{
				"x": 2.5758629474,
				"y": 0.314349191,
				"z": 2.6387154417,
				"element": "H" 
			}
		],
		 "valence_orbital": [ 
			{
				"type": "occ",
				"energy": -0.32204,
				"method": "rhf"
			},
			{
				"type": "occ",
				"energy": -0.29046,
				"method": "rhf"
			},
			{
				"type": "occ",
				"energy": -0.28735,
				"method": "rhf"
			},
			{
				"type": "occ",
				"energy": -0.27596,
				"method": "rhf"
			},
			{
				"type": "occ",
				"energy": -0.25266,
				"method": "rhf"
			},
			{
				"type": "unocc",
				"energy": -0.04755,
				"method": "rhf"
			},
			{
				"type": "unocc",
				"energy": -0.02829,
				"method": "rhf"
			},
			{
				"type": "unocc",
				"energy": -0.00579,
				"method": "rhf"
			},
			{
				"type": "unocc",
				"energy": 0.00573,
				"method": "rhf"
			},
			{
				"type": "unocc",
				"energy": 0.02177,
				"method": "rhf"
			}
		],
		"cosmo_sigma_profile": { 
			"-0.025": 0.0,
			"-0.024": 0.0,
			"-0.023": 0.0,
			"-0.022": 0.0,
			"-0.021": 0.0,
			"-0.02": 0.0,
			"-0.019": 0.0,
			"-0.018": 0.0,
			"-0.017": 0.0,
			"-0.016": 0.0,
			"-0.015": 0.0,
			"-0.014": 0.446387950006,
			"-0.013": 0.257143908723,
			"-0.012": 0.886602568546,
			"-0.011": 0.579815294833,
			"-0.01": 1.05394943013,
			"-0.009": 0.777709176248,
			"-0.008": 2.23792344957,
			"-0.007": 7.59687310639,
			"-0.006": 10.5385364352,
			"-0.005": 10.8294401906,
			"-0.004": 11.1265370557,
			"-0.003": 18.3010713516,
			"-0.002": 23.0360552942,
			"-0.001": 43.5270299854,
			"0.0": 86.7474558181,
			"0.001": 125.294076739,
			"0.002": 28.624066548,
			"0.003": 8.70291308611,
			"0.004": 5.04542067995,
			"0.005": 3.33438024161,
			"0.006": 3.78211246364,
			"0.007": 3.76466383092,
			"0.008": 3.24888324648,
			"0.009": 3.32814725609,
			"0.01": 3.56729294918,
			"0.011": 1.19199682737,
			"0.012": 0.714782555973,
			"0.013": 0.90136112216,
			"0.014": 0.356899231486,
			"0.015": 0.0,
			"0.016": 0.0,
			"0.017": 0.0,
			"0.018": 0.0,
			"0.019": 0.0,
			"0.02": 0.0,
			"0.021": 0.0,
			"0.022": 0.0,
			"0.023": 0.0,
			"0.024": 0.0,
			"0.025": 0.0
		}
	}
}
