{
	 "smiles": "CCN1C(S)=NN=C1C1=CC=C(OC)C=C1", 
	 "Tm": 452.15, 
	 "num_atms": 29, 
	 "gaussian": { 
		 "optdone": 1, 
		 "sigma_profile": "yes", 
		 "theory": "DFT", 
		 "functional": "B3LYP", 
		 "basiset": "6-31G**", 
		 "properties": { 
			 "R2extent": 6446.1288, 
			 "electric_dipole_moment_norm": 4.6902038218, 
			 "electric_quadrupole_moment_norm": 24.0679443468, 
			 "total_energy": -1064.64057947, 
			 "HOMO_LUMO_gap": 0.19243, 
			 "cosmo_polarized_energy": -17.66, 
			 "cosmo_cavitation_energy": 34.43, 
			 "cosmo_dispersion_energy": -24.95, 
			 "cosmo_repulsion_energy": 1.91, 
			 "cosmo_total_nonelectrostatic_energy": 11.39, 
			 "SMD_solvation_energy": 4.05 
		},
		"coords": [
			{
				"x": 2.2242454212,
				"y": -1.3173144518,
				"z": 2.6912106965,
				"element": "C" 
			},
			{
				"x": 0.9353751412,
				"y": -2.0556854922,
				"z": 2.3221472213,
				"element": "C" 
			},
			{
				"x": -0.2636425261,
				"y": -1.3957516165,
				"z": 2.84848451,
				"element": "N" 
			},
			{
				"x": -0.7289968614,
				"y": -1.4698648552,
				"z": 4.1377502277,
				"element": "C" 
			},
			{
				"x": -0.1125754071,
				"y": -2.6399083257,
				"z": 5.3142045193,
				"element": "S" 
			},
			{
				"x": -1.6761113484,
				"y": -0.5901863463,
				"z": 4.3604170887,
				"element": "N" 
			},
			{
				"x": -1.8533353357,
				"y": 0.1094181335,
				"z": 3.1840773832,
				"element": "N" 
			},
			{
				"x": -1.0110094819,
				"y": -0.3667345525,
				"z": 2.2910082092,
				"element": "C" 
			},
			{
				"x": -0.8910299138,
				"y": 0.1362454013,
				"z": 0.9143893279,
				"element": "C" 
			},
			{
				"x": -0.8341040219,
				"y": -0.7145303456,
				"z": -0.2056675917,
				"element": "C" 
			},
			{
				"x": -0.7558404843,
				"y": -0.1977603628,
				"z": -1.491153165,
				"element": "C" 
			},
			{
				"x": -0.7488884516,
				"y": 1.1909257309,
				"z": -1.6949669249,
				"element": "C" 
			},
			{
				"x": -0.6679093846,
				"y": 1.5969925141,
				"z": -2.9924555238,
				"element": "O" 
			},
			{
				"x": -0.6878953997,
				"y": 2.9904341362,
				"z": -3.2656212583,
				"element": "C" 
			},
			{
				"x": -0.8306202087,
				"y": 2.0513089657,
				"z": -0.5923368673,
				"element": "C" 
			},
			{
				"x": -0.899987891,
				"y": 1.5199170046,
				"z": 0.6951389211,
				"element": "C" 
			},
			{
				"x": 2.2184635132,
				"y": -0.3047016636,
				"z": 2.2781278941,
				"element": "H" 
			},
			{
				"x": 3.088037509,
				"y": -1.8508449024,
				"z": 2.2823384193,
				"element": "H" 
			},
			{
				"x": 2.3452512065,
				"y": -1.2490141668,
				"z": 3.7757896168,
				"element": "H" 
			},
			{
				"x": 0.9450477442,
				"y": -3.0806257271,
				"z": 2.7066418267,
				"element": "H" 
			},
			{
				"x": 0.8336000574,
				"y": -2.1209396375,
				"z": 1.2389108907,
				"element": "H" 
			},
			{
				"x": -0.9939531777,
				"y": -2.2510118156,
				"z": 6.2545008944,
				"element": "H" 
			},
			{
				"x": -0.8903830581,
				"y": -1.7910492078,
				"z": -0.0742468633,
				"element": "H" 
			},
			{
				"x": -0.7187971999,
				"y": -0.8485846561,
				"z": -2.3583998889,
				"element": "H" 
			},
			{
				"x": -1.6175224966,
				"y": 3.4573202113,
				"z": -2.916567523,
				"element": "H" 
			},
			{
				"x": 0.1665449759,
				"y": 3.5048973289,
				"z": -2.807700972,
				"element": "H" 
			},
			{
				"x": -0.6237877082,
				"y": 3.0848230388,
				"z": -4.3505284346,
				"element": "H" 
			},
			{
				"x": -0.8385342261,
				"y": 3.126826034,
				"z": -0.7224001522,
				"element": "H" 
			},
			{
				"x": -0.9694409858,
				"y": 2.1835996261,
				"z": 1.5505075182,
				"element": "H" 
			}
		],
		 "valence_orbital": [ 
			{
				"type": "occ",
				"energy": -0.28329,
				"method": "rhf"
			},
			{
				"type": "occ",
				"energy": -0.2609,
				"method": "rhf"
			},
			{
				"type": "occ",
				"energy": -0.24854,
				"method": "rhf"
			},
			{
				"type": "occ",
				"energy": -0.24182,
				"method": "rhf"
			},
			{
				"type": "occ",
				"energy": -0.2104,
				"method": "rhf"
			},
			{
				"type": "unocc",
				"energy": -0.01797,
				"method": "rhf"
			},
			{
				"type": "unocc",
				"energy": -0.0119,
				"method": "rhf"
			},
			{
				"type": "unocc",
				"energy": 0.00822,
				"method": "rhf"
			},
			{
				"type": "unocc",
				"energy": 0.03317,
				"method": "rhf"
			},
			{
				"type": "unocc",
				"energy": 0.05459,
				"method": "rhf"
			}
		],
		"cosmo_sigma_profile": { 
			"-0.025": 0.0,
			"-0.024": 0.0,
			"-0.023": 0.0,
			"-0.022": 0.0,
			"-0.021": 0.0,
			"-0.02": 0.0,
			"-0.019": 0.0,
			"-0.018": 0.0,
			"-0.017": 0.0,
			"-0.016": 0.0,
			"-0.015": 0.0,
			"-0.014": 0.0,
			"-0.013": 0.116812623202,
			"-0.012": 1.07724283443,
			"-0.011": 1.59505704914,
			"-0.01": 1.28766180164,
			"-0.009": 1.11637502215,
			"-0.008": 2.25350469307,
			"-0.007": 6.95110178932,
			"-0.006": 17.37971992,
			"-0.005": 23.8304245422,
			"-0.004": 27.3650951789,
			"-0.003": 24.7687963819,
			"-0.002": 22.486037075,
			"-0.001": 21.1077449775,
			"0.0": 17.5529328303,
			"0.001": 14.2845880871,
			"0.002": 13.9932362096,
			"0.003": 16.0183929327,
			"0.004": 17.8922877143,
			"0.005": 8.91864676739,
			"0.006": 5.05740731827,
			"0.007": 4.2833479017,
			"0.008": 4.10436734413,
			"0.009": 2.8740306571,
			"0.01": 3.56040298361,
			"0.011": 2.30182109015,
			"0.012": 2.75215675171,
			"0.013": 2.59089073544,
			"0.014": 3.47684166238,
			"0.015": 2.64075356516,
			"0.016": 1.81838136725,
			"0.017": 1.15693095918,
			"0.018": 0.0,
			"0.019": 0.0,
			"0.02": 0.0,
			"0.021": 0.0,
			"0.022": 0.0,
			"0.023": 0.0,
			"0.024": 0.0,
			"0.025": 0.0
		}
	}
}
