{
	 "smiles": "OC1=CC(=CC=C1)C(=O)NC1=CC=CC=C1", 
	 "Tm": 425.15, 
	 "num_atms": 27, 
	 "gaussian": { 
		 "optdone": 1, 
		 "sigma_profile": "yes", 
		 "theory": "DFT", 
		 "functional": "B3LYP", 
		 "basiset": "6-31G**", 
		 "properties": { 
			 "R2extent": 5344.2196, 
			 "electric_dipole_moment_norm": 3.43215663541, 
			 "electric_quadrupole_moment_norm": 6.6710359218, 
			 "total_energy": -707.228140799, 
			 "HOMO_LUMO_gap": 0.17565, 
			 "cosmo_polarized_energy": -17.65, 
			 "cosmo_cavitation_energy": 31.66, 
			 "cosmo_dispersion_energy": -23.35, 
			 "cosmo_repulsion_energy": 1.79, 
			 "cosmo_total_nonelectrostatic_energy": 10.1, 
			 "SMD_solvation_energy": 6.11 
		},
		"coords": [
			{
				"x": 3.5972535376,
				"y": 0.5131808057,
				"z": 3.3568900345,
				"element": "O" 
			},
			{
				"x": 2.6073511866,
				"y": -0.3220163103,
				"z": 2.9245641394,
				"element": "C" 
			},
			{
				"x": 1.9403379778,
				"y": -0.1366039545,
				"z": 1.7100726702,
				"element": "C" 
			},
			{
				"x": 0.9187050664,
				"y": -1.018839273,
				"z": 1.3264194004,
				"element": "C" 
			},
			{
				"x": 0.5591627014,
				"y": -2.0737657271,
				"z": 2.1715687173,
				"element": "C" 
			},
			{
				"x": 1.2398805558,
				"y": -2.2581639332,
				"z": 3.3751324902,
				"element": "C" 
			},
			{
				"x": 2.2627499139,
				"y": -1.3933751254,
				"z": 3.7569306232,
				"element": "C" 
			},
			{
				"x": 0.1497760049,
				"y": -0.8702342621,
				"z": 0.0410276609,
				"element": "C" 
			},
			{
				"x": -1.0025314683,
				"y": -1.2747412109,
				"z": -0.0645156249,
				"element": "O" 
			},
			{
				"x": 0.8511963408,
				"y": -0.2695510526,
				"z": -0.9840211946,
				"element": "N" 
			},
			{
				"x": 0.4227485634,
				"y": 0.0303906106,
				"z": -2.2945568645,
				"element": "C" 
			},
			{
				"x": 1.3803303494,
				"y": 0.5583526489,
				"z": -3.1763190479,
				"element": "C" 
			},
			{
				"x": 1.0314188096,
				"y": 0.8909826313,
				"z": -4.4819689515,
				"element": "C" 
			},
			{
				"x": -0.2781035671,
				"y": 0.7042194324,
				"z": -4.9290744266,
				"element": "C" 
			},
			{
				"x": -1.2276914482,
				"y": 0.179952041,
				"z": -4.0512218593,
				"element": "C" 
			},
			{
				"x": -0.8950102514,
				"y": -0.1600895408,
				"z": -2.7396110341,
				"element": "C" 
			},
			{
				"x": 3.7275564279,
				"y": 1.2195402161,
				"z": 2.7110920902,
				"element": "H" 
			},
			{
				"x": 2.1880630512,
				"y": 0.7269257909,
				"z": 1.0955064122,
				"element": "H" 
			},
			{
				"x": -0.2489284798,
				"y": -2.7299326579,
				"z": 1.8698997952,
				"element": "H" 
			},
			{
				"x": 0.9696355388,
				"y": -3.0837185659,
				"z": 4.0269499329,
				"element": "H" 
			},
			{
				"x": 2.7953696949,
				"y": -1.5199881137,
				"z": 4.6935504837,
				"element": "H" 
			},
			{
				"x": 1.8350802221,
				"y": -0.1207791309,
				"z": -0.8147204497,
				"element": "H" 
			},
			{
				"x": 2.4026785212,
				"y": 0.7072331757,
				"z": -2.8343812771,
				"element": "H" 
			},
			{
				"x": 1.78638176,
				"y": 1.2969450191,
				"z": -5.1491408124,
				"element": "H" 
			},
			{
				"x": -0.5527226309,
				"y": 0.9627807375,
				"z": -5.9471079462,
				"element": "H" 
			},
			{
				"x": -2.2497118839,
				"y": 0.0282021129,
				"z": -4.3870000177,
				"element": "H" 
			},
			{
				"x": -1.6286764939,
				"y": -0.574006364,
				"z": -2.0631649439,
				"element": "H" 
			}
		],
		 "valence_orbital": [ 
			{
				"type": "occ",
				"energy": -0.2671,
				"method": "rhf"
			},
			{
				"type": "occ",
				"energy": -0.25599,
				"method": "rhf"
			},
			{
				"type": "occ",
				"energy": -0.25055,
				"method": "rhf"
			},
			{
				"type": "occ",
				"energy": -0.23237,
				"method": "rhf"
			},
			{
				"type": "occ",
				"energy": -0.21977,
				"method": "rhf"
			},
			{
				"type": "unocc",
				"energy": -0.04412,
				"method": "rhf"
			},
			{
				"type": "unocc",
				"energy": -0.00438,
				"method": "rhf"
			},
			{
				"type": "unocc",
				"energy": -0.001,
				"method": "rhf"
			},
			{
				"type": "unocc",
				"energy": 0.00961,
				"method": "rhf"
			},
			{
				"type": "unocc",
				"energy": 0.05754,
				"method": "rhf"
			}
		],
		"cosmo_sigma_profile": { 
			"-0.025": 0.0,
			"-0.024": 0.0,
			"-0.023": 0.0,
			"-0.022": 0.0,
			"-0.021": 0.0,
			"-0.02": 0.0,
			"-0.019": 0.0,
			"-0.018": 0.735233378265,
			"-0.017": 1.25075565346,
			"-0.016": 1.30130985968,
			"-0.015": 1.81500957682,
			"-0.014": 1.81532700857,
			"-0.013": 1.86846472601,
			"-0.012": 2.51062243176,
			"-0.011": 2.53846230457,
			"-0.01": 4.17356769371,
			"-0.009": 2.28804572278,
			"-0.008": 2.41022372749,
			"-0.007": 3.13560390176,
			"-0.006": 10.9238316432,
			"-0.005": 15.3527762603,
			"-0.004": 15.6823629866,
			"-0.003": 16.2097847586,
			"-0.002": 12.7288234693,
			"-0.001": 13.5455473069,
			"0.0": 14.7354849972,
			"0.001": 14.6111383503,
			"0.002": 19.5944257851,
			"0.003": 22.1912191684,
			"0.004": 23.0073821585,
			"0.005": 16.9462057747,
			"0.006": 9.43370738322,
			"0.007": 3.7246332184,
			"0.008": 2.88692752684,
			"0.009": 3.30501991996,
			"0.01": 3.70786318655,
			"0.011": 3.40028724602,
			"0.012": 3.25197904303,
			"0.013": 2.30628482427,
			"0.014": 0.48092983354,
			"0.015": 0.0,
			"0.016": 0.0,
			"0.017": 0.0,
			"0.018": 0.0,
			"0.019": 0.0,
			"0.02": 0.0,
			"0.021": 0.0,
			"0.022": 0.0,
			"0.023": 0.0,
			"0.024": 0.0,
			"0.025": 0.0
		}
	}
}
