{
	 "smiles": "CN1C(=O)NC(=O)C=C1N", 
	 "Tm": 573.15, 
	 "num_atms": 17, 
	 "gaussian": { 
		 "optdone": 1, 
		 "sigma_profile": "yes", 
		 "theory": "DFT", 
		 "functional": "B3LYP", 
		 "basiset": "6-31G**", 
		 "properties": { 
			 "R2extent": 2180.5232, 
			 "electric_dipole_moment_norm": 6.23481007008, 
			 "electric_quadrupole_moment_norm": 19.486018902, 
			 "total_energy": -509.491383877, 
			 "HOMO_LUMO_gap": 0.20906, 
			 "cosmo_polarized_energy": -21.41, 
			 "cosmo_cavitation_energy": 20.93, 
			 "cosmo_dispersion_energy": -15.98, 
			 "cosmo_repulsion_energy": 1.29, 
			 "cosmo_total_nonelectrostatic_energy": 6.24, 
			 "SMD_solvation_energy": 5.39 
		},
		"coords": [
			{
				"x": -1.4312551014,
				"y": 0.6967164445,
				"z": 0.2228073758,
				"element": "C" 
			},
			{
				"x": -0.3410515092,
				"y": 0.2971026005,
				"z": 1.1117419044,
				"element": "N" 
			},
			{
				"x": -0.4677664055,
				"y": -0.9498344709,
				"z": 1.7579271543,
				"element": "C" 
			},
			{
				"x": -1.4592340463,
				"y": -1.6518060866,
				"z": 1.6301174601,
				"element": "O" 
			},
			{
				"x": 0.6128663909,
				"y": -1.3027307238,
				"z": 2.5287561446,
				"element": "N" 
			},
			{
				"x": 1.8098003567,
				"y": -0.5762770553,
				"z": 2.7470029024,
				"element": "C" 
			},
			{
				"x": 2.6772280345,
				"y": -1.0444298466,
				"z": 3.4715650474,
				"element": "O" 
			},
			{
				"x": 1.8357175402,
				"y": 0.6883882147,
				"z": 2.0615492261,
				"element": "C" 
			},
			{
				"x": 0.7899118877,
				"y": 1.0863771674,
				"z": 1.2740827924,
				"element": "C" 
			},
			{
				"x": 0.8128307561,
				"y": 2.2579183215,
				"z": 0.5436121057,
				"element": "N" 
			},
			{
				"x": -2.1146343333,
				"y": -0.1475661933,
				"z": 0.1603897237,
				"element": "H" 
			},
			{
				"x": -1.9797536451,
				"y": 1.5575079477,
				"z": 0.6244013957,
				"element": "H" 
			},
			{
				"x": -1.0431655866,
				"y": 0.9388516933,
				"z": -0.7699852826,
				"element": "H" 
			},
			{
				"x": 0.5394807532,
				"y": -2.196989211,
				"z": 2.9972500227,
				"element": "H" 
			},
			{
				"x": 2.7046618645,
				"y": 1.3192984511,
				"z": 2.1916846373,
				"element": "H" 
			},
			{
				"x": -0.0641448983,
				"y": 2.7403803594,
				"z": 0.4097852626,
				"element": "H" 
			},
			{
				"x": 1.5726079418,
				"y": 2.8791923874,
				"z": 0.7816121273,
				"element": "H" 
			}
		],
		 "valence_orbital": [ 
			{
				"type": "occ",
				"energy": -0.2933,
				"method": "rhf"
			},
			{
				"type": "occ",
				"energy": -0.28823,
				"method": "rhf"
			},
			{
				"type": "occ",
				"energy": -0.27255,
				"method": "rhf"
			},
			{
				"type": "occ",
				"energy": -0.24681,
				"method": "rhf"
			},
			{
				"type": "occ",
				"energy": -0.22272,
				"method": "rhf"
			},
			{
				"type": "unocc",
				"energy": -0.01366,
				"method": "rhf"
			},
			{
				"type": "unocc",
				"energy": 0.02045,
				"method": "rhf"
			},
			{
				"type": "unocc",
				"energy": 0.04977,
				"method": "rhf"
			},
			{
				"type": "unocc",
				"energy": 0.07952,
				"method": "rhf"
			},
			{
				"type": "unocc",
				"energy": 0.10721,
				"method": "rhf"
			}
		],
		"cosmo_sigma_profile": { 
			"-0.025": 0.0,
			"-0.024": 0.0,
			"-0.023": 0.0,
			"-0.022": 0.0,
			"-0.021": 0.0,
			"-0.02": 0.0,
			"-0.019": 0.0,
			"-0.018": 0.0,
			"-0.017": 0.0,
			"-0.016": 0.0584183502953,
			"-0.015": 1.37670446541,
			"-0.014": 3.74044937677,
			"-0.013": 4.33270055072,
			"-0.012": 3.68187804231,
			"-0.011": 4.24924201234,
			"-0.01": 3.12939226782,
			"-0.009": 3.33163875889,
			"-0.008": 3.43208390825,
			"-0.007": 4.70831072284,
			"-0.006": 6.96120468746,
			"-0.005": 8.13457820211,
			"-0.004": 9.08358456973,
			"-0.003": 13.8423410092,
			"-0.002": 10.7865560916,
			"-0.001": 8.2653567947,
			"0.0": 7.66851072766,
			"0.001": 6.11342922092,
			"0.002": 5.33008910781,
			"0.003": 7.20403842795,
			"0.004": 6.31631607833,
			"0.005": 3.53488463692,
			"0.006": 3.43426549882,
			"0.007": 2.99060881937,
			"0.008": 3.19981853092,
			"0.009": 2.47735039799,
			"0.01": 4.13419041352,
			"0.011": 3.16251472914,
			"0.012": 5.13795730514,
			"0.013": 6.80505615801,
			"0.014": 6.87185774594,
			"0.015": 2.2546180387,
			"0.016": 0.192118569441,
			"0.017": 0.0,
			"0.018": 0.0,
			"0.019": 0.0,
			"0.02": 0.0,
			"0.021": 0.0,
			"0.022": 0.0,
			"0.023": 0.0,
			"0.024": 0.0,
			"0.025": 0.0
		}
	}
}
