{
	 "smiles": "ClC1=C2C=C(SC2=NC(=N1)C1=CN=CC=C1)C1=CC=CC=C1", 
	 "Tm": 453.15, 
	 "num_atms": 32, 
	 "gaussian": { 
		 "optdone": 1, 
		 "sigma_profile": "yes", 
		 "theory": "DFT", 
		 "functional": "B3LYP", 
		 "basiset": "6-31G**", 
		 "properties": { 
			 "R2extent": 10744.5274, 
			 "electric_dipole_moment_norm": 5.2055787075, 
			 "electric_quadrupole_moment_norm": 18.327836769, 
			 "total_energy": -1676.48067918, 
			 "HOMO_LUMO_gap": 0.14498, 
			 "cosmo_polarized_energy": -10.33, 
			 "cosmo_cavitation_energy": 40.82, 
			 "cosmo_dispersion_energy": -30.48, 
			 "cosmo_repulsion_energy": 2.23, 
			 "cosmo_total_nonelectrostatic_energy": 12.58, 
			 "SMD_solvation_energy": 2.18 
		},
		"coords": [
			{
				"x": 0.6114544454,
				"y": -0.7490190271,
				"z": 3.394595975,
				"element": "Cl" 
			},
			{
				"x": -0.1442308351,
				"y": -0.3523237845,
				"z": 1.8578727328,
				"element": "C" 
			},
			{
				"x": 0.6559776618,
				"y": -0.2207467868,
				"z": 0.7106546509,
				"element": "C" 
			},
			{
				"x": 2.0566035874,
				"y": -0.332824097,
				"z": 0.4615278243,
				"element": "C" 
			},
			{
				"x": 2.3887603996,
				"y": -0.1054030741,
				"z": -0.8481468849,
				"element": "C" 
			},
			{
				"x": 0.9645193902,
				"y": 0.256292592,
				"z": -1.8434224099,
				"element": "S" 
			},
			{
				"x": -0.088989351,
				"y": 0.1057461801,
				"z": -0.4501644427,
				"element": "C" 
			},
			{
				"x": -1.4038981713,
				"y": 0.273222158,
				"z": -0.4958161709,
				"element": "N" 
			},
			{
				"x": -2.0453338475,
				"y": 0.1130642025,
				"z": 0.6710796227,
				"element": "C" 
			},
			{
				"x": -1.4450163094,
				"y": -0.1947156898,
				"z": 1.8475475249,
				"element": "N" 
			},
			{
				"x": -3.5127488771,
				"y": 0.2840973253,
				"z": 0.6836014109,
				"element": "C" 
			},
			{
				"x": -4.2521369017,
				"y": 0.1341611416,
				"z": 1.8695448769,
				"element": "C" 
			},
			{
				"x": -5.5789753592,
				"y": 0.2766434383,
				"z": 1.9420356574,
				"element": "N" 
			},
			{
				"x": -6.2294354695,
				"y": 0.5800858129,
				"z": 0.8109422397,
				"element": "C" 
			},
			{
				"x": -5.5959041202,
				"y": 0.7519539127,
				"z": -0.4220046958,
				"element": "C" 
			},
			{
				"x": -4.21549379,
				"y": 0.6016589704,
				"z": -0.487463967,
				"element": "C" 
			},
			{
				"x": 3.7252151911,
				"y": -0.1414178779,
				"z": -1.4548053636,
				"element": "C" 
			},
			{
				"x": 4.0323217402,
				"y": 0.6155817083,
				"z": -2.5995259849,
				"element": "C" 
			},
			{
				"x": 5.3095719665,
				"y": 0.5790977245,
				"z": -3.1549191131,
				"element": "C" 
			},
			{
				"x": 6.3056657561,
				"y": -0.2102992741,
				"z": -2.577574718,
				"element": "C" 
			},
			{
				"x": 6.0126846774,
				"y": -0.9692310558,
				"z": -1.4417767096,
				"element": "C" 
			},
			{
				"x": 4.7355982606,
				"y": -0.9410853256,
				"z": -0.888250475,
				"element": "C" 
			},
			{
				"x": 2.7841965307,
				"y": -0.5429964894,
				"z": 1.234828887,
				"element": "H" 
			},
			{
				"x": -3.734592609,
				"y": -0.1117915849,
				"z": 2.7922699634,
				"element": "H" 
			},
			{
				"x": -7.3092849908,
				"y": 0.6910376037,
				"z": 0.8949035143,
				"element": "H" 
			},
			{
				"x": -6.174710054,
				"y": 0.9975286734,
				"z": -1.3068544534,
				"element": "H" 
			},
			{
				"x": -3.672642242,
				"y": 0.7236524246,
				"z": -1.4182763826,
				"element": "H" 
			},
			{
				"x": 3.2732539583,
				"y": 1.2524661971,
				"z": -3.0445502919,
				"element": "H" 
			},
			{
				"x": 5.527847672,
				"y": 1.1742849801,
				"z": -4.0366013285,
				"element": "H" 
			},
			{
				"x": 7.3008513562,
				"y": -0.2378189418,
				"z": -3.0110656671,
				"element": "H" 
			},
			{
				"x": 6.7780259596,
				"y": -1.5950009201,
				"z": -0.992220496,
				"element": "H" 
			},
			{
				"x": 4.5089443744,
				"y": -1.5590011167,
				"z": -0.025165325,
				"element": "H" 
			}
		],
		 "valence_orbital": [ 
			{
				"type": "occ",
				"energy": -0.27048,
				"method": "rhf"
			},
			{
				"type": "occ",
				"energy": -0.26723,
				"method": "rhf"
			},
			{
				"type": "occ",
				"energy": -0.26379,
				"method": "rhf"
			},
			{
				"type": "occ",
				"energy": -0.25163,
				"method": "rhf"
			},
			{
				"type": "occ",
				"energy": -0.22571,
				"method": "rhf"
			},
			{
				"type": "unocc",
				"energy": -0.08073,
				"method": "rhf"
			},
			{
				"type": "unocc",
				"energy": -0.04959,
				"method": "rhf"
			},
			{
				"type": "unocc",
				"energy": -0.03607,
				"method": "rhf"
			},
			{
				"type": "unocc",
				"energy": -0.0211,
				"method": "rhf"
			},
			{
				"type": "unocc",
				"energy": -0.01726,
				"method": "rhf"
			}
		],
		"cosmo_sigma_profile": { 
			"-0.025": 0.0,
			"-0.024": 0.0,
			"-0.023": 0.0,
			"-0.022": 0.0,
			"-0.021": 0.0,
			"-0.02": 0.0,
			"-0.019": 0.0,
			"-0.018": 0.0,
			"-0.017": 0.0,
			"-0.016": 0.0,
			"-0.015": 0.0,
			"-0.014": 0.0,
			"-0.013": 0.0,
			"-0.012": 0.0,
			"-0.011": 0.0,
			"-0.01": 0.0,
			"-0.009": 0.156283525533,
			"-0.008": 2.19797331211,
			"-0.007": 7.40386370435,
			"-0.006": 17.3980496487,
			"-0.005": 20.5943656428,
			"-0.004": 20.2124983947,
			"-0.003": 21.3698116308,
			"-0.002": 27.4836737616,
			"-0.001": 28.0379863443,
			"0.0": 37.2595303514,
			"0.001": 41.8855223761,
			"0.002": 34.5639160983,
			"0.003": 24.6502596328,
			"0.004": 21.9388687979,
			"0.005": 10.3573241884,
			"0.006": 3.71833609912,
			"0.007": 4.73589536609,
			"0.008": 3.17632766647,
			"0.009": 2.31305582318,
			"0.01": 0.654338842695,
			"0.011": 0.749956037659,
			"0.012": 0.659037566145,
			"0.013": 1.10540200056,
			"0.014": 1.03406991588,
			"0.015": 0.895872876086,
			"0.016": 0.624714543361,
			"0.017": 0.212869154054,
			"0.018": 0.0,
			"0.019": 0.0,
			"0.02": 0.0,
			"0.021": 0.0,
			"0.022": 0.0,
			"0.023": 0.0,
			"0.024": 0.0,
			"0.025": 0.0
		}
	}
}
