{
	 "smiles": "ON=CC1=CC=C(OCC2=CC=CC=C2)C=C1", 
	 "Tm": 383.15, 
	 "num_atms": 30, 
	 "gaussian": { 
		 "optdone": 1, 
		 "sigma_profile": "yes", 
		 "theory": "DFT", 
		 "functional": "B3LYP", 
		 "basiset": "6-31G**", 
		 "properties": { 
			 "R2extent": 6252.2759, 
			 "electric_dipole_moment_norm": 1.97552603121, 
			 "electric_quadrupole_moment_norm": 10.9171017436, 
			 "total_energy": -746.456228263, 
			 "HOMO_LUMO_gap": 0.17616, 
			 "cosmo_polarized_energy": -11.73, 
			 "cosmo_cavitation_energy": 34.88, 
			 "cosmo_dispersion_energy": -24.89, 
			 "cosmo_repulsion_energy": 1.95, 
			 "cosmo_total_nonelectrostatic_energy": 11.94, 
			 "SMD_solvation_energy": 6.47 
		},
		"coords": [
			{
				"x": -5.1684856436,
				"y": 3.7943558007,
				"z": 0.060423804,
				"element": "O" 
			},
			{
				"x": -4.3647742549,
				"y": 2.7374086177,
				"z": 0.5151559099,
				"element": "N" 
			},
			{
				"x": -3.1284813842,
				"y": 2.9647017505,
				"z": 0.260884836,
				"element": "C" 
			},
			{
				"x": -2.0775414746,
				"y": 2.0172153752,
				"z": 0.6325608291,
				"element": "C" 
			},
			{
				"x": -2.3553985835,
				"y": 0.8006750172,
				"z": 1.2886299779,
				"element": "C" 
			},
			{
				"x": -1.3342324488,
				"y": -0.0704895849,
				"z": 1.6260192252,
				"element": "C" 
			},
			{
				"x": 0.0009708095,
				"y": 0.2454097802,
				"z": 1.3181792999,
				"element": "C" 
			},
			{
				"x": 0.925119379,
				"y": -0.6835553602,
				"z": 1.7093786432,
				"element": "O" 
			},
			{
				"x": 2.3140946956,
				"y": -0.388457334,
				"z": 1.5728549529,
				"element": "C" 
			},
			{
				"x": 2.8513058258,
				"y": -0.5536896607,
				"z": 0.1638635321,
				"element": "C" 
			},
			{
				"x": 2.3034782927,
				"y": -1.503621299,
				"z": -0.7058100044,
				"element": "C" 
			},
			{
				"x": 2.8405639415,
				"y": -1.6844575234,
				"z": -1.9805536509,
				"element": "C" 
			},
			{
				"x": 3.9358446626,
				"y": -0.9246905837,
				"z": -2.3974740099,
				"element": "C" 
			},
			{
				"x": 4.488675835,
				"y": 0.0223554925,
				"z": -1.5338899545,
				"element": "C" 
			},
			{
				"x": 3.9452534997,
				"y": 0.2089024951,
				"z": -0.2616822956,
				"element": "C" 
			},
			{
				"x": 0.2958600478,
				"y": 1.444500982,
				"z": 0.660992567,
				"element": "C" 
			},
			{
				"x": -0.7433696308,
				"y": 2.3151448246,
				"z": 0.3287548757,
				"element": "C" 
			},
			{
				"x": -6.0551496399,
				"y": 3.5016215446,
				"z": 0.3091048968,
				"element": "H" 
			},
			{
				"x": -2.8345289731,
				"y": 3.8874283882,
				"z": -0.2469669004,
				"element": "H" 
			},
			{
				"x": -3.3845579239,
				"y": 0.5567599785,
				"z": 1.5296951778,
				"element": "H" 
			},
			{
				"x": -1.5379874638,
				"y": -1.0061035169,
				"z": 2.1367334848,
				"element": "H" 
			},
			{
				"x": 2.5305594823,
				"y": 0.6183286085,
				"z": 1.9538275608,
				"element": "H" 
			},
			{
				"x": 2.8016146237,
				"y": -1.1034932634,
				"z": 2.2447245004,
				"element": "H" 
			},
			{
				"x": 1.4500997022,
				"y": -2.0905458464,
				"z": -0.3808351502,
				"element": "H" 
			},
			{
				"x": 2.4032312341,
				"y": -2.4203165341,
				"z": -2.6494509354,
				"element": "H" 
			},
			{
				"x": 4.3529824334,
				"y": -1.0669921925,
				"z": -3.3901813577,
				"element": "H" 
			},
			{
				"x": 5.3368221035,
				"y": 0.6219105981,
				"z": -1.8521655928,
				"element": "H" 
			},
			{
				"x": 4.3750547757,
				"y": 0.9538445583,
				"z": 0.4047614681,
				"element": "H" 
			},
			{
				"x": 1.3121987256,
				"y": 1.6962938252,
				"z": 0.3851183061,
				"element": "H" 
			},
			{
				"x": -0.5076226484,
				"y": 3.2440550622,
				"z": -0.1845539956,
				"element": "H" 
			}
		],
		 "valence_orbital": [ 
			{
				"type": "occ",
				"energy": -0.26802,
				"method": "rhf"
			},
			{
				"type": "occ",
				"energy": -0.25523,
				"method": "rhf"
			},
			{
				"type": "occ",
				"energy": -0.25436,
				"method": "rhf"
			},
			{
				"type": "occ",
				"energy": -0.24756,
				"method": "rhf"
			},
			{
				"type": "occ",
				"energy": -0.20616,
				"method": "rhf"
			},
			{
				"type": "unocc",
				"energy": -0.03,
				"method": "rhf"
			},
			{
				"type": "unocc",
				"energy": -0.01079,
				"method": "rhf"
			},
			{
				"type": "unocc",
				"energy": -0.00754,
				"method": "rhf"
			},
			{
				"type": "unocc",
				"energy": 0.00059,
				"method": "rhf"
			},
			{
				"type": "unocc",
				"energy": 0.06266,
				"method": "rhf"
			}
		],
		"cosmo_sigma_profile": { 
			"-0.025": 0.0,
			"-0.024": 0.0,
			"-0.023": 0.0,
			"-0.022": 0.0,
			"-0.021": 0.0,
			"-0.02": 0.0,
			"-0.019": 0.0,
			"-0.018": 0.0676339252608,
			"-0.017": 0.801764110318,
			"-0.016": 0.841826798079,
			"-0.015": 1.3368663233,
			"-0.014": 0.511605004024,
			"-0.013": 0.646216245098,
			"-0.012": 0.834128691585,
			"-0.011": 0.629355429705,
			"-0.01": 0.529442013047,
			"-0.009": 0.431290486137,
			"-0.008": 1.20863138875,
			"-0.007": 6.64193357985,
			"-0.006": 17.5303930514,
			"-0.005": 23.2779257277,
			"-0.004": 22.7043217774,
			"-0.003": 20.4632608532,
			"-0.002": 14.4600234431,
			"-0.001": 14.5380737998,
			"0.0": 15.9652725026,
			"0.001": 15.8855131613,
			"0.002": 18.7179205532,
			"0.003": 25.5451847453,
			"0.004": 25.7709446161,
			"0.005": 18.675919713,
			"0.006": 11.552523882,
			"0.007": 4.50568061934,
			"0.008": 3.74530588059,
			"0.009": 4.10807281528,
			"0.01": 3.4739904366,
			"0.011": 2.83668601567,
			"0.012": 0.140345660209,
			"0.013": 0.0,
			"0.014": 0.0,
			"0.015": 0.0,
			"0.016": 0.0,
			"0.017": 0.0,
			"0.018": 0.0,
			"0.019": 0.0,
			"0.02": 0.0,
			"0.021": 0.0,
			"0.022": 0.0,
			"0.023": 0.0,
			"0.024": 0.0,
			"0.025": 0.0
		}
	}
}
