{
	 "smiles": "ClCC1CO1", 
	 "Tm": 216.05, 
	 "num_atms": 10, 
	 "gaussian": { 
		 "optdone": 1, 
		 "sigma_profile": "yes", 
		 "theory": "DFT", 
		 "functional": "B3LYP", 
		 "basiset": "6-31G**", 
		 "properties": { 
			 "R2extent": 1641.9138, 
			 "electric_dipole_moment_norm": 0.66434868104, 
			 "electric_quadrupole_moment_norm": 8.26361122754, 
			 "total_energy": -652.701235509, 
			 "HOMO_LUMO_gap": 0.29412, 
			 "cosmo_polarized_energy": -6.17, 
			 "cosmo_cavitation_energy": 15.29, 
			 "cosmo_dispersion_energy": -11.58, 
			 "cosmo_repulsion_energy": 1.04, 
			 "cosmo_total_nonelectrostatic_energy": 4.76, 
			 "SMD_solvation_energy": 2.48 
		},
		"coords": [
			{
				"x": -1.4164022975,
				"y": -1.3977277313,
				"z": -2.9468054668,
				"element": "Cl" 
			},
			{
				"x": -0.0926414059,
				"y": -0.7489139182,
				"z": -1.8848565699,
				"element": "C" 
			},
			{
				"x": 0.0673866712,
				"y": 0.7357932645,
				"z": -2.0842474971,
				"element": "C" 
			},
			{
				"x": 1.0555122519,
				"y": 1.2715717455,
				"z": -3.0280665254,
				"element": "C" 
			},
			{
				"x": 1.313292143,
				"y": 1.2621105562,
				"z": -1.6159181959,
				"element": "O" 
			},
			{
				"x": -0.372877665,
				"y": -0.9867386303,
				"z": -0.8573842534,
				"element": "H" 
			},
			{
				"x": 0.8263485121,
				"y": -1.2772184422,
				"z": -2.1413396909,
				"element": "H" 
			},
			{
				"x": -0.8097922662,
				"y": 1.3375473227,
				"z": -1.843316299,
				"element": "H" 
			},
			{
				"x": 0.8995260629,
				"y": 2.2556179557,
				"z": -3.4682002505,
				"element": "H" 
			},
			{
				"x": 1.6600479935,
				"y": 0.5842578775,
				"z": -3.6197652512,
				"element": "H" 
			}
		],
		 "valence_orbital": [ 
			{
				"type": "occ",
				"energy": -0.39024,
				"method": "rhf"
			},
			{
				"type": "occ",
				"energy": -0.32222,
				"method": "rhf"
			},
			{
				"type": "occ",
				"energy": -0.30922,
				"method": "rhf"
			},
			{
				"type": "occ",
				"energy": -0.30205,
				"method": "rhf"
			},
			{
				"type": "occ",
				"energy": -0.28095,
				"method": "rhf"
			},
			{
				"type": "unocc",
				"energy": 0.01317,
				"method": "rhf"
			},
			{
				"type": "unocc",
				"energy": 0.08971,
				"method": "rhf"
			},
			{
				"type": "unocc",
				"energy": 0.09656,
				"method": "rhf"
			},
			{
				"type": "unocc",
				"energy": 0.11232,
				"method": "rhf"
			},
			{
				"type": "unocc",
				"energy": 0.1238,
				"method": "rhf"
			}
		],
		"cosmo_sigma_profile": { 
			"-0.025": 0.0,
			"-0.024": 0.0,
			"-0.023": 0.0,
			"-0.022": 0.0,
			"-0.021": 0.0,
			"-0.02": 0.0,
			"-0.019": 0.0,
			"-0.018": 0.0,
			"-0.017": 0.0,
			"-0.016": 0.0,
			"-0.015": 0.0,
			"-0.014": 0.0,
			"-0.013": 0.0,
			"-0.012": 0.0,
			"-0.011": 0.0,
			"-0.01": 0.0,
			"-0.009": 0.0,
			"-0.008": 3.47941927362,
			"-0.007": 10.0545295146,
			"-0.006": 11.0665200489,
			"-0.005": 10.7448397191,
			"-0.004": 8.9055779819,
			"-0.003": 7.03004444216,
			"-0.002": 5.21054346046,
			"-0.001": 5.52255495578,
			"0.0": 6.49894193014,
			"0.001": 5.11600876026,
			"0.002": 5.79599889282,
			"0.003": 5.44560653121,
			"0.004": 5.53916839764,
			"0.005": 7.85301435837,
			"0.006": 11.2351380643,
			"0.007": 2.97030652863,
			"0.008": 1.89635509368,
			"0.009": 1.7313547587,
			"0.01": 2.08020617423,
			"0.011": 3.83137066418,
			"0.012": 1.10609986866,
			"0.013": 0.0329766857395,
			"0.014": 0.0,
			"0.015": 0.0,
			"0.016": 0.0,
			"0.017": 0.0,
			"0.018": 0.0,
			"0.019": 0.0,
			"0.02": 0.0,
			"0.021": 0.0,
			"0.022": 0.0,
			"0.023": 0.0,
			"0.024": 0.0,
			"0.025": 0.0
		}
	}
}
