{
	 "smiles": "OC(=O)C1=CC=C(SSC2=CC=C(C=C2[N+]([O-])=O)C(O)=O)C(=C1)[N+]([O-])=O", 
	 "Tm": 581.15, 
	 "num_atms": 34, 
	 "gaussian": { 
		 "optdone": 1, 
		 "sigma_profile": "yes", 
		 "theory": "DFT", 
		 "functional": "B3LYP", 
		 "basiset": "6-31G**", 
		 "properties": { 
			 "R2extent": 13966.5003, 
			 "electric_dipole_moment_norm": 4.98676984029, 
			 "electric_quadrupole_moment_norm": 29.3794374424, 
			 "total_energy": -2045.80371438, 
			 "HOMO_LUMO_gap": 0.15222, 
			 "cosmo_polarized_energy": -23.76, 
			 "cosmo_cavitation_energy": 45.1, 
			 "cosmo_dispersion_energy": -32.9, 
			 "cosmo_repulsion_energy": 2.4, 
			 "cosmo_total_nonelectrostatic_energy": 14.6, 
			 "SMD_solvation_energy": 13.58 
		},
		"coords": [
			{
				"x": 1.3841816762,
				"y": -2.9793011496,
				"z": 3.9516675227,
				"element": "O" 
			},
			{
				"x": 0.1145702617,
				"y": -3.1876161685,
				"z": 3.5297768192,
				"element": "C" 
			},
			{
				"x": -0.4944279521,
				"y": -4.2122169068,
				"z": 3.7557224774,
				"element": "O" 
			},
			{
				"x": -0.4326953765,
				"y": -2.0306901462,
				"z": 2.7698321648,
				"element": "C" 
			},
			{
				"x": 0.3019254429,
				"y": -0.8615322976,
				"z": 2.5261211752,
				"element": "C" 
			},
			{
				"x": -0.2552834154,
				"y": 0.1898023127,
				"z": 1.8098807354,
				"element": "C" 
			},
			{
				"x": -1.5649876278,
				"y": 0.1259566988,
				"z": 1.3060545442,
				"element": "C" 
			},
			{
				"x": -2.3067403395,
				"y": 1.4800831894,
				"z": 0.3844601842,
				"element": "S" 
			},
			{
				"x": -0.8822615027,
				"y": 3.0420995647,
				"z": 0.5176712073,
				"element": "S" 
			},
			{
				"x": 0.2073781219,
				"y": 2.7692467344,
				"z": -0.8859133,
				"element": "C" 
			},
			{
				"x": 0.1005040218,
				"y": 1.6347650668,
				"z": -1.7092351409,
				"element": "C" 
			},
			{
				"x": 0.9455795671,
				"y": 1.4425738772,
				"z": -2.7921172371,
				"element": "C" 
			},
			{
				"x": 1.9409255016,
				"y": 2.379735387,
				"z": -3.1037144505,
				"element": "C" 
			},
			{
				"x": 2.0716134779,
				"y": 3.512861944,
				"z": -2.307449156,
				"element": "C" 
			},
			{
				"x": 1.2201562748,
				"y": 3.698248853,
				"z": -1.2184914275,
				"element": "C" 
			},
			{
				"x": 1.4304453193,
				"y": 4.9084145597,
				"z": -0.4246029114,
				"element": "N" 
			},
			{
				"x": 0.7114192998,
				"y": 5.0619261274,
				"z": 0.5702241301,
				"element": "O" 
			},
			{
				"x": 2.3003310487,
				"y": 5.7003417089,
				"z": -0.775205547,
				"element": "O" 
			},
			{
				"x": 2.8195920649,
				"y": 2.1206288779,
				"z": -4.2763673324,
				"element": "C" 
			},
			{
				"x": 3.7317728416,
				"y": 3.0991540814,
				"z": -4.4746971131,
				"element": "O" 
			},
			{
				"x": 2.7380983888,
				"y": 1.1400232326,
				"z": -4.9872934118,
				"element": "O" 
			},
			{
				"x": -2.2839196964,
				"y": -1.0648370047,
				"z": 1.5633913452,
				"element": "C" 
			},
			{
				"x": -1.7326621847,
				"y": -2.1223838904,
				"z": 2.2820912084,
				"element": "C" 
			},
			{
				"x": -3.6519229125,
				"y": -1.2449828925,
				"z": 1.0767705251,
				"element": "N" 
			},
			{
				"x": -4.2463789135,
				"y": -2.2802862899,
				"z": 1.3582204341,
				"element": "O" 
			},
			{
				"x": -4.1320073284,
				"y": -0.3292897202,
				"z": 0.3970668196,
				"element": "O" 
			},
			{
				"x": 1.6450322015,
				"y": -3.7822596801,
				"z": 4.4324000132,
				"element": "H" 
			},
			{
				"x": 1.3155325881,
				"y": -0.7765962554,
				"z": 2.9010634882,
				"element": "H" 
			},
			{
				"x": 0.3289380689,
				"y": 1.0867490518,
				"z": 1.6471508606,
				"element": "H" 
			},
			{
				"x": -0.6685208115,
				"y": 0.9019133261,
				"z": -1.4998353534,
				"element": "H" 
			},
			{
				"x": 0.8473895371,
				"y": 0.560932265,
				"z": -3.4166314604,
				"element": "H" 
			},
			{
				"x": 2.8243300212,
				"y": 4.2631213859,
				"z": -2.5098232363,
				"element": "H" 
			},
			{
				"x": 4.2475003216,
				"y": 2.8379327707,
				"z": -5.2554227799,
				"element": "H" 
			},
			{
				"x": -2.3226079864,
				"y": -3.0135186135,
				"z": 2.4562342029,
				"element": "H" 
			}
		],
		 "valence_orbital": [ 
			{
				"type": "occ",
				"energy": -0.30068,
				"method": "rhf"
			},
			{
				"type": "occ",
				"energy": -0.29966,
				"method": "rhf"
			},
			{
				"type": "occ",
				"energy": -0.29451,
				"method": "rhf"
			},
			{
				"type": "occ",
				"energy": -0.26566,
				"method": "rhf"
			},
			{
				"type": "occ",
				"energy": -0.26305,
				"method": "rhf"
			},
			{
				"type": "unocc",
				"energy": -0.11083,
				"method": "rhf"
			},
			{
				"type": "unocc",
				"energy": -0.10799,
				"method": "rhf"
			},
			{
				"type": "unocc",
				"energy": -0.07828,
				"method": "rhf"
			},
			{
				"type": "unocc",
				"energy": -0.07739,
				"method": "rhf"
			},
			{
				"type": "unocc",
				"energy": -0.0483,
				"method": "rhf"
			}
		],
		"cosmo_sigma_profile": { 
			"-0.025": 0.0,
			"-0.024": 0.0,
			"-0.023": 0.0,
			"-0.022": 0.0,
			"-0.021": 0.0,
			"-0.02": 0.0,
			"-0.019": 0.900713113863,
			"-0.018": 1.91762213422,
			"-0.017": 1.84506434899,
			"-0.016": 1.72703920383,
			"-0.015": 1.75023744431,
			"-0.014": 0.777639084155,
			"-0.013": 1.43259254338,
			"-0.012": 1.63730762529,
			"-0.011": 1.67613293463,
			"-0.01": 0.864268426976,
			"-0.009": 1.56473517875,
			"-0.008": 8.81114422099,
			"-0.007": 13.3230445774,
			"-0.006": 11.746286552,
			"-0.005": 14.7484859721,
			"-0.004": 20.3516154589,
			"-0.003": 29.980827718,
			"-0.002": 42.8406058346,
			"-0.001": 38.7369697142,
			"0.0": 22.0492242935,
			"0.001": 14.5311410181,
			"0.002": 14.4381056217,
			"0.003": 12.439994158,
			"0.004": 15.9908395259,
			"0.005": 15.3510136421,
			"0.006": 18.5512620852,
			"0.007": 18.1033933317,
			"0.008": 12.4624785334,
			"0.009": 9.5395877368,
			"0.01": 5.88930722399,
			"0.011": 9.39521193616,
			"0.012": 1.80880305678,
			"0.013": 0.0,
			"0.014": 0.0,
			"0.015": 0.0,
			"0.016": 0.0,
			"0.017": 0.0,
			"0.018": 0.0,
			"0.019": 0.0,
			"0.02": 0.0,
			"0.021": 0.0,
			"0.022": 0.0,
			"0.023": 0.0,
			"0.024": 0.0,
			"0.025": 0.0
		}
	}
}
