{
	 "smiles": "COC1=CC=C(OC)C(F)=C1", 
	 "Tm": 298.15, 
	 "num_atms": 20, 
	 "gaussian": { 
		 "optdone": 1, 
		 "sigma_profile": "yes", 
		 "theory": "DFT", 
		 "functional": "B3LYP", 
		 "basiset": "6-31G**", 
		 "properties": { 
			 "R2extent": 2556.9884, 
			 "electric_dipole_moment_norm": 1.2636347811, 
			 "electric_quadrupole_moment_norm": 9.18532164053, 
			 "total_energy": -560.521952619, 
			 "HOMO_LUMO_gap": 0.19808, 
			 "cosmo_polarized_energy": -6.14, 
			 "cosmo_cavitation_energy": 24.01, 
			 "cosmo_dispersion_energy": -17.93, 
			 "cosmo_repulsion_energy": 1.42, 
			 "cosmo_total_nonelectrostatic_energy": 7.49, 
			 "SMD_solvation_energy": 6.14 
		},
		"coords": [
			{
				"x": -2.4413664648,
				"y": -2.7274069999,
				"z": 1.0303524736,
				"element": "C" 
			},
			{
				"x": -2.077588352,
				"y": -2.4767738602,
				"z": -0.3166159955,
				"element": "O" 
			},
			{
				"x": -1.1743757735,
				"y": -1.4798345213,
				"z": -0.560357915,
				"element": "C" 
			},
			{
				"x": -0.5740649696,
				"y": -0.6793467244,
				"z": 0.4186391882,
				"element": "C" 
			},
			{
				"x": 0.3351302529,
				"y": 0.3079965606,
				"z": 0.0396834668,
				"element": "C" 
			},
			{
				"x": 0.6791957502,
				"y": 0.5374798539,
				"z": -1.2964499859,
				"element": "C" 
			},
			{
				"x": 1.582920803,
				"y": 1.5378214407,
				"z": -1.5156763505,
				"element": "O" 
			},
			{
				"x": 2.0131525,
				"y": 1.8668351607,
				"z": -2.8343421222,
				"element": "C" 
			},
			{
				"x": 0.0596647071,
				"y": -0.282301756,
				"z": -2.2543531509,
				"element": "C" 
			},
			{
				"x": 0.3336631747,
				"y": -0.130802134,
				"z": -3.576077477,
				"element": "F" 
			},
			{
				"x": -0.8470750861,
				"y": -1.270284237,
				"z": -1.9040148857,
				"element": "C" 
			},
			{
				"x": -3.1601426575,
				"y": -3.54783469,
				"z": 1.0014596006,
				"element": "H" 
			},
			{
				"x": -2.9136975512,
				"y": -1.8511217418,
				"z": 1.493755796,
				"element": "H" 
			},
			{
				"x": -1.5761618313,
				"y": -3.027926613,
				"z": 1.6360049955,
				"element": "H" 
			},
			{
				"x": -0.8012499033,
				"y": -0.8105335476,
				"z": 1.4693325718,
				"element": "H" 
			},
			{
				"x": 0.8078770579,
				"y": 0.9355866674,
				"z": 0.7881740303,
				"element": "H" 
			},
			{
				"x": 2.5147667517,
				"y": 1.0250414916,
				"z": -3.3216822752,
				"element": "H" 
			},
			{
				"x": 1.1817298399,
				"y": 2.1989431696,
				"z": -3.4637765934,
				"element": "H" 
			},
			{
				"x": 2.7219102788,
				"y": 2.6871894171,
				"z": -2.7063297393,
				"element": "H" 
			},
			{
				"x": -1.2993885272,
				"y": -1.8779269363,
				"z": -2.6791256323,
				"element": "H" 
			}
		],
		 "valence_orbital": [ 
			{
				"type": "occ",
				"energy": -0.33215,
				"method": "rhf"
			},
			{
				"type": "occ",
				"energy": -0.32085,
				"method": "rhf"
			},
			{
				"type": "occ",
				"energy": -0.28573,
				"method": "rhf"
			},
			{
				"type": "occ",
				"energy": -0.24563,
				"method": "rhf"
			},
			{
				"type": "occ",
				"energy": -0.19901,
				"method": "rhf"
			},
			{
				"type": "unocc",
				"energy": -0.00093,
				"method": "rhf"
			},
			{
				"type": "unocc",
				"energy": 0.02368,
				"method": "rhf"
			},
			{
				"type": "unocc",
				"energy": 0.07873,
				"method": "rhf"
			},
			{
				"type": "unocc",
				"energy": 0.10286,
				"method": "rhf"
			},
			{
				"type": "unocc",
				"energy": 0.11554,
				"method": "rhf"
			}
		],
		"cosmo_sigma_profile": { 
			"-0.025": 0.0,
			"-0.024": 0.0,
			"-0.023": 0.0,
			"-0.022": 0.0,
			"-0.021": 0.0,
			"-0.02": 0.0,
			"-0.019": 0.0,
			"-0.018": 0.0,
			"-0.017": 0.0,
			"-0.016": 0.0,
			"-0.015": 0.0,
			"-0.014": 0.0,
			"-0.013": 0.0,
			"-0.012": 0.0,
			"-0.011": 0.0,
			"-0.01": 0.0,
			"-0.009": 0.0,
			"-0.008": 0.0676866244233,
			"-0.007": 2.04113673149,
			"-0.006": 9.03531013329,
			"-0.005": 18.7313435561,
			"-0.004": 19.9091565095,
			"-0.003": 20.9084126747,
			"-0.002": 14.5467020979,
			"-0.001": 9.73301116472,
			"0.0": 9.8935291926,
			"0.001": 10.385593043,
			"0.002": 13.9536322078,
			"0.003": 17.0258324288,
			"0.004": 19.9145511058,
			"0.005": 8.63493565848,
			"0.006": 3.68217303905,
			"0.007": 3.02716142019,
			"0.008": 2.91802353595,
			"0.009": 2.96818564975,
			"0.01": 2.7799092097,
			"0.011": 0.814387963934,
			"0.012": 0.0,
			"0.013": 0.0,
			"0.014": 0.0,
			"0.015": 0.0,
			"0.016": 0.0,
			"0.017": 0.0,
			"0.018": 0.0,
			"0.019": 0.0,
			"0.02": 0.0,
			"0.021": 0.0,
			"0.022": 0.0,
			"0.023": 0.0,
			"0.024": 0.0,
			"0.025": 0.0
		}
	}
}
