{
	 "smiles": "C1=CC=C(C=C1)C1=C2C=CC3=C(C=CN=C3C2=NC=C1)C1=CC=CC=C1", 
	 "Tm": 492.15, 
	 "num_atms": 42, 
	 "gaussian": { 
		 "optdone": 1, 
		 "sigma_profile": "yes", 
		 "theory": "DFT", 
		 "functional": "B3LYP", 
		 "basiset": "6-31G**", 
		 "properties": { 
			 "R2extent": 11932.9353, 
			 "electric_dipole_moment_norm": 4.00577456805, 
			 "electric_quadrupole_moment_norm": 19.4146511416, 
			 "total_energy": -1033.72106826, 
			 "HOMO_LUMO_gap": 0.16549, 
			 "cosmo_polarized_energy": -15.64, 
			 "cosmo_cavitation_energy": 45.78, 
			 "cosmo_dispersion_energy": -32.82, 
			 "cosmo_repulsion_energy": 2.43, 
			 "cosmo_total_nonelectrostatic_energy": 15.39, 
			 "SMD_solvation_energy": 4.43 
		},
		"coords": [
			{
				"x": -3.9685363452,
				"y": -4.6371602056,
				"z": 1.2960304047,
				"element": "C" 
			},
			{
				"x": -3.8033683653,
				"y": -3.5546192451,
				"z": 0.4296636751,
				"element": "C" 
			},
			{
				"x": -3.1991431263,
				"y": -2.380704521,
				"z": 0.8792909714,
				"element": "C" 
			},
			{
				"x": -2.7510351663,
				"y": -2.2679365106,
				"z": 2.2062283133,
				"element": "C" 
			},
			{
				"x": -2.9305172971,
				"y": -3.3608427228,
				"z": 3.0694791804,
				"element": "C" 
			},
			{
				"x": -3.5304436477,
				"y": -4.53624119,
				"z": 2.6175565722,
				"element": "C" 
			},
			{
				"x": -2.1521313495,
				"y": -1.0041060082,
				"z": 2.7183056,
				"element": "C" 
			},
			{
				"x": -1.0172102342,
				"y": -0.3801502361,
				"z": 2.1151139666,
				"element": "C" 
			},
			{
				"x": -0.3072617409,
				"y": -0.9524429087,
				"z": 1.0074789081,
				"element": "C" 
			},
			{
				"x": 0.7798387581,
				"y": -0.337934014,
				"z": 0.4632121512,
				"element": "C" 
			},
			{
				"x": 1.2675998422,
				"y": 0.9125835805,
				"z": 0.9697986775,
				"element": "C" 
			},
			{
				"x": 2.3961690052,
				"y": 1.5903079802,
				"z": 0.4145393878,
				"element": "C" 
			},
			{
				"x": 2.7256539632,
				"y": 2.8291663306,
				"z": 0.945285747,
				"element": "C" 
			},
			{
				"x": 1.9732262329,
				"y": 3.3511332598,
				"z": 2.0120445186,
				"element": "C" 
			},
			{
				"x": 0.9466944417,
				"y": 2.7310274273,
				"z": 2.567475743,
				"element": "N" 
			},
			{
				"x": 0.5852900746,
				"y": 1.5305173903,
				"z": 2.0597377597,
				"element": "C" 
			},
			{
				"x": -0.5608221843,
				"y": 0.8544918379,
				"z": 2.6653808212,
				"element": "C" 
			},
			{
				"x": -1.1399657512,
				"y": 1.4396264981,
				"z": 3.7386082401,
				"element": "N" 
			},
			{
				"x": -2.1668451972,
				"y": 0.8229811131,
				"z": 4.2972454806,
				"element": "C" 
			},
			{
				"x": -2.7078423569,
				"y": -0.3876968051,
				"z": 3.8301864866,
				"element": "C" 
			},
			{
				"x": 3.2181536543,
				"y": 1.0257916396,
				"z": -0.6917529961,
				"element": "C" 
			},
			{
				"x": 3.4403536768,
				"y": 1.7779013193,
				"z": -1.8565801947,
				"element": "C" 
			},
			{
				"x": 4.2440203412,
				"y": 1.2825794485,
				"z": -2.883463818,
				"element": "C" 
			},
			{
				"x": 4.8460881894,
				"y": 0.0291876334,
				"z": -2.7607389202,
				"element": "C" 
			},
			{
				"x": 4.6397798759,
				"y": -0.7252132667,
				"z": -1.6039792747,
				"element": "C" 
			},
			{
				"x": 3.8324039507,
				"y": -0.2328747957,
				"z": -0.5787617931,
				"element": "C" 
			},
			{
				"x": -4.4371653647,
				"y": -5.5515787097,
				"z": 0.9440761192,
				"element": "H" 
			},
			{
				"x": -4.1513872142,
				"y": -3.6205725833,
				"z": -0.5972514996,
				"element": "H" 
			},
			{
				"x": -3.0904711455,
				"y": -1.5360662414,
				"z": 0.2055365465,
				"element": "H" 
			},
			{
				"x": -2.582761663,
				"y": -3.288322656,
				"z": 4.0959482872,
				"element": "H" 
			},
			{
				"x": -3.6531527973,
				"y": -5.3739634392,
				"z": 3.2981282629,
				"element": "H" 
			},
			{
				"x": -0.6436560196,
				"y": -1.9008611593,
				"z": 0.6049515408,
				"element": "H" 
			},
			{
				"x": 1.2876096497,
				"y": -0.7944148822,
				"z": -0.3784924598,
				"element": "H" 
			},
			{
				"x": 3.5779190335,
				"y": 3.3803016358,
				"z": 0.5600896627,
				"element": "H" 
			},
			{
				"x": 2.2384437374,
				"y": 4.3198971802,
				"z": 2.4347957266,
				"element": "H" 
			},
			{
				"x": -2.6097777382,
				"y": 1.3115798591,
				"z": 5.1647946443,
				"element": "H" 
			},
			{
				"x": -3.5743835363,
				"y": -0.8208797913,
				"z": 4.320027845,
				"element": "H" 
			},
			{
				"x": 2.9661520873,
				"y": 2.7497825417,
				"z": -1.9586330533,
				"element": "H" 
			},
			{
				"x": 4.3974597367,
				"y": 1.8756747257,
				"z": -3.780519027,
				"element": "H" 
			},
			{
				"x": 5.4731959972,
				"y": -0.3562966163,
				"z": -3.5593520119,
				"element": "H" 
			},
			{
				"x": 5.1134045312,
				"y": -1.6967665047,
				"z": -1.495407554,
				"element": "H" 
			},
			{
				"x": 3.6910214618,
				"y": -0.8165863879,
				"z": 0.3259213619,
				"element": "H" 
			}
		],
		 "valence_orbital": [ 
			{
				"type": "occ",
				"energy": -0.25414,
				"method": "rhf"
			},
			{
				"type": "occ",
				"energy": -0.25145,
				"method": "rhf"
			},
			{
				"type": "occ",
				"energy": -0.23693,
				"method": "rhf"
			},
			{
				"type": "occ",
				"energy": -0.23415,
				"method": "rhf"
			},
			{
				"type": "occ",
				"energy": -0.21962,
				"method": "rhf"
			},
			{
				"type": "unocc",
				"energy": -0.05413,
				"method": "rhf"
			},
			{
				"type": "unocc",
				"energy": -0.0505,
				"method": "rhf"
			},
			{
				"type": "unocc",
				"energy": -0.01646,
				"method": "rhf"
			},
			{
				"type": "unocc",
				"energy": -0.0137,
				"method": "rhf"
			},
			{
				"type": "unocc",
				"energy": -0.00879,
				"method": "rhf"
			}
		],
		"cosmo_sigma_profile": { 
			"-0.025": 0.0,
			"-0.024": 0.0,
			"-0.023": 0.0,
			"-0.022": 0.0,
			"-0.021": 0.0,
			"-0.02": 0.0,
			"-0.019": 0.0,
			"-0.018": 0.0,
			"-0.017": 0.0,
			"-0.016": 0.0,
			"-0.015": 0.0,
			"-0.014": 0.0,
			"-0.013": 0.0,
			"-0.012": 0.0,
			"-0.011": 0.0,
			"-0.01": 0.0,
			"-0.009": 0.0,
			"-0.008": 0.0,
			"-0.007": 2.88800746893,
			"-0.006": 22.8101953304,
			"-0.005": 33.0142127014,
			"-0.004": 36.7047203143,
			"-0.003": 29.5192470802,
			"-0.002": 26.668294273,
			"-0.001": 23.2335601095,
			"0.0": 27.9098184367,
			"0.001": 44.1496786782,
			"0.002": 36.4409261338,
			"0.003": 22.8091328275,
			"0.004": 21.4646573122,
			"0.005": 19.2248474636,
			"0.006": 3.78247413904,
			"0.007": 2.00101914094,
			"0.008": 1.97625157592,
			"0.009": 1.87869461116,
			"0.01": 1.33165599041,
			"0.011": 0.927845382981,
			"0.012": 1.03805599152,
			"0.013": 1.65077648416,
			"0.014": 1.38749194763,
			"0.015": 0.874690965766,
			"0.016": 0.841941583331,
			"0.017": 0.909327759269,
			"0.018": 0.891234130524,
			"0.019": 1.22077448422,
			"0.02": 0.688922968555,
			"0.021": 0.526683378691,
			"0.022": 0.611814868249,
			"0.023": 0.0571802789471,
			"0.024": 0.0,
			"0.025": 0.0
		}
	}
}
