{
	 "smiles": "OC(=O)C1CCCN1C(=O)C1=CC2=C(NN=N2)C=C1", 
	 "Tm": 497.15, 
	 "num_atms": 31, 
	 "gaussian": { 
		 "optdone": 1, 
		 "sigma_profile": "yes", 
		 "theory": "DFT", 
		 "functional": "B3LYP", 
		 "basiset": "6-31G**", 
		 "properties": { 
			 "R2extent": 5832.3728, 
			 "electric_dipole_moment_norm": 6.89863533824, 
			 "electric_quadrupole_moment_norm": 29.371735838, 
			 "total_energy": -909.165920425, 
			 "HOMO_LUMO_gap": 0.19039, 
			 "cosmo_polarized_energy": -31.64, 
			 "cosmo_cavitation_energy": 34.86, 
			 "cosmo_dispersion_energy": -24.67, 
			 "cosmo_repulsion_energy": 1.89, 
			 "cosmo_total_nonelectrostatic_energy": 12.08, 
			 "SMD_solvation_energy": 5.04 
		},
		"coords": [
			{
				"x": 0.2696159631,
				"y": 0.2341993592,
				"z": 4.1526720445,
				"element": "O" 
			},
			{
				"x": 0.915505694,
				"y": 0.8523042857,
				"z": 3.1294324622,
				"element": "C" 
			},
			{
				"x": 2.0996772513,
				"y": 1.0606903239,
				"z": 3.1893326727,
				"element": "O" 
			},
			{
				"x": 0.0056934504,
				"y": 1.2914250036,
				"z": 1.9665034694,
				"element": "C" 
			},
			{
				"x": -0.7940592232,
				"y": 2.5537490245,
				"z": 2.3840302429,
				"element": "C" 
			},
			{
				"x": 0.2000017104,
				"y": 3.6849150278,
				"z": 2.0761107539,
				"element": "C" 
			},
			{
				"x": 0.8784483822,
				"y": 3.2237082323,
				"z": 0.7773730051,
				"element": "C" 
			},
			{
				"x": 0.7597455545,
				"y": 1.7513780907,
				"z": 0.8062469893,
				"element": "N" 
			},
			{
				"x": 0.9574887631,
				"y": 1.0709153262,
				"z": -0.3732840071,
				"element": "C" 
			},
			{
				"x": 1.2460282532,
				"y": 1.6752013645,
				"z": -1.404050664,
				"element": "O" 
			},
			{
				"x": 0.8103604476,
				"y": -0.4261432062,
				"z": -0.3889709798,
				"element": "C" 
			},
			{
				"x": 1.340353083,
				"y": -1.2501628877,
				"z": 0.5991856478,
				"element": "C" 
			},
			{
				"x": 1.2123094588,
				"y": -2.637006361,
				"z": 0.4247362616,
				"element": "C" 
			},
			{
				"x": 0.5724134944,
				"y": -3.1675918762,
				"z": -0.7141242758,
				"element": "C" 
			},
			{
				"x": 0.6494511617,
				"y": -4.5128674683,
				"z": -0.5103737314,
				"element": "N" 
			},
			{
				"x": 1.2917551388,
				"y": -4.7935026955,
				"z": 0.6643184965,
				"element": "N" 
			},
			{
				"x": 1.6304989159,
				"y": -3.6828570913,
				"z": 1.2257624911,
				"element": "N" 
			},
			{
				"x": 0.0521968027,
				"y": -2.3460236556,
				"z": -1.7270385853,
				"element": "C" 
			},
			{
				"x": 0.1957310095,
				"y": -0.9822586277,
				"z": -1.546235961,
				"element": "C" 
			},
			{
				"x": -0.6639970847,
				"y": 0.0957431975,
				"z": 3.9362618175,
				"element": "H" 
			},
			{
				"x": -0.6493310132,
				"y": 0.4566765746,
				"z": 1.6950410027,
				"element": "H" 
			},
			{
				"x": -1.1159550905,
				"y": 2.5297443543,
				"z": 3.4291066155,
				"element": "H" 
			},
			{
				"x": -1.6855535098,
				"y": 2.6350525166,
				"z": 1.7532883844,
				"element": "H" 
			},
			{
				"x": -0.2873867703,
				"y": 4.6565151767,
				"z": 1.964620242,
				"element": "H" 
			},
			{
				"x": 0.934748345,
				"y": 3.7664241573,
				"z": 2.8827921139,
				"element": "H" 
			},
			{
				"x": 1.9288992298,
				"y": 3.5196581104,
				"z": 0.7157385683,
				"element": "H" 
			},
			{
				"x": 0.3760455199,
				"y": 3.6020247104,
				"z": -0.1190537431,
				"element": "H" 
			},
			{
				"x": 1.8753294782,
				"y": -0.8529808917,
				"z": 1.4544082291,
				"element": "H" 
			},
			{
				"x": 0.3275719344,
				"y": -5.2765795929,
				"z": -1.0853752412,
				"element": "H" 
			},
			{
				"x": -0.4254716005,
				"y": -2.7511759021,
				"z": -2.6129921796,
				"element": "H" 
			},
			{
				"x": -0.1523147496,
				"y": -0.29317458,
				"z": -2.3080621421,
				"element": "H" 
			}
		],
		 "valence_orbital": [ 
			{
				"type": "occ",
				"energy": -0.27578,
				"method": "rhf"
			},
			{
				"type": "occ",
				"energy": -0.2682,
				"method": "rhf"
			},
			{
				"type": "occ",
				"energy": -0.25456,
				"method": "rhf"
			},
			{
				"type": "occ",
				"energy": -0.24946,
				"method": "rhf"
			},
			{
				"type": "occ",
				"energy": -0.24543,
				"method": "rhf"
			},
			{
				"type": "unocc",
				"energy": -0.05504,
				"method": "rhf"
			},
			{
				"type": "unocc",
				"energy": -0.02582,
				"method": "rhf"
			},
			{
				"type": "unocc",
				"energy": -0.00447,
				"method": "rhf"
			},
			{
				"type": "unocc",
				"energy": 0.0245,
				"method": "rhf"
			},
			{
				"type": "unocc",
				"energy": 0.03934,
				"method": "rhf"
			}
		],
		"cosmo_sigma_profile": { 
			"-0.025": 0.0,
			"-0.024": 0.0,
			"-0.023": 0.0,
			"-0.022": 0.0,
			"-0.021": 0.0,
			"-0.02": 0.170243345074,
			"-0.019": 1.18784213467,
			"-0.018": 2.43611678684,
			"-0.017": 3.11463463087,
			"-0.016": 2.02626210863,
			"-0.015": 2.90139756115,
			"-0.014": 1.48277251729,
			"-0.013": 2.30961149443,
			"-0.012": 2.44839910958,
			"-0.011": 2.20261074891,
			"-0.01": 1.80406532594,
			"-0.009": 2.99657696764,
			"-0.008": 5.58979875455,
			"-0.007": 5.91075263711,
			"-0.006": 9.04253239296,
			"-0.005": 17.9034328222,
			"-0.004": 21.4959449044,
			"-0.003": 22.3139467119,
			"-0.002": 19.2739064384,
			"-0.001": 19.1006023961,
			"0.0": 15.8381800786,
			"0.001": 15.2838212827,
			"0.002": 12.4373765769,
			"0.003": 10.0059290993,
			"0.004": 6.17318739721,
			"0.005": 5.27085270389,
			"0.006": 5.82513352559,
			"0.007": 6.58826928921,
			"0.008": 6.38606656701,
			"0.009": 8.40444235697,
			"0.01": 10.5845071664,
			"0.011": 9.24557313105,
			"0.012": 8.0386723787,
			"0.013": 6.51826909253,
			"0.014": 3.94259596358,
			"0.015": 0.807363380739,
			"0.016": 0.0226362619381,
			"0.017": 0.0,
			"0.018": 0.0,
			"0.019": 0.0,
			"0.02": 0.0,
			"0.021": 0.0,
			"0.022": 0.0,
			"0.023": 0.0,
			"0.024": 0.0,
			"0.025": 0.0
		}
	}
}
