{
	 "smiles": "O=C(CN1CCNCC1)N1CCCC1", 
	 "Tm": 348.65, 
	 "num_atms": 33, 
	 "gaussian": { 
		 "optdone": 1, 
		 "sigma_profile": "yes", 
		 "theory": "DFT", 
		 "functional": "B3LYP", 
		 "basiset": "6-31G**", 
		 "properties": { 
			 "R2extent": 4146.0958, 
			 "electric_dipole_moment_norm": 4.32711048623, 
			 "electric_quadrupole_moment_norm": 14.6448811774, 
			 "total_energy": -631.974818624, 
			 "HOMO_LUMO_gap": 0.21648, 
			 "cosmo_polarized_energy": -16.25, 
			 "cosmo_cavitation_energy": 32.42, 
			 "cosmo_dispersion_energy": -23.99, 
			 "cosmo_repulsion_energy": 1.91, 
			 "cosmo_total_nonelectrostatic_energy": 10.34, 
			 "SMD_solvation_energy": -0.45 
		},
		"coords": [
			{
				"x": 1.2063087036,
				"y": 1.5798290793,
				"z": 0.946105372,
				"element": "O" 
			},
			{
				"x": 0.6432132389,
				"y": 0.5763688085,
				"z": 1.3712778804,
				"element": "C" 
			},
			{
				"x": -0.1736218598,
				"y": -0.370346733,
				"z": 0.4747354248,
				"element": "C" 
			},
			{
				"x": -0.4315460923,
				"y": 0.1865078634,
				"z": -0.8350108254,
				"element": "N" 
			},
			{
				"x": 0.7401453244,
				"y": 0.3035211737,
				"z": -1.7272095599,
				"element": "C" 
			},
			{
				"x": 0.7192190942,
				"y": -0.7449725528,
				"z": -2.8698276859,
				"element": "C" 
			},
			{
				"x": 0.1072588228,
				"y": -2.0164569988,
				"z": -2.4753123626,
				"element": "N" 
			},
			{
				"x": -1.2962199963,
				"y": -1.8316802852,
				"z": -2.0669945728,
				"element": "C" 
			},
			{
				"x": -1.5738532886,
				"y": -0.4019282343,
				"z": -1.5261799327,
				"element": "C" 
			},
			{
				"x": 0.7329362683,
				"y": 0.2097178519,
				"z": 2.6854130664,
				"element": "N" 
			},
			{
				"x": 0.089120809,
				"y": -0.9403862411,
				"z": 3.3321351213,
				"element": "C" 
			},
			{
				"x": 0.7303159501,
				"y": -0.9653753282,
				"z": 4.7293433833,
				"element": "C" 
			},
			{
				"x": 1.0293677247,
				"y": 0.5178401806,
				"z": 5.0062407471,
				"element": "C" 
			},
			{
				"x": 1.4753026735,
				"y": 1.0500548012,
				"z": 3.6374045777,
				"element": "C" 
			},
			{
				"x": -1.1385633738,
				"y": -0.5616092233,
				"z": 0.9607519786,
				"element": "H" 
			},
			{
				"x": 0.3538884062,
				"y": -1.3487371625,
				"z": 0.4671221296,
				"element": "H" 
			},
			{
				"x": 1.6430444377,
				"y": 0.1847166955,
				"z": -1.1235934171,
				"element": "H" 
			},
			{
				"x": 0.788622629,
				"y": 1.3193016335,
				"z": -2.1441984886,
				"element": "H" 
			},
			{
				"x": 0.1575372089,
				"y": -0.363292007,
				"z": -3.7320880833,
				"element": "H" 
			},
			{
				"x": 1.7379845514,
				"y": -0.9304748537,
				"z": -3.2279601594,
				"element": "H" 
			},
			{
				"x": 0.6352179503,
				"y": -2.4069830172,
				"z": -1.699504185,
				"element": "H" 
			},
			{
				"x": -1.9580373117,
				"y": -2.0309604971,
				"z": -2.9231882271,
				"element": "H" 
			},
			{
				"x": -1.533847604,
				"y": -2.5864443725,
				"z": -1.3089483578,
				"element": "H" 
			},
			{
				"x": -2.4443793223,
				"y": -0.4021873458,
				"z": -0.859805454,
				"element": "H" 
			},
			{
				"x": -1.8288877435,
				"y": 0.2624454901,
				"z": -2.3618232027,
				"element": "H" 
			},
			{
				"x": 0.2671939557,
				"y": -1.8675474089,
				"z": 2.7766986424,
				"element": "H" 
			},
			{
				"x": -0.9998892285,
				"y": -0.7991227529,
				"z": 3.4026688989,
				"element": "H" 
			},
			{
				"x": 1.6642489912,
				"y": -1.5379396427,
				"z": 4.6981172918,
				"element": "H" 
			},
			{
				"x": 0.0795016958,
				"y": -1.427264303,
				"z": 5.4766445505,
				"element": "H" 
			},
			{
				"x": 1.7871293456,
				"y": 0.6655285268,
				"z": 5.7801409002,
				"element": "H" 
			},
			{
				"x": 0.1164668209,
				"y": 1.0308367296,
				"z": 5.3301205771,
				"element": "H" 
			},
			{
				"x": 2.5565642647,
				"y": 0.9322482054,
				"z": 3.4855976597,
				"element": "H" 
			},
			{
				"x": 1.238556954,
				"y": 2.1038919205,
				"z": 3.4717263124,
				"element": "H" 
			}
		],
		 "valence_orbital": [ 
			{
				"type": "occ",
				"energy": -0.32495,
				"method": "rhf"
			},
			{
				"type": "occ",
				"energy": -0.23769,
				"method": "rhf"
			},
			{
				"type": "occ",
				"energy": -0.23277,
				"method": "rhf"
			},
			{
				"type": "occ",
				"energy": -0.23043,
				"method": "rhf"
			},
			{
				"type": "occ",
				"energy": -0.18285,
				"method": "rhf"
			},
			{
				"type": "unocc",
				"energy": 0.03363,
				"method": "rhf"
			},
			{
				"type": "unocc",
				"energy": 0.06007,
				"method": "rhf"
			},
			{
				"type": "unocc",
				"energy": 0.07893,
				"method": "rhf"
			},
			{
				"type": "unocc",
				"energy": 0.09718,
				"method": "rhf"
			},
			{
				"type": "unocc",
				"energy": 0.11016,
				"method": "rhf"
			}
		],
		"cosmo_sigma_profile": { 
			"-0.025": 0.0,
			"-0.024": 0.0,
			"-0.023": 0.0,
			"-0.022": 0.0,
			"-0.021": 0.0,
			"-0.02": 0.0,
			"-0.019": 0.0,
			"-0.018": 0.0,
			"-0.017": 0.0,
			"-0.016": 0.0,
			"-0.015": 0.0,
			"-0.014": 0.0,
			"-0.013": 0.0,
			"-0.012": 0.0,
			"-0.011": 0.0,
			"-0.01": 0.00199470556965,
			"-0.009": 1.01022134114,
			"-0.008": 2.19490492082,
			"-0.007": 2.63373116241,
			"-0.006": 3.76333802947,
			"-0.005": 12.0704576779,
			"-0.004": 25.9887827865,
			"-0.003": 46.1594340271,
			"-0.002": 41.9441993603,
			"-0.001": 31.5054864832,
			"0.0": 21.6509153439,
			"0.001": 8.55610040366,
			"0.002": 5.60762568248,
			"0.003": 4.59296466753,
			"0.004": 4.35400951497,
			"0.005": 2.31249853255,
			"0.006": 3.23505579733,
			"0.007": 2.76852831547,
			"0.008": 2.70557089443,
			"0.009": 1.7771177811,
			"0.01": 2.62056979764,
			"0.011": 3.07417972548,
			"0.012": 2.6290100811,
			"0.013": 2.53356425697,
			"0.014": 5.39854400076,
			"0.015": 4.31377972745,
			"0.016": 1.78343199949,
			"0.017": 1.60236857791,
			"0.018": 1.17641718894,
			"0.019": 0.313854631272,
			"0.02": 0.00268763111879,
			"0.021": 0.0,
			"0.022": 0.0,
			"0.023": 0.0,
			"0.024": 0.0,
			"0.025": 0.0
		}
	}
}
