{
	 "smiles": "OC1=C2N=CC=CC2=C(F)C=C1", 
	 "Tm": 383.15, 
	 "num_atms": 18, 
	 "gaussian": { 
		 "optdone": 1, 
		 "sigma_profile": "yes", 
		 "theory": "DFT", 
		 "functional": "B3LYP", 
		 "basiset": "6-31G**", 
		 "properties": { 
			 "R2extent": 1821.2616, 
			 "electric_dipole_moment_norm": 1.88782961625, 
			 "electric_quadrupole_moment_norm": 7.69009229528, 
			 "total_energy": -576.390554199, 
			 "HOMO_LUMO_gap": 0.15087, 
			 "cosmo_polarized_energy": -6.2, 
			 "cosmo_cavitation_energy": 22.51, 
			 "cosmo_dispersion_energy": -17.11, 
			 "cosmo_repulsion_energy": 1.31, 
			 "cosmo_total_nonelectrostatic_energy": 6.71, 
			 "SMD_solvation_energy": 3.65 
		},
		"coords": [
			{
				"x": -1.9480892249,
				"y": -0.8105742881,
				"z": -1.4738038101,
				"element": "O" 
			},
			{
				"x": -1.2225530709,
				"y": -0.6117042258,
				"z": -0.3516643369,
				"element": "C" 
			},
			{
				"x": -0.0408794727,
				"y": 0.1896688635,
				"z": -0.4354475944,
				"element": "C" 
			},
			{
				"x": 0.2674638155,
				"y": 0.6986662773,
				"z": -1.6578554914,
				"element": "N" 
			},
			{
				"x": 1.3529079481,
				"y": 1.4420233517,
				"z": -1.7636832937,
				"element": "C" 
			},
			{
				"x": 2.2084314039,
				"y": 1.7344164894,
				"z": -0.6722703934,
				"element": "C" 
			},
			{
				"x": 1.9093907009,
				"y": 1.2261188998,
				"z": 0.5719486779,
				"element": "C" 
			},
			{
				"x": 0.7524802049,
				"y": 0.4236059705,
				"z": 0.7259356141,
				"element": "C" 
			},
			{
				"x": 0.3282726319,
				"y": -0.1603328598,
				"z": 1.9420551949,
				"element": "C" 
			},
			{
				"x": 1.0807249365,
				"y": 0.0605254674,
				"z": 3.0473390406,
				"element": "F" 
			},
			{
				"x": -0.8062698804,
				"y": -0.9284345636,
				"z": 2.0171700493,
				"element": "C" 
			},
			{
				"x": -1.5913171052,
				"y": -1.1583177611,
				"z": 0.8616129834,
				"element": "C" 
			},
			{
				"x": -1.4734427234,
				"y": -0.3220064137,
				"z": -2.1744966199,
				"element": "H" 
			},
			{
				"x": 1.5790912056,
				"y": 1.8382774688,
				"z": -2.7519933886,
				"element": "H" 
			},
			{
				"x": 3.0858875511,
				"y": 2.3531352027,
				"z": -0.8293231667,
				"element": "H" 
			},
			{
				"x": 2.5381479331,
				"y": 1.426155911,
				"z": 1.4332430768,
				"element": "H" 
			},
			{
				"x": -1.0938749263,
				"y": -1.3566894557,
				"z": 2.9712146835,
				"element": "H" 
			},
			{
				"x": -2.4878719276,
				"y": -1.7652343342,
				"z": 0.9207187744,
				"element": "H" 
			}
		],
		 "valence_orbital": [ 
			{
				"type": "occ",
				"energy": -0.32878,
				"method": "rhf"
			},
			{
				"type": "occ",
				"energy": -0.29935,
				"method": "rhf"
			},
			{
				"type": "occ",
				"energy": -0.28121,
				"method": "rhf"
			},
			{
				"type": "occ",
				"energy": -0.26327,
				"method": "rhf"
			},
			{
				"type": "occ",
				"energy": -0.20967,
				"method": "rhf"
			},
			{
				"type": "unocc",
				"energy": -0.0588,
				"method": "rhf"
			},
			{
				"type": "unocc",
				"energy": -0.02732,
				"method": "rhf"
			},
			{
				"type": "unocc",
				"energy": 0.03173,
				"method": "rhf"
			},
			{
				"type": "unocc",
				"energy": 0.08321,
				"method": "rhf"
			},
			{
				"type": "unocc",
				"energy": 0.09409,
				"method": "rhf"
			}
		],
		"cosmo_sigma_profile": { 
			"-0.025": 0.0,
			"-0.024": 0.0,
			"-0.023": 0.0,
			"-0.022": 0.0,
			"-0.021": 0.0,
			"-0.02": 0.0,
			"-0.019": 0.0,
			"-0.018": 0.0,
			"-0.017": 0.0,
			"-0.016": 0.0,
			"-0.015": 0.0,
			"-0.014": 0.0,
			"-0.013": 0.028599770553,
			"-0.012": 0.275955787492,
			"-0.011": 0.458853353681,
			"-0.01": 0.688886242014,
			"-0.009": 0.726237283751,
			"-0.008": 1.87433481751,
			"-0.007": 9.24238020075,
			"-0.006": 10.9412435503,
			"-0.005": 11.040015573,
			"-0.004": 8.90156981614,
			"-0.003": 7.45606901527,
			"-0.002": 8.5035130324,
			"-0.001": 9.48028419137,
			"0.0": 19.608217676,
			"0.001": 27.2576356247,
			"0.002": 17.6516349224,
			"0.003": 13.8410396714,
			"0.004": 14.1042475729,
			"0.005": 5.60003937214,
			"0.006": 2.90729735223,
			"0.007": 2.88031184213,
			"0.008": 2.64748091347,
			"0.009": 1.43023994894,
			"0.01": 1.36926762052,
			"0.011": 2.22901042859,
			"0.012": 0.53534559116,
			"0.013": 0.0,
			"0.014": 0.0,
			"0.015": 0.0,
			"0.016": 0.0,
			"0.017": 0.0,
			"0.018": 0.0,
			"0.019": 0.0,
			"0.02": 0.0,
			"0.021": 0.0,
			"0.022": 0.0,
			"0.023": 0.0,
			"0.024": 0.0,
			"0.025": 0.0
		}
	}
}
