{
	 "smiles": "BrC1=CC(=CC=C1)C1=CC=C(O1)C=O", 
	 "Tm": 373.15, 
	 "num_atms": 21, 
	 "gaussian": { 
		 "optdone": 1, 
		 "sigma_profile": "yes", 
		 "theory": "DFT", 
		 "functional": "B3LYP", 
		 "basiset": "6-31G**", 
		 "properties": { 
			 "R2extent": 6066.4128, 
			 "electric_dipole_moment_norm": 4.16418355743, 
			 "electric_quadrupole_moment_norm": 13.4324222588, 
			 "total_energy": -3145.21545723, 
			 "HOMO_LUMO_gap": 0.15138, 
			 "cosmo_polarized_energy": -9.8, 
			 "cosmo_cavitation_energy": 29.16, 
			 "cosmo_dispersion_energy": -21.49, 
			 "cosmo_repulsion_energy": 1.68, 
			 "cosmo_total_nonelectrostatic_energy": 9.35, 
			 "SMD_solvation_energy": 5.33 
		},
		"coords": [
			{
				"x": -1.206741175,
				"y": -4.0171481828,
				"z": -2.0987824487,
				"element": "Br" 
			},
			{
				"x": -1.3764340192,
				"y": -2.3500730199,
				"z": -1.1793375162,
				"element": "C" 
			},
			{
				"x": -0.2624563037,
				"y": -1.8108040082,
				"z": -0.5460942472,
				"element": "C" 
			},
			{
				"x": -0.3780608021,
				"y": -0.5847740177,
				"z": 0.1329090315,
				"element": "C" 
			},
			{
				"x": -1.6217306369,
				"y": 0.0710210302,
				"z": 0.1565509833,
				"element": "C" 
			},
			{
				"x": -2.7223386687,
				"y": -0.4883860918,
				"z": -0.4845771375,
				"element": "C" 
			},
			{
				"x": -2.6127904175,
				"y": -1.705932777,
				"z": -1.1603300104,
				"element": "C" 
			},
			{
				"x": 0.7789694203,
				"y": -0.0038975979,
				"z": 0.802783356,
				"element": "C" 
			},
			{
				"x": 0.9639254438,
				"y": 1.1557889118,
				"z": 1.5304097408,
				"element": "C" 
			},
			{
				"x": 2.3212460972,
				"y": 1.1747008432,
				"z": 1.9307801527,
				"element": "C" 
			},
			{
				"x": 2.8937512889,
				"y": 0.0298532429,
				"z": 1.4292436396,
				"element": "C" 
			},
			{
				"x": 1.9511189626,
				"y": -0.6908805816,
				"z": 0.7395570336,
				"element": "O" 
			},
			{
				"x": 4.2407994537,
				"y": -0.513812876,
				"z": 1.4995852444,
				"element": "C" 
			},
			{
				"x": 5.1582047909,
				"y": 0.0383970693,
				"z": 2.0840709564,
				"element": "O" 
			},
			{
				"x": 0.6878036554,
				"y": -2.3285893099,
				"z": -0.5738798317,
				"element": "H" 
			},
			{
				"x": -1.7264034284,
				"y": 1.017647375,
				"z": 0.6762824535,
				"element": "H" 
			},
			{
				"x": -3.6788787464,
				"y": 0.0248568544,
				"z": -0.4612577831,
				"element": "H" 
			},
			{
				"x": -3.4675433113,
				"y": -2.1452447992,
				"z": -1.6610279369,
				"element": "H" 
			},
			{
				"x": 0.2133091103,
				"y": 1.9010254976,
				"z": 1.7485522771,
				"element": "H" 
			},
			{
				"x": 2.8346982577,
				"y": 1.9246606285,
				"z": 2.5143063323,
				"element": "H" 
			},
			{
				"x": 4.3707510285,
				"y": -1.4826081907,
				"z": 0.9734557105,
				"element": "H" 
			}
		],
		 "valence_orbital": [ 
			{
				"type": "occ",
				"energy": -0.29423,
				"method": "rhf"
			},
			{
				"type": "occ",
				"energy": -0.29347,
				"method": "rhf"
			},
			{
				"type": "occ",
				"energy": -0.25957,
				"method": "rhf"
			},
			{
				"type": "occ",
				"energy": -0.25708,
				"method": "rhf"
			},
			{
				"type": "occ",
				"energy": -0.22949,
				"method": "rhf"
			},
			{
				"type": "unocc",
				"energy": -0.07811,
				"method": "rhf"
			},
			{
				"type": "unocc",
				"energy": -0.03096,
				"method": "rhf"
			},
			{
				"type": "unocc",
				"energy": -0.02438,
				"method": "rhf"
			},
			{
				"type": "unocc",
				"energy": -0.00058,
				"method": "rhf"
			},
			{
				"type": "unocc",
				"energy": 0.04859,
				"method": "rhf"
			}
		],
		"cosmo_sigma_profile": { 
			"-0.025": 0.0,
			"-0.024": 0.0,
			"-0.023": 0.0,
			"-0.022": 0.0,
			"-0.021": 0.0,
			"-0.02": 0.0,
			"-0.019": 0.0,
			"-0.018": 0.0,
			"-0.017": 0.0,
			"-0.016": 0.0,
			"-0.015": 0.0,
			"-0.014": 0.0,
			"-0.013": 0.0,
			"-0.012": 0.0,
			"-0.011": 0.0,
			"-0.01": 0.444811455868,
			"-0.009": 2.58246030232,
			"-0.008": 4.97092134707,
			"-0.007": 9.73940253314,
			"-0.006": 13.7571393174,
			"-0.005": 12.7580147822,
			"-0.004": 13.1104464446,
			"-0.003": 13.1504959136,
			"-0.002": 11.9101341771,
			"-0.001": 19.0026338472,
			"0.0": 23.2926525415,
			"0.001": 26.0007085699,
			"0.002": 30.4659568014,
			"0.003": 20.5504286335,
			"0.004": 12.8868691714,
			"0.005": 6.07409962418,
			"0.006": 1.58114385635,
			"0.007": 1.11786985259,
			"0.008": 1.28658661977,
			"0.009": 1.99489619429,
			"0.01": 2.9088966007,
			"0.011": 4.01777573089,
			"0.012": 3.9700896574,
			"0.013": 1.33626620388,
			"0.014": 0.0318042996285,
			"0.015": 0.0,
			"0.016": 0.0,
			"0.017": 0.0,
			"0.018": 0.0,
			"0.019": 0.0,
			"0.02": 0.0,
			"0.021": 0.0,
			"0.022": 0.0,
			"0.023": 0.0,
			"0.024": 0.0,
			"0.025": 0.0
		}
	}
}
