{
	 "smiles": "OC(=O)C1CC(CCC1C(=O)C1=CC=CC=C1)C1=CC=CC=C1", 
	 "Tm": 459.15, 
	 "num_atms": 43, 
	 "gaussian": { 
		 "optdone": 1, 
		 "sigma_profile": "yes", 
		 "theory": "DFT", 
		 "functional": "B3LYP", 
		 "basiset": "6-31G**", 
		 "properties": { 
			 "R2extent": 9429.6756, 
			 "electric_dipole_moment_norm": 6.30972216504, 
			 "electric_quadrupole_moment_norm": 28.6033815934, 
			 "total_energy": -999.877966879, 
			 "HOMO_LUMO_gap": 0.16168, 
			 "cosmo_polarized_energy": -17.02, 
			 "cosmo_cavitation_energy": 44.28, 
			 "cosmo_dispersion_energy": -30.89, 
			 "cosmo_repulsion_energy": 2.32, 
			 "cosmo_total_nonelectrostatic_energy": 15.71, 
			 "SMD_solvation_energy": 8.04 
		},
		"coords": [
			{
				"x": -2.7808045337,
				"y": 0.3853853414,
				"z": -1.6557591392,
				"element": "O" 
			},
			{
				"x": -2.261815315,
				"y": -0.530177401,
				"z": -0.812117714,
				"element": "C" 
			},
			{
				"x": -2.9641621069,
				"y": -1.3670636683,
				"z": -0.2927631213,
				"element": "O" 
			},
			{
				"x": -0.7512432106,
				"y": -0.4217151952,
				"z": -0.5623044683,
				"element": "C" 
			},
			{
				"x": -0.1934236019,
				"y": -1.766430357,
				"z": -0.0696019813,
				"element": "C" 
			},
			{
				"x": 1.3576185488,
				"y": -1.7688898394,
				"z": 0.1012948923,
				"element": "C" 
			},
			{
				"x": 1.8988731956,
				"y": -0.3211472531,
				"z": 0.1886396143,
				"element": "C" 
			},
			{
				"x": 0.9954678231,
				"y": 0.550810745,
				"z": 1.0649133783,
				"element": "C" 
			},
			{
				"x": -0.4401397061,
				"y": 0.7181892655,
				"z": 0.4503788917,
				"element": "C" 
			},
			{
				"x": -0.5917363603,
				"y": 2.1059337748,
				"z": -0.1815275547,
				"element": "C" 
			},
			{
				"x": -0.7423153532,
				"y": 2.233642075,
				"z": -1.3972780573,
				"element": "O" 
			},
			{
				"x": -0.5456058371,
				"y": 3.3236717776,
				"z": 0.6847389093,
				"element": "C" 
			},
			{
				"x": -0.5010135392,
				"y": 4.5783802025,
				"z": 0.0524741508,
				"element": "C" 
			},
			{
				"x": -0.4818469678,
				"y": 5.74817486,
				"z": 0.8047172001,
				"element": "C" 
			},
			{
				"x": -0.5171599583,
				"y": 5.6816911233,
				"z": 2.2008455431,
				"element": "C" 
			},
			{
				"x": -0.5702020659,
				"y": 4.4414158284,
				"z": 2.840227207,
				"element": "C" 
			},
			{
				"x": -0.5810446956,
				"y": 3.2677991963,
				"z": 2.0882970875,
				"element": "C" 
			},
			{
				"x": 2.0990189135,
				"y": -2.571178465,
				"z": -0.9572158658,
				"element": "C" 
			},
			{
				"x": 3.0402595771,
				"y": -3.5378899468,
				"z": -0.580221254,
				"element": "C" 
			},
			{
				"x": 3.7496693632,
				"y": -4.2682432146,
				"z": -1.5358497439,
				"element": "C" 
			},
			{
				"x": 3.5277443445,
				"y": -4.0432982109,
				"z": -2.8944699738,
				"element": "C" 
			},
			{
				"x": 2.5923310165,
				"y": -3.0833819406,
				"z": -3.2871395151,
				"element": "C" 
			},
			{
				"x": 1.8880465199,
				"y": -2.3556185011,
				"z": -2.3281395533,
				"element": "C" 
			},
			{
				"x": -2.0819869023,
				"y": 1.0209565574,
				"z": -1.9083561369,
				"element": "H" 
			},
			{
				"x": -0.2794524856,
				"y": -0.1508868292,
				"z": -1.5133160966,
				"element": "H" 
			},
			{
				"x": -0.4999105852,
				"y": -2.555022613,
				"z": -0.7613668619,
				"element": "H" 
			},
			{
				"x": -0.6791150282,
				"y": -2.00701209,
				"z": 0.8810956382,
				"element": "H" 
			},
			{
				"x": 1.5750352231,
				"y": -2.2433364428,
				"z": 1.0663059323,
				"element": "H" 
			},
			{
				"x": 2.9166478298,
				"y": -0.3328463464,
				"z": 0.5935299108,
				"element": "H" 
			},
			{
				"x": 1.9764638235,
				"y": 0.1131326544,
				"z": -0.8156630684,
				"element": "H" 
			},
			{
				"x": 0.9065638792,
				"y": 0.0920702455,
				"z": 2.0569835109,
				"element": "H" 
			},
			{
				"x": 1.456540485,
				"y": 1.5302154749,
				"z": 1.2217511819,
				"element": "H" 
			},
			{
				"x": -1.1681233902,
				"y": 0.6526804214,
				"z": 1.268474176,
				"element": "H" 
			},
			{
				"x": -0.4847573832,
				"y": 4.6077687091,
				"z": -1.0315095214,
				"element": "H" 
			},
			{
				"x": -0.4434309543,
				"y": 6.7122026584,
				"z": 0.3064343032,
				"element": "H" 
			},
			{
				"x": -0.506622235,
				"y": 6.5948108505,
				"z": 2.7889839281,
				"element": "H" 
			},
			{
				"x": -0.6049290013,
				"y": 4.3879084337,
				"z": 3.9240926603,
				"element": "H" 
			},
			{
				"x": -0.6266283934,
				"y": 2.3132920534,
				"z": 2.6013104099,
				"element": "H" 
			},
			{
				"x": 3.2163578829,
				"y": -3.724019744,
				"z": 0.4768485726,
				"element": "H" 
			},
			{
				"x": 4.4716584315,
				"y": -5.0150640109,
				"z": -1.217169549,
				"element": "H" 
			},
			{
				"x": 4.0752191662,
				"y": -4.6114041468,
				"z": -3.6409924134,
				"element": "H" 
			},
			{
				"x": 2.4092234294,
				"y": -2.9014314123,
				"z": -4.3425415276,
				"element": "H" 
			},
			{
				"x": 1.1632301575,
				"y": -1.6142746202,
				"z": -2.6544339814,
				"element": "H" 
			}
		],
		 "valence_orbital": [ 
			{
				"type": "occ",
				"energy": -0.27411,
				"method": "rhf"
			},
			{
				"type": "occ",
				"energy": -0.27084,
				"method": "rhf"
			},
			{
				"type": "occ",
				"energy": -0.25441,
				"method": "rhf"
			},
			{
				"type": "occ",
				"energy": -0.24831,
				"method": "rhf"
			},
			{
				"type": "occ",
				"energy": -0.24015,
				"method": "rhf"
			},
			{
				"type": "unocc",
				"energy": -0.07847,
				"method": "rhf"
			},
			{
				"type": "unocc",
				"energy": -0.02355,
				"method": "rhf"
			},
			{
				"type": "unocc",
				"energy": -0.00189,
				"method": "rhf"
			},
			{
				"type": "unocc",
				"energy": 0.00182,
				"method": "rhf"
			},
			{
				"type": "unocc",
				"energy": 0.01608,
				"method": "rhf"
			}
		],
		"cosmo_sigma_profile": { 
			"-0.025": 0.0,
			"-0.024": 0.0,
			"-0.023": 0.0,
			"-0.022": 0.0,
			"-0.021": 0.0,
			"-0.02": 0.0,
			"-0.019": 0.0,
			"-0.018": 0.0,
			"-0.017": 0.0,
			"-0.016": 0.0,
			"-0.015": 0.0,
			"-0.014": 0.0,
			"-0.013": 0.0,
			"-0.012": 0.0,
			"-0.011": 0.0,
			"-0.01": 0.0,
			"-0.009": 0.722917030843,
			"-0.008": 4.17697996207,
			"-0.007": 9.449368691,
			"-0.006": 16.2779032442,
			"-0.005": 27.9121705878,
			"-0.004": 33.9840990385,
			"-0.003": 38.492930549,
			"-0.002": 32.5613601102,
			"-0.001": 25.9771190264,
			"0.0": 20.8033425984,
			"0.001": 20.8018986932,
			"0.002": 19.9518896697,
			"0.003": 21.6050029243,
			"0.004": 19.2369855616,
			"0.005": 10.6055579586,
			"0.006": 11.3966823965,
			"0.007": 8.00444974321,
			"0.008": 3.19947190238,
			"0.009": 5.06564051911,
			"0.01": 4.74164961066,
			"0.011": 5.62973506484,
			"0.012": 5.97578912743,
			"0.013": 3.36090697404,
			"0.014": 0.636451024171,
			"0.015": 0.0,
			"0.016": 0.0,
			"0.017": 0.0,
			"0.018": 0.0,
			"0.019": 0.0,
			"0.02": 0.0,
			"0.021": 0.0,
			"0.022": 0.0,
			"0.023": 0.0,
			"0.024": 0.0,
			"0.025": 0.0
		}
	}
}
