{
	 "smiles": "CC1=CC=C(CNC(=O)NCC(O)=O)C=C1", 
	 "Tm": 448.15, 
	 "num_atms": 30, 
	 "gaussian": { 
		 "optdone": 1, 
		 "sigma_profile": "yes", 
		 "theory": "DFT", 
		 "functional": "B3LYP", 
		 "basiset": "6-31G**", 
		 "properties": { 
			 "R2extent": 7313.6522, 
			 "electric_dipole_moment_norm": 8.06761406675, 
			 "electric_quadrupole_moment_norm": 33.688451014, 
			 "total_energy": -762.822367373, 
			 "HOMO_LUMO_gap": 0.23041, 
			 "cosmo_polarized_energy": -23.09, 
			 "cosmo_cavitation_energy": 34.81, 
			 "cosmo_dispersion_energy": -24.79, 
			 "cosmo_repulsion_energy": 1.97, 
			 "cosmo_total_nonelectrostatic_energy": 11.99, 
			 "SMD_solvation_energy": 7.56 
		},
		"coords": [
			{
				"x": -5.1332026352,
				"y": -0.0060790891,
				"z": 1.1788907436,
				"element": "C" 
			},
			{
				"x": -3.6910731954,
				"y": 0.3160876897,
				"z": 0.8667938122,
				"element": "C" 
			},
			{
				"x": -2.7581198254,
				"y": 0.5042800083,
				"z": 1.8986341019,
				"element": "C" 
			},
			{
				"x": -1.4329305771,
				"y": 0.8261966121,
				"z": 1.6203063181,
				"element": "C" 
			},
			{
				"x": -0.9949501903,
				"y": 0.9664739629,
				"z": 0.2954736034,
				"element": "C" 
			},
			{
				"x": 0.4493098458,
				"y": 1.3026917366,
				"z": -0.0043445985,
				"element": "C" 
			},
			{
				"x": 1.3305433759,
				"y": 0.209242179,
				"z": 0.4114472894,
				"element": "N" 
			},
			{
				"x": 2.6937732221,
				"y": 0.1506599085,
				"z": 0.2498123961,
				"element": "C" 
			},
			{
				"x": 3.328750445,
				"y": -0.8879212914,
				"z": 0.3692883298,
				"element": "O" 
			},
			{
				"x": 3.3054861372,
				"y": 1.3725209217,
				"z": -0.0850687706,
				"element": "N" 
			},
			{
				"x": 4.7584828766,
				"y": 1.4696290869,
				"z": 0.0222952817,
				"element": "C" 
			},
			{
				"x": 5.4102018239,
				"y": 2.0826447881,
				"z": -1.2209255521,
				"element": "C" 
			},
			{
				"x": 4.6434595817,
				"y": 2.0636993947,
				"z": -2.3297117287,
				"element": "O" 
			},
			{
				"x": 6.5320225075,
				"y": 2.5249309008,
				"z": -1.2140489997,
				"element": "O" 
			},
			{
				"x": -1.9173651236,
				"y": 0.7734274894,
				"z": -0.7360257358,
				"element": "C" 
			},
			{
				"x": -3.2470525566,
				"y": 0.4547401343,
				"z": -0.4526449326,
				"element": "C" 
			},
			{
				"x": -5.6559608533,
				"y": -0.3940470066,
				"z": 0.3003656607,
				"element": "H" 
			},
			{
				"x": -5.6736141444,
				"y": 0.8869089207,
				"z": 1.5162600861,
				"element": "H" 
			},
			{
				"x": -5.212807609,
				"y": -0.751067654,
				"z": 1.9771528183,
				"element": "H" 
			},
			{
				"x": -3.0768656815,
				"y": 0.398904532,
				"z": 2.9327907087,
				"element": "H" 
			},
			{
				"x": -0.7280323434,
				"y": 0.9654812704,
				"z": 2.4361122284,
				"element": "H" 
			},
			{
				"x": 0.7238671465,
				"y": 2.2156855054,
				"z": 0.5441290002,
				"element": "H" 
			},
			{
				"x": 0.5643383897,
				"y": 1.5232710094,
				"z": -1.0750090448,
				"element": "H" 
			},
			{
				"x": 0.9112451135,
				"y": -0.7065296449,
				"z": 0.4950075211,
				"element": "H" 
			},
			{
				"x": 2.7986372413,
				"y": 2.2072126482,
				"z": 0.1808410589,
				"element": "H" 
			},
			{
				"x": 5.1371949482,
				"y": 0.4496937703,
				"z": 0.1416066502,
				"element": "H" 
			},
			{
				"x": 5.0797880135,
				"y": 2.049379506,
				"z": 0.8926739684,
				"element": "H" 
			},
			{
				"x": 3.7844854018,
				"y": 1.6812360423,
				"z": -2.0684137662,
				"element": "H" 
			},
			{
				"x": -1.5968950773,
				"y": 0.8706632702,
				"z": -1.7703894948,
				"element": "H" 
			},
			{
				"x": -3.9473162575,
				"y": 0.3083833983,
				"z": -1.2709989534,
				"element": "H" 
			}
		],
		 "valence_orbital": [ 
			{
				"type": "occ",
				"energy": -0.27824,
				"method": "rhf"
			},
			{
				"type": "occ",
				"energy": -0.26989,
				"method": "rhf"
			},
			{
				"type": "occ",
				"energy": -0.2638,
				"method": "rhf"
			},
			{
				"type": "occ",
				"energy": -0.25749,
				"method": "rhf"
			},
			{
				"type": "occ",
				"energy": -0.25295,
				"method": "rhf"
			},
			{
				"type": "unocc",
				"energy": -0.02254,
				"method": "rhf"
			},
			{
				"type": "unocc",
				"energy": -0.01895,
				"method": "rhf"
			},
			{
				"type": "unocc",
				"energy": 0.01748,
				"method": "rhf"
			},
			{
				"type": "unocc",
				"energy": 0.03713,
				"method": "rhf"
			},
			{
				"type": "unocc",
				"energy": 0.05017,
				"method": "rhf"
			}
		],
		"cosmo_sigma_profile": { 
			"-0.025": 0.0,
			"-0.024": 0.0,
			"-0.023": 0.0,
			"-0.022": 0.0,
			"-0.021": 0.0,
			"-0.02": 0.0,
			"-0.019": 0.0,
			"-0.018": 0.0,
			"-0.017": 0.0,
			"-0.016": 0.0,
			"-0.015": 0.768042458859,
			"-0.014": 1.72277020186,
			"-0.013": 2.85689157441,
			"-0.012": 2.61003934382,
			"-0.011": 3.41833296152,
			"-0.01": 4.00829946953,
			"-0.009": 3.84071548264,
			"-0.008": 3.87147563792,
			"-0.007": 8.71677496322,
			"-0.006": 10.8932908311,
			"-0.005": 20.9476355118,
			"-0.004": 24.3769083149,
			"-0.003": 23.2333152977,
			"-0.002": 18.6804353941,
			"-0.001": 17.5196806847,
			"0.0": 17.2012653498,
			"0.001": 13.8717369398,
			"0.002": 10.5642218987,
			"0.003": 10.9986171103,
			"0.004": 9.83431202285,
			"0.005": 12.9958539719,
			"0.006": 8.77746262772,
			"0.007": 3.26910204735,
			"0.008": 4.5705708596,
			"0.009": 4.34672388705,
			"0.01": 5.93250781317,
			"0.011": 6.40520380595,
			"0.012": 7.35409592292,
			"0.013": 6.64786124437,
			"0.014": 4.56066833619,
			"0.015": 0.371576578367,
			"0.016": 0.0,
			"0.017": 0.0,
			"0.018": 0.0,
			"0.019": 0.0,
			"0.02": 0.0,
			"0.021": 0.0,
			"0.022": 0.0,
			"0.023": 0.0,
			"0.024": 0.0,
			"0.025": 0.0
		}
	}
}
