{
	 "smiles": "NC(=O)CCSC1=C(F)C=CC=C1", 
	 "Tm": 358.15, 
	 "num_atms": 23, 
	 "gaussian": { 
		 "optdone": 1, 
		 "sigma_profile": "yes", 
		 "theory": "DFT", 
		 "functional": "B3LYP", 
		 "basiset": "6-31G**", 
		 "properties": { 
			 "R2extent": 3754.8674, 
			 "electric_dipole_moment_norm": 4.96219337189, 
			 "electric_quadrupole_moment_norm": 14.8259434381, 
			 "total_energy": -976.997820282, 
			 "HOMO_LUMO_gap": 0.20408, 
			 "cosmo_polarized_energy": -13.26, 
			 "cosmo_cavitation_energy": 28.79, 
			 "cosmo_dispersion_energy": -21.15, 
			 "cosmo_repulsion_energy": 1.63, 
			 "cosmo_total_nonelectrostatic_energy": 9.27, 
			 "SMD_solvation_energy": 5.7 
		},
		"coords": [
			{
				"x": -3.3274564849,
				"y": 1.1288125874,
				"z": 0.4211305684,
				"element": "N" 
			},
			{
				"x": -3.6226400368,
				"y": -0.028397151,
				"z": 1.0842695633,
				"element": "C" 
			},
			{
				"x": -4.5756651913,
				"y": -0.1286129772,
				"z": 1.8435972653,
				"element": "O" 
			},
			{
				"x": -2.6915324566,
				"y": -1.2222583999,
				"z": 0.8386083154,
				"element": "C" 
			},
			{
				"x": -1.228703474,
				"y": -0.9442772951,
				"z": 0.4695509823,
				"element": "C" 
			},
			{
				"x": -1.0610693383,
				"y": -0.4999933524,
				"z": -1.3236404872,
				"element": "S" 
			},
			{
				"x": 0.6630947549,
				"y": -0.0522641581,
				"z": -1.4355915518,
				"element": "C" 
			},
			{
				"x": 1.6821407161,
				"y": -0.9646384996,
				"z": -1.1363118598,
				"element": "C" 
			},
			{
				"x": 1.3551611475,
				"y": -2.1974185352,
				"z": -0.6938952925,
				"element": "F" 
			},
			{
				"x": 3.027532612,
				"y": -0.6473163943,
				"z": -1.2717630912,
				"element": "C" 
			},
			{
				"x": 3.3795592272,
				"y": 0.6171619015,
				"z": -1.7454664221,
				"element": "C" 
			},
			{
				"x": 2.3874031788,
				"y": 1.5451648097,
				"z": -2.0676279655,
				"element": "C" 
			},
			{
				"x": 1.0419609044,
				"y": 1.2133253416,
				"z": -1.905466466,
				"element": "C" 
			},
			{
				"x": -2.6523813072,
				"y": 1.1518610076,
				"z": -0.3317076156,
				"element": "H" 
			},
			{
				"x": -3.994756966,
				"y": 1.8814216385,
				"z": 0.5058024618,
				"element": "H" 
			},
			{
				"x": -3.1612395193,
				"y": -1.8617040094,
				"z": 0.0794343388,
				"element": "H" 
			},
			{
				"x": -2.7164738615,
				"y": -1.7975683527,
				"z": 1.768364133,
				"element": "H" 
			},
			{
				"x": -0.6248322739,
				"y": -1.8361653717,
				"z": 0.6400631035,
				"element": "H" 
			},
			{
				"x": -0.8205004602,
				"y": -0.1242223253,
				"z": 1.0660642558,
				"element": "H" 
			},
			{
				"x": 3.7722195122,
				"y": -1.3934849579,
				"z": -1.0162330484,
				"element": "H" 
			},
			{
				"x": 4.4281613138,
				"y": 0.8735991504,
				"z": -1.8601361939,
				"element": "H" 
			},
			{
				"x": 2.6585739864,
				"y": 2.52986982,
				"z": -2.4349133532,
				"element": "H" 
			},
			{
				"x": 0.2666440169,
				"y": 1.9350055232,
				"z": -2.1421316406,
				"element": "H" 
			}
		],
		 "valence_orbital": [ 
			{
				"type": "occ",
				"energy": -0.28,
				"method": "rhf"
			},
			{
				"type": "occ",
				"energy": -0.2628,
				"method": "rhf"
			},
			{
				"type": "occ",
				"energy": -0.26084,
				"method": "rhf"
			},
			{
				"type": "occ",
				"energy": -0.24079,
				"method": "rhf"
			},
			{
				"type": "occ",
				"energy": -0.2373,
				"method": "rhf"
			},
			{
				"type": "unocc",
				"energy": -0.03322,
				"method": "rhf"
			},
			{
				"type": "unocc",
				"energy": -0.01681,
				"method": "rhf"
			},
			{
				"type": "unocc",
				"energy": 0.02449,
				"method": "rhf"
			},
			{
				"type": "unocc",
				"energy": 0.03542,
				"method": "rhf"
			},
			{
				"type": "unocc",
				"energy": 0.05825,
				"method": "rhf"
			}
		],
		"cosmo_sigma_profile": { 
			"-0.025": 0.0,
			"-0.024": 0.0,
			"-0.023": 0.0,
			"-0.022": 0.0,
			"-0.021": 0.0,
			"-0.02": 0.0,
			"-0.019": 0.0,
			"-0.018": 0.0,
			"-0.017": 0.0,
			"-0.016": 0.0,
			"-0.015": 0.0,
			"-0.014": 0.25557096266,
			"-0.013": 1.08415869722,
			"-0.012": 1.34454200035,
			"-0.011": 0.848024916941,
			"-0.01": 1.49913481158,
			"-0.009": 1.54161893941,
			"-0.008": 1.9648096433,
			"-0.007": 6.46753475827,
			"-0.006": 14.0810509875,
			"-0.005": 20.5149835703,
			"-0.004": 19.0380287985,
			"-0.003": 17.7124495084,
			"-0.002": 15.5812061977,
			"-0.001": 14.9145598715,
			"0.0": 12.9584632113,
			"0.001": 16.1570620922,
			"0.002": 16.2320278005,
			"0.003": 17.0886930656,
			"0.004": 18.3330094295,
			"0.005": 5.85378166155,
			"0.006": 3.44765365709,
			"0.007": 3.31506649599,
			"0.008": 2.87727717593,
			"0.009": 1.5522290448,
			"0.01": 0.928172922448,
			"0.011": 1.76235307415,
			"0.012": 1.68617204726,
			"0.013": 3.42005644439,
			"0.014": 5.67702779269,
			"0.015": 2.44594902573,
			"0.016": 0.0568512862322,
			"0.017": 0.0,
			"0.018": 0.0,
			"0.019": 0.0,
			"0.02": 0.0,
			"0.021": 0.0,
			"0.022": 0.0,
			"0.023": 0.0,
			"0.024": 0.0,
			"0.025": 0.0
		}
	}
}
