{
	 "smiles": "NC1=CC(=O)NC(=O)N1CC1=CC=CC=C1", 
	 "Tm": 558.15, 
	 "num_atms": 27, 
	 "gaussian": { 
		 "optdone": 1, 
		 "sigma_profile": "yes", 
		 "theory": "DFT", 
		 "functional": "B3LYP", 
		 "basiset": "6-31G**", 
		 "properties": { 
			 "R2extent": 4426.885, 
			 "electric_dipole_moment_norm": 6.2179284203, 
			 "electric_quadrupole_moment_norm": 24.0619750021, 
			 "total_energy": -740.546640022, 
			 "HOMO_LUMO_gap": 0.19891, 
			 "cosmo_polarized_energy": -20.2, 
			 "cosmo_cavitation_energy": 30.73, 
			 "cosmo_dispersion_energy": -22.37, 
			 "cosmo_repulsion_energy": 1.73, 
			 "cosmo_total_nonelectrostatic_energy": 10.09, 
			 "SMD_solvation_energy": 6.46 
		},
		"coords": [
			{
				"x": 2.0553092348,
				"y": -1.0313737325,
				"z": 1.8485567766,
				"element": "N" 
			},
			{
				"x": 2.3592280565,
				"y": 0.2367076364,
				"z": 1.3943657284,
				"element": "C" 
			},
			{
				"x": 3.6397353379,
				"y": 0.7133055706,
				"z": 1.322849502,
				"element": "C" 
			},
			{
				"x": 3.911172925,
				"y": 2.0620398065,
				"z": 0.9025581055,
				"element": "C" 
			},
			{
				"x": 5.003520162,
				"y": 2.6034438778,
				"z": 0.8026913188,
				"element": "O" 
			},
			{
				"x": 2.7400843375,
				"y": 2.7808160646,
				"z": 0.5528169115,
				"element": "N" 
			},
			{
				"x": 1.4381390269,
				"y": 2.3479642098,
				"z": 0.589748416,
				"element": "C" 
			},
			{
				"x": 0.4908436247,
				"y": 3.0414461544,
				"z": 0.2437121948,
				"element": "O" 
			},
			{
				"x": 1.2679695511,
				"y": 1.0347449888,
				"z": 1.0657345887,
				"element": "N" 
			},
			{
				"x": -0.1183694578,
				"y": 0.5802881525,
				"z": 1.2822025015,
				"element": "C" 
			},
			{
				"x": -0.6283476069,
				"y": -0.38756522,
				"z": 0.2290969405,
				"element": "C" 
			},
			{
				"x": -0.6155171728,
				"y": -0.0319833227,
				"z": -1.1278968075,
				"element": "C" 
			},
			{
				"x": -1.1002741678,
				"y": -0.91478192,
				"z": -2.0908419857,
				"element": "C" 
			},
			{
				"x": -1.6086508848,
				"y": -2.1619459908,
				"z": -1.7137088721,
				"element": "C" 
			},
			{
				"x": -1.6344371743,
				"y": -2.5198341502,
				"z": -0.3666111627,
				"element": "C" 
			},
			{
				"x": -1.1453825479,
				"y": -1.6353031074,
				"z": 0.5996577837,
				"element": "C" 
			},
			{
				"x": 1.2993014098,
				"y": -1.5075733914,
				"z": 1.370953202,
				"element": "H" 
			},
			{
				"x": 2.8667171844,
				"y": -1.6200605395,
				"z": 1.9757972495,
				"element": "H" 
			},
			{
				"x": 4.4817868025,
				"y": 0.0763756675,
				"z": 1.5584804333,
				"element": "H" 
			},
			{
				"x": 2.87656339,
				"y": 3.7259195907,
				"z": 0.2168795198,
				"element": "H" 
			},
			{
				"x": -0.7197462412,
				"y": 1.4906421748,
				"z": 1.2759905467,
				"element": "H" 
			},
			{
				"x": -0.1765021584,
				"y": 0.129877283,
				"z": 2.276728485,
				"element": "H" 
			},
			{
				"x": -0.2380233356,
				"y": 0.9442670527,
				"z": -1.4178025504,
				"element": "H" 
			},
			{
				"x": -1.0876369789,
				"y": -0.6281794878,
				"z": -3.1384543949,
				"element": "H" 
			},
			{
				"x": -1.9859761818,
				"y": -2.8469169725,
				"z": -2.4673026135,
				"element": "H" 
			},
			{
				"x": -2.0340410441,
				"y": -3.4834640917,
				"z": -0.0640758248,
				"element": "H" 
			},
			{
				"x": -1.1794660907,
				"y": -1.9124563037,
				"z": 1.6516740073,
				"element": "H" 
			}
		],
		 "valence_orbital": [ 
			{
				"type": "occ",
				"energy": -0.27325,
				"method": "rhf"
			},
			{
				"type": "occ",
				"energy": -0.26726,
				"method": "rhf"
			},
			{
				"type": "occ",
				"energy": -0.26214,
				"method": "rhf"
			},
			{
				"type": "occ",
				"energy": -0.24663,
				"method": "rhf"
			},
			{
				"type": "occ",
				"energy": -0.22179,
				"method": "rhf"
			},
			{
				"type": "unocc",
				"energy": -0.02288,
				"method": "rhf"
			},
			{
				"type": "unocc",
				"energy": -0.02016,
				"method": "rhf"
			},
			{
				"type": "unocc",
				"energy": -0.01288,
				"method": "rhf"
			},
			{
				"type": "unocc",
				"energy": 0.01932,
				"method": "rhf"
			},
			{
				"type": "unocc",
				"energy": 0.06831,
				"method": "rhf"
			}
		],
		"cosmo_sigma_profile": { 
			"-0.025": 0.0,
			"-0.024": 0.0,
			"-0.023": 0.0,
			"-0.022": 0.0,
			"-0.021": 0.0,
			"-0.02": 0.0,
			"-0.019": 0.0,
			"-0.018": 0.0,
			"-0.017": 0.0,
			"-0.016": 0.0394102366099,
			"-0.015": 1.1988204359,
			"-0.014": 2.11529794828,
			"-0.013": 2.84969769571,
			"-0.012": 2.55580773163,
			"-0.011": 2.67306797406,
			"-0.01": 2.38140087146,
			"-0.009": 3.22683810362,
			"-0.008": 4.28192531185,
			"-0.007": 7.4337827899,
			"-0.006": 11.9755699926,
			"-0.005": 15.1022700689,
			"-0.004": 20.8194081662,
			"-0.003": 20.3186527844,
			"-0.002": 14.9525917016,
			"-0.001": 15.0842516767,
			"0.0": 14.3455760691,
			"0.001": 13.5710709549,
			"0.002": 12.0383866526,
			"0.003": 12.9880186347,
			"0.004": 14.324301519,
			"0.005": 11.5588913614,
			"0.006": 4.42660208624,
			"0.007": 3.09119889374,
			"0.008": 2.83007293893,
			"0.009": 2.50679843142,
			"0.01": 2.72030148379,
			"0.011": 4.06816362884,
			"0.012": 5.04975911634,
			"0.013": 6.8241033545,
			"0.014": 6.18733236648,
			"0.015": 1.68291638848,
			"0.016": 0.0,
			"0.017": 0.0,
			"0.018": 0.0,
			"0.019": 0.0,
			"0.02": 0.0,
			"0.021": 0.0,
			"0.022": 0.0,
			"0.023": 0.0,
			"0.024": 0.0,
			"0.0": 0.0
		}
	}
}
