{
	 "smiles": "N1N=NC(=N1)C1=CC=CC=C1", 
	 "Tm": 490.15, 
	 "num_atms": 17, 
	 "gaussian": { 
		 "optdone": 1, 
		 "sigma_profile": "yes", 
		 "theory": "DFT", 
		 "functional": "B3LYP", 
		 "basiset": "6-31G**", 
		 "properties": { 
			 "R2extent": 2328.0443, 
			 "electric_dipole_moment_norm": 2.04170096733, 
			 "electric_quadrupole_moment_norm": 16.7882893598, 
			 "total_energy": -489.319296579, 
			 "HOMO_LUMO_gap": 0.20038, 
			 "cosmo_polarized_energy": -11.54, 
			 "cosmo_cavitation_energy": 21.86, 
			 "cosmo_dispersion_energy": -16.64, 
			 "cosmo_repulsion_energy": 1.33, 
			 "cosmo_total_nonelectrostatic_energy": 6.55, 
			 "SMD_solvation_energy": 1.55 
		},
		"coords": [
			{
				"x": -0.5177740355,
				"y": -3.5312774007,
				"z": 1.0122696583,
				"element": "N" 
			},
			{
				"x": -0.1110708117,
				"y": -3.4154045413,
				"z": 2.2720388097,
				"element": "N" 
			},
			{
				"x": 0.472298343,
				"y": -2.2484195495,
				"z": 2.3422758102,
				"element": "N" 
			},
			{
				"x": 0.3956668309,
				"y": -1.6899353279,
				"z": 1.0972240717,
				"element": "C" 
			},
			{
				"x": -0.2329724009,
				"y": -2.4934409916,
				"z": 0.2340450839,
				"element": "N" 
			},
			{
				"x": 0.9387155113,
				"y": -0.3706318428,
				"z": 0.7582939385,
				"element": "C" 
			},
			{
				"x": 1.5818928902,
				"y": 0.3936569943,
				"z": 1.7432747289,
				"element": "C" 
			},
			{
				"x": 2.0991461616,
				"y": 1.6478787799,
				"z": 1.4254107127,
				"element": "C" 
			},
			{
				"x": 1.9803359162,
				"y": 2.1497206051,
				"z": 0.127393251,
				"element": "C" 
			},
			{
				"x": 1.3401841365,
				"y": 1.390413651,
				"z": -0.855558514,
				"element": "C" 
			},
			{
				"x": 0.820779798,
				"y": 0.1359145138,
				"z": -0.5449373906,
				"element": "C" 
			},
			{
				"x": -1.0068706636,
				"y": -4.349666286,
				"z": 0.6759729634,
				"element": "H" 
			},
			{
				"x": 1.6690630286,
				"y": -0.0048585269,
				"z": 2.7483902445,
				"element": "H" 
			},
			{
				"x": 2.5958703131,
				"y": 2.2343730016,
				"z": 2.1927789438,
				"element": "H" 
			},
			{
				"x": 2.3844562077,
				"y": 3.127700493,
				"z": -0.1175938094,
				"element": "H" 
			},
			{
				"x": 1.2454478693,
				"y": 1.7765099849,
				"z": -1.8663040311,
				"element": "H" 
			},
			{
				"x": 0.3226309051,
				"y": -0.4583335569,
				"z": -1.3039744716,
				"element": "H" 
			}
		],
		 "valence_orbital": [ 
			{
				"type": "occ",
				"energy": -0.32126,
				"method": "rhf"
			},
			{
				"type": "occ",
				"energy": -0.31812,
				"method": "rhf"
			},
			{
				"type": "occ",
				"energy": -0.29321,
				"method": "rhf"
			},
			{
				"type": "occ",
				"energy": -0.25576,
				"method": "rhf"
			},
			{
				"type": "occ",
				"energy": -0.24116,
				"method": "rhf"
			},
			{
				"type": "unocc",
				"energy": -0.04078,
				"method": "rhf"
			},
			{
				"type": "unocc",
				"energy": -0.02424,
				"method": "rhf"
			},
			{
				"type": "unocc",
				"energy": -0.0031,
				"method": "rhf"
			},
			{
				"type": "unocc",
				"energy": 0.06358,
				"method": "rhf"
			},
			{
				"type": "unocc",
				"energy": 0.06713,
				"method": "rhf"
			}
		],
		"cosmo_sigma_profile": { 
			"-0.025": 0.0,
			"-0.024": 0.0,
			"-0.023": 0.0,
			"-0.022": 0.0,
			"-0.021": 0.0,
			"-0.02": 0.711690876237,
			"-0.019": 2.02225218986,
			"-0.018": 1.16615233138,
			"-0.017": 0.659290370458,
			"-0.016": 1.00032815487,
			"-0.015": 1.70743753822,
			"-0.014": 0.677608386617,
			"-0.013": 0.358429025354,
			"-0.012": 0.668939980467,
			"-0.011": 0.715854789766,
			"-0.01": 1.02191438467,
			"-0.009": 0.981325063624,
			"-0.008": 0.511758977815,
			"-0.007": 0.967197936443,
			"-0.006": 7.91913678516,
			"-0.005": 11.1299387533,
			"-0.004": 12.9099110925,
			"-0.003": 11.5116087622,
			"-0.002": 8.86373093544,
			"-0.001": 9.35491807092,
			"0.0": 12.199618593,
			"0.001": 14.8958117509,
			"0.002": 12.6873540202,
			"0.003": 13.4401609627,
			"0.004": 14.892387734,
			"0.005": 8.72120050518,
			"0.006": 3.73072602335,
			"0.007": 3.49057302756,
			"0.008": 3.90922753346,
			"0.009": 5.23104863981,
			"0.01": 3.09324817325,
			"0.011": 2.85788305253,
			"0.012": 1.82907446399,
			"0.013": 0.559281018893,
			"0.014": 0.0624123089053,
			"0.015": 0.0,
			"0.016": 0.0,
			"0.017": 0.0,
			"0.018": 0.0,
			"0.019": 0.0,
			"0.02": 0.0,
			"0.021": 0.0,
			"0.022": 0.0,
			"0.023": 0.0,
			"0.024": 0.0,
			"0.025": 0.0
		}
	}
}
