{
	 "smiles": "CC(C)OC(=O)COC1=CC=C(Cl)C=C1Cl", 
	 "Tm": 278.15, 
	 "num_atms": 28, 
	 "gaussian": { 
		 "optdone": 1, 
		 "sigma_profile": "yes", 
		 "theory": "DFT", 
		 "functional": "B3LYP", 
		 "basiset": "6-31G**", 
		 "properties": { 
			 "R2extent": 5662.2373, 
			 "electric_dipole_moment_norm": 2.08502289915, 
			 "electric_quadrupole_moment_norm": 10.7879688927, 
			 "total_energy": -1572.46373348, 
			 "HOMO_LUMO_gap": 0.20252, 
			 "cosmo_polarized_energy": -10.59, 
			 "cosmo_cavitation_energy": 36.05, 
			 "cosmo_dispersion_energy": -24.53, 
			 "cosmo_repulsion_energy": 1.98, 
			 "cosmo_total_nonelectrostatic_energy": 13.5, 
			 "SMD_solvation_energy": 6.86 
		},
		"coords": [
			{
				"x": -0.5404997279,
				"y": -3.5842865182,
				"z": -1.542759621,
				"element": "C" 
			},
			{
				"x": -1.4048844011,
				"y": -2.3605463193,
				"z": -1.2795098808,
				"element": "C" 
			},
			{
				"x": -1.2915838019,
				"y": -1.2848856877,
				"z": -2.3535790197,
				"element": "C" 
			},
			{
				"x": -0.9409810912,
				"y": -1.8153201602,
				"z": -0.0006480538,
				"element": "O" 
			},
			{
				"x": -1.818315418,
				"y": -1.1140361349,
				"z": 0.7222361353,
				"element": "C" 
			},
			{
				"x": -2.9734500011,
				"y": -0.8916684917,
				"z": 0.4247024294,
				"element": "O" 
			},
			{
				"x": -1.2284486679,
				"y": -0.6418122444,
				"z": 2.0540190878,
				"element": "C" 
			},
			{
				"x": 0.1828123388,
				"y": -0.5676906927,
				"z": 2.1085023419,
				"element": "O" 
			},
			{
				"x": 0.813234526,
				"y": 0.4332043594,
				"z": 1.4373536676,
				"element": "C" 
			},
			{
				"x": 0.1720293043,
				"y": 1.4070261629,
				"z": 0.6626268579,
				"element": "C" 
			},
			{
				"x": 0.9040610907,
				"y": 2.4056695136,
				"z": 0.0177107805,
				"element": "C" 
			},
			{
				"x": 2.2884383746,
				"y": 2.4332653657,
				"z": 0.1456860082,
				"element": "C" 
			},
			{
				"x": 3.2193427314,
				"y": 3.6841494009,
				"z": -0.6630935508,
				"element": "Cl" 
			},
			{
				"x": 2.9536656765,
				"y": 1.4745259233,
				"z": 0.9104709162,
				"element": "C" 
			},
			{
				"x": 2.2160880856,
				"y": 0.4838422182,
				"z": 1.5498102349,
				"element": "C" 
			},
			{
				"x": 3.0496414465,
				"y": -0.7152099463,
				"z": 2.5106899772,
				"element": "Cl" 
			},
			{
				"x": 0.5133405057,
				"y": -3.3034065474,
				"z": -1.6321775266,
				"element": "H" 
			},
			{
				"x": -0.8504429322,
				"y": -4.0648842897,
				"z": -2.4757457317,
				"element": "H" 
			},
			{
				"x": -0.6360767431,
				"y": -4.3112759449,
				"z": -0.7317328858,
				"element": "H" 
			},
			{
				"x": -2.4530902842,
				"y": -2.6432462392,
				"z": -1.1466353248,
				"element": "H" 
			},
			{
				"x": -0.2583246292,
				"y": -0.9348093941,
				"z": -2.4405640977,
				"element": "H" 
			},
			{
				"x": -1.9373190855,
				"y": -0.435293543,
				"z": -2.1193607213,
				"element": "H" 
			},
			{
				"x": -1.6015715142,
				"y": -1.6910016689,
				"z": -3.3217299959,
				"element": "H" 
			},
			{
				"x": -1.5076028157,
				"y": -1.3766287071,
				"z": 2.8152658752,
				"element": "H" 
			},
			{
				"x": -1.7053191114,
				"y": 0.3089087747,
				"z": 2.3160364129,
				"element": "H" 
			},
			{
				"x": -0.9054929068,
				"y": 1.3969137889,
				"z": 0.5483678771,
				"element": "H" 
			},
			{
				"x": 0.3950125029,
				"y": 3.1532524772,
				"z": -0.5797298824,
				"element": "H" 
			},
			{
				"x": 4.0318365485,
				"y": 1.4948445449,
				"z": 1.0115876899,
				"element": "H" 
			}
		],
		 "valence_orbital": [ 
			{
				"type": "occ",
				"energy": -0.31262,
				"method": "rhf"
			},
			{
				"type": "occ",
				"energy": -0.3094,
				"method": "rhf"
			},
			{
				"type": "occ",
				"energy": -0.283,
				"method": "rhf"
			},
			{
				"type": "occ",
				"energy": -0.26334,
				"method": "rhf"
			},
			{
				"type": "occ",
				"energy": -0.23107,
				"method": "rhf"
			},
			{
				"type": "unocc",
				"energy": -0.02855,
				"method": "rhf"
			},
			{
				"type": "unocc",
				"energy": -0.01227,
				"method": "rhf"
			},
			{
				"type": "unocc",
				"energy": -0.00315,
				"method": "rhf"
			},
			{
				"type": "unocc",
				"energy": 0.00767,
				"method": "rhf"
			},
			{
				"type": "unocc",
				"energy": 0.05053,
				"method": "rhf"
			}
		],
		"cosmo_sigma_profile": { 
			"-0.025": 0.0,
			"-0.024": 0.0,
			"-0.023": 0.0,
			"-0.022": 0.0,
			"-0.021": 0.0,
			"-0.02": 0.0,
			"-0.019": 0.0,
			"-0.018": 0.0,
			"-0.017": 0.0,
			"-0.016": 0.0,
			"-0.015": 0.0,
			"-0.014": 0.0,
			"-0.013": 0.0,
			"-0.012": 0.0,
			"-0.011": 0.0,
			"-0.01": 0.724986288347,
			"-0.009": 4.14894048005,
			"-0.008": 7.5374334862,
			"-0.007": 9.41838175052,
			"-0.006": 8.99416100226,
			"-0.005": 10.6829914634,
			"-0.004": 21.3511891047,
			"-0.003": 22.7172059742,
			"-0.002": 21.75819622,
			"-0.001": 23.5062847853,
			"0.0": 30.2392993922,
			"0.001": 27.4546465621,
			"0.002": 25.7061211476,
			"0.003": 18.7315927647,
			"0.004": 19.9334830765,
			"0.005": 12.5005462815,
			"0.006": 4.34090017595,
			"0.007": 3.24037924328,
			"0.008": 4.09731175476,
			"0.009": 4.52286251828,
			"0.01": 2.17428611991,
			"0.011": 3.75178643385,
			"0.012": 2.98173839188,
			"0.013": 0.179215627433,
			"0.014": 0.0,
			"0.015": 0.0,
			"0.016": 0.0,
			"0.017": 0.0,
			"0.018": 0.0,
			"0.019": 0.0,
			"0.02": 0.0,
			"0.021": 0.0,
			"0.022": 0.0,
			"0.023": 0.0,
			"0.024": 0.0,
			"0.025": 0.0
		}
	}
}
