{
	 "smiles": "FC1=CC2=C(NC=C2)C=C1", 
	 "Tm": 318.15, 
	 "num_atms": 16, 
	 "gaussian": { 
		 "optdone": 1, 
		 "sigma_profile": "yes", 
		 "theory": "DFT", 
		 "functional": "B3LYP", 
		 "basiset": "6-31G**", 
		 "properties": { 
			 "R2extent": 1621.1949, 
			 "electric_dipole_moment_norm": 3.62294811445, 
			 "electric_quadrupole_moment_norm": 9.58040319611, 
			 "total_energy": -463.052712872, 
			 "HOMO_LUMO_gap": 0.19319, 
			 "cosmo_polarized_energy": -8.64, 
			 "cosmo_cavitation_energy": 20.36, 
			 "cosmo_dispersion_energy": -15.38, 
			 "cosmo_repulsion_energy": 1.21, 
			 "cosmo_total_nonelectrostatic_energy": 6.19, 
			 "SMD_solvation_energy": 4.01 
		},
		"coords": [
			{
				"x": 1.6349583611,
				"y": -1.0764970602,
				"z": 0.920300308,
				"element": "F" 
			},
			{
				"x": 0.5386795081,
				"y": -0.4037303911,
				"z": 0.4934923926,
				"element": "C" 
			},
			{
				"x": -0.2431606935,
				"y": -0.9613595499,
				"z": -0.5001592178,
				"element": "C" 
			},
			{
				"x": -1.3749707581,
				"y": -0.2400669632,
				"z": -0.9230230893,
				"element": "C" 
			},
			{
				"x": -1.6612026062,
				"y": 1.0166479034,
				"z": -0.3162069184,
				"element": "C" 
			},
			{
				"x": -2.8111873906,
				"y": 1.5032876777,
				"z": -0.9093603989,
				"element": "N" 
			},
			{
				"x": -3.2496744851,
				"y": 0.6008515315,
				"z": -1.8582777683,
				"element": "C" 
			},
			{
				"x": -2.4020274153,
				"y": -0.4757844773,
				"z": -1.898112899,
				"element": "C" 
			},
			{
				"x": -0.8552312717,
				"y": 1.5616937446,
				"z": 0.6882982209,
				"element": "C" 
			},
			{
				"x": 0.2582271058,
				"y": 0.8349345586,
				"z": 1.0929282975,
				"element": "C" 
			},
			{
				"x": 0.0234434511,
				"y": -1.9225772256,
				"z": -0.9262457215,
				"element": "H" 
			},
			{
				"x": -3.2587101765,
				"y": 2.3766256878,
				"z": -0.6857770906,
				"element": "H" 
			},
			{
				"x": -4.1413057145,
				"y": 0.8026841548,
				"z": -2.4346913055,
				"element": "H" 
			},
			{
				"x": -2.498170249,
				"y": -1.3352600443,
				"z": -2.5457347987,
				"element": "H" 
			},
			{
				"x": -1.0846303781,
				"y": 2.5210843985,
				"z": 1.142879937,
				"element": "H" 
			},
			{
				"x": 0.9218627126,
				"y": 1.2038660546,
				"z": 1.8669900518,
				"element": "H" 
			}
		],
		 "valence_orbital": [ 
			{
				"type": "occ",
				"energy": -0.33414,
				"method": "rhf"
			},
			{
				"type": "occ",
				"energy": -0.32278,
				"method": "rhf"
			},
			{
				"type": "occ",
				"energy": -0.27941,
				"method": "rhf"
			},
			{
				"type": "occ",
				"energy": -0.21548,
				"method": "rhf"
			},
			{
				"type": "occ",
				"energy": -0.2062,
				"method": "rhf"
			},
			{
				"type": "unocc",
				"energy": -0.01301,
				"method": "rhf"
			},
			{
				"type": "unocc",
				"energy": 0.03407,
				"method": "rhf"
			},
			{
				"type": "unocc",
				"energy": 0.06884,
				"method": "rhf"
			},
			{
				"type": "unocc",
				"energy": 0.07606,
				"method": "rhf"
			},
			{
				"type": "unocc",
				"energy": 0.10412,
				"method": "rhf"
			}
		],
		"cosmo_sigma_profile": { 
			"-0.025": 0.0,
			"-0.024": 0.0,
			"-0.023": 0.0,
			"-0.022": 0.0,
			"-0.021": 0.0,
			"-0.02": 0.0,
			"-0.019": 0.0,
			"-0.018": 0.0,
			"-0.017": 0.0,
			"-0.016": 0.330170332072,
			"-0.015": 1.83347890112,
			"-0.014": 1.13847397736,
			"-0.013": 1.70547476595,
			"-0.012": 1.26340121999,
			"-0.011": 0.959494485956,
			"-0.01": 1.14973553574,
			"-0.009": 1.63616684069,
			"-0.008": 3.56792929753,
			"-0.007": 4.4451238353,
			"-0.006": 8.64878766796,
			"-0.005": 8.87670408629,
			"-0.004": 7.8113258039,
			"-0.003": 9.11291415184,
			"-0.002": 7.74400126351,
			"-0.001": 6.79457124963,
			"0.0": 6.09636681196,
			"0.001": 7.82827052511,
			"0.002": 11.4889335782,
			"0.003": 13.7526348254,
			"0.004": 16.9467479772,
			"0.005": 27.9262131403,
			"0.006": 10.2928628458,
			"0.007": 2.46079031892,
			"0.008": 0.0371576453627,
			"0.009": 0.0,
			"0.01": 0.0,
			"0.011": 0.0,
			"0.012": 0.0,
			"0.013": 0.0,
			"0.014": 0.0,
			"0.015": 0.0,
			"0.016": 0.0,
			"0.017": 0.0,
			"0.018": 0.0,
			"0.019": 0.0,
			"0.02": 0.0,
			"0.021": 0.0,
			"0.022": 0.0,
			"0.023": 0.0,
			"0.024": 0.0,
			"0.025": 0.0
		}
	}
}
