{
	 "smiles": "[O-][N+](=O)C1=C(SC2=NC=CC=N2)C=CC(C=O)=C1", 
	 "Tm": 374.15, 
	 "num_atms": 25, 
	 "gaussian": { 
		 "optdone": 1, 
		 "sigma_profile": "yes", 
		 "theory": "DFT", 
		 "functional": "B3LYP", 
		 "basiset": "6-31G**", 
		 "properties": { 
			 "R2extent": 5196.5734, 
			 "electric_dipole_moment_norm": 4.41086312869, 
			 "electric_quadrupole_moment_norm": 27.3878761725, 
			 "total_energy": -1211.36767298, 
			 "HOMO_LUMO_gap": 0.14574, 
			 "cosmo_polarized_energy": -16.83, 
			 "cosmo_cavitation_energy": 33.07, 
			 "cosmo_dispersion_energy": -23.63, 
			 "cosmo_repulsion_energy": 1.76, 
			 "cosmo_total_nonelectrostatic_energy": 11.19, 
			 "SMD_solvation_energy": 6.72 
		},
		"coords": [
			{
				"x": -2.9839386391,
				"y": -0.0563798398,
				"z": 0.0312144501,
				"element": "O" 
			},
			{
				"x": -2.0208884143,
				"y": -0.2743073951,
				"z": -0.6989679857,
				"element": "N" 
			},
			{
				"x": -2.0168663834,
				"y": -0.1449346227,
				"z": -1.9191853993,
				"element": "O" 
			},
			{
				"x": -0.7940736757,
				"y": -0.7853944003,
				"z": -0.0543021519,
				"element": "C" 
			},
			{
				"x": 0.5017812564,
				"y": -0.5124424774,
				"z": -0.5445916149,
				"element": "C" 
			},
			{
				"x": 0.9492475488,
				"y": 0.4691203875,
				"z": -1.9648519774,
				"element": "S" 
			},
			{
				"x": 0.0982842672,
				"y": 2.0230173013,
				"z": -1.7403620325,
				"element": "C" 
			},
			{
				"x": -0.6337552171,
				"y": 2.2365408652,
				"z": -0.6492067475,
				"element": "N" 
			},
			{
				"x": -1.2209444829,
				"y": 3.4373392586,
				"z": -0.5682879335,
				"element": "C" 
			},
			{
				"x": -1.0677671577,
				"y": 4.4087600402,
				"z": -1.5538356111,
				"element": "C" 
			},
			{
				"x": -0.2666005509,
				"y": 4.0636756672,
				"z": -2.6429463069,
				"element": "C" 
			},
			{
				"x": 0.3225559092,
				"y": 2.8695305354,
				"z": -2.7501735319,
				"element": "N" 
			},
			{
				"x": 1.5820518272,
				"y": -1.121316738,
				"z": 0.114075109,
				"element": "C" 
			},
			{
				"x": 1.3858981752,
				"y": -1.9694183656,
				"z": 1.1999013389,
				"element": "C" 
			},
			{
				"x": 0.0960190134,
				"y": -2.2040086794,
				"z": 1.6854901807,
				"element": "C" 
			},
			{
				"x": -0.122245735,
				"y": -3.0866088348,
				"z": 2.8572525354,
				"element": "C" 
			},
			{
				"x": -1.2123934051,
				"y": -3.3376236779,
				"z": 3.3304938477,
				"element": "O" 
			},
			{
				"x": -0.9939755331,
				"y": -1.5942418178,
				"z": 1.0553095722,
				"element": "C" 
			},
			{
				"x": -1.8300425323,
				"y": 3.6145059966,
				"z": 0.3155754391,
				"element": "H" 
			},
			{
				"x": -1.5466025857,
				"y": 5.3781453852,
				"z": -1.4805422635,
				"element": "H" 
			},
			{
				"x": -0.090490659,
				"y": 4.761890078,
				"z": -3.4589624983,
				"element": "H" 
			},
			{
				"x": 2.5872608536,
				"y": -0.9048040162,
				"z": -0.2315888721,
				"element": "H" 
			},
			{
				"x": 2.2409328032,
				"y": -2.4322080332,
				"z": 1.6863372384,
				"element": "H" 
			},
			{
				"x": 0.8064936132,
				"y": -3.5197484293,
				"z": 3.2891558128,
				"element": "H" 
			},
			{
				"x": -1.9968402958,
				"y": -1.7663881878,
				"z": 1.4277994024,
				"element": "H" 
			}
		],
		 "valence_orbital": [ 
			{
				"type": "occ",
				"energy": -0.29159,
				"method": "rhf"
			},
			{
				"type": "occ",
				"energy": -0.28412,
				"method": "rhf"
			},
			{
				"type": "occ",
				"energy": -0.27147,
				"method": "rhf"
			},
			{
				"type": "occ",
				"energy": -0.26989,
				"method": "rhf"
			},
			{
				"type": "occ",
				"energy": -0.24226,
				"method": "rhf"
			},
			{
				"type": "unocc",
				"energy": -0.09652,
				"method": "rhf"
			},
			{
				"type": "unocc",
				"energy": -0.07898,
				"method": "rhf"
			},
			{
				"type": "unocc",
				"energy": -0.05563,
				"method": "rhf"
			},
			{
				"type": "unocc",
				"energy": -0.03782,
				"method": "rhf"
			},
			{
				"type": "unocc",
				"energy": -0.02306,
				"method": "rhf"
			}
		],
		"cosmo_sigma_profile": { 
			"-0.025": 0.0,
			"-0.024": 0.0,
			"-0.023": 0.0,
			"-0.022": 0.0,
			"-0.021": 0.0,
			"-0.02": 0.0,
			"-0.019": 0.0,
			"-0.018": 0.0,
			"-0.017": 0.0,
			"-0.016": 0.0,
			"-0.015": 0.0,
			"-0.014": 0.0,
			"-0.013": 0.0,
			"-0.012": 0.0,
			"-0.011": 0.0,
			"-0.01": 0.68792044995,
			"-0.009": 5.68883455953,
			"-0.008": 15.2666424841,
			"-0.007": 15.9353897418,
			"-0.006": 13.979940632,
			"-0.005": 13.1826845857,
			"-0.004": 11.5798286595,
			"-0.003": 13.4644083714,
			"-0.002": 21.3853810986,
			"-0.001": 25.9545762176,
			"0.0": 22.6006204179,
			"0.001": 11.930110171,
			"0.002": 12.1087161569,
			"0.003": 11.6060025473,
			"0.004": 11.3074386899,
			"0.005": 9.76676950423,
			"0.006": 9.63405652933,
			"0.007": 13.1400419745,
			"0.008": 10.4160231174,
			"0.009": 7.78805872491,
			"0.01": 4.8927253366,
			"0.011": 4.7004182757,
			"0.012": 1.48888516505,
			"0.013": 0.743207856217,
			"0.014": 0.0281722197465,
			"0.015": 0.0,
			"0.016": 0.0,
			"0.017": 0.0,
			"0.018": 0.0,
			"0.019": 0.0,
			"0.02": 0.0,
			"0.021": 0.0,
			"0.022": 0.0,
			"0.023": 0.0,
			"0.024": 0.0,
			"0.025": 0.0
		}
	}
}
