{
	 "smiles": "CC1=CC(Br)=C(Br)C=C1C", 
	 "Tm": 359.15, 
	 "num_atms": 18, 
	 "gaussian": { 
		 "optdone": 1, 
		 "sigma_profile": "yes", 
		 "theory": "DFT", 
		 "functional": "B3LYP", 
		 "basiset": "6-31G**", 
		 "properties": { 
			 "R2extent": 4544.6617, 
			 "electric_dipole_moment_norm": 3.39233961448, 
			 "electric_quadrupole_moment_norm": 7.11120029953, 
			 "total_energy": -5452.49211899, 
			 "HOMO_LUMO_gap": 0.21546, 
			 "cosmo_polarized_energy": -4.84, 
			 "cosmo_cavitation_energy": 25.77, 
			 "cosmo_dispersion_energy": -19.65, 
			 "cosmo_repulsion_energy": 1.58, 
			 "cosmo_total_nonelectrostatic_energy": 7.69, 
			 "SMD_solvation_energy": 2.3 
		},
		"coords": [
			{
				"x": -2.521846635,
				"y": -0.8014982156,
				"z": 0.820011432,
				"element": "C" 
			},
			{
				"x": -1.1428166448,
				"y": -1.1544943682,
				"z": 0.3181803572,
				"element": "C" 
			},
			{
				"x": -0.1617764669,
				"y": -0.1661430211,
				"z": 0.2205578029,
				"element": "C" 
			},
			{
				"x": 1.1258695894,
				"y": -0.4513673483,
				"z": -0.2387892322,
				"element": "C" 
			},
			{
				"x": 2.3847977232,
				"y": 0.972650259,
				"z": -0.3315486398,
				"element": "Br" 
			},
			{
				"x": 1.444413445,
				"y": -1.7574844664,
				"z": -0.6110046318,
				"element": "C" 
			},
			{
				"x": 3.1696624258,
				"y": -2.245522261,
				"z": -1.2486319548,
				"element": "Br" 
			},
			{
				"x": 0.4689669703,
				"y": -2.7524497587,
				"z": -0.5165066149,
				"element": "C" 
			},
			{
				"x": -0.8204909563,
				"y": -2.4761645136,
				"z": -0.0584840543,
				"element": "C" 
			},
			{
				"x": -1.8436198165,
				"y": -3.5824895769,
				"z": 0.0274677647,
				"element": "C" 
			},
			{
				"x": -2.7804133035,
				"y": -1.3714133361,
				"z": 1.7204253298,
				"element": "H" 
			},
			{
				"x": -3.291793005,
				"y": -1.0259817478,
				"z": 0.0722092436,
				"element": "H" 
			},
			{
				"x": -2.5934552287,
				"y": 0.2609519408,
				"z": 1.0648768127,
				"element": "H" 
			},
			{
				"x": -0.3963339863,
				"y": 0.8535530042,
				"z": 0.5067756261,
				"element": "H" 
			},
			{
				"x": 0.7297586764,
				"y": -3.7639129791,
				"z": -0.8091470638,
				"element": "H" 
			},
			{
				"x": -1.4237071545,
				"y": -4.5357839243,
				"z": -0.3023621235,
				"element": "H" 
			},
			{
				"x": -2.7205045147,
				"y": -3.3688391092,
				"z": -0.5953011762,
				"element": "H" 
			},
			{
				"x": -2.209011118,
				"y": -3.7138105776,
				"z": 1.0529711221,
				"element": "H" 
			}
		],
		 "valence_orbital": [ 
			{
				"type": "occ",
				"energy": -0.30475,
				"method": "rhf"
			},
			{
				"type": "occ",
				"energy": -0.30105,
				"method": "rhf"
			},
			{
				"type": "occ",
				"energy": -0.27282,
				"method": "rhf"
			},
			{
				"type": "occ",
				"energy": -0.25003,
				"method": "rhf"
			},
			{
				"type": "occ",
				"energy": -0.23441,
				"method": "rhf"
			},
			{
				"type": "unocc",
				"energy": -0.01895,
				"method": "rhf"
			},
			{
				"type": "unocc",
				"energy": -0.01643,
				"method": "rhf"
			},
			{
				"type": "unocc",
				"energy": -0.01574,
				"method": "rhf"
			},
			{
				"type": "unocc",
				"energy": 0.04205,
				"method": "rhf"
			},
			{
				"type": "unocc",
				"energy": 0.08431,
				"method": "rhf"
			}
		],
		"cosmo_sigma_profile": { 
			"-0.025": 0.0,
			"-0.024": 0.0,
			"-0.023": 0.0,
			"-0.022": 0.0,
			"-0.021": 0.0,
			"-0.02": 0.0,
			"-0.019": 0.0,
			"-0.018": 0.0,
			"-0.017": 0.0,
			"-0.016": 0.0,
			"-0.015": 0.0,
			"-0.014": 0.0,
			"-0.013": 0.0,
			"-0.012": 0.0,
			"-0.011": 0.0,
			"-0.01": 0.0,
			"-0.009": 0.0,
			"-0.008": 0.0,
			"-0.007": 2.09560546387,
			"-0.006": 5.24302432647,
			"-0.005": 11.1842409634,
			"-0.004": 18.721388357,
			"-0.003": 15.5734700125,
			"-0.002": 18.9461997331,
			"-0.001": 20.2910313744,
			"0.0": 21.7512756696,
			"0.001": 18.5457177134,
			"0.002": 21.8557724651,
			"0.003": 24.759567992,
			"0.004": 19.8776156821,
			"0.005": 10.2365718563,
			"0.006": 2.11282225238,
			"0.007": 3.70753596561e-05,
			"0.008": 0.0,
			"0.009": 0.0,
			"0.01": 0.0,
			"0.011": 0.0,
			"0.012": 0.0,
			"0.013": 0.0,
			"0.014": 0.0,
			"0.015": 0.0,
			"0.016": 0.0,
			"0.017": 0.0,
			"0.018": 0.0,
			"0.019": 0.0,
			"0.02": 0.0,
			"0.021": 0.0,
			"0.022": 0.0,
			"0.023": 0.0,
			"0.024": 0.0,
			"0.025": 0.0
		}
	}
}
