{
	 "smiles": "COC1CC(OC2CCC3(C=O)C4CCC5(C)C(CCC5(O)C4CCC3(O)C2)C2=CC(=O)OC2)OC(C)C1O", 
	 "Tm": 421.15, 
	 "num_atms": 83, 
	 "gaussian": { 
		 "optdone": 1, 
		 "sigma_profile": "yes", 
		 "theory": "DFT", 
		 "functional": "B3LYP", 
		 "basiset": "6-31G**", 
		 "properties": { 
			 "R2extent": 30349.5934, 
			 "electric_dipole_moment_norm": 6.73797378594, 
			 "electric_quadrupole_moment_norm": 62.0596176268, 
			 "total_energy": -1846.67773138, 
			 "HOMO_LUMO_gap": 0.20456, 
			 "cosmo_polarized_energy": -31.17, 
			 "cosmo_cavitation_energy": 72.23, 
			 "cosmo_dispersion_energy": -47.71, 
			 "cosmo_repulsion_energy": 3.44, 
			 "cosmo_total_nonelectrostatic_energy": 27.97, 
			 "SMD_solvation_energy": 12.14 
		},
		"coords": [
			{
				"x": 0.069314314,
				"y": 5.2577660102,
				"z": -2.9102915814,
				"element": "C" 
			},
			{
				"x": -0.2253971483,
				"y": 4.9411528814,
				"z": -4.2613668966,
				"element": "O" 
			},
			{
				"x": -0.8294510644,
				"y": 3.6688698184,
				"z": -4.4649123912,
				"element": "C" 
			},
			{
				"x": -2.2800372833,
				"y": 3.5957671591,
				"z": -3.9720838729,
				"element": "C" 
			},
			{
				"x": -2.9255801321,
				"y": 2.2231908255,
				"z": -4.3190580709,
				"element": "C" 
			},
			{
				"x": -3.226450229,
				"y": 1.4255178697,
				"z": -3.2125012166,
				"element": "O" 
			},
			{
				"x": -2.1270109614,
				"y": 0.9863882158,
				"z": -2.3989643463,
				"element": "C" 
			},
			{
				"x": -1.8462287195,
				"y": -0.4997189679,
				"z": -2.6163597051,
				"element": "C" 
			},
			{
				"x": -0.6299347529,
				"y": -0.963926067,
				"z": -1.7788672939,
				"element": "C" 
			},
			{
				"x": -0.3831638455,
				"y": -0.1291120571,
				"z": -0.4782362641,
				"element": "C" 
			},
			{
				"x": 0.5232678807,
				"y": 1.0461475584,
				"z": -0.8447519779,
				"element": "C" 
			},
			{
				"x": 0.4356595372,
				"y": 2.1945629124,
				"z": -0.4547636949,
				"element": "O" 
			},
			{
				"x": 0.3661771956,
				"y": -1.0099477265,
				"z": 0.5956713364,
				"element": "C" 
			},
			{
				"x": 1.7344190267,
				"y": -1.5498011165,
				"z": 0.1041599375,
				"element": "C" 
			},
			{
				"x": 2.4687223042,
				"y": -2.4059626486,
				"z": 1.1579238142,
				"element": "C" 
			},
			{
				"x": 2.6064555914,
				"y": -1.642546547,
				"z": 2.4848263687,
				"element": "C" 
			},
			{
				"x": 3.5409644982,
				"y": -0.4255940749,
				"z": 2.3029474289,
				"element": "C" 
			},
			{
				"x": 3.0785974259,
				"y": -2.489412668,
				"z": 3.7207416577,
				"element": "C" 
			},
			{
				"x": 2.5710541774,
				"y": -1.6588201402,
				"z": 4.9425066355,
				"element": "C" 
			},
			{
				"x": 1.4294264056,
				"y": -0.7421269569,
				"z": 4.4088954187,
				"element": "C" 
			},
			{
				"x": 1.1829747232,
				"y": -1.2366877664,
				"z": 2.9713751884,
				"element": "C" 
			},
			{
				"x": 0.45095077,
				"y": -2.4800611911,
				"z": 3.0574579955,
				"element": "O" 
			},
			{
				"x": 0.4677802026,
				"y": -0.2963307816,
				"z": 1.9762548134,
				"element": "C" 
			},
			{
				"x": -0.9229186866,
				"y": 0.1384166655,
				"z": 2.4745422508,
				"element": "C" 
			},
			{
				"x": -1.6309407151,
				"y": 1.0352937326,
				"z": 1.4562482466,
				"element": "C" 
			},
			{
				"x": -1.7577566826,
				"y": 0.3532372982,
				"z": 0.0835050132,
				"element": "C" 
			},
			{
				"x": -2.5043094009,
				"y": -0.8723518803,
				"z": 0.2412895069,
				"element": "O" 
			},
			{
				"x": -2.4761158143,
				"y": 1.277966553,
				"z": -0.9310334615,
				"element": "C" 
			},
			{
				"x": 4.5311697907,
				"y": -2.8686819159,
				"z": 3.7335490682,
				"element": "C" 
			},
			{
				"x": 5.1209756026,
				"y": -3.8892907604,
				"z": 3.090155393,
				"element": "C" 
			},
			{
				"x": 6.5729571698,
				"y": -3.8822539713,
				"z": 3.358410154,
				"element": "C" 
			},
			{
				"x": 7.4441852314,
				"y": -4.6162363132,
				"z": 2.9639590879,
				"element": "O" 
			},
			{
				"x": 6.8310496826,
				"y": -2.8194639303,
				"z": 4.2050693989,
				"element": "O" 
			},
			{
				"x": 5.6124746128,
				"y": -2.1398820529,
				"z": 4.5001044281,
				"element": "C" 
			},
			{
				"x": -2.0792470678,
				"y": 1.4832457552,
				"z": -5.1973703707,
				"element": "O" 
			},
			{
				"x": -1.6951380223,
				"y": 2.2278905122,
				"z": -6.3591871772,
				"element": "C" 
			},
			{
				"x": -1.0386438666,
				"y": 1.2523621038,
				"z": -7.3228626124,
				"element": "C" 
			},
			{
				"x": -0.7864168002,
				"y": 3.4270039162,
				"z": -5.982265134,
				"element": "C" 
			},
			{
				"x": -1.270955419,
				"y": 4.5650405663,
				"z": -6.6807860669,
				"element": "O" 
			},
			{
				"x": 0.7052025111,
				"y": 6.1462657865,
				"z": -2.9236351494,
				"element": "H" 
			},
			{
				"x": -0.8355315453,
				"y": 5.4837934955,
				"z": -2.3298363107,
				"element": "H" 
			},
			{
				"x": 0.6051470794,
				"y": 4.438604564,
				"z": -2.4097378753,
				"element": "H" 
			},
			{
				"x": -0.2200588102,
				"y": 2.8989056682,
				"z": -3.9698405388,
				"element": "H" 
			},
			{
				"x": -2.8350325489,
				"y": 4.3968739839,
				"z": -4.4702657767,
				"element": "H" 
			},
			{
				"x": -2.3555915035,
				"y": 3.7664941581,
				"z": -2.8951426629,
				"element": "H" 
			},
			{
				"x": -3.8978350966,
				"y": 2.3812176283,
				"z": -4.808169954,
				"element": "H" 
			},
			{
				"x": -1.2300914445,
				"y": 1.5515820846,
				"z": -2.6757188291,
				"element": "H" 
			},
			{
				"x": -1.6715458473,
				"y": -0.6743051978,
				"z": -3.6806657589,
				"element": "H" 
			},
			{
				"x": -2.7363361711,
				"y": -1.0640951431,
				"z": -2.3261343231,
				"element": "H" 
			},
			{
				"x": -0.7655274209,
				"y": -2.0114375214,
				"z": -1.4990784369,
				"element": "H" 
			},
			{
				"x": 0.2753357271,
				"y": -0.9247852255,
				"z": -2.39713949,
				"element": "H" 
			},
			{
				"x": 1.3453725468,
				"y": 0.7708790593,
				"z": -1.5418242181,
				"element": "H" 
			},
			{
				"x": -0.2862515114,
				"y": -1.8753980184,
				"z": 0.7486387943,
				"element": "H" 
			},
			{
				"x": 2.3890620972,
				"y": -0.7240194428,
				"z": -0.1972102594,
				"element": "H" 
			},
			{
				"x": 1.5837932358,
				"y": -2.1556766028,
				"z": -0.7951951561,
				"element": "H" 
			},
			{
				"x": 3.456082673,
				"y": -2.689536987,
				"z": 0.774062938,
				"element": "H" 
			},
			{
				"x": 1.9074888693,
				"y": -3.3288894578,
				"z": 1.3312825636,
				"element": "H" 
			},
			{
				"x": 3.1746638643,
				"y": 0.2845116975,
				"z": 1.5599823286,
				"element": "H" 
			},
			{
				"x": 4.5222681049,
				"y": -0.7690894164,
				"z": 1.9600624851,
				"element": "H" 
			},
			{
				"x": 3.6909323257,
				"y": 0.1329177731,
				"z": 3.2311456753,
				"element": "H" 
			},
			{
				"x": 2.5024586399,
				"y": -3.4167767598,
				"z": 3.6806774063,
				"element": "H" 
			},
			{
				"x": 3.3691905344,
				"y": -1.0497379204,
				"z": 5.377531573,
				"element": "H" 
			},
			{
				"x": 2.2205573977,
				"y": -2.3234130548,
				"z": 5.7364266211,
				"element": "H" 
			},
			{
				"x": 1.7286262595,
				"y": 0.311070407,
				"z": 4.4160996998,
				"element": "H" 
			},
			{
				"x": 0.5219977408,
				"y": -0.8151751281,
				"z": 5.0168430586,
				"element": "H" 
			},
			{
				"x": -0.406624093,
				"y": -2.2869729792,
				"z": 3.4566249317,
				"element": "H" 
			},
			{
				"x": 1.0737457362,
				"y": 0.6132989912,
				"z": 1.8738855681,
				"element": "H" 
			},
			{
				"x": -0.8330678003,
				"y": 0.6665898438,
				"z": 3.4310186976,
				"element": "H" 
			},
			{
				"x": -1.5467996612,
				"y": -0.7478652871,
				"z": 2.6464724347,
				"element": "H" 
			},
			{
				"x": -1.0861164281,
				"y": 1.9749783982,
				"z": 1.3371597668,
				"element": "H" 
			},
			{
				"x": -2.6402141212,
				"y": 1.2902785411,
				"z": 1.8105033006,
				"element": "H" 
			},
			{
				"x": -3.3988226828,
				"y": -0.6306509108,
				"z": 0.516554684,
				"element": "H" 
			},
			{
				"x": -2.2604957862,
				"y": 2.3259547502,
				"z": -0.7025735962,
				"element": "H" 
			},
			{
				"x": -3.5583130577,
				"y": 1.1419115567,
				"z": -0.8132298875,
				"element": "H" 
			},
			{
				"x": 4.6578628844,
				"y": -4.6386532384,
				"z": 2.4622016704,
				"element": "H" 
			},
			{
				"x": 5.7088445357,
				"y": -1.0874253599,
				"z": 4.2060776499,
				"element": "H" 
			},
			{
				"x": 5.4412677669,
				"y": -2.171168869,
				"z": 5.5839303582,
				"element": "H" 
			},
			{
				"x": -2.5941340101,
				"y": 2.6611028351,
				"z": -6.8248281749,
				"element": "H" 
			},
			{
				"x": -0.1552783558,
				"y": 0.7968066201,
				"z": -6.8632221106,
				"element": "H" 
			},
			{
				"x": -1.7338767397,
				"y": 0.4547222642,
				"z": -7.5972821903,
				"element": "H" 
			},
			{
				"x": -0.7261422757,
				"y": 1.7765044565,
				"z": -8.2310901633,
				"element": "H" 
			},
			{
				"x": 0.2571107874,
				"y": 3.2224320682,
				"z": -6.2700456902,
				"element": "H" 
			},
			{
				"x": -0.8288039364,
				"y": 5.3273650689,
				"z": -6.2772466608,
				"element": "H" 
			}
		],
		 "valence_orbital": [ 
			{
				"type": "occ",
				"energy": -0.26299,
				"method": "rhf"
			},
			{
				"type": "occ",
				"energy": -0.26064,
				"method": "rhf"
			},
			{
				"type": "occ",
				"energy": -0.25941,
				"method": "rhf"
			},
			{
				"type": "occ",
				"energy": -0.25907,
				"method": "rhf"
			},
			{
				"type": "occ",
				"energy": -0.24746,
				"method": "rhf"
			},
			{
				"type": "unocc",
				"energy": -0.0429,
				"method": "rhf"
			},
			{
				"type": "unocc",
				"energy": -0.03722,
				"method": "rhf"
			},
			{
				"type": "unocc",
				"energy": 0.0525,
				"method": "rhf"
			},
			{
				"type": "unocc",
				"energy": 0.06046,
				"method": "rhf"
			},
			{
				"type": "unocc",
				"energy": 0.06366,
				"method": "rhf"
			}
		],
		"cosmo_sigma_profile": { 
			"-0.025": 0.0,
			"-0.024": 0.0,
			"-0.023": 0.0,
			"-0.022": 0.0,
			"-0.021": 0.0,
			"-0.02": 0.0,
			"-0.019": 0.0,
			"-0.018": 0.0,
			"-0.017": 0.0,
			"-0.016": 0.0,
			"-0.015": 0.466929478044,
			"-0.014": 1.2110941652,
			"-0.013": 1.86011432512,
			"-0.012": 1.56722392927,
			"-0.011": 3.08835350649,
			"-0.01": 2.86755256226,
			"-0.009": 2.4528335023,
			"-0.008": 2.66327675625,
			"-0.007": 8.62321818474,
			"-0.006": 20.9975667192,
			"-0.005": 29.3541986384,
			"-0.004": 44.4390295893,
			"-0.003": 57.6989968991,
			"-0.002": 68.426358906,
			"-0.001": 66.0705600986,
			"0.0": 57.3999319522,
			"0.001": 37.9264085523,
			"0.002": 18.9558180595,
			"0.003": 14.891344771,
			"0.004": 14.6753800766,
			"0.005": 12.3653078151,
			"0.006": 12.6618033248,
			"0.007": 13.0416540178,
			"0.008": 10.3757145224,
			"0.009": 9.94883559476,
			"0.01": 13.1860546873,
			"0.011": 10.8898002841,
			"0.012": 9.69162212168,
			"0.013": 7.19684948281,
			"0.014": 1.74618580508,
			"0.015": 0.0440406003919,
			"0.016": 0.0,
			"0.017": 0.0,
			"0.018": 0.0,
			"0.019": 0.0,
			"0.02": 0.0,
			"0.021": 0.0,
			"0.022": 0.0,
			"0.023": 0.0,
			"0.024": 0.0,
			"0.025": 0.0
		}
	}
}
