{
	 "smiles": "CCOC(=O)C1=CC(=CC=C1)C(=O)OCC", 
	 "Tm": 284.65, 
	 "num_atms": 30, 
	 "gaussian": { 
		 "optdone": 1, 
		 "sigma_profile": "yes", 
		 "theory": "DFT", 
		 "functional": "B3LYP", 
		 "basiset": "6-31G**", 
		 "properties": { 
			 "R2extent": 5765.0304, 
			 "electric_dipole_moment_norm": 1.80087091153, 
			 "electric_quadrupole_moment_norm": 13.0330110335, 
			 "total_energy": -766.651555324, 
			 "HOMO_LUMO_gap": 0.20896, 
			 "cosmo_polarized_energy": -10.26, 
			 "cosmo_cavitation_energy": 34.85, 
			 "cosmo_dispersion_energy": -24.85, 
			 "cosmo_repulsion_energy": 1.99, 
			 "cosmo_total_nonelectrostatic_energy": 11.98, 
			 "SMD_solvation_energy": 8.22 
		},
		"coords": [
			{
				"x": -1.5129985807,
				"y": 2.625058669,
				"z": -4.9800239564,
				"element": "C" 
			},
			{
				"x": -0.1351552096,
				"y": 2.5872551671,
				"z": -4.3473302379,
				"element": "C" 
			},
			{
				"x": -0.2442389062,
				"y": 1.8404387202,
				"z": -3.1139665835,
				"element": "O" 
			},
			{
				"x": 0.8958161746,
				"y": 1.7023520806,
				"z": -2.406350513,
				"element": "C" 
			},
			{
				"x": 1.9640927719,
				"y": 2.1658807992,
				"z": -2.7581470071,
				"element": "O" 
			},
			{
				"x": 0.6969181971,
				"y": 0.9203283104,
				"z": -1.1498929166,
				"element": "C" 
			},
			{
				"x": -0.5469173731,
				"y": 0.4028107473,
				"z": -0.7786004534,
				"element": "C" 
			},
			{
				"x": -0.6763862316,
				"y": -0.3233668391,
				"z": 0.4104148494,
				"element": "C" 
			},
			{
				"x": 0.4431339645,
				"y": -0.5301497376,
				"z": 1.2289723774,
				"element": "C" 
			},
			{
				"x": 1.683965234,
				"y": -0.0123835633,
				"z": 0.8567616666,
				"element": "C" 
			},
			{
				"x": 1.813025809,
				"y": 0.7100573522,
				"z": -0.3273235847,
				"element": "C" 
			},
			{
				"x": -2.0287153926,
				"y": -0.852667665,
				"z": 0.7559230863,
				"element": "C" 
			},
			{
				"x": -3.0196072649,
				"y": -0.6890849306,
				"z": 0.0697512632,
				"element": "O" 
			},
			{
				"x": -2.0269119099,
				"y": -1.5412662551,
				"z": 1.9197878641,
				"element": "O" 
			},
			{
				"x": -3.295570573,
				"y": -2.0941707516,
				"z": 2.3450768269,
				"element": "C" 
			},
			{
				"x": -4.1147824589,
				"y": -1.0707722167,
				"z": 3.1170644962,
				"element": "C" 
			},
			{
				"x": -1.8730428317,
				"y": 1.6148648663,
				"z": -5.1947671775,
				"element": "H" 
			},
			{
				"x": -2.2340602936,
				"y": 3.1141990103,
				"z": -4.3189167948,
				"element": "H" 
			},
			{
				"x": -1.4734539435,
				"y": 3.183843817,
				"z": -5.9202592671,
				"element": "H" 
			},
			{
				"x": 0.2427276338,
				"y": 3.5890010009,
				"z": -4.1196318695,
				"element": "H" 
			},
			{
				"x": 0.6020125706,
				"y": 2.097140843,
				"z": -4.9911513342,
				"element": "H" 
			},
			{
				"x": -1.4203808145,
				"y": 0.5546539109,
				"z": -1.4005736991,
				"element": "H" 
			},
			{
				"x": 0.3333443996,
				"y": -1.0933177452,
				"z": 2.148517084,
				"element": "H" 
			},
			{
				"x": 2.550029428,
				"y": -0.1732827165,
				"z": 1.4914640357,
				"element": "H" 
			},
			{
				"x": 2.7676779829,
				"y": 1.1219519537,
				"z": -0.6370155728,
				"element": "H" 
			},
			{
				"x": -3.8364769694,
				"y": -2.4492744191,
				"z": 1.4649060712,
				"element": "H" 
			},
			{
				"x": -3.0223886053,
				"y": -2.9456374238,
				"z": 2.9729508247,
				"element": "H" 
			},
			{
				"x": -4.3939191027,
				"y": -0.2358462966,
				"z": 2.4699563525,
				"element": "H" 
			},
			{
				"x": -3.5519695425,
				"y": -0.6849946907,
				"z": 3.9721896331,
				"element": "H" 
			},
			{
				"x": -5.0323681623,
				"y": -1.5368219969,
				"z": 3.4914145361,
				"element": "H" 
			}
		],
		 "valence_orbital": [ 
			{
				"type": "occ",
				"energy": -0.29961,
				"method": "rhf"
			},
			{
				"type": "occ",
				"energy": -0.27699,
				"method": "rhf"
			},
			{
				"type": "occ",
				"energy": -0.27187,
				"method": "rhf"
			},
			{
				"type": "occ",
				"energy": -0.26536,
				"method": "rhf"
			},
			{
				"type": "occ",
				"energy": -0.26457,
				"method": "rhf"
			},
			{
				"type": "unocc",
				"energy": -0.05561,
				"method": "rhf"
			},
			{
				"type": "unocc",
				"energy": -0.03834,
				"method": "rhf"
			},
			{
				"type": "unocc",
				"energy": 0.03115,
				"method": "rhf"
			},
			{
				"type": "unocc",
				"energy": 0.08223,
				"method": "rhf"
			},
			{
				"type": "unocc",
				"energy": 0.09544,
				"method": "rhf"
			}
		],
		"cosmo_sigma_profile": { 
			"-0.025": 0.0,
			"-0.024": 0.0,
			"-0.023": 0.0,
			"-0.022": 0.0,
			"-0.021": 0.0,
			"-0.02": 0.0,
			"-0.019": 0.0,
			"-0.018": 0.0,
			"-0.017": 0.0,
			"-0.016": 0.0,
			"-0.015": 0.0,
			"-0.014": 0.0,
			"-0.013": 0.0,
			"-0.012": 0.0,
			"-0.011": 0.0,
			"-0.01": 0.0,
			"-0.009": 0.0,
			"-0.008": 0.0375388939229,
			"-0.007": 2.77456850525,
			"-0.006": 7.83736283775,
			"-0.005": 16.9653866592,
			"-0.004": 26.4797210929,
			"-0.003": 30.9176569177,
			"-0.002": 31.244658171,
			"-0.001": 27.5106207348,
			"0.0": 33.6115436683,
			"0.001": 23.8925453371,
			"0.002": 20.6472830919,
			"0.003": 10.2400840173,
			"0.004": 7.74267439577,
			"0.005": 7.76714002449,
			"0.006": 2.82114581946,
			"0.007": 2.96602263038,
			"0.008": 3.13287043315,
			"0.009": 2.71715492243,
			"0.01": 3.83219449781,
			"0.011": 6.05551769553,
			"0.012": 7.01316293798,
			"0.013": 0.123923068716,
			"0.014": 0.0,
			"0.015": 0.0,
			"0.016": 0.0,
			"0.017": 0.0,
			"0.018": 0.0,
			"0.019": 0.0,
			"0.02": 0.0,
			"0.021": 0.0,
			"0.022": 0.0,
			"0.023": 0.0,
			"0.024": 0.0,
			"0.025": 0.0
		}
	}
}
