{
	 "smiles": "NC1=NN2C=C(N=C2S1)C1=CC=CC=C1", 
	 "Tm": 457.15, 
	 "num_atms": 23, 
	 "gaussian": { 
		 "optdone": 1, 
		 "sigma_profile": "yes", 
		 "theory": "DFT", 
		 "functional": "B3LYP", 
		 "basiset": "6-31G**", 
		 "properties": { 
			 "R2extent": 5404.5031, 
			 "electric_dipole_moment_norm": 4.5445862936, 
			 "electric_quadrupole_moment_norm": 30.7732059215, 
			 "total_energy": -1003.04396355, 
			 "HOMO_LUMO_gap": 0.17641, 
			 "cosmo_polarized_energy": -15.55, 
			 "cosmo_cavitation_energy": 29.5, 
			 "cosmo_dispersion_energy": -22.8, 
			 "cosmo_repulsion_energy": 1.71, 
			 "cosmo_total_nonelectrostatic_energy": 8.4, 
			 "SMD_solvation_energy": 2.39 
		},
		"coords": [
			{
				"x": 3.5826387852,
				"y": 0.5052332458,
				"z": 5.0577847887,
				"element": "N" 
			},
			{
				"x": 2.7667422315,
				"y": 0.1782662819,
				"z": 4.0033338775,
				"element": "C" 
			},
			{
				"x": 2.5404726883,
				"y": 0.9785431891,
				"z": 3.0048738192,
				"element": "N" 
			},
			{
				"x": 1.7768501117,
				"y": 0.3072269763,
				"z": 2.0845375951,
				"element": "N" 
			},
			{
				"x": 1.227988068,
				"y": 0.6521458204,
				"z": 0.8708845949,
				"element": "C" 
			},
			{
				"x": 0.5176806748,
				"y": -0.4727474642,
				"z": 0.4729333777,
				"element": "C" 
			},
			{
				"x": 0.6208750361,
				"y": -1.4866393394,
				"z": 1.4223067255,
				"element": "N" 
			},
			{
				"x": 1.376932887,
				"y": -0.974538964,
				"z": 2.3563195659,
				"element": "C" 
			},
			{
				"x": 2.0509325037,
				"y": -1.4614071907,
				"z": 3.9078584475,
				"element": "S" 
			},
			{
				"x": -0.26382236,
				"y": -0.6705208571,
				"z": -0.7549964747,
				"element": "C" 
			},
			{
				"x": -0.919913097,
				"y": -1.8922840385,
				"z": -0.9794039585,
				"element": "C" 
			},
			{
				"x": -1.6658335842,
				"y": -2.0947185455,
				"z": -2.1387466105,
				"element": "C" 
			},
			{
				"x": -1.7728831063,
				"y": -1.0845257614,
				"z": -3.0970856908,
				"element": "C" 
			},
			{
				"x": -1.1241077388,
				"y": 0.1341038635,
				"z": -2.8836295764,
				"element": "C" 
			},
			{
				"x": -0.3775408147,
				"y": 0.3395841749,
				"z": -1.7257022105,
				"element": "C" 
			},
			{
				"x": 3.8399591448,
				"y": 1.4843637885,
				"z": 5.0742913303,
				"element": "H" 
			},
			{
				"x": 3.3158703015,
				"y": 0.1410421997,
				"z": 5.9621511216,
				"element": "H" 
			},
			{
				"x": 1.3910651657,
				"y": 1.6208257551,
				"z": 0.4293838117,
				"element": "H" 
			},
			{
				"x": -0.8325694068,
				"y": -2.6726168646,
				"z": -0.2314252243,
				"element": "H" 
			},
			{
				"x": -2.1660207305,
				"y": -3.0467446857,
				"z": -2.2944495094,
				"element": "H" 
			},
			{
				"x": -2.3546413118,
				"y": -1.243932708,
				"z": -4.0004119032,
				"element": "H" 
			},
			{
				"x": -1.1991885835,
				"y": 0.9280284815,
				"z": -3.6216454503,
				"element": "H" 
			},
			{
				"x": 0.1205131353,
				"y": 1.2937126424,
				"z": -1.5773624473,
				"element": "H" 
			}
		],
		 "valence_orbital": [ 
			{
				"type": "occ",
				"energy": -0.27487,
				"method": "rhf"
			},
			{
				"type": "occ",
				"energy": -0.2593,
				"method": "rhf"
			},
			{
				"type": "occ",
				"energy": -0.24062,
				"method": "rhf"
			},
			{
				"type": "occ",
				"energy": -0.23453,
				"method": "rhf"
			},
			{
				"type": "occ",
				"energy": -0.19763,
				"method": "rhf"
			},
			{
				"type": "unocc",
				"energy": -0.02122,
				"method": "rhf"
			},
			{
				"type": "unocc",
				"energy": -0.01434,
				"method": "rhf"
			},
			{
				"type": "unocc",
				"energy": 0.00039,
				"method": "rhf"
			},
			{
				"type": "unocc",
				"energy": 0.01068,
				"method": "rhf"
			},
			{
				"type": "unocc",
				"energy": 0.04496,
				"method": "rhf"
			}
		],
		"cosmo_sigma_profile": { 
			"-0.025": 0.0,
			"-0.024": 0.0,
			"-0.023": 0.0,
			"-0.022": 0.0,
			"-0.021": 0.0,
			"-0.02": 0.0,
			"-0.019": 0.0,
			"-0.018": 0.0,
			"-0.017": 0.0,
			"-0.016": 0.520113120372,
			"-0.015": 2.13816287784,
			"-0.014": 2.79788194437,
			"-0.013": 2.91656830807,
			"-0.012": 3.29260948715,
			"-0.011": 2.16273515164,
			"-0.01": 2.3025959789,
			"-0.009": 3.59878615316,
			"-0.008": 3.89023529456,
			"-0.007": 4.21295260869,
			"-0.006": 5.76617720404,
			"-0.005": 10.300450153,
			"-0.004": 12.966063514,
			"-0.003": 17.2577092129,
			"-0.002": 15.1812259651,
			"-0.001": 14.8124306999,
			"0.0": 15.8317342918,
			"0.001": 18.4325562875,
			"0.002": 17.0223603752,
			"0.003": 16.9858920916,
			"0.004": 19.1988379641,
			"0.005": 15.510724659,
			"0.006": 12.5218805014,
			"0.007": 4.22474311235,
			"0.008": 4.1218669206,
			"0.009": 2.82742252319,
			"0.01": 2.48369958151,
			"0.011": 2.98938682012,
			"0.012": 1.61818587627,
			"0.013": 1.405978273,
			"0.014": 0.649886969695,
			"0.015": 0.0,
			"0.016": 0.0,
			"0.017": 0.0,
			"0.018": 0.0,
			"0.019": 0.0,
			"0.02": 0.0,
			"0.021": 0.0,
			"0.022": 0.0,
			"0.023": 0.0,
			"0.024": 0.0,
			"0.025": 0.0
		}
	}
}
