{
	 "smiles": "NC(=S)COC1=CC=CC=C1", 
	 "Tm": 386.15, 
	 "num_atms": 20, 
	 "gaussian": { 
		 "optdone": 1, 
		 "sigma_profile": "yes", 
		 "theory": "DFT", 
		 "functional": "B3LYP", 
		 "basiset": "6-31G**", 
		 "properties": { 
			 "R2extent": 3305.6827, 
			 "electric_dipole_moment_norm": 3.77639653903, 
			 "electric_quadrupole_moment_norm": 18.8807897915, 
			 "total_energy": -838.435115527, 
			 "HOMO_LUMO_gap": 0.1767, 
			 "cosmo_polarized_energy": -13.81, 
			 "cosmo_cavitation_energy": 25.65, 
			 "cosmo_dispersion_energy": -19.11, 
			 "cosmo_repulsion_energy": 1.51, 
			 "cosmo_total_nonelectrostatic_energy": 8.05, 
			 "SMD_solvation_energy": 3.55 
		},
		"coords": [
			{
				"x": -2.6084616972,
				"y": -2.3187780535,
				"z": -0.8475837503,
				"element": "N" 
			},
			{
				"x": -1.4565807259,
				"y": -2.8939613988,
				"z": -1.2122997776,
				"element": "C" 
			},
			{
				"x": -0.8587811765,
				"y": -4.3132439993,
				"z": -0.5893535701,
				"element": "S" 
			},
			{
				"x": -0.7287564701,
				"y": -2.1610357219,
				"z": -2.3366290603,
				"element": "C" 
			},
			{
				"x": -1.1606142991,
				"y": -0.8169657934,
				"z": -2.5243917568,
				"element": "O" 
			},
			{
				"x": -0.5743593426,
				"y": 0.176628158,
				"z": -1.7642263599,
				"element": "C" 
			},
			{
				"x": 0.2140077407,
				"y": -0.0580746286,
				"z": -0.6333662023,
				"element": "C" 
			},
			{
				"x": 0.7463547934,
				"y": 1.0320427926,
				"z": 0.0626427182,
				"element": "C" 
			},
			{
				"x": 0.4951760562,
				"y": 2.3388328278,
				"z": -0.3512179529,
				"element": "C" 
			},
			{
				"x": -0.3011710083,
				"y": 2.5590894534,
				"z": -1.4794524084,
				"element": "C" 
			},
			{
				"x": -0.8343889048,
				"y": 1.4857451734,
				"z": -2.1870617415,
				"element": "C" 
			},
			{
				"x": -2.8891973963,
				"y": -1.4421484544,
				"z": -1.2668143953,
				"element": "H" 
			},
			{
				"x": -3.1687593377,
				"y": -2.7403954364,
				"z": -0.1217079795,
				"element": "H" 
			},
			{
				"x": 0.3497715208,
				"y": -2.2240211357,
				"z": -2.1737729983,
				"element": "H" 
			},
			{
				"x": -0.9599816436,
				"y": -2.6784942132,
				"z": -3.273322395,
				"element": "H" 
			},
			{
				"x": 0.4081729569,
				"y": -1.0650326476,
				"z": -0.2811900995,
				"element": "H" 
			},
			{
				"x": 1.3585065878,
				"y": 0.8465776308,
				"z": 0.9405136704,
				"element": "H" 
			},
			{
				"x": 0.912489973,
				"y": 3.1772637387,
				"z": 0.1975063068,
				"element": "H" 
			},
			{
				"x": -0.5039564468,
				"y": 3.5721317521,
				"z": -1.8149216627,
				"element": "H" 
			},
			{
				"x": -1.4459711802,
				"y": 1.636239956,
				"z": -3.070850585,
				"element": "H" 
			}
		],
		 "valence_orbital": [ 
			{
				"type": "occ",
				"energy": -0.32981,
				"method": "rhf"
			},
			{
				"type": "occ",
				"energy": -0.25869,
				"method": "rhf"
			},
			{
				"type": "occ",
				"energy": -0.2366,
				"method": "rhf"
			},
			{
				"type": "occ",
				"energy": -0.23484,
				"method": "rhf"
			},
			{
				"type": "occ",
				"energy": -0.21295,
				"method": "rhf"
			},
			{
				"type": "unocc",
				"energy": -0.03625,
				"method": "rhf"
			},
			{
				"type": "unocc",
				"energy": -0.0093,
				"method": "rhf"
			},
			{
				"type": "unocc",
				"energy": 0.00237,
				"method": "rhf"
			},
			{
				"type": "unocc",
				"energy": 0.06947,
				"method": "rhf"
			},
			{
				"type": "unocc",
				"energy": 0.08247,
				"method": "rhf"
			}
		],
		"cosmo_sigma_profile": { 
			"-0.025": 0.0,
			"-0.024": 0.0,
			"-0.023": 0.0,
			"-0.022": 0.0,
			"-0.021": 0.0,
			"-0.02": 0.0,
			"-0.019": 0.0,
			"-0.018": 0.0,
			"-0.017": 0.0,
			"-0.016": 0.293831183624,
			"-0.015": 1.50946800514,
			"-0.014": 2.07822399418,
			"-0.013": 1.90029929462,
			"-0.012": 2.47515398616,
			"-0.011": 1.34544159661,
			"-0.01": 1.73212572445,
			"-0.009": 1.96008253953,
			"-0.008": 4.25823797769,
			"-0.007": 4.33947577296,
			"-0.006": 11.2184821076,
			"-0.005": 15.7326697859,
			"-0.004": 16.1840173489,
			"-0.003": 13.0332291254,
			"-0.002": 10.0445727059,
			"-0.001": 10.8915038698,
			"0.0": 10.686152546,
			"0.001": 10.4010435358,
			"0.002": 11.1325646314,
			"0.003": 11.6995715851,
			"0.004": 13.3311287955,
			"0.005": 13.399724936,
			"0.006": 8.67528914297,
			"0.007": 4.60629436829,
			"0.008": 6.92342956259,
			"0.009": 6.8746242314,
			"0.01": 4.53967314449,
			"0.011": 3.79375045653,
			"0.012": 2.0243786258,
			"0.013": 0.106534059738,
			"0.014": 0.0,
			"0.015": 0.0,
			"0.016": 0.0,
			"0.017": 0.0,
			"0.018": 0.0,
			"0.019": 0.0,
			"0.02": 0.0,
			"0.021": 0.0,
			"0.022": 0.0,
			"0.023": 0.0,
			"0.024": 0.0,
			"0.025": 0.0
		}
	}
}
