{
	 "smiles": "CC(C)CCCC(C)C1CCC2C(CCCC12C)=CC=C1CC(O)CC(O)C1=C", 
	 "Tm": 409.15, 
	 "num_atms": 73, 
	 "gaussian": { 
		 "optdone": 1, 
		 "sigma_profile": "yes", 
		 "theory": "DFT", 
		 "functional": "B3LYP", 
		 "basiset": "6-31G**", 
		 "properties": { 
			 "R2extent": 16922.6173, 
			 "electric_dipole_moment_norm": 3.38652177462, 
			 "electric_quadrupole_moment_norm": 20.0608781114, 
			 "total_energy": -1205.80653958, 
			 "HOMO_LUMO_gap": 0.16002, 
			 "cosmo_polarized_energy": -11.31, 
			 "cosmo_cavitation_energy": 64.23, 
			 "cosmo_dispersion_energy": -41.14, 
			 "cosmo_repulsion_energy": 3.12, 
			 "cosmo_total_nonelectrostatic_energy": 26.21, 
			 "SMD_solvation_energy": 9.36 
		},
		"coords": [
			{
				"x": 2.0516805779,
				"y": 3.154077554,
				"z": 2.2171888231,
				"element": "C" 
			},
			{
				"x": 3.135380552,
				"y": 3.3222110973,
				"z": 1.1405956366,
				"element": "C" 
			},
			{
				"x": 3.7044245535,
				"y": 1.9582277224,
				"z": 0.7192141184,
				"element": "C" 
			},
			{
				"x": 2.7068365147,
				"y": 4.1848576261,
				"z": -0.0719021976,
				"element": "C" 
			},
			{
				"x": 1.5930880139,
				"y": 3.6621050892,
				"z": -1.0075090898,
				"element": "C" 
			},
			{
				"x": 0.1534194644,
				"y": 3.9263458524,
				"z": -0.5262841771,
				"element": "C" 
			},
			{
				"x": -0.9797265371,
				"y": 3.7876158632,
				"z": -1.5786428132,
				"element": "C" 
			},
			{
				"x": -2.209659672,
				"y": 4.5968125577,
				"z": -1.1163583521,
				"element": "C" 
			},
			{
				"x": -1.3892431565,
				"y": 2.3720531267,
				"z": -2.1042729739,
				"element": "C" 
			},
			{
				"x": -0.2848520031,
				"y": 1.7012550837,
				"z": -2.9971445907,
				"element": "C" 
			},
			{
				"x": 0.163286759,
				"y": 0.3841649734,
				"z": -2.3034765719,
				"element": "C" 
			},
			{
				"x": -0.4567271025,
				"y": 0.4609852153,
				"z": -0.9024858231,
				"element": "C" 
			},
			{
				"x": -0.6097897788,
				"y": -0.7775065161,
				"z": -0.0525772856,
				"element": "C" 
			},
			{
				"x": -1.2393310757,
				"y": -0.4586436729,
				"z": 1.289097682,
				"element": "C" 
			},
			{
				"x": -2.563486039,
				"y": 0.3264167239,
				"z": 1.1459082893,
				"element": "C" 
			},
			{
				"x": -2.4212017231,
				"y": 1.5681517897,
				"z": 0.2431903361,
				"element": "C" 
			},
			{
				"x": -1.8098487381,
				"y": 1.2133499412,
				"z": -1.1281272984,
				"element": "C" 
			},
			{
				"x": -2.8097325832,
				"y": 0.3173299139,
				"z": -1.9025365462,
				"element": "C" 
			},
			{
				"x": -0.2218554718,
				"y": -2.0090441431,
				"z": -0.4580128385,
				"element": "C" 
			},
			{
				"x": -0.2667089163,
				"y": -3.2298016319,
				"z": 0.3273042774,
				"element": "C" 
			},
			{
				"x": -0.0257989647,
				"y": -4.502958949,
				"z": -0.088256472,
				"element": "C" 
			},
			{
				"x": 0.1130293643,
				"y": -5.6286140615,
				"z": 0.9132034667,
				"element": "C" 
			},
			{
				"x": 1.5875687769,
				"y": -6.0978432947,
				"z": 0.9709666714,
				"element": "C" 
			},
			{
				"x": 2.3626725278,
				"y": -5.2439733826,
				"z": 1.8096075213,
				"element": "O" 
			},
			{
				"x": 2.2120450354,
				"y": -6.1961067039,
				"z": -0.4508992026,
				"element": "C" 
			},
			{
				"x": 1.1897549262,
				"y": -6.1496493362,
				"z": -1.5850697531,
				"element": "C" 
			},
			{
				"x": 0.4343499907,
				"y": -7.3689189816,
				"z": -1.5191474687,
				"element": "O" 
			},
			{
				"x": 0.2679470773,
				"y": -4.9322484766,
				"z": -1.4721777061,
				"element": "C" 
			},
			{
				"x": -0.2658699756,
				"y": -4.4082317125,
				"z": -2.589438689,
				"element": "C" 
			},
			{
				"x": 1.6113246198,
				"y": 4.1161527975,
				"z": 2.5010426586,
				"element": "H" 
			},
			{
				"x": 2.4737430887,
				"y": 2.700325273,
				"z": 3.1209162278,
				"element": "H" 
			},
			{
				"x": 1.2399009425,
				"y": 2.5012731934,
				"z": 1.878536046,
				"element": "H" 
			},
			{
				"x": 3.9595198077,
				"y": 3.8801450684,
				"z": 1.609460994,
				"element": "H" 
			},
			{
				"x": 4.504810412,
				"y": 2.0696272894,
				"z": -0.0208828927,
				"element": "H" 
			},
			{
				"x": 2.9332370741,
				"y": 1.3140176771,
				"z": 0.2816835389,
				"element": "H" 
			},
			{
				"x": 4.1193003105,
				"y": 1.4252907212,
				"z": 1.5817500608,
				"element": "H" 
			},
			{
				"x": 3.6074234076,
				"y": 4.3382922941,
				"z": -0.6815077885,
				"element": "H" 
			},
			{
				"x": 2.4212408797,
				"y": 5.1822038083,
				"z": 0.2915959006,
				"element": "H" 
			},
			{
				"x": 1.7179300648,
				"y": 4.1661576237,
				"z": -1.9755580734,
				"element": "H" 
			},
			{
				"x": 1.7526394194,
				"y": 2.5972502254,
				"z": -1.2078601168,
				"element": "H" 
			},
			{
				"x": 0.1210938954,
				"y": 4.9666894148,
				"z": -0.1731915832,
				"element": "H" 
			},
			{
				"x": -0.0712902815,
				"y": 3.3202258931,
				"z": 0.3554919297,
				"element": "H" 
			},
			{
				"x": -0.6121192902,
				"y": 4.3000608391,
				"z": -2.481865641,
				"element": "H" 
			},
			{
				"x": -3.0261851461,
				"y": 4.5298434151,
				"z": -1.8437048117,
				"element": "H" 
			},
			{
				"x": -1.9516674536,
				"y": 5.6557724749,
				"z": -1.0054618333,
				"element": "H" 
			},
			{
				"x": -2.5967435479,
				"y": 4.2549129192,
				"z": -0.1525797512,
				"element": "H" 
			},
			{
				"x": -2.2557856046,
				"y": 2.5825963012,
				"z": -2.7431540127,
				"element": "H" 
			},
			{
				"x": 0.5589491686,
				"y": 2.3791180198,
				"z": -3.140964055,
				"element": "H" 
			},
			{
				"x": -0.6757969625,
				"y": 1.4929036225,
				"z": -3.9980493746,
				"element": "H" 
			},
			{
				"x": -0.2190769087,
				"y": -0.484730836,
				"z": -2.8485980336,
				"element": "H" 
			},
			{
				"x": 1.2523499717,
				"y": 0.2774426787,
				"z": -2.2686441187,
				"element": "H" 
			},
			{
				"x": 0.1623532236,
				"y": 1.1542208024,
				"z": -0.3112825378,
				"element": "H" 
			},
			{
				"x": -0.5323228341,
				"y": 0.1639173014,
				"z": 1.8602814971,
				"element": "H" 
			},
			{
				"x": -1.4133566157,
				"y": -1.3583171715,
				"z": 1.8842777133,
				"element": "H" 
			},
			{
				"x": -3.3356671913,
				"y": -0.3425768242,
				"z": 0.7498694901,
				"element": "H" 
			},
			{
				"x": -2.9071968106,
				"y": 0.6355207278,
				"z": 2.1401510526,
				"element": "H" 
			},
			{
				"x": -3.402259869,
				"y": 2.0421751674,
				"z": 0.117725911,
				"element": "H" 
			},
			{
				"x": -1.7865496187,
				"y": 2.2948786117,
				"z": 0.7605817905,
				"element": "H" 
			},
			{
				"x": -2.9580697941,
				"y": -0.652873169,
				"z": -1.4218190265,
				"element": "H" 
			},
			{
				"x": -2.4756013545,
				"y": 0.1222134322,
				"z": -2.9255640517,
				"element": "H" 
			},
			{
				"x": -3.783383444,
				"y": 0.815798994,
				"z": -1.969285623,
				"element": "H" 
			},
			{
				"x": 0.2071813525,
				"y": -2.1013901536,
				"z": -1.4516468076,
				"element": "H" 
			},
			{
				"x": -0.4698703399,
				"y": -3.1154828492,
				"z": 1.3906933446,
				"element": "H" 
			},
			{
				"x": -0.1873939519,
				"y": -5.3134802038,
				"z": 1.9166871181,
				"element": "H" 
			},
			{
				"x": -0.5072427413,
				"y": -6.4791697356,
				"z": 0.61316505,
				"element": "H" 
			},
			{
				"x": 1.6235710084,
				"y": -7.0742859942,
				"z": 1.4619384789,
				"element": "H" 
			},
			{
				"x": 2.2374451773,
				"y": -4.3418055006,
				"z": 1.4798284461,
				"element": "H" 
			},
			{
				"x": 2.8987270665,
				"y": -5.3512041679,
				"z": -0.5765123826,
				"element": "H" 
			},
			{
				"x": 2.8115830086,
				"y": -7.1062776594,
				"z": -0.5470456925,
				"element": "H" 
			},
			{
				"x": 1.71808065,
				"y": -6.0959010883,
				"z": -2.5495037799,
				"element": "H" 
			},
			{
				"x": -0.3138669996,
				"y": -7.2729393091,
				"z": -2.1236226472,
				"element": "H" 
			},
			{
				"x": 0.0216651547,
				"y": -4.7793125129,
				"z": -3.5707617298,
				"element": "H" 
			},
			{
				"x": -1.0123753411,
				"y": -3.6222986794,
				"z": -2.5649678568,
				"element": "H" 
			}
		],
		 "valence_orbital": [ 
			{
				"type": "occ",
				"energy": -0.28085,
				"method": "rhf"
			},
			{
				"type": "occ",
				"energy": -0.26974,
				"method": "rhf"
			},
			{
				"type": "occ",
				"energy": -0.26514,
				"method": "rhf"
			},
			{
				"type": "occ",
				"energy": -0.25386,
				"method": "rhf"
			},
			{
				"type": "occ",
				"energy": -0.20072,
				"method": "rhf"
			},
			{
				"type": "unocc",
				"energy": -0.0407,
				"method": "rhf"
			},
			{
				"type": "unocc",
				"energy": 0.01946,
				"method": "rhf"
			},
			{
				"type": "unocc",
				"energy": 0.05355,
				"method": "rhf"
			},
			{
				"type": "unocc",
				"energy": 0.07563,
				"method": "rhf"
			},
			{
				"type": "unocc",
				"energy": 0.07863,
				"method": "rhf"
			}
		],
		"cosmo_sigma_profile": { 
			"-0.025": 0.0,
			"-0.024": 0.0,
			"-0.023": 0.0,
			"-0.022": 0.0,
			"-0.021": 0.0,
			"-0.02": 0.0,
			"-0.019": 0.0,
			"-0.018": 0.0,
			"-0.017": 0.0,
			"-0.016": 0.0,
			"-0.015": 0.083579542012,
			"-0.014": 0.549879661632,
			"-0.013": 0.771719532509,
			"-0.012": 1.42775136112,
			"-0.011": 1.31518269778,
			"-0.01": 0.979937109508,
			"-0.009": 1.48141336427,
			"-0.008": 1.59191829456,
			"-0.007": 2.99820183552,
			"-0.006": 3.81322305447,
			"-0.005": 7.68640859084,
			"-0.004": 15.6656173649,
			"-0.003": 29.4697999603,
			"-0.002": 73.5121941219,
			"-0.001": 92.7251338735,
			"0.0": 87.1827468642,
			"0.001": 68.1009661073,
			"0.002": 44.394664964,
			"0.003": 13.7889986529,
			"0.004": 10.3882405836,
			"0.005": 8.25733123502,
			"0.006": 5.95548714661,
			"0.007": 2.3205245691,
			"0.008": 1.90417663296,
			"0.009": 2.73477216995,
			"0.01": 2.12409102223,
			"0.011": 1.68178957821,
			"0.012": 3.03472158718,
			"0.013": 2.19404914788,
			"0.014": 3.69046891413,
			"0.015": 1.70048104378,
			"0.016": 0.0,
			"0.017": 0.0,
			"0.018": 0.0,
			"0.019": 0.0,
			"0.02": 0.0,
			"0.021": 0.0,
			"0.022": 0.0,
			"0.023": 0.0,
			"0.024": 0.0,
			"0.025": 0.0
		}
	}
}
