{
	 "smiles": "ClC1=CC(=CC=C1)C1=NOC(C=C)=N1", 
	 "Tm": 325.15, 
	 "num_atms": 21, 
	 "gaussian": { 
		 "optdone": 1, 
		 "sigma_profile": "yes", 
		 "theory": "DFT", 
		 "functional": "B3LYP", 
		 "basiset": "6-31G**", 
		 "properties": { 
			 "R2extent": 4985.1595, 
			 "electric_dipole_moment_norm": 3.78552048337, 
			 "electric_quadrupole_moment_norm": 10.3015074023, 
			 "total_energy": -1030.14840038, 
			 "HOMO_LUMO_gap": 0.17968, 
			 "cosmo_polarized_energy": -7.78, 
			 "cosmo_cavitation_energy": 28.73, 
			 "cosmo_dispersion_energy": -21.07, 
			 "cosmo_repulsion_energy": 1.64, 
			 "cosmo_total_nonelectrostatic_energy": 9.3, 
			 "SMD_solvation_energy": 4.03 
		},
		"coords": [
			{
				"x": -3.5227701925,
				"y": 0.0784738042,
				"z": 4.4868055907,
				"element": "Cl" 
			},
			{
				"x": -2.5398901791,
				"y": 0.6467340506,
				"z": 3.1444912682,
				"element": "C" 
			},
			{
				"x": -1.6810930233,
				"y": -0.2421631978,
				"z": 2.5081548709,
				"element": "C" 
			},
			{
				"x": -0.898362889,
				"y": 0.2157946203,
				"z": 1.4371201447,
				"element": "C" 
			},
			{
				"x": -0.9881616927,
				"y": 1.5510164006,
				"z": 1.0226945821,
				"element": "C" 
			},
			{
				"x": -1.8566964105,
				"y": 2.4232261327,
				"z": 1.6766171669,
				"element": "C" 
			},
			{
				"x": -2.640188353,
				"y": 1.9803293872,
				"z": 2.7426221169,
				"element": "C" 
			},
			{
				"x": 0.0183315767,
				"y": -0.7026148646,
				"z": 0.7458936829,
				"element": "C" 
			},
			{
				"x": 0.148070047,
				"y": -1.9687836558,
				"z": 1.0878106604,
				"element": "N" 
			},
			{
				"x": 1.1006000724,
				"y": -2.4522772284,
				"z": 0.1872765956,
				"element": "O" 
			},
			{
				"x": 1.4462007639,
				"y": -1.4182329235,
				"z": -0.6076595012,
				"element": "C" 
			},
			{
				"x": 2.4371278369,
				"y": -1.6706261923,
				"z": -1.6415781481,
				"element": "C" 
			},
			{
				"x": 2.8550677683,
				"y": -0.7220108836,
				"z": -2.4864343844,
				"element": "C" 
			},
			{
				"x": 0.8121406858,
				"y": -0.3161827641,
				"z": -0.3102957337,
				"element": "N" 
			},
			{
				"x": -1.6141311664,
				"y": -1.2742204196,
				"z": 2.8313339057,
				"element": "H" 
			},
			{
				"x": -0.3765446728,
				"y": 1.888290358,
				"z": 0.1937772336,
				"element": "H" 
			},
			{
				"x": -1.9270405544,
				"y": 3.4582118229,
				"z": 1.3561863306,
				"element": "H" 
			},
			{
				"x": -3.3182532522,
				"y": 2.6524809783,
				"z": 3.2565296058,
				"element": "H" 
			},
			{
				"x": 2.8197931801,
				"y": -2.685802995,
				"z": -1.6853174546,
				"element": "H" 
			},
			{
				"x": 3.5957495996,
				"y": -0.9378603172,
				"z": -3.2487317657,
				"element": "H" 
			},
			{
				"x": 2.4639508553,
				"y": 0.2888178869,
				"z": -2.4313967674,
				"element": "H" 
			}
		],
		 "valence_orbital": [ 
			{
				"type": "occ",
				"energy": -0.3143,
				"method": "rhf"
			},
			{
				"type": "occ",
				"energy": -0.30292,
				"method": "rhf"
			},
			{
				"type": "occ",
				"energy": -0.27785,
				"method": "rhf"
			},
			{
				"type": "occ",
				"energy": -0.25595,
				"method": "rhf"
			},
			{
				"type": "occ",
				"energy": -0.24797,
				"method": "rhf"
			},
			{
				"type": "unocc",
				"energy": -0.06829,
				"method": "rhf"
			},
			{
				"type": "unocc",
				"energy": -0.04644,
				"method": "rhf"
			},
			{
				"type": "unocc",
				"energy": -0.01705,
				"method": "rhf"
			},
			{
				"type": "unocc",
				"energy": 0.02816,
				"method": "rhf"
			},
			{
				"type": "unocc",
				"energy": 0.04443,
				"method": "rhf"
			}
		],
		"cosmo_sigma_profile": { 
			"-0.025": 0.0,
			"-0.024": 0.0,
			"-0.023": 0.0,
			"-0.022": 0.0,
			"-0.021": 0.0,
			"-0.02": 0.0,
			"-0.019": 0.0,
			"-0.018": 0.0,
			"-0.017": 0.0,
			"-0.016": 0.0,
			"-0.015": 0.0,
			"-0.014": 0.0,
			"-0.013": 0.0,
			"-0.012": 0.0,
			"-0.011": 0.0,
			"-0.01": 0.0,
			"-0.009": 0.191050516608,
			"-0.008": 3.78535725487,
			"-0.007": 9.53918681651,
			"-0.006": 12.8026746922,
			"-0.005": 12.1464622346,
			"-0.004": 12.3058926289,
			"-0.003": 15.4392858115,
			"-0.002": 16.0211466568,
			"-0.001": 17.7856153246,
			"0.0": 22.4726664895,
			"0.001": 26.0063564495,
			"0.002": 26.8468436453,
			"0.003": 17.8677165621,
			"0.004": 14.2431106901,
			"0.005": 8.05135083946,
			"0.006": 6.02514290516,
			"0.007": 3.8565367359,
			"0.008": 2.9833178054,
			"0.009": 2.89925339273,
			"0.01": 1.50442129939,
			"0.011": 1.15962860512,
			"0.012": 0.676081888571,
			"0.013": 0.0312496681406,
			"0.014": 0.0,
			"0.015": 0.0,
			"0.016": 0.0,
			"0.017": 0.0,
			"0.018": 0.0,
			"0.019": 0.0,
			"0.02": 0.0,
			"0.021": 0.0,
			"0.022": 0.0,
			"0.023": 0.0,
			"0.024": 0.0,
			"0.025": 0.0
		}
	}
}
