{
	 "smiles": "NCC(O)C1=CC(F)=CC=C1", 
	 "Tm": 316.15, 
	 "num_atms": 21, 
	 "gaussian": { 
		 "optdone": 1, 
		 "sigma_profile": "yes", 
		 "theory": "DFT", 
		 "functional": "B3LYP", 
		 "basiset": "6-31G**", 
		 "properties": { 
			 "R2extent": 2004.9698, 
			 "electric_dipole_moment_norm": 2.60588798877, 
			 "electric_quadrupole_moment_norm": 7.64745380568, 
			 "total_energy": -540.678491783, 
			 "HOMO_LUMO_gap": 0.21251, 
			 "cosmo_polarized_energy": -10.15, 
			 "cosmo_cavitation_energy": 24.63, 
			 "cosmo_dispersion_energy": -17.64, 
			 "cosmo_repulsion_energy": 1.41, 
			 "cosmo_total_nonelectrostatic_energy": 8.41, 
			 "SMD_solvation_energy": 3.23 
		},
		"coords": [
			{
				"x": 1.0483342814,
				"y": 1.575710703,
				"z": -2.0192233035,
				"element": "N" 
			},
			{
				"x": 1.9025766445,
				"y": 1.5819808753,
				"z": -0.8410536838,
				"element": "C" 
			},
			{
				"x": 1.2486111742,
				"y": 1.115639235,
				"z": 0.4843144083,
				"element": "C" 
			},
			{
				"x": 0.1442851029,
				"y": 1.9918033852,
				"z": 0.6953627615,
				"element": "O" 
			},
			{
				"x": 0.8344210135,
				"y": -0.3456109798,
				"z": 0.450514842,
				"element": "C" 
			},
			{
				"x": -0.4539612304,
				"y": -0.7101354216,
				"z": 0.0402812237,
				"element": "C" 
			},
			{
				"x": -0.7904702712,
				"y": -2.0581512077,
				"z": -0.020086153,
				"element": "C" 
			},
			{
				"x": -2.0369942803,
				"y": -2.3972664119,
				"z": -0.4132055234,
				"element": "F" 
			},
			{
				"x": 0.1074045356,
				"y": -3.0658349898,
				"z": 0.3095424814,
				"element": "C" 
			},
			{
				"x": 1.390774086,
				"y": -2.695690668,
				"z": 0.7179144676,
				"element": "C" 
			},
			{
				"x": 1.7514531527,
				"y": -1.3503007048,
				"z": 0.7908901542,
				"element": "C" 
			},
			{
				"x": 0.7290802096,
				"y": 0.6300445779,
				"z": -2.2169970359,
				"element": "H" 
			},
			{
				"x": 0.2161506089,
				"y": 2.1268507365,
				"z": -1.8232128049,
				"element": "H" 
			},
			{
				"x": 2.2564943365,
				"y": 2.6069804929,
				"z": -0.6798959883,
				"element": "H" 
			},
			{
				"x": 2.7843479891,
				"y": 0.959990427,
				"z": -1.0315185331,
				"element": "H" 
			},
			{
				"x": 1.9989361789,
				"y": 1.2428178821,
				"z": 1.282368585,
				"element": "H" 
			},
			{
				"x": -0.3081873305,
				"y": 1.7161176937,
				"z": 1.5032390226,
				"element": "H" 
			},
			{
				"x": -1.189176058,
				"y": 0.0438703708,
				"z": -0.2165323483,
				"element": "H" 
			},
			{
				"x": -0.2014519451,
				"y": -4.1036907971,
				"z": 0.2506786558,
				"element": "H" 
			},
			{
				"x": 2.1085451426,
				"y": -3.464636544,
				"z": 0.9880161913,
				"element": "H" 
			},
			{
				"x": 2.7505266592,
				"y": -1.0758886549,
				"z": 1.1197025808,
				"element": "H" 
			}
		],
		 "valence_orbital": [ 
			{
				"type": "occ",
				"energy": -0.33394,
				"method": "rhf"
			},
			{
				"type": "occ",
				"energy": -0.28695,
				"method": "rhf"
			},
			{
				"type": "occ",
				"energy": -0.25918,
				"method": "rhf"
			},
			{
				"type": "occ",
				"energy": -0.25035,
				"method": "rhf"
			},
			{
				"type": "occ",
				"energy": -0.22871,
				"method": "rhf"
			},
			{
				"type": "unocc",
				"energy": -0.0162,
				"method": "rhf"
			},
			{
				"type": "unocc",
				"energy": -0.00634,
				"method": "rhf"
			},
			{
				"type": "unocc",
				"energy": 0.07039,
				"method": "rhf"
			},
			{
				"type": "unocc",
				"energy": 0.09016,
				"method": "rhf"
			},
			{
				"type": "unocc",
				"energy": 0.10886,
				"method": "rhf"
			}
		],
		"cosmo_sigma_profile": { 
			"-0.025": 0.0,
			"-0.024": 0.0,
			"-0.023": 0.0,
			"-0.022": 0.0,
			"-0.021": 0.0,
			"-0.02": 0.0,
			"-0.019": 0.0,
			"-0.018": 0.0,
			"-0.017": 0.0,
			"-0.016": 0.193168730514,
			"-0.015": 0.872407021886,
			"-0.014": 0.727108953822,
			"-0.013": 1.21229778361,
			"-0.012": 0.363568942511,
			"-0.011": 1.06654054696,
			"-0.01": 1.20270504772,
			"-0.009": 0.637506430473,
			"-0.008": 2.26862588891,
			"-0.007": 3.77164598256,
			"-0.006": 10.1401768728,
			"-0.005": 13.1512589548,
			"-0.004": 18.5277420929,
			"-0.003": 16.9137455194,
			"-0.002": 13.4750157619,
			"-0.001": 12.1962111386,
			"0.0": 10.2898328077,
			"0.001": 14.5952731536,
			"0.002": 11.8896979183,
			"0.003": 12.5553147388,
			"0.004": 17.344998494,
			"0.005": 11.6108067664,
			"0.006": 2.00413734847,
			"0.007": 2.3043565781,
			"0.008": 2.0164099737,
			"0.009": 1.977489113,
			"0.01": 1.45626949387,
			"0.011": 1.37546505548,
			"0.012": 2.01332543638,
			"0.013": 1.52444099001,
			"0.014": 0.718347396885,
			"0.015": 0.575873685018,
			"0.016": 1.11697497419,
			"0.017": 0.245594956314,
			"0.018": 0.818610528389,
			"0.019": 0.570190000184,
			"0.02": 0.211912074859,
			"0.021": 0.0,
			"0.022": 0.0,
			"0.023": 0.0,
			"0.024": 0.0,
			"0.025": 0.0
		}
	}
}
