{
	 "smiles": "O=CC1=CC(=CC=C1)C1=NC=CS1", 
	 "Tm": 340.65, 
	 "num_atms": 20, 
	 "gaussian": { 
		 "optdone": 1, 
		 "sigma_profile": "yes", 
		 "theory": "DFT", 
		 "functional": "B3LYP", 
		 "basiset": "6-31G**", 
		 "properties": { 
			 "R2extent": 3656.0157, 
			 "electric_dipole_moment_norm": 3.9914644994, 
			 "electric_quadrupole_moment_norm": 15.2326421277, 
			 "total_energy": -913.430165526, 
			 "HOMO_LUMO_gap": 0.16311, 
			 "cosmo_polarized_energy": -11.1, 
			 "cosmo_cavitation_energy": 26.69, 
			 "cosmo_dispersion_energy": -20.12, 
			 "cosmo_repulsion_energy": 1.51, 
			 "cosmo_total_nonelectrostatic_energy": 8.09, 
			 "SMD_solvation_energy": 4.43 
		},
		"coords": [
			{
				"x": -0.5148092992,
				"y": -1.941909824,
				"z": 2.3176511998,
				"element": "O" 
			},
			{
				"x": 0.2736662575,
				"y": -1.1065421429,
				"z": 2.7139228409,
				"element": "C" 
			},
			{
				"x": 0.8946970628,
				"y": -0.0604122373,
				"z": 1.8651948852,
				"element": "C" 
			},
			{
				"x": 0.5838567148,
				"y": 0.0134244499,
				"z": 0.5033771117,
				"element": "C" 
			},
			{
				"x": 1.1674706497,
				"y": 0.9994189935,
				"z": -0.3029278893,
				"element": "C" 
			},
			{
				"x": 2.0678680344,
				"y": 1.9086910148,
				"z": 0.2829858746,
				"element": "C" 
			},
			{
				"x": 2.3779376159,
				"y": 1.835701856,
				"z": 1.6394880587,
				"element": "C" 
			},
			{
				"x": 1.793069899,
				"y": 0.8517727944,
				"z": 2.4351002176,
				"element": "C" 
			},
			{
				"x": 0.8209458153,
				"y": 1.0516397092,
				"z": -1.7310650827,
				"element": "C" 
			},
			{
				"x": -0.0103527462,
				"y": 0.2243399823,
				"z": -2.3090284825,
				"element": "N" 
			},
			{
				"x": -0.151471496,
				"y": 0.4975226867,
				"z": -3.6439634079,
				"element": "C" 
			},
			{
				"x": 0.5765981005,
				"y": 1.5508406879,
				"z": -4.1207773228,
				"element": "C" 
			},
			{
				"x": 1.4996402714,
				"y": 2.2546221534,
				"z": -2.8368553,
				"element": "S" 
			},
			{
				"x": 0.5875405905,
				"y": -1.0783248267,
				"z": 3.7817613574,
				"element": "H" 
			},
			{
				"x": -0.1126434259,
				"y": -0.6980611727,
				"z": 0.0744556527,
				"element": "H" 
			},
			{
				"x": 2.531808875,
				"y": 2.6811433851,
				"z": -0.3242242146,
				"element": "H" 
			},
			{
				"x": 3.0750965605,
				"y": 2.5470047339,
				"z": 2.071368802,
				"element": "H" 
			},
			{
				"x": 2.0286962402,
				"y": 0.7867253094,
				"z": 3.4946287357,
				"element": "H" 
			},
			{
				"x": -0.8145233297,
				"y": -0.1163747088,
				"z": -4.2423215372,
				"element": "H" 
			},
			{
				"x": 0.6220076095,
				"y": 1.9429771559,
				"z": -5.1265714993,
				"element": "H" 
			}
		],
		 "valence_orbital": [ 
			{
				"type": "occ",
				"energy": -0.28689,
				"method": "rhf"
			},
			{
				"type": "occ",
				"energy": -0.28042,
				"method": "rhf"
			},
			{
				"type": "occ",
				"energy": -0.26875,
				"method": "rhf"
			},
			{
				"type": "occ",
				"energy": -0.25662,
				"method": "rhf"
			},
			{
				"type": "occ",
				"energy": -0.23315,
				"method": "rhf"
			},
			{
				"type": "unocc",
				"energy": -0.07004,
				"method": "rhf"
			},
			{
				"type": "unocc",
				"energy": -0.05663,
				"method": "rhf"
			},
			{
				"type": "unocc",
				"energy": 0.00206,
				"method": "rhf"
			},
			{
				"type": "unocc",
				"energy": 0.013,
				"method": "rhf"
			},
			{
				"type": "unocc",
				"energy": 0.03661,
				"method": "rhf"
			}
		],
		"cosmo_sigma_profile": { 
			"-0.025": 0.0,
			"-0.024": 0.0,
			"-0.023": 0.0,
			"-0.022": 0.0,
			"-0.021": 0.0,
			"-0.02": 0.0,
			"-0.019": 0.0,
			"-0.018": 0.0,
			"-0.017": 0.0,
			"-0.016": 0.0,
			"-0.015": 0.0,
			"-0.014": 0.0,
			"-0.013": 0.0,
			"-0.012": 0.0,
			"-0.011": 0.0,
			"-0.01": 0.416791542115,
			"-0.009": 2.211664744,
			"-0.008": 5.5262582509,
			"-0.007": 12.7231262002,
			"-0.006": 13.9495653418,
			"-0.005": 12.4302472462,
			"-0.004": 11.433474675,
			"-0.003": 10.9436492802,
			"-0.002": 11.1586407172,
			"-0.001": 14.3331879969,
			"0.0": 18.6779212794,
			"0.001": 22.5515529839,
			"0.002": 28.624063158,
			"0.003": 17.6804530859,
			"0.004": 5.24381340534,
			"0.005": 3.67610082652,
			"0.006": 3.43481682596,
			"0.007": 3.18986570282,
			"0.008": 3.60752285384,
			"0.009": 2.76358356998,
			"0.01": 4.27307445747,
			"0.011": 4.98484235038,
			"0.012": 3.41856625554,
			"0.013": 0.68695083836,
			"0.014": 0.0,
			"0.015": 0.0,
			"0.016": 0.0,
			"0.017": 0.0,
			"0.018": 0.0,
			"0.019": 0.0,
			"0.02": 0.0,
			"0.021": 0.0,
			"0.022": 0.0,
			"0.023": 0.0,
			"0.024": 0.0,
			"0.025": 0.0
		}
	}
}
