{
	 "smiles": "CN1CCCN(CC1)C1=CC=C(C=C1)C#N", 
	 "Tm": 366.65, 
	 "num_atms": 33, 
	 "gaussian": { 
		 "optdone": 1, 
		 "sigma_profile": "yes", 
		 "theory": "DFT", 
		 "functional": "B3LYP", 
		 "basiset": "6-31G**", 
		 "properties": { 
			 "R2extent": 5477.102, 
			 "electric_dipole_moment_norm": 7.095934832, 
			 "electric_quadrupole_moment_norm": 45.5558796746, 
			 "total_energy": -669.84775769, 
			 "HOMO_LUMO_gap": 0.17611, 
			 "cosmo_polarized_energy": -13.42, 
			 "cosmo_cavitation_energy": 34.33, 
			 "cosmo_dispersion_energy": -24.3, 
			 "cosmo_repulsion_energy": 1.86, 
			 "cosmo_total_nonelectrostatic_energy": 11.89, 
			 "SMD_solvation_energy": 3.98 
		},
		"coords": [
			{
				"x": -0.5803807374,
				"y": 1.8196965306,
				"z": -2.874017302,
				"element": "C" 
			},
			{
				"x": 0.0592956313,
				"y": 0.6174150809,
				"z": -2.3579159281,
				"element": "N" 
			},
			{
				"x": 0.9625498393,
				"y": 0.940275678,
				"z": -1.2488411434,
				"element": "C" 
			},
			{
				"x": 1.5601515069,
				"y": -0.2761083728,
				"z": -0.5350216818,
				"element": "C" 
			},
			{
				"x": 0.5126379294,
				"y": -1.1508497229,
				"z": 0.2187448382,
				"element": "C" 
			},
			{
				"x": -0.7886950974,
				"y": -0.5119721082,
				"z": 0.3874528625,
				"element": "N" 
			},
			{
				"x": -1.6600143826,
				"y": -0.4654110173,
				"z": -0.7889379558,
				"element": "C" 
			},
			{
				"x": -0.8679442973,
				"y": -0.4854831657,
				"z": -2.1135396889,
				"element": "C" 
			},
			{
				"x": -1.2033050363,
				"y": 0.0136330183,
				"z": 1.5955297795,
				"element": "C" 
			},
			{
				"x": -2.5717086507,
				"y": 0.291817692,
				"z": 1.840378163,
				"element": "C" 
			},
			{
				"x": -2.9913725736,
				"y": 0.8296813887,
				"z": 3.0472304267,
				"element": "C" 
			},
			{
				"x": -2.0722683584,
				"y": 1.1108395329,
				"z": 4.0727000049,
				"element": "C" 
			},
			{
				"x": -0.7117399257,
				"y": 0.8369941778,
				"z": 3.8425600141,
				"element": "C" 
			},
			{
				"x": -0.2853592394,
				"y": 0.307227665,
				"z": 2.635968257,
				"element": "C" 
			},
			{
				"x": -2.5078797532,
				"y": 1.6624725033,
				"z": 5.3167438787,
				"element": "C" 
			},
			{
				"x": -2.8625928034,
				"y": 2.1122443946,
				"z": 6.33096191,
				"element": "N" 
			},
			{
				"x": -1.1673890307,
				"y": 1.5779103646,
				"z": -3.7657288601,
				"element": "H" 
			},
			{
				"x": -1.2455885943,
				"y": 2.3268041453,
				"z": -2.1492523571,
				"element": "H" 
			},
			{
				"x": 0.1891618954,
				"y": 2.5418340707,
				"z": -3.1675518384,
				"element": "H" 
			},
			{
				"x": 0.4633981948,
				"y": 1.5719708368,
				"z": -0.4913048416,
				"element": "H" 
			},
			{
				"x": 1.7841084301,
				"y": 1.5426045888,
				"z": -1.6577844493,
				"element": "H" 
			},
			{
				"x": 2.2994734439,
				"y": 0.1069194653,
				"z": 0.177732872,
				"element": "H" 
			},
			{
				"x": 2.1091294365,
				"y": -0.8980263152,
				"z": -1.2508174465,
				"element": "H" 
			},
			{
				"x": 0.3589504048,
				"y": -2.0932288005,
				"z": -0.3185604011,
				"element": "H" 
			},
			{
				"x": 0.8866234672,
				"y": -1.4384855213,
				"z": 1.202039298,
				"element": "H" 
			},
			{
				"x": -2.3674715043,
				"y": -1.3121616455,
				"z": -0.7998739943,
				"element": "H" 
			},
			{
				"x": -2.2573620506,
				"y": 0.4511319453,
				"z": -0.7420285819,
				"element": "H" 
			},
			{
				"x": -0.3224160739,
				"y": -1.4318812334,
				"z": -2.1971069732,
				"element": "H" 
			},
			{
				"x": -1.5993129478,
				"y": -0.4970311819,
				"z": -2.9287219517,
				"element": "H" 
			},
			{
				"x": -3.3170671014,
				"y": 0.055592929,
				"z": 1.0911031297,
				"element": "H" 
			},
			{
				"x": -4.0469232495,
				"y": 1.0236058282,
				"z": 3.209058005,
				"element": "H" 
			},
			{
				"x": 0.0153847175,
				"y": 1.0593334385,
				"z": 4.6170130585,
				"element": "H" 
			},
			{
				"x": 0.7762265107,
				"y": 0.1485338101,
				"z": 2.4879888976,
				"element": "H" 
			}
		],
		 "valence_orbital": [ 
			{
				"type": "occ",
				"energy": -0.31217,
				"method": "rhf"
			},
			{
				"type": "occ",
				"energy": -0.28508,
				"method": "rhf"
			},
			{
				"type": "occ",
				"energy": -0.26465,
				"method": "rhf"
			},
			{
				"type": "occ",
				"energy": -0.21828,
				"method": "rhf"
			},
			{
				"type": "occ",
				"energy": -0.20225,
				"method": "rhf"
			},
			{
				"type": "unocc",
				"energy": -0.02614,
				"method": "rhf"
			},
			{
				"type": "unocc",
				"energy": -0.01353,
				"method": "rhf"
			},
			{
				"type": "unocc",
				"energy": 0.05173,
				"method": "rhf"
			},
			{
				"type": "unocc",
				"energy": 0.05999,
				"method": "rhf"
			},
			{
				"type": "unocc",
				"energy": 0.0811,
				"method": "rhf"
			}
		],
		"cosmo_sigma_profile": { 
			"-0.025": 0.0,
			"-0.024": 0.0,
			"-0.023": 0.0,
			"-0.022": 0.0,
			"-0.021": 0.0,
			"-0.02": 0.0,
			"-0.019": 0.0,
			"-0.018": 0.0,
			"-0.017": 0.0,
			"-0.016": 0.0,
			"-0.015": 0.0,
			"-0.014": 0.0,
			"-0.013": 0.0,
			"-0.012": 0.0,
			"-0.011": 0.0,
			"-0.01": 0.0,
			"-0.009": 0.0,
			"-0.008": 0.188068986234,
			"-0.007": 5.44455806875,
			"-0.006": 9.83948604154,
			"-0.005": 17.7723057278,
			"-0.004": 27.3979943121,
			"-0.003": 33.7903078638,
			"-0.002": 29.3600409349,
			"-0.001": 27.9546849889,
			"0.0": 28.2492802872,
			"0.001": 14.1852662741,
			"0.002": 12.1496655747,
			"0.003": 12.0629577349,
			"0.004": 14.0187213493,
			"0.005": 6.61305277786,
			"0.006": 2.87923453088,
			"0.007": 3.35821708753,
			"0.008": 3.56313969819,
			"0.009": 4.04662431265,
			"0.01": 4.20419559012,
			"0.011": 4.16446608176,
			"0.012": 3.13832683121,
			"0.013": 3.23743219754,
			"0.014": 2.09580210742,
			"0.015": 0.45960953008,
			"0.016": 0.369976374609,
			"0.017": 0.0916241299695,
			"0.018": 0.0,
			"0.019": 0.0,
			"0.02": 0.0,
			"0.021": 0.0,
			"0.022": 0.0,
			"0.023": 0.0,
			"0.024": 0.0,
			"0.025": 0.0
		}
	}
}
