{
	 "smiles": "OC(=O)CCC(=O)C1=CC=C(F)C=C1", 
	 "Tm": 374.15, 
	 "num_atms": 23, 
	 "gaussian": { 
		 "optdone": 1, 
		 "sigma_profile": "yes", 
		 "theory": "DFT", 
		 "functional": "B3LYP", 
		 "basiset": "6-31G**", 
		 "properties": { 
			 "R2extent": 3927.2122, 
			 "electric_dipole_moment_norm": 2.17906154342, 
			 "electric_quadrupole_moment_norm": 7.03070134411, 
			 "total_energy": -712.016087921, 
			 "HOMO_LUMO_gap": 0.19823, 
			 "cosmo_polarized_energy": -14.12, 
			 "cosmo_cavitation_energy": 28.6, 
			 "cosmo_dispersion_energy": -20.36, 
			 "cosmo_repulsion_energy": 1.59, 
			 "cosmo_total_nonelectrostatic_energy": 9.82, 
			 "SMD_solvation_energy": 6.82 
		},
		"coords": [
			{
				"x": -0.3511407615,
				"y": 4.4623037561,
				"z": -1.7520574427,
				"element": "O" 
			},
			{
				"x": 0.2295589393,
				"y": 3.4402399209,
				"z": -1.0840509029,
				"element": "C" 
			},
			{
				"x": 0.3854165251,
				"y": 3.4474218772,
				"z": 0.1178967197,
				"element": "O" 
			},
			{
				"x": 0.6884104851,
				"y": 2.3448493703,
				"z": -2.0241401392,
				"element": "C" 
			},
			{
				"x": 0.9656395884,
				"y": 1.0419097256,
				"z": -1.281375213,
				"element": "C" 
			},
			{
				"x": -0.3210145491,
				"y": 0.3745488146,
				"z": -0.7993748802,
				"element": "C" 
			},
			{
				"x": -1.4093765559,
				"y": 0.8597986114,
				"z": -1.07454484,
				"element": "O" 
			},
			{
				"x": -0.2262639751,
				"y": -0.886391816,
				"z": -0.0015527746,
				"element": "C" 
			},
			{
				"x": 0.9966898309,
				"y": -1.4874267924,
				"z": 0.3366875268,
				"element": "C" 
			},
			{
				"x": 1.0305379616,
				"y": -2.6657295268,
				"z": 1.0791023815,
				"element": "C" 
			},
			{
				"x": -0.1741835435,
				"y": -3.2344961874,
				"z": 1.4795907415,
				"element": "C" 
			},
			{
				"x": -0.1483074162,
				"y": -4.3725946092,
				"z": 2.1969992332,
				"element": "F" 
			},
			{
				"x": -1.4058804294,
				"y": -2.6655459199,
				"z": 1.1633064523,
				"element": "C" 
			},
			{
				"x": -1.4224026954,
				"y": -1.4907027542,
				"z": 0.4218111738,
				"element": "C" 
			},
			{
				"x": -0.594326969,
				"y": 5.1205465979,
				"z": -1.0794457953,
				"element": "H" 
			},
			{
				"x": -0.0703899206,
				"y": 2.2098817286,
				"z": -2.7980033971,
				"element": "H" 
			},
			{
				"x": 1.59897721,
				"y": 2.7021150345,
				"z": -2.5208273841,
				"element": "H" 
			},
			{
				"x": 1.609404296,
				"y": 1.2371366099,
				"z": -0.416833093,
				"element": "H" 
			},
			{
				"x": 1.5052384223,
				"y": 0.3400597232,
				"z": -1.9295985226,
				"element": "H" 
			},
			{
				"x": 1.9345582277,
				"y": -1.0396570971,
				"z": 0.0261149557,
				"element": "H" 
			},
			{
				"x": 1.9650481037,
				"y": -3.1439850098,
				"z": 1.350842034,
				"element": "H" 
			},
			{
				"x": -2.318901198,
				"y": -3.1450799866,
				"z": 1.4991113748,
				"element": "H" 
			},
			{
				"x": -2.3586915762,
				"y": -1.0133020709,
				"z": 0.1538417915,
				"element": "H" 
			}
		],
		 "valence_orbital": [ 
			{
				"type": "occ",
				"energy": -0.3155,
				"method": "rhf"
			},
			{
				"type": "occ",
				"energy": -0.27467,
				"method": "rhf"
			},
			{
				"type": "occ",
				"energy": -0.27285,
				"method": "rhf"
			},
			{
				"type": "occ",
				"energy": -0.25645,
				"method": "rhf"
			},
			{
				"type": "occ",
				"energy": -0.25606,
				"method": "rhf"
			},
			{
				"type": "unocc",
				"energy": -0.05783,
				"method": "rhf"
			},
			{
				"type": "unocc",
				"energy": -0.02149,
				"method": "rhf"
			},
			{
				"type": "unocc",
				"energy": 0.01415,
				"method": "rhf"
			},
			{
				"type": "unocc",
				"energy": 0.03884,
				"method": "rhf"
			},
			{
				"type": "unocc",
				"energy": 0.07982,
				"method": "rhf"
			}
		],
		"cosmo_sigma_profile": { 
			"-0.025": 0.0,
			"-0.024": 0.0,
			"-0.023": 0.0,
			"-0.022": 0.0,
			"-0.021": 0.0,
			"-0.02": 0.0,
			"-0.019": 0.0,
			"-0.018": 0.6800125351,
			"-0.017": 0.829411036284,
			"-0.016": 1.01376070819,
			"-0.015": 0.605548405514,
			"-0.014": 0.803521031567,
			"-0.013": 1.19061242434,
			"-0.012": 0.324333242284,
			"-0.011": 0.662257077937,
			"-0.01": 0.837894248774,
			"-0.009": 0.272974497882,
			"-0.008": 3.25883996831,
			"-0.007": 11.3504332048,
			"-0.006": 16.0329669646,
			"-0.005": 16.2943912781,
			"-0.004": 14.1930543476,
			"-0.003": 14.7266053936,
			"-0.002": 9.30736184491,
			"-0.001": 12.2456794349,
			"0.0": 16.7589148022,
			"0.001": 16.37497626,
			"0.002": 19.2732973554,
			"0.003": 15.7593578638,
			"0.004": 13.1460222013,
			"0.005": 5.66518353017,
			"0.006": 5.0827135663,
			"0.007": 4.93223854085,
			"0.008": 4.7267789387,
			"0.009": 4.18279106608,
			"0.01": 5.09648734325,
			"0.011": 6.12610330094,
			"0.012": 5.82728732227,
			"0.013": 0.148354965125,
			"0.014": 0.0,
			"0.015": 0.0,
			"0.016": 0.0,
			"0.017": 0.0,
			"0.018": 0.0,
			"0.019": 0.0,
			"0.02": 0.0,
			"0.021": 0.0,
			"0.022": 0.0,
			"0.023": 0.0,
			"0.024": 0.0,
			"0.025": 0.0
		}
	}
}
