{
	 "smiles": "NC1=CC=C(CN2C=CN=C2)C=C1", 
	 "Tm": 402.15, 
	 "num_atms": 24, 
	 "gaussian": { 
		 "optdone": 1, 
		 "sigma_profile": "yes", 
		 "theory": "DFT", 
		 "functional": "B3LYP", 
		 "basiset": "6-31G**", 
		 "properties": { 
			 "R2extent": 3373.2118, 
			 "electric_dipole_moment_norm": 5.88122305477, 
			 "electric_quadrupole_moment_norm": 12.9018509083, 
			 "total_energy": -551.939980856, 
			 "HOMO_LUMO_gap": 0.19986, 
			 "cosmo_polarized_energy": -16.04, 
			 "cosmo_cavitation_energy": 28.09, 
			 "cosmo_dispersion_energy": -20.14, 
			 "cosmo_repulsion_energy": 1.59, 
			 "cosmo_total_nonelectrostatic_energy": 9.53, 
			 "SMD_solvation_energy": 3.74 
		},
		"coords": [
			{
				"x": 0.1056162453,
				"y": 4.0394719378,
				"z": 1.8284236725,
				"element": "N" 
			},
			{
				"x": -0.3267264722,
				"y": 2.9770601701,
				"z": 1.0385358549,
				"element": "C" 
			},
			{
				"x": -0.1062474268,
				"y": 2.9795309149,
				"z": -0.3525341408,
				"element": "C" 
			},
			{
				"x": -0.4884793904,
				"y": 1.8953368263,
				"z": -1.1317523333,
				"element": "C" 
			},
			{
				"x": -1.0997369826,
				"y": 0.7690584801,
				"z": -0.5613967061,
				"element": "C" 
			},
			{
				"x": -1.5379959942,
				"y": -0.3991037215,
				"z": -1.4163108742,
				"element": "C" 
			},
			{
				"x": -0.4362301368,
				"y": -1.0439005422,
				"z": -2.1386988601,
				"element": "N" 
			},
			{
				"x": -0.4783241224,
				"y": -1.5235432155,
				"z": -3.4342626401,
				"element": "C" 
			},
			{
				"x": 0.7378485879,
				"y": -2.1239100968,
				"z": -3.647661208,
				"element": "C" 
			},
			{
				"x": 1.5268969842,
				"y": -2.0334885796,
				"z": -2.52349639,
				"element": "N" 
			},
			{
				"x": 0.7921516046,
				"y": -1.3869261881,
				"z": -1.6413012411,
				"element": "C" 
			},
			{
				"x": -1.3135126845,
				"y": 0.7689634228,
				"z": 0.8204740013,
				"element": "C" 
			},
			{
				"x": -0.9395173467,
				"y": 1.8516845706,
				"z": 1.6133730009,
				"element": "C" 
			},
			{
				"x": 0.2187406163,
				"y": 4.9224170912,
				"z": 1.3507338289,
				"element": "H" 
			},
			{
				"x": -0.3604461487,
				"y": 4.1413553442,
				"z": 2.7189105873,
				"element": "H" 
			},
			{
				"x": 0.3717578286,
				"y": 3.8388431922,
				"z": -0.8164352791,
				"element": "H" 
			},
			{
				"x": -0.3029034086,
				"y": 1.9199554588,
				"z": -2.2026225288,
				"element": "H" 
			},
			{
				"x": -2.255371048,
				"y": -0.0740213018,
				"z": -2.1777392815,
				"element": "H" 
			},
			{
				"x": -2.0500217637,
				"y": -1.1418156027,
				"z": -0.7927675122,
				"element": "H" 
			},
			{
				"x": -1.3488062817,
				"y": -1.3918045313,
				"z": -4.0593467985,
				"element": "H" 
			},
			{
				"x": 1.0907742932,
				"y": -2.6079966265,
				"z": -4.5481979183,
				"element": "H" 
			},
			{
				"x": 1.0934146372,
				"y": -1.1226765181,
				"z": -0.6373520506,
				"element": "H" 
			},
			{
				"x": -1.7849970355,
				"y": -0.0912691887,
				"z": 1.2901496943,
				"element": "H" 
			},
			{
				"x": -1.1132845545,
				"y": 1.8239787039,
				"z": 2.6861751224,
				"element": "H" 
			}
		],
		 "valence_orbital": [ 
			{
				"type": "occ",
				"energy": -0.25792,
				"method": "rhf"
			},
			{
				"type": "occ",
				"energy": -0.25386,
				"method": "rhf"
			},
			{
				"type": "occ",
				"energy": -0.24983,
				"method": "rhf"
			},
			{
				"type": "occ",
				"energy": -0.21505,
				"method": "rhf"
			},
			{
				"type": "occ",
				"energy": -0.20673,
				"method": "rhf"
			},
			{
				"type": "unocc",
				"energy": -0.00687,
				"method": "rhf"
			},
			{
				"type": "unocc",
				"energy": 0.00413,
				"method": "rhf"
			},
			{
				"type": "unocc",
				"energy": 0.03778,
				"method": "rhf"
			},
			{
				"type": "unocc",
				"energy": 0.07398,
				"method": "rhf"
			},
			{
				"type": "unocc",
				"energy": 0.08024,
				"method": "rhf"
			}
		],
		"cosmo_sigma_profile": { 
			"-0.025": 0.0,
			"-0.024": 0.0,
			"-0.023": 0.0,
			"-0.022": 0.0,
			"-0.021": 0.0,
			"-0.02": 0.0,
			"-0.019": 0.0,
			"-0.018": 0.0,
			"-0.017": 0.0,
			"-0.016": 0.0,
			"-0.015": 0.0,
			"-0.014": 0.0,
			"-0.013": 0.43023863178,
			"-0.012": 2.28347039846,
			"-0.011": 3.08633584223,
			"-0.01": 2.81713925749,
			"-0.009": 3.15060753521,
			"-0.008": 5.73072289695,
			"-0.007": 7.95291743305,
			"-0.006": 14.7133043704,
			"-0.005": 17.7287557993,
			"-0.004": 16.9249888177,
			"-0.003": 17.4581899305,
			"-0.002": 12.4901988399,
			"-0.001": 10.5727149781,
			"0.0": 10.7711225621,
			"0.001": 10.1650762909,
			"0.002": 10.843523655,
			"0.003": 10.8942006254,
			"0.004": 11.795294349,
			"0.005": 11.9353243831,
			"0.006": 15.0155356059,
			"0.007": 7.03872912777,
			"0.008": 1.82957614116,
			"0.009": 2.37583362855,
			"0.01": 3.13729322269,
			"0.011": 1.741904353,
			"0.012": 2.06320193265,
			"0.013": 2.07656549515,
			"0.014": 1.27966877456,
			"0.015": 1.39275452371,
			"0.016": 1.32730106843,
			"0.017": 1.17476445615,
			"0.018": 1.01589153539,
			"0.019": 0.317007137355,
			"0.02": 0.0,
			"0.021": 0.0,
			"0.022": 0.0,
			"0.023": 0.0,
			"0.024": 0.0,
			"0.025": 0.0
		}
	}
}
