{
	 "smiles": "CCCC(C)S", 
	 "Tm": 104.15, 
	 "num_atms": 18, 
	 "gaussian": { 
		 "optdone": 1, 
		 "sigma_profile": "yes", 
		 "theory": "DFT", 
		 "functional": "B3LYP", 
		 "basiset": "6-31G**", 
		 "properties": { 
			 "R2extent": 1223.3789, 
			 "electric_dipole_moment_norm": 1.84297104155, 
			 "electric_quadrupole_moment_norm": 6.33981789328, 
			 "total_energy": -595.966983655, 
			 "HOMO_LUMO_gap": 0.26339, 
			 "cosmo_polarized_energy": -4.08, 
			 "cosmo_cavitation_energy": 21.21, 
			 "cosmo_dispersion_energy": -15.94, 
			 "cosmo_repulsion_energy": 1.33, 
			 "cosmo_total_nonelectrostatic_energy": 6.6, 
			 "SMD_solvation_energy": 3.05 
		},
		"coords": [
			{
				"x": -2.6939772507,
				"y": 0.2492935024,
				"z": 0.7086862757,
				"element": "C" 
			},
			{
				"x": -1.1654593155,
				"y": 0.1598387017,
				"z": 0.7747656981,
				"element": "C" 
			},
			{
				"x": -0.4854765761,
				"y": 0.7303314407,
				"z": -0.4751940191,
				"element": "C" 
			},
			{
				"x": 1.040897432,
				"y": 0.5739284449,
				"z": -0.5339461386,
				"element": "C" 
			},
			{
				"x": 1.6069573841,
				"y": 1.0399596326,
				"z": -1.8792385,
				"element": "C" 
			},
			{
				"x": 1.9383297893,
				"y": 1.540345843,
				"z": 0.7793589701,
				"element": "S" 
			},
			{
				"x": -3.0245428343,
				"y": 1.288933177,
				"z": 0.6055608226,
				"element": "H" 
			},
			{
				"x": -3.1563007497,
				"y": -0.1579981419,
				"z": 1.6135371889,
				"element": "H" 
			},
			{
				"x": -3.0888648002,
				"y": -0.3093736407,
				"z": -0.1475047028,
				"element": "H" 
			},
			{
				"x": -0.8652332592,
				"y": -0.8893428251,
				"z": 0.9054118913,
				"element": "H" 
			},
			{
				"x": -0.8129535742,
				"y": 0.6972448532,
				"z": 1.6634025112,
				"element": "H" 
			},
			{
				"x": -0.738935616,
				"y": 1.7929860054,
				"z": -0.5829767274,
				"element": "H" 
			},
			{
				"x": -0.8959501624,
				"y": 0.2199858928,
				"z": -1.3597357821,
				"element": "H" 
			},
			{
				"x": 1.3051787694,
				"y": -0.4788107215,
				"z": -0.3829594587,
				"element": "H" 
			},
			{
				"x": 2.6884209244,
				"y": 0.8880554554,
				"z": -1.9335408772,
				"element": "H" 
			},
			{
				"x": 1.1406967165,
				"y": 0.4772475239,
				"z": -2.695030949,
				"element": "H" 
			},
			{
				"x": 1.4014096569,
				"y": 2.1030741736,
				"z": -2.0448820955,
				"element": "H" 
			},
			{
				"x": 1.4755034657,
				"y": 0.8643006825,
				"z": 1.8488858926,
				"element": "H" 
			}
		],
		 "valence_orbital": [ 
			{
				"type": "occ",
				"energy": -0.33786,
				"method": "rhf"
			},
			{
				"type": "occ",
				"energy": -0.33297,
				"method": "rhf"
			},
			{
				"type": "occ",
				"energy": -0.32495,
				"method": "rhf"
			},
			{
				"type": "occ",
				"energy": -0.31102,
				"method": "rhf"
			},
			{
				"type": "occ",
				"energy": -0.23279,
				"method": "rhf"
			},
			{
				"type": "unocc",
				"energy": 0.0306,
				"method": "rhf"
			},
			{
				"type": "unocc",
				"energy": 0.06641,
				"method": "rhf"
			},
			{
				"type": "unocc",
				"energy": 0.09599,
				"method": "rhf"
			},
			{
				"type": "unocc",
				"energy": 0.10895,
				"method": "rhf"
			},
			{
				"type": "unocc",
				"energy": 0.12117,
				"method": "rhf"
			}
		],
		"cosmo_sigma_profile": { 
			"-0.025": 0.0,
			"-0.024": 0.0,
			"-0.023": 0.0,
			"-0.022": 0.0,
			"-0.021": 0.0,
			"-0.02": 0.0,
			"-0.019": 0.0,
			"-0.018": 0.0,
			"-0.017": 0.0,
			"-0.016": 0.0,
			"-0.015": 0.0,
			"-0.014": 0.0,
			"-0.013": 0.0,
			"-0.012": 0.0,
			"-0.011": 0.0,
			"-0.01": 0.0,
			"-0.009": 0.1207562608,
			"-0.008": 1.18061117532,
			"-0.007": 1.9846282476,
			"-0.006": 1.78150748705,
			"-0.005": 2.88391346358,
			"-0.004": 7.80883744119,
			"-0.003": 18.1773337587,
			"-0.002": 25.9103294378,
			"-0.001": 25.1781156137,
			"0.0": 25.6430741652,
			"0.001": 20.9858320569,
			"0.002": 8.34732441573,
			"0.003": 2.81317023202,
			"0.004": 3.56737230143,
			"0.005": 3.04742256629,
			"0.006": 3.91693853144,
			"0.007": 2.98654203979,
			"0.008": 2.7919184291,
			"0.009": 2.42307009864,
			"0.01": 1.97622361671,
			"0.011": 2.05473284196,
			"0.012": 0.382818230044,
			"0.013": 0.0,
			"0.014": 0.0,
			"0.015": 0.0,
			"0.016": 0.0,
			"0.017": 0.0,
			"0.018": 0.0,
			"0.019": 0.0,
			"0.02": 0.0,
			"0.021": 0.0,
			"0.022": 0.0,
			"0.023": 0.0,
			"0.024": 0.0,
			"0.025": 0.0
		}
	}
}
