{
	 "smiles": "COC1=CC=C(NC2=C(N)C=CC=N2)C=C1", 
	 "Tm": 438.15, 
	 "num_atms": 29, 
	 "gaussian": { 
		 "optdone": 1, 
		 "sigma_profile": "yes", 
		 "theory": "DFT", 
		 "functional": "B3LYP", 
		 "basiset": "6-31G**", 
		 "properties": { 
			 "R2extent": 5355.6334, 
			 "electric_dipole_moment_norm": 2.65401429536, 
			 "electric_quadrupole_moment_norm": 22.8062917266, 
			 "total_energy": -704.582640122, 
			 "HOMO_LUMO_gap": 0.16533, 
			 "cosmo_polarized_energy": -14.58, 
			 "cosmo_cavitation_energy": 32.64, 
			 "cosmo_dispersion_energy": -24.33, 
			 "cosmo_repulsion_energy": 1.88, 
			 "cosmo_total_nonelectrostatic_energy": 10.19, 
			 "SMD_solvation_energy": 5.56 
		},
		"coords": [
			{
				"x": 0.0354419391,
				"y": -5.44099268,
				"z": 0.2083638355,
				"element": "C" 
			},
			{
				"x": 1.1568262891,
				"y": -4.5781626622,
				"z": 0.2616757078,
				"element": "O" 
			},
			{
				"x": 0.9246032303,
				"y": -3.2332585425,
				"z": 0.3861743722,
				"element": "C" 
			},
			{
				"x": 2.0636100194,
				"y": -2.4177063837,
				"z": 0.4392308216,
				"element": "C" 
			},
			{
				"x": 1.9335420458,
				"y": -1.0435359738,
				"z": 0.5662486627,
				"element": "C" 
			},
			{
				"x": 0.665966944,
				"y": -0.4335364514,
				"z": 0.6446129405,
				"element": "C" 
			},
			{
				"x": 0.6362232333,
				"y": 0.9705641585,
				"z": 0.7300952775,
				"element": "N" 
			},
			{
				"x": -0.3954735235,
				"y": 1.8346547374,
				"z": 1.0548104641,
				"element": "C" 
			},
			{
				"x": -0.0834438564,
				"y": 3.2291650764,
				"z": 1.0498310399,
				"element": "C" 
			},
			{
				"x": 1.2333866249,
				"y": 3.6215250557,
				"z": 0.7025816441,
				"element": "N" 
			},
			{
				"x": -1.0787138149,
				"y": 4.1130162178,
				"z": 1.4347666101,
				"element": "C" 
			},
			{
				"x": -2.3470034448,
				"y": 3.6254158816,
				"z": 1.7831653565,
				"element": "C" 
			},
			{
				"x": -2.5621125063,
				"y": 2.2584137876,
				"z": 1.6991016614,
				"element": "C" 
			},
			{
				"x": -1.6123454582,
				"y": 1.3754997756,
				"z": 1.3475607382,
				"element": "N" 
			},
			{
				"x": -0.4692654262,
				"y": -1.2523943966,
				"z": 0.5913060958,
				"element": "C" 
			},
			{
				"x": -0.3372554221,
				"y": -2.6390313319,
				"z": 0.4635139825,
				"element": "C" 
			},
			{
				"x": -0.5701761051,
				"y": -5.3796835993,
				"z": 1.1226281138,
				"element": "H" 
			},
			{
				"x": -0.6060063806,
				"y": -5.2234397205,
				"z": -0.6563562052,
				"element": "H" 
			},
			{
				"x": 0.434266817,
				"y": -6.4524424837,
				"z": 0.1114240047,
				"element": "H" 
			},
			{
				"x": 3.0422447979,
				"y": -2.8829439659,
				"z": 0.3811374862,
				"element": "H" 
			},
			{
				"x": 2.8291699962,
				"y": -0.4267757034,
				"z": 0.60588322,
				"element": "H" 
			},
			{
				"x": 1.5450612474,
				"y": 1.4071809468,
				"z": 0.8176574929,
				"element": "H" 
			},
			{
				"x": 1.3738396386,
				"y": 4.6210954955,
				"z": 0.7998159339,
				"element": "H" 
			},
			{
				"x": 1.4752665855,
				"y": 3.3486669062,
				"z": -0.2476126048,
				"element": "H" 
			},
			{
				"x": -0.8716412249,
				"y": 5.1809180591,
				"z": 1.4499024094,
				"element": "H" 
			},
			{
				"x": -3.142070746,
				"y": 4.2978533382,
				"z": 2.0867689112,
				"element": "H" 
			},
			{
				"x": -3.5365784486,
				"y": 1.8339692655,
				"z": 1.9322393954,
				"element": "H" 
			},
			{
				"x": -1.4487790844,
				"y": -0.8030562957,
				"z": 0.6674121821,
				"element": "H" 
			},
			{
				"x": -1.2381839665,
				"y": -3.2406785113,
				"z": 0.4289604498,
				"element": "H" 
			}
		],
		 "valence_orbital": [ 
			{
				"type": "occ",
				"energy": -0.25725,
				"method": "rhf"
			},
			{
				"type": "occ",
				"energy": -0.24813,
				"method": "rhf"
			},
			{
				"type": "occ",
				"energy": -0.23985,
				"method": "rhf"
			},
			{
				"type": "occ",
				"energy": -0.22091,
				"method": "rhf"
			},
			{
				"type": "occ",
				"energy": -0.17418,
				"method": "rhf"
			},
			{
				"type": "unocc",
				"energy": -0.00885,
				"method": "rhf"
			},
			{
				"type": "unocc",
				"energy": 0.00443,
				"method": "rhf"
			},
			{
				"type": "unocc",
				"energy": 0.01154,
				"method": "rhf"
			},
			{
				"type": "unocc",
				"energy": 0.04821,
				"method": "rhf"
			},
			{
				"type": "unocc",
				"energy": 0.06944,
				"method": "rhf"
			}
		],
		"cosmo_sigma_profile": { 
			"-0.025": 0.0,
			"-0.024": 0.0,
			"-0.023": 0.0,
			"-0.022": 0.0,
			"-0.021": 0.0,
			"-0.02": 0.0,
			"-0.019": 0.0,
			"-0.018": 0.0,
			"-0.017": 0.0,
			"-0.016": 0.0,
			"-0.015": 0.0,
			"-0.014": 0.0,
			"-0.013": 0.319149859809,
			"-0.012": 2.7417727014,
			"-0.011": 4.20346013007,
			"-0.01": 3.91844313681,
			"-0.009": 5.09205141938,
			"-0.008": 4.02658756437,
			"-0.007": 4.5499687264,
			"-0.006": 10.1492230805,
			"-0.005": 21.203331142,
			"-0.004": 19.4682018125,
			"-0.003": 20.4968924878,
			"-0.002": 15.8977210911,
			"-0.001": 11.2100089861,
			"0.0": 10.185306768,
			"0.001": 13.8745105026,
			"0.002": 14.389656289,
			"0.003": 15.5044051341,
			"0.004": 22.30572011,
			"0.005": 21.5463521316,
			"0.006": 17.9224079021,
			"0.007": 6.36830806685,
			"0.008": 4.26104555302,
			"0.009": 3.61389726599,
			"0.01": 3.3361043482,
			"0.011": 2.12793059204,
			"0.012": 0.738070801068,
			"0.013": 0.549383025175,
			"0.014": 0.0585009470208,
			"0.015": 0.0,
			"0.016": 0.0,
			"0.017": 0.0,
			"0.018": 0.0,
			"0.019": 0.0,
			"0.02": 0.0,
			"0.021": 0.0,
			"0.022": 0.0,
			"0.023": 0.0,
			"0.024": 0.0,
			"0.025": 0.0
		}
	}
}
