{
	 "smiles": "OC1=C(C=O)C=C(C=C1Br)[N+]([O-])=O", 
	 "Tm": 422.15, 
	 "num_atms": 17, 
	 "gaussian": { 
		 "optdone": 1, 
		 "sigma_profile": "yes", 
		 "theory": "DFT", 
		 "functional": "B3LYP", 
		 "basiset": "6-31G**", 
		 "properties": { 
			 "R2extent": 3981.0667, 
			 "electric_dipole_moment_norm": 5.50656036197, 
			 "electric_quadrupole_moment_norm": 8.31127509531, 
			 "total_energy": -3196.09071581, 
			 "HOMO_LUMO_gap": 0.1733, 
			 "cosmo_polarized_energy": -13.04, 
			 "cosmo_cavitation_energy": 25.44, 
			 "cosmo_dispersion_energy": -19.06, 
			 "cosmo_repulsion_energy": 1.49, 
			 "cosmo_total_nonelectrostatic_energy": 7.87, 
			 "SMD_solvation_energy": 7.07 
		},
		"coords": [
			{
				"x": 1.899241406,
				"y": -1.5040901233,
				"z": -0.9274651175,
				"element": "O" 
			},
			{
				"x": 0.8473723273,
				"y": -0.6849771698,
				"z": -0.7624413291,
				"element": "C" 
			},
			{
				"x": 0.0275177382,
				"y": -0.8595643236,
				"z": 0.3744006092,
				"element": "C" 
			},
			{
				"x": 0.315901289,
				"y": -1.9256463049,
				"z": 1.372674671,
				"element": "C" 
			},
			{
				"x": -0.3696041078,
				"y": -2.1023207728,
				"z": 2.3611668969,
				"element": "O" 
			},
			{
				"x": -1.0733772227,
				"y": -0.023164537,
				"z": 0.5731050467,
				"element": "C" 
			},
			{
				"x": -1.3532089672,
				"y": 0.9741187147,
				"z": -0.3494673308,
				"element": "C" 
			},
			{
				"x": -0.5601059018,
				"y": 1.1702723881,
				"z": -1.4830958779,
				"element": "C" 
			},
			{
				"x": 0.5297711672,
				"y": 0.3403326128,
				"z": -1.6773963156,
				"element": "C" 
			},
			{
				"x": 1.6510121657,
				"y": 0.5611279711,
				"z": -3.2100946721,
				"element": "Br" 
			},
			{
				"x": -2.5101542666,
				"y": 1.8543884683,
				"z": -0.1421596343,
				"element": "N" 
			},
			{
				"x": -2.7186615365,
				"y": 2.7248802312,
				"z": -0.9875785238,
				"element": "O" 
			},
			{
				"x": -3.1941183139,
				"y": 1.6647497092,
				"z": 0.860939999,
				"element": "O" 
			},
			{
				"x": 2.3651990352,
				"y": -1.2646433536,
				"z": -1.7474869864,
				"element": "H" 
			},
			{
				"x": 1.1990307341,
				"y": -2.5549668975,
				"z": 1.1618735484,
				"element": "H" 
			},
			{
				"x": -1.6952700952,
				"y": -0.1661533474,
				"z": 1.4486414366,
				"element": "H" 
			},
			{
				"x": -0.8077454512,
				"y": 1.9582567344,
				"z": -2.1823164202,
				"element": "H" 
			}
		],
		 "valence_orbital": [ 
			{
				"type": "occ",
				"energy": -0.31809,
				"method": "rhf"
			},
			{
				"type": "occ",
				"energy": -0.30179,
				"method": "rhf"
			},
			{
				"type": "occ",
				"energy": -0.29086,
				"method": "rhf"
			},
			{
				"type": "occ",
				"energy": -0.27378,
				"method": "rhf"
			},
			{
				"type": "occ",
				"energy": -0.2732,
				"method": "rhf"
			},
			{
				"type": "unocc",
				"energy": -0.0999,
				"method": "rhf"
			},
			{
				"type": "unocc",
				"energy": -0.08892,
				"method": "rhf"
			},
			{
				"type": "unocc",
				"energy": -0.03569,
				"method": "rhf"
			},
			{
				"type": "unocc",
				"energy": -0.02341,
				"method": "rhf"
			},
			{
				"type": "unocc",
				"energy": 0.01868,
				"method": "rhf"
			}
		],
		"cosmo_sigma_profile": { 
			"-0.025": 0.0,
			"-0.024": 0.0,
			"-0.023": 0.0,
			"-0.022": 0.0,
			"-0.021": 0.0,
			"-0.02": 0.0,
			"-0.019": 0.0,
			"-0.018": 0.0,
			"-0.017": 0.0,
			"-0.016": 0.686271656453,
			"-0.015": 0.545375715317,
			"-0.014": 0.804706605237,
			"-0.013": 0.724385112523,
			"-0.012": 0.846037599522,
			"-0.011": 1.0724115176,
			"-0.01": 1.06564504132,
			"-0.009": 1.68586078567,
			"-0.008": 3.28969055842,
			"-0.007": 5.54427312722,
			"-0.006": 8.3324015669,
			"-0.005": 12.1434489198,
			"-0.004": 14.962346835,
			"-0.003": 22.0030137118,
			"-0.002": 23.2181150784,
			"-0.001": 17.1969503885,
			"0.0": 11.0477572682,
			"0.001": 10.3180883117,
			"0.002": 11.6217808319,
			"0.003": 8.57563983563,
			"0.004": 5.1305409013,
			"0.005": 6.31885826531,
			"0.006": 7.15422174195,
			"0.007": 10.5579493136,
			"0.008": 8.06088648889,
			"0.009": 5.99753169618,
			"0.01": 5.6121099357,
			"0.011": 2.95937130284,
			"0.012": 1.13015402447,
			"0.013": 0.0701567747764,
			"0.014": 0.0,
			"0.015": 0.0,
			"0.016": 0.0,
			"0.017": 0.0,
			"0.018": 0.0,
			"0.019": 0.0,
			"0.02": 0.0,
			"0.021": 0.0,
			"0.022": 0.0,
			"0.023": 0.0,
			"0.024": 0.0,
			"0.025": 0.0
		}
	}
}
