{
	 "smiles": "CC(=O)O[C@@H]1[C@H]2CO[C@H](O2)[C@H](OC(C)=O)[C@H]1OC(C)=O", 
	 "Tm": 383.15, 
	 "num_atms": 36, 
	 "gaussian": { 
		 "optdone": 1, 
		 "sigma_profile": "yes", 
		 "theory": "DFT", 
		 "functional": "B3LYP", 
		 "basiset": "6-31G**", 
		 "properties": { 
			 "R2extent": 6199.9572, 
			 "electric_dipole_moment_norm": 2.49644446764, 
			 "electric_quadrupole_moment_norm": 14.1874314071, 
			 "total_energy": -1068.72252351, 
			 "HOMO_LUMO_gap": 0.26034, 
			 "cosmo_polarized_energy": -18.65, 
			 "cosmo_cavitation_energy": 40.25, 
			 "cosmo_dispersion_energy": -26.63, 
			 "cosmo_repulsion_energy": 2.12, 
			 "cosmo_total_nonelectrostatic_energy": 15.73, 
			 "SMD_solvation_energy": 9.89 
		},
		"coords": [
			{
				"x": -2.7127642027,
				"y": -2.6049845741,
				"z": -1.9236937773,
				"element": "C" 
			},
			{
				"x": -1.4666510938,
				"y": -1.8000085999,
				"z": -2.1932054111,
				"element": "C" 
			},
			{
				"x": -0.8025006541,
				"y": -1.8342096576,
				"z": -3.2073619418,
				"element": "O" 
			},
			{
				"x": -1.1621346847,
				"y": -1.0079582328,
				"z": -1.1341840793,
				"element": "O" 
			},
			{
				"x": -0.0217604056,
				"y": -0.1423183346,
				"z": -1.3104990439,
				"element": "C" 
			},
			{
				"x": 1.3190850254,
				"y": -0.9224812481,
				"z": -1.2109719723,
				"element": "C" 
			},
			{
				"x": 2.3414590605,
				"y": -0.4118805548,
				"z": -2.2233493435,
				"element": "C" 
			},
			{
				"x": 2.7865554839,
				"y": 0.803293493,
				"z": -1.6032324351,
				"element": "O" 
			},
			{
				"x": 2.3902704168,
				"y": 0.7464612921,
				"z": -0.234097783,
				"element": "C" 
			},
			{
				"x": 1.9904870128,
				"y": -0.5872325405,
				"z": 0.017099346,
				"element": "O" 
			},
			{
				"x": 1.1851705966,
				"y": 1.6933596982,
				"z": -0.0262749758,
				"element": "C" 
			},
			{
				"x": 1.152918748,
				"y": 2.2046506477,
				"z": 1.3203596692,
				"element": "O" 
			},
			{
				"x": 1.8935179282,
				"y": 3.3189239049,
				"z": 1.5688308453,
				"element": "C" 
			},
			{
				"x": 1.7327022649,
				"y": 3.7498144315,
				"z": 3.0057271326,
				"element": "C" 
			},
			{
				"x": 2.5783599323,
				"y": 3.8664979892,
				"z": 0.7346406282,
				"element": "O" 
			},
			{
				"x": -0.1177837391,
				"y": 0.9072546108,
				"z": -0.2004597021,
				"element": "C" 
			},
			{
				"x": -1.1794502776,
				"y": 1.8225176747,
				"z": -0.5226488281,
				"element": "O" 
			},
			{
				"x": -2.2416092661,
				"y": 1.8913256795,
				"z": 0.3308215136,
				"element": "C" 
			},
			{
				"x": -3.2441144099,
				"y": 2.8999132264,
				"z": -0.1751815961,
				"element": "C" 
			},
			{
				"x": -2.3491761093,
				"y": 1.2370875901,
				"z": 1.3406471106,
				"element": "O" 
			},
			{
				"x": -3.5644033315,
				"y": -1.9342384172,
				"z": -1.7757531006,
				"element": "H" 
			},
			{
				"x": -2.9047580652,
				"y": -3.2694395574,
				"z": -2.7653226119,
				"element": "H" 
			},
			{
				"x": -2.5943012237,
				"y": -3.1844317093,
				"z": -1.0037384642,
				"element": "H" 
			},
			{
				"x": -0.1086642141,
				"y": 0.3343618794,
				"z": -2.2903539454,
				"element": "H" 
			},
			{
				"x": 1.1560990357,
				"y": -1.9992009098,
				"z": -1.2278684211,
				"element": "H" 
			},
			{
				"x": 1.9187220452,
				"y": -0.1877291364,
				"z": -3.205258795,
				"element": "H" 
			},
			{
				"x": 3.1754033195,
				"y": -1.1155379589,
				"z": -2.3334116305,
				"element": "H" 
			},
			{
				"x": 3.2266016368,
				"y": 1.0011632519,
				"z": 0.4215329413,
				"element": "H" 
			},
			{
				"x": 1.2619684593,
				"y": 2.5249725035,
				"z": -0.7289171007,
				"element": "H" 
			},
			{
				"x": 2.3212208377,
				"y": 4.6494294696,
				"z": 3.1821328466,
				"element": "H" 
			},
			{
				"x": 2.0630953623,
				"y": 2.9493963195,
				"z": 3.6743612312,
				"element": "H" 
			},
			{
				"x": 0.6780329365,
				"y": 3.9394822501,
				"z": 3.2249693596,
				"element": "H" 
			},
			{
				"x": -0.3539001265,
				"y": 0.4081781851,
				"z": 0.7406840824,
				"element": "H" 
			},
			{
				"x": -2.7748026569,
				"y": 3.8845272788,
				"z": -0.259130815,
				"element": "H" 
			},
			{
				"x": -4.0890052977,
				"y": 2.946584599,
				"z": 0.5109374365,
				"element": "H" 
			},
			{
				"x": -3.5878903438,
				"y": 2.6180554561,
				"z": -1.1747283692,
				"element": "H" 
			}
		],
		 "valence_orbital": [ 
			{
				"type": "occ",
				"energy": -0.28611,
				"method": "rhf"
			},
			{
				"type": "occ",
				"energy": -0.28278,
				"method": "rhf"
			},
			{
				"type": "occ",
				"energy": -0.27801,
				"method": "rhf"
			},
			{
				"type": "occ",
				"energy": -0.27626,
				"method": "rhf"
			},
			{
				"type": "occ",
				"energy": -0.26277,
				"method": "rhf"
			},
			{
				"type": "unocc",
				"energy": -0.00243,
				"method": "rhf"
			},
			{
				"type": "unocc",
				"energy": 0.00531,
				"method": "rhf"
			},
			{
				"type": "unocc",
				"energy": 0.00648,
				"method": "rhf"
			},
			{
				"type": "unocc",
				"energy": 0.06669,
				"method": "rhf"
			},
			{
				"type": "unocc",
				"energy": 0.07672,
				"method": "rhf"
			}
		],
		"cosmo_sigma_profile": { 
			"-0.025": 0.0,
			"-0.024": 0.0,
			"-0.023": 0.0,
			"-0.022": 0.0,
			"-0.021": 0.0,
			"-0.02": 0.0,
			"-0.019": 0.0,
			"-0.018": 0.0,
			"-0.017": 0.0,
			"-0.016": 0.0,
			"-0.015": 0.0,
			"-0.014": 0.0,
			"-0.013": 0.0,
			"-0.012": 0.0,
			"-0.011": 0.0,
			"-0.01": 0.0,
			"-0.009": 0.350696517421,
			"-0.008": 4.32725766819,
			"-0.007": 13.4862071729,
			"-0.006": 28.6034453181,
			"-0.005": 27.2382912032,
			"-0.004": 30.0603705503,
			"-0.003": 30.2550522947,
			"-0.002": 32.0728600486,
			"-0.001": 20.2688637249,
			"0.0": 12.8733949801,
			"0.001": 12.2174759261,
			"0.002": 11.7071587406,
			"0.003": 11.0049525586,
			"0.004": 9.17436389921,
			"0.005": 10.9579677218,
			"0.006": 8.44168526471,
			"0.007": 7.87313466189,
			"0.008": 7.12807099317,
			"0.009": 6.63012609292,
			"0.01": 9.46831737576,
			"0.011": 13.5967677296,
			"0.012": 7.98539555907,
			"0.013": 1.024309775,
			"0.014": 0.0,
			"0.015": 0.0,
			"0.016": 0.0,
			"0.017": 0.0,
			"0.018": 0.0,
			"0.019": 0.0,
			"0.02": 0.0,
			"0.021": 0.0,
			"0.022": 0.0,
			"0.023": 0.0,
			"0.024": 0.0,
			"0.025": 0.0
		}
	}
}
