{
	 "smiles": "CCOC1=CC=C(Cl)C=C1", 
	 "Tm": 294.15, 
	 "num_atms": 19, 
	 "gaussian": { 
		 "optdone": 1, 
		 "sigma_profile": "yes", 
		 "theory": "DFT", 
		 "functional": "B3LYP", 
		 "basiset": "6-31G**", 
		 "properties": { 
			 "R2extent": 3055.4447, 
			 "electric_dipole_moment_norm": 3.08178253775, 
			 "electric_quadrupole_moment_norm": 2.77955171206, 
			 "total_energy": -845.68885643, 
			 "HOMO_LUMO_gap": 0.20729, 
			 "cosmo_polarized_energy": -5.58, 
			 "cosmo_cavitation_energy": 24.42, 
			 "cosmo_dispersion_energy": -18.35, 
			 "cosmo_repulsion_energy": 1.51, 
			 "cosmo_total_nonelectrostatic_energy": 7.57, 
			 "SMD_solvation_energy": 4.31 
		},
		"coords": [
			{
				"x": -3.3908222655,
				"y": -1.6604907948,
				"z": 2.4569547122,
				"element": "C" 
			},
			{
				"x": -2.215273933,
				"y": -1.0396860456,
				"z": 1.7230329334,
				"element": "C" 
			},
			{
				"x": -2.0688067613,
				"y": -1.7311290547,
				"z": 0.4826916311,
				"element": "O" 
			},
			{
				"x": -1.0707304116,
				"y": -1.3547189196,
				"z": -0.3652879727,
				"element": "C" 
			},
			{
				"x": -0.1569226546,
				"y": -0.3234097858,
				"z": -0.1148447303,
				"element": "C" 
			},
			{
				"x": 0.8296801602,
				"y": -0.0214972331,
				"z": -1.0581623686,
				"element": "C" 
			},
			{
				"x": 0.9019076355,
				"y": -0.7455436564,
				"z": -2.2431264462,
				"element": "C" 
			},
			{
				"x": 2.14585981,
				"y": -0.3620052807,
				"z": -3.4282907809,
				"element": "Cl" 
			},
			{
				"x": -0.005169525,
				"y": -1.7764864319,
				"z": -2.502526417,
				"element": "C" 
			},
			{
				"x": -0.9857783533,
				"y": -2.0771244534,
				"z": -1.5657701973,
				"element": "C" 
			},
			{
				"x": -4.307018614,
				"y": -1.5637068438,
				"z": 1.8680855061,
				"element": "H" 
			},
			{
				"x": -3.2107305537,
				"y": -2.7226798189,
				"z": 2.6437013302,
				"element": "H" 
			},
			{
				"x": -3.5407315396,
				"y": -1.1591110094,
				"z": 3.4180443531,
				"element": "H" 
			},
			{
				"x": -2.3895007358,
				"y": 0.0296056661,
				"z": 1.5360812765,
				"element": "H" 
			},
			{
				"x": -1.2918505166,
				"y": -1.1308574904,
				"z": 2.3126668668,
				"element": "H" 
			},
			{
				"x": -0.1983494935,
				"y": 0.2508659882,
				"z": 0.8025566799,
				"element": "H" 
			},
			{
				"x": 1.5381470836,
				"y": 0.7769028319,
				"z": -0.8657137862,
				"element": "H" 
			},
			{
				"x": 0.058417611,
				"y": -2.3360893666,
				"z": -3.4293677529,
				"element": "H" 
			},
			{
				"x": -1.7015269429,
				"y": -2.8727383011,
				"z": -1.7438248373,
				"element": "H" 
			}
		],
		 "valence_orbital": [ 
			{
				"type": "occ",
				"energy": -0.33241,
				"method": "rhf"
			},
			{
				"type": "occ",
				"energy": -0.30641,
				"method": "rhf"
			},
			{
				"type": "occ",
				"energy": -0.30089,
				"method": "rhf"
			},
			{
				"type": "occ",
				"energy": -0.26109,
				"method": "rhf"
			},
			{
				"type": "occ",
				"energy": -0.21869,
				"method": "rhf"
			},
			{
				"type": "unocc",
				"energy": -0.0114,
				"method": "rhf"
			},
			{
				"type": "unocc",
				"energy": 0.0039,
				"method": "rhf"
			},
			{
				"type": "unocc",
				"energy": 0.03512,
				"method": "rhf"
			},
			{
				"type": "unocc",
				"energy": 0.09311,
				"method": "rhf"
			},
			{
				"type": "unocc",
				"energy": 0.10629,
				"method": "rhf"
			}
		],
		"cosmo_sigma_profile": { 
			"-0.025": 0.0,
			"-0.024": 0.0,
			"-0.023": 0.0,
			"-0.022": 0.0,
			"-0.021": 0.0,
			"-0.02": 0.0,
			"-0.019": 0.0,
			"-0.018": 0.0,
			"-0.017": 0.0,
			"-0.016": 0.0,
			"-0.015": 0.0,
			"-0.014": 0.0,
			"-0.013": 0.0,
			"-0.012": 0.0,
			"-0.011": 0.0,
			"-0.01": 0.0,
			"-0.009": 0.0,
			"-0.008": 0.0813561867706,
			"-0.007": 4.82387396218,
			"-0.006": 8.53871048185,
			"-0.005": 13.299016157,
			"-0.004": 17.089711227,
			"-0.003": 17.103429913,
			"-0.002": 15.4397337294,
			"-0.001": 13.7005871714,
			"0.0": 15.6475350076,
			"0.001": 13.2806840702,
			"0.002": 14.7179437588,
			"0.003": 19.7953924334,
			"0.004": 21.4743565801,
			"0.005": 13.0661105326,
			"0.006": 2.89292157991,
			"0.007": 1.2966084918,
			"0.008": 1.76169402923,
			"0.009": 1.46709843374,
			"0.01": 0.783631016889,
			"0.011": 0.0,
			"0.012": 0.0,
			"0.013": 0.0,
			"0.014": 0.0,
			"0.015": 0.0,
			"0.016": 0.0,
			"0.017": 0.0,
			"0.018": 0.0,
			"0.019": 0.0,
			"0.02": 0.0,
			"0.021": 0.0,
			"0.022": 0.0,
			"0.023": 0.0,
			"0.024": 0.0,
			"0.025": 0.0
		}
	}
}
