{
	 "smiles": "O=C1N(C(=O)N(C(=O)N1C1=CC=CC=C1)C1=CC=CC=C1)C1=CC=CC=C1", 
	 "Tm": 558.15, 
	 "num_atms": 42, 
	 "gaussian": { 
		 "optdone": 1, 
		 "sigma_profile": "yes", 
		 "theory": "DFT", 
		 "functional": "B3LYP", 
		 "basiset": "6-31G**", 
		 "properties": { 
			 "R2extent": 10433.6965, 
			 "electric_dipole_moment_norm": 0.00188148877222, 
			 "electric_quadrupole_moment_norm": 6.40697508501, 
			 "total_energy": -1199.25182695, 
			 "HOMO_LUMO_gap": 0.2288, 
			 "cosmo_polarized_energy": -21.57, 
			 "cosmo_cavitation_energy": 47.89, 
			 "cosmo_dispersion_energy": -32.37, 
			 "cosmo_repulsion_energy": 2.47, 
			 "cosmo_total_nonelectrostatic_energy": 17.99, 
			 "SMD_solvation_energy": 10.49 
		},
		"coords": [
			{
				"x": -0.1934344786,
				"y": 1.3327751031,
				"z": 2.1825955013,
				"element": "O" 
			},
			{
				"x": 0.1055140443,
				"y": 0.6156653992,
				"z": 1.2523539298,
				"element": "C" 
			},
			{
				"x": 1.4134325204,
				"y": 0.152698578,
				"z": 1.0459719052,
				"element": "N" 
			},
			{
				"x": 1.8185956125,
				"y": -0.6774572597,
				"z": -0.0096263328,
				"element": "C" 
			},
			{
				"x": 2.9639100521,
				"y": -1.0507237185,
				"z": -0.143375385,
				"element": "O" 
			},
			{
				"x": 0.7968642808,
				"y": -1.0425899854,
				"z": -0.8985877907,
				"element": "N" 
			},
			{
				"x": -0.5437334229,
				"y": -0.6429026753,
				"z": -0.7955325931,
				"element": "C" 
			},
			{
				"x": -1.3899976659,
				"y": -0.9869828243,
				"z": -1.5920325647,
				"element": "O" 
			},
			{
				"x": -0.8299913775,
				"y": 0.1852448381,
				"z": 0.299850438,
				"element": "N" 
			},
			{
				"x": -2.1986541969,
				"y": 0.6308682625,
				"z": 0.4599246404,
				"element": "C" 
			},
			{
				"x": -2.5211927479,
				"y": 1.9646018158,
				"z": 0.2149599521,
				"element": "C" 
			},
			{
				"x": -3.8391303351,
				"y": 2.391548995,
				"z": 0.374231915,
				"element": "C" 
			},
			{
				"x": -4.8265667758,
				"y": 1.4864276724,
				"z": 0.7677438387,
				"element": "C" 
			},
			{
				"x": -4.4943014717,
				"y": 0.1516370092,
				"z": 1.0066266176,
				"element": "C" 
			},
			{
				"x": -3.1765757841,
				"y": -0.2794840665,
				"z": 0.8571784379,
				"element": "C" 
			},
			{
				"x": 1.1538972582,
				"y": -1.8999909879,
				"z": -2.0098111751,
				"element": "C" 
			},
			{
				"x": 1.4600554781,
				"y": -3.2393325011,
				"z": -1.7747203899,
				"element": "C" 
			},
			{
				"x": 1.8071240518,
				"y": -4.0614919918,
				"z": -2.8462697545,
				"element": "C" 
			},
			{
				"x": 1.8387008895,
				"y": -3.5464297437,
				"z": -4.1435160131,
				"element": "C" 
			},
			{
				"x": 1.5264412322,
				"y": -2.2045351886,
				"z": -4.369230339,
				"element": "C" 
			},
			{
				"x": 1.1866775272,
				"y": -1.3753650221,
				"z": -3.3007437315,
				"element": "C" 
			},
			{
				"x": 2.4248720413,
				"y": 0.5640565126,
				"z": 1.9974134783,
				"element": "C" 
			},
			{
				"x": 3.3972019715,
				"y": 1.4856388905,
				"z": 1.6125671953,
				"element": "C" 
			},
			{
				"x": 4.3722348832,
				"y": 1.8766339182,
				"z": 2.5296564606,
				"element": "C" 
			},
			{
				"x": 4.3668562121,
				"y": 1.3539137061,
				"z": 3.8242059325,
				"element": "C" 
			},
			{
				"x": 3.3862545562,
				"y": 0.4345195884,
				"z": 4.201371734,
				"element": "C" 
			},
			{
				"x": 2.4135338335,
				"y": 0.033326329,
				"z": 3.2862272933,
				"element": "C" 
			},
			{
				"x": -1.745203681,
				"y": 2.6594252812,
				"z": -0.0881810472,
				"element": "H" 
			},
			{
				"x": -4.093010871,
				"y": 3.4308478786,
				"z": 0.18924691,
				"element": "H" 
			},
			{
				"x": -5.8528399373,
				"y": 1.8205666505,
				"z": 0.8879752172,
				"element": "H" 
			},
			{
				"x": -5.2595677173,
				"y": -0.5558570643,
				"z": 1.3109844663,
				"element": "H" 
			},
			{
				"x": -2.9071476237,
				"y": -1.3146605952,
				"z": 1.0378804171,
				"element": "H" 
			},
			{
				"x": 1.4342752954,
				"y": -3.6279689084,
				"z": -0.7622176246,
				"element": "H" 
			},
			{
				"x": 2.0510893838,
				"y": -5.1040316466,
				"z": -2.6662490151,
				"element": "H" 
			},
			{
				"x": 2.106113579,
				"y": -4.1894297615,
				"z": -4.9768115189,
				"element": "H" 
			},
			{
				"x": 1.5480627925,
				"y": -1.8005376326,
				"z": -5.3767678421,
				"element": "H" 
			},
			{
				"x": 0.9399720428,
				"y": -0.3316984936,
				"z": -3.4643199413,
				"element": "H" 
			},
			{
				"x": 3.3927402876,
				"y": 1.8834046419,
				"z": 0.6033067339,
				"element": "H" 
			},
			{
				"x": 5.1342097235,
				"y": 2.5904303438,
				"z": 2.2318252225,
				"element": "H" 
			},
			{
				"x": 5.1252857241,
				"y": 1.6623969522,
				"z": 4.5376233024,
				"element": "H" 
			},
			{
				"x": 3.3774727515,
				"y": 0.0270387221,
				"z": 5.2076981875,
				"element": "H" 
			},
			{
				"x": 1.6453600616,
				"y": -0.6786970213,
				"z": 3.5686733322,
				"element": "H" 
			}
		],
		 "valence_orbital": [ 
			{
				"type": "occ",
				"energy": -0.25784,
				"method": "rhf"
			},
			{
				"type": "occ",
				"energy": -0.25783,
				"method": "rhf"
			},
			{
				"type": "occ",
				"energy": -0.25377,
				"method": "rhf"
			},
			{
				"type": "occ",
				"energy": -0.25372,
				"method": "rhf"
			},
			{
				"type": "occ",
				"energy": -0.24858,
				"method": "rhf"
			},
			{
				"type": "unocc",
				"energy": -0.01978,
				"method": "rhf"
			},
			{
				"type": "unocc",
				"energy": -0.01975,
				"method": "rhf"
			},
			{
				"type": "unocc",
				"energy": -0.00819,
				"method": "rhf"
			},
			{
				"type": "unocc",
				"energy": -0.00804,
				"method": "rhf"
			},
			{
				"type": "unocc",
				"energy": -0.008,
				"method": "rhf"
			}
		],
		"cosmo_sigma_profile": { 
			"-0.025": 0.0,
			"-0.024": 0.0,
			"-0.023": 0.0,
			"-0.022": 0.0,
			"-0.021": 0.0,
			"-0.02": 0.0,
			"-0.019": 0.0,
			"-0.018": 0.0,
			"-0.017": 0.0,
			"-0.016": 0.0,
			"-0.015": 0.0,
			"-0.014": 0.0,
			"-0.013": 0.0,
			"-0.012": 0.0,
			"-0.011": 0.159476010367,
			"-0.01": 0.911142520343,
			"-0.009": 1.69209871101,
			"-0.008": 2.99588021042,
			"-0.007": 20.1152201182,
			"-0.006": 41.849737444,
			"-0.005": 35.5548466796,
			"-0.004": 33.7561054366,
			"-0.003": 22.0525734285,
			"-0.002": 21.4680806177,
			"-0.001": 18.4451747669,
			"0.0": 17.1815244168,
			"0.001": 18.95143067,
			"0.002": 21.8506675327,
			"0.003": 21.3034549572,
			"0.004": 28.8391657227,
			"0.005": 19.34853257,
			"0.006": 8.02167369336,
			"0.007": 6.49339672832,
			"0.008": 6.22337990934,
			"0.009": 6.91982492199,
			"0.01": 9.14532670441,
			"0.011": 15.337970735,
			"0.012": 6.84951554452,
			"0.013": 0.0,
			"0.014": 0.0,
			"0.015": 0.0,
			"0.016": 0.0,
			"0.017": 0.0,
			"0.018": 0.0,
			"0.019": 0.0,
			"0.02": 0.0,
			"0.021": 0.0,
			"0.022": 0.0,
			"0.023": 0.0,
			"0.024": 0.0,
			"0.025": 0.0
		}
	}
}
