{
	 "smiles": "O=CC1=CC(=CC=C1)N1CCOCC1", 
	 "Tm": 342.15, 
	 "num_atms": 27, 
	 "gaussian": { 
		 "optdone": 1, 
		 "sigma_profile": "yes", 
		 "theory": "DFT", 
		 "functional": "B3LYP", 
		 "basiset": "6-31G**", 
		 "properties": { 
			 "R2extent": 4030.7184, 
			 "electric_dipole_moment_norm": 3.22780307485, 
			 "electric_quadrupole_moment_norm": 10.1038716639, 
			 "total_energy": -632.173162531, 
			 "HOMO_LUMO_gap": 0.14049, 
			 "cosmo_polarized_energy": -11.44, 
			 "cosmo_cavitation_energy": 29.34, 
			 "cosmo_dispersion_energy": -21.47, 
			 "cosmo_repulsion_energy": 1.67, 
			 "cosmo_total_nonelectrostatic_energy": 9.53, 
			 "SMD_solvation_energy": 4.76 
		},
		"coords": [
			{
				"x": 3.335923433,
				"y": 1.0844325118,
				"z": 0.5034164259,
				"element": "O" 
			},
			{
				"x": 2.9239007711,
				"y": 0.4732030611,
				"z": 1.4719024454,
				"element": "C" 
			},
			{
				"x": 1.5006327725,
				"y": 0.1546261291,
				"z": 1.7304797937,
				"element": "C" 
			},
			{
				"x": 0.5308637522,
				"y": 0.5551583828,
				"z": 0.8083131907,
				"element": "C" 
			},
			{
				"x": -0.8328463979,
				"y": 0.2718900921,
				"z": 1.0139311339,
				"element": "C" 
			},
			{
				"x": -1.1702968951,
				"y": -0.4389538423,
				"z": 2.1911556214,
				"element": "C" 
			},
			{
				"x": -0.1947924464,
				"y": -0.8501496166,
				"z": 3.0987703003,
				"element": "C" 
			},
			{
				"x": 1.1489192625,
				"y": -0.5561680879,
				"z": 2.8853564347,
				"element": "C" 
			},
			{
				"x": -1.7874363845,
				"y": 0.6390433093,
				"z": 0.0596762315,
				"element": "N" 
			},
			{
				"x": -1.675778061,
				"y": 1.8998320861,
				"z": -0.6807362302,
				"element": "C" 
			},
			{
				"x": -2.5760304502,
				"y": 2.9703672145,
				"z": -0.0504906632,
				"element": "C" 
			},
			{
				"x": -3.9271389639,
				"y": 2.5314763573,
				"z": 0.03043592,
				"element": "O" 
			},
			{
				"x": -4.0460485255,
				"y": 1.3311861503,
				"z": 0.7856934463,
				"element": "C" 
			},
			{
				"x": -3.1858434019,
				"y": 0.2270733771,
				"z": 0.1632676434,
				"element": "C" 
			},
			{
				"x": 3.6268818336,
				"y": 0.1040285886,
				"z": 2.2519387859,
				"element": "H" 
			},
			{
				"x": 0.8790619112,
				"y": 1.067378537,
				"z": -0.0812758612,
				"element": "H" 
			},
			{
				"x": -2.2062518486,
				"y": -0.661625461,
				"z": 2.4174487207,
				"element": "H" 
			},
			{
				"x": -0.5010834458,
				"y": -1.3923419552,
				"z": 3.9889252915,
				"element": "H" 
			},
			{
				"x": 1.9123913392,
				"y": -0.8652561148,
				"z": 3.5938124168,
				"element": "H" 
			},
			{
				"x": -1.9907991023,
				"y": 1.7276398838,
				"z": -1.7183320249,
				"element": "H" 
			},
			{
				"x": -0.6428409475,
				"y": 2.24700702,
				"z": -0.6996407498,
				"element": "H" 
			},
			{
				"x": -2.1961694438,
				"y": 3.2230653909,
				"z": 0.9536049345,
				"element": "H" 
			},
			{
				"x": -2.5823371565,
				"y": 3.8800158428,
				"z": -0.6590212511,
				"element": "H" 
			},
			{
				"x": -5.1063775942,
				"y": 1.0599687779,
				"z": 0.7716937983,
				"element": "H" 
			},
			{
				"x": -3.7419787747,
				"y": 1.5054914184,
				"z": 1.8312507077,
				"element": "H" 
			},
			{
				"x": -3.2709331022,
				"y": -0.7124650823,
				"z": 0.7119326109,
				"element": "H" 
			},
			{
				"x": -3.5533921334,
				"y": 0.0410760295,
				"z": -0.8551090733,
				"element": "H" 
			}
		],
		 "valence_orbital": [ 
			{
				"type": "occ",
				"energy": -0.29693,
				"method": "rhf"
			},
			{
				"type": "occ",
				"energy": -0.26585,
				"method": "rhf"
			},
			{
				"type": "occ",
				"energy": -0.25783,
				"method": "rhf"
			},
			{
				"type": "occ",
				"energy": -0.25075,
				"method": "rhf"
			},
			{
				"type": "occ",
				"energy": -0.198,
				"method": "rhf"
			},
			{
				"type": "unocc",
				"energy": -0.05751,
				"method": "rhf"
			},
			{
				"type": "unocc",
				"energy": -0.00018,
				"method": "rhf"
			},
			{
				"type": "unocc",
				"energy": 0.04661,
				"method": "rhf"
			},
			{
				"type": "unocc",
				"energy": 0.08203,
				"method": "rhf"
			},
			{
				"type": "unocc",
				"energy": 0.10128,
				"method": "rhf"
			}
		],
		"cosmo_sigma_profile": { 
			"-0.025": 0.0,
			"-0.024": 0.0,
			"-0.023": 0.0,
			"-0.022": 0.0,
			"-0.021": 0.0,
			"-0.02": 0.0,
			"-0.019": 0.0,
			"-0.018": 0.0,
			"-0.017": 0.0,
			"-0.016": 0.0,
			"-0.015": 0.0,
			"-0.014": 0.0,
			"-0.013": 0.0,
			"-0.012": 0.0,
			"-0.011": 0.0,
			"-0.01": 0.0,
			"-0.009": 0.00293737621566,
			"-0.008": 1.39133327467,
			"-0.007": 5.3432566647,
			"-0.006": 14.0082927621,
			"-0.005": 20.3728752333,
			"-0.004": 29.8690815845,
			"-0.003": 27.1656972279,
			"-0.002": 21.0905782895,
			"-0.001": 11.7968498965,
			"0.0": 10.6704915327,
			"0.001": 10.5124845783,
			"0.002": 11.7014461502,
			"0.003": 10.6448392066,
			"0.004": 13.4119560948,
			"0.005": 12.5028170718,
			"0.006": 4.33640635736,
			"0.007": 2.63832847373,
			"0.008": 4.20134789832,
			"0.009": 3.50000299309,
			"0.01": 3.1909600491,
			"0.011": 5.41554953765,
			"0.012": 4.49901459121,
			"0.013": 3.45527573969,
			"0.014": 0.309173811084,
			"0.015": 0.0,
			"0.016": 0.0,
			"0.017": 0.0,
			"0.018": 0.0,
			"0.019": 0.0,
			"0.02": 0.0,
			"0.021": 0.0,
			"0.022": 0.0,
			"0.023": 0.0,
			"0.024": 0.0,
			"0.025": 0.0
		}
	}
}
