{
	 "smiles": "CC(=O)C1=CC=C(O1)C1=CC=CC=C1[N+]([O-])=O", 
	 "Tm": 352.15, 
	 "num_atms": 26, 
	 "gaussian": { 
		 "optdone": 1, 
		 "sigma_profile": "yes", 
		 "theory": "DFT", 
		 "functional": "B3LYP", 
		 "basiset": "6-31G**", 
		 "properties": { 
			 "R2extent": 5143.784, 
			 "electric_dipole_moment_norm": 5.03809722117, 
			 "electric_quadrupole_moment_norm": 17.0875726, 
			 "total_energy": -818.224652685, 
			 "HOMO_LUMO_gap": 0.13419, 
			 "cosmo_polarized_energy": -13.1, 
			 "cosmo_cavitation_energy": 31.94, 
			 "cosmo_dispersion_energy": -22.65, 
			 "cosmo_repulsion_energy": 1.73, 
			 "cosmo_total_nonelectrostatic_energy": 11.02, 
			 "SMD_solvation_energy": 8.71 
		},
		"coords": [
			{
				"x": -0.7035580517,
				"y": -2.5493475136,
				"z": 2.2012789235,
				"element": "C" 
			},
			{
				"x": -1.6967505059,
				"y": -1.6668544146,
				"z": 1.4712134685,
				"element": "C" 
			},
			{
				"x": -2.9027449206,
				"y": -1.7283531937,
				"z": 1.6663745289,
				"element": "O" 
			},
			{
				"x": -1.1690991982,
				"y": -0.7033626939,
				"z": 0.4943691101,
				"element": "C" 
			},
			{
				"x": -1.8047999565,
				"y": 0.2012870755,
				"z": -0.3191053605,
				"element": "C" 
			},
			{
				"x": -0.7967505842,
				"y": 0.8521763702,
				"z": -1.0699884905,
				"element": "C" 
			},
			{
				"x": 0.4114513432,
				"y": 0.3149468381,
				"z": -0.6748951044,
				"element": "C" 
			},
			{
				"x": 0.1814928041,
				"y": -0.6346929776,
				"z": 0.2855591696,
				"element": "O" 
			},
			{
				"x": 1.8261162244,
				"y": 0.5805473738,
				"z": -0.947587522,
				"element": "C" 
			},
			{
				"x": 2.7722734255,
				"y": 0.0885508945,
				"z": -0.022662096,
				"element": "C" 
			},
			{
				"x": 4.1335260847,
				"y": 0.342349921,
				"z": -0.1459720344,
				"element": "C" 
			},
			{
				"x": 4.6131536093,
				"y": 1.1300926847,
				"z": -1.1934503902,
				"element": "C" 
			},
			{
				"x": 3.711312519,
				"y": 1.6416854738,
				"z": -2.1191767865,
				"element": "C" 
			},
			{
				"x": 2.350909136,
				"y": 1.3525766548,
				"z": -2.009964849,
				"element": "C" 
			},
			{
				"x": 1.5223573995,
				"y": 1.8730565005,
				"z": -3.1123288543,
				"element": "N" 
			},
			{
				"x": 0.6046391265,
				"y": 1.1677305243,
				"z": -3.5281969732,
				"element": "O" 
			},
			{
				"x": 1.8314997177,
				"y": 2.9685305003,
				"z": -3.5787909664,
				"element": "O" 
			},
			{
				"x": -0.112212584,
				"y": -3.137438112,
				"z": 1.4913617051,
				"element": "H" 
			},
			{
				"x": -1.2492766416,
				"y": -3.2146466133,
				"z": 2.8709198823,
				"element": "H" 
			},
			{
				"x": 0.0012549691,
				"y": -1.9407404825,
				"z": 2.7785311456,
				"element": "H" 
			},
			{
				"x": -2.8718978983,
				"y": 0.3597909448,
				"z": -0.3627164492,
				"element": "H" 
			},
			{
				"x": -0.9462293803,
				"y": 1.610691402,
				"z": -1.8203394031,
				"element": "H" 
			},
			{
				"x": 2.4114578249,
				"y": -0.4945501654,
				"z": 0.815013889,
				"element": "H" 
			},
			{
				"x": 4.8194104671,
				"y": -0.0665075695,
				"z": 0.5896570048,
				"element": "H" 
			},
			{
				"x": 5.6723375807,
				"y": 1.3434463753,
				"z": -1.2911820771,
				"element": "H" 
			},
			{
				"x": 4.0397274896,
				"y": 2.2576342026,
				"z": -2.9472214705,
				"element": "H" 
			}
		],
		 "valence_orbital": [ 
			{
				"type": "occ",
				"energy": -0.30057,
				"method": "rhf"
			},
			{
				"type": "occ",
				"energy": -0.29592,
				"method": "rhf"
			},
			{
				"type": "occ",
				"energy": -0.28048,
				"method": "rhf"
			},
			{
				"type": "occ",
				"energy": -0.25685,
				"method": "rhf"
			},
			{
				"type": "occ",
				"energy": -0.23274,
				"method": "rhf"
			},
			{
				"type": "unocc",
				"energy": -0.09855,
				"method": "rhf"
			},
			{
				"type": "unocc",
				"energy": -0.06926,
				"method": "rhf"
			},
			{
				"type": "unocc",
				"energy": -0.02945,
				"method": "rhf"
			},
			{
				"type": "unocc",
				"energy": -0.01866,
				"method": "rhf"
			},
			{
				"type": "unocc",
				"energy": 0.04493,
				"method": "rhf"
			}
		],
		"cosmo_sigma_profile": { 
			"-0.025": 0.0,
			"-0.024": 0.0,
			"-0.023": 0.0,
			"-0.022": 0.0,
			"-0.021": 0.0,
			"-0.02": 0.0,
			"-0.019": 0.0,
			"-0.018": 0.0,
			"-0.017": 0.0,
			"-0.016": 0.0,
			"-0.015": 0.0,
			"-0.014": 0.0,
			"-0.013": 0.0,
			"-0.012": 0.0,
			"-0.011": 0.0,
			"-0.01": 0.18859348952,
			"-0.009": 1.37182150984,
			"-0.008": 5.63678998388,
			"-0.007": 11.7244637937,
			"-0.006": 17.2985572516,
			"-0.005": 18.8580472527,
			"-0.004": 14.8893546825,
			"-0.003": 14.2168351461,
			"-0.002": 18.8097169644,
			"-0.001": 24.2143973099,
			"0.0": 25.20268083,
			"0.001": 23.3292696445,
			"0.002": 20.2554353898,
			"0.003": 7.64782147948,
			"0.004": 5.02962947698,
			"0.005": 4.93037087364,
			"0.006": 6.17366258041,
			"0.007": 11.0864535026,
			"0.008": 7.82345220204,
			"0.009": 5.46513786182,
			"0.01": 3.36527634368,
			"0.011": 3.23668432293,
			"0.012": 4.52705790149,
			"0.013": 1.58864581878,
			"0.014": 0.134516235606,
			"0.015": 0.0,
			"0.016": 0.0,
			"0.017": 0.0,
			"0.018": 0.0,
			"0.019": 0.0,
			"0.02": 0.0,
			"0.021": 0.0,
			"0.022": 0.0,
			"0.023": 0.0,
			"0.024": 0.0,
			"0.025": 0.0
		}
	}
}
