{
	 "smiles": "[O-][N+](=O)C1=CC2=C(NC(=O)CN=C2C2=CC=CC=C2)C=C1", 
	 "Tm": 498.15, 
	 "num_atms": 32, 
	 "gaussian": { 
		 "optdone": 1, 
		 "sigma_profile": "yes", 
		 "theory": "DFT", 
		 "functional": "B3LYP", 
		 "basiset": "6-31G**", 
		 "properties": { 
			 "R2extent": 6364.834, 
			 "electric_dipole_moment_norm": 1.38076031953, 
			 "electric_quadrupole_moment_norm": 36.6524416155, 
			 "total_energy": -968.055887506, 
			 "HOMO_LUMO_gap": 0.15226, 
			 "cosmo_polarized_energy": -18.99, 
			 "cosmo_cavitation_energy": 37.05, 
			 "cosmo_dispersion_energy": -26.28, 
			 "cosmo_repulsion_energy": 2.0, 
			 "cosmo_total_nonelectrostatic_energy": 12.77, 
			 "SMD_solvation_energy": 6.6 
		},
		"coords": [
			{
				"x": 0.0771656403,
				"y": -4.5466205242,
				"z": 0.8743792498,
				"element": "O" 
			},
			{
				"x": -0.6045929442,
				"y": -3.5524703015,
				"z": 0.6225646959,
				"element": "N" 
			},
			{
				"x": -1.8326355406,
				"y": -3.5440132994,
				"z": 0.542612662,
				"element": "O" 
			},
			{
				"x": 0.1024190498,
				"y": -2.2860561374,
				"z": 0.4033479011,
				"element": "C" 
			},
			{
				"x": -0.6313844527,
				"y": -1.1342587795,
				"z": 0.1566930624,
				"element": "C" 
			},
			{
				"x": 0.0163137147,
				"y": 0.0889423918,
				"z": -0.0684094326,
				"element": "C" 
			},
			{
				"x": 1.435195746,
				"y": 0.1083643014,
				"z": -0.0638731561,
				"element": "C" 
			},
			{
				"x": 2.1626473727,
				"y": 1.2771443724,
				"z": -0.2952976285,
				"element": "N" 
			},
			{
				"x": 1.9278281203,
				"y": 2.2462144544,
				"z": -1.2742170635,
				"element": "C" 
			},
			{
				"x": 2.7478049297,
				"y": 3.113600982,
				"z": -1.4937093183,
				"element": "O" 
			},
			{
				"x": 0.6032129975,
				"y": 2.0907308885,
				"z": -2.0130948803,
				"element": "C" 
			},
			{
				"x": -0.5251101889,
				"y": 2.2534850197,
				"z": -1.1124725354,
				"element": "N" 
			},
			{
				"x": -0.7917361319,
				"y": 1.3316611251,
				"z": -0.256090444,
				"element": "C" 
			},
			{
				"x": -1.9968200258,
				"y": 1.5324897189,
				"z": 0.6041111555,
				"element": "C" 
			},
			{
				"x": -2.0782656133,
				"y": 1.0147397199,
				"z": 1.9069614103,
				"element": "C" 
			},
			{
				"x": -3.2001554453,
				"y": 1.2608474128,
				"z": 2.6991047936,
				"element": "C" 
			},
			{
				"x": -4.2575782041,
				"y": 2.0211137726,
				"z": 2.1992100586,
				"element": "C" 
			},
			{
				"x": -4.1844291132,
				"y": 2.5442617982,
				"z": 0.9047454267,
				"element": "C" 
			},
			{
				"x": -3.0629443775,
				"y": 2.3070682036,
				"z": 0.1158322582,
				"element": "C" 
			},
			{
				"x": 2.1519620973,
				"y": -1.0695558696,
				"z": 0.2305387851,
				"element": "C" 
			},
			{
				"x": 1.4977273786,
				"y": -2.2654002079,
				"z": 0.4659177516,
				"element": "C" 
			},
			{
				"x": -1.7123132247,
				"y": -1.1912914941,
				"z": 0.153204048,
				"element": "H" 
			},
			{
				"x": 3.1124504161,
				"y": 1.3076363457,
				"z": 0.0570729349,
				"element": "H" 
			},
			{
				"x": 0.5735322736,
				"y": 2.8689057031,
				"z": -2.7762727407,
				"element": "H" 
			},
			{
				"x": 0.5997996739,
				"y": 1.1069897942,
				"z": -2.510551804,
				"element": "H" 
			},
			{
				"x": -1.2562965536,
				"y": 0.4343339102,
				"z": 2.3130391558,
				"element": "H" 
			},
			{
				"x": -3.2446048242,
				"y": 0.8598550422,
				"z": 3.7073310527,
				"element": "H" 
			},
			{
				"x": -5.1339712451,
				"y": 2.2060768255,
				"z": 2.8135622417,
				"element": "H" 
			},
			{
				"x": -5.0052211354,
				"y": 3.1360408817,
				"z": 0.5100737893,
				"element": "H" 
			},
			{
				"x": -2.9896929382,
				"y": 2.7154011664,
				"z": -0.885933561,
				"element": "H" 
			},
			{
				"x": 3.2373362827,
				"y": -1.0342992271,
				"z": 0.2485565537,
				"element": "H" 
			},
			{
				"x": 2.0380562656,
				"y": -3.1791379897,
				"z": 0.6786635775,
				"element": "H" 
			}
		],
		 "valence_orbital": [ 
			{
				"type": "occ",
				"energy": -0.28102,
				"method": "rhf"
			},
			{
				"type": "occ",
				"energy": -0.26928,
				"method": "rhf"
			},
			{
				"type": "occ",
				"energy": -0.26133,
				"method": "rhf"
			},
			{
				"type": "occ",
				"energy": -0.25528,
				"method": "rhf"
			},
			{
				"type": "occ",
				"energy": -0.24894,
				"method": "rhf"
			},
			{
				"type": "unocc",
				"energy": -0.09668,
				"method": "rhf"
			},
			{
				"type": "unocc",
				"energy": -0.0712,
				"method": "rhf"
			},
			{
				"type": "unocc",
				"energy": -0.03687,
				"method": "rhf"
			},
			{
				"type": "unocc",
				"energy": -0.02133,
				"method": "rhf"
			},
			{
				"type": "unocc",
				"energy": -0.00983,
				"method": "rhf"
			}
		],
		"cosmo_sigma_profile": { 
			"-0.025": 0.0,
			"-0.024": 0.0,
			"-0.023": 0.0,
			"-0.022": 0.0,
			"-0.021": 0.0,
			"-0.02": 0.0,
			"-0.019": 0.0,
			"-0.018": 0.0,
			"-0.017": 0.0249222849392,
			"-0.016": 0.810809732504,
			"-0.015": 1.36381365964,
			"-0.014": 1.03120063249,
			"-0.013": 1.38671682474,
			"-0.012": 1.18934236017,
			"-0.011": 1.44894957936,
			"-0.01": 1.65112457869,
			"-0.009": 1.75888862596,
			"-0.008": 4.45392115327,
			"-0.007": 8.07407899497,
			"-0.006": 17.591704318,
			"-0.005": 21.0202866236,
			"-0.004": 24.641143182,
			"-0.003": 22.3290925688,
			"-0.002": 22.343160937,
			"-0.001": 23.6747182021,
			"0.0": 19.5062301087,
			"0.001": 16.8706267119,
			"0.002": 14.0706123179,
			"0.003": 13.4482836267,
			"0.004": 14.9805416507,
			"0.005": 12.0296014309,
			"0.006": 6.96435738634,
			"0.007": 9.92117890424,
			"0.008": 9.56241182473,
			"0.009": 7.27861030784,
			"0.01": 5.74019912804,
			"0.011": 4.50425697431,
			"0.012": 5.71507985628,
			"0.013": 2.01434226585,
			"0.014": 0.226370224394,
			"0.015": 0.0,
			"0.016": 0.0,
			"0.017": 0.0,
			"0.018": 0.0,
			"0.019": 0.0,
			"0.02": 0.0,
			"0.021": 0.0,
			"0.022": 0.0,
			"0.023": 0.0,
			"0.024": 0.0,
			"0.025": 0.0
		}
	}
}
