{
	 "smiles": "COC1=CC=C(C=CC(=O)C2=CC3=CC=CC=C3C=C2)C=C1", 
	 "Tm": 366.65, 
	 "num_atms": 38, 
	 "gaussian": { 
		 "optdone": 1, 
		 "sigma_profile": "yes", 
		 "theory": "DFT", 
		 "functional": "B3LYP", 
		 "basiset": "6-31G**", 
		 "properties": { 
			 "R2extent": 7317.7866, 
			 "electric_dipole_moment_norm": 3.79331599791, 
			 "electric_quadrupole_moment_norm": 20.6514366825, 
			 "total_energy": -922.200358302, 
			 "HOMO_LUMO_gap": 0.14596, 
			 "cosmo_polarized_energy": -13.06, 
			 "cosmo_cavitation_energy": 42.2, 
			 "cosmo_dispersion_energy": -28.73, 
			 "cosmo_repulsion_energy": 2.21, 
			 "cosmo_total_nonelectrostatic_energy": 15.68, 
			 "SMD_solvation_energy": 8.01 
		},
		"coords": [
			{
				"x": -2.4398718842,
				"y": -3.6141165069,
				"z": -2.110309809,
				"element": "C" 
			},
			{
				"x": -2.100659303,
				"y": -3.7052065095,
				"z": -0.7344399213,
				"element": "O" 
			},
			{
				"x": -0.9128265269,
				"y": -3.1801036932,
				"z": -0.3247875985,
				"element": "C" 
			},
			{
				"x": 0.0212460759,
				"y": -2.5642775462,
				"z": -1.1684392208,
				"element": "C" 
			},
			{
				"x": 1.2073628014,
				"y": -2.0597556883,
				"z": -0.6377245207,
				"element": "C" 
			},
			{
				"x": 1.4948163342,
				"y": -2.1446221361,
				"z": 0.7338287682,
				"element": "C" 
			},
			{
				"x": 2.7330158677,
				"y": -1.6319792219,
				"z": 1.3339295794,
				"element": "C" 
			},
			{
				"x": 3.5458816979,
				"y": -0.6391312811,
				"z": 0.921582828,
				"element": "C" 
			},
			{
				"x": 3.4251243721,
				"y": 0.2641100675,
				"z": -0.2671981874,
				"element": "C" 
			},
			{
				"x": 4.3531725041,
				"y": 0.3089928788,
				"z": -1.0696304774,
				"element": "O" 
			},
			{
				"x": 2.2416309806,
				"y": 1.1667060076,
				"z": -0.4285494529,
				"element": "C" 
			},
			{
				"x": 1.3011181357,
				"y": 1.3495915144,
				"z": 0.5688956217,
				"element": "C" 
			},
			{
				"x": 0.2173084769,
				"y": 2.2491867011,
				"z": 0.3994875446,
				"element": "C" 
			},
			{
				"x": -0.7592776501,
				"y": 2.4505168629,
				"z": 1.4125657085,
				"element": "C" 
			},
			{
				"x": -1.8027059941,
				"y": 3.3280264366,
				"z": 1.2205480907,
				"element": "C" 
			},
			{
				"x": -1.9151655275,
				"y": 4.0459467688,
				"z": 0.0045956969,
				"element": "C" 
			},
			{
				"x": -0.9838921906,
				"y": 3.8738352156,
				"z": -0.9964062339,
				"element": "C" 
			},
			{
				"x": 0.1032970031,
				"y": 2.9767466013,
				"z": -0.8302656342,
				"element": "C" 
			},
			{
				"x": 1.088869957,
				"y": 2.7749736945,
				"z": -1.8379989758,
				"element": "C" 
			},
			{
				"x": 2.1296510754,
				"y": 1.9029813505,
				"z": -1.6429907022,
				"element": "C" 
			},
			{
				"x": 0.5543597719,
				"y": -2.7988444356,
				"z": 1.55646428,
				"element": "C" 
			},
			{
				"x": -0.6327902659,
				"y": -3.2993205635,
				"z": 1.0457892598,
				"element": "C" 
			},
			{
				"x": -2.49897626,
				"y": -2.5703330865,
				"z": -2.4436283495,
				"element": "H" 
			},
			{
				"x": -3.4217063656,
				"y": -4.0792708928,
				"z": -2.2092211609,
				"element": "H" 
			},
			{
				"x": -1.7206866603,
				"y": -4.1524070328,
				"z": -2.7406774352,
				"element": "H" 
			},
			{
				"x": -0.156946628,
				"y": -2.4842234488,
				"z": -2.2340611156,
				"element": "H" 
			},
			{
				"x": 1.9325881493,
				"y": -1.6190960969,
				"z": -1.3132941599,
				"element": "H" 
			},
			{
				"x": 3.0435014149,
				"y": -2.1613025232,
				"z": 2.2353557722,
				"element": "H" 
			},
			{
				"x": 4.4881464128,
				"y": -0.505308007,
				"z": 1.4496055971,
				"element": "H" 
			},
			{
				"x": 1.388295937,
				"y": 0.8039612308,
				"z": 1.502897131,
				"element": "H" 
			},
			{
				"x": -0.6687544053,
				"y": 1.8958220322,
				"z": 2.3428921776,
				"element": "H" 
			},
			{
				"x": -2.544111903,
				"y": 3.4733761247,
				"z": 2.0007204765,
				"element": "H" 
			},
			{
				"x": -2.7419877702,
				"y": 4.7363962216,
				"z": -0.1354635443,
				"element": "H" 
			},
			{
				"x": -1.0695359908,
				"y": 4.4258759489,
				"z": -1.9288558005,
				"element": "H" 
			},
			{
				"x": 1.0050166574,
				"y": 3.3309109385,
				"z": -2.7685058851,
				"element": "H" 
			},
			{
				"x": 2.8929690456,
				"y": 1.752215362,
				"z": -2.3985961064,
				"element": "H" 
			},
			{
				"x": 0.7605681801,
				"y": -2.9028537309,
				"z": 2.618870268,
				"element": "H" 
			},
			{
				"x": -1.3594455252,
				"y": -3.7932195571,
				"z": 1.6824154913,
				"element": "H" 
			}
		],
		 "valence_orbital": [ 
			{
				"type": "occ",
				"energy": -0.25683,
				"method": "rhf"
			},
			{
				"type": "occ",
				"energy": -0.24804,
				"method": "rhf"
			},
			{
				"type": "occ",
				"energy": -0.24244,
				"method": "rhf"
			},
			{
				"type": "occ",
				"energy": -0.22201,
				"method": "rhf"
			},
			{
				"type": "occ",
				"energy": -0.20978,
				"method": "rhf"
			},
			{
				"type": "unocc",
				"energy": -0.06382,
				"method": "rhf"
			},
			{
				"type": "unocc",
				"energy": -0.03934,
				"method": "rhf"
			},
			{
				"type": "unocc",
				"energy": -0.0219,
				"method": "rhf"
			},
			{
				"type": "unocc",
				"energy": -0.00417,
				"method": "rhf"
			},
			{
				"type": "unocc",
				"energy": 0.01772,
				"method": "rhf"
			}
		],
		"cosmo_sigma_profile": { 
			"-0.025": 0.0,
			"-0.024": 0.0,
			"-0.023": 0.0,
			"-0.022": 0.0,
			"-0.021": 0.0,
			"-0.02": 0.0,
			"-0.019": 0.0,
			"-0.018": 0.0,
			"-0.017": 0.0,
			"-0.016": 0.0,
			"-0.015": 0.0,
			"-0.014": 0.0,
			"-0.013": 0.0,
			"-0.012": 0.0,
			"-0.011": 0.0,
			"-0.01": 0.0,
			"-0.009": 0.0,
			"-0.008": 0.0,
			"-0.007": 3.83871608921,
			"-0.006": 28.250937181,
			"-0.005": 32.677404274,
			"-0.004": 32.3763743082,
			"-0.003": 26.4581109256,
			"-0.002": 21.8004638722,
			"-0.001": 18.4960960006,
			"0.0": 20.0317629951,
			"0.001": 19.2905046917,
			"0.002": 23.8039641433,
			"0.003": 37.6131973254,
			"0.004": 32.2568074871,
			"0.005": 16.0137929346,
			"0.006": 2.61461559105,
			"0.007": 3.72252469156,
			"0.008": 3.06850241529,
			"0.009": 3.06636458573,
			"0.01": 2.97276232464,
			"0.011": 3.07170922699,
			"0.012": 4.43573708072,
			"0.013": 1.83544541299,
			"0.014": 0.374470030954,
			"0.015": 0.0,
			"0.016": 0.0,
			"0.017": 0.0,
			"0.018": 0.0,
			"0.019": 0.0,
			"0.02": 0.0,
			"0.021": 0.0,
			"0.022": 0.0,
			"0.023": 0.0,
			"0.024": 0.0,
			"0.025": 0.0
		}
	}
}
