{
	 "smiles": "NC1=CC=C(Br)C=C1C(=O)C1=C(F)C=CC=C1", 
	 "Tm": 375.15, 
	 "num_atms": 26, 
	 "gaussian": { 
		 "optdone": 1, 
		 "sigma_profile": "yes", 
		 "theory": "DFT", 
		 "functional": "B3LYP", 
		 "basiset": "6-31G**", 
		 "properties": { 
			 "R2extent": 6843.1897, 
			 "electric_dipole_moment_norm": 6.51454638789, 
			 "electric_quadrupole_moment_norm": 10.0666034903, 
			 "total_energy": -3302.01798401, 
			 "HOMO_LUMO_gap": 0.14449, 
			 "cosmo_polarized_energy": -15.2, 
			 "cosmo_cavitation_energy": 33.35, 
			 "cosmo_dispersion_energy": -24.05, 
			 "cosmo_repulsion_energy": 1.85, 
			 "cosmo_total_nonelectrostatic_energy": 11.15, 
			 "SMD_solvation_energy": 5.2 
		},
		"coords": [
			{
				"x": -2.3731410486,
				"y": -0.0229675212,
				"z": -1.9320019503,
				"element": "N" 
			},
			{
				"x": -0.9996503298,
				"y": 0.104049455,
				"z": -2.0293102701,
				"element": "C" 
			},
			{
				"x": -0.4177212262,
				"y": 0.1381506989,
				"z": -3.315714268,
				"element": "C" 
			},
			{
				"x": 0.9359642712,
				"y": 0.3677705307,
				"z": -3.500138751,
				"element": "C" 
			},
			{
				"x": 1.7565976545,
				"y": 0.5862031724,
				"z": -2.3890754945,
				"element": "C" 
			},
			{
				"x": 3.6240705968,
				"y": 0.9104332506,
				"z": -2.6405086304,
				"element": "Br" 
			},
			{
				"x": 1.2177856707,
				"y": 0.5644702193,
				"z": -1.1157079829,
				"element": "C" 
			},
			{
				"x": -0.1488887605,
				"y": 0.2983549959,
				"z": -0.9067246211,
				"element": "C" 
			},
			{
				"x": -0.586682812,
				"y": 0.315354972,
				"z": 0.5256946358,
				"element": "C" 
			},
			{
				"x": -0.0090439186,
				"y": 1.0134912987,
				"z": 1.3467570999,
				"element": "O" 
			},
			{
				"x": -1.6762913494,
				"y": -0.6150606675,
				"z": 0.9939396321,
				"element": "C" 
			},
			{
				"x": -2.6133877931,
				"y": -0.2122044864,
				"z": 1.9561651916,
				"element": "C" 
			},
			{
				"x": -2.6396669791,
				"y": 1.065376599,
				"z": 2.3637691067,
				"element": "F" 
			},
			{
				"x": -3.5540788851,
				"y": -1.089733016,
				"z": 2.4842650212,
				"element": "C" 
			},
			{
				"x": -3.5540793636,
				"y": -2.4200327854,
				"z": 2.0642418707,
				"element": "C" 
			},
			{
				"x": -2.6288783467,
				"y": -2.8580072483,
				"z": 1.113291599,
				"element": "C" 
			},
			{
				"x": -1.7064982477,
				"y": -1.9583743828,
				"z": 0.580891931,
				"element": "C" 
			},
			{
				"x": -2.7613835142,
				"y": -0.3383700323,
				"z": -1.0568617264,
				"element": "H" 
			},
			{
				"x": -2.8459703242,
				"y": -0.3841820497,
				"z": -2.746863634,
				"element": "H" 
			},
			{
				"x": -1.0567889727,
				"y": -0.0053001551,
				"z": -4.1833824384,
				"element": "H" 
			},
			{
				"x": 1.3549056802,
				"y": 0.3821342501,
				"z": -4.5002293466,
				"element": "H" 
			},
			{
				"x": 1.835597449,
				"y": 0.7460897195,
				"z": -0.2443568967,
				"element": "H" 
			},
			{
				"x": -4.2642901352,
				"y": -0.7191762876,
				"z": 3.2154300469,
				"element": "H" 
			},
			{
				"x": -4.2794567048,
				"y": -3.1124420144,
				"z": 2.4805987526,
				"element": "H" 
			},
			{
				"x": -2.6231779226,
				"y": -3.8946461208,
				"z": 0.7920162252,
				"element": "H" 
			},
			{
				"x": -0.9797446883,
				"y": -2.2922823941,
				"z": -0.1539851023,
				"element": "H" 
			}
		],
		 "valence_orbital": [ 
			{
				"type": "occ",
				"energy": -0.27699,
				"method": "rhf"
			},
			{
				"type": "occ",
				"energy": -0.26847,
				"method": "rhf"
			},
			{
				"type": "occ",
				"energy": -0.26268,
				"method": "rhf"
			},
			{
				"type": "occ",
				"energy": -0.25003,
				"method": "rhf"
			},
			{
				"type": "occ",
				"energy": -0.21211,
				"method": "rhf"
			},
			{
				"type": "unocc",
				"energy": -0.06762,
				"method": "rhf"
			},
			{
				"type": "unocc",
				"energy": -0.02697,
				"method": "rhf"
			},
			{
				"type": "unocc",
				"energy": -0.01909,
				"method": "rhf"
			},
			{
				"type": "unocc",
				"energy": -0.00303,
				"method": "rhf"
			},
			{
				"type": "unocc",
				"energy": 0.01196,
				"method": "rhf"
			}
		],
		"cosmo_sigma_profile": { 
			"-0.025": 0.0,
			"-0.024": 0.0,
			"-0.023": 0.0,
			"-0.022": 0.0,
			"-0.021": 0.0,
			"-0.02": 0.0,
			"-0.019": 0.0,
			"-0.018": 0.0,
			"-0.017": 0.0,
			"-0.016": 0.0,
			"-0.015": 0.0,
			"-0.014": 0.470188373484,
			"-0.013": 1.73844976312,
			"-0.012": 1.37392000893,
			"-0.011": 1.98769075946,
			"-0.01": 2.45946522662,
			"-0.009": 1.7891847683,
			"-0.008": 3.47619845186,
			"-0.007": 11.8060822867,
			"-0.006": 15.6303320711,
			"-0.005": 16.6543263264,
			"-0.004": 13.7110968914,
			"-0.003": 15.8083342601,
			"-0.002": 14.1293245494,
			"-0.001": 16.9800650365,
			"0.0": 16.9439400696,
			"0.001": 19.6847100687,
			"0.002": 25.4879404712,
			"0.003": 31.8984606616,
			"0.004": 22.293815267,
			"0.005": 13.564696492,
			"0.006": 3.39144801084,
			"0.007": 3.10769535158,
			"0.008": 3.00302098034,
			"0.009": 2.48969376233,
			"0.01": 3.4342595636,
			"0.011": 4.19150715485,
			"0.012": 3.6292322078,
			"0.013": 0.279664275029,
			"0.014": 0.0,
			"0.015": 0.0,
			"0.016": 0.0,
			"0.017": 0.0,
			"0.018": 0.0,
			"0.019": 0.0,
			"0.02": 0.0,
			"0.021": 0.0,
			"0.022": 0.0,
			"0.023": 0.0,
			"0.024": 0.0,
			"0.025": 0.0
		}
	}
}
