{
	 "smiles": "NC(=O)C(C1=CC=CC=C1)C1=CC=CC=C1", 
	 "Tm": 438.65, 
	 "num_atms": 29, 
	 "gaussian": { 
		 "optdone": 1, 
		 "sigma_profile": "yes", 
		 "theory": "DFT", 
		 "functional": "B3LYP", 
		 "basiset": "6-31G**", 
		 "properties": { 
			 "R2extent": 3988.6616, 
			 "electric_dipole_moment_norm": 3.58992578336, 
			 "electric_quadrupole_moment_norm": 13.6759922126, 
			 "total_energy": -671.318639739, 
			 "HOMO_LUMO_gap": 0.2192, 
			 "cosmo_polarized_energy": -14.04, 
			 "cosmo_cavitation_energy": 32.56, 
			 "cosmo_dispersion_energy": -22.69, 
			 "cosmo_repulsion_energy": 1.8, 
			 "cosmo_total_nonelectrostatic_energy": 11.66, 
			 "SMD_solvation_energy": 6.22 
		},
		"coords": [
			{
				"x": 0.5715130158,
				"y": -1.8890462829,
				"z": -0.8082101719,
				"element": "N" 
			},
			{
				"x": 1.2580998087,
				"y": -0.9237707653,
				"z": -1.4921597889,
				"element": "C" 
			},
			{
				"x": 2.2308337801,
				"y": -1.1727190867,
				"z": -2.1862224384,
				"element": "O" 
			},
			{
				"x": 0.7672110802,
				"y": 0.5323239113,
				"z": -1.2925631107,
				"element": "C" 
			},
			{
				"x": 1.6041612837,
				"y": 1.2556005839,
				"z": -0.2385846908,
				"element": "C" 
			},
			{
				"x": 2.0973955146,
				"y": 0.6108288818,
				"z": 0.9034454009,
				"element": "C" 
			},
			{
				"x": 2.8359999473,
				"y": 1.3163388845,
				"z": 1.8562902779,
				"element": "C" 
			},
			{
				"x": 3.0925667726,
				"y": 2.6763877399,
				"z": 1.68284075,
				"element": "C" 
			},
			{
				"x": 2.6075162359,
				"y": 3.3279096704,
				"z": 0.5468257736,
				"element": "C" 
			},
			{
				"x": 1.8715073589,
				"y": 2.6216982266,
				"z": -0.4036757231,
				"element": "C" 
			},
			{
				"x": -0.7413751489,
				"y": 0.644199486,
				"z": -1.0702644397,
				"element": "C" 
			},
			{
				"x": -1.5980291502,
				"y": 0.6267155986,
				"z": -2.1821598168,
				"element": "C" 
			},
			{
				"x": -2.9820009804,
				"y": 0.686791523,
				"z": -2.0237030711,
				"element": "C" 
			},
			{
				"x": -3.5383042605,
				"y": 0.7637471448,
				"z": -0.7446451738,
				"element": "C" 
			},
			{
				"x": -2.6983357043,
				"y": 0.7841566494,
				"z": 0.3690791158,
				"element": "C" 
			},
			{
				"x": -1.3113562193,
				"y": 0.7279428878,
				"z": 0.2082824945,
				"element": "C" 
			},
			{
				"x": -0.3346320318,
				"y": -1.6949016142,
				"z": -0.4107496866,
				"element": "H" 
			},
			{
				"x": 0.8262434488,
				"y": -2.84852075,
				"z": -0.9911059023,
				"element": "H" 
			},
			{
				"x": 0.9940466072,
				"y": 0.9997344716,
				"z": -2.255707729,
				"element": "H" 
			},
			{
				"x": 1.9142304017,
				"y": -0.4501681427,
				"z": 1.0446585068,
				"element": "H" 
			},
			{
				"x": 3.2151451204,
				"y": 0.7977497812,
				"z": 2.7324686329,
				"element": "H" 
			},
			{
				"x": 3.6700213583,
				"y": 3.2233082901,
				"z": 2.4225684815,
				"element": "H" 
			},
			{
				"x": 2.8067838828,
				"y": 4.3853690003,
				"z": 0.3973658639,
				"element": "H" 
			},
			{
				"x": 1.4991251622,
				"y": 3.1344727603,
				"z": -1.2870111355,
				"element": "H" 
			},
			{
				"x": -1.1722300319,
				"y": 0.5663499184,
				"z": -3.1810343204,
				"element": "H" 
			},
			{
				"x": -3.6257629811,
				"y": 0.6773867936,
				"z": -2.8987779497,
				"element": "H" 
			},
			{
				"x": -4.615955854,
				"y": 0.813739223,
				"z": -0.6188352824,
				"element": "H" 
			},
			{
				"x": -3.1199648304,
				"y": 0.8537686837,
				"z": 1.3679953491,
				"element": "H" 
			},
			{
				"x": -0.6661535866,
				"y": 0.7687065316,
				"z": 1.0804897839,
				"element": "H" 
			}
		],
		 "valence_orbital": [ 
			{
				"type": "occ",
				"energy": -0.26392,
				"method": "rhf"
			},
			{
				"type": "occ",
				"energy": -0.25687,
				"method": "rhf"
			},
			{
				"type": "occ",
				"energy": -0.24874,
				"method": "rhf"
			},
			{
				"type": "occ",
				"energy": -0.24067,
				"method": "rhf"
			},
			{
				"type": "occ",
				"energy": -0.23446,
				"method": "rhf"
			},
			{
				"type": "unocc",
				"energy": -0.01526,
				"method": "rhf"
			},
			{
				"type": "unocc",
				"energy": -0.01166,
				"method": "rhf"
			},
			{
				"type": "unocc",
				"energy": -0.00328,
				"method": "rhf"
			},
			{
				"type": "unocc",
				"energy": 0.00365,
				"method": "rhf"
			},
			{
				"type": "unocc",
				"energy": 0.03304,
				"method": "rhf"
			}
		],
		"cosmo_sigma_profile": { 
			"-0.025": 0.0,
			"-0.024": 0.0,
			"-0.023": 0.0,
			"-0.022": 0.0,
			"-0.021": 0.0,
			"-0.02": 0.0,
			"-0.019": 0.0,
			"-0.018": 0.0,
			"-0.017": 0.0,
			"-0.016": 0.0,
			"-0.015": 0.0307683593747,
			"-0.014": 0.750205179721,
			"-0.013": 1.23390160886,
			"-0.012": 1.56596787356,
			"-0.011": 1.61540752255,
			"-0.01": 2.57882905484,
			"-0.009": 2.02090879423,
			"-0.008": 1.52778444259,
			"-0.007": 1.55013300281,
			"-0.006": 14.0060282563,
			"-0.005": 22.2200325113,
			"-0.004": 24.7784417715,
			"-0.003": 24.101439424,
			"-0.002": 16.7413152571,
			"-0.001": 16.8243006371,
			"0.0": 14.4161347501,
			"0.001": 16.1988516265,
			"0.002": 15.7795937691,
			"0.003": 16.9823110681,
			"0.004": 17.5048640436,
			"0.005": 17.8197019397,
			"0.006": 9.47981860524,
			"0.007": 1.40616639584,
			"0.008": 1.64952115551,
			"0.009": 1.35191960637,
			"0.01": 1.78295951946,
			"0.011": 1.16592561414,
			"0.012": 1.90459808239,
			"0.013": 4.47363305826,
			"0.014": 5.01434646769,
			"0.015": 0.983601003119,
			"0.016": 0.0,
			"0.017": 0.0,
			"0.018": 0.0,
			"0.019": 0.0,
			"0.02": 0.0,
			"0.021": 0.0,
			"0.022": 0.0,
			"0.023": 0.0,
			"0.024": 0.0,
			"0.025": 0.0
		}
	}
}
