{
	 "smiles": "CC1=C(C=C(NC(=O)CCl)C=C1)S(=O)(=O)N1CCCCCC1", 
	 "Tm": 348.15, 
	 "num_atms": 43, 
	 "gaussian": { 
		 "optdone": 1, 
		 "sigma_profile": "yes", 
		 "theory": "DFT", 
		 "functional": "B3LYP", 
		 "basiset": "6-31G**", 
		 "properties": { 
			 "R2extent": 11041.7356, 
			 "electric_dipole_moment_norm": 3.40444404272, 
			 "electric_quadrupole_moment_norm": 13.2000527181, 
			 "total_energy": -1777.76950626, 
			 "HOMO_LUMO_gap": 0.19403, 
			 "cosmo_polarized_energy": -17.32, 
			 "cosmo_cavitation_energy": 45.57, 
			 "cosmo_dispersion_energy": -32.78, 
			 "cosmo_repulsion_energy": 2.46, 
			 "cosmo_total_nonelectrostatic_energy": 15.25, 
			 "SMD_solvation_energy": 6.41 
		},
		"coords": [
			{
				"x": 2.1705777741,
				"y": -2.4452458844,
				"z": 1.4762347175,
				"element": "C" 
			},
			{
				"x": 1.0108506374,
				"y": -2.5212294656,
				"z": 0.515100342,
				"element": "C" 
			},
			{
				"x": 0.1971998945,
				"y": -1.4206298924,
				"z": 0.17764461,
				"element": "C" 
			},
			{
				"x": -0.8702687288,
				"y": -1.5367960825,
				"z": -0.7100585332,
				"element": "C" 
			},
			{
				"x": -1.160908705,
				"y": -2.7677280199,
				"z": -1.3105711408,
				"element": "C" 
			},
			{
				"x": -2.25732421,
				"y": -2.8101188097,
				"z": -2.1986958728,
				"element": "N" 
			},
			{
				"x": -2.718584391,
				"y": -3.8741200157,
				"z": -2.9118888921,
				"element": "C" 
			},
			{
				"x": -2.2509435831,
				"y": -5.0048010963,
				"z": -2.9088154636,
				"element": "O" 
			},
			{
				"x": -3.9444857807,
				"y": -3.6404671045,
				"z": -3.8026107842,
				"element": "C" 
			},
			{
				"x": -4.6240591986,
				"y": -1.9582241171,
				"z": -3.8556623584,
				"element": "Cl" 
			},
			{
				"x": -0.3661334916,
				"y": -3.8790907647,
				"z": -1.0033061496,
				"element": "C" 
			},
			{
				"x": 0.6907518579,
				"y": -3.734636407,
				"z": -0.1059646874,
				"element": "C" 
			},
			{
				"x": 0.4266565406,
				"y": 0.2091054013,
				"z": 0.9248200563,
				"element": "S" 
			},
			{
				"x": 0.5365002509,
				"y": 0.0697529918,
				"z": 2.3824556983,
				"element": "O" 
			},
			{
				"x": -0.6154037623,
				"y": 1.077341903,
				"z": 0.3516560351,
				"element": "O" 
			},
			{
				"x": 1.9470756314,
				"y": 0.6629483106,
				"z": 0.3836264242,
				"element": "N" 
			},
			{
				"x": 2.8748236632,
				"y": 1.2920077541,
				"z": 1.3419969118,
				"element": "C" 
			},
			{
				"x": 2.5264673829,
				"y": 2.7088409293,
				"z": 1.8375428348,
				"element": "C" 
			},
			{
				"x": 1.8753467916,
				"y": 3.652648957,
				"z": 0.8066830723,
				"element": "C" 
			},
			{
				"x": 2.4042441325,
				"y": 3.5563098228,
				"z": -0.6379488417,
				"element": "C" 
			},
			{
				"x": 1.7446052771,
				"y": 2.4348789136,
				"z": -1.4594694416,
				"element": "C" 
			},
			{
				"x": 2.108068764,
				"y": 1.003327687,
				"z": -1.0416437666,
				"element": "C" 
			},
			{
				"x": 1.8545100215,
				"y": -2.0568844291,
				"z": 2.44782831,
				"element": "H" 
			},
			{
				"x": 2.6113397564,
				"y": -3.4350040546,
				"z": 1.61780107,
				"element": "H" 
			},
			{
				"x": 2.9488509233,
				"y": -1.7733494832,
				"z": 1.0996221412,
				"element": "H" 
			},
			{
				"x": -1.4711884033,
				"y": -0.6569834092,
				"z": -0.9173441513,
				"element": "H" 
			},
			{
				"x": -2.7650407307,
				"y": -1.9424275957,
				"z": -2.3184480269,
				"element": "H" 
			},
			{
				"x": -3.6767150791,
				"y": -3.9127965563,
				"z": -4.8235941066,
				"element": "H" 
			},
			{
				"x": -4.7432472571,
				"y": -4.2991822973,
				"z": -3.4605004319,
				"element": "H" 
			},
			{
				"x": -0.581180091,
				"y": -4.8342899905,
				"z": -1.4611740936,
				"element": "H" 
			},
			{
				"x": 1.2943819256,
				"y": -4.6079503987,
				"z": 0.1257785902,
				"element": "H" 
			},
			{
				"x": 3.8373221058,
				"y": 1.3023740961,
				"z": 0.8186198844,
				"element": "H" 
			},
			{
				"x": 2.9837522046,
				"y": 0.625507192,
				"z": 2.200651825,
				"element": "H" 
			},
			{
				"x": 1.8614200297,
				"y": 2.6268801514,
				"z": 2.703528386,
				"element": "H" 
			},
			{
				"x": 3.4627664334,
				"y": 3.1489058512,
				"z": 2.2065722552,
				"element": "H" 
			},
			{
				"x": 1.9992868338,
				"y": 4.6789699359,
				"z": 1.1720827066,
				"element": "H" 
			},
			{
				"x": 0.7950154717,
				"y": 3.4684583829,
				"z": 0.7856011856,
				"element": "H" 
			},
			{
				"x": 3.4987621676,
				"y": 3.4466696815,
				"z": -0.6450561765,
				"element": "H" 
			},
			{
				"x": 2.1977279914,
				"y": 4.5045394768,
				"z": -1.148542393,
				"element": "H" 
			},
			{
				"x": 0.6571055779,
				"y": 2.5523996005,
				"z": -1.4059944285,
				"element": "H" 
			},
			{
				"x": 2.0256743314,
				"y": 2.538865452,
				"z": -2.5164147648,
				"element": "H" 
			},
			{
				"x": 1.5230311942,
				"y": 0.28662225,
				"z": -1.6275499988,
				"element": "H" 
			},
			{
				"x": 3.161767846,
				"y": 0.8030011337,
				"z": -1.2746925525,
				"element": "H" 
			}
		],
		 "valence_orbital": [ 
			{
				"type": "occ",
				"energy": -0.29827,
				"method": "rhf"
			},
			{
				"type": "occ",
				"energy": -0.27442,
				"method": "rhf"
			},
			{
				"type": "occ",
				"energy": -0.27187,
				"method": "rhf"
			},
			{
				"type": "occ",
				"energy": -0.24313,
				"method": "rhf"
			},
			{
				"type": "occ",
				"energy": -0.23416,
				"method": "rhf"
			},
			{
				"type": "unocc",
				"energy": -0.04013,
				"method": "rhf"
			},
			{
				"type": "unocc",
				"energy": -0.02563,
				"method": "rhf"
			},
			{
				"type": "unocc",
				"energy": 0.0043,
				"method": "rhf"
			},
			{
				"type": "unocc",
				"energy": 0.02167,
				"method": "rhf"
			},
			{
				"type": "unocc",
				"energy": 0.06206,
				"method": "rhf"
			}
		],
		"cosmo_sigma_profile": { 
			"-0.025": 0.0,
			"-0.024": 0.0,
			"-0.023": 0.0,
			"-0.022": 0.0,
			"-0.021": 0.0,
			"-0.02": 0.0,
			"-0.019": 0.0,
			"-0.018": 0.0,
			"-0.017": 0.0,
			"-0.016": 0.0,
			"-0.015": 0.0468744987344,
			"-0.014": 0.784247617716,
			"-0.013": 0.82794014759,
			"-0.012": 1.0311201017,
			"-0.011": 1.01415552597,
			"-0.01": 1.48008155071,
			"-0.009": 5.42941772026,
			"-0.008": 5.28014938391,
			"-0.007": 6.10986035679,
			"-0.006": 10.7736188256,
			"-0.005": 16.7820140491,
			"-0.004": 19.6379627301,
			"-0.003": 31.3054727916,
			"-0.002": 38.726328934,
			"-0.001": 41.4349141708,
			"0.0": 43.6858975962,
			"0.001": 31.3349187338,
			"0.002": 21.9407548217,
			"0.003": 16.618633206,
			"0.004": 10.8958353413,
			"0.005": 12.9133733192,
			"0.006": 5.84130924533,
			"0.007": 4.80695711578,
			"0.008": 3.29402925197,
			"0.009": 5.73121149202,
			"0.01": 6.49342398053,
			"0.011": 8.30261906114,
			"0.012": 6.67308081064,
			"0.013": 1.31668513069,
			"0.014": 0.00890000012694,
			"0.015": 0.0,
			"0.016": 0.0,
			"0.017": 0.0,
			"0.018": 0.0,
			"0.019": 0.0,
			"0.02": 0.0,
			"0.021": 0.0,
			"0.022": 0.0,
			"0.023": 0.0,
			"0.024": 0.0,
			"0.025": 0.0
		}
	}
}
