{
	 "smiles": "ClCC(=O)NC1=C(C#N)C2=C(CCCC2)S1", 
	 "Tm": 453.15, 
	 "num_atms": 27, 
	 "gaussian": { 
		 "optdone": 1, 
		 "sigma_profile": "yes", 
		 "theory": "DFT", 
		 "functional": "B3LYP", 
		 "basiset": "6-31G**", 
		 "properties": { 
			 "R2extent": 5610.5389, 
			 "electric_dipole_moment_norm": 5.65883149245, 
			 "electric_quadrupole_moment_norm": 14.6244178004, 
			 "total_energy": -1468.90042317, 
			 "HOMO_LUMO_gap": 0.17884, 
			 "cosmo_polarized_energy": -14.08, 
			 "cosmo_cavitation_energy": 34.05, 
			 "cosmo_dispersion_energy": -23.95, 
			 "cosmo_repulsion_energy": 1.87, 
			 "cosmo_total_nonelectrostatic_energy": 11.97, 
			 "SMD_solvation_energy": 6.05 
		},
		"coords": [
			{
				"x": -3.5983530975,
				"y": 0.0923015144,
				"z": 2.2461228876,
				"element": "Cl" 
			},
			{
				"x": -4.4858959445,
				"y": -0.1913885684,
				"z": 0.6912120753,
				"element": "C" 
			},
			{
				"x": -4.2899875942,
				"y": -1.6051563686,
				"z": 0.1543504568,
				"element": "C" 
			},
			{
				"x": -5.2308049356,
				"y": -2.3696912258,
				"z": 0.0475756907,
				"element": "O" 
			},
			{
				"x": -3.0178191464,
				"y": -2.0087299871,
				"z": -0.2297572489,
				"element": "N" 
			},
			{
				"x": -1.8129011891,
				"y": -1.3005792672,
				"z": -0.238692507,
				"element": "C" 
			},
			{
				"x": -1.4744216399,
				"y": -0.1771994517,
				"z": -0.9708836161,
				"element": "C" 
			},
			{
				"x": -2.3656706551,
				"y": 0.4572707318,
				"z": -1.8821371754,
				"element": "C" 
			},
			{
				"x": -3.0938727754,
				"y": 0.9929171044,
				"z": -2.616634086,
				"element": "N" 
			},
			{
				"x": -0.1251087023,
				"y": 0.2748126459,
				"z": -0.7356784057,
				"element": "C" 
			},
			{
				"x": 0.5455671846,
				"y": -0.5306822101,
				"z": 0.1437084215,
				"element": "C" 
			},
			{
				"x": 1.975862466,
				"y": -0.3447165038,
				"z": 0.5733180492,
				"element": "C" 
			},
			{
				"x": 2.6934212355,
				"y": 0.625479782,
				"z": -0.3849057024,
				"element": "C" 
			},
			{
				"x": 1.8275905042,
				"y": 1.8580803221,
				"z": -0.6865776293,
				"element": "C" 
			},
			{
				"x": 0.5196216634,
				"y": 1.4682587131,
				"z": -1.3968468569,
				"element": "C" 
			},
			{
				"x": -0.4661375227,
				"y": -1.8227463675,
				"z": 0.7415008657,
				"element": "S" 
			},
			{
				"x": -5.5476232192,
				"y": -0.0821465517,
				"z": 0.8996569125,
				"element": "H" 
			},
			{
				"x": -4.1617103077,
				"y": 0.5711147736,
				"z": -0.0169142617,
				"element": "H" 
			},
			{
				"x": -2.9987993293,
				"y": -2.9851081361,
				"z": -0.5037524799,
				"element": "H" 
			},
			{
				"x": 2.4989045006,
				"y": -1.3078409479,
				"z": 0.6031696814,
				"element": "H" 
			},
			{
				"x": 2.0049717516,
				"y": 0.0528326808,
				"z": 1.5975096182,
				"element": "H" 
			},
			{
				"x": 2.922620901,
				"y": 0.1039205532,
				"z": -1.3230043968,
				"element": "H" 
			},
			{
				"x": 3.6507926225,
				"y": 0.9269142305,
				"z": 0.05310063,
				"element": "H" 
			},
			{
				"x": 2.3831049362,
				"y": 2.5712168252,
				"z": -1.3044542398,
				"element": "H" 
			},
			{
				"x": 1.5908531635,
				"y": 2.371717327,
				"z": 0.2542608955,
				"element": "H" 
			},
			{
				"x": 0.7215183815,
				"y": 1.2331032901,
				"z": -2.4514601208,
				"element": "H" 
			},
			{
				"x": -0.1784232517,
				"y": 2.3134450916,
				"z": -1.4074874578,
				"element": "H" 
			}
		],
		 "valence_orbital": [ 
			{
				"type": "occ",
				"energy": -0.30815,
				"method": "rhf"
			},
			{
				"type": "occ",
				"energy": -0.29686,
				"method": "rhf"
			},
			{
				"type": "occ",
				"energy": -0.27483,
				"method": "rhf"
			},
			{
				"type": "occ",
				"energy": -0.26718,
				"method": "rhf"
			},
			{
				"type": "occ",
				"energy": -0.24026,
				"method": "rhf"
			},
			{
				"type": "unocc",
				"energy": -0.06142,
				"method": "rhf"
			},
			{
				"type": "unocc",
				"energy": -0.02664,
				"method": "rhf"
			},
			{
				"type": "unocc",
				"energy": -0.00982,
				"method": "rhf"
			},
			{
				"type": "unocc",
				"energy": 0.00275,
				"method": "rhf"
			},
			{
				"type": "unocc",
				"energy": 0.03262,
				"method": "rhf"
			}
		],
		"cosmo_sigma_profile": { 
			"-0.025": 0.0,
			"-0.024": 0.0,
			"-0.023": 0.0,
			"-0.022": 0.0,
			"-0.021": 0.0,
			"-0.02": 0.0,
			"-0.019": 0.0,
			"-0.018": 0.0,
			"-0.017": 0.0184242172936,
			"-0.016": 0.929568271935,
			"-0.015": 1.18625998615,
			"-0.014": 0.812947117269,
			"-0.013": 1.10975924692,
			"-0.012": 1.32881863266,
			"-0.011": 0.668116901361,
			"-0.01": 0.735706360723,
			"-0.009": 2.26438774843,
			"-0.008": 2.502759019,
			"-0.007": 3.91700574165,
			"-0.006": 6.40810384615,
			"-0.005": 11.5713520317,
			"-0.004": 20.7324799545,
			"-0.003": 29.8865081808,
			"-0.002": 34.7748191264,
			"-0.001": 32.4563692254,
			"0.0": 20.9178417033,
			"0.001": 17.3527736242,
			"0.002": 15.319219191,
			"0.003": 11.8123921557,
			"0.004": 11.0569252413,
			"0.005": 10.7588528699,
			"0.006": 5.01461872749,
			"0.007": 3.20371799637,
			"0.008": 3.97483630599,
			"0.009": 4.80833593157,
			"0.01": 4.64105069755,
			"0.011": 6.5668235981,
			"0.012": 6.60641385919,
			"0.013": 1.38352049596,
			"0.014": 0.0,
			"0.015": 0.0,
			"0.016": 0.0,
			"0.017": 0.0,
			"0.018": 0.0,
			"0.019": 0.0,
			"0.02": 0.0,
			"0.021": 0.0,
			"0.022": 0.0,
			"0.023": 0.0,
			"0.024": 0.0,
			"0.025": 0.0
		}
	}
}
