{
	 "smiles": "CC(=O)OC(OC(C)=O)C1=CC2=C(C=C1)C(=O)C1=C(Cl)C(Cl)=C(Cl)C(Cl)=C1C2=O", 
	 "Tm": 445.15, 
	 "num_atms": 39, 
	 "gaussian": { 
		 "optdone": 1, 
		 "sigma_profile": "yes", 
		 "theory": "DFT", 
		 "functional": "B3LYP", 
		 "basiset": "6-31G**", 
		 "properties": { 
			 "R2extent": 20678.4259, 
			 "electric_dipole_moment_norm": 3.45112657114, 
			 "electric_quadrupole_moment_norm": 11.7653142971, 
			 "total_energy": -3022.15997072, 
			 "HOMO_LUMO_gap": 0.14339, 
			 "cosmo_polarized_energy": -17.93, 
			 "cosmo_cavitation_energy": 52.41, 
			 "cosmo_dispersion_energy": -36.48, 
			 "cosmo_repulsion_energy": 2.74, 
			 "cosmo_total_nonelectrostatic_energy": 18.68, 
			 "SMD_solvation_energy": 10.66 
		},
		"coords": [
			{
				"x": -3.4781781771,
				"y": 4.1628673584,
				"z": 2.0002251313,
				"element": "C" 
			},
			{
				"x": -2.0633491128,
				"y": 3.7990379747,
				"z": 2.3626438071,
				"element": "C" 
			},
			{
				"x": -1.2384468313,
				"y": 4.5288676289,
				"z": 2.8546955133,
				"element": "O" 
			},
			{
				"x": -1.8193596118,
				"y": 2.4836066249,
				"z": 2.0411541446,
				"element": "O" 
			},
			{
				"x": -0.5343820675,
				"y": 1.9754924345,
				"z": 2.350798981,
				"element": "C" 
			},
			{
				"x": -0.5269939654,
				"y": 1.3917763749,
				"z": 3.6588854931,
				"element": "O" 
			},
			{
				"x": -1.3064657817,
				"y": 0.2841735354,
				"z": 3.8858120149,
				"element": "C" 
			},
			{
				"x": -1.1781168889,
				"y": -0.1444313854,
				"z": 5.3264379753,
				"element": "C" 
			},
			{
				"x": -1.9848216315,
				"y": -0.2464513896,
				"z": 3.0425561984,
				"element": "O" 
			},
			{
				"x": -0.0669260972,
				"y": 1.0253864622,
				"z": 1.2652168362,
				"element": "C" 
			},
			{
				"x": -0.7611402756,
				"y": 0.8754941905,
				"z": 0.0679301201,
				"element": "C" 
			},
			{
				"x": -0.2700552893,
				"y": 0.0159726513,
				"z": -0.9207318921,
				"element": "C" 
			},
			{
				"x": 0.9322853971,
				"y": -0.6710719181,
				"z": -0.7271773168,
				"element": "C" 
			},
			{
				"x": 1.6505236764,
				"y": -0.4903863005,
				"z": 0.4616178709,
				"element": "C" 
			},
			{
				"x": 1.1471957881,
				"y": 0.3427702229,
				"z": 1.4523503564,
				"element": "C" 
			},
			{
				"x": 1.4935847659,
				"y": -1.5325430741,
				"z": -1.7982364687,
				"element": "C" 
			},
			{
				"x": 2.6678027335,
				"y": -1.8649558025,
				"z": -1.7610913708,
				"element": "O" 
			},
			{
				"x": 0.556195776,
				"y": -1.975205585,
				"z": -2.9002338708,
				"element": "C" 
			},
			{
				"x": 0.8771723634,
				"y": -3.0686909379,
				"z": -3.7285014958,
				"element": "C" 
			},
			{
				"x": 2.3240332376,
				"y": -4.0079002396,
				"z": -3.5212260642,
				"element": "Cl" 
			},
			{
				"x": -0.0074725919,
				"y": -3.4649896038,
				"z": -4.7499204618,
				"element": "C" 
			},
			{
				"x": 0.3816691769,
				"y": -4.8092111766,
				"z": -5.7728014693,
				"element": "Cl" 
			},
			{
				"x": -1.2151685582,
				"y": -2.7791203654,
				"z": -4.9421752415,
				"element": "C" 
			},
			{
				"x": -2.2956093132,
				"y": -3.2899046048,
				"z": -6.1976443106,
				"element": "Cl" 
			},
			{
				"x": -1.5492000325,
				"y": -1.6886909843,
				"z": -4.1163078785,
				"element": "C" 
			},
			{
				"x": -3.0896532556,
				"y": -0.930831246,
				"z": -4.3831238854,
				"element": "Cl" 
			},
			{
				"x": -0.6676863485,
				"y": -1.2778868462,
				"z": -3.0972983296,
				"element": "C" 
			},
			{
				"x": -1.0034863774,
				"y": -0.1010380807,
				"z": -2.2079072341,
				"element": "C" 
			},
			{
				"x": -1.8421765804,
				"y": 0.7321223602,
				"z": -2.5113350819,
				"element": "O" 
			},
			{
				"x": -4.1775221274,
				"y": 3.4941648448,
				"z": 2.5100921656,
				"element": "H" 
			},
			{
				"x": -3.6702030872,
				"y": 5.1972487437,
				"z": 2.2823922963,
				"element": "H" 
			},
			{
				"x": -3.6317018339,
				"y": 4.0335893935,
				"z": 0.9246045231,
				"element": "H" 
			},
			{
				"x": 0.1566306194,
				"y": 2.8147576752,
				"z": 2.4569245818,
				"element": "H" 
			},
			{
				"x": -0.1327687985,
				"y": -0.3659663353,
				"z": 5.5610135347,
				"element": "H" 
			},
			{
				"x": -1.7943056592,
				"y": -1.0265724292,
				"z": 5.4963429845,
				"element": "H" 
			},
			{
				"x": -1.494134754,
				"y": 0.6676844474,
				"z": 5.9877344982,
				"element": "H" 
			},
			{
				"x": -1.6865969284,
				"y": 1.4073380961,
				"z": -0.1096291036,
				"element": "H" 
			},
			{
				"x": 2.596262466,
				"y": -1.0065307041,
				"z": 0.583701914,
				"element": "H" 
			},
			{
				"x": 1.695265976,
				"y": 0.4698279898,
				"z": 2.3814105349,
				"element": "H" 
			}
		],
		 "valence_orbital": [ 
			{
				"type": "occ",
				"energy": -0.278,
				"method": "rhf"
			},
			{
				"type": "occ",
				"energy": -0.27474,
				"method": "rhf"
			},
			{
				"type": "occ",
				"energy": -0.26804,
				"method": "rhf"
			},
			{
				"type": "occ",
				"energy": -0.26533,
				"method": "rhf"
			},
			{
				"type": "occ",
				"energy": -0.26021,
				"method": "rhf"
			},
			{
				"type": "unocc",
				"energy": -0.11682,
				"method": "rhf"
			},
			{
				"type": "unocc",
				"energy": -0.07977,
				"method": "rhf"
			},
			{
				"type": "unocc",
				"energy": -0.04796,
				"method": "rhf"
			},
			{
				"type": "unocc",
				"energy": -0.03803,
				"method": "rhf"
			},
			{
				"type": "unocc",
				"energy": -0.03431,
				"method": "rhf"
			}
		],
		"cosmo_sigma_profile": { 
			"-0.025": 0.0,
			"-0.024": 0.0,
			"-0.023": 0.0,
			"-0.022": 0.0,
			"-0.021": 0.0,
			"-0.02": 0.0,
			"-0.019": 0.0,
			"-0.018": 0.0,
			"-0.017": 0.0,
			"-0.016": 0.0,
			"-0.015": 0.0,
			"-0.014": 0.0,
			"-0.013": 0.0,
			"-0.012": 0.0,
			"-0.011": 0.0,
			"-0.01": 0.253505760736,
			"-0.009": 1.10104487816,
			"-0.008": 3.95423456568,
			"-0.007": 12.9864156868,
			"-0.006": 23.1591021879,
			"-0.005": 24.5877563241,
			"-0.004": 40.4873142138,
			"-0.003": 47.1540032008,
			"-0.002": 41.0178788299,
			"-0.001": 27.7390921135,
			"0.0": 28.5657251577,
			"0.001": 30.583945104,
			"0.002": 32.7560632397,
			"0.003": 32.5527595592,
			"0.004": 13.0951191971,
			"0.005": 9.86552314117,
			"0.006": 7.18692177042,
			"0.007": 9.61764336434,
			"0.008": 8.54146043673,
			"0.009": 10.8898189873,
			"0.01": 13.8823978189,
			"0.011": 8.18090235372,
			"0.012": 1.92375964944,
			"0.013": 0.0756381129455,
			"0.014": 0.0,
			"0.015": 0.0,
			"0.016": 0.0,
			"0.017": 0.0,
			"0.018": 0.0,
			"0.019": 0.0,
			"0.02": 0.0,
			"0.021": 0.0,
			"0.022": 0.0,
			"0.023": 0.0,
			"0.024": 0.0,
			"0.025": 0.0
		}
	}
}
