{
	 "smiles": "CN(C(=O)C1=CC=C(Br)O1)C1=C(C=CC=C1)C(O)=O", 
	 "Tm": 441.15, 
	 "num_atms": 29, 
	 "gaussian": { 
		 "optdone": 1, 
		 "sigma_profile": "yes", 
		 "theory": "DFT", 
		 "functional": "B3LYP", 
		 "basiset": "6-31G**", 
		 "properties": { 
			 "R2extent": 6161.1068, 
			 "electric_dipole_moment_norm": 2.11317359438, 
			 "electric_quadrupole_moment_norm": 12.7989044773, 
			 "total_energy": -3428.44653851, 
			 "HOMO_LUMO_gap": 0.1729, 
			 "cosmo_polarized_energy": -15.14, 
			 "cosmo_cavitation_energy": 36.61, 
			 "cosmo_dispersion_energy": -24.72, 
			 "cosmo_repulsion_energy": 1.93, 
			 "cosmo_total_nonelectrostatic_energy": 13.81, 
			 "SMD_solvation_energy": 7.83 
		},
		"coords": [
			{
				"x": 2.9902769543,
				"y": -0.7015227076,
				"z": 0.0788457244,
				"element": "C" 
			},
			{
				"x": 1.5709414452,
				"y": -0.6977379664,
				"z": -0.2881559162,
				"element": "N" 
			},
			{
				"x": 1.0954821313,
				"y": -1.7976908814,
				"z": -0.9722129109,
				"element": "C" 
			},
			{
				"x": 1.8333324242,
				"y": -2.7206396143,
				"z": -1.312928489,
				"element": "O" 
			},
			{
				"x": -0.3276173213,
				"y": -1.8846150185,
				"z": -1.3663869188,
				"element": "C" 
			},
			{
				"x": -0.9428604081,
				"y": -2.9242854995,
				"z": -2.010269423,
				"element": "C" 
			},
			{
				"x": -2.3049824762,
				"y": -2.5511221547,
				"z": -2.201923266,
				"element": "C" 
			},
			{
				"x": -2.4156800147,
				"y": -1.3033021128,
				"z": -1.6594994041,
				"element": "C" 
			},
			{
				"x": -3.870352369,
				"y": -0.1393852478,
				"z": -1.5174725196,
				"element": "Br" 
			},
			{
				"x": -1.2399185856,
				"y": -0.874514267,
				"z": -1.1478152991,
				"element": "O" 
			},
			{
				"x": 0.7716268929,
				"y": 0.3255595657,
				"z": 0.3202269683,
				"element": "C" 
			},
			{
				"x": 0.0879163802,
				"y": 0.1627843349,
				"z": 1.5464991729,
				"element": "C" 
			},
			{
				"x": -0.634316603,
				"y": 1.2485630879,
				"z": 2.0680152499,
				"element": "C" 
			},
			{
				"x": -0.6701191018,
				"y": 2.4755969962,
				"z": 1.4162139334,
				"element": "C" 
			},
			{
				"x": 0.0210239792,
				"y": 2.6370935904,
				"z": 0.2142974618,
				"element": "C" 
			},
			{
				"x": 0.7325587664,
				"y": 1.5672502353,
				"z": -0.3229702163,
				"element": "C" 
			},
			{
				"x": 0.0373847968,
				"y": -1.0819073555,
				"z": 2.3732661541,
				"element": "C" 
			},
			{
				"x": 0.8015055254,
				"y": -2.1006018166,
				"z": 1.9179185663,
				"element": "O" 
			},
			{
				"x": -0.6232017076,
				"y": -1.1889998884,
				"z": 3.3883542557,
				"element": "O" 
			},
			{
				"x": 3.3864770729,
				"y": 0.3142987246,
				"z": 0.0028789001,
				"element": "H" 
			},
			{
				"x": 3.1248942358,
				"y": -1.0665197724,
				"z": 1.1033745688,
				"element": "H" 
			},
			{
				"x": 3.5182546429,
				"y": -1.365129098,
				"z": -0.6043355086,
				"element": "H" 
			},
			{
				"x": -0.4553375348,
				"y": -3.840524644,
				"z": -2.3063129485,
				"element": "H" 
			},
			{
				"x": -3.0938912608,
				"y": -3.1171909846,
				"z": -2.6725537786,
				"element": "H" 
			},
			{
				"x": -1.1622522162,
				"y": 1.0959966273,
				"z": 3.0026478347,
				"element": "H" 
			},
			{
				"x": -1.2331900545,
				"y": 3.3001455409,
				"z": 1.8422154987,
				"element": "H" 
			},
			{
				"x": 0.0010616953,
				"y": 3.5890510785,
				"z": -0.3080343256,
				"element": "H" 
			},
			{
				"x": 1.2633507024,
				"y": 1.6720589213,
				"z": -1.2639640698,
				"element": "H" 
			},
			{
				"x": 0.6666320084,
				"y": -2.8306096734,
				"z": 2.5454807049,
				"element": "H" 
			}
		],
		 "valence_orbital": [ 
			{
				"type": "occ",
				"energy": -0.27602,
				"method": "rhf"
			},
			{
				"type": "occ",
				"energy": -0.26913,
				"method": "rhf"
			},
			{
				"type": "occ",
				"energy": -0.25315,
				"method": "rhf"
			},
			{
				"type": "occ",
				"energy": -0.24573,
				"method": "rhf"
			},
			{
				"type": "occ",
				"energy": -0.23068,
				"method": "rhf"
			},
			{
				"type": "unocc",
				"energy": -0.05778,
				"method": "rhf"
			},
			{
				"type": "unocc",
				"energy": -0.0374,
				"method": "rhf"
			},
			{
				"type": "unocc",
				"energy": -0.02077,
				"method": "rhf"
			},
			{
				"type": "unocc",
				"energy": 0.00359,
				"method": "rhf"
			},
			{
				"type": "unocc",
				"energy": 0.03577,
				"method": "rhf"
			}
		],
		"cosmo_sigma_profile": { 
			"-0.025": 0.0,
			"-0.024": 0.0,
			"-0.023": 0.0,
			"-0.022": 0.0,
			"-0.021": 0.0,
			"-0.02": 0.0,
			"-0.019": 0.175319717482,
			"-0.018": 0.68271095605,
			"-0.017": 0.920143556935,
			"-0.016": 0.929293862242,
			"-0.015": 1.13414876917,
			"-0.014": 0.333065091353,
			"-0.013": 0.25269945894,
			"-0.012": 1.03841256276,
			"-0.011": 0.911637658404,
			"-0.01": 0.738966857053,
			"-0.009": 1.02026643901,
			"-0.008": 3.5029750901,
			"-0.007": 9.03381345183,
			"-0.006": 14.2867829348,
			"-0.005": 15.7541002532,
			"-0.004": 18.3309637659,
			"-0.003": 20.2101261085,
			"-0.002": 26.6573555859,
			"-0.001": 23.7325719894,
			"0.0": 24.3658693921,
			"0.001": 25.4859166018,
			"0.002": 28.5588416027,
			"0.003": 29.8750736058,
			"0.004": 8.24243046988,
			"0.005": 6.26370833727,
			"0.006": 3.43273894081,
			"0.007": 4.03588942351,
			"0.008": 3.26436286344,
			"0.009": 3.22136837375,
			"0.01": 3.70612378387,
			"0.011": 6.16260285916,
			"0.012": 4.82490496625,
			"0.013": 5.02387553946,
			"0.014": 0.948186672116,
			"0.015": 0.0,
			"0.016": 0.0,
			"0.017": 0.0,
			"0.018": 0.0,
			"0.019": 0.0,
			"0.02": 0.0,
			"0.021": 0.0,
			"0.022": 0.0,
			"0.023": 0.0,
			"0.024": 0.0,
			"0.025": 0.0
		}
	}
}
