{
	 "smiles": "NC1=CC(F)=C(Br)C=C1F", 
	 "Tm": 348.15, 
	 "num_atms": 14, 
	 "gaussian": { 
		 "optdone": 1, 
		 "sigma_profile": "yes", 
		 "theory": "DFT", 
		 "functional": "B3LYP", 
		 "basiset": "6-31G**", 
		 "properties": { 
			 "R2extent": 2645.8502, 
			 "electric_dipole_moment_norm": 3.3306786906, 
			 "electric_quadrupole_moment_norm": 9.46194869094, 
			 "total_energy": -3056.86941709, 
			 "HOMO_LUMO_gap": 0.19658, 
			 "cosmo_polarized_energy": -7.88, 
			 "cosmo_cavitation_energy": 21.62, 
			 "cosmo_dispersion_energy": -16.39, 
			 "cosmo_repulsion_energy": 1.29, 
			 "cosmo_total_nonelectrostatic_energy": 6.52, 
			 "SMD_solvation_energy": 3.52 
		},
		"coords": [
			{
				"x": -1.8600932297,
				"y": -0.4954347711,
				"z": 3.1558268066,
				"element": "N" 
			},
			{
				"x": -1.3072697264,
				"y": -0.0062970173,
				"z": 1.9828810404,
				"element": "C" 
			},
			{
				"x": 0.0691714309,
				"y": 0.194116145,
				"z": 1.8106621178,
				"element": "C" 
			},
			{
				"x": 0.5560779695,
				"y": 0.7425540726,
				"z": 0.6291556455,
				"element": "C" 
			},
			{
				"x": 1.8826146542,
				"y": 0.9159294743,
				"z": 0.5062142945,
				"element": "F" 
			},
			{
				"x": -0.2925121627,
				"y": 1.1094943554,
				"z": -0.4123313671,
				"element": "C" 
			},
			{
				"x": 0.4127591811,
				"y": 1.854610428,
				"z": -2.0100545953,
				"element": "Br" 
			},
			{
				"x": -1.6674495893,
				"y": 0.9143795181,
				"z": -0.2588333969,
				"element": "C" 
			},
			{
				"x": -2.1437595874,
				"y": 0.3679933318,
				"z": 0.9177027625,
				"element": "C" 
			},
			{
				"x": -3.4768997517,
				"y": 0.1601601959,
				"z": 1.0728979499,
				"element": "F" 
			},
			{
				"x": -2.8052327159,
				"y": -0.8400047627,
				"z": 3.0660772376,
				"element": "H" 
			},
			{
				"x": -1.2646360638,
				"y": -1.0880891702,
				"z": 3.7153587688,
				"element": "H" 
			},
			{
				"x": 0.773731979,
				"y": -0.066109522,
				"z": 2.5935752586,
				"element": "H" 
			},
			{
				"x": -2.3618023877,
				"y": 1.1794977224,
				"z": -1.0467325228,
				"element": "H" 
			}
		],
		 "valence_orbital": [ 
			{
				"type": "occ",
				"energy": -0.34742,
				"method": "rhf"
			},
			{
				"type": "occ",
				"energy": -0.28818,
				"method": "rhf"
			},
			{
				"type": "occ",
				"energy": -0.28736,
				"method": "rhf"
			},
			{
				"type": "occ",
				"energy": -0.25592,
				"method": "rhf"
			},
			{
				"type": "occ",
				"energy": -0.21358,
				"method": "rhf"
			},
			{
				"type": "unocc",
				"energy": -0.017,
				"method": "rhf"
			},
			{
				"type": "unocc",
				"energy": 0.00146,
				"method": "rhf"
			},
			{
				"type": "unocc",
				"energy": 0.00331,
				"method": "rhf"
			},
			{
				"type": "unocc",
				"energy": 0.06915,
				"method": "rhf"
			},
			{
				"type": "unocc",
				"energy": 0.10722,
				"method": "rhf"
			}
		],
		"cosmo_sigma_profile": { 
			"-0.025": 0.0,
			"-0.024": 0.0,
			"-0.023": 0.0,
			"-0.022": 0.0,
			"-0.021": 0.0,
			"-0.02": 0.0,
			"-0.019": 0.0,
			"-0.018": 0.0,
			"-0.017": 0.0,
			"-0.016": 0.0,
			"-0.015": 0.0,
			"-0.014": 0.25056036948,
			"-0.013": 1.80564826399,
			"-0.012": 2.94540182678,
			"-0.011": 2.88355016025,
			"-0.01": 2.74009973288,
			"-0.009": 2.4480261255,
			"-0.008": 5.53997028895,
			"-0.007": 4.48676252593,
			"-0.006": 3.57939998312,
			"-0.005": 5.1898262041,
			"-0.004": 6.16942021362,
			"-0.003": 5.29146683183,
			"-0.002": 6.07053721937,
			"-0.001": 9.02322931026,
			"0.0": 13.3714311577,
			"0.001": 22.5388660871,
			"0.002": 22.8081651899,
			"0.003": 17.9886804617,
			"0.004": 26.7494078885,
			"0.005": 9.49392162233,
			"0.006": 1.24232014284,
			"0.007": 0.772561102735,
			"0.008": 0.624426418977,
			"0.009": 1.00474268861,
			"0.01": 0.405148362271,
			"0.011": 0.732704993192,
			"0.012": 0.527776810682,
			"0.013": 0.240911781401,
			"0.014": 0.0,
			"0.015": 0.0,
			"0.016": 0.0,
			"0.017": 0.0,
			"0.018": 0.0,
			"0.019": 0.0,
			"0.02": 0.0,
			"0.021": 0.0,
			"0.022": 0.0,
			"0.023": 0.0,
			"0.024": 0.0,
			"0.025": 0.0
		}
	}
}
