{
	 "smiles": "COC(=O)C1=C(C=CC(=C1)[N+]([O-])=O)S(Cl)(=O)=O", 
	 "Tm": 383.15, 
	 "num_atms": 23, 
	 "gaussian": { 
		 "optdone": 1, 
		 "sigma_profile": "yes", 
		 "theory": "DFT", 
		 "functional": "B3LYP", 
		 "basiset": "6-31G**", 
		 "properties": { 
			 "R2extent": 6034.7262, 
			 "electric_dipole_moment_norm": 2.11946138913, 
			 "electric_quadrupole_moment_norm": 29.4181291178, 
			 "total_energy": -1672.76029118, 
			 "HOMO_LUMO_gap": 0.17194, 
			 "cosmo_polarized_energy": -15.41, 
			 "cosmo_cavitation_energy": 32.47, 
			 "cosmo_dispersion_energy": -23.68, 
			 "cosmo_repulsion_energy": 1.8, 
			 "cosmo_total_nonelectrostatic_energy": 10.59, 
			 "SMD_solvation_energy": 8.07 
		},
		"coords": [
			{
				"x": 0.2194569798,
				"y": -4.5990145241,
				"z": -0.0178396321,
				"element": "C" 
			},
			{
				"x": 0.2714932434,
				"y": -3.1572169285,
				"z": 0.0144068246,
				"element": "O" 
			},
			{
				"x": -0.8602532471,
				"y": -2.537968508,
				"z": -0.3600215343,
				"element": "C" 
			},
			{
				"x": -1.8700142599,
				"y": -3.0994402008,
				"z": -0.7153067071,
				"element": "O" 
			},
			{
				"x": -0.6830862506,
				"y": -1.0428659196,
				"z": -0.3459769517,
				"element": "C" 
			},
			{
				"x": -1.6957021146,
				"y": -0.1373604326,
				"z": 0.0236711977,
				"element": "C" 
			},
			{
				"x": -1.5163995627,
				"y": 1.2431948646,
				"z": -0.0791283348,
				"element": "C" 
			},
			{
				"x": -0.3162141489,
				"y": 1.7539776763,
				"z": -0.5684438589,
				"element": "C" 
			},
			{
				"x": 0.6863810826,
				"y": 0.858057851,
				"z": -0.9184152901,
				"element": "C" 
			},
			{
				"x": 0.5284029032,
				"y": -0.5188064395,
				"z": -0.8070313141,
				"element": "C" 
			},
			{
				"x": 1.9725479095,
				"y": 1.3855875371,
				"z": -1.4234045105,
				"element": "N" 
			},
			{
				"x": 2.0851704139,
				"y": 2.6056316152,
				"z": -1.5056061231,
				"element": "O" 
			},
			{
				"x": 2.8377915284,
				"y": 0.5683983158,
				"z": -1.7256676515,
				"element": "O" 
			},
			{
				"x": -3.2448671502,
				"y": -0.6450841399,
				"z": 0.8239286685,
				"element": "S" 
			},
			{
				"x": -4.457059646,
				"y": -1.1730272261,
				"z": -0.8126061765,
				"element": "Cl" 
			},
			{
				"x": -3.0076281332,
				"y": -1.8271157738,
				"z": 1.6380619686,
				"element": "O" 
			},
			{
				"x": -3.8512503669,
				"y": 0.5556960053,
				"z": 1.3877503429,
				"element": "O" 
			},
			{
				"x": 1.198682883,
				"y": -4.9316453122,
				"z": 0.3232691005,
				"element": "H" 
			},
			{
				"x": -0.5681396912,
				"y": -4.9608128506,
				"z": 0.6462579555,
				"element": "H" 
			},
			{
				"x": 0.0215979824,
				"y": -4.9493538553,
				"z": -1.0333660854,
				"element": "H" 
			},
			{
				"x": -2.3095693937,
				"y": 1.9085375248,
				"z": 0.2393566047,
				"element": "H" 
			},
			{
				"x": -0.1485662701,
				"y": 2.8190138659,
				"z": -0.6665103237,
				"element": "H" 
			},
			{
				"x": 1.3408253088,
				"y": -1.176883145,
				"z": -1.0846781692,
				"element": "H" 
			}
		],
		 "valence_orbital": [ 
			{
				"type": "occ",
				"energy": -0.32109,
				"method": "rhf"
			},
			{
				"type": "occ",
				"energy": -0.3186,
				"method": "rhf"
			},
			{
				"type": "occ",
				"energy": -0.31798,
				"method": "rhf"
			},
			{
				"type": "occ",
				"energy": -0.31595,
				"method": "rhf"
			},
			{
				"type": "occ",
				"energy": -0.29926,
				"method": "rhf"
			},
			{
				"type": "unocc",
				"energy": -0.12732,
				"method": "rhf"
			},
			{
				"type": "unocc",
				"energy": -0.08935,
				"method": "rhf"
			},
			{
				"type": "unocc",
				"energy": -0.0794,
				"method": "rhf"
			},
			{
				"type": "unocc",
				"energy": -0.04758,
				"method": "rhf"
			},
			{
				"type": "unocc",
				"energy": 0.00669,
				"method": "rhf"
			}
		],
		"cosmo_sigma_profile": { 
			"-0.025": 0.0,
			"-0.024": 0.0,
			"-0.023": 0.0,
			"-0.022": 0.0,
			"-0.021": 0.0,
			"-0.02": 0.0,
			"-0.019": 0.0,
			"-0.018": 0.0,
			"-0.017": 0.0,
			"-0.016": 0.0,
			"-0.015": 0.0,
			"-0.014": 0.0,
			"-0.013": 0.0,
			"-0.012": 0.0,
			"-0.011": 0.0737749011338,
			"-0.01": 2.05769198924,
			"-0.009": 4.42054948504,
			"-0.008": 5.68910134329,
			"-0.007": 10.7012193069,
			"-0.006": 16.1810628381,
			"-0.005": 18.9431311272,
			"-0.004": 27.7856409667,
			"-0.003": 22.4486752026,
			"-0.002": 16.1276969388,
			"-0.001": 13.145796872,
			"0.0": 11.2846900843,
			"0.001": 11.2548588289,
			"0.002": 15.220354491,
			"0.003": 12.6656475632,
			"0.004": 8.60079032243,
			"0.005": 9.61685949486,
			"0.006": 14.3372911046,
			"0.007": 16.2618494487,
			"0.008": 14.0718634249,
			"0.009": 8.00598788563,
			"0.01": 3.27629939081,
			"0.011": 1.64397219842,
			"0.012": 0.0,
			"0.013": 0.0,
			"0.014": 0.0,
			"0.015": 0.0,
			"0.016": 0.0,
			"0.017": 0.0,
			"0.018": 0.0,
			"0.019": 0.0,
			"0.02": 0.0,
			"0.021": 0.0,
			"0.022": 0.0,
			"0.023": 0.0,
			"0.024": 0.0,
			"0.025": 0.0
		}
	}
}
