{
	 "smiles": "NC1=CC(=CC=C1)C1=CN2C=CC=NC2=N1", 
	 "Tm": 401.15, 
	 "num_atms": 26, 
	 "gaussian": { 
		 "optdone": 1, 
		 "sigma_profile": "yes", 
		 "theory": "DFT", 
		 "functional": "B3LYP", 
		 "basiset": "6-31G**", 
		 "properties": { 
			 "R2extent": 5275.6626, 
			 "electric_dipole_moment_norm": 3.41753172626, 
			 "electric_quadrupole_moment_norm": 29.0260731118, 
			 "total_energy": -682.306621704, 
			 "HOMO_LUMO_gap": 0.13958, 
			 "cosmo_polarized_energy": -20.44, 
			 "cosmo_cavitation_energy": 30.54, 
			 "cosmo_dispersion_energy": -22.92, 
			 "cosmo_repulsion_energy": 1.74, 
			 "cosmo_total_nonelectrostatic_energy": 9.35, 
			 "SMD_solvation_energy": 2.59 
		},
		"coords": [
			{
				"x": 1.1192445351,
				"y": -3.2080663486,
				"z": 1.1586023989,
				"element": "N" 
			},
			{
				"x": 0.7620706865,
				"y": -2.6814890165,
				"z": -0.0842722241,
				"element": "C" 
			},
			{
				"x": 0.4093732088,
				"y": -1.3297407308,
				"z": -0.208061103,
				"element": "C" 
			},
			{
				"x": 0.1046945652,
				"y": -0.7745197258,
				"z": -1.4562068497,
				"element": "C" 
			},
			{
				"x": 0.1499156664,
				"y": -1.5841442526,
				"z": -2.6040613309,
				"element": "C" 
			},
			{
				"x": 0.4988503732,
				"y": -2.9270032043,
				"z": -2.482881101,
				"element": "C" 
			},
			{
				"x": 0.8038291728,
				"y": -3.4801062207,
				"z": -1.240748056,
				"element": "C" 
			},
			{
				"x": -0.2611065431,
				"y": 0.6476633376,
				"z": -1.532213271,
				"element": "C" 
			},
			{
				"x": -0.5401724227,
				"y": 1.391343893,
				"z": -2.6745718995,
				"element": "C" 
			},
			{
				"x": -0.8232312796,
				"y": 2.6591327062,
				"z": -2.2324387602,
				"element": "N" 
			},
			{
				"x": -1.1642198459,
				"y": 3.8145801049,
				"z": -2.8736197545,
				"element": "C" 
			},
			{
				"x": -1.3838886791,
				"y": 4.9322694848,
				"z": -2.1141115532,
				"element": "C" 
			},
			{
				"x": -1.2470097764,
				"y": 4.8358066081,
				"z": -0.7018248397,
				"element": "C" 
			},
			{
				"x": -0.9179689531,
				"y": 3.727938305,
				"z": -0.0670584919,
				"element": "N" 
			},
			{
				"x": -0.7006452469,
				"y": 2.6282166557,
				"z": -0.8100301498,
				"element": "C" 
			},
			{
				"x": -0.3629598685,
				"y": 1.4168144809,
				"z": -0.4028701691,
				"element": "N" 
			},
			{
				"x": 0.7614037521,
				"y": -2.7000020481,
				"z": 1.9556870761,
				"element": "H" 
			},
			{
				"x": 0.9911103677,
				"y": -4.2056503281,
				"z": 1.2570157222,
				"element": "H" 
			},
			{
				"x": 0.3689351953,
				"y": -0.6882498605,
				"z": 0.666665427,
				"element": "H" 
			},
			{
				"x": -0.0906595577,
				"y": -1.1749104229,
				"z": -3.5800491464,
				"element": "H" 
			},
			{
				"x": 0.5319382311,
				"y": -3.556852559,
				"z": -3.3676908487,
				"element": "H" 
			},
			{
				"x": 1.0795281603,
				"y": -4.5288315054,
				"z": -1.16131718,
				"element": "H" 
			},
			{
				"x": -0.5545679619,
				"y": 1.1388251519,
				"z": -3.7229506584,
				"element": "H" 
			},
			{
				"x": -1.2415549667,
				"y": 3.778633327,
				"z": -3.9545216931,
				"element": "H" 
			},
			{
				"x": -1.6563744993,
				"y": 5.8687742198,
				"z": -2.5851095716,
				"element": "H" 
			},
			{
				"x": -1.4190343138,
				"y": 5.7161679485,
				"z": -0.0854619723,
				"element": "H" 
			}
		],
		 "valence_orbital": [ 
			{
				"type": "occ",
				"energy": -0.26984,
				"method": "rhf"
			},
			{
				"type": "occ",
				"energy": -0.26413,
				"method": "rhf"
			},
			{
				"type": "occ",
				"energy": -0.23226,
				"method": "rhf"
			},
			{
				"type": "occ",
				"energy": -0.2137,
				"method": "rhf"
			},
			{
				"type": "occ",
				"energy": -0.19473,
				"method": "rhf"
			},
			{
				"type": "unocc",
				"energy": -0.05515,
				"method": "rhf"
			},
			{
				"type": "unocc",
				"energy": -0.01346,
				"method": "rhf"
			},
			{
				"type": "unocc",
				"energy": 0.00693,
				"method": "rhf"
			},
			{
				"type": "unocc",
				"energy": 0.02326,
				"method": "rhf"
			},
			{
				"type": "unocc",
				"energy": 0.08349,
				"method": "rhf"
			}
		],
		"cosmo_sigma_profile": { 
			"-0.025": 0.0,
			"-0.024": 0.0,
			"-0.023": 0.0,
			"-0.022": 0.0,
			"-0.021": 0.0,
			"-0.02": 0.0,
			"-0.019": 0.0,
			"-0.018": 0.0,
			"-0.017": 0.0,
			"-0.016": 0.0,
			"-0.015": 0.0,
			"-0.014": 0.0,
			"-0.013": 0.246035436549,
			"-0.012": 2.30381776108,
			"-0.011": 4.18241805634,
			"-0.01": 6.06303747198,
			"-0.009": 7.5883336751,
			"-0.008": 9.69681878322,
			"-0.007": 11.6648960475,
			"-0.006": 11.4515887093,
			"-0.005": 12.082584044,
			"-0.004": 12.9695735035,
			"-0.003": 14.3979052472,
			"-0.002": 14.1786635936,
			"-0.001": 13.3083457166,
			"0.0": 14.1590542748,
			"0.001": 13.7478893828,
			"0.002": 11.9492953613,
			"0.003": 13.3218111515,
			"0.004": 11.7582064535,
			"0.005": 12.1130485523,
			"0.006": 14.9045739868,
			"0.007": 7.91801005552,
			"0.008": 3.17018607403,
			"0.009": 3.31891711177,
			"0.01": 3.14744413378,
			"0.011": 3.00178696435,
			"0.012": 2.73455296018,
			"0.013": 3.37915791856,
			"0.014": 3.56281406188,
			"0.015": 2.70454443557,
			"0.016": 0.590055554271,
			"0.017": 0.0,
			"0.018": 0.0,
			"0.019": 0.0,
			"0.02": 0.0,
			"0.021": 0.0,
			"0.022": 0.0,
			"0.023": 0.0,
			"0.024": 0.0,
			"0.025": 0.0
		}
	}
}
