{
	 "smiles": "CCC(C)=O", 
	 "Tm": 186.65, 
	 "num_atms": 13, 
	 "gaussian": { 
		 "optdone": 1, 
		 "sigma_profile": "yes", 
		 "theory": "DFT", 
		 "functional": "B3LYP", 
		 "basiset": "6-31G**", 
		 "properties": { 
			 "R2extent": 1142.9836, 
			 "electric_dipole_moment_norm": 2.68879853838, 
			 "electric_quadrupole_moment_norm": 9.38864202108, 
			 "total_energy": -232.477528755, 
			 "HOMO_LUMO_gap": 0.23371, 
			 "cosmo_polarized_energy": -6.67, 
			 "cosmo_cavitation_energy": 16.06, 
			 "cosmo_dispersion_energy": -11.78, 
			 "cosmo_repulsion_energy": 1.06, 
			 "cosmo_total_nonelectrostatic_energy": 5.34, 
			 "SMD_solvation_energy": 3.8 
		},
		"coords": [
			{
				"x": 0.5012315469,
				"y": -1.1769100313,
				"z": 2.8074255679,
				"element": "C" 
			},
			{
				"x": 0.1079704165,
				"y": -0.9556204638,
				"z": 1.348810364,
				"element": "C" 
			},
			{
				"x": -1.0636191911,
				"y": -1.8195957531,
				"z": 0.8937668303,
				"element": "C" 
			},
			{
				"x": -1.5097484552,
				"y": -1.6547274941,
				"z": -0.5502958969,
				"element": "C" 
			},
			{
				"x": -1.6145562676,
				"y": -2.6013684826,
				"z": 1.6456431954,
				"element": "O" 
			},
			{
				"x": -0.3362910782,
				"y": -0.9567365952,
				"z": 3.4744971109,
				"element": "H" 
			},
			{
				"x": 0.7869775867,
				"y": -2.2177470879,
				"z": 2.9804629101,
				"element": "H" 
			},
			{
				"x": 1.3431220809,
				"y": -0.5354705073,
				"z": 3.0841643811,
				"element": "H" 
			},
			{
				"x": -0.1583887793,
				"y": 0.095146872,
				"z": 1.164257593,
				"element": "H" 
			},
			{
				"x": 0.953617337,
				"y": -1.1543892895,
				"z": 0.6746790546,
				"element": "H" 
			},
			{
				"x": -1.8043498229,
				"y": -0.6170965952,
				"z": -0.7459018045,
				"element": "H" 
			},
			{
				"x": -2.3511497621,
				"y": -2.3182943806,
				"z": -0.7543475564,
				"element": "H" 
			},
			{
				"x": -0.6858156115,
				"y": -1.8853901912,
				"z": -1.2356617493,
				"element": "H" 
			}
		],
		 "valence_orbital": [ 
			{
				"type": "occ",
				"energy": -0.36294,
				"method": "rhf"
			},
			{
				"type": "occ",
				"energy": -0.36046,
				"method": "rhf"
			},
			{
				"type": "occ",
				"energy": -0.35807,
				"method": "rhf"
			},
			{
				"type": "occ",
				"energy": -0.34102,
				"method": "rhf"
			},
			{
				"type": "occ",
				"energy": -0.24305,
				"method": "rhf"
			},
			{
				"type": "unocc",
				"energy": -0.00934,
				"method": "rhf"
			},
			{
				"type": "unocc",
				"energy": 0.08548,
				"method": "rhf"
			},
			{
				"type": "unocc",
				"energy": 0.12251,
				"method": "rhf"
			},
			{
				"type": "unocc",
				"energy": 0.14718,
				"method": "rhf"
			},
			{
				"type": "unocc",
				"energy": 0.15486,
				"method": "rhf"
			}
		],
		"cosmo_sigma_profile": { 
			"-0.025": 0.0,
			"-0.024": 0.0,
			"-0.023": 0.0,
			"-0.022": 0.0,
			"-0.021": 0.0,
			"-0.02": 0.0,
			"-0.019": 0.0,
			"-0.018": 0.0,
			"-0.017": 0.0,
			"-0.016": 0.0,
			"-0.015": 0.0,
			"-0.014": 0.0,
			"-0.013": 0.0,
			"-0.012": 0.0,
			"-0.011": 0.0,
			"-0.01": 0.0,
			"-0.009": 0.0,
			"-0.008": 0.0,
			"-0.007": 0.193819965358,
			"-0.006": 7.01039389352,
			"-0.005": 10.6423426661,
			"-0.004": 10.0784784331,
			"-0.003": 14.5064714225,
			"-0.002": 16.8120711536,
			"-0.001": 17.7984414674,
			"0.0": 11.7057321528,
			"0.001": 8.21923755398,
			"0.002": 3.53328620261,
			"0.003": 2.22205960711,
			"0.004": 1.89700140728,
			"0.005": 1.69200087274,
			"0.006": 1.5404655635,
			"0.007": 0.898558582298,
			"0.008": 1.93958466513,
			"0.009": 2.17466221132,
			"0.01": 2.0694678418,
			"0.011": 2.6861027568,
			"0.012": 4.33492717328,
			"0.013": 2.93471017641,
			"0.014": 0.276449864399,
			"0.015": 0.0,
			"0.016": 0.0,
			"0.017": 0.0,
			"0.018": 0.0,
			"0.019": 0.0,
			"0.02": 0.0,
			"0.021": 0.0,
			"0.022": 0.0,
			"0.023": 0.0,
			"0.024": 0.0,
			"0.025": 0.0
		}
	}
}
