{
	 "smiles": "O=C(COC1=CC=C2C=CC=CC2=C1)ON1C(=O)CCC1=O", 
	 "Tm": 424.15, 
	 "num_atms": 35, 
	 "gaussian": { 
		 "optdone": 1, 
		 "sigma_profile": "yes", 
		 "theory": "DFT", 
		 "functional": "B3LYP", 
		 "basiset": "6-31G**", 
		 "properties": { 
			 "R2extent": 7845.3509, 
			 "electric_dipole_moment_norm": 5.90127809377, 
			 "electric_quadrupole_moment_norm": 22.8162942425, 
			 "total_energy": -1048.36925945, 
			 "HOMO_LUMO_gap": 0.17468, 
			 "cosmo_polarized_energy": -20.13, 
			 "cosmo_cavitation_energy": 40.49, 
			 "cosmo_dispersion_energy": -27.33, 
			 "cosmo_repulsion_energy": 2.07, 
			 "cosmo_total_nonelectrostatic_energy": 15.23, 
			 "SMD_solvation_energy": 9.49 
		},
		"coords": [
			{
				"x": -4.9525672384,
				"y": -0.2090132564,
				"z": 1.2951632369,
				"element": "O" 
			},
			{
				"x": -3.8102318889,
				"y": -0.3688620113,
				"z": 0.9781690885,
				"element": "C" 
			},
			{
				"x": -2.7189008965,
				"y": 0.6794752402,
				"z": 1.1499846061,
				"element": "C" 
			},
			{
				"x": -2.0719888654,
				"y": 0.8794873927,
				"z": -0.0929150187,
				"element": "O" 
			},
			{
				"x": -0.9593935904,
				"y": 1.6816902202,
				"z": -0.1279557229,
				"element": "C" 
			},
			{
				"x": -0.3353241012,
				"y": 1.7481818692,
				"z": -1.4039009341,
				"element": "C" 
			},
			{
				"x": 0.7941138226,
				"y": 2.5079975318,
				"z": -1.5728158164,
				"element": "C" 
			},
			{
				"x": 1.3611295661,
				"y": 3.2393233898,
				"z": -0.4908373252,
				"element": "C" 
			},
			{
				"x": 2.5292402521,
				"y": 4.0311817462,
				"z": -0.6393383213,
				"element": "C" 
			},
			{
				"x": 3.0501899909,
				"y": 4.72873491,
				"z": 0.4285619249,
				"element": "C" 
			},
			{
				"x": 2.4197198988,
				"y": 4.6617980016,
				"z": 1.6939178205,
				"element": "C" 
			},
			{
				"x": 1.283962107,
				"y": 3.9015296601,
				"z": 1.8700433796,
				"element": "C" 
			},
			{
				"x": 0.7228677042,
				"y": 3.1704296992,
				"z": 0.7892790292,
				"element": "C" 
			},
			{
				"x": -0.4495832501,
				"y": 2.3773839532,
				"z": 0.9469751307,
				"element": "C" 
			},
			{
				"x": -3.4719487119,
				"y": -1.6142258372,
				"z": 0.4496522099,
				"element": "O" 
			},
			{
				"x": -2.1302413523,
				"y": -1.8659912164,
				"z": 0.2362964797,
				"element": "N" 
			},
			{
				"x": -1.6073710682,
				"y": -1.9526058239,
				"z": -1.065414393,
				"element": "C" 
			},
			{
				"x": -2.2112281082,
				"y": -1.7130238924,
				"z": -2.0794942961,
				"element": "O" 
			},
			{
				"x": -0.1548857745,
				"y": -2.382064986,
				"z": -0.8855843927,
				"element": "C" 
			},
			{
				"x": 0.0230515769,
				"y": -2.6689325231,
				"z": 0.6201531413,
				"element": "C" 
			},
			{
				"x": -1.2853379919,
				"y": -2.252102275,
				"z": 1.2791963723,
				"element": "C" 
			},
			{
				"x": -1.5743670943,
				"y": -2.2111957679,
				"z": 2.4536266245,
				"element": "O" 
			},
			{
				"x": -3.2196165173,
				"y": 1.5893595037,
				"z": 1.4967543043,
				"element": "H" 
			},
			{
				"x": -2.0184491817,
				"y": 0.3411893727,
				"z": 1.9259641789,
				"element": "H" 
			},
			{
				"x": -0.7817911679,
				"y": 1.1901104437,
				"z": -2.2207964553,
				"element": "H" 
			},
			{
				"x": 1.2702646066,
				"y": 2.5604980676,
				"z": -2.5484074961,
				"element": "H" 
			},
			{
				"x": 3.0071471682,
				"y": 4.0792001216,
				"z": -1.6146073666,
				"element": "H" 
			},
			{
				"x": 3.944198807,
				"y": 5.3322413013,
				"z": 0.3032283328,
				"element": "H" 
			},
			{
				"x": 2.8358744167,
				"y": 5.2152865978,
				"z": 2.5307695804,
				"element": "H" 
			},
			{
				"x": 0.8016634522,
				"y": 3.8526717017,
				"z": 2.8429914852,
				"element": "H" 
			},
			{
				"x": -0.9241163046,
				"y": 2.3451319165,
				"z": 1.9216927965,
				"element": "H" 
			},
			{
				"x": 0.0424556353,
				"y": -3.2459989249,
				"z": -1.5246316681,
				"element": "H" 
			},
			{
				"x": 0.4826965716,
				"y": -1.5641068141,
				"z": -1.2342128984,
				"element": "H" 
			},
			{
				"x": 0.8456654572,
				"y": -2.1152578136,
				"z": 1.0792937727,
				"element": "H" 
			},
			{
				"x": 0.1879020704,
				"y": -3.7295214986,
				"z": 0.83339861,
				"element": "H" 
			}
		],
		 "valence_orbital": [ 
			{
				"type": "occ",
				"energy": -0.29185,
				"method": "rhf"
			},
			{
				"type": "occ",
				"energy": -0.28683,
				"method": "rhf"
			},
			{
				"type": "occ",
				"energy": -0.27484,
				"method": "rhf"
			},
			{
				"type": "occ",
				"energy": -0.24157,
				"method": "rhf"
			},
			{
				"type": "occ",
				"energy": -0.22062,
				"method": "rhf"
			},
			{
				"type": "unocc",
				"energy": -0.04594,
				"method": "rhf"
			},
			{
				"type": "unocc",
				"energy": -0.03688,
				"method": "rhf"
			},
			{
				"type": "unocc",
				"energy": -0.02828,
				"method": "rhf"
			},
			{
				"type": "unocc",
				"energy": -0.01433,
				"method": "rhf"
			},
			{
				"type": "unocc",
				"energy": 0.00863,
				"method": "rhf"
			}
		],
		"cosmo_sigma_profile": { 
			"-0.025": 0.0,
			"-0.024": 0.0,
			"-0.023": 0.0,
			"-0.022": 0.0,
			"-0.021": 0.0,
			"-0.02": 0.0,
			"-0.019": 0.0,
			"-0.018": 0.0,
			"-0.017": 0.0,
			"-0.016": 0.0,
			"-0.015": 0.0,
			"-0.014": 0.0,
			"-0.013": 0.0,
			"-0.012": 0.0,
			"-0.011": 0.0,
			"-0.01": 0.473141301966,
			"-0.009": 3.41807072256,
			"-0.008": 15.8879441186,
			"-0.007": 19.0846365986,
			"-0.006": 24.1091696143,
			"-0.005": 23.4746210331,
			"-0.004": 25.0827016028,
			"-0.003": 22.1551751864,
			"-0.002": 13.554840001,
			"-0.001": 13.8653284016,
			"0.0": 13.9116879213,
			"0.001": 13.3896400054,
			"0.002": 16.8051960284,
			"0.003": 20.7123757886,
			"0.004": 27.6947125252,
			"0.005": 16.7847554425,
			"0.006": 11.6847142766,
			"0.007": 6.54167497103,
			"0.008": 6.69568727302,
			"0.009": 8.92856825722,
			"0.01": 9.48344597098,
			"0.011": 8.49845649038,
			"0.012": 1.81193930147,
			"0.013": 0.0,
			"0.014": 0.0,
			"0.015": 0.0,
			"0.016": 0.0,
			"0.017": 0.0,
			"0.018": 0.0,
			"0.019": 0.0,
			"0.02": 0.0,
			"0.021": 0.0,
			"0.022": 0.0,
			"0.023": 0.0,
			"0.024": 0.0,
			"0.025": 0.0
		}
	}
}
