{
	 "smiles": "NC1=CC(=CC=C1)C(=O)N1CCCCC1", 
	 "Tm": 395.15, 
	 "num_atms": 31, 
	 "gaussian": { 
		 "optdone": 1, 
		 "sigma_profile": "yes", 
		 "theory": "DFT", 
		 "functional": "B3LYP", 
		 "basiset": "6-31G**", 
		 "properties": { 
			 "R2extent": 3716.2797, 
			 "electric_dipole_moment_norm": 5.18037843019, 
			 "electric_quadrupole_moment_norm": 12.1219643981, 
			 "total_energy": -651.66545207, 
			 "HOMO_LUMO_gap": 0.18624, 
			 "cosmo_polarized_energy": -16.02, 
			 "cosmo_cavitation_energy": 32.45, 
			 "cosmo_dispersion_energy": -23.36, 
			 "cosmo_repulsion_energy": 1.84, 
			 "cosmo_total_nonelectrostatic_energy": 10.92, 
			 "SMD_solvation_energy": 4.92 
		},
		"coords": [
			{
				"x": 0.4838294476,
				"y": 0.7979594025,
				"z": 3.6547970398,
				"element": "N" 
			},
			{
				"x": -0.4694307058,
				"y": 0.741376863,
				"z": 2.6354628655,
				"element": "C" 
			},
			{
				"x": -0.194411545,
				"y": 0.0621577064,
				"z": 1.4365544321,
				"element": "C" 
			},
			{
				"x": -1.1708229369,
				"y": -0.063183841,
				"z": 0.4424140174,
				"element": "C" 
			},
			{
				"x": -2.4464646861,
				"y": 0.4790845072,
				"z": 0.6432671023,
				"element": "C" 
			},
			{
				"x": -2.7163951482,
				"y": 1.1710342936,
				"z": 1.8224856178,
				"element": "C" 
			},
			{
				"x": -1.743668172,
				"y": 1.3072862814,
				"z": 2.81094624,
				"element": "C" 
			},
			{
				"x": -0.941340822,
				"y": -0.8679474805,
				"z": -0.81094565,
				"element": "C" 
			},
			{
				"x": -1.7913285134,
				"y": -1.6729635077,
				"z": -1.1899689588,
				"element": "O" 
			},
			{
				"x": 0.2437560689,
				"y": -0.7195879547,
				"z": -1.4943281807,
				"element": "N" 
			},
			{
				"x": 0.44527541,
				"y": -1.611563053,
				"z": -2.6487281501,
				"element": "C" 
			},
			{
				"x": 1.8840386263,
				"y": -1.493248474,
				"z": -3.1816763552,
				"element": "C" 
			},
			{
				"x": 2.874135426,
				"y": -1.2926346096,
				"z": -2.0267096152,
				"element": "C" 
			},
			{
				"x": 2.5896721765,
				"y": 0.0406847263,
				"z": -1.2932455556,
				"element": "C" 
			},
			{
				"x": 1.1138804848,
				"y": 0.4564266785,
				"z": -1.4557055924,
				"element": "C" 
			},
			{
				"x": 1.444276572,
				"y": 0.7067071873,
				"z": 3.3542302687,
				"element": "H" 
			},
			{
				"x": 0.3649527397,
				"y": 1.5550458319,
				"z": 4.3135415755,
				"element": "H" 
			},
			{
				"x": 0.7797739243,
				"y": -0.4002886924,
				"z": 1.298834173,
				"element": "H" 
			},
			{
				"x": -3.2064071942,
				"y": 0.3421259363,
				"z": -0.1175935057,
				"element": "H" 
			},
			{
				"x": -3.6986951681,
				"y": 1.6076051836,
				"z": 1.9804152292,
				"element": "H" 
			},
			{
				"x": -1.9708622586,
				"y": 1.8388227318,
				"z": 3.7319776753,
				"element": "H" 
			},
			{
				"x": 0.2396155043,
				"y": -2.6316057117,
				"z": -2.3119614254,
				"element": "H" 
			},
			{
				"x": -0.2905377174,
				"y": -1.3917163988,
				"z": -3.4344769994,
				"element": "H" 
			},
			{
				"x": 1.9660998623,
				"y": -0.6555449146,
				"z": -3.8858075629,
				"element": "H" 
			},
			{
				"x": 2.1229417787,
				"y": -2.3969589128,
				"z": -3.7520679369,
				"element": "H" 
			},
			{
				"x": 2.7679531802,
				"y": -2.1289748102,
				"z": -1.3253843522,
				"element": "H" 
			},
			{
				"x": 3.9070321517,
				"y": -1.3182060513,
				"z": -2.3894158832,
				"element": "H" 
			},
			{
				"x": 2.8387248076,
				"y": -0.0588245456,
				"z": -0.2304147127,
				"element": "H" 
			},
			{
				"x": 3.2219088378,
				"y": 0.8435956891,
				"z": -1.6908082822,
				"element": "H" 
			},
			{
				"x": 0.988516025,
				"y": 1.0169324926,
				"z": -2.3941460956,
				"element": "H" 
			},
			{
				"x": 0.7938818439,
				"y": 1.1178034463,
				"z": -0.6521414226,
				"element": "H" 
			}
		],
		 "valence_orbital": [ 
			{
				"type": "occ",
				"energy": -0.30529,
				"method": "rhf"
			},
			{
				"type": "occ",
				"energy": -0.25157,
				"method": "rhf"
			},
			{
				"type": "occ",
				"energy": -0.23632,
				"method": "rhf"
			},
			{
				"type": "occ",
				"energy": -0.22565,
				"method": "rhf"
			},
			{
				"type": "occ",
				"energy": -0.20312,
				"method": "rhf"
			},
			{
				"type": "unocc",
				"energy": -0.01688,
				"method": "rhf"
			},
			{
				"type": "unocc",
				"energy": 0.01308,
				"method": "rhf"
			},
			{
				"type": "unocc",
				"energy": 0.05619,
				"method": "rhf"
			},
			{
				"type": "unocc",
				"energy": 0.06879,
				"method": "rhf"
			},
			{
				"type": "unocc",
				"energy": 0.08495,
				"method": "rhf"
			}
		],
		"cosmo_sigma_profile": { 
			"-0.025": 0.0,
			"-0.024": 0.0,
			"-0.023": 0.0,
			"-0.022": 0.0,
			"-0.021": 0.0,
			"-0.02": 0.0,
			"-0.019": 0.0,
			"-0.018": 0.0,
			"-0.017": 0.0,
			"-0.016": 0.0,
			"-0.015": 0.0,
			"-0.014": 0.0,
			"-0.013": 0.281415040177,
			"-0.012": 2.49602200168,
			"-0.011": 2.8681378187,
			"-0.01": 3.31421670888,
			"-0.009": 2.91928686184,
			"-0.008": 3.02686283406,
			"-0.007": 3.20193265173,
			"-0.006": 4.68371479588,
			"-0.005": 7.64761761617,
			"-0.004": 17.1533491701,
			"-0.003": 32.5637313775,
			"-0.002": 34.0029282127,
			"-0.001": 32.3436476659,
			"0.0": 21.346352109,
			"0.001": 13.6464026975,
			"0.002": 9.05607011556,
			"0.003": 8.68916389515,
			"0.004": 7.13460651871,
			"0.005": 10.7254061059,
			"0.006": 10.8306234145,
			"0.007": 2.53195203166,
			"0.008": 2.7992908328,
			"0.009": 1.86344343346,
			"0.01": 3.09545338001,
			"0.011": 1.74858559606,
			"0.012": 2.89641144144,
			"0.013": 2.78937744231,
			"0.014": 5.52257685104,
			"0.015": 2.69068919179,
			"0.016": 0.181076943857,
			"0.017": 0.0,
			"0.018": 0.0,
			"0.019": 0.0,
			"0.02": 0.0,
			"0.021": 0.0,
			"0.022": 0.0,
			"0.023": 0.0,
			"0.024": 0.0,
			"0.025": 0.0
		}
	}
}
