{
	 "smiles": "CC(OC1=C(Cl)C(C)=C(Cl)C=C1)C(=O)NC1=CC=CC=C1", 
	 "Tm": 419.15, 
	 "num_atms": 36, 
	 "gaussian": { 
		 "optdone": 1, 
		 "sigma_profile": "yes", 
		 "theory": "DFT", 
		 "functional": "B3LYP", 
		 "basiset": "6-31G**", 
		 "properties": { 
			 "R2extent": 10069.8841, 
			 "electric_dipole_moment_norm": 1.42666287889, 
			 "electric_quadrupole_moment_norm": 7.03087820119, 
			 "total_energy": -1744.34873522, 
			 "HOMO_LUMO_gap": 0.19521, 
			 "cosmo_polarized_energy": -12.16, 
			 "cosmo_cavitation_energy": 43.29, 
			 "cosmo_dispersion_energy": -29.95, 
			 "cosmo_repulsion_energy": 2.32, 
			 "cosmo_total_nonelectrostatic_energy": 15.66, 
			 "SMD_solvation_energy": 7.38 
		},
		"coords": [
			{
				"x": -3.2443980324,
				"y": -0.8384286672,
				"z": -1.2733053455,
				"element": "C" 
			},
			{
				"x": -1.7494660307,
				"y": -1.1291709592,
				"z": -1.381639631,
				"element": "C" 
			},
			{
				"x": -1.3878877867,
				"y": -1.8891664833,
				"z": -0.2186119705,
				"element": "O" 
			},
			{
				"x": -0.2646106246,
				"y": -2.668295188,
				"z": -0.2547459611,
				"element": "C" 
			},
			{
				"x": -0.0713300375,
				"y": -3.5470802975,
				"z": 0.8257981501,
				"element": "C" 
			},
			{
				"x": -1.2775035595,
				"y": -3.5575273631,
				"z": 2.1003418309,
				"element": "Cl" 
			},
			{
				"x": 1.0368115207,
				"y": -4.4045070762,
				"z": 0.9203064075,
				"element": "C" 
			},
			{
				"x": 1.1884331731,
				"y": -5.3298396806,
				"z": 2.0996927624,
				"element": "C" 
			},
			{
				"x": 1.9645369673,
				"y": -4.3411563865,
				"z": -0.1349478871,
				"element": "C" 
			},
			{
				"x": 3.3980304411,
				"y": -5.3677408849,
				"z": -0.1383203793,
				"element": "Cl" 
			},
			{
				"x": 1.8001220886,
				"y": -3.4735181454,
				"z": -1.2101481543,
				"element": "C" 
			},
			{
				"x": 0.6912225033,
				"y": -2.6343018419,
				"z": -1.2737747691,
				"element": "C" 
			},
			{
				"x": -0.9499450716,
				"y": 0.183500496,
				"z": -1.5037868376,
				"element": "C" 
			},
			{
				"x": -0.8179784466,
				"y": 0.7140107967,
				"z": -2.5998209519,
				"element": "O" 
			},
			{
				"x": -0.4976779269,
				"y": 0.6682565461,
				"z": -0.3095933162,
				"element": "N" 
			},
			{
				"x": 0.2207895398,
				"y": 1.8552090746,
				"z": -0.0452555826,
				"element": "C" 
			},
			{
				"x": 0.5558107792,
				"y": 2.7840531641,
				"z": -1.0420152925,
				"element": "C" 
			},
			{
				"x": 1.2653666651,
				"y": 3.9328974001,
				"z": -0.6907745604,
				"element": "C" 
			},
			{
				"x": 1.6453166999,
				"y": 4.1737673591,
				"z": 0.6302074817,
				"element": "C" 
			},
			{
				"x": 1.3081035978,
				"y": 3.2454683488,
				"z": 1.6173058767,
				"element": "C" 
			},
			{
				"x": 0.6012271468,
				"y": 2.0933176069,
				"z": 1.2845504717,
				"element": "C" 
			},
			{
				"x": -3.4640709688,
				"y": -0.2854538326,
				"z": -0.3556431593,
				"element": "H" 
			},
			{
				"x": -3.8087227313,
				"y": -1.7740243027,
				"z": -1.2609164743,
				"element": "H" 
			},
			{
				"x": -3.5606334813,
				"y": -0.2389824954,
				"z": -2.1303616399,
				"element": "H" 
			},
			{
				"x": -1.5484806492,
				"y": -1.7063696988,
				"z": -2.289489052,
				"element": "H" 
			},
			{
				"x": 0.330137539,
				"y": -6.0052746144,
				"z": 2.1732196365,
				"element": "H" 
			},
			{
				"x": 2.0949551988,
				"y": -5.9272674366,
				"z": 2.0202005493,
				"element": "H" 
			},
			{
				"x": 1.2257984404,
				"y": -4.7610963244,
				"z": 3.0343068197,
				"element": "H" 
			},
			{
				"x": 2.5438045395,
				"y": -3.4480881105,
				"z": -1.9980758031,
				"element": "H" 
			},
			{
				"x": 0.592285978,
				"y": -1.9516206809,
				"z": -2.108875141,
				"element": "H" 
			},
			{
				"x": -0.6834831763,
				"y": 0.0720833824,
				"z": 0.4874397638,
				"element": "H" 
			},
			{
				"x": 0.2613804076,
				"y": 2.595897136,
				"z": -2.0649015322,
				"element": "H" 
			},
			{
				"x": 1.5221225059,
				"y": 4.6479452356,
				"z": -1.4672631576,
				"element": "H" 
			},
			{
				"x": 2.1970197805,
				"y": 5.0724559745,
				"z": 0.88837472,
				"element": "H" 
			},
			{
				"x": 1.5952547776,
				"y": 3.4153893307,
				"z": 2.6508985166,
				"element": "H" 
			},
			{
				"x": 0.3415582334,
				"y": 1.3723586188,
				"z": 2.0565236116,
				"element": "H" 
			}
		],
		 "valence_orbital": [ 
			{
				"type": "occ",
				"energy": -0.26264,
				"method": "rhf"
			},
			{
				"type": "occ",
				"energy": -0.25878,
				"method": "rhf"
			},
			{
				"type": "occ",
				"energy": -0.25351,
				"method": "rhf"
			},
			{
				"type": "occ",
				"energy": -0.23305,
				"method": "rhf"
			},
			{
				"type": "occ",
				"energy": -0.22515,
				"method": "rhf"
			},
			{
				"type": "unocc",
				"energy": -0.02994,
				"method": "rhf"
			},
			{
				"type": "unocc",
				"energy": -0.01806,
				"method": "rhf"
			},
			{
				"type": "unocc",
				"energy": -0.01314,
				"method": "rhf"
			},
			{
				"type": "unocc",
				"energy": -0.00379,
				"method": "rhf"
			},
			{
				"type": "unocc",
				"energy": 0.00588,
				"method": "rhf"
			}
		],
		"cosmo_sigma_profile": { 
			"-0.025": 0.0,
			"-0.024": 0.0,
			"-0.023": 0.0,
			"-0.022": 0.0,
			"-0.021": 0.0,
			"-0.02": 0.0,
			"-0.019": 0.0,
			"-0.018": 0.0,
			"-0.017": 0.0,
			"-0.016": 0.0,
			"-0.015": 0.0,
			"-0.014": 0.0692725954331,
			"-0.013": 0.961123389434,
			"-0.012": 0.879545441538,
			"-0.011": 1.00060921756,
			"-0.01": 1.20070176056,
			"-0.009": 1.55945768988,
			"-0.008": 3.62567243948,
			"-0.007": 8.5162149075,
			"-0.006": 12.9613197169,
			"-0.005": 20.2200490486,
			"-0.004": 24.4058166524,
			"-0.003": 26.365979303,
			"-0.002": 27.5703400616,
			"-0.001": 32.7298507444,
			"0.0": 28.5627526197,
			"0.001": 32.3888887905,
			"0.002": 28.9744091374,
			"0.003": 27.3472899916,
			"0.004": 24.9656945948,
			"0.005": 20.4978476619,
			"0.006": 8.63325196802,
			"0.007": 2.49862201634,
			"0.008": 2.3370683537,
			"0.009": 2.59398360002,
			"0.01": 1.60143529685,
			"0.011": 1.84992821921,
			"0.012": 2.7390724141,
			"0.013": 2.37578671294,
			"0.014": 0.401029087706,
			"0.015": 0.0,
			"0.016": 0.0,
			"0.017": 0.0,
			"0.018": 0.0,
			"0.019": 0.0,
			"0.02": 0.0,
			"0.021": 0.0,
			"0.022": 0.0,
			"0.023": 0.0,
			"0.024": 0.0,
			"0.025": 0.0
		}
	}
}
