{
	 "smiles": "[O-][N+](=O)C1=CC=C(C=C1)C1=NN=C2SCN(CN12)C1=C(C=CC=C1)[N+]([O-])=O", 
	 "Tm": 457.15, 
	 "num_atms": 39, 
	 "gaussian": { 
		 "optdone": 1, 
		 "sigma_profile": "yes", 
		 "theory": "DFT", 
		 "functional": "B3LYP", 
		 "basiset": "6-31G**", 
		 "properties": { 
			 "R2extent": 13171.5408, 
			 "electric_dipole_moment_norm": 11.1829273744, 
			 "electric_quadrupole_moment_norm": 20.5523308756, 
			 "total_energy": -1644.27141171, 
			 "HOMO_LUMO_gap": 0.12345, 
			 "cosmo_polarized_energy": -31.77, 
			 "cosmo_cavitation_energy": 46.22, 
			 "cosmo_dispersion_energy": -32.58, 
			 "cosmo_repulsion_energy": 2.37, 
			 "cosmo_total_nonelectrostatic_energy": 16.0, 
			 "SMD_solvation_energy": 8.51 
		},
		"coords": [
			{
				"x": -6.4156533876,
				"y": 2.7973927421,
				"z": -1.3003344129,
				"element": "O" 
			},
			{
				"x": -5.8000558977,
				"y": 1.8260650839,
				"z": -0.8626162787,
				"element": "N" 
			},
			{
				"x": -6.1926720684,
				"y": 0.6602280752,
				"z": -0.9238798721,
				"element": "O" 
			},
			{
				"x": -4.5020030403,
				"y": 2.0747007147,
				"z": -0.2208244894,
				"element": "C" 
			},
			{
				"x": -3.7886901928,
				"y": 0.9966650459,
				"z": 0.2962138857,
				"element": "C" 
			},
			{
				"x": -2.558230631,
				"y": 1.2338861162,
				"z": 0.9003430503,
				"element": "C" 
			},
			{
				"x": -2.0347999631,
				"y": 2.5373235569,
				"z": 0.9782290234,
				"element": "C" 
			},
			{
				"x": -2.7888934936,
				"y": 3.6077666187,
				"z": 0.4577235087,
				"element": "C" 
			},
			{
				"x": -4.0208925514,
				"y": 3.3822392088,
				"z": -0.1397633205,
				"element": "C" 
			},
			{
				"x": -0.754161409,
				"y": 2.851644899,
				"z": 1.6155550756,
				"element": "C" 
			},
			{
				"x": -0.4939964915,
				"y": 4.0063836821,
				"z": 2.1973791094,
				"element": "N" 
			},
			{
				"x": 0.7845962963,
				"y": 3.9681922169,
				"z": 2.6881614871,
				"element": "N" 
			},
			{
				"x": 1.2756721543,
				"y": 2.7862942066,
				"z": 2.3870093065,
				"element": "C" 
			},
			{
				"x": 2.9277680618,
				"y": 2.2950956023,
				"z": 2.7370126624,
				"element": "S" 
			},
			{
				"x": 2.7749553875,
				"y": 0.5489784688,
				"z": 2.1386320024,
				"element": "C" 
			},
			{
				"x": 2.0081292551,
				"y": 0.4991693466,
				"z": 0.9108168107,
				"element": "N" 
			},
			{
				"x": 0.5872269331,
				"y": 0.6999260923,
				"z": 1.1319966753,
				"element": "C" 
			},
			{
				"x": 0.3558069061,
				"y": 2.0247202124,
				"z": 1.710437105,
				"element": "N" 
			},
			{
				"x": 2.3884235828,
				"y": -0.4412506262,
				"z": -0.0793822019,
				"element": "C" 
			},
			{
				"x": 2.3947488692,
				"y": -0.1470585118,
				"z": -1.4646642066,
				"element": "C" 
			},
			{
				"x": 2.8296897638,
				"y": -1.0822159662,
				"z": -2.4060947706,
				"element": "C" 
			},
			{
				"x": 3.2669468427,
				"y": -2.3375917022,
				"z": -2.0012600772,
				"element": "C" 
			},
			{
				"x": 3.2893028737,
				"y": -2.6464504501,
				"z": -0.6403640754,
				"element": "C" 
			},
			{
				"x": 2.8571345254,
				"y": -1.7123365472,
				"z": 0.2973661151,
				"element": "C" 
			},
			{
				"x": 2.0065948793,
				"y": 1.1653313849,
				"z": -1.999416699,
				"element": "N" 
			},
			{
				"x": 2.54003313,
				"y": 1.5199811153,
				"z": -3.0491690056,
				"element": "O" 
			},
			{
				"x": 1.1732139321,
				"y": 1.8300696376,
				"z": -1.3828901411,
				"element": "O" 
			},
			{
				"x": -4.2082549951,
				"y": 0.0007809874,
				"z": 0.2308471496,
				"element": "H" 
			},
			{
				"x": -2.0275193799,
				"y": 0.3984631261,
				"z": 1.3426801216,
				"element": "H" 
			},
			{
				"x": -2.3865160149,
				"y": 4.6111420492,
				"z": 0.533396126,
				"element": "H" 
			},
			{
				"x": -4.6098546878,
				"y": 4.1928111109,
				"z": -0.5501029203,
				"element": "H" 
			},
			{
				"x": 2.3351172241,
				"y": -0.0575880351,
				"z": 2.943275301,
				"element": "H" 
			},
			{
				"x": 3.7974688433,
				"y": 0.2176282456,
				"z": 1.959185101,
				"element": "H" 
			},
			{
				"x": 0.0624074681,
				"y": 0.6421254157,
				"z": 0.1823172095,
				"element": "H" 
			},
			{
				"x": 0.1895745194,
				"y": -0.0634523132,
				"z": 1.8231275071,
				"element": "H" 
			},
			{
				"x": 2.8304873312,
				"y": -0.7922773549,
				"z": -3.4495933264,
				"element": "H" 
			},
			{
				"x": 3.593629173,
				"y": -3.0619665329,
				"z": -2.7396137445,
				"element": "H" 
			},
			{
				"x": 3.6317481527,
				"y": -3.62074065,
				"z": -0.3053350731,
				"element": "H" 
			},
			{
				"x": 2.8673180992,
				"y": -1.9710762723,
				"z": 1.3512002819,
				"element": "H" 
			}
		],
		 "valence_orbital": [ 
			{
				"type": "occ",
				"energy": -0.28467,
				"method": "rhf"
			},
			{
				"type": "occ",
				"energy": -0.28132,
				"method": "rhf"
			},
			{
				"type": "occ",
				"energy": -0.26172,
				"method": "rhf"
			},
			{
				"type": "occ",
				"energy": -0.26086,
				"method": "rhf"
			},
			{
				"type": "occ",
				"energy": -0.22778,
				"method": "rhf"
			},
			{
				"type": "unocc",
				"energy": -0.10433,
				"method": "rhf"
			},
			{
				"type": "unocc",
				"energy": -0.09437,
				"method": "rhf"
			},
			{
				"type": "unocc",
				"energy": -0.0522,
				"method": "rhf"
			},
			{
				"type": "unocc",
				"energy": -0.0319,
				"method": "rhf"
			},
			{
				"type": "unocc",
				"energy": -0.03022,
				"method": "rhf"
			}
		],
		"cosmo_sigma_profile": { 
			"-0.025": 0.0,
			"-0.024": 0.0,
			"-0.023": 0.0,
			"-0.022": 0.0,
			"-0.021": 0.0,
			"-0.02": 0.0,
			"-0.019": 0.0,
			"-0.018": 0.0,
			"-0.017": 0.0,
			"-0.016": 0.0,
			"-0.015": 0.0,
			"-0.014": 0.0,
			"-0.013": 0.0,
			"-0.012": 0.0,
			"-0.011": 0.306202798328,
			"-0.01": 4.39753155154,
			"-0.009": 9.89291151515,
			"-0.008": 19.6852206622,
			"-0.007": 24.2482383972,
			"-0.006": 22.3294351392,
			"-0.005": 19.3419548554,
			"-0.004": 17.1824210243,
			"-0.003": 18.9308421631,
			"-0.002": 19.2065653844,
			"-0.001": 22.9076079519,
			"0.0": 30.0612742317,
			"0.001": 30.9589171754,
			"0.002": 22.107068621,
			"0.003": 14.1138474013,
			"0.004": 11.7523155337,
			"0.005": 11.6573511032,
			"0.006": 13.3441686552,
			"0.007": 16.1267451443,
			"0.008": 14.2459739081,
			"0.009": 10.7457641143,
			"0.01": 6.5265248681,
			"0.011": 2.89057945274,
			"0.012": 2.64130775936,
			"0.013": 3.69096977687,
			"0.014": 2.46887864207,
			"0.015": 1.92250087217,
			"0.016": 0.762660118739,
			"0.017": 0.013123829784,
			"0.018": 0.0,
			"0.019": 0.0,
			"0.02": 0.0,
			"0.021": 0.0,
			"0.022": 0.0,
			"0.023": 0.0,
			"0.024": 0.0,
			"0.025": 0.0
		}
	}
}
