{
	 "smiles": "CC(OC1=C(C)C=C(Cl)C=C1)C(O)=O", 
	 "Tm": 367.65, 
	 "num_atms": 25, 
	 "gaussian": { 
		 "optdone": 1, 
		 "sigma_profile": "yes", 
		 "theory": "DFT", 
		 "functional": "B3LYP", 
		 "basiset": "6-31G**", 
		 "properties": { 
			 "R2extent": 4711.0039, 
			 "electric_dipole_moment_norm": 2.90155444374, 
			 "electric_quadrupole_moment_norm": 7.01597860957, 
			 "total_energy": -1073.57242621, 
			 "HOMO_LUMO_gap": 0.20358, 
			 "cosmo_polarized_energy": -11.31, 
			 "cosmo_cavitation_energy": 31.04, 
			 "cosmo_dispersion_energy": -21.77, 
			 "cosmo_repulsion_energy": 1.75, 
			 "cosmo_total_nonelectrostatic_energy": 11.02, 
			 "SMD_solvation_energy": 6.43 
		},
		"coords": [
			{
				"x": 1.0710686944,
				"y": -1.7746734902,
				"z": -2.4740252589,
				"element": "C" 
			},
			{
				"x": 0.373613292,
				"y": -0.4752706613,
				"z": -2.0705340339,
				"element": "C" 
			},
			{
				"x": -0.4049300152,
				"y": -0.7681029025,
				"z": -0.9204475532,
				"element": "O" 
			},
			{
				"x": -0.9674802806,
				"y": 0.2614513947,
				"z": -0.2065780696,
				"element": "C" 
			},
			{
				"x": -1.6974234954,
				"y": -0.1390327544,
				"z": 0.93231081,
				"element": "C" 
			},
			{
				"x": -1.8216749025,
				"y": -1.6015923934,
				"z": 1.2740037893,
				"element": "C" 
			},
			{
				"x": -2.2910533649,
				"y": 0.847810022,
				"z": 1.7178517265,
				"element": "C" 
			},
			{
				"x": -2.1654326849,
				"y": 2.1980158345,
				"z": 1.3831480284,
				"element": "C" 
			},
			{
				"x": -2.9304273033,
				"y": 3.4149420236,
				"z": 2.4000818749,
				"element": "Cl" 
			},
			{
				"x": -1.4491291336,
				"y": 2.5882760099,
				"z": 0.2597624727,
				"element": "C" 
			},
			{
				"x": -0.8462174794,
				"y": 1.6124753335,
				"z": -0.5403758114,
				"element": "C" 
			},
			{
				"x": -0.459905758,
				"y": 0.0520168438,
				"z": -3.2428922032,
				"element": "C" 
			},
			{
				"x": -1.6807832139,
				"y": -0.5125469543,
				"z": -3.3083416084,
				"element": "O" 
			},
			{
				"x": -0.0440288958,
				"y": 0.8523020662,
				"z": -4.0514530159,
				"element": "O" 
			},
			{
				"x": 1.6954600901,
				"y": -1.609752687,
				"z": -3.3559365661,
				"element": "H" 
			},
			{
				"x": 0.3301657864,
				"y": -2.5463685164,
				"z": -2.6976887038,
				"element": "H" 
			},
			{
				"x": 1.7018886878,
				"y": -2.1202491367,
				"z": -1.6515604993,
				"element": "H" 
			},
			{
				"x": 1.1200415479,
				"y": 0.2968331305,
				"z": -1.8501502326,
				"element": "H" 
			},
			{
				"x": -0.8377646637,
				"y": -2.0550317071,
				"z": 1.4359384532,
				"element": "H" 
			},
			{
				"x": -2.4197024821,
				"y": -1.7417914109,
				"z": 2.1777552577,
				"element": "H" 
			},
			{
				"x": -2.2912965208,
				"y": -2.1585408299,
				"z": 0.4562410019,
				"element": "H" 
			},
			{
				"x": -2.8569320135,
				"y": 0.5629733741,
				"z": 2.5988099862,
				"element": "H" 
			},
			{
				"x": -1.3580033174,
				"y": 3.6374555321,
				"z": 0.0023726436,
				"element": "H" 
			},
			{
				"x": -0.2967573472,
				"y": 1.9294737309,
				"z": -1.4189292566,
				"element": "H" 
			},
			{
				"x": -2.1161952261,
				"y": -0.131471852,
				"z": -4.0899632312,
				"element": "H" 
			}
		],
		 "valence_orbital": [ 
			{
				"type": "occ",
				"energy": -0.30951,
				"method": "rhf"
			},
			{
				"type": "occ",
				"energy": -0.30673,
				"method": "rhf"
			},
			{
				"type": "occ",
				"energy": -0.28364,
				"method": "rhf"
			},
			{
				"type": "occ",
				"energy": -0.25583,
				"method": "rhf"
			},
			{
				"type": "occ",
				"energy": -0.22078,
				"method": "rhf"
			},
			{
				"type": "unocc",
				"energy": -0.0172,
				"method": "rhf"
			},
			{
				"type": "unocc",
				"energy": -0.00249,
				"method": "rhf"
			},
			{
				"type": "unocc",
				"energy": 0.00072,
				"method": "rhf"
			},
			{
				"type": "unocc",
				"energy": 0.03477,
				"method": "rhf"
			},
			{
				"type": "unocc",
				"energy": 0.06246,
				"method": "rhf"
			}
		],
		"cosmo_sigma_profile": { 
			"-0.025": 0.0,
			"-0.024": 0.0,
			"-0.023": 0.0,
			"-0.022": 0.0,
			"-0.021": 0.0,
			"-0.02": 0.0,
			"-0.019": 0.436101295186,
			"-0.018": 0.931240339686,
			"-0.017": 0.83839658549,
			"-0.016": 1.15752151988,
			"-0.015": 0.712586915556,
			"-0.014": 0.366842964122,
			"-0.013": 0.791231784441,
			"-0.012": 0.960245007172,
			"-0.011": 0.670423300873,
			"-0.01": 0.547667214142,
			"-0.009": 0.631308594506,
			"-0.008": 1.08441715325,
			"-0.007": 6.24278676488,
			"-0.006": 9.86821104691,
			"-0.005": 15.1279350663,
			"-0.004": 17.2712770788,
			"-0.003": 18.7649999737,
			"-0.002": 18.5521132036,
			"-0.001": 20.2704247988,
			"0.0": 20.5160042321,
			"0.001": 14.4725226095,
			"0.002": 17.2116321016,
			"0.003": 21.3711702405,
			"0.004": 19.9355816446,
			"0.005": 14.3319504111,
			"0.006": 5.0236935938,
			"0.007": 3.80319378913,
			"0.008": 3.08611821475,
			"0.009": 2.65085726508,
			"0.01": 3.09882340881,
			"0.011": 4.85997655178,
			"0.012": 2.32696601292,
			"0.013": 0.097039020831,
			"0.014": 0.0,
			"0.015": 0.0,
			"0.016": 0.0,
			"0.017": 0.0,
			"0.018": 0.0,
			"0.019": 0.0,
			"0.02": 0.0,
			"0.021": 0.0,
			"0.022": 0.0,
			"0.023": 0.0,
			"0.024": 0.0,
			"0.025": 0.0
		}
	}
}
