{
	 "smiles": "CC(=O)C1=CC=C(C=C1)S(N)(=O)=O", 
	 "Tm": 452.15, 
	 "num_atms": 22, 
	 "gaussian": { 
		 "optdone": 1, 
		 "sigma_profile": "yes", 
		 "theory": "DFT", 
		 "functional": "B3LYP", 
		 "basiset": "6-31G**", 
		 "properties": { 
			 "R2extent": 4340.9251, 
			 "electric_dipole_moment_norm": 3.57774556669, 
			 "electric_quadrupole_moment_norm": 24.3777780101, 
			 "total_energy": -988.819326296, 
			 "HOMO_LUMO_gap": 0.18332, 
			 "cosmo_polarized_energy": -18.15, 
			 "cosmo_cavitation_energy": 27.96, 
			 "cosmo_dispersion_energy": -20.95, 
			 "cosmo_repulsion_energy": 1.61, 
			 "cosmo_total_nonelectrostatic_energy": 8.63, 
			 "SMD_solvation_energy": 5.16 
		},
		"coords": [
			{
				"x": -1.6660276002,
				"y": -0.5394321207,
				"z": -2.7430253352,
				"element": "C" 
			},
			{
				"x": -2.1358519048,
				"y": 0.0445603227,
				"z": -1.4232256662,
				"element": "C" 
			},
			{
				"x": -3.3230583618,
				"y": 0.0837934048,
				"z": -1.1428775128,
				"element": "O" 
			},
			{
				"x": -1.1122253057,
				"y": 0.5778028367,
				"z": -0.4575600319,
				"element": "C" 
			},
			{
				"x": 0.2646371693,
				"y": 0.5540673942,
				"z": -0.7228703779,
				"element": "C" 
			},
			{
				"x": 1.1734226015,
				"y": 1.0596954091,
				"z": 0.2056512327,
				"element": "C" 
			},
			{
				"x": 0.6918770083,
				"y": 1.5871467063,
				"z": 1.403333334,
				"element": "C" 
			},
			{
				"x": -0.6763199708,
				"y": 1.6343686551,
				"z": 1.6840576319,
				"element": "C" 
			},
			{
				"x": -1.5718306002,
				"y": 1.1251142646,
				"z": 0.7507774168,
				"element": "C" 
			},
			{
				"x": 1.8587303501,
				"y": 2.2376177094,
				"z": 2.6037776554,
				"element": "S" 
			},
			{
				"x": 2.1564141963,
				"y": 0.9085960719,
				"z": 3.6110339149,
				"element": "N" 
			},
			{
				"x": 1.1547419101,
				"y": 3.2396770686,
				"z": 3.4081225465,
				"element": "O" 
			},
			{
				"x": 3.1069572653,
				"y": 2.5309206532,
				"z": 1.8939101846,
				"element": "O" 
			},
			{
				"x": -2.5375442088,
				"y": -0.8735547855,
				"z": -3.3062179149,
				"element": "H" 
			},
			{
				"x": -1.1180391838,
				"y": 0.2062034514,
				"z": -3.3297255144,
				"element": "H" 
			},
			{
				"x": -0.9914474835,
				"y": -1.3873314238,
				"z": -2.5802010647,
				"element": "H" 
			},
			{
				"x": 0.6382882207,
				"y": 0.1465259007,
				"z": -1.656172245,
				"element": "H" 
			},
			{
				"x": 2.2386114945,
				"y": 1.0634054045,
				"z": 0.0033629401,
				"element": "H" 
			},
			{
				"x": -1.0238799297,
				"y": 2.0784875905,
				"z": 2.6103262325,
				"element": "H" 
			},
			{
				"x": -2.6412150698,
				"y": 1.1440597705,
				"z": 0.9308546047,
				"element": "H" 
			},
			{
				"x": 3.1428721569,
				"y": 0.6664908687,
				"z": 3.5686382921,
				"element": "H" 
			},
			{
				"x": 1.8677872462,
				"y": 1.1323848469,
				"z": 4.5598296769,
				"element": "H" 
			}
		],
		 "valence_orbital": [ 
			{
				"type": "occ",
				"energy": -0.31238,
				"method": "rhf"
			},
			{
				"type": "occ",
				"energy": -0.30794,
				"method": "rhf"
			},
			{
				"type": "occ",
				"energy": -0.27944,
				"method": "rhf"
			},
			{
				"type": "occ",
				"energy": -0.27365,
				"method": "rhf"
			},
			{
				"type": "occ",
				"energy": -0.2612,
				"method": "rhf"
			},
			{
				"type": "unocc",
				"energy": -0.07788,
				"method": "rhf"
			},
			{
				"type": "unocc",
				"energy": -0.02867,
				"method": "rhf"
			},
			{
				"type": "unocc",
				"energy": 0.00888,
				"method": "rhf"
			},
			{
				"type": "unocc",
				"energy": 0.04782,
				"method": "rhf"
			},
			{
				"type": "unocc",
				"energy": 0.07853,
				"method": "rhf"
			}
		],
		"cosmo_sigma_profile": { 
			"-0.025": 0.0,
			"-0.024": 0.0,
			"-0.023": 0.0,
			"-0.022": 0.0,
			"-0.021": 0.0,
			"-0.02": 0.0,
			"-0.019": 0.0,
			"-0.018": 0.0,
			"-0.017": 0.0,
			"-0.016": 0.0,
			"-0.015": 1.43419118152,
			"-0.014": 2.64848934276,
			"-0.013": 1.68596521922,
			"-0.012": 3.02317816238,
			"-0.011": 2.80059081222,
			"-0.01": 1.44689219742,
			"-0.009": 1.48810014589,
			"-0.008": 3.3463362294,
			"-0.007": 12.3070937143,
			"-0.006": 15.7357927915,
			"-0.005": 13.2463330841,
			"-0.004": 12.8236297531,
			"-0.003": 12.419928369,
			"-0.002": 15.0619915982,
			"-0.001": 12.8376207516,
			"0.0": 12.9677639226,
			"0.001": 18.627845408,
			"0.002": 13.3639690322,
			"0.003": 5.44214365186,
			"0.004": 5.28030729826,
			"0.005": 5.27642142545,
			"0.006": 4.91377842586,
			"0.007": 3.84299454771,
			"0.008": 5.65166473549,
			"0.009": 6.77477660659,
			"0.01": 10.897380724,
			"0.011": 12.6115774429,
			"0.012": 4.36344976461,
			"0.013": 0.664229986674,
			"0.014": 0.0,
			"0.015": 0.0,
			"0.016": 0.0,
			"0.017": 0.0,
			"0.018": 0.0,
			"0.019": 0.0,
			"0.02": 0.0,
			"0.021": 0.0,
			"0.022": 0.0,
			"0.023": 0.0,
			"0.024": 0.0,
			"0.025": 0.0
		}
	}
}
