{
	 "smiles": "NNC(=O)C1=CC(N)=C(O)C=C1", 
	 "Tm": 524.15, 
	 "num_atms": 21, 
	 "gaussian": { 
		 "optdone": 1, 
		 "sigma_profile": "yes", 
		 "theory": "DFT", 
		 "functional": "B3LYP", 
		 "basiset": "6-31G**", 
		 "properties": { 
			 "R2extent": 3057.5073, 
			 "electric_dipole_moment_norm": 5.13326315904, 
			 "electric_quadrupole_moment_norm": 18.0479450221, 
			 "total_energy": -586.844813265, 
			 "HOMO_LUMO_gap": 0.17724, 
			 "cosmo_polarized_energy": -21.4, 
			 "cosmo_cavitation_energy": 25.24, 
			 "cosmo_dispersion_energy": -18.77, 
			 "cosmo_repulsion_energy": 1.52, 
			 "cosmo_total_nonelectrostatic_energy": 7.99, 
			 "SMD_solvation_energy": 5.63 
		},
		"coords": [
			{
				"x": -1.6901550429,
				"y": 2.5071697544,
				"z": -2.3632185584,
				"element": "N" 
			},
			{
				"x": -1.1279277075,
				"y": 3.0201435386,
				"z": -1.169683469,
				"element": "N" 
			},
			{
				"x": -0.6797477755,
				"y": 2.2688747517,
				"z": -0.0939486929,
				"element": "C" 
			},
			{
				"x": 0.2303229938,
				"y": 2.7015142743,
				"z": 0.6061698123,
				"element": "O" 
			},
			{
				"x": -1.3339113785,
				"y": 0.9506863043,
				"z": 0.1898516801,
				"element": "C" 
			},
			{
				"x": -0.5349656544,
				"y": -0.027230619,
				"z": 0.8011907096,
				"element": "C" 
			},
			{
				"x": -1.0480925301,
				"y": -1.2747195993,
				"z": 1.1592794428,
				"element": "C" 
			},
			{
				"x": -0.2888280067,
				"y": -2.2448965692,
				"z": 1.8033346688,
				"element": "N" 
			},
			{
				"x": -2.4162154462,
				"y": -1.5263302802,
				"z": 0.90498555,
				"element": "C" 
			},
			{
				"x": -2.8679668285,
				"y": -2.7708296182,
				"z": 1.263333038,
				"element": "O" 
			},
			{
				"x": -3.2233799261,
				"y": -0.5516158896,
				"z": 0.3274647273,
				"element": "C" 
			},
			{
				"x": -2.689821676,
				"y": 0.6864849767,
				"z": -0.0372896716,
				"element": "C" 
			},
			{
				"x": -2.7004672966,
				"y": 2.4615764682,
				"z": -2.2672303911,
				"element": "H" 
			},
			{
				"x": -1.3562715632,
				"y": 1.5594559826,
				"z": -2.5243733894,
				"element": "H" 
			},
			{
				"x": -0.5343385682,
				"y": 3.825836879,
				"z": -1.3305404294,
				"element": "H" 
			},
			{
				"x": 0.502780823,
				"y": 0.2130855294,
				"z": 1.0112249523,
				"element": "H" 
			},
			{
				"x": 0.7079701741,
				"y": -2.1892426816,
				"z": 1.6536718875,
				"element": "H" 
			},
			{
				"x": -0.6563265412,
				"y": -3.1834976295,
				"z": 1.7391670592,
				"element": "H" 
			},
			{
				"x": -3.8075230282,
				"y": -2.8438990959,
				"z": 1.0536532054,
				"element": "H" 
			},
			{
				"x": -4.2788423732,
				"y": -0.7607655898,
				"z": 0.164390199,
				"element": "H" 
			},
			{
				"x": -3.3441926478,
				"y": 1.4447991131,
				"z": -0.4513323304,
				"element": "H" 
			}
		],
		 "valence_orbital": [ 
			{
				"type": "occ",
				"energy": -0.28976,
				"method": "rhf"
			},
			{
				"type": "occ",
				"energy": -0.24809,
				"method": "rhf"
			},
			{
				"type": "occ",
				"energy": -0.24489,
				"method": "rhf"
			},
			{
				"type": "occ",
				"energy": -0.23265,
				"method": "rhf"
			},
			{
				"type": "occ",
				"energy": -0.20057,
				"method": "rhf"
			},
			{
				"type": "unocc",
				"energy": -0.02333,
				"method": "rhf"
			},
			{
				"type": "unocc",
				"energy": 0.00382,
				"method": "rhf"
			},
			{
				"type": "unocc",
				"energy": 0.056,
				"method": "rhf"
			},
			{
				"type": "unocc",
				"energy": 0.06251,
				"method": "rhf"
			},
			{
				"type": "unocc",
				"energy": 0.07214,
				"method": "rhf"
			}
		],
		"cosmo_sigma_profile": { 
			"-0.025": 0.0,
			"-0.024": 0.0,
			"-0.023": 0.0,
			"-0.022": 0.0,
			"-0.021": 0.0,
			"-0.02": 0.0,
			"-0.019": 0.0,
			"-0.018": 0.669706757018,
			"-0.017": 0.908763326503,
			"-0.016": 1.37706062078,
			"-0.015": 0.906080920709,
			"-0.014": 0.808156645937,
			"-0.013": 2.29637821587,
			"-0.012": 3.61434710884,
			"-0.011": 6.99268464837,
			"-0.01": 6.18126127332,
			"-0.009": 6.76218474205,
			"-0.008": 6.89139020676,
			"-0.007": 8.61069147308,
			"-0.006": 7.8663542065,
			"-0.005": 7.56669916361,
			"-0.004": 8.47898773841,
			"-0.003": 6.98324780053,
			"-0.002": 6.91821320859,
			"-0.001": 6.75418800598,
			"0.0": 8.7218866649,
			"0.001": 8.70993573479,
			"0.002": 10.4291800992,
			"0.003": 12.0530316814,
			"0.004": 11.417799572,
			"0.005": 12.5150616635,
			"0.006": 7.6795433173,
			"0.007": 5.51853050218,
			"0.008": 5.74869957963,
			"0.009": 3.37178385939,
			"0.01": 3.39433308919,
			"0.011": 3.0672867817,
			"0.012": 2.97410856317,
			"0.013": 6.03499190937,
			"0.014": 5.56709589231,
			"0.015": 0.882068675557,
			"0.016": 0.475484952457,
			"0.017": 0.0943608521478,
			"0.018": 0.0,
			"0.019": 0.0,
			"0.02": 0.0,
			"0.021": 0.0,
			"0.022": 0.0,
			"0.023": 0.0,
			"0.024": 0.0,
			"0.025": 0.0
		}
	}
}
