{
	 "smiles": "FC1=CC=C(NC2CCN(CC2)C2=CC=NC=C2)C=C1", 
	 "Tm": 425.15, 
	 "num_atms": 38, 
	 "gaussian": { 
		 "optdone": 1, 
		 "sigma_profile": "yes", 
		 "theory": "DFT", 
		 "functional": "B3LYP", 
		 "basiset": "6-31G**", 
		 "properties": { 
			 "R2extent": 9006.4698, 
			 "electric_dipole_moment_norm": 4.21431932938, 
			 "electric_quadrupole_moment_norm": 36.645561792, 
			 "total_energy": -884.625533814, 
			 "HOMO_LUMO_gap": 0.18718, 
			 "cosmo_polarized_energy": -15.43, 
			 "cosmo_cavitation_energy": 39.31, 
			 "cosmo_dispersion_energy": -28.66, 
			 "cosmo_repulsion_energy": 2.13, 
			 "cosmo_total_nonelectrostatic_energy": 12.78, 
			 "SMD_solvation_energy": 3.53 
		},
		"coords": [
			{
				"x": -0.8963405562,
				"y": 6.4542335988,
				"z": 2.3014144548,
				"element": "F" 
			},
			{
				"x": -0.8389093381,
				"y": 5.4652525926,
				"z": 1.3788260118,
				"element": "C" 
			},
			{
				"x": -0.418748304,
				"y": 4.1990622905,
				"z": 1.7566205434,
				"element": "C" 
			},
			{
				"x": -0.3591419199,
				"y": 3.178004607,
				"z": 0.8056773703,
				"element": "C" 
			},
			{
				"x": -0.7218317142,
				"y": 3.4142585406,
				"z": -0.5341192226,
				"element": "C" 
			},
			{
				"x": -0.6447402481,
				"y": 2.4509177306,
				"z": -1.541011585,
				"element": "N" 
			},
			{
				"x": -0.5976553593,
				"y": 0.9991924252,
				"z": -1.3578292415,
				"element": "C" 
			},
			{
				"x": -1.6680108093,
				"y": 0.408351977,
				"z": -0.3877298581,
				"element": "C" 
			},
			{
				"x": -1.0908845083,
				"y": -0.5776157577,
				"z": 0.6417745788,
				"element": "C" 
			},
			{
				"x": -0.1936926811,
				"y": -1.5511074587,
				"z": 0.0251027297,
				"element": "N" 
			},
			{
				"x": 0.7990047101,
				"y": -1.0521416444,
				"z": -0.9328531927,
				"element": "C" 
			},
			{
				"x": 0.804772431,
				"y": 0.4767840745,
				"z": -1.0011324035,
				"element": "C" 
			},
			{
				"x": -0.1099844543,
				"y": -2.8556078997,
				"z": 0.4693148356,
				"element": "C" 
			},
			{
				"x": 0.6869059191,
				"y": -3.8111574277,
				"z": -0.2043618013,
				"element": "C" 
			},
			{
				"x": 0.7341248184,
				"y": -5.1189785825,
				"z": 0.2646773599,
				"element": "C" 
			},
			{
				"x": 0.0738054586,
				"y": -5.5763692179,
				"z": 1.336992989,
				"element": "N" 
			},
			{
				"x": -0.6732030757,
				"y": -4.6661314955,
				"z": 1.9773618549,
				"element": "C" 
			},
			{
				"x": -0.799595332,
				"y": -3.3319189944,
				"z": 1.6086118234,
				"element": "C" 
			},
			{
				"x": -1.1485088716,
				"y": 4.7146895679,
				"z": -0.8783577303,
				"element": "C" 
			},
			{
				"x": -1.205266672,
				"y": 5.7349635297,
				"z": 0.0645157581,
				"element": "C" 
			},
			{
				"x": -0.1386580896,
				"y": 4.0134285158,
				"z": 2.788174316,
				"element": "H" 
			},
			{
				"x": -0.0208562529,
				"y": 2.1993497,
				"z": 1.1210312666,
				"element": "H" 
			},
			{
				"x": -1.1173866393,
				"y": 2.7320553064,
				"z": -2.3869402339,
				"element": "H" 
			},
			{
				"x": -0.808741279,
				"y": 0.6005985304,
				"z": -2.3568283277,
				"element": "H" 
			},
			{
				"x": -2.1672431529,
				"y": 1.2153062209,
				"z": 0.1567272942,
				"element": "H" 
			},
			{
				"x": -2.438591059,
				"y": -0.1040675601,
				"z": -0.9726791269,
				"element": "H" 
			},
			{
				"x": -1.9238590971,
				"y": -1.1122491811,
				"z": 1.1001668342,
				"element": "H" 
			},
			{
				"x": -0.5860373087,
				"y": -0.0310121755,
				"z": 1.4546415058,
				"element": "H" 
			},
			{
				"x": 1.7965057873,
				"y": -1.4093858376,
				"z": -0.6463250685,
				"element": "H" 
			},
			{
				"x": 0.5955892059,
				"y": -1.4560975745,
				"z": -1.9379446772,
				"element": "H" 
			},
			{
				"x": 1.1569372787,
				"y": 0.8933236474,
				"z": -0.052672238,
				"element": "H" 
			},
			{
				"x": 1.5170774573,
				"y": 0.7981676892,
				"z": -1.7670046036,
				"element": "H" 
			},
			{
				"x": 1.2473158798,
				"y": -3.5524019692,
				"z": -1.0940813701,
				"element": "H" 
			},
			{
				"x": 1.3457465142,
				"y": -5.8477856623,
				"z": -0.2663372139,
				"element": "H" 
			},
			{
				"x": -1.2069525879,
				"y": -5.0212512692,
				"z": 2.8583477384,
				"element": "H" 
			},
			{
				"x": -1.4068495662,
				"y": -2.6785872331,
				"z": 2.2226937538,
				"element": "H" 
			},
			{
				"x": -1.4351609558,
				"y": 4.9250855842,
				"z": -1.9061406469,
				"element": "H" 
			},
			{
				"x": -1.5332356277,
				"y": 6.7324408125,
				"z": -0.2082244768,
				"element": "H" 
			}
		],
		 "valence_orbital": [ 
			{
				"type": "occ",
				"energy": -0.25949,
				"method": "rhf"
			},
			{
				"type": "occ",
				"energy": -0.24963,
				"method": "rhf"
			},
			{
				"type": "occ",
				"energy": -0.23977,
				"method": "rhf"
			},
			{
				"type": "occ",
				"energy": -0.20692,
				"method": "rhf"
			},
			{
				"type": "occ",
				"energy": -0.19868,
				"method": "rhf"
			},
			{
				"type": "unocc",
				"energy": -0.0115,
				"method": "rhf"
			},
			{
				"type": "unocc",
				"energy": 0.00172,
				"method": "rhf"
			},
			{
				"type": "unocc",
				"energy": 0.00565,
				"method": "rhf"
			},
			{
				"type": "unocc",
				"energy": 0.01646,
				"method": "rhf"
			},
			{
				"type": "unocc",
				"energy": 0.05256,
				"method": "rhf"
			}
		],
		"cosmo_sigma_profile": { 
			"-0.025": 0.0,
			"-0.024": 0.0,
			"-0.023": 0.0,
			"-0.022": 0.0,
			"-0.021": 0.0,
			"-0.02": 0.0,
			"-0.019": 0.0,
			"-0.018": 0.0,
			"-0.017": 0.0,
			"-0.016": 0.0,
			"-0.015": 0.0,
			"-0.014": 0.0,
			"-0.013": 0.247748890222,
			"-0.012": 1.47437509515,
			"-0.011": 1.3854156802,
			"-0.01": 1.55638405547,
			"-0.009": 1.80444753791,
			"-0.008": 2.0010024865,
			"-0.007": 5.70179458849,
			"-0.006": 12.8203465261,
			"-0.005": 22.003172844,
			"-0.004": 34.0032699697,
			"-0.003": 32.5357292105,
			"-0.002": 25.8250594309,
			"-0.001": 19.1578898069,
			"0.0": 16.4004003424,
			"0.001": 15.1837613021,
			"0.002": 17.3448536644,
			"0.003": 19.538898551,
			"0.004": 24.6657564401,
			"0.005": 30.8743945372,
			"0.006": 9.83792918837,
			"0.007": 3.25452233987,
			"0.008": 1.35417463329,
			"0.009": 2.27779823059,
			"0.01": 2.00122329183,
			"0.011": 1.03558609427,
			"0.012": 1.09197543324,
			"0.013": 1.10143253523,
			"0.014": 1.03830632801,
			"0.015": 0.935768449355,
			"0.016": 1.28499835023,
			"0.017": 0.65700277735,
			"0.018": 0.956278775011,
			"0.019": 0.043644439008,
			"0.02": 0.0,
			"0.021": 0.0,
			"0.022": 0.0,
			"0.023": 0.0,
			"0.024": 0.0,
			"0.025": 0.0
		}
	}
}
