{
	 "smiles": "OC(=O)C1=C(NC(=O)CCl)C=CC=C1", 
	 "Tm": 459.15, 
	 "num_atms": 22, 
	 "gaussian": { 
		 "optdone": 1, 
		 "sigma_profile": "yes", 
		 "theory": "DFT", 
		 "functional": "B3LYP", 
		 "basiset": "6-31G**", 
		 "properties": { 
			 "R2extent": 3659.8731, 
			 "electric_dipole_moment_norm": 6.06550439865, 
			 "electric_quadrupole_moment_norm": 14.5414622838, 
			 "total_energy": -1088.41086485, 
			 "HOMO_LUMO_gap": 0.20903, 
			 "cosmo_polarized_energy": -19.82, 
			 "cosmo_cavitation_energy": 28.29, 
			 "cosmo_dispersion_energy": -20.0, 
			 "cosmo_repulsion_energy": 1.58, 
			 "cosmo_total_nonelectrostatic_energy": 9.87, 
			 "SMD_solvation_energy": 6.87 
		},
		"coords": [
			{
				"x": 1.0391903088,
				"y": 2.2291554007,
				"z": 0.4097128237,
				"element": "O" 
			},
			{
				"x": 1.8647578958,
				"y": 1.2037983779,
				"z": 0.146973419,
				"element": "C" 
			},
			{
				"x": 3.0287282558,
				"y": 1.2437720294,
				"z": 0.4785629629,
				"element": "O" 
			},
			{
				"x": 1.2960344546,
				"y": -0.0018332359,
				"z": -0.5759057793,
				"element": "C" 
			},
			{
				"x": -0.0629502307,
				"y": -0.2378337196,
				"z": -0.8631289509,
				"element": "C" 
			},
			{
				"x": -1.0884245656,
				"y": 0.6912790593,
				"z": -0.4409332519,
				"element": "N" 
			},
			{
				"x": -2.0763059732,
				"y": 1.2181424535,
				"z": -1.2776595795,
				"element": "C" 
			},
			{
				"x": -3.165157413,
				"y": 1.5365639142,
				"z": -0.8410670096,
				"element": "O" 
			},
			{
				"x": -1.7133191268,
				"y": 1.4442449628,
				"z": -2.7432390337,
				"element": "C" 
			},
			{
				"x": -0.3432588378,
				"y": 2.6128901353,
				"z": -2.9217175289,
				"element": "Cl" 
			},
			{
				"x": -0.4476370655,
				"y": -1.4116800835,
				"z": -1.5215028946,
				"element": "C" 
			},
			{
				"x": 0.5054214772,
				"y": -2.3441603925,
				"z": -1.9262448191,
				"element": "C" 
			},
			{
				"x": 1.8546942318,
				"y": -2.1168019793,
				"z": -1.6505468676,
				"element": "C" 
			},
			{
				"x": 2.2368401864,
				"y": -0.9623816841,
				"z": -0.9750027875,
				"element": "C" 
			},
			{
				"x": 0.1528649509,
				"y": 2.039840089,
				"z": 0.0445645798,
				"element": "H" 
			},
			{
				"x": -1.4688316465,
				"y": 0.5283035101,
				"z": 0.4890260303,
				"element": "H" 
			},
			{
				"x": -2.5856079911,
				"y": 1.8751503217,
				"z": -3.2296237721,
				"element": "H" 
			},
			{
				"x": -1.4120481513,
				"y": 0.5230312428,
				"z": -3.2423585953,
				"element": "H" 
			},
			{
				"x": -1.5038578142,
				"y": -1.5953123745,
				"z": -1.697914665,
				"element": "H" 
			},
			{
				"x": 0.1917721623,
				"y": -3.247737025,
				"z": -2.4401223494,
				"element": "H" 
			},
			{
				"x": 2.6047904108,
				"y": -2.8399705346,
				"z": -1.955095997,
				"element": "H" 
			},
			{
				"x": 3.2761044813,
				"y": -0.7663604677,
				"z": -0.7364759342,
				"element": "H" 
			}
		],
		 "valence_orbital": [ 
			{
				"type": "occ",
				"energy": -0.31098,
				"method": "rhf"
			},
			{
				"type": "occ",
				"energy": -0.28529,
				"method": "rhf"
			},
			{
				"type": "occ",
				"energy": -0.28099,
				"method": "rhf"
			},
			{
				"type": "occ",
				"energy": -0.27951,
				"method": "rhf"
			},
			{
				"type": "occ",
				"energy": -0.27371,
				"method": "rhf"
			},
			{
				"type": "unocc",
				"energy": -0.06468,
				"method": "rhf"
			},
			{
				"type": "unocc",
				"energy": -0.04772,
				"method": "rhf"
			},
			{
				"type": "unocc",
				"energy": -0.03788,
				"method": "rhf"
			},
			{
				"type": "unocc",
				"energy": 0.03083,
				"method": "rhf"
			},
			{
				"type": "unocc",
				"energy": 0.04469,
				"method": "rhf"
			}
		],
		"cosmo_sigma_profile": { 
			"-0.025": 0.0,
			"-0.024": 0.0,
			"-0.023": 0.0,
			"-0.022": 0.0,
			"-0.021": 0.0,
			"-0.02": 0.0,
			"-0.019": 0.0,
			"-0.018": 0.0,
			"-0.017": 0.0,
			"-0.016": 0.711430650999,
			"-0.015": 1.4216730864,
			"-0.014": 1.28897666162,
			"-0.013": 0.974874821226,
			"-0.012": 1.79006400365,
			"-0.011": 2.33446810281,
			"-0.01": 3.18164732207,
			"-0.009": 5.47369176861,
			"-0.008": 8.38990692302,
			"-0.007": 12.1852855584,
			"-0.006": 13.6358470829,
			"-0.005": 12.741026331,
			"-0.004": 9.13864670878,
			"-0.003": 9.76242126485,
			"-0.002": 11.3125598442,
			"-0.001": 13.3897229621,
			"0.0": 12.9907503754,
			"0.001": 15.8491102381,
			"0.002": 17.898315749,
			"0.003": 13.3991459389,
			"0.004": 8.17664340029,
			"0.005": 9.67797702259,
			"0.006": 4.27957646529,
			"0.007": 3.05516149102,
			"0.008": 3.54887683258,
			"0.009": 5.75061590709,
			"0.01": 6.87179441004,
			"0.011": 10.627075184,
			"0.012": 6.56030568857,
			"0.013": 1.93316640427,
			"0.014": 0.219813162212,
			"0.015": 0.0,
			"0.016": 0.0,
			"0.017": 0.0,
			"0.018": 0.0,
			"0.019": 0.0,
			"0.02": 0.0,
			"0.021": 0.0,
			"0.022": 0.0,
			"0.023": 0.0,
			"0.024": 0.0,
			"0.0": 0.0
		}
	}
}
