{
	 "smiles": "CNCC1=CC=C(C=C1)C1=NOC(C)=N1", 
	 "Tm": 325.15, 
	 "num_atms": 28, 
	 "gaussian": { 
		 "optdone": 1, 
		 "sigma_profile": "yes", 
		 "theory": "DFT", 
		 "functional": "B3LYP", 
		 "basiset": "6-31G**", 
		 "properties": { 
			 "R2extent": 5788.6103, 
			 "electric_dipole_moment_norm": 2.158747674, 
			 "electric_quadrupole_moment_norm": 22.5282447161, 
			 "total_energy": -666.451358239, 
			 "HOMO_LUMO_gap": 0.1856, 
			 "cosmo_polarized_energy": -10.61, 
			 "cosmo_cavitation_energy": 32.11, 
			 "cosmo_dispersion_energy": -23.45, 
			 "cosmo_repulsion_energy": 1.85, 
			 "cosmo_total_nonelectrostatic_energy": 10.51, 
			 "SMD_solvation_energy": 2.82 
		},
		"coords": [
			{
				"x": 2.8235621993,
				"y": 2.9581083549,
				"z": -0.3257241701,
				"element": "C" 
			},
			{
				"x": 1.4931834055,
				"y": 3.0952613405,
				"z": 0.2594308207,
				"element": "N" 
			},
			{
				"x": 0.4330041656,
				"y": 2.493506059,
				"z": -0.5450994786,
				"element": "C" 
			},
			{
				"x": 0.4102851982,
				"y": 0.9772884723,
				"z": -0.4496835115,
				"element": "C" 
			},
			{
				"x": 0.6945280188,
				"y": 0.3322147516,
				"z": 0.7632299313,
				"element": "C" 
			},
			{
				"x": 0.6292203269,
				"y": -1.052614291,
				"z": 0.8653783669,
				"element": "C" 
			},
			{
				"x": 0.2733319582,
				"y": -1.8291968116,
				"z": -0.249823264,
				"element": "C" 
			},
			{
				"x": -0.0088218941,
				"y": -1.1913788756,
				"z": -1.4648708367,
				"element": "C" 
			},
			{
				"x": 0.0653013673,
				"y": 0.1970353022,
				"z": -1.5587153663,
				"element": "C" 
			},
			{
				"x": 0.199370804,
				"y": -3.292577025,
				"z": -0.1585434426,
				"element": "C" 
			},
			{
				"x": 0.4559791968,
				"y": -3.9547443371,
				"z": 0.9486890331,
				"element": "N" 
			},
			{
				"x": 0.2632091543,
				"y": -5.2968482319,
				"z": 0.5767458348,
				"element": "O" 
			},
			{
				"x": -0.0899628763,
				"y": -5.2902332824,
				"z": -0.7211793976,
				"element": "C" 
			},
			{
				"x": -0.3588487503,
				"y": -6.5963511167,
				"z": -1.3812146482,
				"element": "C" 
			},
			{
				"x": -0.147305063,
				"y": -4.0966594081,
				"z": -1.2314608263,
				"element": "N" 
			},
			{
				"x": 2.9056352632,
				"y": 3.353026187,
				"z": -1.3548589084,
				"element": "H" 
			},
			{
				"x": 3.5540290445,
				"y": 3.477876059,
				"z": 0.3013300312,
				"element": "H" 
			},
			{
				"x": 3.1025599777,
				"y": 1.900268057,
				"z": -0.3548779586,
				"element": "H" 
			},
			{
				"x": 1.2838771657,
				"y": 4.0782841235,
				"z": 0.4028375477,
				"element": "H" 
			},
			{
				"x": -0.5232706344,
				"y": 2.8816673386,
				"z": -0.1685772135,
				"element": "H" 
			},
			{
				"x": 0.4855024478,
				"y": 2.7787748989,
				"z": -1.6131664573,
				"element": "H" 
			},
			{
				"x": 0.9788587049,
				"y": 0.9363081663,
				"z": 1.6188697101,
				"element": "H" 
			},
			{
				"x": 0.8519060362,
				"y": -1.5447923274,
				"z": 1.8066402853,
				"element": "H" 
			},
			{
				"x": -0.2763576861,
				"y": -1.7924407429,
				"z": -2.3271673787,
				"element": "H" 
			},
			{
				"x": -0.1470073583,
				"y": 0.6807504641,
				"z": -2.5092999511,
				"element": "H" 
			},
			{
				"x": 0.5261418748,
				"y": -7.2387203485,
				"z": -1.3397755257,
				"element": "H" 
			},
			{
				"x": -1.1752768026,
				"y": -7.1223611834,
				"z": -0.8769063151,
				"element": "H" 
			},
			{
				"x": -0.6302352445,
				"y": -6.4224515933,
				"z": -2.4224069107,
				"element": "H" 
			}
		],
		 "valence_orbital": [ 
			{
				"type": "occ",
				"energy": -0.28917,
				"method": "rhf"
			},
			{
				"type": "occ",
				"energy": -0.28788,
				"method": "rhf"
			},
			{
				"type": "occ",
				"energy": -0.24899,
				"method": "rhf"
			},
			{
				"type": "occ",
				"energy": -0.23293,
				"method": "rhf"
			},
			{
				"type": "occ",
				"energy": -0.22442,
				"method": "rhf"
			},
			{
				"type": "unocc",
				"energy": -0.03882,
				"method": "rhf"
			},
			{
				"type": "unocc",
				"energy": -0.00362,
				"method": "rhf"
			},
			{
				"type": "unocc",
				"energy": 0.00654,
				"method": "rhf"
			},
			{
				"type": "unocc",
				"energy": 0.07054,
				"method": "rhf"
			},
			{
				"type": "unocc",
				"energy": 0.08695,
				"method": "rhf"
			}
		],
		"cosmo_sigma_profile": { 
			"-0.025": 0.0,
			"-0.024": 0.0,
			"-0.023": 0.0,
			"-0.022": 0.0,
			"-0.021": 0.0,
			"-0.02": 0.0,
			"-0.019": 0.0,
			"-0.018": 0.0,
			"-0.017": 0.0,
			"-0.016": 0.0,
			"-0.015": 0.0,
			"-0.014": 0.0,
			"-0.013": 0.0,
			"-0.012": 0.0,
			"-0.011": 0.19659457837,
			"-0.01": 1.26782897967,
			"-0.009": 1.45223743717,
			"-0.008": 1.80693440263,
			"-0.007": 7.0069473013,
			"-0.006": 10.1017368951,
			"-0.005": 15.2359263206,
			"-0.004": 21.391600661,
			"-0.003": 24.9118846186,
			"-0.002": 24.7315237287,
			"-0.001": 22.9305340795,
			"0.0": 21.207940549,
			"0.001": 17.6974781497,
			"0.002": 16.0150171381,
			"0.003": 14.3266804051,
			"0.004": 15.5795812662,
			"0.005": 8.87078151177,
			"0.006": 6.39440580983,
			"0.007": 6.78173671736,
			"0.008": 3.97624475334,
			"0.009": 2.41539528683,
			"0.01": 2.91270758868,
			"0.011": 3.48855841677,
			"0.012": 2.5074361761,
			"0.013": 1.09825258038,
			"0.014": 0.505810394133,
			"0.015": 0.0820739790704,
			"0.016": 0.0,
			"0.017": 0.0,
			"0.018": 0.0,
			"0.019": 0.0,
			"0.02": 0.0,
			"0.021": 0.0,
			"0.022": 0.0,
			"0.023": 0.0,
			"0.024": 0.0,
			"0.025": 0.0
		}
	}
}
