{
	 "smiles": "CC(C)C(=O)CNC(=O)C1=CC=C(C=C1)[N+]([O-])=O", 
	 "Tm": 380.15, 
	 "num_atms": 32, 
	 "gaussian": { 
		 "optdone": 1, 
		 "sigma_profile": "yes", 
		 "theory": "DFT", 
		 "functional": "B3LYP", 
		 "basiset": "6-31G**", 
		 "properties": { 
			 "R2extent": 8268.2461, 
			 "electric_dipole_moment_norm": 6.63380561217, 
			 "electric_quadrupole_moment_norm": 10.9668090924, 
			 "total_energy": -876.038233224, 
			 "HOMO_LUMO_gap": 0.16583, 
			 "cosmo_polarized_energy": -16.56, 
			 "cosmo_cavitation_energy": 37.29, 
			 "cosmo_dispersion_energy": -26.3, 
			 "cosmo_repulsion_energy": 2.03, 
			 "cosmo_total_nonelectrostatic_energy": 13.02, 
			 "SMD_solvation_energy": 8.94 
		},
		"coords": [
			{
				"x": -0.1176848228,
				"y": -1.601033923,
				"z": -5.0146574698,
				"element": "C" 
			},
			{
				"x": 1.1167806281,
				"y": -0.9809755602,
				"z": -4.3423659064,
				"element": "C" 
			},
			{
				"x": 2.2421389361,
				"y": -2.0219714908,
				"z": -4.1484392543,
				"element": "C" 
			},
			{
				"x": 0.8274071866,
				"y": -0.3171549591,
				"z": -3.0001258737,
				"element": "C" 
			},
			{
				"x": 1.4179911518,
				"y": 0.6917101119,
				"z": -2.6506413215,
				"element": "O" 
			},
			{
				"x": -0.1865364285,
				"y": -0.9670632899,
				"z": -2.0645671388,
				"element": "C" 
			},
			{
				"x": -0.1859894468,
				"y": -0.2718553364,
				"z": -0.8012314446,
				"element": "N" 
			},
			{
				"x": -1.1831778576,
				"y": -0.4740215002,
				"z": 0.1051860185,
				"element": "C" 
			},
			{
				"x": -2.0736118942,
				"y": -1.3015831142,
				"z": -0.0760051941,
				"element": "O" 
			},
			{
				"x": -1.1390892188,
				"y": 0.371372441,
				"z": 1.3524929027,
				"element": "C" 
			},
			{
				"x": 0.0129103469,
				"y": 1.0385832262,
				"z": 1.7950887219,
				"element": "C" 
			},
			{
				"x": -0.0151667214,
				"y": 1.7981070597,
				"z": 2.961554899,
				"element": "C" 
			},
			{
				"x": -1.2081777082,
				"y": 1.8790340644,
				"z": 3.6761126683,
				"element": "C" 
			},
			{
				"x": -2.3649605782,
				"y": 1.2167393177,
				"z": 3.2675112857,
				"element": "C" 
			},
			{
				"x": -2.3196338551,
				"y": 0.4575845493,
				"z": 2.1036904017,
				"element": "C" 
			},
			{
				"x": -1.2444066477,
				"y": 2.685346894,
				"z": 4.9089901292,
				"element": "N" 
			},
			{
				"x": -2.3093782409,
				"y": 2.7408424981,
				"z": 5.5218473461,
				"element": "O" 
			},
			{
				"x": -0.2075071646,
				"y": 3.2539321127,
				"z": 5.2487441469,
				"element": "O" 
			},
			{
				"x": -0.5212728648,
				"y": -2.4390976176,
				"z": -4.4365687462,
				"element": "H" 
			},
			{
				"x": -0.9176254908,
				"y": -0.8670826131,
				"z": -5.1552413928,
				"element": "H" 
			},
			{
				"x": 0.1536175609,
				"y": -1.9881378498,
				"z": -6.0015365843,
				"element": "H" 
			},
			{
				"x": 1.5098954186,
				"y": -0.1758331207,
				"z": -4.9731682989,
				"element": "H" 
			},
			{
				"x": 1.9179542899,
				"y": -2.8493535186,
				"z": -3.5076206869,
				"element": "H" 
			},
			{
				"x": 2.5282302231,
				"y": -2.4443788139,
				"z": -5.1165745176,
				"element": "H" 
			},
			{
				"x": 3.1284345435,
				"y": -1.5649405726,
				"z": -3.6996482243,
				"element": "H" 
			},
			{
				"x": 0.0536579796,
				"y": -2.032064553,
				"z": -1.9385254931,
				"element": "H" 
			},
			{
				"x": -1.1849065038,
				"y": -0.9455497385,
				"z": -2.523206991,
				"element": "H" 
			},
			{
				"x": 0.413197169,
				"y": 0.5447380807,
				"z": -0.7736140693,
				"element": "H" 
			},
			{
				"x": 0.9482790183,
				"y": 0.9487293117,
				"z": 1.2521645814,
				"element": "H" 
			},
			{
				"x": 0.8615265011,
				"y": 2.3178252146,
				"z": 3.3266977654,
				"element": "H" 
			},
			{
				"x": -3.266985987,
				"y": 1.3040999905,
				"z": 3.8599416602,
				"element": "H" 
			},
			{
				"x": -3.1902095224,
				"y": -0.086047301,
				"z": 1.7544160806,
				"element": "H" 
			}
		],
		 "valence_orbital": [ 
			{
				"type": "occ",
				"energy": -0.28542,
				"method": "rhf"
			},
			{
				"type": "occ",
				"energy": -0.28219,
				"method": "rhf"
			},
			{
				"type": "occ",
				"energy": -0.27641,
				"method": "rhf"
			},
			{
				"type": "occ",
				"energy": -0.26961,
				"method": "rhf"
			},
			{
				"type": "occ",
				"energy": -0.26263,
				"method": "rhf"
			},
			{
				"type": "unocc",
				"energy": -0.0968,
				"method": "rhf"
			},
			{
				"type": "unocc",
				"energy": -0.03919,
				"method": "rhf"
			},
			{
				"type": "unocc",
				"energy": -0.03235,
				"method": "rhf"
			},
			{
				"type": "unocc",
				"energy": -0.02685,
				"method": "rhf"
			},
			{
				"type": "unocc",
				"energy": 0.05228,
				"method": "rhf"
			}
		],
		"cosmo_sigma_profile": { 
			"-0.025": 0.0,
			"-0.024": 0.0,
			"-0.023": 0.0,
			"-0.022": 0.0,
			"-0.021": 0.0,
			"-0.02": 0.0,
			"-0.019": 0.0,
			"-0.018": 0.0,
			"-0.017": 0.0,
			"-0.016": 0.0,
			"-0.015": 0.0,
			"-0.014": 0.0,
			"-0.013": 0.0,
			"-0.012": 0.35249196173,
			"-0.011": 0.845263953172,
			"-0.01": 1.40670684371,
			"-0.009": 1.76923414305,
			"-0.008": 4.50917828182,
			"-0.007": 12.4530231541,
			"-0.006": 15.2388141695,
			"-0.005": 15.7784848045,
			"-0.004": 23.7939310103,
			"-0.003": 26.7494576168,
			"-0.002": 31.8950620338,
			"-0.001": 28.0540095055,
			"0.0": 30.9705945116,
			"0.001": 21.3476674781,
			"0.002": 8.17832762629,
			"0.003": 5.92538592101,
			"0.004": 5.46142395817,
			"0.005": 5.96803711767,
			"0.006": 6.30561365201,
			"0.007": 11.9757400776,
			"0.008": 9.57527239391,
			"0.009": 6.84739357227,
			"0.01": 6.00674871465,
			"0.011": 4.13447271793,
			"0.012": 3.69029240138,
			"0.013": 4.99799298805,
			"0.014": 1.35383820641,
			"0.015": 0.0,
			"0.016": 0.0,
			"0.017": 0.0,
			"0.018": 0.0,
			"0.019": 0.0,
			"0.02": 0.0,
			"0.021": 0.0,
			"0.022": 0.0,
			"0.023": 0.0,
			"0.024": 0.0,
			"0.025": 0.0
		}
	}
}
