{
	 "smiles": "CN1N(C(=O)C(NC(=O)CSC2=NN=C(N)S2)=C1C)C1=CC=CC=C1", 
	 "Tm": 416.15, 
	 "num_atms": 41, 
	 "gaussian": { 
		 "optdone": 1, 
		 "sigma_profile": "yes", 
		 "theory": "DFT", 
		 "functional": "B3LYP", 
		 "basiset": "6-31G**", 
		 "properties": { 
			 "R2extent": 11790.4374, 
			 "electric_dipole_moment_norm": 7.90950480182, 
			 "electric_quadrupole_moment_norm": 25.8861749223, 
			 "total_energy": -1856.52434249, 
			 "HOMO_LUMO_gap": 0.1839, 
			 "cosmo_polarized_energy": -28.63, 
			 "cosmo_cavitation_energy": 48.25, 
			 "cosmo_dispersion_energy": -33.43, 
			 "cosmo_repulsion_energy": 2.47, 
			 "cosmo_total_nonelectrostatic_energy": 17.28, 
			 "SMD_solvation_energy": 7.55 
		},
		"coords": [
			{
				"x": -1.2157001567,
				"y": -2.151799069,
				"z": 1.0022566423,
				"element": "C" 
			},
			{
				"x": 0.1888370312,
				"y": -1.7232245395,
				"z": 0.907126102,
				"element": "N" 
			},
			{
				"x": 0.6065301988,
				"y": -0.8921530891,
				"z": 1.9763619291,
				"element": "N" 
			},
			{
				"x": 1.4142375406,
				"y": 0.1601332628,
				"z": 1.4791367112,
				"element": "C" 
			},
			{
				"x": 1.9875705841,
				"y": 0.9999639904,
				"z": 2.160747546,
				"element": "O" 
			},
			{
				"x": 1.3741891114,
				"y": -0.0151366712,
				"z": 0.0307803937,
				"element": "C" 
			},
			{
				"x": 2.0712367892,
				"y": 0.7988631942,
				"z": -0.8816492596,
				"element": "N" 
			},
			{
				"x": 1.8783904781,
				"y": 2.1411115162,
				"z": -1.122633958,
				"element": "C" 
			},
			{
				"x": 2.6129859345,
				"y": 2.7629499621,
				"z": -1.8714185324,
				"element": "O" 
			},
			{
				"x": 0.7185927449,
				"y": 2.8050385068,
				"z": -0.3748521765,
				"element": "C" 
			},
			{
				"x": -0.292344386,
				"y": 3.896457866,
				"z": -1.4424117121,
				"element": "S" 
			},
			{
				"x": -1.3456422906,
				"y": 2.6856470357,
				"z": -2.1671483344,
				"element": "C" 
			},
			{
				"x": -1.3450452298,
				"y": 1.4152745773,
				"z": -1.9035970987,
				"element": "N" 
			},
			{
				"x": -2.2685775644,
				"y": 0.6973441156,
				"z": -2.6311192065,
				"element": "N" 
			},
			{
				"x": -2.9732899183,
				"y": 1.4463045757,
				"z": -3.4313234852,
				"element": "C" 
			},
			{
				"x": -4.0156912153,
				"y": 0.9795671727,
				"z": -4.1979907443,
				"element": "N" 
			},
			{
				"x": -2.5534420851,
				"y": 3.1618718305,
				"z": -3.3758805835,
				"element": "S" 
			},
			{
				"x": 0.6070253382,
				"y": -1.1021980626,
				"z": -0.2643273186,
				"element": "C" 
			},
			{
				"x": 0.1967941218,
				"y": -1.6186253682,
				"z": -1.602367838,
				"element": "C" 
			},
			{
				"x": 0.7427090806,
				"y": -1.4527009203,
				"z": 3.2737281971,
				"element": "C" 
			},
			{
				"x": 0.859046849,
				"y": -2.837640121,
				"z": 3.4551398066,
				"element": "C" 
			},
			{
				"x": 0.9740005538,
				"y": -3.3586947563,
				"z": 4.7439836829,
				"element": "C" 
			},
			{
				"x": 0.996297641,
				"y": -2.5103085389,
				"z": 5.8515413801,
				"element": "C" 
			},
			{
				"x": 0.899451977,
				"y": -1.1300114105,
				"z": 5.6608195126,
				"element": "C" 
			},
			{
				"x": 0.7620185097,
				"y": -0.5940363718,
				"z": 4.3818673461,
				"element": "C" 
			},
			{
				"x": -1.3652979416,
				"y": -2.6675874069,
				"z": 1.9509730514,
				"element": "H" 
			},
			{
				"x": -1.4178124818,
				"y": -2.8511471835,
				"z": 0.1900633769,
				"element": "H" 
			},
			{
				"x": -1.9031290394,
				"y": -1.3000160833,
				"z": 0.9346673299,
				"element": "H" 
			},
			{
				"x": 2.9203713981,
				"y": 0.445970638,
				"z": -1.30799858,
				"element": "H" 
			},
			{
				"x": 1.1447425237,
				"y": 3.4670072675,
				"z": 0.3831168674,
				"element": "H" 
			},
			{
				"x": 0.054814722,
				"y": 2.0935328309,
				"z": 0.1115494915,
				"element": "H" 
			},
			{
				"x": -4.1458422152,
				"y": 1.4179851234,
				"z": -5.0991144109,
				"element": "H" 
			},
			{
				"x": -4.0470578753,
				"y": -0.0317966171,
				"z": -4.2343661737,
				"element": "H" 
			},
			{
				"x": 0.8235788569,
				"y": -1.1613680393,
				"z": -2.3697451964,
				"element": "H" 
			},
			{
				"x": -0.83880069,
				"y": -1.3430543229,
				"z": -1.8318058089,
				"element": "H" 
			},
			{
				"x": 0.2997987776,
				"y": -2.7067871192,
				"z": -1.6602084732,
				"element": "H" 
			},
			{
				"x": 0.879616403,
				"y": -3.4917300307,
				"z": 2.5904291703,
				"element": "H" 
			},
			{
				"x": 1.0608847852,
				"y": -4.4332998484,
				"z": 4.8772082964,
				"element": "H" 
			},
			{
				"x": 1.0919533912,
				"y": -2.9195978542,
				"z": 6.8526583022,
				"element": "H" 
			},
			{
				"x": 0.9216234798,
				"y": -0.4600513347,
				"z": 6.5154127326,
				"element": "H" 
			},
			{
				"x": 0.6917742679,
				"y": 0.4746412925,
				"z": 4.2272910226,
				"element": "H" 
			}
		],
		 "valence_orbital": [ 
			{
				"type": "occ",
				"energy": -0.25085,
				"method": "rhf"
			},
			{
				"type": "occ",
				"energy": -0.246,
				"method": "rhf"
			},
			{
				"type": "occ",
				"energy": -0.22699,
				"method": "rhf"
			},
			{
				"type": "occ",
				"energy": -0.21942,
				"method": "rhf"
			},
			{
				"type": "occ",
				"energy": -0.21189,
				"method": "rhf"
			},
			{
				"type": "unocc",
				"energy": -0.02799,
				"method": "rhf"
			},
			{
				"type": "unocc",
				"energy": -0.02472,
				"method": "rhf"
			},
			{
				"type": "unocc",
				"energy": -0.01555,
				"method": "rhf"
			},
			{
				"type": "unocc",
				"energy": -0.0034,
				"method": "rhf"
			},
			{
				"type": "unocc",
				"energy": 0.00067,
				"method": "rhf"
			}
		],
		"cosmo_sigma_profile": { 
			"-0.025": 0.0,
			"-0.024": 0.0,
			"-0.023": 0.0,
			"-0.022": 0.0,
			"-0.021": 0.0,
			"-0.02": 0.0,
			"-0.019": 0.0,
			"-0.018": 0.0,
			"-0.017": 0.0,
			"-0.016": 0.0605150337391,
			"-0.015": 1.59258161337,
			"-0.014": 4.15425173371,
			"-0.013": 3.96519661526,
			"-0.012": 3.27683273988,
			"-0.011": 3.95570009577,
			"-0.01": 3.63145041761,
			"-0.009": 3.91795417287,
			"-0.008": 4.31426608039,
			"-0.007": 6.71719571295,
			"-0.006": 16.5510541755,
			"-0.005": 27.0559187679,
			"-0.004": 30.5830141298,
			"-0.003": 28.3100823362,
			"-0.002": 27.9752424784,
			"-0.001": 27.3085586973,
			"0.0": 26.8329379779,
			"0.001": 24.9319716023,
			"0.002": 25.0724847035,
			"0.003": 19.4329187375,
			"0.004": 17.6147227549,
			"0.005": 19.9428398631,
			"0.006": 12.5837738843,
			"0.007": 8.02652957894,
			"0.008": 6.56287492926,
			"0.009": 4.97825394729,
			"0.01": 4.7771596335,
			"0.011": 4.67999081542,
			"0.012": 5.56644203429,
			"0.013": 9.71287947754,
			"0.014": 4.65444046628,
			"0.015": 0.132889837289,
			"0.016": 0.0,
			"0.017": 0.0,
			"0.018": 0.0,
			"0.019": 0.0,
			"0.02": 0.0,
			"0.021": 0.0,
			"0.022": 0.0,
			"0.023": 0.0,
			"0.024": 0.0,
			"0.025": 0.0
		}
	}
}
