{
	 "smiles": "NC1=CN(CC2=CC(Cl)=C(Cl)C=C2)C(=O)C=C1", 
	 "Tm": 405.15, 
	 "num_atms": 27, 
	 "gaussian": { 
		 "optdone": 1, 
		 "sigma_profile": "yes", 
		 "theory": "DFT", 
		 "functional": "B3LYP", 
		 "basiset": "6-31G**", 
		 "properties": { 
			 "R2extent": 7486.0956, 
			 "electric_dipole_moment_norm": 7.05106799499, 
			 "electric_quadrupole_moment_norm": 14.3087909381, 
			 "total_energy": -1568.41358713, 
			 "HOMO_LUMO_gap": 0.15135, 
			 "cosmo_polarized_energy": -19.07, 
			 "cosmo_cavitation_energy": 34.97, 
			 "cosmo_dispersion_energy": -25.18, 
			 "cosmo_repulsion_energy": 1.96, 
			 "cosmo_total_nonelectrostatic_energy": 11.76, 
			 "SMD_solvation_energy": 5.81 
		},
		"coords": [
			{
				"x": -2.9231324888,
				"y": -0.8232722713,
				"z": -1.5358207097,
				"element": "N" 
			},
			{
				"x": -2.1859963251,
				"y": -0.3298769568,
				"z": -0.4408995145,
				"element": "C" 
			},
			{
				"x": -1.141885682,
				"y": -1.0098598606,
				"z": 0.1257544304,
				"element": "C" 
			},
			{
				"x": -0.3795446365,
				"y": -0.4664163384,
				"z": 1.1372363671,
				"element": "N" 
			},
			{
				"x": 0.7350779065,
				"y": -1.2469969741,
				"z": 1.7039136534,
				"element": "C" 
			},
			{
				"x": 2.0333461822,
				"y": -1.0947721546,
				"z": 0.9359045622,
				"element": "C" 
			},
			{
				"x": 2.7324482494,
				"y": 0.1179986027,
				"z": 0.9772228357,
				"element": "C" 
			},
			{
				"x": 3.9250202881,
				"y": 0.2712659336,
				"z": 0.2713724952,
				"element": "C" 
			},
			{
				"x": 4.7590112302,
				"y": 1.8039763706,
				"z": 0.3561070977,
				"element": "Cl" 
			},
			{
				"x": 4.4372684914,
				"y": -0.7950030637,
				"z": -0.4838627349,
				"element": "C" 
			},
			{
				"x": 5.9292094783,
				"y": -0.6485197143,
				"z": -1.3811947621,
				"element": "Cl" 
			},
			{
				"x": 3.7456686294,
				"y": -2.0057611134,
				"z": -0.5215696804,
				"element": "C" 
			},
			{
				"x": 2.55219331,
				"y": -2.1520726298,
				"z": 0.1827740834,
				"element": "C" 
			},
			{
				"x": -0.6006635725,
				"y": 0.8164544402,
				"z": 1.6738109398,
				"element": "C" 
			},
			{
				"x": 0.1355220472,
				"y": 1.2706307798,
				"z": 2.5586961754,
				"element": "O" 
			},
			{
				"x": -1.7334017568,
				"y": 1.50706333,
				"z": 1.0900986917,
				"element": "C" 
			},
			{
				"x": -2.4720506311,
				"y": 0.9720090278,
				"z": 0.0778530702,
				"element": "C" 
			},
			{
				"x": -2.7757726375,
				"y": -1.8094436594,
				"z": -1.7129064732,
				"element": "H" 
			},
			{
				"x": -3.9162997484,
				"y": -0.6348019961,
				"z": -1.4644147621,
				"element": "H" 
			},
			{
				"x": -0.8509405994,
				"y": -2.0028399813,
				"z": -0.1996306118,
				"element": "H" 
			},
			{
				"x": 0.8569861904,
				"y": -0.8894900364,
				"z": 2.7280158546,
				"element": "H" 
			},
			{
				"x": 0.4321110376,
				"y": -2.2975190394,
				"z": 1.7271113071,
				"element": "H" 
			},
			{
				"x": 2.3391466362,
				"y": 0.9422346898,
				"z": 1.5632904263,
				"element": "H" 
			},
			{
				"x": 4.1502044284,
				"y": -2.8259580467,
				"z": -1.104178652,
				"element": "H" 
			},
			{
				"x": 2.0293652486,
				"y": -3.1042326461,
				"z": 0.1476919384,
				"element": "H" 
			},
			{
				"x": -1.9428216293,
				"y": 2.4917420346,
				"z": 1.4913177763,
				"element": "H" 
			},
			{
				"x": -3.2927696465,
				"y": 1.5382612733,
				"z": -0.3569938043,
				"element": "H" 
			}
		],
		 "valence_orbital": [ 
			{
				"type": "occ",
				"energy": -0.2786,
				"method": "rhf"
			},
			{
				"type": "occ",
				"energy": -0.25987,
				"method": "rhf"
			},
			{
				"type": "occ",
				"energy": -0.25189,
				"method": "rhf"
			},
			{
				"type": "occ",
				"energy": -0.24384,
				"method": "rhf"
			},
			{
				"type": "occ",
				"energy": -0.19567,
				"method": "rhf"
			},
			{
				"type": "unocc",
				"energy": -0.04432,
				"method": "rhf"
			},
			{
				"type": "unocc",
				"energy": -0.02659,
				"method": "rhf"
			},
			{
				"type": "unocc",
				"energy": -0.02114,
				"method": "rhf"
			},
			{
				"type": "unocc",
				"energy": 0.00676,
				"method": "rhf"
			},
			{
				"type": "unocc",
				"energy": 0.02366,
				"method": "rhf"
			}
		],
		"cosmo_sigma_profile": { 
			"-0.025": 0.0,
			"-0.024": 0.0,
			"-0.023": 0.0,
			"-0.022": 0.0,
			"-0.021": 0.0,
			"-0.02": 0.0,
			"-0.019": 0.0,
			"-0.018": 0.0,
			"-0.017": 0.0,
			"-0.016": 0.0,
			"-0.015": 0.0,
			"-0.014": 0.0,
			"-0.013": 0.537293011048,
			"-0.012": 2.87940462285,
			"-0.011": 3.22770887367,
			"-0.01": 3.76912664643,
			"-0.009": 6.29130574247,
			"-0.008": 10.0049045324,
			"-0.007": 11.7463833486,
			"-0.006": 11.126139742,
			"-0.005": 11.6186512933,
			"-0.004": 11.2756476785,
			"-0.003": 14.3149541543,
			"-0.002": 12.8067741638,
			"-0.001": 15.0797363344,
			"0.0": 25.9373152506,
			"0.001": 29.7838246652,
			"0.002": 32.9541249702,
			"0.003": 25.0564588984,
			"0.004": 21.6785971051,
			"0.005": 7.93172987782,
			"0.006": 3.72889392899,
			"0.007": 2.57077298906,
			"0.008": 1.79326323774,
			"0.009": 1.5055021902,
			"0.01": 1.85417182494,
			"0.011": 1.95372104962,
			"0.012": 2.16269005822,
			"0.013": 2.101829866,
			"0.014": 2.8204107692,
			"0.015": 3.85107860134,
			"0.016": 1.74133479411,
			"0.017": 0.0171561685441,
			"0.018": 0.0,
			"0.019": 0.0,
			"0.02": 0.0,
			"0.021": 0.0,
			"0.022": 0.0,
			"0.023": 0.0,
			"0.024": 0.0,
			"0.025": 0.0
		}
	}
}
