{
	 "smiles": "CC(C)(C)OC(=O)N1CCC(CC1)OC1=CC=CC=C1[N+]([O-])=O", 
	 "Tm": 365.15, 
	 "num_atms": 45, 
	 "gaussian": { 
		 "optdone": 1, 
		 "sigma_profile": "yes", 
		 "theory": "DFT", 
		 "functional": "B3LYP", 
		 "basiset": "6-31G**", 
		 "properties": { 
			 "R2extent": 9671.1401, 
			 "electric_dipole_moment_norm": 2.59093755618, 
			 "electric_quadrupole_moment_norm": 24.729497599, 
			 "total_energy": -1108.50772932, 
			 "HOMO_LUMO_gap": 0.15655, 
			 "cosmo_polarized_energy": -15.82, 
			 "cosmo_cavitation_energy": 46.13, 
			 "cosmo_dispersion_energy": -31.46, 
			 "cosmo_repulsion_energy": 2.41, 
			 "cosmo_total_nonelectrostatic_energy": 17.07, 
			 "SMD_solvation_energy": 10.24 
		},
		"coords": [
			{
				"x": 1.2629987372,
				"y": -4.6607466172,
				"z": -0.9329946464,
				"element": "C" 
			},
			{
				"x": 2.0412923878,
				"y": -4.4848702856,
				"z": 0.3752989316,
				"element": "C" 
			},
			{
				"x": 3.5051746901,
				"y": -4.9187314951,
				"z": 0.2446888306,
				"element": "C" 
			},
			{
				"x": 1.3537264657,
				"y": -5.2345437758,
				"z": 1.5197245934,
				"element": "C" 
			},
			{
				"x": 1.967728385,
				"y": -3.0848091707,
				"z": 0.8237130538,
				"element": "O" 
			},
			{
				"x": 2.4784423933,
				"y": -2.0840781537,
				"z": 0.0663967638,
				"element": "C" 
			},
			{
				"x": 3.0318256592,
				"y": -2.2264881192,
				"z": -1.0158659328,
				"element": "O" 
			},
			{
				"x": 2.2958437777,
				"y": -0.8636985492,
				"z": 0.6697664759,
				"element": "N" 
			},
			{
				"x": 2.7869678873,
				"y": 0.3396137916,
				"z": 0.0089095751,
				"element": "C" 
			},
			{
				"x": 1.6500192734,
				"y": 1.3563346991,
				"z": -0.1854207233,
				"element": "C" 
			},
			{
				"x": 0.9671926199,
				"y": 1.6496729433,
				"z": 1.1540238816,
				"element": "C" 
			},
			{
				"x": 0.4805125776,
				"y": 0.3571952789,
				"z": 1.8162630493,
				"element": "C" 
			},
			{
				"x": 1.6384334508,
				"y": -0.6460553201,
				"z": 1.9549979978,
				"element": "C" 
			},
			{
				"x": -0.0646290088,
				"y": 2.6688482788,
				"z": 1.06056729,
				"element": "O" 
			},
			{
				"x": -1.1959590462,
				"y": 2.4532375454,
				"z": 0.3335666093,
				"element": "C" 
			},
			{
				"x": -1.2071106975,
				"y": 2.7610906513,
				"z": -1.0352905364,
				"element": "C" 
			},
			{
				"x": -2.3590854056,
				"y": 2.6148508424,
				"z": -1.8036962754,
				"element": "C" 
			},
			{
				"x": -3.5397854936,
				"y": 2.1451335642,
				"z": -1.2226916413,
				"element": "C" 
			},
			{
				"x": -3.5574696166,
				"y": 1.8359730507,
				"z": 0.1318780025,
				"element": "C" 
			},
			{
				"x": -2.405228416,
				"y": 2.0012160619,
				"z": 0.9053820907,
				"element": "C" 
			},
			{
				"x": -2.5313930851,
				"y": 1.6945237208,
				"z": 2.3379016624,
				"element": "N" 
			},
			{
				"x": -1.8170258812,
				"y": 2.2998693597,
				"z": 3.1330092849,
				"element": "O" 
			},
			{
				"x": -3.3715581362,
				"y": 0.8488373494,
				"z": 2.654627175,
				"element": "O" 
			},
			{
				"x": 0.2354082954,
				"y": -4.3023253661,
				"z": -0.8142109211,
				"element": "H" 
			},
			{
				"x": 1.7382818059,
				"y": -4.112575862,
				"z": -1.7464459087,
				"element": "H" 
			},
			{
				"x": 1.2230290672,
				"y": -5.7228553876,
				"z": -1.1959500409,
				"element": "H" 
			},
			{
				"x": 4.0045373469,
				"y": -4.3712147839,
				"z": -0.554637968,
				"element": "H" 
			},
			{
				"x": 3.5518293199,
				"y": -5.9902634041,
				"z": 0.0245573489,
				"element": "H" 
			},
			{
				"x": 4.0384445979,
				"y": -4.7421119782,
				"z": 1.184272361,
				"element": "H" 
			},
			{
				"x": 1.3408285075,
				"y": -6.3083481093,
				"z": 1.310828698,
				"element": "H" 
			},
			{
				"x": 1.8843523459,
				"y": -5.0720118874,
				"z": 2.462482689,
				"element": "H" 
			},
			{
				"x": 0.3213355103,
				"y": -4.8935140022,
				"z": 1.6409677516,
				"element": "H" 
			},
			{
				"x": 3.5841730796,
				"y": 0.7891766832,
				"z": 0.621190601,
				"element": "H" 
			},
			{
				"x": 3.221377569,
				"y": 0.0439606072,
				"z": -0.9453078945,
				"element": "H" 
			},
			{
				"x": 2.0512259037,
				"y": 2.2828180363,
				"z": -0.6115394795,
				"element": "H" 
			},
			{
				"x": 0.9244412165,
				"y": 0.9437035871,
				"z": -0.8952772255,
				"element": "H" 
			},
			{
				"x": 1.6936705303,
				"y": 2.1303676131,
				"z": 1.8193048324,
				"element": "H" 
			},
			{
				"x": -0.3103416906,
				"y": -0.0983529279,
				"z": 1.2076452569,
				"element": "H" 
			},
			{
				"x": 0.0649879745,
				"y": 0.5809912404,
				"z": 2.8025740654,
				"element": "H" 
			},
			{
				"x": 1.2781947294,
				"y": -1.5982619609,
				"z": 2.3370630116,
				"element": "H" 
			},
			{
				"x": 2.3763682426,
				"y": -0.2555653389,
				"z": 2.673119161,
				"element": "H" 
			},
			{
				"x": -0.2903072448,
				"y": 3.1362543756,
				"z": -1.475596765,
				"element": "H" 
			},
			{
				"x": -2.3341546901,
				"y": 2.8708496578,
				"z": -2.8587255583,
				"element": "H" 
			},
			{
				"x": -4.4404035341,
				"y": 2.0293801583,
				"z": -1.8164533928,
				"element": "H" 
			},
			{
				"x": -4.4523924009,
				"y": 1.4687233984,
				"z": 0.6191838654,
				"element": "H" 
			}
		],
		 "valence_orbital": [ 
			{
				"type": "occ",
				"energy": -0.27632,
				"method": "rhf"
			},
			{
				"type": "occ",
				"energy": -0.27205,
				"method": "rhf"
			},
			{
				"type": "occ",
				"energy": -0.26067,
				"method": "rhf"
			},
			{
				"type": "occ",
				"energy": -0.25975,
				"method": "rhf"
			},
			{
				"type": "occ",
				"energy": -0.2401,
				"method": "rhf"
			},
			{
				"type": "unocc",
				"energy": -0.08355,
				"method": "rhf"
			},
			{
				"type": "unocc",
				"energy": -0.02473,
				"method": "rhf"
			},
			{
				"type": "unocc",
				"energy": -0.00587,
				"method": "rhf"
			},
			{
				"type": "unocc",
				"energy": 0.05069,
				"method": "rhf"
			},
			{
				"type": "unocc",
				"energy": 0.06573,
				"method": "rhf"
			}
		],
		"cosmo_sigma_profile": { 
			"-0.025": 0.0,
			"-0.024": 0.0,
			"-0.023": 0.0,
			"-0.022": 0.0,
			"-0.021": 0.0,
			"-0.02": 0.0,
			"-0.019": 0.0,
			"-0.018": 0.0,
			"-0.017": 0.0,
			"-0.016": 0.0,
			"-0.015": 0.0,
			"-0.014": 0.0,
			"-0.013": 0.0,
			"-0.012": 0.0,
			"-0.011": 0.0,
			"-0.01": 0.0,
			"-0.009": 0.0,
			"-0.008": 0.846343146708,
			"-0.007": 7.40109891594,
			"-0.006": 13.5118624581,
			"-0.005": 20.7688372361,
			"-0.004": 38.65373839,
			"-0.003": 43.3476806074,
			"-0.002": 35.418802649,
			"-0.001": 29.7234238447,
			"0.0": 39.2110211656,
			"0.001": 33.3362282741,
			"0.002": 21.2687195625,
			"0.003": 11.811861833,
			"0.004": 8.47392179571,
			"0.005": 8.18397150887,
			"0.006": 6.2841234679,
			"0.007": 8.22866410727,
			"0.008": 10.8479675626,
			"0.009": 7.9157183829,
			"0.01": 6.33806028752,
			"0.011": 3.16311704441,
			"0.012": 2.29119268819,
			"0.013": 3.63041938443,
			"0.014": 1.27822508908,
			"0.015": 0.0,
			"0.016": 0.0,
			"0.017": 0.0,
			"0.018": 0.0,
			"0.019": 0.0,
			"0.02": 0.0,
			"0.021": 0.0,
			"0.022": 0.0,
			"0.023": 0.0,
			"0.024": 0.0,
			"0.025": 0.0
		}
	}
}
