{
	 "smiles": "COP(=S)(OC)OC1=CC=C(SC2=CC=C(OP(=S)(OC)OC)C=C2)C=C1", 
	 "Tm": 303.45, 
	 "num_atms": 47, 
	 "gaussian": { 
		 "optdone": 1, 
		 "sigma_profile": "yes", 
		 "theory": "DFT", 
		 "functional": "B3LYP", 
		 "basiset": "6-31G**", 
		 "properties": { 
			 "R2extent": 23801.0467, 
			 "electric_dipole_moment_norm": 4.74341730612, 
			 "electric_quadrupole_moment_norm": 55.6357994856, 
			 "total_energy": -2950.47165686, 
			 "HOMO_LUMO_gap": 0.18683, 
			 "cosmo_polarized_energy": -20.87, 
			 "cosmo_cavitation_energy": 60.52, 
			 "cosmo_dispersion_energy": -41.42, 
			 "cosmo_repulsion_energy": 3.04, 
			 "cosmo_total_nonelectrostatic_energy": 22.14, 
			 "SMD_solvation_energy": 12.41 
		},
		"coords": [
			{
				"x": 3.9780288013,
				"y": 1.692033897,
				"z": -3.3626843219,
				"element": "C" 
			},
			{
				"x": 4.3404020463,
				"y": 1.440253961,
				"z": -1.9907246911,
				"element": "O" 
			},
			{
				"x": 5.2292486882,
				"y": 0.1414491336,
				"z": -1.5882458369,
				"element": "P" 
			},
			{
				"x": 6.6627854119,
				"y": -0.3163153215,
				"z": -2.7976620668,
				"element": "S" 
			},
			{
				"x": 5.5662202172,
				"y": 0.4960050807,
				"z": -0.0574934235,
				"element": "O" 
			},
			{
				"x": 6.5107494165,
				"y": 1.5380721333,
				"z": 0.2551971584,
				"element": "C" 
			},
			{
				"x": 4.1753304822,
				"y": -1.0771634688,
				"z": -1.3892577964,
				"element": "O" 
			},
			{
				"x": 3.2138662308,
				"y": -1.2016854257,
				"z": -0.3854957231,
				"element": "C" 
			},
			{
				"x": 3.0983510819,
				"y": -2.4586162368,
				"z": 0.2027898274,
				"element": "C" 
			},
			{
				"x": 2.1094187305,
				"y": -2.6789837346,
				"z": 1.1612274423,
				"element": "C" 
			},
			{
				"x": 1.2515936473,
				"y": -1.6409806039,
				"z": 1.5454403311,
				"element": "C" 
			},
			{
				"x": 0.064081479,
				"y": -1.9318166708,
				"z": 2.856559331,
				"element": "S" 
			},
			{
				"x": -1.5104947912,
				"y": -1.575547604,
				"z": 2.0745011024,
				"element": "C" 
			},
			{
				"x": -2.5202714524,
				"y": -1.0150894634,
				"z": 2.8678985215,
				"element": "C" 
			},
			{
				"x": -3.7884116989,
				"y": -0.7855206294,
				"z": 2.3362556914,
				"element": "C" 
			},
			{
				"x": -4.0408168738,
				"y": -1.0984401008,
				"z": 1.0022817145,
				"element": "C" 
			},
			{
				"x": -5.3445274529,
				"y": -0.8964161987,
				"z": 0.538904701,
				"element": "O" 
			},
			{
				"x": -5.7643394671,
				"y": 0.031389157,
				"z": -0.7235557699,
				"element": "P" 
			},
			{
				"x": -7.6438388591,
				"y": 0.4783489012,
				"z": -0.7253647133,
				"element": "S" 
			},
			{
				"x": -5.1869148933,
				"y": -0.8394747385,
				"z": -1.9522856877,
				"element": "O" 
			},
			{
				"x": -5.409632129,
				"y": -0.4040706145,
				"z": -3.3080611233,
				"element": "C" 
			},
			{
				"x": -4.7111210015,
				"y": 1.2620789143,
				"z": -0.7388277513,
				"element": "O" 
			},
			{
				"x": -4.9201353552,
				"y": 2.4294915814,
				"z": 0.0776984415,
				"element": "C" 
			},
			{
				"x": -3.0486835484,
				"y": -1.6594622029,
				"z": 0.1983592882,
				"element": "C" 
			},
			{
				"x": -1.787885938,
				"y": -1.9019711637,
				"z": 0.7404428631,
				"element": "C" 
			},
			{
				"x": 1.3913935319,
				"y": -0.3790237689,
				"z": 0.9503239378,
				"element": "C" 
			},
			{
				"x": 2.3578742093,
				"y": -0.1575701712,
				"z": -0.0276259025,
				"element": "C" 
			},
			{
				"x": 3.2674866677,
				"y": 0.9381252385,
				"z": -3.7148107618,
				"element": "H" 
			},
			{
				"x": 4.8658251197,
				"y": 1.6878166199,
				"z": -3.9998107692,
				"element": "H" 
			},
			{
				"x": 3.5082990165,
				"y": 2.6763134693,
				"z": -3.3751657863,
				"element": "H" 
			},
			{
				"x": 7.4707872215,
				"y": 1.3404094117,
				"z": -0.2294588755,
				"element": "H" 
			},
			{
				"x": 6.6296751471,
				"y": 1.5214043241,
				"z": 1.3387523018,
				"element": "H" 
			},
			{
				"x": 6.1218398953,
				"y": 2.50925071,
				"z": -0.062971855,
				"element": "H" 
			},
			{
				"x": 3.7729857235,
				"y": -3.2503618513,
				"z": -0.1039696158,
				"element": "H" 
			},
			{
				"x": 2.0029536908,
				"y": -3.6599180441,
				"z": 1.6127784896,
				"element": "H" 
			},
			{
				"x": -2.3145806797,
				"y": -0.7537792089,
				"z": 3.9014180068,
				"element": "H" 
			},
			{
				"x": -4.5827284347,
				"y": -0.363537451,
				"z": 2.9430575159,
				"element": "H" 
			},
			{
				"x": -6.4781929926,
				"y": -0.2638137507,
				"z": -3.4917622078,
				"element": "H" 
			},
			{
				"x": -4.8697937395,
				"y": 0.5273753506,
				"z": -3.5004135001,
				"element": "H" 
			},
			{
				"x": -5.0225853441,
				"y": -1.197536395,
				"z": -3.9480121052,
				"element": "H" 
			},
			{
				"x": -4.7286183978,
				"y": 2.1967487806,
				"z": 1.1294267326,
				"element": "H" 
			},
			{
				"x": -4.2028961307,
				"y": 3.1745965185,
				"z": -0.2688705627,
				"element": "H" 
			},
			{
				"x": -5.9402825042,
				"y": 2.8042181455,
				"z": -0.0402693652,
				"element": "H" 
			},
			{
				"x": -3.2698803464,
				"y": -1.9139998121,
				"z": -0.8311017712,
				"element": "H" 
			},
			{
				"x": -1.0181273044,
				"y": -2.3497301359,
				"z": 0.1209095923,
				"element": "H" 
			},
			{
				"x": 0.7349963596,
				"y": 0.4319484948,
				"z": 1.2486438273,
				"element": "H" 
			},
			{
				"x": 2.4599665189,
				"y": 0.8145949442,
				"z": -0.4948648344,
				"element": "H" 
			}
		],
		 "valence_orbital": [ 
			{
				"type": "occ",
				"energy": -0.25228,
				"method": "rhf"
			},
			{
				"type": "occ",
				"energy": -0.24749,
				"method": "rhf"
			},
			{
				"type": "occ",
				"energy": -0.24584,
				"method": "rhf"
			},
			{
				"type": "occ",
				"energy": -0.2451,
				"method": "rhf"
			},
			{
				"type": "occ",
				"energy": -0.21542,
				"method": "rhf"
			},
			{
				"type": "unocc",
				"energy": -0.02859,
				"method": "rhf"
			},
			{
				"type": "unocc",
				"energy": -0.02564,
				"method": "rhf"
			},
			{
				"type": "unocc",
				"energy": -0.01979,
				"method": "rhf"
			},
			{
				"type": "unocc",
				"energy": -0.01199,
				"method": "rhf"
			},
			{
				"type": "unocc",
				"energy": 0.03228,
				"method": "rhf"
			}
		],
		"cosmo_sigma_profile": { 
			"-0.025": 0.0,
			"-0.024": 0.0,
			"-0.023": 0.0,
			"-0.022": 0.0,
			"-0.021": 0.0,
			"-0.02": 0.0,
			"-0.019": 0.0,
			"-0.018": 0.0,
			"-0.017": 0.0,
			"-0.016": 0.0,
			"-0.015": 0.0,
			"-0.014": 0.0,
			"-0.013": 0.0,
			"-0.012": 0.0,
			"-0.011": 0.0,
			"-0.01": 0.0,
			"-0.009": 0.0,
			"-0.008": 0.7365406886,
			"-0.007": 15.9167492396,
			"-0.006": 32.6857367597,
			"-0.005": 44.7248961255,
			"-0.004": 50.0606676493,
			"-0.003": 35.856440564,
			"-0.002": 27.1035329108,
			"-0.001": 27.0774016485,
			"0.0": 29.9068486693,
			"0.001": 30.9415454256,
			"0.002": 38.0361733601,
			"0.003": 41.9401411877,
			"0.004": 25.7653812522,
			"0.005": 17.4744313977,
			"0.006": 18.4909503121,
			"0.007": 22.2178337137,
			"0.008": 17.111624031,
			"0.009": 10.599399881,
			"0.01": 0.717398428734,
			"0.011": 0.0,
			"0.012": 0.0,
			"0.013": 0.0,
			"0.014": 0.0,
			"0.015": 0.0,
			"0.016": 0.0,
			"0.017": 0.0,
			"0.018": 0.0,
			"0.019": 0.0,
			"0.02": 0.0,
			"0.021": 0.0,
			"0.022": 0.0,
			"0.023": 0.0,
			"0.024": 0.0,
			"0.025": 0.0
		}
	}
}
