{
	 "smiles": "NC(C(O)=O)C1=CC(Br)=CC=C1", 
	 "Tm": 495.15, 
	 "num_atms": 20, 
	 "gaussian": { 
		 "optdone": 1, 
		 "sigma_profile": "yes", 
		 "theory": "DFT", 
		 "functional": "B3LYP", 
		 "basiset": "6-31G**", 
		 "properties": { 
			 "R2extent": 4949.6545, 
			 "electric_dipole_moment_norm": 0.456530809475, 
			 "electric_quadrupole_moment_norm": 12.1369028834, 
			 "total_energy": -3086.28315768, 
			 "HOMO_LUMO_gap": 0.21873, 
			 "cosmo_polarized_energy": -12.92, 
			 "cosmo_cavitation_energy": 26.84, 
			 "cosmo_dispersion_energy": -19.68, 
			 "cosmo_repulsion_energy": 1.59, 
			 "cosmo_total_nonelectrostatic_energy": 8.76, 
			 "SMD_solvation_energy": 3.47 
		},
		"coords": [
			{
				"x": -2.2676605593,
				"y": -0.9514325199,
				"z": 1.6231685139,
				"element": "N" 
			},
			{
				"x": -0.9985038994,
				"y": -0.9442111645,
				"z": 0.9123160621,
				"element": "C" 
			},
			{
				"x": 0.0284284379,
				"y": -1.7936960661,
				"z": 1.662065604,
				"element": "C" 
			},
			{
				"x": -0.055137189,
				"y": -1.6264335267,
				"z": 3.0008010775,
				"element": "O" 
			},
			{
				"x": 0.858616259,
				"y": -2.4986289375,
				"z": 1.1347037453,
				"element": "O" 
			},
			{
				"x": -0.3492482948,
				"y": 0.4211572883,
				"z": 0.6082554929,
				"element": "C" 
			},
			{
				"x": -0.8396874356,
				"y": 1.5965017279,
				"z": 1.180654587,
				"element": "C" 
			},
			{
				"x": -0.2336731372,
				"y": 2.8154218978,
				"z": 0.8782238637,
				"element": "C" 
			},
			{
				"x": -0.9230046425,
				"y": 4.4171009247,
				"z": 1.667506517,
				"element": "Br" 
			},
			{
				"x": 0.8569588835,
				"y": 2.8932435789,
				"z": 0.0172208515,
				"element": "C" 
			},
			{
				"x": 1.3456133364,
				"y": 1.7128406898,
				"z": -0.5488340114,
				"element": "C" 
			},
			{
				"x": 0.7509109473,
				"y": 0.4870136062,
				"z": -0.2582952545,
				"element": "C" 
			},
			{
				"x": -2.9486554407,
				"y": -0.3703467893,
				"z": 1.1431713746,
				"element": "H" 
			},
			{
				"x": -2.1563704391,
				"y": -0.5979088086,
				"z": 2.5687285628,
				"element": "H" 
			},
			{
				"x": -1.1408537983,
				"y": -1.4584989774,
				"z": -0.04380824,
				"element": "H" 
			},
			{
				"x": 0.6444587035,
				"y": -2.176500667,
				"z": 3.3915209819,
				"element": "H" 
			},
			{
				"x": -1.6896081937,
				"y": 1.5685831382,
				"z": 1.8521892351,
				"element": "H" 
			},
			{
				"x": 1.3123406852,
				"y": 3.8508809894,
				"z": -0.2069133305,
				"element": "H" 
			},
			{
				"x": 2.1961344041,
				"y": 1.7568394384,
				"z": -1.2228286495,
				"element": "H" 
			},
			{
				"x": 1.1419413728,
				"y": -0.4275258224,
				"z": -0.6944469834,
				"element": "H" 
			}
		],
		 "valence_orbital": [ 
			{
				"type": "occ",
				"energy": -0.2906,
				"method": "rhf"
			},
			{
				"type": "occ",
				"energy": -0.28995,
				"method": "rhf"
			},
			{
				"type": "occ",
				"energy": -0.26294,
				"method": "rhf"
			},
			{
				"type": "occ",
				"energy": -0.2523,
				"method": "rhf"
			},
			{
				"type": "occ",
				"energy": -0.24519,
				"method": "rhf"
			},
			{
				"type": "unocc",
				"energy": -0.02646,
				"method": "rhf"
			},
			{
				"type": "unocc",
				"energy": -0.01963,
				"method": "rhf"
			},
			{
				"type": "unocc",
				"energy": 0.00192,
				"method": "rhf"
			},
			{
				"type": "unocc",
				"energy": 0.01507,
				"method": "rhf"
			},
			{
				"type": "unocc",
				"energy": 0.06203,
				"method": "rhf"
			}
		],
		"cosmo_sigma_profile": { 
			"-0.025": 0.0,
			"-0.024": 0.0,
			"-0.023": 0.0,
			"-0.022": 0.0,
			"-0.021": 0.0,
			"-0.02": 0.0,
			"-0.019": 0.175867121619,
			"-0.018": 0.955494681731,
			"-0.017": 1.05980563662,
			"-0.016": 0.915737146619,
			"-0.015": 0.414553292965,
			"-0.014": 0.809135085256,
			"-0.013": 0.851101821155,
			"-0.012": 0.714031739151,
			"-0.011": 1.76187388678,
			"-0.01": 3.35973106439,
			"-0.009": 4.33917235139,
			"-0.008": 4.43221406393,
			"-0.007": 7.03690298557,
			"-0.006": 10.9796067954,
			"-0.005": 11.5872451031,
			"-0.004": 11.7981840283,
			"-0.003": 10.6418781368,
			"-0.002": 9.79062822913,
			"-0.001": 11.1623155418,
			"0.0": 12.044427961,
			"0.001": 13.7705192135,
			"0.002": 21.5223606158,
			"0.003": 20.5039303465,
			"0.004": 20.264080253,
			"0.005": 11.2305375143,
			"0.006": 2.7651826575,
			"0.007": 2.79094406412,
			"0.008": 2.91483922438,
			"0.009": 2.52480098526,
			"0.01": 2.57904406574,
			"0.011": 5.02022669292,
			"0.012": 2.75253233803,
			"0.013": 0.675922138863,
			"0.014": 0.597379972959,
			"0.015": 0.583107023716,
			"0.016": 0.64586695404,
			"0.017": 0.423117208809,
			"0.018": 0.140742235905,
			"0.019": 0.0,
			"0.02": 0.0,
			"0.021": 0.0,
			"0.022": 0.0,
			"0.023": 0.0,
			"0.024": 0.0,
			"0.025": 0.0
		}
	}
}
