{
	 "smiles": "CC(C)N1C(C)=CC(C(O)=O)=C1C", 
	 "Tm": 452.15, 
	 "num_atms": 28, 
	 "gaussian": { 
		 "optdone": 1, 
		 "sigma_profile": "yes", 
		 "theory": "DFT", 
		 "functional": "B3LYP", 
		 "basiset": "6-31G**", 
		 "properties": { 
			 "R2extent": 2825.3607, 
			 "electric_dipole_moment_norm": 7.4615818926, 
			 "electric_quadrupole_moment_norm": 22.1355456429, 
			 "total_energy": -595.323282985, 
			 "HOMO_LUMO_gap": 0.20257, 
			 "cosmo_polarized_energy": -17.25, 
			 "cosmo_cavitation_energy": 29.7, 
			 "cosmo_dispersion_energy": -20.96, 
			 "cosmo_repulsion_energy": 1.65, 
			 "cosmo_total_nonelectrostatic_energy": 10.39, 
			 "SMD_solvation_energy": 6.3 
		},
		"coords": [
			{
				"x": 1.989052032,
				"y": -1.8800874909,
				"z": -0.5781368345,
				"element": "C" 
			},
			{
				"x": 0.6908440871,
				"y": -1.8160683372,
				"z": 0.2417378324,
				"element": "C" 
			},
			{
				"x": 0.8569860822,
				"y": -2.3402402584,
				"z": 1.6749784633,
				"element": "C" 
			},
			{
				"x": 0.0566451059,
				"y": -0.4838256578,
				"z": 0.1790616725,
				"element": "N" 
			},
			{
				"x": -1.0483049642,
				"y": -0.2150165753,
				"z": -0.6343985379,
				"element": "C" 
			},
			{
				"x": -1.7475059502,
				"y": -1.2552933227,
				"z": -1.4532931945,
				"element": "C" 
			},
			{
				"x": -1.3386448794,
				"y": 1.1190754197,
				"z": -0.521621239,
				"element": "C" 
			},
			{
				"x": -0.4109346532,
				"y": 1.6946756751,
				"z": 0.3930418565,
				"element": "C" 
			},
			{
				"x": -0.4268275074,
				"y": 3.1308778765,
				"z": 0.7310473827,
				"element": "C" 
			},
			{
				"x": 0.1327889623,
				"y": 3.4974186673,
				"z": 1.9302004994,
				"element": "O" 
			},
			{
				"x": -0.908693851,
				"y": 3.9845492549,
				"z": 0.0216120692,
				"element": "O" 
			},
			{
				"x": 0.4587464167,
				"y": 0.6834907757,
				"z": 0.8050058548,
				"element": "C" 
			},
			{
				"x": 1.6635048549,
				"y": 0.7866818023,
				"z": 1.6964773733,
				"element": "C" 
			},
			{
				"x": 2.34660331,
				"y": -2.9137675767,
				"z": -0.627246448,
				"element": "H" 
			},
			{
				"x": 1.8188749706,
				"y": -1.5266644524,
				"z": -1.5989237685,
				"element": "H" 
			},
			{
				"x": 2.7862810874,
				"y": -1.2739943735,
				"z": -0.1396306387,
				"element": "H" 
			},
			{
				"x": -0.0262237648,
				"y": -2.4794300654,
				"z": -0.2465855413,
				"element": "H" 
			},
			{
				"x": -0.0757165593,
				"y": -2.2372326355,
				"z": 2.2369199538,
				"element": "H" 
			},
			{
				"x": 1.1184756138,
				"y": -3.4026022595,
				"z": 1.6415770674,
				"element": "H" 
			},
			{
				"x": 1.6493692877,
				"y": -1.8261793841,
				"z": 2.2227635978,
				"element": "H" 
			},
			{
				"x": -1.0941189425,
				"y": -1.7255987714,
				"z": -2.1987078071,
				"element": "H" 
			},
			{
				"x": -2.1834489105,
				"y": -2.0575199312,
				"z": -0.8441652884,
				"element": "H" 
			},
			{
				"x": -2.567354782,
				"y": -0.7785099577,
				"z": -1.9955409357,
				"element": "H" 
			},
			{
				"x": -2.1367630675,
				"y": 1.6504834657,
				"z": -1.0189207889,
				"element": "H" 
			},
			{
				"x": 0.259770004,
				"y": 2.7095011605,
				"z": 2.4749916471,
				"element": "H" 
			},
			{
				"x": 2.5162010121,
				"y": 0.2218697572,
				"z": 1.3124156828,
				"element": "H" 
			},
			{
				"x": 1.4753648332,
				"y": 0.4271144854,
				"z": 2.7169869261,
				"element": "H" 
			},
			{
				"x": 1.982030172,
				"y": 1.8292927093,
				"z": 1.7614531433,
				"element": "H" 
			}
		],
		 "valence_orbital": [ 
			{
				"type": "occ",
				"energy": -0.34623,
				"method": "rhf"
			},
			{
				"type": "occ",
				"energy": -0.29622,
				"method": "rhf"
			},
			{
				"type": "occ",
				"energy": -0.25579,
				"method": "rhf"
			},
			{
				"type": "occ",
				"energy": -0.23776,
				"method": "rhf"
			},
			{
				"type": "occ",
				"energy": -0.20892,
				"method": "rhf"
			},
			{
				"type": "unocc",
				"energy": -0.00635,
				"method": "rhf"
			},
			{
				"type": "unocc",
				"energy": 0.03979,
				"method": "rhf"
			},
			{
				"type": "unocc",
				"energy": 0.05668,
				"method": "rhf"
			},
			{
				"type": "unocc",
				"energy": 0.07545,
				"method": "rhf"
			},
			{
				"type": "unocc",
				"energy": 0.09772,
				"method": "rhf"
			}
		],
		"cosmo_sigma_profile": { 
			"-0.025": 0.0,
			"-0.024": 0.0,
			"-0.023": 0.0,
			"-0.022": 0.0,
			"-0.021": 0.0,
			"-0.02": 0.0,
			"-0.019": 0.0,
			"-0.018": 0.0,
			"-0.017": 0.101077168011,
			"-0.016": 0.600356546818,
			"-0.015": 0.713119030851,
			"-0.014": 0.949924483946,
			"-0.013": 1.02717767911,
			"-0.012": 0.472627221093,
			"-0.011": 0.739426775082,
			"-0.01": 1.47658665655,
			"-0.009": 0.78095804384,
			"-0.008": 0.897536664246,
			"-0.007": 1.67136453312,
			"-0.006": 5.11610965111,
			"-0.005": 15.3652720485,
			"-0.004": 30.25604379,
			"-0.003": 26.0677150537,
			"-0.002": 24.2917297123,
			"-0.001": 24.0023632856,
			"0.0": 23.8684770579,
			"0.001": 11.949336243,
			"0.002": 6.92538120776,
			"0.003": 5.19858642933,
			"0.004": 5.13131691167,
			"0.005": 6.03567887546,
			"0.006": 6.22212244245,
			"0.007": 5.01868036276,
			"0.008": 3.65715995374,
			"0.009": 2.84642063994,
			"0.01": 3.56783771388,
			"0.011": 4.62049736243,
			"0.012": 5.61103842228,
			"0.013": 5.78842701516,
			"0.014": 2.05285296248,
			"0.015": 0.110308603933,
			"0.016": 0.0,
			"0.017": 0.0,
			"0.018": 0.0,
			"0.019": 0.0,
			"0.02": 0.0,
			"0.021": 0.0,
			"0.022": 0.0,
			"0.023": 0.0,
			"0.024": 0.0,
			"0.025": 0.0
		}
	}
}
