{
	 "smiles": "CCC1=NSC(S)=N1", 
	 "Tm": 418.15, 
	 "num_atms": 14, 
	 "gaussian": { 
		 "optdone": 1, 
		 "sigma_profile": "yes", 
		 "theory": "DFT", 
		 "functional": "B3LYP", 
		 "basiset": "6-31G**", 
		 "properties": { 
			 "R2extent": 2281.9966, 
			 "electric_dipole_moment_norm": 1.59722606102, 
			 "electric_quadrupole_moment_norm": 6.10624322477, 
			 "total_energy": -1061.91151614, 
			 "HOMO_LUMO_gap": 0.20605, 
			 "cosmo_polarized_energy": -6.24, 
			 "cosmo_cavitation_energy": 21.45, 
			 "cosmo_dispersion_energy": -17.0, 
			 "cosmo_repulsion_energy": 1.34, 
			 "cosmo_total_nonelectrostatic_energy": 5.79, 
			 "SMD_solvation_energy": 0.27 
		},
		"coords": [
			{
				"x": -1.9573251071,
				"y": -0.4769693596,
				"z": -0.8228045756,
				"element": "C" 
			},
			{
				"x": -1.8634222937,
				"y": 0.1156210436,
				"z": 0.5922447725,
				"element": "C" 
			},
			{
				"x": -0.6644849042,
				"y": -0.3805102997,
				"z": 1.3510992569,
				"element": "C" 
			},
			{
				"x": -0.8017377906,
				"y": -1.0718454722,
				"z": 2.460068523,
				"element": "N" 
			},
			{
				"x": 0.7366565115,
				"y": -1.4615424313,
				"z": 3.0255230016,
				"element": "S" 
			},
			{
				"x": 1.4853929392,
				"y": -0.635570802,
				"z": 1.6754932758,
				"element": "C" 
			},
			{
				"x": 3.2315587028,
				"y": -0.5394701477,
				"z": 1.4605395364,
				"element": "S" 
			},
			{
				"x": 0.6031599362,
				"y": -0.1109981919,
				"z": 0.8694766528,
				"element": "N" 
			},
			{
				"x": -1.0567408998,
				"y": -0.2479030876,
				"z": -1.3991762893,
				"element": "H" 
			},
			{
				"x": -2.0707464112,
				"y": -1.5649407998,
				"z": -0.7863911042,
				"element": "H" 
			},
			{
				"x": -2.8202733666,
				"y": -0.0636501598,
				"z": -1.3535824935,
				"element": "H" 
			},
			{
				"x": -2.7550418029,
				"y": -0.1262162559,
				"z": 1.1762981249,
				"element": "H" 
			},
			{
				"x": -1.7975614981,
				"y": 1.2087407171,
				"z": 0.5263424044,
				"element": "H" 
			},
			{
				"x": 3.1456659845,
				"y": 0.1761552468,
				"z": 0.3218689145,
				"element": "H" 
			}
		],
		 "valence_orbital": [ 
			{
				"type": "occ",
				"energy": -0.332,
				"method": "rhf"
			},
			{
				"type": "occ",
				"energy": -0.32024,
				"method": "rhf"
			},
			{
				"type": "occ",
				"energy": -0.28906,
				"method": "rhf"
			},
			{
				"type": "occ",
				"energy": -0.28512,
				"method": "rhf"
			},
			{
				"type": "occ",
				"energy": -0.24876,
				"method": "rhf"
			},
			{
				"type": "unocc",
				"energy": -0.04271,
				"method": "rhf"
			},
			{
				"type": "unocc",
				"energy": -0.0177,
				"method": "rhf"
			},
			{
				"type": "unocc",
				"energy": 0.01358,
				"method": "rhf"
			},
			{
				"type": "unocc",
				"energy": 0.03293,
				"method": "rhf"
			},
			{
				"type": "unocc",
				"energy": 0.03677,
				"method": "rhf"
			}
		],
		"cosmo_sigma_profile": { 
			"-0.025": 0.0,
			"-0.024": 0.0,
			"-0.023": 0.0,
			"-0.022": 0.0,
			"-0.021": 0.0,
			"-0.02": 0.0,
			"-0.019": 0.0,
			"-0.018": 0.0,
			"-0.017": 0.0,
			"-0.016": 0.0,
			"-0.015": 0.0,
			"-0.014": 0.0,
			"-0.013": 0.312498670164,
			"-0.012": 1.70691636441,
			"-0.011": 1.57135329001,
			"-0.01": 0.953808264988,
			"-0.009": 1.45521556137,
			"-0.008": 1.7337130446,
			"-0.007": 2.45542754545,
			"-0.006": 1.95683339006,
			"-0.005": 5.61240173082,
			"-0.004": 8.38614987402,
			"-0.003": 15.0213664013,
			"-0.002": 21.6217861741,
			"-0.001": 23.3815394582,
			"0.0": 21.6149960807,
			"0.001": 18.9228788441,
			"0.002": 11.3644791282,
			"0.003": 8.20478717545,
			"0.004": 5.74572132187,
			"0.005": 6.22188589758,
			"0.006": 4.4865280899,
			"0.007": 2.20937274889,
			"0.008": 1.89773781816,
			"0.009": 1.37729783564,
			"0.01": 2.43851175248,
			"0.011": 1.13606964632,
			"0.012": 2.03054617755,
			"0.013": 0.887313508577,
			"0.014": 0.862727995287,
			"0.015": 0.121031054751,
			"0.016": 0.0,
			"0.017": 0.0,
			"0.018": 0.0,
			"0.019": 0.0,
			"0.02": 0.0,
			"0.021": 0.0,
			"0.022": 0.0,
			"0.023": 0.0,
			"0.024": 0.0,
			"0.025": 0.0
		}
	}
}
