{
	 "smiles": "OC1CCN(CC#N)CC1", 
	 "Tm": 350.15, 
	 "num_atms": 22, 
	 "gaussian": { 
		 "optdone": 1, 
		 "sigma_profile": "yes", 
		 "theory": "DFT", 
		 "functional": "B3LYP", 
		 "basiset": "6-31G**", 
		 "properties": { 
			 "R2extent": 1834.7336, 
			 "electric_dipole_moment_norm": 3.32492923233, 
			 "electric_quadrupole_moment_norm": 15.8332046702, 
			 "total_energy": -458.661914969, 
			 "HOMO_LUMO_gap": 0.24941, 
			 "cosmo_polarized_energy": -13.0, 
			 "cosmo_cavitation_energy": 24.1, 
			 "cosmo_dispersion_energy": -17.28, 
			 "cosmo_repulsion_energy": 1.41, 
			 "cosmo_total_nonelectrostatic_energy": 8.22, 
			 "SMD_solvation_energy": 2.45 
		},
		"coords": [
			{
				"x": -0.0391157339,
				"y": -1.7944852877,
				"z": -1.9979986139,
				"element": "O" 
			},
			{
				"x": 0.4612908864,
				"y": -0.4853470655,
				"z": -1.7232626928,
				"element": "C" 
			},
			{
				"x": 0.689497801,
				"y": -0.3977455551,
				"z": -0.2050496988,
				"element": "C" 
			},
			{
				"x": -0.5573548019,
				"y": 0.137838823,
				"z": 0.5068716748,
				"element": "C" 
			},
			{
				"x": -0.9321949256,
				"y": 1.5017379043,
				"z": 0.0610576141,
				"element": "N" 
			},
			{
				"x": -0.6815007611,
				"y": 2.5560701682,
				"z": 1.0212316703,
				"element": "C" 
			},
			{
				"x": 0.7576302886,
				"y": 2.8209531066,
				"z": 1.3082195622,
				"element": "C" 
			},
			{
				"x": 1.8940734841,
				"y": 2.9762696919,
				"z": 1.4919942362,
				"element": "N" 
			},
			{
				"x": -0.4759688485,
				"y": 1.8415370472,
				"z": -1.295189294,
				"element": "C" 
			},
			{
				"x": -0.5353108851,
				"y": 0.6024984328,
				"z": -2.1888915016,
				"element": "C" 
			},
			{
				"x": -0.2351048865,
				"y": -1.8475301973,
				"z": -2.9426729229,
				"element": "H" 
			},
			{
				"x": 1.4261875012,
				"y": -0.3399158749,
				"z": -2.2341794235,
				"element": "H" 
			},
			{
				"x": 0.943616022,
				"y": -1.3964713305,
				"z": 0.1633429968,
				"element": "H" 
			},
			{
				"x": 1.5421814444,
				"y": 0.2560230395,
				"z": 0.0056380746,
				"element": "H" 
			},
			{
				"x": -0.4019726841,
				"y": 0.151806846,
				"z": 1.5900988068,
				"element": "H" 
			},
			{
				"x": -1.3978805097,
				"y": -0.541463122,
				"z": 0.3163647127,
				"element": "H" 
			},
			{
				"x": -1.1235609477,
				"y": 3.4912563363,
				"z": 0.6561159947,
				"element": "H" 
			},
			{
				"x": -1.1758091349,
				"y": 2.320821263,
				"z": 1.9700281967,
				"element": "H" 
			},
			{
				"x": -1.1248429193,
				"y": 2.6331174369,
				"z": -1.6909599128,
				"element": "H" 
			},
			{
				"x": 0.5540756722,
				"y": 2.2438817015,
				"z": -1.2991636411,
				"element": "H" 
			},
			{
				"x": -1.5452424982,
				"y": 0.17858624,
				"z": -2.1378555072,
				"element": "H" 
			},
			{
				"x": -0.3496935636,
				"y": 0.8851603957,
				"z": -3.2312403311,
				"element": "H" 
			}
		],
		 "valence_orbital": [ 
			{
				"type": "occ",
				"energy": -0.32676,
				"method": "rhf"
			},
			{
				"type": "occ",
				"energy": -0.32264,
				"method": "rhf"
			},
			{
				"type": "occ",
				"energy": -0.31334,
				"method": "rhf"
			},
			{
				"type": "occ",
				"energy": -0.26873,
				"method": "rhf"
			},
			{
				"type": "occ",
				"energy": -0.22373,
				"method": "rhf"
			},
			{
				"type": "unocc",
				"energy": 0.02568,
				"method": "rhf"
			},
			{
				"type": "unocc",
				"energy": 0.03898,
				"method": "rhf"
			},
			{
				"type": "unocc",
				"energy": 0.07201,
				"method": "rhf"
			},
			{
				"type": "unocc",
				"energy": 0.08255,
				"method": "rhf"
			},
			{
				"type": "unocc",
				"energy": 0.1085,
				"method": "rhf"
			}
		],
		"cosmo_sigma_profile": { 
			"-0.025": 0.0,
			"-0.024": 0.0,
			"-0.023": 0.0,
			"-0.022": 0.0,
			"-0.021": 0.0,
			"-0.02": 0.0,
			"-0.019": 0.0,
			"-0.018": 0.0,
			"-0.017": 0.0,
			"-0.016": 0.0286640807436,
			"-0.015": 0.826247661812,
			"-0.014": 0.936399453538,
			"-0.013": 0.949240356844,
			"-0.012": 0.488382159376,
			"-0.011": 0.698903270673,
			"-0.01": 1.47620809423,
			"-0.009": 1.70074242543,
			"-0.008": 6.23081091076,
			"-0.007": 6.89555482765,
			"-0.006": 6.293839235,
			"-0.005": 9.10456686553,
			"-0.004": 11.7014075524,
			"-0.003": 23.1504918525,
			"-0.002": 23.5709356171,
			"-0.001": 18.5998229215,
			"0.0": 12.3126012162,
			"0.001": 7.28757627235,
			"0.002": 4.32767249183,
			"0.003": 4.6242031093,
			"0.004": 3.94750255982,
			"0.005": 3.72439087435,
			"0.006": 5.05603995424,
			"0.007": 4.08459504254,
			"0.008": 4.84402741637,
			"0.009": 4.65593244637,
			"0.01": 4.95066158266,
			"0.011": 3.72479443348,
			"0.012": 4.54544402303,
			"0.013": 4.32294689602,
			"0.014": 2.33905857023,
			"0.015": 0.311719527131,
			"0.016": 0.0,
			"0.017": 0.0,
			"0.018": 0.0,
			"0.019": 0.0,
			"0.02": 0.0,
			"0.021": 0.0,
			"0.022": 0.0,
			"0.023": 0.0,
			"0.024": 0.0,
			"0.025": 0.0
		}
	}
}
