{
	 "smiles": "BrCCN1C(=O)NC2(CCCC2)C1=O", 
	 "Tm": 371.15, 
	 "num_atms": 27, 
	 "gaussian": { 
		 "optdone": 1, 
		 "sigma_profile": "yes", 
		 "theory": "DFT", 
		 "functional": "B3LYP", 
		 "basiset": "6-31G**", 
		 "properties": { 
			 "R2extent": 4157.8847, 
			 "electric_dipole_moment_norm": 2.40705091554, 
			 "electric_quadrupole_moment_norm": 12.8054995799, 
			 "total_energy": -3182.20388241, 
			 "HOMO_LUMO_gap": 0.25137, 
			 "cosmo_polarized_energy": -14.96, 
			 "cosmo_cavitation_energy": 31.34, 
			 "cosmo_dispersion_energy": -22.37, 
			 "cosmo_repulsion_energy": 1.77, 
			 "cosmo_total_nonelectrostatic_energy": 10.74, 
			 "SMD_solvation_energy": 4.44 
		},
		"coords": [
			{
				"x": -0.8670389619,
				"y": 1.8167046644,
				"z": 2.5050167293,
				"element": "Br" 
			},
			{
				"x": -2.54216322,
				"y": 1.5207724307,
				"z": 1.4961650078,
				"element": "C" 
			},
			{
				"x": -2.3509170619,
				"y": 1.6868991255,
				"z": -0.0064849855,
				"element": "C" 
			},
			{
				"x": -1.420125933,
				"y": 0.73300527,
				"z": -0.5799214197,
				"element": "N" 
			},
			{
				"x": -1.6440531471,
				"y": -0.6610381931,
				"z": -0.5888989057,
				"element": "C" 
			},
			{
				"x": -2.615856572,
				"y": -1.2181740088,
				"z": -0.1116802109,
				"element": "O" 
			},
			{
				"x": -0.5744476053,
				"y": -1.2142030166,
				"z": -1.241963685,
				"element": "N" 
			},
			{
				"x": 0.482009714,
				"y": -0.2530011581,
				"z": -1.5422929226,
				"element": "C" 
			},
			{
				"x": 1.773134174,
				"y": -0.439669324,
				"z": -0.6848586568,
				"element": "C" 
			},
			{
				"x": 2.9053451218,
				"y": 0.0694405907,
				"z": -1.5845531463,
				"element": "C" 
			},
			{
				"x": 2.5048073303,
				"y": -0.4620258347,
				"z": -2.970760834,
				"element": "C" 
			},
			{
				"x": 0.9780767347,
				"y": -0.239703311,
				"z": -3.0256224699,
				"element": "C" 
			},
			{
				"x": -0.2126383132,
				"y": 1.0658948648,
				"z": -1.1654521525,
				"element": "C" 
			},
			{
				"x": 0.2173188583,
				"y": 2.1880730048,
				"z": -1.3460796148,
				"element": "O" 
			},
			{
				"x": -3.2534403383,
				"y": 2.254344753,
				"z": 1.8749181649,
				"element": "H" 
			},
			{
				"x": -2.8681825948,
				"y": 0.5128433113,
				"z": 1.743341466,
				"element": "H" 
			},
			{
				"x": -1.967286194,
				"y": 2.6788997378,
				"z": -0.2537666517,
				"element": "H" 
			},
			{
				"x": -3.332752256,
				"y": 1.5579469918,
				"z": -0.4791591139,
				"element": "H" 
			},
			{
				"x": -0.4168927801,
				"y": -2.2079874576,
				"z": -1.1666021491,
				"element": "H" 
			},
			{
				"x": 1.704417769,
				"y": 0.063118642,
				"z": 0.2837449415,
				"element": "H" 
			},
			{
				"x": 1.899417616,
				"y": -1.5129366577,
				"z": -0.4915784967,
				"element": "H" 
			},
			{
				"x": 2.9075323854,
				"y": 1.164852482,
				"z": -1.5875033572,
				"element": "H" 
			},
			{
				"x": 3.8921027854,
				"y": -0.2710036653,
				"z": -1.2561984446,
				"element": "H" 
			},
			{
				"x": 3.0284583602,
				"y": 0.0358088771,
				"z": -3.7918697776,
				"element": "H" 
			},
			{
				"x": 2.7375138487,
				"y": -1.5323587246,
				"z": -3.0381526111,
				"element": "H" 
			},
			{
				"x": 0.7566571602,
				"y": 0.7379738732,
				"z": -3.4634686037,
				"element": "H" 
			},
			{
				"x": 0.4482031197,
				"y": -0.9947772677,
				"z": -3.6120181004,
				"element": "H" 
			}
		],
		 "valence_orbital": [ 
			{
				"type": "occ",
				"energy": -0.28335,
				"method": "rhf"
			},
			{
				"type": "occ",
				"energy": -0.27561,
				"method": "rhf"
			},
			{
				"type": "occ",
				"energy": -0.26998,
				"method": "rhf"
			},
			{
				"type": "occ",
				"energy": -0.26592,
				"method": "rhf"
			},
			{
				"type": "occ",
				"energy": -0.26114,
				"method": "rhf"
			},
			{
				"type": "unocc",
				"energy": -0.00977,
				"method": "rhf"
			},
			{
				"type": "unocc",
				"energy": 0.00138,
				"method": "rhf"
			},
			{
				"type": "unocc",
				"energy": 0.05198,
				"method": "rhf"
			},
			{
				"type": "unocc",
				"energy": 0.07187,
				"method": "rhf"
			},
			{
				"type": "unocc",
				"energy": 0.08494,
				"method": "rhf"
			}
		],
		"cosmo_sigma_profile": { 
			"-0.025": 0.0,
			"-0.024": 0.0,
			"-0.023": 0.0,
			"-0.022": 0.0,
			"-0.021": 0.0,
			"-0.02": 0.0,
			"-0.019": 0.0,
			"-0.018": 0.0,
			"-0.017": 0.0,
			"-0.016": 0.017563270554,
			"-0.015": 0.980860891452,
			"-0.014": 1.05284552089,
			"-0.013": 1.36419100893,
			"-0.012": 1.06909960976,
			"-0.011": 0.738505692889,
			"-0.01": 1.39925122728,
			"-0.009": 1.67855315507,
			"-0.008": 4.52432682233,
			"-0.007": 8.68311657098,
			"-0.006": 8.72600605677,
			"-0.005": 9.97721513332,
			"-0.004": 16.7523823855,
			"-0.003": 24.1243196141,
			"-0.002": 26.9079941421,
			"-0.001": 27.7915113747,
			"0.0": 21.3197256515,
			"0.001": 13.7806396462,
			"0.002": 9.23389371628,
			"0.003": 8.9211289719,
			"0.004": 9.23933992606,
			"0.005": 10.7825384504,
			"0.006": 11.4223085033,
			"0.007": 2.63056022442,
			"0.008": 2.78798630425,
			"0.009": 2.66960711302,
			"0.01": 3.27589676798,
			"0.011": 4.61298362156,
			"0.012": 8.05060761854,
			"0.013": 3.75569714656,
			"0.014": 0.570543487437,
			"0.015": 0.0,
			"0.016": 0.0,
			"0.017": 0.0,
			"0.018": 0.0,
			"0.019": 0.0,
			"0.02": 0.0,
			"0.021": 0.0,
			"0.022": 0.0,
			"0.023": 0.0,
			"0.024": 0.0,
			"0.025": 0.0
		}
	}
}
