{
	 "smiles": "OC(=O)C(Br)C12CC3CC(CC(C3)C1)C2", 
	 "Tm": 437.15, 
	 "num_atms": 32, 
	 "gaussian": { 
		 "optdone": 1, 
		 "sigma_profile": "yes", 
		 "theory": "DFT", 
		 "functional": "B3LYP", 
		 "basiset": "6-31G**", 
		 "properties": { 
			 "R2extent": 5966.1858, 
			 "electric_dipole_moment_norm": 2.00059106016, 
			 "electric_quadrupole_moment_norm": 9.29834010724, 
			 "total_energy": -3189.4197642, 
			 "HOMO_LUMO_gap": 0.22245, 
			 "cosmo_polarized_energy": -8.64, 
			 "cosmo_cavitation_energy": 31.72, 
			 "cosmo_dispersion_energy": -23.79, 
			 "cosmo_repulsion_energy": 1.83, 
			 "cosmo_total_nonelectrostatic_energy": 9.75, 
			 "SMD_solvation_energy": 3.89 
		},
		"coords": [
			{
				"x": -1.5066428706,
				"y": 3.1730959311,
				"z": -3.8615000327,
				"element": "O" 
			},
			{
				"x": -0.6969052366,
				"y": 2.1832162343,
				"z": -3.4227315399,
				"element": "C" 
			},
			{
				"x": -0.5155846317,
				"y": 1.161368946,
				"z": -4.0465498112,
				"element": "O" 
			},
			{
				"x": -0.0896156846,
				"y": 2.5485469413,
				"z": -2.0747827365,
				"element": "C" 
			},
			{
				"x": 1.6095904376,
				"y": 3.5151819181,
				"z": -2.5375980428,
				"element": "Br" 
			},
			{
				"x": 0.1102638066,
				"y": 1.4007722954,
				"z": -1.0700193794,
				"element": "C" 
			},
			{
				"x": 1.1235856735,
				"y": 0.322811259,
				"z": -1.5282792664,
				"element": "C" 
			},
			{
				"x": 1.2277912353,
				"y": -0.791172482,
				"z": -0.4655710541,
				"element": "C" 
			},
			{
				"x": 1.7024371691,
				"y": -0.1918921892,
				"z": 0.8734313684,
				"element": "C" 
			},
			{
				"x": 0.6865604052,
				"y": 0.866666243,
				"z": 1.3488727341,
				"element": "C" 
			},
			{
				"x": -0.6923893722,
				"y": 0.2059695266,
				"z": 1.545464901,
				"element": "C" 
			},
			{
				"x": -1.1656351246,
				"y": -0.3933892067,
				"z": 0.2068230756,
				"element": "C" 
			},
			{
				"x": -0.1521955719,
				"y": -1.4524372591,
				"z": -0.2720956618,
				"element": "C" 
			},
			{
				"x": -1.276794355,
				"y": 0.7238178562,
				"z": -0.8530837922,
				"element": "C" 
			},
			{
				"x": 0.5763396265,
				"y": 1.9822930565,
				"z": 0.2903939571,
				"element": "C" 
			},
			{
				"x": -1.8300516469,
				"y": 2.8938745992,
				"z": -4.7349584951,
				"element": "H" 
			},
			{
				"x": -0.6964229431,
				"y": 3.3362933237,
				"z": -1.6278361858,
				"element": "H" 
			},
			{
				"x": 0.8117342174,
				"y": -0.0925787684,
				"z": -2.4900157139,
				"element": "H" 
			},
			{
				"x": 2.1035417874,
				"y": 0.7890564736,
				"z": -1.6808525084,
				"element": "H" 
			},
			{
				"x": 1.949810769,
				"y": -1.5418056156,
				"z": -0.8104070771,
				"element": "H" 
			},
			{
				"x": 1.8036658976,
				"y": -0.9822354126,
				"z": 1.6287572803,
				"element": "H" 
			},
			{
				"x": 2.6937089421,
				"y": 0.2639527979,
				"z": 0.752773948,
				"element": "H" 
			},
			{
				"x": 1.0245968355,
				"y": 1.3065239245,
				"z": 2.2955833736,
				"element": "H" 
			},
			{
				"x": -1.4187918568,
				"y": 0.9455712221,
				"z": 1.907805749,
				"element": "H" 
			},
			{
				"x": -0.6300994899,
				"y": -0.5802945664,
				"z": 2.3088920748,
				"element": "H" 
			},
			{
				"x": -2.15277441,
				"y": -0.8552443778,
				"z": 0.3351191725,
				"element": "H" 
			},
			{
				"x": -0.4914226691,
				"y": -1.9010030271,
				"z": -1.2146092595,
				"element": "H" 
			},
			{
				"x": -0.0837292019,
				"y": -2.264748398,
				"z": 0.463226636,
				"element": "H" 
			},
			{
				"x": -1.6357642082,
				"y": 0.2995063215,
				"z": -1.7971198961,
				"element": "H" 
			},
			{
				"x": -2.0117691274,
				"y": 1.4739599281,
				"z": -0.5290794348,
				"element": "H" 
			},
			{
				"x": 1.5444276856,
				"y": 2.4795348516,
				"z": 0.1648940598,
				"element": "H" 
			},
			{
				"x": -0.1353660881,
				"y": 2.748987653,
				"z": 0.6278515572,
				"element": "H" 
			}
		],
		 "valence_orbital": [ 
			{
				"type": "occ",
				"energy": -0.29265,
				"method": "rhf"
			},
			{
				"type": "occ",
				"energy": -0.28347,
				"method": "rhf"
			},
			{
				"type": "occ",
				"energy": -0.28142,
				"method": "rhf"
			},
			{
				"type": "occ",
				"energy": -0.2748,
				"method": "rhf"
			},
			{
				"type": "occ",
				"energy": -0.26674,
				"method": "rhf"
			},
			{
				"type": "unocc",
				"energy": -0.04429,
				"method": "rhf"
			},
			{
				"type": "unocc",
				"energy": 0.03788,
				"method": "rhf"
			},
			{
				"type": "unocc",
				"energy": 0.06705,
				"method": "rhf"
			},
			{
				"type": "unocc",
				"energy": 0.0737,
				"method": "rhf"
			},
			{
				"type": "unocc",
				"energy": 0.10256,
				"method": "rhf"
			}
		],
		"cosmo_sigma_profile": { 
			"-0.025": 0.0,
			"-0.024": 0.0,
			"-0.023": 0.0,
			"-0.022": 0.0,
			"-0.021": 0.0,
			"-0.02": 0.0,
			"-0.019": 0.39999407948,
			"-0.018": 0.778284990031,
			"-0.017": 0.99756059472,
			"-0.016": 1.01996597273,
			"-0.015": 1.26594559275,
			"-0.014": 0.219873240181,
			"-0.013": 0.122429247186,
			"-0.012": 0.768631505352,
			"-0.011": 1.01682613182,
			"-0.01": 0.681760894314,
			"-0.009": 0.560666699655,
			"-0.008": 1.56478294837,
			"-0.007": 3.21406384902,
			"-0.006": 4.09852798323,
			"-0.005": 2.44724903726,
			"-0.004": 4.44557974729,
			"-0.003": 11.5714318296,
			"-0.002": 35.8259947135,
			"-0.001": 43.2604227762,
			"0.0": 41.4354662038,
			"0.001": 27.0452411844,
			"0.002": 12.1670189719,
			"0.003": 9.97493203413,
			"0.004": 11.9918479481,
			"0.005": 10.4997518468,
			"0.006": 5.39015191588,
			"0.007": 3.15031437797,
			"0.008": 2.40036787096,
			"0.009": 2.61075295468,
			"0.01": 2.58774215852,
			"0.011": 3.72442993482,
			"0.012": 0.337927454354,
			"0.013": 0.0,
			"0.014": 0.0,
			"0.015": 0.0,
			"0.016": 0.0,
			"0.017": 0.0,
			"0.018": 0.0,
			"0.019": 0.0,
			"0.02": 0.0,
			"0.021": 0.0,
			"0.022": 0.0,
			"0.023": 0.0,
			"0.024": 0.0,
			"0.025": 0.0
		}
	}
}
