{
	 "smiles": "CC1=CC=C(CC#N)C=C1", 
	 "Tm": 291.15, 
	 "num_atms": 19, 
	 "gaussian": { 
		 "optdone": 1, 
		 "sigma_profile": "yes", 
		 "theory": "DFT", 
		 "functional": "B3LYP", 
		 "basiset": "6-31G**", 
		 "properties": { 
			 "R2extent": 2503.2937, 
			 "electric_dipole_moment_norm": 4.31039582521, 
			 "electric_quadrupole_moment_norm": 24.5911826954, 
			 "total_energy": -403.124062937, 
			 "HOMO_LUMO_gap": 0.23333, 
			 "cosmo_polarized_energy": -10.18, 
			 "cosmo_cavitation_energy": 23.82, 
			 "cosmo_dispersion_energy": -16.65, 
			 "cosmo_repulsion_energy": 1.37, 
			 "cosmo_total_nonelectrostatic_energy": 8.54, 
			 "SMD_solvation_energy": 5.61 
		},
		"coords": [
			{
				"x": 1.2341319245,
				"y": 2.1780599746,
				"z": -1.0602737848,
				"element": "C" 
			},
			{
				"x": 1.1829109414,
				"y": 1.005556258,
				"z": -0.1093021735,
				"element": "C" 
			},
			{
				"x": -0.0154596892,
				"y": 0.3189714103,
				"z": 0.1263320082,
				"element": "C" 
			},
			{
				"x": -0.0715381572,
				"y": -0.7444374788,
				"z": 1.0259653785,
				"element": "C" 
			},
			{
				"x": 1.0740359481,
				"y": -1.1525252238,
				"z": 1.7159476256,
				"element": "C" 
			},
			{
				"x": 1.0181781941,
				"y": -2.3225405641,
				"z": 2.6890293308,
				"element": "C" 
			},
			{
				"x": 1.2920713809,
				"y": -3.6159560753,
				"z": 2.0467658994,
				"element": "C" 
			},
			{
				"x": 1.5097335978,
				"y": -4.6340126377,
				"z": 1.5334491791,
				"element": "N" 
			},
			{
				"x": 2.2751716405,
				"y": -0.4754359289,
				"z": 1.4840023067,
				"element": "C" 
			},
			{
				"x": 2.3267070496,
				"y": 0.587438014,
				"z": 0.5834716677,
				"element": "C" 
			},
			{
				"x": 1.024316356,
				"y": 3.1202306871,
				"z": -0.5385921726,
				"element": "H" 
			},
			{
				"x": 2.2210989271,
				"y": 2.2752267648,
				"z": -1.5221861239,
				"element": "H" 
			},
			{
				"x": 0.4937185134,
				"y": 2.0772264722,
				"z": -1.8593573548,
				"element": "H" 
			},
			{
				"x": -0.9172739086,
				"y": 0.6194466692,
				"z": -0.4012154037,
				"element": "H" 
			},
			{
				"x": -1.0133872108,
				"y": -1.2628265892,
				"z": 1.1879630638,
				"element": "H" 
			},
			{
				"x": 1.7463322425,
				"y": -2.1854978839,
				"z": 3.4967441829,
				"element": "H" 
			},
			{
				"x": 0.0309419788,
				"y": -2.3824444945,
				"z": 3.1614038048,
				"element": "H" 
			},
			{
				"x": 3.1781137164,
				"y": -0.7823765674,
				"z": 2.0060454122,
				"element": "H" 
			},
			{
				"x": 3.2709965548,
				"y": 1.0994971932,
				"z": 0.4162071537,
				"element": "H" 
			}
		],
		 "valence_orbital": [ 
			{
				"type": "occ",
				"energy": -0.34729,
				"method": "rhf"
			},
			{
				"type": "occ",
				"energy": -0.3197,
				"method": "rhf"
			},
			{
				"type": "occ",
				"energy": -0.31899,
				"method": "rhf"
			},
			{
				"type": "occ",
				"energy": -0.25939,
				"method": "rhf"
			},
			{
				"type": "occ",
				"energy": -0.24812,
				"method": "rhf"
			},
			{
				"type": "unocc",
				"energy": -0.01479,
				"method": "rhf"
			},
			{
				"type": "unocc",
				"energy": -0.01346,
				"method": "rhf"
			},
			{
				"type": "unocc",
				"energy": 0.04168,
				"method": "rhf"
			},
			{
				"type": "unocc",
				"energy": 0.04537,
				"method": "rhf"
			},
			{
				"type": "unocc",
				"energy": 0.09494,
				"method": "rhf"
			}
		],
		"cosmo_sigma_profile": { 
			"-0.025": 0.0,
			"-0.024": 0.0,
			"-0.023": 0.0,
			"-0.022": 0.0,
			"-0.021": 0.0,
			"-0.02": 0.0,
			"-0.019": 0.0,
			"-0.018": 0.0,
			"-0.017": 0.0,
			"-0.016": 0.0,
			"-0.015": 0.0,
			"-0.014": 0.0,
			"-0.013": 0.0,
			"-0.012": 0.0,
			"-0.011": 0.0,
			"-0.01": 0.0,
			"-0.009": 1.36410438117,
			"-0.008": 7.15290965138,
			"-0.007": 6.8173819529,
			"-0.006": 9.87499971468,
			"-0.005": 12.9239939668,
			"-0.004": 17.8432290786,
			"-0.003": 14.730055428,
			"-0.002": 14.0539460374,
			"-0.001": 13.7307096507,
			"0.0": 14.4834042198,
			"0.001": 10.4743491929,
			"0.002": 10.106633168,
			"0.003": 9.1372379534,
			"0.004": 9.8254920881,
			"0.005": 10.5334328623,
			"0.006": 6.15388864303,
			"0.007": 2.62578754317,
			"0.008": 3.44147106176,
			"0.009": 3.53721232071,
			"0.01": 3.47555493832,
			"0.011": 2.93524540556,
			"0.012": 2.50678278219,
			"0.013": 2.15321853764,
			"0.014": 0.438064817636,
			"0.015": 0.0,
			"0.016": 0.0,
			"0.017": 0.0,
			"0.018": 0.0,
			"0.019": 0.0,
			"0.02": 0.0,
			"0.021": 0.0,
			"0.022": 0.0,
			"0.023": 0.0,
			"0.024": 0.0,
			"0.025": 0.0
		}
	}
}
