{
	 "smiles": "OC(=O)C1=CN(N=N1)C1=C(C=C(Br)C=C1)C(F)(F)F", 
	 "Tm": 413.15, 
	 "num_atms": 24, 
	 "gaussian": { 
		 "optdone": 1, 
		 "sigma_profile": "yes", 
		 "theory": "DFT", 
		 "functional": "B3LYP", 
		 "basiset": "6-31G**", 
		 "properties": { 
			 "R2extent": 8370.8252, 
			 "electric_dipole_moment_norm": 6.98326019922, 
			 "electric_quadrupole_moment_norm": 28.3142065695, 
			 "total_energy": -3569.65911352, 
			 "HOMO_LUMO_gap": 0.19113, 
			 "cosmo_polarized_energy": -22.4, 
			 "cosmo_cavitation_energy": 33.76, 
			 "cosmo_dispersion_energy": -24.14, 
			 "cosmo_repulsion_energy": 1.79, 
			 "cosmo_total_nonelectrostatic_energy": 11.41, 
			 "SMD_solvation_energy": 5.76 
		},
		"coords": [
			{
				"x": 0.727028369,
				"y": -5.3649569691,
				"z": 1.2841804414,
				"element": "O" 
			},
			{
				"x": 1.4319389283,
				"y": -4.4880051182,
				"z": 2.0548958173,
				"element": "C" 
			},
			{
				"x": 2.1511449807,
				"y": -4.8786644901,
				"z": 2.9360987838,
				"element": "O" 
			},
			{
				"x": 1.2066169033,
				"y": -3.0519192609,
				"z": 1.7389472674,
				"element": "C" 
			},
			{
				"x": 0.1219837022,
				"y": -2.4389936911,
				"z": 1.1450040687,
				"element": "C" 
			},
			{
				"x": 0.4268376737,
				"y": -1.1161253211,
				"z": 1.1563519225,
				"element": "N" 
			},
			{
				"x": 1.6582026854,
				"y": -0.9266024532,
				"z": 1.7462628937,
				"element": "N" 
			},
			{
				"x": 2.1095788291,
				"y": -2.0825403017,
				"z": 2.0926407387,
				"element": "N" 
			},
			{
				"x": -0.3293670983,
				"y": 0.0253449194,
				"z": 0.7657043489,
				"element": "C" 
			},
			{
				"x": -1.0621495299,
				"y": 0.102401794,
				"z": -0.4347142575,
				"element": "C" 
			},
			{
				"x": -1.7728206009,
				"y": 1.2704362972,
				"z": -0.7249077749,
				"element": "C" 
			},
			{
				"x": -1.7381638893,
				"y": 2.3521271942,
				"z": 0.1501163008,
				"element": "C" 
			},
			{
				"x": -2.712331831,
				"y": 3.9292619447,
				"z": -0.2738703845,
				"element": "Br" 
			},
			{
				"x": -0.9938147062,
				"y": 2.2904537317,
				"z": 1.325940392,
				"element": "C" 
			},
			{
				"x": -0.2981351321,
				"y": 1.1251277062,
				"z": 1.6294565112,
				"element": "C" 
			},
			{
				"x": -1.1245691347,
				"y": -1.0227114379,
				"z": -1.4428339234,
				"element": "C" 
			},
			{
				"x": -1.6165601887,
				"y": -0.6089928371,
				"z": -2.622914316,
				"element": "F" 
			},
			{
				"x": 0.0853166486,
				"y": -1.5677245216,
				"z": -1.6754585229,
				"element": "F" 
			},
			{
				"x": -1.9369356586,
				"y": -2.0294377351,
				"z": -1.014347225,
				"element": "F" 
			},
			{
				"x": 0.3648991479,
				"y": -4.9172521951,
				"z": 0.5065942999,
				"element": "H" 
			},
			{
				"x": -0.813419305,
				"y": -2.8114483542,
				"z": 0.7627732752,
				"element": "H" 
			},
			{
				"x": -2.3368553121,
				"y": 1.3353936997,
				"z": -1.6456843,
				"element": "H" 
			},
			{
				"x": -0.9633547791,
				"y": 3.1363646899,
				"z": 2.0025392102,
				"element": "H" 
			},
			{
				"x": 0.2846292979,
				"y": 1.0531627095,
				"z": 2.5396244326,
				"element": "H" 
			}
		],
		 "valence_orbital": [ 
			{
				"type": "occ",
				"energy": -0.30976,
				"method": "rhf"
			},
			{
				"type": "occ",
				"energy": -0.29788,
				"method": "rhf"
			},
			{
				"type": "occ",
				"energy": -0.29305,
				"method": "rhf"
			},
			{
				"type": "occ",
				"energy": -0.28046,
				"method": "rhf"
			},
			{
				"type": "occ",
				"energy": -0.27092,
				"method": "rhf"
			},
			{
				"type": "unocc",
				"energy": -0.07979,
				"method": "rhf"
			},
			{
				"type": "unocc",
				"energy": -0.0616,
				"method": "rhf"
			},
			{
				"type": "unocc",
				"energy": -0.03602,
				"method": "rhf"
			},
			{
				"type": "unocc",
				"energy": -0.02437,
				"method": "rhf"
			},
			{
				"type": "unocc",
				"energy": -0.02068,
				"method": "rhf"
			}
		],
		"cosmo_sigma_profile": { 
			"-0.025": 0.0,
			"-0.024": 0.0,
			"-0.023": 0.0,
			"-0.022": 0.0,
			"-0.021": 0.0,
			"-0.02": 0.156649559176,
			"-0.019": 0.771099943812,
			"-0.018": 1.57674396814,
			"-0.017": 1.23549475951,
			"-0.016": 1.12805112521,
			"-0.015": 1.23975445082,
			"-0.014": 0.833671244944,
			"-0.013": 1.05287833509,
			"-0.012": 1.44816721306,
			"-0.011": 1.32506875532,
			"-0.01": 2.15510105359,
			"-0.009": 4.25679893288,
			"-0.008": 8.25811893666,
			"-0.007": 7.29981533481,
			"-0.006": 8.4651955896,
			"-0.005": 12.9464063812,
			"-0.004": 12.0747517524,
			"-0.003": 18.2121550959,
			"-0.002": 19.2634292128,
			"-0.001": 24.4797992056,
			"0.0": 23.7855548512,
			"0.001": 23.8835843225,
			"0.002": 27.4685636616,
			"0.003": 13.8622835985,
			"0.004": 8.97644567597,
			"0.005": 4.54195300737,
			"0.006": 3.90277981283,
			"0.007": 4.81174641657,
			"0.008": 6.40521848956,
			"0.009": 6.50077016983,
			"0.01": 8.46898479245,
			"0.011": 8.15070612467,
			"0.012": 5.42662047865,
			"0.013": 1.81004104945,
			"0.014": 0.431018899158,
			"0.015": 0.0,
			"0.016": 0.0,
			"0.017": 0.0,
			"0.018": 0.0,
			"0.019": 0.0,
			"0.02": 0.0,
			"0.021": 0.0,
			"0.022": 0.0,
			"0.023": 0.0,
			"0.024": 0.0,
			"0.025": 0.0
		}
	}
}
