{
	 "smiles": "[O-][N+](=O)C1=C(Cl)C=CN=C1", 
	 "Tm": 305.15, 
	 "num_atms": 13, 
	 "gaussian": { 
		 "optdone": 1, 
		 "sigma_profile": "yes", 
		 "theory": "DFT", 
		 "functional": "B3LYP", 
		 "basiset": "6-31G**", 
		 "properties": { 
			 "R2extent": 2205.7584, 
			 "electric_dipole_moment_norm": 3.74364220913, 
			 "electric_quadrupole_moment_norm": 10.9803064329, 
			 "total_energy": -912.357118346, 
			 "HOMO_LUMO_gap": 0.1858, 
			 "cosmo_polarized_energy": -9.04, 
			 "cosmo_cavitation_energy": 20.23, 
			 "cosmo_dispersion_energy": -15.19, 
			 "cosmo_repulsion_energy": 1.22, 
			 "cosmo_total_nonelectrostatic_energy": 6.26, 
			 "SMD_solvation_energy": 4.21 
		},
		"coords": [
			{
				"x": -0.8610027922,
				"y": -0.6251862983,
				"z": -2.9058946106,
				"element": "O" 
			},
			{
				"x": -0.6499552161,
				"y": -1.2009966574,
				"z": -1.8440245463,
				"element": "N" 
			},
			{
				"x": -0.1416365664,
				"y": -2.3149950254,
				"z": -1.7228638314,
				"element": "O" 
			},
			{
				"x": -0.9906482915,
				"y": -0.4994895585,
				"z": -0.5985917272,
				"element": "C" 
			},
			{
				"x": -2.0561470414,
				"y": 0.4013900156,
				"z": -0.4728637307,
				"element": "C" 
			},
			{
				"x": -3.1853947069,
				"y": 0.7562136165,
				"z": -1.7409942653,
				"element": "Cl" 
			},
			{
				"x": -2.2387305574,
				"y": 1.0057454384,
				"z": 0.7722690187,
				"element": "C" 
			},
			{
				"x": -1.3594494651,
				"y": 0.6991745576,
				"z": 1.8084541313,
				"element": "C" 
			},
			{
				"x": -0.3395157326,
				"y": -0.1623086775,
				"z": 1.6950634139,
				"element": "N" 
			},
			{
				"x": -0.1760188241,
				"y": -0.7507209578,
				"z": 0.512487527,
				"element": "C" 
			},
			{
				"x": -3.0588121926,
				"y": 1.6979254444,
				"z": 0.9228537327,
				"element": "H" 
			},
			{
				"x": -1.4894210394,
				"y": 1.1672318351,
				"z": 2.7816660221,
				"element": "H" 
			},
			{
				"x": 0.6399324257,
				"y": -1.4592837328,
				"z": 0.4064388657,
				"element": "H" 
			}
		],
		 "valence_orbital": [ 
			{
				"type": "occ",
				"energy": -0.32228,
				"method": "rhf"
			},
			{
				"type": "occ",
				"energy": -0.31607,
				"method": "rhf"
			},
			{
				"type": "occ",
				"energy": -0.30157,
				"method": "rhf"
			},
			{
				"type": "occ",
				"energy": -0.29529,
				"method": "rhf"
			},
			{
				"type": "occ",
				"energy": -0.28858,
				"method": "rhf"
			},
			{
				"type": "unocc",
				"energy": -0.10278,
				"method": "rhf"
			},
			{
				"type": "unocc",
				"energy": -0.0611,
				"method": "rhf"
			},
			{
				"type": "unocc",
				"energy": -0.03151,
				"method": "rhf"
			},
			{
				"type": "unocc",
				"energy": -0.00205,
				"method": "rhf"
			},
			{
				"type": "unocc",
				"energy": 0.10314,
				"method": "rhf"
			}
		],
		"cosmo_sigma_profile": { 
			"-0.025": 0.0,
			"-0.024": 0.0,
			"-0.023": 0.0,
			"-0.022": 0.0,
			"-0.021": 0.0,
			"-0.02": 0.0,
			"-0.019": 0.0,
			"-0.018": 0.0,
			"-0.017": 0.0,
			"-0.016": 0.0,
			"-0.015": 0.0,
			"-0.014": 0.0,
			"-0.013": 0.0,
			"-0.012": 0.0,
			"-0.011": 0.0,
			"-0.01": 0.550156114065,
			"-0.009": 5.12475299348,
			"-0.008": 7.9872432358,
			"-0.007": 6.52264205675,
			"-0.006": 6.9830683963,
			"-0.005": 6.36249230556,
			"-0.004": 10.5425732926,
			"-0.003": 13.9966057935,
			"-0.002": 16.1326594336,
			"-0.001": 13.1530120629,
			"0.0": 7.77767152419,
			"0.001": 8.04865072045,
			"0.002": 12.028931575,
			"0.003": 6.64891680253,
			"0.004": 5.22312663014,
			"0.005": 5.10583715077,
			"0.006": 6.96127328466,
			"0.007": 12.4041393223,
			"0.008": 6.26693895671,
			"0.009": 3.7115456882,
			"0.01": 0.767567344987,
			"0.011": 0.467303501834,
			"0.012": 1.53493611741,
			"0.013": 0.642590328162,
			"0.014": 0.653783465049,
			"0.015": 0.281112307061,
			"0.016": 0.0,
			"0.017": 0.0,
			"0.018": 0.0,
			"0.019": 0.0,
			"0.02": 0.0,
			"0.021": 0.0,
			"0.022": 0.0,
			"0.023": 0.0,
			"0.024": 0.0,
			"0.025": 0.0
		}
	}
}
