{
	 "smiles": "BrC1=CN=C(NC(=O)C2CCNCC2)C=C1", 
	 "Tm": 418.15, 
	 "num_atms": 30, 
	 "gaussian": { 
		 "optdone": 1, 
		 "sigma_profile": "yes", 
		 "theory": "DFT", 
		 "functional": "B3LYP", 
		 "basiset": "6-31G**", 
		 "properties": { 
			 "R2extent": 8947.5295, 
			 "electric_dipole_moment_norm": 3.64837736398, 
			 "electric_quadrupole_moment_norm": 11.8460785005, 
			 "total_energy": -3238.4913104, 
			 "HOMO_LUMO_gap": 0.16563, 
			 "cosmo_polarized_energy": -14.56, 
			 "cosmo_cavitation_energy": 34.4, 
			 "cosmo_dispersion_energy": -25.64, 
			 "cosmo_repulsion_energy": 2.0, 
			 "cosmo_total_nonelectrostatic_energy": 10.77, 
			 "SMD_solvation_energy": 0.81 
		},
		"coords": [
			{
				"x": -5.3587198504,
				"y": -0.224217436,
				"z": -3.2946468612,
				"element": "Br" 
			},
			{
				"x": -3.7853874744,
				"y": -0.631918708,
				"z": -2.3034793977,
				"element": "C" 
			},
			{
				"x": -3.823364087,
				"y": -1.5835451166,
				"z": -1.2851306138,
				"element": "C" 
			},
			{
				"x": -2.7555357302,
				"y": -1.8908663748,
				"z": -0.5492852631,
				"element": "N" 
			},
			{
				"x": -1.5903533928,
				"y": -1.2720039337,
				"z": -0.8002726147,
				"element": "C" 
			},
			{
				"x": -0.5492067122,
				"y": -1.7082726468,
				"z": 0.0274718559,
				"element": "N" 
			},
			{
				"x": 0.6188343773,
				"y": -1.1353694253,
				"z": 0.5260816848,
				"element": "C" 
			},
			{
				"x": 1.3006162237,
				"y": -1.8019388106,
				"z": 1.2919850901,
				"element": "O" 
			},
			{
				"x": 1.0116502983,
				"y": 0.2764582851,
				"z": 0.1043410275,
				"element": "C" 
			},
			{
				"x": 1.6934160348,
				"y": 1.0093053542,
				"z": 1.2874140456,
				"element": "C" 
			},
			{
				"x": 2.6359340232,
				"y": 2.1061573241,
				"z": 0.79153705,
				"element": "C" 
			},
			{
				"x": 3.7678728652,
				"y": 1.5105632831,
				"z": 0.0615165992,
				"element": "N" 
			},
			{
				"x": 3.4380409816,
				"y": 0.2692304245,
				"z": -0.6550495243,
				"element": "C" 
			},
			{
				"x": 1.9768902974,
				"y": 0.210721037,
				"z": -1.1261053894,
				"element": "C" 
			},
			{
				"x": -1.4496928206,
				"y": -0.3396543712,
				"z": -1.8430800614,
				"element": "C" 
			},
			{
				"x": -2.5738268703,
				"y": -0.0079072863,
				"z": -2.5918130655,
				"element": "C" 
			},
			{
				"x": -4.7453522149,
				"y": -2.1113862604,
				"z": -1.0554463411,
				"element": "H" 
			},
			{
				"x": -0.7716173602,
				"y": -2.5761272999,
				"z": 0.5041056436,
				"element": "H" 
			},
			{
				"x": 0.1120808492,
				"y": 0.8300648765,
				"z": -0.1790274313,
				"element": "H" 
			},
			{
				"x": 2.2579938277,
				"y": 0.2831666875,
				"z": 1.878035529,
				"element": "H" 
			},
			{
				"x": 0.9319662966,
				"y": 1.4390566282,
				"z": 1.9464557037,
				"element": "H" 
			},
			{
				"x": 3.0212098641,
				"y": 2.677345105,
				"z": 1.6454412888,
				"element": "H" 
			},
			{
				"x": 2.057996222,
				"y": 2.8194930154,
				"z": 0.1751560024,
				"element": "H" 
			},
			{
				"x": 4.1460170351,
				"y": 2.190974497,
				"z": -0.5889187823,
				"element": "H" 
			},
			{
				"x": 3.6252118265,
				"y": -0.593222209,
				"z": -0.0028994221,
				"element": "H" 
			},
			{
				"x": 4.1188963727,
				"y": 0.1692254088,
				"z": -1.5064653073,
				"element": "H" 
			},
			{
				"x": 1.8045987717,
				"y": -0.6981818343,
				"z": -1.7148609051,
				"element": "H" 
			},
			{
				"x": 1.7766288586,
				"y": 1.0614082703,
				"z": -1.7900665132,
				"element": "H" 
			},
			{
				"x": -0.4903484549,
				"y": 0.0910381973,
				"z": -2.0941065082,
				"element": "H" 
			},
			{
				"x": -2.5022500579,
				"y": 0.7099033189,
				"z": -3.401487519,
				"element": "H" 
			}
		],
		 "valence_orbital": [ 
			{
				"type": "occ",
				"energy": -0.29439,
				"method": "rhf"
			},
			{
				"type": "occ",
				"energy": -0.28324,
				"method": "rhf"
			},
			{
				"type": "occ",
				"energy": -0.26104,
				"method": "rhf"
			},
			{
				"type": "occ",
				"energy": -0.23641,
				"method": "rhf"
			},
			{
				"type": "occ",
				"energy": -0.21232,
				"method": "rhf"
			},
			{
				"type": "unocc",
				"energy": -0.04669,
				"method": "rhf"
			},
			{
				"type": "unocc",
				"energy": -0.03559,
				"method": "rhf"
			},
			{
				"type": "unocc",
				"energy": -0.00322,
				"method": "rhf"
			},
			{
				"type": "unocc",
				"energy": 0.02158,
				"method": "rhf"
			},
			{
				"type": "unocc",
				"energy": 0.0676,
				"method": "rhf"
			}
		],
		"cosmo_sigma_profile": { 
			"-0.025": 0.0,
			"-0.024": 0.0,
			"-0.023": 0.0,
			"-0.022": 0.0,
			"-0.021": 0.0,
			"-0.02": 0.0,
			"-0.019": 0.0,
			"-0.018": 0.0,
			"-0.017": 0.0,
			"-0.016": 0.0,
			"-0.015": 0.0,
			"-0.014": 0.0575924179232,
			"-0.013": 0.576167234523,
			"-0.012": 0.357157976443,
			"-0.011": 0.555134929704,
			"-0.01": 1.61106351637,
			"-0.009": 2.93313768563,
			"-0.008": 4.70405218809,
			"-0.007": 7.86633122608,
			"-0.006": 8.46096185536,
			"-0.005": 14.7075561418,
			"-0.004": 22.3611159659,
			"-0.003": 24.4772079663,
			"-0.002": 26.2113084458,
			"-0.001": 26.3640010128,
			"0.0": 30.7927777413,
			"0.001": 22.088880052,
			"0.002": 14.9344867086,
			"0.003": 11.9876518838,
			"0.004": 14.4289408837,
			"0.005": 6.21064419521,
			"0.006": 4.05143894928,
			"0.007": 3.57820164456,
			"0.008": 3.39045543373,
			"0.009": 3.10960088564,
			"0.01": 2.30522034608,
			"0.011": 3.5476671253,
			"0.012": 4.64274986417,
			"0.013": 5.34589403814,
			"0.014": 0.426596703111,
			"0.015": 0.685507319113,
			"0.016": 0.593233691931,
			"0.017": 0.519940382022,
			"0.018": 0.391816135061,
			"0.019": 0.404428173585,
			"0.02": 0.0,
			"0.021": 0.0,
			"0.022": 0.0,
			"0.023": 0.0,
			"0.024": 0.0,
			"0.025": 0.0
		}
	}
}
