{
	 "smiles": "CC1=NN(C(C)=C1C(O)=O)C1=CC=C(F)C=C1", 
	 "Tm": 493.15, 
	 "num_atms": 28, 
	 "gaussian": { 
		 "optdone": 1, 
		 "sigma_profile": "yes", 
		 "theory": "DFT", 
		 "functional": "B3LYP", 
		 "basiset": "6-31G**", 
		 "properties": { 
			 "R2extent": 5150.3616, 
			 "electric_dipole_moment_norm": 2.85259752682, 
			 "electric_quadrupole_moment_norm": 10.9767729998, 
			 "total_energy": -823.706640381, 
			 "HOMO_LUMO_gap": 0.19933, 
			 "cosmo_polarized_energy": -12.67, 
			 "cosmo_cavitation_energy": 32.87, 
			 "cosmo_dispersion_energy": -23.53, 
			 "cosmo_repulsion_energy": 1.79, 
			 "cosmo_total_nonelectrostatic_energy": 11.13, 
			 "SMD_solvation_energy": 6.52 
		},
		"coords": [
			{
				"x": -3.6315672123,
				"y": 1.5496663625,
				"z": -0.9346857192,
				"element": "C" 
			},
			{
				"x": -2.3048792773,
				"y": 0.8804294864,
				"z": -0.7661196812,
				"element": "C" 
			},
			{
				"x": -1.6935441526,
				"y": 0.8867962701,
				"z": 0.4069706591,
				"element": "N" 
			},
			{
				"x": -0.5160497194,
				"y": 0.2076200767,
				"z": 0.2112565012,
				"element": "N" 
			},
			{
				"x": -0.3782841748,
				"y": -0.2477829511,
				"z": -1.0675678845,
				"element": "C" 
			},
			{
				"x": 0.7722817976,
				"y": -1.0833249665,
				"z": -1.5341402338,
				"element": "C" 
			},
			{
				"x": -1.5246120753,
				"y": 0.1846180675,
				"z": -1.740765915,
				"element": "C" 
			},
			{
				"x": -1.9146047822,
				"y": -0.0041910611,
				"z": -3.1339596738,
				"element": "C" 
			},
			{
				"x": -0.9883621144,
				"y": -0.6724397142,
				"z": -3.8808352141,
				"element": "O" 
			},
			{
				"x": -2.9578569778,
				"y": 0.3863962881,
				"z": -3.6281344416,
				"element": "O" 
			},
			{
				"x": 0.3478604333,
				"y": 0.0350229864,
				"z": 1.329633404,
				"element": "C" 
			},
			{
				"x": 1.7290666599,
				"y": 0.2214056006,
				"z": 1.2113717439,
				"element": "C" 
			},
			{
				"x": 2.5542780323,
				"y": 0.0500168208,
				"z": 2.3226456123,
				"element": "C" 
			},
			{
				"x": 1.9775221448,
				"y": -0.2814548856,
				"z": 3.5426385686,
				"element": "C" 
			},
			{
				"x": 2.7715076887,
				"y": -0.4413528036,
				"z": 4.619784809,
				"element": "F" 
			},
			{
				"x": 0.6029205054,
				"y": -0.4450538284,
				"z": 3.6860137856,
				"element": "C" 
			},
			{
				"x": -0.2144123773,
				"y": -0.2888050912,
				"z": 2.5705348639,
				"element": "C" 
			},
			{
				"x": -3.9432901817,
				"y": 1.9863074243,
				"z": 0.0165079187,
				"element": "H" 
			},
			{
				"x": -3.5810976145,
				"y": 2.3338523859,
				"z": -1.6956075295,
				"element": "H" 
			},
			{
				"x": -4.3886143385,
				"y": 0.8378602494,
				"z": -1.2759989747,
				"element": "H" 
			},
			{
				"x": 1.5706618126,
				"y": -0.4680374925,
				"z": -1.9656018439,
				"element": "H" 
			},
			{
				"x": 0.4361206032,
				"y": -1.7622743079,
				"z": -2.3171552613,
				"element": "H" 
			},
			{
				"x": 1.1996705069,
				"y": -1.6610349937,
				"z": -0.711319736,
				"element": "H" 
			},
			{
				"x": -1.3758162166,
				"y": -0.730377677,
				"z": -4.7699581263,
				"element": "H" 
			},
			{
				"x": 2.1595605331,
				"y": 0.5212384389,
				"z": 0.2630645298,
				"element": "H" 
			},
			{
				"x": 3.6274996948,
				"y": 0.1890600236,
				"z": 2.2556144879,
				"element": "H" 
			},
			{
				"x": 0.1912289101,
				"y": -0.6956883635,
				"z": 4.657382508,
				"element": "H" 
			},
			{
				"x": -1.289088108,
				"y": -0.402072345,
				"z": 2.6472308429,
				"element": "H" 
			}
		],
		 "valence_orbital": [ 
			{
				"type": "occ",
				"energy": -0.28048,
				"method": "rhf"
			},
			{
				"type": "occ",
				"energy": -0.27439,
				"method": "rhf"
			},
			{
				"type": "occ",
				"energy": -0.2711,
				"method": "rhf"
			},
			{
				"type": "occ",
				"energy": -0.2496,
				"method": "rhf"
			},
			{
				"type": "occ",
				"energy": -0.23387,
				"method": "rhf"
			},
			{
				"type": "unocc",
				"energy": -0.03454,
				"method": "rhf"
			},
			{
				"type": "unocc",
				"energy": -0.02514,
				"method": "rhf"
			},
			{
				"type": "unocc",
				"energy": -0.00519,
				"method": "rhf"
			},
			{
				"type": "unocc",
				"energy": 0.02822,
				"method": "rhf"
			},
			{
				"type": "unocc",
				"energy": 0.07425,
				"method": "rhf"
			}
		],
		"cosmo_sigma_profile": { 
			"-0.025": 0.0,
			"-0.024": 0.0,
			"-0.023": 0.0,
			"-0.022": 0.0,
			"-0.021": 0.0,
			"-0.02": 0.0,
			"-0.019": 0.0,
			"-0.018": 0.266784564282,
			"-0.017": 0.890782360311,
			"-0.016": 1.04970878955,
			"-0.015": 0.782153126641,
			"-0.014": 0.256679005414,
			"-0.013": 0.509816486364,
			"-0.012": 0.925516350255,
			"-0.011": 0.97993687769,
			"-0.01": 0.481074269407,
			"-0.009": 0.823235650882,
			"-0.008": 4.20493385352,
			"-0.007": 8.88485795424,
			"-0.006": 9.90027717439,
			"-0.005": 12.5766915017,
			"-0.004": 14.6901357233,
			"-0.003": 18.1901536593,
			"-0.002": 18.9495826594,
			"-0.001": 25.4913179728,
			"0.0": 28.6723641848,
			"0.001": 21.8051134753,
			"0.002": 22.537511472,
			"0.003": 18.0543454195,
			"0.004": 15.9013056613,
			"0.005": 7.53734957754,
			"0.006": 3.8091148013,
			"0.007": 4.3587196764,
			"0.008": 2.9655479636,
			"0.009": 3.55973717593,
			"0.01": 2.41523647217,
			"0.011": 3.09475904255,
			"0.012": 5.14356995762,
			"0.013": 2.27409807617,
			"0.014": 0.359565272499,
			"0.015": 0.163865895904,
			"0.016": 0.0,
			"0.017": 0.0,
			"0.018": 0.0,
			"0.019": 0.0,
			"0.02": 0.0,
			"0.021": 0.0,
			"0.022": 0.0,
			"0.023": 0.0,
			"0.024": 0.0,
			"0.025": 0.0
		}
	}
}
