{
	 "smiles": "NC1CCN(CC1)C1=NC=C(C=C1)C#N", 
	 "Tm": 344.15, 
	 "num_atms": 29, 
	 "gaussian": { 
		 "optdone": 1, 
		 "sigma_profile": "yes", 
		 "theory": "DFT", 
		 "functional": "B3LYP", 
		 "basiset": "6-31G**", 
		 "properties": { 
			 "R2extent": 4660.5699, 
			 "electric_dipole_moment_norm": 6.17462857911, 
			 "electric_quadrupole_moment_norm": 32.1321188368, 
			 "total_energy": -646.603553369, 
			 "HOMO_LUMO_gap": 0.17908, 
			 "cosmo_polarized_energy": -15.45, 
			 "cosmo_cavitation_energy": 31.89, 
			 "cosmo_dispersion_energy": -23.03, 
			 "cosmo_repulsion_energy": 1.8, 
			 "cosmo_total_nonelectrostatic_energy": 10.67, 
			 "SMD_solvation_energy": 3.79 
		},
		"coords": [
			{
				"x": -2.4154591823,
				"y": 1.0715366444,
				"z": -4.1578879441,
				"element": "N" 
			},
			{
				"x": -1.3704792319,
				"y": 0.9793891356,
				"z": -3.1351558594,
				"element": "C" 
			},
			{
				"x": -1.7789771837,
				"y": 1.8038292392,
				"z": -1.9093234545,
				"element": "C" 
			},
			{
				"x": -0.7194093087,
				"y": 1.7602515041,
				"z": -0.7989272986,
				"element": "C" 
			},
			{
				"x": -0.379029766,
				"y": 0.3847598236,
				"z": -0.4406538031,
				"element": "N" 
			},
			{
				"x": 0.0487327352,
				"y": -0.4424863072,
				"z": -1.5751941178,
				"element": "C" 
			},
			{
				"x": -1.0093070407,
				"y": -0.4475402232,
				"z": -2.6838997996,
				"element": "C" 
			},
			{
				"x": -0.1818800023,
				"y": -0.0369715086,
				"z": 0.8522939618,
				"element": "C" 
			},
			{
				"x": 0.1932375888,
				"y": -1.3269081388,
				"z": 1.0142396368,
				"element": "N" 
			},
			{
				"x": 0.3633214089,
				"y": -1.8093893343,
				"z": 2.2376355525,
				"element": "C" 
			},
			{
				"x": 0.1829181915,
				"y": -1.0593837237,
				"z": 3.4100494955,
				"element": "C" 
			},
			{
				"x": -0.1894845117,
				"y": 0.2898444384,
				"z": 3.247328701,
				"element": "C" 
			},
			{
				"x": -0.3687003869,
				"y": 0.8086025022,
				"z": 1.9817469814,
				"element": "C" 
			},
			{
				"x": 0.3815131377,
				"y": -1.6405398398,
				"z": 4.6971337849,
				"element": "C" 
			},
			{
				"x": 0.5435006507,
				"y": -2.1181716845,
				"z": 5.746994311,
				"element": "N" 
			},
			{
				"x": -2.1300959265,
				"y": 0.5615088047,
				"z": -4.9914153789,
				"element": "H" 
			},
			{
				"x": -3.2610701475,
				"y": 0.611748004,
				"z": -3.822870622,
				"element": "H" 
			},
			{
				"x": -0.46688986,
				"y": 1.438173235,
				"z": -3.5648467748,
				"element": "H" 
			},
			{
				"x": -2.7245134946,
				"y": 1.410116524,
				"z": -1.51140093,
				"element": "H" 
			},
			{
				"x": -1.9581246574,
				"y": 2.842477072,
				"z": -2.2054289464,
				"element": "H" 
			},
			{
				"x": 0.1882855119,
				"y": 2.2905505761,
				"z": -1.1312764682,
				"element": "H" 
			},
			{
				"x": -1.1002940521,
				"y": 2.2908015023,
				"z": 0.0721596653,
				"element": "H" 
			},
			{
				"x": 0.2458136874,
				"y": -1.4455946681,
				"z": -1.2040117819,
				"element": "H" 
			},
			{
				"x": 0.9952002259,
				"y": -0.0387433857,
				"z": -1.9718164829,
				"element": "H" 
			},
			{
				"x": -1.9150997175,
				"y": -0.9499803585,
				"z": -2.3178150939,
				"element": "H" 
			},
			{
				"x": -0.6340503404,
				"y": -1.0315457406,
				"z": -3.5338638495,
				"element": "H" 
			},
			{
				"x": 0.6628035162,
				"y": -2.8536092488,
				"z": 2.3063147756,
				"element": "H" 
			},
			{
				"x": -0.3269700254,
				"y": 0.9215700428,
				"z": 4.1191062847,
				"element": "H" 
			},
			{
				"x": -0.6344918186,
				"y": 1.8515051134,
				"z": 1.8758854551,
				"element": "H" 
			}
		],
		 "valence_orbital": [ 
			{
				"type": "occ",
				"energy": -0.29709,
				"method": "rhf"
			},
			{
				"type": "occ",
				"energy": -0.29578,
				"method": "rhf"
			},
			{
				"type": "occ",
				"energy": -0.26862,
				"method": "rhf"
			},
			{
				"type": "occ",
				"energy": -0.24346,
				"method": "rhf"
			},
			{
				"type": "occ",
				"energy": -0.21506,
				"method": "rhf"
			},
			{
				"type": "unocc",
				"energy": -0.03598,
				"method": "rhf"
			},
			{
				"type": "unocc",
				"energy": -0.03027,
				"method": "rhf"
			},
			{
				"type": "unocc",
				"energy": 0.0426,
				"method": "rhf"
			},
			{
				"type": "unocc",
				"energy": 0.07055,
				"method": "rhf"
			},
			{
				"type": "unocc",
				"energy": 0.0746,
				"method": "rhf"
			}
		],
		"cosmo_sigma_profile": { 
			"-0.025": 0.0,
			"-0.024": 0.0,
			"-0.023": 0.0,
			"-0.022": 0.0,
			"-0.021": 0.0,
			"-0.02": 0.0,
			"-0.019": 0.0,
			"-0.018": 0.0,
			"-0.017": 0.0,
			"-0.016": 0.0,
			"-0.015": 0.0,
			"-0.014": 0.0,
			"-0.013": 0.0,
			"-0.012": 0.0,
			"-0.011": 0.0,
			"-0.01": 0.256944131877,
			"-0.009": 4.04681848563,
			"-0.008": 6.46513169701,
			"-0.007": 10.0434929714,
			"-0.006": 11.8585708236,
			"-0.005": 9.48914097868,
			"-0.004": 21.2836941546,
			"-0.003": 30.2406316933,
			"-0.002": 27.552162451,
			"-0.001": 18.8721910122,
			"0.0": 20.8883231001,
			"0.001": 18.7218940696,
			"0.002": 11.6155518121,
			"0.003": 8.53805707909,
			"0.004": 5.5539573759,
			"0.005": 5.18646585948,
			"0.006": 4.60295668519,
			"0.007": 4.97318147433,
			"0.008": 6.02401252828,
			"0.009": 5.07288301286,
			"0.01": 5.94748319977,
			"0.011": 3.13758060911,
			"0.012": 3.84081657016,
			"0.013": 3.53297976543,
			"0.014": 1.08369837381,
			"0.015": 0.722933181834,
			"0.016": 0.723253232529,
			"0.017": 0.199220559377,
			"0.018": 0.923156970177,
			"0.019": 0.443887958018,
			"0.02": 0.200512388606,
			"0.021": 0.0,
			"0.022": 0.0,
			"0.023": 0.0,
			"0.024": 0.0,
			"0.025": 0.0
		}
	}
}
