{
	 "smiles": "NC(CN(CC1=CC=CC=C1)C1=CC=CC=C1)=NO", 
	 "Tm": 380.15, 
	 "num_atms": 36, 
	 "gaussian": { 
		 "optdone": 1, 
		 "sigma_profile": "yes", 
		 "theory": "DFT", 
		 "functional": "B3LYP", 
		 "basiset": "6-31G**", 
		 "properties": { 
			 "R2extent": 5876.6024, 
			 "electric_dipole_moment_norm": 1.80632427045, 
			 "electric_quadrupole_moment_norm": 5.12670386798, 
			 "total_energy": -821.256662723, 
			 "HOMO_LUMO_gap": 0.18655, 
			 "cosmo_polarized_energy": -14.5, 
			 "cosmo_cavitation_energy": 38.6, 
			 "cosmo_dispersion_energy": -26.9, 
			 "cosmo_repulsion_energy": 2.11, 
			 "cosmo_total_nonelectrostatic_energy": 13.82, 
			 "SMD_solvation_energy": 6.5 
		},
		"coords": [
			{
				"x": -0.5827077886,
				"y": -0.8664927553,
				"z": -3.4701144969,
				"element": "N" 
			},
			{
				"x": 0.6163962428,
				"y": -0.2783796632,
				"z": -3.1035075726,
				"element": "C" 
			},
			{
				"x": 0.8304116373,
				"y": -0.0435778561,
				"z": -1.6147637559,
				"element": "C" 
			},
			{
				"x": -0.3974462476,
				"y": 0.2184180233,
				"z": -0.8719713298,
				"element": "N" 
			},
			{
				"x": -0.7997658505,
				"y": 1.614750281,
				"z": -0.802214399,
				"element": "C" 
			},
			{
				"x": -0.0324867277,
				"y": 2.5074899248,
				"z": 0.1714095372,
				"element": "C" 
			},
			{
				"x": -0.1597365196,
				"y": 3.8991692814,
				"z": 0.0583874834,
				"element": "C" 
			},
			{
				"x": 0.505163187,
				"y": 4.7511692408,
				"z": 0.9384958906,
				"element": "C" 
			},
			{
				"x": 1.3175653319,
				"y": 4.2222044708,
				"z": 1.9450127713,
				"element": "C" 
			},
			{
				"x": 1.4555220066,
				"y": 2.8394811405,
				"z": 2.0610656799,
				"element": "C" 
			},
			{
				"x": 0.7838770887,
				"y": 1.9870014783,
				"z": 1.1804369011,
				"element": "C" 
			},
			{
				"x": -0.9756756269,
				"y": -0.7549942,
				"z": -0.0405287999,
				"element": "C" 
			},
			{
				"x": -0.7873080089,
				"y": -2.1286524137,
				"z": -0.3036529465,
				"element": "C" 
			},
			{
				"x": -1.3698581002,
				"y": -3.0953264229,
				"z": 0.5126984318,
				"element": "C" 
			},
			{
				"x": -2.1684327491,
				"y": -2.7346875002,
				"z": 1.5993857021,
				"element": "C" 
			},
			{
				"x": -2.369314912,
				"y": -1.3790354333,
				"z": 1.8589348099,
				"element": "C" 
			},
			{
				"x": -1.7804100907,
				"y": -0.3985814053,
				"z": 1.0615634841,
				"element": "C" 
			},
			{
				"x": 1.4873660786,
				"y": -0.0334235074,
				"z": -4.0190226566,
				"element": "N" 
			},
			{
				"x": 2.706723015,
				"y": 0.4292019698,
				"z": -3.4392053591,
				"element": "O" 
			},
			{
				"x": -0.7661195345,
				"y": -0.8489789942,
				"z": -4.4649312107,
				"element": "H" 
			},
			{
				"x": -1.3692294616,
				"y": -0.5998128014,
				"z": -2.8926998876,
				"element": "H" 
			},
			{
				"x": 1.3470305875,
				"y": -0.9091143209,
				"z": -1.1876964281,
				"element": "H" 
			},
			{
				"x": 1.515874941,
				"y": 0.8010966152,
				"z": -1.5071581986,
				"element": "H" 
			},
			{
				"x": -0.7010752563,
				"y": 2.0411879357,
				"z": -1.8094234151,
				"element": "H" 
			},
			{
				"x": -1.8704294464,
				"y": 1.6528751397,
				"z": -0.5702130622,
				"element": "H" 
			},
			{
				"x": -0.7834925652,
				"y": 4.3185362096,
				"z": -0.7286254684,
				"element": "H" 
			},
			{
				"x": 0.3955514539,
				"y": 5.8271951558,
				"z": 0.8355383261,
				"element": "H" 
			},
			{
				"x": 1.8405063639,
				"y": 4.8840912161,
				"z": 2.6292611324,
				"element": "H" 
			},
			{
				"x": 2.0871398417,
				"y": 2.4184580044,
				"z": 2.8383044554,
				"element": "H" 
			},
			{
				"x": 0.8929355347,
				"y": 0.9118401053,
				"z": 1.279805521,
				"element": "H" 
			},
			{
				"x": -0.2200937249,
				"y": -2.4405145592,
				"z": -1.1732569992,
				"element": "H" 
			},
			{
				"x": -1.2075032526,
				"y": -4.1445208293,
				"z": 0.2807355271,
				"element": "H" 
			},
			{
				"x": -2.6244459371,
				"y": -3.4929354577,
				"z": 2.228075489,
				"element": "H" 
			},
			{
				"x": -2.9797847709,
				"y": -1.0707257108,
				"z": 2.7035139348,
				"element": "H" 
			},
			{
				"x": -1.9220069971,
				"y": 0.6441617651,
				"z": 1.3211767749,
				"element": "H" 
			},
			{
				"x": 3.2167602576,
				"y": 0.6555258733,
				"z": -4.2263158659,
				"element": "H" 
			}
		],
		 "valence_orbital": [ 
			{
				"type": "occ",
				"energy": -0.2508,
				"method": "rhf"
			},
			{
				"type": "occ",
				"energy": -0.24624,
				"method": "rhf"
			},
			{
				"type": "occ",
				"energy": -0.24138,
				"method": "rhf"
			},
			{
				"type": "occ",
				"energy": -0.20597,
				"method": "rhf"
			},
			{
				"type": "occ",
				"energy": -0.19348,
				"method": "rhf"
			},
			{
				"type": "unocc",
				"energy": -0.00693,
				"method": "rhf"
			},
			{
				"type": "unocc",
				"energy": -0.0004,
				"method": "rhf"
			},
			{
				"type": "unocc",
				"energy": 0.00485,
				"method": "rhf"
			},
			{
				"type": "unocc",
				"energy": 0.01746,
				"method": "rhf"
			},
			{
				"type": "unocc",
				"energy": 0.03387,
				"method": "rhf"
			}
		],
		"cosmo_sigma_profile": { 
			"-0.025": 0.0,
			"-0.024": 0.0,
			"-0.023": 0.0,
			"-0.022": 0.0,
			"-0.021": 0.0,
			"-0.02": 0.0,
			"-0.019": 0.0,
			"-0.018": 0.0,
			"-0.017": 0.0355873720032,
			"-0.016": 0.728074633065,
			"-0.015": 1.30758915065,
			"-0.014": 0.41133875315,
			"-0.013": 1.03816205518,
			"-0.012": 2.02019018446,
			"-0.011": 2.4355770688,
			"-0.01": 2.63889152605,
			"-0.009": 2.93122358467,
			"-0.008": 2.28119720883,
			"-0.007": 2.05908054368,
			"-0.006": 9.71732057061,
			"-0.005": 28.3163540276,
			"-0.004": 29.4437930978,
			"-0.003": 30.0730225272,
			"-0.002": 22.92200215,
			"-0.001": 18.3791549675,
			"0.0": 15.6059367812,
			"0.001": 15.7870491433,
			"0.002": 15.7023009494,
			"0.003": 16.7062043292,
			"0.004": 17.3573082487,
			"0.005": 16.9645260042,
			"0.006": 19.1041382703,
			"0.007": 11.4292764684,
			"0.008": 4.78849176084,
			"0.009": 4.86620234171,
			"0.01": 4.0695360999,
			"0.011": 3.19411824328,
			"0.012": 1.06256019744,
			"0.013": 1.01719960815,
			"0.014": 1.15152329309,
			"0.015": 0.529729449415,
			"0.016": 0.0,
			"0.017": 0.0,
			"0.018": 0.0,
			"0.019": 0.0,
			"0.02": 0.0,
			"0.021": 0.0,
			"0.022": 0.0,
			"0.023": 0.0,
			"0.024": 0.0,
			"0.025": 0.0
		}
	}
}
