{
	 "smiles": "CCS(O)(=O)=O", 
	 "Tm": 256.15, 
	 "num_atms": 12, 
	 "gaussian": { 
		 "optdone": 1, 
		 "sigma_profile": "yes", 
		 "theory": "DFT", 
		 "functional": "B3LYP", 
		 "basiset": "6-31G**", 
		 "properties": { 
			 "R2extent": 1034.3767, 
			 "electric_dipole_moment_norm": 3.53040974109, 
			 "electric_quadrupole_moment_norm": 9.91436593938, 
			 "total_energy": -703.627697018, 
			 "HOMO_LUMO_gap": 0.33662, 
			 "cosmo_polarized_energy": -13.33, 
			 "cosmo_cavitation_energy": 16.81, 
			 "cosmo_dispersion_energy": -13.39, 
			 "cosmo_repulsion_energy": 1.11, 
			 "cosmo_total_nonelectrostatic_energy": 4.54, 
			 "SMD_solvation_energy": 2.22 
		},
		"coords": [
			{
				"x": -0.2906900793,
				"y": -0.4196424525,
				"z": 0.7905348261,
				"element": "C" 
			},
			{
				"x": 0.1890302331,
				"y": 1.0050129491,
				"z": 0.5289368658,
				"element": "C" 
			},
			{
				"x": 0.8848719135,
				"y": 1.2269219147,
				"z": -1.1229389286,
				"element": "S" 
			},
			{
				"x": -0.4540787633,
				"y": 0.8977967746,
				"z": -2.0301374565,
				"element": "O" 
			},
			{
				"x": 1.2003547273,
				"y": 2.6397168292,
				"z": -1.3406474289,
				"element": "O" 
			},
			{
				"x": 1.8748421749,
				"y": 0.1869578997,
				"z": -1.3711014259,
				"element": "O" 
			},
			{
				"x": 0.5247851164,
				"y": -1.1338266718,
				"z": 0.6576864912,
				"element": "H" 
			},
			{
				"x": -1.1064997552,
				"y": -0.6903288542,
				"z": 0.1162585098,
				"element": "H" 
			},
			{
				"x": -0.6541898949,
				"y": -0.4933912275,
				"z": 1.8195168364,
				"element": "H" 
			},
			{
				"x": 1.0067050894,
				"y": 1.2937962749,
				"z": 1.1964893844,
				"element": "H" 
			},
			{
				"x": -0.607007493,
				"y": 1.7481858861,
				"z": 0.6169241909,
				"element": "H" 
			},
			{
				"x": -0.5396232688,
				"y": 1.6351006779,
				"z": -2.6578218648,
				"element": "H" 
			}
		],
		 "valence_orbital": [ 
			{
				"type": "occ",
				"energy": -0.37188,
				"method": "rhf"
			},
			{
				"type": "occ",
				"energy": -0.34721,
				"method": "rhf"
			},
			{
				"type": "occ",
				"energy": -0.32351,
				"method": "rhf"
			},
			{
				"type": "occ",
				"energy": -0.31806,
				"method": "rhf"
			},
			{
				"type": "occ",
				"energy": -0.30541,
				"method": "rhf"
			},
			{
				"type": "unocc",
				"energy": 0.03121,
				"method": "rhf"
			},
			{
				"type": "unocc",
				"energy": 0.06459,
				"method": "rhf"
			},
			{
				"type": "unocc",
				"energy": 0.07907,
				"method": "rhf"
			},
			{
				"type": "unocc",
				"energy": 0.09743,
				"method": "rhf"
			},
			{
				"type": "unocc",
				"energy": 0.10071,
				"method": "rhf"
			}
		],
		"cosmo_sigma_profile": { 
			"-0.025": 0.0,
			"-0.024": 0.0,
			"-0.023": 0.0,
			"-0.022": 0.0,
			"-0.021": 0.0,
			"-0.02": 0.412322019806,
			"-0.019": 0.688761795183,
			"-0.018": 1.26266744742,
			"-0.017": 0.589351300152,
			"-0.016": 0.825932820268,
			"-0.015": 0.675147729348,
			"-0.014": 0.294713452855,
			"-0.013": 0.961920735534,
			"-0.012": 0.973240118186,
			"-0.011": 0.465639572556,
			"-0.01": 1.41889393172,
			"-0.009": 3.22727586809,
			"-0.008": 4.95792552535,
			"-0.007": 4.98320698571,
			"-0.006": 5.59169971322,
			"-0.005": 10.2403482052,
			"-0.004": 9.86253634269,
			"-0.003": 7.71039235659,
			"-0.002": 8.62822499392,
			"-0.001": 8.53954782167,
			"0.0": 4.82755608803,
			"0.001": 3.72877049083,
			"0.002": 3.99066483493,
			"0.003": 2.57513566247,
			"0.004": 2.73187994079,
			"0.005": 3.11644671449,
			"0.006": 3.93565436568,
			"0.007": 4.46662353533,
			"0.008": 4.19623252006,
			"0.009": 6.47560417766,
			"0.01": 11.6535935158,
			"0.011": 7.84520550968,
			"0.012": 0.302087243711,
			"0.013": 0.0,
			"0.014": 0.0,
			"0.015": 0.0,
			"0.016": 0.0,
			"0.017": 0.0,
			"0.018": 0.0,
			"0.019": 0.0,
			"0.02": 0.0,
			"0.021": 0.0,
			"0.022": 0.0,
			"0.023": 0.0,
			"0.024": 0.0,
			"0.025": 0.0
		}
	}
}
