{
	 "smiles": "CC=C(C)C=CC(O)=O", 
	 "Tm": 363.15, 
	 "num_atms": 19, 
	 "gaussian": { 
		 "optdone": 1, 
		 "sigma_profile": "yes", 
		 "theory": "DFT", 
		 "functional": "B3LYP", 
		 "basiset": "6-31G**", 
		 "properties": { 
			 "R2extent": 2093.6898, 
			 "electric_dipole_moment_norm": 4.8790155339, 
			 "electric_quadrupole_moment_norm": 21.0618554679, 
			 "total_energy": -423.198253577, 
			 "HOMO_LUMO_gap": 0.18002, 
			 "cosmo_polarized_energy": -13.97, 
			 "cosmo_cavitation_energy": 23.2, 
			 "cosmo_dispersion_energy": -16.54, 
			 "cosmo_repulsion_energy": 1.4, 
			 "cosmo_total_nonelectrostatic_energy": 8.06, 
			 "SMD_solvation_energy": 5.73 
		},
		"coords": [
			{
				"x": 0.2964793543,
				"y": 1.618169601,
				"z": 1.6722751363,
				"element": "C" 
			},
			{
				"x": 0.9918739301,
				"y": 0.8105206789,
				"z": 0.6158843135,
				"element": "C" 
			},
			{
				"x": 0.5060512149,
				"y": -0.2093487275,
				"z": -0.1226052419,
				"element": "C" 
			},
			{
				"x": 1.3427312962,
				"y": -0.8379420535,
				"z": -1.2185381116,
				"element": "C" 
			},
			{
				"x": -0.8475083954,
				"y": -0.7642980852,
				"z": 0.000215548,
				"element": "C" 
			},
			{
				"x": -1.5563611485,
				"y": -0.9826898719,
				"z": 1.1230129983,
				"element": "C" 
			},
			{
				"x": -2.9167460528,
				"y": -1.5771280888,
				"z": 1.0364722031,
				"element": "C" 
			},
			{
				"x": -3.5441615946,
				"y": -1.7895826262,
				"z": 2.2282923219,
				"element": "O" 
			},
			{
				"x": -3.4748725858,
				"y": -1.8730817899,
				"z": 0.0042800156,
				"element": "O" 
			},
			{
				"x": -0.7902410886,
				"y": 1.5132766175,
				"z": 1.6304041188,
				"element": "H" 
			},
			{
				"x": 0.623156448,
				"y": 1.3267912861,
				"z": 2.6802519523,
				"element": "H" 
			},
			{
				"x": 0.5461247477,
				"y": 2.6795478611,
				"z": 1.5625826885,
				"element": "H" 
			},
			{
				"x": 2.0128663243,
				"y": 1.1232907675,
				"z": 0.3969170997,
				"element": "H" 
			},
			{
				"x": 0.8475035143,
				"y": -0.7416915842,
				"z": -2.1929315874,
				"element": "H" 
			},
			{
				"x": 1.4883941365,
				"y": -1.9106962807,
				"z": -1.0440511525,
				"element": "H" 
			},
			{
				"x": 2.3270606631,
				"y": -0.3682484217,
				"z": -1.2898148081,
				"element": "H" 
			},
			{
				"x": -1.3252753275,
				"y": -1.0866522719,
				"z": -0.9263123674,
				"element": "H" 
			},
			{
				"x": -1.139309739,
				"y": -0.7620156045,
				"z": 2.1027203002,
				"element": "H" 
			},
			{
				"x": -2.9770656971,
				"y": -1.510621406,
				"z": 2.9603445726,
				"element": "H" 
			}
		],
		 "valence_orbital": [ 
			{
				"type": "occ",
				"energy": -0.34859,
				"method": "rhf"
			},
			{
				"type": "occ",
				"energy": -0.31619,
				"method": "rhf"
			},
			{
				"type": "occ",
				"energy": -0.29631,
				"method": "rhf"
			},
			{
				"type": "occ",
				"energy": -0.26826,
				"method": "rhf"
			},
			{
				"type": "occ",
				"energy": -0.24052,
				"method": "rhf"
			},
			{
				"type": "unocc",
				"energy": -0.0605,
				"method": "rhf"
			},
			{
				"type": "unocc",
				"energy": 0.03071,
				"method": "rhf"
			},
			{
				"type": "unocc",
				"energy": 0.0589,
				"method": "rhf"
			},
			{
				"type": "unocc",
				"energy": 0.08841,
				"method": "rhf"
			},
			{
				"type": "unocc",
				"energy": 0.09577,
				"method": "rhf"
			}
		],
		"cosmo_sigma_profile": { 
			"-0.025": 0.0,
			"-0.024": 0.0,
			"-0.023": 0.0,
			"-0.022": 0.0,
			"-0.021": 0.0,
			"-0.02": 0.0,
			"-0.019": 0.55240538582,
			"-0.018": 1.51633494829,
			"-0.017": 0.681810790596,
			"-0.016": 1.20435492591,
			"-0.015": 1.07382965851,
			"-0.014": 1.45350400524,
			"-0.013": 0.891616889799,
			"-0.012": 0.716461648536,
			"-0.011": 0.541652453227,
			"-0.01": 1.33418588738,
			"-0.009": 0.795597105004,
			"-0.008": 1.35105600514,
			"-0.007": 1.47424877694,
			"-0.006": 2.335403749,
			"-0.005": 7.00039062349,
			"-0.004": 15.836146853,
			"-0.003": 17.2609229215,
			"-0.002": 19.9037242677,
			"-0.001": 18.3955553013,
			"0.0": 18.6759765139,
			"0.001": 13.7244428301,
			"0.002": 10.8035763917,
			"0.003": 7.24955667611,
			"0.004": 5.6139386997,
			"0.005": 3.32522945005,
			"0.006": 2.15478864154,
			"0.007": 2.74613278664,
			"0.008": 2.29734360602,
			"0.009": 3.23186546708,
			"0.01": 3.56657233238,
			"0.011": 5.03378040893,
			"0.012": 5.96909294013,
			"0.013": 3.48002606567,
			"0.014": 0.674891893624,
			"0.015": 0.0,
			"0.016": 0.0,
			"0.017": 0.0,
			"0.018": 0.0,
			"0.019": 0.0,
			"0.02": 0.0,
			"0.021": 0.0,
			"0.022": 0.0,
			"0.023": 0.0,
			"0.024": 0.0,
			"0.025": 0.0
		}
	}
}
