{
	 "smiles": "CNC(=O)C1=NC=CC(OC2=C(C)C=CC(N)=C2)=C1", 
	 "Tm": 415.15, 
	 "num_atms": 34, 
	 "gaussian": { 
		 "optdone": 1, 
		 "sigma_profile": "yes", 
		 "theory": "DFT", 
		 "functional": "B3LYP", 
		 "basiset": "6-31G**", 
		 "properties": { 
			 "R2extent": 6959.1505, 
			 "electric_dipole_moment_norm": 7.48429596021, 
			 "electric_quadrupole_moment_norm": 8.81091149655, 
			 "total_energy": -857.240712985, 
			 "HOMO_LUMO_gap": 0.17977, 
			 "cosmo_polarized_energy": -23.31, 
			 "cosmo_cavitation_energy": 38.79, 
			 "cosmo_dispersion_energy": -26.7, 
			 "cosmo_repulsion_energy": 2.12, 
			 "cosmo_total_nonelectrostatic_energy": 14.21, 
			 "SMD_solvation_energy": 6.03 
		},
		"coords": [
			{
				"x": 2.5874726463,
				"y": 1.9933248727,
				"z": -0.2527707683,
				"element": "C" 
			},
			{
				"x": 1.5563548687,
				"y": 1.3610692071,
				"z": 0.5503891576,
				"element": "N" 
			},
			{
				"x": 0.4416787568,
				"y": 2.0466511805,
				"z": 0.9647400457,
				"element": "C" 
			},
			{
				"x": 0.2065921427,
				"y": 3.2033380787,
				"z": 0.6491755166,
				"element": "O" 
			},
			{
				"x": -0.506196443,
				"y": 1.2353305278,
				"z": 1.8291265988,
				"element": "C" 
			},
			{
				"x": -1.0835115562,
				"y": 1.9006390403,
				"z": 2.8377960038,
				"element": "N" 
			},
			{
				"x": -1.9451657975,
				"y": 1.2149653245,
				"z": 3.5982585643,
				"element": "C" 
			},
			{
				"x": -2.2806587757,
				"y": -0.1213838239,
				"z": 3.4001556903,
				"element": "C" 
			},
			{
				"x": -1.676559311,
				"y": -0.7987590971,
				"z": 2.3371671862,
				"element": "C" 
			},
			{
				"x": -2.0325409991,
				"y": -2.1043215607,
				"z": 2.155713081,
				"element": "O" 
			},
			{
				"x": -1.4454373053,
				"y": -2.8417269527,
				"z": 1.1232391203,
				"element": "C" 
			},
			{
				"x": -2.0850432312,
				"y": -2.8950716364,
				"z": -0.1216204401,
				"element": "C" 
			},
			{
				"x": -3.3531013001,
				"y": -2.124383628,
				"z": -0.3912059796,
				"element": "C" 
			},
			{
				"x": -1.4822246163,
				"y": -3.7128895113,
				"z": -1.0862419024,
				"element": "C" 
			},
			{
				"x": -0.3178824717,
				"y": -4.4327554604,
				"z": -0.8317379292,
				"element": "C" 
			},
			{
				"x": 0.3009036172,
				"y": -4.3662325528,
				"z": 0.4278512404,
				"element": "C" 
			},
			{
				"x": 1.4965144371,
				"y": -5.0408195389,
				"z": 0.6813335451,
				"element": "N" 
			},
			{
				"x": -0.285332807,
				"y": -3.553053775,
				"z": 1.4110701728,
				"element": "C" 
			},
			{
				"x": -0.7633970338,
				"y": -0.1098369745,
				"z": 1.5333260229,
				"element": "C" 
			},
			{
				"x": 2.1709017873,
				"y": 2.9212060309,
				"z": -0.645742246,
				"element": "H" 
			},
			{
				"x": 2.8832155099,
				"y": 1.3449525192,
				"z": -1.0840180623,
				"element": "H" 
			},
			{
				"x": 3.4778796213,
				"y": 2.2345084969,
				"z": 0.3408988131,
				"element": "H" 
			},
			{
				"x": 1.758603776,
				"y": 0.473676419,
				"z": 0.9852911816,
				"element": "H" 
			},
			{
				"x": -2.3998024156,
				"y": 1.7667895348,
				"z": 4.4192494534,
				"element": "H" 
			},
			{
				"x": -2.9917853605,
				"y": -0.6338798824,
				"z": 4.0384779559,
				"element": "H" 
			},
			{
				"x": -3.1870923495,
				"y": -1.0412336339,
				"z": -0.3594019937,
				"element": "H" 
			},
			{
				"x": -4.1239372004,
				"y": -2.3495557564,
				"z": 0.353223793,
				"element": "H" 
			},
			{
				"x": -3.7506381314,
				"y": -2.3708011596,
				"z": -1.3792068498,
				"element": "H" 
			},
			{
				"x": -1.9447483136,
				"y": -3.7906641197,
				"z": -2.0668747255,
				"element": "H" 
			},
			{
				"x": 0.1159536162,
				"y": -5.0541062812,
				"z": -1.6108836594,
				"element": "H" 
			},
			{
				"x": 1.6673413934,
				"y": -5.8433454201,
				"z": 0.0909993888,
				"element": "H" 
			},
			{
				"x": 1.6759343817,
				"y": -5.247379313,
				"z": 1.6544361863,
				"element": "H" 
			},
			{
				"x": 0.1494045978,
				"y": -3.4740092551,
				"z": 2.4032016089,
				"element": "H" 
			},
			{
				"x": -0.2934957335,
				"y": -0.5958418993,
				"z": 0.6869842297,
				"element": "H" 
			}
		],
		 "valence_orbital": [ 
			{
				"type": "occ",
				"energy": -0.25405,
				"method": "rhf"
			},
			{
				"type": "occ",
				"energy": -0.25167,
				"method": "rhf"
			},
			{
				"type": "occ",
				"energy": -0.24696,
				"method": "rhf"
			},
			{
				"type": "occ",
				"energy": -0.23516,
				"method": "rhf"
			},
			{
				"type": "occ",
				"energy": -0.21134,
				"method": "rhf"
			},
			{
				"type": "unocc",
				"energy": -0.03157,
				"method": "rhf"
			},
			{
				"type": "unocc",
				"energy": -0.01206,
				"method": "rhf"
			},
			{
				"type": "unocc",
				"energy": -0.00919,
				"method": "rhf"
			},
			{
				"type": "unocc",
				"energy": 0.00615,
				"method": "rhf"
			},
			{
				"type": "unocc",
				"energy": 0.05945,
				"method": "rhf"
			}
		],
		"cosmo_sigma_profile": { 
			"-0.025": 0.0,
			"-0.024": 0.0,
			"-0.023": 0.0,
			"-0.022": 0.0,
			"-0.021": 0.0,
			"-0.02": 0.0,
			"-0.019": 0.0,
			"-0.018": 0.0,
			"-0.017": 0.0,
			"-0.016": 0.0,
			"-0.015": 0.00312219522126,
			"-0.014": 0.751500245862,
			"-0.013": 1.4013148723,
			"-0.012": 4.12074882413,
			"-0.011": 4.01628554394,
			"-0.01": 3.91185801321,
			"-0.009": 5.73779089633,
			"-0.008": 4.72705624952,
			"-0.007": 8.49007077083,
			"-0.006": 11.1447134467,
			"-0.005": 18.582473916,
			"-0.004": 21.1632493984,
			"-0.003": 22.4990351773,
			"-0.002": 25.8411133551,
			"-0.001": 23.9160611383,
			"0.0": 25.4497767631,
			"0.001": 23.532597337,
			"0.002": 18.671980626,
			"0.003": 14.2732284776,
			"0.004": 12.6351492453,
			"0.005": 11.4420772266,
			"0.006": 7.76650052726,
			"0.007": 4.98026211747,
			"0.008": 4.55337490368,
			"0.009": 3.05454179031,
			"0.01": 2.54470674519,
			"0.011": 2.74460576801,
			"0.012": 3.44276944796,
			"0.013": 5.56961375117,
			"0.014": 4.6666926272,
			"0.015": 2.89245036755,
			"0.016": 1.9568528116,
			"0.017": 1.52757950284,
			"0.018": 0.153738292986,
			"0.019": 0.0,
			"0.02": 0.0,
			"0.021": 0.0,
			"0.022": 0.0,
			"0.023": 0.0,
			"0.024": 0.0,
			"0.025": 0.0
		}
	}
}
