{
	 "smiles": "CSC1=NC2=C(O1)C=CC=N2", 
	 "Tm": 336.15, 
	 "num_atms": 17, 
	 "gaussian": { 
		 "optdone": 1, 
		 "sigma_profile": "yes", 
		 "theory": "DFT", 
		 "functional": "B3LYP", 
		 "basiset": "6-31G**", 
		 "properties": { 
			 "R2extent": 2515.6376, 
			 "electric_dipole_moment_norm": 1.58848130301, 
			 "electric_quadrupole_moment_norm": 13.957215463, 
			 "total_energy": -853.262520458, 
			 "HOMO_LUMO_gap": 0.18912, 
			 "cosmo_polarized_energy": -9.93, 
			 "cosmo_cavitation_energy": 23.29, 
			 "cosmo_dispersion_energy": -18.23, 
			 "cosmo_repulsion_energy": 1.4, 
			 "cosmo_total_nonelectrostatic_energy": 6.46, 
			 "SMD_solvation_energy": 1.26 
		},
		"coords": [
			{
				"x": -3.1650408451,
				"y": -0.8991261967,
				"z": -2.3591458367,
				"element": "C" 
			},
			{
				"x": -1.5076900378,
				"y": -0.3253708215,
				"z": -2.8742793649,
				"element": "S" 
			},
			{
				"x": -0.980519944,
				"y": 0.3490316341,
				"z": -1.351288184,
				"element": "C" 
			},
			{
				"x": -1.6127845024,
				"y": 0.4019635272,
				"z": -0.2225301169,
				"element": "N" 
			},
			{
				"x": -0.7120262409,
				"y": 1.0444332144,
				"z": 0.63091655,
				"element": "C" 
			},
			{
				"x": 0.4568048368,
				"y": 1.3455175772,
				"z": -0.0881889139,
				"element": "C" 
			},
			{
				"x": 0.2858427783,
				"y": 0.8955815184,
				"z": -1.3749950511,
				"element": "O" 
			},
			{
				"x": 1.5309838959,
				"y": 1.9855733915,
				"z": 0.4967799449,
				"element": "C" 
			},
			{
				"x": 1.3441018017,
				"y": 2.2983502133,
				"z": 1.8492710996,
				"element": "C" 
			},
			{
				"x": 0.1436523549,
				"y": 1.9621598017,
				"z": 2.4953801852,
				"element": "C" 
			},
			{
				"x": -0.8938771186,
				"y": 1.339564988,
				"z": 1.9153366919,
				"element": "N" 
			},
			{
				"x": -3.7678720597,
				"y": -0.0564174445,
				"z": -2.0211956227,
				"element": "H" 
			},
			{
				"x": -3.0779743536,
				"y": -1.6359529245,
				"z": -1.560848784,
				"element": "H" 
			},
			{
				"x": -3.6103965515,
				"y": -1.3522704831,
				"z": -3.2465689262,
				"element": "H" 
			},
			{
				"x": 2.4406781148,
				"y": 2.2258966523,
				"z": -0.0423596529,
				"element": "H" 
			},
			{
				"x": 2.1266540068,
				"y": 2.8027645622,
				"z": 2.406237662,
				"element": "H" 
			},
			{
				"x": 0.0165638643,
				"y": 2.2131007897,
				"z": 3.5462783199,
				"element": "H" 
			}
		],
		 "valence_orbital": [ 
			{
				"type": "occ",
				"energy": -0.30779,
				"method": "rhf"
			},
			{
				"type": "occ",
				"energy": -0.28701,
				"method": "rhf"
			},
			{
				"type": "occ",
				"energy": -0.27611,
				"method": "rhf"
			},
			{
				"type": "occ",
				"energy": -0.26186,
				"method": "rhf"
			},
			{
				"type": "occ",
				"energy": -0.23038,
				"method": "rhf"
			},
			{
				"type": "unocc",
				"energy": -0.04126,
				"method": "rhf"
			},
			{
				"type": "unocc",
				"energy": -0.00705,
				"method": "rhf"
			},
			{
				"type": "unocc",
				"energy": 0.01244,
				"method": "rhf"
			},
			{
				"type": "unocc",
				"energy": 0.03078,
				"method": "rhf"
			},
			{
				"type": "unocc",
				"energy": 0.06722,
				"method": "rhf"
			}
		],
		"cosmo_sigma_profile": { 
			"-0.025": 0.0,
			"-0.024": 0.0,
			"-0.023": 0.0,
			"-0.022": 0.0,
			"-0.021": 0.0,
			"-0.02": 0.0,
			"-0.019": 0.0,
			"-0.018": 0.0,
			"-0.017": 0.0,
			"-0.016": 0.0,
			"-0.015": 0.0,
			"-0.014": 0.0,
			"-0.013": 0.0,
			"-0.012": 0.0,
			"-0.011": 0.0,
			"-0.01": 0.0,
			"-0.009": 1.52517218079,
			"-0.008": 4.0988975672,
			"-0.007": 8.98454790528,
			"-0.006": 12.3703837138,
			"-0.005": 10.9964364721,
			"-0.004": 12.6069226002,
			"-0.003": 15.4871597519,
			"-0.002": 13.4964900303,
			"-0.001": 14.8101827027,
			"0.0": 16.5771630518,
			"0.001": 15.5313020516,
			"0.002": 16.4591844136,
			"0.003": 9.41223816523,
			"0.004": 6.56465050078,
			"0.005": 6.51091229332,
			"0.006": 4.84505792718,
			"0.007": 2.64390254105,
			"0.008": 2.46415917905,
			"0.009": 1.82421457369,
			"0.01": 2.24430937646,
			"0.011": 2.25223134563,
			"0.012": 2.98704414264,
			"0.013": 1.93638727581,
			"0.014": 1.61744367719,
			"0.015": 0.972261675772,
			"0.016": 0.623423169002,
			"0.017": 0.0197764729457,
			"0.018": 0.0,
			"0.019": 0.0,
			"0.02": 0.0,
			"0.021": 0.0,
			"0.022": 0.0,
			"0.023": 0.0,
			"0.024": 0.0,
			"0.025": 0.0
		}
	}
}
