{
	 "smiles": "OC(=O)C(F)(F)OC1=CC=C(C=O)C=C1", 
	 "Tm": 420.15, 
	 "num_atms": 21, 
	 "gaussian": { 
		 "optdone": 1, 
		 "sigma_profile": "yes", 
		 "theory": "DFT", 
		 "functional": "B3LYP", 
		 "basiset": "6-31G**", 
		 "properties": { 
			 "R2extent": 4908.9159, 
			 "electric_dipole_moment_norm": 3.90592041266, 
			 "electric_quadrupole_moment_norm": 4.0470950483, 
			 "total_energy": -847.135348535, 
			 "HOMO_LUMO_gap": 0.19122, 
			 "cosmo_polarized_energy": -14.18, 
			 "cosmo_cavitation_energy": 28.24, 
			 "cosmo_dispersion_energy": -20.02, 
			 "cosmo_repulsion_energy": 1.54, 
			 "cosmo_total_nonelectrostatic_energy": 9.76, 
			 "SMD_solvation_energy": 8.38 
		},
		"coords": [
			{
				"x": 3.3929408346,
				"y": 3.4823740679,
				"z": -2.6179396765,
				"element": "O" 
			},
			{
				"x": 3.06387381,
				"y": 2.7598599481,
				"z": -1.5371960967,
				"element": "C" 
			},
			{
				"x": 3.5799966977,
				"y": 2.8389925454,
				"z": -0.4538582978,
				"element": "O" 
			},
			{
				"x": 1.9065143835,
				"y": 1.7986900777,
				"z": -1.8950362686,
				"element": "C" 
			},
			{
				"x": 0.8480661666,
				"y": 2.5282231468,
				"z": -2.3492438009,
				"element": "F" 
			},
			{
				"x": 2.2957148723,
				"y": 1.0012114623,
				"z": -2.9300922495,
				"element": "F" 
			},
			{
				"x": 1.5888874786,
				"y": 1.0771406342,
				"z": -0.7899129993,
				"element": "O" 
			},
			{
				"x": 0.5782367335,
				"y": 0.1233847006,
				"z": -0.8029548492,
				"element": "C" 
			},
			{
				"x": 0.3950245229,
				"y": -0.5194752372,
				"z": 0.4277081508,
				"element": "C" 
			},
			{
				"x": -0.583088428,
				"y": -1.4936302909,
				"z": 0.5491407584,
				"element": "C" 
			},
			{
				"x": -1.3836685998,
				"y": -1.8326549637,
				"z": -0.5540206418,
				"element": "C" 
			},
			{
				"x": -2.428144352,
				"y": -2.8709235982,
				"z": -0.4295080175,
				"element": "C" 
			},
			{
				"x": -2.6697419312,
				"y": -3.488842157,
				"z": 0.5904129159,
				"element": "O" 
			},
			{
				"x": -1.1836347362,
				"y": -1.1777825563,
				"z": -1.7742911224,
				"element": "C" 
			},
			{
				"x": -0.2049659984,
				"y": -0.1956833542,
				"z": -1.9151403955,
				"element": "C" 
			},
			{
				"x": 4.1197526087,
				"y": 4.0719488493,
				"z": -2.3542476253,
				"element": "H" 
			},
			{
				"x": 1.0281488089,
				"y": -0.2367474185,
				"z": 1.2617072312,
				"element": "H" 
			},
			{
				"x": -0.7484710379,
				"y": -2.0089754671,
				"z": 1.4896623203,
				"element": "H" 
			},
			{
				"x": -3.0041854489,
				"y": -3.0614345672,
				"z": -1.3627353535,
				"element": "H" 
			},
			{
				"x": -1.8018065222,
				"y": -1.4379723861,
				"z": -2.6301842839,
				"element": "H" 
			},
			{
				"x": -0.0617498627,
				"y": 0.301896564,
				"z": -2.8640696982,
				"element": "H" 
			}
		],
		 "valence_orbital": [ 
			{
				"type": "occ",
				"energy": -0.35048,
				"method": "rhf"
			},
			{
				"type": "occ",
				"energy": -0.3087,
				"method": "rhf"
			},
			{
				"type": "occ",
				"energy": -0.27671,
				"method": "rhf"
			},
			{
				"type": "occ",
				"energy": -0.25772,
				"method": "rhf"
			},
			{
				"type": "occ",
				"energy": -0.25759,
				"method": "rhf"
			},
			{
				"type": "unocc",
				"energy": -0.06637,
				"method": "rhf"
			},
			{
				"type": "unocc",
				"energy": -0.03515,
				"method": "rhf"
			},
			{
				"type": "unocc",
				"energy": -0.02428,
				"method": "rhf"
			},
			{
				"type": "unocc",
				"energy": 0.0364,
				"method": "rhf"
			},
			{
				"type": "unocc",
				"energy": 0.05002,
				"method": "rhf"
			}
		],
		"cosmo_sigma_profile": { 
			"-0.025": 0.0,
			"-0.024": 0.0,
			"-0.023": 0.0,
			"-0.022": 0.0,
			"-0.021": 0.0186203457412,
			"-0.02": 0.882575441949,
			"-0.019": 0.90713393257,
			"-0.018": 1.01321654579,
			"-0.017": 0.959928965899,
			"-0.016": 0.969629895148,
			"-0.015": 0.619240380577,
			"-0.014": 0.655089611036,
			"-0.013": 0.57872955897,
			"-0.012": 0.878916870037,
			"-0.011": 0.584516652389,
			"-0.01": 0.781742036164,
			"-0.009": 1.37782474396,
			"-0.008": 5.3962141025,
			"-0.007": 9.47682496406,
			"-0.006": 12.2960771762,
			"-0.005": 11.5797035367,
			"-0.004": 10.2170219679,
			"-0.003": 11.4372481006,
			"-0.002": 10.361630603,
			"-0.001": 15.5181399076,
			"0.0": 17.3060609106,
			"0.001": 22.8177211515,
			"0.002": 31.5563292909,
			"0.003": 11.1927970597,
			"0.004": 6.3490101689,
			"0.005": 4.70367999063,
			"0.006": 4.41036281666,
			"0.007": 5.1183774214,
			"0.008": 4.59745247581,
			"0.009": 5.91766145102,
			"0.01": 6.85433497434,
			"0.011": 6.1614526929,
			"0.012": 2.75504928573,
			"0.013": 0.764413104001,
			"0.014": 0.0,
			"0.015": 0.0,
			"0.016": 0.0,
			"0.017": 0.0,
			"0.018": 0.0,
			"0.019": 0.0,
			"0.02": 0.0,
			"0.021": 0.0,
			"0.022": 0.0,
			"0.023": 0.0,
			"0.024": 0.0,
			"0.025": 0.0
		}
	}
}
