{
	 "smiles": "CC(Cl)C(=O)NCCC1=CC2=C(OCCO2)C=C1", 
	 "Tm": 380.15, 
	 "num_atms": 34, 
	 "gaussian": { 
		 "optdone": 1, 
		 "sigma_profile": "yes", 
		 "theory": "DFT", 
		 "functional": "B3LYP", 
		 "basiset": "6-31G**", 
		 "properties": { 
			 "R2extent": 6601.4591, 
			 "electric_dipole_moment_norm": 3.02263559994, 
			 "electric_quadrupole_moment_norm": 8.68741135149, 
			 "total_energy": -1245.65540479, 
			 "HOMO_LUMO_gap": 0.20855, 
			 "cosmo_polarized_energy": -13.66, 
			 "cosmo_cavitation_energy": 38.67, 
			 "cosmo_dispersion_energy": -27.02, 
			 "cosmo_repulsion_energy": 2.12, 
			 "cosmo_total_nonelectrostatic_energy": 13.77, 
			 "SMD_solvation_energy": 6.3 
		},
		"coords": [
			{
				"x": -2.5187876038,
				"y": 1.7392302211,
				"z": -4.1236435976,
				"element": "C" 
			},
			{
				"x": -1.6005996827,
				"y": 2.0316780168,
				"z": -2.9409732439,
				"element": "C" 
			},
			{
				"x": -0.0020467802,
				"y": 1.1492403922,
				"z": -3.1582999515,
				"element": "Cl" 
			},
			{
				"x": -2.3116986946,
				"y": 1.7417993665,
				"z": -1.6068558363,
				"element": "C" 
			},
			{
				"x": -3.3275910334,
				"y": 2.3904927762,
				"z": -1.372791111,
				"element": "O" 
			},
			{
				"x": -1.7983136074,
				"y": 0.7918156453,
				"z": -0.7918054505,
				"element": "N" 
			},
			{
				"x": -2.3983515019,
				"y": 0.4627168876,
				"z": 0.4927979347,
				"element": "C" 
			},
			{
				"x": -1.450905732,
				"y": 0.7280000151,
				"z": 1.6806413696,
				"element": "C" 
			},
			{
				"x": -0.1948470991,
				"y": -0.117793061,
				"z": 1.6510768823,
				"element": "C" 
			},
			{
				"x": 0.9936363321,
				"y": 0.3813370465,
				"z": 1.1065704921,
				"element": "C" 
			},
			{
				"x": 2.1440471889,
				"y": -0.4073683276,
				"z": 1.0428037595,
				"element": "C" 
			},
			{
				"x": 2.1131274145,
				"y": -1.729712249,
				"z": 1.5152003843,
				"element": "C" 
			},
			{
				"x": 3.215653261,
				"y": -2.5483440995,
				"z": 1.4585041436,
				"element": "O" 
			},
			{
				"x": 4.2349408483,
				"y": -2.0762843806,
				"z": 0.5776775022,
				"element": "C" 
			},
			{
				"x": 4.4715081191,
				"y": -0.5907730379,
				"z": 0.7986130227,
				"element": "C" 
			},
			{
				"x": 3.2830389787,
				"y": 0.1459745292,
				"z": 0.5109524894,
				"element": "O" 
			},
			{
				"x": 0.9352766402,
				"y": -2.2316101608,
				"z": 2.0701130373,
				"element": "C" 
			},
			{
				"x": -0.2034355114,
				"y": -1.4334758678,
				"z": 2.1412793179,
				"element": "C" 
			},
			{
				"x": -2.0579577086,
				"y": 2.0601122318,
				"z": -5.0602484244,
				"element": "H" 
			},
			{
				"x": -3.4528789522,
				"y": 2.2857701516,
				"z": -3.972025736,
				"element": "H" 
			},
			{
				"x": -2.7416787935,
				"y": 0.6706958595,
				"z": -4.1886648604,
				"element": "H" 
			},
			{
				"x": -1.3270661939,
				"y": 3.0880145256,
				"z": -2.9222112407,
				"element": "H" 
			},
			{
				"x": -0.9355670699,
				"y": 0.3373627844,
				"z": -1.0584799962,
				"element": "H" 
			},
			{
				"x": -2.700298957,
				"y": -0.5922829871,
				"z": 0.492057775,
				"element": "H" 
			},
			{
				"x": -3.2990821524,
				"y": 1.0741466815,
				"z": 0.5784210368,
				"element": "H" 
			},
			{
				"x": -1.1916782345,
				"y": 1.7922362845,
				"z": 1.6902832423,
				"element": "H" 
			},
			{
				"x": -2.0115478227,
				"y": 0.5262154742,
				"z": 2.6014108323,
				"element": "H" 
			},
			{
				"x": 1.0557367799,
				"y": 1.3997730025,
				"z": 0.7345061747,
				"element": "H" 
			},
			{
				"x": 3.9409718027,
				"y": -2.2559846066,
				"z": -0.4656527279,
				"element": "H" 
			},
			{
				"x": 5.1324418118,
				"y": -2.6589945705,
				"z": 0.8002135303,
				"element": "H" 
			},
			{
				"x": 5.2443121267,
				"y": -0.2070149238,
				"z": 0.1277686395,
				"element": "H" 
			},
			{
				"x": 4.7791786554,
				"y": -0.4128139913,
				"z": 1.8382351022,
				"element": "H" 
			},
			{
				"x": 0.9359020084,
				"y": -3.2520595062,
				"z": 2.4400092216,
				"element": "H" 
			},
			{
				"x": -1.1105388366,
				"y": -1.8385001222,
				"z": 2.5821162862,
				"element": "H" 
			}
		],
		 "valence_orbital": [ 
			{
				"type": "occ",
				"energy": -0.30191,
				"method": "rhf"
			},
			{
				"type": "occ",
				"energy": -0.25486,
				"method": "rhf"
			},
			{
				"type": "occ",
				"energy": -0.25201,
				"method": "rhf"
			},
			{
				"type": "occ",
				"energy": -0.23668,
				"method": "rhf"
			},
			{
				"type": "occ",
				"energy": -0.21097,
				"method": "rhf"
			},
			{
				"type": "unocc",
				"energy": -0.00242,
				"method": "rhf"
			},
			{
				"type": "unocc",
				"energy": 0.00854,
				"method": "rhf"
			},
			{
				"type": "unocc",
				"energy": 0.01572,
				"method": "rhf"
			},
			{
				"type": "unocc",
				"energy": 0.02616,
				"method": "rhf"
			},
			{
				"type": "unocc",
				"energy": 0.08116,
				"method": "rhf"
			}
		],
		"cosmo_sigma_profile": { 
			"-0.025": 0.0,
			"-0.024": 0.0,
			"-0.023": 0.0,
			"-0.022": 0.0,
			"-0.021": 0.0,
			"-0.02": 0.0,
			"-0.019": 0.0,
			"-0.018": 0.0,
			"-0.017": 0.0,
			"-0.016": 0.0,
			"-0.015": 0.0,
			"-0.014": 0.0,
			"-0.013": 0.0,
			"-0.012": 0.0,
			"-0.011": 0.0,
			"-0.01": 0.0263960463298,
			"-0.009": 0.593981437446,
			"-0.008": 2.57707430837,
			"-0.007": 8.26956028389,
			"-0.006": 14.5294995451,
			"-0.005": 27.0451048056,
			"-0.004": 34.6011742929,
			"-0.003": 29.4123871734,
			"-0.002": 25.9495545832,
			"-0.001": 25.9695011867,
			"0.0": 17.7188825847,
			"0.001": 13.4794400467,
			"0.002": 16.8137131852,
			"0.003": 15.8475193902,
			"0.004": 16.6615739434,
			"0.005": 17.9081273085,
			"0.006": 12.0367683547,
			"0.007": 3.50369468845,
			"0.008": 3.05006453554,
			"0.009": 4.33309223958,
			"0.01": 4.65809366489,
			"0.011": 3.10450025166,
			"0.012": 2.15277527392,
			"0.013": 4.4468417283,
			"0.014": 2.4039696503,
			"0.015": 0.0,
			"0.016": 0.0,
			"0.017": 0.0,
			"0.018": 0.0,
			"0.019": 0.0,
			"0.02": 0.0,
			"0.021": 0.0,
			"0.022": 0.0,
			"0.023": 0.0,
			"0.024": 0.0,
			"0.025": 0.0
		}
	}
}
