{
	 "smiles": "COC(=O)NC1=CC=C(N)C=C1", 
	 "Tm": 363.15, 
	 "num_atms": 22, 
	 "gaussian": { 
		 "optdone": 1, 
		 "sigma_profile": "yes", 
		 "theory": "DFT", 
		 "functional": "B3LYP", 
		 "basiset": "6-31G**", 
		 "properties": { 
			 "R2extent": 3048.7285, 
			 "electric_dipole_moment_norm": 3.40045826323, 
			 "electric_quadrupole_moment_norm": 12.9766059326, 
			 "total_energy": -570.847534523, 
			 "HOMO_LUMO_gap": 0.18852, 
			 "cosmo_polarized_energy": -14.62, 
			 "cosmo_cavitation_energy": 26.35, 
			 "cosmo_dispersion_energy": -19.48, 
			 "cosmo_repulsion_energy": 1.57, 
			 "cosmo_total_nonelectrostatic_energy": 8.43, 
			 "SMD_solvation_energy": 6.26 
		},
		"coords": [
			{
				"x": 1.9373454373,
				"y": -2.2128861352,
				"z": 3.4632523862,
				"element": "C" 
			},
			{
				"x": 1.1235721234,
				"y": -1.7207197802,
				"z": 2.3887330543,
				"element": "O" 
			},
			{
				"x": 1.4412329781,
				"y": -2.2252969302,
				"z": 1.1723398316,
				"element": "C" 
			},
			{
				"x": 2.3263051321,
				"y": -3.0408880005,
				"z": 0.9803365602,
				"element": "O" 
			},
			{
				"x": 0.6563092872,
				"y": -1.7260681115,
				"z": 0.1630119812,
				"element": "N" 
			},
			{
				"x": -0.3547169887,
				"y": -0.7320565109,
				"z": 0.1442450581,
				"element": "C" 
			},
			{
				"x": -1.1820640549,
				"y": -0.4357735211,
				"z": 1.2354278817,
				"element": "C" 
			},
			{
				"x": -2.1733057897,
				"y": 0.5353224787,
				"z": 1.1228856646,
				"element": "C" 
			},
			{
				"x": -2.3907487705,
				"y": 1.2270337063,
				"z": -0.079061511,
				"element": "C" 
			},
			{
				"x": -3.4340332115,
				"y": 2.1534939027,
				"z": -0.2012046722,
				"element": "N" 
			},
			{
				"x": -1.5698985028,
				"y": 0.9129714036,
				"z": -1.1736028108,
				"element": "C" 
			},
			{
				"x": -0.5674110123,
				"y": -0.043991833,
				"z": -1.0583611173,
				"element": "C" 
			},
			{
				"x": 1.5622808714,
				"y": -1.7200202253,
				"z": 4.3605738371,
				"element": "H" 
			},
			{
				"x": 1.8449242721,
				"y": -3.2978219334,
				"z": 3.5543409837,
				"element": "H" 
			},
			{
				"x": 2.9880569742,
				"y": -1.961456148,
				"z": 3.2999960233,
				"element": "H" 
			},
			{
				"x": 0.9596716686,
				"y": -2.0726602879,
				"z": -0.73561447,
				"element": "H" 
			},
			{
				"x": -1.0461301334,
				"y": -0.9572824447,
				"z": 2.172925386,
				"element": "H" 
			},
			{
				"x": -2.8024509765,
				"y": 0.7499294251,
				"z": 1.9834610744,
				"element": "H" 
			},
			{
				"x": -3.2976051798,
				"y": 2.8483071599,
				"z": -0.9231694289,
				"element": "H" 
			},
			{
				"x": -3.7192421626,
				"y": 2.5821616634,
				"z": 0.6690786907,
				"element": "H" 
			},
			{
				"x": -1.7153057371,
				"y": 1.4251803273,
				"z": -2.1214510738,
				"element": "H" 
			},
			{
				"x": 0.0655137752,
				"y": -0.2568782052,
				"z": -1.9167433287,
				"element": "H" 
			}
		],
		 "valence_orbital": [ 
			{
				"type": "occ",
				"energy": -0.29458,
				"method": "rhf"
			},
			{
				"type": "occ",
				"energy": -0.27,
				"method": "rhf"
			},
			{
				"type": "occ",
				"energy": -0.26702,
				"method": "rhf"
			},
			{
				"type": "occ",
				"energy": -0.24866,
				"method": "rhf"
			},
			{
				"type": "occ",
				"energy": -0.18834,
				"method": "rhf"
			},
			{
				"type": "unocc",
				"energy": 0.00018,
				"method": "rhf"
			},
			{
				"type": "unocc",
				"energy": 0.01232,
				"method": "rhf"
			},
			{
				"type": "unocc",
				"energy": 0.06834,
				"method": "rhf"
			},
			{
				"type": "unocc",
				"energy": 0.08175,
				"method": "rhf"
			},
			{
				"type": "unocc",
				"energy": 0.08774,
				"method": "rhf"
			}
		],
		"cosmo_sigma_profile": { 
			"-0.025": 0.0,
			"-0.024": 0.0,
			"-0.023": 0.0,
			"-0.022": 0.0,
			"-0.021": 0.0,
			"-0.02": 0.0,
			"-0.019": 0.0,
			"-0.018": 0.0,
			"-0.017": 0.0,
			"-0.016": 0.0,
			"-0.015": 0.27378536779,
			"-0.014": 0.697827872071,
			"-0.013": 1.00586331468,
			"-0.012": 3.10407545,
			"-0.011": 4.11103794913,
			"-0.01": 4.01150091776,
			"-0.009": 4.11884467954,
			"-0.008": 4.79185356616,
			"-0.007": 4.86638497532,
			"-0.006": 10.1214011819,
			"-0.005": 12.7282402168,
			"-0.004": 15.1409695951,
			"-0.003": 17.289715921,
			"-0.002": 10.8141059054,
			"-0.001": 11.3942819753,
			"0.0": 10.9027491008,
			"0.001": 10.4286600852,
			"0.002": 10.8442567285,
			"0.003": 10.2931514745,
			"0.004": 9.93161332975,
			"0.005": 10.767790905,
			"0.006": 14.1394261422,
			"0.007": 6.14284672064,
			"0.008": 1.76047750577,
			"0.009": 2.75752615181,
			"0.01": 1.75156094472,
			"0.011": 2.44127229061,
			"0.012": 2.78606034722,
			"0.013": 6.91420070906,
			"0.014": 1.88107969072,
			"0.015": 0.518704962902,
			"0.016": 0.0921648116264,
			"0.017": 0.0,
			"0.018": 0.0,
			"0.019": 0.0,
			"0.02": 0.0,
			"0.021": 0.0,
			"0.022": 0.0,
			"0.023": 0.0,
			"0.024": 0.0,
			"0.025": 0.0
		}
	}
}
