{
	 "smiles": "SC1=NN=C(N1CC1=CC=CO1)C1=C2C=CC=CC2=CC=C1", 
	 "Tm": 451.15, 
	 "num_atms": 35, 
	 "gaussian": { 
		 "optdone": 1, 
		 "sigma_profile": "yes", 
		 "theory": "DFT", 
		 "functional": "B3LYP", 
		 "basiset": "6-31G**", 
		 "properties": { 
			 "R2extent": 7183.2871, 
			 "electric_dipole_moment_norm": 4.96438721898, 
			 "electric_quadrupole_moment_norm": 17.6499506203, 
			 "total_energy": -1293.26368826, 
			 "HOMO_LUMO_gap": 0.16508, 
			 "cosmo_polarized_energy": -19.19, 
			 "cosmo_cavitation_energy": 41.28, 
			 "cosmo_dispersion_energy": -28.52, 
			 "cosmo_repulsion_energy": 2.12, 
			 "cosmo_total_nonelectrostatic_energy": 14.89, 
			 "SMD_solvation_energy": 4.93 
		},
		"coords": [
			{
				"x": -1.7222884024,
				"y": -3.4630539224,
				"z": 2.352722945,
				"element": "S" 
			},
			{
				"x": -0.8866652771,
				"y": -1.9336715076,
				"z": 2.0506834618,
				"element": "C" 
			},
			{
				"x": -0.0618425165,
				"y": -1.3356628121,
				"z": 2.8775772296,
				"element": "N" 
			},
			{
				"x": 0.3487696821,
				"y": -0.1710220466,
				"z": 2.2630838691,
				"element": "N" 
			},
			{
				"x": -0.2331551164,
				"y": -0.0986038895,
				"z": 1.0845917138,
				"element": "C" 
			},
			{
				"x": -1.0495413003,
				"y": -1.2061513011,
				"z": 0.8978942117,
				"element": "N" 
			},
			{
				"x": -1.7886204829,
				"y": -1.6139605091,
				"z": -0.3049184456,
				"element": "C" 
			},
			{
				"x": -1.1303619775,
				"y": -2.7118271249,
				"z": -1.070996574,
				"element": "C" 
			},
			{
				"x": -1.4820738081,
				"y": -4.000424538,
				"z": -1.3497246057,
				"element": "C" 
			},
			{
				"x": -0.4318760464,
				"y": -4.5400477973,
				"z": -2.1630621668,
				"element": "C" 
			},
			{
				"x": 0.4782615154,
				"y": -3.5396252219,
				"z": -2.3139722047,
				"element": "C" 
			},
			{
				"x": 0.0679558938,
				"y": -2.4166920027,
				"z": -1.6593740697,
				"element": "O" 
			},
			{
				"x": -0.0904992364,
				"y": 1.0075713877,
				"z": 0.1170174016,
				"element": "C" 
			},
			{
				"x": 1.2027199195,
				"y": 1.4004920337,
				"z": -0.3677369606,
				"element": "C" 
			},
			{
				"x": 2.4079418686,
				"y": 0.7603727951,
				"z": 0.0316788255,
				"element": "C" 
			},
			{
				"x": 3.6230327785,
				"y": 1.169943059,
				"z": -0.4705527083,
				"element": "C" 
			},
			{
				"x": 3.6999096359,
				"y": 2.2374808718,
				"z": -1.396586031,
				"element": "C" 
			},
			{
				"x": 2.5528397216,
				"y": 2.8783646138,
				"z": -1.8033408997,
				"element": "C" 
			},
			{
				"x": 1.2811056527,
				"y": 2.4832119365,
				"z": -1.3068105913,
				"element": "C" 
			},
			{
				"x": 0.091999491,
				"y": 3.1390439154,
				"z": -1.7230620835,
				"element": "C" 
			},
			{
				"x": -1.1334737387,
				"y": 2.752614857,
				"z": -1.2337232326,
				"element": "C" 
			},
			{
				"x": -1.2206347996,
				"y": 1.6873805376,
				"z": -0.3098301469,
				"element": "C" 
			},
			{
				"x": -1.515885598,
				"y": -3.3915352137,
				"z": 3.6815249992,
				"element": "H" 
			},
			{
				"x": -2.7900555104,
				"y": -1.9377249448,
				"z": -0.0068553766,
				"element": "H" 
			},
			{
				"x": -1.8917217586,
				"y": -0.7219974616,
				"z": -0.9263901661,
				"element": "H" 
			},
			{
				"x": -2.3771091774,
				"y": -4.5051580908,
				"z": -1.0150071171,
				"element": "H" 
			},
			{
				"x": -0.3669126942,
				"y": -5.5377039373,
				"z": -2.5721265636,
				"element": "H" 
			},
			{
				"x": 1.4239372295,
				"y": -3.4634950096,
				"z": -2.8276566507,
				"element": "H" 
			},
			{
				"x": 2.3590421885,
				"y": -0.0408178257,
				"z": 0.759037335,
				"element": "H" 
			},
			{
				"x": 4.5329748122,
				"y": 0.6711593606,
				"z": -0.1497987905,
				"element": "H" 
			},
			{
				"x": 4.666282461,
				"y": 2.549535917,
				"z": -1.7820431017,
				"element": "H" 
			},
			{
				"x": 2.6008313379,
				"y": 3.7007054459,
				"z": -2.5125525609,
				"element": "H" 
			},
			{
				"x": 0.1691372608,
				"y": 3.9585718917,
				"z": -2.4329003859,
				"element": "H" 
			},
			{
				"x": -2.0379517188,
				"y": 3.2669725944,
				"z": -1.5440937485,
				"element": "H" 
			},
			{
				"x": -2.1912722894,
				"y": 1.4158539396,
				"z": 0.0958031897,
				"element": "H" 
			}
		],
		 "valence_orbital": [ 
			{
				"type": "occ",
				"energy": -0.25248,
				"method": "rhf"
			},
			{
				"type": "occ",
				"energy": -0.24778,
				"method": "rhf"
			},
			{
				"type": "occ",
				"energy": -0.23693,
				"method": "rhf"
			},
			{
				"type": "occ",
				"energy": -0.23339,
				"method": "rhf"
			},
			{
				"type": "occ",
				"energy": -0.21309,
				"method": "rhf"
			},
			{
				"type": "unocc",
				"energy": -0.04801,
				"method": "rhf"
			},
			{
				"type": "unocc",
				"energy": -0.01549,
				"method": "rhf"
			},
			{
				"type": "unocc",
				"energy": -0.00578,
				"method": "rhf"
			},
			{
				"type": "unocc",
				"energy": 0.00753,
				"method": "rhf"
			},
			{
				"type": "unocc",
				"energy": 0.01293,
				"method": "rhf"
			}
		],
		"cosmo_sigma_profile": { 
			"-0.025": 0.0,
			"-0.024": 0.0,
			"-0.023": 0.0,
			"-0.022": 0.0,
			"-0.021": 0.0,
			"-0.02": 0.0,
			"-0.019": 0.0,
			"-0.018": 0.0,
			"-0.017": 0.0,
			"-0.016": 0.0,
			"-0.015": 0.0,
			"-0.014": 0.0,
			"-0.013": 0.0778645274261,
			"-0.012": 1.15333305733,
			"-0.011": 1.61056173041,
			"-0.01": 1.49861225488,
			"-0.009": 2.620387688,
			"-0.008": 6.37674927083,
			"-0.007": 15.496901407,
			"-0.006": 24.4043322317,
			"-0.005": 23.7831534682,
			"-0.004": 23.0816638005,
			"-0.003": 19.368317911,
			"-0.002": 19.3383571213,
			"-0.001": 18.1928588135,
			"0.0": 20.4000667473,
			"0.001": 20.6483776393,
			"0.002": 23.2900931142,
			"0.003": 33.6857761409,
			"0.004": 30.1151196263,
			"0.005": 17.8779193985,
			"0.006": 6.76113150168,
			"0.007": 3.50156492234,
			"0.008": 2.29536770966,
			"0.009": 2.21528315851,
			"0.01": 1.94940589422,
			"0.011": 1.68319191678,
			"0.012": 3.00621261778,
			"0.013": 3.57209055048,
			"0.014": 2.56608110178,
			"0.015": 2.34461463409,
			"0.016": 1.63081795055,
			"0.017": 0.301705733484,
			"0.018": 0.0,
			"0.019": 0.0,
			"0.02": 0.0,
			"0.021": 0.0,
			"0.022": 0.0,
			"0.023": 0.0,
			"0.024": 0.0,
			"0.025": 0.0
		}
	}
}
