{
	 "smiles": "COC1=C(C=C(C=C1)S(=O)(=O)N1CCOCC1)C(O)=O", 
	 "Tm": 455.15, 
	 "num_atms": 35, 
	 "gaussian": { 
		 "optdone": 1, 
		 "sigma_profile": "yes", 
		 "theory": "DFT", 
		 "functional": "B3LYP", 
		 "basiset": "6-31G**", 
		 "properties": { 
			 "R2extent": 6344.0574, 
			 "electric_dipole_moment_norm": 8.11586733874, 
			 "electric_quadrupole_moment_norm": 26.8681981056, 
			 "total_energy": -1370.51032657, 
			 "HOMO_LUMO_gap": 0.17271, 
			 "cosmo_polarized_energy": -25.92, 
			 "cosmo_cavitation_energy": 38.92, 
			 "cosmo_dispersion_energy": -27.61, 
			 "cosmo_repulsion_energy": 2.07, 
			 "cosmo_total_nonelectrostatic_energy": 13.38, 
			 "SMD_solvation_energy": 6.83 
		},
		"coords": [
			{
				"x": 3.9339461129,
				"y": -2.0762159746,
				"z": 1.7723888167,
				"element": "C" 
			},
			{
				"x": 3.5882415209,
				"y": -0.8309902962,
				"z": 1.1631536499,
				"element": "O" 
			},
			{
				"x": 2.2759742134,
				"y": -0.4487992845,
				"z": 1.0853794714,
				"element": "C" 
			},
			{
				"x": 2.0072309799,
				"y": 0.80836546,
				"z": 0.4933025234,
				"element": "C" 
			},
			{
				"x": 0.6777639391,
				"y": 1.2290510071,
				"z": 0.4058503344,
				"element": "C" 
			},
			{
				"x": -0.3615339362,
				"y": 0.4275619447,
				"z": 0.8725021343,
				"element": "C" 
			},
			{
				"x": -0.0872767911,
				"y": -0.8068625606,
				"z": 1.46191787,
				"element": "C" 
			},
			{
				"x": 1.2308503267,
				"y": -1.2448545431,
				"z": 1.5685148135,
				"element": "C" 
			},
			{
				"x": -2.0690872954,
				"y": 0.9806390789,
				"z": 0.7159362045,
				"element": "S" 
			},
			{
				"x": -2.8525054844,
				"y": 0.1294058267,
				"z": 1.6158768671,
				"element": "O" 
			},
			{
				"x": -2.0488248469,
				"y": 2.4398727057,
				"z": 0.8209946302,
				"element": "O" 
			},
			{
				"x": -2.5938825118,
				"y": 0.6320504095,
				"z": -0.8283231369,
				"element": "N" 
			},
			{
				"x": -2.2753804974,
				"y": 1.5082716319,
				"z": -1.9650749179,
				"element": "C" 
			},
			{
				"x": -1.3361238951,
				"y": 0.7985153295,
				"z": -2.942334039,
				"element": "C" 
			},
			{
				"x": -1.8652438198,
				"y": -0.4641832588,
				"z": -3.3340280101,
				"element": "O" 
			},
			{
				"x": -2.0394622439,
				"y": -1.3262336004,
				"z": -2.2172681313,
				"element": "C" 
			},
			{
				"x": -3.015164007,
				"y": -0.7237856877,
				"z": -1.2038367127,
				"element": "C" 
			},
			{
				"x": 3.037154547,
				"y": 1.7657454394,
				"z": -0.0665479417,
				"element": "C" 
			},
			{
				"x": 4.3339662718,
				"y": 1.4282568045,
				"z": 0.0356973837,
				"element": "O" 
			},
			{
				"x": 2.7065210008,
				"y": 2.8044779446,
				"z": -0.59416588,
				"element": "O" 
			},
			{
				"x": 3.6190635903,
				"y": -2.1005095325,
				"z": 2.8208163379,
				"element": "H" 
			},
			{
				"x": 3.4877049695,
				"y": -2.9153126653,
				"z": 1.228537444,
				"element": "H" 
			},
			{
				"x": 5.0203204303,
				"y": -2.1410939751,
				"z": 1.7153132739,
				"element": "H" 
			},
			{
				"x": 0.4903893303,
				"y": 2.2083045923,
				"z": -0.0202055446,
				"element": "H" 
			},
			{
				"x": -0.9000941413,
				"y": -1.4070313979,
				"z": 1.8556711195,
				"element": "H" 
			},
			{
				"x": 1.4345528347,
				"y": -2.2000012817,
				"z": 2.0359970282,
				"element": "H" 
			},
			{
				"x": -3.2178633158,
				"y": 1.7484871495,
				"z": -2.474370247,
				"element": "H" 
			},
			{
				"x": -1.8501431576,
				"y": 2.4423552677,
				"z": -1.5943561092,
				"element": "H" 
			},
			{
				"x": -0.3423616628,
				"y": 0.6681130983,
				"z": -2.4845518005,
				"element": "H" 
			},
			{
				"x": -1.2212398571,
				"y": 1.3854299294,
				"z": -3.8581729386,
				"element": "H" 
			},
			{
				"x": -1.0685960978,
				"y": -1.5229574292,
				"z": -1.7325840266,
				"element": "H" 
			},
			{
				"x": -2.4294171602,
				"y": -2.2702468279,
				"z": -2.6101289668,
				"element": "H" 
			},
			{
				"x": -4.0124948764,
				"y": -0.6512631487,
				"z": -1.6572642487,
				"element": "H" 
			},
			{
				"x": -3.1026906411,
				"y": -1.337204094,
				"z": -0.3053561235,
				"element": "H" 
			},
			{
				"x": 4.4170061717,
				"y": 0.5621419384,
				"z": 0.4752188725,
				"element": "H" 
			}
		],
		 "valence_orbital": [ 
			{
				"type": "occ",
				"energy": -0.29121,
				"method": "rhf"
			},
			{
				"type": "occ",
				"energy": -0.28599,
				"method": "rhf"
			},
			{
				"type": "occ",
				"energy": -0.27573,
				"method": "rhf"
			},
			{
				"type": "occ",
				"energy": -0.2693,
				"method": "rhf"
			},
			{
				"type": "occ",
				"energy": -0.23789,
				"method": "rhf"
			},
			{
				"type": "unocc",
				"energy": -0.06518,
				"method": "rhf"
			},
			{
				"type": "unocc",
				"energy": -0.04175,
				"method": "rhf"
			},
			{
				"type": "unocc",
				"energy": 0.03359,
				"method": "rhf"
			},
			{
				"type": "unocc",
				"energy": 0.04807,
				"method": "rhf"
			},
			{
				"type": "unocc",
				"energy": 0.06139,
				"method": "rhf"
			}
		],
		"cosmo_sigma_profile": { 
			"-0.025": 0.0,
			"-0.024": 0.0,
			"-0.023": 0.0,
			"-0.022": 0.0,
			"-0.021": 0.0,
			"-0.02": 0.0,
			"-0.019": 0.0,
			"-0.018": 0.0,
			"-0.017": 0.0,
			"-0.016": 0.0,
			"-0.015": 0.0,
			"-0.014": 0.0,
			"-0.013": 0.0,
			"-0.012": 0.0,
			"-0.011": 0.248251921337,
			"-0.01": 0.492523926053,
			"-0.009": 1.59838029492,
			"-0.008": 6.06215638966,
			"-0.007": 15.8253709817,
			"-0.006": 25.2698818958,
			"-0.005": 33.6415380858,
			"-0.004": 31.7117482251,
			"-0.003": 26.3054892732,
			"-0.002": 21.3703108974,
			"-0.001": 16.7745778075,
			"0.0": 16.8275708588,
			"0.001": 15.3935417918,
			"0.002": 7.8672831476,
			"0.003": 7.64970054008,
			"0.004": 8.0358987534,
			"0.005": 6.78893440045,
			"0.006": 5.86386247751,
			"0.007": 7.2807397231,
			"0.008": 6.24302851719,
			"0.009": 8.69034171954,
			"0.01": 11.3294804741,
			"0.011": 14.872051734,
			"0.012": 8.94302420585,
			"0.013": 3.52431106694,
			"0.014": 0.184971412251,
			"0.015": 0.0,
			"0.016": 0.0,
			"0.017": 0.0,
			"0.018": 0.0,
			"0.019": 0.0,
			"0.02": 0.0,
			"0.021": 0.0,
			"0.022": 0.0,
			"0.023": 0.0,
			"0.024": 0.0,
			"0.025": 0.0
		}
	}
}
