{
	 "smiles": "O=CC1=CC=CC2=C1NC=C2", 
	 "Tm": 361.15, 
	 "num_atms": 18, 
	 "gaussian": { 
		 "optdone": 1, 
		 "sigma_profile": "yes", 
		 "theory": "DFT", 
		 "functional": "B3LYP", 
		 "basiset": "6-31G**", 
		 "properties": { 
			 "R2extent": 1640.7453, 
			 "electric_dipole_moment_norm": 1.572902915, 
			 "electric_quadrupole_moment_norm": 11.5220676356, 
			 "total_energy": -477.154778053, 
			 "HOMO_LUMO_gap": 0.15389, 
			 "cosmo_polarized_energy": -7.6, 
			 "cosmo_cavitation_energy": 22.02, 
			 "cosmo_dispersion_energy": -16.62, 
			 "cosmo_repulsion_energy": 1.3, 
			 "cosmo_total_nonelectrostatic_energy": 6.7, 
			 "SMD_solvation_energy": 4.59 
		},
		"coords": [
			{
				"x": -2.7348213237,
				"y": -1.1001968125,
				"z": -1.3774007945,
				"element": "O" 
			},
			{
				"x": -1.9777444473,
				"y": -1.9575782589,
				"z": -0.933295042,
				"element": "C" 
			},
			{
				"x": -0.7364794719,
				"y": -1.6677109675,
				"z": -0.2215070719,
				"element": "C" 
			},
			{
				"x": 0.0957672567,
				"y": -2.6829937135,
				"z": 0.267160912,
				"element": "C" 
			},
			{
				"x": 1.2848150656,
				"y": -2.3847730093,
				"z": 0.9486875781,
				"element": "C" 
			},
			{
				"x": 1.6788494278,
				"y": -1.063093265,
				"z": 1.1628934705,
				"element": "C" 
			},
			{
				"x": 0.8761711232,
				"y": -0.0126516075,
				"z": 0.6909225364,
				"element": "C" 
			},
			{
				"x": -0.3259665892,
				"y": -0.3377256973,
				"z": 0.0021260501,
				"element": "C" 
			},
			{
				"x": -0.9335557223,
				"y": 0.8312607285,
				"z": -0.3587588865,
				"element": "N" 
			},
			{
				"x": -0.1623680947,
				"y": 1.8947558353,
				"z": 0.0748526066,
				"element": "C" 
			},
			{
				"x": 0.9512806596,
				"y": 1.423103289,
				"z": 0.7204565869,
				"element": "C" 
			},
			{
				"x": -2.214296994,
				"y": -3.0358340557,
				"z": -1.0592963831,
				"element": "H" 
			},
			{
				"x": -0.1933820047,
				"y": -3.7193850995,
				"z": 0.1105708483,
				"element": "H" 
			},
			{
				"x": 1.9066641002,
				"y": -3.1959057147,
				"z": 1.3143229155,
				"element": "H" 
			},
			{
				"x": 2.6033555748,
				"y": -0.8504090779,
				"z": 1.6929873158,
				"element": "H" 
			},
			{
				"x": -1.8093617963,
				"y": 0.8455213622,
				"z": -0.8629962994,
				"element": "H" 
			},
			{
				"x": -0.475085854,
				"y": 2.9115399199,
				"z": -0.11493267,
				"element": "H" 
			},
			{
				"x": 1.7311590902,
				"y": 2.0251761445,
				"z": 1.163606327,
				"element": "H" 
			}
		],
		 "valence_orbital": [ 
			{
				"type": "occ",
				"energy": -0.33981,
				"method": "rhf"
			},
			{
				"type": "occ",
				"energy": -0.28342,
				"method": "rhf"
			},
			{
				"type": "occ",
				"energy": -0.25726,
				"method": "rhf"
			},
			{
				"type": "occ",
				"energy": -0.23098,
				"method": "rhf"
			},
			{
				"type": "occ",
				"energy": -0.21643,
				"method": "rhf"
			},
			{
				"type": "unocc",
				"energy": -0.06254,
				"method": "rhf"
			},
			{
				"type": "unocc",
				"energy": 0.0137,
				"method": "rhf"
			},
			{
				"type": "unocc",
				"energy": 0.02654,
				"method": "rhf"
			},
			{
				"type": "unocc",
				"energy": 0.07924,
				"method": "rhf"
			},
			{
				"type": "unocc",
				"energy": 0.10071,
				"method": "rhf"
			}
		],
		"cosmo_sigma_profile": { 
			"-0.025": 0.0,
			"-0.024": 0.0,
			"-0.023": 0.0,
			"-0.022": 0.0,
			"-0.021": 0.0,
			"-0.02": 0.0,
			"-0.019": 0.0,
			"-0.018": 0.0,
			"-0.017": 0.0,
			"-0.016": 0.0,
			"-0.015": 0.0,
			"-0.014": 0.0286211070676,
			"-0.013": 0.512505439422,
			"-0.012": 0.789717359821,
			"-0.011": 0.905622045303,
			"-0.01": 0.692143336064,
			"-0.009": 0.953525075944,
			"-0.008": 3.43955538166,
			"-0.007": 6.11458393803,
			"-0.006": 12.3404763293,
			"-0.005": 12.2961550285,
			"-0.004": 12.1266488785,
			"-0.003": 12.6662511699,
			"-0.002": 10.2102601816,
			"-0.001": 8.42004131513,
			"0.0": 12.7018049417,
			"0.001": 10.6668760682,
			"0.002": 10.9050632288,
			"0.003": 15.1077191495,
			"0.004": 16.2217312577,
			"0.005": 12.1816296286,
			"0.006": 5.32401953963,
			"0.007": 1.88462752475,
			"0.008": 1.62870396339,
			"0.009": 2.11820466545,
			"0.01": 1.77559982292,
			"0.011": 1.67599428899,
			"0.012": 2.03986283266,
			"0.013": 1.43093066726,
			"0.014": 0.15170739532,
			"0.015": 0.0,
			"0.016": 0.0,
			"0.017": 0.0,
			"0.018": 0.0,
			"0.019": 0.0,
			"0.02": 0.0,
			"0.021": 0.0,
			"0.022": 0.0,
			"0.023": 0.0,
			"0.024": 0.0,
			"0.025": 0.0
		}
	}
}
