{
	 "smiles": "NC1=NN(C=C1)C1=C(Cl)C=CC=N1", 
	 "Tm": 363.15, 
	 "num_atms": 20, 
	 "gaussian": { 
		 "optdone": 1, 
		 "sigma_profile": "yes", 
		 "theory": "DFT", 
		 "functional": "B3LYP", 
		 "basiset": "6-31G**", 
		 "properties": { 
			 "R2extent": 3161.715, 
			 "electric_dipole_moment_norm": 1.78315967316, 
			 "electric_quadrupole_moment_norm": 16.5897829281, 
			 "total_energy": -988.231377971, 
			 "HOMO_LUMO_gap": 0.16361, 
			 "cosmo_polarized_energy": -15.66, 
			 "cosmo_cavitation_energy": 26.52, 
			 "cosmo_dispersion_energy": -19.84, 
			 "cosmo_repulsion_energy": 1.58, 
			 "cosmo_total_nonelectrostatic_energy": 8.26, 
			 "SMD_solvation_energy": 2.55 
		},
		"coords": [
			{
				"x": -1.3622839173,
				"y": -0.5466494464,
				"z": 4.3264897937,
				"element": "N" 
			},
			{
				"x": -0.7974799398,
				"y": 0.1975627282,
				"z": 3.2950231077,
				"element": "C" 
			},
			{
				"x": -0.8688649905,
				"y": -0.2180344654,
				"z": 2.0383411536,
				"element": "N" 
			},
			{
				"x": -0.1712805135,
				"y": 0.7250168358,
				"z": 1.3231175607,
				"element": "N" 
			},
			{
				"x": 0.3295891117,
				"y": 1.7088179995,
				"z": 2.1371458878,
				"element": "C" 
			},
			{
				"x": -0.0519851999,
				"y": 1.4083728998,
				"z": 3.4190994314,
				"element": "C" 
			},
			{
				"x": 0.0666332965,
				"y": 0.5158144715,
				"z": -0.0503808967,
				"element": "C" 
			},
			{
				"x": 0.0336974825,
				"y": 1.5611931144,
				"z": -0.9974153381,
				"element": "C" 
			},
			{
				"x": -0.4008892712,
				"y": 3.2126781047,
				"z": -0.5863232384,
				"element": "Cl" 
			},
			{
				"x": 0.3085316322,
				"y": 1.2710434442,
				"z": -2.3315167537,
				"element": "C" 
			},
			{
				"x": 0.5742179265,
				"y": -0.0452035443,
				"z": -2.6994200542,
				"element": "C" 
			},
			{
				"x": 0.5434311991,
				"y": -1.0174202932,
				"z": -1.7005719603,
				"element": "C" 
			},
			{
				"x": 0.3110116718,
				"y": -0.743767663,
				"z": -0.4170716248,
				"element": "N" 
			},
			{
				"x": -1.8096178969,
				"y": 0.0135778019,
				"z": 5.0403924207,
				"element": "H" 
			},
			{
				"x": -1.9835133426,
				"y": -1.2663759217,
				"z": 3.9771595062,
				"element": "H" 
			},
			{
				"x": 0.9263493154,
				"y": 2.5182498975,
				"z": 1.7486542472,
				"element": "H" 
			},
			{
				"x": 0.1820196916,
				"y": 1.9582112271,
				"z": 4.3184546766,
				"element": "H" 
			},
			{
				"x": 0.2884507266,
				"y": 2.0698645915,
				"z": -3.064833875,
				"element": "H" 
			},
			{
				"x": 0.7862935201,
				"y": -0.3065201377,
				"z": -3.7306422177,
				"element": "H" 
			},
			{
				"x": 0.7242894979,
				"y": -2.0639316443,
				"z": -1.9373018266,
				"element": "H" 
			}
		],
		 "valence_orbital": [ 
			{
				"type": "occ",
				"energy": -0.28452,
				"method": "rhf"
			},
			{
				"type": "occ",
				"energy": -0.26668,
				"method": "rhf"
			},
			{
				"type": "occ",
				"energy": -0.26615,
				"method": "rhf"
			},
			{
				"type": "occ",
				"energy": -0.23983,
				"method": "rhf"
			},
			{
				"type": "occ",
				"energy": -0.20264,
				"method": "rhf"
			},
			{
				"type": "unocc",
				"energy": -0.03903,
				"method": "rhf"
			},
			{
				"type": "unocc",
				"energy": -0.0308,
				"method": "rhf"
			},
			{
				"type": "unocc",
				"energy": 0.01877,
				"method": "rhf"
			},
			{
				"type": "unocc",
				"energy": 0.03324,
				"method": "rhf"
			},
			{
				"type": "unocc",
				"energy": 0.07898,
				"method": "rhf"
			}
		],
		"cosmo_sigma_profile": { 
			"-0.025": 0.0,
			"-0.024": 0.0,
			"-0.023": 0.0,
			"-0.022": 0.0,
			"-0.021": 0.0,
			"-0.02": 0.0,
			"-0.019": 0.0,
			"-0.018": 0.0,
			"-0.017": 0.0,
			"-0.016": 0.0,
			"-0.015": 0.0,
			"-0.014": 0.0,
			"-0.013": 0.658191982776,
			"-0.012": 2.60102492201,
			"-0.011": 2.22461320345,
			"-0.01": 2.16335284124,
			"-0.009": 4.4852231845,
			"-0.008": 7.60732194123,
			"-0.007": 12.538148971,
			"-0.006": 11.4556561065,
			"-0.005": 10.3551562865,
			"-0.004": 9.52921142532,
			"-0.003": 10.1239236926,
			"-0.002": 11.1934225892,
			"-0.001": 17.3580065511,
			"0.0": 17.6948332799,
			"0.001": 17.6222067792,
			"0.002": 12.4194742095,
			"0.003": 14.9283767436,
			"0.004": 13.2207913188,
			"0.005": 6.57912789858,
			"0.006": 4.63051466711,
			"0.007": 3.88935435895,
			"0.008": 2.61754817029,
			"0.009": 2.20729917312,
			"0.01": 2.41283961619,
			"0.011": 1.98987392628,
			"0.012": 2.68550444139,
			"0.013": 2.13809244747,
			"0.014": 2.01095455826,
			"0.015": 1.56036687749,
			"0.016": 1.76114188288,
			"0.017": 1.23838452918,
			"0.018": 1.09750349967,
			"0.019": 0.332197925709,
			"0.02": 0.0,
			"0.021": 0.0,
			"0.022": 0.0,
			"0.023": 0.0,
			"0.024": 0.0,
			"0.025": 0.0
		}
	}
}
