{
	 "smiles": "FC(F)(F)C1=C(C=C(S1)C(Cl)=O)C1=CC=CC=C1", 
	 "Tm": 322.65, 
	 "num_atms": 24, 
	 "gaussian": { 
		 "optdone": 1, 
		 "sigma_profile": "yes", 
		 "theory": "DFT", 
		 "functional": "B3LYP", 
		 "basiset": "6-31G**", 
		 "properties": { 
			 "R2extent": 6850.8532, 
			 "electric_dipole_moment_norm": 3.85415169655, 
			 "electric_quadrupole_moment_norm": 10.8907029837, 
			 "total_energy": -1694.01770628, 
			 "HOMO_LUMO_gap": 0.15173, 
			 "cosmo_polarized_energy": -6.59, 
			 "cosmo_cavitation_energy": 33.75, 
			 "cosmo_dispersion_energy": -24.24, 
			 "cosmo_repulsion_energy": 1.78, 
			 "cosmo_total_nonelectrostatic_energy": 11.28, 
			 "SMD_solvation_energy": 6.96 
		},
		"coords": [
			{
				"x": -0.8234284067,
				"y": -1.2741755301,
				"z": 2.8797730359,
				"element": "F" 
			},
			{
				"x": 0.4802272605,
				"y": -0.9615030236,
				"z": 2.9662392708,
				"element": "C" 
			},
			{
				"x": 0.7581508164,
				"y": -0.6875326244,
				"z": 4.2595588144,
				"element": "F" 
			},
			{
				"x": 1.1843527293,
				"y": -2.0745024553,
				"z": 2.644354268,
				"element": "F" 
			},
			{
				"x": 0.8403384983,
				"y": 0.2032271456,
				"z": 2.0892014702,
				"element": "C" 
			},
			{
				"x": 0.4327136791,
				"y": 0.4650019845,
				"z": 0.7880264019,
				"element": "C" 
			},
			{
				"x": 0.9921208692,
				"y": 1.6929804396,
				"z": 0.3274239153,
				"element": "C" 
			},
			{
				"x": 1.7964233225,
				"y": 2.3175954939,
				"z": 1.2530800641,
				"element": "C" 
			},
			{
				"x": 1.8872404444,
				"y": 1.4178919187,
				"z": 2.7403801986,
				"element": "S" 
			},
			{
				"x": 2.5520177788,
				"y": 3.5632708616,
				"z": 1.1686491554,
				"element": "C" 
			},
			{
				"x": 2.3701596908,
				"y": 4.4214372748,
				"z": -0.427143627,
				"element": "Cl" 
			},
			{
				"x": 3.2401495128,
				"y": 4.031140129,
				"z": 2.0282824821,
				"element": "O" 
			},
			{
				"x": -0.4614968538,
				"y": -0.3576050543,
				"z": -0.0626302277,
				"element": "C" 
			},
			{
				"x": -1.4517488334,
				"y": 0.276947664,
				"z": -0.8316983053,
				"element": "C" 
			},
			{
				"x": -2.2872715482,
				"y": -0.4635144454,
				"z": -1.6658239636,
				"element": "C" 
			},
			{
				"x": -2.143546596,
				"y": -1.8496251767,
				"z": -1.7494913161,
				"element": "C" 
			},
			{
				"x": -1.1596109989,
				"y": -2.4888247845,
				"z": -0.9932773219,
				"element": "C" 
			},
			{
				"x": -0.3229678569,
				"y": -1.7516519836,
				"z": -0.1568583909,
				"element": "C" 
			},
			{
				"x": 0.8221542478,
				"y": 2.0886697363,
				"z": -0.6653835918,
				"element": "H" 
			},
			{
				"x": -1.5802695821,
				"y": 1.3530702252,
				"z": -0.7586533858,
				"element": "H" 
			},
			{
				"x": -3.0524974114,
				"y": 0.0425847441,
				"z": -2.2469067864,
				"element": "H" 
			},
			{
				"x": -2.7930145126,
				"y": -2.4272484136,
				"z": -2.4005198389,
				"element": "H" 
			},
			{
				"x": -1.036490012,
				"y": -3.5658434501,
				"z": -1.0582872391,
				"element": "H" 
			},
			{
				"x": 0.447093762,
				"y": -2.2566906757,
				"z": 0.4143049179,
				"element": "H" 
			}
		],
		 "valence_orbital": [ 
			{
				"type": "occ",
				"energy": -0.30654,
				"method": "rhf"
			},
			{
				"type": "occ",
				"energy": -0.29993,
				"method": "rhf"
			},
			{
				"type": "occ",
				"energy": -0.28459,
				"method": "rhf"
			},
			{
				"type": "occ",
				"energy": -0.26672,
				"method": "rhf"
			},
			{
				"type": "occ",
				"energy": -0.25157,
				"method": "rhf"
			},
			{
				"type": "unocc",
				"energy": -0.09984,
				"method": "rhf"
			},
			{
				"type": "unocc",
				"energy": -0.04289,
				"method": "rhf"
			},
			{
				"type": "unocc",
				"energy": -0.01843,
				"method": "rhf"
			},
			{
				"type": "unocc",
				"energy": -0.00764,
				"method": "rhf"
			},
			{
				"type": "unocc",
				"energy": 0.00882,
				"method": "rhf"
			}
		],
		"cosmo_sigma_profile": { 
			"-0.025": 0.0,
			"-0.024": 0.0,
			"-0.023": 0.0,
			"-0.022": 0.0,
			"-0.021": 0.0,
			"-0.02": 0.0,
			"-0.019": 0.0,
			"-0.018": 0.0,
			"-0.017": 0.0,
			"-0.016": 0.0,
			"-0.015": 0.0,
			"-0.014": 0.0,
			"-0.013": 0.0,
			"-0.012": 0.0,
			"-0.011": 0.0,
			"-0.01": 0.0,
			"-0.009": 0.145816422813,
			"-0.008": 1.4778329081,
			"-0.007": 3.762181868,
			"-0.006": 9.44714496622,
			"-0.005": 14.9405718964,
			"-0.004": 19.7580551077,
			"-0.003": 16.9828672339,
			"-0.002": 25.4420261158,
			"-0.001": 30.502201505,
			"0.0": 27.265011577,
			"0.001": 28.7926974962,
			"0.002": 36.9651637305,
			"0.003": 20.6217944823,
			"0.004": 19.3761007097,
			"0.005": 10.2685016962,
			"0.006": 1.88230796438,
			"0.007": 2.96287104544,
			"0.008": 4.43306033275,
			"0.009": 1.94400162604,
			"0.01": 0.122091674548,
			"0.011": 0.0,
			"0.012": 0.0,
			"0.013": 0.0,
			"0.014": 0.0,
			"0.015": 0.0,
			"0.016": 0.0,
			"0.017": 0.0,
			"0.018": 0.0,
			"0.019": 0.0,
			"0.02": 0.0,
			"0.021": 0.0,
			"0.022": 0.0,
			"0.023": 0.0,
			"0.024": 0.0,
			"0.025": 0.0
		}
	}
}
