{
	 "smiles": "CC(C)(C)CNC(N)=O", 
	 "Tm": 422.15, 
	 "num_atms": 23, 
	 "gaussian": { 
		 "optdone": 1, 
		 "sigma_profile": "yes", 
		 "theory": "DFT", 
		 "functional": "B3LYP", 
		 "basiset": "6-31G**", 
		 "properties": { 
			 "R2extent": 2184.8534, 
			 "electric_dipole_moment_norm": 3.85906162817, 
			 "electric_quadrupole_moment_norm": 19.9921777521, 
			 "total_energy": -421.843801169, 
			 "HOMO_LUMO_gap": 0.28526, 
			 "cosmo_polarized_energy": -13.03, 
			 "cosmo_cavitation_energy": 24.58, 
			 "cosmo_dispersion_energy": -17.45, 
			 "cosmo_repulsion_energy": 1.43, 
			 "cosmo_total_nonelectrostatic_energy": 8.57, 
			 "SMD_solvation_energy": 5.11 
		},
		"coords": [
			{
				"x": -2.0133830216,
				"y": -0.8720335378,
				"z": -0.794157933,
				"element": "C" 
			},
			{
				"x": -0.5695792039,
				"y": -0.447652791,
				"z": -0.4719655626,
				"element": "C" 
			},
			{
				"x": 0.4141557577,
				"y": -1.2400043545,
				"z": -1.3521261429,
				"element": "C" 
			},
			{
				"x": -0.4044981185,
				"y": 1.0601340692,
				"z": -0.7354059907,
				"element": "C" 
			},
			{
				"x": -0.2361071468,
				"y": -0.7608668933,
				"z": 1.0111239929,
				"element": "C" 
			},
			{
				"x": -1.0435405744,
				"y": -0.0439597773,
				"z": 1.9919533561,
				"element": "N" 
			},
			{
				"x": -1.9222433425,
				"y": -0.588925636,
				"z": 2.9092897461,
				"element": "C" 
			},
			{
				"x": -2.3742872843,
				"y": -1.8743957404,
				"z": 2.6259270744,
				"element": "N" 
			},
			{
				"x": -2.2634794079,
				"y": 0.0180629512,
				"z": 3.9167891572,
				"element": "O" 
			},
			{
				"x": -2.1435567363,
				"y": -1.9567164499,
				"z": -0.6834966945,
				"element": "H" 
			},
			{
				"x": -2.2743751898,
				"y": -0.6208972333,
				"z": -1.8278114685,
				"element": "H" 
			},
			{
				"x": -2.7281731265,
				"y": -0.3648188176,
				"z": -0.1379963333,
				"element": "H" 
			},
			{
				"x": 0.3268246028,
				"y": -2.3189754929,
				"z": -1.1780598403,
				"element": "H" 
			},
			{
				"x": 0.2205558912,
				"y": -1.058266833,
				"z": -2.41465547,
				"element": "H" 
			},
			{
				"x": 1.4520567766,
				"y": -0.9515082033,
				"z": -1.149663296,
				"element": "H" 
			},
			{
				"x": -1.0944385479,
				"y": 1.6459135718,
				"z": -0.1196282726,
				"element": "H" 
			},
			{
				"x": 0.6169937813,
				"y": 1.392194408,
				"z": -0.5139749683,
				"element": "H" 
			},
			{
				"x": -0.6097971217,
				"y": 1.2975270227,
				"z": -1.7847983155,
				"element": "H" 
			},
			{
				"x": -0.3404858122,
				"y": -1.8352910753,
				"z": 1.1949353896,
				"element": "H" 
			},
			{
				"x": 0.8213033033,
				"y": -0.5211114175,
				"z": 1.1873713584,
				"element": "H" 
			},
			{
				"x": -0.6965540885,
				"y": 0.8469914903,
				"z": 2.3168635462,
				"element": "H" 
			},
			{
				"x": -2.5131327787,
				"y": -2.1249322273,
				"z": 1.657264407,
				"element": "H" 
			},
			{
				"x": -3.1374586116,
				"y": -2.1374670327,
				"z": 3.2334222602,
				"element": "H" 
			}
		],
		 "valence_orbital": [ 
			{
				"type": "occ",
				"energy": -0.33419,
				"method": "rhf"
			},
			{
				"type": "occ",
				"energy": -0.33059,
				"method": "rhf"
			},
			{
				"type": "occ",
				"energy": -0.26789,
				"method": "rhf"
			},
			{
				"type": "occ",
				"energy": -0.24954,
				"method": "rhf"
			},
			{
				"type": "occ",
				"energy": -0.23746,
				"method": "rhf"
			},
			{
				"type": "unocc",
				"energy": 0.0478,
				"method": "rhf"
			},
			{
				"type": "unocc",
				"energy": 0.07425,
				"method": "rhf"
			},
			{
				"type": "unocc",
				"energy": 0.09619,
				"method": "rhf"
			},
			{
				"type": "unocc",
				"energy": 0.09957,
				"method": "rhf"
			},
			{
				"type": "unocc",
				"energy": 0.12491,
				"method": "rhf"
			}
		],
		"cosmo_sigma_profile": { 
			"-0.025": 0.0,
			"-0.024": 0.0,
			"-0.023": 0.0,
			"-0.022": 0.0,
			"-0.021": 0.0,
			"-0.02": 0.0,
			"-0.019": 0.0,
			"-0.018": 0.0,
			"-0.017": 0.0,
			"-0.016": 0.0,
			"-0.015": 0.0,
			"-0.014": 0.0,
			"-0.013": 0.799928613874,
			"-0.012": 1.67927328035,
			"-0.011": 2.41517198984,
			"-0.01": 3.46881980507,
			"-0.009": 3.98434835623,
			"-0.008": 3.79011860268,
			"-0.007": 3.52277040231,
			"-0.006": 2.98861300683,
			"-0.005": 4.77250688952,
			"-0.004": 8.22791325195,
			"-0.003": 18.3785585705,
			"-0.002": 25.7101783411,
			"-0.001": 20.8733297135,
			"0.0": 18.1607410215,
			"0.001": 22.9706031763,
			"0.002": 12.3371672779,
			"0.003": 3.19273239632,
			"0.004": 4.00712787322,
			"0.005": 2.68743017454,
			"0.006": 1.71522453535,
			"0.007": 2.13748589134,
			"0.008": 2.05628488429,
			"0.009": 1.45490814351,
			"0.01": 1.48288937458,
			"0.011": 1.41847386236,
			"0.012": 2.64263797127,
			"0.013": 1.36170062811,
			"0.014": 4.15695598881,
			"0.015": 6.2834891065,
			"0.016": 0.673257796318,
			"0.017": 0.0,
			"0.018": 0.0,
			"0.019": 0.0,
			"0.02": 0.0,
			"0.021": 0.0,
			"0.022": 0.0,
			"0.023": 0.0,
			"0.024": 0.0,
			"0.025": 0.0
		}
	}
}
