{
	 "smiles": "CC1=C(C=CC(F)=C1)N1C=CC(=N1)C(O)=O", 
	 "Tm": 471.15, 
	 "num_atms": 25, 
	 "gaussian": { 
		 "optdone": 1, 
		 "sigma_profile": "yes", 
		 "theory": "DFT", 
		 "functional": "B3LYP", 
		 "basiset": "6-31G**", 
		 "properties": { 
			 "R2extent": 4836.0949, 
			 "electric_dipole_moment_norm": 6.6264495252, 
			 "electric_quadrupole_moment_norm": 24.2661655883, 
			 "total_energy": -784.362467376, 
			 "HOMO_LUMO_gap": 0.20269, 
			 "cosmo_polarized_energy": -20.63, 
			 "cosmo_cavitation_energy": 30.72, 
			 "cosmo_dispersion_energy": -21.92, 
			 "cosmo_repulsion_energy": 1.67, 
			 "cosmo_total_nonelectrostatic_energy": 10.47, 
			 "SMD_solvation_energy": 6.59 
		},
		"coords": [
			{
				"x": 0.0603418111,
				"y": 0.3264417009,
				"z": 2.191534839,
				"element": "C" 
			},
			{
				"x": 0.6157547745,
				"y": 0.8282725803,
				"z": 0.8786196052,
				"element": "C" 
			},
			{
				"x": 0.4555718809,
				"y": 0.1454439368,
				"z": -0.3418956599,
				"element": "C" 
			},
			{
				"x": 0.9323946683,
				"y": 0.6803163273,
				"z": -1.5437917037,
				"element": "C" 
			},
			{
				"x": 1.6020966116,
				"y": 1.8982932575,
				"z": -1.558039653,
				"element": "C" 
			},
			{
				"x": 1.7860692111,
				"y": 2.5582301275,
				"z": -0.3485328289,
				"element": "C" 
			},
			{
				"x": 2.4399371561,
				"y": 3.7357657118,
				"z": -0.3354754207,
				"element": "F" 
			},
			{
				"x": 1.3056208942,
				"y": 2.0472345134,
				"z": 0.8493800183,
				"element": "C" 
			},
			{
				"x": -0.2255802259,
				"y": -1.1107103516,
				"z": -0.4106343638,
				"element": "N" 
			},
			{
				"x": -0.0236898525,
				"y": -2.2251526867,
				"z": 0.3574494779,
				"element": "C" 
			},
			{
				"x": -0.8555545062,
				"y": -3.2045938511,
				"z": -0.1365667228,
				"element": "C" 
			},
			{
				"x": -1.5202683144,
				"y": -2.5892042205,
				"z": -1.2306460155,
				"element": "C" 
			},
			{
				"x": -1.1262744577,
				"y": -1.3231439607,
				"z": -1.3900266729,
				"element": "N" 
			},
			{
				"x": -2.5225609195,
				"y": -3.1719205529,
				"z": -2.1671395594,
				"element": "C" 
			},
			{
				"x": -3.1721898154,
				"y": -4.2734319369,
				"z": -1.6917111407,
				"element": "O" 
			},
			{
				"x": -2.7575839865,
				"y": -2.7500163332,
				"z": -3.2703370145,
				"element": "O" 
			},
			{
				"x": -0.8948720237,
				"y": -0.187906826,
				"z": 2.0586191399,
				"element": "H" 
			},
			{
				"x": 0.7445357083,
				"y": -0.3732763706,
				"z": 2.6866550703,
				"element": "H" 
			},
			{
				"x": -0.0951252016,
				"y": 1.1622268563,
				"z": 2.878164531,
				"element": "H" 
			},
			{
				"x": 0.7595869192,
				"y": 0.1311634873,
				"z": -2.4619650465,
				"element": "H" 
			},
			{
				"x": 1.9787169349,
				"y": 2.3307872,
				"z": -2.477837566,
				"element": "H" 
			},
			{
				"x": 1.4535037253,
				"y": 2.617367497,
				"z": 1.7606201848,
				"element": "H" 
			},
			{
				"x": 0.7023126097,
				"y": -2.2398949966,
				"z": 1.1549857397,
				"element": "H" 
			},
			{
				"x": -0.9231700078,
				"y": -4.2250915492,
				"z": 0.2128160446,
				"element": "H" 
			},
			{
				"x": -2.9817735941,
				"y": -4.3897995601,
				"z": -0.7504452823,
				"element": "H" 
			}
		],
		 "valence_orbital": [ 
			{
				"type": "occ",
				"energy": -0.29311,
				"method": "rhf"
			},
			{
				"type": "occ",
				"energy": -0.27399,
				"method": "rhf"
			},
			{
				"type": "occ",
				"energy": -0.2708,
				"method": "rhf"
			},
			{
				"type": "occ",
				"energy": -0.26662,
				"method": "rhf"
			},
			{
				"type": "occ",
				"energy": -0.2454,
				"method": "rhf"
			},
			{
				"type": "unocc",
				"energy": -0.04271,
				"method": "rhf"
			},
			{
				"type": "unocc",
				"energy": -0.0269,
				"method": "rhf"
			},
			{
				"type": "unocc",
				"energy": -0.01232,
				"method": "rhf"
			},
			{
				"type": "unocc",
				"energy": 0.01405,
				"method": "rhf"
			},
			{
				"type": "unocc",
				"energy": 0.06565,
				"method": "rhf"
			}
		],
		"cosmo_sigma_profile": { 
			"-0.025": 0.0,
			"-0.024": 0.0,
			"-0.023": 0.0,
			"-0.022": 0.0,
			"-0.021": 0.0,
			"-0.02": 0.0,
			"-0.019": 0.0875130762123,
			"-0.018": 0.734998612921,
			"-0.017": 0.815866841334,
			"-0.016": 0.877664318143,
			"-0.015": 1.69004533626,
			"-0.014": 1.34408973302,
			"-0.013": 0.558187417522,
			"-0.012": 1.11844693517,
			"-0.011": 1.272236352,
			"-0.01": 2.50304909244,
			"-0.009": 4.10624377456,
			"-0.008": 5.55534632169,
			"-0.007": 9.12681038581,
			"-0.006": 11.0942984911,
			"-0.005": 13.8788806838,
			"-0.004": 13.0311040757,
			"-0.003": 14.4065583419,
			"-0.002": 17.1085820352,
			"-0.001": 18.4011575778,
			"0.0": 17.7908503,
			"0.001": 18.8028462787,
			"0.002": 20.130258664,
			"0.003": 14.9579046582,
			"0.004": 13.3538562603,
			"0.005": 5.21149909733,
			"0.006": 3.27687508792,
			"0.007": 2.93085060402,
			"0.008": 4.17344591011,
			"0.009": 4.25205955614,
			"0.01": 5.60528563329,
			"0.011": 6.62613301735,
			"0.012": 6.3048267292,
			"0.013": 3.64210099775,
			"0.014": 1.68933419258,
			"0.015": 0.0616654045261,
			"0.016": 0.0,
			"0.017": 0.0,
			"0.018": 0.0,
			"0.019": 0.0,
			"0.02": 0.0,
			"0.021": 0.0,
			"0.022": 0.0,
			"0.023": 0.0,
			"0.024": 0.0,
			"0.025": 0.0
		}
	}
}
