{
	 "smiles": "NC1=C(F)C=CC=C1O", 
	 "Tm": 395.15, 
	 "num_atms": 15, 
	 "gaussian": { 
		 "optdone": 1, 
		 "sigma_profile": "yes", 
		 "theory": "DFT", 
		 "functional": "B3LYP", 
		 "basiset": "6-31G**", 
		 "properties": { 
			 "R2extent": 1207.2904, 
			 "electric_dipole_moment_norm": 1.36949585615, 
			 "electric_quadrupole_moment_norm": 9.71986584475, 
			 "total_energy": -462.061801139, 
			 "HOMO_LUMO_gap": 0.21775, 
			 "cosmo_polarized_energy": -7.45, 
			 "cosmo_cavitation_energy": 19.3, 
			 "cosmo_dispersion_energy": -14.54, 
			 "cosmo_repulsion_energy": 1.18, 
			 "cosmo_total_nonelectrostatic_energy": 5.94, 
			 "SMD_solvation_energy": 4.47 
		},
		"coords": [
			{
				"x": -0.1797222539,
				"y": 1.2785375876,
				"z": -2.3580093258,
				"element": "N" 
			},
			{
				"x": -0.3093390934,
				"y": 0.8032649356,
				"z": -1.0079618001,
				"element": "C" 
			},
			{
				"x": -1.4262026701,
				"y": 0.9935100007,
				"z": -0.1978256859,
				"element": "C" 
			},
			{
				"x": -2.4714287215,
				"y": 1.6780593992,
				"z": -0.7189867528,
				"element": "F" 
			},
			{
				"x": -1.4986712286,
				"y": 0.5116968472,
				"z": 1.1027627395,
				"element": "C" 
			},
			{
				"x": -0.3970020509,
				"y": -0.1903595907,
				"z": 1.6023613944,
				"element": "C" 
			},
			{
				"x": 0.7420949368,
				"y": -0.4049356284,
				"z": 0.8283889819,
				"element": "C" 
			},
			{
				"x": 0.7851859007,
				"y": 0.0931310439,
				"z": -0.4789185594,
				"element": "C" 
			},
			{
				"x": 1.8746092639,
				"y": -0.0973479508,
				"z": -1.2558857393,
				"element": "O" 
			},
			{
				"x": -0.91034171,
				"y": 0.8932862402,
				"z": -2.952059863,
				"element": "H" 
			},
			{
				"x": -0.2768254843,
				"y": 2.2904220932,
				"z": -2.3994808456,
				"element": "H" 
			},
			{
				"x": -2.390255103,
				"y": 0.6854978801,
				"z": 1.6940429634,
				"element": "H" 
			},
			{
				"x": -0.4310290036,
				"y": -0.5764656081,
				"z": 2.6167452219,
				"element": "H" 
			},
			{
				"x": 1.5967398563,
				"y": -0.948955448,
				"z": 1.2146968142,
				"element": "H" 
			},
			{
				"x": 1.6497873615,
				"y": 0.3417581984,
				"z": -2.1018695434,
				"element": "H" 
			}
		],
		 "valence_orbital": [ 
			{
				"type": "occ",
				"energy": -0.35341,
				"method": "rhf"
			},
			{
				"type": "occ",
				"energy": -0.32571,
				"method": "rhf"
			},
			{
				"type": "occ",
				"energy": -0.28322,
				"method": "rhf"
			},
			{
				"type": "occ",
				"energy": -0.24487,
				"method": "rhf"
			},
			{
				"type": "occ",
				"energy": -0.21953,
				"method": "rhf"
			},
			{
				"type": "unocc",
				"energy": -0.00178,
				"method": "rhf"
			},
			{
				"type": "unocc",
				"energy": 0.01501,
				"method": "rhf"
			},
			{
				"type": "unocc",
				"energy": 0.06175,
				"method": "rhf"
			},
			{
				"type": "unocc",
				"energy": 0.10203,
				"method": "rhf"
			},
			{
				"type": "unocc",
				"energy": 0.13448,
				"method": "rhf"
			}
		],
		"cosmo_sigma_profile": { 
			"-0.025": 0.0,
			"-0.024": 0.0,
			"-0.023": 0.0,
			"-0.022": 0.0,
			"-0.021": 0.0,
			"-0.02": 0.0,
			"-0.019": 0.0,
			"-0.018": 0.0,
			"-0.017": 0.0,
			"-0.016": 0.0,
			"-0.015": 0.0,
			"-0.014": 0.0,
			"-0.013": 0.0554584041283,
			"-0.012": 1.70744033261,
			"-0.011": 3.29242829928,
			"-0.01": 2.49336670516,
			"-0.009": 2.85817797017,
			"-0.008": 3.67111013311,
			"-0.007": 3.08995013409,
			"-0.006": 7.06137007371,
			"-0.005": 9.16542956559,
			"-0.004": 8.14239034562,
			"-0.003": 7.92807758662,
			"-0.002": 8.01899680235,
			"-0.001": 8.81541568256,
			"0.0": 7.58970837927,
			"0.001": 10.2295280248,
			"0.002": 11.6958561272,
			"0.003": 12.8610009973,
			"0.004": 19.3121274192,
			"0.005": 11.7176316578,
			"0.006": 3.17660929833,
			"0.007": 2.10612596842,
			"0.008": 2.28058923035,
			"0.009": 1.17137031925,
			"0.01": 1.86015658256,
			"0.011": 1.99260558284,
			"0.012": 1.36059821452,
			"0.013": 0.0,
			"0.014": 0.0,
			"0.015": 0.0,
			"0.016": 0.0,
			"0.017": 0.0,
			"0.018": 0.0,
			"0.019": 0.0,
			"0.02": 0.0,
			"0.021": 0.0,
			"0.022": 0.0,
			"0.023": 0.0,
			"0.024": 0.0,
			"0.025": 0.0
		}
	}
}
