{
	 "smiles": "CC1(OC(=O)N(C1=O)C1=CC(Cl)=CC(Cl)=C1)C=C", 
	 "Tm": 381.15, 
	 "num_atms": 27, 
	 "gaussian": { 
		 "optdone": 1, 
		 "sigma_profile": "yes", 
		 "theory": "DFT", 
		 "functional": "B3LYP", 
		 "basiset": "6-31G**", 
		 "properties": { 
			 "R2extent": 6376.8509, 
			 "electric_dipole_moment_norm": 3.24237730994, 
			 "electric_quadrupole_moment_norm": 16.3029399971, 
			 "total_energy": -1663.51657344, 
			 "HOMO_LUMO_gap": 0.21005, 
			 "cosmo_polarized_energy": -10.76, 
			 "cosmo_cavitation_energy": 35.84, 
			 "cosmo_dispersion_energy": -25.23, 
			 "cosmo_repulsion_energy": 1.96, 
			 "cosmo_total_nonelectrostatic_energy": 12.56, 
			 "SMD_solvation_energy": 8.02 
		},
		"coords": [
			{
				"x": -0.3202236106,
				"y": 1.7951671216,
				"z": 3.4764164437,
				"element": "C" 
			},
			{
				"x": 0.4433805937,
				"y": 1.9508861836,
				"z": 2.1586761713,
				"element": "C" 
			},
			{
				"x": 1.5629823982,
				"y": 1.0185038055,
				"z": 2.1546343355,
				"element": "O" 
			},
			{
				"x": 1.4827860075,
				"y": 0.154964758,
				"z": 1.1198113068,
				"element": "C" 
			},
			{
				"x": 2.2945074875,
				"y": -0.698848213,
				"z": 0.8849920538,
				"element": "O" 
			},
			{
				"x": 0.2944458201,
				"y": 0.4262770401,
				"z": 0.3962090478,
				"element": "N" 
			},
			{
				"x": -0.3991443768,
				"y": 1.4903976436,
				"z": 0.9700548828,
				"element": "C" 
			},
			{
				"x": -1.4594446765,
				"y": 1.9562276772,
				"z": 0.6111824118,
				"element": "O" 
			},
			{
				"x": -0.1265186981,
				"y": -0.3129020548,
				"z": -0.7513530402,
				"element": "C" 
			},
			{
				"x": 0.1591210136,
				"y": -1.6798904912,
				"z": -0.8406531354,
				"element": "C" 
			},
			{
				"x": -0.268364445,
				"y": -2.3735621373,
				"z": -1.9696237022,
				"element": "C" 
			},
			{
				"x": 0.0869328116,
				"y": -4.0854417603,
				"z": -2.0978926576,
				"element": "Cl" 
			},
			{
				"x": -0.975662754,
				"y": -1.7539820656,
				"z": -2.9984480861,
				"element": "C" 
			},
			{
				"x": -1.2466341879,
				"y": -0.393109769,
				"z": -2.8709396404,
				"element": "C" 
			},
			{
				"x": -2.1330732709,
				"y": 0.4183652791,
				"z": -4.1476672595,
				"element": "Cl" 
			},
			{
				"x": -0.8310000923,
				"y": 0.3449307984,
				"z": -1.7658276162,
				"element": "C" 
			},
			{
				"x": 1.0115365153,
				"y": 3.345064879,
				"z": 1.9855716472,
				"element": "C" 
			},
			{
				"x": 0.4685892345,
				"y": 4.3301998641,
				"z": 1.2733547884,
				"element": "C" 
			},
			{
				"x": 0.3097338013,
				"y": 2.1120234756,
				"z": 4.3112347949,
				"element": "H" 
			},
			{
				"x": -1.2156029118,
				"y": 2.4198105208,
				"z": 3.446273488,
				"element": "H" 
			},
			{
				"x": -0.6142134352,
				"y": 0.7530676677,
				"z": 3.632206746,
				"element": "H" 
			},
			{
				"x": 0.718058324,
				"y": -2.1830563244,
				"z": -0.0651450688,
				"element": "H" 
			},
			{
				"x": -1.3032925539,
				"y": -2.3110650239,
				"z": -3.8669142166,
				"element": "H" 
			},
			{
				"x": -1.0664657272,
				"y": 1.3962979622,
				"z": -1.6886287974,
				"element": "H" 
			},
			{
				"x": 1.9323824894,
				"y": 3.4992764235,
				"z": 2.5449660945,
				"element": "H" 
			},
			{
				"x": -0.4543942111,
				"y": 4.2005133461,
				"z": 0.7176821629,
				"element": "H" 
			},
			{
				"x": 0.9386784546,
				"y": 5.3078833933,
				"z": 1.238226845,
				"element": "H" 
			}
		],
		 "valence_orbital": [ 
			{
				"type": "occ",
				"energy": -0.31008,
				"method": "rhf"
			},
			{
				"type": "occ",
				"energy": -0.29944,
				"method": "rhf"
			},
			{
				"type": "occ",
				"energy": -0.28154,
				"method": "rhf"
			},
			{
				"type": "occ",
				"energy": -0.2617,
				"method": "rhf"
			},
			{
				"type": "occ",
				"energy": -0.25923,
				"method": "rhf"
			},
			{
				"type": "unocc",
				"energy": -0.04918,
				"method": "rhf"
			},
			{
				"type": "unocc",
				"energy": -0.03249,
				"method": "rhf"
			},
			{
				"type": "unocc",
				"energy": -0.02862,
				"method": "rhf"
			},
			{
				"type": "unocc",
				"energy": -0.01311,
				"method": "rhf"
			},
			{
				"type": "unocc",
				"energy": -0.00043,
				"method": "rhf"
			}
		],
		"cosmo_sigma_profile": { 
			"-0.025": 0.0,
			"-0.024": 0.0,
			"-0.023": 0.0,
			"-0.022": 0.0,
			"-0.021": 0.0,
			"-0.02": 0.0,
			"-0.019": 0.0,
			"-0.018": 0.0,
			"-0.017": 0.0,
			"-0.016": 0.0,
			"-0.015": 0.0,
			"-0.014": 0.0,
			"-0.013": 0.0,
			"-0.012": 0.0,
			"-0.011": 0.201298090808,
			"-0.01": 0.800862854519,
			"-0.009": 1.64012217243,
			"-0.008": 3.92823467104,
			"-0.007": 10.3826500946,
			"-0.006": 15.7234187965,
			"-0.005": 15.9909922294,
			"-0.004": 16.2662247566,
			"-0.003": 19.4574913289,
			"-0.002": 24.2913167729,
			"-0.001": 24.569548818,
			"0.0": 33.4963955486,
			"0.001": 27.7633536091,
			"0.002": 18.0291156157,
			"0.003": 23.0877112053,
			"0.004": 22.6138714114,
			"0.005": 5.20699922977,
			"0.006": 4.07628822993,
			"0.007": 4.67631231772,
			"0.008": 4.91770662613,
			"0.009": 4.89708608425,
			"0.01": 7.00812815017,
			"0.011": 3.15296230463,
			"0.012": 0.184159046711,
			"0.013": 0.0,
			"0.014": 0.0,
			"0.015": 0.0,
			"0.016": 0.0,
			"0.017": 0.0,
			"0.018": 0.0,
			"0.019": 0.0,
			"0.02": 0.0,
			"0.021": 0.0,
			"0.022": 0.0,
			"0.023": 0.0,
			"0.024": 0.0,
			"0.025": 0.0
		}
	}
}
