{
	 "smiles": "COC1=CC=C(NC2=C(N=NC(=S)N2)C2=CC=CC=C2)C=C1", 
	 "Tm": 506.15, 
	 "num_atms": 36, 
	 "gaussian": { 
		 "optdone": 1, 
		 "sigma_profile": "yes", 
		 "theory": "DFT", 
		 "functional": "B3LYP", 
		 "basiset": "6-31G**", 
		 "properties": { 
			 "R2extent": 10110.1944, 
			 "electric_dipole_moment_norm": 10.8131469004, 
			 "electric_quadrupole_moment_norm": 35.8129990126, 
			 "total_energy": -1310.50487277, 
			 "HOMO_LUMO_gap": 0.1246, 
			 "cosmo_polarized_energy": -32.36, 
			 "cosmo_cavitation_energy": 42.65, 
			 "cosmo_dispersion_energy": -30.68, 
			 "cosmo_repulsion_energy": 2.31, 
			 "cosmo_total_nonelectrostatic_energy": 14.28, 
			 "SMD_solvation_energy": 4.95 
		},
		"coords": [
			{
				"x": 3.9014133091,
				"y": 2.5811105618,
				"z": -3.1206352963,
				"element": "C" 
			},
			{
				"x": 2.7989229801,
				"y": 1.8590067607,
				"z": -3.6560916698,
				"element": "O" 
			},
			{
				"x": 1.9399692436,
				"y": 1.2556088003,
				"z": -2.7951587255,
				"element": "C" 
			},
			{
				"x": 0.8623322006,
				"y": 0.5746256223,
				"z": -3.3870764407,
				"element": "C" 
			},
			{
				"x": -0.084336804,
				"y": -0.060745938,
				"z": -2.5979434143,
				"element": "C" 
			},
			{
				"x": 0.0379020218,
				"y": -0.0511192787,
				"z": -1.2000268428,
				"element": "C" 
			},
			{
				"x": -0.9218063491,
				"y": -0.7439291536,
				"z": -0.401544195,
				"element": "N" 
			},
			{
				"x": -1.7205838827,
				"y": -0.1954417567,
				"z": 0.5514538443,
				"element": "C" 
			},
			{
				"x": -2.7044214938,
				"y": -0.9047802716,
				"z": 1.2740581577,
				"element": "C" 
			},
			{
				"x": -3.5362602758,
				"y": -0.2220856713,
				"z": 2.0930400967,
				"element": "N" 
			},
			{
				"x": -3.4343120422,
				"y": 1.0569683663,
				"z": 2.3420586284,
				"element": "N" 
			},
			{
				"x": -2.4355627148,
				"y": 1.7936337786,
				"z": 1.7503805112,
				"element": "C" 
			},
			{
				"x": -2.1560908449,
				"y": 3.4099725157,
				"z": 2.0558494766,
				"element": "S" 
			},
			{
				"x": -1.6264791771,
				"y": 1.1247734387,
				"z": 0.8219317587,
				"element": "N" 
			},
			{
				"x": -2.9578790371,
				"y": -2.3545913934,
				"z": 1.1146358185,
				"element": "C" 
			},
			{
				"x": -1.9167203556,
				"y": -3.2950371515,
				"z": 0.9998654615,
				"element": "C" 
			},
			{
				"x": -2.1969683911,
				"y": -4.6558378577,
				"z": 0.8588426943,
				"element": "C" 
			},
			{
				"x": -3.5177391972,
				"y": -5.1028311682,
				"z": 0.8426491154,
				"element": "C" 
			},
			{
				"x": -4.5588721796,
				"y": -4.1799081876,
				"z": 0.9810444356,
				"element": "C" 
			},
			{
				"x": -4.2847334669,
				"y": -2.821877886,
				"z": 1.114987569,
				"element": "C" 
			},
			{
				"x": 1.1236664259,
				"y": 0.6035594728,
				"z": -0.6117656228,
				"element": "C" 
			},
			{
				"x": 2.0643935289,
				"y": 1.2703448709,
				"z": -1.4000333387,
				"element": "C" 
			},
			{
				"x": 3.5677765477,
				"y": 3.4058045391,
				"z": -2.478996882,
				"element": "H" 
			},
			{
				"x": 4.4378573097,
				"y": 2.9867490511,
				"z": -3.9789149718,
				"element": "H" 
			},
			{
				"x": 4.5726353677,
				"y": 1.9263896705,
				"z": -2.5511137708,
				"element": "H" 
			},
			{
				"x": 0.7823628864,
				"y": 0.573577031,
				"z": -4.4687611744,
				"element": "H" 
			},
			{
				"x": -0.9285788908,
				"y": -0.5634859523,
				"z": -3.0606933088,
				"element": "H" 
			},
			{
				"x": -1.1723847686,
				"y": -1.686408586,
				"z": -0.6720984939,
				"element": "H" 
			},
			{
				"x": -0.9578604702,
				"y": 1.7030220155,
				"z": 0.3229942897,
				"element": "H" 
			},
			{
				"x": -0.8814444347,
				"y": -2.9732849309,
				"z": 1.0727349117,
				"element": "H" 
			},
			{
				"x": -1.3788749667,
				"y": -5.3661260676,
				"z": 0.7801554679,
				"element": "H" 
			},
			{
				"x": -3.7355116396,
				"y": -6.1611221874,
				"z": 0.7336974859,
				"element": "H" 
			},
			{
				"x": -5.5902271716,
				"y": -4.5207477421,
				"z": 0.9808204658,
				"element": "H" 
			},
			{
				"x": -5.0885131612,
				"y": -2.1030952859,
				"z": 1.2309841141,
				"element": "H" 
			},
			{
				"x": 1.2495945349,
				"y": 0.5826577783,
				"z": 0.4667045616,
				"element": "H" 
			},
			{
				"x": 2.890135359,
				"y": 1.7777521927,
				"z": -0.9169347169,
				"element": "H" 
			}
		],
		 "valence_orbital": [ 
			{
				"type": "occ",
				"energy": -0.26036,
				"method": "rhf"
			},
			{
				"type": "occ",
				"energy": -0.2415,
				"method": "rhf"
			},
			{
				"type": "occ",
				"energy": -0.22946,
				"method": "rhf"
			},
			{
				"type": "occ",
				"energy": -0.19989,
				"method": "rhf"
			},
			{
				"type": "occ",
				"energy": -0.19776,
				"method": "rhf"
			},
			{
				"type": "unocc",
				"energy": -0.07316,
				"method": "rhf"
			},
			{
				"type": "unocc",
				"energy": -0.04255,
				"method": "rhf"
			},
			{
				"type": "unocc",
				"energy": -0.03842,
				"method": "rhf"
			},
			{
				"type": "unocc",
				"energy": -0.02186,
				"method": "rhf"
			},
			{
				"type": "unocc",
				"energy": -0.01251,
				"method": "rhf"
			}
		],
		"cosmo_sigma_profile": { 
			"-0.025": 0.0,
			"-0.024": 0.0,
			"-0.023": 0.0,
			"-0.022": 0.0,
			"-0.021": 0.0,
			"-0.02": 0.0,
			"-0.019": 0.0,
			"-0.018": 0.0,
			"-0.017": 0.0,
			"-0.016": 0.0,
			"-0.015": 0.367657634582,
			"-0.014": 0.685279540176,
			"-0.013": 1.4299515331,
			"-0.012": 2.08429730488,
			"-0.011": 1.98174180083,
			"-0.01": 3.20704701941,
			"-0.009": 4.53869288472,
			"-0.008": 5.42767331857,
			"-0.007": 14.6779195409,
			"-0.006": 28.8709964362,
			"-0.005": 32.8935821578,
			"-0.004": 28.148447195,
			"-0.003": 22.1420267835,
			"-0.002": 18.1862050957,
			"-0.001": 16.6379296029,
			"0.0": 14.9693985197,
			"0.001": 15.6420698216,
			"0.002": 19.6212733456,
			"0.003": 22.4336230665,
			"0.004": 20.0293869808,
			"0.005": 10.7256068869,
			"0.006": 5.82110057728,
			"0.007": 6.42782605462,
			"0.008": 7.36354385894,
			"0.009": 8.35680609462,
			"0.01": 9.84879541502,
			"0.011": 6.70576739996,
			"0.012": 4.83907810006,
			"0.013": 4.29712851981,
			"0.014": 2.97111068996,
			"0.015": 2.15481431291,
			"0.016": 1.32348403602,
			"0.017": 0.72080893332,
			"0.018": 0.0,
			"0.019": 0.0,
			"0.02": 0.0,
			"0.021": 0.0,
			"0.022": 0.0,
			"0.023": 0.0,
			"0.024": 0.0,
			"0.025": 0.0
		}
	}
}
