{
	 "smiles": "COC1=CC(CCC(C)=O)=CC=C1O", 
	 "Tm": 313.95, 
	 "num_atms": 28, 
	 "gaussian": { 
		 "optdone": 1, 
		 "sigma_profile": "yes", 
		 "theory": "DFT", 
		 "functional": "B3LYP", 
		 "basiset": "6-31G**", 
		 "properties": { 
			 "R2extent": 3442.4143, 
			 "electric_dipole_moment_norm": 3.28008438001, 
			 "electric_quadrupole_moment_norm": 16.6074067, 
			 "total_energy": -653.26834847, 
			 "HOMO_LUMO_gap": 0.18171, 
			 "cosmo_polarized_energy": -13.06, 
			 "cosmo_cavitation_energy": 31.34, 
			 "cosmo_dispersion_energy": -21.87, 
			 "cosmo_repulsion_energy": 1.74, 
			 "cosmo_total_nonelectrostatic_energy": 11.2, 
			 "SMD_solvation_energy": 6.82 
		},
		"coords": [
			{
				"x": -0.9630604198,
				"y": -2.553017134,
				"z": 0.028516778,
				"element": "C" 
			},
			{
				"x": 0.4301693438,
				"y": -2.2770053246,
				"z": 0.0816391364,
				"element": "O" 
			},
			{
				"x": 0.8257003256,
				"y": -0.9604066264,
				"z": 0.100350872,
				"element": "C" 
			},
			{
				"x": -0.0057495417,
				"y": 0.1398800896,
				"z": -0.0690929125,
				"element": "C" 
			},
			{
				"x": 0.5175402944,
				"y": 1.4444154167,
				"z": -0.0079964783,
				"element": "C" 
			},
			{
				"x": -0.3816722482,
				"y": 2.6540804618,
				"z": -0.1555808729,
				"element": "C" 
			},
			{
				"x": -1.2893767882,
				"y": 2.9491845577,
				"z": 1.0779211026,
				"element": "C" 
			},
			{
				"x": -2.4993982333,
				"y": 2.0273695038,
				"z": 1.1592952545,
				"element": "C" 
			},
			{
				"x": -3.7141817303,
				"y": 2.4260631869,
				"z": 0.3350903416,
				"element": "C" 
			},
			{
				"x": -2.5000143492,
				"y": 1.0182302986,
				"z": 1.8412351073,
				"element": "O" 
			},
			{
				"x": 1.8883094386,
				"y": 1.6033886931,
				"z": 0.2075544191,
				"element": "C" 
			},
			{
				"x": 2.7320021343,
				"y": 0.4988951884,
				"z": 0.3649456148,
				"element": "C" 
			},
			{
				"x": 2.2087871443,
				"y": -0.7869975153,
				"z": 0.3149618127,
				"element": "C" 
			},
			{
				"x": 3.0177673957,
				"y": -1.8714628115,
				"z": 0.4732749611,
				"element": "O" 
			},
			{
				"x": -1.3957130423,
				"y": -2.2359008749,
				"z": -0.9289434119,
				"element": "H" 
			},
			{
				"x": -1.4975483937,
				"y": -2.0568971077,
				"z": 0.8472876188,
				"element": "H" 
			},
			{
				"x": -1.063297552,
				"y": -3.6352039638,
				"z": 0.1253028526,
				"element": "H" 
			},
			{
				"x": -1.0664557798,
				"y": -0.0074613019,
				"z": -0.2294245169,
				"element": "H" 
			},
			{
				"x": 0.2437754609,
				"y": 3.5369342606,
				"z": -0.3231507967,
				"element": "H" 
			},
			{
				"x": -1.0115440489,
				"y": 2.5567363955,
				"z": -1.0500051465,
				"element": "H" 
			},
			{
				"x": -0.7055458159,
				"y": 2.835221546,
				"z": 1.9949684886,
				"element": "H" 
			},
			{
				"x": -1.6379474315,
				"y": 3.9870590358,
				"z": 1.0088954756,
				"element": "H" 
			},
			{
				"x": -4.4366983933,
				"y": 1.6088617041,
				"z": 0.3153146424,
				"element": "H" 
			},
			{
				"x": -4.1848568986,
				"y": 3.3082852523,
				"z": 0.7865513637,
				"element": "H" 
			},
			{
				"x": -3.4341079824,
				"y": 2.7062719721,
				"z": -0.6864005972,
				"element": "H" 
			},
			{
				"x": 2.3116992844,
				"y": 2.6033181126,
				"z": 0.2544729832,
				"element": "H" 
			},
			{
				"x": 3.7973056364,
				"y": 0.6211618322,
				"z": 0.5311416246,
				"element": "H" 
			},
			{
				"x": 2.4481121907,
				"y": -2.6548048475,
				"z": 0.4263742832,
				"element": "H" 
			}
		],
		 "valence_orbital": [ 
			{
				"type": "occ",
				"energy": -0.32589,
				"method": "rhf"
			},
			{
				"type": "occ",
				"energy": -0.30786,
				"method": "rhf"
			},
			{
				"type": "occ",
				"energy": -0.2437,
				"method": "rhf"
			},
			{
				"type": "occ",
				"energy": -0.23053,
				"method": "rhf"
			},
			{
				"type": "occ",
				"energy": -0.19893,
				"method": "rhf"
			},
			{
				"type": "unocc",
				"energy": -0.01722,
				"method": "rhf"
			},
			{
				"type": "unocc",
				"energy": 0.01107,
				"method": "rhf"
			},
			{
				"type": "unocc",
				"energy": 0.02063,
				"method": "rhf"
			},
			{
				"type": "unocc",
				"energy": 0.07857,
				"method": "rhf"
			},
			{
				"type": "unocc",
				"energy": 0.08891,
				"method": "rhf"
			}
		],
		"cosmo_sigma_profile": { 
			"-0.025": 0.0,
			"-0.024": 0.0,
			"-0.023": 0.0,
			"-0.022": 0.0,
			"-0.021": 0.0,
			"-0.02": 0.0,
			"-0.019": 0.0,
			"-0.018": 0.0,
			"-0.017": 0.0,
			"-0.016": 0.0,
			"-0.015": 0.0,
			"-0.014": 0.310570635456,
			"-0.013": 0.687200294849,
			"-0.012": 0.523023286444,
			"-0.011": 0.363202232907,
			"-0.01": 0.292273886731,
			"-0.009": 0.88696383108,
			"-0.008": 0.963073250274,
			"-0.007": 1.52367168634,
			"-0.006": 12.5199273241,
			"-0.005": 23.5136473117,
			"-0.004": 28.5627466165,
			"-0.003": 27.9690615423,
			"-0.002": 21.3920087042,
			"-0.001": 20.5569242452,
			"0.0": 14.0655461767,
			"0.001": 9.12838400338,
			"0.002": 11.2968580189,
			"0.003": 11.6348327256,
			"0.004": 10.9270167013,
			"0.005": 11.9598482717,
			"0.006": 10.8545556823,
			"0.007": 4.30655578587,
			"0.008": 3.03545874579,
			"0.009": 3.3675798637,
			"0.01": 4.42011590929,
			"0.011": 3.68743090991,
			"0.012": 5.08230858124,
			"0.013": 2.42578582065,
			"0.014": 0.527297630542,
			"0.015": 0.0,
			"0.016": 0.0,
			"0.017": 0.0,
			"0.018": 0.0,
			"0.019": 0.0,
			"0.02": 0.0,
			"0.021": 0.0,
			"0.022": 0.0,
			"0.023": 0.0,
			"0.024": 0.0,
			"0.025": 0.0
		}
	}
}
