{
	 "smiles": "CC(C)(CO)N1C(=O)C2=C(C=CC=C2)C1=O", 
	 "Tm": 339.15, 
	 "num_atms": 29, 
	 "gaussian": { 
		 "optdone": 1, 
		 "sigma_profile": "yes", 
		 "theory": "DFT", 
		 "functional": "B3LYP", 
		 "basiset": "6-31G**", 
		 "properties": { 
			 "R2extent": 3683.6125, 
			 "electric_dipole_moment_norm": 3.99438310756, 
			 "electric_quadrupole_moment_norm": 13.5034464819, 
			 "total_energy": -745.567226258, 
			 "HOMO_LUMO_gap": 0.16322, 
			 "cosmo_polarized_energy": -10.85, 
			 "cosmo_cavitation_energy": 31.2, 
			 "cosmo_dispersion_energy": -22.62, 
			 "cosmo_repulsion_energy": 1.71, 
			 "cosmo_total_nonelectrostatic_energy": 10.29, 
			 "SMD_solvation_energy": 6.26 
		},
		"coords": [
			{
				"x": 2.9536981299,
				"y": -0.700851848,
				"z": -1.8205701019,
				"element": "C" 
			},
			{
				"x": 2.3596843584,
				"y": 0.3202748275,
				"z": -0.8373796349,
				"element": "C" 
			},
			{
				"x": 2.3469413986,
				"y": 1.7445351313,
				"z": -1.4264654244,
				"element": "C" 
			},
			{
				"x": 3.2383608986,
				"y": 0.3631785712,
				"z": 0.4403538557,
				"element": "C" 
			},
			{
				"x": 3.5292517605,
				"y": -0.8873068056,
				"z": 1.0154658337,
				"element": "O" 
			},
			{
				"x": 0.9347727499,
				"y": -0.0762460189,
				"z": -0.5332115246,
				"element": "N" 
			},
			{
				"x": -0.0624653425,
				"y": -0.0953960774,
				"z": -1.5474345983,
				"element": "C" 
			},
			{
				"x": 0.1038334864,
				"y": 0.1754277131,
				"z": -2.7202776276,
				"element": "O" 
			},
			{
				"x": -1.3341009941,
				"y": -0.5088514911,
				"z": -0.8939157279,
				"element": "C" 
			},
			{
				"x": -1.0681423193,
				"y": -0.735837687,
				"z": 0.4513422066,
				"element": "C" 
			},
			{
				"x": -2.0594899523,
				"y": -1.1416527818,
				"z": 1.333304232,
				"element": "C" 
			},
			{
				"x": -3.3489190925,
				"y": -1.3100610776,
				"z": 0.8115572223,
				"element": "C" 
			},
			{
				"x": -3.6174042784,
				"y": -1.0803239015,
				"z": -0.5449184938,
				"element": "C" 
			},
			{
				"x": -2.6053650015,
				"y": -0.6742863259,
				"z": -1.4247383754,
				"element": "C" 
			},
			{
				"x": 0.3802443328,
				"y": -0.4833481048,
				"z": 0.6916458389,
				"element": "C" 
			},
			{
				"x": 0.9500493815,
				"y": -0.6197083125,
				"z": 1.7653775829,
				"element": "O" 
			},
			{
				"x": 3.0133431082,
				"y": -1.6820775131,
				"z": -1.3450620747,
				"element": "H" 
			},
			{
				"x": 2.362382057,
				"y": -0.7629654269,
				"z": -2.7349474971,
				"element": "H" 
			},
			{
				"x": 3.9711021052,
				"y": -0.395716614,
				"z": -2.0857332192,
				"element": "H" 
			},
			{
				"x": 3.3712641887,
				"y": 2.0500262858,
				"z": -1.6598332084,
				"element": "H" 
			},
			{
				"x": 1.7592529696,
				"y": 1.7913573742,
				"z": -2.3427228821,
				"element": "H" 
			},
			{
				"x": 1.935484751,
				"y": 2.4589857351,
				"z": -0.7052369316,
				"element": "H" 
			},
			{
				"x": 4.1935368658,
				"y": 0.7929995947,
				"z": 0.1185082986,
				"element": "H" 
			},
			{
				"x": 2.7960368315,
				"y": 1.0565705329,
				"z": 1.1682631453,
				"element": "H" 
			},
			{
				"x": 2.7498802591,
				"y": -1.1002799018,
				"z": 1.5546043541,
				"element": "H" 
			},
			{
				"x": -1.8376046344,
				"y": -1.3184990076,
				"z": 2.3805754996,
				"element": "H" 
			},
			{
				"x": -4.1554455718,
				"y": -1.6248307567,
				"z": 1.4669554912,
				"element": "H" 
			},
			{
				"x": -4.6274300973,
				"y": -1.2212743062,
				"z": -0.917895529,
				"element": "H" 
			},
			{
				"x": -2.7992523486,
				"y": -0.4956418075,
				"z": -2.4773107102,
				"element": "H" 
			}
		],
		 "valence_orbital": [ 
			{
				"type": "occ",
				"energy": -0.28972,
				"method": "rhf"
			},
			{
				"type": "occ",
				"energy": -0.28197,
				"method": "rhf"
			},
			{
				"type": "occ",
				"energy": -0.27683,
				"method": "rhf"
			},
			{
				"type": "occ",
				"energy": -0.27092,
				"method": "rhf"
			},
			{
				"type": "occ",
				"energy": -0.25207,
				"method": "rhf"
			},
			{
				"type": "unocc",
				"energy": -0.08885,
				"method": "rhf"
			},
			{
				"type": "unocc",
				"energy": -0.04616,
				"method": "rhf"
			},
			{
				"type": "unocc",
				"energy": 0.02161,
				"method": "rhf"
			},
			{
				"type": "unocc",
				"energy": 0.06557,
				"method": "rhf"
			},
			{
				"type": "unocc",
				"energy": 0.08248,
				"method": "rhf"
			}
		],
		"cosmo_sigma_profile": { 
			"-0.025": 0.0,
			"-0.024": 0.0,
			"-0.023": 0.0,
			"-0.022": 0.0,
			"-0.021": 0.0,
			"-0.02": 0.0,
			"-0.019": 0.0,
			"-0.018": 0.0,
			"-0.017": 0.0,
			"-0.016": 0.0,
			"-0.015": 0.0,
			"-0.014": 0.0,
			"-0.013": 0.0,
			"-0.012": 0.0,
			"-0.011": 0.0,
			"-0.01": 0.0,
			"-0.009": 0.0,
			"-0.008": 1.67994179973,
			"-0.007": 8.7056100632,
			"-0.006": 9.71359984215,
			"-0.005": 16.7321041181,
			"-0.004": 21.4197277041,
			"-0.003": 20.6981684358,
			"-0.002": 24.8052922088,
			"-0.001": 23.2115202623,
			"0.0": 28.5661739176,
			"0.001": 24.9105385243,
			"0.002": 17.1801388629,
			"0.003": 7.4286945422,
			"0.004": 5.45646961666,
			"0.005": 4.33852983103,
			"0.006": 3.36579424957,
			"0.007": 3.60571819693,
			"0.008": 4.71583309019,
			"0.009": 4.54830721827,
			"0.01": 4.98723781173,
			"0.011": 5.32555606202,
			"0.012": 1.98634763652,
			"0.013": 0.784136262567,
			"0.014": 2.08528439139,
			"0.015": 1.10274566994,
			"0.016": 0.0,
			"0.017": 0.0,
			"0.018": 0.0,
			"0.019": 0.0,
			"0.02": 0.0,
			"0.021": 0.0,
			"0.022": 0.0,
			"0.023": 0.0,
			"0.024": 0.0,
			"0.025": 0.0
		}
	}
}
