{
	 "smiles": "CN1N=NC2=C1C=CC(=C2)C(Cl)=O", 
	 "Tm": 399.15, 
	 "num_atms": 19, 
	 "gaussian": { 
		 "optdone": 1, 
		 "sigma_profile": "yes", 
		 "theory": "DFT", 
		 "functional": "B3LYP", 
		 "basiset": "6-31G**", 
		 "properties": { 
			 "R2extent": 3361.0301, 
			 "electric_dipole_moment_norm": 5.90628954082, 
			 "electric_quadrupole_moment_norm": 14.787711256, 
			 "total_energy": -1008.11137151, 
			 "HOMO_LUMO_gap": 0.18121, 
			 "cosmo_polarized_energy": -13.17, 
			 "cosmo_cavitation_energy": 25.98, 
			 "cosmo_dispersion_energy": -19.35, 
			 "cosmo_repulsion_energy": 1.51, 
			 "cosmo_total_nonelectrostatic_energy": 8.14, 
			 "SMD_solvation_energy": 3.44 
		},
		"coords": [
			{
				"x": -1.7534946698,
				"y": 2.19424849,
				"z": 2.1234770768,
				"element": "C" 
			},
			{
				"x": -1.1886288607,
				"y": 0.9283216939,
				"z": 1.690458534,
				"element": "N" 
			},
			{
				"x": -1.4609916488,
				"y": -0.2127988138,
				"z": 2.4007950817,
				"element": "N" 
			},
			{
				"x": -0.8653223201,
				"y": -1.2139627942,
				"z": 1.8483702721,
				"element": "N" 
			},
			{
				"x": -0.1753986869,
				"y": -0.7538762783,
				"z": 0.7449503176,
				"element": "C" 
			},
			{
				"x": -0.3803738083,
				"y": 0.6387750236,
				"z": 0.6349414283,
				"element": "C" 
			},
			{
				"x": 0.2002821768,
				"y": 1.3949747061,
				"z": -0.3993626367,
				"element": "C" 
			},
			{
				"x": 0.9824991306,
				"y": 0.7056507703,
				"z": -1.3037390713,
				"element": "C" 
			},
			{
				"x": 1.1972377839,
				"y": -0.7026650833,
				"z": -1.2030070208,
				"element": "C" 
			},
			{
				"x": 0.6185817769,
				"y": -1.4445582519,
				"z": -0.1755821455,
				"element": "C" 
			},
			{
				"x": 2.0606948965,
				"y": -1.2917151158,
				"z": -2.2505255537,
				"element": "C" 
			},
			{
				"x": 2.3332803178,
				"y": -3.0966695889,
				"z": -2.1176098431,
				"element": "Cl" 
			},
			{
				"x": 2.5787174853,
				"y": -0.6987102841,
				"z": -3.1499264727,
				"element": "O" 
			},
			{
				"x": -1.4275932359,
				"y": 2.9788312562,
				"z": 1.4398854197,
				"element": "H" 
			},
			{
				"x": -2.844527751,
				"y": 2.1395544873,
				"z": 2.1159602431,
				"element": "H" 
			},
			{
				"x": -1.4114223804,
				"y": 2.4309192168,
				"z": 3.1336127965,
				"element": "H" 
			},
			{
				"x": 0.0484088468,
				"y": 2.4650993779,
				"z": -0.4917742063,
				"element": "H" 
			},
			{
				"x": 1.4586991757,
				"y": 1.2297519437,
				"z": -2.1244643663,
				"element": "H" 
			},
			{
				"x": 0.7716517716,
				"y": -2.5123707556,
				"z": -0.0854598533,
				"element": "H" 
			}
		],
		 "valence_orbital": [ 
			{
				"type": "occ",
				"energy": -0.31975,
				"method": "rhf"
			},
			{
				"type": "occ",
				"energy": -0.29449,
				"method": "rhf"
			},
			{
				"type": "occ",
				"energy": -0.28533,
				"method": "rhf"
			},
			{
				"type": "occ",
				"energy": -0.27526,
				"method": "rhf"
			},
			{
				"type": "occ",
				"energy": -0.26148,
				"method": "rhf"
			},
			{
				"type": "unocc",
				"energy": -0.08027,
				"method": "rhf"
			},
			{
				"type": "unocc",
				"energy": -0.05534,
				"method": "rhf"
			},
			{
				"type": "unocc",
				"energy": 0.01005,
				"method": "rhf"
			},
			{
				"type": "unocc",
				"energy": 0.01768,
				"method": "rhf"
			},
			{
				"type": "unocc",
				"energy": 0.03758,
				"method": "rhf"
			}
		],
		"cosmo_sigma_profile": { 
			"-0.025": 0.0,
			"-0.024": 0.0,
			"-0.023": 0.0,
			"-0.022": 0.0,
			"-0.021": 0.0,
			"-0.02": 0.0,
			"-0.019": 0.0,
			"-0.018": 0.0,
			"-0.017": 0.0,
			"-0.016": 0.0,
			"-0.015": 0.0,
			"-0.014": 0.0,
			"-0.013": 0.0,
			"-0.012": 0.0,
			"-0.011": 0.0,
			"-0.01": 0.951948130261,
			"-0.009": 3.54376793429,
			"-0.008": 5.60047007916,
			"-0.007": 10.4189581218,
			"-0.006": 11.7811454825,
			"-0.005": 11.720373384,
			"-0.004": 17.7374086625,
			"-0.003": 13.7270775915,
			"-0.002": 14.1470206505,
			"-0.001": 17.1960900713,
			"0.0": 18.642389672,
			"0.001": 15.0860674396,
			"0.002": 11.3848781783,
			"0.003": 7.34462984396,
			"0.004": 11.0110746424,
			"0.005": 7.9919409119,
			"0.006": 5.63350538681,
			"0.007": 4.27778334954,
			"0.008": 6.02154067181,
			"0.009": 6.52281070164,
			"0.01": 4.04608726804,
			"0.011": 2.81116504673,
			"0.012": 1.77942848311,
			"0.013": 1.41660706422,
			"0.014": 1.00539499293,
			"0.015": 0.238556642282,
			"0.016": 0.0,
			"0.017": 0.0,
			"0.018": 0.0,
			"0.019": 0.0,
			"0.02": 0.0,
			"0.021": 0.0,
			"0.022": 0.0,
			"0.023": 0.0,
			"0.024": 0.0,
			"0.025": 0.0
		}
	}
}
