{
	 "smiles": "CC(=O)NCC1=CC=C(S1)C(C)=O", 
	 "Tm": 403.15, 
	 "num_atms": 24, 
	 "gaussian": { 
		 "optdone": 1, 
		 "sigma_profile": "yes", 
		 "theory": "DFT", 
		 "functional": "B3LYP", 
		 "basiset": "6-31G**", 
		 "properties": { 
			 "R2extent": 3525.1826, 
			 "electric_dipole_moment_norm": 3.20567753525, 
			 "electric_quadrupole_moment_norm": 23.0300405857, 
			 "total_energy": -952.977568184, 
			 "HOMO_LUMO_gap": 0.17717, 
			 "cosmo_polarized_energy": -17.85, 
			 "cosmo_cavitation_energy": 30.1, 
			 "cosmo_dispersion_energy": -21.36, 
			 "cosmo_repulsion_energy": 1.68, 
			 "cosmo_total_nonelectrostatic_energy": 10.42, 
			 "SMD_solvation_energy": 6.18 
		},
		"coords": [
			{
				"x": -2.2470570195,
				"y": 2.647568515,
				"z": -0.0218353592,
				"element": "C" 
			},
			{
				"x": -1.4326669359,
				"y": 2.8533572303,
				"z": 1.2440291212,
				"element": "C" 
			},
			{
				"x": -1.9430604454,
				"y": 3.0601220514,
				"z": 2.3345595366,
				"element": "O" 
			},
			{
				"x": -0.059979771,
				"y": 2.8202296362,
				"z": 1.1077743858,
				"element": "N" 
			},
			{
				"x": 0.7092831758,
				"y": 2.5414801772,
				"z": -0.0932408683,
				"element": "C" 
			},
			{
				"x": 0.8062291546,
				"y": 1.0838475604,
				"z": -0.4840138599,
				"element": "C" 
			},
			{
				"x": 0.8204681342,
				"y": 0.5581913901,
				"z": -1.7554050545,
				"element": "C" 
			},
			{
				"x": 0.9995150791,
				"y": -0.8487381781,
				"z": -1.7782749995,
				"element": "C" 
			},
			{
				"x": 1.1168129592,
				"y": -1.4022016416,
				"z": -0.5232079493,
				"element": "C" 
			},
			{
				"x": 1.0037251297,
				"y": -0.1639816755,
				"z": 0.7115027335,
				"element": "S" 
			},
			{
				"x": 1.2880376865,
				"y": -2.8460081705,
				"z": -0.2386771186,
				"element": "C" 
			},
			{
				"x": 1.370097748,
				"y": -3.2949297331,
				"z": 1.208804129,
				"element": "C" 
			},
			{
				"x": 1.3604538576,
				"y": -3.6420669999,
				"z": -1.1637188431,
				"element": "O" 
			},
			{
				"x": -1.9775665903,
				"y": 1.7180368351,
				"z": -0.5326219966,
				"element": "H" 
			},
			{
				"x": -3.2996202109,
				"y": 2.6207318861,
				"z": 0.2577199358,
				"element": "H" 
			},
			{
				"x": -2.0885017884,
				"y": 3.4728441479,
				"z": -0.7256320477,
				"element": "H" 
			},
			{
				"x": 0.4352065143,
				"y": 2.9664212774,
				"z": 1.9770062161,
				"element": "H" 
			},
			{
				"x": 1.7158215702,
				"y": 2.9435050837,
				"z": 0.0721311247,
				"element": "H" 
			},
			{
				"x": 0.2994210935,
				"y": 3.0936209617,
				"z": -0.946427659,
				"element": "H" 
			},
			{
				"x": 0.7072773494,
				"y": 1.1692084419,
				"z": -2.6449321391,
				"element": "H" 
			},
			{
				"x": 1.0328426551,
				"y": -1.4607792329,
				"z": -2.6715387155,
				"element": "H" 
			},
			{
				"x": 0.4604190984,
				"y": -3.0190869448,
				"z": 1.7542603568,
				"element": "H" 
			},
			{
				"x": 2.2134707259,
				"y": -2.8154462845,
				"z": 1.7187294955,
				"element": "H" 
			},
			{
				"x": 1.4966708302,
				"y": -4.3775263335,
				"z": 1.2377095753,
				"element": "H" 
			}
		],
		 "valence_orbital": [ 
			{
				"type": "occ",
				"energy": -0.27111,
				"method": "rhf"
			},
			{
				"type": "occ",
				"energy": -0.26278,
				"method": "rhf"
			},
			{
				"type": "occ",
				"energy": -0.25439,
				"method": "rhf"
			},
			{
				"type": "occ",
				"energy": -0.252,
				"method": "rhf"
			},
			{
				"type": "occ",
				"energy": -0.24466,
				"method": "rhf"
			},
			{
				"type": "unocc",
				"energy": -0.06749,
				"method": "rhf"
			},
			{
				"type": "unocc",
				"energy": 0.01247,
				"method": "rhf"
			},
			{
				"type": "unocc",
				"energy": 0.01358,
				"method": "rhf"
			},
			{
				"type": "unocc",
				"energy": 0.02522,
				"method": "rhf"
			},
			{
				"type": "unocc",
				"energy": 0.06196,
				"method": "rhf"
			}
		],
		"cosmo_sigma_profile": { 
			"-0.025": 0.0,
			"-0.024": 0.0,
			"-0.023": 0.0,
			"-0.022": 0.0,
			"-0.021": 0.0,
			"-0.02": 0.0,
			"-0.019": 0.0,
			"-0.018": 0.0,
			"-0.017": 0.0,
			"-0.016": 0.0,
			"-0.015": 0.0,
			"-0.014": 0.486875778001,
			"-0.013": 1.42013451719,
			"-0.012": 1.11061118655,
			"-0.011": 1.55315274598,
			"-0.01": 0.916328633975,
			"-0.009": 1.1263757372,
			"-0.008": 4.22034972324,
			"-0.007": 11.6425182858,
			"-0.006": 15.3109741425,
			"-0.005": 16.933263629,
			"-0.004": 18.3018216396,
			"-0.003": 19.0437213006,
			"-0.002": 20.052250032,
			"-0.001": 20.9164663811,
			"0.0": 14.20537273,
			"0.001": 12.9926919771,
			"0.002": 16.6788419666,
			"0.003": 15.6729894918,
			"0.004": 5.86569879766,
			"0.005": 2.80303227999,
			"0.006": 4.28004523095,
			"0.007": 1.64115831133,
			"0.008": 3.35339277481,
			"0.009": 2.33333617437,
			"0.01": 3.49266447117,
			"0.011": 4.64282308376,
			"0.012": 5.93454110745,
			"0.013": 5.97270635846,
			"0.014": 5.83743436231,
			"0.015": 1.52898581683,
			"0.016": 0.0340126088109,
			"0.017": 0.0,
			"0.018": 0.0,
			"0.019": 0.0,
			"0.02": 0.0,
			"0.021": 0.0,
			"0.022": 0.0,
			"0.023": 0.0,
			"0.024": 0.0,
			"0.025": 0.0
		}
	}
}
