{
	 "smiles": "OCC1=CC(CN2CCCCC2)=CC=C1", 
	 "Tm": 341.15, 
	 "num_atms": 34, 
	 "gaussian": { 
		 "optdone": 1, 
		 "sigma_profile": "yes", 
		 "theory": "DFT", 
		 "functional": "B3LYP", 
		 "basiset": "6-31G**", 
		 "properties": { 
			 "R2extent": 4444.8388, 
			 "electric_dipole_moment_norm": 1.62650582538, 
			 "electric_quadrupole_moment_norm": 8.73901023229, 
			 "total_energy": -636.79516808, 
			 "HOMO_LUMO_gap": 0.19424, 
			 "cosmo_polarized_energy": -8.28, 
			 "cosmo_cavitation_energy": 34.32, 
			 "cosmo_dispersion_energy": -24.39, 
			 "cosmo_repulsion_energy": 1.93, 
			 "cosmo_total_nonelectrostatic_energy": 11.87, 
			 "SMD_solvation_energy": 3.07 
		},
		"coords": [
			{
				"x": 2.5855948519,
				"y": -4.0568138927,
				"z": -0.3890049926,
				"element": "O" 
			},
			{
				"x": 3.2987271866,
				"y": -3.5426660592,
				"z": 0.7269698277,
				"element": "C" 
			},
			{
				"x": 2.7677219237,
				"y": -2.2152482186,
				"z": 1.236081159,
				"element": "C" 
			},
			{
				"x": 1.4108927176,
				"y": -1.900324422,
				"z": 1.1050922245,
				"element": "C" 
			},
			{
				"x": 0.8873739319,
				"y": -0.6948167886,
				"z": 1.5912622734,
				"element": "C" 
			},
			{
				"x": -0.5869947363,
				"y": -0.3525643941,
				"z": 1.4001583726,
				"element": "C" 
			},
			{
				"x": -0.9605117778,
				"y": 0.2821675852,
				"z": 0.1348511743,
				"element": "N" 
			},
			{
				"x": -0.4084259629,
				"y": 1.6280783992,
				"z": -0.0473447999,
				"element": "C" 
			},
			{
				"x": -0.7144648554,
				"y": 2.1667789883,
				"z": -1.4624964017,
				"element": "C" 
			},
			{
				"x": -1.9805509963,
				"y": 1.517267281,
				"z": -2.0289971516,
				"element": "C" 
			},
			{
				"x": -1.7714299126,
				"y": -0.0058609303,
				"z": -2.1693214112,
				"element": "C" 
			},
			{
				"x": -0.8370403968,
				"y": -0.5476997488,
				"z": -1.0604701138,
				"element": "C" 
			},
			{
				"x": 1.756214187,
				"y": 0.1963272883,
				"z": 2.236061072,
				"element": "C" 
			},
			{
				"x": 3.1124290395,
				"y": -0.1044365593,
				"z": 2.3741223606,
				"element": "C" 
			},
			{
				"x": 3.6187880116,
				"y": -1.3016077949,
				"z": 1.8690759501,
				"element": "C" 
			},
			{
				"x": 2.6084176924,
				"y": -3.3820621385,
				"z": -1.0809167798,
				"element": "H" 
			},
			{
				"x": 3.2008661009,
				"y": -4.3098978853,
				"z": 1.5048184796,
				"element": "H" 
			},
			{
				"x": 4.3750527319,
				"y": -3.4486701654,
				"z": 0.5106658619,
				"element": "H" 
			},
			{
				"x": 0.7582126037,
				"y": -2.6189745284,
				"z": 0.6169787159,
				"element": "H" 
			},
			{
				"x": -1.1838365558,
				"y": -1.2677989883,
				"z": 1.4953155951,
				"element": "H" 
			},
			{
				"x": -0.9025289968,
				"y": 0.3217582591,
				"z": 2.2070140422,
				"element": "H" 
			},
			{
				"x": -0.8676239282,
				"y": 2.2771811349,
				"z": 0.7118323983,
				"element": "H" 
			},
			{
				"x": 0.6824379362,
				"y": 1.6623032698,
				"z": 0.1233044142,
				"element": "H" 
			},
			{
				"x": -0.8068405315,
				"y": 3.2576583511,
				"z": -1.4256603531,
				"element": "H" 
			},
			{
				"x": 0.1278549829,
				"y": 1.95207311,
				"z": -2.1326718065,
				"element": "H" 
			},
			{
				"x": -2.818385607,
				"y": 1.7136627261,
				"z": -1.3508780403,
				"element": "H" 
			},
			{
				"x": -2.2444520667,
				"y": 1.9574280473,
				"z": -2.9971339091,
				"element": "H" 
			},
			{
				"x": -1.336214553,
				"y": -0.2413198847,
				"z": -3.1483935466,
				"element": "H" 
			},
			{
				"x": -2.7403309398,
				"y": -0.5147123965,
				"z": -2.1236387409,
				"element": "H" 
			},
			{
				"x": 0.2045482389,
				"y": -0.603149737,
				"z": -1.4296435664,
				"element": "H" 
			},
			{
				"x": -1.1212529269,
				"y": -1.5727737539,
				"z": -0.7997909461,
				"element": "H" 
			},
			{
				"x": 1.3658703392,
				"y": 1.1277501539,
				"z": 2.639119331,
				"element": "H" 
			},
			{
				"x": 3.7756956488,
				"y": 0.5974261177,
				"z": 2.8723170309,
				"element": "H" 
			},
			{
				"x": 4.6774866188,
				"y": -1.5300624253,
				"z": 1.9701222764,
				"element": "H" 
			}
		],
		 "valence_orbital": [ 
			{
				"type": "occ",
				"energy": -0.30635,
				"method": "rhf"
			},
			{
				"type": "occ",
				"energy": -0.27646,
				"method": "rhf"
			},
			{
				"type": "occ",
				"energy": -0.24534,
				"method": "rhf"
			},
			{
				"type": "occ",
				"energy": -0.23978,
				"method": "rhf"
			},
			{
				"type": "occ",
				"energy": -0.19837,
				"method": "rhf"
			},
			{
				"type": "unocc",
				"energy": -0.00413,
				"method": "rhf"
			},
			{
				"type": "unocc",
				"energy": -0.00318,
				"method": "rhf"
			},
			{
				"type": "unocc",
				"energy": 0.07576,
				"method": "rhf"
			},
			{
				"type": "unocc",
				"energy": 0.09102,
				"method": "rhf"
			},
			{
				"type": "unocc",
				"energy": 0.10192,
				"method": "rhf"
			}
		],
		"cosmo_sigma_profile": { 
			"-0.025": 0.0,
			"-0.024": 0.0,
			"-0.023": 0.0,
			"-0.022": 0.0,
			"-0.021": 0.0,
			"-0.02": 0.0,
			"-0.019": 0.0,
			"-0.018": 0.0,
			"-0.017": 0.0,
			"-0.016": 0.0,
			"-0.015": 0.604471931372,
			"-0.014": 0.859146450289,
			"-0.013": 1.00494308301,
			"-0.012": 0.747140416395,
			"-0.011": 0.853959029313,
			"-0.01": 0.810719687525,
			"-0.009": 0.41270108081,
			"-0.008": 0.671966467624,
			"-0.007": 1.27979178912,
			"-0.006": 2.04300638947,
			"-0.005": 10.1773017054,
			"-0.004": 20.3297515129,
			"-0.003": 24.0848832341,
			"-0.002": 32.3582095533,
			"-0.001": 37.5467882894,
			"0.0": 39.3102526397,
			"0.001": 26.2246605553,
			"0.002": 13.3751249978,
			"0.003": 10.1393988466,
			"0.004": 8.79222045714,
			"0.005": 8.41518558965,
			"0.006": 8.50222485443,
			"0.007": 3.64632667881,
			"0.008": 2.18096373023,
			"0.009": 1.86062024628,
			"0.01": 2.20869268529,
			"0.011": 1.45924056324,
			"0.012": 1.80430986177,
			"0.013": 2.17357503161,
			"0.014": 2.41955469917,
			"0.015": 0.31311387301,
			"0.016": 0.0,
			"0.017": 0.0,
			"0.018": 0.0,
			"0.019": 0.0,
			"0.02": 0.0,
			"0.021": 0.0,
			"0.022": 0.0,
			"0.023": 0.0,
			"0.024": 0.0,
			"0.025": 0.0
		}
	}
}
