{
	 "smiles": "NNC(=O)NCC(F)(F)F", 
	 "Tm": 342.15, 
	 "num_atms": 16, 
	 "gaussian": { 
		 "optdone": 1, 
		 "sigma_profile": "yes", 
		 "theory": "DFT", 
		 "functional": "B3LYP", 
		 "basiset": "6-31G**", 
		 "properties": { 
			 "R2extent": 1971.2688, 
			 "electric_dipole_moment_norm": 4.45579446676, 
			 "electric_quadrupole_moment_norm": 19.8769264098, 
			 "total_energy": -656.933269063, 
			 "HOMO_LUMO_gap": 0.30509, 
			 "cosmo_polarized_energy": -14.86, 
			 "cosmo_cavitation_energy": 21.87, 
			 "cosmo_dispersion_energy": -15.48, 
			 "cosmo_repulsion_energy": 1.26, 
			 "cosmo_total_nonelectrostatic_energy": 7.65, 
			 "SMD_solvation_energy": 5.84 
		},
		"coords": [
			{
				"x": 0.8981049295,
				"y": 2.8692793503,
				"z": -2.1436698045,
				"element": "N" 
			},
			{
				"x": 1.9620358847,
				"y": 1.972669263,
				"z": -2.339816699,
				"element": "N" 
			},
			{
				"x": 2.0532001483,
				"y": 0.8218864787,
				"z": -1.5618852754,
				"element": "C" 
			},
			{
				"x": 2.8008218945,
				"y": -0.0947504749,
				"z": -1.8785548793,
				"element": "O" 
			},
			{
				"x": 1.2986163328,
				"y": 0.8565034958,
				"z": -0.4145350579,
				"element": "N" 
			},
			{
				"x": 1.1713626459,
				"y": -0.3145446811,
				"z": 0.4085814767,
				"element": "C" 
			},
			{
				"x": -0.1716845172,
				"y": -1.003218014,
				"z": 0.2259536405,
				"element": "C" 
			},
			{
				"x": -1.1916812726,
				"y": -0.1602277042,
				"z": 0.5247512306,
				"element": "F" 
			},
			{
				"x": -0.2738393271,
				"y": -2.0715402301,
				"z": 1.0435598053,
				"element": "F" 
			},
			{
				"x": -0.3605525662,
				"y": -1.4246824285,
				"z": -1.0381504009,
				"element": "F" 
			},
			{
				"x": 0.1927805639,
				"y": 2.7758028631,
				"z": -2.872386178,
				"element": "H" 
			},
			{
				"x": 1.2500131091,
				"y": 3.8221849695,
				"z": -2.1451886471,
				"element": "H" 
			},
			{
				"x": 2.3637051318,
				"y": 1.854869301,
				"z": -3.2630961104,
				"element": "H" 
			},
			{
				"x": 0.6388118807,
				"y": 1.6187940219,
				"z": -0.33088992,
				"element": "H" 
			},
			{
				"x": 1.9622040876,
				"y": -1.0122567035,
				"z": 0.125935503,
				"element": "H" 
			},
			{
				"x": 1.2733010744,
				"y": -0.0722695069,
				"z": 1.4719913162,
				"element": "H" 
			}
		],
		 "valence_orbital": [ 
			{
				"type": "occ",
				"energy": -0.37709,
				"method": "rhf"
			},
			{
				"type": "occ",
				"energy": -0.29761,
				"method": "rhf"
			},
			{
				"type": "occ",
				"energy": -0.26724,
				"method": "rhf"
			},
			{
				"type": "occ",
				"energy": -0.25716,
				"method": "rhf"
			},
			{
				"type": "occ",
				"energy": -0.25365,
				"method": "rhf"
			},
			{
				"type": "unocc",
				"energy": 0.05144,
				"method": "rhf"
			},
			{
				"type": "unocc",
				"energy": 0.06265,
				"method": "rhf"
			},
			{
				"type": "unocc",
				"energy": 0.10173,
				"method": "rhf"
			},
			{
				"type": "unocc",
				"energy": 0.11351,
				"method": "rhf"
			},
			{
				"type": "unocc",
				"energy": 0.12985,
				"method": "rhf"
			}
		],
		"cosmo_sigma_profile": { 
			"-0.025": 0.0,
			"-0.024": 0.0,
			"-0.023": 0.0,
			"-0.022": 0.0,
			"-0.021": 0.0,
			"-0.02": 0.0,
			"-0.019": 0.0,
			"-0.018": 0.0,
			"-0.017": 0.0,
			"-0.016": 0.0,
			"-0.015": 0.0,
			"-0.014": 0.151156045882,
			"-0.013": 1.27555909551,
			"-0.012": 4.32846520729,
			"-0.011": 4.87629858318,
			"-0.01": 5.72932123613,
			"-0.009": 4.52525676232,
			"-0.008": 5.39720611589,
			"-0.007": 7.4479044102,
			"-0.006": 6.23888859414,
			"-0.005": 6.12864053116,
			"-0.004": 6.87258700758,
			"-0.003": 6.17679368951,
			"-0.002": 4.76434822549,
			"-0.001": 5.57520656026,
			"0.0": 6.91286504605,
			"0.001": 9.62637603615,
			"0.002": 16.9394520105,
			"0.003": 34.3977375241,
			"0.004": 7.32221098095,
			"0.005": 4.39101033742,
			"0.006": 3.20756525865,
			"0.007": 2.8574592764,
			"0.008": 2.3569834667,
			"0.009": 1.17961340576,
			"0.01": 0.664422067854,
			"0.011": 1.53623749524,
			"0.012": 1.90402250911,
			"0.013": 2.10809847463,
			"0.014": 6.0397761497,
			"0.015": 1.32236369227,
			"0.016": 0.0,
			"0.017": 0.0,
			"0.018": 0.0,
			"0.019": 0.0,
			"0.02": 0.0,
			"0.021": 0.0,
			"0.022": 0.0,
			"0.023": 0.0,
			"0.024": 0.0,
			"0.025": 0.0
		}
	}
}
