{
	 "smiles": "OS(=O)(=O)C1=CC=CC=C1", 
	 "Tm": 338.15, 
	 "num_atms": 16, 
	 "gaussian": { 
		 "optdone": 1, 
		 "sigma_profile": "yes", 
		 "theory": "DFT", 
		 "functional": "B3LYP", 
		 "basiset": "6-31G**", 
		 "properties": { 
			 "R2extent": 2225.6434, 
			 "electric_dipole_moment_norm": 4.22397776983, 
			 "electric_quadrupole_moment_norm": 5.96108707536, 
			 "total_energy": -856.041875255, 
			 "HOMO_LUMO_gap": 0.22986, 
			 "cosmo_polarized_energy": -13.13, 
			 "cosmo_cavitation_energy": 21.75, 
			 "cosmo_dispersion_energy": -16.9, 
			 "cosmo_repulsion_energy": 1.32, 
			 "cosmo_total_nonelectrostatic_energy": 6.17, 
			 "SMD_solvation_energy": 2.9 
		},
		"coords": [
			{
				"x": -2.8168754797,
				"y": -0.8689415099,
				"z": -1.769844207,
				"element": "O" 
			},
			{
				"x": -1.3235210896,
				"y": -1.1867526078,
				"z": -1.1491513392,
				"element": "S" 
			},
			{
				"x": -1.3230690793,
				"y": -2.6073500178,
				"z": -0.7950029174,
				"element": "O" 
			},
			{
				"x": -0.3389337452,
				"y": -0.626236502,
				"z": -2.0637584015,
				"element": "O" 
			},
			{
				"x": -1.3600139376,
				"y": -0.1949056045,
				"z": 0.3339397297,
				"element": "C" 
			},
			{
				"x": -1.7816590442,
				"y": -0.7792338,
				"z": 1.5296278365,
				"element": "C" 
			},
			{
				"x": -1.8105566397,
				"y": 0.0030136631,
				"z": 2.6837898815,
				"element": "C" 
			},
			{
				"x": -1.4236556318,
				"y": 1.3444515332,
				"z": 2.631347208,
				"element": "C" 
			},
			{
				"x": -0.9981443072,
				"y": 1.9112947028,
				"z": 1.427416374,
				"element": "C" 
			},
			{
				"x": -0.9603255965,
				"y": 1.140973902,
				"z": 0.2654848087,
				"element": "C" 
			},
			{
				"x": -3.233267274,
				"y": -1.7337328272,
				"z": -1.9250214544,
				"element": "H" 
			},
			{
				"x": -2.0626915803,
				"y": -1.8263656654,
				"z": 1.5507753654,
				"element": "H" 
			},
			{
				"x": -2.1300818399,
				"y": -0.4363403608,
				"z": 3.6237007896,
				"element": "H" 
			},
			{
				"x": -1.4475240151,
				"y": 1.948500887,
				"z": 3.5335245935,
				"element": "H" 
			},
			{
				"x": -0.6899311043,
				"y": 2.9516346497,
				"z": 1.3930827965,
				"element": "H" 
			},
			{
				"x": -0.6174496355,
				"y": 1.5559895576,
				"z": -0.675711064,
				"element": "H" 
			}
		],
		 "valence_orbital": [ 
			{
				"type": "occ",
				"energy": -0.32593,
				"method": "rhf"
			},
			{
				"type": "occ",
				"energy": -0.32478,
				"method": "rhf"
			},
			{
				"type": "occ",
				"energy": -0.30694,
				"method": "rhf"
			},
			{
				"type": "occ",
				"energy": -0.27927,
				"method": "rhf"
			},
			{
				"type": "occ",
				"energy": -0.27718,
				"method": "rhf"
			},
			{
				"type": "unocc",
				"energy": -0.04732,
				"method": "rhf"
			},
			{
				"type": "unocc",
				"energy": -0.0271,
				"method": "rhf"
			},
			{
				"type": "unocc",
				"energy": 0.03854,
				"method": "rhf"
			},
			{
				"type": "unocc",
				"energy": 0.06937,
				"method": "rhf"
			},
			{
				"type": "unocc",
				"energy": 0.08656,
				"method": "rhf"
			}
		],
		"cosmo_sigma_profile": { 
			"-0.025": 0.0,
			"-0.024": 0.0,
			"-0.023": 0.0,
			"-0.022": 0.0,
			"-0.021": 0.0,
			"-0.02": 0.256710352018,
			"-0.019": 1.25741592052,
			"-0.018": 0.67786643356,
			"-0.017": 0.837601537761,
			"-0.016": 0.898270355167,
			"-0.015": 0.376854520253,
			"-0.014": 0.899042185022,
			"-0.013": 0.84382128124,
			"-0.012": 0.835023075509,
			"-0.011": 0.528622264605,
			"-0.01": 0.639916391603,
			"-0.009": 0.863503689767,
			"-0.008": 2.23464113402,
			"-0.007": 9.90275472092,
			"-0.006": 12.5894413837,
			"-0.005": 10.9810374681,
			"-0.004": 9.28867388421,
			"-0.003": 9.47429214165,
			"-0.002": 8.0093907369,
			"-0.001": 8.21495815439,
			"0.0": 10.8487622755,
			"0.001": 11.4762269666,
			"0.002": 15.7344172802,
			"0.003": 12.1580151041,
			"0.004": 4.07634366246,
			"0.005": 3.51239778481,
			"0.006": 4.06296468354,
			"0.007": 5.11211159985,
			"0.008": 5.44442372924,
			"0.009": 9.18363564339,
			"0.01": 9.88260476951,
			"0.011": 3.36626243596,
			"0.012": 0.0,
			"0.013": 0.0,
			"0.014": 0.0,
			"0.015": 0.0,
			"0.016": 0.0,
			"0.017": 0.0,
			"0.018": 0.0,
			"0.019": 0.0,
			"0.02": 0.0,
			"0.021": 0.0,
			"0.022": 0.0,
			"0.023": 0.0,
			"0.024": 0.0,
			"0.025": 0.0
		}
	}
}
