{
	 "smiles": "CC(Cl)C(=O)NC1=CC(I)=CC=C1", 
	 "Tm": 368.15, 
	 "num_atms": 22, 
	 "gaussian": { 
		 "optdone": 1, 
		 "sigma_profile": "yes", 
		 "theory": "DFT", 
		 "functional": "B3LYP", 
		 "basiset": "6-31G**", 
		 "properties": { 
			 "R2extent": 3834.2706, 
			 "electric_dipole_moment_norm": 3.60138202639, 
			 "electric_quadrupole_moment_norm": 12.3521171169, 
			 "total_energy": -949.950267537, 
			 "HOMO_LUMO_gap": 0.20072, 
			 "cosmo_polarized_energy": -13.02, 
			 "cosmo_cavitation_energy": 31.28, 
			 "cosmo_dispersion_energy": -23.22, 
			 "cosmo_repulsion_energy": 1.85, 
			 "cosmo_total_nonelectrostatic_energy": 9.9, 
			 "SMD_solvation_energy": 4.81 
		},
		"coords": [
			{
				"x": -3.889515441,
				"y": -0.4737807328,
				"z": -2.4461955236,
				"element": "C" 
			},
			{
				"x": -2.4902030526,
				"y": -0.7025026679,
				"z": -1.9057464616,
				"element": "C" 
			},
			{
				"x": -1.9976716163,
				"y": -2.4575434854,
				"z": -2.1307809609,
				"element": "Cl" 
			},
			{
				"x": -1.4470905802,
				"y": 0.1506741361,
				"z": -2.6439844645,
				"element": "C" 
			},
			{
				"x": -1.6504311555,
				"y": 0.5678489892,
				"z": -3.7723711259,
				"element": "O" 
			},
			{
				"x": -0.2547065832,
				"y": 0.4072060669,
				"z": -2.000749323,
				"element": "N" 
			},
			{
				"x": 0.1802438342,
				"y": 0.0309581304,
				"z": -0.698412469,
				"element": "C" 
			},
			{
				"x": 1.2944334408,
				"y": -0.8090019188,
				"z": -0.5692995174,
				"element": "C" 
			},
			{
				"x": 1.7576572526,
				"y": -1.1394223447,
				"z": 0.7034094796,
				"element": "C" 
			},
			{
				"x": 3.4520880537,
				"y": -2.3990799889,
				"z": 0.8946516965,
				"element": "I" 
			},
			{
				"x": 1.1180212597,
				"y": -0.6669683315,
				"z": 1.8515290355,
				"element": "C" 
			},
			{
				"x": 0.0073548467,
				"y": 0.1663660217,
				"z": 1.7093289807,
				"element": "C" 
			},
			{
				"x": -0.4530021503,
				"y": 0.5320106436,
				"z": 0.4450193033,
				"element": "C" 
			},
			{
				"x": -4.1906326524,
				"y": 0.55986625,
				"z": -2.2432244702,
				"element": "H" 
			},
			{
				"x": -3.9084011097,
				"y": -0.6245093622,
				"z": -3.5261202862,
				"element": "H" 
			},
			{
				"x": -4.6004627849,
				"y": -1.1480604715,
				"z": -1.9643396605,
				"element": "H" 
			},
			{
				"x": -2.4448621893,
				"y": -0.5503888245,
				"z": -0.8283652034,
				"element": "H" 
			},
			{
				"x": 0.4276649631,
				"y": 0.8326578477,
				"z": -2.6173833268,
				"element": "H" 
			},
			{
				"x": 1.7730935421,
				"y": -1.200787334,
				"z": -1.4594006435,
				"element": "H" 
			},
			{
				"x": 1.4803578813,
				"y": -0.9359856283,
				"z": 2.8368823779,
				"element": "H" 
			},
			{
				"x": -0.4877599654,
				"y": 0.5513431602,
				"z": 2.5957105158,
				"element": "H" 
			},
			{
				"x": -1.2848757934,
				"y": 1.2207998446,
				"z": 0.3380420474,
				"element": "H" 
			}
		],
		 "valence_orbital": [ 
			{
				"type": "occ",
				"energy": -0.29217,
				"method": "rhf"
			},
			{
				"type": "occ",
				"energy": -0.27699,
				"method": "rhf"
			},
			{
				"type": "occ",
				"energy": -0.26708,
				"method": "rhf"
			},
			{
				"type": "occ",
				"energy": -0.2595,
				"method": "rhf"
			},
			{
				"type": "occ",
				"energy": -0.24864,
				"method": "rhf"
			},
			{
				"type": "unocc",
				"energy": -0.04792,
				"method": "rhf"
			},
			{
				"type": "unocc",
				"energy": -0.03887,
				"method": "rhf"
			},
			{
				"type": "unocc",
				"energy": -0.03433,
				"method": "rhf"
			},
			{
				"type": "unocc",
				"energy": -0.02027,
				"method": "rhf"
			},
			{
				"type": "unocc",
				"energy": 0.03815,
				"method": "rhf"
			}
		],
		"cosmo_sigma_profile": { 
			"-0.025": 0.0,
			"-0.024": 0.0,
			"-0.023": 0.0,
			"-0.022": 0.0,
			"-0.021": 0.0,
			"-0.02": 0.0,
			"-0.019": 0.0,
			"-0.018": 0.0,
			"-0.017": 0.0,
			"-0.016": 0.0,
			"-0.015": 0.55459679786,
			"-0.014": 1.13265199289,
			"-0.013": 1.08690019352,
			"-0.012": 1.18064787326,
			"-0.011": 0.903309890825,
			"-0.01": 1.18035100372,
			"-0.009": 2.10997363457,
			"-0.008": 4.95394771241,
			"-0.007": 11.4371199169,
			"-0.006": 13.7569968113,
			"-0.005": 14.9292646628,
			"-0.004": 14.5328554798,
			"-0.003": 14.4158252896,
			"-0.002": 13.8916086119,
			"-0.001": 15.7148535235,
			"0.0": 19.2519402394,
			"0.001": 18.3982467833,
			"0.002": 22.6839257844,
			"0.003": 24.8075426991,
			"0.004": 22.8519999867,
			"0.005": 12.6679867206,
			"0.006": 8.05278793892,
			"0.007": 1.81953593242,
			"0.008": 0.810434097518,
			"0.009": 1.34060462711,
			"0.01": 1.91850101524,
			"0.011": 1.91671033958,
			"0.012": 4.28664187555,
			"0.013": 3.72125697493,
			"0.014": 0.0597184993303,
			"0.015": 0.0,
			"0.016": 0.0,
			"0.017": 0.0,
			"0.018": 0.0,
			"0.019": 0.0,
			"0.02": 0.0,
			"0.021": 0.0,
			"0.022": 0.0,
			"0.023": 0.0,
			"0.024": 0.0,
			"0.025": 0.0
		}
	}
}
