{
	 "smiles": "C1CCC(CC1)N=C=NC1CCCCC1", 
	 "Tm": 308.35, 
	 "num_atms": 37, 
	 "gaussian": { 
		 "optdone": 1, 
		 "sigma_profile": "yes", 
		 "theory": "DFT", 
		 "functional": "B3LYP", 
		 "basiset": "6-31G**", 
		 "properties": { 
			 "R2extent": 5733.0888, 
			 "electric_dipole_moment_norm": 2.11894170047, 
			 "electric_quadrupole_moment_norm": 10.6426961011, 
			 "total_energy": -618.146726702, 
			 "HOMO_LUMO_gap": 0.27683, 
			 "cosmo_polarized_energy": -5.3, 
			 "cosmo_cavitation_energy": 36.49, 
			 "cosmo_dispersion_energy": -25.99, 
			 "cosmo_repulsion_energy": 2.09, 
			 "cosmo_total_nonelectrostatic_energy": 12.59, 
			 "SMD_solvation_energy": 2.31 
		},
		"coords": [
			{
				"x": 2.9124787898,
				"y": 1.1719586642,
				"z": -2.2395856465,
				"element": "C" 
			},
			{
				"x": 1.5848508971,
				"y": 0.3758648475,
				"z": -2.2429437198,
				"element": "C" 
			},
			{
				"x": 0.6780967189,
				"y": 0.730213566,
				"z": -1.0386808883,
				"element": "C" 
			},
			{
				"x": 0.8931547089,
				"y": 2.1859593184,
				"z": -0.6017519968,
				"element": "C" 
			},
			{
				"x": 2.3351925701,
				"y": 2.3867825378,
				"z": -0.0754843547,
				"element": "C" 
			},
			{
				"x": 3.3618765737,
				"y": 1.4889368512,
				"z": -0.8067894557,
				"element": "C" 
			},
			{
				"x": -0.0521975062,
				"y": 2.6758487423,
				"z": 0.4020502243,
				"element": "N" 
			},
			{
				"x": -1.1070134859,
				"y": 2.1691764787,
				"z": 0.7682918138,
				"element": "C" 
			},
			{
				"x": -2.236023348,
				"y": 1.8415588041,
				"z": 1.1179048682,
				"element": "N" 
			},
			{
				"x": -2.6352094918,
				"y": 0.9756736911,
				"z": 2.2274366185,
				"element": "C" 
			},
			{
				"x": -3.4889850094,
				"y": -0.1847765718,
				"z": 1.6875628812,
				"element": "C" 
			},
			{
				"x": -3.9893644644,
				"y": -1.0884683282,
				"z": 2.8246019407,
				"element": "C" 
			},
			{
				"x": -2.8276018607,
				"y": -1.6094293061,
				"z": 3.6846745348,
				"element": "C" 
			},
			{
				"x": -1.9654199631,
				"y": -0.4538894104,
				"z": 4.2157033311,
				"element": "C" 
			},
			{
				"x": -1.4669475162,
				"y": 0.4494997739,
				"z": 3.0762396415,
				"element": "C" 
			},
			{
				"x": 2.7853928839,
				"y": 2.1131473612,
				"z": -2.7902686237,
				"element": "H" 
			},
			{
				"x": 3.6880077912,
				"y": 0.6110960478,
				"z": -2.7728612198,
				"element": "H" 
			},
			{
				"x": 1.7961066776,
				"y": -0.6995769302,
				"z": -2.2242637618,
				"element": "H" 
			},
			{
				"x": 1.048737456,
				"y": 0.566190818,
				"z": -3.179905234,
				"element": "H" 
			},
			{
				"x": -0.3745355719,
				"y": 0.5627475252,
				"z": -1.2918397894,
				"element": "H" 
			},
			{
				"x": 0.9022007193,
				"y": 0.0770526821,
				"z": -0.1847321218,
				"element": "H" 
			},
			{
				"x": 0.7538897192,
				"y": 2.8269112972,
				"z": -1.4838278071,
				"element": "H" 
			},
			{
				"x": 2.3401621062,
				"y": 2.1660533272,
				"z": 0.9972892882,
				"element": "H" 
			},
			{
				"x": 2.6027482366,
				"y": 3.444542236,
				"z": -0.1751775581,
				"element": "H" 
			},
			{
				"x": 3.4853325407,
				"y": 0.5449736038,
				"z": -0.260142407,
				"element": "H" 
			},
			{
				"x": 4.3463418423,
				"y": 1.9694643068,
				"z": -0.8075813412,
				"element": "H" 
			},
			{
				"x": -3.280669132,
				"y": 1.5885738642,
				"z": 2.87430957,
				"element": "H" 
			},
			{
				"x": -2.8752008676,
				"y": -0.769588809,
				"z": 0.9886499183,
				"element": "H" 
			},
			{
				"x": -4.3259930832,
				"y": 0.22119008,
				"z": 1.109550578,
				"element": "H" 
			},
			{
				"x": -4.563934973,
				"y": -1.9252497558,
				"z": 2.4106175615,
				"element": "H" 
			},
			{
				"x": -4.6834295539,
				"y": -0.5203860454,
				"z": 3.4603417862,
				"element": "H" 
			},
			{
				"x": -2.2006858365,
				"y": -2.2782326326,
				"z": 3.0779206696,
				"element": "H" 
			},
			{
				"x": -3.2102492068,
				"y": -2.2109749369,
				"z": 4.5177113032,
				"element": "H" 
			},
			{
				"x": -2.5588252234,
				"y": 0.1466307527,
				"z": 4.9196361625,
				"element": "H" 
			},
			{
				"x": -1.1120482376,
				"y": -0.8419900181,
				"z": 4.7841343042,
				"element": "H" 
			},
			{
				"x": -0.8898780458,
				"y": 1.2920272608,
				"z": 3.4752761981,
				"element": "H" 
			},
			{
				"x": -0.7892578539,
				"y": -0.1200116934,
				"z": 2.4241327317,
				"element": "H" 
			}
		],
		 "valence_orbital": [ 
			{
				"type": "occ",
				"energy": -0.30824,
				"method": "rhf"
			},
			{
				"type": "occ",
				"energy": -0.30136,
				"method": "rhf"
			},
			{
				"type": "occ",
				"energy": -0.29795,
				"method": "rhf"
			},
			{
				"type": "occ",
				"energy": -0.23614,
				"method": "rhf"
			},
			{
				"type": "occ",
				"energy": -0.2344,
				"method": "rhf"
			},
			{
				"type": "unocc",
				"energy": 0.04243,
				"method": "rhf"
			},
			{
				"type": "unocc",
				"energy": 0.04474,
				"method": "rhf"
			},
			{
				"type": "unocc",
				"energy": 0.07954,
				"method": "rhf"
			},
			{
				"type": "unocc",
				"energy": 0.09211,
				"method": "rhf"
			},
			{
				"type": "unocc",
				"energy": 0.09701,
				"method": "rhf"
			}
		],
		"cosmo_sigma_profile": { 
			"-0.025": 0.0,
			"-0.024": 0.0,
			"-0.023": 0.0,
			"-0.022": 0.0,
			"-0.021": 0.0,
			"-0.02": 0.0,
			"-0.019": 0.0,
			"-0.018": 0.0,
			"-0.017": 0.0,
			"-0.016": 0.0,
			"-0.015": 0.0,
			"-0.014": 0.0,
			"-0.013": 0.0,
			"-0.012": 0.0,
			"-0.011": 0.0,
			"-0.01": 0.0,
			"-0.009": 0.0,
			"-0.008": 0.0,
			"-0.007": 0.0,
			"-0.006": 0.0,
			"-0.005": 0.0,
			"-0.004": 3.41080568289,
			"-0.003": 25.2175705714,
			"-0.002": 64.8992776809,
			"-0.001": 59.0676282331,
			"0.0": 50.6909300094,
			"0.001": 37.266363484,
			"0.002": 8.17390943548,
			"0.003": 4.15784642525,
			"0.004": 5.03874057821,
			"0.005": 3.75075389319,
			"0.006": 3.70046797825,
			"0.007": 2.99008903003,
			"0.008": 2.61814392618,
			"0.009": 2.50401585668,
			"0.01": 2.09889972237,
			"0.011": 2.43166973396,
			"0.012": 2.2643883327,
			"0.013": 1.01738211909,
			"0.014": 0.0,
			"0.015": 0.0,
			"0.016": 0.0,
			"0.017": 0.0,
			"0.018": 0.0,
			"0.019": 0.0,
			"0.02": 0.0,
			"0.021": 0.0,
			"0.022": 0.0,
			"0.023": 0.0,
			"0.024": 0.0,
			"0.025": 0.0
		}
	}
}
