{
	 "smiles": "[O-][N+](=O)C1=C(C=CC(Cl)=C1)S(=O)(=O)C1=CC=CC=C1", 
	 "Tm": 389.15, 
	 "num_atms": 27, 
	 "gaussian": { 
		 "optdone": 1, 
		 "sigma_profile": "yes", 
		 "theory": "DFT", 
		 "functional": "B3LYP", 
		 "basiset": "6-31G**", 
		 "properties": { 
			 "R2extent": 7032.333, 
			 "electric_dipole_moment_norm": 8.04144783668, 
			 "electric_quadrupole_moment_norm": 26.6107736308, 
			 "total_energy": -1675.93102995, 
			 "HOMO_LUMO_gap": 0.17872, 
			 "cosmo_polarized_energy": -19.91, 
			 "cosmo_cavitation_energy": 35.64, 
			 "cosmo_dispersion_energy": -25.62, 
			 "cosmo_repulsion_energy": 1.92, 
			 "cosmo_total_nonelectrostatic_energy": 11.94, 
			 "SMD_solvation_energy": 7.3 
		},
		"coords": [
			{
				"x": 3.1741544794,
				"y": 0.3005880886,
				"z": 2.8149544188,
				"element": "O" 
			},
			{
				"x": 2.1170538858,
				"y": -0.2280527577,
				"z": 3.1323800923,
				"element": "N" 
			},
			{
				"x": 1.7942698023,
				"y": -0.5763483187,
				"z": 4.2653576782,
				"element": "O" 
			},
			{
				"x": 1.1655294745,
				"y": -0.5351788105,
				"z": 2.0418934685,
				"element": "C" 
			},
			{
				"x": 1.0191182119,
				"y": 0.2835910036,
				"z": 0.9125147295,
				"element": "C" 
			},
			{
				"x": 0.160629798,
				"y": -0.1539808582,
				"z": -0.0988215971,
				"element": "C" 
			},
			{
				"x": -0.5320655936,
				"y": -1.3601045611,
				"z": 0.0048648886,
				"element": "C" 
			},
			{
				"x": -0.3847418726,
				"y": -2.1352533043,
				"z": 1.1529481917,
				"element": "C" 
			},
			{
				"x": -1.2611935071,
				"y": -3.6379559728,
				"z": 1.3084058942,
				"element": "Cl" 
			},
			{
				"x": 0.4588437407,
				"y": -1.7252240987,
				"z": 2.1825221473,
				"element": "C" 
			},
			{
				"x": 1.8427035852,
				"y": 1.9144961308,
				"z": 0.746227186,
				"element": "S" 
			},
			{
				"x": 3.1388895148,
				"y": 1.7199392498,
				"z": 0.0886675217,
				"element": "O" 
			},
			{
				"x": 1.7000614918,
				"y": 2.5928422166,
				"z": 2.0399262258,
				"element": "O" 
			},
			{
				"x": 0.7850371501,
				"y": 2.7942149934,
				"z": -0.4195145507,
				"element": "C" 
			},
			{
				"x": -0.3573492667,
				"y": 3.4433837868,
				"z": 0.0554678342,
				"element": "C" 
			},
			{
				"x": -1.1441425152,
				"y": 4.1632607887,
				"z": -0.8430117705,
				"element": "C" 
			},
			{
				"x": -0.7821313588,
				"y": 4.2342107777,
				"z": -2.1914074905,
				"element": "C" 
			},
			{
				"x": 0.3717169604,
				"y": 3.593330511,
				"z": -2.6487593412,
				"element": "C" 
			},
			{
				"x": 1.1677597779,
				"y": 2.8680451619,
				"z": -1.7604804782,
				"element": "C" 
			},
			{
				"x": 0.0155657356,
				"y": 0.4577183469,
				"z": -0.9811176211,
				"element": "H" 
			},
			{
				"x": -1.1875578022,
				"y": -1.6866559977,
				"z": -0.7943272838,
				"element": "H" 
			},
			{
				"x": 0.5835441234,
				"y": -2.3119445512,
				"z": 3.0835523227,
				"element": "H" 
			},
			{
				"x": -0.6066026353,
				"y": 3.3982210276,
				"z": 1.1101779235,
				"element": "H" 
			},
			{
				"x": -2.0330431041,
				"y": 4.6767105892,
				"z": -0.4896146428,
				"element": "H" 
			},
			{
				"x": -1.3966589881,
				"y": 4.7995822577,
				"z": -2.8857557192,
				"element": "H" 
			},
			{
				"x": 0.6577302369,
				"y": 3.6644688546,
				"z": -3.6936763481,
				"element": "H" 
			},
			{
				"x": 2.080778675,
				"y": 2.3805954456,
				"z": -2.0851736797,
				"element": "H" 
			}
		],
		 "valence_orbital": [ 
			{
				"type": "occ",
				"energy": -0.30084,
				"method": "rhf"
			},
			{
				"type": "occ",
				"energy": -0.29545,
				"method": "rhf"
			},
			{
				"type": "occ",
				"energy": -0.28375,
				"method": "rhf"
			},
			{
				"type": "occ",
				"energy": -0.28322,
				"method": "rhf"
			},
			{
				"type": "occ",
				"energy": -0.27842,
				"method": "rhf"
			},
			{
				"type": "unocc",
				"energy": -0.0997,
				"method": "rhf"
			},
			{
				"type": "unocc",
				"energy": -0.06068,
				"method": "rhf"
			},
			{
				"type": "unocc",
				"energy": -0.05381,
				"method": "rhf"
			},
			{
				"type": "unocc",
				"energy": -0.03706,
				"method": "rhf"
			},
			{
				"type": "unocc",
				"energy": -0.02891,
				"method": "rhf"
			}
		],
		"cosmo_sigma_profile": { 
			"-0.025": 0.0,
			"-0.024": 0.0,
			"-0.023": 0.0,
			"-0.022": 0.0,
			"-0.021": 0.0,
			"-0.02": 0.0,
			"-0.019": 0.0,
			"-0.018": 0.0,
			"-0.017": 0.0,
			"-0.016": 0.0,
			"-0.015": 0.0,
			"-0.014": 0.0,
			"-0.013": 0.0,
			"-0.012": 0.0,
			"-0.011": 0.0,
			"-0.01": 1.0760520317,
			"-0.009": 5.93958789008,
			"-0.008": 6.66983752955,
			"-0.007": 14.8312140718,
			"-0.006": 19.4924884958,
			"-0.005": 16.5648115008,
			"-0.004": 15.6227848091,
			"-0.003": 21.1108311547,
			"-0.002": 24.7260994407,
			"-0.001": 24.2715536814,
			"0.0": 15.580448651,
			"0.001": 18.0830252906,
			"0.002": 21.5471578234,
			"0.003": 19.7179882995,
			"0.004": 6.37972178672,
			"0.005": 4.98167608464,
			"0.006": 9.19458525067,
			"0.007": 9.95160449424,
			"0.008": 9.00277741917,
			"0.009": 8.55667604544,
			"0.01": 8.55958808529,
			"0.011": 7.25517630741,
			"0.012": 0.884970974487,
			"0.013": 0.0,
			"0.014": 0.0,
			"0.015": 0.0,
			"0.016": 0.0,
			"0.017": 0.0,
			"0.018": 0.0,
			"0.019": 0.0,
			"0.02": 0.0,
			"0.021": 0.0,
			"0.022": 0.0,
			"0.023": 0.0,
			"0.024": 0.0,
			"0.025": 0.0
		}
	}
}
