{
	 "smiles": "CN(C=O)C1=CC=CC=C1", 
	 "Tm": 285.95, 
	 "num_atms": 19, 
	 "gaussian": { 
		 "optdone": 1, 
		 "sigma_profile": "yes", 
		 "theory": "DFT", 
		 "functional": "B3LYP", 
		 "basiset": "6-31G**", 
		 "properties": { 
			 "R2extent": 1786.4907, 
			 "electric_dipole_moment_norm": 3.47098975078, 
			 "electric_quadrupole_moment_norm": 11.2007444538, 
			 "total_energy": -440.252144135, 
			 "HOMO_LUMO_gap": 0.20696, 
			 "cosmo_polarized_energy": -9.59, 
			 "cosmo_cavitation_energy": 22.16, 
			 "cosmo_dispersion_energy": -16.66, 
			 "cosmo_repulsion_energy": 1.32, 
			 "cosmo_total_nonelectrostatic_energy": 6.82, 
			 "SMD_solvation_energy": 5.29 
		},
		"coords": [
			{
				"x": -0.9594423686,
				"y": 1.0183038026,
				"z": -1.8254215779,
				"element": "C" 
			},
			{
				"x": -0.8637213098,
				"y": -0.4025523926,
				"z": -1.49644763,
				"element": "N" 
			},
			{
				"x": -1.5898901211,
				"y": -1.275753406,
				"z": -2.2840956719,
				"element": "C" 
			},
			{
				"x": -1.6562820762,
				"y": -2.4876040232,
				"z": -2.1904184141,
				"element": "O" 
			},
			{
				"x": -0.0384971693,
				"y": -0.7904908957,
				"z": -0.3990067955,
				"element": "C" 
			},
			{
				"x": 0.1109587725,
				"y": -2.1369178593,
				"z": -0.0123500658,
				"element": "C" 
			},
			{
				"x": 0.9287299944,
				"y": -2.4643157514,
				"z": 1.0668776602,
				"element": "C" 
			},
			{
				"x": 1.6127760296,
				"y": -1.4824793364,
				"z": 1.7847530355,
				"element": "C" 
			},
			{
				"x": 1.4667450787,
				"y": -0.1504631427,
				"z": 1.4044985756,
				"element": "C" 
			},
			{
				"x": 0.6525550075,
				"y": 0.1973565422,
				"z": 0.3267775934,
				"element": "C" 
			},
			{
				"x": -1.624075691,
				"y": 1.1405198792,
				"z": -2.6814279365,
				"element": "H" 
			},
			{
				"x": 0.0196519553,
				"y": 1.431023002,
				"z": -2.0895065609,
				"element": "H" 
			},
			{
				"x": -1.3692064891,
				"y": 1.5924607667,
				"z": -0.9880772776,
				"element": "H" 
			},
			{
				"x": -2.1463432325,
				"y": -0.7262951092,
				"z": -3.0666883305,
				"element": "H" 
			},
			{
				"x": -0.4117108727,
				"y": -2.9069739935,
				"z": -0.5579612805,
				"element": "H" 
			},
			{
				"x": 1.0279809525,
				"y": -3.5096058765,
				"z": 1.3458982706,
				"element": "H" 
			},
			{
				"x": 2.24708007,
				"y": -1.7510648133,
				"z": 2.6239952675,
				"element": "H" 
			},
			{
				"x": 1.9875127476,
				"y": 0.6345623489,
				"z": 1.9454635969,
				"element": "H" 
			},
			{
				"x": 0.5668787223,
				"y": 1.2438902581,
				"z": 0.0646375413,
				"element": "H" 
			}
		],
		 "valence_orbital": [ 
			{
				"type": "occ",
				"energy": -0.34321,
				"method": "rhf"
			},
			{
				"type": "occ",
				"energy": -0.29854,
				"method": "rhf"
			},
			{
				"type": "occ",
				"energy": -0.2583,
				"method": "rhf"
			},
			{
				"type": "occ",
				"energy": -0.24959,
				"method": "rhf"
			},
			{
				"type": "occ",
				"energy": -0.22112,
				"method": "rhf"
			},
			{
				"type": "unocc",
				"energy": -0.01416,
				"method": "rhf"
			},
			{
				"type": "unocc",
				"energy": -0.00011,
				"method": "rhf"
			},
			{
				"type": "unocc",
				"energy": 0.04109,
				"method": "rhf"
			},
			{
				"type": "unocc",
				"energy": 0.08215,
				"method": "rhf"
			},
			{
				"type": "unocc",
				"energy": 0.10354,
				"method": "rhf"
			}
		],
		"cosmo_sigma_profile": { 
			"-0.025": 0.0,
			"-0.024": 0.0,
			"-0.023": 0.0,
			"-0.022": 0.0,
			"-0.021": 0.0,
			"-0.02": 0.0,
			"-0.019": 0.0,
			"-0.018": 0.0,
			"-0.017": 0.0,
			"-0.016": 0.0,
			"-0.015": 0.0,
			"-0.014": 0.0,
			"-0.013": 0.0,
			"-0.012": 0.0,
			"-0.011": 0.0,
			"-0.01": 0.0356459302824,
			"-0.009": 1.5242466618,
			"-0.008": 2.99923907006,
			"-0.007": 4.26288234501,
			"-0.006": 12.2138842689,
			"-0.005": 15.7226951909,
			"-0.004": 17.3599039592,
			"-0.003": 18.729250195,
			"-0.002": 11.3464627762,
			"-0.001": 9.10416324959,
			"0.0": 9.1415399588,
			"0.001": 8.7640650818,
			"0.002": 8.47565357034,
			"0.003": 10.1982843305,
			"0.004": 11.684591377,
			"0.005": 11.3247014576,
			"0.006": 8.69643692101,
			"0.007": 1.99811730099,
			"0.008": 1.11102994153,
			"0.009": 1.91228376382,
			"0.01": 2.05104417186,
			"0.011": 1.92841138713,
			"0.012": 3.36325240865,
			"0.013": 2.45685591274,
			"0.014": 0.708222193212,
			"0.015": 0.0,
			"0.016": 0.0,
			"0.017": 0.0,
			"0.018": 0.0,
			"0.019": 0.0,
			"0.02": 0.0,
			"0.021": 0.0,
			"0.022": 0.0,
			"0.023": 0.0,
			"0.024": 0.0,
			"0.025": 0.0
		}
	}
}
