{
	 "smiles": "NC1=C(C=CC=C1)C(=O)NCC1=CC2=C(OCO2)C=C1", 
	 "Tm": 393.15, 
	 "num_atms": 34, 
	 "gaussian": { 
		 "optdone": 1, 
		 "sigma_profile": "yes", 
		 "theory": "DFT", 
		 "functional": "B3LYP", 
		 "basiset": "6-31G**", 
		 "properties": { 
			 "R2extent": 7589.6489, 
			 "electric_dipole_moment_norm": 3.89754140966, 
			 "electric_quadrupole_moment_norm": 16.0452819576, 
			 "total_energy": -915.197890647, 
			 "HOMO_LUMO_gap": 0.1842, 
			 "cosmo_polarized_energy": -16.82, 
			 "cosmo_cavitation_energy": 37.68, 
			 "cosmo_dispersion_energy": -27.42, 
			 "cosmo_repulsion_energy": 2.1, 
			 "cosmo_total_nonelectrostatic_energy": 12.35, 
			 "SMD_solvation_energy": 7.36 
		},
		"coords": [
			{
				"x": -0.634664161,
				"y": -1.9541766982,
				"z": -0.529087513,
				"element": "N" 
			},
			{
				"x": 0.3679228614,
				"y": -2.8143708054,
				"z": -0.0791235168,
				"element": "C" 
			},
			{
				"x": 0.9090487115,
				"y": -2.7315265607,
				"z": 1.2280736343,
				"element": "C" 
			},
			{
				"x": 1.9049256495,
				"y": -3.6409022818,
				"z": 1.6171321541,
				"element": "C" 
			},
			{
				"x": 2.415077309,
				"y": -4.586516826,
				"z": 0.7365998029,
				"element": "C" 
			},
			{
				"x": 1.8926500931,
				"y": -4.6526821885,
				"z": -0.5595898611,
				"element": "C" 
			},
			{
				"x": 0.8819307279,
				"y": -3.7872186397,
				"z": -0.957965511,
				"element": "C" 
			},
			{
				"x": 0.3851892757,
				"y": -1.8145808019,
				"z": 2.2927192069,
				"element": "C" 
			},
			{
				"x": 0.2014423763,
				"y": -2.2059159787,
				"z": 3.4399672169,
				"element": "O" 
			},
			{
				"x": 0.0580991834,
				"y": -0.5098943564,
				"z": 1.9311325413,
				"element": "N" 
			},
			{
				"x": 0.9107933573,
				"y": 0.3180515403,
				"z": 1.0508294009,
				"element": "C" 
			},
			{
				"x": 0.2081828954,
				"y": 1.5996536611,
				"z": 0.6587401625,
				"element": "C" 
			},
			{
				"x": -0.6745523957,
				"y": 1.6061759303,
				"z": -0.4451393091,
				"element": "C" 
			},
			{
				"x": -1.3077011367,
				"y": 2.794598413,
				"z": -0.7406119941,
				"element": "C" 
			},
			{
				"x": -1.1001901965,
				"y": 3.9524140223,
				"z": 0.0085234913,
				"element": "C" 
			},
			{
				"x": -1.8636660461,
				"y": 4.9755543721,
				"z": -0.4984397607,
				"element": "O" 
			},
			{
				"x": -2.4681908376,
				"y": 4.4590896535,
				"z": -1.690194031,
				"element": "C" 
			},
			{
				"x": -2.2093957484,
				"y": 3.0515785039,
				"z": -1.7460822919,
				"element": "O" 
			},
			{
				"x": -0.243103603,
				"y": 3.973242371,
				"z": 1.0896314105,
				"element": "C" 
			},
			{
				"x": 0.4122015667,
				"y": 2.766533381,
				"z": 1.4005054287,
				"element": "C" 
			},
			{
				"x": -1.1482504488,
				"y": -1.4703444687,
				"z": 0.1970214315,
				"element": "H" 
			},
			{
				"x": -1.2283313269,
				"y": -2.3377169372,
				"z": -1.2514787256,
				"element": "H" 
			},
			{
				"x": 2.2628961214,
				"y": -3.5858269174,
				"z": 2.6402375555,
				"element": "H" 
			},
			{
				"x": 3.1966124407,
				"y": -5.2691535376,
				"z": 1.053963759,
				"element": "H" 
			},
			{
				"x": 2.2692574813,
				"y": -5.3899558131,
				"z": -1.2633121517,
				"element": "H" 
			},
			{
				"x": 0.4714556432,
				"y": -3.8541711961,
				"z": -1.9626800347,
				"element": "H" 
			},
			{
				"x": -0.2757780806,
				"y": -0.0066762464,
				"z": 2.7483525278,
				"element": "H" 
			},
			{
				"x": 1.8549095017,
				"y": 0.5599061822,
				"z": 1.558556833,
				"element": "H" 
			},
			{
				"x": 1.1544189991,
				"y": -0.2683244443,
				"z": 0.1642600909,
				"element": "H" 
			},
			{
				"x": -0.8330785905,
				"y": 0.711024726,
				"z": -1.0365515975,
				"element": "H" 
			},
			{
				"x": -2.0248917122,
				"y": 4.9494833814,
				"z": -2.5683920824,
				"element": "H" 
			},
			{
				"x": -3.5489518815,
				"y": 4.6304489885,
				"z": -1.6543961337,
				"element": "H" 
			},
			{
				"x": -0.0813503733,
				"y": 4.8773139862,
				"z": 1.6654738235,
				"element": "H" 
			},
			{
				"x": 1.1041823443,
				"y": 2.7476855852,
				"z": 2.238224043,
				"element": "H" 
			}
		],
		 "valence_orbital": [ 
			{
				"type": "occ",
				"energy": -0.25644,
				"method": "rhf"
			},
			{
				"type": "occ",
				"energy": -0.24825,
				"method": "rhf"
			},
			{
				"type": "occ",
				"energy": -0.2362,
				"method": "rhf"
			},
			{
				"type": "occ",
				"energy": -0.21141,
				"method": "rhf"
			},
			{
				"type": "occ",
				"energy": -0.20951,
				"method": "rhf"
			},
			{
				"type": "unocc",
				"energy": -0.02531,
				"method": "rhf"
			},
			{
				"type": "unocc",
				"energy": -0.00792,
				"method": "rhf"
			},
			{
				"type": "unocc",
				"energy": 0.00305,
				"method": "rhf"
			},
			{
				"type": "unocc",
				"energy": 0.00921,
				"method": "rhf"
			},
			{
				"type": "unocc",
				"energy": 0.04774,
				"method": "rhf"
			}
		],
		"cosmo_sigma_profile": { 
			"-0.025": 0.0,
			"-0.024": 0.0,
			"-0.023": 0.0,
			"-0.022": 0.0,
			"-0.021": 0.0,
			"-0.02": 0.0,
			"-0.019": 0.0,
			"-0.018": 0.0,
			"-0.017": 0.0,
			"-0.016": 0.0,
			"-0.015": 0.0,
			"-0.014": 0.0,
			"-0.013": 0.723478152293,
			"-0.012": 2.01067761895,
			"-0.011": 2.10262637995,
			"-0.01": 2.33083579455,
			"-0.009": 3.50938983668,
			"-0.008": 6.07516381188,
			"-0.007": 11.2822903248,
			"-0.006": 19.3110806452,
			"-0.005": 21.7114354883,
			"-0.004": 21.9703512024,
			"-0.003": 20.8010699318,
			"-0.002": 20.2438164996,
			"-0.001": 16.3253454366,
			"0.0": 14.8669478581,
			"0.001": 17.3827020714,
			"0.002": 17.9805605471,
			"0.003": 22.7978088274,
			"0.004": 20.9053711964,
			"0.005": 16.4295623751,
			"0.006": 9.97530753808,
			"0.007": 5.90674023126,
			"0.008": 5.02986988655,
			"0.009": 4.69429785616,
			"0.01": 3.35440957591,
			"0.011": 1.46814332596,
			"0.012": 2.77853438565,
			"0.013": 5.11060952067,
			"0.014": 3.10949005152,
			"0.015": 0.250951210674,
			"0.016": 0.0,
			"0.017": 0.0,
			"0.018": 0.0,
			"0.019": 0.0,
			"0.02": 0.0,
			"0.021": 0.0,
			"0.022": 0.0,
			"0.023": 0.0,
			"0.024": 0.0,
			"0.025": 0.0
		}
	}
}
