{
	 "smiles": "CC(C)OC(=O)C(C)O", 
	 "Tm": 274.15, 
	 "num_atms": 21, 
	 "gaussian": { 
		 "optdone": 1, 
		 "sigma_profile": "yes", 
		 "theory": "DFT", 
		 "functional": "B3LYP", 
		 "basiset": "6-31G**", 
		 "properties": { 
			 "R2extent": 1721.5691, 
			 "electric_dipole_moment_norm": 3.19517692937, 
			 "electric_quadrupole_moment_norm": 7.27662992119, 
			 "total_energy": -461.559809998, 
			 "HOMO_LUMO_gap": 0.26379, 
			 "cosmo_polarized_energy": -7.37, 
			 "cosmo_cavitation_energy": 23.52, 
			 "cosmo_dispersion_energy": -16.99, 
			 "cosmo_repulsion_energy": 1.44, 
			 "cosmo_total_nonelectrostatic_energy": 7.96, 
			 "SMD_solvation_energy": 5.1 
		},
		"coords": [
			{
				"x": -2.2627982494,
				"y": -0.4345596786,
				"z": -0.3133095152,
				"element": "C" 
			},
			{
				"x": -1.0262014642,
				"y": -0.8314635152,
				"z": -1.1143997555,
				"element": "C" 
			},
			{
				"x": -1.1786652912,
				"y": -0.6756034838,
				"z": -2.6247261533,
				"element": "C" 
			},
			{
				"x": 0.1740598316,
				"y": -0.1401752661,
				"z": -0.6242066089,
				"element": "O" 
			},
			{
				"x": 0.2780470245,
				"y": 1.1882254377,
				"z": -0.7104839669,
				"element": "C" 
			},
			{
				"x": -0.5533569724,
				"y": 1.9450912185,
				"z": -1.1819389621,
				"element": "O" 
			},
			{
				"x": 1.5978304954,
				"y": 1.7039104501,
				"z": -0.1329740767,
				"element": "C" 
			},
			{
				"x": 1.7119524441,
				"y": 1.3908510202,
				"z": 1.3651163241,
				"element": "C" 
			},
			{
				"x": 1.6925618684,
				"y": 3.0899566009,
				"z": -0.3653754194,
				"element": "O" 
			},
			{
				"x": -2.0753280565,
				"y": -0.5392488126,
				"z": 0.7594619451,
				"element": "H" 
			},
			{
				"x": -3.0921072106,
				"y": -1.0986459283,
				"z": -0.5780006542,
				"element": "H" 
			},
			{
				"x": -2.5573712721,
				"y": 0.5946600751,
				"z": -0.5239090694,
				"element": "H" 
			},
			{
				"x": -0.7745828754,
				"y": -1.8719561765,
				"z": -0.887903083,
				"element": "H" 
			},
			{
				"x": -0.249218967,
				"y": -0.9461193276,
				"z": -3.1344538647,
				"element": "H" 
			},
			{
				"x": -1.4456578998,
				"y": 0.3478624965,
				"z": -2.8923006396,
				"element": "H" 
			},
			{
				"x": -1.9666251673,
				"y": -1.3485197038,
				"z": -2.9785019372,
				"element": "H" 
			},
			{
				"x": 2.4075065565,
				"y": 1.1820629762,
				"z": -0.666598066,
				"element": "H" 
			},
			{
				"x": 2.6480872043,
				"y": 1.8068722563,
				"z": 1.7458360693,
				"element": "H" 
			},
			{
				"x": 1.7008520686,
				"y": 0.3127171019,
				"z": 1.5453083776,
				"element": "H" 
			},
			{
				"x": 0.8859974459,
				"y": 1.8550204818,
				"z": 1.913102034,
				"element": "H" 
			},
			{
				"x": 0.8437184868,
				"y": 3.3477617772,
				"z": -0.763642978,
				"element": "H" 
			}
		],
		 "valence_orbital": [ 
			{
				"type": "occ",
				"energy": -0.35017,
				"method": "rhf"
			},
			{
				"type": "occ",
				"energy": -0.32661,
				"method": "rhf"
			},
			{
				"type": "occ",
				"energy": -0.30985,
				"method": "rhf"
			},
			{
				"type": "occ",
				"energy": -0.28046,
				"method": "rhf"
			},
			{
				"type": "occ",
				"energy": -0.26207,
				"method": "rhf"
			},
			{
				"type": "unocc",
				"energy": 0.00172,
				"method": "rhf"
			},
			{
				"type": "unocc",
				"energy": 0.08366,
				"method": "rhf"
			},
			{
				"type": "unocc",
				"energy": 0.10269,
				"method": "rhf"
			},
			{
				"type": "unocc",
				"energy": 0.11692,
				"method": "rhf"
			},
			{
				"type": "unocc",
				"energy": 0.13552,
				"method": "rhf"
			}
		],
		"cosmo_sigma_profile": { 
			"-0.025": 0.0,
			"-0.024": 0.0,
			"-0.023": 0.0,
			"-0.022": 0.0,
			"-0.021": 0.0,
			"-0.02": 0.0,
			"-0.019": 0.0,
			"-0.018": 0.0,
			"-0.017": 0.0,
			"-0.016": 0.0,
			"-0.015": 0.0,
			"-0.014": 0.0,
			"-0.013": 0.0,
			"-0.012": 0.0,
			"-0.011": 0.108165841139,
			"-0.01": 0.368618487078,
			"-0.009": 0.877034925993,
			"-0.008": 0.608011036497,
			"-0.007": 0.391908463464,
			"-0.006": 3.11314683985,
			"-0.005": 10.0670804212,
			"-0.004": 21.0433492954,
			"-0.003": 19.4609116968,
			"-0.002": 24.0990846869,
			"-0.001": 22.7822230462,
			"0.0": 24.6598166691,
			"0.001": 12.8104855251,
			"0.002": 5.27374991523,
			"0.003": 5.52454160714,
			"0.004": 3.5121988084,
			"0.005": 3.32342194686,
			"0.006": 3.70727162551,
			"0.007": 4.14186435824,
			"0.008": 3.4497339915,
			"0.009": 2.09594575156,
			"0.01": 3.32829104716,
			"0.011": 2.51267317821,
			"0.012": 1.46312217777,
			"0.013": 2.00714962461,
			"0.014": 1.81375022777,
			"0.015": 0.338911875328,
			"0.016": 0.0,
			"0.017": 0.0,
			"0.018": 0.0,
			"0.019": 0.0,
			"0.02": 0.0,
			"0.021": 0.0,
			"0.022": 0.0,
			"0.023": 0.0,
			"0.024": 0.0,
			"0.025": 0.0
		}
	}
}
