{
	 "smiles": "NCC1=CC=C(CN2C=NC3=C2C=CC=C3)C=C1", 
	 "Tm": 346.15, 
	 "num_atms": 33, 
	 "gaussian": { 
		 "optdone": 1, 
		 "sigma_profile": "yes", 
		 "theory": "DFT", 
		 "functional": "B3LYP", 
		 "basiset": "6-31G**", 
		 "properties": { 
			 "R2extent": 5533.4557, 
			 "electric_dipole_moment_norm": 3.10649532432, 
			 "electric_quadrupole_moment_norm": 16.6423237416, 
			 "total_energy": -744.897552457, 
			 "HOMO_LUMO_gap": 0.20188, 
			 "cosmo_polarized_energy": -16.36, 
			 "cosmo_cavitation_energy": 36.84, 
			 "cosmo_dispersion_energy": -25.62, 
			 "cosmo_repulsion_energy": 1.99, 
			 "cosmo_total_nonelectrostatic_energy": 13.21, 
			 "SMD_solvation_energy": 2.78 
		},
		"coords": [
			{
				"x": 1.6556520916,
				"y": -3.7827632389,
				"z": 3.0340748192,
				"element": "N" 
			},
			{
				"x": 1.7254256074,
				"y": -2.475404001,
				"z": 3.7070460747,
				"element": "C" 
			},
			{
				"x": 1.1412401419,
				"y": -1.3080896803,
				"z": 2.9295692291,
				"element": "C" 
			},
			{
				"x": -0.2014301598,
				"y": -0.9407665546,
				"z": 3.0789233702,
				"element": "C" 
			},
			{
				"x": -0.7535467349,
				"y": 0.0884483552,
				"z": 2.3149962633,
				"element": "C" 
			},
			{
				"x": 0.0261606871,
				"y": 0.7854927665,
				"z": 1.3866930475,
				"element": "C" 
			},
			{
				"x": -0.5746663834,
				"y": 1.9405950927,
				"z": 0.6025312872,
				"element": "C" 
			},
			{
				"x": -0.1793128943,
				"y": 1.9869603322,
				"z": -0.7969628236,
				"element": "N" 
			},
			{
				"x": 0.584571116,
				"y": 2.96069764,
				"z": -1.4077350269,
				"element": "C" 
			},
			{
				"x": 0.7722035309,
				"y": 2.7762701817,
				"z": -2.6884897248,
				"element": "N" 
			},
			{
				"x": 0.0880445696,
				"y": 1.6003282474,
				"z": -2.9713352504,
				"element": "C" 
			},
			{
				"x": -0.5164353962,
				"y": 1.0860859926,
				"z": -1.7978863677,
				"element": "C" 
			},
			{
				"x": -1.2716542737,
				"y": -0.0897895888,
				"z": -1.795249758,
				"element": "C" 
			},
			{
				"x": -1.4126293069,
				"y": -0.7446208914,
				"z": -3.016141135,
				"element": "C" 
			},
			{
				"x": -0.8190275707,
				"y": -0.2465872248,
				"z": -4.1942832249,
				"element": "C" 
			},
			{
				"x": -0.0655869761,
				"y": 0.9226327262,
				"z": -4.1877202617,
				"element": "C" 
			},
			{
				"x": 1.3714946869,
				"y": 0.4272833345,
				"z": 1.2361825419,
				"element": "C" 
			},
			{
				"x": 1.9172141968,
				"y": -0.6039753988,
				"z": 1.9969814032,
				"element": "C" 
			},
			{
				"x": 0.6852756551,
				"y": -3.9913244302,
				"z": 2.806154416,
				"element": "H" 
			},
			{
				"x": 2.1396452188,
				"y": -3.7268956137,
				"z": 2.1398233984,
				"element": "H" 
			},
			{
				"x": 2.779229463,
				"y": -2.2764553169,
				"z": 3.9332678968,
				"element": "H" 
			},
			{
				"x": 1.2102651237,
				"y": -2.5700283068,
				"z": 4.6697400877,
				"element": "H" 
			},
			{
				"x": -0.8241993795,
				"y": -1.4666828396,
				"z": 3.7993782995,
				"element": "H" 
			},
			{
				"x": -1.7999586405,
				"y": 0.3548601299,
				"z": 2.4471760061,
				"element": "H" 
			},
			{
				"x": -0.2715086789,
				"y": 2.8972526748,
				"z": 1.0442557664,
				"element": "H" 
			},
			{
				"x": -1.6685461372,
				"y": 1.8991865652,
				"z": 0.6646208502,
				"element": "H" 
			},
			{
				"x": 0.9722341191,
				"y": 3.7942580395,
				"z": -0.8336405193,
				"element": "H" 
			},
			{
				"x": -1.7187105564,
				"y": -0.4833490918,
				"z": -0.8881954013,
				"element": "H" 
			},
			{
				"x": -1.9910183745,
				"y": -1.6628323164,
				"z": -3.0610814676,
				"element": "H" 
			},
			{
				"x": -0.9544627543,
				"y": -0.7915333229,
				"z": -5.1239235725,
				"element": "H" 
			},
			{
				"x": 0.3943995082,
				"y": 1.3114997584,
				"z": -5.0904688024,
				"element": "H" 
			},
			{
				"x": 1.9917472655,
				"y": 0.9545223538,
				"z": 0.5165022443,
				"element": "H" 
			},
			{
				"x": 2.9654912357,
				"y": -0.8652763736,
				"z": 1.8683963346,
				"element": "H" 
			}
		],
		 "valence_orbital": [ 
			{
				"type": "occ",
				"energy": -0.262,
				"method": "rhf"
			},
			{
				"type": "occ",
				"energy": -0.25996,
				"method": "rhf"
			},
			{
				"type": "occ",
				"energy": -0.23408,
				"method": "rhf"
			},
			{
				"type": "occ",
				"energy": -0.22482,
				"method": "rhf"
			},
			{
				"type": "occ",
				"energy": -0.2198,
				"method": "rhf"
			},
			{
				"type": "unocc",
				"energy": -0.01792,
				"method": "rhf"
			},
			{
				"type": "unocc",
				"energy": -0.01515,
				"method": "rhf"
			},
			{
				"type": "unocc",
				"energy": -0.01188,
				"method": "rhf"
			},
			{
				"type": "unocc",
				"energy": 0.02273,
				"method": "rhf"
			},
			{
				"type": "unocc",
				"energy": 0.05712,
				"method": "rhf"
			}
		],
		"cosmo_sigma_profile": { 
			"-0.025": 0.0,
			"-0.024": 0.0,
			"-0.023": 0.0,
			"-0.022": 0.0,
			"-0.021": 0.0,
			"-0.02": 0.0,
			"-0.019": 0.0,
			"-0.018": 0.0,
			"-0.017": 0.0,
			"-0.016": 0.0,
			"-0.015": 0.0,
			"-0.014": 0.0,
			"-0.013": 0.0,
			"-0.012": 0.0,
			"-0.011": 0.0,
			"-0.01": 1.26267079777,
			"-0.009": 5.75009488917,
			"-0.008": 5.07758447714,
			"-0.007": 8.61864283358,
			"-0.006": 15.1777581151,
			"-0.005": 27.4832533167,
			"-0.004": 30.2923866847,
			"-0.003": 25.1741066956,
			"-0.002": 18.3196392549,
			"-0.001": 17.9471016075,
			"0.0": 16.143472277,
			"0.001": 13.4470850246,
			"0.002": 15.220764175,
			"0.003": 16.6646017261,
			"0.004": 17.9695450214,
			"0.005": 19.961737261,
			"0.006": 14.4833878536,
			"0.007": 3.08449632475,
			"0.008": 2.46354689762,
			"0.009": 2.08092934659,
			"0.01": 1.86600455412,
			"0.011": 1.20703751667,
			"0.012": 2.93630107785,
			"0.013": 1.65607830498,
			"0.014": 1.54099528953,
			"0.015": 1.67665800783,
			"0.016": 1.46537678011,
			"0.017": 1.80281529877,
			"0.018": 1.20979228893,
			"0.019": 0.583529226006,
			"0.02": 0.376799163235,
			"0.021": 0.0,
			"0.022": 0.0,
			"0.023": 0.0,
			"0.024": 0.0,
			"0.025": 0.0
		}
	}
}
