{
	 "smiles": "NC1=C2C=CC(O)=CC2=CC=C1", 
	 "Tm": 464.15, 
	 "num_atms": 21, 
	 "gaussian": { 
		 "optdone": 1, 
		 "sigma_profile": "yes", 
		 "theory": "DFT", 
		 "functional": "B3LYP", 
		 "basiset": "6-31G**", 
		 "properties": { 
			 "R2extent": 2685.0865, 
			 "electric_dipole_moment_norm": 2.69169838021, 
			 "electric_quadrupole_moment_norm": 11.377019139, 
			 "total_energy": -516.471528399, 
			 "HOMO_LUMO_gap": 0.15825, 
			 "cosmo_polarized_energy": -13.83, 
			 "cosmo_cavitation_energy": 24.38, 
			 "cosmo_dispersion_energy": -18.54, 
			 "cosmo_repulsion_energy": 1.45, 
			 "cosmo_total_nonelectrostatic_energy": 7.29, 
			 "SMD_solvation_energy": 4.14 
		},
		"coords": [
			{
				"x": 1.800973521,
				"y": 0.4948714117,
				"z": -2.3079851158,
				"element": "N" 
			},
			{
				"x": 2.1517153121,
				"y": 0.3086544237,
				"z": -0.9640783517,
				"element": "C" 
			},
			{
				"x": 1.1955301411,
				"y": 0.6058801854,
				"z": 0.0657854377,
				"element": "C" 
			},
			{
				"x": -0.1112545823,
				"y": 1.0776076513,
				"z": -0.2189291913,
				"element": "C" 
			},
			{
				"x": -1.0025409276,
				"y": 1.3781703099,
				"z": 0.7872627402,
				"element": "C" 
			},
			{
				"x": -0.6243630301,
				"y": 1.2135929548,
				"z": 2.1423030097,
				"element": "C" 
			},
			{
				"x": -1.4813856159,
				"y": 1.5101421958,
				"z": 3.1663177983,
				"element": "O" 
			},
			{
				"x": 0.6297126729,
				"y": 0.7320873184,
				"z": 2.4565134664,
				"element": "C" 
			},
			{
				"x": 1.5624550912,
				"y": 0.4090931817,
				"z": 1.4396413414,
				"element": "C" 
			},
			{
				"x": 2.8470323033,
				"y": -0.1157812286,
				"z": 1.7514807098,
				"element": "C" 
			},
			{
				"x": 3.7253497542,
				"y": -0.4274547568,
				"z": 0.7401531003,
				"element": "C" 
			},
			{
				"x": 3.3885423766,
				"y": -0.2084353763,
				"z": -0.6136168778,
				"element": "C" 
			},
			{
				"x": 1.2715835188,
				"y": 1.3373542763,
				"z": -2.4917188951,
				"element": "H" 
			},
			{
				"x": 2.587877917,
				"y": 0.4275037902,
				"z": -2.9404526257,
				"element": "H" 
			},
			{
				"x": -0.4370254685,
				"y": 1.1736049624,
				"z": -1.249826523,
				"element": "H" 
			},
			{
				"x": -2.0035043363,
				"y": 1.7301828576,
				"z": 0.5453417296,
				"element": "H" 
			},
			{
				"x": -2.3168789857,
				"y": 1.823945254,
				"z": 2.7978206896,
				"element": "H" 
			},
			{
				"x": 0.8964543957,
				"y": 0.5948611386,
				"z": 3.499787124,
				"element": "H" 
			},
			{
				"x": 3.1164039579,
				"y": -0.2695741015,
				"z": 2.7921855013,
				"element": "H" 
			},
			{
				"x": 4.7053004492,
				"y": -0.8324858391,
				"z": 0.977714314,
				"element": "H" 
			},
			{
				"x": 4.1126215356,
				"y": -0.4364206094,
				"z": -1.3920993818,
				"element": "H" 
			}
		],
		 "valence_orbital": [ 
			{
				"type": "occ",
				"energy": -0.31543,
				"method": "rhf"
			},
			{
				"type": "occ",
				"energy": -0.29864,
				"method": "rhf"
			},
			{
				"type": "occ",
				"energy": -0.247,
				"method": "rhf"
			},
			{
				"type": "occ",
				"energy": -0.22021,
				"method": "rhf"
			},
			{
				"type": "occ",
				"energy": -0.18498,
				"method": "rhf"
			},
			{
				"type": "unocc",
				"energy": -0.02673,
				"method": "rhf"
			},
			{
				"type": "unocc",
				"energy": 0.00573,
				"method": "rhf"
			},
			{
				"type": "unocc",
				"energy": 0.0494,
				"method": "rhf"
			},
			{
				"type": "unocc",
				"energy": 0.07193,
				"method": "rhf"
			},
			{
				"type": "unocc",
				"energy": 0.07767,
				"method": "rhf"
			}
		],
		"cosmo_sigma_profile": { 
			"-0.025": 0.0,
			"-0.024": 0.0,
			"-0.023": 0.0,
			"-0.022": 0.0,
			"-0.021": 0.0,
			"-0.02": 0.0,
			"-0.019": 0.0,
			"-0.018": 0.252797386047,
			"-0.017": 1.14769909089,
			"-0.016": 0.74155813517,
			"-0.015": 1.37863710472,
			"-0.014": 1.30751473831,
			"-0.013": 1.06113473801,
			"-0.012": 3.45066899878,
			"-0.011": 3.01263005511,
			"-0.01": 3.80733621989,
			"-0.009": 4.98152833403,
			"-0.008": 3.81778716179,
			"-0.007": 4.25170005202,
			"-0.006": 6.7868394595,
			"-0.005": 11.2202535832,
			"-0.004": 10.2733391148,
			"-0.003": 11.8261683018,
			"-0.002": 9.77515235711,
			"-0.001": 7.68290356719,
			"0.0": 8.04886847546,
			"0.001": 6.71799427758,
			"0.002": 10.2046336121,
			"0.003": 9.11120919194,
			"0.004": 15.4088542754,
			"0.005": 24.6127959275,
			"0.006": 13.6900222628,
			"0.007": 7.21584901979,
			"0.008": 1.87812440831,
			"0.009": 2.40024780586,
			"0.01": 2.27080290556,
			"0.011": 2.66791816599,
			"0.012": 1.56075481863,
			"0.013": 0.700628728952,
			"0.014": 0.615920936657,
			"0.015": 0.310617657849,
			"0.016": 0.000627332221888,
			"0.017": 0.0,
			"0.018": 0.0,
			"0.019": 0.0,
			"0.02": 0.0,
			"0.021": 0.0,
			"0.022": 0.0,
			"0.023": 0.0,
			"0.024": 0.0,
			"0.025": 0.0
		}
	}
}
