{
	 "smiles": "CC1=C(C)C(C)=C(C)C2=C1C(CC2=O)C(O)=O", 
	 "Tm": 487.15, 
	 "num_atms": 33, 
	 "gaussian": { 
		 "optdone": 1, 
		 "sigma_profile": "yes", 
		 "theory": "DFT", 
		 "functional": "B3LYP", 
		 "basiset": "6-31G**", 
		 "properties": { 
			 "R2extent": 4493.7829, 
			 "electric_dipole_moment_norm": 3.82534173506, 
			 "electric_quadrupole_moment_norm": 20.9883690853, 
			 "total_energy": -768.838174023, 
			 "HOMO_LUMO_gap": 0.18298, 
			 "cosmo_polarized_energy": -19.31, 
			 "cosmo_cavitation_energy": 34.14, 
			 "cosmo_dispersion_energy": -24.46, 
			 "cosmo_repulsion_energy": 1.87, 
			 "cosmo_total_nonelectrostatic_energy": 11.54, 
			 "SMD_solvation_energy": 6.9 
		},
		"coords": [
			{
				"x": -1.7958824776,
				"y": -2.5560197063,
				"z": 0.1752058848,
				"element": "C" 
			},
			{
				"x": -1.0422133281,
				"y": -1.2483623746,
				"z": 0.0734126226,
				"element": "C" 
			},
			{
				"x": -1.4951563764,
				"y": -0.0832011293,
				"z": 0.7289630518,
				"element": "C" 
			},
			{
				"x": -2.7934547641,
				"y": -0.1083473983,
				"z": 1.506758233,
				"element": "C" 
			},
			{
				"x": -0.7552170469,
				"y": 1.1252074231,
				"z": 0.6779681838,
				"element": "C" 
			},
			{
				"x": -1.2760789224,
				"y": 2.3329437558,
				"z": 1.4287259526,
				"element": "C" 
			},
			{
				"x": 0.4427475449,
				"y": 1.2063609901,
				"z": -0.0552559259,
				"element": "C" 
			},
			{
				"x": 1.2476821436,
				"y": 2.4852669092,
				"z": -0.1267244614,
				"element": "C" 
			},
			{
				"x": 0.864550676,
				"y": 0.0454667688,
				"z": -0.7312867867,
				"element": "C" 
			},
			{
				"x": 0.1323371725,
				"y": -1.148727505,
				"z": -0.675323275,
				"element": "C" 
			},
			{
				"x": 0.786179865,
				"y": -2.2531090894,
				"z": -1.4898620977,
				"element": "C" 
			},
			{
				"x": 2.0807566888,
				"y": -1.6068503652,
				"z": -2.0540952586,
				"element": "C" 
			},
			{
				"x": 2.0812172319,
				"y": -0.153615601,
				"z": -1.552624976,
				"element": "C" 
			},
			{
				"x": 2.9716219885,
				"y": 0.6358948816,
				"z": -1.8184171358,
				"element": "O" 
			},
			{
				"x": -0.1014126923,
				"y": -2.7989407182,
				"z": -2.615737716,
				"element": "C" 
			},
			{
				"x": 0.4498867354,
				"y": -3.8316084509,
				"z": -3.3134792236,
				"element": "O" 
			},
			{
				"x": -1.1941020359,
				"y": -2.3900992587,
				"z": -2.9120586852,
				"element": "O" 
			},
			{
				"x": -2.1227034478,
				"y": -2.7552097476,
				"z": 1.1997984287,
				"element": "H" 
			},
			{
				"x": -1.1767981067,
				"y": -3.4008489736,
				"z": -0.1338290892,
				"element": "H" 
			},
			{
				"x": -2.6806428611,
				"y": -2.5620382746,
				"z": -0.4706658582,
				"element": "H" 
			},
			{
				"x": -3.4121583626,
				"y": -0.9676698201,
				"z": 1.2490193322,
				"element": "H" 
			},
			{
				"x": -3.3870208099,
				"y": 0.7903939457,
				"z": 1.3169060858,
				"element": "H" 
			},
			{
				"x": -2.6133016094,
				"y": -0.1441499939,
				"z": 2.5897254559,
				"element": "H" 
			},
			{
				"x": -2.1724735618,
				"y": 2.7474791238,
				"z": 0.9493897203,
				"element": "H" 
			},
			{
				"x": -1.5573058938,
				"y": 2.0776834045,
				"z": 2.4556556046,
				"element": "H" 
			},
			{
				"x": -0.5384833953,
				"y": 3.13304732,
				"z": 1.4803521956,
				"element": "H" 
			},
			{
				"x": 2.1181759058,
				"y": 2.358841982,
				"z": -0.7675345771,
				"element": "H" 
			},
			{
				"x": 1.5969881558,
				"y": 2.7896053154,
				"z": 0.867267077,
				"element": "H" 
			},
			{
				"x": 0.6429459995,
				"y": 3.3104328717,
				"z": -0.5195896367,
				"element": "H" 
			},
			{
				"x": 1.0382816992,
				"y": -3.1068136343,
				"z": -0.8441779748,
				"element": "H" 
			},
			{
				"x": 2.9936115344,
				"y": -2.1004749797,
				"z": -1.705594473,
				"element": "H" 
			},
			{
				"x": 2.1190605246,
				"y": -1.5977881798,
				"z": -3.1483005326,
				"element": "H" 
			},
			{
				"x": 1.329961826,
				"y": -4.0395494912,
				"z": -2.9681901454,
				"element": "H" 
			}
		],
		 "valence_orbital": [ 
			{
				"type": "occ",
				"energy": -0.32041,
				"method": "rhf"
			},
			{
				"type": "occ",
				"energy": -0.27658,
				"method": "rhf"
			},
			{
				"type": "occ",
				"energy": -0.24376,
				"method": "rhf"
			},
			{
				"type": "occ",
				"energy": -0.24334,
				"method": "rhf"
			},
			{
				"type": "occ",
				"energy": -0.23593,
				"method": "rhf"
			},
			{
				"type": "unocc",
				"energy": -0.05295,
				"method": "rhf"
			},
			{
				"type": "unocc",
				"energy": -0.00929,
				"method": "rhf"
			},
			{
				"type": "unocc",
				"energy": 0.0028,
				"method": "rhf"
			},
			{
				"type": "unocc",
				"energy": 0.04194,
				"method": "rhf"
			},
			{
				"type": "unocc",
				"energy": 0.05014,
				"method": "rhf"
			}
		],
		"cosmo_sigma_profile": { 
			"-0.025": 0.0,
			"-0.024": 0.0,
			"-0.023": 0.0,
			"-0.022": 0.0,
			"-0.021": 0.0,
			"-0.02": 0.0,
			"-0.019": 0.433880275371,
			"-0.018": 1.01801020857,
			"-0.017": 0.91885539561,
			"-0.016": 1.34824100346,
			"-0.015": 0.873055933362,
			"-0.014": 0.922291282831,
			"-0.013": 0.864187909293,
			"-0.012": 1.37351197538,
			"-0.011": 1.73630230745,
			"-0.01": 1.03355057309,
			"-0.009": 1.81359301531,
			"-0.008": 4.48098235773,
			"-0.007": 8.04894599563,
			"-0.006": 8.22094914348,
			"-0.005": 8.20095975154,
			"-0.004": 23.3397551378,
			"-0.003": 25.3435021583,
			"-0.002": 25.7210211708,
			"-0.001": 23.2022616357,
			"0.0": 26.5978128108,
			"0.001": 20.9002894498,
			"0.002": 9.94566055264,
			"0.003": 9.37286644248,
			"0.004": 10.6631070433,
			"0.005": 6.69822267574,
			"0.006": 4.82592930393,
			"0.007": 4.26790089671,
			"0.008": 4.68428304551,
			"0.009": 5.56382324862,
			"0.01": 7.52046917567,
			"0.011": 7.68832225264,
			"0.012": 8.03747177918,
			"0.013": 2.68973718658,
			"0.014": 0.237088248626,
			"0.015": 0.0,
			"0.016": 0.0,
			"0.017": 0.0,
			"0.018": 0.0,
			"0.019": 0.0,
			"0.02": 0.0,
			"0.021": 0.0,
			"0.022": 0.0,
			"0.023": 0.0,
			"0.024": 0.0,
			"0.025": 0.0
		}
	}
}
