{
	 "smiles": "C[C@@H]1[C@H](O)CC[C@@]2(C)[C@H]1CC[C@@]1(C)C2[C@H](O)C[C@H]2C([C@H](C[C@]12C)OC(C)=O)=C(CCC=C(C)C)C(O)=O", 
	 "Tm": 465.15, 
	 "num_atms": 85, 
	 "gaussian": { 
		 "optdone": 1, 
		 "sigma_profile": "yes", 
		 "theory": "DFT", 
		 "functional": "B3LYP", 
		 "basiset": "6-31G**", 
		 "properties": { 
			 "R2extent": 25215.8585, 
			 "electric_dipole_moment_norm": 3.9692051761, 
			 "electric_quadrupole_moment_norm": 22.5590706234, 
			 "total_energy": -1661.56015783, 
			 "HOMO_LUMO_gap": 0.17702, 
			 "cosmo_polarized_energy": -19.81, 
			 "cosmo_cavitation_energy": 72.1, 
			 "cosmo_dispersion_energy": -46.97, 
			 "cosmo_repulsion_energy": 3.4, 
			 "cosmo_total_nonelectrostatic_energy": 28.54, 
			 "SMD_solvation_energy": 12.82 
		},
		"coords": [
			{
				"x": -0.1342897446,
				"y": -6.2548744647,
				"z": -2.7843391207,
				"element": "C" 
			},
			{
				"x": 1.0852061359,
				"y": -5.4585916012,
				"z": -2.2910262453,
				"element": "C" 
			},
			{
				"x": 1.9105874501,
				"y": -6.2780724273,
				"z": -1.2303137085,
				"element": "C" 
			},
			{
				"x": 1.7213056063,
				"y": -7.6903804072,
				"z": -1.3273892287,
				"element": "O" 
			},
			{
				"x": 1.6413874762,
				"y": -5.7772838538,
				"z": 0.1928423054,
				"element": "C" 
			},
			{
				"x": 1.9869928984,
				"y": -4.2836716627,
				"z": 0.4131641876,
				"element": "C" 
			},
			{
				"x": 1.769870586,
				"y": -3.4034715675,
				"z": -0.8589828498,
				"element": "C" 
			},
			{
				"x": 3.0973390723,
				"y": -3.347138014,
				"z": -1.6639147678,
				"element": "C" 
			},
			{
				"x": 0.6486756237,
				"y": -4.0881984647,
				"z": -1.7035789703,
				"element": "C" 
			},
			{
				"x": 0.0547350716,
				"y": -3.089634796,
				"z": -2.7030085017,
				"element": "C" 
			},
			{
				"x": -0.780859117,
				"y": -2.032873386,
				"z": -1.9545180915,
				"element": "C" 
			},
			{
				"x": -0.1472353325,
				"y": -1.5123212514,
				"z": -0.610701941,
				"element": "C" 
			},
			{
				"x": -0.9203325513,
				"y": -2.1698545581,
				"z": 0.5613528084,
				"element": "C" 
			},
			{
				"x": 1.3888360728,
				"y": -1.8854813602,
				"z": -0.5842338088,
				"element": "C" 
			},
			{
				"x": 2.1951298867,
				"y": -1.2135336688,
				"z": 0.5585245145,
				"element": "C" 
			},
			{
				"x": 1.8220720433,
				"y": -1.7432601631,
				"z": 1.837555086,
				"element": "O" 
			},
			{
				"x": 2.0087115619,
				"y": 0.3167660392,
				"z": 0.5719086681,
				"element": "C" 
			},
			{
				"x": 0.5094868244,
				"y": 0.5886411596,
				"z": 0.728217333,
				"element": "C" 
			},
			{
				"x": -0.0645801822,
				"y": 1.968782726,
				"z": 1.012926603,
				"element": "C" 
			},
			{
				"x": -1.3970515578,
				"y": 2.0783552524,
				"z": 0.2679046643,
				"element": "C" 
			},
			{
				"x": -1.6551825788,
				"y": 0.6687123947,
				"z": -0.2954454662,
				"element": "C" 
			},
			{
				"x": -0.249599774,
				"y": 0.0724846086,
				"z": -0.536788885,
				"element": "C" 
			},
			{
				"x": 0.3165169234,
				"y": 0.7571418344,
				"z": -1.816750765,
				"element": "C" 
			},
			{
				"x": -1.3036957004,
				"y": 3.0972590361,
				"z": -0.7685518416,
				"element": "O" 
			},
			{
				"x": -2.4796160151,
				"y": 3.6533929746,
				"z": -1.1619207826,
				"element": "C" 
			},
			{
				"x": -2.2437320626,
				"y": 4.7612867472,
				"z": -2.1591309108,
				"element": "C" 
			},
			{
				"x": -3.5601789595,
				"y": 3.314906215,
				"z": -0.7314748242,
				"element": "O" 
			},
			{
				"x": 0.3448287168,
				"y": 2.9226719147,
				"z": 1.8845371193,
				"element": "C" 
			},
			{
				"x": -0.3150684456,
				"y": 4.2891363792,
				"z": 1.9739984528,
				"element": "C" 
			},
			{
				"x": 0.424346763,
				"y": 5.3726720549,
				"z": 1.1511181933,
				"element": "C" 
			},
			{
				"x": -0.2798074455,
				"y": 6.7060475485,
				"z": 1.2118212351,
				"element": "C" 
			},
			{
				"x": -0.3012627045,
				"y": 7.6717057272,
				"z": 0.2791689677,
				"element": "C" 
			},
			{
				"x": 0.4208000175,
				"y": 7.593102426,
				"z": -1.0446964338,
				"element": "C" 
			},
			{
				"x": -1.0453123457,
				"y": 8.9646068539,
				"z": 0.5159471977,
				"element": "C" 
			},
			{
				"x": 1.4351267639,
				"y": 2.6498715037,
				"z": 2.8599271671,
				"element": "C" 
			},
			{
				"x": 1.9693394289,
				"y": 3.7851479154,
				"z": 3.3821117742,
				"element": "O" 
			},
			{
				"x": 1.8090818229,
				"y": 1.5553009942,
				"z": 3.2513689164,
				"element": "O" 
			},
			{
				"x": -0.8471079505,
				"y": -6.4475537317,
				"z": -1.9708641449,
				"element": "H" 
			},
			{
				"x": 0.1731829336,
				"y": -7.2165192765,
				"z": -3.2004705542,
				"element": "H" 
			},
			{
				"x": -0.6777714534,
				"y": -5.7105693619,
				"z": -3.5612515357,
				"element": "H" 
			},
			{
				"x": 1.7330100478,
				"y": -5.2864134321,
				"z": -3.1608238917,
				"element": "H" 
			},
			{
				"x": 2.9765287497,
				"y": -6.1601858848,
				"z": -1.4450077423,
				"element": "H" 
			},
			{
				"x": 0.832084087,
				"y": -7.8904081196,
				"z": -1.0060287344,
				"element": "H" 
			},
			{
				"x": 0.5776936903,
				"y": -5.9483593198,
				"z": 0.4179663196,
				"element": "H" 
			},
			{
				"x": 2.2017151813,
				"y": -6.4020755273,
				"z": 0.8962588564,
				"element": "H" 
			},
			{
				"x": 1.3951133451,
				"y": -3.9044196393,
				"z": 1.2453465621,
				"element": "H" 
			},
			{
				"x": 3.0309870469,
				"y": -4.1939502354,
				"z": 0.7355799783,
				"element": "H" 
			},
			{
				"x": 3.8416915118,
				"y": -2.7479906233,
				"z": -1.1295219958,
				"element": "H" 
			},
			{
				"x": 2.9571690372,
				"y": -2.8898342365,
				"z": -2.6495386386,
				"element": "H" 
			},
			{
				"x": 3.5441312951,
				"y": -4.3302073241,
				"z": -1.8182335364,
				"element": "H" 
			},
			{
				"x": -0.1663852522,
				"y": -4.3283517111,
				"z": -1.0085131771,
				"element": "H" 
			},
			{
				"x": 0.8558803461,
				"y": -2.6131669804,
				"z": -3.2829983583,
				"element": "H" 
			},
			{
				"x": -0.5869332588,
				"y": -3.5884442342,
				"z": -3.4367600363,
				"element": "H" 
			},
			{
				"x": -0.9895774874,
				"y": -1.2045365276,
				"z": -2.6356366185,
				"element": "H" 
			},
			{
				"x": -1.756859489,
				"y": -2.4751575473,
				"z": -1.7219669531,
				"element": "H" 
			},
			{
				"x": -1.9929943498,
				"y": -1.965861335,
				"z": 0.4846529101,
				"element": "H" 
			},
			{
				"x": -0.8097094468,
				"y": -3.2553696069,
				"z": 0.5325513997,
				"element": "H" 
			},
			{
				"x": -0.5660073373,
				"y": -1.8511244541,
				"z": 1.5411748605,
				"element": "H" 
			},
			{
				"x": 1.7919772227,
				"y": -1.3789093762,
				"z": -1.4674612729,
				"element": "H" 
			},
			{
				"x": 3.2616041432,
				"y": -1.4254135633,
				"z": 0.3854477759,
				"element": "H" 
			},
			{
				"x": 2.1377738922,
				"y": -1.12617883,
				"z": 2.5127434334,
				"element": "H" 
			},
			{
				"x": 2.5945149237,
				"y": 0.7282970171,
				"z": 1.3939923405,
				"element": "H" 
			},
			{
				"x": 2.3998027369,
				"y": 0.7578758978,
				"z": -0.3502540364,
				"element": "H" 
			},
			{
				"x": 0.1882432785,
				"y": -0.0226310872,
				"z": 1.5809073881,
				"element": "H" 
			},
			{
				"x": -2.2041092825,
				"y": 2.3848870444,
				"z": 0.9365190669,
				"element": "H" 
			},
			{
				"x": -2.1931970502,
				"y": 0.1073749327,
				"z": 0.4739947254,
				"element": "H" 
			},
			{
				"x": -2.2933743416,
				"y": 0.6996357601,
				"z": -1.1819479528,
				"element": "H" 
			},
			{
				"x": 1.2138797332,
				"y": 0.2770787341,
				"z": -2.2105138818,
				"element": "H" 
			},
			{
				"x": 0.5656308259,
				"y": 1.8028326669,
				"z": -1.6216316105,
				"element": "H" 
			},
			{
				"x": -0.4249790818,
				"y": 0.7614700562,
				"z": -2.6199980199,
				"element": "H" 
			},
			{
				"x": -1.9070351418,
				"y": 5.6524520324,
				"z": -1.6185405413,
				"element": "H" 
			},
			{
				"x": -3.1765384797,
				"y": 4.9885355513,
				"z": -2.6751471443,
				"element": "H" 
			},
			{
				"x": -1.4642566499,
				"y": 4.4882102661,
				"z": -2.8738128396,
				"element": "H" 
			},
			{
				"x": -1.3486330806,
				"y": 4.2271387323,
				"z": 1.6236438515,
				"element": "H" 
			},
			{
				"x": -0.3562824584,
				"y": 4.611808559,
				"z": 3.0197539439,
				"element": "H" 
			},
			{
				"x": 0.5185659781,
				"y": 5.0203494617,
				"z": 0.1193613869,
				"element": "H" 
			},
			{
				"x": 1.443723762,
				"y": 5.466237063,
				"z": 1.5478053835,
				"element": "H" 
			},
			{
				"x": -0.8132630561,
				"y": 6.9028322052,
				"z": 2.1434954686,
				"element": "H" 
			},
			{
				"x": -0.2641132517,
				"y": 7.7912087254,
				"z": -1.8797887471,
				"element": "H" 
			},
			{
				"x": 0.8976533653,
				"y": 6.6262108287,
				"z": -1.2168605289,
				"element": "H" 
			},
			{
				"x": 1.2021644416,
				"y": 8.3628771047,
				"z": -1.1007301745,
				"element": "H" 
			},
			{
				"x": -1.5435241048,
				"y": 8.976324297,
				"z": 1.4892410221,
				"element": "H" 
			},
			{
				"x": -1.8064606011,
				"y": 9.1319151347,
				"z": -0.257925347,
				"element": "H" 
			},
			{
				"x": -0.3655209,
				"y": 9.8261576701,
				"z": 0.4716147606,
				"element": "H" 
			},
			{
				"x": 2.6148397016,
				"y": 3.4896715657,
				"z": 4.0455485296,
				"element": "H" 
			}
		],
		 "valence_orbital": [ 
			{
				"type": "occ",
				"energy": -0.26394,
				"method": "rhf"
			},
			{
				"type": "occ",
				"energy": -0.25848,
				"method": "rhf"
			},
			{
				"type": "occ",
				"energy": -0.24847,
				"method": "rhf"
			},
			{
				"type": "occ",
				"energy": -0.24598,
				"method": "rhf"
			},
			{
				"type": "occ",
				"energy": -0.23147,
				"method": "rhf"
			},
			{
				"type": "unocc",
				"energy": -0.05445,
				"method": "rhf"
			},
			{
				"type": "unocc",
				"energy": 0.00783,
				"method": "rhf"
			},
			{
				"type": "unocc",
				"energy": 0.02618,
				"method": "rhf"
			},
			{
				"type": "unocc",
				"energy": 0.05552,
				"method": "rhf"
			},
			{
				"type": "unocc",
				"energy": 0.06971,
				"method": "rhf"
			}
		],
		"cosmo_sigma_profile": { 
			"-0.025": 0.0,
			"-0.024": 0.0,
			"-0.023": 0.0,
			"-0.022": 0.0,
			"-0.021": 0.0,
			"-0.02": 0.0,
			"-0.019": 0.0,
			"-0.018": 0.378627936625,
			"-0.017": 0.987971608326,
			"-0.016": 0.549042305801,
			"-0.015": 0.857116529627,
			"-0.014": 1.04644066585,
			"-0.013": 2.19138016582,
			"-0.012": 0.848615330781,
			"-0.011": 1.68177259364,
			"-0.01": 2.54585613753,
			"-0.009": 2.48319648468,
			"-0.008": 1.74871804374,
			"-0.007": 3.15512420656,
			"-0.006": 6.00050700478,
			"-0.005": 11.398808566,
			"-0.004": 24.6433959472,
			"-0.003": 63.0196063729,
			"-0.002": 74.3585209808,
			"-0.001": 81.6062979382,
			"0.0": 78.7306560144,
			"0.001": 63.6838066149,
			"0.002": 38.680779534,
			"0.003": 17.0764411604,
			"0.004": 13.3051587112,
			"0.005": 12.0655400699,
			"0.006": 9.45809310253,
			"0.007": 6.03784495119,
			"0.008": 5.7453492069,
			"0.009": 6.35622690558,
			"0.01": 6.75914717084,
			"0.011": 6.47623045057,
			"0.012": 6.3730802761,
			"0.013": 2.45222269313,
			"0.014": 1.99756706223,
			"0.015": 1.7493869667,
			"0.016": 0.0242061326352,
			"0.017": 0.0,
			"0.018": 0.0,
			"0.019": 0.0,
			"0.02": 0.0,
			"0.021": 0.0,
			"0.022": 0.0,
			"0.023": 0.0,
			"0.024": 0.0,
			"0.025": 0.0
		}
	}
}
