{
	 "smiles": "CC1CC(=O)OC1=O", 
	 "Tm": 307.15, 
	 "num_atms": 14, 
	 "gaussian": { 
		 "optdone": 1, 
		 "sigma_profile": "yes", 
		 "theory": "DFT", 
		 "functional": "B3LYP", 
		 "basiset": "6-31G**", 
		 "properties": { 
			 "R2extent": 1610.4247, 
			 "electric_dipole_moment_norm": 4.45302078818, 
			 "electric_quadrupole_moment_norm": 13.4167830943, 
			 "total_energy": -419.840000114, 
			 "HOMO_LUMO_gap": 0.25183, 
			 "cosmo_polarized_energy": -12.38, 
			 "cosmo_cavitation_energy": 18.16, 
			 "cosmo_dispersion_energy": -13.54, 
			 "cosmo_repulsion_energy": 1.15, 
			 "cosmo_total_nonelectrostatic_energy": 5.78, 
			 "SMD_solvation_energy": 5.29 
		},
		"coords": [
			{
				"x": 0.4638644546,
				"y": 0.1890308152,
				"z": -1.3195956487,
				"element": "C" 
			},
			{
				"x": 1.392227189,
				"y": -0.6876559244,
				"z": -0.4765952381,
				"element": "C" 
			},
			{
				"x": 1.7546809371,
				"y": -0.1736650857,
				"z": 0.922773312,
				"element": "C" 
			},
			{
				"x": 1.7087413852,
				"y": -1.4083847442,
				"z": 1.8072682876,
				"element": "C" 
			},
			{
				"x": 2.0958041794,
				"y": -1.5535544853,
				"z": 2.9295443108,
				"element": "O" 
			},
			{
				"x": 1.0863083703,
				"y": -2.4406749227,
				"z": 1.1111473203,
				"element": "O" 
			},
			{
				"x": 0.7917393069,
				"y": -2.0629480406,
				"z": -0.1935445607,
				"element": "C" 
			},
			{
				"x": 0.1697293348,
				"y": -2.7743068534,
				"z": -0.928474148,
				"element": "O" 
			},
			{
				"x": 0.9542414731,
				"y": 1.130742794,
				"z": -1.5812690922,
				"element": "H" 
			},
			{
				"x": 0.1893987116,
				"y": -0.3294742107,
				"z": -2.2411128396,
				"element": "H" 
			},
			{
				"x": -0.4568452624,
				"y": 0.4220955396,
				"z": -0.7749935798,
				"element": "H" 
			},
			{
				"x": 2.3117689347,
				"y": -0.8838756109,
				"z": -1.0450618177,
				"element": "H" 
			},
			{
				"x": 2.731733958,
				"y": 0.3067333027,
				"z": 1.0033181806,
				"element": "H" 
			},
			{
				"x": 1.0090070276,
				"y": 0.5362374264,
				"z": 1.3010955134,
				"element": "H" 
			}
		],
		 "valence_orbital": [ 
			{
				"type": "occ",
				"energy": -0.38477,
				"method": "rhf"
			},
			{
				"type": "occ",
				"energy": -0.36616,
				"method": "rhf"
			},
			{
				"type": "occ",
				"energy": -0.33413,
				"method": "rhf"
			},
			{
				"type": "occ",
				"energy": -0.3087,
				"method": "rhf"
			},
			{
				"type": "occ",
				"energy": -0.2835,
				"method": "rhf"
			},
			{
				"type": "unocc",
				"energy": -0.03167,
				"method": "rhf"
			},
			{
				"type": "unocc",
				"energy": -0.00755,
				"method": "rhf"
			},
			{
				"type": "unocc",
				"energy": 0.071,
				"method": "rhf"
			},
			{
				"type": "unocc",
				"energy": 0.10766,
				"method": "rhf"
			},
			{
				"type": "unocc",
				"energy": 0.11192,
				"method": "rhf"
			}
		],
		"cosmo_sigma_profile": { 
			"-0.025": 0.0,
			"-0.024": 0.0,
			"-0.023": 0.0,
			"-0.022": 0.0,
			"-0.021": 0.0,
			"-0.02": 0.0,
			"-0.019": 0.0,
			"-0.018": 0.0,
			"-0.017": 0.0,
			"-0.016": 0.0,
			"-0.015": 0.0,
			"-0.014": 0.0,
			"-0.013": 0.0,
			"-0.012": 0.00479030370308,
			"-0.011": 1.1773154476,
			"-0.01": 2.50763886552,
			"-0.009": 3.78727194877,
			"-0.008": 9.38508481734,
			"-0.007": 8.80811919943,
			"-0.006": 6.69891075726,
			"-0.005": 9.88652689892,
			"-0.004": 12.3599226379,
			"-0.003": 8.90073845941,
			"-0.002": 7.92686699975,
			"-0.001": 8.10956716689,
			"0.0": 7.9155272731,
			"0.001": 2.72275250474,
			"0.002": 2.65530624768,
			"0.003": 3.6636474221,
			"0.004": 4.02187419529,
			"0.005": 3.41319275326,
			"0.006": 5.27399959805,
			"0.007": 6.43246775723,
			"0.008": 5.9491056254,
			"0.009": 6.29518841886,
			"0.01": 10.9803977483,
			"0.011": 4.92975658974,
			"0.012": 0.0569441127561,
			"0.013": 0.0,
			"0.014": 0.0,
			"0.015": 0.0,
			"0.016": 0.0,
			"0.017": 0.0,
			"0.018": 0.0,
			"0.019": 0.0,
			"0.02": 0.0,
			"0.021": 0.0,
			"0.022": 0.0,
			"0.023": 0.0,
			"0.024": 0.0,
			"0.025": 0.0
		}
	}
}
