{
	 "smiles": "ClS(=O)(=O)C12CC3CC(CC(C3)C1)C2", 
	 "Tm": 395.15, 
	 "num_atms": 29, 
	 "gaussian": { 
		 "optdone": 1, 
		 "sigma_profile": "yes", 
		 "theory": "DFT", 
		 "functional": "B3LYP", 
		 "basiset": "6-31G**", 
		 "properties": { 
			 "R2extent": 4352.0751, 
			 "electric_dipole_moment_norm": 5.71494790352, 
			 "electric_quadrupole_moment_norm": 16.3038768727, 
			 "total_energy": -1398.90607789, 
			 "HOMO_LUMO_gap": 0.22043, 
			 "cosmo_polarized_energy": -8.64, 
			 "cosmo_cavitation_energy": 29.98, 
			 "cosmo_dispersion_energy": -22.98, 
			 "cosmo_repulsion_energy": 1.71, 
			 "cosmo_total_nonelectrostatic_energy": 8.71, 
			 "SMD_solvation_energy": 2.35 
		},
		"coords": [
			{
				"x": -2.5613523538,
				"y": -0.7857301258,
				"z": 2.7507297483,
				"element": "Cl" 
			},
			{
				"x": -0.8176051319,
				"y": -2.0452215299,
				"z": 2.5576786401,
				"element": "S" 
			},
			{
				"x": -0.2564012489,
				"y": -2.1710906817,
				"z": 3.9006670206,
				"element": "O" 
			},
			{
				"x": -1.247160309,
				"y": -3.2216879934,
				"z": 1.8054688523,
				"element": "O" 
			},
			{
				"x": 0.3148667795,
				"y": -1.0081177829,
				"z": 1.5021559809,
				"element": "C" 
			},
			{
				"x": 1.5923426904,
				"y": -1.8670783335,
				"z": 1.3318308412,
				"element": "C" 
			},
			{
				"x": 2.5917343502,
				"y": -1.0705331488,
				"z": 0.4598269776,
				"element": "C" 
			},
			{
				"x": 1.9596971879,
				"y": -0.7858851174,
				"z": -0.9174628879,
				"element": "C" 
			},
			{
				"x": 0.6760403733,
				"y": 0.0482688567,
				"z": -0.7311227828,
				"element": "C" 
			},
			{
				"x": 1.0192585666,
				"y": 1.3799463123,
				"z": -0.0321625895,
				"element": "C" 
			},
			{
				"x": 1.6546473945,
				"y": 1.0927365169,
				"z": 1.3439616577,
				"element": "C" 
			},
			{
				"x": 2.9388685995,
				"y": 0.2592664584,
				"z": 1.1586923897,
				"element": "C" 
			},
			{
				"x": 0.6508825089,
				"y": 0.3073984108,
				"z": 2.223093611,
				"element": "C" 
			},
			{
				"x": -0.3345851875,
				"y": -0.743685724,
				"z": 0.1340666184,
				"element": "C" 
			},
			{
				"x": 1.341134136,
				"y": -2.8198435535,
				"z": 0.8543362564,
				"element": "H" 
			},
			{
				"x": 2.0283356214,
				"y": -2.0868624772,
				"z": 2.3118355916,
				"element": "H" 
			},
			{
				"x": 3.4974785047,
				"y": -1.6763875631,
				"z": 0.3375208566,
				"element": "H" 
			},
			{
				"x": 2.6718539963,
				"y": -0.2426763421,
				"z": -1.5509612002,
				"element": "H" 
			},
			{
				"x": 1.7286843858,
				"y": -1.7277955581,
				"z": -1.4307996153,
				"element": "H" 
			},
			{
				"x": 0.2153239554,
				"y": 0.2466747748,
				"z": -1.7058832442,
				"element": "H" 
			},
			{
				"x": 1.7145685326,
				"y": 1.9597537349,
				"z": -0.6517890024,
				"element": "H" 
			},
			{
				"x": 0.1144410386,
				"y": 1.988994521,
				"z": 0.0880840123,
				"element": "H" 
			},
			{
				"x": 1.8920350199,
				"y": 2.0361162575,
				"z": 1.8493971663,
				"element": "H" 
			},
			{
				"x": 3.4087794584,
				"y": 0.0652585482,
				"z": 2.1311289834,
				"element": "H" 
			},
			{
				"x": 3.6665027948,
				"y": 0.8189019188,
				"z": 0.5579158886,
				"element": "H" 
			},
			{
				"x": -0.2578187703,
				"y": 0.8977092638,
				"z": 2.3777961128,
				"element": "H" 
			},
			{
				"x": 1.0820306155,
				"y": 0.0963529597,
				"z": 3.2068369282,
				"element": "H" 
			},
			{
				"x": -1.2578729042,
				"y": -0.1687752659,
				"z": 0.257611072,
				"element": "H" 
			},
			{
				"x": -0.5950106044,
				"y": -1.6918073365,
				"z": -0.3469538838,
				"element": "H" 
			}
		],
		 "valence_orbital": [ 
			{
				"type": "occ",
				"energy": -0.3237,
				"method": "rhf"
			},
			{
				"type": "occ",
				"energy": -0.30607,
				"method": "rhf"
			},
			{
				"type": "occ",
				"energy": -0.30524,
				"method": "rhf"
			},
			{
				"type": "occ",
				"energy": -0.30501,
				"method": "rhf"
			},
			{
				"type": "occ",
				"energy": -0.2984,
				"method": "rhf"
			},
			{
				"type": "unocc",
				"energy": -0.07797,
				"method": "rhf"
			},
			{
				"type": "unocc",
				"energy": 0.03484,
				"method": "rhf"
			},
			{
				"type": "unocc",
				"energy": 0.06077,
				"method": "rhf"
			},
			{
				"type": "unocc",
				"energy": 0.07377,
				"method": "rhf"
			},
			{
				"type": "unocc",
				"energy": 0.08056,
				"method": "rhf"
			}
		],
		"cosmo_sigma_profile": { 
			"-0.025": 0.0,
			"-0.024": 0.0,
			"-0.023": 0.0,
			"-0.022": 0.0,
			"-0.021": 0.0,
			"-0.02": 0.0,
			"-0.019": 0.0,
			"-0.018": 0.0,
			"-0.017": 0.0,
			"-0.016": 0.0,
			"-0.015": 0.0,
			"-0.014": 0.0,
			"-0.013": 0.0,
			"-0.012": 0.0,
			"-0.011": 0.0,
			"-0.01": 0.0,
			"-0.009": 0.0,
			"-0.008": 0.0,
			"-0.007": 0.0,
			"-0.006": 0.0,
			"-0.005": 3.65363692918,
			"-0.004": 21.3265469082,
			"-0.003": 40.7133874624,
			"-0.002": 43.6932165774,
			"-0.001": 31.4511702688,
			"0.0": 20.3320632138,
			"0.001": 11.841711826,
			"0.002": 7.78435841059,
			"0.003": 9.58595408122,
			"0.004": 11.9238000817,
			"0.005": 6.0555709432,
			"0.006": 3.23356453957,
			"0.007": 3.43209704946,
			"0.008": 8.13274717126,
			"0.009": 9.64027883489,
			"0.01": 1.72040123022,
			"0.011": 0.0,
			"0.012": 0.0,
			"0.013": 0.0,
			"0.014": 0.0,
			"0.015": 0.0,
			"0.016": 0.0,
			"0.017": 0.0,
			"0.018": 0.0,
			"0.019": 0.0,
			"0.02": 0.0,
			"0.021": 0.0,
			"0.022": 0.0,
			"0.023": 0.0,
			"0.024": 0.0,
			"0.025": 0.0
		}
	}
}
