{
	 "smiles": "COC1=CC=C(OC2=CC=C(C=C2[N+]([O-])=O)C(F)(F)F)C=C1", 
	 "Tm": 319.15, 
	 "num_atms": 32, 
	 "gaussian": { 
		 "optdone": 1, 
		 "sigma_profile": "yes", 
		 "theory": "DFT", 
		 "functional": "B3LYP", 
		 "basiset": "6-31G**", 
		 "properties": { 
			 "R2extent": 13546.4219, 
			 "electric_dipole_moment_norm": 6.81210633358, 
			 "electric_quadrupole_moment_norm": 13.400428223, 
			 "total_energy": -1194.55783407, 
			 "HOMO_LUMO_gap": 0.148, 
			 "cosmo_polarized_energy": -13.29, 
			 "cosmo_cavitation_energy": 39.73, 
			 "cosmo_dispersion_energy": -27.54, 
			 "cosmo_repulsion_energy": 2.04, 
			 "cosmo_total_nonelectrostatic_energy": 14.24, 
			 "SMD_solvation_energy": 11.18 
		},
		"coords": [
			{
				"x": 2.8239575122,
				"y": 3.7497841948,
				"z": 0.2321454051,
				"element": "C" 
			},
			{
				"x": 2.6068460792,
				"y": 3.0344247579,
				"z": -0.9751957345,
				"element": "O" 
			},
			{
				"x": 1.7600196352,
				"y": 1.9677926961,
				"z": -0.9519642332,
				"element": "C" 
			},
			{
				"x": 1.0662433723,
				"y": 1.5249598881,
				"z": 0.1814147077,
				"element": "C" 
			},
			{
				"x": 0.2205528125,
				"y": 0.4154720974,
				"z": 0.088388069,
				"element": "C" 
			},
			{
				"x": 0.0718556413,
				"y": -0.2405599728,
				"z": -1.126856837,
				"element": "C" 
			},
			{
				"x": -0.7053735222,
				"y": -1.4012938852,
				"z": -1.1827528157,
				"element": "O" 
			},
			{
				"x": -1.9809576724,
				"y": -1.3423545907,
				"z": -1.6292708171,
				"element": "C" 
			},
			{
				"x": -2.6143012388,
				"y": -0.1403877005,
				"z": -1.9867205288,
				"element": "C" 
			},
			{
				"x": -3.9167185106,
				"y": -0.1380613407,
				"z": -2.4664474202,
				"element": "C" 
			},
			{
				"x": -4.6231135667,
				"y": -1.3362864981,
				"z": -2.6200906815,
				"element": "C" 
			},
			{
				"x": -4.0098649794,
				"y": -2.5366157107,
				"z": -2.2823432322,
				"element": "C" 
			},
			{
				"x": -2.7105109951,
				"y": -2.5428580658,
				"z": -1.7794207754,
				"element": "C" 
			},
			{
				"x": -2.1490353754,
				"y": -3.8520224486,
				"z": -1.4161223285,
				"element": "N" 
			},
			{
				"x": -2.6153151836,
				"y": -4.8358747222,
				"z": -1.9946200413,
				"element": "O" 
			},
			{
				"x": -1.2803054386,
				"y": -3.8922728045,
				"z": -0.5507127781,
				"element": "O" 
			},
			{
				"x": -6.0491201034,
				"y": -1.3138860594,
				"z": -3.0956712302,
				"element": "C" 
			},
			{
				"x": -6.421944785,
				"y": -2.4962036483,
				"z": -3.6271475586,
				"element": "F" 
			},
			{
				"x": -6.2406777515,
				"y": -0.3600176307,
				"z": -4.0349203938,
				"element": "F" 
			},
			{
				"x": -6.90824311,
				"y": -1.0428322647,
				"z": -2.0857920082,
				"element": "F" 
			},
			{
				"x": 0.7651619331,
				"y": 0.1873768773,
				"z": -2.261664095,
				"element": "C" 
			},
			{
				"x": 1.6040654769,
				"y": 1.2906108087,
				"z": -2.1728950265,
				"element": "C" 
			},
			{
				"x": 3.2586028259,
				"y": 3.108322128,
				"z": 1.0092546562,
				"element": "H" 
			},
			{
				"x": 1.8951910461,
				"y": 4.1953774665,
				"z": 0.6109608329,
				"element": "H" 
			},
			{
				"x": 3.5291503249,
				"y": 4.5450971724,
				"z": -0.0126038764,
				"element": "H" 
			},
			{
				"x": 1.1770744334,
				"y": 2.0248617708,
				"z": 1.1358212399,
				"element": "H" 
			},
			{
				"x": -0.312876931,
				"y": 0.0519829697,
				"z": 0.960466804,
				"element": "H" 
			},
			{
				"x": -2.0678385407,
				"y": 0.7890650099,
				"z": -1.8875224067,
				"element": "H" 
			},
			{
				"x": -4.3853431591,
				"y": 0.8023214249,
				"z": -2.7369667759,
				"element": "H" 
			},
			{
				"x": -4.5171700712,
				"y": -3.4846207316,
				"z": -2.4065130674,
				"element": "H" 
			},
			{
				"x": 0.6509902405,
				"y": -0.3499419796,
				"z": -3.1975164372,
				"element": "H" 
			},
			{
				"x": 2.1582996012,
				"y": 1.6443407916,
				"z": -3.0356206154,
				"element": "H" 
			}
		],
		 "valence_orbital": [ 
			{
				"type": "occ",
				"energy": -0.29753,
				"method": "rhf"
			},
			{
				"type": "occ",
				"energy": -0.28082,
				"method": "rhf"
			},
			{
				"type": "occ",
				"energy": -0.27462,
				"method": "rhf"
			},
			{
				"type": "occ",
				"energy": -0.25963,
				"method": "rhf"
			},
			{
				"type": "occ",
				"energy": -0.23412,
				"method": "rhf"
			},
			{
				"type": "unocc",
				"energy": -0.08612,
				"method": "rhf"
			},
			{
				"type": "unocc",
				"energy": -0.03509,
				"method": "rhf"
			},
			{
				"type": "unocc",
				"energy": -0.02669,
				"method": "rhf"
			},
			{
				"type": "unocc",
				"energy": -0.01193,
				"method": "rhf"
			},
			{
				"type": "unocc",
				"energy": -0.00689,
				"method": "rhf"
			}
		],
		"cosmo_sigma_profile": { 
			"-0.025": 0.0,
			"-0.024": 0.0,
			"-0.023": 0.0,
			"-0.022": 0.0,
			"-0.021": 0.0,
			"-0.02": 0.0,
			"-0.019": 0.0,
			"-0.018": 0.0,
			"-0.017": 0.0,
			"-0.016": 0.0,
			"-0.015": 0.0,
			"-0.014": 0.0,
			"-0.013": 0.0,
			"-0.012": 0.0,
			"-0.011": 0.0,
			"-0.01": 0.0,
			"-0.009": 0.727051421645,
			"-0.008": 3.45541142879,
			"-0.007": 11.9154386369,
			"-0.006": 19.8446034011,
			"-0.005": 22.5863979434,
			"-0.004": 22.0739113273,
			"-0.003": 23.7950757229,
			"-0.002": 22.0046754401,
			"-0.001": 24.2248031604,
			"0.0": 23.1381284664,
			"0.001": 20.3744399015,
			"0.002": 32.8830849056,
			"0.003": 37.3152594682,
			"0.004": 11.8938214942,
			"0.005": 4.33881427586,
			"0.006": 6.28497786933,
			"0.007": 8.25302846106,
			"0.008": 10.6511853648,
			"0.009": 7.74381073058,
			"0.01": 4.92030398645,
			"0.011": 0.80924823841,
			"0.012": 0.0,
			"0.013": 0.0,
			"0.014": 0.0,
			"0.015": 0.0,
			"0.016": 0.0,
			"0.017": 0.0,
			"0.018": 0.0,
			"0.019": 0.0,
			"0.02": 0.0,
			"0.021": 0.0,
			"0.022": 0.0,
			"0.023": 0.0,
			"0.024": 0.0,
			"0.025": 0.0
		}
	}
}
