{
	 "smiles": "FC1=C(C=CC=C1)N1CCCC(Br)C1=O", 
	 "Tm": 328.15, 
	 "num_atms": 26, 
	 "gaussian": { 
		 "optdone": 1, 
		 "sigma_profile": "yes", 
		 "theory": "DFT", 
		 "functional": "B3LYP", 
		 "basiset": "6-31G**", 
		 "properties": { 
			 "R2extent": 5004.9998, 
			 "electric_dipole_moment_norm": 4.34435872023, 
			 "electric_quadrupole_moment_norm": 13.0904999102, 
			 "total_energy": -3227.02738679, 
			 "HOMO_LUMO_gap": 0.19762, 
			 "cosmo_polarized_energy": -12.61, 
			 "cosmo_cavitation_energy": 31.05, 
			 "cosmo_dispersion_energy": -22.54, 
			 "cosmo_repulsion_energy": 1.75, 
			 "cosmo_total_nonelectrostatic_energy": 10.26, 
			 "SMD_solvation_energy": 4.47 
		},
		"coords": [
			{
				"x": -2.0366256967,
				"y": -1.1780125576,
				"z": 0.5128330587,
				"element": "F" 
			},
			{
				"x": -1.3770150337,
				"y": -0.9307614648,
				"z": -0.6420639059,
				"element": "C" 
			},
			{
				"x": -0.243359859,
				"y": -0.1112333055,
				"z": -0.6121839851,
				"element": "C" 
			},
			{
				"x": 0.4230232753,
				"y": 0.1248694257,
				"z": -1.8206041336,
				"element": "C" 
			},
			{
				"x": -0.0380952799,
				"y": -0.4396684889,
				"z": -3.0088133983,
				"element": "C" 
			},
			{
				"x": -1.1803758854,
				"y": -1.2432398612,
				"z": -3.0102444069,
				"element": "C" 
			},
			{
				"x": -1.8606167333,
				"y": -1.4890154861,
				"z": -1.8179217406,
				"element": "C" 
			},
			{
				"x": 0.1795643375,
				"y": 0.4670118664,
				"z": 0.6255625035,
				"element": "N" 
			},
			{
				"x": -0.7644579957,
				"y": 1.4303672602,
				"z": 1.2384952662,
				"element": "C" 
			},
			{
				"x": -0.4173762334,
				"y": 1.772226673,
				"z": 2.6834990766,
				"element": "C" 
			},
			{
				"x": 1.0666233448,
				"y": 2.1079459252,
				"z": 2.8070750322,
				"element": "C" 
			},
			{
				"x": 1.9055787797,
				"y": 0.9222418971,
				"z": 2.3550484177,
				"element": "C" 
			},
			{
				"x": 1.8436148796,
				"y": -0.5354075973,
				"z": 3.7285964177,
				"element": "Br" 
			},
			{
				"x": 1.4944115998,
				"y": 0.2972097207,
				"z": 1.0189440125,
				"element": "C" 
			},
			{
				"x": 2.3136518679,
				"y": -0.3272899285,
				"z": 0.3623691392,
				"element": "O" 
			},
			{
				"x": 1.3156449125,
				"y": 0.7383283009,
				"z": -1.8125039045,
				"element": "H" 
			},
			{
				"x": 0.4960022842,
				"y": -0.2497389998,
				"z": -3.9343628265,
				"element": "H" 
			},
			{
				"x": -1.5425088751,
				"y": -1.6808838711,
				"z": -3.9353414564,
				"element": "H" 
			},
			{
				"x": -2.7474653137,
				"y": -2.112059402,
				"z": -1.7770840917,
				"element": "H" 
			},
			{
				"x": -0.7701233457,
				"y": 2.3442287509,
				"z": 0.6259508262,
				"element": "H" 
			},
			{
				"x": -1.763560001,
				"y": 0.9945966345,
				"z": 1.1875513943,
				"element": "H" 
			},
			{
				"x": -0.6540229525,
				"y": 0.9264860757,
				"z": 3.3368067454,
				"element": "H" 
			},
			{
				"x": -1.0382030963,
				"y": 2.6165709706,
				"z": 2.9999403824,
				"element": "H" 
			},
			{
				"x": 1.3374746286,
				"y": 2.3975040813,
				"z": 3.8259211586,
				"element": "H" 
			},
			{
				"x": 1.3138568885,
				"y": 2.9577589876,
				"z": 2.1530352445,
				"element": "H" 
			},
			{
				"x": 2.967559503,
				"y": 1.1484643931,
				"z": 2.2845951739,
				"element": "H" 
			}
		],
		 "valence_orbital": [ 
			{
				"type": "occ",
				"energy": -0.27983,
				"method": "rhf"
			},
			{
				"type": "occ",
				"energy": -0.27142,
				"method": "rhf"
			},
			{
				"type": "occ",
				"energy": -0.25885,
				"method": "rhf"
			},
			{
				"type": "occ",
				"energy": -0.24804,
				"method": "rhf"
			},
			{
				"type": "occ",
				"energy": -0.236,
				"method": "rhf"
			},
			{
				"type": "unocc",
				"energy": -0.03838,
				"method": "rhf"
			},
			{
				"type": "unocc",
				"energy": -0.0131,
				"method": "rhf"
			},
			{
				"type": "unocc",
				"energy": -0.00299,
				"method": "rhf"
			},
			{
				"type": "unocc",
				"energy": 0.04914,
				"method": "rhf"
			},
			{
				"type": "unocc",
				"energy": 0.07292,
				"method": "rhf"
			}
		],
		"cosmo_sigma_profile": { 
			"-0.025": 0.0,
			"-0.024": 0.0,
			"-0.023": 0.0,
			"-0.022": 0.0,
			"-0.021": 0.0,
			"-0.02": 0.0,
			"-0.019": 0.0,
			"-0.018": 0.0,
			"-0.017": 0.0,
			"-0.016": 0.0,
			"-0.015": 0.0,
			"-0.014": 0.0,
			"-0.013": 0.0,
			"-0.012": 0.0,
			"-0.011": 0.0,
			"-0.01": 0.0,
			"-0.009": 0.193095347503,
			"-0.008": 2.10512880745,
			"-0.007": 7.41646131475,
			"-0.006": 13.3104382211,
			"-0.005": 22.5736472681,
			"-0.004": 24.8606253263,
			"-0.003": 23.1078943721,
			"-0.002": 19.1390345268,
			"-0.001": 14.0395977187,
			"0.0": 15.1348216639,
			"0.001": 15.5956627782,
			"0.002": 14.917852236,
			"0.003": 18.831459107,
			"0.004": 21.497310382,
			"0.005": 12.4664243673,
			"0.006": 6.34877014813,
			"0.007": 2.54371346756,
			"0.008": 1.45542424236,
			"0.009": 1.51525042691,
			"0.01": 2.22041754435,
			"0.011": 1.73623881252,
			"0.012": 2.69839015662,
			"0.013": 4.92225506159,
			"0.014": 1.10040727876,
			"0.015": 0.0,
			"0.016": 0.0,
			"0.017": 0.0,
			"0.018": 0.0,
			"0.019": 0.0,
			"0.02": 0.0,
			"0.021": 0.0,
			"0.022": 0.0,
			"0.023": 0.0,
			"0.024": 0.0,
			"0.025": 0.0
		}
	}
}
