{
	 "smiles": "COC(=O)C1=CC2=C(C=CN2C)C=C1", 
	 "Tm": 365.15, 
	 "num_atms": 25, 
	 "gaussian": { 
		 "optdone": 1, 
		 "sigma_profile": "yes", 
		 "theory": "DFT", 
		 "functional": "B3LYP", 
		 "basiset": "6-31G**", 
		 "properties": { 
			 "R2extent": 3439.6546, 
			 "electric_dipole_moment_norm": 4.62104738344, 
			 "electric_quadrupole_moment_norm": 10.3093818074, 
			 "total_energy": -631.014977873, 
			 "HOMO_LUMO_gap": 0.16992, 
			 "cosmo_polarized_energy": -11.28, 
			 "cosmo_cavitation_energy": 29.09, 
			 "cosmo_dispersion_energy": -21.25, 
			 "cosmo_repulsion_energy": 1.65, 
			 "cosmo_total_nonelectrostatic_energy": 9.49, 
			 "SMD_solvation_energy": 6.68 
		},
		"coords": [
			{
				"x": -0.4119967666,
				"y": -3.1975266966,
				"z": 3.6982263791,
				"element": "C" 
			},
			{
				"x": -0.0792041514,
				"y": -2.331762889,
				"z": 2.6054779904,
				"element": "O" 
			},
			{
				"x": -0.4978504118,
				"y": -1.0460262672,
				"z": 2.7433172655,
				"element": "C" 
			},
			{
				"x": -1.1095163616,
				"y": -0.6608086281,
				"z": 3.7224795012,
				"element": "O" 
			},
			{
				"x": -0.1264437331,
				"y": -0.1962488008,
				"z": 1.5842448711,
				"element": "C" 
			},
			{
				"x": 0.5787670525,
				"y": -0.7119352011,
				"z": 0.4929362894,
				"element": "C" 
			},
			{
				"x": 0.8821121666,
				"y": 0.1640223783,
				"z": -0.5485429873,
				"element": "C" 
			},
			{
				"x": 0.5012305422,
				"y": 1.5385520428,
				"z": -0.5304823946,
				"element": "C" 
			},
			{
				"x": 0.9783658229,
				"y": 2.114705037,
				"z": -1.7510211664,
				"element": "C" 
			},
			{
				"x": 1.6088880488,
				"y": 1.1113814761,
				"z": -2.4439210892,
				"element": "C" 
			},
			{
				"x": 1.5594892796,
				"y": -0.0711828718,
				"z": -1.7321985634,
				"element": "N" 
			},
			{
				"x": 2.1169637436,
				"y": -1.3436463591,
				"z": -2.1437387605,
				"element": "C" 
			},
			{
				"x": -0.2082816578,
				"y": 2.0283872499,
				"z": 0.5825831541,
				"element": "C" 
			},
			{
				"x": -0.5136605279,
				"y": 1.1657753472,
				"z": 1.621201889,
				"element": "C" 
			},
			{
				"x": 0.0372398065,
				"y": -2.8388531082,
				"z": 4.6281109037,
				"element": "H" 
			},
			{
				"x": -1.4954050269,
				"y": -3.2523364935,
				"z": 3.8337373323,
				"element": "H" 
			},
			{
				"x": -0.010539187,
				"y": -4.1761014611,
				"z": 3.4330457208,
				"element": "H" 
			},
			{
				"x": 0.8704635316,
				"y": -1.7553529434,
				"z": 0.474033988,
				"element": "H" 
			},
			{
				"x": 0.8698715653,
				"y": 3.1394514701,
				"z": -2.075967212,
				"element": "H" 
			},
			{
				"x": 2.1007623068,
				"y": 1.1389742512,
				"z": -3.4067549866,
				"element": "H" 
			},
			{
				"x": 2.8719302121,
				"y": -1.6918256947,
				"z": -1.4300807531,
				"element": "H" 
			},
			{
				"x": 2.5908325768,
				"y": -1.2260501286,
				"z": -3.1197877739,
				"element": "H" 
			},
			{
				"x": 1.3356969656,
				"y": -2.1074271932,
				"z": -2.2260031328,
				"element": "H" 
			},
			{
				"x": -0.512051644,
				"y": 3.0704233016,
				"z": 0.6253080089,
				"element": "H" 
			},
			{
				"x": -1.0587641529,
				"y": 1.5112121821,
				"z": 2.4924955263,
				"element": "H" 
			}
		],
		 "valence_orbital": [ 
			{
				"type": "occ",
				"energy": -0.2911,
				"method": "rhf"
			},
			{
				"type": "occ",
				"energy": -0.27614,
				"method": "rhf"
			},
			{
				"type": "occ",
				"energy": -0.26183,
				"method": "rhf"
			},
			{
				"type": "occ",
				"energy": -0.2241,
				"method": "rhf"
			},
			{
				"type": "occ",
				"energy": -0.20569,
				"method": "rhf"
			},
			{
				"type": "unocc",
				"energy": -0.03577,
				"method": "rhf"
			},
			{
				"type": "unocc",
				"energy": 0.00967,
				"method": "rhf"
			},
			{
				"type": "unocc",
				"energy": 0.05228,
				"method": "rhf"
			},
			{
				"type": "unocc",
				"energy": 0.08472,
				"method": "rhf"
			},
			{
				"type": "unocc",
				"energy": 0.09146,
				"method": "rhf"
			}
		],
		"cosmo_sigma_profile": { 
			"-0.025": 0.0,
			"-0.024": 0.0,
			"-0.023": 0.0,
			"-0.022": 0.0,
			"-0.021": 0.0,
			"-0.02": 0.0,
			"-0.019": 0.0,
			"-0.018": 0.0,
			"-0.017": 0.0,
			"-0.016": 0.0,
			"-0.015": 0.0,
			"-0.014": 0.0,
			"-0.013": 0.0,
			"-0.012": 0.0,
			"-0.011": 0.0,
			"-0.01": 0.0,
			"-0.009": 0.938693952642,
			"-0.008": 3.43546470558,
			"-0.007": 3.76738631255,
			"-0.006": 12.4169541121,
			"-0.005": 22.6305842786,
			"-0.004": 21.9183526587,
			"-0.003": 25.9127715478,
			"-0.002": 15.9137298908,
			"-0.001": 14.0755110089,
			"0.0": 10.3448321782,
			"0.001": 10.9849114859,
			"0.002": 13.9639354244,
			"0.003": 16.8030170505,
			"0.004": 17.0575873332,
			"0.005": 16.6692787685,
			"0.006": 9.21504773029,
			"0.007": 2.65765650585,
			"0.008": 1.50014490836,
			"0.009": 1.76287453208,
			"0.01": 1.66175063878,
			"0.011": 2.23363640891,
			"0.012": 4.53647971753,
			"0.013": 1.76747184773,
			"0.014": 0.0,
			"0.015": 0.0,
			"0.016": 0.0,
			"0.017": 0.0,
			"0.018": 0.0,
			"0.019": 0.0,
			"0.02": 0.0,
			"0.021": 0.0,
			"0.022": 0.0,
			"0.023": 0.0,
			"0.024": 0.0,
			"0.025": 0.0
		}
	}
}
