{
	 "smiles": "OC1=C(C=C(Br)C=N1)[N+]([O-])=O", 
	 "Tm": 520.15, 
	 "num_atms": 14, 
	 "gaussian": { 
		 "optdone": 1, 
		 "sigma_profile": "yes", 
		 "theory": "DFT", 
		 "functional": "B3LYP", 
		 "basiset": "6-31G**", 
		 "properties": { 
			 "R2extent": 3962.4408, 
			 "electric_dipole_moment_norm": 1.83753574659, 
			 "electric_quadrupole_moment_norm": 6.85908904374, 
			 "total_energy": -3098.8126584, 
			 "HOMO_LUMO_gap": 0.14277, 
			 "cosmo_polarized_energy": -9.41, 
			 "cosmo_cavitation_energy": 21.82, 
			 "cosmo_dispersion_energy": -17.04, 
			 "cosmo_repulsion_energy": 1.36, 
			 "cosmo_total_nonelectrostatic_energy": 6.14, 
			 "SMD_solvation_energy": 3.74 
		},
		"coords": [
			{
				"x": 0.9845147409,
				"y": 0.274116674,
				"z": -1.8280958223,
				"element": "O" 
			},
			{
				"x": 0.2395066446,
				"y": 0.8889818185,
				"z": -0.9217634318,
				"element": "C" 
			},
			{
				"x": 0.0771153404,
				"y": 0.4206108435,
				"z": 0.410661723,
				"element": "C" 
			},
			{
				"x": -0.7270539438,
				"y": 1.1271881523,
				"z": 1.3078498029,
				"element": "C" 
			},
			{
				"x": -1.3463995687,
				"y": 2.2780815364,
				"z": 0.8558533724,
				"element": "C" 
			},
			{
				"x": -2.4605319031,
				"y": 3.3114217966,
				"z": 1.9956004805,
				"element": "Br" 
			},
			{
				"x": -1.1371725649,
				"y": 2.6765446283,
				"z": -0.4744109299,
				"element": "C" 
			},
			{
				"x": -0.373551615,
				"y": 2.0063767686,
				"z": -1.3278651604,
				"element": "N" 
			},
			{
				"x": 0.7299195156,
				"y": -0.7872738096,
				"z": 0.8769885875,
				"element": "N" 
			},
			{
				"x": 1.4476052157,
				"y": -1.413350109,
				"z": 0.0669493883,
				"element": "O" 
			},
			{
				"x": 0.5557362481,
				"y": -1.1451454891,
				"z": 2.0346770821,
				"element": "O" 
			},
			{
				"x": 1.3665301616,
				"y": -0.5220134979,
				"z": -1.38686362,
				"element": "H" 
			},
			{
				"x": -0.8434639535,
				"y": 0.7611002618,
				"z": 2.3199958287,
				"element": "H" 
			},
			{
				"x": -1.6142543178,
				"y": 3.5782604255,
				"z": -0.851077301,
				"element": "H" 
			}
		],
		 "valence_orbital": [ 
			{
				"type": "occ",
				"energy": -0.32613,
				"method": "rhf"
			},
			{
				"type": "occ",
				"energy": -0.32525,
				"method": "rhf"
			},
			{
				"type": "occ",
				"energy": -0.31723,
				"method": "rhf"
			},
			{
				"type": "occ",
				"energy": -0.29713,
				"method": "rhf"
			},
			{
				"type": "occ",
				"energy": -0.26322,
				"method": "rhf"
			},
			{
				"type": "unocc",
				"energy": -0.12045,
				"method": "rhf"
			},
			{
				"type": "unocc",
				"energy": -0.05096,
				"method": "rhf"
			},
			{
				"type": "unocc",
				"energy": -0.0283,
				"method": "rhf"
			},
			{
				"type": "unocc",
				"energy": -0.01843,
				"method": "rhf"
			},
			{
				"type": "unocc",
				"energy": 0.0956,
				"method": "rhf"
			}
		],
		"cosmo_sigma_profile": { 
			"-0.025": 0.0,
			"-0.024": 0.0,
			"-0.023": 0.0,
			"-0.022": 0.0,
			"-0.021": 0.0,
			"-0.02": 0.0,
			"-0.019": 0.0,
			"-0.018": 0.0,
			"-0.017": 0.0,
			"-0.016": 0.0,
			"-0.015": 0.0,
			"-0.014": 0.0,
			"-0.013": 0.0,
			"-0.012": 0.0411604330603,
			"-0.011": 0.433865354545,
			"-0.01": 1.60600769946,
			"-0.009": 6.03679033824,
			"-0.008": 6.05009688768,
			"-0.007": 7.22284144244,
			"-0.006": 8.32249104808,
			"-0.005": 11.5781812421,
			"-0.004": 11.6896615565,
			"-0.003": 13.4251304377,
			"-0.002": 13.1606845276,
			"-0.001": 10.5407277113,
			"0.0": 9.31292869268,
			"0.001": 8.67794417288,
			"0.002": 9.83288718737,
			"0.003": 15.0972884951,
			"0.004": 8.77564803774,
			"0.005": 5.24249257207,
			"0.006": 7.53140443477,
			"0.007": 7.59531745457,
			"0.008": 5.86573705464,
			"0.009": 5.03898751488,
			"0.01": 2.92215163951,
			"0.011": 1.50362557516,
			"0.012": 1.06961642273,
			"0.013": 1.06925724881,
			"0.014": 0.309187715408,
			"0.015": 0.0,
			"0.016": 0.0,
			"0.017": 0.0,
			"0.018": 0.0,
			"0.019": 0.0,
			"0.02": 0.0,
			"0.021": 0.0,
			"0.022": 0.0,
			"0.023": 0.0,
			"0.024": 0.0,
			"0.025": 0.0
		}
	}
}
