{
	 "smiles": "CC1=CC=C(C=C1)N1N=NC(C(O)=O)=C1C1CC1", 
	 "Tm": 447.15, 
	 "num_atms": 31, 
	 "gaussian": { 
		 "optdone": 1, 
		 "sigma_profile": "yes", 
		 "theory": "DFT", 
		 "functional": "B3LYP", 
		 "basiset": "6-31G**", 
		 "properties": { 
			 "R2extent": 5595.558, 
			 "electric_dipole_moment_norm": 4.90817061745, 
			 "electric_quadrupole_moment_norm": 19.282426909, 
			 "total_energy": -817.87535175, 
			 "HOMO_LUMO_gap": 0.20793, 
			 "cosmo_polarized_energy": -16.21, 
			 "cosmo_cavitation_energy": 35.12, 
			 "cosmo_dispersion_energy": -25.07, 
			 "cosmo_repulsion_energy": 1.93, 
			 "cosmo_total_nonelectrostatic_energy": 11.98, 
			 "SMD_solvation_energy": 5.44 
		},
		"coords": [
			{
				"x": 5.2812224534,
				"y": 0.9359621014,
				"z": -2.4950158957,
				"element": "C" 
			},
			{
				"x": 3.8432459752,
				"y": 0.6032329474,
				"z": -2.176378009,
				"element": "C" 
			},
			{
				"x": 2.9881906157,
				"y": 1.5597122396,
				"z": -1.6136149808,
				"element": "C" 
			},
			{
				"x": 1.6651073786,
				"y": 1.2526686526,
				"z": -1.2990649331,
				"element": "C" 
			},
			{
				"x": 1.1853947093,
				"y": -0.0386529348,
				"z": -1.5303522134,
				"element": "C" 
			},
			{
				"x": 2.0158801928,
				"y": -1.0068543378,
				"z": -2.0999256493,
				"element": "C" 
			},
			{
				"x": 3.3300792304,
				"y": -0.6788404778,
				"z": -2.4216259318,
				"element": "C" 
			},
			{
				"x": -0.1724668012,
				"y": -0.3753003334,
				"z": -1.2446354652,
				"element": "N" 
			},
			{
				"x": -0.9353702622,
				"y": -0.9306392533,
				"z": -2.2496583766,
				"element": "N" 
			},
			{
				"x": -2.1127089599,
				"y": -1.1308663456,
				"z": -1.7711546218,
				"element": "N" 
			},
			{
				"x": -2.1565272949,
				"y": -0.7212908733,
				"z": -0.4647973881,
				"element": "C" 
			},
			{
				"x": -3.3919095927,
				"y": -0.8063703845,
				"z": 0.3212355782,
				"element": "C" 
			},
			{
				"x": -4.4018145325,
				"y": -1.3925499954,
				"z": -0.3531519295,
				"element": "O" 
			},
			{
				"x": -3.5309942491,
				"y": -0.3957247951,
				"z": 1.463505682,
				"element": "O" 
			},
			{
				"x": -0.8965857477,
				"y": -0.2331094749,
				"z": -0.0949519478,
				"element": "C" 
			},
			{
				"x": -0.2734713451,
				"y": 0.2717985333,
				"z": 1.143730562,
				"element": "C" 
			},
			{
				"x": -0.9597553174,
				"y": 1.2339310479,
				"z": 2.104722272,
				"element": "C" 
			},
			{
				"x": -0.6817017717,
				"y": -0.1705420736,
				"z": 2.5404756003,
				"element": "C" 
			},
			{
				"x": 5.4192426563,
				"y": 2.010054443,
				"z": -2.6478334593,
				"element": "H" 
			},
			{
				"x": 5.6209540939,
				"y": 0.4178879057,
				"z": -3.3968557862,
				"element": "H" 
			},
			{
				"x": 5.9466131722,
				"y": 0.6333658504,
				"z": -1.6768214808,
				"element": "H" 
			},
			{
				"x": 3.3556259297,
				"y": 2.566292074,
				"z": -1.4328519254,
				"element": "H" 
			},
			{
				"x": 1.0038764209,
				"y": 2.0127291338,
				"z": -0.8961097671,
				"element": "H" 
			},
			{
				"x": 1.6212272273,
				"y": -1.9975762985,
				"z": -2.29542629,
				"element": "H" 
			},
			{
				"x": 3.9699004885,
				"y": -1.4343154711,
				"z": -2.869892327,
				"element": "H" 
			},
			{
				"x": -5.1584783543,
				"y": -1.380080704,
				"z": 0.2561601854,
				"element": "H" 
			},
			{
				"x": 0.7917129199,
				"y": 0.4375020332,
				"z": 1.026045351,
				"element": "H" 
			},
			{
				"x": -0.3521016918,
				"y": 2.0456012521,
				"z": 2.4935627154,
				"element": "H" 
			},
			{
				"x": -1.9963887876,
				"y": 1.4766534229,
				"z": 1.9052132601,
				"element": "H" 
			},
			{
				"x": 0.1327283877,
				"y": -0.3595053728,
				"z": 3.2332389467,
				"element": "H" 
			},
			{
				"x": -1.5383271438,
				"y": -0.8254725116,
				"z": 2.6329282251,
				"element": "H" 
			}
		],
		 "valence_orbital": [ 
			{
				"type": "occ",
				"energy": -0.27796,
				"method": "rhf"
			},
			{
				"type": "occ",
				"energy": -0.2693,
				"method": "rhf"
			},
			{
				"type": "occ",
				"energy": -0.26599,
				"method": "rhf"
			},
			{
				"type": "occ",
				"energy": -0.24988,
				"method": "rhf"
			},
			{
				"type": "occ",
				"energy": -0.24658,
				"method": "rhf"
			},
			{
				"type": "unocc",
				"energy": -0.03865,
				"method": "rhf"
			},
			{
				"type": "unocc",
				"energy": -0.02339,
				"method": "rhf"
			},
			{
				"type": "unocc",
				"energy": -0.01904,
				"method": "rhf"
			},
			{
				"type": "unocc",
				"energy": 0.00577,
				"method": "rhf"
			},
			{
				"type": "unocc",
				"energy": 0.08077,
				"method": "rhf"
			}
		],
		"cosmo_sigma_profile": { 
			"-0.025": 0.0,
			"-0.024": 0.0,
			"-0.023": 0.0,
			"-0.022": 0.0,
			"-0.021": 0.0,
			"-0.02": 0.0,
			"-0.019": 0.220128904959,
			"-0.018": 0.771032582561,
			"-0.017": 0.948532457527,
			"-0.016": 0.781334551789,
			"-0.015": 0.760006837474,
			"-0.014": 0.267977390691,
			"-0.013": 0.225490734772,
			"-0.012": 1.59805884999,
			"-0.011": 0.908138970061,
			"-0.01": 0.581812422181,
			"-0.009": 0.235167108004,
			"-0.008": 0.588829623744,
			"-0.007": 4.34239425017,
			"-0.006": 11.1364298968,
			"-0.005": 22.1434255059,
			"-0.004": 21.5876387263,
			"-0.003": 25.2548996921,
			"-0.002": 27.5042113635,
			"-0.001": 29.2015407604,
			"0.0": 24.8426024854,
			"0.001": 16.8521081289,
			"0.002": 14.2485719699,
			"0.003": 15.9325999622,
			"0.004": 14.5899402587,
			"0.005": 4.64674605293,
			"0.006": 5.28712141147,
			"0.007": 3.92886252788,
			"0.008": 4.27985226185,
			"0.009": 6.72306036528,
			"0.01": 4.8804317217,
			"0.011": 5.68128324808,
			"0.012": 4.72323618055,
			"0.013": 1.85694120576,
			"0.014": 1.63153329408,
			"0.015": 0.999025689423,
			"0.016": 0.0961678368645,
			"0.017": 0.0,
			"0.018": 0.0,
			"0.019": 0.0,
			"0.02": 0.0,
			"0.021": 0.0,
			"0.022": 0.0,
			"0.023": 0.0,
			"0.024": 0.0,
			"0.025": 0.0
		}
	}
}
