{
	 "smiles": "[O-][N+](=O)C1=CC=C(NN=C(CC2=CC=CC=C2)C(CC2=CC=CC=C2)=N/NC2=CC=C(C=C2)[N+]([O-])=O)C=C1", 
	 "Tm": 549.15, 
	 "num_atms": 62, 
	 "gaussian": { 
		 "optdone": 1, 
		 "sigma_profile": "yes", 
		 "theory": "DFT", 
		 "functional": "B3LYP", 
		 "basiset": "6-31G**", 
		 "properties": { 
			 "R2extent": 25210.5676, 
			 "electric_dipole_moment_norm": 9.84679518067, 
			 "electric_quadrupole_moment_norm": 45.4935259047, 
			 "total_energy": -1710.59735085, 
			 "HOMO_LUMO_gap": 0.14205, 
			 "cosmo_polarized_energy": -29.79, 
			 "cosmo_cavitation_energy": 69.72, 
			 "cosmo_dispersion_energy": -44.33, 
			 "cosmo_repulsion_energy": 3.36, 
			 "cosmo_total_nonelectrostatic_energy": 28.76, 
			 "SMD_solvation_energy": 15.06 
		},
		"coords": [
			{
				"x": -6.4210382661,
				"y": 2.2580843517,
				"z": -3.1400159306,
				"element": "O" 
			},
			{
				"x": -6.1646461541,
				"y": 2.0575479793,
				"z": -1.9503033939,
				"element": "N" 
			},
			{
				"x": -6.9019728055,
				"y": 2.3768487935,
				"z": -1.0147874402,
				"element": "O" 
			},
			{
				"x": -4.9035400034,
				"y": 1.3972257928,
				"z": -1.6282425821,
				"element": "C" 
			},
			{
				"x": -4.0437271727,
				"y": 1.0243003468,
				"z": -2.6630019815,
				"element": "C" 
			},
			{
				"x": -2.8474216181,
				"y": 0.3958966255,
				"z": -2.3542641692,
				"element": "C" 
			},
			{
				"x": -2.5065539447,
				"y": 0.1378456283,
				"z": -1.0122994675,
				"element": "C" 
			},
			{
				"x": -1.2932849043,
				"y": -0.4821307868,
				"z": -0.7437166597,
				"element": "N" 
			},
			{
				"x": -0.9603234566,
				"y": -0.8151266581,
				"z": 0.5211072059,
				"element": "N" 
			},
			{
				"x": 0.1306358405,
				"y": -1.467683154,
				"z": 0.7615490217,
				"element": "C" 
			},
			{
				"x": 0.4250952884,
				"y": -1.8700662723,
				"z": 2.2020872611,
				"element": "C" 
			},
			{
				"x": -0.5081414936,
				"y": -1.2793328389,
				"z": 3.2359873139,
				"element": "C" 
			},
			{
				"x": -0.1624972656,
				"y": -0.1066342983,
				"z": 3.9177873839,
				"element": "C" 
			},
			{
				"x": -1.0183849594,
				"y": 0.4445766358,
				"z": 4.8728263198,
				"element": "C" 
			},
			{
				"x": -2.236689579,
				"y": -0.1731291811,
				"z": 5.1589010925,
				"element": "C" 
			},
			{
				"x": -2.5909463903,
				"y": -1.3452177228,
				"z": 4.486716641,
				"element": "C" 
			},
			{
				"x": -1.7316624618,
				"y": -1.892740023,
				"z": 3.533930108,
				"element": "C" 
			},
			{
				"x": 1.1024695317,
				"y": -1.8784485817,
				"z": -0.3012481822,
				"element": "C" 
			},
			{
				"x": 1.4204791595,
				"y": -3.3485148622,
				"z": -0.5105373264,
				"element": "C" 
			},
			{
				"x": 2.4354919279,
				"y": -3.9277591818,
				"z": 0.4685823359,
				"element": "C" 
			},
			{
				"x": 3.6851790991,
				"y": -3.3172076138,
				"z": 0.6444808726,
				"element": "C" 
			},
			{
				"x": 4.6253913561,
				"y": -3.8637220613,
				"z": 1.517833601,
				"element": "C" 
			},
			{
				"x": 4.3306192681,
				"y": -5.0292775748,
				"z": 2.2296257017,
				"element": "C" 
			},
			{
				"x": 3.0907475645,
				"y": -5.6456869622,
				"z": 2.0592879057,
				"element": "C" 
			},
			{
				"x": 2.150327303,
				"y": -5.0965057218,
				"z": 1.1846962723,
				"element": "C" 
			},
			{
				"x": 1.7245420908,
				"y": -1.0417322979,
				"z": -1.073404549,
				"element": "N" 
			},
			{
				"x": 1.5427465431,
				"y": 0.2868043264,
				"z": -0.9105212452,
				"element": "N" 
			},
			{
				"x": 2.2468027646,
				"y": 1.2024970083,
				"z": -1.6798645657,
				"element": "C" 
			},
			{
				"x": 2.0786631564,
				"y": 2.5750721733,
				"z": -1.4112309234,
				"element": "C" 
			},
			{
				"x": 2.7558642531,
				"y": 3.5226324991,
				"z": -2.1625975006,
				"element": "C" 
			},
			{
				"x": 3.6051158672,
				"y": 3.0998810314,
				"z": -3.1869237927,
				"element": "C" 
			},
			{
				"x": 3.7819937084,
				"y": 1.743367501,
				"z": -3.4672478831,
				"element": "C" 
			},
			{
				"x": 3.1051742913,
				"y": 0.7927412369,
				"z": -2.7179107622,
				"element": "C" 
			},
			{
				"x": 4.3215371979,
				"y": 4.0955214804,
				"z": -3.978540737,
				"element": "N" 
			},
			{
				"x": 4.1455924369,
				"y": 5.2842280702,
				"z": -3.7016065038,
				"element": "O" 
			},
			{
				"x": 5.0615403738,
				"y": 3.6904027627,
				"z": -4.877830166,
				"element": "O" 
			},
			{
				"x": -3.383731032,
				"y": 0.5204462351,
				"z": 0.0206765725,
				"element": "C" 
			},
			{
				"x": -4.5797078417,
				"y": 1.1486618135,
				"z": -0.2924150857,
				"element": "C" 
			},
			{
				"x": -4.325131628,
				"y": 1.2316855239,
				"z": -3.6877297385,
				"element": "H" 
			},
			{
				"x": -2.168893294,
				"y": 0.1035106659,
				"z": -3.1511500397,
				"element": "H" 
			},
			{
				"x": -0.7419203613,
				"y": -0.8269134008,
				"z": -1.5254296157,
				"element": "H" 
			},
			{
				"x": 0.4079200042,
				"y": -2.9664994824,
				"z": 2.2601517722,
				"element": "H" 
			},
			{
				"x": 1.4625982617,
				"y": -1.5949448954,
				"z": 2.4290709425,
				"element": "H" 
			},
			{
				"x": 0.7885676259,
				"y": 0.3761062916,
				"z": 3.7045583037,
				"element": "H" 
			},
			{
				"x": -0.7311867597,
				"y": 1.3523544477,
				"z": 5.3958266533,
				"element": "H" 
			},
			{
				"x": -2.9030637984,
				"y": 0.2517184832,
				"z": 5.9039233777,
				"element": "H" 
			},
			{
				"x": -3.5346477096,
				"y": -1.8357680251,
				"z": 4.7078618748,
				"element": "H" 
			},
			{
				"x": -2.012569156,
				"y": -2.8059244167,
				"z": 3.0152914112,
				"element": "H" 
			},
			{
				"x": 0.495342196,
				"y": -3.9337366433,
				"z": -0.4568008989,
				"element": "H" 
			},
			{
				"x": 1.8060162706,
				"y": -3.4434191844,
				"z": -1.5318331773,
				"element": "H" 
			},
			{
				"x": 3.9195877852,
				"y": -2.4127286615,
				"z": 0.0898365872,
				"element": "H" 
			},
			{
				"x": 5.5902954719,
				"y": -3.3802306577,
				"z": 1.6415612443,
				"element": "H" 
			},
			{
				"x": 5.0629633088,
				"y": -5.4536259378,
				"z": 2.9100432755,
				"element": "H" 
			},
			{
				"x": 2.852577208,
				"y": -6.5533133786,
				"z": 2.6064600329,
				"element": "H" 
			},
			{
				"x": 1.187402843,
				"y": -5.5846714613,
				"z": 1.0529917295,
				"element": "H" 
			},
			{
				"x": 0.9936270552,
				"y": 0.6309283522,
				"z": -0.1270139313,
				"element": "H" 
			},
			{
				"x": 1.4134321032,
				"y": 2.8926066356,
				"z": -0.6128758358,
				"element": "H" 
			},
			{
				"x": 2.6407572007,
				"y": 4.5822107714,
				"z": -1.9719835133,
				"element": "H" 
			},
			{
				"x": 4.4492395891,
				"y": 1.4537623428,
				"z": -4.2695444581,
				"element": "H" 
			},
			{
				"x": 3.2284046661,
				"y": -0.2638316125,
				"z": -2.9171627863,
				"element": "H" 
			},
			{
				"x": -3.1139870101,
				"y": 0.3131589453,
				"z": 1.0483498829,
				"element": "H" 
			},
			{
				"x": -5.272871546,
				"y": 1.4509987987,
				"z": 0.4827321454,
				"element": "H" 
			}
		],
		 "valence_orbital": [ 
			{
				"type": "occ",
				"energy": -0.26099,
				"method": "rhf"
			},
			{
				"type": "occ",
				"energy": -0.25996,
				"method": "rhf"
			},
			{
				"type": "occ",
				"energy": -0.25469,
				"method": "rhf"
			},
			{
				"type": "occ",
				"energy": -0.23233,
				"method": "rhf"
			},
			{
				"type": "occ",
				"energy": -0.22857,
				"method": "rhf"
			},
			{
				"type": "unocc",
				"energy": -0.08652,
				"method": "rhf"
			},
			{
				"type": "unocc",
				"energy": -0.08065,
				"method": "rhf"
			},
			{
				"type": "unocc",
				"energy": -0.05417,
				"method": "rhf"
			},
			{
				"type": "unocc",
				"energy": -0.0301,
				"method": "rhf"
			},
			{
				"type": "unocc",
				"energy": -0.02655,
				"method": "rhf"
			}
		],
		"cosmo_sigma_profile": { 
			"-0.025": 0.0,
			"-0.024": 0.0,
			"-0.023": 0.0,
			"-0.022": 0.0,
			"-0.021": 0.0,
			"-0.02": 0.0,
			"-0.019": 0.0,
			"-0.018": 0.0,
			"-0.017": 0.0,
			"-0.016": 0.0,
			"-0.015": 0.297321737541,
			"-0.014": 1.8417796018,
			"-0.013": 2.6096160367,
			"-0.012": 2.24694554073,
			"-0.011": 1.69875907279,
			"-0.01": 2.41970624524,
			"-0.009": 4.57576545908,
			"-0.008": 5.36690689172,
			"-0.007": 10.0310439373,
			"-0.006": 25.5994280077,
			"-0.005": 44.0607729235,
			"-0.004": 42.3542467739,
			"-0.003": 42.0857060915,
			"-0.002": 36.9702753968,
			"-0.001": 40.4899051881,
			"0.0": 41.2534550771,
			"0.001": 48.0076659757,
			"0.002": 48.2616497741,
			"0.003": 33.8492865452,
			"0.004": 23.5230442743,
			"0.005": 23.6503208565,
			"0.006": 20.2871365431,
			"0.007": 10.787063051,
			"0.008": 18.9346405382,
			"0.009": 13.70480856,
			"0.01": 8.84165839181,
			"0.011": 4.72646279607,
			"0.012": 0.11237199236,
			"0.013": 0.0,
			"0.014": 0.0,
			"0.015": 0.0,
			"0.016": 0.0,
			"0.017": 0.0,
			"0.018": 0.0,
			"0.019": 0.0,
			"0.02": 0.0,
			"0.021": 0.0,
			"0.022": 0.0,
			"0.023": 0.0,
			"0.024": 0.0,
			"0.025": 0.0
		}
	}
}
