{
	 "smiles": "CCCCCC#CCO", 
	 "Tm": 255.15, 
	 "num_atms": 23, 
	 "gaussian": { 
		 "optdone": 1, 
		 "sigma_profile": "yes", 
		 "theory": "DFT", 
		 "functional": "B3LYP", 
		 "basiset": "6-31G**", 
		 "properties": { 
			 "R2extent": 2233.921, 
			 "electric_dipole_moment_norm": 2.00417037948, 
			 "electric_quadrupole_moment_norm": 6.58170511874, 
			 "total_energy": -388.446537223, 
			 "HOMO_LUMO_gap": 0.28039, 
			 "cosmo_polarized_energy": -6.78, 
			 "cosmo_cavitation_energy": 25.57, 
			 "cosmo_dispersion_energy": -17.74, 
			 "cosmo_repulsion_energy": 1.49, 
			 "cosmo_total_nonelectrostatic_energy": 9.33, 
			 "SMD_solvation_energy": 4.11 
		},
		"coords": [
			{
				"x": 1.0670206862,
				"y": -1.0214188161,
				"z": -2.1465995284,
				"element": "C" 
			},
			{
				"x": 1.0872725548,
				"y": -2.3350243029,
				"z": -1.3567487387,
				"element": "C" 
			},
			{
				"x": 1.8776970358,
				"y": -2.2717848764,
				"z": -0.037261674,
				"element": "C" 
			},
			{
				"x": 1.3809514266,
				"y": -1.2881703205,
				"z": 1.0374861349,
				"element": "C" 
			},
			{
				"x": 0.0065653365,
				"y": -1.6212687196,
				"z": 1.6690998753,
				"element": "C" 
			},
			{
				"x": -1.1498032775,
				"y": -1.3302885203,
				"z": 0.8190216516,
				"element": "C" 
			},
			{
				"x": -2.109922316,
				"y": -1.0766734476,
				"z": 0.12563305,
				"element": "C" 
			},
			{
				"x": -3.1985555537,
				"y": -0.7660988383,
				"z": -0.8076739017,
				"element": "C" 
			},
			{
				"x": -2.8632732073,
				"y": -1.0285439498,
				"z": -2.1676091687,
				"element": "O" 
			},
			{
				"x": 0.5571051077,
				"y": -1.1527577741,
				"z": -3.1077254844,
				"element": "H" 
			},
			{
				"x": 0.5470149771,
				"y": -0.2288895252,
				"z": -1.5978720424,
				"element": "H" 
			},
			{
				"x": 2.081543773,
				"y": -0.6642883105,
				"z": -2.3603126613,
				"element": "H" 
			},
			{
				"x": 1.5386067487,
				"y": -3.1174339744,
				"z": -1.9804581979,
				"element": "H" 
			},
			{
				"x": 0.0574845017,
				"y": -2.6530271535,
				"z": -1.1636746481,
				"element": "H" 
			},
			{
				"x": 1.9075970178,
				"y": -3.2782616243,
				"z": 0.4028799253,
				"element": "H" 
			},
			{
				"x": 2.9210001958,
				"y": -2.0147569226,
				"z": -0.2680484737,
				"element": "H" 
			},
			{
				"x": 2.1158477412,
				"y": -1.2816546389,
				"z": 1.8518896294,
				"element": "H" 
			},
			{
				"x": 1.3537494366,
				"y": -0.2657387913,
				"z": 0.643574431,
				"element": "H" 
			},
			{
				"x": -0.0087524517,
				"y": -2.6801831201,
				"z": 1.9629101844,
				"element": "H" 
			},
			{
				"x": -0.0982598351,
				"y": -1.0487515427,
				"z": 2.6003875692,
				"element": "H" 
			},
			{
				"x": -4.0733910411,
				"y": -1.3896368524,
				"z": -0.5917461358,
				"element": "H" 
			},
			{
				"x": -3.5141403696,
				"y": 0.2809704348,
				"z": -0.6682843189,
				"element": "H" 
			},
			{
				"x": -2.0298584873,
				"y": -0.5743184136,
				"z": -2.3493674772,
				"element": "H" 
			}
		],
		 "valence_orbital": [ 
			{
				"type": "occ",
				"energy": -0.32092,
				"method": "rhf"
			},
			{
				"type": "occ",
				"energy": -0.31978,
				"method": "rhf"
			},
			{
				"type": "occ",
				"energy": -0.28088,
				"method": "rhf"
			},
			{
				"type": "occ",
				"energy": -0.25265,
				"method": "rhf"
			},
			{
				"type": "occ",
				"energy": -0.24822,
				"method": "rhf"
			},
			{
				"type": "unocc",
				"energy": 0.03217,
				"method": "rhf"
			},
			{
				"type": "unocc",
				"energy": 0.05841,
				"method": "rhf"
			},
			{
				"type": "unocc",
				"energy": 0.07019,
				"method": "rhf"
			},
			{
				"type": "unocc",
				"energy": 0.10776,
				"method": "rhf"
			},
			{
				"type": "unocc",
				"energy": 0.12548,
				"method": "rhf"
			}
		],
		"cosmo_sigma_profile": { 
			"-0.025": 0.0,
			"-0.024": 0.0,
			"-0.023": 0.0,
			"-0.022": 0.0,
			"-0.021": 0.0,
			"-0.02": 0.0,
			"-0.019": 0.0,
			"-0.018": 0.0,
			"-0.017": 0.0,
			"-0.016": 0.0,
			"-0.015": 0.0,
			"-0.014": 0.0,
			"-0.013": 0.0197053621557,
			"-0.012": 0.565869527689,
			"-0.011": 0.808052129936,
			"-0.01": 0.840398774932,
			"-0.009": 1.03293845209,
			"-0.008": 1.1706466184,
			"-0.007": 1.80517433171,
			"-0.006": 4.39726025708,
			"-0.005": 9.34968817008,
			"-0.004": 10.5187150332,
			"-0.003": 17.7956723844,
			"-0.002": 27.0946984593,
			"-0.001": 26.4384007942,
			"0.0": 26.7888155589,
			"0.001": 22.0584238506,
			"0.002": 12.3010421845,
			"0.003": 4.52429611039,
			"0.004": 4.83567071997,
			"0.005": 4.51050591752,
			"0.006": 5.42506686405,
			"0.007": 5.58703616985,
			"0.008": 1.65445747026,
			"0.009": 0.828928904951,
			"0.01": 1.27886282276,
			"0.011": 1.20575901422,
			"0.012": 2.08630239812,
			"0.013": 1.5523899843,
			"0.014": 2.2492573455,
			"0.015": 0.114222315,
			"0.016": 0.0,
			"0.017": 0.0,
			"0.018": 0.0,
			"0.019": 0.0,
			"0.02": 0.0,
			"0.021": 0.0,
			"0.022": 0.0,
			"0.023": 0.0,
			"0.024": 0.0,
			"0.025": 0.0
		}
	}
}
