{
	 "smiles": "OC(=O)C1=C(C=CC=C1)N1N=CC(Cl)=C(Cl)C1=O", 
	 "Tm": 429.15, 
	 "num_atms": 24, 
	 "gaussian": { 
		 "optdone": 1, 
		 "sigma_profile": "yes", 
		 "theory": "DFT", 
		 "functional": "B3LYP", 
		 "basiset": "6-31G**", 
		 "properties": { 
			 "R2extent": 5785.5861, 
			 "electric_dipole_moment_norm": 5.58511091206, 
			 "electric_quadrupole_moment_norm": 14.9534038088, 
			 "total_energy": -1678.31619597, 
			 "HOMO_LUMO_gap": 0.15932, 
			 "cosmo_polarized_energy": -16.38, 
			 "cosmo_cavitation_energy": 33.14, 
			 "cosmo_dispersion_energy": -23.84, 
			 "cosmo_repulsion_energy": 1.83, 
			 "cosmo_total_nonelectrostatic_energy": 11.14, 
			 "SMD_solvation_energy": 6.32 
		},
		"coords": [
			{
				"x": -0.4372608902,
				"y": -0.9072575158,
				"z": 2.3559867534,
				"element": "O" 
			},
			{
				"x": 0.8753789836,
				"y": -0.8558351094,
				"z": 2.0992852592,
				"element": "C" 
			},
			{
				"x": 1.6128074473,
				"y": -1.7752118484,
				"z": 2.3752599494,
				"element": "O" 
			},
			{
				"x": 1.423618447,
				"y": 0.4181087885,
				"z": 1.4923755584,
				"element": "C" 
			},
			{
				"x": 0.9123282939,
				"y": 1.0915965485,
				"z": 0.3715205046,
				"element": "C" 
			},
			{
				"x": 1.5503306007,
				"y": 2.2252007076,
				"z": -0.1361258027,
				"element": "C" 
			},
			{
				"x": 2.7006093764,
				"y": 2.7156618511,
				"z": 0.475513952,
				"element": "C" 
			},
			{
				"x": 3.2278365165,
				"y": 2.0539884573,
				"z": 1.5854595138,
				"element": "C" 
			},
			{
				"x": 2.6020542127,
				"y": 0.9102642286,
				"z": 2.0720110943,
				"element": "C" 
			},
			{
				"x": -0.2400528072,
				"y": 0.6201115596,
				"z": -0.3793229826,
				"element": "N" 
			},
			{
				"x": 0.0558865527,
				"y": 0.1687907736,
				"z": -1.6144363365,
				"element": "N" 
			},
			{
				"x": -0.931174437,
				"y": -0.143677525,
				"z": -2.4047827699,
				"element": "C" 
			},
			{
				"x": -2.3040669649,
				"y": -0.0093415542,
				"z": -2.0347381058,
				"element": "C" 
			},
			{
				"x": -3.5088430004,
				"y": -0.4502444449,
				"z": -3.1971757305,
				"element": "Cl" 
			},
			{
				"x": -2.6070240056,
				"y": 0.4641165806,
				"z": -0.7872833181,
				"element": "C" 
			},
			{
				"x": -4.2114675586,
				"y": 0.6898463299,
				"z": -0.2157768233,
				"element": "Cl" 
			},
			{
				"x": -1.5293002887,
				"y": 0.8000588246,
				"z": 0.1404620717,
				"element": "C" 
			},
			{
				"x": -1.6976572708,
				"y": 1.198546289,
				"z": 1.295019311,
				"element": "O" 
			},
			{
				"x": -0.8769463507,
				"y": -0.0412776846,
				"z": 2.1888140896,
				"element": "H" 
			},
			{
				"x": 1.1418354581,
				"y": 2.7079419284,
				"z": -1.017586388,
				"element": "H" 
			},
			{
				"x": 3.1851845568,
				"y": 3.6025737288,
				"z": 0.0797071943,
				"element": "H" 
			},
			{
				"x": 4.1310106132,
				"y": 2.4205553254,
				"z": 2.0632847061,
				"element": "H" 
			},
			{
				"x": 3.0196915606,
				"y": 0.3645627166,
				"z": 2.9110256553,
				"element": "H" 
			},
			{
				"x": -0.6628790452,
				"y": -0.513978956,
				"z": -3.3880973555,
				"element": "H" 
			}
		],
		 "valence_orbital": [ 
			{
				"type": "occ",
				"energy": -0.29914,
				"method": "rhf"
			},
			{
				"type": "occ",
				"energy": -0.28505,
				"method": "rhf"
			},
			{
				"type": "occ",
				"energy": -0.28165,
				"method": "rhf"
			},
			{
				"type": "occ",
				"energy": -0.27051,
				"method": "rhf"
			},
			{
				"type": "occ",
				"energy": -0.26011,
				"method": "rhf"
			},
			{
				"type": "unocc",
				"energy": -0.10079,
				"method": "rhf"
			},
			{
				"type": "unocc",
				"energy": -0.04875,
				"method": "rhf"
			},
			{
				"type": "unocc",
				"energy": -0.0448,
				"method": "rhf"
			},
			{
				"type": "unocc",
				"energy": -0.03118,
				"method": "rhf"
			},
			{
				"type": "unocc",
				"energy": -0.023,
				"method": "rhf"
			}
		],
		"cosmo_sigma_profile": { 
			"-0.025": 0.0,
			"-0.024": 0.0,
			"-0.023": 0.0,
			"-0.022": 0.0,
			"-0.021": 0.0,
			"-0.02": 0.0,
			"-0.019": 0.0,
			"-0.018": 0.0,
			"-0.017": 0.0,
			"-0.016": 0.0,
			"-0.015": 0.0,
			"-0.014": 0.0,
			"-0.013": 0.0,
			"-0.012": 0.0,
			"-0.011": 0.764171632763,
			"-0.01": 1.6690070207,
			"-0.009": 2.77545854349,
			"-0.008": 8.10850562558,
			"-0.007": 12.3597843046,
			"-0.006": 14.8873290986,
			"-0.005": 20.8201464074,
			"-0.004": 20.698970335,
			"-0.003": 17.8232257021,
			"-0.002": 16.4703910543,
			"-0.001": 16.2048414618,
			"0.0": 17.4202604725,
			"0.001": 23.6005976866,
			"0.002": 31.0532785093,
			"0.003": 12.8776475227,
			"0.004": 6.87654338153,
			"0.005": 5.5722917204,
			"0.006": 5.07536409816,
			"0.007": 4.10136712906,
			"0.008": 5.04152547439,
			"0.009": 6.66516607344,
			"0.01": 6.87213097569,
			"0.011": 8.18659206597,
			"0.012": 5.20226644492,
			"0.013": 1.43264497665,
			"0.014": 0.0196091034093,
			"0.015": 0.0,
			"0.016": 0.0,
			"0.017": 0.0,
			"0.018": 0.0,
			"0.019": 0.0,
			"0.02": 0.0,
			"0.021": 0.0,
			"0.022": 0.0,
			"0.023": 0.0,
			"0.024": 0.0,
			"0.025": 0.0
		}
	}
}
