{
	 "smiles": "COC1=C(N)C=C2SC(C)=NC2=C1", 
	 "Tm": 363.15, 
	 "num_atms": 23, 
	 "gaussian": { 
		 "optdone": 1, 
		 "sigma_profile": "yes", 
		 "theory": "DFT", 
		 "functional": "B3LYP", 
		 "basiset": "6-31G**", 
		 "properties": { 
			 "R2extent": 3342.4977, 
			 "electric_dipole_moment_norm": 1.83632841562, 
			 "electric_quadrupole_moment_norm": 12.0683694905, 
			 "total_energy": -931.902942106, 
			 "HOMO_LUMO_gap": 0.17152, 
			 "cosmo_polarized_energy": -11.16, 
			 "cosmo_cavitation_energy": 28.15, 
			 "cosmo_dispersion_energy": -21.64, 
			 "cosmo_repulsion_energy": 1.67, 
			 "cosmo_total_nonelectrostatic_energy": 8.18, 
			 "SMD_solvation_energy": 3.33 
		},
		"coords": [
			{
				"x": 1.2663973582,
				"y": -2.0509498439,
				"z": 2.5168636667,
				"element": "C" 
			},
			{
				"x": 0.7765418987,
				"y": -2.5498911267,
				"z": 1.2837158536,
				"element": "O" 
			},
			{
				"x": 0.3141181212,
				"y": -1.6430969833,
				"z": 0.3611201307,
				"element": "C" 
			},
			{
				"x": -0.1467273989,
				"y": -2.2415966906,
				"z": -0.8500277383,
				"element": "C" 
			},
			{
				"x": -0.1504671482,
				"y": -3.6307833974,
				"z": -0.9448211824,
				"element": "N" 
			},
			{
				"x": -0.6245757459,
				"y": -1.425653354,
				"z": -1.8764785299,
				"element": "C" 
			},
			{
				"x": -0.6465502457,
				"y": -0.0407137816,
				"z": -1.6907742097,
				"element": "C" 
			},
			{
				"x": -1.1836292757,
				"y": 1.2233454825,
				"z": -2.7809913849,
				"element": "S" 
			},
			{
				"x": -0.7553681781,
				"y": 2.427393063,
				"z": -1.5300721178,
				"element": "C" 
			},
			{
				"x": -0.9634114737,
				"y": 3.8884323738,
				"z": -1.781968922,
				"element": "C" 
			},
			{
				"x": -0.271605221,
				"y": 1.9330215054,
				"z": -0.4374458261,
				"element": "N" 
			},
			{
				"x": -0.1963847528,
				"y": 0.5494105421,
				"z": -0.4925994719,
				"element": "C" 
			},
			{
				"x": 0.2909032558,
				"y": -0.2697376618,
				"z": 0.542009076,
				"element": "C" 
			},
			{
				"x": 0.4869572235,
				"y": -1.5104460934,
				"z": 3.0688128663,
				"element": "H" 
			},
			{
				"x": 2.1264346332,
				"y": -1.3848761543,
				"z": 2.3692280759,
				"element": "H" 
			},
			{
				"x": 1.5791355163,
				"y": -2.9218307563,
				"z": 3.095282117,
				"element": "H" 
			},
			{
				"x": -0.0902732522,
				"y": -3.9993276519,
				"z": -1.8832326227,
				"element": "H" 
			},
			{
				"x": 0.4732069579,
				"y": -4.0879627368,
				"z": -0.2944363381,
				"element": "H" 
			},
			{
				"x": -0.9795186768,
				"y": -1.8774904826,
				"z": -2.7979289275,
				"element": "H" 
			},
			{
				"x": -0.387263932,
				"y": 4.2321221154,
				"z": -2.6481662637,
				"element": "H" 
			},
			{
				"x": -2.017612087,
				"y": 4.1156420841,
				"z": -1.9753641636,
				"element": "H" 
			},
			{
				"x": -0.6390765627,
				"y": 4.4432593636,
				"z": -0.8996366956,
				"element": "H" 
			},
			{
				"x": 0.6406689857,
				"y": 0.1960301848,
				"z": 1.4546126079,
				"element": "H" 
			}
		],
		 "valence_orbital": [ 
			{
				"type": "occ",
				"energy": -0.28376,
				"method": "rhf"
			},
			{
				"type": "occ",
				"energy": -0.27844,
				"method": "rhf"
			},
			{
				"type": "occ",
				"energy": -0.26233,
				"method": "rhf"
			},
			{
				"type": "occ",
				"energy": -0.21442,
				"method": "rhf"
			},
			{
				"type": "occ",
				"energy": -0.18633,
				"method": "rhf"
			},
			{
				"type": "unocc",
				"energy": -0.01481,
				"method": "rhf"
			},
			{
				"type": "unocc",
				"energy": 0.01249,
				"method": "rhf"
			},
			{
				"type": "unocc",
				"energy": 0.02178,
				"method": "rhf"
			},
			{
				"type": "unocc",
				"energy": 0.0551,
				"method": "rhf"
			},
			{
				"type": "unocc",
				"energy": 0.08687,
				"method": "rhf"
			}
		],
		"cosmo_sigma_profile": { 
			"-0.025": 0.0,
			"-0.024": 0.0,
			"-0.023": 0.0,
			"-0.022": 0.0,
			"-0.021": 0.0,
			"-0.02": 0.0,
			"-0.019": 0.0,
			"-0.018": 0.0,
			"-0.017": 0.0,
			"-0.016": 0.0,
			"-0.015": 0.0,
			"-0.014": 0.0,
			"-0.013": 0.597363657356,
			"-0.012": 1.43257245994,
			"-0.011": 1.52276734888,
			"-0.01": 2.23703969373,
			"-0.009": 2.70881982966,
			"-0.008": 2.583482581,
			"-0.007": 3.94482013177,
			"-0.006": 11.1844016327,
			"-0.005": 18.7205323685,
			"-0.004": 19.4539586982,
			"-0.003": 19.3974815335,
			"-0.002": 15.1076213186,
			"-0.001": 13.5783887642,
			"0.0": 10.2836880104,
			"0.001": 10.5788529127,
			"0.002": 14.5084708084,
			"0.003": 17.6037778136,
			"0.004": 19.3954625496,
			"0.005": 17.7469503592,
			"0.006": 5.37101303777,
			"0.007": 3.75800816803,
			"0.008": 3.0533142123,
			"0.009": 1.81755949851,
			"0.01": 2.01451086572,
			"0.011": 2.14212037347,
			"0.012": 1.50860472154,
			"0.013": 1.5283546987,
			"0.014": 1.34770451917,
			"0.015": 0.768593611077,
			"0.016": 0.204332799839,
			"0.017": 0.0,
			"0.018": 0.0,
			"0.019": 0.0,
			"0.02": 0.0,
			"0.021": 0.0,
			"0.022": 0.0,
			"0.023": 0.0,
			"0.024": 0.0,
			"0.025": 0.0
		}
	}
}
