{
	 "smiles": "CC1=C(SC(C#N)=C1C)C#N", 
	 "Tm": 396.15, 
	 "num_atms": 17, 
	 "gaussian": { 
		 "optdone": 1, 
		 "sigma_profile": "yes", 
		 "theory": "DFT", 
		 "functional": "B3LYP", 
		 "basiset": "6-31G**", 
		 "properties": { 
			 "R2extent": 2749.2176, 
			 "electric_dipole_moment_norm": 3.76810817918, 
			 "electric_quadrupole_moment_norm": 18.8325048589, 
			 "total_energy": -816.120609965, 
			 "HOMO_LUMO_gap": 0.17245, 
			 "cosmo_polarized_energy": -11.39, 
			 "cosmo_cavitation_energy": 24.89, 
			 "cosmo_dispersion_energy": -17.32, 
			 "cosmo_repulsion_energy": 1.35, 
			 "cosmo_total_nonelectrostatic_energy": 8.93, 
			 "SMD_solvation_energy": 6.71 
		},
		"coords": [
			{
				"x": 0.568597594,
				"y": 0.3962691759,
				"z": -1.0787066897,
				"element": "C" 
			},
			{
				"x": -0.4282866172,
				"y": -0.2264031238,
				"z": -0.144915965,
				"element": "C" 
			},
			{
				"x": -0.4979823516,
				"y": 0.0407762992,
				"z": 1.2119019096,
				"element": "C" 
			},
			{
				"x": -1.7669960711,
				"y": -0.8444698784,
				"z": 2.0162108455,
				"element": "S" 
			},
			{
				"x": -2.2113348945,
				"y": -1.5862302003,
				"z": 0.5018470816,
				"element": "C" 
			},
			{
				"x": -3.2829545254,
				"y": -2.5111794998,
				"z": 0.4434230106,
				"element": "C" 
			},
			{
				"x": -4.162624757,
				"y": -3.2728010005,
				"z": 0.3859904527,
				"element": "N" 
			},
			{
				"x": -1.4217577963,
				"y": -1.1698727634,
				"z": -0.5566395343,
				"element": "C" 
			},
			{
				"x": -1.5834177647,
				"y": -1.6473661635,
				"z": -1.9706100004,
				"element": "C" 
			},
			{
				"x": 0.3344576804,
				"y": 0.9242342859,
				"z": 1.9425569532,
				"element": "C" 
			},
			{
				"x": 1.023745175,
				"y": 1.6527442706,
				"z": 2.5352978323,
				"element": "N" 
			},
			{
				"x": 1.2297294757,
				"y": 1.0872338008,
				"z": -0.5521444569,
				"element": "H" 
			},
			{
				"x": 1.1880070914,
				"y": -0.3704130797,
				"z": -1.5577916227,
				"element": "H" 
			},
			{
				"x": 0.0632938658,
				"y": 0.9497968115,
				"z": -1.8782301371,
				"element": "H" 
			},
			{
				"x": -0.6672523799,
				"y": -2.1314472466,
				"z": -2.3273703942,
				"element": "H" 
			},
			{
				"x": -1.7899806491,
				"y": -0.8089999616,
				"z": -2.6454811749,
				"element": "H" 
			},
			{
				"x": -2.4025430754,
				"y": -2.3637717263,
				"z": -2.0577381105,
				"element": "H" 
			}
		],
		 "valence_orbital": [ 
			{
				"type": "occ",
				"energy": -0.35312,
				"method": "rhf"
			},
			{
				"type": "occ",
				"energy": -0.34571,
				"method": "rhf"
			},
			{
				"type": "occ",
				"energy": -0.34502,
				"method": "rhf"
			},
			{
				"type": "occ",
				"energy": -0.28215,
				"method": "rhf"
			},
			{
				"type": "occ",
				"energy": -0.2637,
				"method": "rhf"
			},
			{
				"type": "unocc",
				"energy": -0.09125,
				"method": "rhf"
			},
			{
				"type": "unocc",
				"energy": -0.02198,
				"method": "rhf"
			},
			{
				"type": "unocc",
				"energy": -0.01925,
				"method": "rhf"
			},
			{
				"type": "unocc",
				"energy": -0.01048,
				"method": "rhf"
			},
			{
				"type": "unocc",
				"energy": 0.02542,
				"method": "rhf"
			}
		],
		"cosmo_sigma_profile": { 
			"-0.025": 0.0,
			"-0.024": 0.0,
			"-0.023": 0.0,
			"-0.022": 0.0,
			"-0.021": 0.0,
			"-0.02": 0.0,
			"-0.019": 0.0,
			"-0.018": 0.0,
			"-0.017": 0.0,
			"-0.016": 0.0,
			"-0.015": 0.0,
			"-0.014": 0.0,
			"-0.013": 0.0,
			"-0.012": 0.0,
			"-0.011": 0.0,
			"-0.01": 0.0,
			"-0.009": 0.0,
			"-0.008": 0.0,
			"-0.007": 1.56729648874,
			"-0.006": 13.777090918,
			"-0.005": 15.3466968651,
			"-0.004": 19.2515114344,
			"-0.003": 25.5871415963,
			"-0.002": 33.196799195,
			"-0.001": 23.0288692827,
			"0.0": 8.76936520001,
			"0.001": 7.51996994819,
			"0.002": 4.6114985249,
			"0.003": 4.10422450752,
			"0.004": 4.51053793059,
			"0.005": 4.15477380179,
			"0.006": 4.932590006,
			"0.007": 5.73738774375,
			"0.008": 6.41656101813,
			"0.009": 6.30674506639,
			"0.01": 5.74308928261,
			"0.011": 4.82762163464,
			"0.012": 3.85708700906,
			"0.013": 0.450494140253,
			"0.014": 0.0,
			"0.015": 0.0,
			"0.016": 0.0,
			"0.017": 0.0,
			"0.018": 0.0,
			"0.019": 0.0,
			"0.02": 0.0,
			"0.021": 0.0,
			"0.022": 0.0,
			"0.023": 0.0,
			"0.024": 0.0,
			"0.025": 0.0
		}
	}
}
