{
	 "smiles": "CCOC(=O)C(C)OC(=O)C1=C(C=CC(OC2=CC=C(C=C2Cl)C(F)(F)F)=C1)[N+]([O-])=O", 
	 "Tm": 318.15, 
	 "num_atms": 46, 
	 "gaussian": { 
		 "optdone": 1, 
		 "sigma_profile": "yes", 
		 "theory": "DFT", 
		 "functional": "B3LYP", 
		 "basiset": "6-31G**", 
		 "properties": { 
			 "R2extent": 16458.407, 
			 "electric_dipole_moment_norm": 6.05031316214, 
			 "electric_quadrupole_moment_norm": 16.4311199853, 
			 "total_energy": -2074.00605628, 
			 "HOMO_LUMO_gap": 0.17309, 
			 "cosmo_polarized_energy": -19.73, 
			 "cosmo_cavitation_energy": 55.95, 
			 "cosmo_dispersion_energy": -34.7, 
			 "cosmo_repulsion_energy": 2.53, 
			 "cosmo_total_nonelectrostatic_energy": 23.79, 
			 "SMD_solvation_energy": 13.46 
		},
		"coords": [
			{
				"x": -1.0885586141,
				"y": 2.8989381302,
				"z": 0.4532749528,
				"element": "C" 
			},
			{
				"x": 0.1076803006,
				"y": 3.0218876702,
				"z": -0.4685999749,
				"element": "C" 
			},
			{
				"x": 0.8496081998,
				"y": 1.7774860168,
				"z": -0.4002898616,
				"element": "O" 
			},
			{
				"x": 1.9576169275,
				"y": 1.7302525722,
				"z": -1.1625247658,
				"element": "C" 
			},
			{
				"x": 2.3774097537,
				"y": 2.6565018244,
				"z": -1.8186702758,
				"element": "O" 
			},
			{
				"x": 2.7117684087,
				"y": 0.4034367527,
				"z": -1.0140913871,
				"element": "C" 
			},
			{
				"x": 3.6466247765,
				"y": 0.1287047573,
				"z": -2.1842823272,
				"element": "C" 
			},
			{
				"x": 1.8333293266,
				"y": -0.7156035844,
				"z": -0.7324795712,
				"element": "O" 
			},
			{
				"x": 0.8508145302,
				"y": -0.9607987556,
				"z": -1.6145781856,
				"element": "C" 
			},
			{
				"x": 0.5770179698,
				"y": -0.2803163087,
				"z": -2.5751463777,
				"element": "O" 
			},
			{
				"x": 0.0090433319,
				"y": -2.1303711646,
				"z": -1.1597357759,
				"element": "C" 
			},
			{
				"x": 0.2174852235,
				"y": -3.4565651233,
				"z": -1.5532296395,
				"element": "C" 
			},
			{
				"x": -0.647731998,
				"y": -4.4775783229,
				"z": -1.1496460827,
				"element": "C" 
			},
			{
				"x": -1.7295364288,
				"y": -4.1828815945,
				"z": -0.3373629226,
				"element": "C" 
			},
			{
				"x": -1.9410875593,
				"y": -2.8595606188,
				"z": 0.0711057357,
				"element": "C" 
			},
			{
				"x": -3.0327282287,
				"y": -2.6582724063,
				"z": 0.8770799715,
				"element": "O" 
			},
			{
				"x": -3.2864364238,
				"y": -1.4121846481,
				"z": 1.4107599848,
				"element": "C" 
			},
			{
				"x": -2.6469569459,
				"y": -1.0175933942,
				"z": 2.5873287118,
				"element": "C" 
			},
			{
				"x": -2.9562931029,
				"y": 0.2045844584,
				"z": 3.1752798883,
				"element": "C" 
			},
			{
				"x": -3.9138102252,
				"y": 1.0338424869,
				"z": 2.5843037418,
				"element": "C" 
			},
			{
				"x": -4.566134985,
				"y": 0.6425498853,
				"z": 1.4148573663,
				"element": "C" 
			},
			{
				"x": -4.2521284339,
				"y": -0.5819326582,
				"z": 0.8260602504,
				"element": "C" 
			},
			{
				"x": -5.068372114,
				"y": -1.0796916345,
				"z": -0.6311760431,
				"element": "Cl" 
			},
			{
				"x": -4.1982256537,
				"y": 2.387360695,
				"z": 3.1816916278,
				"element": "C" 
			},
			{
				"x": -5.4209120145,
				"y": 2.842436322,
				"z": 2.8417591793,
				"element": "F" 
			},
			{
				"x": -3.2990256609,
				"y": 3.3085382889,
				"z": 2.7585999263,
				"element": "F" 
			},
			{
				"x": -4.1256413796,
				"y": 2.3603594517,
				"z": 4.5286837156,
				"element": "F" 
			},
			{
				"x": -1.0820016999,
				"y": -1.8370295817,
				"z": -0.339408069,
				"element": "C" 
			},
			{
				"x": 1.3612460393,
				"y": -3.8129548311,
				"z": -2.3940343019,
				"element": "N" 
			},
			{
				"x": 1.4821783914,
				"y": -4.989386873,
				"z": -2.7323373392,
				"element": "O" 
			},
			{
				"x": 2.1408288541,
				"y": -2.9118441448,
				"z": -2.7101724719,
				"element": "O" 
			},
			{
				"x": -1.7511672558,
				"y": 2.0893784145,
				"z": 0.1331064084,
				"element": "H" 
			},
			{
				"x": -1.6634974441,
				"y": 3.8294757183,
				"z": 0.4427641854,
				"element": "H" 
			},
			{
				"x": -0.7778860626,
				"y": 2.7058014943,
				"z": 1.4834798129,
				"element": "H" 
			},
			{
				"x": 0.771715473,
				"y": 3.8403087858,
				"z": -0.1744495215,
				"element": "H" 
			},
			{
				"x": -0.1875143953,
				"y": 3.1919700934,
				"z": -1.5081641679,
				"element": "H" 
			},
			{
				"x": 3.2895089892,
				"y": 0.4849736878,
				"z": -0.086529976,
				"element": "H" 
			},
			{
				"x": 4.3576240928,
				"y": 0.9523875937,
				"z": -2.274475912,
				"element": "H" 
			},
			{
				"x": 3.0877857413,
				"y": 0.0489180862,
				"z": -3.1170609894,
				"element": "H" 
			},
			{
				"x": 4.1895950008,
				"y": -0.8028852232,
				"z": -2.0110438172,
				"element": "H" 
			},
			{
				"x": -0.4500210797,
				"y": -5.4888087047,
				"z": -1.4817402267,
				"element": "H" 
			},
			{
				"x": -2.4169972744,
				"y": -4.9537437019,
				"z": -0.0083229497,
				"element": "H" 
			},
			{
				"x": -1.9168543024,
				"y": -1.6853601463,
				"z": 3.0320275787,
				"element": "H" 
			},
			{
				"x": -2.4659755495,
				"y": 0.50868058,
				"z": 4.0931084246,
				"element": "H" 
			},
			{
				"x": -5.3181722618,
				"y": 1.278259359,
				"z": 0.9635108128,
				"element": "H" 
			},
			{
				"x": -1.249914237,
				"y": -0.8128697042,
				"z": -0.0283293423,
				"element": "H" 
			}
		],
		 "valence_orbital": [ 
			{
				"type": "occ",
				"energy": -0.29664,
				"method": "rhf"
			},
			{
				"type": "occ",
				"energy": -0.28063,
				"method": "rhf"
			},
			{
				"type": "occ",
				"energy": -0.27777,
				"method": "rhf"
			},
			{
				"type": "occ",
				"energy": -0.27262,
				"method": "rhf"
			},
			{
				"type": "occ",
				"energy": -0.26849,
				"method": "rhf"
			},
			{
				"type": "unocc",
				"energy": -0.0954,
				"method": "rhf"
			},
			{
				"type": "unocc",
				"energy": -0.05804,
				"method": "rhf"
			},
			{
				"type": "unocc",
				"energy": -0.0532,
				"method": "rhf"
			},
			{
				"type": "unocc",
				"energy": -0.04114,
				"method": "rhf"
			},
			{
				"type": "unocc",
				"energy": -0.00408,
				"method": "rhf"
			}
		],
		"cosmo_sigma_profile": { 
			"-0.025": 0.0,
			"-0.024": 0.0,
			"-0.023": 0.0,
			"-0.022": 0.0,
			"-0.021": 0.0,
			"-0.02": 0.0,
			"-0.019": 0.0,
			"-0.018": 0.0,
			"-0.017": 0.0,
			"-0.016": 0.0,
			"-0.015": 0.0,
			"-0.014": 0.0,
			"-0.013": 0.0,
			"-0.012": 0.0,
			"-0.011": 0.0,
			"-0.01": 0.337309879682,
			"-0.009": 5.3626101004,
			"-0.008": 11.6067762813,
			"-0.007": 12.5285056472,
			"-0.006": 15.1807598443,
			"-0.005": 22.4448427376,
			"-0.004": 30.1042521153,
			"-0.003": 33.4765149494,
			"-0.002": 35.9460479182,
			"-0.001": 48.5655584782,
			"0.0": 48.5447087678,
			"0.001": 31.729685248,
			"0.002": 37.325466307,
			"0.003": 33.6718000008,
			"0.004": 16.15793504,
			"0.005": 12.5218720478,
			"0.006": 11.4256403158,
			"0.007": 11.9045617628,
			"0.008": 8.04711126114,
			"0.009": 6.88603727203,
			"0.01": 6.23908222439,
			"0.011": 6.92213398818,
			"0.012": 2.17320328467,
			"0.013": 0.0,
			"0.014": 0.0,
			"0.015": 0.0,
			"0.016": 0.0,
			"0.017": 0.0,
			"0.018": 0.0,
			"0.019": 0.0,
			"0.02": 0.0,
			"0.021": 0.0,
			"0.022": 0.0,
			"0.023": 0.0,
			"0.024": 0.0,
			"0.025": 0.0
		}
	}
}
