{
	 "smiles": "OC(=O)CCCCC=C", 
	 "Tm": 266.9, 
	 "num_atms": 21, 
	 "gaussian": { 
		 "optdone": 1, 
		 "sigma_profile": "yes", 
		 "theory": "DFT", 
		 "functional": "B3LYP", 
		 "basiset": "6-31G**", 
		 "properties": { 
			 "R2extent": 2395.5546, 
			 "electric_dipole_moment_norm": 3.81783461402, 
			 "electric_quadrupole_moment_norm": 18.4958489056, 
			 "total_energy": -424.417724533, 
			 "HOMO_LUMO_gap": 0.26201, 
			 "cosmo_polarized_energy": -13.87, 
			 "cosmo_cavitation_energy": 24.48, 
			 "cosmo_dispersion_energy": -17.3, 
			 "cosmo_repulsion_energy": 1.46, 
			 "cosmo_total_nonelectrostatic_energy": 8.64, 
			 "SMD_solvation_energy": 5.66 
		},
		"coords": [
			{
				"x": -3.0915897426,
				"y": 2.1992852127,
				"z": -2.7682431879,
				"element": "O" 
			},
			{
				"x": -2.260610619,
				"y": 1.8860395494,
				"z": -1.7358406533,
				"element": "C" 
			},
			{
				"x": -2.3428035139,
				"y": 2.4903957111,
				"z": -0.6959044732,
				"element": "O" 
			},
			{
				"x": -1.2530907541,
				"y": 0.7776091092,
				"z": -2.0254500873,
				"element": "C" 
			},
			{
				"x": -0.4666691096,
				"y": 0.3275121065,
				"z": -0.7896188725,
				"element": "C" 
			},
			{
				"x": -1.3140319369,
				"y": -0.471440087,
				"z": 0.2101716567,
				"element": "C" 
			},
			{
				"x": -0.5596293431,
				"y": -0.8786864988,
				"z": 1.4945314222,
				"element": "C" 
			},
			{
				"x": 0.595552591,
				"y": -1.8175500288,
				"z": 1.2670477432,
				"element": "C" 
			},
			{
				"x": 0.6531407476,
				"y": -3.0763098528,
				"z": 1.7042097239,
				"element": "C" 
			},
			{
				"x": -2.9072951353,
				"y": 1.6300770711,
				"z": -3.5289370653,
				"element": "H" 
			},
			{
				"x": -0.5696862568,
				"y": 1.1582097957,
				"z": -2.7978382439,
				"element": "H" 
			},
			{
				"x": -1.781034417,
				"y": -0.0731556386,
				"z": -2.4795223081,
				"element": "H" 
			},
			{
				"x": 0.3851542426,
				"y": -0.2740479966,
				"z": -1.126406155,
				"element": "H" 
			},
			{
				"x": -0.0596192878,
				"y": 1.2170150909,
				"z": -0.2954976805,
				"element": "H" 
			},
			{
				"x": -2.1805013283,
				"y": 0.1340073147,
				"z": 0.4967583431,
				"element": "H" 
			},
			{
				"x": -1.6985302063,
				"y": -1.3771722098,
				"z": -0.2786545819,
				"element": "H" 
			},
			{
				"x": -1.2695613394,
				"y": -1.3447549429,
				"z": 2.1879547209,
				"element": "H" 
			},
			{
				"x": -0.1961328241,
				"y": 0.0353399444,
				"z": 1.9864900749,
				"element": "H" 
			},
			{
				"x": 1.4390400392,
				"y": -1.4235522809,
				"z": 0.699143898,
				"element": "H" 
			},
			{
				"x": 1.5109816166,
				"y": -3.7131299175,
				"z": 1.5079429748,
				"element": "H" 
			},
			{
				"x": -0.1571834226,
				"y": -3.515991452,
				"z": 2.2819627511,
				"element": "H" 
			}
		],
		 "valence_orbital": [ 
			{
				"type": "occ",
				"energy": -0.33044,
				"method": "rhf"
			},
			{
				"type": "occ",
				"energy": -0.32335,
				"method": "rhf"
			},
			{
				"type": "occ",
				"energy": -0.31368,
				"method": "rhf"
			},
			{
				"type": "occ",
				"energy": -0.27207,
				"method": "rhf"
			},
			{
				"type": "occ",
				"energy": -0.25277,
				"method": "rhf"
			},
			{
				"type": "unocc",
				"energy": 0.00924,
				"method": "rhf"
			},
			{
				"type": "unocc",
				"energy": 0.01969,
				"method": "rhf"
			},
			{
				"type": "unocc",
				"energy": 0.05366,
				"method": "rhf"
			},
			{
				"type": "unocc",
				"energy": 0.09739,
				"method": "rhf"
			},
			{
				"type": "unocc",
				"energy": 0.11487,
				"method": "rhf"
			}
		],
		"cosmo_sigma_profile": { 
			"-0.025": 0.0,
			"-0.024": 0.0,
			"-0.023": 0.0,
			"-0.022": 0.0,
			"-0.021": 0.0,
			"-0.02": 0.0,
			"-0.019": 0.354482964524,
			"-0.018": 1.07740162057,
			"-0.017": 1.22967803976,
			"-0.016": 0.88384765613,
			"-0.015": 0.940274507791,
			"-0.014": 1.23213359217,
			"-0.013": 1.29450104167,
			"-0.012": 0.962901635802,
			"-0.011": 1.11849925136,
			"-0.01": 1.16369517606,
			"-0.009": 1.28132063788,
			"-0.008": 1.32723822392,
			"-0.007": 3.43857714668,
			"-0.006": 4.2795313102,
			"-0.005": 5.46322769847,
			"-0.004": 11.7382462605,
			"-0.003": 19.0631446282,
			"-0.002": 24.9170668845,
			"-0.001": 20.9277461003,
			"0.0": 17.4252971556,
			"0.001": 11.5263158679,
			"0.002": 7.42368860915,
			"0.003": 5.80797748615,
			"0.004": 5.96175813101,
			"0.005": 5.62410536322,
			"0.006": 5.2922091325,
			"0.007": 5.31506072617,
			"0.008": 2.90026397282,
			"0.009": 3.80418451514,
			"0.01": 3.99427592707,
			"0.011": 5.08080278406,
			"0.012": 5.51703898335,
			"0.013": 2.3030388245,
			"0.014": 0.215454045782,
			"0.015": 0.0,
			"0.016": 0.0,
			"0.017": 0.0,
			"0.018": 0.0,
			"0.019": 0.0,
			"0.02": 0.0,
			"0.021": 0.0,
			"0.022": 0.0,
			"0.023": 0.0,
			"0.024": 0.0,
			"0.025": 0.0
		}
	}
}
