{
	 "smiles": "OC(=O)C1=C(C=CC(Cl)=C1)[N+]([O-])=O", 
	 "Tm": 411.15, 
	 "num_atms": 17, 
	 "gaussian": { 
		 "optdone": 1, 
		 "sigma_profile": "yes", 
		 "theory": "DFT", 
		 "functional": "B3LYP", 
		 "basiset": "6-31G**", 
		 "properties": { 
			 "R2extent": 2934.4826, 
			 "electric_dipole_moment_norm": 4.67647022978, 
			 "electric_quadrupole_moment_norm": 6.11333172419, 
			 "total_energy": -1084.89275876, 
			 "HOMO_LUMO_gap": 0.15684, 
			 "cosmo_polarized_energy": -12.72, 
			 "cosmo_cavitation_energy": 24.43, 
			 "cosmo_dispersion_energy": -18.41, 
			 "cosmo_repulsion_energy": 1.44, 
			 "cosmo_total_nonelectrostatic_energy": 7.46, 
			 "SMD_solvation_energy": 7.2 
		},
		"coords": [
			{
				"x": -0.282264131,
				"y": -2.4718903639,
				"z": -1.9277071812,
				"element": "O" 
			},
			{
				"x": -0.8788076182,
				"y": -1.4432779858,
				"z": -1.341955546,
				"element": "C" 
			},
			{
				"x": -1.9888150449,
				"y": -1.0834365351,
				"z": -1.6668171088,
				"element": "O" 
			},
			{
				"x": -0.1778076128,
				"y": -0.7157871169,
				"z": -0.1800696472,
				"element": "C" 
			},
			{
				"x": 1.1915610325,
				"y": -0.5514928281,
				"z": 0.1370186953,
				"element": "C" 
			},
			{
				"x": 1.6024604156,
				"y": 0.2498282007,
				"z": 1.2089564037,
				"element": "C" 
			},
			{
				"x": 0.6733703282,
				"y": 0.8807026017,
				"z": 2.0220633226,
				"element": "C" 
			},
			{
				"x": -0.6809233865,
				"y": 0.7269249091,
				"z": 1.7255213733,
				"element": "C" 
			},
			{
				"x": -1.8761599007,
				"y": 1.5151930423,
				"z": 2.7214019258,
				"element": "Cl" 
			},
			{
				"x": -1.0922767151,
				"y": -0.0365556499,
				"z": 0.6376331953,
				"element": "C" 
			},
			{
				"x": 2.3142273969,
				"y": -1.1693049619,
				"z": -0.5931879618,
				"element": "N" 
			},
			{
				"x": 2.159351927,
				"y": -2.2799834957,
				"z": -1.1289688223,
				"element": "O" 
			},
			{
				"x": 3.3833374816,
				"y": -0.5774602703,
				"z": -0.5962956992,
				"element": "O" 
			},
			{
				"x": 0.6267204121,
				"y": -2.599892583,
				"z": -1.5709959533,
				"element": "H" 
			},
			{
				"x": 2.6626552044,
				"y": 0.3635497427,
				"z": 1.3950086372,
				"element": "H" 
			},
			{
				"x": 0.9925515133,
				"y": 1.4832152286,
				"z": 2.8643422737,
				"element": "H" 
			},
			{
				"x": -2.1410813023,
				"y": -0.1116319344,
				"z": 0.3795520929,
				"element": "H" 
			}
		],
		 "valence_orbital": [ 
			{
				"type": "occ",
				"energy": -0.33288,
				"method": "rhf"
			},
			{
				"type": "occ",
				"energy": -0.32394,
				"method": "rhf"
			},
			{
				"type": "occ",
				"energy": -0.30726,
				"method": "rhf"
			},
			{
				"type": "occ",
				"energy": -0.29254,
				"method": "rhf"
			},
			{
				"type": "occ",
				"energy": -0.28532,
				"method": "rhf"
			},
			{
				"type": "unocc",
				"energy": -0.12848,
				"method": "rhf"
			},
			{
				"type": "unocc",
				"energy": -0.07417,
				"method": "rhf"
			},
			{
				"type": "unocc",
				"energy": -0.04427,
				"method": "rhf"
			},
			{
				"type": "unocc",
				"energy": 0.0006,
				"method": "rhf"
			},
			{
				"type": "unocc",
				"energy": 0.02356,
				"method": "rhf"
			}
		],
		"cosmo_sigma_profile": { 
			"-0.025": 0.0,
			"-0.024": 0.0,
			"-0.023": 0.0,
			"-0.022": 0.0,
			"-0.021": 0.0,
			"-0.02": 0.0,
			"-0.019": 0.0,
			"-0.018": 0.0,
			"-0.017": 0.0,
			"-0.016": 0.0,
			"-0.015": 0.0133583643745,
			"-0.014": 0.310254515442,
			"-0.013": 0.398193802784,
			"-0.012": 0.735639403488,
			"-0.011": 0.872659924664,
			"-0.01": 2.42619778979,
			"-0.009": 6.12034135303,
			"-0.008": 7.02025550979,
			"-0.007": 7.9368891402,
			"-0.006": 8.0477628112,
			"-0.005": 8.58444799364,
			"-0.004": 9.47307885218,
			"-0.003": 14.6414494862,
			"-0.002": 19.3913752472,
			"-0.001": 19.2173508693,
			"0.0": 11.2176136538,
			"0.001": 8.97390434767,
			"0.002": 9.73481898967,
			"0.003": 14.2338920304,
			"0.004": 7.25168599001,
			"0.005": 7.47716249454,
			"0.006": 7.49175527622,
			"0.007": 6.3310177114,
			"0.008": 4.90103736842,
			"0.009": 4.0619260867,
			"0.01": 4.86081608322,
			"0.011": 5.16771577614,
			"0.012": 2.6609947441,
			"0.013": 0.513155491458,
			"0.014": 0.0,
			"0.015": 0.0,
			"0.016": 0.0,
			"0.017": 0.0,
			"0.018": 0.0,
			"0.019": 0.0,
			"0.02": 0.0,
			"0.021": 0.0,
			"0.022": 0.0,
			"0.023": 0.0,
			"0.024": 0.0,
			"0.025": 0.0
		}
	}
}
