{
	 "smiles": "FC1=CC=CC(F)=C1C(=O)NC(=O)NC1=CC=C(Cl)C=C1", 
	 "Tm": 512.15, 
	 "num_atms": 30, 
	 "gaussian": { 
		 "optdone": 1, 
		 "sigma_profile": "yes", 
		 "theory": "DFT", 
		 "functional": "B3LYP", 
		 "basiset": "6-31G**", 
		 "properties": { 
			 "R2extent": 9523.4172, 
			 "electric_dipole_moment_norm": 2.88054746706, 
			 "electric_quadrupole_moment_norm": 14.1826098064, 
			 "total_energy": -1458.75134157, 
			 "HOMO_LUMO_gap": 0.19948, 
			 "cosmo_polarized_energy": -17.72, 
			 "cosmo_cavitation_energy": 38.86, 
			 "cosmo_dispersion_energy": -27.13, 
			 "cosmo_repulsion_energy": 2.05, 
			 "cosmo_total_nonelectrostatic_energy": 13.79, 
			 "SMD_solvation_energy": 8.41 
		},
		"coords": [
			{
				"x": 1.3383013569,
				"y": -0.9502808654,
				"z": 2.7651541711,
				"element": "F" 
			},
			{
				"x": 0.1651175744,
				"y": -0.8008021608,
				"z": 3.4066860029,
				"element": "C" 
			},
			{
				"x": -0.1138886129,
				"y": -1.6115625833,
				"z": 4.4973023193,
				"element": "C" 
			},
			{
				"x": -1.3243007891,
				"y": -1.4322450712,
				"z": 5.1690668822,
				"element": "C" 
			},
			{
				"x": -2.2314305357,
				"y": -0.4552117123,
				"z": 4.7591755031,
				"element": "C" 
			},
			{
				"x": -1.9026184693,
				"y": 0.3432204849,
				"z": 3.6704303686,
				"element": "C" 
			},
			{
				"x": -2.7784362503,
				"y": 1.2790347551,
				"z": 3.2639841129,
				"element": "F" 
			},
			{
				"x": -0.7107656236,
				"y": 0.190169709,
				"z": 2.9582467571,
				"element": "C" 
			},
			{
				"x": -0.3484127582,
				"y": 1.1560033808,
				"z": 1.8726457768,
				"element": "C" 
			},
			{
				"x": -0.2794617841,
				"y": 2.3539468647,
				"z": 2.0802262182,
				"element": "O" 
			},
			{
				"x": -0.0647245725,
				"y": 0.6804654574,
				"z": 0.5909784112,
				"element": "N" 
			},
			{
				"x": -0.2441765315,
				"y": -0.5986210249,
				"z": 0.0559181866,
				"element": "C" 
			},
			{
				"x": -0.5943831021,
				"y": -1.5735520078,
				"z": 0.6958745079,
				"element": "O" 
			},
			{
				"x": 0.0281453921,
				"y": -0.6970703882,
				"z": -1.3013945834,
				"element": "N" 
			},
			{
				"x": 0.3777812532,
				"y": 0.2953567749,
				"z": -2.2491663383,
				"element": "C" 
			},
			{
				"x": 1.4616231483,
				"y": 0.0682712852,
				"z": -3.1094584474,
				"element": "C" 
			},
			{
				"x": 1.8037692945,
				"y": 1.0031617223,
				"z": -4.0828210036,
				"element": "C" 
			},
			{
				"x": 1.0722244222,
				"y": 2.1873686432,
				"z": -4.1833510801,
				"element": "C" 
			},
			{
				"x": 1.5128795556,
				"y": 3.3773631683,
				"z": -5.3947138883,
				"element": "Cl" 
			},
			{
				"x": -0.0084416354,
				"y": 2.4317698979,
				"z": -3.3375492674,
				"element": "C" 
			},
			{
				"x": -0.3660199942,
				"y": 1.4774159347,
				"z": -2.3855224728,
				"element": "C" 
			},
			{
				"x": 0.6078661246,
				"y": -2.360804118,
				"z": 4.8007418572,
				"element": "H" 
			},
			{
				"x": -1.5622295785,
				"y": -2.0605526162,
				"z": 6.0214303211,
				"element": "H" 
			},
			{
				"x": -3.1789149664,
				"y": -0.3012886482,
				"z": 5.2622374155,
				"element": "H" 
			},
			{
				"x": 0.2488075056,
				"y": 1.423635544,
				"z": -0.0221810427,
				"element": "H" 
			},
			{
				"x": 0.0497707452,
				"y": -1.6629583773,
				"z": -1.5994046327,
				"element": "H" 
			},
			{
				"x": 2.0430208161,
				"y": -0.8433178552,
				"z": -3.0076708214,
				"element": "H" 
			},
			{
				"x": 2.6410224846,
				"y": 0.8232138296,
				"z": -4.7478256587,
				"element": "H" 
			},
			{
				"x": -0.581521107,
				"y": 3.3467779874,
				"z": -3.436574923,
				"element": "H" 
			},
			{
				"x": -1.2415033624,
				"y": 1.6423919893,
				"z": -1.765764652,
				"element": "H" 
			}
		],
		 "valence_orbital": [ 
			{
				"type": "occ",
				"energy": -0.28392,
				"method": "rhf"
			},
			{
				"type": "occ",
				"energy": -0.27191,
				"method": "rhf"
			},
			{
				"type": "occ",
				"energy": -0.25558,
				"method": "rhf"
			},
			{
				"type": "occ",
				"energy": -0.24897,
				"method": "rhf"
			},
			{
				"type": "occ",
				"energy": -0.24421,
				"method": "rhf"
			},
			{
				"type": "unocc",
				"energy": -0.04473,
				"method": "rhf"
			},
			{
				"type": "unocc",
				"energy": -0.03688,
				"method": "rhf"
			},
			{
				"type": "unocc",
				"energy": -0.03294,
				"method": "rhf"
			},
			{
				"type": "unocc",
				"energy": -0.00187,
				"method": "rhf"
			},
			{
				"type": "unocc",
				"energy": 0.00323,
				"method": "rhf"
			}
		],
		"cosmo_sigma_profile": { 
			"-0.025": 0.0,
			"-0.024": 0.0,
			"-0.023": 0.0,
			"-0.022": 0.0,
			"-0.021": 0.0,
			"-0.02": 0.0,
			"-0.019": 0.0,
			"-0.018": 0.0,
			"-0.017": 0.0,
			"-0.016": 0.154464952161,
			"-0.015": 0.886723951269,
			"-0.014": 1.27631247456,
			"-0.013": 0.7745141909,
			"-0.012": 1.58890630776,
			"-0.011": 1.58789141355,
			"-0.01": 2.14947615348,
			"-0.009": 3.00518852678,
			"-0.008": 10.7111798511,
			"-0.007": 17.181750617,
			"-0.006": 17.1879415618,
			"-0.005": 13.8436390542,
			"-0.004": 13.5809034621,
			"-0.003": 14.1790519491,
			"-0.002": 15.9357242941,
			"-0.001": 19.5190395681,
			"0.0": 24.8700970486,
			"0.001": 28.8401977283,
			"0.002": 31.5315885779,
			"0.003": 30.8090911578,
			"0.004": 21.3602618737,
			"0.005": 8.94949424727,
			"0.006": 4.50315639416,
			"0.007": 4.06393318808,
			"0.008": 3.1772487517,
			"0.009": 3.95080437315,
			"0.01": 4.74852835833,
			"0.011": 7.12696690635,
			"0.012": 5.7211986986,
			"0.013": 1.99409717837,
			"0.014": 0.0,
			"0.015": 0.0,
			"0.016": 0.0,
			"0.017": 0.0,
			"0.018": 0.0,
			"0.019": 0.0,
			"0.02": 0.0,
			"0.021": 0.0,
			"0.022": 0.0,
			"0.023": 0.0,
			"0.024": 0.0,
			"0.025": 0.0
		}
	}
}
