{
	 "smiles": "NC(=O)C1=CC(N)=NC=C1", 
	 "Tm": 531.15, 
	 "num_atms": 17, 
	 "gaussian": { 
		 "optdone": 1, 
		 "sigma_profile": "yes", 
		 "theory": "DFT", 
		 "functional": "B3LYP", 
		 "basiset": "6-31G**", 
		 "properties": { 
			 "R2extent": 1742.0943, 
			 "electric_dipole_moment_norm": 1.52770167245, 
			 "electric_quadrupole_moment_norm": 17.713249233, 
			 "total_energy": -472.358276586, 
			 "HOMO_LUMO_gap": 0.17297, 
			 "cosmo_polarized_energy": -16.98, 
			 "cosmo_cavitation_energy": 21.54, 
			 "cosmo_dispersion_energy": -16.23, 
			 "cosmo_repulsion_energy": 1.33, 
			 "cosmo_total_nonelectrostatic_energy": 6.64, 
			 "SMD_solvation_energy": 3.2 
		},
		"coords": [
			{
				"x": 0.9492142507,
				"y": -1.0637148268,
				"z": -2.7078309945,
				"element": "N" 
			},
			{
				"x": 0.4489735234,
				"y": 0.0901746004,
				"z": -2.1606629727,
				"element": "C" 
			},
			{
				"x": 0.7273791963,
				"y": 1.1962971233,
				"z": -2.6053259548,
				"element": "O" 
			},
			{
				"x": -0.4824566883,
				"y": -0.0865636198,
				"z": -0.9884940184,
				"element": "C" 
			},
			{
				"x": -0.7036820336,
				"y": 1.0192692398,
				"z": -0.1787577369,
				"element": "C" 
			},
			{
				"x": -1.5662486708,
				"y": 0.8886163591,
				"z": 0.9282069194,
				"element": "C" 
			},
			{
				"x": -1.7764605715,
				"y": 1.938595896,
				"z": 1.7971751764,
				"element": "N" 
			},
			{
				"x": -2.1947152265,
				"y": -0.2618465845,
				"z": 1.2242660159,
				"element": "N" 
			},
			{
				"x": -1.9751312132,
				"y": -1.3118231649,
				"z": 0.4257319259,
				"element": "C" 
			},
			{
				"x": -1.136853594,
				"y": -1.2923421246,
				"z": -0.685139125,
				"element": "C" 
			},
			{
				"x": 1.6610373954,
				"y": -0.9436356984,
				"z": -3.4137154622,
				"element": "H" 
			},
			{
				"x": 0.9590692115,
				"y": -1.9217167134,
				"z": -2.1793683906,
				"element": "H" 
			},
			{
				"x": -0.2106835228,
				"y": 1.9564757455,
				"z": -0.4135001325,
				"element": "H" 
			},
			{
				"x": -1.6296858041,
				"y": 2.8731821717,
				"z": 1.4477010831,
				"element": "H" 
			},
			{
				"x": -2.5707211639,
				"y": 1.8225107438,
				"z": 2.4100769937,
				"element": "H" 
			},
			{
				"x": -2.511419088,
				"y": -2.2226325289,
				"z": 0.6877872289,
				"element": "H" 
			},
			{
				"x": -1.0431160006,
				"y": -2.1727466182,
				"z": -1.3112505558,
				"element": "H" 
			}
		],
		 "valence_orbital": [ 
			{
				"type": "occ",
				"energy": -0.28142,
				"method": "rhf"
			},
			{
				"type": "occ",
				"energy": -0.27526,
				"method": "rhf"
			},
			{
				"type": "occ",
				"energy": -0.26277,
				"method": "rhf"
			},
			{
				"type": "occ",
				"energy": -0.2526,
				"method": "rhf"
			},
			{
				"type": "occ",
				"energy": -0.21766,
				"method": "rhf"
			},
			{
				"type": "unocc",
				"energy": -0.04469,
				"method": "rhf"
			},
			{
				"type": "unocc",
				"energy": 0.00071,
				"method": "rhf"
			},
			{
				"type": "unocc",
				"energy": 0.0586,
				"method": "rhf"
			},
			{
				"type": "unocc",
				"energy": 0.07665,
				"method": "rhf"
			},
			{
				"type": "unocc",
				"energy": 0.08979,
				"method": "rhf"
			}
		],
		"cosmo_sigma_profile": { 
			"-0.025": 0.0,
			"-0.024": 0.0,
			"-0.023": 0.0,
			"-0.022": 0.0,
			"-0.021": 0.0,
			"-0.02": 0.0,
			"-0.019": 0.0,
			"-0.018": 0.0,
			"-0.017": 0.0,
			"-0.016": 0.0,
			"-0.015": 0.2061939481,
			"-0.014": 2.27880047075,
			"-0.013": 3.50769372604,
			"-0.012": 5.09573628262,
			"-0.011": 5.24474811213,
			"-0.01": 5.32951193184,
			"-0.009": 4.60514970129,
			"-0.008": 4.88712661012,
			"-0.007": 4.59456048829,
			"-0.006": 7.74317564865,
			"-0.005": 6.68020297915,
			"-0.004": 6.62427672737,
			"-0.003": 5.35401155215,
			"-0.002": 7.09052727119,
			"-0.001": 7.25017809906,
			"0.0": 8.81892422101,
			"0.001": 9.91980287282,
			"0.002": 12.2763739804,
			"0.003": 15.1734605663,
			"0.004": 6.13268535746,
			"0.005": 5.55123626923,
			"0.006": 4.95418271498,
			"0.007": 3.68666002485,
			"0.008": 4.25820273088,
			"0.009": 3.22151267595,
			"0.01": 3.06573654062,
			"0.011": 3.12179629933,
			"0.012": 4.47437460782,
			"0.013": 5.88452358143,
			"0.014": 3.04799663628,
			"0.015": 0.856452846393,
			"0.016": 0.288921645493,
			"0.017": 0.0,
			"0.018": 0.0,
			"0.019": 0.0,
			"0.02": 0.0,
			"0.021": 0.0,
			"0.022": 0.0,
			"0.023": 0.0,
			"0.024": 0.0,
			"0.025": 0.0
		}
	}
}
