{
	 "smiles": "CC1(NC(=O)NC1=O)C1=NC=CC=C1", 
	 "Tm": 444.15, 
	 "num_atms": 23, 
	 "gaussian": { 
		 "optdone": 1, 
		 "sigma_profile": "yes", 
		 "theory": "DFT", 
		 "functional": "B3LYP", 
		 "basiset": "6-31G**", 
		 "properties": { 
			 "R2extent": 2622.8026, 
			 "electric_dipole_moment_norm": 3.82779054155, 
			 "electric_quadrupole_moment_norm": 13.915108176, 
			 "total_energy": -663.127090488, 
			 "HOMO_LUMO_gap": 0.21637, 
			 "cosmo_polarized_energy": -14.29, 
			 "cosmo_cavitation_energy": 27.22, 
			 "cosmo_dispersion_energy": -19.71, 
			 "cosmo_repulsion_energy": 1.56, 
			 "cosmo_total_nonelectrostatic_energy": 9.08, 
			 "SMD_solvation_energy": 4.79 
		},
		"coords": [
			{
				"x": -0.9571806486,
				"y": -0.532686918,
				"z": 2.1176811365,
				"element": "C" 
			},
			{
				"x": -0.1024692388,
				"y": 0.2673888887,
				"z": 1.1141295372,
				"element": "C" 
			},
			{
				"x": 1.3080726337,
				"y": 0.2889879434,
				"z": 1.4958467983,
				"element": "N" 
			},
			{
				"x": 1.8089186689,
				"y": 1.5692311901,
				"z": 1.5831163064,
				"element": "C" 
			},
			{
				"x": 2.9569421766,
				"y": 1.9286646575,
				"z": 1.7279167578,
				"element": "O" 
			},
			{
				"x": 0.6869996763,
				"y": 2.4269490478,
				"z": 1.4868919834,
				"element": "N" 
			},
			{
				"x": -0.4791903682,
				"y": 1.7657825836,
				"z": 1.1913205394,
				"element": "C" 
			},
			{
				"x": -1.5850324454,
				"y": 2.249014665,
				"z": 1.0442844782,
				"element": "O" 
			},
			{
				"x": -0.2829457703,
				"y": -0.3018825157,
				"z": -0.3019792354,
				"element": "C" 
			},
			{
				"x": 0.6930841667,
				"y": -1.1209072496,
				"z": -0.7141981614,
				"element": "N" 
			},
			{
				"x": 0.57133436,
				"y": -1.6936083668,
				"z": -1.9182974476,
				"element": "C" 
			},
			{
				"x": -0.5178142646,
				"y": -1.4785076102,
				"z": -2.7611813334,
				"element": "C" 
			},
			{
				"x": -1.5303943439,
				"y": -0.6242286363,
				"z": -2.3240412961,
				"element": "C" 
			},
			{
				"x": -1.4191529815,
				"y": -0.0255555248,
				"z": -1.0706704888,
				"element": "C" 
			},
			{
				"x": -2.017715819,
				"y": -0.4274150525,
				"z": 1.8763084321,
				"element": "H" 
			},
			{
				"x": -0.785885891,
				"y": -0.1663968795,
				"z": 3.1335014035,
				"element": "H" 
			},
			{
				"x": -0.6840267454,
				"y": -1.5905598721,
				"z": 2.0752700073,
				"element": "H" 
			},
			{
				"x": 1.9056788342,
				"y": -0.4275844728,
				"z": 1.1007143488,
				"element": "H" 
			},
			{
				"x": 0.7631237274,
				"y": 3.4290130229,
				"z": 1.5890719458,
				"element": "H" 
			},
			{
				"x": 1.384324635,
				"y": -2.3514300643,
				"z": -2.2189747498,
				"element": "H" 
			},
			{
				"x": -0.5663948277,
				"y": -1.9647912244,
				"z": -3.730021381,
				"element": "H" 
			},
			{
				"x": -2.3944234251,
				"y": -0.4233675444,
				"z": -2.9508312024,
				"element": "H" 
			},
			{
				"x": -2.1754521094,
				"y": 0.6535899323,
				"z": -0.6935583789,
				"element": "H" 
			}
		],
		 "valence_orbital": [ 
			{
				"type": "occ",
				"energy": -0.28955,
				"method": "rhf"
			},
			{
				"type": "occ",
				"energy": -0.27732,
				"method": "rhf"
			},
			{
				"type": "occ",
				"energy": -0.27525,
				"method": "rhf"
			},
			{
				"type": "occ",
				"energy": -0.26931,
				"method": "rhf"
			},
			{
				"type": "occ",
				"energy": -0.25728,
				"method": "rhf"
			},
			{
				"type": "unocc",
				"energy": -0.04091,
				"method": "rhf"
			},
			{
				"type": "unocc",
				"energy": -0.02846,
				"method": "rhf"
			},
			{
				"type": "unocc",
				"energy": -0.00718,
				"method": "rhf"
			},
			{
				"type": "unocc",
				"energy": 0.05811,
				"method": "rhf"
			},
			{
				"type": "unocc",
				"energy": 0.08523,
				"method": "rhf"
			}
		],
		"cosmo_sigma_profile": { 
			"-0.025": 0.0,
			"-0.024": 0.0,
			"-0.023": 0.0,
			"-0.022": 0.0,
			"-0.021": 0.0,
			"-0.02": 0.0,
			"-0.019": 0.0,
			"-0.018": 0.00379259573125,
			"-0.017": 0.698195919234,
			"-0.016": 1.37884792764,
			"-0.015": 0.583604725834,
			"-0.014": 1.46747798491,
			"-0.013": 0.665820786951,
			"-0.012": 1.25160213335,
			"-0.011": 1.14445960183,
			"-0.01": 1.14672555572,
			"-0.009": 1.53623797326,
			"-0.008": 2.31241392314,
			"-0.007": 7.10660359311,
			"-0.006": 11.4773492016,
			"-0.005": 15.4063947966,
			"-0.004": 15.64610014,
			"-0.003": 16.6328272582,
			"-0.002": 16.7648812552,
			"-0.001": 18.7815396039,
			"0.0": 13.807371857,
			"0.001": 15.3634534046,
			"0.002": 16.4869413383,
			"0.003": 8.33669092502,
			"0.004": 5.85772498288,
			"0.005": 4.74303753947,
			"0.006": 4.65398872312,
			"0.007": 4.45684052881,
			"0.008": 2.91072491541,
			"0.009": 3.39470189234,
			"0.01": 3.77752387763,
			"0.011": 5.60140563811,
			"0.012": 8.84355590883,
			"0.013": 4.63311582934,
			"0.014": 0.275977353836,
			"0.015": 0.0,
			"0.016": 0.0,
			"0.017": 0.0,
			"0.018": 0.0,
			"0.019": 0.0,
			"0.02": 0.0,
			"0.021": 0.0,
			"0.022": 0.0,
			"0.023": 0.0,
			"0.024": 0.0,
			"0.025": 0.0
		}
	}
}
