{
	 "smiles": "FC(F)(F)OC1=CC=C(C=C1)N1C(S)=NN=C1C1=CC(=CC=C1)S(=O)(=O)N1CCOCC1", 
	 "Tm": 521.15, 
	 "num_atms": 49, 
	 "gaussian": { 
		 "optdone": 1, 
		 "sigma_profile": "yes", 
		 "theory": "DFT", 
		 "functional": "B3LYP", 
		 "basiset": "6-31G**", 
		 "properties": { 
			 "R2extent": 20239.1807, 
			 "electric_dipole_moment_norm": 7.16141958274, 
			 "electric_quadrupole_moment_norm": 41.2429144476, 
			 "total_energy": -2349.94088285, 
			 "HOMO_LUMO_gap": 0.1751, 
			 "cosmo_polarized_energy": -27.74, 
			 "cosmo_cavitation_energy": 57.44, 
			 "cosmo_dispersion_energy": -38.92, 
			 "cosmo_repulsion_energy": 2.81, 
			 "cosmo_total_nonelectrostatic_energy": 21.33, 
			 "SMD_solvation_energy": 6.82 
		},
		"coords": [
			{
				"x": -4.8865773849,
				"y": -2.6977873029,
				"z": 1.5442335454,
				"element": "F" 
			},
			{
				"x": -4.8782224601,
				"y": -3.8917076736,
				"z": 0.923603615,
				"element": "C" 
			},
			{
				"x": -5.2017511996,
				"y": -3.6770062254,
				"z": -0.3657904938,
				"element": "F" 
			},
			{
				"x": -5.8064998065,
				"y": -4.6680388623,
				"z": 1.4720369854,
				"element": "F" 
			},
			{
				"x": -3.6857904079,
				"y": -4.5332496811,
				"z": 1.0572842621,
				"element": "O" 
			},
			{
				"x": -2.49910805,
				"y": -3.952783668,
				"z": 0.6252761027,
				"element": "C" 
			},
			{
				"x": -1.3554471127,
				"y": -4.6843540185,
				"z": 0.9507468137,
				"element": "C" 
			},
			{
				"x": -0.1037086345,
				"y": -4.2106477504,
				"z": 0.5721473745,
				"element": "C" 
			},
			{
				"x": -0.0013546282,
				"y": -3.0074834848,
				"z": -0.1343857365,
				"element": "C" 
			},
			{
				"x": -1.1518227892,
				"y": -2.2885860851,
				"z": -0.4648470449,
				"element": "C" 
			},
			{
				"x": -2.4098692496,
				"y": -2.7523423863,
				"z": -0.0831038909,
				"element": "C" 
			},
			{
				"x": 1.2847867495,
				"y": -2.5246981899,
				"z": -0.5388972246,
				"element": "N" 
			},
			{
				"x": 2.0306087859,
				"y": -3.0148262735,
				"z": -1.5889158084,
				"element": "C" 
			},
			{
				"x": 1.5365925057,
				"y": -4.4243636483,
				"z": -2.5294908691,
				"element": "S" 
			},
			{
				"x": 3.1089052361,
				"y": -2.2930847337,
				"z": -1.7825838161,
				"element": "N" 
			},
			{
				"x": 3.0926573314,
				"y": -1.2899062987,
				"z": -0.8448447855,
				"element": "N" 
			},
			{
				"x": 2.0126470056,
				"y": -1.4183819413,
				"z": -0.1037894752,
				"element": "C" 
			},
			{
				"x": 1.6784572238,
				"y": -0.5078407126,
				"z": 1.0006587368,
				"element": "C" 
			},
			{
				"x": 2.2949550677,
				"y": 0.756115088,
				"z": 1.0011347183,
				"element": "C" 
			},
			{
				"x": 2.033581704,
				"y": 1.6518262475,
				"z": 2.0348991398,
				"element": "C" 
			},
			{
				"x": 1.1794604506,
				"y": 1.3185730794,
				"z": 3.0911553635,
				"element": "C" 
			},
			{
				"x": 0.581859079,
				"y": 0.0592206216,
				"z": 3.0958547406,
				"element": "C" 
			},
			{
				"x": 0.8242547115,
				"y": -0.8470521916,
				"z": 2.0636999015,
				"element": "C" 
			},
			{
				"x": 2.7816274771,
				"y": 3.2932128784,
				"z": 1.9929219246,
				"element": "S" 
			},
			{
				"x": 2.7125805892,
				"y": 3.8177383993,
				"z": 3.3583338266,
				"element": "O" 
			},
			{
				"x": 4.0354422868,
				"y": 3.185476588,
				"z": 1.2465300277,
				"element": "O" 
			},
			{
				"x": 1.7675301293,
				"y": 4.2626486671,
				"z": 1.0768814264,
				"element": "N" 
			},
			{
				"x": 0.4531230953,
				"y": 4.6076406404,
				"z": 1.6500225144,
				"element": "C" 
			},
			{
				"x": -0.3193584023,
				"y": 5.4232029392,
				"z": 0.6174657752,
				"element": "C" 
			},
			{
				"x": -0.567261576,
				"y": 4.6995617389,
				"z": -0.5826939594,
				"element": "O" 
			},
			{
				"x": 0.4853302831,
				"y": 3.8203445512,
				"z": -0.9832794849,
				"element": "C" 
			},
			{
				"x": 1.8381679194,
				"y": 4.212320152,
				"z": -0.3964544998,
				"element": "C" 
			},
			{
				"x": -1.4628728075,
				"y": -5.6131992529,
				"z": 1.4995241214,
				"element": "H" 
			},
			{
				"x": 0.7930761398,
				"y": -4.7661074198,
				"z": 0.8253178751,
				"element": "H" 
			},
			{
				"x": -1.0637930565,
				"y": -1.3627982229,
				"z": -1.0233035719,
				"element": "H" 
			},
			{
				"x": -3.292822126,
				"y": -2.1869193691,
				"z": -0.3478494099,
				"element": "H" 
			},
			{
				"x": 2.6090610218,
				"y": -4.3268857126,
				"z": -3.3384152045,
				"element": "H" 
			},
			{
				"x": 2.9950081109,
				"y": 1.0051376097,
				"z": 0.2121254312,
				"element": "H" 
			},
			{
				"x": 1.0216407862,
				"y": 2.0234247163,
				"z": 3.8994101795,
				"element": "H" 
			},
			{
				"x": -0.068315337,
				"y": -0.2263738949,
				"z": 3.9170952967,
				"element": "H" 
			},
			{
				"x": 0.3642200181,
				"y": -1.8264937604,
				"z": 2.1045020143,
				"element": "H" 
			},
			{
				"x": 0.6001143849,
				"y": 5.1883189682,
				"z": 2.5640712165,
				"element": "H" 
			},
			{
				"x": -0.1280073087,
				"y": 3.7075709496,
				"z": 1.9028537554,
				"element": "H" 
			},
			{
				"x": -1.2976118771,
				"y": 5.6957843629,
				"z": 1.0247472563,
				"element": "H" 
			},
			{
				"x": 0.2267244181,
				"y": 6.3550152226,
				"z": 0.405532094,
				"element": "H" 
			},
			{
				"x": 0.5315478076,
				"y": 3.8471014855,
				"z": -2.0778214858,
				"element": "H" 
			},
			{
				"x": 0.2413762355,
				"y": 2.7901591068,
				"z": -0.6820973852,
				"element": "H" 
			},
			{
				"x": 2.6129155706,
				"y": 3.5065281789,
				"z": -0.7013517183,
				"element": "H" 
			},
			{
				"x": 2.1419420898,
				"y": 5.1970965688,
				"z": -0.7712501701,
				"element": "H" 
			}
		],
		 "valence_orbital": [ 
			{
				"type": "occ",
				"energy": -0.28051,
				"method": "rhf"
			},
			{
				"type": "occ",
				"energy": -0.26248,
				"method": "rhf"
			},
			{
				"type": "occ",
				"energy": -0.26083,
				"method": "rhf"
			},
			{
				"type": "occ",
				"energy": -0.24989,
				"method": "rhf"
			},
			{
				"type": "occ",
				"energy": -0.23246,
				"method": "rhf"
			},
			{
				"type": "unocc",
				"energy": -0.05736,
				"method": "rhf"
			},
			{
				"type": "unocc",
				"energy": -0.0516,
				"method": "rhf"
			},
			{
				"type": "unocc",
				"energy": -0.04613,
				"method": "rhf"
			},
			{
				"type": "unocc",
				"energy": -0.03778,
				"method": "rhf"
			},
			{
				"type": "unocc",
				"energy": 0.00107,
				"method": "rhf"
			}
		],
		"cosmo_sigma_profile": { 
			"-0.025": 0.0,
			"-0.024": 0.0,
			"-0.023": 0.0,
			"-0.022": 0.0,
			"-0.021": 0.0,
			"-0.02": 0.0,
			"-0.019": 0.0,
			"-0.018": 0.0,
			"-0.017": 0.0,
			"-0.016": 0.0,
			"-0.015": 0.0,
			"-0.014": 0.0,
			"-0.013": 0.241309346821,
			"-0.012": 1.69902731476,
			"-0.011": 1.46017168577,
			"-0.01": 1.04753747679,
			"-0.009": 1.78145902998,
			"-0.008": 9.85077626016,
			"-0.007": 17.3419177245,
			"-0.006": 27.3745235273,
			"-0.005": 35.4687378207,
			"-0.004": 36.1099836469,
			"-0.003": 29.8848298601,
			"-0.002": 29.2979844215,
			"-0.001": 31.0336739922,
			"0.0": 40.3352158061,
			"0.001": 55.1180476379,
			"0.002": 41.0317600363,
			"0.003": 13.3076994931,
			"0.004": 12.3495382593,
			"0.005": 10.6383511285,
			"0.006": 8.80448298633,
			"0.007": 7.65100714401,
			"0.008": 6.79239216789,
			"0.009": 5.64653807065,
			"0.01": 9.75916454096,
			"0.011": 11.4375779809,
			"0.012": 7.66555718161,
			"0.013": 4.61319882482,
			"0.014": 2.16132075958,
			"0.015": 1.77793495503,
			"0.016": 0.359870590614,
			"0.017": 0.0,
			"0.018": 0.0,
			"0.019": 0.0,
			"0.02": 0.0,
			"0.021": 0.0,
			"0.022": 0.0,
			"0.023": 0.0,
			"0.024": 0.0,
			"0.025": 0.0
		}
	}
}
