{
	 "smiles": "CC1=C(OCCCC(O)=O)C=CC(=C1)S(Cl)(=O)=O", 
	 "Tm": 409.15, 
	 "num_atms": 31, 
	 "gaussian": { 
		 "optdone": 1, 
		 "sigma_profile": "yes", 
		 "theory": "DFT", 
		 "functional": "B3LYP", 
		 "basiset": "6-31G**", 
		 "properties": { 
			 "R2extent": 10894.2893, 
			 "electric_dipole_moment_norm": 7.98808583705, 
			 "electric_quadrupole_moment_norm": 33.3880919988, 
			 "total_energy": -1661.4620884, 
			 "HOMO_LUMO_gap": 0.16927, 
			 "cosmo_polarized_energy": -16.83, 
			 "cosmo_cavitation_energy": 39.13, 
			 "cosmo_dispersion_energy": -27.75, 
			 "cosmo_repulsion_energy": 2.15, 
			 "cosmo_total_nonelectrostatic_energy": 13.52, 
			 "SMD_solvation_energy": 6.52 
		},
		"coords": [
			{
				"x": 1.3586130228,
				"y": 1.7219193236,
				"z": 0.0282122222,
				"element": "C" 
			},
			{
				"x": 1.71976431,
				"y": 0.3079130298,
				"z": -0.3447701676,
				"element": "C" 
			},
			{
				"x": 0.7327885031,
				"y": -0.5582478122,
				"z": -0.8786127519,
				"element": "C" 
			},
			{
				"x": -0.5018165394,
				"y": -0.0136307668,
				"z": -1.0041458263,
				"element": "O" 
			},
			{
				"x": -1.579228008,
				"y": -0.8142166231,
				"z": -1.5159297941,
				"element": "C" 
			},
			{
				"x": -2.8253160183,
				"y": 0.0607305597,
				"z": -1.5599074208,
				"element": "C" 
			},
			{
				"x": -2.7126803739,
				"y": 1.2578227781,
				"z": -2.5085371499,
				"element": "C" 
			},
			{
				"x": -2.6889848422,
				"y": 0.8644582722,
				"z": -3.9705995624,
				"element": "C" 
			},
			{
				"x": -2.5767613206,
				"y": 1.9468012591,
				"z": -4.7732767304,
				"element": "O" 
			},
			{
				"x": -2.7638195611,
				"y": -0.2659618019,
				"z": -4.4050334569,
				"element": "O" 
			},
			{
				"x": 1.0449876929,
				"y": -1.8768001008,
				"z": -1.2402770482,
				"element": "C" 
			},
			{
				"x": 2.3418245061,
				"y": -2.3564669662,
				"z": -1.0736768967,
				"element": "C" 
			},
			{
				"x": 3.3093068772,
				"y": -1.5026430326,
				"z": -0.5512458168,
				"element": "C" 
			},
			{
				"x": 3.008758128,
				"y": -0.1850331095,
				"z": -0.1850148351,
				"element": "C" 
			},
			{
				"x": 4.9659408339,
				"y": -2.099416042,
				"z": -0.3419054546,
				"element": "S" 
			},
			{
				"x": 4.9188044101,
				"y": -2.8429854859,
				"z": 1.6716869957,
				"element": "Cl" 
			},
			{
				"x": 5.8947492535,
				"y": -0.9751842314,
				"z": -0.3216542323,
				"element": "O" 
			},
			{
				"x": 5.1776078709,
				"y": -3.2684240997,
				"z": -1.1877644991,
				"element": "O" 
			},
			{
				"x": 1.0074907323,
				"y": 2.2838279548,
				"z": -0.8442500252,
				"element": "H" 
			},
			{
				"x": 0.5461380808,
				"y": 1.7404815378,
				"z": 0.7620627833,
				"element": "H" 
			},
			{
				"x": 2.2196816592,
				"y": 2.2451504166,
				"z": 0.4500994349,
				"element": "H" 
			},
			{
				"x": -1.7398508418,
				"y": -1.6751060793,
				"z": -0.8543379655,
				"element": "H" 
			},
			{
				"x": -1.33217172,
				"y": -1.181542643,
				"z": -2.5175428969,
				"element": "H" 
			},
			{
				"x": -3.0374444486,
				"y": 0.4236510021,
				"z": -0.5487270905,
				"element": "H" 
			},
			{
				"x": -3.6643719195,
				"y": -0.5729204417,
				"z": -1.8647924317,
				"element": "H" 
			},
			{
				"x": -1.8110841232,
				"y": 1.842871158,
				"z": -2.2972083772,
				"element": "H" 
			},
			{
				"x": -3.5543923492,
				"y": 1.9460038893,
				"z": -2.3680637607,
				"element": "H" 
			},
			{
				"x": -2.5712522413,
				"y": 1.6121261779,
				"z": -5.6860906009,
				"element": "H" 
			},
			{
				"x": 0.2890580016,
				"y": -2.5311880595,
				"z": -1.655227626,
				"element": "H" 
			},
			{
				"x": 2.5988627239,
				"y": -3.3712589926,
				"z": -1.3549499884,
				"element": "H" 
			},
			{
				"x": 3.7892977009,
				"y": 0.4540689294,
				"z": 0.2138809702,
				"element": "H" 
			}
		],
		 "valence_orbital": [ 
			{
				"type": "occ",
				"energy": -0.3171,
				"method": "rhf"
			},
			{
				"type": "occ",
				"energy": -0.30281,
				"method": "rhf"
			},
			{
				"type": "occ",
				"energy": -0.29153,
				"method": "rhf"
			},
			{
				"type": "occ",
				"energy": -0.27675,
				"method": "rhf"
			},
			{
				"type": "occ",
				"energy": -0.24938,
				"method": "rhf"
			},
			{
				"type": "unocc",
				"energy": -0.08011,
				"method": "rhf"
			},
			{
				"type": "unocc",
				"energy": -0.02919,
				"method": "rhf"
			},
			{
				"type": "unocc",
				"energy": -0.02616,
				"method": "rhf"
			},
			{
				"type": "unocc",
				"energy": -0.00649,
				"method": "rhf"
			},
			{
				"type": "unocc",
				"energy": 0.06155,
				"method": "rhf"
			}
		],
		"cosmo_sigma_profile": { 
			"-0.025": 0.0,
			"-0.024": 0.0,
			"-0.023": 0.0,
			"-0.022": 0.0,
			"-0.021": 0.0,
			"-0.02": 0.0,
			"-0.019": 0.0800115420012,
			"-0.018": 0.798284848973,
			"-0.017": 0.969449122335,
			"-0.016": 0.627591491164,
			"-0.015": 0.365717669495,
			"-0.014": 1.02231937182,
			"-0.013": 0.512162986959,
			"-0.012": 1.09460813899,
			"-0.011": 0.729343090703,
			"-0.01": 0.323670435759,
			"-0.009": 0.842539310732,
			"-0.008": 4.30966098642,
			"-0.007": 8.91943271441,
			"-0.006": 13.1368776137,
			"-0.005": 19.3737176167,
			"-0.004": 26.0231949812,
			"-0.003": 23.9657191053,
			"-0.002": 23.4710807301,
			"-0.001": 24.3022311498,
			"0.0": 26.4882744309,
			"0.001": 25.2537341299,
			"0.002": 21.2138280564,
			"0.003": 14.6688924989,
			"0.004": 18.9255474916,
			"0.005": 10.2929652841,
			"0.006": 6.15501651465,
			"0.007": 6.7447034686,
			"0.008": 12.1160708453,
			"0.009": 10.5457005662,
			"0.01": 2.72057240892,
			"0.011": 3.28405147474,
			"0.012": 3.29273999239,
			"0.013": 0.0948681809298,
			"0.014": 0.0,
			"0.015": 0.0,
			"0.016": 0.0,
			"0.017": 0.0,
			"0.018": 0.0,
			"0.019": 0.0,
			"0.02": 0.0,
			"0.021": 0.0,
			"0.022": 0.0,
			"0.023": 0.0,
			"0.024": 0.0,
			"0.025": 0.0
		}
	}
}
