{
	 "smiles": "CC1(C)C2CCC1(C)C(OC2=O)C(O)=O", 
	 "Tm": 474.15, 
	 "num_atms": 31, 
	 "gaussian": { 
		 "optdone": 1, 
		 "sigma_profile": "yes", 
		 "theory": "DFT", 
		 "functional": "B3LYP", 
		 "basiset": "6-31G**", 
		 "properties": { 
			 "R2extent": 2738.053, 
			 "electric_dipole_moment_norm": 5.59547727544, 
			 "electric_quadrupole_moment_norm": 14.268538546, 
			 "total_energy": -729.727627441, 
			 "HOMO_LUMO_gap": 0.24625, 
			 "cosmo_polarized_energy": -16.87, 
			 "cosmo_cavitation_energy": 30.09, 
			 "cosmo_dispersion_energy": -21.69, 
			 "cosmo_repulsion_energy": 1.65, 
			 "cosmo_total_nonelectrostatic_energy": 10.06, 
			 "SMD_solvation_energy": 6.73 
		},
		"coords": [
			{
				"x": -2.1554729306,
				"y": -0.0831719094,
				"z": -1.634461405,
				"element": "C" 
			},
			{
				"x": -0.9876563692,
				"y": -0.022427382,
				"z": -0.6260444193,
				"element": "C" 
			},
			{
				"x": -0.7255305677,
				"y": 1.462553104,
				"z": -0.3212725124,
				"element": "C" 
			},
			{
				"x": -1.3334247615,
				"y": -0.8445818427,
				"z": 0.6430971168,
				"element": "C" 
			},
			{
				"x": -1.2891558882,
				"y": -2.3253862426,
				"z": 0.1700555839,
				"element": "C" 
			},
			{
				"x": -0.2733298691,
				"y": -2.3256793124,
				"z": -1.002487325,
				"element": "C" 
			},
			{
				"x": 0.251977627,
				"y": -0.8605781869,
				"z": -1.1116631785,
				"element": "C" 
			},
			{
				"x": 0.7450213865,
				"y": -0.5369798302,
				"z": -2.5272089556,
				"element": "C" 
			},
			{
				"x": 1.4241631401,
				"y": -0.7296728869,
				"z": -0.0767602701,
				"element": "C" 
			},
			{
				"x": 1.0276557355,
				"y": -0.686551227,
				"z": 1.3001094299,
				"element": "O" 
			},
			{
				"x": -0.2779624344,
				"y": -0.6474308551,
				"z": 1.7133709626,
				"element": "C" 
			},
			{
				"x": -0.5052360085,
				"y": -0.5222226748,
				"z": 2.8899578606,
				"element": "O" 
			},
			{
				"x": 2.3898625816,
				"y": 0.4483145367,
				"z": -0.2803251766,
				"element": "C" 
			},
			{
				"x": 3.3644321315,
				"y": 0.1063610777,
				"z": -1.1581503451,
				"element": "O" 
			},
			{
				"x": 2.3530200683,
				"y": 1.5231536519,
				"z": 0.2679369342,
				"element": "O" 
			},
			{
				"x": -1.9312225337,
				"y": 0.5085493936,
				"z": -2.5272178207,
				"element": "H" 
			},
			{
				"x": -3.0535043371,
				"y": 0.3464828064,
				"z": -1.1779890143,
				"element": "H" 
			},
			{
				"x": -2.404462209,
				"y": -1.0960310553,
				"z": -1.9602181083,
				"element": "H" 
			},
			{
				"x": -1.6542305804,
				"y": 1.9336320593,
				"z": 0.0187114643,
				"element": "H" 
			},
			{
				"x": 0.0351527261,
				"y": 1.6254112019,
				"z": 0.4424498541,
				"element": "H" 
			},
			{
				"x": -0.40480801,
				"y": 1.9959810421,
				"z": -1.2227124533,
				"element": "H" 
			},
			{
				"x": -2.2909753501,
				"y": -0.5712660751,
				"z": 1.0920692744,
				"element": "H" 
			},
			{
				"x": -1.0011953742,
				"y": -3.000173144,
				"z": 0.9809472181,
				"element": "H" 
			},
			{
				"x": -2.2827612942,
				"y": -2.6391943449,
				"z": -0.1609539357,
				"element": "H" 
			},
			{
				"x": 0.5459779407,
				"y": -3.0343133588,
				"z": -0.8478732151,
				"element": "H" 
			},
			{
				"x": -0.7574530998,
				"y": -2.6151190348,
				"z": -1.9395900382,
				"element": "H" 
			},
			{
				"x": -0.0364354209,
				"y": -0.7628448513,
				"z": -3.2571324971,
				"element": "H" 
			},
			{
				"x": 1.6264568218,
				"y": -1.1301913475,
				"z": -2.7875071865,
				"element": "H" 
			},
			{
				"x": 1.0150643768,
				"y": 0.5174588678,
				"z": -2.640469134,
				"element": "H" 
			},
			{
				"x": 2.0474943813,
				"y": -1.6237196452,
				"z": -0.1869433265,
				"element": "H" 
			},
			{
				"x": 3.9383381219,
				"y": 0.8865374657,
				"z": -1.2449253818,
				"element": "H" 
			}
		],
		 "valence_orbital": [ 
			{
				"type": "occ",
				"energy": -0.31913,
				"method": "rhf"
			},
			{
				"type": "occ",
				"energy": -0.3096,
				"method": "rhf"
			},
			{
				"type": "occ",
				"energy": -0.30093,
				"method": "rhf"
			},
			{
				"type": "occ",
				"energy": -0.2793,
				"method": "rhf"
			},
			{
				"type": "occ",
				"energy": -0.25885,
				"method": "rhf"
			},
			{
				"type": "unocc",
				"energy": -0.0126,
				"method": "rhf"
			},
			{
				"type": "unocc",
				"energy": 0.01621,
				"method": "rhf"
			},
			{
				"type": "unocc",
				"energy": 0.05768,
				"method": "rhf"
			},
			{
				"type": "unocc",
				"energy": 0.06756,
				"method": "rhf"
			},
			{
				"type": "unocc",
				"energy": 0.08652,
				"method": "rhf"
			}
		],
		"cosmo_sigma_profile": { 
			"-0.025": 0.0,
			"-0.024": 0.0,
			"-0.023": 0.0,
			"-0.022": 0.0,
			"-0.021": 0.0,
			"-0.02": 0.0,
			"-0.019": 0.206133923274,
			"-0.018": 1.03093373307,
			"-0.017": 1.19695059525,
			"-0.016": 0.367033130391,
			"-0.015": 1.14092582497,
			"-0.014": 0.79339128619,
			"-0.013": 0.655466275072,
			"-0.012": 0.523301165017,
			"-0.011": 0.637007556992,
			"-0.01": 0.561446618684,
			"-0.009": 0.601327243154,
			"-0.008": 1.72699778798,
			"-0.007": 3.8691563629,
			"-0.006": 3.5291647339,
			"-0.005": 10.3880079154,
			"-0.004": 25.7621787275,
			"-0.003": 32.2413550655,
			"-0.002": 25.5492020433,
			"-0.001": 24.724217663,
			"0.0": 21.7434378577,
			"0.001": 12.6749087727,
			"0.002": 5.47929246158,
			"0.003": 5.02005714091,
			"0.004": 4.74508727617,
			"0.005": 4.97908953145,
			"0.006": 3.43132564615,
			"0.007": 5.04059284878,
			"0.008": 4.66982127961,
			"0.009": 4.85289547021,
			"0.01": 7.20394469469,
			"0.011": 9.08610748449,
			"0.012": 6.44625772131,
			"0.013": 2.28024016268,
			"0.014": 0.0695891719617,
			"0.015": 0.0,
			"0.016": 0.0,
			"0.017": 0.0,
			"0.018": 0.0,
			"0.019": 0.0,
			"0.02": 0.0,
			"0.021": 0.0,
			"0.022": 0.0,
			"0.023": 0.0,
			"0.024": 0.0,
			"0.025": 0.0
		}
	}
}
