{
	 "smiles": "CC(=O)NC1=CC(Cl)=C(Cl)C=C1[N+]([O-])=O", 
	 "Tm": 400.15, 
	 "num_atms": 21, 
	 "gaussian": { 
		 "optdone": 1, 
		 "sigma_profile": "yes", 
		 "theory": "DFT", 
		 "functional": "B3LYP", 
		 "basiset": "6-31G**", 
		 "properties": { 
			 "R2extent": 4561.5646, 
			 "electric_dipole_moment_norm": 3.24934801614, 
			 "electric_quadrupole_moment_norm": 14.9537548141, 
			 "total_energy": -1563.9230023, 
			 "HOMO_LUMO_gap": 0.14854, 
			 "cosmo_polarized_energy": -15.03, 
			 "cosmo_cavitation_energy": 29.84, 
			 "cosmo_dispersion_energy": -21.6, 
			 "cosmo_repulsion_energy": 1.69, 
			 "cosmo_total_nonelectrostatic_energy": 9.93, 
			 "SMD_solvation_energy": 7.67 
		},
		"coords": [
			{
				"x": 0.7900606898,
				"y": 1.8222457928,
				"z": -2.1576943394,
				"element": "C" 
			},
			{
				"x": 1.3384127353,
				"y": 2.166512356,
				"z": -0.7903296867,
				"element": "C" 
			},
			{
				"x": 2.129025393,
				"y": 3.0741025804,
				"z": -0.6108788769,
				"element": "O" 
			},
			{
				"x": 0.9811215115,
				"y": 1.3737262982,
				"z": 0.3063622241,
				"element": "N" 
			},
			{
				"x": 0.1263394503,
				"y": 0.2744844258,
				"z": 0.4376918527,
				"element": "C" 
			},
			{
				"x": 0.6190602826,
				"y": -0.8364823794,
				"z": 1.1433600457,
				"element": "C" 
			},
			{
				"x": -0.135517986,
				"y": -1.98782732,
				"z": 1.3414669324,
				"element": "C" 
			},
			{
				"x": 0.5658018002,
				"y": -3.3008035999,
				"z": 2.2388276175,
				"element": "Cl" 
			},
			{
				"x": -1.4261881779,
				"y": -2.0828019716,
				"z": 0.7927877437,
				"element": "C" 
			},
			{
				"x": -2.4020994573,
				"y": -3.5107421588,
				"z": 0.9787089676,
				"element": "Cl" 
			},
			{
				"x": -1.9361440032,
				"y": -0.9976919683,
				"z": 0.093614117,
				"element": "C" 
			},
			{
				"x": -1.1927011112,
				"y": 0.1741043532,
				"z": -0.0566549981,
				"element": "C" 
			},
			{
				"x": -1.9111445322,
				"y": 1.3017660318,
				"z": -0.6744637708,
				"element": "N" 
			},
			{
				"x": -1.5438570783,
				"y": 2.4411799332,
				"z": -0.3965545323,
				"element": "O" 
			},
			{
				"x": -2.862355931,
				"y": 1.0302733303,
				"z": -1.4055247959,
				"element": "O" 
			},
			{
				"x": 0.3852088326,
				"y": 0.8108685325,
				"z": -2.233404431,
				"element": "H" 
			},
			{
				"x": 0.0062335435,
				"y": 2.5379286903,
				"z": -2.4190163343,
				"element": "H" 
			},
			{
				"x": 1.6054499704,
				"y": 1.9405476721,
				"z": -2.8735538119,
				"element": "H" 
			},
			{
				"x": 1.5488272981,
				"y": 1.5971506443,
				"z": 1.1152911756,
				"element": "H" 
			},
			{
				"x": 1.6332613145,
				"y": -0.8017009956,
				"z": 1.5254723791,
				"element": "H" 
			},
			{
				"x": -2.9340945449,
				"y": -1.0332402473,
				"z": -0.3234074783,
				"element": "H" 
			}
		],
		 "valence_orbital": [ 
			{
				"type": "occ",
				"energy": -0.31329,
				"method": "rhf"
			},
			{
				"type": "occ",
				"energy": -0.31108,
				"method": "rhf"
			},
			{
				"type": "occ",
				"energy": -0.28992,
				"method": "rhf"
			},
			{
				"type": "occ",
				"energy": -0.27152,
				"method": "rhf"
			},
			{
				"type": "occ",
				"energy": -0.25809,
				"method": "rhf"
			},
			{
				"type": "unocc",
				"energy": -0.10955,
				"method": "rhf"
			},
			{
				"type": "unocc",
				"energy": -0.05969,
				"method": "rhf"
			},
			{
				"type": "unocc",
				"energy": -0.03516,
				"method": "rhf"
			},
			{
				"type": "unocc",
				"energy": -0.02038,
				"method": "rhf"
			},
			{
				"type": "unocc",
				"energy": 0.00981,
				"method": "rhf"
			}
		],
		"cosmo_sigma_profile": { 
			"-0.025": 0.0,
			"-0.024": 0.0,
			"-0.023": 0.0,
			"-0.022": 0.0,
			"-0.021": 0.0,
			"-0.02": 0.0,
			"-0.019": 0.0,
			"-0.018": 0.0,
			"-0.017": 0.0,
			"-0.016": 0.380638720758,
			"-0.015": 1.09633010825,
			"-0.014": 1.43830661587,
			"-0.013": 1.39399211479,
			"-0.012": 1.27614549675,
			"-0.011": 1.49064843366,
			"-0.01": 2.1545211306,
			"-0.009": 2.14387876756,
			"-0.008": 4.49479229562,
			"-0.007": 6.27163348326,
			"-0.006": 10.5359601228,
			"-0.005": 10.7080507763,
			"-0.004": 14.5934189972,
			"-0.003": 20.8356704943,
			"-0.002": 27.7246039719,
			"-0.001": 21.9568144973,
			"0.0": 11.9379338768,
			"0.001": 11.914627875,
			"0.002": 16.2473742577,
			"0.003": 19.6512106325,
			"0.004": 9.91722023085,
			"0.005": 5.53278807202,
			"0.006": 6.98606388143,
			"0.007": 9.29328157527,
			"0.008": 5.62838073384,
			"0.009": 4.3472577779,
			"0.01": 2.09030173945,
			"0.011": 2.29764298822,
			"0.012": 4.61877109777,
			"0.013": 4.10735027913,
			"0.014": 0.574306184231,
			"0.015": 0.0,
			"0.016": 0.0,
			"0.017": 0.0,
			"0.018": 0.0,
			"0.019": 0.0,
			"0.02": 0.0,
			"0.021": 0.0,
			"0.022": 0.0,
			"0.023": 0.0,
			"0.024": 0.0,
			"0.025": 0.0
		}
	}
}
