{
	 "smiles": "COC1=CC=CC(OC)=C1C=O", 
	 "Tm": 370.15, 
	 "num_atms": 22, 
	 "gaussian": { 
		 "optdone": 1, 
		 "sigma_profile": "yes", 
		 "theory": "DFT", 
		 "functional": "B3LYP", 
		 "basiset": "6-31G**", 
		 "properties": { 
			 "R2extent": 2512.3747, 
			 "electric_dipole_moment_norm": 4.66055484465, 
			 "electric_quadrupole_moment_norm": 15.8650592753, 
			 "total_energy": -574.612057841, 
			 "HOMO_LUMO_gap": 0.17682, 
			 "cosmo_polarized_energy": -10.66, 
			 "cosmo_cavitation_energy": 25.67, 
			 "cosmo_dispersion_energy": -18.83, 
			 "cosmo_repulsion_energy": 1.49, 
			 "cosmo_total_nonelectrostatic_energy": 8.34, 
			 "SMD_solvation_energy": 6.99 
		},
		"coords": [
			{
				"x": -2.5491234969,
				"y": 2.1024096263,
				"z": 1.7375295799,
				"element": "C" 
			},
			{
				"x": -1.8593070314,
				"y": 0.9040374491,
				"z": 2.1133553004,
				"element": "O" 
			},
			{
				"x": -0.9959819165,
				"y": 0.3800109495,
				"z": 1.1951932234,
				"element": "C" 
			},
			{
				"x": 0.3691537584,
				"y": 0.5458516455,
				"z": 1.4493940659,
				"element": "C" 
			},
			{
				"x": 1.3095828927,
				"y": -0.0144914129,
				"z": 0.5922407794,
				"element": "C" 
			},
			{
				"x": 0.9167060799,
				"y": -0.7462598011,
				"z": -0.5293097954,
				"element": "C" 
			},
			{
				"x": -0.4457279653,
				"y": -0.9283906961,
				"z": -0.7815352525,
				"element": "C" 
			},
			{
				"x": -0.9164893243,
				"y": -1.6262396367,
				"z": -1.8523961624,
				"element": "O" 
			},
			{
				"x": 0.0100923815,
				"y": -2.2640475996,
				"z": -2.720594615,
				"element": "C" 
			},
			{
				"x": -1.4348317291,
				"y": -0.3745916006,
				"z": 0.0786968285,
				"element": "C" 
			},
			{
				"x": -2.8538617578,
				"y": -0.7118250447,
				"z": -0.1704975731,
				"element": "C" 
			},
			{
				"x": -3.8215139196,
				"y": -0.20084257,
				"z": 0.3704455411,
				"element": "O" 
			},
			{
				"x": -3.1289852544,
				"y": 2.3979243737,
				"z": 2.6137095578,
				"element": "H" 
			},
			{
				"x": -3.2266380517,
				"y": 1.9191027445,
				"z": 0.9016150201,
				"element": "H" 
			},
			{
				"x": -1.8328671951,
				"y": 2.8968432006,
				"z": 1.4913075029,
				"element": "H" 
			},
			{
				"x": 0.6631269796,
				"y": 1.1116522407,
				"z": 2.3264065192,
				"element": "H" 
			},
			{
				"x": 2.3687679442,
				"y": 0.1228135018,
				"z": 0.7906469379,
				"element": "H" 
			},
			{
				"x": 1.6666076093,
				"y": -1.1648333837,
				"z": -1.1880517724,
				"element": "H" 
			},
			{
				"x": 0.6588328037,
				"y": -1.5350613494,
				"z": -3.2212403354,
				"element": "H" 
			},
			{
				"x": 0.6297420098,
				"y": -2.9926201543,
				"z": -2.1838660376,
				"element": "H" 
			},
			{
				"x": -0.5917878725,
				"y": -2.7822902484,
				"z": -3.4681129051,
				"element": "H" 
			},
			{
				"x": -2.9968969444,
				"y": -1.5200522344,
				"z": -0.9104364075,
				"element": "H" 
			}
		],
		 "valence_orbital": [ 
			{
				"type": "occ",
				"energy": -0.32159,
				"method": "rhf"
			},
			{
				"type": "occ",
				"energy": -0.27144,
				"method": "rhf"
			},
			{
				"type": "occ",
				"energy": -0.24987,
				"method": "rhf"
			},
			{
				"type": "occ",
				"energy": -0.23666,
				"method": "rhf"
			},
			{
				"type": "occ",
				"energy": -0.23163,
				"method": "rhf"
			},
			{
				"type": "unocc",
				"energy": -0.05481,
				"method": "rhf"
			},
			{
				"type": "unocc",
				"energy": 0.00338,
				"method": "rhf"
			},
			{
				"type": "unocc",
				"energy": 0.04162,
				"method": "rhf"
			},
			{
				"type": "unocc",
				"energy": 0.0823,
				"method": "rhf"
			},
			{
				"type": "unocc",
				"energy": 0.09466,
				"method": "rhf"
			}
		],
		"cosmo_sigma_profile": { 
			"-0.025": 0.0,
			"-0.024": 0.0,
			"-0.023": 0.0,
			"-0.022": 0.0,
			"-0.021": 0.0,
			"-0.02": 0.0,
			"-0.019": 0.0,
			"-0.018": 0.0,
			"-0.017": 0.0,
			"-0.016": 0.0,
			"-0.015": 0.0,
			"-0.014": 0.0,
			"-0.013": 0.0,
			"-0.012": 0.0,
			"-0.011": 0.0,
			"-0.01": 0.0,
			"-0.009": 0.0,
			"-0.008": 0.122792258443,
			"-0.007": 4.70923083154,
			"-0.006": 13.6410107033,
			"-0.005": 18.4577799871,
			"-0.004": 19.2646717668,
			"-0.003": 20.0399039264,
			"-0.002": 17.9782239781,
			"-0.001": 16.1621255732,
			"0.0": 12.7182343472,
			"0.001": 13.4012092079,
			"0.002": 14.1738980546,
			"0.003": 12.1936252233,
			"0.004": 10.3620600469,
			"0.005": 4.92753705591,
			"0.006": 3.37019220564,
			"0.007": 2.9465208733,
			"0.008": 2.18011004244,
			"0.009": 3.16249672625,
			"0.01": 3.27213175538,
			"0.011": 5.38820920945,
			"0.012": 4.23310535858,
			"0.013": 1.62548887037,
			"0.014": 0.217962542847,
			"0.015": 0.0,
			"0.016": 0.0,
			"0.017": 0.0,
			"0.018": 0.0,
			"0.019": 0.0,
			"0.02": 0.0,
			"0.021": 0.0,
			"0.022": 0.0,
			"0.023": 0.0,
			"0.024": 0.0,
			"0.025": 0.0
		}
	}
}
