{
	 "smiles": "OC(=O)C=CC1=CC(F)=C(F)C=C1F", 
	 "Tm": 459.15, 
	 "num_atms": 19, 
	 "gaussian": { 
		 "optdone": 1, 
		 "sigma_profile": "yes", 
		 "theory": "DFT", 
		 "functional": "B3LYP", 
		 "basiset": "6-31G**", 
		 "properties": { 
			 "R2extent": 3773.3644, 
			 "electric_dipole_moment_norm": 2.0196522869, 
			 "electric_quadrupole_moment_norm": 5.81943219911, 
			 "total_energy": -795.912763748, 
			 "HOMO_LUMO_gap": 0.16471, 
			 "cosmo_polarized_energy": -10.27, 
			 "cosmo_cavitation_energy": 26.58, 
			 "cosmo_dispersion_energy": -18.86, 
			 "cosmo_repulsion_energy": 1.41, 
			 "cosmo_total_nonelectrostatic_energy": 9.14, 
			 "SMD_solvation_energy": 7.49 
		},
		"coords": [
			{
				"x": -1.2526586595,
				"y": -2.1492999121,
				"z": -3.0009835802,
				"element": "O" 
			},
			{
				"x": -0.0564608566,
				"y": -2.4876961319,
				"z": -2.450970534,
				"element": "C" 
			},
			{
				"x": 0.5806423356,
				"y": -3.4528322217,
				"z": -2.8275170513,
				"element": "O" 
			},
			{
				"x": 0.3815400606,
				"y": -1.5839930206,
				"z": -1.373035748,
				"element": "C" 
			},
			{
				"x": -0.3268711379,
				"y": -0.5171390263,
				"z": -0.9588281638,
				"element": "C" 
			},
			{
				"x": 0.048491231,
				"y": 0.4161540979,
				"z": 0.1009634754,
				"element": "C" 
			},
			{
				"x": 1.23853341,
				"y": 0.3165268413,
				"z": 0.8509028541,
				"element": "C" 
			},
			{
				"x": 1.5330767169,
				"y": 1.2340748883,
				"z": 1.8406609791,
				"element": "C" 
			},
			{
				"x": 2.6676397749,
				"y": 1.1343539966,
				"z": 2.5514288856,
				"element": "F" 
			},
			{
				"x": 0.6524660418,
				"y": 2.2848757531,
				"z": 2.1196934849,
				"element": "C" 
			},
			{
				"x": 0.9637554669,
				"y": 3.1587570939,
				"z": 3.0838944836,
				"element": "F" 
			},
			{
				"x": -0.5282910273,
				"y": 2.4186984724,
				"z": 1.4054862889,
				"element": "C" 
			},
			{
				"x": -0.8063876388,
				"y": 1.4851545586,
				"z": 0.4135929005,
				"element": "C" 
			},
			{
				"x": -1.9568308961,
				"y": 1.6252003762,
				"z": -0.2740119522,
				"element": "F" 
			},
			{
				"x": -1.4223992065,
				"y": -2.8147154291,
				"z": -3.6872856645,
				"element": "H" 
			},
			{
				"x": 1.3370519891,
				"y": -1.863460621,
				"z": -0.9419827857,
				"element": "H" 
			},
			{
				"x": -1.2736461348,
				"y": -0.312522978,
				"z": -1.4476962769,
				"element": "H" 
			},
			{
				"x": 1.9480346334,
				"y": -0.4818777172,
				"z": 0.6672415126,
				"element": "H" 
			},
			{
				"x": -1.2153861026,
				"y": 3.2292409796,
				"z": 1.615246892,
				"element": "H" 
			}
		],
		 "valence_orbital": [ 
			{
				"type": "occ",
				"energy": -0.32376,
				"method": "rhf"
			},
			{
				"type": "occ",
				"energy": -0.31496,
				"method": "rhf"
			},
			{
				"type": "occ",
				"energy": -0.27701,
				"method": "rhf"
			},
			{
				"type": "occ",
				"energy": -0.27423,
				"method": "rhf"
			},
			{
				"type": "occ",
				"energy": -0.24583,
				"method": "rhf"
			},
			{
				"type": "unocc",
				"energy": -0.08112,
				"method": "rhf"
			},
			{
				"type": "unocc",
				"energy": -0.02582,
				"method": "rhf"
			},
			{
				"type": "unocc",
				"energy": 0.00871,
				"method": "rhf"
			},
			{
				"type": "unocc",
				"energy": 0.05156,
				"method": "rhf"
			},
			{
				"type": "unocc",
				"energy": 0.07625,
				"method": "rhf"
			}
		],
		"cosmo_sigma_profile": { 
			"-0.025": 0.0,
			"-0.024": 0.0,
			"-0.023": 0.0,
			"-0.022": 0.0,
			"-0.021": 0.0,
			"-0.02": 0.0,
			"-0.019": 0.0,
			"-0.018": 0.565965811423,
			"-0.017": 1.10507081257,
			"-0.016": 0.751994567707,
			"-0.015": 0.633553658206,
			"-0.014": 0.671562861308,
			"-0.013": 0.965423169108,
			"-0.012": 0.760529367278,
			"-0.011": 0.668771836533,
			"-0.01": 3.26736041323,
			"-0.009": 4.3253315948,
			"-0.008": 3.25739337441,
			"-0.007": 5.23606511602,
			"-0.006": 4.50849470751,
			"-0.005": 3.76310385488,
			"-0.004": 6.96170462372,
			"-0.003": 9.86133164222,
			"-0.002": 21.119381487,
			"-0.001": 27.1344706451,
			"0.0": 23.5644101895,
			"0.001": 17.9056014375,
			"0.002": 15.1171428694,
			"0.003": 29.2534616741,
			"0.004": 8.79831091117,
			"0.005": 3.09954837817,
			"0.006": 2.57594947823,
			"0.007": 2.94673581665,
			"0.008": 2.41644679583,
			"0.009": 1.84447066748,
			"0.01": 1.36310789971,
			"0.011": 3.12715448653,
			"0.012": 5.48617929923,
			"0.013": 1.51383866669,
			"0.014": 0.0146942798065,
			"0.015": 0.0,
			"0.016": 0.0,
			"0.017": 0.0,
			"0.018": 0.0,
			"0.019": 0.0,
			"0.02": 0.0,
			"0.021": 0.0,
			"0.022": 0.0,
			"0.023": 0.0,
			"0.024": 0.0,
			"0.025": 0.0
		}
	}
}
