{
	 "smiles": "CCO[Si](Cl)(Cl)Cl", 
	 "Tm": 138.15, 
	 "num_atms": 12, 
	 "gaussian": { 
		 "optdone": 1, 
		 "sigma_profile": "yes", 
		 "theory": "DFT", 
		 "functional": "B3LYP", 
		 "basiset": "6-31G**", 
		 "properties": { 
			 "R2extent": 3704.0388, 
			 "electric_dipole_moment_norm": 2.67617493262, 
			 "electric_quadrupole_moment_norm": 3.62291168951, 
			 "total_energy": -1824.71639625, 
			 "HOMO_LUMO_gap": 0.30017, 
			 "cosmo_polarized_energy": -3.43, 
			 "cosmo_cavitation_energy": 22.85, 
			 "cosmo_dispersion_energy": -15.03, 
			 "cosmo_repulsion_energy": 1.41, 
			 "cosmo_total_nonelectrostatic_energy": 9.23, 
			 "SMD_solvation_energy": 2.81 
		},
		"coords": [
			{
				"x": -0.5271734507,
				"y": -0.0077120685,
				"z": 1.0493482439,
				"element": "C" 
			},
			{
				"x": 0.2506690242,
				"y": 0.4125558805,
				"z": -0.1835266453,
				"element": "C" 
			},
			{
				"x": 0.880653622,
				"y": -0.7594122904,
				"z": -0.7475550589,
				"element": "O" 
			},
			{
				"x": 1.8205521029,
				"y": -0.8227589639,
				"z": -2.0714263639,
				"element": "Si" 
			},
			{
				"x": 3.4944016852,
				"y": 0.3583308664,
				"z": -1.8558466756,
				"element": "Cl" 
			},
			{
				"x": 2.3827129,
				"y": -2.7718876095,
				"z": -2.3161087344,
				"element": "Cl" 
			},
			{
				"x": 0.8009245509,
				"y": -0.1817464924,
				"z": -3.7425426073,
				"element": "Cl" 
			},
			{
				"x": -1.2958873976,
				"y": -0.7406388816,
				"z": 0.789770866,
				"element": "H" 
			},
			{
				"x": 0.1392545959,
				"y": -0.4523304155,
				"z": 1.7934410022,
				"element": "H" 
			},
			{
				"x": -1.0147367143,
				"y": 0.8647917392,
				"z": 1.4958900548,
				"element": "H" 
			},
			{
				"x": -0.4119421195,
				"y": 0.8563164768,
				"z": -0.935535544,
				"element": "H" 
			},
			{
				"x": 1.0255712012,
				"y": 1.1451917591,
				"z": 0.0699914623,
				"element": "H" 
			}
		],
		 "valence_orbital": [ 
			{
				"type": "occ",
				"energy": -0.34755,
				"method": "rhf"
			},
			{
				"type": "occ",
				"energy": -0.34301,
				"method": "rhf"
			},
			{
				"type": "occ",
				"energy": -0.33399,
				"method": "rhf"
			},
			{
				"type": "occ",
				"energy": -0.32789,
				"method": "rhf"
			},
			{
				"type": "occ",
				"energy": -0.31887,
				"method": "rhf"
			},
			{
				"type": "unocc",
				"energy": -0.0187,
				"method": "rhf"
			},
			{
				"type": "unocc",
				"energy": 0.04154,
				"method": "rhf"
			},
			{
				"type": "unocc",
				"energy": 0.0478,
				"method": "rhf"
			},
			{
				"type": "unocc",
				"energy": 0.05313,
				"method": "rhf"
			},
			{
				"type": "unocc",
				"energy": 0.09321,
				"method": "rhf"
			}
		],
		"cosmo_sigma_profile": { 
			"-0.025": 0.0,
			"-0.024": 0.0,
			"-0.023": 0.0,
			"-0.022": 0.0,
			"-0.021": 0.0,
			"-0.02": 0.0,
			"-0.019": 0.0,
			"-0.018": 0.0,
			"-0.017": 0.0,
			"-0.016": 0.0,
			"-0.015": 0.0,
			"-0.014": 0.0,
			"-0.013": 0.0,
			"-0.012": 0.0,
			"-0.011": 0.0,
			"-0.01": 0.0,
			"-0.009": 0.0,
			"-0.008": 0.0,
			"-0.007": 0.0,
			"-0.006": 2.29203612853,
			"-0.005": 9.4455005901,
			"-0.004": 16.2178348617,
			"-0.003": 13.931081482,
			"-0.002": 13.7992066492,
			"-0.001": 20.1651821383,
			"0.0": 23.0983532817,
			"0.001": 21.008450743,
			"0.002": 26.3172511367,
			"0.003": 29.5381828233,
			"0.004": 3.32119271912,
			"0.005": 1.17263347753,
			"0.006": 1.31547295075,
			"0.007": 1.34095834868,
			"0.008": 1.1193744811,
			"0.009": 0.58585423126,
			"0.01": 0.0,
			"0.011": 0.0,
			"0.012": 0.0,
			"0.013": 0.0,
			"0.014": 0.0,
			"0.015": 0.0,
			"0.016": 0.0,
			"0.017": 0.0,
			"0.018": 0.0,
			"0.019": 0.0,
			"0.02": 0.0,
			"0.021": 0.0,
			"0.022": 0.0,
			"0.023": 0.0,
			"0.024": 0.0,
			"0.025": 0.0
		}
	}
}
