{
	 "smiles": "FC(F)(F)C1=CC=CC=C1", 
	 "Tm": 245.05, 
	 "num_atms": 15, 
	 "gaussian": { 
		 "optdone": 1, 
		 "sigma_profile": "yes", 
		 "theory": "DFT", 
		 "functional": "B3LYP", 
		 "basiset": "6-31G**", 
		 "properties": { 
			 "R2extent": 1654.8444, 
			 "electric_dipole_moment_norm": 2.57408391666, 
			 "electric_quadrupole_moment_norm": 4.88543614634, 
			 "total_energy": -569.286481178, 
			 "HOMO_LUMO_gap": 0.23926, 
			 "cosmo_polarized_energy": -3.58, 
			 "cosmo_cavitation_energy": 20.4, 
			 "cosmo_dispersion_energy": -14.72, 
			 "cosmo_repulsion_energy": 1.13, 
			 "cosmo_total_nonelectrostatic_energy": 6.81, 
			 "SMD_solvation_energy": 4.74 
		},
		"coords": [
			{
				"x": 2.177627141,
				"y": 0.4559631603,
				"z": 1.9239764687,
				"element": "F" 
			},
			{
				"x": 1.4550271101,
				"y": -0.4495242477,
				"z": 1.2268990833,
				"element": "C" 
			},
			{
				"x": 2.2442970637,
				"y": -1.5377426085,
				"z": 1.0643062999,
				"element": "F" 
			},
			{
				"x": 0.4199029584,
				"y": -0.8314420404,
				"z": 2.0082950114,
				"element": "F" 
			},
			{
				"x": 0.9886903467,
				"y": 0.1007572633,
				"z": -0.0936242555,
				"element": "C" 
			},
			{
				"x": 1.7646191081,
				"y": 1.0506366582,
				"z": -0.7639608922,
				"element": "C" 
			},
			{
				"x": 1.3576762903,
				"y": 1.520099206,
				"z": -2.0123526738,
				"element": "C" 
			},
			{
				"x": 0.1802763979,
				"y": 1.0413474753,
				"z": -2.5908382548,
				"element": "C" 
			},
			{
				"x": -0.5933598672,
				"y": 0.0930647381,
				"z": -1.918239722,
				"element": "C" 
			},
			{
				"x": -0.1907745667,
				"y": -0.3796210306,
				"z": -0.669651374,
				"element": "C" 
			},
			{
				"x": 2.6738191198,
				"y": 1.4238114672,
				"z": -0.3050057727,
				"element": "H" 
			},
			{
				"x": 1.9582555725,
				"y": 2.2611234456,
				"z": -2.5312021302,
				"element": "H" 
			},
			{
				"x": -0.1354855531,
				"y": 1.4089569399,
				"z": -3.5628085766,
				"element": "H" 
			},
			{
				"x": -1.5118162294,
				"y": -0.2769384787,
				"z": -2.3638319189,
				"element": "H" 
			},
			{
				"x": -0.7907548922,
				"y": -1.110291948,
				"z": -0.1379612925,
				"element": "H" 
			}
		],
		 "valence_orbital": [ 
			{
				"type": "occ",
				"energy": -0.37683,
				"method": "rhf"
			},
			{
				"type": "occ",
				"energy": -0.35938,
				"method": "rhf"
			},
			{
				"type": "occ",
				"energy": -0.3551,
				"method": "rhf"
			},
			{
				"type": "occ",
				"energy": -0.2683,
				"method": "rhf"
			},
			{
				"type": "occ",
				"energy": -0.26634,
				"method": "rhf"
			},
			{
				"type": "unocc",
				"energy": -0.02708,
				"method": "rhf"
			},
			{
				"type": "unocc",
				"energy": -0.01629,
				"method": "rhf"
			},
			{
				"type": "unocc",
				"energy": 0.08559,
				"method": "rhf"
			},
			{
				"type": "unocc",
				"energy": 0.12524,
				"method": "rhf"
			},
			{
				"type": "unocc",
				"energy": 0.13173,
				"method": "rhf"
			}
		],
		"cosmo_sigma_profile": { 
			"-0.025": 0.0,
			"-0.024": 0.0,
			"-0.023": 0.0,
			"-0.022": 0.0,
			"-0.021": 0.0,
			"-0.02": 0.0,
			"-0.019": 0.0,
			"-0.018": 0.0,
			"-0.017": 0.0,
			"-0.016": 0.0,
			"-0.015": 0.0,
			"-0.014": 0.0,
			"-0.013": 0.0,
			"-0.012": 0.0,
			"-0.011": 0.0,
			"-0.01": 0.0,
			"-0.009": 0.0,
			"-0.008": 0.0153838470776,
			"-0.007": 3.2131402629,
			"-0.006": 10.6416354088,
			"-0.005": 11.9240139858,
			"-0.004": 10.5806831865,
			"-0.003": 8.38113323391,
			"-0.002": 8.17862980619,
			"-0.001": 8.52314581681,
			"0.0": 10.6399303559,
			"0.001": 15.7005481243,
			"0.002": 22.0640679268,
			"0.003": 39.6252261896,
			"0.004": 13.8247546611,
			"0.005": 0.706300293269,
			"0.006": 0.0,
			"0.007": 0.0,
			"0.008": 0.0,
			"0.009": 0.0,
			"0.01": 0.0,
			"0.011": 0.0,
			"0.012": 0.0,
			"0.013": 0.0,
			"0.014": 0.0,
			"0.015": 0.0,
			"0.016": 0.0,
			"0.017": 0.0,
			"0.018": 0.0,
			"0.019": 0.0,
			"0.02": 0.0,
			"0.021": 0.0,
			"0.022": 0.0,
			"0.023": 0.0,
			"0.024": 0.0,
			"0.025": 0.0
		}
	}
}
