{
	 "smiles": "COC1=CC=C2CN(C)CCC34C=CC(O)CC3OC1=C24", 
	 "Tm": 399.65, 
	 "num_atms": 42, 
	 "gaussian": { 
		 "optdone": 1, 
		 "sigma_profile": "yes", 
		 "theory": "DFT", 
		 "functional": "B3LYP", 
		 "basiset": "6-31G**", 
		 "properties": { 
			 "R2extent": 6223.4632, 
			 "electric_dipole_moment_norm": 3.17075162383, 
			 "electric_quadrupole_moment_norm": 11.5809063717, 
			 "total_energy": -940.824320954, 
			 "HOMO_LUMO_gap": 0.19824, 
			 "cosmo_polarized_energy": -13.38, 
			 "cosmo_cavitation_energy": 40.61, 
			 "cosmo_dispersion_energy": -29.13, 
			 "cosmo_repulsion_energy": 2.21, 
			 "cosmo_total_nonelectrostatic_energy": 13.69, 
			 "SMD_solvation_energy": 6.87 
		},
		"coords": [
			{
				"x": 1.4472842705,
				"y": -1.6488569055,
				"z": 4.5348933691,
				"element": "C" 
			},
			{
				"x": 0.9986017142,
				"y": -0.8074252559,
				"z": 3.486706785,
				"element": "O" 
			},
			{
				"x": 0.9241566259,
				"y": -1.3431174205,
				"z": 2.2342646925,
				"element": "C" 
			},
			{
				"x": 1.2502749545,
				"y": -2.6556827454,
				"z": 1.8763159173,
				"element": "C" 
			},
			{
				"x": 1.1892099901,
				"y": -3.0709603319,
				"z": 0.5401040828,
				"element": "C" 
			},
			{
				"x": 0.7563914695,
				"y": -2.2193909241,
				"z": -0.4832719847,
				"element": "C" 
			},
			{
				"x": 0.8103544961,
				"y": -2.6881729819,
				"z": -1.9241546056,
				"element": "C" 
			},
			{
				"x": 1.009345317,
				"y": -1.6196567064,
				"z": -2.9138112455,
				"element": "N" 
			},
			{
				"x": 1.3329988644,
				"y": -2.1807237349,
				"z": -4.2158884533,
				"element": "C" 
			},
			{
				"x": 1.8990931706,
				"y": -0.530496462,
				"z": -2.4864774737,
				"element": "C" 
			},
			{
				"x": 1.1376350313,
				"y": 0.6686960343,
				"z": -1.8697329037,
				"element": "C" 
			},
			{
				"x": -0.0684761185,
				"y": 0.2606219048,
				"z": -0.960245941,
				"element": "C" 
			},
			{
				"x": -1.2865734812,
				"y": 0.025394418,
				"z": -1.8421955531,
				"element": "C" 
			},
			{
				"x": -2.3982967965,
				"y": 0.7666921577,
				"z": -1.8233851108,
				"element": "C" 
			},
			{
				"x": -2.6530277411,
				"y": 1.8592897886,
				"z": -0.8177986328,
				"element": "C" 
			},
			{
				"x": -4.0436005411,
				"y": 2.0078929901,
				"z": -0.5318125388,
				"element": "O" 
			},
			{
				"x": -1.8425089764,
				"y": 1.5672600412,
				"z": 0.446393755,
				"element": "C" 
			},
			{
				"x": -0.3598663717,
				"y": 1.329213987,
				"z": 0.1544250499,
				"element": "C" 
			},
			{
				"x": 0.2426343297,
				"y": 0.8347261948,
				"z": 1.3819804067,
				"element": "O" 
			},
			{
				"x": 0.5000483771,
				"y": -0.4928531684,
				"z": 1.2028564803,
				"element": "C" 
			},
			{
				"x": 0.3570028871,
				"y": -0.930430909,
				"z": -0.1081155212,
				"element": "C" 
			},
			{
				"x": 1.4359564769,
				"y": -1.0373043122,
				"z": 5.4385034509,
				"element": "H" 
			},
			{
				"x": 2.4687440443,
				"y": -2.0106905048,
				"z": 4.3567164284,
				"element": "H" 
			},
			{
				"x": 0.7833948474,
				"y": -2.5122990368,
				"z": 4.6758152232,
				"element": "H" 
			},
			{
				"x": 1.5895562813,
				"y": -3.3566658153,
				"z": 2.63009188,
				"element": "H" 
			},
			{
				"x": 1.5095997742,
				"y": -4.0799686377,
				"z": 0.293978928,
				"element": "H" 
			},
			{
				"x": 1.6190391654,
				"y": -3.4417938077,
				"z": -1.9928345291,
				"element": "H" 
			},
			{
				"x": -0.1168716714,
				"y": -3.2172047791,
				"z": -2.1934735984,
				"element": "H" 
			},
			{
				"x": 1.3596212211,
				"y": -1.389329861,
				"z": -4.9708626291,
				"element": "H" 
			},
			{
				"x": 0.5570562399,
				"y": -2.8964006581,
				"z": -4.5104431744,
				"element": "H" 
			},
			{
				"x": 2.3028572032,
				"y": -2.7148655514,
				"z": -4.2399160749,
				"element": "H" 
			},
			{
				"x": 2.657119573,
				"y": -0.8931627081,
				"z": -1.7761166496,
				"element": "H" 
			},
			{
				"x": 2.4516877756,
				"y": -0.1703607746,
				"z": -3.3603005879,
				"element": "H" 
			},
			{
				"x": 0.7642907004,
				"y": 1.3234724244,
				"z": -2.6659486615,
				"element": "H" 
			},
			{
				"x": 1.8522620007,
				"y": 1.2550316611,
				"z": -1.2779372834,
				"element": "H" 
			},
			{
				"x": -1.1564544099,
				"y": -0.745636294,
				"z": -2.5938213296,
				"element": "H" 
			},
			{
				"x": -3.1886045578,
				"y": 0.5913553213,
				"z": -2.5514154469,
				"element": "H" 
			},
			{
				"x": -2.3629537136,
				"y": 2.8343769436,
				"z": -1.2347354525,
				"element": "H" 
			},
			{
				"x": -4.3563823479,
				"y": 1.1565819886,
				"z": -0.1951972157,
				"element": "H" 
			},
			{
				"x": -2.246085494,
				"y": 0.6551455111,
				"z": 0.9050001045,
				"element": "H" 
			},
			{
				"x": -1.9494912867,
				"y": 2.3765640988,
				"z": 1.1747762508,
				"element": "H" 
			},
			{
				"x": 0.1355767066,
				"y": 2.2783348215,
				"z": -0.0775302072,
				"element": "H" 
			}
		],
		 "valence_orbital": [ 
			{
				"type": "occ",
				"energy": -0.26865,
				"method": "rhf"
			},
			{
				"type": "occ",
				"energy": -0.24135,
				"method": "rhf"
			},
			{
				"type": "occ",
				"energy": -0.22446,
				"method": "rhf"
			},
			{
				"type": "occ",
				"energy": -0.2079,
				"method": "rhf"
			},
			{
				"type": "occ",
				"energy": -0.19418,
				"method": "rhf"
			},
			{
				"type": "unocc",
				"energy": 0.00406,
				"method": "rhf"
			},
			{
				"type": "unocc",
				"energy": 0.01563,
				"method": "rhf"
			},
			{
				"type": "unocc",
				"energy": 0.02285,
				"method": "rhf"
			},
			{
				"type": "unocc",
				"energy": 0.08453,
				"method": "rhf"
			},
			{
				"type": "unocc",
				"energy": 0.09317,
				"method": "rhf"
			}
		],
		"cosmo_sigma_profile": { 
			"-0.025": 0.0,
			"-0.024": 0.0,
			"-0.023": 0.0,
			"-0.022": 0.0,
			"-0.021": 0.0,
			"-0.02": 0.0,
			"-0.019": 0.0,
			"-0.018": 0.0,
			"-0.017": 0.0,
			"-0.016": 0.0,
			"-0.015": 0.52928230759,
			"-0.014": 1.10358892334,
			"-0.013": 0.443113400062,
			"-0.012": 0.918621233091,
			"-0.011": 0.728261512957,
			"-0.01": 1.41675551765,
			"-0.009": 0.889301607997,
			"-0.008": 1.05550710824,
			"-0.007": 0.831426967925,
			"-0.006": 5.98983912856,
			"-0.005": 20.338665162,
			"-0.004": 30.4727763266,
			"-0.003": 36.3827780782,
			"-0.002": 39.7730570653,
			"-0.001": 37.2348614722,
			"0.0": 29.6996321618,
			"0.001": 15.7194140975,
			"0.002": 12.7086377802,
			"0.003": 13.4196098278,
			"0.004": 14.5537177865,
			"0.005": 12.6237052227,
			"0.006": 10.7587559951,
			"0.007": 5.25710482035,
			"0.008": 3.42314492285,
			"0.009": 3.33657022747,
			"0.01": 3.49376412296,
			"0.011": 3.58463593282,
			"0.012": 4.53532133525,
			"0.013": 2.99080220122,
			"0.014": 2.34219414854,
			"0.015": 0.458328119329,
			"0.016": 0.0,
			"0.017": 0.0,
			"0.018": 0.0,
			"0.019": 0.0,
			"0.02": 0.0,
			"0.021": 0.0,
			"0.022": 0.0,
			"0.023": 0.0,
			"0.024": 0.0,
			"0.025": 0.0
		}
	}
}
