{
	 "smiles": "FC(F)(F)CC(=O)C1=CC=CC=C1", 
	 "Tm": 311.15, 
	 "num_atms": 20, 
	 "gaussian": { 
		 "optdone": 1, 
		 "sigma_profile": "yes", 
		 "theory": "DFT", 
		 "functional": "B3LYP", 
		 "basiset": "6-31G**", 
		 "properties": { 
			 "R2extent": 2789.7921, 
			 "electric_dipole_moment_norm": 3.36859052721, 
			 "electric_quadrupole_moment_norm": 8.51013389848, 
			 "total_energy": -721.92822902, 
			 "HOMO_LUMO_gap": 0.19348, 
			 "cosmo_polarized_energy": -8.38, 
			 "cosmo_cavitation_energy": 25.59, 
			 "cosmo_dispersion_energy": -18.12, 
			 "cosmo_repulsion_energy": 1.37, 
			 "cosmo_total_nonelectrostatic_energy": 8.85, 
			 "SMD_solvation_energy": 5.99 
		},
		"coords": [
			{
				"x": -1.3321692276,
				"y": 1.584605516,
				"z": 1.6750484484,
				"element": "F" 
			},
			{
				"x": -1.1269709252,
				"y": 2.5191856466,
				"z": 0.7164625102,
				"element": "C" 
			},
			{
				"x": -2.3118366555,
				"y": 2.7533421919,
				"z": 0.1244812725,
				"element": "F" 
			},
			{
				"x": -0.748636725,
				"y": 3.6539625599,
				"z": 1.3439200528,
				"element": "F" 
			},
			{
				"x": -0.0705286253,
				"y": 2.0895356477,
				"z": -0.285362873,
				"element": "C" 
			},
			{
				"x": -0.4895760246,
				"y": 0.8940684084,
				"z": -1.1566456567,
				"element": "C" 
			},
			{
				"x": -0.9860890509,
				"y": 1.119630421,
				"z": -2.2480777644,
				"element": "O" 
			},
			{
				"x": -0.2550793591,
				"y": -0.502043769,
				"z": -0.6819415129,
				"element": "C" 
			},
			{
				"x": 0.2611854261,
				"y": -0.8119040143,
				"z": 0.5863401259,
				"element": "C" 
			},
			{
				"x": 0.465460986,
				"y": -2.1410248333,
				"z": 0.9557399099,
				"element": "C" 
			},
			{
				"x": 0.1600214726,
				"y": -3.1707736058,
				"z": 0.0642887402,
				"element": "C" 
			},
			{
				"x": -0.3577999827,
				"y": -2.8714689596,
				"z": -1.200147169,
				"element": "C" 
			},
			{
				"x": -0.5651826662,
				"y": -1.54732835,
				"z": -1.5695678488,
				"element": "C" 
			},
			{
				"x": 0.0845080873,
				"y": 2.9300646381,
				"z": -0.9642247557,
				"element": "H" 
			},
			{
				"x": 0.8556866114,
				"y": 1.903754078,
				"z": 0.2632548252,
				"element": "H" 
			},
			{
				"x": 0.481973296,
				"y": -0.0263237971,
				"z": 1.2990711556,
				"element": "H" 
			},
			{
				"x": 0.8609780549,
				"y": -2.3719906903,
				"z": 1.9402488358,
				"element": "H" 
			},
			{
				"x": 0.3229820051,
				"y": -4.204959809,
				"z": 0.3539892562,
				"element": "H" 
			},
			{
				"x": -0.597997007,
				"y": -3.6721445017,
				"z": -1.8933785324,
				"element": "H" 
			},
			{
				"x": -0.9660296901,
				"y": -1.2894867775,
				"z": -2.5438990197,
				"element": "H" 
			}
		],
		 "valence_orbital": [ 
			{
				"type": "occ",
				"energy": -0.36094,
				"method": "rhf"
			},
			{
				"type": "occ",
				"energy": -0.35536,
				"method": "rhf"
			},
			{
				"type": "occ",
				"energy": -0.2687,
				"method": "rhf"
			},
			{
				"type": "occ",
				"energy": -0.26564,
				"method": "rhf"
			},
			{
				"type": "occ",
				"energy": -0.26346,
				"method": "rhf"
			},
			{
				"type": "unocc",
				"energy": -0.06998,
				"method": "rhf"
			},
			{
				"type": "unocc",
				"energy": -0.01623,
				"method": "rhf"
			},
			{
				"type": "unocc",
				"energy": 0.02619,
				"method": "rhf"
			},
			{
				"type": "unocc",
				"energy": 0.08331,
				"method": "rhf"
			},
			{
				"type": "unocc",
				"energy": 0.10798,
				"method": "rhf"
			}
		],
		"cosmo_sigma_profile": { 
			"-0.025": 0.0,
			"-0.024": 0.0,
			"-0.023": 0.0,
			"-0.022": 0.0,
			"-0.021": 0.0,
			"-0.02": 0.0,
			"-0.019": 0.0,
			"-0.018": 0.0,
			"-0.017": 0.0,
			"-0.016": 0.0,
			"-0.015": 0.0,
			"-0.014": 0.0,
			"-0.013": 0.0,
			"-0.012": 0.0,
			"-0.011": 0.0368581744013,
			"-0.01": 1.09917049844,
			"-0.009": 2.25802874401,
			"-0.008": 3.96116720949,
			"-0.007": 7.60500016795,
			"-0.006": 12.8664309704,
			"-0.005": 14.6330813327,
			"-0.004": 12.2182402255,
			"-0.003": 10.5487664831,
			"-0.002": 9.65092868205,
			"-0.001": 9.2442069856,
			"0.0": 11.516200365,
			"0.001": 16.0147459053,
			"0.002": 29.2449574158,
			"0.003": 36.0224059708,
			"0.004": 11.5208812441,
			"0.005": 1.86880487921,
			"0.006": 1.85554458784,
			"0.007": 1.23117879147,
			"0.008": 2.17134435251,
			"0.009": 1.91446238079,
			"0.01": 2.305808439,
			"0.011": 4.07243506808,
			"0.012": 1.25741612437,
			"0.013": 0.0178575870919,
			"0.014": 0.0,
			"0.015": 0.0,
			"0.016": 0.0,
			"0.017": 0.0,
			"0.018": 0.0,
			"0.019": 0.0,
			"0.02": 0.0,
			"0.021": 0.0,
			"0.022": 0.0,
			"0.023": 0.0,
			"0.024": 0.0,
			"0.025": 0.0
		}
	}
}
