{
	 "smiles": "COCCCNC1=NC(SC)=NC(NC(C)C)=N1", 
	 "Tm": 342.15, 
	 "num_atms": 39, 
	 "gaussian": { 
		 "optdone": 1, 
		 "sigma_profile": "yes", 
		 "theory": "DFT", 
		 "functional": "B3LYP", 
		 "basiset": "6-31G**", 
		 "properties": { 
			 "R2extent": 8859.7051, 
			 "electric_dipole_moment_norm": 3.78471259939, 
			 "electric_quadrupole_moment_norm": 21.6488012728, 
			 "total_energy": -1179.04211283, 
			 "HOMO_LUMO_gap": 0.21897, 
			 "cosmo_polarized_energy": -14.0, 
			 "cosmo_cavitation_energy": 43.23, 
			 "cosmo_dispersion_energy": -30.64, 
			 "cosmo_repulsion_energy": 2.43, 
			 "cosmo_total_nonelectrostatic_energy": 15.02, 
			 "SMD_solvation_energy": 3.74 
		},
		"coords": [
			{
				"x": -3.9619816107,
				"y": -2.3573120051,
				"z": 4.4766522159,
				"element": "C" 
			},
			{
				"x": -2.5854552614,
				"y": -2.5222458819,
				"z": 4.1964460552,
				"element": "O" 
			},
			{
				"x": -2.2563383354,
				"y": -3.8334234795,
				"z": 3.7563892643,
				"element": "C" 
			},
			{
				"x": -0.7650552204,
				"y": -3.9005633974,
				"z": 3.4391900085,
				"element": "C" 
			},
			{
				"x": -0.3266819219,
				"y": -3.07029375,
				"z": 2.2271089557,
				"element": "C" 
			},
			{
				"x": -0.4959786558,
				"y": -1.6480788537,
				"z": 2.4660063734,
				"element": "N" 
			},
			{
				"x": 0.1571408868,
				"y": -0.6741736946,
				"z": 1.795533308,
				"element": "C" 
			},
			{
				"x": -0.2011524669,
				"y": 0.5961706631,
				"z": 2.0938437386,
				"element": "N" 
			},
			{
				"x": 0.4826596369,
				"y": 1.5174479936,
				"z": 1.4175297221,
				"element": "C" 
			},
			{
				"x": 0.0041176623,
				"y": 3.185390952,
				"z": 1.8012980674,
				"element": "S" 
			},
			{
				"x": 1.1178589816,
				"y": 4.1441456382,
				"z": 0.7203547756,
				"element": "C" 
			},
			{
				"x": 1.4459395285,
				"y": 1.3130432121,
				"z": 0.5200650325,
				"element": "N" 
			},
			{
				"x": 1.7148219174,
				"y": 0.0007929068,
				"z": 0.3091004397,
				"element": "C" 
			},
			{
				"x": 2.7060349304,
				"y": -0.2589162998,
				"z": -0.5805263352,
				"element": "N" 
			},
			{
				"x": 3.0902731382,
				"y": -1.5887483117,
				"z": -1.0479971964,
				"element": "C" 
			},
			{
				"x": 2.1561790554,
				"y": -2.0939226749,
				"z": -2.1582214986,
				"element": "C" 
			},
			{
				"x": 4.5548432411,
				"y": -1.5562338557,
				"z": -1.4940346039,
				"element": "C" 
			},
			{
				"x": 1.0996892139,
				"y": -1.033019315,
				"z": 0.9014149083,
				"element": "N" 
			},
			{
				"x": -4.2944092209,
				"y": -3.041151014,
				"z": 5.2724523295,
				"element": "H" 
			},
			{
				"x": -4.1043178385,
				"y": -1.3274348475,
				"z": 4.8106287985,
				"element": "H" 
			},
			{
				"x": -4.5830263725,
				"y": -2.534093429,
				"z": 3.5851810243,
				"element": "H" 
			},
			{
				"x": -2.5107945468,
				"y": -4.5648607357,
				"z": 4.5411447016,
				"element": "H" 
			},
			{
				"x": -2.8498575013,
				"y": -4.0933210814,
				"z": 2.8625008524,
				"element": "H" 
			},
			{
				"x": -0.5128513452,
				"y": -4.9498054862,
				"z": 3.2439851906,
				"element": "H" 
			},
			{
				"x": -0.1987807255,
				"y": -3.5903156475,
				"z": 4.324984575,
				"element": "H" 
			},
			{
				"x": -0.8950423055,
				"y": -3.390899578,
				"z": 1.3384815904,
				"element": "H" 
			},
			{
				"x": 0.7269164938,
				"y": -3.2564528484,
				"z": 2.0040318987,
				"element": "H" 
			},
			{
				"x": -1.2534249606,
				"y": -1.3592958881,
				"z": 3.0722600461,
				"element": "H" 
			},
			{
				"x": 0.8831710657,
				"y": 5.194632457,
				"z": 0.907300879,
				"element": "H" 
			},
			{
				"x": 2.1614297818,
				"y": 3.9464078339,
				"z": 0.9665904098,
				"element": "H" 
			},
			{
				"x": 0.9416758056,
				"y": 3.9047147873,
				"z": -0.3286891128,
				"element": "H" 
			},
			{
				"x": 3.0665262953,
				"y": 0.5552073871,
				"z": -1.0575131852,
				"element": "H" 
			},
			{
				"x": 2.9903213515,
				"y": -2.254809617,
				"z": -0.1858069636,
				"element": "H" 
			},
			{
				"x": 1.1228806247,
				"y": -2.1110553801,
				"z": -1.8024653846,
				"element": "H" 
			},
			{
				"x": 2.4321430806,
				"y": -3.1088194527,
				"z": -2.46522662,
				"element": "H" 
			},
			{
				"x": 2.2102736276,
				"y": -1.4451641737,
				"z": -3.0400670559,
				"element": "H" 
			},
			{
				"x": 5.2079476856,
				"y": -1.2294576188,
				"z": -0.6795020951,
				"element": "H" 
			},
			{
				"x": 4.8781125142,
				"y": -2.5493526715,
				"z": -1.8194777831,
				"element": "H" 
			},
			{
				"x": 4.6931917708,
				"y": -0.8717328422,
				"z": -2.3405473267,
				"element": "H" 
			}
		],
		 "valence_orbital": [ 
			{
				"type": "occ",
				"energy": -0.24874,
				"method": "rhf"
			},
			{
				"type": "occ",
				"energy": -0.24327,
				"method": "rhf"
			},
			{
				"type": "occ",
				"energy": -0.22942,
				"method": "rhf"
			},
			{
				"type": "occ",
				"energy": -0.21946,
				"method": "rhf"
			},
			{
				"type": "occ",
				"energy": -0.21345,
				"method": "rhf"
			},
			{
				"type": "unocc",
				"energy": 0.00552,
				"method": "rhf"
			},
			{
				"type": "unocc",
				"energy": 0.02024,
				"method": "rhf"
			},
			{
				"type": "unocc",
				"energy": 0.05503,
				"method": "rhf"
			},
			{
				"type": "unocc",
				"energy": 0.07847,
				"method": "rhf"
			},
			{
				"type": "unocc",
				"energy": 0.0879,
				"method": "rhf"
			}
		],
		"cosmo_sigma_profile": { 
			"-0.025": 0.0,
			"-0.024": 0.0,
			"-0.023": 0.0,
			"-0.022": 0.0,
			"-0.021": 0.0,
			"-0.02": 0.0,
			"-0.019": 0.0,
			"-0.018": 0.0,
			"-0.017": 0.0,
			"-0.016": 0.0,
			"-0.015": 0.0,
			"-0.014": 0.0,
			"-0.013": 0.391320143714,
			"-0.012": 0.878855065554,
			"-0.011": 0.769850784659,
			"-0.01": 0.981356592752,
			"-0.009": 1.4399768735,
			"-0.008": 0.619826122487,
			"-0.007": 1.91679474207,
			"-0.006": 3.99921058292,
			"-0.005": 9.57035182802,
			"-0.004": 32.0072486579,
			"-0.003": 49.4762441031,
			"-0.002": 44.3057464105,
			"-0.001": 37.8122709456,
			"0.0": 29.0033972578,
			"0.001": 28.3471696388,
			"0.002": 18.4756390479,
			"0.003": 15.6351928265,
			"0.004": 10.9752656078,
			"0.005": 12.6490252831,
			"0.006": 9.84907021136,
			"0.007": 10.4996890098,
			"0.008": 9.22685611711,
			"0.009": 4.72961879704,
			"0.01": 1.83234263421,
			"0.011": 1.64915737036,
			"0.012": 1.15474204194,
			"0.013": 1.15534922905,
			"0.014": 0.719775139627,
			"0.015": 0.137209697673,
			"0.016": 0.0,
			"0.017": 0.0,
			"0.018": 0.0,
			"0.019": 0.0,
			"0.02": 0.0,
			"0.021": 0.0,
			"0.022": 0.0,
			"0.023": 0.0,
			"0.024": 0.0,
			"0.025": 0.0
		}
	}
}
