{
	 "smiles": "NC1=CC=CC2=C1C(=O)C1=CC=CC=C1C2=O", 
	 "Tm": 525.15, 
	 "num_atms": 26, 
	 "gaussian": { 
		 "optdone": 1, 
		 "sigma_profile": "yes", 
		 "theory": "DFT", 
		 "functional": "B3LYP", 
		 "basiset": "6-31G**", 
		 "properties": { 
			 "R2extent": 3964.86, 
			 "electric_dipole_moment_norm": 2.23838091039, 
			 "electric_quadrupole_moment_norm": 19.6536159592, 
			 "total_energy": -744.1442719, 
			 "HOMO_LUMO_gap": 0.11633, 
			 "cosmo_polarized_energy": -11.84, 
			 "cosmo_cavitation_energy": 29.74, 
			 "cosmo_dispersion_energy": -22.59, 
			 "cosmo_repulsion_energy": 1.67, 
			 "cosmo_total_nonelectrostatic_energy": 8.82, 
			 "SMD_solvation_energy": 5.36 
		},
		"coords": [
			{
				"x": -0.9665716463,
				"y": 2.1881687565,
				"z": 3.2843865136,
				"element": "N" 
			},
			{
				"x": -0.9513445016,
				"y": 2.2804129138,
				"z": 1.9314128433,
				"element": "C" 
			},
			{
				"x": -1.6296374236,
				"y": 3.3484636075,
				"z": 1.2899924283,
				"element": "C" 
			},
			{
				"x": -1.6329447268,
				"y": 3.470286231,
				"z": -0.0863439332,
				"element": "C" 
			},
			{
				"x": -0.963087921,
				"y": 2.537597313,
				"z": -0.8899851263,
				"element": "C" 
			},
			{
				"x": -0.2893298925,
				"y": 1.4800203302,
				"z": -0.2926812943,
				"element": "C" 
			},
			{
				"x": -0.2646900345,
				"y": 1.3230658956,
				"z": 1.1203349625,
				"element": "C" 
			},
			{
				"x": 0.4520578089,
				"y": 0.1995417151,
				"z": 1.7345697639,
				"element": "C" 
			},
			{
				"x": 0.4998324194,
				"y": 0.0239884132,
				"z": 2.9637741004,
				"element": "O" 
			},
			{
				"x": 1.1510547284,
				"y": -0.7696570056,
				"z": 0.8392471554,
				"element": "C" 
			},
			{
				"x": 1.8389159561,
				"y": -1.8470216649,
				"z": 1.4114193573,
				"element": "C" 
			},
			{
				"x": 2.4993277872,
				"y": -2.7656677747,
				"z": 0.5998667839,
				"element": "C" 
			},
			{
				"x": 2.479612921,
				"y": -2.6177806387,
				"z": -0.7925165571,
				"element": "C" 
			},
			{
				"x": 1.7983864775,
				"y": -1.5498768851,
				"z": -1.3692761362,
				"element": "C" 
			},
			{
				"x": 1.132133633,
				"y": -0.6223809214,
				"z": -0.55915776,
				"element": "C" 
			},
			{
				"x": 0.4094828626,
				"y": 0.5125150599,
				"z": -1.1933694765,
				"element": "C" 
			},
			{
				"x": 0.3889952806,
				"y": 0.6477965463,
				"z": -2.4131814641,
				"element": "O" 
			},
			{
				"x": -0.4715818776,
				"y": 1.4126703868,
				"z": 3.7104735852,
				"element": "H" 
			},
			{
				"x": -1.4563230158,
				"y": 2.8742029698,
				"z": 3.8333054497,
				"element": "H" 
			},
			{
				"x": -2.1515770403,
				"y": 4.0760979968,
				"z": 1.9064797434,
				"element": "H" 
			},
			{
				"x": -2.161967252,
				"y": 4.2998519003,
				"z": -0.5469742523,
				"element": "H" 
			},
			{
				"x": -0.9539265201,
				"y": 2.6158006178,
				"z": -1.9705898146,
				"element": "H" 
			},
			{
				"x": 1.8400290501,
				"y": -1.9404990583,
				"z": 2.4917892091,
				"element": "H" 
			},
			{
				"x": 3.0312253616,
				"y": -3.5993549213,
				"z": 1.049201371,
				"element": "H" 
			},
			{
				"x": 2.9957963118,
				"y": -3.336259496,
				"z": -1.422595821,
				"element": "H" 
			},
			{
				"x": 1.7650312539,
				"y": -1.4084822876,
				"z": -2.4442816313,
				"element": "H" 
			}
		],
		 "valence_orbital": [ 
			{
				"type": "occ",
				"energy": -0.26336,
				"method": "rhf"
			},
			{
				"type": "occ",
				"energy": -0.2614,
				"method": "rhf"
			},
			{
				"type": "occ",
				"energy": -0.26091,
				"method": "rhf"
			},
			{
				"type": "occ",
				"energy": -0.25097,
				"method": "rhf"
			},
			{
				"type": "occ",
				"energy": -0.21241,
				"method": "rhf"
			},
			{
				"type": "unocc",
				"energy": -0.09608,
				"method": "rhf"
			},
			{
				"type": "unocc",
				"energy": -0.04517,
				"method": "rhf"
			},
			{
				"type": "unocc",
				"energy": -0.0167,
				"method": "rhf"
			},
			{
				"type": "unocc",
				"energy": 0.00486,
				"method": "rhf"
			},
			{
				"type": "unocc",
				"energy": 0.05934,
				"method": "rhf"
			}
		],
		"cosmo_sigma_profile": { 
			"-0.025": 0.0,
			"-0.024": 0.0,
			"-0.023": 0.0,
			"-0.022": 0.0,
			"-0.021": 0.0,
			"-0.02": 0.0,
			"-0.019": 0.0,
			"-0.018": 0.0,
			"-0.017": 0.0,
			"-0.016": 0.0,
			"-0.015": 0.0,
			"-0.014": 0.870280682826,
			"-0.013": 1.53351223264,
			"-0.012": 1.94052389652,
			"-0.011": 1.19435612482,
			"-0.01": 1.29865510806,
			"-0.009": 1.90740205923,
			"-0.008": 2.83064589772,
			"-0.007": 7.93676200378,
			"-0.006": 12.8041855148,
			"-0.005": 15.0802131022,
			"-0.004": 13.7324848925,
			"-0.003": 13.0084247185,
			"-0.002": 13.3194512054,
			"-0.001": 14.7781676108,
			"0.0": 16.8129509307,
			"0.001": 22.4749557371,
			"0.002": 32.1847397074,
			"0.003": 26.9297575416,
			"0.004": 7.26878954158,
			"0.005": 5.58626692578,
			"0.006": 4.48239715048,
			"0.007": 2.59446841129,
			"0.008": 2.69657119972,
			"0.009": 4.76124309714,
			"0.01": 2.89809329681,
			"0.011": 6.01796618464,
			"0.012": 3.00888138707,
			"0.013": 0.0,
			"0.014": 0.0,
			"0.015": 0.0,
			"0.016": 0.0,
			"0.017": 0.0,
			"0.018": 0.0,
			"0.019": 0.0,
			"0.02": 0.0,
			"0.021": 0.0,
			"0.022": 0.0,
			"0.023": 0.0,
			"0.024": 0.0,
			"0.025": 0.0
		}
	}
}
