{
	 "smiles": "NC1=CC2=C(OC(CO)=N2)C=C1", 
	 "Tm": 387.15, 
	 "num_atms": 20, 
	 "gaussian": { 
		 "optdone": 1, 
		 "sigma_profile": "yes", 
		 "theory": "DFT", 
		 "functional": "B3LYP", 
		 "basiset": "6-31G**", 
		 "properties": { 
			 "R2extent": 2869.2574, 
			 "electric_dipole_moment_norm": 2.8588716393, 
			 "electric_quadrupole_moment_norm": 17.8752251373, 
			 "total_energy": -569.608770459, 
			 "HOMO_LUMO_gap": 0.17681, 
			 "cosmo_polarized_energy": -14.28, 
			 "cosmo_cavitation_energy": 24.48, 
			 "cosmo_dispersion_energy": -18.61, 
			 "cosmo_repulsion_energy": 1.5, 
			 "cosmo_total_nonelectrostatic_energy": 7.37, 
			 "SMD_solvation_energy": 2.43 
		},
		"coords": [
			{
				"x": -1.1846398635,
				"y": 0.6577184563,
				"z": -3.0081943296,
				"element": "N" 
			},
			{
				"x": -0.3046305662,
				"y": 0.4826319488,
				"z": -1.9324135803,
				"element": "C" 
			},
			{
				"x": -0.1276341227,
				"y": -0.785283801,
				"z": -1.358029878,
				"element": "C" 
			},
			{
				"x": 0.712203052,
				"y": -0.8871401686,
				"z": -0.2491457488,
				"element": "C" 
			},
			{
				"x": 1.3536500231,
				"y": 0.2458974819,
				"z": 0.2633970542,
				"element": "C" 
			},
			{
				"x": 2.1097360321,
				"y": -0.1596606803,
				"z": 1.3445669424,
				"element": "O" 
			},
			{
				"x": 1.8847781099,
				"y": -1.5158677626,
				"z": 1.4108511376,
				"element": "C" 
			},
			{
				"x": 2.5816804152,
				"y": -2.2286808755,
				"z": 2.5287323469,
				"element": "C" 
			},
			{
				"x": 3.9707781081,
				"y": -1.9494380946,
				"z": 2.5744834559,
				"element": "O" 
			},
			{
				"x": 1.0855938454,
				"y": -1.9982960001,
				"z": 0.5156406603,
				"element": "N" 
			},
			{
				"x": 1.2043769943,
				"y": 1.510789924,
				"z": -0.2818602032,
				"element": "C" 
			},
			{
				"x": 0.3613169913,
				"y": 1.6090239449,
				"z": -1.3882982807,
				"element": "C" 
			},
			{
				"x": -1.3532851058,
				"y": -0.1765329144,
				"z": -3.5539039739,
				"element": "H" 
			},
			{
				"x": -0.9744133424,
				"y": 1.4483508023,
				"z": -3.6022058009,
				"element": "H" 
			},
			{
				"x": -0.6277122958,
				"y": -1.6618960524,
				"z": -1.7577278947,
				"element": "H" 
			},
			{
				"x": 2.0870949085,
				"y": -1.9740261723,
				"z": 3.4807756007,
				"element": "H" 
			},
			{
				"x": 2.4648887374,
				"y": -3.3017243121,
				"z": 2.3676308401,
				"element": "H" 
			},
			{
				"x": 4.0716199221,
				"y": -0.9915229071,
				"z": 2.6546982643,
				"element": "H" 
			},
			{
				"x": 1.7102310955,
				"y": 2.3799829714,
				"z": 0.1236885716,
				"element": "H" 
			},
			{
				"x": 0.2011670615,
				"y": 2.5809742114,
				"z": -1.8470851839,
				"element": "H" 
			}
		],
		 "valence_orbital": [ 
			{
				"type": "occ",
				"energy": -0.30116,
				"method": "rhf"
			},
			{
				"type": "occ",
				"energy": -0.29276,
				"method": "rhf"
			},
			{
				"type": "occ",
				"energy": -0.27741,
				"method": "rhf"
			},
			{
				"type": "occ",
				"energy": -0.23638,
				"method": "rhf"
			},
			{
				"type": "occ",
				"energy": -0.20267,
				"method": "rhf"
			},
			{
				"type": "unocc",
				"energy": -0.02586,
				"method": "rhf"
			},
			{
				"type": "unocc",
				"energy": 0.01967,
				"method": "rhf"
			},
			{
				"type": "unocc",
				"energy": 0.04073,
				"method": "rhf"
			},
			{
				"type": "unocc",
				"energy": 0.07609,
				"method": "rhf"
			},
			{
				"type": "unocc",
				"energy": 0.087,
				"method": "rhf"
			}
		],
		"cosmo_sigma_profile": { 
			"-0.025": 0.0,
			"-0.024": 0.0,
			"-0.023": 0.0,
			"-0.022": 0.0,
			"-0.021": 0.0,
			"-0.02": 0.0,
			"-0.019": 0.0,
			"-0.018": 0.0,
			"-0.017": 0.0,
			"-0.016": 0.0986542994868,
			"-0.015": 0.665764191244,
			"-0.014": 0.989839180837,
			"-0.013": 0.857924514543,
			"-0.012": 2.97543822164,
			"-0.011": 3.84279975395,
			"-0.01": 3.43115729875,
			"-0.009": 4.03715251253,
			"-0.008": 4.66549452464,
			"-0.007": 10.2349454861,
			"-0.006": 12.4962336554,
			"-0.005": 10.3656702199,
			"-0.004": 10.7309109016,
			"-0.003": 8.52405417837,
			"-0.002": 8.5314427122,
			"-0.001": 9.47866785051,
			"0.0": 9.00585119835,
			"0.001": 11.0875100631,
			"0.002": 11.0600244987,
			"0.003": 11.4629870108,
			"0.004": 14.9809475967,
			"0.005": 13.0194838547,
			"0.006": 6.01145618162,
			"0.007": 3.47998237924,
			"0.008": 2.63247205424,
			"0.009": 3.0162880497,
			"0.01": 2.88641241808,
			"0.011": 3.6362688936,
			"0.012": 2.77640724805,
			"0.013": 4.17929177532,
			"0.014": 2.0486005649,
			"0.015": 1.14886910502,
			"0.016": 0.483110010097,
			"0.017": 0.0,
			"0.018": 0.0,
			"0.019": 0.0,
			"0.02": 0.0,
			"0.021": 0.0,
			"0.022": 0.0,
			"0.023": 0.0,
			"0.024": 0.0,
			"0.025": 0.0
		}
	}
}
