{
	 "smiles": "COC1=CC2=C(C(OC)=C1OC)C1=CC=C(OC)C(=O)C=C1[C@H](CC2)NC(C)=O", 
	 "Tm": 429.15, 
	 "num_atms": 54, 
	 "gaussian": { 
		 "optdone": 1, 
		 "sigma_profile": "yes", 
		 "theory": "DFT", 
		 "functional": "B3LYP", 
		 "basiset": "6-31G**", 
		 "properties": { 
			 "R2extent": 12688.057, 
			 "electric_dipole_moment_norm": 7.63860986633, 
			 "electric_quadrupole_moment_norm": 29.1308293347, 
			 "total_energy": -1359.42046932, 
			 "HOMO_LUMO_gap": 0.13758, 
			 "cosmo_polarized_energy": -23.36, 
			 "cosmo_cavitation_energy": 55.13, 
			 "cosmo_dispersion_energy": -35.86, 
			 "cosmo_repulsion_energy": 2.74, 
			 "cosmo_total_nonelectrostatic_energy": 22.01, 
			 "SMD_solvation_energy": 13.24 
		},
		"coords": [
			{
				"x": -2.1974551068,
				"y": 1.2018664999,
				"z": 5.5326242561,
				"element": "C" 
			},
			{
				"x": -2.561437699,
				"y": 1.7488899412,
				"z": 4.2587689078,
				"element": "O" 
			},
			{
				"x": -1.9370492768,
				"y": 1.1907843458,
				"z": 3.1701196783,
				"element": "C" 
			},
			{
				"x": -2.7140123867,
				"y": 0.5382898646,
				"z": 2.2124211514,
				"element": "C" 
			},
			{
				"x": -2.1356037872,
				"y": 0.0211844202,
				"z": 1.0538654562,
				"element": "C" 
			},
			{
				"x": -0.7412932259,
				"y": 0.1210363282,
				"z": 0.8515913045,
				"element": "C" 
			},
			{
				"x": 0.0417784899,
				"y": 0.7961339744,
				"z": 1.8128835422,
				"element": "C" 
			},
			{
				"x": 1.370641787,
				"y": 1.0048961827,
				"z": 1.5462395224,
				"element": "O" 
			},
			{
				"x": 2.3265878291,
				"y": 0.5224161441,
				"z": 2.4973529874,
				"element": "C" 
			},
			{
				"x": -0.5577899642,
				"y": 1.344861372,
				"z": 2.9617552972,
				"element": "C" 
			},
			{
				"x": 0.2090197266,
				"y": 2.0472323105,
				"z": 3.8687212716,
				"element": "O" 
			},
			{
				"x": 0.1121709108,
				"y": 3.4717852347,
				"z": 3.7239342685,
				"element": "C" 
			},
			{
				"x": -0.1138064189,
				"y": -0.488933251,
				"z": -0.3664560978,
				"element": "C" 
			},
			{
				"x": 0.8662975127,
				"y": -1.4353994168,
				"z": -0.1444677036,
				"element": "C" 
			},
			{
				"x": 1.6124392405,
				"y": -2.247982256,
				"z": -1.0265823654,
				"element": "C" 
			},
			{
				"x": 1.6558988355,
				"y": -2.3114827559,
				"z": -2.4025163434,
				"element": "C" 
			},
			{
				"x": 2.5128676074,
				"y": -3.241861495,
				"z": -2.8696319785,
				"element": "O" 
			},
			{
				"x": 2.426723639,
				"y": -3.8053105054,
				"z": -4.1910196627,
				"element": "C" 
			},
			{
				"x": 0.9572219801,
				"y": -1.4059741684,
				"z": -3.3412373595,
				"element": "C" 
			},
			{
				"x": 1.2658826454,
				"y": -1.4044494679,
				"z": -4.5423205237,
				"element": "O" 
			},
			{
				"x": -0.113808721,
				"y": -0.5250703085,
				"z": -2.8895503806,
				"element": "C" 
			},
			{
				"x": -0.58615608,
				"y": -0.1004312917,
				"z": -1.6752829586,
				"element": "C" 
			},
			{
				"x": -1.7498304702,
				"y": 0.9194926273,
				"z": -1.6871443948,
				"element": "C" 
			},
			{
				"x": -3.085466954,
				"y": 0.2520472959,
				"z": -1.2802822683,
				"element": "C" 
			},
			{
				"x": -2.9799315985,
				"y": -0.6297882977,
				"z": -0.017251971,
				"element": "C" 
			},
			{
				"x": -1.9570227463,
				"y": 1.6258387701,
				"z": -2.9375071177,
				"element": "N" 
			},
			{
				"x": -1.3490363286,
				"y": 2.7825537947,
				"z": -3.3772796125,
				"element": "C" 
			},
			{
				"x": -0.3247110797,
				"y": 3.4158924629,
				"z": -2.450435911,
				"element": "C" 
			},
			{
				"x": -1.6438438431,
				"y": 3.2658471514,
				"z": -4.4611064178,
				"element": "O" 
			},
			{
				"x": -2.4517563604,
				"y": 0.1356793836,
				"z": 5.5820491791,
				"element": "H" 
			},
			{
				"x": -2.7855887963,
				"y": 1.7459092758,
				"z": 6.2742290499,
				"element": "H" 
			},
			{
				"x": -1.1310717935,
				"y": 1.3347847774,
				"z": 5.7345594482,
				"element": "H" 
			},
			{
				"x": -3.7819014672,
				"y": 0.4532655303,
				"z": 2.388427705,
				"element": "H" 
			},
			{
				"x": 2.2293598737,
				"y": -0.5622863736,
				"z": 2.6340992691,
				"element": "H" 
			},
			{
				"x": 2.2206540095,
				"y": 1.020675656,
				"z": 3.4628146591,
				"element": "H" 
			},
			{
				"x": 3.3064720725,
				"y": 0.739402404,
				"z": 2.067844371,
				"element": "H" 
			},
			{
				"x": 0.4632194661,
				"y": 3.7852589961,
				"z": 2.7341470216,
				"element": "H" 
			},
			{
				"x": 0.7575765744,
				"y": 3.9031212009,
				"z": 4.4918482675,
				"element": "H" 
			},
			{
				"x": -0.9181019393,
				"y": 3.8092834396,
				"z": 3.8770050657,
				"element": "H" 
			},
			{
				"x": 1.0798539957,
				"y": -1.6332057153,
				"z": 0.9020599711,
				"element": "H" 
			},
			{
				"x": 2.2720544767,
				"y": -2.9664412665,
				"z": -0.5457556762,
				"element": "H" 
			},
			{
				"x": 2.8116848186,
				"y": -3.1182370561,
				"z": -4.9416175659,
				"element": "H" 
			},
			{
				"x": 1.3969414827,
				"y": -4.0696490152,
				"z": -4.4438406876,
				"element": "H" 
			},
			{
				"x": 3.0346366832,
				"y": -4.7111372026,
				"z": -4.135997293,
				"element": "H" 
			},
			{
				"x": -0.5695797614,
				"y": -0.0577976614,
				"z": -3.7582170489,
				"element": "H" 
			},
			{
				"x": -1.5172460002,
				"y": 1.6664215538,
				"z": -0.9233343644,
				"element": "H" 
			},
			{
				"x": -3.4474770751,
				"y": -0.3614096372,
				"z": -2.1158250325,
				"element": "H" 
			},
			{
				"x": -3.8178548032,
				"y": 1.0517987522,
				"z": -1.1234137951,
				"element": "H" 
			},
			{
				"x": -2.5421330816,
				"y": -1.5967709191,
				"z": -0.2898386107,
				"element": "H" 
			},
			{
				"x": -3.9854702974,
				"y": -0.8339274275,
				"z": 0.3628900156,
				"element": "H" 
			},
			{
				"x": -2.6166213246,
				"y": 1.2463084393,
				"z": -3.6048933521,
				"element": "H" 
			},
			{
				"x": 0.4484731293,
				"y": 2.7023338621,
				"z": -2.1498260236,
				"element": "H" 
			},
			{
				"x": 0.1335406651,
				"y": 4.2497293913,
				"z": -2.981232493,
				"element": "H" 
			},
			{
				"x": -0.8013390646,
				"y": 3.7955241059,
				"z": -1.5394866566,
				"element": "H" 
			}
		],
		 "valence_orbital": [ 
			{
				"type": "occ",
				"energy": -0.24191,
				"method": "rhf"
			},
			{
				"type": "occ",
				"energy": -0.23977,
				"method": "rhf"
			},
			{
				"type": "occ",
				"energy": -0.23611,
				"method": "rhf"
			},
			{
				"type": "occ",
				"energy": -0.23546,
				"method": "rhf"
			},
			{
				"type": "occ",
				"energy": -0.20566,
				"method": "rhf"
			},
			{
				"type": "unocc",
				"energy": -0.06808,
				"method": "rhf"
			},
			{
				"type": "unocc",
				"energy": -0.04939,
				"method": "rhf"
			},
			{
				"type": "unocc",
				"energy": -0.01066,
				"method": "rhf"
			},
			{
				"type": "unocc",
				"energy": -0.00465,
				"method": "rhf"
			},
			{
				"type": "unocc",
				"energy": 0.03308,
				"method": "rhf"
			}
		],
		"cosmo_sigma_profile": { 
			"-0.025": 0.0,
			"-0.024": 0.0,
			"-0.023": 0.0,
			"-0.022": 0.0,
			"-0.021": 0.0,
			"-0.02": 0.0,
			"-0.019": 0.0,
			"-0.018": 0.0,
			"-0.017": 0.0,
			"-0.016": 0.0,
			"-0.015": 0.0,
			"-0.014": 0.0,
			"-0.013": 0.542758226497,
			"-0.012": 1.10260575932,
			"-0.011": 0.998119514985,
			"-0.01": 1.59454762684,
			"-0.009": 1.20271643764,
			"-0.008": 1.55106793812,
			"-0.007": 6.02140526952,
			"-0.006": 15.4945742848,
			"-0.005": 31.1176789656,
			"-0.004": 42.2941943559,
			"-0.003": 56.7647243862,
			"-0.002": 51.1007403391,
			"-0.001": 39.0499554514,
			"0.0": 31.4992671123,
			"0.001": 28.5286982656,
			"0.002": 25.2952653713,
			"0.003": 18.0250549633,
			"0.004": 13.4732105082,
			"0.005": 10.5190037518,
			"0.006": 6.11822765082,
			"0.007": 8.09523402646,
			"0.008": 6.89768976894,
			"0.009": 5.65984017768,
			"0.01": 5.62629259887,
			"0.011": 4.87628416239,
			"0.012": 4.17230614911,
			"0.013": 6.27294455835,
			"0.014": 8.05460989294,
			"0.015": 3.1379873254,
			"0.016": 0.0885709554238,
			"0.017": 0.0,
			"0.018": 0.0,
			"0.019": 0.0,
			"0.02": 0.0,
			"0.021": 0.0,
			"0.022": 0.0,
			"0.023": 0.0,
			"0.024": 0.0,
			"0.025": 0.0
		}
	}
}
