{
	 "smiles": "COC1=CC(OC2=CC=C(C=O)C=C2)=CC(OC)=C1", 
	 "Tm": 331.15, 
	 "num_atms": 33, 
	 "gaussian": { 
		 "optdone": 1, 
		 "sigma_profile": "yes", 
		 "theory": "DFT", 
		 "functional": "B3LYP", 
		 "basiset": "6-31G**", 
		 "properties": { 
			 "R2extent": 7449.3551, 
			 "electric_dipole_moment_norm": 5.63493105725, 
			 "electric_quadrupole_moment_norm": 22.8711467358, 
			 "total_energy": -880.889454029, 
			 "HOMO_LUMO_gap": 0.17177, 
			 "cosmo_polarized_energy": -13.26, 
			 "cosmo_cavitation_energy": 38.29, 
			 "cosmo_dispersion_energy": -27.05, 
			 "cosmo_repulsion_energy": 2.09, 
			 "cosmo_total_nonelectrostatic_energy": 13.33, 
			 "SMD_solvation_energy": 9.33 
		},
		"coords": [
			{
				"x": 4.6334128759,
				"y": 1.8840970388,
				"z": -0.2017127909,
				"element": "C" 
			},
			{
				"x": 3.6250343217,
				"y": 1.2380548215,
				"z": -0.9650042565,
				"element": "O" 
			},
			{
				"x": 2.7220451943,
				"y": 0.4561703995,
				"z": -0.3121458369,
				"element": "C" 
			},
			{
				"x": 1.7555039089,
				"y": -0.1555929073,
				"z": -1.1318893665,
				"element": "C" 
			},
			{
				"x": 0.8076263254,
				"y": -0.9692430613,
				"z": -0.5378421205,
				"element": "C" 
			},
			{
				"x": -0.0942736965,
				"y": -1.6389495368,
				"z": -1.3598483195,
				"element": "O" 
			},
			{
				"x": -1.4009652841,
				"y": -1.2365181097,
				"z": -1.4170907602,
				"element": "C" 
			},
			{
				"x": -1.876598816,
				"y": -0.0478679372,
				"z": -0.8490592005,
				"element": "C" 
			},
			{
				"x": -3.2245223413,
				"y": 0.2720805976,
				"z": -0.9878951052,
				"element": "C" 
			},
			{
				"x": -4.1011676806,
				"y": -0.5712847343,
				"z": -1.681928009,
				"element": "C" 
			},
			{
				"x": -5.5246527406,
				"y": -0.2153617908,
				"z": -1.815523142,
				"element": "C" 
			},
			{
				"x": -6.3597550493,
				"y": -0.8856999725,
				"z": -2.3965760945,
				"element": "O" 
			},
			{
				"x": -3.6042974721,
				"y": -1.758924915,
				"z": -2.2490655134,
				"element": "C" 
			},
			{
				"x": -2.2670374905,
				"y": -2.0921389521,
				"z": -2.1199235792,
				"element": "C" 
			},
			{
				"x": 0.7701100803,
				"y": -1.2043662389,
				"z": 0.8425984693,
				"element": "C" 
			},
			{
				"x": 1.7354798092,
				"y": -0.5827816045,
				"z": 1.6372383312,
				"element": "C" 
			},
			{
				"x": 1.8206474373,
				"y": -0.7233324429,
				"z": 2.9898604366,
				"element": "O" 
			},
			{
				"x": 0.8725765991,
				"y": -1.5564855594,
				"z": 3.6410204073,
				"element": "C" 
			},
			{
				"x": 2.7138998291,
				"y": 0.2498563969,
				"z": 1.0662245939,
				"element": "C" 
			},
			{
				"x": 4.2025668589,
				"y": 2.5772557758,
				"z": 0.5317670221,
				"element": "H" 
			},
			{
				"x": 5.270621955,
				"y": 1.1592591131,
				"z": 0.3202708743,
				"element": "H" 
			},
			{
				"x": 5.2369877657,
				"y": 2.4454872369,
				"z": -0.9162185693,
				"element": "H" 
			},
			{
				"x": 1.7676362673,
				"y": 0.0028617418,
				"z": -2.2030594851,
				"element": "H" 
			},
			{
				"x": -1.2008969818,
				"y": 0.6101099639,
				"z": -0.3160409462,
				"element": "H" 
			},
			{
				"x": -3.6029308999,
				"y": 1.1944083433,
				"z": -0.5524890103,
				"element": "H" 
			},
			{
				"x": -5.8055591785,
				"y": 0.7476366518,
				"z": -1.3310259691,
				"element": "H" 
			},
			{
				"x": -4.2936775255,
				"y": -2.4033605451,
				"z": -2.7853908088,
				"element": "H" 
			},
			{
				"x": -1.8609096624,
				"y": -3.0023290938,
				"z": -2.5485730445,
				"element": "H" 
			},
			{
				"x": 0.0141723243,
				"y": -1.8625681289,
				"z": 1.2489638269,
				"element": "H" 
			},
			{
				"x": 1.1226491869,
				"y": -1.5234606738,
				"z": 4.7023391965,
				"element": "H" 
			},
			{
				"x": 0.9356295461,
				"y": -2.5930411969,
				"z": 3.2867403298,
				"element": "H" 
			},
			{
				"x": -0.1519580036,
				"y": -1.1898925023,
				"z": 3.4993692767,
				"element": "H" 
			},
			{
				"x": 3.4407025374,
				"y": 0.7032218224,
				"z": 1.7271091638,
				"element": "H" 
			}
		],
		 "valence_orbital": [ 
			{
				"type": "occ",
				"energy": -0.26493,
				"method": "rhf"
			},
			{
				"type": "occ",
				"energy": -0.24657,
				"method": "rhf"
			},
			{
				"type": "occ",
				"energy": -0.24133,
				"method": "rhf"
			},
			{
				"type": "occ",
				"energy": -0.23175,
				"method": "rhf"
			},
			{
				"type": "occ",
				"energy": -0.22326,
				"method": "rhf"
			},
			{
				"type": "unocc",
				"energy": -0.05149,
				"method": "rhf"
			},
			{
				"type": "unocc",
				"energy": -0.01393,
				"method": "rhf"
			},
			{
				"type": "unocc",
				"energy": -0.0033,
				"method": "rhf"
			},
			{
				"type": "unocc",
				"energy": 0.00924,
				"method": "rhf"
			},
			{
				"type": "unocc",
				"energy": 0.0512,
				"method": "rhf"
			}
		],
		"cosmo_sigma_profile": { 
			"-0.025": 0.0,
			"-0.024": 0.0,
			"-0.023": 0.0,
			"-0.022": 0.0,
			"-0.021": 0.0,
			"-0.02": 0.0,
			"-0.019": 0.0,
			"-0.018": 0.0,
			"-0.017": 0.0,
			"-0.016": 0.0,
			"-0.015": 0.0,
			"-0.014": 0.0,
			"-0.013": 0.0,
			"-0.012": 0.0,
			"-0.011": 0.0,
			"-0.01": 0.0,
			"-0.009": 0.0,
			"-0.008": 0.657017355983,
			"-0.007": 8.67728817212,
			"-0.006": 22.3822143808,
			"-0.005": 30.7669647402,
			"-0.004": 26.9726571358,
			"-0.003": 27.3782848329,
			"-0.002": 18.9757465921,
			"-0.001": 16.1862162842,
			"0.0": 16.5771822465,
			"0.001": 20.6894071591,
			"0.002": 23.6712895595,
			"0.003": 31.2273872138,
			"0.004": 17.4588106224,
			"0.005": 7.65311841372,
			"0.006": 6.36999437386,
			"0.007": 4.20665259839,
			"0.008": 6.57843977798,
			"0.009": 5.14756600375,
			"0.01": 5.08123960307,
			"0.011": 3.10394772486,
			"0.012": 4.25494779413,
			"0.013": 1.56003865414,
			"0.014": 0.17704020662,
			"0.015": 0.0,
			"0.016": 0.0,
			"0.017": 0.0,
			"0.018": 0.0,
			"0.019": 0.0,
			"0.02": 0.0,
			"0.021": 0.0,
			"0.022": 0.0,
			"0.023": 0.0,
			"0.024": 0.0,
			"0.025": 0.0
		}
	}
}
