{
	 "smiles": "COC1=NC(Cl)=CC(C)=N1", 
	 "Tm": 333.15, 
	 "num_atms": 17, 
	 "gaussian": { 
		 "optdone": 1, 
		 "sigma_profile": "yes", 
		 "theory": "DFT", 
		 "functional": "B3LYP", 
		 "basiset": "6-31G**", 
		 "properties": { 
			 "R2extent": 2081.9768, 
			 "electric_dipole_moment_norm": 3.71010531522, 
			 "electric_quadrupole_moment_norm": 9.06426320503, 
			 "total_energy": -877.780038578, 
			 "HOMO_LUMO_gap": 0.21321, 
			 "cosmo_polarized_energy": -8.47, 
			 "cosmo_cavitation_energy": 23.21, 
			 "cosmo_dispersion_energy": -17.43, 
			 "cosmo_repulsion_energy": 1.44, 
			 "cosmo_total_nonelectrostatic_energy": 7.22, 
			 "SMD_solvation_energy": 2.41 
		},
		"coords": [
			{
				"x": -0.5620458748,
				"y": -1.2976656079,
				"z": 2.518516058,
				"element": "C" 
			},
			{
				"x": 0.2922908326,
				"y": -0.2293843055,
				"z": 2.0942670505,
				"element": "O" 
			},
			{
				"x": 0.4210113416,
				"y": -0.0266694421,
				"z": 0.7780764823,
				"element": "C" 
			},
			{
				"x": 1.237247591,
				"y": 0.9921723293,
				"z": 0.4672615806,
				"element": "N" 
			},
			{
				"x": 1.3796993927,
				"y": 1.2125228019,
				"z": -0.8225709448,
				"element": "C" 
			},
			{
				"x": 2.4397037576,
				"y": 2.5370331484,
				"z": -1.2853989009,
				"element": "Cl" 
			},
			{
				"x": 0.75193667,
				"y": 0.471829305,
				"z": -1.8236891229,
				"element": "C" 
			},
			{
				"x": -0.0746322218,
				"y": -0.5638158805,
				"z": -1.381025694,
				"element": "C" 
			},
			{
				"x": -0.8161751428,
				"y": -1.4459316441,
				"z": -2.3508218352,
				"element": "C" 
			},
			{
				"x": -0.2418070145,
				"y": -0.8153252149,
				"z": -0.0711620416,
				"element": "N" 
			},
			{
				"x": -0.5189382288,
				"y": -1.2809233044,
				"z": 3.6078991287,
				"element": "H" 
			},
			{
				"x": -0.2076950134,
				"y": -2.2591212762,
				"z": 2.1373644187,
				"element": "H" 
			},
			{
				"x": -1.5879087072,
				"y": -1.1404904187,
				"z": 2.1747949352,
				"element": "H" 
			},
			{
				"x": 0.8983562904,
				"y": 0.6886803674,
				"z": -2.8737347391,
				"element": "H" 
			},
			{
				"x": -1.4017528423,
				"y": -2.187146084,
				"z": -1.8057311461,
				"element": "H" 
			},
			{
				"x": -1.4885873886,
				"y": -0.853271211,
				"z": -2.9804773761,
				"element": "H" 
			},
			{
				"x": -0.1186034417,
				"y": -1.9633935625,
				"z": -3.0182678534,
				"element": "H" 
			}
		],
		 "valence_orbital": [ 
			{
				"type": "occ",
				"energy": -0.32803,
				"method": "rhf"
			},
			{
				"type": "occ",
				"energy": -0.31736,
				"method": "rhf"
			},
			{
				"type": "occ",
				"energy": -0.29596,
				"method": "rhf"
			},
			{
				"type": "occ",
				"energy": -0.26635,
				"method": "rhf"
			},
			{
				"type": "occ",
				"energy": -0.25481,
				"method": "rhf"
			},
			{
				"type": "unocc",
				"energy": -0.0416,
				"method": "rhf"
			},
			{
				"type": "unocc",
				"energy": -0.01963,
				"method": "rhf"
			},
			{
				"type": "unocc",
				"energy": 0.03063,
				"method": "rhf"
			},
			{
				"type": "unocc",
				"energy": 0.10478,
				"method": "rhf"
			},
			{
				"type": "unocc",
				"energy": 0.11613,
				"method": "rhf"
			}
		],
		"cosmo_sigma_profile": { 
			"-0.025": 0.0,
			"-0.024": 0.0,
			"-0.023": 0.0,
			"-0.022": 0.0,
			"-0.021": 0.0,
			"-0.02": 0.0,
			"-0.019": 0.0,
			"-0.018": 0.0,
			"-0.017": 0.0,
			"-0.016": 0.0,
			"-0.015": 0.0,
			"-0.014": 0.0,
			"-0.013": 0.0,
			"-0.012": 0.0,
			"-0.011": 0.0,
			"-0.01": 0.0,
			"-0.009": 0.3030185495,
			"-0.008": 1.58499948118,
			"-0.007": 2.26887949651,
			"-0.006": 8.05847138278,
			"-0.005": 15.3572543758,
			"-0.004": 15.9839579593,
			"-0.003": 20.1637394824,
			"-0.002": 19.8646076465,
			"-0.001": 19.8339085799,
			"0.0": 14.6442864892,
			"0.001": 9.5102322311,
			"0.002": 9.52609381127,
			"0.003": 10.7760287172,
			"0.004": 11.4646203249,
			"0.005": 4.45835167258,
			"0.006": 4.72542093147,
			"0.007": 4.02737756794,
			"0.008": 3.01408436231,
			"0.009": 2.5849818987,
			"0.01": 3.49081981847,
			"0.011": 2.31664543572,
			"0.012": 1.58918123829,
			"0.013": 1.32384672989,
			"0.014": 0.709832880755,
			"0.015": 0.0448450623934,
			"0.016": 0.0,
			"0.017": 0.0,
			"0.018": 0.0,
			"0.019": 0.0,
			"0.02": 0.0,
			"0.021": 0.0,
			"0.022": 0.0,
			"0.023": 0.0,
			"0.024": 0.0,
			"0.025": 0.0
		}
	}
}
