{
	 "smiles": "O=CC1=CNC2=C1C=CC=C2OCC1=CC=CC=C1", 
	 "Tm": 426.65, 
	 "num_atms": 32, 
	 "gaussian": { 
		 "optdone": 1, 
		 "sigma_profile": "yes", 
		 "theory": "DFT", 
		 "functional": "B3LYP", 
		 "basiset": "6-31G**", 
		 "properties": { 
			 "R2extent": 5538.7236, 
			 "electric_dipole_moment_norm": 5.92542451728, 
			 "electric_quadrupole_moment_norm": 25.2465899012, 
			 "total_energy": -822.724716829, 
			 "HOMO_LUMO_gap": 0.17434, 
			 "cosmo_polarized_energy": -15.91, 
			 "cosmo_cavitation_energy": 36.39, 
			 "cosmo_dispersion_energy": -24.86, 
			 "cosmo_repulsion_energy": 1.9, 
			 "cosmo_total_nonelectrostatic_energy": 13.43, 
			 "SMD_solvation_energy": 6.87 
		},
		"coords": [
			{
				"x": 1.4190897445,
				"y": 3.3425174672,
				"z": -4.6434320425,
				"element": "O" 
			},
			{
				"x": 1.6007284805,
				"y": 2.1558767153,
				"z": -4.4094287749,
				"element": "C" 
			},
			{
				"x": 0.9361158679,
				"y": 1.4028924193,
				"z": -3.3624620058,
				"element": "C" 
			},
			{
				"x": 1.1465602707,
				"y": 0.0604157624,
				"z": -3.0889904043,
				"element": "C" 
			},
			{
				"x": 0.3559410608,
				"y": -0.3278698054,
				"z": -2.0478284405,
				"element": "N" 
			},
			{
				"x": -0.3829107741,
				"y": 0.7580467335,
				"z": -1.6035884827,
				"element": "C" 
			},
			{
				"x": -0.048911069,
				"y": 1.8720892108,
				"z": -2.4106107947,
				"element": "C" 
			},
			{
				"x": -0.6623334215,
				"y": 3.1116631396,
				"z": -2.1680366457,
				"element": "C" 
			},
			{
				"x": -1.5877032107,
				"y": 3.1966709346,
				"z": -1.133990592,
				"element": "C" 
			},
			{
				"x": -1.9183207011,
				"y": 2.0774278692,
				"z": -0.3426218903,
				"element": "C" 
			},
			{
				"x": -1.3216531646,
				"y": 0.8415629971,
				"z": -0.5680267866,
				"element": "C" 
			},
			{
				"x": -1.6769787563,
				"y": -0.2873422391,
				"z": 0.1473489131,
				"element": "O" 
			},
			{
				"x": -1.0451525419,
				"y": -0.4436030361,
				"z": 1.435451989,
				"element": "C" 
			},
			{
				"x": 0.3410146057,
				"y": -1.0367349236,
				"z": 1.3222240911,
				"element": "C" 
			},
			{
				"x": 0.4972225389,
				"y": -2.368139855,
				"z": 0.9035800939,
				"element": "C" 
			},
			{
				"x": 1.7691633376,
				"y": -2.918806233,
				"z": 0.7458434136,
				"element": "C" 
			},
			{
				"x": 2.9037541041,
				"y": -2.1448867472,
				"z": 1.0106251465,
				"element": "C" 
			},
			{
				"x": 2.7582476023,
				"y": -0.8232454338,
				"z": 1.4325504872,
				"element": "C" 
			},
			{
				"x": 1.4829557101,
				"y": -0.2725981209,
				"z": 1.5842128542,
				"element": "C" 
			},
			{
				"x": 2.3228555411,
				"y": 1.5640001545,
				"z": -5.0177965987,
				"element": "H" 
			},
			{
				"x": 1.8122639631,
				"y": -0.6402910639,
				"z": -3.5742021369,
				"element": "H" 
			},
			{
				"x": 0.3610221557,
				"y": -1.2311578964,
				"z": -1.5974702215,
				"element": "H" 
			},
			{
				"x": -0.4087048123,
				"y": 3.9666380388,
				"z": -2.7833655883,
				"element": "H" 
			},
			{
				"x": -2.0790442035,
				"y": 4.1436526046,
				"z": -0.9307881657,
				"element": "H" 
			},
			{
				"x": -2.6629584503,
				"y": 2.159796097,
				"z": 0.4434223569,
				"element": "H" 
			},
			{
				"x": -1.0156510737,
				"y": 0.5202580717,
				"z": 1.9568742771,
				"element": "H" 
			},
			{
				"x": -1.7081397925,
				"y": -1.1158405549,
				"z": 1.9883428946,
				"element": "H" 
			},
			{
				"x": -0.3857628917,
				"y": -2.9719538403,
				"z": 0.7070619006,
				"element": "H" 
			},
			{
				"x": 1.8772072917,
				"y": -3.9523863456,
				"z": 0.4288003975,
				"element": "H" 
			},
			{
				"x": 3.8946588448,
				"y": -2.5737401518,
				"z": 0.8927492963,
				"element": "H" 
			},
			{
				"x": 3.6358905141,
				"y": -0.2178556363,
				"z": 1.6395864283,
				"element": "H" 
			},
			{
				"x": 1.3738332298,
				"y": 0.7603436678,
				"z": 1.9041650313,
				"element": "H" 
			}
		],
		 "valence_orbital": [ 
			{
				"type": "occ",
				"energy": -0.26733,
				"method": "rhf"
			},
			{
				"type": "occ",
				"energy": -0.26229,
				"method": "rhf"
			},
			{
				"type": "occ",
				"energy": -0.2359,
				"method": "rhf"
			},
			{
				"type": "occ",
				"energy": -0.23009,
				"method": "rhf"
			},
			{
				"type": "occ",
				"energy": -0.21004,
				"method": "rhf"
			},
			{
				"type": "unocc",
				"energy": -0.0357,
				"method": "rhf"
			},
			{
				"type": "unocc",
				"energy": -0.02535,
				"method": "rhf"
			},
			{
				"type": "unocc",
				"energy": -0.01829,
				"method": "rhf"
			},
			{
				"type": "unocc",
				"energy": -0.00087,
				"method": "rhf"
			},
			{
				"type": "unocc",
				"energy": 0.02351,
				"method": "rhf"
			}
		],
		"cosmo_sigma_profile": { 
			"-0.025": 0.0,
			"-0.024": 0.0,
			"-0.023": 0.0,
			"-0.022": 0.0,
			"-0.021": 0.0,
			"-0.02": 0.0,
			"-0.019": 0.0,
			"-0.018": 0.0,
			"-0.017": 0.0,
			"-0.016": 0.0,
			"-0.015": 0.0,
			"-0.014": 0.0276671759682,
			"-0.013": 0.690959860423,
			"-0.012": 0.7443424285,
			"-0.011": 0.972735283192,
			"-0.01": 2.77520053345,
			"-0.009": 3.59694951247,
			"-0.008": 3.44099604581,
			"-0.007": 3.21067798724,
			"-0.006": 16.2515632711,
			"-0.005": 26.5859780922,
			"-0.004": 25.7667341019,
			"-0.003": 24.5745395112,
			"-0.002": 17.9265307782,
			"-0.001": 16.0595643756,
			"0.0": 15.3131149965,
			"0.001": 18.1788634973,
			"0.002": 21.5072887896,
			"0.003": 22.6314582275,
			"0.004": 22.2651570885,
			"0.005": 17.2564419325,
			"0.006": 8.08956329882,
			"0.007": 2.55626920409,
			"0.008": 3.13102839377,
			"0.009": 3.26794932412,
			"0.01": 2.92173754302,
			"0.011": 3.55940190552,
			"0.012": 4.1134371075,
			"0.013": 2.70342322661,
			"0.014": 1.44309590062,
			"0.015": 0.0342711107029,
			"0.016": 0.0,
			"0.017": 0.0,
			"0.018": 0.0,
			"0.019": 0.0,
			"0.02": 0.0,
			"0.021": 0.0,
			"0.022": 0.0,
			"0.023": 0.0,
			"0.024": 0.0,
			"0.025": 0.0
		}
	}
}
