{
	 "smiles": "CC1=C(C=NO1)C(=O)NC1=CC=C(C=C1)C(F)(F)F", 
	 "Tm": 439.15, 
	 "num_atms": 28, 
	 "gaussian": { 
		 "optdone": 1, 
		 "sigma_profile": "yes", 
		 "theory": "DFT", 
		 "functional": "B3LYP", 
		 "basiset": "6-31G**", 
		 "properties": { 
			 "R2extent": 6969.0931, 
			 "electric_dipole_moment_norm": 2.30992175192, 
			 "electric_quadrupole_moment_norm": 13.9299537957, 
			 "total_energy": -1022.14460416, 
			 "HOMO_LUMO_gap": 0.1948, 
			 "cosmo_polarized_energy": -13.97, 
			 "cosmo_cavitation_energy": 34.72, 
			 "cosmo_dispersion_energy": -24.12, 
			 "cosmo_repulsion_energy": 1.8, 
			 "cosmo_total_nonelectrostatic_energy": 12.4, 
			 "SMD_solvation_energy": 7.77 
		},
		"coords": [
			{
				"x": 0.8166565284,
				"y": 4.3049417453,
				"z": 3.0345360656,
				"element": "C" 
			},
			{
				"x": 0.6835062602,
				"y": 2.8342374383,
				"z": 2.8583138015,
				"element": "C" 
			},
			{
				"x": 0.1749560911,
				"y": 2.0412201141,
				"z": 1.8531075816,
				"element": "C" 
			},
			{
				"x": 0.3579710599,
				"y": 0.7146792688,
				"z": 2.3583316259,
				"element": "C" 
			},
			{
				"x": 0.924441641,
				"y": 0.6999339106,
				"z": 3.5355884309,
				"element": "N" 
			},
			{
				"x": 1.1431826136,
				"y": 2.0556441579,
				"z": 3.8492748493,
				"element": "O" 
			},
			{
				"x": -0.4999745028,
				"y": 2.5380328411,
				"z": 0.6357364803,
				"element": "C" 
			},
			{
				"x": -0.9896107858,
				"y": 3.6626477761,
				"z": 0.578242756,
				"element": "O" 
			},
			{
				"x": -0.6549693732,
				"y": 1.6800693909,
				"z": -0.4448598291,
				"element": "N" 
			},
			{
				"x": 0.0830902317,
				"y": 0.5479926491,
				"z": -0.8553163528,
				"element": "C" 
			},
			{
				"x": -0.579245495,
				"y": -0.4477124261,
				"z": -1.5898022162,
				"element": "C" 
			},
			{
				"x": 0.1157113015,
				"y": -1.5571877925,
				"z": -2.0594036736,
				"element": "C" 
			},
			{
				"x": 1.4795115203,
				"y": -1.6962872811,
				"z": -1.788673382,
				"element": "C" 
			},
			{
				"x": 2.1444077732,
				"y": -0.7059619506,
				"z": -1.0608365308,
				"element": "C" 
			},
			{
				"x": 1.4589421532,
				"y": 0.4182132202,
				"z": -0.6102625207,
				"element": "C" 
			},
			{
				"x": 2.2169192216,
				"y": -2.9279714191,
				"z": -2.2355778533,
				"element": "C" 
			},
			{
				"x": 3.5206085503,
				"y": -2.670911531,
				"z": -2.4815466945,
				"element": "F" 
			},
			{
				"x": 2.1801376233,
				"y": -3.9017559029,
				"z": -1.2960506223,
				"element": "F" 
			},
			{
				"x": 1.6833331605,
				"y": -3.450906986,
				"z": -3.3619884112,
				"element": "F" 
			},
			{
				"x": 0.3046107769,
				"y": 4.6215544771,
				"z": 3.9490686518,
				"element": "H" 
			},
			{
				"x": 1.8704428803,
				"y": 4.587063769,
				"z": 3.1314073587,
				"element": "H" 
			},
			{
				"x": 0.3669883639,
				"y": 4.8126310285,
				"z": 2.1823634953,
				"element": "H" 
			},
			{
				"x": 0.0812776213,
				"y": -0.2260285001,
				"z": 1.902079424,
				"element": "H" 
			},
			{
				"x": -1.2948532243,
				"y": 2.0708088206,
				"z": -1.1265862164,
				"element": "H" 
			},
			{
				"x": -1.6428436259,
				"y": -0.3473720851,
				"z": -1.7852811604,
				"element": "H" 
			},
			{
				"x": -0.4016114051,
				"y": -2.3178529085,
				"z": -2.6337985292,
				"element": "H" 
			},
			{
				"x": 3.2082679931,
				"y": -0.7991857212,
				"z": -0.8715371955,
				"element": "H" 
			},
			{
				"x": 1.991445047,
				"y": 1.2002638966,
				"z": -0.0820293327,
				"element": "H" 
			}
		],
		 "valence_orbital": [ 
			{
				"type": "occ",
				"energy": -0.31162,
				"method": "rhf"
			},
			{
				"type": "occ",
				"energy": -0.28121,
				"method": "rhf"
			},
			{
				"type": "occ",
				"energy": -0.27838,
				"method": "rhf"
			},
			{
				"type": "occ",
				"energy": -0.26531,
				"method": "rhf"
			},
			{
				"type": "occ",
				"energy": -0.24885,
				"method": "rhf"
			},
			{
				"type": "unocc",
				"energy": -0.05405,
				"method": "rhf"
			},
			{
				"type": "unocc",
				"energy": -0.03575,
				"method": "rhf"
			},
			{
				"type": "unocc",
				"energy": -0.0257,
				"method": "rhf"
			},
			{
				"type": "unocc",
				"energy": -0.00552,
				"method": "rhf"
			},
			{
				"type": "unocc",
				"energy": 0.07929,
				"method": "rhf"
			}
		],
		"cosmo_sigma_profile": { 
			"-0.025": 0.0,
			"-0.024": 0.0,
			"-0.023": 0.0,
			"-0.022": 0.0,
			"-0.021": 0.0,
			"-0.02": 0.0,
			"-0.019": 0.0,
			"-0.018": 0.0,
			"-0.017": 0.0,
			"-0.016": 0.0,
			"-0.015": 0.558341788153,
			"-0.014": 1.29747776277,
			"-0.013": 0.804462834511,
			"-0.012": 0.688985603873,
			"-0.011": 1.45622474182,
			"-0.01": 1.67408896683,
			"-0.009": 1.69442583123,
			"-0.008": 4.30813089624,
			"-0.007": 11.3195929836,
			"-0.006": 14.8868076523,
			"-0.005": 15.2331384065,
			"-0.004": 16.2133339043,
			"-0.003": 19.2689110306,
			"-0.002": 20.4106818804,
			"-0.001": 17.6106935838,
			"0.0": 20.4170676466,
			"0.001": 21.5190081958,
			"0.002": 27.3991183513,
			"0.003": 37.1018204303,
			"0.004": 7.12049241417,
			"0.005": 4.32304482741,
			"0.006": 4.33027027565,
			"0.007": 7.17484013816,
			"0.008": 2.92198312488,
			"0.009": 3.13856188314,
			"0.01": 3.16759071609,
			"0.011": 3.49585444693,
			"0.012": 4.99546012853,
			"0.013": 3.76839497548,
			"0.014": 0.399001263699,
			"0.015": 0.0,
			"0.016": 0.0,
			"0.017": 0.0,
			"0.018": 0.0,
			"0.019": 0.0,
			"0.02": 0.0,
			"0.021": 0.0,
			"0.022": 0.0,
			"0.023": 0.0,
			"0.024": 0.0,
			"0.025": 0.0
		}
	}
}
