{
	 "smiles": "FC(F)(F)C1=NC2=C(C=NN2C(=C1)C(F)(F)F)C#N", 
	 "Tm": 349.15, 
	 "num_atms": 21, 
	 "gaussian": { 
		 "optdone": 1, 
		 "sigma_profile": "yes", 
		 "theory": "DFT", 
		 "functional": "B3LYP", 
		 "basiset": "6-31G**", 
		 "properties": { 
			 "R2extent": 5705.6878, 
			 "electric_dipole_moment_norm": 4.22598619141, 
			 "electric_quadrupole_moment_norm": 14.1291265915, 
			 "total_energy": -1162.15624599, 
			 "HOMO_LUMO_gap": 0.15549, 
			 "cosmo_polarized_energy": -13.29, 
			 "cosmo_cavitation_energy": 31.3, 
			 "cosmo_dispersion_energy": -21.01, 
			 "cosmo_repulsion_energy": 1.5, 
			 "cosmo_total_nonelectrostatic_energy": 11.78, 
			 "SMD_solvation_energy": 7.36 
		},
		"coords": [
			{
				"x": -2.23297055,
				"y": -1.0519968323,
				"z": 1.2780887201,
				"element": "F" 
			},
			{
				"x": -1.2761688052,
				"y": -1.5546886005,
				"z": 0.5024650589,
				"element": "C" 
			},
			{
				"x": -0.3635161798,
				"y": -2.1730584718,
				"z": 1.283957524,
				"element": "F" 
			},
			{
				"x": -1.8175715098,
				"y": -2.4985475952,
				"z": -0.2988429461,
				"element": "F" 
			},
			{
				"x": -0.5916410565,
				"y": -0.4940522751,
				"z": -0.3445395537,
				"element": "C" 
			},
			{
				"x": -1.0006656718,
				"y": 0.7468966059,
				"z": -0.2237338705,
				"element": "N" 
			},
			{
				"x": -0.3812735544,
				"y": 1.6658130824,
				"z": -0.9818237119,
				"element": "C" 
			},
			{
				"x": -0.5390252332,
				"y": 3.0525365002,
				"z": -1.1220225425,
				"element": "C" 
			},
			{
				"x": 0.4254061285,
				"y": 3.4243473462,
				"z": -2.0847682184,
				"element": "C" 
			},
			{
				"x": 1.1462561452,
				"y": 2.3956986753,
				"z": -2.5356678591,
				"element": "N" 
			},
			{
				"x": 0.6569099825,
				"y": 1.3297560172,
				"z": -1.8667888257,
				"element": "N" 
			},
			{
				"x": 1.0766696175,
				"y": 0.0347276192,
				"z": -1.9864724784,
				"element": "C" 
			},
			{
				"x": 0.4534159016,
				"y": -0.9098312393,
				"z": -1.2195155093,
				"element": "C" 
			},
			{
				"x": 2.2011265928,
				"y": -0.2761285856,
				"z": -2.9563296415,
				"element": "C" 
			},
			{
				"x": 3.3190583397,
				"y": 0.3825786966,
				"z": -2.6238817826,
				"element": "F" 
			},
			{
				"x": 1.8622642512,
				"y": 0.0575058697,
				"z": -4.2085515048,
				"element": "F" 
			},
			{
				"x": 2.4661048794,
				"y": -1.5958323946,
				"z": -2.9291783644,
				"element": "F" 
			},
			{
				"x": -1.4622488464,
				"y": 3.8854392541,
				"z": -0.4449278282,
				"element": "C" 
			},
			{
				"x": -2.2129217879,
				"y": 4.5872854498,
				"z": 0.100524363,
				"element": "N" 
			},
			{
				"x": 0.618171269,
				"y": 4.4175515257,
				"z": -2.4661533907,
				"element": "H" 
			},
			{
				"x": 0.7552200878,
				"y": -1.946100648,
				"z": -1.2839376382,
				"element": "H" 
			}
		],
		 "valence_orbital": [ 
			{
				"type": "occ",
				"energy": -0.35366,
				"method": "rhf"
			},
			{
				"type": "occ",
				"energy": -0.34201,
				"method": "rhf"
			},
			{
				"type": "occ",
				"energy": -0.31588,
				"method": "rhf"
			},
			{
				"type": "occ",
				"energy": -0.31145,
				"method": "rhf"
			},
			{
				"type": "occ",
				"energy": -0.26878,
				"method": "rhf"
			},
			{
				"type": "unocc",
				"energy": -0.11329,
				"method": "rhf"
			},
			{
				"type": "unocc",
				"energy": -0.06962,
				"method": "rhf"
			},
			{
				"type": "unocc",
				"energy": -0.02052,
				"method": "rhf"
			},
			{
				"type": "unocc",
				"energy": 0.01626,
				"method": "rhf"
			},
			{
				"type": "unocc",
				"energy": 0.04228,
				"method": "rhf"
			}
		],
		"cosmo_sigma_profile": { 
			"-0.025": 0.0,
			"-0.024": 0.0,
			"-0.023": 0.0,
			"-0.022": 0.0,
			"-0.021": 0.0,
			"-0.02": 0.0,
			"-0.019": 0.0,
			"-0.018": 0.0,
			"-0.017": 0.0,
			"-0.016": 0.0,
			"-0.015": 0.0,
			"-0.014": 0.0,
			"-0.013": 0.0,
			"-0.012": 0.0120325483501,
			"-0.011": 2.11045439374,
			"-0.01": 4.06555875056,
			"-0.009": 5.34325543533,
			"-0.008": 5.86251348572,
			"-0.007": 9.52467922978,
			"-0.006": 10.5304273789,
			"-0.005": 10.7496077386,
			"-0.004": 12.0260312777,
			"-0.003": 14.1217897384,
			"-0.002": 17.3046295442,
			"-0.001": 13.9227312187,
			"0.0": 17.5818055686,
			"0.001": 38.4372172536,
			"0.002": 38.8226131921,
			"0.003": 9.57073981979,
			"0.004": 6.7577683866,
			"0.005": 6.12795144952,
			"0.006": 5.49036517273,
			"0.007": 5.9139277935,
			"0.008": 6.7165715058,
			"0.009": 4.83595974192,
			"0.01": 4.28722339818,
			"0.011": 2.53997450513,
			"0.012": 2.2380372505,
			"0.013": 0.682599981116,
			"0.014": 0.0,
			"0.015": 0.0,
			"0.016": 0.0,
			"0.017": 0.0,
			"0.018": 0.0,
			"0.019": 0.0,
			"0.02": 0.0,
			"0.021": 0.0,
			"0.022": 0.0,
			"0.023": 0.0,
			"0.024": 0.0,
			"0.025": 0.0
		}
	}
}
