{
	 "smiles": "ClC1=CC(NCC2CC2)=C(C=C1)C#N", 
	 "Tm": 326.15, 
	 "num_atms": 25, 
	 "gaussian": { 
		 "optdone": 1, 
		 "sigma_profile": "yes", 
		 "theory": "DFT", 
		 "functional": "B3LYP", 
		 "basiset": "6-31G**", 
		 "properties": { 
			 "R2extent": 4536.0027, 
			 "electric_dipole_moment_norm": 2.94312045795, 
			 "electric_quadrupole_moment_norm": 19.8660529238, 
			 "total_energy": -995.453786752, 
			 "HOMO_LUMO_gap": 0.16911, 
			 "cosmo_polarized_energy": -10.45, 
			 "cosmo_cavitation_energy": 31.22, 
			 "cosmo_dispersion_energy": -21.71, 
			 "cosmo_repulsion_energy": 1.73, 
			 "cosmo_total_nonelectrostatic_energy": 11.24, 
			 "SMD_solvation_energy": 5.04 
		},
		"coords": [
			{
				"x": -3.2174662249,
				"y": -2.6559884245,
				"z": -0.4352871932,
				"element": "Cl" 
			},
			{
				"x": -2.7834005827,
				"y": -1.076173753,
				"z": -1.0692632264,
				"element": "C" 
			},
			{
				"x": -1.4367956643,
				"y": -0.7650944122,
				"z": -1.1976695163,
				"element": "C" 
			},
			{
				"x": -1.0463916972,
				"y": 0.4922329887,
				"z": -1.7042057687,
				"element": "C" 
			},
			{
				"x": 0.262011636,
				"y": 0.8422338273,
				"z": -1.8973317649,
				"element": "N" 
			},
			{
				"x": 1.438909508,
				"y": 0.1235982919,
				"z": -1.4244937509,
				"element": "C" 
			},
			{
				"x": 1.8548041298,
				"y": 0.446472191,
				"z": 0.0008529217,
				"element": "C" 
			},
			{
				"x": 2.7999241088,
				"y": -0.4784184918,
				"z": 0.7294236521,
				"element": "C" 
			},
			{
				"x": 1.3640136022,
				"y": -0.3599717435,
				"z": 1.1787898694,
				"element": "C" 
			},
			{
				"x": -2.0835494807,
				"y": 1.407901862,
				"z": -2.0612176132,
				"element": "C" 
			},
			{
				"x": -3.4334454479,
				"y": 1.0553842585,
				"z": -1.9142445176,
				"element": "C" 
			},
			{
				"x": -3.8042586513,
				"y": -0.1865686659,
				"z": -1.4182808033,
				"element": "C" 
			},
			{
				"x": -1.7208899261,
				"y": 2.6910349939,
				"z": -2.5685086867,
				"element": "C" 
			},
			{
				"x": -1.3605041054,
				"y": 3.7232221814,
				"z": -2.973174386,
				"element": "N" 
			},
			{
				"x": -0.6954150152,
				"y": -1.496779901,
				"z": -0.9083756938,
				"element": "H" 
			},
			{
				"x": 0.4183376019,
				"y": 1.7914614291,
				"z": -2.2079412823,
				"element": "H" 
			},
			{
				"x": 2.256775692,
				"y": 0.3797292539,
				"z": -2.1082041882,
				"element": "H" 
			},
			{
				"x": 1.2777891695,
				"y": -0.953985542,
				"z": -1.5393302235,
				"element": "H" 
			},
			{
				"x": 1.9980483106,
				"y": 1.5107558549,
				"z": 0.1796122775,
				"element": "H" 
			},
			{
				"x": 3.0984269889,
				"y": -1.3965115987,
				"z": 0.229664577,
				"element": "H" 
			},
			{
				"x": 3.5784400603,
				"y": -0.0391250585,
				"z": 1.3451445191,
				"element": "H" 
			},
			{
				"x": 1.1519537329,
				"y": 0.1653556079,
				"z": 2.1048278417,
				"element": "H" 
			},
			{
				"x": 0.7049679552,
				"y": -1.2023192018,
				"z": 0.9917412961,
				"element": "H" 
			},
			{
				"x": -4.1930829872,
				"y": 1.7773029372,
				"z": -2.195496963,
				"element": "H" 
			},
			{
				"x": -4.8447027134,
				"y": -0.4615488847,
				"z": -1.3007313767,
				"element": "H" 
			}
		],
		 "valence_orbital": [ 
			{
				"type": "occ",
				"energy": -0.3143,
				"method": "rhf"
			},
			{
				"type": "occ",
				"energy": -0.30362,
				"method": "rhf"
			},
			{
				"type": "occ",
				"energy": -0.29919,
				"method": "rhf"
			},
			{
				"type": "occ",
				"energy": -0.25829,
				"method": "rhf"
			},
			{
				"type": "occ",
				"energy": -0.21737,
				"method": "rhf"
			},
			{
				"type": "unocc",
				"energy": -0.04826,
				"method": "rhf"
			},
			{
				"type": "unocc",
				"energy": -0.00952,
				"method": "rhf"
			},
			{
				"type": "unocc",
				"energy": 0.01893,
				"method": "rhf"
			},
			{
				"type": "unocc",
				"energy": 0.03029,
				"method": "rhf"
			},
			{
				"type": "unocc",
				"energy": 0.07187,
				"method": "rhf"
			}
		],
		"cosmo_sigma_profile": { 
			"-0.025": 0.0,
			"-0.024": 0.0,
			"-0.023": 0.0,
			"-0.022": 0.0,
			"-0.021": 0.0,
			"-0.02": 0.0,
			"-0.019": 0.0,
			"-0.018": 0.0,
			"-0.017": 0.0,
			"-0.016": 0.0,
			"-0.015": 0.0,
			"-0.014": 0.0,
			"-0.013": 0.14191628994,
			"-0.012": 0.931753018496,
			"-0.011": 0.841704305463,
			"-0.01": 1.17039316062,
			"-0.009": 2.10494575298,
			"-0.008": 5.87488539474,
			"-0.007": 7.17366888769,
			"-0.006": 9.72963223589,
			"-0.005": 13.5261410009,
			"-0.004": 17.5037018833,
			"-0.003": 17.9253844102,
			"-0.002": 18.7538200062,
			"-0.001": 17.8306451521,
			"0.0": 20.2337464398,
			"0.001": 23.2186051431,
			"0.002": 26.5490109498,
			"0.003": 21.25212493,
			"0.004": 18.0948014401,
			"0.005": 7.37291458987,
			"0.006": 3.05974960904,
			"0.007": 2.41968353855,
			"0.008": 2.37468213199,
			"0.009": 3.27432649045,
			"0.01": 3.08022664688,
			"0.011": 2.59673781481,
			"0.012": 2.78276656154,
			"0.013": 1.78563549931,
			"0.014": 0.1594433532,
			"0.015": 0.0,
			"0.016": 0.0,
			"0.017": 0.0,
			"0.018": 0.0,
			"0.019": 0.0,
			"0.02": 0.0,
			"0.021": 0.0,
			"0.022": 0.0,
			"0.023": 0.0,
			"0.024": 0.0,
			"0.025": 0.0
		}
	}
}
