{
	 "smiles": "NC(=O)CC1=CC(=CC=C1)C(F)(F)F", 
	 "Tm": 380.15, 
	 "num_atms": 22, 
	 "gaussian": { 
		 "optdone": 1, 
		 "sigma_profile": "yes", 
		 "theory": "DFT", 
		 "functional": "B3LYP", 
		 "basiset": "6-31G**", 
		 "properties": { 
			 "R2extent": 3802.8912, 
			 "electric_dipole_moment_norm": 2.57571573354, 
			 "electric_quadrupole_moment_norm": 18.0819082077, 
			 "total_energy": -777.304185412, 
			 "HOMO_LUMO_gap": 0.20488, 
			 "cosmo_polarized_energy": -13.16, 
			 "cosmo_cavitation_energy": 28.03, 
			 "cosmo_dispersion_energy": -19.41, 
			 "cosmo_repulsion_energy": 1.5, 
			 "cosmo_total_nonelectrostatic_energy": 10.12, 
			 "SMD_solvation_energy": 6.68 
		},
		"coords": [
			{
				"x": -2.2357886959,
				"y": 0.5370808181,
				"z": -0.7072575054,
				"element": "N" 
			},
			{
				"x": -2.4558291309,
				"y": 0.3078671839,
				"z": 0.6183098482,
				"element": "C" 
			},
			{
				"x": -3.5692167369,
				"y": 0.1331216209,
				"z": 1.087875889,
				"element": "O" 
			},
			{
				"x": -1.2111252424,
				"y": 0.3388098448,
				"z": 1.5288213094,
				"element": "C" 
			},
			{
				"x": 0.1273416032,
				"y": 0.0954007376,
				"z": 0.8712900123,
				"element": "C" 
			},
			{
				"x": 0.928197939,
				"y": 1.1638352122,
				"z": 0.4494433201,
				"element": "C" 
			},
			{
				"x": 2.1567261765,
				"y": 0.9319343548,
				"z": -0.1764050499,
				"element": "C" 
			},
			{
				"x": 2.6065661287,
				"y": -0.3723993673,
				"z": -0.3881499807,
				"element": "C" 
			},
			{
				"x": 1.816754725,
				"y": -1.4434810217,
				"z": 0.0312225995,
				"element": "C" 
			},
			{
				"x": 0.5899597086,
				"y": -1.2116852395,
				"z": 0.6511992733,
				"element": "C" 
			},
			{
				"x": 2.968023755,
				"y": 2.0998863787,
				"z": -0.6710254595,
				"element": "C" 
			},
			{
				"x": 2.5834850544,
				"y": 2.4773512605,
				"z": -1.9139844076,
				"element": "F" 
			},
			{
				"x": 4.2847775935,
				"y": 1.8087726068,
				"z": -0.7385872203,
				"element": "F" 
			},
			{
				"x": 2.8289631755,
				"y": 3.1826248827,
				"z": 0.1253140053,
				"element": "F" 
			},
			{
				"x": -3.0319965222,
				"y": 0.5218219808,
				"z": -1.3259931216,
				"element": "H" 
			},
			{
				"x": -1.3087651124,
				"y": 0.6075906893,
				"z": -1.0942068009,
				"element": "H" 
			},
			{
				"x": -1.2205187668,
				"y": 1.3191187512,
				"z": 2.0196584724,
				"element": "H" 
			},
			{
				"x": -1.4052108163,
				"y": -0.3994609913,
				"z": 2.3112398483,
				"element": "H" 
			},
			{
				"x": 0.6032910546,
				"y": 2.1851350936,
				"z": 0.6247515295,
				"element": "H" 
			},
			{
				"x": 3.566021388,
				"y": -0.5440984417,
				"z": -0.8632562197,
				"element": "H" 
			},
			{
				"x": 2.1624418303,
				"y": -2.4613443011,
				"z": -0.1215618346,
				"element": "H" 
			},
			{
				"x": -0.0171991085,
				"y": -2.0522820534,
				"z": 0.9771014929,
				"element": "H" 
			}
		],
		 "valence_orbital": [ 
			{
				"type": "occ",
				"energy": -0.3575,
				"method": "rhf"
			},
			{
				"type": "occ",
				"energy": -0.28071,
				"method": "rhf"
			},
			{
				"type": "occ",
				"energy": -0.27879,
				"method": "rhf"
			},
			{
				"type": "occ",
				"energy": -0.2689,
				"method": "rhf"
			},
			{
				"type": "occ",
				"energy": -0.24398,
				"method": "rhf"
			},
			{
				"type": "unocc",
				"energy": -0.0391,
				"method": "rhf"
			},
			{
				"type": "unocc",
				"energy": -0.02855,
				"method": "rhf"
			},
			{
				"type": "unocc",
				"energy": 0.02837,
				"method": "rhf"
			},
			{
				"type": "unocc",
				"energy": 0.07882,
				"method": "rhf"
			},
			{
				"type": "unocc",
				"energy": 0.08737,
				"method": "rhf"
			}
		],
		"cosmo_sigma_profile": { 
			"-0.025": 0.0,
			"-0.024": 0.0,
			"-0.023": 0.0,
			"-0.022": 0.0,
			"-0.021": 0.0,
			"-0.02": 0.0,
			"-0.019": 0.0,
			"-0.018": 0.0,
			"-0.017": 0.0,
			"-0.016": 0.0,
			"-0.015": 0.0,
			"-0.014": 0.82720786367,
			"-0.013": 1.28589360891,
			"-0.012": 1.64613184406,
			"-0.011": 2.53016533876,
			"-0.01": 2.1653090309,
			"-0.009": 1.30474078747,
			"-0.008": 1.9006862169,
			"-0.007": 9.62873871124,
			"-0.006": 15.1853383753,
			"-0.005": 12.9924858651,
			"-0.004": 13.8731538638,
			"-0.003": 10.5461313706,
			"-0.002": 13.0749040741,
			"-0.001": 12.6566990287,
			"0.0": 12.2480455367,
			"0.001": 16.2694248639,
			"0.002": 25.1904438871,
			"0.003": 39.6745504768,
			"0.004": 7.50048425062,
			"0.005": 1.96068540979,
			"0.006": 1.21844916012,
			"0.007": 1.28182804337,
			"0.008": 1.3680035599,
			"0.009": 1.35793298699,
			"0.01": 1.12522954207,
			"0.011": 1.16932909299,
			"0.012": 1.98171145213,
			"0.013": 3.30015969034,
			"0.014": 6.25232874328,
			"0.015": 1.84779150383,
			"0.016": 0.00955231559209,
			"0.017": 0.0,
			"0.018": 0.0,
			"0.019": 0.0,
			"0.02": 0.0,
			"0.021": 0.0,
			"0.022": 0.0,
			"0.023": 0.0,
			"0.024": 0.0,
			"0.025": 0.0
		}
	}
}
