{
	 "smiles": "ClCC(=O)NC1=CC(OC2=CC=CC=C2)=CC=C1", 
	 "Tm": 376.15, 
	 "num_atms": 30, 
	 "gaussian": { 
		 "optdone": 1, 
		 "sigma_profile": "yes", 
		 "theory": "DFT", 
		 "functional": "B3LYP", 
		 "basiset": "6-31G**", 
		 "properties": { 
			 "R2extent": 5943.2807, 
			 "electric_dipole_moment_norm": 3.06737605129, 
			 "electric_quadrupole_moment_norm": 23.7144557435, 
			 "total_energy": -1206.11320447, 
			 "HOMO_LUMO_gap": 0.1915, 
			 "cosmo_polarized_energy": -14.18, 
			 "cosmo_cavitation_energy": 36.55, 
			 "cosmo_dispersion_energy": -25.01, 
			 "cosmo_repulsion_energy": 1.96, 
			 "cosmo_total_nonelectrostatic_energy": 13.49, 
			 "SMD_solvation_energy": 6.81 
		},
		"coords": [
			{
				"x": -3.7025983929,
				"y": -1.2921206711,
				"z": -0.3152159161,
				"element": "Cl" 
			},
			{
				"x": -3.8531065399,
				"y": -0.3868763077,
				"z": 1.249206811,
				"element": "C" 
			},
			{
				"x": -3.2657181802,
				"y": -1.1912477785,
				"z": 2.4052691471,
				"element": "C" 
			},
			{
				"x": -3.9199615099,
				"y": -2.0609485291,
				"z": 2.9581245728,
				"element": "O" 
			},
			{
				"x": -1.9964953667,
				"y": -0.8794285922,
				"z": 2.8444122918,
				"element": "N" 
			},
			{
				"x": -1.0548745418,
				"y": 0.0946845908,
				"z": 2.4226499256,
				"element": "C" 
			},
			{
				"x": -0.7500749122,
				"y": 0.2839521786,
				"z": 1.0682995527,
				"element": "C" 
			},
			{
				"x": 0.1994504011,
				"y": 1.2475737764,
				"z": 0.71201368,
				"element": "C" 
			},
			{
				"x": 0.5109137884,
				"y": 1.5445190743,
				"z": -0.5936838905,
				"element": "O" 
			},
			{
				"x": 0.3685461612,
				"y": 0.5971957047,
				"z": -1.5971259915,
				"element": "C" 
			},
			{
				"x": 0.9500059614,
				"y": -0.6695610421,
				"z": -1.4984728967,
				"element": "C" 
			},
			{
				"x": 0.8442544687,
				"y": -1.5508090734,
				"z": -2.5747070849,
				"element": "C" 
			},
			{
				"x": 0.1766823493,
				"y": -1.1696007115,
				"z": -3.741081325,
				"element": "C" 
			},
			{
				"x": -0.3898464723,
				"y": 0.1033749359,
				"z": -3.8289019481,
				"element": "C" 
			},
			{
				"x": -0.2997819292,
				"y": 0.9911033542,
				"z": -2.7559883963,
				"element": "C" 
			},
			{
				"x": 0.8611885773,
				"y": 2.0000082401,
				"z": 1.6866444154,
				"element": "C" 
			},
			{
				"x": 0.5646371831,
				"y": 1.7821776664,
				"z": 3.0299036863,
				"element": "C" 
			},
			{
				"x": -0.3897337679,
				"y": 0.8390738695,
				"z": 3.4070805597,
				"element": "C" 
			},
			{
				"x": -3.3817381145,
				"y": 0.5843700035,
				"z": 1.1060402944,
				"element": "H" 
			},
			{
				"x": -4.918992509,
				"y": -0.2771543168,
				"z": 1.4415233134,
				"element": "H" 
			},
			{
				"x": -1.7711634312,
				"y": -1.383514074,
				"z": 3.6941077554,
				"element": "H" 
			},
			{
				"x": -1.2220937688,
				"y": -0.3238950007,
				"z": 0.3063885147,
				"element": "H" 
			},
			{
				"x": 1.4776905116,
				"y": -0.9541937959,
				"z": -0.5941811951,
				"element": "H" 
			},
			{
				"x": 1.2932470454,
				"y": -2.5370635502,
				"z": -2.5017756028,
				"element": "H" 
			},
			{
				"x": 0.1004638732,
				"y": -1.8597923878,
				"z": -4.5755748095,
				"element": "H" 
			},
			{
				"x": -0.9094781539,
				"y": 0.4081022956,
				"z": -4.7325479763,
				"element": "H" 
			},
			{
				"x": -0.7331851297,
				"y": 1.9846312972,
				"z": -2.8021473085,
				"element": "H" 
			},
			{
				"x": 1.5961053988,
				"y": 2.7338270387,
				"z": 1.3750295939,
				"element": "H" 
			},
			{
				"x": 1.078776529,
				"y": 2.359286633,
				"z": 3.7925492581,
				"element": "H" 
			},
			{
				"x": -0.6327195283,
				"y": 0.6852251719,
				"z": 4.4540609691,
				"element": "H" 
			}
		],
		 "valence_orbital": [ 
			{
				"type": "occ",
				"energy": -0.26413,
				"method": "rhf"
			},
			{
				"type": "occ",
				"energy": -0.26262,
				"method": "rhf"
			},
			{
				"type": "occ",
				"energy": -0.25629,
				"method": "rhf"
			},
			{
				"type": "occ",
				"energy": -0.24003,
				"method": "rhf"
			},
			{
				"type": "occ",
				"energy": -0.22637,
				"method": "rhf"
			},
			{
				"type": "unocc",
				"energy": -0.03487,
				"method": "rhf"
			},
			{
				"type": "unocc",
				"energy": -0.01719,
				"method": "rhf"
			},
			{
				"type": "unocc",
				"energy": -0.01045,
				"method": "rhf"
			},
			{
				"type": "unocc",
				"energy": -0.00336,
				"method": "rhf"
			},
			{
				"type": "unocc",
				"energy": 0.00353,
				"method": "rhf"
			}
		],
		"cosmo_sigma_profile": { 
			"-0.025": 0.0,
			"-0.024": 0.0,
			"-0.023": 0.0,
			"-0.022": 0.0,
			"-0.021": 0.0,
			"-0.02": 0.0,
			"-0.019": 0.0,
			"-0.018": 0.0,
			"-0.017": 0.0,
			"-0.016": 0.0,
			"-0.015": 0.572523488056,
			"-0.014": 1.18919006854,
			"-0.013": 0.766720364226,
			"-0.012": 0.724019935888,
			"-0.011": 1.37954149337,
			"-0.01": 1.28957626132,
			"-0.009": 2.36379306316,
			"-0.008": 4.06707871084,
			"-0.007": 9.28710119843,
			"-0.006": 18.8511878366,
			"-0.005": 21.7732213491,
			"-0.004": 20.7167479587,
			"-0.003": 16.4304820342,
			"-0.002": 17.6316985965,
			"-0.001": 18.4101751424,
			"0.0": 18.499549424,
			"0.001": 21.0453701453,
			"0.002": 21.860624214,
			"0.003": 25.300280634,
			"0.004": 25.8540760985,
			"0.005": 20.4404446022,
			"0.006": 6.56954999701,
			"0.007": 2.86545633104,
			"0.008": 1.65294542283,
			"0.009": 2.22453389073,
			"0.01": 2.1395337932,
			"0.011": 1.92632890636,
			"0.012": 4.23823571186,
			"0.013": 4.45085294861,
			"0.014": 0.455691201243,
			"0.015": 0.0,
			"0.016": 0.0,
			"0.017": 0.0,
			"0.018": 0.0,
			"0.019": 0.0,
			"0.02": 0.0,
			"0.021": 0.0,
			"0.022": 0.0,
			"0.023": 0.0,
			"0.024": 0.0,
			"0.025": 0.0
		}
	}
}
