{
	 "smiles": "CC1=C(SC=C1S(=O)(=O)C1=CC=C(Cl)C=C1)C(Cl)=O", 
	 "Tm": 405.15, 
	 "num_atms": 27, 
	 "gaussian": { 
		 "optdone": 1, 
		 "sigma_profile": "yes", 
		 "theory": "DFT", 
		 "functional": "B3LYP", 
		 "basiset": "6-31G**", 
		 "properties": { 
			 "R2extent": 8471.1727, 
			 "electric_dipole_moment_norm": 2.81720276871, 
			 "electric_quadrupole_moment_norm": 23.8333435816, 
			 "total_energy": -2404.45062272, 
			 "HOMO_LUMO_gap": 0.17591, 
			 "cosmo_polarized_energy": -14.38, 
			 "cosmo_cavitation_energy": 38.27, 
			 "cosmo_dispersion_energy": -27.95, 
			 "cosmo_repulsion_energy": 2.06, 
			 "cosmo_total_nonelectrostatic_energy": 12.38, 
			 "SMD_solvation_energy": 6.04 
		},
		"coords": [
			{
				"x": -0.1319634661,
				"y": 1.3952167505,
				"z": -2.3100716335,
				"element": "C" 
			},
			{
				"x": 0.142955609,
				"y": 1.7196141031,
				"z": -0.8658582179,
				"element": "C" 
			},
			{
				"x": -0.2614664184,
				"y": 2.8538012952,
				"z": -0.1680350949,
				"element": "C" 
			},
			{
				"x": 0.3283768991,
				"y": 2.8693621081,
				"z": 1.4892072191,
				"element": "S" 
			},
			{
				"x": 1.0825166406,
				"y": 1.3539910912,
				"z": 1.2736452722,
				"element": "C" 
			},
			{
				"x": 0.9060802223,
				"y": 0.8663922413,
				"z": 0.0011157442,
				"element": "C" 
			},
			{
				"x": 1.6533467856,
				"y": -0.7199638188,
				"z": -0.406316061,
				"element": "S" 
			},
			{
				"x": 2.3986396194,
				"y": -1.1247370469,
				"z": 0.7947274271,
				"element": "O" 
			},
			{
				"x": 2.3133496614,
				"y": -0.6174581634,
				"z": -1.7168526739,
				"element": "O" 
			},
			{
				"x": 0.2594908608,
				"y": -1.8429162807,
				"z": -0.5881760418,
				"element": "C" 
			},
			{
				"x": -0.4234734124,
				"y": -2.276963379,
				"z": 0.5512443709,
				"element": "C" 
			},
			{
				"x": -1.4865784717,
				"y": -3.1652160154,
				"z": 0.4155312653,
				"element": "C" 
			},
			{
				"x": -1.8416506652,
				"y": -3.6130194965,
				"z": -0.8601477939,
				"element": "C" 
			},
			{
				"x": -3.1783805919,
				"y": -4.7302889403,
				"z": -1.031535421,
				"element": "Cl" 
			},
			{
				"x": -1.1499908557,
				"y": -3.1954869683,
				"z": -1.9979457717,
				"element": "C" 
			},
			{
				"x": -0.0886526326,
				"y": -2.301465054,
				"z": -1.8588713397,
				"element": "C" 
			},
			{
				"x": -1.0614962945,
				"y": 4.0334813493,
				"z": -0.4951242403,
				"element": "C" 
			},
			{
				"x": -1.8943895314,
				"y": 4.0291544955,
				"z": -2.1072634337,
				"element": "Cl" 
			},
			{
				"x": -1.2228189645,
				"y": 4.9691921183,
				"z": 0.2372210089,
				"element": "O" 
			},
			{
				"x": -1.1528878327,
				"y": 1.0196437717,
				"z": -2.4387810884,
				"element": "H" 
			},
			{
				"x": -0.0343169866,
				"y": 2.2798628204,
				"z": -2.9386955668,
				"element": "H" 
			},
			{
				"x": 0.5707247104,
				"y": 0.6420531547,
				"z": -2.6641978076,
				"element": "H" 
			},
			{
				"x": 1.6390699205,
				"y": 0.8736294025,
				"z": 2.0665757264,
				"element": "H" 
			},
			{
				"x": -0.1187922718,
				"y": -1.9365720274,
				"z": 1.5351095408,
				"element": "H" 
			},
			{
				"x": -2.030791601,
				"y": -3.5152853831,
				"z": 1.2852376694,
				"element": "H" 
			},
			{
				"x": -1.4347498269,
				"y": -3.5683869603,
				"z": -2.9752121247,
				"element": "H" 
			},
			{
				"x": 0.4791488943,
				"y": -1.9757351677,
				"z": -2.7232309333,
				"element": "H" 
			}
		],
		 "valence_orbital": [ 
			{
				"type": "occ",
				"energy": -0.30353,
				"method": "rhf"
			},
			{
				"type": "occ",
				"energy": -0.29517,
				"method": "rhf"
			},
			{
				"type": "occ",
				"energy": -0.29363,
				"method": "rhf"
			},
			{
				"type": "occ",
				"energy": -0.28192,
				"method": "rhf"
			},
			{
				"type": "occ",
				"energy": -0.27296,
				"method": "rhf"
			},
			{
				"type": "unocc",
				"energy": -0.09705,
				"method": "rhf"
			},
			{
				"type": "unocc",
				"energy": -0.06457,
				"method": "rhf"
			},
			{
				"type": "unocc",
				"energy": -0.04467,
				"method": "rhf"
			},
			{
				"type": "unocc",
				"energy": -0.02401,
				"method": "rhf"
			},
			{
				"type": "unocc",
				"energy": -0.0132,
				"method": "rhf"
			}
		],
		"cosmo_sigma_profile": { 
			"-0.025": 0.0,
			"-0.024": 0.0,
			"-0.023": 0.0,
			"-0.022": 0.0,
			"-0.021": 0.0,
			"-0.02": 0.0,
			"-0.019": 0.0,
			"-0.018": 0.0,
			"-0.017": 0.0,
			"-0.016": 0.0,
			"-0.015": 0.0,
			"-0.014": 0.0,
			"-0.013": 0.0,
			"-0.012": 0.222412198171,
			"-0.011": 1.23255860027,
			"-0.01": 1.78916857086,
			"-0.009": 2.26947330805,
			"-0.008": 8.16930858562,
			"-0.007": 9.62953358211,
			"-0.006": 10.7850918392,
			"-0.005": 14.1223515631,
			"-0.004": 17.7036446676,
			"-0.003": 22.89209668,
			"-0.002": 32.0082944399,
			"-0.001": 33.5929178344,
			"0.0": 33.2694818992,
			"0.001": 30.8372650257,
			"0.002": 15.9312862645,
			"0.003": 17.4665770219,
			"0.004": 17.9509256605,
			"0.005": 5.72072573897,
			"0.006": 5.28553949587,
			"0.007": 5.23980164686,
			"0.008": 7.69694209776,
			"0.009": 6.97381055089,
			"0.01": 6.8830526186,
			"0.011": 6.78290998732,
			"0.012": 0.72417579657,
			"0.013": 0.0,
			"0.014": 0.0,
			"0.015": 0.0,
			"0.016": 0.0,
			"0.017": 0.0,
			"0.018": 0.0,
			"0.019": 0.0,
			"0.02": 0.0,
			"0.021": 0.0,
			"0.022": 0.0,
			"0.023": 0.0,
			"0.024": 0.0,
			"0.025": 0.0
		}
	}
}
