{
	 "smiles": "C(OC1=C2NN=CC2=CC=C1)C1=CC=CC=C1", 
	 "Tm": 400.15, 
	 "num_atms": 29, 
	 "gaussian": { 
		 "optdone": 1, 
		 "sigma_profile": "yes", 
		 "theory": "DFT", 
		 "functional": "B3LYP", 
		 "basiset": "6-31G**", 
		 "properties": { 
			 "R2extent": 5985.7435, 
			 "electric_dipole_moment_norm": 3.34656608929, 
			 "electric_quadrupole_moment_norm": 13.9100768391, 
			 "total_energy": -725.423482213, 
			 "HOMO_LUMO_gap": 0.18475, 
			 "cosmo_polarized_energy": -11.57, 
			 "cosmo_cavitation_energy": 33.61, 
			 "cosmo_dispersion_energy": -24.4, 
			 "cosmo_repulsion_energy": 1.88, 
			 "cosmo_total_nonelectrostatic_energy": 11.09, 
			 "SMD_solvation_energy": 4.7 
		},
		"coords": [
			{
				"x": 1.2118876604,
				"y": -1.6848655774,
				"z": -1.0640843244,
				"element": "C" 
			},
			{
				"x": 0.6730776506,
				"y": -1.1617150421,
				"z": 0.1586690634,
				"element": "O" 
			},
			{
				"x": -0.6244147632,
				"y": -1.4636112967,
				"z": 0.461122322,
				"element": "C" 
			},
			{
				"x": -1.1109883434,
				"y": -0.9267572172,
				"z": 1.6710765414,
				"element": "C" 
			},
			{
				"x": -0.5042949139,
				"y": -0.1446421774,
				"z": 2.6106477284,
				"element": "N" 
			},
			{
				"x": -1.333381977,
				"y": 0.1587696957,
				"z": 3.6409726264,
				"element": "N" 
			},
			{
				"x": -2.4841619231,
				"y": -0.433169175,
				"z": 3.3621985795,
				"element": "C" 
			},
			{
				"x": -2.4297810493,
				"y": -1.1470344509,
				"z": 2.124348984,
				"element": "C" 
			},
			{
				"x": -3.3110357518,
				"y": -1.9332086369,
				"z": 1.3494684075,
				"element": "C" 
			},
			{
				"x": -2.8344459494,
				"y": -2.4593004193,
				"z": 0.1640321848,
				"element": "C" 
			},
			{
				"x": -1.5058042048,
				"y": -2.2328590709,
				"z": -0.2849918657,
				"element": "C" 
			},
			{
				"x": 2.6402358432,
				"y": -1.2232646931,
				"z": -1.1853268584,
				"element": "C" 
			},
			{
				"x": 3.681993785,
				"y": -1.9892301475,
				"z": -0.6487106957,
				"element": "C" 
			},
			{
				"x": 5.0034080891,
				"y": -1.5506404184,
				"z": -0.7376792572,
				"element": "C" 
			},
			{
				"x": 5.2953927828,
				"y": -0.337666819,
				"z": -1.3649570903,
				"element": "C" 
			},
			{
				"x": 4.2626685692,
				"y": 0.4340957859,
				"z": -1.901598477,
				"element": "C" 
			},
			{
				"x": 2.9425182671,
				"y": -0.0077618148,
				"z": -1.8108082771,
				"element": "C" 
			},
			{
				"x": 0.6113238916,
				"y": -1.3250296848,
				"z": -1.910107965,
				"element": "H" 
			},
			{
				"x": 1.1550167219,
				"y": -2.7814083255,
				"z": -1.0476749102,
				"element": "H" 
			},
			{
				"x": 0.4407235065,
				"y": 0.2028015157,
				"z": 2.605695405,
				"element": "H" 
			},
			{
				"x": -3.3161759877,
				"y": -0.3357385641,
				"z": 4.046795532,
				"element": "H" 
			},
			{
				"x": -4.3298620487,
				"y": -2.1182072291,
				"z": 1.6745742633,
				"element": "H" 
			},
			{
				"x": -3.4858812437,
				"y": -3.0683322903,
				"z": -0.455754619,
				"element": "H" 
			},
			{
				"x": -1.1908718627,
				"y": -2.6729157329,
				"z": -1.2239432135,
				"element": "H" 
			},
			{
				"x": 3.4549537604,
				"y": -2.9334049601,
				"z": -0.1600148176,
				"element": "H" 
			},
			{
				"x": 5.8038156593,
				"y": -2.1550373014,
				"z": -0.3207468519,
				"element": "H" 
			},
			{
				"x": 6.3241043534,
				"y": 0.003407732,
				"z": -1.4380300185,
				"element": "H" 
			},
			{
				"x": 4.4855480959,
				"y": 1.3771686076,
				"z": -2.3922321066,
				"element": "H" 
			},
			{
				"x": 2.1387313821,
				"y": 0.593357708,
				"z": -2.2284402897,
				"element": "H" 
			}
		],
		 "valence_orbital": [ 
			{
				"type": "occ",
				"energy": -0.26642,
				"method": "rhf"
			},
			{
				"type": "occ",
				"energy": -0.25806,
				"method": "rhf"
			},
			{
				"type": "occ",
				"energy": -0.25768,
				"method": "rhf"
			},
			{
				"type": "occ",
				"energy": -0.23647,
				"method": "rhf"
			},
			{
				"type": "occ",
				"energy": -0.202,
				"method": "rhf"
			},
			{
				"type": "unocc",
				"energy": -0.01725,
				"method": "rhf"
			},
			{
				"type": "unocc",
				"energy": -0.01494,
				"method": "rhf"
			},
			{
				"type": "unocc",
				"energy": -0.00829,
				"method": "rhf"
			},
			{
				"type": "unocc",
				"energy": 0.02267,
				"method": "rhf"
			},
			{
				"type": "unocc",
				"energy": 0.07043,
				"method": "rhf"
			}
		],
		"cosmo_sigma_profile": { 
			"-0.025": 0.0,
			"-0.024": 0.0,
			"-0.023": 0.0,
			"-0.022": 0.0,
			"-0.021": 0.0,
			"-0.02": 0.0,
			"-0.019": 0.0,
			"-0.018": 0.0,
			"-0.017": 0.0575179678275,
			"-0.016": 0.786147594521,
			"-0.015": 0.960969217771,
			"-0.014": 0.962130736713,
			"-0.013": 0.404624242288,
			"-0.012": 0.445153113513,
			"-0.011": 1.08090423105,
			"-0.01": 1.51053812058,
			"-0.009": 0.390345351135,
			"-0.008": 0.396986499904,
			"-0.007": 3.20664826323,
			"-0.006": 18.7229184931,
			"-0.005": 26.0817266844,
			"-0.004": 24.6057190257,
			"-0.003": 20.2641410412,
			"-0.002": 14.719869785,
			"-0.001": 14.1663999029,
			"0.0": 11.5052959139,
			"0.001": 14.4617243994,
			"0.002": 20.1690225782,
			"0.003": 20.4137646633,
			"0.004": 23.2688218445,
			"0.005": 20.9528548337,
			"0.006": 14.0952294303,
			"0.007": 4.57687638126,
			"0.008": 2.42466305456,
			"0.009": 1.38783375515,
			"0.01": 1.4798920163,
			"0.011": 0.931411748114,
			"0.012": 1.32510665231,
			"0.013": 1.21522450496,
			"0.014": 1.05209338892,
			"0.015": 0.97203234463,
			"0.016": 0.283053231743,
			"0.017": 0.0,
			"0.018": 0.0,
			"0.019": 0.0,
			"0.02": 0.0,
			"0.021": 0.0,
			"0.022": 0.0,
			"0.023": 0.0,
			"0.024": 0.0,
			"0.025": 0.0
		}
	}
}
