{
	 "smiles": "[O-][N+](=O)C1=CC=C(C=C1)C1NCCS1", 
	 "Tm": 398.15, 
	 "num_atms": 24, 
	 "gaussian": { 
		 "optdone": 1, 
		 "sigma_profile": "yes", 
		 "theory": "DFT", 
		 "functional": "B3LYP", 
		 "basiset": "6-31G**", 
		 "properties": { 
			 "R2extent": 4884.4385, 
			 "electric_dipole_moment_norm": 4.57613933901, 
			 "electric_quadrupole_moment_norm": 22.2094505171, 
			 "total_energy": -1007.01093382, 
			 "HOMO_LUMO_gap": 0.14391, 
			 "cosmo_polarized_energy": -12.44, 
			 "cosmo_cavitation_energy": 29.09, 
			 "cosmo_dispersion_energy": -21.89, 
			 "cosmo_repulsion_energy": 1.67, 
			 "cosmo_total_nonelectrostatic_energy": 8.87, 
			 "SMD_solvation_energy": 4.1 
		},
		"coords": [
			{
				"x": 0.6009167807,
				"y": 0.3743961943,
				"z": 4.7858753594,
				"element": "O" 
			},
			{
				"x": 0.2897326517,
				"y": -0.7488845411,
				"z": 4.390683664,
				"element": "N" 
			},
			{
				"x": -0.1902272011,
				"y": -1.6334475229,
				"z": 5.0994724632,
				"element": "O" 
			},
			{
				"x": 0.5034061208,
				"y": -1.0553331516,
				"z": 2.9682117063,
				"element": "C" 
			},
			{
				"x": 0.1640570578,
				"y": -2.3189129016,
				"z": 2.4904215905,
				"element": "C" 
			},
			{
				"x": 0.3710875205,
				"y": -2.5955415813,
				"z": 1.1421177446,
				"element": "C" 
			},
			{
				"x": 0.9086299659,
				"y": -1.6313921603,
				"z": 0.2734442825,
				"element": "C" 
			},
			{
				"x": 1.254472611,
				"y": -0.3741807497,
				"z": 0.7945102176,
				"element": "C" 
			},
			{
				"x": 1.049573705,
				"y": -0.077328255,
				"z": 2.1384966894,
				"element": "C" 
			},
			{
				"x": 1.0068502098,
				"y": -1.9796966414,
				"z": -1.2079506097,
				"element": "C" 
			},
			{
				"x": -0.1421111457,
				"y": -1.5186149339,
				"z": -2.0085731505,
				"element": "N" 
			},
			{
				"x": 0.0895592397,
				"y": -0.1733988222,
				"z": -2.5338030808,
				"element": "C" 
			},
			{
				"x": 1.4528019279,
				"y": -0.2544834402,
				"z": -3.2163481738,
				"element": "C" 
			},
			{
				"x": 2.4890354418,
				"y": -1.2564084661,
				"z": -2.063400507,
				"element": "S" 
			},
			{
				"x": -0.2451556754,
				"y": -3.0551775835,
				"z": 3.1708069232,
				"element": "H" 
			},
			{
				"x": 0.1139585643,
				"y": -3.5787279202,
				"z": 0.7563517399,
				"element": "H" 
			},
			{
				"x": 1.7172407443,
				"y": 0.3617037067,
				"z": 0.1467383112,
				"element": "H" 
			},
			{
				"x": 1.3126651609,
				"y": 0.8867488633,
				"z": 2.5555850808,
				"element": "H" 
			},
			{
				"x": 1.0718977279,
				"y": -3.0687331838,
				"z": -1.2975441464,
				"element": "H" 
			},
			{
				"x": -0.9955371287,
				"y": -1.5675917288,
				"z": -1.4572648998,
				"element": "H" 
			},
			{
				"x": -0.7002529461,
				"y": 0.0723310556,
				"z": -3.2524281829,
				"element": "H" 
			},
			{
				"x": 0.1033031106,
				"y": 0.6153270483,
				"z": -1.7628307281,
				"element": "H" 
			},
			{
				"x": 1.9133399033,
				"y": 0.7263228656,
				"z": -3.3508518668,
				"element": "H" 
			},
			{
				"x": 1.3842556528,
				"y": -0.7646761502,
				"z": -4.1793204269,
				"element": "H" 
			}
		],
		 "valence_orbital": [ 
			{
				"type": "occ",
				"energy": -0.29071,
				"method": "rhf"
			},
			{
				"type": "occ",
				"energy": -0.28511,
				"method": "rhf"
			},
			{
				"type": "occ",
				"energy": -0.28018,
				"method": "rhf"
			},
			{
				"type": "occ",
				"energy": -0.24443,
				"method": "rhf"
			},
			{
				"type": "occ",
				"energy": -0.23436,
				"method": "rhf"
			},
			{
				"type": "unocc",
				"energy": -0.09045,
				"method": "rhf"
			},
			{
				"type": "unocc",
				"energy": -0.03131,
				"method": "rhf"
			},
			{
				"type": "unocc",
				"energy": -0.00673,
				"method": "rhf"
			},
			{
				"type": "unocc",
				"energy": 0.01571,
				"method": "rhf"
			},
			{
				"type": "unocc",
				"energy": 0.0637,
				"method": "rhf"
			}
		],
		"cosmo_sigma_profile": { 
			"-0.025": 0.0,
			"-0.024": 0.0,
			"-0.023": 0.0,
			"-0.022": 0.0,
			"-0.021": 0.0,
			"-0.02": 0.0,
			"-0.019": 0.0,
			"-0.018": 0.0,
			"-0.017": 0.0,
			"-0.016": 0.0,
			"-0.015": 0.0,
			"-0.014": 0.0,
			"-0.013": 0.0,
			"-0.012": 0.209059412766,
			"-0.011": 0.817670891754,
			"-0.01": 1.5854033919,
			"-0.009": 0.852659014621,
			"-0.008": 2.9131889889,
			"-0.007": 8.442721574,
			"-0.006": 14.4694543148,
			"-0.005": 17.1254581277,
			"-0.004": 19.5636341861,
			"-0.003": 22.5225027269,
			"-0.002": 19.1466561828,
			"-0.001": 17.4098327539,
			"0.0": 12.6075257452,
			"0.001": 15.471671635,
			"0.002": 14.0044578845,
			"0.003": 7.75671411333,
			"0.004": 6.79749517302,
			"0.005": 7.88269910549,
			"0.006": 6.77414168189,
			"0.007": 11.1870162353,
			"0.008": 11.3584276799,
			"0.009": 6.33677278191,
			"0.01": 4.67799462912,
			"0.011": 0.819365313194,
			"0.012": 0.406927702998,
			"0.013": 0.65171951953,
			"0.014": 0.395012173003,
			"0.015": 0.490154014646,
			"0.016": 0.337580514796,
			"0.017": 0.102094295028,
			"0.018": 0.0,
			"0.019": 0.0,
			"0.02": 0.0,
			"0.021": 0.0,
			"0.022": 0.0,
			"0.023": 0.0,
			"0.024": 0.0,
			"0.025": 0.0
		}
	}
}
