{
	 "smiles": "CC1=NN=C2CCC(CO)CN12", 
	 "Tm": 432.15, 
	 "num_atms": 25, 
	 "gaussian": { 
		 "optdone": 1, 
		 "sigma_profile": "yes", 
		 "theory": "DFT", 
		 "functional": "B3LYP", 
		 "basiset": "6-31G**", 
		 "properties": { 
			 "R2extent": 2309.7056, 
			 "electric_dipole_moment_norm": 5.90436441118, 
			 "electric_quadrupole_moment_norm": 20.1927819698, 
			 "total_energy": -552.149619105, 
			 "HOMO_LUMO_gap": 0.26073, 
			 "cosmo_polarized_energy": -21.27, 
			 "cosmo_cavitation_energy": 26.56, 
			 "cosmo_dispersion_energy": -19.57, 
			 "cosmo_repulsion_energy": 1.57, 
			 "cosmo_total_nonelectrostatic_energy": 8.56, 
			 "SMD_solvation_energy": 1.85 
		},
		"coords": [
			{
				"x": -2.8833387893,
				"y": 1.3298770357,
				"z": 0.308399302,
				"element": "C" 
			},
			{
				"x": -1.6229457024,
				"y": 1.2949062993,
				"z": 1.1047987382,
				"element": "C" 
			},
			{
				"x": -1.3263494528,
				"y": 2.0962167379,
				"z": 2.1029665128,
				"element": "N" 
			},
			{
				"x": -0.0796149985,
				"y": 1.7334682125,
				"z": 2.581814443,
				"element": "N" 
			},
			{
				"x": 0.340804052,
				"y": 0.7232952151,
				"z": 1.8580237165,
				"element": "C" 
			},
			{
				"x": 1.6446002292,
				"y": -0.0075465143,
				"z": 1.9570567796,
				"element": "C" 
			},
			{
				"x": 1.5812777694,
				"y": -1.3557453813,
				"z": 1.2163864324,
				"element": "C" 
			},
			{
				"x": 0.92633793,
				"y": -1.2211801471,
				"z": -0.1738818568,
				"element": "C" 
			},
			{
				"x": 1.7291986403,
				"y": -0.324303443,
				"z": -1.1245764856,
				"element": "C" 
			},
			{
				"x": 3.048705255,
				"y": -0.8436692008,
				"z": -1.202467144,
				"element": "O" 
			},
			{
				"x": -0.5220892968,
				"y": -0.7230336094,
				"z": -0.0301427091,
				"element": "C" 
			},
			{
				"x": -0.5927301441,
				"y": 0.4054315147,
				"z": 0.8975289822,
				"element": "N" 
			},
			{
				"x": -3.4539680797,
				"y": 0.3978646776,
				"z": 0.398646968,
				"element": "H" 
			},
			{
				"x": -3.4996512611,
				"y": 2.148453967,
				"z": 0.6831488339,
				"element": "H" 
			},
			{
				"x": -2.6925802569,
				"y": 1.5002802316,
				"z": -0.7580389728,
				"element": "H" 
			},
			{
				"x": 1.8984988543,
				"y": -0.1480814839,
				"z": 3.0117295416,
				"element": "H" 
			},
			{
				"x": 2.4435066536,
				"y": 0.6131117309,
				"z": 1.5314849416,
				"element": "H" 
			},
			{
				"x": 0.9995138211,
				"y": -2.0743558945,
				"z": 1.8073940938,
				"element": "H" 
			},
			{
				"x": 2.5869199012,
				"y": -1.7656385678,
				"z": 1.1021872796,
				"element": "H" 
			},
			{
				"x": 0.8834598645,
				"y": -2.2162810013,
				"z": -0.6329122012,
				"element": "H" 
			},
			{
				"x": 1.7270722092,
				"y": 0.7153168662,
				"z": -0.7631164014,
				"element": "H" 
			},
			{
				"x": 1.2397288485,
				"y": -0.3252635219,
				"z": -2.1124256304,
				"element": "H" 
			},
			{
				"x": 3.5797130396,
				"y": -0.2477059865,
				"z": -1.7444124579,
				"element": "H" 
			},
			{
				"x": -1.1567571077,
				"y": -1.5358378321,
				"z": 0.3444901307,
				"element": "H" 
			},
			{
				"x": -0.9300119786,
				"y": -0.4110799046,
				"z": -0.9982828368,
				"element": "H" 
			}
		],
		 "valence_orbital": [ 
			{
				"type": "occ",
				"energy": -0.28703,
				"method": "rhf"
			},
			{
				"type": "occ",
				"energy": -0.2844,
				"method": "rhf"
			},
			{
				"type": "occ",
				"energy": -0.27128,
				"method": "rhf"
			},
			{
				"type": "occ",
				"energy": -0.23474,
				"method": "rhf"
			},
			{
				"type": "occ",
				"energy": -0.23214,
				"method": "rhf"
			},
			{
				"type": "unocc",
				"energy": 0.02859,
				"method": "rhf"
			},
			{
				"type": "unocc",
				"energy": 0.05341,
				"method": "rhf"
			},
			{
				"type": "unocc",
				"energy": 0.06112,
				"method": "rhf"
			},
			{
				"type": "unocc",
				"energy": 0.06835,
				"method": "rhf"
			},
			{
				"type": "unocc",
				"energy": 0.1008,
				"method": "rhf"
			}
		],
		"cosmo_sigma_profile": { 
			"-0.025": 0.0,
			"-0.024": 0.0,
			"-0.023": 0.0,
			"-0.022": 0.0,
			"-0.021": 0.0,
			"-0.02": 0.0,
			"-0.019": 0.0,
			"-0.018": 0.0,
			"-0.017": 0.0,
			"-0.016": 0.405134954094,
			"-0.015": 1.27118318267,
			"-0.014": 0.817437076371,
			"-0.013": 1.26019484829,
			"-0.012": 0.944054497328,
			"-0.011": 0.937255611811,
			"-0.01": 0.324094055753,
			"-0.009": 0.4603995352,
			"-0.008": 0.776541865701,
			"-0.007": 3.18422263571,
			"-0.006": 13.5787719227,
			"-0.005": 22.434624534,
			"-0.004": 28.0586609308,
			"-0.003": 25.1464237641,
			"-0.002": 20.3519882765,
			"-0.001": 15.7082541762,
			"0.0": 9.10427914307,
			"0.001": 5.07427425139,
			"0.002": 5.16682454581,
			"0.003": 3.35017659563,
			"0.004": 3.65039849591,
			"0.005": 3.77041249758,
			"0.006": 3.24342125238,
			"0.007": 3.03490726966,
			"0.008": 3.38268832747,
			"0.009": 2.47105030564,
			"0.01": 4.23637942411,
			"0.011": 3.13331596679,
			"0.012": 3.20729632668,
			"0.013": 3.53861566146,
			"0.014": 3.3553206782,
			"0.015": 4.62666157307,
			"0.016": 2.52007416897,
			"0.017": 2.45078866412,
			"0.018": 1.96028131357,
			"0.019": 0.198801320162,
			"0.02": 0.0,
			"0.021": 0.0,
			"0.022": 0.0,
			"0.023": 0.0,
			"0.024": 0.0,
			"0.025": 0.0
		}
	}
}
