{
	 "smiles": "C1CC2(CCN1CC2)C1=CC=CC=C1", 
	 "Tm": 396.65, 
	 "num_atms": 31, 
	 "gaussian": { 
		 "optdone": 1, 
		 "sigma_profile": "yes", 
		 "theory": "DFT", 
		 "functional": "B3LYP", 
		 "basiset": "6-31G**", 
		 "properties": { 
			 "R2extent": 3675.1908, 
			 "electric_dipole_moment_norm": 0.612737864017, 
			 "electric_quadrupole_moment_norm": 5.13008329757, 
			 "total_energy": -560.371244174, 
			 "HOMO_LUMO_gap": 0.20741, 
			 "cosmo_polarized_energy": -5.64, 
			 "cosmo_cavitation_energy": 29.83, 
			 "cosmo_dispersion_energy": -22.33, 
			 "cosmo_repulsion_energy": 1.71, 
			 "cosmo_total_nonelectrostatic_energy": 9.21, 
			 "SMD_solvation_energy": 0.78 
		},
		"coords": [
			{
				"x": -2.1404553459,
				"y": 1.4812453079,
				"z": -0.4593174119,
				"element": "C" 
			},
			{
				"x": -0.8424457808,
				"y": 0.6177036833,
				"z": -0.3591904432,
				"element": "C" 
			},
			{
				"x": 0.2366432826,
				"y": 1.4051488521,
				"z": 0.4237254028,
				"element": "C" 
			},
			{
				"x": 0.4619070566,
				"y": 2.7436911435,
				"z": -0.335817066,
				"element": "C" 
			},
			{
				"x": -0.890037755,
				"y": 3.5191413574,
				"z": -0.4284644697,
				"element": "C" 
			},
			{
				"x": -1.9944535725,
				"y": 2.783642705,
				"z": 0.2028078989,
				"element": "N" 
			},
			{
				"x": -1.6822009727,
				"y": 2.5656199603,
				"z": 1.6220466743,
				"element": "C" 
			},
			{
				"x": -0.3693520284,
				"y": 1.7430855238,
				"z": 1.8158481434,
				"element": "C" 
			},
			{
				"x": 1.5553443169,
				"y": 0.6417409197,
				"z": 0.5784356458,
				"element": "C" 
			},
			{
				"x": 2.6306511788,
				"y": 1.2312374738,
				"z": 1.266864699,
				"element": "C" 
			},
			{
				"x": 3.8454622285,
				"y": 0.5677652331,
				"z": 1.4282839344,
				"element": "C" 
			},
			{
				"x": 4.0220322322,
				"y": -0.7137464346,
				"z": 0.9024245043,
				"element": "C" 
			},
			{
				"x": 2.9689074936,
				"y": -1.3155251028,
				"z": 0.2168096312,
				"element": "C" 
			},
			{
				"x": 1.7527777047,
				"y": -0.6453554133,
				"z": 0.0579040687,
				"element": "C" 
			},
			{
				"x": -2.988595132,
				"y": 0.9618810935,
				"z": 0.0001980778,
				"element": "H" 
			},
			{
				"x": -2.4062899677,
				"y": 1.6625848411,
				"z": -1.5065373421,
				"element": "H" 
			},
			{
				"x": -0.4693329133,
				"y": 0.3696866632,
				"z": -1.3594716289,
				"element": "H" 
			},
			{
				"x": -1.0519195623,
				"y": -0.3308896854,
				"z": 0.1483032382,
				"element": "H" 
			},
			{
				"x": 1.2173064321,
				"y": 3.3442871519,
				"z": 0.1812489798,
				"element": "H" 
			},
			{
				"x": 0.8641896234,
				"y": 2.5262708348,
				"z": -1.3320066454,
				"element": "H" 
			},
			{
				"x": -0.8132950671,
				"y": 4.4964701202,
				"z": 0.0609684596,
				"element": "H" 
			},
			{
				"x": -1.1623486135,
				"y": 3.7053346438,
				"z": -1.4732771132,
				"element": "H" 
			},
			{
				"x": -2.5352206651,
				"y": 2.0529653258,
				"z": 2.0803023926,
				"element": "H" 
			},
			{
				"x": -1.6024188888,
				"y": 3.5465996994,
				"z": 2.1036432709,
				"element": "H" 
			},
			{
				"x": -0.5614714192,
				"y": 0.8101844146,
				"z": 2.3583197888,
				"element": "H" 
			},
			{
				"x": 0.3554874756,
				"y": 2.3068881995,
				"z": 2.4120385044,
				"element": "H" 
			},
			{
				"x": 2.5207129343,
				"y": 2.2271981904,
				"z": 1.686169199,
				"element": "H" 
			},
			{
				"x": 4.6554391289,
				"y": 1.0532119174,
				"z": 1.9660350431,
				"element": "H" 
			},
			{
				"x": 4.9675402827,
				"y": -1.2338593266,
				"z": 1.0264012953,
				"element": "H" 
			},
			{
				"x": 3.088080254,
				"y": -2.3123286125,
				"z": -0.1992702022,
				"element": "H" 
			},
			{
				"x": 0.9543560594,
				"y": -1.1426806806,
				"z": -0.4810265298,
				"element": "H" 
			}
		],
		 "valence_orbital": [ 
			{
				"type": "occ",
				"energy": -0.30165,
				"method": "rhf"
			},
			{
				"type": "occ",
				"energy": -0.29287,
				"method": "rhf"
			},
			{
				"type": "occ",
				"energy": -0.24463,
				"method": "rhf"
			},
			{
				"type": "occ",
				"energy": -0.23602,
				"method": "rhf"
			},
			{
				"type": "occ",
				"energy": -0.20566,
				"method": "rhf"
			},
			{
				"type": "unocc",
				"energy": 0.00175,
				"method": "rhf"
			},
			{
				"type": "unocc",
				"energy": 0.00512,
				"method": "rhf"
			},
			{
				"type": "unocc",
				"energy": 0.06973,
				"method": "rhf"
			},
			{
				"type": "unocc",
				"energy": 0.09302,
				"method": "rhf"
			},
			{
				"type": "unocc",
				"energy": 0.10687,
				"method": "rhf"
			}
		],
		"cosmo_sigma_profile": { 
			"-0.025": 0.0,
			"-0.024": 0.0,
			"-0.023": 0.0,
			"-0.022": 0.0,
			"-0.021": 0.0,
			"-0.02": 0.0,
			"-0.019": 0.0,
			"-0.018": 0.0,
			"-0.017": 0.0,
			"-0.016": 0.0,
			"-0.015": 0.0,
			"-0.014": 0.0,
			"-0.013": 0.0,
			"-0.012": 0.0,
			"-0.011": 0.0,
			"-0.01": 0.0,
			"-0.009": 0.0,
			"-0.008": 0.0,
			"-0.007": 0.0,
			"-0.006": 0.743823161874,
			"-0.005": 8.39575512291,
			"-0.004": 13.893131623,
			"-0.003": 36.7086169249,
			"-0.002": 44.9551817832,
			"-0.001": 27.5737946812,
			"0.0": 24.7334727609,
			"0.001": 16.0580262139,
			"0.002": 9.8329107294,
			"0.003": 9.18094166183,
			"0.004": 8.83746159968,
			"0.005": 9.22020058812,
			"0.006": 9.71798044106,
			"0.007": 5.97068063744,
			"0.008": 1.12553060014,
			"0.009": 0.487337602732,
			"0.01": 0.452240514942,
			"0.011": 0.572596621909,
			"0.012": 0.982747527072,
			"0.013": 0.634109846826,
			"0.014": 0.538015448768,
			"0.015": 0.434124690507,
			"0.016": 0.603868702325,
			"0.017": 0.492936837554,
			"0.018": 0.414040759753,
			"0.019": 0.0,
			"0.02": 0.0,
			"0.021": 0.0,
			"0.022": 0.0,
			"0.023": 0.0,
			"0.024": 0.0,
			"0.025": 0.0
		}
	}
}
