{
	 "smiles": "OCCOC1=NC=C(C=C1)[N+]([O-])=O", 
	 "Tm": 386.15, 
	 "num_atms": 21, 
	 "gaussian": { 
		 "optdone": 1, 
		 "sigma_profile": "yes", 
		 "theory": "DFT", 
		 "functional": "B3LYP", 
		 "basiset": "6-31G**", 
		 "properties": { 
			 "R2extent": 3489.8622, 
			 "electric_dipole_moment_norm": 3.12623623707, 
			 "electric_quadrupole_moment_norm": 23.2546509714, 
			 "total_energy": -681.846095557, 
			 "HOMO_LUMO_gap": 0.16985, 
			 "cosmo_polarized_energy": -12.74, 
			 "cosmo_cavitation_energy": 26.39, 
			 "cosmo_dispersion_energy": -19.34, 
			 "cosmo_repulsion_energy": 1.55, 
			 "cosmo_total_nonelectrostatic_energy": 8.6, 
			 "SMD_solvation_energy": 6.53 
		},
		"coords": [
			{
				"x": -3.3566525226,
				"y": -1.5636897708,
				"z": 1.5714154874,
				"element": "O" 
			},
			{
				"x": -2.9293234669,
				"y": -0.306834094,
				"z": 1.0783068884,
				"element": "C" 
			},
			{
				"x": -2.2984340982,
				"y": -0.4152379357,
				"z": -0.3023802456,
				"element": "C" 
			},
			{
				"x": -1.1300733778,
				"y": -1.2742054193,
				"z": -0.2491120878,
				"element": "O" 
			},
			{
				"x": 0.0748122443,
				"y": -0.728564466,
				"z": -0.0057270301,
				"element": "C" 
			},
			{
				"x": 0.1795023341,
				"y": 0.5836537366,
				"z": 0.2061596431,
				"element": "N" 
			},
			{
				"x": 1.3972121266,
				"y": 1.0862187812,
				"z": 0.4334650707,
				"element": "C" 
			},
			{
				"x": 2.5356584394,
				"y": 0.287856398,
				"z": 0.460074745,
				"element": "C" 
			},
			{
				"x": 2.4280699658,
				"y": -1.0918521687,
				"z": 0.2405451874,
				"element": "C" 
			},
			{
				"x": 1.1741550523,
				"y": -1.6153333977,
				"z": 0.0016840275,
				"element": "C" 
			},
			{
				"x": 3.8400363224,
				"y": 0.8876398381,
				"z": 0.7175135944,
				"element": "N" 
			},
			{
				"x": 3.8828371045,
				"y": 2.104046952,
				"z": 0.905449798,
				"element": "O" 
			},
			{
				"x": 4.8172271955,
				"y": 0.1376275591,
				"z": 0.7301845077,
				"element": "O" 
			},
			{
				"x": -2.5848549169,
				"y": -2.1457248182,
				"z": 1.5685312457,
				"element": "H" 
			},
			{
				"x": -2.2248845868,
				"y": 0.1880670982,
				"z": 1.7633345035,
				"element": "H" 
			},
			{
				"x": -3.8217450765,
				"y": 0.3245234363,
				"z": 1.0079424431,
				"element": "H" 
			},
			{
				"x": -2.975404436,
				"y": -0.9277203693,
				"z": -0.989461404,
				"element": "H" 
			},
			{
				"x": -2.0225564966,
				"y": 0.564827177,
				"z": -0.6956958042,
				"element": "H" 
			},
			{
				"x": 1.477588422,
				"y": 2.1548192525,
				"z": 0.6036026368,
				"element": "H" 
			},
			{
				"x": 3.3183423227,
				"y": -1.7086009136,
				"z": 0.2601509442,
				"element": "H" 
			},
			{
				"x": 1.0133874488,
				"y": -2.6709168756,
				"z": -0.1825841512,
				"element": "H" 
			}
		],
		 "valence_orbital": [ 
			{
				"type": "occ",
				"energy": -0.31215,
				"method": "rhf"
			},
			{
				"type": "occ",
				"energy": -0.29696,
				"method": "rhf"
			},
			{
				"type": "occ",
				"energy": -0.29474,
				"method": "rhf"
			},
			{
				"type": "occ",
				"energy": -0.28205,
				"method": "rhf"
			},
			{
				"type": "occ",
				"energy": -0.2631,
				"method": "rhf"
			},
			{
				"type": "unocc",
				"energy": -0.09325,
				"method": "rhf"
			},
			{
				"type": "unocc",
				"energy": -0.05346,
				"method": "rhf"
			},
			{
				"type": "unocc",
				"energy": -0.00315,
				"method": "rhf"
			},
			{
				"type": "unocc",
				"energy": 0.07647,
				"method": "rhf"
			},
			{
				"type": "unocc",
				"energy": 0.08252,
				"method": "rhf"
			}
		],
		"cosmo_sigma_profile": { 
			"-0.025": 0.0,
			"-0.024": 0.0,
			"-0.023": 0.0,
			"-0.022": 0.0,
			"-0.021": 0.0,
			"-0.02": 0.0,
			"-0.019": 0.0,
			"-0.018": 0.0,
			"-0.017": 0.0,
			"-0.016": 0.0,
			"-0.015": 0.0053047605151,
			"-0.014": 0.561800673356,
			"-0.013": 0.750281802307,
			"-0.012": 0.755542156234,
			"-0.011": 0.582219309446,
			"-0.01": 1.08372723284,
			"-0.009": 1.73294910345,
			"-0.008": 5.26684692466,
			"-0.007": 6.4113261687,
			"-0.006": 13.6416581778,
			"-0.005": 13.7611384508,
			"-0.004": 16.6260759223,
			"-0.003": 18.7186507876,
			"-0.002": 22.3759290084,
			"-0.001": 15.7978549094,
			"0.0": 13.7932896866,
			"0.001": 8.76335660006,
			"0.002": 6.70958198786,
			"0.003": 6.19544341846,
			"0.004": 5.16852646097,
			"0.005": 6.1066740603,
			"0.006": 6.90910133933,
			"0.007": 10.1406474467,
			"0.008": 10.4847824551,
			"0.009": 6.49949465341,
			"0.01": 4.1599876338,
			"0.011": 1.49800689599,
			"0.012": 1.45003649962,
			"0.013": 2.11039798326,
			"0.014": 2.0776200625,
			"0.015": 0.149818485203,
			"0.016": 0.0,
			"0.017": 0.0,
			"0.018": 0.0,
			"0.019": 0.0,
			"0.02": 0.0,
			"0.021": 0.0,
			"0.022": 0.0,
			"0.023": 0.0,
			"0.024": 0.0,
			"0.025": 0.0
		}
	}
}
