{
	 "smiles": "CC1CN(CC(C)O1)S(=O)(=O)C1=CC=C(N)C=C1", 
	 "Tm": 474.15, 
	 "num_atms": 36, 
	 "gaussian": { 
		 "optdone": 1, 
		 "sigma_profile": "yes", 
		 "theory": "DFT", 
		 "functional": "B3LYP", 
		 "basiset": "6-31G**", 
		 "properties": { 
			 "R2extent": 6009.6187, 
			 "electric_dipole_moment_norm": 6.03723427241, 
			 "electric_quadrupole_moment_norm": 30.0813680781, 
			 "total_energy": -1201.41325495, 
			 "HOMO_LUMO_gap": 0.19833, 
			 "cosmo_polarized_energy": -20.19, 
			 "cosmo_cavitation_energy": 38.55, 
			 "cosmo_dispersion_energy": -27.45, 
			 "cosmo_repulsion_energy": 2.09, 
			 "cosmo_total_nonelectrostatic_energy": 13.19, 
			 "SMD_solvation_energy": 4.91 
		},
		"coords": [
			{
				"x": -4.2082963672,
				"y": 1.7139210066,
				"z": -0.3075369456,
				"element": "C" 
			},
			{
				"x": -2.8680355404,
				"y": 1.4096371521,
				"z": 0.3483626122,
				"element": "C" 
			},
			{
				"x": -2.2602271143,
				"y": 0.1082436189,
				"z": -0.1772182947,
				"element": "C" 
			},
			{
				"x": -0.954965663,
				"y": -0.0939865083,
				"z": 0.4851017182,
				"element": "N" 
			},
			{
				"x": -0.7678064087,
				"y": 0.5740056094,
				"z": 1.7838465517,
				"element": "C" 
			},
			{
				"x": -2.0845944937,
				"y": 0.7237344839,
				"z": 2.5592566799,
				"element": "C" 
			},
			{
				"x": -2.6103228758,
				"y": -0.5902461604,
				"z": 3.135707162,
				"element": "C" 
			},
			{
				"x": -3.106426166,
				"y": 1.3372450681,
				"z": 1.7533701296,
				"element": "O" 
			},
			{
				"x": -0.1850868094,
				"y": -1.5706872279,
				"z": 0.2265631094,
				"element": "S" 
			},
			{
				"x": -0.7156976136,
				"y": -2.052246058,
				"z": -1.0543128361,
				"element": "O" 
			},
			{
				"x": -0.2544071593,
				"y": -2.4199830348,
				"z": 1.426978741,
				"element": "O" 
			},
			{
				"x": 1.5227730509,
				"y": -1.0942528104,
				"z": 0.0314843364,
				"element": "C" 
			},
			{
				"x": 1.9067465857,
				"y": -0.309158396,
				"z": -1.0620149664,
				"element": "C" 
			},
			{
				"x": 3.2403205287,
				"y": 0.0273205622,
				"z": -1.2374195598,
				"element": "C" 
			},
			{
				"x": 4.2200830754,
				"y": -0.4195621958,
				"z": -0.3256245708,
				"element": "C" 
			},
			{
				"x": 5.543998297,
				"y": -0.0410204043,
				"z": -0.4755835691,
				"element": "N" 
			},
			{
				"x": 3.8179393719,
				"y": -1.2146407486,
				"z": 0.7641623144,
				"element": "C" 
			},
			{
				"x": 2.4807980321,
				"y": -1.5516678059,
				"z": 0.9392418993,
				"element": "C" 
			},
			{
				"x": -4.0882825657,
				"y": 1.8715638845,
				"z": -1.3838487929,
				"element": "H" 
			},
			{
				"x": -4.9094981324,
				"y": 0.8895519484,
				"z": -0.1461283829,
				"element": "H" 
			},
			{
				"x": -4.6378653184,
				"y": 2.617964986,
				"z": 0.1318133431,
				"element": "H" 
			},
			{
				"x": -2.1674158993,
				"y": 2.233305647,
				"z": 0.1290862542,
				"element": "H" 
			},
			{
				"x": -2.1119879624,
				"y": 0.1627995161,
				"z": -1.2589502973,
				"element": "H" 
			},
			{
				"x": -2.960682479,
				"y": -0.7129258769,
				"z": 0.0236989879,
				"element": "H" 
			},
			{
				"x": -0.0616078674,
				"y": 0.0005601433,
				"z": 2.3885557422,
				"element": "H" 
			},
			{
				"x": -0.3265771547,
				"y": 1.5639274656,
				"z": 1.6141537109,
				"element": "H" 
			},
			{
				"x": -1.8908113861,
				"y": 1.4192431832,
				"z": 3.3886620083,
				"element": "H" 
			},
			{
				"x": -3.5952555204,
				"y": -0.4238221155,
				"z": 3.5805778762,
				"element": "H" 
			},
			{
				"x": -1.9353419522,
				"y": -0.9679008395,
				"z": 3.9108895066,
				"element": "H" 
			},
			{
				"x": -2.6974519819,
				"y": -1.3635782569,
				"z": 2.3687080881,
				"element": "H" 
			},
			{
				"x": 1.1619976824,
				"y": 0.0298498027,
				"z": -1.774432083,
				"element": "H" 
			},
			{
				"x": 3.5378030417,
				"y": 0.6396902901,
				"z": -2.0846218825,
				"element": "H" 
			},
			{
				"x": 5.83024817,
				"y": 0.2469384791,
				"z": -1.3998673191,
				"element": "H" 
			},
			{
				"x": 6.232455564,
				"y": -0.6090423616,
				"z": -0.0037922662,
				"element": "H" 
			},
			{
				"x": 4.5619887679,
				"y": -1.5686813621,
				"z": 1.4728428238,
				"element": "H" 
			},
			{
				"x": 2.1697922637,
				"y": -2.1752006842,
				"z": 1.770188171,
				"element": "H" 
			}
		],
		 "valence_orbital": [ 
			{
				"type": "occ",
				"energy": -0.28717,
				"method": "rhf"
			},
			{
				"type": "occ",
				"energy": -0.2659,
				"method": "rhf"
			},
			{
				"type": "occ",
				"energy": -0.24816,
				"method": "rhf"
			},
			{
				"type": "occ",
				"energy": -0.24125,
				"method": "rhf"
			},
			{
				"type": "occ",
				"energy": -0.21836,
				"method": "rhf"
			},
			{
				"type": "unocc",
				"energy": -0.02003,
				"method": "rhf"
			},
			{
				"type": "unocc",
				"energy": -0.01403,
				"method": "rhf"
			},
			{
				"type": "unocc",
				"energy": 0.06022,
				"method": "rhf"
			},
			{
				"type": "unocc",
				"energy": 0.06969,
				"method": "rhf"
			},
			{
				"type": "unocc",
				"energy": 0.08603,
				"method": "rhf"
			}
		],
		"cosmo_sigma_profile": { 
			"-0.025": 0.0,
			"-0.024": 0.0,
			"-0.023": 0.0,
			"-0.022": 0.0,
			"-0.021": 0.0,
			"-0.02": 0.0,
			"-0.019": 0.0,
			"-0.018": 0.0,
			"-0.017": 0.0,
			"-0.016": 0.0,
			"-0.015": 0.0,
			"-0.014": 0.252038224137,
			"-0.013": 2.76219171115,
			"-0.012": 2.7221509541,
			"-0.011": 2.82999561038,
			"-0.01": 3.55766694616,
			"-0.009": 3.39119929584,
			"-0.008": 2.95669134977,
			"-0.007": 5.03410956122,
			"-0.006": 9.04245632901,
			"-0.005": 21.3351693512,
			"-0.004": 32.9180183727,
			"-0.003": 25.1230702672,
			"-0.002": 23.6752727271,
			"-0.001": 20.9738055952,
			"0.0": 22.9363931006,
			"0.001": 18.6945536911,
			"0.002": 13.4756091113,
			"0.003": 15.6482218557,
			"0.004": 18.8776895642,
			"0.005": 8.15729382291,
			"0.006": 5.36292492151,
			"0.007": 5.24610434412,
			"0.008": 5.22327718855,
			"0.009": 5.59215449803,
			"0.01": 6.88965228908,
			"0.011": 9.07349201619,
			"0.012": 7.87820148615,
			"0.013": 2.32968772034,
			"0.014": 0.0921737252881,
			"0.015": 0.0,
			"0.016": 0.0,
			"0.017": 0.0,
			"0.018": 0.0,
			"0.019": 0.0,
			"0.02": 0.0,
			"0.021": 0.0,
			"0.022": 0.0,
			"0.023": 0.0,
			"0.024": 0.0,
			"0.025": 0.0
		}
	}
}
