{
	 "smiles": "C1=CC=C2C(=C1)C1=CC=CC=C1C1=CC=CC=C21", 
	 "Tm": 471.15, 
	 "num_atms": 30, 
	 "gaussian": { 
		 "optdone": 1, 
		 "sigma_profile": "yes", 
		 "theory": "DFT", 
		 "functional": "B3LYP", 
		 "basiset": "6-31G**", 
		 "properties": { 
			 "R2extent": 4780.1016, 
			 "electric_dipole_moment_norm": 0.000141421356237, 
			 "electric_quadrupole_moment_norm": 15.1549452226, 
			 "total_energy": -693.185178676, 
			 "HOMO_LUMO_gap": 0.18048, 
			 "cosmo_polarized_energy": -7.3, 
			 "cosmo_cavitation_energy": 31.97, 
			 "cosmo_dispersion_energy": -24.39, 
			 "cosmo_repulsion_energy": 1.77, 
			 "cosmo_total_nonelectrostatic_energy": 9.35, 
			 "SMD_solvation_energy": 4.58 
		},
		"coords": [
			{
				"x": -1.1982434353,
				"y": -3.1572790351,
				"z": 2.0149525533,
				"element": "C" 
			},
			{
				"x": -0.8955880614,
				"y": -4.0943657101,
				"z": 1.0184293363,
				"element": "C" 
			},
			{
				"x": -0.497970383,
				"y": -3.657283709,
				"z": -0.2325297807,
				"element": "C" 
			},
			{
				"x": -0.385148524,
				"y": -2.2835371851,
				"z": -0.5438805084,
				"element": "C" 
			},
			{
				"x": -0.6922877334,
				"y": -1.3326301638,
				"z": 0.4673353592,
				"element": "C" 
			},
			{
				"x": -1.0958840796,
				"y": -1.8060500613,
				"z": 1.7361151765,
				"element": "C" 
			},
			{
				"x": -0.5867209735,
				"y": 0.1024914496,
				"z": 0.1812215559,
				"element": "C" 
			},
			{
				"x": -0.8838539903,
				"y": 1.0758737589,
				"z": 1.1615631602,
				"element": "C" 
			},
			{
				"x": -0.7871050586,
				"y": 2.4311217359,
				"z": 0.900813166,
				"element": "C" 
			},
			{
				"x": -0.3836652144,
				"y": 2.8644287658,
				"z": -0.3689371207,
				"element": "C" 
			},
			{
				"x": -0.0868495408,
				"y": 1.9318837818,
				"z": -1.3468428845,
				"element": "C" 
			},
			{
				"x": -0.1773250961,
				"y": 0.5421913476,
				"z": -1.1072542832,
				"element": "C" 
			},
			{
				"x": 0.1396064734,
				"y": -0.4391407491,
				"z": -2.1508460818,
				"element": "C" 
			},
			{
				"x": 0.5495410456,
				"y": -0.0387936618,
				"z": -3.4425420797,
				"element": "C" 
			},
			{
				"x": 0.8504549831,
				"y": -0.9569477823,
				"z": -4.432739699,
				"element": "C" 
			},
			{
				"x": 0.7497732784,
				"y": -2.3273433693,
				"z": -4.1594845617,
				"element": "C" 
			},
			{
				"x": 0.3506138773,
				"y": -2.7460130379,
				"z": -2.9027309343,
				"element": "C" 
			},
			{
				"x": 0.0373882187,
				"y": -1.8297571013,
				"z": -1.8735741023,
				"element": "C" 
			},
			{
				"x": -1.5117034277,
				"y": -3.4848921209,
				"z": 3.0018073645,
				"element": "H" 
			},
			{
				"x": -0.9712114181,
				"y": -5.1584509478,
				"z": 1.2220832749,
				"element": "H" 
			},
			{
				"x": -0.269706282,
				"y": -4.4016612271,
				"z": -0.9854927856,
				"element": "H" 
			},
			{
				"x": -1.335396661,
				"y": -1.1019376702,
				"z": 2.5235150636,
				"element": "H" 
			},
			{
				"x": -1.1978903456,
				"y": 0.7667350932,
				"z": 2.1509866098,
				"element": "H" 
			},
			{
				"x": -1.0234659254,
				"y": 3.1510400123,
				"z": 1.6788366478,
				"element": "H" 
			},
			{
				"x": -0.3029600684,
				"y": 3.9248987102,
				"z": -0.5888431473,
				"element": "H" 
			},
			{
				"x": 0.2226956935,
				"y": 2.2925401702,
				"z": -2.3201142115,
				"element": "H" 
			},
			{
				"x": 0.6352781814,
				"y": 1.0147133077,
				"z": -3.6790132056,
				"element": "H" 
			},
			{
				"x": 1.1624069842,
				"y": -0.6127665492,
				"z": -5.4144194577,
				"element": "H" 
			},
			{
				"x": 0.9826055359,
				"y": -3.0602089067,
				"z": -4.9264038761,
				"element": "H" 
			},
			{
				"x": 0.2807119473,
				"y": -3.8107591451,
				"z": -2.7168105481,
				"element": "H" 
			}
		],
		 "valence_orbital": [ 
			{
				"type": "occ",
				"energy": -0.27792,
				"method": "rhf"
			},
			{
				"type": "occ",
				"energy": -0.27792,
				"method": "rhf"
			},
			{
				"type": "occ",
				"energy": -0.2347,
				"method": "rhf"
			},
			{
				"type": "occ",
				"energy": -0.21526,
				"method": "rhf"
			},
			{
				"type": "occ",
				"energy": -0.21526,
				"method": "rhf"
			},
			{
				"type": "unocc",
				"energy": -0.03478,
				"method": "rhf"
			},
			{
				"type": "unocc",
				"energy": -0.03477,
				"method": "rhf"
			},
			{
				"type": "unocc",
				"energy": -0.0258,
				"method": "rhf"
			},
			{
				"type": "unocc",
				"energy": 0.03201,
				"method": "rhf"
			},
			{
				"type": "unocc",
				"energy": 0.03201,
				"method": "rhf"
			}
		],
		"cosmo_sigma_profile": { 
			"-0.025": 0.0,
			"-0.024": 0.0,
			"-0.023": 0.0,
			"-0.022": 0.0,
			"-0.021": 0.0,
			"-0.02": 0.0,
			"-0.019": 0.0,
			"-0.018": 0.0,
			"-0.017": 0.0,
			"-0.016": 0.0,
			"-0.015": 0.0,
			"-0.014": 0.0,
			"-0.013": 0.0,
			"-0.012": 0.0,
			"-0.011": 0.0,
			"-0.01": 0.0,
			"-0.009": 0.517526259082,
			"-0.008": 4.1988742818,
			"-0.007": 4.94102688599,
			"-0.006": 13.9804567121,
			"-0.005": 19.7535725865,
			"-0.004": 24.0205891561,
			"-0.003": 17.4049935547,
			"-0.002": 15.0453137613,
			"-0.001": 13.7117882423,
			"0.0": 13.7199811535,
			"0.001": 15.5630883204,
			"0.002": 21.7493106807,
			"0.003": 29.8596043329,
			"0.004": 30.0680117341,
			"0.005": 28.9364907347,
			"0.006": 5.14025679297,
			"0.007": 0.0,
			"0.008": 0.0,
			"0.009": 0.0,
			"0.01": 0.0,
			"0.011": 0.0,
			"0.012": 0.0,
			"0.013": 0.0,
			"0.014": 0.0,
			"0.015": 0.0,
			"0.016": 0.0,
			"0.017": 0.0,
			"0.018": 0.0,
			"0.019": 0.0,
			"0.02": 0.0,
			"0.021": 0.0,
			"0.022": 0.0,
			"0.023": 0.0,
			"0.024": 0.0,
			"0.025": 0.0
		}
	}
}
