{
	 "smiles": "[O-][N+](=O)C1=CC=CC(=C1)C1=NN=C2SCNN12", 
	 "Tm": 473.15, 
	 "num_atms": 24, 
	 "gaussian": { 
		 "optdone": 1, 
		 "sigma_profile": "yes", 
		 "theory": "DFT", 
		 "functional": "B3LYP", 
		 "basiset": "6-31G**", 
		 "properties": { 
			 "R2extent": 5144.5914, 
			 "electric_dipole_moment_norm": 2.26064631909, 
			 "electric_quadrupole_moment_norm": 43.3206826274, 
			 "total_energy": -1169.39509598, 
			 "HOMO_LUMO_gap": 0.14122, 
			 "cosmo_polarized_energy": -21.61, 
			 "cosmo_cavitation_energy": 31.14, 
			 "cosmo_dispersion_energy": -23.4, 
			 "cosmo_repulsion_energy": 1.73, 
			 "cosmo_total_nonelectrostatic_energy": 9.47, 
			 "SMD_solvation_energy": 4.74 
		},
		"coords": [
			{
				"x": 0.1910303902,
				"y": -0.723808464,
				"z": 3.7988408747,
				"element": "O" 
			},
			{
				"x": 0.8112641632,
				"y": 0.3341487045,
				"z": 3.6938019561,
				"element": "N" 
			},
			{
				"x": 1.3377532868,
				"y": 0.9337726745,
				"z": 4.629707433,
				"element": "O" 
			},
			{
				"x": 0.9297849234,
				"y": 0.9272864084,
				"z": 2.3497788505,
				"element": "C" 
			},
			{
				"x": 1.6056650181,
				"y": 2.1358392936,
				"z": 2.2052707224,
				"element": "C" 
			},
			{
				"x": 1.7066867705,
				"y": 2.6837529276,
				"z": 0.9257582235,
				"element": "C" 
			},
			{
				"x": 1.1423133309,
				"y": 2.034851515,
				"z": -0.1687008199,
				"element": "C" 
			},
			{
				"x": 0.4615668948,
				"y": 0.8133098279,
				"z": -0.0037033739,
				"element": "C" 
			},
			{
				"x": 0.356808322,
				"y": 0.2527821275,
				"z": 1.2752480547,
				"element": "C" 
			},
			{
				"x": -0.1074888648,
				"y": 0.1680033762,
				"z": -1.1877762037,
				"element": "C" 
			},
			{
				"x": 0.0366057409,
				"y": 0.5991391704,
				"z": -2.4301506053,
				"element": "N" 
			},
			{
				"x": -0.6101768468,
				"y": -0.2659449519,
				"z": -3.2978514313,
				"element": "N" 
			},
			{
				"x": -1.1493325426,
				"y": -1.1931680607,
				"z": -2.5496096382,
				"element": "C" 
			},
			{
				"x": -2.1162337467,
				"y": -2.6471043471,
				"z": -2.7887047585,
				"element": "S" 
			},
			{
				"x": -1.6143123829,
				"y": -3.1058813289,
				"z": -1.0238549054,
				"element": "C" 
			},
			{
				"x": -1.4206700918,
				"y": -1.8668681079,
				"z": -0.2768927279,
				"element": "N" 
			},
			{
				"x": -0.8680396742,
				"y": -0.9791981694,
				"z": -1.2244080602,
				"element": "N" 
			},
			{
				"x": 2.0317469462,
				"y": 2.6184462507,
				"z": 3.0755627563,
				"element": "H" 
			},
			{
				"x": 2.2285138686,
				"y": 3.6245921904,
				"z": 0.7836481282,
				"element": "H" 
			},
			{
				"x": 1.2173276279,
				"y": 2.4537412462,
				"z": -1.1661139241,
				"element": "H" 
			},
			{
				"x": -0.1458284998,
				"y": -0.6902193206,
				"z": 1.4469697626,
				"element": "H" 
			},
			{
				"x": -0.6714953841,
				"y": -3.6521815544,
				"z": -1.0780887479,
				"element": "H" 
			},
			{
				"x": -2.3879034695,
				"y": -3.7153086072,
				"z": -0.558212633,
				"element": "H" 
			},
			{
				"x": -2.3308857803,
				"y": -1.4844828008,
				"z": -0.0078189328,
				"element": "H" 
			}
		],
		 "valence_orbital": [ 
			{
				"type": "occ",
				"energy": -0.29457,
				"method": "rhf"
			},
			{
				"type": "occ",
				"energy": -0.28808,
				"method": "rhf"
			},
			{
				"type": "occ",
				"energy": -0.28215,
				"method": "rhf"
			},
			{
				"type": "occ",
				"energy": -0.26802,
				"method": "rhf"
			},
			{
				"type": "occ",
				"energy": -0.23603,
				"method": "rhf"
			},
			{
				"type": "unocc",
				"energy": -0.09481,
				"method": "rhf"
			},
			{
				"type": "unocc",
				"energy": -0.05815,
				"method": "rhf"
			},
			{
				"type": "unocc",
				"energy": -0.02496,
				"method": "rhf"
			},
			{
				"type": "unocc",
				"energy": -0.01132,
				"method": "rhf"
			},
			{
				"type": "unocc",
				"energy": 0.01443,
				"method": "rhf"
			}
		],
		"cosmo_sigma_profile": { 
			"-0.025": 0.0,
			"-0.024": 0.0,
			"-0.023": 0.0,
			"-0.022": 0.0,
			"-0.021": 0.0,
			"-0.02": 0.0,
			"-0.019": 0.0,
			"-0.018": 0.0,
			"-0.017": 0.0,
			"-0.016": 0.213979139748,
			"-0.015": 2.22194876271,
			"-0.014": 1.94393157689,
			"-0.013": 2.02065184254,
			"-0.012": 1.95365188999,
			"-0.011": 1.93248636689,
			"-0.01": 4.14778162152,
			"-0.009": 4.2711831594,
			"-0.008": 8.42709783129,
			"-0.007": 11.8229799236,
			"-0.006": 13.1301963452,
			"-0.005": 9.7515677219,
			"-0.004": 11.7366994625,
			"-0.003": 12.4392785497,
			"-0.002": 15.7909791182,
			"-0.001": 17.8114397676,
			"0.0": 23.6013868272,
			"0.001": 21.2844096128,
			"0.002": 11.3420112742,
			"0.003": 8.58529328467,
			"0.004": 9.15816653038,
			"0.005": 6.83056920499,
			"0.006": 9.3381065661,
			"0.007": 10.5923699094,
			"0.008": 8.68075959381,
			"0.009": 5.75163296045,
			"0.01": 4.82144789372,
			"0.011": 2.67210092412,
			"0.012": 2.62730844499,
			"0.013": 3.32394980716,
			"0.014": 2.97772013057,
			"0.015": 1.64965996054,
			"0.016": 0.759408641232,
			"0.017": 0.0,
			"0.018": 0.0,
			"0.019": 0.0,
			"0.02": 0.0,
			"0.021": 0.0,
			"0.022": 0.0,
			"0.023": 0.0,
			"0.024": 0.0,
			"0.025": 0.0
		}
	}
}
