{
	 "smiles": "NC1=CC=C(C=C1)C(=O)NC1=CN=CC=C1", 
	 "Tm": 486.15, 
	 "num_atms": 27, 
	 "gaussian": { 
		 "optdone": 1, 
		 "sigma_profile": "yes", 
		 "theory": "DFT", 
		 "functional": "B3LYP", 
		 "basiset": "6-31G**", 
		 "properties": { 
			 "R2extent": 5413.6262, 
			 "electric_dipole_moment_norm": 7.20946449398, 
			 "electric_quadrupole_moment_norm": 19.796958137, 
			 "total_energy": -703.401949914, 
			 "HOMO_LUMO_gap": 0.17726, 
			 "cosmo_polarized_energy": -21.71, 
			 "cosmo_cavitation_energy": 31.68, 
			 "cosmo_dispersion_energy": -23.53, 
			 "cosmo_repulsion_energy": 1.8, 
			 "cosmo_total_nonelectrostatic_energy": 9.95, 
			 "SMD_solvation_energy": 4.38 
		},
		"coords": [
			{
				"x": -4.8595405287,
				"y": 1.3873924299,
				"z": -1.0604675758,
				"element": "N" 
			},
			{
				"x": -3.5101637273,
				"y": 1.0855901873,
				"z": -0.9631188503,
				"element": "C" 
			},
			{
				"x": -2.5413066,
				"y": 2.108826397,
				"z": -0.954976106,
				"element": "C" 
			},
			{
				"x": -1.1970284351,
				"y": 1.8057945038,
				"z": -0.8078841382,
				"element": "C" 
			},
			{
				"x": -0.7617073413,
				"y": 0.4805601489,
				"z": -0.6465050739,
				"element": "C" 
			},
			{
				"x": -1.7276140297,
				"y": -0.5380900759,
				"z": -0.6702494689,
				"element": "C" 
			},
			{
				"x": -3.0772097815,
				"y": -0.2468207134,
				"z": -0.8259357077,
				"element": "C" 
			},
			{
				"x": 0.7082420775,
				"y": 0.2549206535,
				"z": -0.5008896123,
				"element": "C" 
			},
			{
				"x": 1.5311648915,
				"y": 1.0937667297,
				"z": -0.8529138375,
				"element": "O" 
			},
			{
				"x": 1.0649056867,
				"y": -0.9553029891,
				"z": 0.0723981727,
				"element": "N" 
			},
			{
				"x": 2.3513399134,
				"y": -1.4652135045,
				"z": 0.3163036628,
				"element": "C" 
			},
			{
				"x": 3.5450929437,
				"y": -0.840762801,
				"z": -0.0993357406,
				"element": "C" 
			},
			{
				"x": 4.7531930387,
				"y": -1.3637090301,
				"z": 0.1358511324,
				"element": "N" 
			},
			{
				"x": 4.8363983361,
				"y": -2.5244221679,
				"z": 0.794189244,
				"element": "C" 
			},
			{
				"x": 3.7153333873,
				"y": -3.2192965803,
				"z": 1.2494601681,
				"element": "C" 
			},
			{
				"x": 2.4574139551,
				"y": -2.6819441796,
				"z": 1.0052707895,
				"element": "C" 
			},
			{
				"x": -5.4672094564,
				"y": 0.6435173606,
				"z": -1.3715078223,
				"element": "H" 
			},
			{
				"x": -5.0913899302,
				"y": 2.2840849048,
				"z": -1.4625622502,
				"element": "H" 
			},
			{
				"x": -2.8563724464,
				"y": 3.1434663052,
				"z": -1.0649875513,
				"element": "H" 
			},
			{
				"x": -0.4491003951,
				"y": 2.5914482455,
				"z": -0.8168744629,
				"element": "H" 
			},
			{
				"x": -1.4345992228,
				"y": -1.583377259,
				"z": -0.6120814928,
				"element": "H" 
			},
			{
				"x": -3.8062274999,
				"y": -1.0526804278,
				"z": -0.8513966711,
				"element": "H" 
			},
			{
				"x": 0.3104936442,
				"y": -1.500760799,
				"z": 0.4624408744,
				"element": "H" 
			},
			{
				"x": 3.5023465711,
				"y": 0.1035466717,
				"z": -0.6259812969,
				"element": "H" 
			},
			{
				"x": 5.8379483216,
				"y": -2.9145576115,
				"z": 0.9647691881,
				"element": "H" 
			},
			{
				"x": 3.8237022764,
				"y": -4.1593889393,
				"z": 1.7815420564,
				"element": "H" 
			},
			{
				"x": 1.5607943513,
				"y": -3.1974874593,
				"z": 1.3438423704,
				"element": "H" 
			}
		],
		 "valence_orbital": [ 
			{
				"type": "occ",
				"energy": -0.26237,
				"method": "rhf"
			},
			{
				"type": "occ",
				"energy": -0.25574,
				"method": "rhf"
			},
			{
				"type": "occ",
				"energy": -0.24085,
				"method": "rhf"
			},
			{
				"type": "occ",
				"energy": -0.22664,
				"method": "rhf"
			},
			{
				"type": "occ",
				"energy": -0.21345,
				"method": "rhf"
			},
			{
				"type": "unocc",
				"energy": -0.03619,
				"method": "rhf"
			},
			{
				"type": "unocc",
				"energy": -0.01542,
				"method": "rhf"
			},
			{
				"type": "unocc",
				"energy": -0.01151,
				"method": "rhf"
			},
			{
				"type": "unocc",
				"energy": 0.0084,
				"method": "rhf"
			},
			{
				"type": "unocc",
				"energy": 0.06258,
				"method": "rhf"
			}
		],
		"cosmo_sigma_profile": { 
			"-0.025": 0.0,
			"-0.024": 0.0,
			"-0.023": 0.0,
			"-0.022": 0.0,
			"-0.021": 0.0,
			"-0.02": 0.0,
			"-0.019": 0.0,
			"-0.018": 0.0,
			"-0.017": 0.0,
			"-0.016": 0.0552383983577,
			"-0.015": 1.04361740384,
			"-0.014": 1.49586809832,
			"-0.013": 3.50211809023,
			"-0.012": 4.21768122693,
			"-0.011": 4.04659626671,
			"-0.01": 4.95330327384,
			"-0.009": 4.69852697411,
			"-0.008": 4.94674076644,
			"-0.007": 8.170341172,
			"-0.006": 13.4312717142,
			"-0.005": 13.4803751386,
			"-0.004": 11.8543066476,
			"-0.003": 12.313009632,
			"-0.002": 11.208574372,
			"-0.001": 11.3504476477,
			"0.0": 13.6872876547,
			"0.001": 19.069676415,
			"0.002": 22.8238140159,
			"0.003": 19.1386704093,
			"0.004": 14.6564164665,
			"0.005": 16.8168098555,
			"0.006": 6.34411111492,
			"0.007": 4.44518480102,
			"0.008": 3.31087309882,
			"0.009": 4.11246286783,
			"0.01": 3.03904666408,
			"0.011": 3.92117101242,
			"0.012": 4.00463049042,
			"0.013": 4.14311430541,
			"0.014": 1.23161476259,
			"0.015": 1.15862367589,
			"0.016": 0.715098318351,
			"0.017": 0.534960213557,
			"0.018": 0.0,
			"0.019": 0.0,
			"0.02": 0.0,
			"0.021": 0.0,
			"0.022": 0.0,
			"0.023": 0.0,
			"0.024": 0.0,
			"0.025": 0.0
		}
	}
}
