{
	 "smiles": "NC1=NC2=C(S1)C=CC(=N)N2", 
	 "Tm": 467.15, 
	 "num_atms": 17, 
	 "gaussian": { 
		 "optdone": 1, 
		 "sigma_profile": "yes", 
		 "theory": "DFT", 
		 "functional": "B3LYP", 
		 "basiset": "6-31G**", 
		 "properties": { 
			 "R2extent": 2370.4181, 
			 "electric_dipole_moment_norm": 5.76381042107, 
			 "electric_quadrupole_moment_norm": 12.5249405555, 
			 "total_energy": -849.438807872, 
			 "HOMO_LUMO_gap": 0.14458, 
			 "cosmo_polarized_energy": -19.45, 
			 "cosmo_cavitation_energy": 23.11, 
			 "cosmo_dispersion_energy": -18.15, 
			 "cosmo_repulsion_energy": 1.41, 
			 "cosmo_total_nonelectrostatic_energy": 6.36, 
			 "SMD_solvation_energy": 0.74 
		},
		"coords": [
			{
				"x": 0.7180233878,
				"y": 1.3975561554,
				"z": 3.1914697994,
				"element": "N" 
			},
			{
				"x": 0.2907490593,
				"y": 1.1431563088,
				"z": 1.9180343558,
				"element": "C" 
			},
			{
				"x": -0.7701095683,
				"y": 1.7008040749,
				"z": 1.3926056101,
				"element": "N" 
			},
			{
				"x": -0.8949634527,
				"y": 1.2990617749,
				"z": 0.0898182653,
				"element": "C" 
			},
			{
				"x": 0.0473517003,
				"y": 0.4255693559,
				"z": -0.4190611197,
				"element": "C" 
			},
			{
				"x": 1.2208728514,
				"y": 0.0788963011,
				"z": 0.8467396267,
				"element": "S" 
			},
			{
				"x": -0.0581053284,
				"y": -0.0288833468,
				"z": -1.7644759468,
				"element": "C" 
			},
			{
				"x": -1.0927123174,
				"y": 0.4136174968,
				"z": -2.5334354798,
				"element": "C" 
			},
			{
				"x": -2.1108288893,
				"y": 1.3384267883,
				"z": -2.0437252013,
				"element": "C" 
			},
			{
				"x": -3.075371459,
				"y": 1.7356979317,
				"z": -2.8025236044,
				"element": "N" 
			},
			{
				"x": -1.9277011882,
				"y": 1.7320015827,
				"z": -0.6983767254,
				"element": "N" 
			},
			{
				"x": 1.2878583285,
				"y": 0.7043885106,
				"z": 3.6523228382,
				"element": "H" 
			},
			{
				"x": 0.0344143612,
				"y": 1.8561519388,
				"z": 3.7779887976,
				"element": "H" 
			},
			{
				"x": 0.6744884707,
				"y": -0.7169352203,
				"z": -2.1752124775,
				"element": "H" 
			},
			{
				"x": -1.2130359918,
				"y": 0.0970870293,
				"z": -3.5619523941,
				"element": "H" 
			},
			{
				"x": -3.700222361,
				"y": 2.3786756589,
				"z": -2.3097851585,
				"element": "H" 
			},
			{
				"x": -2.591707603,
				"y": 2.3715276588,
				"z": -0.2828311856,
				"element": "H" 
			}
		],
		 "valence_orbital": [ 
			{
				"type": "occ",
				"energy": -0.29658,
				"method": "rhf"
			},
			{
				"type": "occ",
				"energy": -0.26819,
				"method": "rhf"
			},
			{
				"type": "occ",
				"energy": -0.25658,
				"method": "rhf"
			},
			{
				"type": "occ",
				"energy": -0.24807,
				"method": "rhf"
			},
			{
				"type": "occ",
				"energy": -0.17823,
				"method": "rhf"
			},
			{
				"type": "unocc",
				"energy": -0.03365,
				"method": "rhf"
			},
			{
				"type": "unocc",
				"energy": -0.00744,
				"method": "rhf"
			},
			{
				"type": "unocc",
				"energy": 0.01066,
				"method": "rhf"
			},
			{
				"type": "unocc",
				"energy": 0.0516,
				"method": "rhf"
			},
			{
				"type": "unocc",
				"energy": 0.05812,
				"method": "rhf"
			}
		],
		"cosmo_sigma_profile": { 
			"-0.025": 0.0,
			"-0.024": 0.0,
			"-0.023": 0.0,
			"-0.022": 0.0,
			"-0.021": 0.0,
			"-0.02": 0.0,
			"-0.019": 0.0,
			"-0.018": 0.0,
			"-0.017": 0.0,
			"-0.016": 0.328995292191,
			"-0.015": 3.0835103164,
			"-0.014": 4.49347084316,
			"-0.013": 4.25614678247,
			"-0.012": 3.63702275956,
			"-0.011": 3.75242478439,
			"-0.01": 3.86537035265,
			"-0.009": 2.98790637572,
			"-0.008": 4.19891588361,
			"-0.007": 6.29731915585,
			"-0.006": 5.32274792657,
			"-0.005": 7.23083935266,
			"-0.004": 6.97398770365,
			"-0.003": 6.47680698546,
			"-0.002": 6.57491772544,
			"-0.001": 8.03660909466,
			"0.0": 10.6699570527,
			"0.001": 17.1383643397,
			"0.002": 15.8902633016,
			"0.003": 14.6765965019,
			"0.004": 13.4506430794,
			"0.005": 7.36656797195,
			"0.006": 3.08885513025,
			"0.007": 3.35888462815,
			"0.008": 2.88655392018,
			"0.009": 3.13770139304,
			"0.01": 2.72383320083,
			"0.011": 2.73448016561,
			"0.012": 1.49522370925,
			"0.013": 1.97976387066,
			"0.014": 1.30545129989,
			"0.015": 1.45839988182,
			"0.016": 1.24996046672,
			"0.017": 1.52050755742,
			"0.018": 0.86140105202,
			"0.019": 1.25500889814,
			"0.02": 1.00273096524,
			"0.021": 0.166338434024,
			"0.022": 0.0,
			"0.023": 0.0,
			"0.024": 0.0,
			"0.025": 0.0
		}
	}
}
