{
	 "smiles": "O=C1CCCC2=C1SC1=C2C=CC=C1", 
	 "Tm": 387.15, 
	 "num_atms": 24, 
	 "gaussian": { 
		 "optdone": 1, 
		 "sigma_profile": "yes", 
		 "theory": "DFT", 
		 "functional": "B3LYP", 
		 "basiset": "6-31G**", 
		 "properties": { 
			 "R2extent": 3522.4036, 
			 "electric_dipole_moment_norm": 4.37203672674, 
			 "electric_quadrupole_moment_norm": 10.584990983, 
			 "total_energy": -936.734760176, 
			 "HOMO_LUMO_gap": 0.15748, 
			 "cosmo_polarized_energy": -10.42, 
			 "cosmo_cavitation_energy": 28.24, 
			 "cosmo_dispersion_energy": -21.6, 
			 "cosmo_repulsion_energy": 1.63, 
			 "cosmo_total_nonelectrostatic_energy": 8.27, 
			 "SMD_solvation_energy": 4.12 
		},
		"coords": [
			{
				"x": 1.7068339305,
				"y": 1.4481558022,
				"z": 2.0606650576,
				"element": "O" 
			},
			{
				"x": 0.7989605762,
				"y": 1.0674259782,
				"z": 1.3349446547,
				"element": "C" 
			},
			{
				"x": -0.5581970132,
				"y": 1.7665717352,
				"z": 1.2775426886,
				"element": "C" 
			},
			{
				"x": -1.7073759174,
				"y": 0.8184171763,
				"z": 0.9018059233,
				"element": "C" 
			},
			{
				"x": -1.426542159,
				"y": 0.0738683076,
				"z": -0.4147352189,
				"element": "C" 
			},
			{
				"x": -0.0524885728,
				"y": -0.5427914924,
				"z": -0.4049397205,
				"element": "C" 
			},
			{
				"x": 0.9396555393,
				"y": -0.0700398486,
				"z": 0.4192445598,
				"element": "C" 
			},
			{
				"x": 2.4604831064,
				"y": -0.9378337671,
				"z": 0.2693999865,
				"element": "S" 
			},
			{
				"x": 1.7528536575,
				"y": -1.9763883481,
				"z": -0.9535975921,
				"element": "C" 
			},
			{
				"x": 0.3960593885,
				"y": -1.6454004023,
				"z": -1.2150127974,
				"element": "C" 
			},
			{
				"x": -0.3171423891,
				"y": -2.3889119185,
				"z": -2.1764371737,
				"element": "C" 
			},
			{
				"x": 0.3143695116,
				"y": -3.4255794427,
				"z": -2.8465476724,
				"element": "C" 
			},
			{
				"x": 1.6594515981,
				"y": -3.7415515516,
				"z": -2.5742025724,
				"element": "C" 
			},
			{
				"x": 2.3863218342,
				"y": -3.0251906416,
				"z": -1.6306255718,
				"element": "C" 
			},
			{
				"x": -0.7243078845,
				"y": 2.254584428,
				"z": 2.2419757537,
				"element": "H" 
			},
			{
				"x": -0.4732259374,
				"y": 2.5666775543,
				"z": 0.5270404792,
				"element": "H" 
			},
			{
				"x": -1.8420477284,
				"y": 0.082086215,
				"z": 1.7036854407,
				"element": "H" 
			},
			{
				"x": -2.6456459092,
				"y": 1.3777879617,
				"z": 0.8241131333,
				"element": "H" 
			},
			{
				"x": -1.5066321494,
				"y": 0.7702461874,
				"z": -1.2631844628,
				"element": "H" 
			},
			{
				"x": -2.186073036,
				"y": -0.6983856207,
				"z": -0.5831790989,
				"element": "H" 
			},
			{
				"x": -1.3542255531,
				"y": -2.1472867421,
				"z": -2.3905091316,
				"element": "H" 
			},
			{
				"x": -0.2306360326,
				"y": -4.0007067774,
				"z": -3.5888957365,
				"element": "H" 
			},
			{
				"x": 2.1369694724,
				"y": -4.5573436112,
				"z": -3.1088967984,
				"element": "H" 
			},
			{
				"x": 3.4228816676,
				"y": -3.2731111816,
				"z": -1.42425413,
				"element": "H" 
			}
		],
		 "valence_orbital": [ 
			{
				"type": "occ",
				"energy": -0.32403,
				"method": "rhf"
			},
			{
				"type": "occ",
				"energy": -0.28606,
				"method": "rhf"
			},
			{
				"type": "occ",
				"energy": -0.24537,
				"method": "rhf"
			},
			{
				"type": "occ",
				"energy": -0.24227,
				"method": "rhf"
			},
			{
				"type": "occ",
				"energy": -0.22352,
				"method": "rhf"
			},
			{
				"type": "unocc",
				"energy": -0.06604,
				"method": "rhf"
			},
			{
				"type": "unocc",
				"energy": -0.01053,
				"method": "rhf"
			},
			{
				"type": "unocc",
				"energy": 0.01283,
				"method": "rhf"
			},
			{
				"type": "unocc",
				"energy": 0.0242,
				"method": "rhf"
			},
			{
				"type": "unocc",
				"energy": 0.06035,
				"method": "rhf"
			}
		],
		"cosmo_sigma_profile": { 
			"-0.025": 0.0,
			"-0.024": 0.0,
			"-0.023": 0.0,
			"-0.022": 0.0,
			"-0.021": 0.0,
			"-0.02": 0.0,
			"-0.019": 0.0,
			"-0.018": 0.0,
			"-0.017": 0.0,
			"-0.016": 0.0,
			"-0.015": 0.0,
			"-0.014": 0.0,
			"-0.013": 0.0,
			"-0.012": 0.0,
			"-0.011": 0.0,
			"-0.01": 0.0,
			"-0.009": 0.0,
			"-0.008": 0.173677393178,
			"-0.007": 3.36963580987,
			"-0.006": 11.969892522,
			"-0.005": 18.9697393704,
			"-0.004": 24.40084487,
			"-0.003": 24.0843127937,
			"-0.002": 21.0097664727,
			"-0.001": 16.3428970979,
			"0.0": 11.0075586094,
			"0.001": 13.6727004095,
			"0.002": 17.6682807518,
			"0.003": 18.0565098666,
			"0.004": 17.868666794,
			"0.005": 8.86568190973,
			"0.006": 1.8016628489,
			"0.007": 2.05386619712,
			"0.008": 1.96244606899,
			"0.009": 1.69173326545,
			"0.01": 2.02045893442,
			"0.011": 2.58039971156,
			"0.012": 4.84087318101,
			"0.013": 2.36847824364,
			"0.014": 0.436743559091,
			"0.015": 0.0,
			"0.016": 0.0,
			"0.017": 0.0,
			"0.018": 0.0,
			"0.019": 0.0,
			"0.02": 0.0,
			"0.021": 0.0,
			"0.022": 0.0,
			"0.023": 0.0,
			"0.024": 0.0,
			"0.025": 0.0
		}
	}
}
