{
	 "smiles": "COC(=O)C1CCC(C)(OC1(C)C)C(O)(C1=CC=CC=C1)C1=CC=CC=C1", 
	 "Tm": 364.15, 
	 "num_atms": 55, 
	 "gaussian": { 
		 "optdone": 1, 
		 "sigma_profile": "yes", 
		 "theory": "DFT", 
		 "functional": "B3LYP", 
		 "basiset": "6-31G**", 
		 "properties": { 
			 "R2extent": 10590.707, 
			 "electric_dipole_moment_norm": 1.432387479, 
			 "electric_quadrupole_moment_norm": 16.8157337767, 
			 "total_energy": -1194.21282278, 
			 "HOMO_LUMO_gap": 0.22035, 
			 "cosmo_polarized_energy": -14.22, 
			 "cosmo_cavitation_energy": 50.94, 
			 "cosmo_dispersion_energy": -34.01, 
			 "cosmo_repulsion_energy": 2.54, 
			 "cosmo_total_nonelectrostatic_energy": 19.47, 
			 "SMD_solvation_energy": 9.79 
		},
		"coords": [
			{
				"x": -4.338085035,
				"y": 3.0799319102,
				"z": -1.2931679398,
				"element": "C" 
			},
			{
				"x": -2.9765369483,
				"y": 2.7817572567,
				"z": -0.939145109,
				"element": "O" 
			},
			{
				"x": -2.0835110321,
				"y": 3.7702706243,
				"z": -1.1826976354,
				"element": "C" 
			},
			{
				"x": -2.4025623037,
				"y": 4.8382768151,
				"z": -1.661377009,
				"element": "O" 
			},
			{
				"x": -0.6560517653,
				"y": 3.3901443669,
				"z": -0.8086103944,
				"element": "C" 
			},
			{
				"x": -0.5623007128,
				"y": 2.8140140071,
				"z": 0.6327903386,
				"element": "C" 
			},
			{
				"x": 0.3958298307,
				"y": 1.6213886693,
				"z": 0.7661824847,
				"element": "C" 
			},
			{
				"x": 0.0566241291,
				"y": 0.506970203,
				"z": -0.2308517441,
				"element": "C" 
			},
			{
				"x": -1.2986344172,
				"y": -0.1450714821,
				"z": 0.0975305135,
				"element": "C" 
			},
			{
				"x": -0.1057060443,
				"y": 1.0676613332,
				"z": -1.5676473871,
				"element": "O" 
			},
			{
				"x": 0.034556994,
				"y": 2.4683533317,
				"z": -1.8832468889,
				"element": "C" 
			},
			{
				"x": -0.6319603804,
				"y": 2.5864830227,
				"z": -3.2611389066,
				"element": "C" 
			},
			{
				"x": 1.5136730892,
				"y": 2.8762469852,
				"z": -2.0248951481,
				"element": "C" 
			},
			{
				"x": 1.1502825163,
				"y": -0.6617057846,
				"z": -0.4359132438,
				"element": "C" 
			},
			{
				"x": 0.7431687969,
				"y": -1.3142266363,
				"z": -1.6354514463,
				"element": "O" 
			},
			{
				"x": 2.6041008746,
				"y": -0.1493939995,
				"z": -0.6148936521,
				"element": "C" 
			},
			{
				"x": 3.218460575,
				"y": -0.2454640864,
				"z": -1.8711808171,
				"element": "C" 
			},
			{
				"x": 4.5290468104,
				"y": 0.1920651946,
				"z": -2.07395364,
				"element": "C" 
			},
			{
				"x": 5.2630553633,
				"y": 0.7333004682,
				"z": -1.0195032008,
				"element": "C" 
			},
			{
				"x": 4.675451934,
				"y": 0.8139554193,
				"z": 0.2436943031,
				"element": "C" 
			},
			{
				"x": 3.3675198148,
				"y": 0.3702608136,
				"z": 0.4434281962,
				"element": "C" 
			},
			{
				"x": 1.1264927263,
				"y": -1.7425807428,
				"z": 0.6653289969,
				"element": "C" 
			},
			{
				"x": 1.0975031527,
				"y": -3.0917054456,
				"z": 0.281349533,
				"element": "C" 
			},
			{
				"x": 1.1183298796,
				"y": -4.1129296979,
				"z": 1.2317732779,
				"element": "C" 
			},
			{
				"x": 1.1659585629,
				"y": -3.8132023485,
				"z": 2.5930354273,
				"element": "C" 
			},
			{
				"x": 1.1941318466,
				"y": -2.4771434213,
				"z": 2.9908697439,
				"element": "C" 
			},
			{
				"x": 1.177769986,
				"y": -1.4565751441,
				"z": 2.038446081,
				"element": "C" 
			},
			{
				"x": -4.4179299255,
				"y": 3.2976254833,
				"z": -2.3609291579,
				"element": "H" 
			},
			{
				"x": -4.9100445663,
				"y": 2.1878311551,
				"z": -1.0391861204,
				"element": "H" 
			},
			{
				"x": -4.7003132293,
				"y": 3.9436730094,
				"z": -0.7304163411,
				"element": "H" 
			},
			{
				"x": -0.1262113105,
				"y": 4.3443414881,
				"z": -0.8545608043,
				"element": "H" 
			},
			{
				"x": -0.2427705913,
				"y": 3.6062698241,
				"z": 1.3171513631,
				"element": "H" 
			},
			{
				"x": -1.5567729888,
				"y": 2.5059386546,
				"z": 0.9610618818,
				"element": "H" 
			},
			{
				"x": 1.4274801803,
				"y": 1.9514339828,
				"z": 0.6397548266,
				"element": "H" 
			},
			{
				"x": 0.3110149618,
				"y": 1.2341462619,
				"z": 1.7847176426,
				"element": "H" 
			},
			{
				"x": -1.3208096792,
				"y": -0.5284836836,
				"z": 1.1203719727,
				"element": "H" 
			},
			{
				"x": -1.4756581231,
				"y": -0.9792966858,
				"z": -0.5838551819,
				"element": "H" 
			},
			{
				"x": -2.1009248831,
				"y": 0.5824476388,
				"z": -0.0336641404,
				"element": "H" 
			},
			{
				"x": -0.0692382709,
				"y": 1.999907119,
				"z": -3.9929864244,
				"element": "H" 
			},
			{
				"x": -0.658607721,
				"y": 3.6271243791,
				"z": -3.5947839498,
				"element": "H" 
			},
			{
				"x": -1.6521749803,
				"y": 2.1975302091,
				"z": -3.2265257817,
				"element": "H" 
			},
			{
				"x": 2.0271462917,
				"y": 2.188470127,
				"z": -2.699864243,
				"element": "H" 
			},
			{
				"x": 1.5764923004,
				"y": 3.8857169898,
				"z": -2.4448928084,
				"element": "H" 
			},
			{
				"x": 2.0534940866,
				"y": 2.8739904414,
				"z": -1.0766604674,
				"element": "H" 
			},
			{
				"x": 0.4217645299,
				"y": -0.5942672454,
				"z": -2.2058121198,
				"element": "H" 
			},
			{
				"x": 2.6677881355,
				"y": -0.6926129113,
				"z": -2.6893269245,
				"element": "H" 
			},
			{
				"x": 4.9770263934,
				"y": 0.1003643117,
				"z": -3.0598130294,
				"element": "H" 
			},
			{
				"x": 6.2829606618,
				"y": 1.0735265815,
				"z": -1.1743188319,
				"element": "H" 
			},
			{
				"x": 5.238755247,
				"y": 1.2117974755,
				"z": 1.083420254,
				"element": "H" 
			},
			{
				"x": 2.9576498177,
				"y": 0.4122108529,
				"z": 1.4454639373,
				"element": "H" 
			},
			{
				"x": 1.0538779234,
				"y": -3.3334356635,
				"z": -0.7726204267,
				"element": "H" 
			},
			{
				"x": 1.0953400888,
				"y": -5.1482470276,
				"z": 0.9024349359,
				"element": "H" 
			},
			{
				"x": 1.1795069131,
				"y": -4.6079444299,
				"z": 3.3334030859,
				"element": "H" 
			},
			{
				"x": 1.2270316101,
				"y": -2.2212730467,
				"z": 4.0463778787,
				"element": "H" 
			},
			{
				"x": 1.1970188844,
				"y": -0.4324669233,
				"z": 2.3908042407,
				"element": "H" 
			}
		],
		 "valence_orbital": [ 
			{
				"type": "occ",
				"energy": -0.25724,
				"method": "rhf"
			},
			{
				"type": "occ",
				"energy": -0.24554,
				"method": "rhf"
			},
			{
				"type": "occ",
				"energy": -0.24173,
				"method": "rhf"
			},
			{
				"type": "occ",
				"energy": -0.2408,
				"method": "rhf"
			},
			{
				"type": "occ",
				"energy": -0.23007,
				"method": "rhf"
			},
			{
				"type": "unocc",
				"energy": -0.00972,
				"method": "rhf"
			},
			{
				"type": "unocc",
				"energy": -0.00134,
				"method": "rhf"
			},
			{
				"type": "unocc",
				"energy": 0.00547,
				"method": "rhf"
			},
			{
				"type": "unocc",
				"energy": 0.00906,
				"method": "rhf"
			},
			{
				"type": "unocc",
				"energy": 0.01388,
				"method": "rhf"
			}
		],
		"cosmo_sigma_profile": { 
			"-0.025": 0.0,
			"-0.024": 0.0,
			"-0.023": 0.0,
			"-0.022": 0.0,
			"-0.021": 0.0,
			"-0.02": 0.0,
			"-0.019": 0.0,
			"-0.018": 0.0,
			"-0.017": 0.0,
			"-0.016": 0.0,
			"-0.015": 0.0,
			"-0.014": 0.0,
			"-0.013": 0.0,
			"-0.012": 0.0,
			"-0.011": 0.0,
			"-0.01": 0.0,
			"-0.009": 0.0368169575595,
			"-0.008": 0.907329645267,
			"-0.007": 3.22451062273,
			"-0.006": 11.5313128975,
			"-0.005": 27.804597613,
			"-0.004": 43.7871542317,
			"-0.003": 48.7738938105,
			"-0.002": 39.6551346523,
			"-0.001": 35.0835747813,
			"0.0": 31.2502526077,
			"0.001": 29.3575438979,
			"0.002": 23.5271877278,
			"0.003": 19.2844256601,
			"0.004": 20.3221706769,
			"0.005": 23.0592118414,
			"0.006": 17.2301641959,
			"0.007": 6.394051599,
			"0.008": 4.11783770394,
			"0.009": 3.14660809532,
			"0.01": 2.68130129603,
			"0.011": 3.33826563113,
			"0.012": 4.58845616544,
			"0.013": 1.37766691735,
			"0.014": 0.0207501741049,
			"0.015": 0.0,
			"0.016": 0.0,
			"0.017": 0.0,
			"0.018": 0.0,
			"0.019": 0.0,
			"0.02": 0.0,
			"0.021": 0.0,
			"0.022": 0.0,
			"0.023": 0.0,
			"0.024": 0.0,
			"0.025": 0.0
		}
	}
}
