{
	 "smiles": "CS(C)=O", 
	 "Tm": 291.35, 
	 "num_atms": 10, 
	 "gaussian": { 
		 "optdone": 1, 
		 "sigma_profile": "yes", 
		 "theory": "DFT", 
		 "functional": "B3LYP", 
		 "basiset": "6-31G**", 
		 "properties": { 
			 "R2extent": 705.5672, 
			 "electric_dipole_moment_norm": 3.92581959214, 
			 "electric_quadrupole_moment_norm": 9.66537981354, 
			 "total_energy": -553.189911723, 
			 "HOMO_LUMO_gap": 0.26519, 
			 "cosmo_polarized_energy": -12.24, 
			 "cosmo_cavitation_energy": 14.5, 
			 "cosmo_dispersion_energy": -11.43, 
			 "cosmo_repulsion_energy": 0.97, 
			 "cosmo_total_nonelectrostatic_energy": 4.04, 
			 "SMD_solvation_energy": 2.95 
		},
		"coords": [
			{
				"x": -1.6379034104,
				"y": -0.141021736,
				"z": 2.0304316177,
				"element": "C" 
			},
			{
				"x": -0.0333003554,
				"y": 0.3874697424,
				"z": 1.3118805601,
				"element": "S" 
			},
			{
				"x": -0.7292149777,
				"y": 0.9883763888,
				"z": -0.2771241507,
				"element": "C" 
			},
			{
				"x": 0.4355921887,
				"y": 1.5958804376,
				"z": 2.0879615154,
				"element": "O" 
			},
			{
				"x": -1.4305005166,
				"y": -0.5021638946,
				"z": 3.0395125472,
				"element": "H" 
			},
			{
				"x": -2.0680838543,
				"y": -0.9467817353,
				"z": 1.4292594007,
				"element": "H" 
			},
			{
				"x": -2.3151081294,
				"y": 0.7156252303,
				"z": 2.0799951043,
				"element": "H" 
			},
			{
				"x": -1.1803390591,
				"y": 0.1563265187,
				"z": -0.8247498219,
				"element": "H" 
			},
			{
				"x": -1.4647478211,
				"y": 1.7725514065,
				"z": -0.0797513595,
				"element": "H" 
			},
			{
				"x": 0.1017059354,
				"y": 1.4024376416,
				"z": -0.8514154134,
				"element": "H" 
			}
		],
		 "valence_orbital": [ 
			{
				"type": "occ",
				"energy": -0.39663,
				"method": "rhf"
			},
			{
				"type": "occ",
				"energy": -0.39098,
				"method": "rhf"
			},
			{
				"type": "occ",
				"energy": -0.34994,
				"method": "rhf"
			},
			{
				"type": "occ",
				"energy": -0.25987,
				"method": "rhf"
			},
			{
				"type": "occ",
				"energy": -0.22206,
				"method": "rhf"
			},
			{
				"type": "unocc",
				"energy": 0.04313,
				"method": "rhf"
			},
			{
				"type": "unocc",
				"energy": 0.04939,
				"method": "rhf"
			},
			{
				"type": "unocc",
				"energy": 0.07943,
				"method": "rhf"
			},
			{
				"type": "unocc",
				"energy": 0.09714,
				"method": "rhf"
			},
			{
				"type": "unocc",
				"energy": 0.12116,
				"method": "rhf"
			}
		],
		"cosmo_sigma_profile": { 
			"-0.025": 0.0,
			"-0.024": 0.0,
			"-0.023": 0.0,
			"-0.022": 0.0,
			"-0.021": 0.0,
			"-0.02": 0.0,
			"-0.019": 0.0,
			"-0.018": 0.0,
			"-0.017": 0.0,
			"-0.016": 0.0,
			"-0.015": 0.0,
			"-0.014": 0.0,
			"-0.013": 0.0,
			"-0.012": 0.0,
			"-0.011": 0.0,
			"-0.01": 0.024819226727,
			"-0.009": 0.999440678226,
			"-0.008": 2.12679270408,
			"-0.007": 8.96093628276,
			"-0.006": 12.1762024063,
			"-0.005": 9.85881528138,
			"-0.004": 11.2724463805,
			"-0.003": 12.3757350821,
			"-0.002": 12.1810251114,
			"-0.001": 7.29601287161,
			"0.0": 3.68950235628,
			"0.001": 2.33435926214,
			"0.002": 1.97872827208,
			"0.003": 3.23126991898,
			"0.004": 2.54655123323,
			"0.005": 1.49023818743,
			"0.006": 1.3259859392,
			"0.007": 1.40813105223,
			"0.008": 1.2450561757,
			"0.009": 1.11823278941,
			"0.01": 0.353942372248,
			"0.011": 0.889056485577,
			"0.012": 1.45183604614,
			"0.013": 0.992131855413,
			"0.014": 2.71761670151,
			"0.015": 5.40276981857,
			"0.016": 4.97793730979,
			"0.017": 0.573574607006,
			"0.018": 0.0,
			"0.019": 0.0,
			"0.02": 0.0,
			"0.021": 0.0,
			"0.022": 0.0,
			"0.023": 0.0,
			"0.024": 0.0,
			"0.025": 0.0
		}
	}
}
