{
	 "smiles": "CC(C)CCCC(C)CCCC(C)CCCC1(C)CCC2=C(O1)C(C)=C(C)C(O)=C2", 
	 "Tm": 270.15, 
	 "num_atms": 78, 
	 "gaussian": { 
		 "optdone": 1, 
		 "sigma_profile": "yes", 
		 "theory": "DFT", 
		 "functional": "B3LYP", 
		 "basiset": "6-31G**", 
		 "properties": { 
			 "R2extent": 20558.811, 
			 "electric_dipole_moment_norm": 0.759336730311, 
			 "electric_quadrupole_moment_norm": 15.5010812294, 
			 "total_energy": -1246.41611178, 
			 "HOMO_LUMO_gap": 0.19108, 
			 "cosmo_polarized_energy": -9.54, 
			 "cosmo_cavitation_energy": 70.94, 
			 "cosmo_dispersion_energy": -44.28, 
			 "cosmo_repulsion_energy": 3.37, 
			 "cosmo_total_nonelectrostatic_energy": 30.03, 
			 "SMD_solvation_energy": 10.37 
		},
		"coords": [
			{
				"x": 1.6195756949,
				"y": 3.4177803772,
				"z": 0.9550941052,
				"element": "C" 
			},
			{
				"x": 0.5347994727,
				"y": 4.5051811838,
				"z": 0.9470431623,
				"element": "C" 
			},
			{
				"x": -0.3800319176,
				"y": 4.3598391019,
				"z": 2.172438692,
				"element": "C" 
			},
			{
				"x": -0.3020307045,
				"y": 4.531042123,
				"z": -0.3499585814,
				"element": "C" 
			},
			{
				"x": 0.4904387596,
				"y": 4.8081003481,
				"z": -1.6496548689,
				"element": "C" 
			},
			{
				"x": 0.9796317951,
				"y": 3.5656309278,
				"z": -2.437750966,
				"element": "C" 
			},
			{
				"x": 0.1114329239,
				"y": 3.1258651908,
				"z": -3.6449149107,
				"element": "C" 
			},
			{
				"x": 0.0896863317,
				"y": 4.1948673058,
				"z": -4.7509148579,
				"element": "C" 
			},
			{
				"x": -1.3284320925,
				"y": 2.7087066175,
				"z": -3.2741829358,
				"element": "C" 
			},
			{
				"x": -1.4771391256,
				"y": 1.4284852039,
				"z": -2.4298313768,
				"element": "C" 
			},
			{
				"x": -1.0824929336,
				"y": 0.1410389504,
				"z": -3.1724742689,
				"element": "C" 
			},
			{
				"x": -1.3314993995,
				"y": -1.1854560547,
				"z": -2.4138343888,
				"element": "C" 
			},
			{
				"x": -2.8313201394,
				"y": -1.4557874164,
				"z": -2.2068101152,
				"element": "C" 
			},
			{
				"x": -0.5768710796,
				"y": -1.3036588528,
				"z": -1.0721051494,
				"element": "C" 
			},
			{
				"x": 0.9515177826,
				"y": -1.2201097279,
				"z": -1.1861191953,
				"element": "C" 
			},
			{
				"x": 1.7329747779,
				"y": -1.3176342445,
				"z": 0.1370942552,
				"element": "C" 
			},
			{
				"x": 1.7029270373,
				"y": -2.6368924875,
				"z": 0.9400772194,
				"element": "C" 
			},
			{
				"x": 1.8878195878,
				"y": -3.8728017592,
				"z": 0.0479513945,
				"element": "C" 
			},
			{
				"x": 2.769870462,
				"y": -2.5661351257,
				"z": 2.0494221176,
				"element": "C" 
			},
			{
				"x": 2.6935763657,
				"y": -3.7712580792,
				"z": 2.9893251269,
				"element": "C" 
			},
			{
				"x": 1.262880131,
				"y": -4.0787411372,
				"z": 3.371744969,
				"element": "C" 
			},
			{
				"x": 0.1970466631,
				"y": -3.5349074627,
				"z": 2.6405832374,
				"element": "C" 
			},
			{
				"x": 0.3924776256,
				"y": -2.696610353,
				"z": 1.5597902723,
				"element": "O" 
			},
			{
				"x": -1.1421781025,
				"y": -3.7901622814,
				"z": 3.0043984669,
				"element": "C" 
			},
			{
				"x": -2.2653305025,
				"y": -3.151816402,
				"z": 2.2161852207,
				"element": "C" 
			},
			{
				"x": -1.4097224817,
				"y": -4.6304266483,
				"z": 4.1005560454,
				"element": "C" 
			},
			{
				"x": -2.8194797331,
				"y": -4.9693749403,
				"z": 4.5345448848,
				"element": "C" 
			},
			{
				"x": -0.3345715526,
				"y": -5.1809967237,
				"z": 4.8215858522,
				"element": "C" 
			},
			{
				"x": -0.5220187217,
				"y": -6.0056513763,
				"z": 5.9051735569,
				"element": "O" 
			},
			{
				"x": 0.978603192,
				"y": -4.9032943996,
				"z": 4.4615177832,
				"element": "C" 
			},
			{
				"x": 2.1878034214,
				"y": 3.443055386,
				"z": 1.8916962498,
				"element": "H" 
			},
			{
				"x": 1.1754122568,
				"y": 2.4181656997,
				"z": 0.866813929,
				"element": "H" 
			},
			{
				"x": 2.3323940602,
				"y": 3.5410607607,
				"z": 0.1342233792,
				"element": "H" 
			},
			{
				"x": 1.0424919156,
				"y": 5.4793612573,
				"z": 1.0220769434,
				"element": "H" 
			},
			{
				"x": 0.1938847432,
				"y": 4.3981334024,
				"z": 3.1048449313,
				"element": "H" 
			},
			{
				"x": -1.1316799687,
				"y": 5.1561853971,
				"z": 2.2083265759,
				"element": "H" 
			},
			{
				"x": -0.9129224559,
				"y": 3.4011232589,
				"z": 2.1517195319,
				"element": "H" 
			},
			{
				"x": -0.8526805824,
				"y": 3.5850371165,
				"z": -0.4373180577,
				"element": "H" 
			},
			{
				"x": -1.0671208349,
				"y": 5.3090649834,
				"z": -0.2281815203,
				"element": "H" 
			},
			{
				"x": 1.3547235768,
				"y": 5.4358059993,
				"z": -1.3966035329,
				"element": "H" 
			},
			{
				"x": -0.1240934765,
				"y": 5.4296702671,
				"z": -2.3105767443,
				"element": "H" 
			},
			{
				"x": 1.9870294046,
				"y": 3.7628532053,
				"z": -2.8268578379,
				"element": "H" 
			},
			{
				"x": 1.0930502763,
				"y": 2.7185028184,
				"z": -1.7518915573,
				"element": "H" 
			},
			{
				"x": 0.6144139483,
				"y": 2.2467961214,
				"z": -4.0722459257,
				"element": "H" 
			},
			{
				"x": -0.4019860243,
				"y": 3.812052824,
				"z": -5.6518756699,
				"element": "H" 
			},
			{
				"x": -0.456272348,
				"y": 5.0936771684,
				"z": -4.4426403204,
				"element": "H" 
			},
			{
				"x": 1.1043157916,
				"y": 4.5022330312,
				"z": -5.0281767741,
				"element": "H" 
			},
			{
				"x": -1.8160271727,
				"y": 3.5427774023,
				"z": -2.751812142,
				"element": "H" 
			},
			{
				"x": -1.8976053248,
				"y": 2.5722852198,
				"z": -4.2047064966,
				"element": "H" 
			},
			{
				"x": -2.5239912174,
				"y": 1.355382701,
				"z": -2.1100965677,
				"element": "H" 
			},
			{
				"x": -0.8899304662,
				"y": 1.5197100249,
				"z": -1.5081226465,
				"element": "H" 
			},
			{
				"x": -0.0246931155,
				"y": 0.1930789506,
				"z": -3.4564718362,
				"element": "H" 
			},
			{
				"x": -1.6396767882,
				"y": 0.0988754916,
				"z": -4.1193476906,
				"element": "H" 
			},
			{
				"x": -0.949543822,
				"y": -1.9846067466,
				"z": -3.0680509335,
				"element": "H" 
			},
			{
				"x": -3.2820556755,
				"y": -0.7366836058,
				"z": -1.5137840037,
				"element": "H" 
			},
			{
				"x": -3.381734948,
				"y": -1.3959130151,
				"z": -3.1525255968,
				"element": "H" 
			},
			{
				"x": -2.9936061105,
				"y": -2.4549813242,
				"z": -1.78817891,
				"element": "H" 
			},
			{
				"x": -0.8490071117,
				"y": -2.2571898826,
				"z": -0.6081167656,
				"element": "H" 
			},
			{
				"x": -0.9307645447,
				"y": -0.5292271417,
				"z": -0.3775386858,
				"element": "H" 
			},
			{
				"x": 1.3070926246,
				"y": -1.9878912334,
				"z": -1.8862326249,
				"element": "H" 
			},
			{
				"x": 1.229127161,
				"y": -0.2612251811,
				"z": -1.6417576421,
				"element": "H" 
			},
			{
				"x": 1.3984991284,
				"y": -0.5241326057,
				"z": 0.8173121185,
				"element": "H" 
			},
			{
				"x": 2.7875890543,
				"y": -1.1086505788,
				"z": -0.0843792294,
				"element": "H" 
			},
			{
				"x": 1.8466944508,
				"y": -4.7937276083,
				"z": 0.6345995884,
				"element": "H" 
			},
			{
				"x": 2.8544703974,
				"y": -3.8373614685,
				"z": -0.4662226316,
				"element": "H" 
			},
			{
				"x": 1.0988928609,
				"y": -3.9271577736,
				"z": -0.7053655269,
				"element": "H" 
			},
			{
				"x": 3.764982408,
				"y": -2.4922865102,
				"z": 1.5976254266,
				"element": "H" 
			},
			{
				"x": 2.6025465775,
				"y": -1.642300277,
				"z": 2.6163107094,
				"element": "H" 
			},
			{
				"x": 3.1502630349,
				"y": -4.6496733783,
				"z": 2.5132400163,
				"element": "H" 
			},
			{
				"x": 3.2855729886,
				"y": -3.5808425687,
				"z": 3.8920288454,
				"element": "H" 
			},
			{
				"x": -1.8739910567,
				"y": -2.4219247796,
				"z": 1.509801975,
				"element": "H" 
			},
			{
				"x": -2.8350408203,
				"y": -3.8962599139,
				"z": 1.6454562466,
				"element": "H" 
			},
			{
				"x": -2.9742902451,
				"y": -2.6364855576,
				"z": 2.8730573127,
				"element": "H" 
			},
			{
				"x": -3.5678762563,
				"y": -4.5867047696,
				"z": 3.8412443847,
				"element": "H" 
			},
			{
				"x": -3.0576832593,
				"y": -4.5522848305,
				"z": 5.5235821943,
				"element": "H" 
			},
			{
				"x": -2.9723258492,
				"y": -6.0562348645,
				"z": 4.5914568301,
				"element": "H" 
			},
			{
				"x": -1.4661499947,
				"y": -6.0863130315,
				"z": 6.0846187617,
				"element": "H" 
			},
			{
				"x": 1.7834592718,
				"y": -5.3352516981,
				"z": 5.049367173,
				"element": "H" 
			}
		],
		 "valence_orbital": [ 
			{
				"type": "occ",
				"energy": -0.28834,
				"method": "rhf"
			},
			{
				"type": "occ",
				"energy": -0.28358,
				"method": "rhf"
			},
			{
				"type": "occ",
				"energy": -0.2737,
				"method": "rhf"
			},
			{
				"type": "occ",
				"energy": -0.22287,
				"method": "rhf"
			},
			{
				"type": "occ",
				"energy": -0.18473,
				"method": "rhf"
			},
			{
				"type": "unocc",
				"energy": 0.00635,
				"method": "rhf"
			},
			{
				"type": "unocc",
				"energy": 0.03713,
				"method": "rhf"
			},
			{
				"type": "unocc",
				"energy": 0.05722,
				"method": "rhf"
			},
			{
				"type": "unocc",
				"energy": 0.07299,
				"method": "rhf"
			},
			{
				"type": "unocc",
				"energy": 0.08115,
				"method": "rhf"
			}
		],
		"cosmo_sigma_profile": { 
			"-0.025": 0.0,
			"-0.024": 0.0,
			"-0.023": 0.0,
			"-0.022": 0.0,
			"-0.021": 0.0,
			"-0.02": 0.0,
			"-0.019": 0.0,
			"-0.018": 0.0,
			"-0.017": 0.0,
			"-0.016": 0.0218117742603,
			"-0.015": 0.582039040764,
			"-0.014": 0.473530105466,
			"-0.013": 1.10306854026,
			"-0.012": 1.03177800619,
			"-0.011": 1.2272779887,
			"-0.01": 0.74842549749,
			"-0.009": 1.09229506341,
			"-0.008": 1.59738618034,
			"-0.007": 1.49303701938,
			"-0.006": 1.7100166148,
			"-0.005": 3.49420350512,
			"-0.004": 14.6298283962,
			"-0.003": 34.0468176272,
			"-0.002": 66.4902280099,
			"-0.001": 114.512833643,
			"0.0": 110.351606995,
			"0.001": 80.5969165017,
			"0.002": 50.4123055809,
			"0.003": 10.8560715967,
			"0.004": 8.38301064561,
			"0.005": 11.6256144281,
			"0.006": 12.7883905618,
			"0.007": 5.54108430789,
			"0.008": 1.77504319526,
			"0.009": 2.27960251514,
			"0.01": 2.07679842071,
			"0.011": 1.85949216833,
			"0.012": 1.90465690715,
			"0.013": 0.44336353123,
			"0.014": 0.0,
			"0.015": 0.0,
			"0.016": 0.0,
			"0.017": 0.0,
			"0.018": 0.0,
			"0.019": 0.0,
			"0.02": 0.0,
			"0.021": 0.0,
			"0.022": 0.0,
			"0.023": 0.0,
			"0.024": 0.0,
			"0.025": 0.0
		}
	}
}
