{
	 "smiles": "COC1=CC=CC(C=O)=C1F", 
	 "Tm": 322.15, 
	 "num_atms": 18, 
	 "gaussian": { 
		 "optdone": 1, 
		 "sigma_profile": "yes", 
		 "theory": "DFT", 
		 "functional": "B3LYP", 
		 "basiset": "6-31G**", 
		 "properties": { 
			 "R2extent": 2760.4544, 
			 "electric_dipole_moment_norm": 3.31830510502, 
			 "electric_quadrupole_moment_norm": 13.9827101862, 
			 "total_energy": -559.320885621, 
			 "HOMO_LUMO_gap": 0.16765, 
			 "cosmo_polarized_energy": -7.31, 
			 "cosmo_cavitation_energy": 22.81, 
			 "cosmo_dispersion_energy": -16.79, 
			 "cosmo_repulsion_energy": 1.32, 
			 "cosmo_total_nonelectrostatic_energy": 7.34, 
			 "SMD_solvation_energy": 6.22 
		},
		"coords": [
			{
				"x": 1.7155234728,
				"y": 1.8335412268,
				"z": -1.1956676706,
				"element": "C" 
			},
			{
				"x": 0.8000945733,
				"y": 1.4333288887,
				"z": -2.217590557,
				"element": "O" 
			},
			{
				"x": 0.1996052208,
				"y": 0.2146902852,
				"z": -2.2047905265,
				"element": "C" 
			},
			{
				"x": -0.675120084,
				"y": -0.0374552027,
				"z": -3.2733973628,
				"element": "C" 
			},
			{
				"x": -1.3606781705,
				"y": -1.2456000247,
				"z": -3.389480698,
				"element": "C" 
			},
			{
				"x": -1.189184785,
				"y": -2.2412309285,
				"z": -2.4339481417,
				"element": "C" 
			},
			{
				"x": -0.3236992566,
				"y": -2.0234866041,
				"z": -1.353961066,
				"element": "C" 
			},
			{
				"x": -0.1348461389,
				"y": -3.0806223787,
				"z": -0.3299828009,
				"element": "C" 
			},
			{
				"x": -0.7008809324,
				"y": -4.1579045903,
				"z": -0.3684420464,
				"element": "O" 
			},
			{
				"x": 0.3570030427,
				"y": -0.803485332,
				"z": -1.2531561311,
				"element": "C" 
			},
			{
				"x": 1.1888796293,
				"y": -0.6236491469,
				"z": -0.1937812002,
				"element": "F" 
			},
			{
				"x": 2.5915640943,
				"y": 1.1798512232,
				"z": -1.1584583257,
				"element": "H" 
			},
			{
				"x": 1.2388487598,
				"y": 1.8559465624,
				"z": -0.2115894086,
				"element": "H" 
			},
			{
				"x": 2.0247652829,
				"y": 2.8420941531,
				"z": -1.4740440164,
				"element": "H" 
			},
			{
				"x": -0.7951441151,
				"y": 0.7520816934,
				"z": -4.0083103209,
				"element": "H" 
			},
			{
				"x": -2.0281862793,
				"y": -1.4013007964,
				"z": -4.2310985273,
				"element": "H" 
			},
			{
				"x": -1.7043661754,
				"y": -3.1938890755,
				"z": -2.4893212474,
				"element": "H" 
			},
			{
				"x": 0.5643218614,
				"y": -2.833309953,
				"z": 0.4908200474,
				"element": "H" 
			}
		],
		 "valence_orbital": [ 
			{
				"type": "occ",
				"energy": -0.34061,
				"method": "rhf"
			},
			{
				"type": "occ",
				"energy": -0.3298,
				"method": "rhf"
			},
			{
				"type": "occ",
				"energy": -0.26384,
				"method": "rhf"
			},
			{
				"type": "occ",
				"energy": -0.25584,
				"method": "rhf"
			},
			{
				"type": "occ",
				"energy": -0.23348,
				"method": "rhf"
			},
			{
				"type": "unocc",
				"energy": -0.06583,
				"method": "rhf"
			},
			{
				"type": "unocc",
				"energy": -0.00439,
				"method": "rhf"
			},
			{
				"type": "unocc",
				"energy": 0.03699,
				"method": "rhf"
			},
			{
				"type": "unocc",
				"energy": 0.06462,
				"method": "rhf"
			},
			{
				"type": "unocc",
				"energy": 0.10803,
				"method": "rhf"
			}
		],
		"cosmo_sigma_profile": { 
			"-0.025": 0.0,
			"-0.024": 0.0,
			"-0.023": 0.0,
			"-0.022": 0.0,
			"-0.021": 0.0,
			"-0.02": 0.0,
			"-0.019": 0.0,
			"-0.018": 0.0,
			"-0.017": 0.0,
			"-0.016": 0.0,
			"-0.015": 0.0,
			"-0.014": 0.0,
			"-0.013": 0.0,
			"-0.012": 0.0,
			"-0.011": 0.0,
			"-0.01": 0.0,
			"-0.009": 0.0,
			"-0.008": 0.152936740587,
			"-0.007": 3.78043277821,
			"-0.006": 10.7673032206,
			"-0.005": 16.5800787379,
			"-0.004": 17.235062971,
			"-0.003": 17.5921501044,
			"-0.002": 13.0206204781,
			"-0.001": 13.2348103581,
			"0.0": 13.1044617771,
			"0.001": 15.0898717995,
			"0.002": 16.0027761286,
			"0.003": 14.9642703501,
			"0.004": 5.58357932104,
			"0.005": 3.30862717707,
			"0.006": 2.59684344353,
			"0.007": 3.21750562405,
			"0.008": 3.16863506975,
			"0.009": 3.67225359126,
			"0.01": 2.81774486907,
			"0.011": 4.27457846924,
			"0.012": 2.27399681774,
			"0.013": 0.497089586916,
			"0.014": 0.0,
			"0.015": 0.0,
			"0.016": 0.0,
			"0.017": 0.0,
			"0.018": 0.0,
			"0.019": 0.0,
			"0.02": 0.0,
			"0.021": 0.0,
			"0.022": 0.0,
			"0.023": 0.0,
			"0.024": 0.0,
			"0.025": 0.0
		}
	}
}
