{
	 "smiles": "CCN1C(S)=NN=C1C1CC1", 
	 "Tm": 290.15, 
	 "num_atms": 22, 
	 "gaussian": { 
		 "optdone": 1, 
		 "sigma_profile": "yes", 
		 "theory": "DFT", 
		 "functional": "B3LYP", 
		 "basiset": "6-31G**", 
		 "properties": { 
			 "R2extent": 2815.8357, 
			 "electric_dipole_moment_norm": 4.80957771535, 
			 "electric_quadrupole_moment_norm": 5.88175762676, 
			 "total_energy": -835.766565421, 
			 "HOMO_LUMO_gap": 0.22579, 
			 "cosmo_polarized_energy": -15.18, 
			 "cosmo_cavitation_energy": 26.89, 
			 "cosmo_dispersion_energy": -19.6, 
			 "cosmo_repulsion_energy": 1.54, 
			 "cosmo_total_nonelectrostatic_energy": 8.84, 
			 "SMD_solvation_energy": 1.95 
		},
		"coords": [
			{
				"x": -2.6203364419,
				"y": -1.0720133737,
				"z": 1.8959167737,
				"element": "C" 
			},
			{
				"x": -1.2365380428,
				"y": -0.5479865307,
				"z": 2.2879803005,
				"element": "C" 
			},
			{
				"x": -0.7809298688,
				"y": 0.5569370088,
				"z": 1.4457331508,
				"element": "N" 
			},
			{
				"x": -1.0286889794,
				"y": 1.8981092078,
				"z": 1.6029444724,
				"element": "C" 
			},
			{
				"x": -2.0002446688,
				"y": 2.5411751992,
				"z": 2.9356064122,
				"element": "S" 
			},
			{
				"x": -0.4570512034,
				"y": 2.6034589409,
				"z": 0.6573299844,
				"element": "N" 
			},
			{
				"x": 0.1900236563,
				"y": 1.7052705613,
				"z": -0.173116686,
				"element": "N" 
			},
			{
				"x": -0.0100770524,
				"y": 0.4962831193,
				"z": 0.2988655083,
				"element": "C" 
			},
			{
				"x": 0.5442508078,
				"y": -0.7554292926,
				"z": -0.2554589696,
				"element": "C" 
			},
			{
				"x": 1.4393655595,
				"y": -0.6691730196,
				"z": -1.4675669995,
				"element": "C" 
			},
			{
				"x": 2.0412402077,
				"y": -1.0307368628,
				"z": -0.1408623092,
				"element": "C" 
			},
			{
				"x": -3.3752544708,
				"y": -0.2847984935,
				"z": 1.9751994153,
				"element": "H" 
			},
			{
				"x": -2.6228386955,
				"y": -1.4437064175,
				"z": 0.8669677426,
				"element": "H" 
			},
			{
				"x": -2.9105318378,
				"y": -1.8931827165,
				"z": 2.5587303102,
				"element": "H" 
			},
			{
				"x": -0.4853596512,
				"y": -1.3393396782,
				"z": 2.2192407211,
				"element": "H" 
			},
			{
				"x": -1.2348336459,
				"y": -0.1978154616,
				"z": 3.3251639427,
				"element": "H" 
			},
			{
				"x": -1.7403832606,
				"y": 3.8171282787,
				"z": 2.5943458868,
				"element": "H" 
			},
			{
				"x": -0.1088229236,
				"y": -1.6221783122,
				"z": -0.1900693535,
				"element": "H" 
			},
			{
				"x": 1.3356326886,
				"y": -1.4453933069,
				"z": -2.2188868436,
				"element": "H" 
			},
			{
				"x": 1.622123936,
				"y": 0.3276083453,
				"z": -1.8531152525,
				"element": "H" 
			},
			{
				"x": 2.3518426549,
				"y": -2.0570306532,
				"z": 0.0318745657,
				"element": "H" 
			},
			{
				"x": 2.6407112319,
				"y": -0.2801865424,
				"z": 0.3641772271,
				"element": "H" 
			}
		],
		 "valence_orbital": [ 
			{
				"type": "occ",
				"energy": -0.30083,
				"method": "rhf"
			},
			{
				"type": "occ",
				"energy": -0.29218,
				"method": "rhf"
			},
			{
				"type": "occ",
				"energy": -0.28079,
				"method": "rhf"
			},
			{
				"type": "occ",
				"energy": -0.24816,
				"method": "rhf"
			},
			{
				"type": "occ",
				"energy": -0.21987,
				"method": "rhf"
			},
			{
				"type": "unocc",
				"energy": 0.00592,
				"method": "rhf"
			},
			{
				"type": "unocc",
				"energy": 0.01983,
				"method": "rhf"
			},
			{
				"type": "unocc",
				"energy": 0.04733,
				"method": "rhf"
			},
			{
				"type": "unocc",
				"energy": 0.06119,
				"method": "rhf"
			},
			{
				"type": "unocc",
				"energy": 0.07673,
				"method": "rhf"
			}
		],
		"cosmo_sigma_profile": { 
			"-0.025": 0.0,
			"-0.024": 0.0,
			"-0.023": 0.0,
			"-0.022": 0.0,
			"-0.021": 0.0,
			"-0.02": 0.0,
			"-0.019": 0.0,
			"-0.018": 0.0,
			"-0.017": 0.0,
			"-0.016": 0.0,
			"-0.015": 0.0,
			"-0.014": 0.0,
			"-0.013": 0.0138143428667,
			"-0.012": 1.27078109548,
			"-0.011": 1.21856556616,
			"-0.01": 1.20880036411,
			"-0.009": 1.24189563188,
			"-0.008": 1.23545437646,
			"-0.007": 3.27229469347,
			"-0.006": 10.9910752136,
			"-0.005": 18.7787021834,
			"-0.004": 21.9037386879,
			"-0.003": 20.2485868535,
			"-0.002": 18.9191274704,
			"-0.001": 22.0059491451,
			"0.0": 17.9309543673,
			"0.001": 12.9564003657,
			"0.002": 9.74732588525,
			"0.003": 8.7468500972,
			"0.004": 7.56599077649,
			"0.005": 5.00017569928,
			"0.006": 4.83423089532,
			"0.007": 3.3526786222,
			"0.008": 1.98693142265,
			"0.009": 1.59915238787,
			"0.01": 2.28014657715,
			"0.011": 1.97009144507,
			"0.012": 2.48544720054,
			"0.013": 2.98720951336,
			"0.014": 3.80198835443,
			"0.015": 2.64261906922,
			"0.016": 2.22182668569,
			"0.017": 0.689287088954,
			"0.018": 0.0,
			"0.019": 0.0,
			"0.02": 0.0,
			"0.021": 0.0,
			"0.022": 0.0,
			"0.023": 0.0,
			"0.024": 0.0,
			"0.025": 0.0
		}
	}
}
