{
	 "smiles": "CCOC(=O)C1=NN(C(C)=C1C(=O)C1=NOC(=C1S(=O)(=O)C1=CC=CC=C1)C1=CC2=C(C=CC=C2)C=C1)C1=CC=C(C)C=C1", 
	 "Tm": 445.15, 
	 "num_atms": 71, 
	 "gaussian": { 
		 "optdone": 1, 
		 "sigma_profile": "yes", 
		 "theory": "DFT", 
		 "functional": "B3LYP", 
		 "basiset": "6-31G**", 
		 "properties": { 
			 "R2extent": 31738.9768, 
			 "electric_dipole_moment_norm": 7.69115251507, 
			 "electric_quadrupole_moment_norm": 22.2448675489, 
			 "total_energy": -2325.5591557, 
			 "HOMO_LUMO_gap": 0.15247, 
			 "cosmo_polarized_energy": -28.96, 
			 "cosmo_cavitation_energy": 77.04, 
			 "cosmo_dispersion_energy": -49.54, 
			 "cosmo_repulsion_energy": 3.61, 
			 "cosmo_total_nonelectrostatic_energy": 31.11, 
			 "SMD_solvation_energy": 11.84 
		},
		"coords": [
			{
				"x": 5.5444340672,
				"y": -4.1560712961,
				"z": 2.5614880965,
				"element": "C" 
			},
			{
				"x": 4.4511037681,
				"y": -3.4769890533,
				"z": 3.3627892884,
				"element": "C" 
			},
			{
				"x": 3.2793054891,
				"y": -3.3967274447,
				"z": 2.513732042,
				"element": "O" 
			},
			{
				"x": 2.2159715956,
				"y": -2.7830539513,
				"z": 3.0457802333,
				"element": "C" 
			},
			{
				"x": 2.1340719404,
				"y": -2.3974195663,
				"z": 4.1923856594,
				"element": "O" 
			},
			{
				"x": 1.1122875541,
				"y": -2.6423706986,
				"z": 2.0379562534,
				"element": "C" 
			},
			{
				"x": 0.0364470474,
				"y": -3.3979344571,
				"z": 2.1216458343,
				"element": "N" 
			},
			{
				"x": -0.7793962792,
				"y": -2.9573198774,
				"z": 1.1116638742,
				"element": "N" 
			},
			{
				"x": -0.2300720604,
				"y": -1.9435200148,
				"z": 0.3849207611,
				"element": "C" 
			},
			{
				"x": -0.9137993916,
				"y": -1.3265445752,
				"z": -0.7947071433,
				"element": "C" 
			},
			{
				"x": 1.0231340688,
				"y": -1.6990966407,
				"z": 0.9693844148,
				"element": "C" 
			},
			{
				"x": 2.0384536019,
				"y": -0.6794021672,
				"z": 0.738473492,
				"element": "C" 
			},
			{
				"x": 3.022132656,
				"y": -0.5706825996,
				"z": 1.4629727433,
				"element": "O" 
			},
			{
				"x": 1.9203859344,
				"y": 0.3162641852,
				"z": -0.3918673682,
				"element": "C" 
			},
			{
				"x": 1.9353012077,
				"y": -0.1142445842,
				"z": -1.6309389514,
				"element": "N" 
			},
			{
				"x": 1.9881358407,
				"y": 1.0287213423,
				"z": -2.4271832324,
				"element": "O" 
			},
			{
				"x": 1.9896638559,
				"y": 2.1405713123,
				"z": -1.6540420863,
				"element": "C" 
			},
			{
				"x": 1.9335235953,
				"y": 1.7473407515,
				"z": -0.3316078113,
				"element": "C" 
			},
			{
				"x": 1.8004486117,
				"y": 2.8184853777,
				"z": 1.1037521208,
				"element": "S" 
			},
			{
				"x": 1.0984886319,
				"y": 4.0277856058,
				"z": 0.6449092464,
				"element": "O" 
			},
			{
				"x": 3.1173933451,
				"y": 2.9219427156,
				"z": 1.7432262277,
				"element": "O" 
			},
			{
				"x": 0.6870123962,
				"y": 1.9365019405,
				"z": 2.203111557,
				"element": "C" 
			},
			{
				"x": -0.6911787762,
				"y": 2.087554658,
				"z": 2.0172048604,
				"element": "C" 
			},
			{
				"x": -1.5604851002,
				"y": 1.4169278439,
				"z": 2.8765485367,
				"element": "C" 
			},
			{
				"x": -1.0507531658,
				"y": 0.6094324171,
				"z": 3.898810942,
				"element": "C" 
			},
			{
				"x": 0.3276446135,
				"y": 0.4795636162,
				"z": 4.080769764,
				"element": "C" 
			},
			{
				"x": 1.2096200867,
				"y": 1.1567732281,
				"z": 3.2362277542,
				"element": "C" 
			},
			{
				"x": 2.0688070799,
				"y": 3.4102264717,
				"z": -2.3778166776,
				"element": "C" 
			},
			{
				"x": 1.5029178022,
				"y": 3.5050215597,
				"z": -3.640384999,
				"element": "C" 
			},
			{
				"x": 1.5844814712,
				"y": 4.7025792021,
				"z": -4.3910104379,
				"element": "C" 
			},
			{
				"x": 2.2759405936,
				"y": 5.8264611399,
				"z": -3.8317531279,
				"element": "C" 
			},
			{
				"x": 2.3567421966,
				"y": 7.0260261325,
				"z": -4.5870315316,
				"element": "C" 
			},
			{
				"x": 1.7808234981,
				"y": 7.1117054224,
				"z": -5.8351190614,
				"element": "C" 
			},
			{
				"x": 1.0967156375,
				"y": 6.0004767023,
				"z": -6.3884498038,
				"element": "C" 
			},
			{
				"x": 1.0008836767,
				"y": 4.8233136335,
				"z": -5.6823359429,
				"element": "C" 
			},
			{
				"x": 2.8613728942,
				"y": 5.695310201,
				"z": -2.5431744688,
				"element": "C" 
			},
			{
				"x": 2.7651611201,
				"y": 4.5264340371,
				"z": -1.8301648308,
				"element": "C" 
			},
			{
				"x": -2.0456045926,
				"y": -3.5996156696,
				"z": 0.9511331349,
				"element": "C" 
			},
			{
				"x": -2.0978805552,
				"y": -4.9961476509,
				"z": 0.9294575543,
				"element": "C" 
			},
			{
				"x": -3.327409096,
				"y": -5.6342501619,
				"z": 0.8000004858,
				"element": "C" 
			},
			{
				"x": -4.5207197846,
				"y": -4.9050192501,
				"z": 0.6830893608,
				"element": "C" 
			},
			{
				"x": -5.8441717602,
				"y": -5.6107892814,
				"z": 0.5091679898,
				"element": "C" 
			},
			{
				"x": -4.4444748773,
				"y": -3.5076080227,
				"z": 0.7211085717,
				"element": "C" 
			},
			{
				"x": -3.221382158,
				"y": -2.8521025539,
				"z": 0.8639590013,
				"element": "C" 
			},
			{
				"x": 5.7777650668,
				"y": -3.5826700791,
				"z": 1.6602004796,
				"element": "H" 
			},
			{
				"x": 5.243219315,
				"y": -5.1643205918,
				"z": 2.2626829929,
				"element": "H" 
			},
			{
				"x": 6.4529411027,
				"y": -4.2331446119,
				"z": 3.1669663067,
				"element": "H" 
			},
			{
				"x": 4.7274933125,
				"y": -2.4611053885,
				"z": 3.6602526,
				"element": "H" 
			},
			{
				"x": 4.1924575217,
				"y": -4.0347625571,
				"z": 4.268146406,
				"element": "H" 
			},
			{
				"x": -0.1980476327,
				"y": -1.1751451312,
				"z": -1.6031037261,
				"element": "H" 
			},
			{
				"x": -1.337597012,
				"y": -0.3485164341,
				"z": -0.5379584203,
				"element": "H" 
			},
			{
				"x": -1.7253003416,
				"y": -1.9627717221,
				"z": -1.1509120728,
				"element": "H" 
			},
			{
				"x": -1.062532957,
				"y": 2.7366260236,
				"z": 1.2312961485,
				"element": "H" 
			},
			{
				"x": -2.633742678,
				"y": 1.5311580492,
				"z": 2.7546879008,
				"element": "H" 
			},
			{
				"x": -1.7321586489,
				"y": 0.0797966365,
				"z": 4.5582400948,
				"element": "H" 
			},
			{
				"x": 0.72346667,
				"y": -0.1692926346,
				"z": 4.8542611376,
				"element": "H" 
			},
			{
				"x": 2.2824499613,
				"y": 1.0674014012,
				"z": 3.356603518,
				"element": "H" 
			},
			{
				"x": 0.9813335337,
				"y": 2.6527194812,
				"z": -4.0646361194,
				"element": "H" 
			},
			{
				"x": 2.8814651136,
				"y": 7.8776397339,
				"z": -4.162234257,
				"element": "H" 
			},
			{
				"x": 1.8488813048,
				"y": 8.0352468401,
				"z": -6.4026700826,
				"element": "H" 
			},
			{
				"x": 0.648286811,
				"y": 6.0829284502,
				"z": -7.3740888533,
				"element": "H" 
			},
			{
				"x": 0.4782202618,
				"y": 3.968033735,
				"z": -6.1026455902,
				"element": "H" 
			},
			{
				"x": 3.3985353049,
				"y": 6.5409429352,
				"z": -2.1229781739,
				"element": "H" 
			},
			{
				"x": 3.2333448378,
				"y": 4.4451813907,
				"z": -0.8572088232,
				"element": "H" 
			},
			{
				"x": -1.1789574947,
				"y": -5.5629559382,
				"z": 1.0269884059,
				"element": "H" 
			},
			{
				"x": -3.3613037805,
				"y": -6.720479083,
				"z": 0.7872674126,
				"element": "H" 
			},
			{
				"x": -5.9862684394,
				"y": -5.9326024004,
				"z": -0.5299308467,
				"element": "H" 
			},
			{
				"x": -6.6829494826,
				"y": -4.9587104048,
				"z": 0.7679759745,
				"element": "H" 
			},
			{
				"x": -5.9046121279,
				"y": -6.5063079079,
				"z": 1.1354178864,
				"element": "H" 
			},
			{
				"x": -5.3558740321,
				"y": -2.9194634913,
				"z": 0.6556574805,
				"element": "H" 
			},
			{
				"x": -3.1837937704,
				"y": -1.7702362801,
				"z": 0.9339398948,
				"element": "H" 
			}
		],
		 "valence_orbital": [ 
			{
				"type": "occ",
				"energy": -0.26377,
				"method": "rhf"
			},
			{
				"type": "occ",
				"energy": -0.26022,
				"method": "rhf"
			},
			{
				"type": "occ",
				"energy": -0.24577,
				"method": "rhf"
			},
			{
				"type": "occ",
				"energy": -0.24367,
				"method": "rhf"
			},
			{
				"type": "occ",
				"energy": -0.2229,
				"method": "rhf"
			},
			{
				"type": "unocc",
				"energy": -0.07043,
				"method": "rhf"
			},
			{
				"type": "unocc",
				"energy": -0.06465,
				"method": "rhf"
			},
			{
				"type": "unocc",
				"energy": -0.03783,
				"method": "rhf"
			},
			{
				"type": "unocc",
				"energy": -0.03307,
				"method": "rhf"
			},
			{
				"type": "unocc",
				"energy": -0.02987,
				"method": "rhf"
			}
		],
		"cosmo_sigma_profile": { 
			"-0.025": 0.0,
			"-0.024": 0.0,
			"-0.023": 0.0,
			"-0.022": 0.0,
			"-0.021": 0.0,
			"-0.02": 0.0,
			"-0.019": 0.0,
			"-0.018": 0.0,
			"-0.017": 0.0,
			"-0.016": 0.0,
			"-0.015": 0.0,
			"-0.014": 0.0,
			"-0.013": 0.0,
			"-0.012": 0.0,
			"-0.011": 0.0,
			"-0.01": 0.0,
			"-0.009": 0.0,
			"-0.008": 0.862233643754,
			"-0.007": 13.6703543421,
			"-0.006": 34.4332630659,
			"-0.005": 51.9283524667,
			"-0.004": 59.4214933253,
			"-0.003": 53.5421335353,
			"-0.002": 50.5329996891,
			"-0.001": 48.7595104647,
			"0.0": 46.1808650454,
			"0.001": 40.639212458,
			"0.002": 47.0543251651,
			"0.003": 44.4789214251,
			"0.004": 34.7412010801,
			"0.005": 17.4562592461,
			"0.006": 13.3360463053,
			"0.007": 11.6555583376,
			"0.008": 10.1669742179,
			"0.009": 11.1918108493,
			"0.01": 13.2160198826,
			"0.011": 11.9337955485,
			"0.012": 1.4905817884,
			"0.013": 0.528114698877,
			"0.014": 0.0,
			"0.015": 0.0,
			"0.016": 0.0,
			"0.017": 0.0,
			"0.018": 0.0,
			"0.019": 0.0,
			"0.02": 0.0,
			"0.021": 0.0,
			"0.022": 0.0,
			"0.023": 0.0,
			"0.024": 0.0,
			"0.025": 0.0
		}
	}
}
