{
	 "smiles": "CC1=CC=NC(=C1)C1=CC(C)=CC=N1", 
	 "Tm": 447.15, 
	 "num_atms": 26, 
	 "gaussian": { 
		 "optdone": 1, 
		 "sigma_profile": "yes", 
		 "theory": "DFT", 
		 "functional": "B3LYP", 
		 "basiset": "6-31G**", 
		 "properties": { 
			 "R2extent": 3725.7659, 
			 "electric_dipole_moment_norm": 0.0899579346139, 
			 "electric_quadrupole_moment_norm": 12.3695872114, 
			 "total_energy": -574.031690484, 
			 "HOMO_LUMO_gap": 0.18428, 
			 "cosmo_polarized_energy": -7.95, 
			 "cosmo_cavitation_energy": 29.78, 
			 "cosmo_dispersion_energy": -21.95, 
			 "cosmo_repulsion_energy": 1.72, 
			 "cosmo_total_nonelectrostatic_energy": 9.56, 
			 "SMD_solvation_energy": 3.25 
		},
		"coords": [
			{
				"x": 3.4438732748,
				"y": 2.2368479399,
				"z": -3.030274365,
				"element": "C" 
			},
			{
				"x": 2.1891098483,
				"y": 2.2656214626,
				"z": -2.1931701934,
				"element": "C" 
			},
			{
				"x": 1.3172341243,
				"y": 3.3619146996,
				"z": -2.2239438927,
				"element": "C" 
			},
			{
				"x": 0.1834502659,
				"y": 3.3479144943,
				"z": -1.413499596,
				"element": "C" 
			},
			{
				"x": -0.1345682675,
				"y": 2.3407473856,
				"z": -0.5958072863,
				"element": "N" 
			},
			{
				"x": 0.6951364348,
				"y": 1.2828363138,
				"z": -0.561229957,
				"element": "C" 
			},
			{
				"x": 1.8576187351,
				"y": 1.2106333515,
				"z": -1.3414290455,
				"element": "C" 
			},
			{
				"x": 0.326127562,
				"y": 0.1645298706,
				"z": 0.3535734277,
				"element": "C" 
			},
			{
				"x": -0.8386458128,
				"y": 0.2348923559,
				"z": 1.1306123378,
				"element": "C" 
			},
			{
				"x": -1.1704106779,
				"y": -0.8202479362,
				"z": 1.9819706295,
				"element": "C" 
			},
			{
				"x": -2.4019241761,
				"y": -0.7724269947,
				"z": 2.8520890684,
				"element": "C" 
			},
			{
				"x": -0.301246037,
				"y": -1.9188629963,
				"z": 2.0088968524,
				"element": "C" 
			},
			{
				"x": 0.8347010861,
				"y": -1.9030560769,
				"z": 1.2016088961,
				"element": "C" 
			},
			{
				"x": 1.1556776095,
				"y": -0.8934449587,
				"z": 0.3880210582,
				"element": "N" 
			},
			{
				"x": 3.2669421011,
				"y": 2.6491920538,
				"z": -4.0286898548,
				"element": "H" 
			},
			{
				"x": 3.8264436168,
				"y": 1.2187916535,
				"z": -3.1404592437,
				"element": "H" 
			},
			{
				"x": 4.2345303767,
				"y": 2.8392744911,
				"z": -2.5664997444,
				"element": "H" 
			},
			{
				"x": 1.5146416421,
				"y": 4.2132497657,
				"z": -2.8696764137,
				"element": "H" 
			},
			{
				"x": -0.5064213728,
				"y": 4.1906353308,
				"z": -1.4251551384,
				"element": "H" 
			},
			{
				"x": 2.4793421386,
				"y": 0.3257349783,
				"z": -1.2664343731,
				"element": "H" 
			},
			{
				"x": -1.4639827641,
				"y": 1.1167788089,
				"z": 1.0504596009,
				"element": "H" 
			},
			{
				"x": -2.1384102704,
				"y": -0.5149066372,
				"z": 3.8852085929,
				"element": "H" 
			},
			{
				"x": -2.90835347,
				"y": -1.7424921487,
				"z": 2.8801139756,
				"element": "H" 
			},
			{
				"x": -3.1130102667,
				"y": -0.0225409896,
				"z": 2.4958466257,
				"element": "H" 
			},
			{
				"x": -0.5048024735,
				"y": -2.7753133836,
				"z": 2.6459055767,
				"element": "H" 
			},
			{
				"x": 1.5210467726,
				"y": -2.7487028339,
				"z": 1.2082624621,
				"element": "H" 
			}
		],
		 "valence_orbital": [ 
			{
				"type": "occ",
				"energy": -0.2702,
				"method": "rhf"
			},
			{
				"type": "occ",
				"energy": -0.26291,
				"method": "rhf"
			},
			{
				"type": "occ",
				"energy": -0.25875,
				"method": "rhf"
			},
			{
				"type": "occ",
				"energy": -0.24278,
				"method": "rhf"
			},
			{
				"type": "occ",
				"energy": -0.22862,
				"method": "rhf"
			},
			{
				"type": "unocc",
				"energy": -0.04434,
				"method": "rhf"
			},
			{
				"type": "unocc",
				"energy": -0.01789,
				"method": "rhf"
			},
			{
				"type": "unocc",
				"energy": -0.00086,
				"method": "rhf"
			},
			{
				"type": "unocc",
				"energy": 0.03196,
				"method": "rhf"
			},
			{
				"type": "unocc",
				"energy": 0.10605,
				"method": "rhf"
			}
		],
		"cosmo_sigma_profile": { 
			"-0.025": 0.0,
			"-0.024": 0.0,
			"-0.023": 0.0,
			"-0.022": 0.0,
			"-0.021": 0.0,
			"-0.02": 0.0,
			"-0.019": 0.0,
			"-0.018": 0.0,
			"-0.017": 0.0,
			"-0.016": 0.0,
			"-0.015": 0.0,
			"-0.014": 0.0,
			"-0.013": 0.0,
			"-0.012": 0.0,
			"-0.011": 0.0,
			"-0.01": 0.0,
			"-0.009": 0.0,
			"-0.008": 0.0,
			"-0.007": 0.871220404356,
			"-0.006": 8.02133076071,
			"-0.005": 19.8646109245,
			"-0.004": 25.2689134547,
			"-0.003": 19.1161235875,
			"-0.002": 21.6334259628,
			"-0.001": 22.3625110699,
			"0.0": 21.5099877459,
			"0.001": 14.1752708364,
			"0.002": 23.4880737517,
			"0.003": 29.5911048154,
			"0.004": 6.50862575128,
			"0.005": 5.2719552176,
			"0.006": 3.13504528556,
			"0.007": 2.89927208914,
			"0.008": 4.29364625301,
			"0.009": 3.4361238318,
			"0.01": 1.28187842567,
			"0.011": 2.48737404462,
			"0.012": 2.25963297371,
			"0.013": 0.268454402635,
			"0.014": 0.0,
			"0.015": 0.0,
			"0.016": 0.0,
			"0.017": 0.0,
			"0.018": 0.0,
			"0.019": 0.0,
			"0.02": 0.0,
			"0.021": 0.0,
			"0.022": 0.0,
			"0.023": 0.0,
			"0.024": 0.0,
			"0.025": 0.0
		}
	}
}
