{
	 "smiles": "O=C=NC1CCC(CC1)N=C=O", 
	 "Tm": 334.65, 
	 "num_atms": 22, 
	 "gaussian": { 
		 "optdone": 1, 
		 "sigma_profile": "yes", 
		 "theory": "DFT", 
		 "functional": "B3LYP", 
		 "basiset": "6-31G**", 
		 "properties": { 
			 "R2extent": 2980.5943, 
			 "electric_dipole_moment_norm": 0.0, 
			 "electric_quadrupole_moment_norm": 21.41077932, 
			 "total_energy": -570.839636347, 
			 "HOMO_LUMO_gap": 0.28575, 
			 "cosmo_polarized_energy": -7.56, 
			 "cosmo_cavitation_energy": 26.46, 
			 "cosmo_dispersion_energy": -18.44, 
			 "cosmo_repulsion_energy": 1.5, 
			 "cosmo_total_nonelectrostatic_energy": 9.52, 
			 "SMD_solvation_energy": 8.22 
		},
		"coords": [
			{
				"x": -1.6768012304,
				"y": 2.6001731731,
				"z": 2.5021233489,
				"element": "O" 
			},
			{
				"x": -1.1904250537,
				"y": 1.9180298728,
				"z": 1.669061798,
				"element": "C" 
			},
			{
				"x": -0.577155778,
				"y": 1.2844207145,
				"z": 0.8443053817,
				"element": "N" 
			},
			{
				"x": -0.8353838532,
				"y": 0.2238012631,
				"z": -0.1305963183,
				"element": "C" 
			},
			{
				"x": 0.0277805967,
				"y": -1.0063361849,
				"z": 0.2042401963,
				"element": "C" 
			},
			{
				"x": 1.5247663786,
				"y": -0.7263663564,
				"z": 0.0172469296,
				"element": "C" 
			},
			{
				"x": 1.8432951566,
				"y": -0.2139972086,
				"z": -1.3991805458,
				"element": "C" 
			},
			{
				"x": 0.9801314632,
				"y": 1.0161407634,
				"z": -1.7340166991,
				"element": "C" 
			},
			{
				"x": -0.5168544709,
				"y": 0.73617137,
				"z": -1.5470235594,
				"element": "C" 
			},
			{
				"x": 1.5850651105,
				"y": -1.2746184856,
				"z": -2.3740808841,
				"element": "N" 
			},
			{
				"x": 2.1983328777,
				"y": -1.9082043026,
				"z": -3.198856918,
				"element": "C" 
			},
			{
				"x": 2.6846886305,
				"y": -2.5903372997,
				"z": -4.0319385505,
				"element": "O" 
			},
			{
				"x": -1.8944230427,
				"y": -0.0544101876,
				"z": -0.0780188239,
				"element": "H" 
			},
			{
				"x": -0.1727550741,
				"y": -1.3288886204,
				"z": 1.2310779504,
				"element": "H" 
			},
			{
				"x": -0.2783351579,
				"y": -1.8226317557,
				"z": -0.4602568253,
				"element": "H" 
			},
			{
				"x": 2.1084305346,
				"y": -1.6296609402,
				"z": 0.2222998147,
				"element": "H" 
			},
			{
				"x": 1.8466977174,
				"y": 0.0397625713,
				"z": 0.7320966831,
				"element": "H" 
			},
			{
				"x": 2.9023345127,
				"y": 0.0642132907,
				"z": -1.4517586078,
				"element": "H" 
			},
			{
				"x": 1.1806672849,
				"y": 1.3386932377,
				"z": -2.7608544216,
				"element": "H" 
			},
			{
				"x": 1.2862474489,
				"y": 1.8324362923,
				"z": -1.06951966,
				"element": "H" 
			},
			{
				"x": -0.8387857311,
				"y": -0.0299573423,
				"z": -2.2618735663,
				"element": "H" 
			},
			{
				"x": -1.1005183204,
				"y": 1.6394661351,
				"z": -1.7520767223,
				"element": "H" 
			}
		],
		 "valence_orbital": [ 
			{
				"type": "occ",
				"energy": -0.33604,
				"method": "rhf"
			},
			{
				"type": "occ",
				"energy": -0.29712,
				"method": "rhf"
			},
			{
				"type": "occ",
				"energy": -0.28903,
				"method": "rhf"
			},
			{
				"type": "occ",
				"energy": -0.28135,
				"method": "rhf"
			},
			{
				"type": "occ",
				"energy": -0.27318,
				"method": "rhf"
			},
			{
				"type": "unocc",
				"energy": 0.01257,
				"method": "rhf"
			},
			{
				"type": "unocc",
				"energy": 0.01428,
				"method": "rhf"
			},
			{
				"type": "unocc",
				"energy": 0.0596,
				"method": "rhf"
			},
			{
				"type": "unocc",
				"energy": 0.07183,
				"method": "rhf"
			},
			{
				"type": "unocc",
				"energy": 0.08581,
				"method": "rhf"
			}
		],
		"cosmo_sigma_profile": { 
			"-0.025": 0.0,
			"-0.024": 0.0,
			"-0.023": 0.0,
			"-0.022": 0.0,
			"-0.021": 0.0,
			"-0.02": 0.0,
			"-0.019": 0.0,
			"-0.018": 0.0,
			"-0.017": 0.0,
			"-0.016": 0.0,
			"-0.015": 0.0,
			"-0.014": 0.0,
			"-0.013": 0.0,
			"-0.012": 0.0,
			"-0.011": 0.0,
			"-0.01": 0.0,
			"-0.009": 0.0,
			"-0.008": 0.0,
			"-0.007": 1.05815312974,
			"-0.006": 7.49239371355,
			"-0.005": 8.29521307375,
			"-0.004": 21.0158768568,
			"-0.003": 28.0185390918,
			"-0.002": 24.8531262374,
			"-0.001": 30.4065954491,
			"0.0": 17.9410123874,
			"0.001": 10.590908402,
			"0.002": 9.27192492329,
			"0.003": 8.35073006124,
			"0.004": 6.91101997457,
			"0.005": 4.52272526441,
			"0.006": 5.13524520753,
			"0.007": 4.15371597876,
			"0.008": 13.3295063845,
			"0.009": 8.34263950805,
			"0.01": 0.0,
			"0.011": 0.0,
			"0.012": 0.0,
			"0.013": 0.0,
			"0.014": 0.0,
			"0.015": 0.0,
			"0.016": 0.0,
			"0.017": 0.0,
			"0.018": 0.0,
			"0.019": 0.0,
			"0.02": 0.0,
			"0.021": 0.0,
			"0.022": 0.0,
			"0.023": 0.0,
			"0.024": 0.0,
			"0.025": 0.0
		}
	}
}
