{
	 "smiles": "COC1=CC=C(C=C(CC(O)=O)C(O)=O)C=C1", 
	 "Tm": 460.15, 
	 "num_atms": 29, 
	 "gaussian": { 
		 "optdone": 1, 
		 "sigma_profile": "yes", 
		 "theory": "DFT", 
		 "functional": "B3LYP", 
		 "basiset": "6-31G**", 
		 "properties": { 
			 "R2extent": 6010.4091, 
			 "electric_dipole_moment_norm": 5.11984110398, 
			 "electric_quadrupole_moment_norm": 18.7112840436, 
			 "total_energy": -840.627233835, 
			 "HOMO_LUMO_gap": 0.15558, 
			 "cosmo_polarized_energy": -19.76, 
			 "cosmo_cavitation_energy": 34.37, 
			 "cosmo_dispersion_energy": -24.33, 
			 "cosmo_repulsion_energy": 1.92, 
			 "cosmo_total_nonelectrostatic_energy": 11.96, 
			 "SMD_solvation_energy": 8.89 
		},
		"coords": [
			{
				"x": 0.5204063931,
				"y": -1.8168045551,
				"z": 4.7918898274,
				"element": "C" 
			},
			{
				"x": 1.2060859321,
				"y": -2.3267863943,
				"z": 3.6573306403,
				"element": "O" 
			},
			{
				"x": 1.0546867071,
				"y": -1.6869150849,
				"z": 2.4662882038,
				"element": "C" 
			},
			{
				"x": 0.2573996202,
				"y": -0.5515601451,
				"z": 2.2651020092,
				"element": "C" 
			},
			{
				"x": 0.1807812266,
				"y": 0.0289808439,
				"z": 1.0011541236,
				"element": "C" 
			},
			{
				"x": 0.8840292355,
				"y": -0.4981352495,
				"z": -0.0935141128,
				"element": "C" 
			},
			{
				"x": 0.8009360311,
				"y": 0.0137941574,
				"z": -1.4652903983,
				"element": "C" 
			},
			{
				"x": 0.6298994652,
				"y": 1.2456332183,
				"z": -2.0045350215,
				"element": "C" 
			},
			{
				"x": 0.4657729361,
				"y": 1.3982004164,
				"z": -3.5023169463,
				"element": "C" 
			},
			{
				"x": -0.8921594133,
				"y": 1.9079881899,
				"z": -3.9675762513,
				"element": "C" 
			},
			{
				"x": -1.8955920452,
				"y": 1.5766270741,
				"z": -3.1206351819,
				"element": "O" 
			},
			{
				"x": -1.0820145253,
				"y": 2.4932945081,
				"z": -5.0087198539,
				"element": "O" 
			},
			{
				"x": 0.6259616275,
				"y": 2.5583355131,
				"z": -1.3124054197,
				"element": "C" 
			},
			{
				"x": 1.078841313,
				"y": 2.5596921315,
				"z": -0.0360106982,
				"element": "O" 
			},
			{
				"x": 0.2979782255,
				"y": 3.5930545879,
				"z": -1.8675149429,
				"element": "O" 
			},
			{
				"x": 1.6468521497,
				"y": -1.6659327662,
				"z": 0.1263434116,
				"element": "C" 
			},
			{
				"x": 1.7495877874,
				"y": -2.2435629154,
				"z": 1.3809131642,
				"element": "C" 
			},
			{
				"x": 0.8311113593,
				"y": -0.7903344025,
				"z": 5.0237063594,
				"element": "H" 
			},
			{
				"x": -0.5675231189,
				"y": -1.84027289,
				"z": 4.6507395889,
				"element": "H" 
			},
			{
				"x": 0.7886082324,
				"y": -2.4699556983,
				"z": 5.6233992473,
				"element": "H" 
			},
			{
				"x": -0.3116995422,
				"y": -0.1195206306,
				"z": 3.0795794599,
				"element": "H" 
			},
			{
				"x": -0.4509668163,
				"y": 0.8969223048,
				"z": 0.8635019211,
				"element": "H" 
			},
			{
				"x": 0.8847432348,
				"y": -0.7837473871,
				"z": -2.2052408025,
				"element": "H" 
			},
			{
				"x": 1.1974185609,
				"y": 2.0941543859,
				"z": -3.9207333417,
				"element": "H" 
			},
			{
				"x": 0.6179774244,
				"y": 0.4297427103,
				"z": -3.9926102387,
				"element": "H" 
			},
			{
				"x": -2.7043211288,
				"y": 1.9394951094,
				"z": -3.519376505,
				"element": "H" 
			},
			{
				"x": 1.0511430477,
				"y": 3.4904583101,
				"z": 0.2425260866,
				"element": "H" 
			},
			{
				"x": 2.1779211697,
				"y": -2.116565186,
				"z": -0.7083118911,
				"element": "H" 
			},
			{
				"x": 2.3496349106,
				"y": -3.131780156,
				"z": 1.5481175623,
				"element": "H" 
			}
		],
		 "valence_orbital": [ 
			{
				"type": "occ",
				"energy": -0.28715,
				"method": "rhf"
			},
			{
				"type": "occ",
				"energy": -0.27656,
				"method": "rhf"
			},
			{
				"type": "occ",
				"energy": -0.26305,
				"method": "rhf"
			},
			{
				"type": "occ",
				"energy": -0.25863,
				"method": "rhf"
			},
			{
				"type": "occ",
				"energy": -0.21638,
				"method": "rhf"
			},
			{
				"type": "unocc",
				"energy": -0.0608,
				"method": "rhf"
			},
			{
				"type": "unocc",
				"energy": -0.0077,
				"method": "rhf"
			},
			{
				"type": "unocc",
				"energy": 0.01818,
				"method": "rhf"
			},
			{
				"type": "unocc",
				"energy": 0.02084,
				"method": "rhf"
			},
			{
				"type": "unocc",
				"energy": 0.07561,
				"method": "rhf"
			}
		],
		"cosmo_sigma_profile": { 
			"-0.025": 0.0,
			"-0.024": 0.0,
			"-0.023": 0.0,
			"-0.022": 0.0,
			"-0.021": 0.0,
			"-0.02": 0.0,
			"-0.019": 0.0217014213304,
			"-0.018": 1.19081649874,
			"-0.017": 1.56195980114,
			"-0.016": 1.98402931053,
			"-0.015": 1.94487695608,
			"-0.014": 0.78119366008,
			"-0.013": 1.26624612904,
			"-0.012": 1.51412931814,
			"-0.011": 1.6369042199,
			"-0.01": 1.27829673961,
			"-0.009": 1.34305710918,
			"-0.008": 4.13119230352,
			"-0.007": 8.90454593644,
			"-0.006": 17.6840956468,
			"-0.005": 22.409680645,
			"-0.004": 21.8302314024,
			"-0.003": 20.240070043,
			"-0.002": 14.7288400269,
			"-0.001": 12.1891636835,
			"0.0": 11.9489512517,
			"0.001": 12.1053064183,
			"0.002": 13.6992667763,
			"0.003": 14.9570863383,
			"0.004": 17.2695184196,
			"0.005": 12.4735005082,
			"0.006": 8.59353908885,
			"0.007": 7.117314445,
			"0.008": 8.49557969552,
			"0.009": 7.36535679303,
			"0.01": 5.92536824746,
			"0.011": 6.90474537226,
			"0.012": 7.97353349844,
			"0.013": 1.26871070981,
			"0.014": 0.0,
			"0.015": 0.0,
			"0.016": 0.0,
			"0.017": 0.0,
			"0.018": 0.0,
			"0.019": 0.0,
			"0.02": 0.0,
			"0.021": 0.0,
			"0.022": 0.0,
			"0.023": 0.0,
			"0.024": 0.0,
			"0.025": 0.0
		}
	}
}
