{
	 "smiles": "CC1=NC=CN1C1=C(N)C=C(C=C1)C(F)(F)F", 
	 "Tm": 457.15, 
	 "num_atms": 27, 
	 "gaussian": { 
		 "optdone": 1, 
		 "sigma_profile": "yes", 
		 "theory": "DFT", 
		 "functional": "B3LYP", 
		 "basiset": "6-31G**", 
		 "properties": { 
			 "R2extent": 5210.3789, 
			 "electric_dipole_moment_norm": 1.98072765165, 
			 "electric_quadrupole_moment_norm": 22.3891599657, 
			 "total_energy": -888.984543379, 
			 "HOMO_LUMO_gap": 0.18472, 
			 "cosmo_polarized_energy": -13.15, 
			 "cosmo_cavitation_energy": 32.54, 
			 "cosmo_dispersion_energy": -22.44, 
			 "cosmo_repulsion_energy": 1.68, 
			 "cosmo_total_nonelectrostatic_energy": 11.77, 
			 "SMD_solvation_energy": 5.92 
		},
		"coords": [
			{
				"x": -2.5035822005,
				"y": 0.3792206452,
				"z": -0.44042611,
				"element": "C" 
			},
			{
				"x": -1.7324430679,
				"y": 1.6590005209,
				"z": -0.4318816486,
				"element": "C" 
			},
			{
				"x": -2.2321657232,
				"y": 2.8602858398,
				"z": -0.6382214635,
				"element": "N" 
			},
			{
				"x": -1.1691998895,
				"y": 3.7342244958,
				"z": -0.5618086434,
				"element": "C" 
			},
			{
				"x": -0.0055713039,
				"y": 3.0609279068,
				"z": -0.3063757778,
				"element": "C" 
			},
			{
				"x": -0.3650868858,
				"y": 1.7194652465,
				"z": -0.2138818983,
				"element": "N" 
			},
			{
				"x": 0.5292525798,
				"y": 0.6286275885,
				"z": 0.0113049477,
				"element": "C" 
			},
			{
				"x": 0.5397263574,
				"y": -0.0106865499,
				"z": 1.2719955823,
				"element": "C" 
			},
			{
				"x": -0.3468519171,
				"y": 0.3677081699,
				"z": 2.2672898782,
				"element": "N" 
			},
			{
				"x": 1.4376426359,
				"y": -1.0737192673,
				"z": 1.4654682318,
				"element": "C" 
			},
			{
				"x": 2.2967374378,
				"y": -1.4732223407,
				"z": 0.4455897879,
				"element": "C" 
			},
			{
				"x": 2.288502796,
				"y": -0.8317410337,
				"z": -0.7966547537,
				"element": "C" 
			},
			{
				"x": 1.3965937471,
				"y": 0.2168641084,
				"z": -1.0013650794,
				"element": "C" 
			},
			{
				"x": 3.2957223106,
				"y": -2.5694508055,
				"z": 0.7087004735,
				"element": "C" 
			},
			{
				"x": 3.5577118374,
				"y": -3.2869901612,
				"z": -0.4050541075,
				"element": "F" 
			},
			{
				"x": 2.865868065,
				"y": -3.4315814209,
				"z": 1.6569146067,
				"element": "F" 
			},
			{
				"x": 4.4772246455,
				"y": -2.0690206285,
				"z": 1.1401290558,
				"element": "F" 
			},
			{
				"x": -2.125204934,
				"y": -0.3174033237,
				"z": -1.1968948731,
				"element": "H" 
			},
			{
				"x": -3.5443445064,
				"y": 0.6118513213,
				"z": -0.669200444,
				"element": "H" 
			},
			{
				"x": -2.4575309264,
				"y": -0.1290330385,
				"z": 0.5290963334,
				"element": "H" 
			},
			{
				"x": -1.3042200227,
				"y": 4.7988249729,
				"z": -0.695425734,
				"element": "H" 
			},
			{
				"x": 1.0176694299,
				"y": 3.377168343,
				"z": -0.1740914333,
				"element": "H" 
			},
			{
				"x": -0.7194049553,
				"y": 1.3043676152,
				"z": 2.1916531222,
				"element": "H" 
			},
			{
				"x": -0.0923453957,
				"y": 0.1091320506,
				"z": 3.2095092782,
				"element": "H" 
			},
			{
				"x": 1.4573090289,
				"y": -1.5898208147,
				"z": 2.4198762306,
				"element": "H" 
			},
			{
				"x": 2.9551526742,
				"y": -1.1554835061,
				"z": -1.586929356,
				"element": "H" 
			},
			{
				"x": 1.3563381829,
				"y": 0.7315840658,
				"z": -1.9561162058,
				"element": "H" 
			}
		],
		 "valence_orbital": [ 
			{
				"type": "occ",
				"energy": -0.28781,
				"method": "rhf"
			},
			{
				"type": "occ",
				"energy": -0.27088,
				"method": "rhf"
			},
			{
				"type": "occ",
				"energy": -0.2589,
				"method": "rhf"
			},
			{
				"type": "occ",
				"energy": -0.22845,
				"method": "rhf"
			},
			{
				"type": "occ",
				"energy": -0.22159,
				"method": "rhf"
			},
			{
				"type": "unocc",
				"energy": -0.03687,
				"method": "rhf"
			},
			{
				"type": "unocc",
				"energy": -0.01274,
				"method": "rhf"
			},
			{
				"type": "unocc",
				"energy": 0.02562,
				"method": "rhf"
			},
			{
				"type": "unocc",
				"energy": 0.06668,
				"method": "rhf"
			},
			{
				"type": "unocc",
				"energy": 0.07276,
				"method": "rhf"
			}
		],
		"cosmo_sigma_profile": { 
			"-0.025": 0.0,
			"-0.024": 0.0,
			"-0.023": 0.0,
			"-0.022": 0.0,
			"-0.021": 0.0,
			"-0.02": 0.0,
			"-0.019": 0.0,
			"-0.018": 0.0,
			"-0.017": 0.0,
			"-0.016": 0.0,
			"-0.015": 0.0,
			"-0.014": 0.565347580051,
			"-0.013": 1.57784456458,
			"-0.012": 2.23233523141,
			"-0.011": 2.31973377664,
			"-0.01": 2.60868456161,
			"-0.009": 2.69878257702,
			"-0.008": 4.81055556476,
			"-0.007": 6.960324373,
			"-0.006": 9.627728296,
			"-0.005": 12.5623878954,
			"-0.004": 12.9590980349,
			"-0.003": 17.4993053568,
			"-0.002": 16.6809526127,
			"-0.001": 21.1399463062,
			"0.0": 18.9224848065,
			"0.001": 17.838538885,
			"0.002": 28.6780150997,
			"0.003": 42.3029485716,
			"0.004": 11.0122900254,
			"0.005": 5.25973782904,
			"0.006": 4.35682742707,
			"0.007": 3.18789755411,
			"0.008": 2.10749740431,
			"0.009": 1.80318992748,
			"0.01": 1.771737689,
			"0.011": 1.08632143154,
			"0.012": 1.2127286116,
			"0.013": 1.09649063762,
			"0.014": 1.18519764793,
			"0.015": 1.28712119925,
			"0.016": 0.656561575749,
			"0.017": 1.01628723976,
			"0.018": 0.91206929831,
			"0.019": 0.106482798939,
			"0.02": 0.0,
			"0.021": 0.0,
			"0.022": 0.0,
			"0.023": 0.0,
			"0.024": 0.0,
			"0.025": 0.0
		}
	}
}
