{
	 "smiles": "OC1C=CC2C3CC4=CC=C(O)C5=C4C2(CCN3)C1O5", 
	 "Tm": 546.15, 
	 "num_atms": 37, 
	 "gaussian": { 
		 "optdone": 1, 
		 "sigma_profile": "yes", 
		 "theory": "DFT", 
		 "functional": "B3LYP", 
		 "basiset": "6-31G**", 
		 "properties": { 
			 "R2extent": 4571.372, 
			 "electric_dipole_moment_norm": 2.92170290926, 
			 "electric_quadrupole_moment_norm": 16.836925042, 
			 "total_energy": -900.301267873, 
			 "HOMO_LUMO_gap": 0.19942, 
			 "cosmo_polarized_energy": -19.09, 
			 "cosmo_cavitation_energy": 35.34, 
			 "cosmo_dispersion_energy": -26.25, 
			 "cosmo_repulsion_energy": 1.96, 
			 "cosmo_total_nonelectrostatic_energy": 11.05, 
			 "SMD_solvation_energy": 3.01 
		},
		"coords": [
			{
				"x": 0.7589415414,
				"y": 0.9055519663,
				"z": -3.9555039985,
				"element": "O" 
			},
			{
				"x": 0.1112677993,
				"y": 0.256159166,
				"z": -2.8705552987,
				"element": "C" 
			},
			{
				"x": 0.4658967257,
				"y": -1.2492674165,
				"z": -2.8388686313,
				"element": "C" 
			},
			{
				"x": 0.739538328,
				"y": -2.0043000085,
				"z": -1.7562416323,
				"element": "C" 
			},
			{
				"x": 0.773029497,
				"y": -1.406779784,
				"z": -0.358155402,
				"element": "C" 
			},
			{
				"x": 0.2857354402,
				"y": -2.1616717631,
				"z": 0.9167693787,
				"element": "C" 
			},
			{
				"x": 0.5881937867,
				"y": -1.2872101542,
				"z": 2.197043664,
				"element": "C" 
			},
			{
				"x": 0.4431140697,
				"y": 0.2297062184,
				"z": 2.0309386983,
				"element": "C" 
			},
			{
				"x": 0.654962062,
				"y": 1.2325979073,
				"z": 2.9932219726,
				"element": "C" 
			},
			{
				"x": 0.5916984605,
				"y": 2.5846288211,
				"z": 2.6234983233,
				"element": "C" 
			},
			{
				"x": 0.3721429983,
				"y": 3.0227986255,
				"z": 1.2984108853,
				"element": "C" 
			},
			{
				"x": 0.3700751343,
				"y": 4.3368631217,
				"z": 0.9287490618,
				"element": "O" 
			},
			{
				"x": 0.1749022512,
				"y": 2.0258254519,
				"z": 0.3425941666,
				"element": "C" 
			},
			{
				"x": 0.1741813909,
				"y": 0.7038532241,
				"z": 0.7636628507,
				"element": "C" 
			},
			{
				"x": -0.0633255472,
				"y": -0.143896361,
				"z": -0.4232092759,
				"element": "C" 
			},
			{
				"x": -1.5805486202,
				"y": -0.4822691785,
				"z": -0.5406342772,
				"element": "C" 
			},
			{
				"x": -2.0204365327,
				"y": -1.3698541505,
				"z": 0.6365837632,
				"element": "C" 
			},
			{
				"x": -1.1400661849,
				"y": -2.523186712,
				"z": 0.8723028129,
				"element": "N" 
			},
			{
				"x": 0.4684529043,
				"y": 0.7968375434,
				"z": -1.4956526737,
				"element": "C" 
			},
			{
				"x": 0.0532431322,
				"y": 2.1285349588,
				"z": -1.0424407428,
				"element": "O" 
			},
			{
				"x": 1.7127527545,
				"y": 0.8515641392,
				"z": -3.8036061951,
				"element": "H" 
			},
			{
				"x": -0.9580422255,
				"y": 0.3794485832,
				"z": -3.0766521603,
				"element": "H" 
			},
			{
				"x": 0.5104937472,
				"y": -1.6959143522,
				"z": -3.8306512584,
				"element": "H" 
			},
			{
				"x": 1.0117733682,
				"y": -3.050217387,
				"z": -1.8988866416,
				"element": "H" 
			},
			{
				"x": 1.8191997077,
				"y": -1.1199090167,
				"z": -0.1601873612,
				"element": "H" 
			},
			{
				"x": 0.8403366121,
				"y": -3.1002493859,
				"z": 1.0354560492,
				"element": "H" 
			},
			{
				"x": 1.6176770145,
				"y": -1.4995288446,
				"z": 2.5144025677,
				"element": "H" 
			},
			{
				"x": -0.0595513656,
				"y": -1.6653496095,
				"z": 2.9961164808,
				"element": "H" 
			},
			{
				"x": 0.8804543643,
				"y": 0.9825126785,
				"z": 4.0267475907,
				"element": "H" 
			},
			{
				"x": 0.7582016192,
				"y": 3.3438062965,
				"z": 3.3862695212,
				"element": "H" 
			},
			{
				"x": 0.5378715216,
				"y": 4.8801654267,
				"z": 1.709569839,
				"element": "H" 
			},
			{
				"x": -1.781281301,
				"y": -1.0127415215,
				"z": -1.4760967899,
				"element": "H" 
			},
			{
				"x": -2.1597089191,
				"y": 0.4477274835,
				"z": -0.5565564152,
				"element": "H" 
			},
			{
				"x": -3.0358340189,
				"y": -1.7447439374,
				"z": 0.4699893984,
				"element": "H" 
			},
			{
				"x": -2.0566497932,
				"y": -0.7755370536,
				"z": 1.5561910886,
				"element": "H" 
			},
			{
				"x": -1.2744453448,
				"y": -3.1989910231,
				"z": 0.1222687826,
				"element": "H" 
			},
			{
				"x": 1.5703536222,
				"y": 0.7943360479,
				"z": -1.4283881416,
				"element": "H" 
			}
		],
		 "valence_orbital": [ 
			{
				"type": "occ",
				"energy": -0.27595,
				"method": "rhf"
			},
			{
				"type": "occ",
				"energy": -0.25717,
				"method": "rhf"
			},
			{
				"type": "occ",
				"energy": -0.22559,
				"method": "rhf"
			},
			{
				"type": "occ",
				"energy": -0.21535,
				"method": "rhf"
			},
			{
				"type": "occ",
				"energy": -0.20373,
				"method": "rhf"
			},
			{
				"type": "unocc",
				"energy": -0.00431,
				"method": "rhf"
			},
			{
				"type": "unocc",
				"energy": 0.00556,
				"method": "rhf"
			},
			{
				"type": "unocc",
				"energy": 0.01586,
				"method": "rhf"
			},
			{
				"type": "unocc",
				"energy": 0.07091,
				"method": "rhf"
			},
			{
				"type": "unocc",
				"energy": 0.07983,
				"method": "rhf"
			}
		],
		"cosmo_sigma_profile": { 
			"-0.025": 0.0,
			"-0.024": 0.0,
			"-0.023": 0.0,
			"-0.022": 0.0,
			"-0.021": 0.0,
			"-0.02": 0.0,
			"-0.019": 0.0,
			"-0.018": 0.287857201513,
			"-0.017": 1.28538928052,
			"-0.016": 1.11080929471,
			"-0.015": 1.95530227468,
			"-0.014": 2.09501425106,
			"-0.013": 1.23799345532,
			"-0.012": 1.96744716533,
			"-0.011": 2.58444849886,
			"-0.01": 2.31289800207,
			"-0.009": 2.69175496435,
			"-0.008": 3.27309022175,
			"-0.007": 4.21858094998,
			"-0.006": 5.47738859398,
			"-0.005": 13.9688499127,
			"-0.004": 25.2565945083,
			"-0.003": 29.391469298,
			"-0.002": 25.6870382324,
			"-0.001": 24.2164793158,
			"0.0": 19.2575010712,
			"0.001": 12.5274453115,
			"0.002": 10.915272024,
			"0.003": 13.3297098756,
			"0.004": 11.7536328301,
			"0.005": 10.3552447607,
			"0.006": 8.91772334523,
			"0.007": 5.45818662624,
			"0.008": 4.98477936576,
			"0.009": 5.34281259261,
			"0.01": 6.4785378322,
			"0.011": 6.22787286267,
			"0.012": 5.21695485819,
			"0.013": 2.28696554586,
			"0.014": 1.79574444423,
			"0.015": 0.688076144659,
			"0.016": 0.658577122837,
			"0.017": 0.339878831817,
			"0.018": 0.359710688385,
			"0.019": 0.0588966529757,
			"0.02": 0.0,
			"0.021": 0.0,
			"0.022": 0.0,
			"0.023": 0.0,
			"0.024": 0.0,
			"0.025": 0.0
		}
	}
}
