{
	 "smiles": "O=C1OCCN1C1=CC=C(C=C1)C#N", 
	 "Tm": 423.15, 
	 "num_atms": 22, 
	 "gaussian": { 
		 "optdone": 1, 
		 "sigma_profile": "yes", 
		 "theory": "DFT", 
		 "functional": "B3LYP", 
		 "basiset": "6-31G**", 
		 "properties": { 
			 "R2extent": 3598.3975, 
			 "electric_dipole_moment_norm": 7.04606086477, 
			 "electric_quadrupole_moment_norm": 19.819662125, 
			 "total_energy": -645.832876279, 
			 "HOMO_LUMO_gap": 0.18933, 
			 "cosmo_polarized_energy": -18.19, 
			 "cosmo_cavitation_energy": 27.14, 
			 "cosmo_dispersion_energy": -19.87, 
			 "cosmo_repulsion_energy": 1.54, 
			 "cosmo_total_nonelectrostatic_energy": 8.81, 
			 "SMD_solvation_energy": 6.9 
		},
		"coords": [
			{
				"x": 2.5859516728,
				"y": 2.5812129744,
				"z": -0.5944397289,
				"element": "O" 
			},
			{
				"x": 1.4188757771,
				"y": 2.8003383195,
				"z": -0.8057082803,
				"element": "C" 
			},
			{
				"x": 0.9822619567,
				"y": 3.9267452487,
				"z": -1.4380069046,
				"element": "O" 
			},
			{
				"x": -0.4492401049,
				"y": 3.9991651407,
				"z": -1.3909312371,
				"element": "C" 
			},
			{
				"x": -0.9042705991,
				"y": 2.5697145683,
				"z": -1.0631851713,
				"element": "C" 
			},
			{
				"x": 0.3126622255,
				"y": 2.0108310976,
				"z": -0.482836489,
				"element": "N" 
			},
			{
				"x": 0.359922887,
				"y": 0.7305739941,
				"z": 0.098952404,
				"element": "C" 
			},
			{
				"x": -0.8039003273,
				"y": -0.0605964168,
				"z": 0.110562671,
				"element": "C" 
			},
			{
				"x": -0.7981847486,
				"y": -1.3207486013,
				"z": 0.6957383267,
				"element": "C" 
			},
			{
				"x": 0.3709929762,
				"y": -1.8243432181,
				"z": 1.2845842587,
				"element": "C" 
			},
			{
				"x": 1.5334479087,
				"y": -1.0338227033,
				"z": 1.271322181,
				"element": "C" 
			},
			{
				"x": 1.535128271,
				"y": 0.2262604318,
				"z": 0.6906280643,
				"element": "C" 
			},
			{
				"x": 0.3776035106,
				"y": -3.1224566466,
				"z": 1.8888667721,
				"element": "C" 
			},
			{
				"x": 0.3799065207,
				"y": -4.177619466,
				"z": 2.3798078883,
				"element": "N" 
			},
			{
				"x": -0.7398330262,
				"y": 4.7093279529,
				"z": -0.6093520342,
				"element": "H" 
			},
			{
				"x": -0.8116052224,
				"y": 4.3571433289,
				"z": -2.3559107215,
				"element": "H" 
			},
			{
				"x": -1.7325115169,
				"y": 2.5574847713,
				"z": -0.3492004278,
				"element": "H" 
			},
			{
				"x": -1.2072366191,
				"y": 2.0111240178,
				"z": -1.9587048433,
				"element": "H" 
			},
			{
				"x": -1.7210590617,
				"y": 0.2974814837,
				"z": -0.3410298589,
				"element": "H" 
			},
			{
				"x": -1.7024018704,
				"y": -1.9199812417,
				"z": 0.6957950214,
				"element": "H" 
			},
			{
				"x": 2.4430520099,
				"y": -1.4139992514,
				"z": 1.7241515231,
				"element": "H" 
			},
			{
				"x": 2.4362373802,
				"y": 0.8218642156,
				"z": 0.6785965861,
				"element": "H" 
			}
		],
		 "valence_orbital": [ 
			{
				"type": "occ",
				"energy": -0.31517,
				"method": "rhf"
			},
			{
				"type": "occ",
				"energy": -0.3104,
				"method": "rhf"
			},
			{
				"type": "occ",
				"energy": -0.29514,
				"method": "rhf"
			},
			{
				"type": "occ",
				"energy": -0.27803,
				"method": "rhf"
			},
			{
				"type": "occ",
				"energy": -0.2398,
				"method": "rhf"
			},
			{
				"type": "unocc",
				"energy": -0.05047,
				"method": "rhf"
			},
			{
				"type": "unocc",
				"energy": -0.02657,
				"method": "rhf"
			},
			{
				"type": "unocc",
				"energy": 0.02725,
				"method": "rhf"
			},
			{
				"type": "unocc",
				"energy": 0.0393,
				"method": "rhf"
			},
			{
				"type": "unocc",
				"energy": 0.05953,
				"method": "rhf"
			}
		],
		"cosmo_sigma_profile": { 
			"-0.025": 0.0,
			"-0.024": 0.0,
			"-0.023": 0.0,
			"-0.022": 0.0,
			"-0.021": 0.0,
			"-0.02": 0.0,
			"-0.019": 0.0,
			"-0.018": 0.0,
			"-0.017": 0.0,
			"-0.016": 0.0,
			"-0.015": 0.0,
			"-0.014": 0.0,
			"-0.013": 0.0,
			"-0.012": 0.0,
			"-0.011": 0.0,
			"-0.01": 0.0,
			"-0.009": 0.672597427498,
			"-0.008": 10.2404468157,
			"-0.007": 25.1401288416,
			"-0.006": 20.0937980742,
			"-0.005": 13.7550526921,
			"-0.004": 9.9061256209,
			"-0.003": 9.86254649791,
			"-0.002": 8.50733191969,
			"-0.001": 12.7046924816,
			"0.0": 13.2966674358,
			"0.001": 13.228500838,
			"0.002": 16.7316966079,
			"0.003": 9.20625518132,
			"0.004": 5.4466210883,
			"0.005": 4.05716280636,
			"0.006": 4.86041543832,
			"0.007": 5.32228723722,
			"0.008": 5.9555677332,
			"0.009": 7.43337339315,
			"0.01": 7.57479411261,
			"0.011": 6.05845504333,
			"0.012": 5.87839804182,
			"0.013": 2.7586001317,
			"0.014": 0.200670662576,
			"0.015": 0.0,
			"0.016": 0.0,
			"0.017": 0.0,
			"0.018": 0.0,
			"0.019": 0.0,
			"0.02": 0.0,
			"0.021": 0.0,
			"0.022": 0.0,
			"0.023": 0.0,
			"0.024": 0.0,
			"0.025": 0.0
		}
	}
}
