{
	 "smiles": "CN1C=C(C=CC(O)=O)C(=O)N(C)C1=O", 
	 "Tm": 546.15, 
	 "num_atms": 25, 
	 "gaussian": { 
		 "optdone": 1, 
		 "sigma_profile": "yes", 
		 "theory": "DFT", 
		 "functional": "B3LYP", 
		 "basiset": "6-31G**", 
		 "properties": { 
			 "R2extent": 4569.4871, 
			 "electric_dipole_moment_norm": 3.89912683302, 
			 "electric_quadrupole_moment_norm": 20.7189557635, 
			 "total_energy": -759.412539269, 
			 "HOMO_LUMO_gap": 0.15677, 
			 "cosmo_polarized_energy": -17.98, 
			 "cosmo_cavitation_energy": 29.65, 
			 "cosmo_dispersion_energy": -21.59, 
			 "cosmo_repulsion_energy": 1.66, 
			 "cosmo_total_nonelectrostatic_energy": 9.73, 
			 "SMD_solvation_energy": 8.28 
		},
		"coords": [
			{
				"x": -2.238770948,
				"y": 0.2633353045,
				"z": -3.4997975936,
				"element": "C" 
			},
			{
				"x": -1.5466158695,
				"y": -0.452579642,
				"z": -2.4239019251,
				"element": "N" 
			},
			{
				"x": -0.3674402154,
				"y": -0.0046716342,
				"z": -1.9097732849,
				"element": "C" 
			},
			{
				"x": 0.3044978829,
				"y": -0.6466875063,
				"z": -0.9064085887,
				"element": "C" 
			},
			{
				"x": 1.5632226994,
				"y": -0.2536577851,
				"z": -0.29013107,
				"element": "C" 
			},
			{
				"x": 2.4671997661,
				"y": 0.7502795361,
				"z": -0.4191156988,
				"element": "C" 
			},
			{
				"x": 2.5819299099,
				"y": 1.9371565796,
				"z": -1.2745499798,
				"element": "C" 
			},
			{
				"x": 1.5780694739,
				"y": 2.1483547129,
				"z": -2.1817724859,
				"element": "O" 
			},
			{
				"x": 3.5135221634,
				"y": 2.7171127602,
				"z": -1.2056294475,
				"element": "O" 
			},
			{
				"x": -0.2850972461,
				"y": -1.8863005514,
				"z": -0.3593167929,
				"element": "C" 
			},
			{
				"x": 0.2174049584,
				"y": -2.5508963164,
				"z": 0.5371986183,
				"element": "O" 
			},
			{
				"x": -1.5083542231,
				"y": -2.2861965104,
				"z": -0.9440942961,
				"element": "N" 
			},
			{
				"x": -2.1591252831,
				"y": -3.5084412687,
				"z": -0.4558409361,
				"element": "C" 
			},
			{
				"x": -2.1720116155,
				"y": -1.6185104511,
				"z": -1.9610402372,
				"element": "C" 
			},
			{
				"x": -3.2293614207,
				"y": -2.0016245963,
				"z": -2.4359065137,
				"element": "O" 
			},
			{
				"x": -1.6508390749,
				"y": 1.141983916,
				"z": -3.7647144759,
				"element": "H" 
			},
			{
				"x": -2.3514117277,
				"y": -0.3853227012,
				"z": -4.3708797578,
				"element": "H" 
			},
			{
				"x": -3.2339981291,
				"y": 0.5675805164,
				"z": -3.1692784883,
				"element": "H" 
			},
			{
				"x": 0.0198276392,
				"y": 0.905318079,
				"z": -2.3450129606,
				"element": "H" 
			},
			{
				"x": 1.8274260359,
				"y": -0.9775499943,
				"z": 0.4778607554,
				"element": "H" 
			},
			{
				"x": 3.3218187908,
				"y": 0.7031525894,
				"z": 0.2479896122,
				"element": "H" 
			},
			{
				"x": 1.8320140401,
				"y": 2.9657991447,
				"z": -2.6420139378,
				"element": "H" 
			},
			{
				"x": -1.5293198699,
				"y": -3.9185949818,
				"z": 0.3294722236,
				"element": "H" 
			},
			{
				"x": -3.152322367,
				"y": -3.2703969032,
				"z": -0.0694848949,
				"element": "H" 
			},
			{
				"x": -2.2691653699,
				"y": -4.2219422965,
				"z": -1.2750578436,
				"element": "H" 
			}
		],
		 "valence_orbital": [ 
			{
				"type": "occ",
				"energy": -0.29986,
				"method": "rhf"
			},
			{
				"type": "occ",
				"energy": -0.27999,
				"method": "rhf"
			},
			{
				"type": "occ",
				"energy": -0.2781,
				"method": "rhf"
			},
			{
				"type": "occ",
				"energy": -0.27167,
				"method": "rhf"
			},
			{
				"type": "occ",
				"energy": -0.23227,
				"method": "rhf"
			},
			{
				"type": "unocc",
				"energy": -0.0755,
				"method": "rhf"
			},
			{
				"type": "unocc",
				"energy": -0.02666,
				"method": "rhf"
			},
			{
				"type": "unocc",
				"energy": 0.01007,
				"method": "rhf"
			},
			{
				"type": "unocc",
				"energy": 0.06652,
				"method": "rhf"
			},
			{
				"type": "unocc",
				"energy": 0.07897,
				"method": "rhf"
			}
		],
		"cosmo_sigma_profile": { 
			"-0.025": 0.0,
			"-0.024": 0.0,
			"-0.023": 0.0,
			"-0.022": 0.0,
			"-0.021": 0.0,
			"-0.02": 0.0,
			"-0.019": 0.0,
			"-0.018": 0.479247562214,
			"-0.017": 1.0249305736,
			"-0.016": 0.492036858626,
			"-0.015": 0.665681492233,
			"-0.014": 1.21443036921,
			"-0.013": 0.355483079426,
			"-0.012": 0.659645425209,
			"-0.011": 0.997283450348,
			"-0.01": 0.907447446887,
			"-0.009": 2.42761730226,
			"-0.008": 2.6162313369,
			"-0.007": 4.77498424529,
			"-0.006": 15.7592151386,
			"-0.005": 19.9768563665,
			"-0.004": 25.2318500363,
			"-0.003": 21.0730639911,
			"-0.002": 15.8096253377,
			"-0.001": 16.5389005932,
			"0.0": 15.553303112,
			"0.001": 13.2979763091,
			"0.002": 12.2231364058,
			"0.003": 8.8336439436,
			"0.004": 5.19370910269,
			"0.005": 4.21212820487,
			"0.006": 3.94672243305,
			"0.007": 4.01409035941,
			"0.008": 3.74491254792,
			"0.009": 4.69351998169,
			"0.01": 4.57374909893,
			"0.011": 7.34495925538,
			"0.012": 14.5209866467,
			"0.013": 3.39154901513,
			"0.014": 0.074229012144,
			"0.015": 0.0,
			"0.016": 0.0,
			"0.017": 0.0,
			"0.018": 0.0,
			"0.019": 0.0,
			"0.02": 0.0,
			"0.021": 0.0,
			"0.022": 0.0,
			"0.023": 0.0,
			"0.024": 0.0,
			"0.025": 0.0
		}
	}
}
