{
	 "smiles": "ClC1=CC(Cl)=C(N=C=S)C(Cl)=C1", 
	 "Tm": 348.15, 
	 "num_atms": 14, 
	 "gaussian": { 
		 "optdone": 1, 
		 "sigma_profile": "yes", 
		 "theory": "DFT", 
		 "functional": "B3LYP", 
		 "basiset": "6-31G**", 
		 "properties": { 
			 "R2extent": 5280.2688, 
			 "electric_dipole_moment_norm": 2.51427760003, 
			 "electric_quadrupole_moment_norm": 8.2242148069, 
			 "total_energy": -2101.45149984, 
			 "HOMO_LUMO_gap": 0.17047, 
			 "cosmo_polarized_energy": -4.67, 
			 "cosmo_cavitation_energy": 27.72, 
			 "cosmo_dispersion_energy": -20.56, 
			 "cosmo_repulsion_energy": 1.62, 
			 "cosmo_total_nonelectrostatic_energy": 8.78, 
			 "SMD_solvation_energy": 4.48 
		},
		"coords": [
			{
				"x": -2.5178310448,
				"y": 0.9825471574,
				"z": -3.2441411821,
				"element": "Cl" 
			},
			{
				"x": -1.5191357919,
				"y": -0.0344515523,
				"z": -2.233229641,
				"element": "C" 
			},
			{
				"x": -1.1273206376,
				"y": 0.4266796561,
				"z": -0.9772398429,
				"element": "C" 
			},
			{
				"x": -0.3326742157,
				"y": -0.3874499167,
				"z": -0.1772149895,
				"element": "C" 
			},
			{
				"x": 0.1601053328,
				"y": 0.1824251867,
				"z": 1.3924791081,
				"element": "Cl" 
			},
			{
				"x": 0.083675244,
				"y": -1.6671476317,
				"z": -0.6103549587,
				"element": "C" 
			},
			{
				"x": 0.8579463422,
				"y": -2.4559637568,
				"z": 0.173725481,
				"element": "N" 
			},
			{
				"x": 1.5351884333,
				"y": -3.1498604525,
				"z": 0.863287805,
				"element": "C" 
			},
			{
				"x": 2.438331111,
				"y": -4.0736058062,
				"z": 1.782850739,
				"element": "S" 
			},
			{
				"x": -0.3365869008,
				"y": -2.0944870577,
				"z": -1.8906405065,
				"element": "C" 
			},
			{
				"x": 0.1514801285,
				"y": -3.6631070253,
				"z": -2.4675051355,
				"element": "Cl" 
			},
			{
				"x": -1.131357468,
				"y": -1.289639584,
				"z": -2.6998981397,
				"element": "C" 
			},
			{
				"x": -1.4333720337,
				"y": 1.4030879842,
				"z": -0.6235589994,
				"element": "H" 
			},
			{
				"x": -1.4405484994,
				"y": -1.6390272013,
				"z": -3.6768597376,
				"element": "H" 
			}
		],
		 "valence_orbital": [ 
			{
				"type": "occ",
				"energy": -0.33064,
				"method": "rhf"
			},
			{
				"type": "occ",
				"energy": -0.30179,
				"method": "rhf"
			},
			{
				"type": "occ",
				"energy": -0.27769,
				"method": "rhf"
			},
			{
				"type": "occ",
				"energy": -0.26655,
				"method": "rhf"
			},
			{
				"type": "occ",
				"energy": -0.24355,
				"method": "rhf"
			},
			{
				"type": "unocc",
				"energy": -0.07308,
				"method": "rhf"
			},
			{
				"type": "unocc",
				"energy": -0.05117,
				"method": "rhf"
			},
			{
				"type": "unocc",
				"energy": -0.02764,
				"method": "rhf"
			},
			{
				"type": "unocc",
				"energy": -0.01251,
				"method": "rhf"
			},
			{
				"type": "unocc",
				"energy": 0.02329,
				"method": "rhf"
			}
		],
		"cosmo_sigma_profile": { 
			"-0.025": 0.0,
			"-0.024": 0.0,
			"-0.023": 0.0,
			"-0.022": 0.0,
			"-0.021": 0.0,
			"-0.02": 0.0,
			"-0.019": 0.0,
			"-0.018": 0.0,
			"-0.017": 0.0,
			"-0.016": 0.0,
			"-0.015": 0.0,
			"-0.014": 0.0,
			"-0.013": 0.0,
			"-0.012": 0.0,
			"-0.011": 0.0,
			"-0.01": 0.569684789052,
			"-0.009": 3.34398197732,
			"-0.008": 2.03468436703,
			"-0.007": 3.9825964585,
			"-0.006": 3.07036495216,
			"-0.005": 3.17125057192,
			"-0.004": 8.0123418041,
			"-0.003": 17.7002373015,
			"-0.002": 27.2970029325,
			"-0.001": 32.9532618567,
			"0.0": 27.2004231116,
			"0.001": 23.5702225936,
			"0.002": 26.925279297,
			"0.003": 28.2265060187,
			"0.004": 15.1485856501,
			"0.005": 11.8040707919,
			"0.006": 0.275162487321,
			"0.007": 0.0,
			"0.008": 0.0,
			"0.009": 0.0,
			"0.01": 0.0,
			"0.011": 0.0,
			"0.012": 0.0,
			"0.013": 0.0,
			"0.014": 0.0,
			"0.015": 0.0,
			"0.016": 0.0,
			"0.017": 0.0,
			"0.018": 0.0,
			"0.019": 0.0,
			"0.02": 0.0,
			"0.021": 0.0,
			"0.022": 0.0,
			"0.023": 0.0,
			"0.024": 0.0,
			"0.025": 0.0
		}
	}
}
