{
	 "smiles": "BrC1CSC2=NC3=C(C=CC=C3)N2C1C1=CC=CC=C1", 
	 "Tm": 468.15, 
	 "num_atms": 33, 
	 "gaussian": { 
		 "optdone": 1, 
		 "sigma_profile": "yes", 
		 "theory": "DFT", 
		 "functional": "B3LYP", 
		 "basiset": "6-31G**", 
		 "properties": { 
			 "R2extent": 7556.4313, 
			 "electric_dipole_moment_norm": 3.38449223518, 
			 "electric_quadrupole_moment_norm": 10.7481170049, 
			 "total_energy": -3696.64296112, 
			 "HOMO_LUMO_gap": 0.18185, 
			 "cosmo_polarized_energy": -13.65, 
			 "cosmo_cavitation_energy": 38.87, 
			 "cosmo_dispersion_energy": -27.89, 
			 "cosmo_repulsion_energy": 2.07, 
			 "cosmo_total_nonelectrostatic_energy": 13.05, 
			 "SMD_solvation_energy": 2.35 
		},
		"coords": [
			{
				"x": 2.7922107241,
				"y": 0.4942589832,
				"z": -2.7416740689,
				"element": "Br" 
			},
			{
				"x": 1.4709747689,
				"y": -0.8695950213,
				"z": -2.1304093353,
				"element": "C" 
			},
			{
				"x": 2.2314006181,
				"y": -2.1184457296,
				"z": -1.7208300838,
				"element": "C" 
			},
			{
				"x": 1.0440966388,
				"y": -3.4897105639,
				"z": -1.4458250688,
				"element": "S" 
			},
			{
				"x": 0.0341326861,
				"y": -2.6567101866,
				"z": -0.2681780773,
				"element": "C" 
			},
			{
				"x": -0.6830447124,
				"y": -3.2898745459,
				"z": 0.6214637338,
				"element": "N" 
			},
			{
				"x": -1.313442338,
				"y": -2.2872460771,
				"z": 1.3439191898,
				"element": "C" 
			},
			{
				"x": -0.9376624987,
				"y": -1.0138009219,
				"z": 0.8563675018,
				"element": "C" 
			},
			{
				"x": -1.3962936185,
				"y": 0.1699393975,
				"z": 1.4394184676,
				"element": "C" 
			},
			{
				"x": -2.2589476262,
				"y": 0.0418271983,
				"z": 2.5272220432,
				"element": "C" 
			},
			{
				"x": -2.6491560621,
				"y": -1.2190514664,
				"z": 3.0167800836,
				"element": "C" 
			},
			{
				"x": -2.1838023209,
				"y": -2.3940958968,
				"z": 2.4347722131,
				"element": "C" 
			},
			{
				"x": -0.078329289,
				"y": -1.2713414167,
				"z": -0.2165656789,
				"element": "N" 
			},
			{
				"x": 0.603433293,
				"y": -0.233987918,
				"z": -1.0137258126,
				"element": "C" 
			},
			{
				"x": -0.393051144,
				"y": 0.7599055742,
				"z": -1.6030746971,
				"element": "C" 
			},
			{
				"x": -0.1546927814,
				"y": 2.1350565425,
				"z": -1.5110398554,
				"element": "C" 
			},
			{
				"x": -1.0451084409,
				"y": 3.0471035387,
				"z": -2.080822185,
				"element": "C" 
			},
			{
				"x": -2.1828300042,
				"y": 2.5904858215,
				"z": -2.746863826,
				"element": "C" 
			},
			{
				"x": -2.4275474845,
				"y": 1.218368888,
				"z": -2.8399644404,
				"element": "C" 
			},
			{
				"x": -1.5378352907,
				"y": 0.3078818881,
				"z": -2.2711893924,
				"element": "C" 
			},
			{
				"x": 0.8676751181,
				"y": -1.0680847278,
				"z": -3.0156734914,
				"element": "H" 
			},
			{
				"x": 2.889658819,
				"y": -2.4477278434,
				"z": -2.5262085438,
				"element": "H" 
			},
			{
				"x": 2.8342843654,
				"y": -1.9515599995,
				"z": -0.8242327088,
				"element": "H" 
			},
			{
				"x": -1.1131937908,
				"y": 1.1456611717,
				"z": 1.0627492229,
				"element": "H" 
			},
			{
				"x": -2.6407126451,
				"y": 0.9392628274,
				"z": 3.0049335699,
				"element": "H" 
			},
			{
				"x": -3.3242745139,
				"y": -1.2717240816,
				"z": 3.8657950977,
				"element": "H" 
			},
			{
				"x": -2.4710639459,
				"y": -3.3718993731,
				"z": 2.8072259903,
				"element": "H" 
			},
			{
				"x": 1.2783754321,
				"y": 0.3017993031,
				"z": -0.3355497405,
				"element": "H" 
			},
			{
				"x": 0.7331106221,
				"y": 2.4933695096,
				"z": -0.9974888221,
				"element": "H" 
			},
			{
				"x": -0.8490871003,
				"y": 4.112363701,
				"z": -2.001739951,
				"element": "H" 
			},
			{
				"x": -2.8780222767,
				"y": 3.2990056319,
				"z": -3.1875107708,
				"element": "H" 
			},
			{
				"x": -3.3148205312,
				"y": 0.8563478604,
				"z": -3.350965183,
				"element": "H" 
			},
			{
				"x": -1.7420346703,
				"y": -0.7576820676,
				"z": -2.3313153805,
				"element": "H" 
			}
		],
		 "valence_orbital": [ 
			{
				"type": "occ",
				"energy": -0.27108,
				"method": "rhf"
			},
			{
				"type": "occ",
				"energy": -0.26172,
				"method": "rhf"
			},
			{
				"type": "occ",
				"energy": -0.25863,
				"method": "rhf"
			},
			{
				"type": "occ",
				"energy": -0.22624,
				"method": "rhf"
			},
			{
				"type": "occ",
				"energy": -0.21297,
				"method": "rhf"
			},
			{
				"type": "unocc",
				"energy": -0.03112,
				"method": "rhf"
			},
			{
				"type": "unocc",
				"energy": -0.02122,
				"method": "rhf"
			},
			{
				"type": "unocc",
				"energy": -0.01828,
				"method": "rhf"
			},
			{
				"type": "unocc",
				"energy": -0.01523,
				"method": "rhf"
			},
			{
				"type": "unocc",
				"energy": 0.01414,
				"method": "rhf"
			}
		],
		"cosmo_sigma_profile": { 
			"-0.025": 0.0,
			"-0.024": 0.0,
			"-0.023": 0.0,
			"-0.022": 0.0,
			"-0.021": 0.0,
			"-0.02": 0.0,
			"-0.019": 0.0,
			"-0.018": 0.0,
			"-0.017": 0.0,
			"-0.016": 0.0,
			"-0.015": 0.0,
			"-0.014": 0.0,
			"-0.013": 0.0,
			"-0.012": 0.0,
			"-0.011": 0.0,
			"-0.01": 0.00167302292263,
			"-0.009": 2.14593027104,
			"-0.008": 7.06552162876,
			"-0.007": 11.3879710518,
			"-0.006": 18.0807281776,
			"-0.005": 24.913410038,
			"-0.004": 27.5993339605,
			"-0.003": 22.5382759013,
			"-0.002": 17.7600990545,
			"-0.001": 18.525860193,
			"0.0": 17.1983361099,
			"0.001": 18.7497637931,
			"0.002": 22.0294286969,
			"0.003": 23.6623610166,
			"0.004": 27.7520474134,
			"0.005": 29.8713154745,
			"0.006": 13.0203740882,
			"0.007": 3.16226809199,
			"0.008": 1.6071035904,
			"0.009": 1.00759315228,
			"0.01": 0.993536316413,
			"0.011": 1.82287652709,
			"0.012": 0.902933533647,
			"0.013": 1.25549873757,
			"0.014": 0.735087646192,
			"0.015": 0.982580084947,
			"0.016": 1.10964332194,
			"0.017": 0.158403940427,
			"0.018": 0.0,
			"0.019": 0.0,
			"0.02": 0.0,
			"0.021": 0.0,
			"0.022": 0.0,
			"0.023": 0.0,
			"0.024": 0.0,
			"0.025": 0.0
		}
	}
}
