{
	 "smiles": "OC(=O)C1=C(C=CC=C1)C(O)=O", 
	 "Tm": 475.15, 
	 "num_atms": 18, 
	 "gaussian": { 
		 "optdone": 1, 
		 "sigma_profile": "yes", 
		 "theory": "DFT", 
		 "functional": "B3LYP", 
		 "basiset": "6-31G**", 
		 "properties": { 
			 "R2extent": 2144.6383, 
			 "electric_dipole_moment_norm": 4.85858819514, 
			 "electric_quadrupole_moment_norm": 17.9897059645, 
			 "total_energy": -609.378210219, 
			 "HOMO_LUMO_gap": 0.20443, 
			 "cosmo_polarized_energy": -19.02, 
			 "cosmo_cavitation_energy": 23.46, 
			 "cosmo_dispersion_energy": -17.0, 
			 "cosmo_repulsion_energy": 1.37, 
			 "cosmo_total_nonelectrostatic_energy": 7.82, 
			 "SMD_solvation_energy": 6.32 
		},
		"coords": [
			{
				"x": 3.0499270805,
				"y": -1.2821634379,
				"z": 1.1385454276,
				"element": "O" 
			},
			{
				"x": 2.4233997574,
				"y": -0.2299907699,
				"z": 0.5469617728,
				"element": "C" 
			},
			{
				"x": 2.9272735559,
				"y": 0.3437234615,
				"z": -0.3839850181,
				"element": "O" 
			},
			{
				"x": 1.1347508489,
				"y": 0.1993939498,
				"z": 1.2025067136,
				"element": "C" 
			},
			{
				"x": -0.0299053097,
				"y": 0.4895916986,
				"z": 0.4639472748,
				"element": "C" 
			},
			{
				"x": -1.1341880335,
				"y": 1.054887835,
				"z": 1.1098627259,
				"element": "C" 
			},
			{
				"x": -1.1062006719,
				"y": 1.3108178355,
				"z": 2.4800318251,
				"element": "C" 
			},
			{
				"x": 0.0367307462,
				"y": 1.0051953099,
				"z": 3.2180620756,
				"element": "C" 
			},
			{
				"x": 1.1497868607,
				"y": 0.4552127028,
				"z": 2.5801995787,
				"element": "C" 
			},
			{
				"x": -0.1914428668,
				"y": 0.190186667,
				"z": -0.9929136602,
				"element": "C" 
			},
			{
				"x": 0.494015077,
				"y": -0.9065799596,
				"z": -1.3799517084,
				"element": "O" 
			},
			{
				"x": -0.9115945788,
				"y": 0.8182924483,
				"z": -1.7396889693,
				"element": "O" 
			},
			{
				"x": 2.4584614375,
				"y": -1.6882694402,
				"z": 1.7884607538,
				"element": "H" 
			},
			{
				"x": -2.0143329115,
				"y": 1.2803348273,
				"z": 0.5172193343,
				"element": "H" 
			},
			{
				"x": -1.9730148563,
				"y": 1.7460617036,
				"z": 2.9675445338,
				"element": "H" 
			},
			{
				"x": 0.0707116897,
				"y": 1.2052916002,
				"z": 4.2847456153,
				"element": "H" 
			},
			{
				"x": 2.0547446028,
				"y": 0.2605667112,
				"z": 3.1492461487,
				"element": "H" 
			},
			{
				"x": 0.366077572,
				"y": -0.989853143,
				"z": -2.339594424,
				"element": "H" 
			}
		],
		 "valence_orbital": [ 
			{
				"type": "occ",
				"energy": -0.31602,
				"method": "rhf"
			},
			{
				"type": "occ",
				"energy": -0.29291,
				"method": "rhf"
			},
			{
				"type": "occ",
				"energy": -0.28587,
				"method": "rhf"
			},
			{
				"type": "occ",
				"energy": -0.27456,
				"method": "rhf"
			},
			{
				"type": "occ",
				"energy": -0.26862,
				"method": "rhf"
			},
			{
				"type": "unocc",
				"energy": -0.06419,
				"method": "rhf"
			},
			{
				"type": "unocc",
				"energy": -0.03915,
				"method": "rhf"
			},
			{
				"type": "unocc",
				"energy": 0.02093,
				"method": "rhf"
			},
			{
				"type": "unocc",
				"energy": 0.0349,
				"method": "rhf"
			},
			{
				"type": "unocc",
				"energy": 0.06494,
				"method": "rhf"
			}
		],
		"cosmo_sigma_profile": { 
			"-0.025": 0.0,
			"-0.024": 0.0,
			"-0.023": 0.0,
			"-0.022": 0.0,
			"-0.021": 0.0,
			"-0.02": 0.0,
			"-0.019": 0.876122005756,
			"-0.018": 1.63698461657,
			"-0.017": 1.62365117264,
			"-0.016": 2.36709522886,
			"-0.015": 1.8443592529,
			"-0.014": 1.14923665823,
			"-0.013": 1.29945208406,
			"-0.012": 1.94617468178,
			"-0.011": 1.89333177399,
			"-0.01": 0.8511165683,
			"-0.009": 1.65751209235,
			"-0.008": 4.95230484024,
			"-0.007": 9.03055990786,
			"-0.006": 11.4154223539,
			"-0.005": 8.30955934283,
			"-0.004": 8.25229023527,
			"-0.003": 9.92488361633,
			"-0.002": 6.78019908625,
			"-0.001": 8.58677046934,
			"0.0": 11.0234784489,
			"0.001": 14.5666824831,
			"0.002": 15.280454594,
			"0.003": 7.17394405177,
			"0.004": 4.46317373229,
			"0.005": 5.26227169291,
			"0.006": 5.2767423102,
			"0.007": 5.17878251739,
			"0.008": 5.44282642248,
			"0.009": 5.33717789992,
			"0.01": 7.98767112213,
			"0.011": 10.4508675405,
			"0.012": 5.32820911459,
			"0.013": 0.509164945312,
			"0.014": 0.0,
			"0.015": 0.0,
			"0.016": 0.0,
			"0.017": 0.0,
			"0.018": 0.0,
			"0.019": 0.0,
			"0.02": 0.0,
			"0.021": 0.0,
			"0.022": 0.0,
			"0.023": 0.0,
			"0.024": 0.0,
			"0.025": 0.0
		}
	}
}
