{
	 "smiles": "NNC(=O)CCC1=CC=CO1", 
	 "Tm": 346.15, 
	 "num_atms": 21, 
	 "gaussian": { 
		 "optdone": 1, 
		 "sigma_profile": "yes", 
		 "theory": "DFT", 
		 "functional": "B3LYP", 
		 "basiset": "6-31G**", 
		 "properties": { 
			 "R2extent": 2516.7522, 
			 "electric_dipole_moment_norm": 3.31185543465, 
			 "electric_quadrupole_moment_norm": 12.0616995444, 
			 "total_energy": -532.679996527, 
			 "HOMO_LUMO_gap": 0.23221, 
			 "cosmo_polarized_energy": -12.13, 
			 "cosmo_cavitation_energy": 24.85, 
			 "cosmo_dispersion_energy": -18.08, 
			 "cosmo_repulsion_energy": 1.48, 
			 "cosmo_total_nonelectrostatic_energy": 8.24, 
			 "SMD_solvation_energy": 5.94 
		},
		"coords": [
			{
				"x": -1.9891005713,
				"y": -1.2293903668,
				"z": -2.9253451416,
				"element": "N" 
			},
			{
				"x": -1.0440532151,
				"y": -0.8258742416,
				"z": -1.9516891108,
				"element": "N" 
			},
			{
				"x": 0.1766321313,
				"y": -0.3548607756,
				"z": -2.3463786086,
				"element": "C" 
			},
			{
				"x": 0.433932787,
				"y": -0.1382110935,
				"z": -3.5271441821,
				"element": "O" 
			},
			{
				"x": 1.2273785874,
				"y": -0.1089956835,
				"z": -1.26155476,
				"element": "C" 
			},
			{
				"x": 0.7741009778,
				"y": 0.1125667847,
				"z": 0.2046305052,
				"element": "C" 
			},
			{
				"x": 0.5678295644,
				"y": -1.1169688439,
				"z": 1.0284368604,
				"element": "C" 
			},
			{
				"x": 1.2946665673,
				"y": -1.7171605748,
				"z": 2.0137182274,
				"element": "C" 
			},
			{
				"x": 0.5732178295,
				"y": -2.8933773896,
				"z": 2.410783659,
				"element": "C" 
			},
			{
				"x": -0.5450837591,
				"y": -2.93160429,
				"z": 1.6411793234,
				"element": "C" 
			},
			{
				"x": -0.5683998369,
				"y": -1.8554496401,
				"z": 0.794403407,
				"element": "O" 
			},
			{
				"x": -2.5036493716,
				"y": -0.3953320326,
				"z": -3.2091473862,
				"element": "H" 
			},
			{
				"x": -1.4455553912,
				"y": -1.4919563773,
				"z": -3.7498314727,
				"element": "H" 
			},
			{
				"x": -1.1573263768,
				"y": -1.2730516545,
				"z": -1.0509143479,
				"element": "H" 
			},
			{
				"x": 1.7683202629,
				"y": 0.776375383,
				"z": -1.6076497707,
				"element": "H" 
			},
			{
				"x": 1.9455554186,
				"y": -0.9367286206,
				"z": -1.3071873651,
				"element": "H" 
			},
			{
				"x": -0.1331569705,
				"y": 0.7290415897,
				"z": 0.2214149481,
				"element": "H" 
			},
			{
				"x": 1.5507448937,
				"y": 0.6959745209,
				"z": 0.7086931735,
				"element": "H" 
			},
			{
				"x": 2.2336756444,
				"y": -1.3624847643,
				"z": 2.4143845981,
				"element": "H" 
			},
			{
				"x": 0.8535768096,
				"y": -3.6082932528,
				"z": 3.1708204127,
				"element": "H" 
			},
			{
				"x": -1.3845059812,
				"y": -3.6049186766,
				"z": 1.5685770307,
				"element": "H" 
			}
		],
		 "valence_orbital": [ 
			{
				"type": "occ",
				"energy": -0.28732,
				"method": "rhf"
			},
			{
				"type": "occ",
				"energy": -0.2826,
				"method": "rhf"
			},
			{
				"type": "occ",
				"energy": -0.24776,
				"method": "rhf"
			},
			{
				"type": "occ",
				"energy": -0.24048,
				"method": "rhf"
			},
			{
				"type": "occ",
				"energy": -0.22919,
				"method": "rhf"
			},
			{
				"type": "unocc",
				"energy": 0.00302,
				"method": "rhf"
			},
			{
				"type": "unocc",
				"energy": 0.03137,
				"method": "rhf"
			},
			{
				"type": "unocc",
				"energy": 0.06331,
				"method": "rhf"
			},
			{
				"type": "unocc",
				"energy": 0.08561,
				"method": "rhf"
			},
			{
				"type": "unocc",
				"energy": 0.10065,
				"method": "rhf"
			}
		],
		"cosmo_sigma_profile": { 
			"-0.025": 0.0,
			"-0.024": 0.0,
			"-0.023": 0.0,
			"-0.022": 0.0,
			"-0.021": 0.0,
			"-0.02": 0.0,
			"-0.019": 0.0,
			"-0.018": 0.0,
			"-0.017": 0.0,
			"-0.016": 0.0,
			"-0.015": 0.0,
			"-0.014": 0.0,
			"-0.013": 0.0,
			"-0.012": 0.238421381713,
			"-0.011": 1.36561906906,
			"-0.01": 1.56201836481,
			"-0.009": 3.25836592998,
			"-0.008": 3.78446480623,
			"-0.007": 6.1087575038,
			"-0.006": 8.47576635991,
			"-0.005": 17.5645765411,
			"-0.004": 19.3242371776,
			"-0.003": 19.8950918174,
			"-0.002": 17.0877982635,
			"-0.001": 12.0527221822,
			"0.0": 9.45056189862,
			"0.001": 9.52040961391,
			"0.002": 9.82506155272,
			"0.003": 10.1221555818,
			"0.004": 8.7457311919,
			"0.005": 8.80258895639,
			"0.006": 5.26009673145,
			"0.007": 1.90996064824,
			"0.008": 2.31132171645,
			"0.009": 1.13432386965,
			"0.01": 1.83798744793,
			"0.011": 2.23657297473,
			"0.012": 2.85112676839,
			"0.013": 3.51057410154,
			"0.014": 5.24093368789,
			"0.015": 1.91568237146,
			"0.016": 0.671777269978,
			"0.017": 0.470878056092,
			"0.018": 0.0488279075407,
			"0.019": 0.0,
			"0.02": 0.0,
			"0.021": 0.0,
			"0.022": 0.0,
			"0.023": 0.0,
			"0.024": 0.0,
			"0.025": 0.0
		}
	}
}
