{
	 "smiles": "OC1=C(F)C(F)=C(F)C(F)=C1C(=O)NC1=CC=C(F)C=C1", 
	 "Tm": 403.5, 
	 "num_atms": 27, 
	 "gaussian": { 
		 "optdone": 1, 
		 "sigma_profile": "yes", 
		 "theory": "DFT", 
		 "functional": "B3LYP", 
		 "basiset": "6-31G**", 
		 "properties": { 
			 "R2extent": 8573.4138, 
			 "electric_dipole_moment_norm": 2.6790167786, 
			 "electric_quadrupole_moment_norm": 12.7862589646, 
			 "total_energy": -1203.34820234, 
			 "HOMO_LUMO_gap": 0.167, 
			 "cosmo_polarized_energy": -14.96, 
			 "cosmo_cavitation_energy": 35.44, 
			 "cosmo_dispersion_energy": -25.13, 
			 "cosmo_repulsion_energy": 1.78, 
			 "cosmo_total_nonelectrostatic_energy": 12.09, 
			 "SMD_solvation_energy": 9.14 
		},
		"coords": [
			{
				"x": 0.8053969513,
				"y": -1.6787652392,
				"z": 1.8229700667,
				"element": "O" 
			},
			{
				"x": 1.562100496,
				"y": -1.3363316524,
				"z": 0.7594175452,
				"element": "C" 
			},
			{
				"x": 2.8625831197,
				"y": -1.8384751029,
				"z": 0.6478852399,
				"element": "C" 
			},
			{
				"x": 3.302300415,
				"y": -2.674038484,
				"z": 1.6165858513,
				"element": "F" 
			},
			{
				"x": 3.6955244024,
				"y": -1.4999921688,
				"z": -0.4087831104,
				"element": "C" 
			},
			{
				"x": 4.9298834115,
				"y": -1.9995289965,
				"z": -0.484750242,
				"element": "F" 
			},
			{
				"x": 3.2302514683,
				"y": -0.6211651551,
				"z": -1.3840532665,
				"element": "C" 
			},
			{
				"x": 4.0154398799,
				"y": -0.2742413789,
				"z": -2.4113622321,
				"element": "F" 
			},
			{
				"x": 1.9394586068,
				"y": -0.1161691108,
				"z": -1.2726517214,
				"element": "C" 
			},
			{
				"x": 1.5372059088,
				"y": 0.7412630928,
				"z": -2.2351529437,
				"element": "F" 
			},
			{
				"x": 1.0743940613,
				"y": -0.4491617978,
				"z": -0.223566422,
				"element": "C" 
			},
			{
				"x": -0.3641235582,
				"y": 0.0204522356,
				"z": -0.161109989,
				"element": "C" 
			},
			{
				"x": -1.2564137745,
				"y": -0.7342000403,
				"z": 0.1951599849,
				"element": "O" 
			},
			{
				"x": -0.5501675954,
				"y": 1.3363400951,
				"z": -0.5086641857,
				"element": "N" 
			},
			{
				"x": -1.7608727169,
				"y": 2.0613587285,
				"z": -0.573720134,
				"element": "C" 
			},
			{
				"x": -3.0019940273,
				"y": 1.5358552021,
				"z": -0.1791918595,
				"element": "C" 
			},
			{
				"x": -4.1467844958,
				"y": 2.3272654652,
				"z": -0.2682550691,
				"element": "C" 
			},
			{
				"x": -4.0514901335,
				"y": 3.6285291303,
				"z": -0.7443022432,
				"element": "C" 
			},
			{
				"x": -5.1653207319,
				"y": 4.387629576,
				"z": -0.8266531114,
				"element": "F" 
			},
			{
				"x": -2.8332543424,
				"y": 4.1694058286,
				"z": -1.138758541,
				"element": "C" 
			},
			{
				"x": -1.6904985752,
				"y": 3.3802087826,
				"z": -1.05100129,
				"element": "C" 
			},
			{
				"x": 1.3239691115,
				"y": -2.2777062422,
				"z": 2.3811284402,
				"element": "H" 
			},
			{
				"x": 0.2615542436,
				"y": 1.8290275853,
				"z": -0.8510120822,
				"element": "H" 
			},
			{
				"x": -3.0580474499,
				"y": 0.5210444202,
				"z": 0.1866439681,
				"element": "H" 
			},
			{
				"x": -5.1139651475,
				"y": 1.9377047263,
				"z": 0.0306237495,
				"element": "H" 
			},
			{
				"x": -2.7882431665,
				"y": 5.188444207,
				"z": -1.5067367348,
				"element": "H" 
			},
			{
				"x": -0.7326863611,
				"y": 3.7942462932,
				"z": -1.3568896677,
				"element": "H" 
			}
		],
		 "valence_orbital": [ 
			{
				"type": "occ",
				"energy": -0.27942,
				"method": "rhf"
			},
			{
				"type": "occ",
				"energy": -0.2657,
				"method": "rhf"
			},
			{
				"type": "occ",
				"energy": -0.26368,
				"method": "rhf"
			},
			{
				"type": "occ",
				"energy": -0.24945,
				"method": "rhf"
			},
			{
				"type": "occ",
				"energy": -0.22167,
				"method": "rhf"
			},
			{
				"type": "unocc",
				"energy": -0.05467,
				"method": "rhf"
			},
			{
				"type": "unocc",
				"energy": -0.01933,
				"method": "rhf"
			},
			{
				"type": "unocc",
				"energy": -0.01404,
				"method": "rhf"
			},
			{
				"type": "unocc",
				"energy": -0.00242,
				"method": "rhf"
			},
			{
				"type": "unocc",
				"energy": 0.00507,
				"method": "rhf"
			}
		],
		"cosmo_sigma_profile": { 
			"-0.025": 0.0,
			"-0.024": 0.0,
			"-0.023": 0.0,
			"-0.022": 0.0,
			"-0.021": 0.0,
			"-0.02": 0.0,
			"-0.019": 0.0,
			"-0.018": 0.292658648377,
			"-0.017": 0.850778974862,
			"-0.016": 0.855882227389,
			"-0.015": 0.756362455189,
			"-0.014": 1.09478881186,
			"-0.013": 2.18457943333,
			"-0.012": 2.86193785659,
			"-0.011": 2.47303207081,
			"-0.01": 1.80586323444,
			"-0.009": 3.04193330693,
			"-0.008": 2.50354595041,
			"-0.007": 6.8361235716,
			"-0.006": 8.55498233105,
			"-0.005": 8.83004899495,
			"-0.004": 16.0326380874,
			"-0.003": 25.3131404904,
			"-0.002": 16.9905486837,
			"-0.001": 16.032225773,
			"0.0": 18.3872047143,
			"0.001": 25.6688894632,
			"0.002": 43.4363139544,
			"0.003": 35.3432601424,
			"0.004": 18.7362145989,
			"0.005": 6.87859048351,
			"0.006": 2.23292811353,
			"0.007": 2.05651315677,
			"0.008": 2.12975347798,
			"0.009": 2.31292701725,
			"0.01": 2.71340365811,
			"0.011": 2.41497724181,
			"0.012": 2.67920907699,
			"0.013": 2.62414691165,
			"0.014": 1.76130455774,
			"0.015": 0.523001953116,
			"0.016": 0.0,
			"0.017": 0.0,
			"0.018": 0.0,
			"0.019": 0.0,
			"0.02": 0.0,
			"0.021": 0.0,
			"0.022": 0.0,
			"0.023": 0.0,
			"0.024": 0.0,
			"0.025": 0.0
		}
	}
}
