{
	 "smiles": "CSCS(=O)(=O)C1=CC=C(C)C=C1", 
	 "Tm": 352.15, 
	 "num_atms": 25, 
	 "gaussian": { 
		 "optdone": 1, 
		 "sigma_profile": "yes", 
		 "theory": "DFT", 
		 "functional": "B3LYP", 
		 "basiset": "6-31G**", 
		 "properties": { 
			 "R2extent": 3403.5361, 
			 "electric_dipole_moment_norm": 6.40224348881, 
			 "electric_quadrupole_moment_norm": 13.7702293016, 
			 "total_energy": -1296.95058503, 
			 "HOMO_LUMO_gap": 0.19722, 
			 "cosmo_polarized_energy": -16.38, 
			 "cosmo_cavitation_energy": 31.12, 
			 "cosmo_dispersion_energy": -22.45, 
			 "cosmo_repulsion_energy": 1.7, 
			 "cosmo_total_nonelectrostatic_energy": 10.37, 
			 "SMD_solvation_energy": 4.6 
		},
		"coords": [
			{
				"x": -2.6051545073,
				"y": 0.8575284784,
				"z": -1.2001938601,
				"element": "C" 
			},
			{
				"x": -2.6727721077,
				"y": 1.862279382,
				"z": 0.3269487746,
				"element": "S" 
			},
			{
				"x": -2.4456277594,
				"y": 0.5885636544,
				"z": 1.5959875228,
				"element": "C" 
			},
			{
				"x": -0.7361407804,
				"y": 0.32286005,
				"z": 2.2381337381,
				"element": "S" 
			},
			{
				"x": -0.2499967617,
				"y": 1.6085484104,
				"z": 2.7592902802,
				"element": "O" 
			},
			{
				"x": -0.8331997046,
				"y": -0.8670281739,
				"z": 3.1019580253,
				"element": "O" 
			},
			{
				"x": 0.2584952499,
				"y": -0.1056117161,
				"z": 0.8075823841,
				"element": "C" 
			},
			{
				"x": 0.3443889377,
				"y": -1.4408854276,
				"z": 0.4075348034,
				"element": "C" 
			},
			{
				"x": 1.1183782377,
				"y": -1.7660226953,
				"z": -0.7046469379,
				"element": "C" 
			},
			{
				"x": 1.8081167047,
				"y": -0.7765191892,
				"z": -1.4218643245,
				"element": "C" 
			},
			{
				"x": 2.6220746842,
				"y": -1.1345022041,
				"z": -2.6419270585,
				"element": "C" 
			},
			{
				"x": 1.7154238958,
				"y": 0.5541831148,
				"z": -0.9868185741,
				"element": "C" 
			},
			{
				"x": 0.9478527591,
				"y": 0.8985824001,
				"z": 0.1246279569,
				"element": "C" 
			},
			{
				"x": -1.6200255706,
				"y": 0.413481479,
				"z": -1.3498154666,
				"element": "H" 
			},
			{
				"x": -2.8116248846,
				"y": 1.5480890766,
				"z": -2.0210126556,
				"element": "H" 
			},
			{
				"x": -3.3757060745,
				"y": 0.0824799893,
				"z": -1.1920798917,
				"element": "H" 
			},
			{
				"x": -2.9898843932,
				"y": 0.8952692737,
				"z": 2.4932809439,
				"element": "H" 
			},
			{
				"x": -2.8225934244,
				"y": -0.3836006046,
				"z": 1.2701831665,
				"element": "H" 
			},
			{
				"x": -0.1658080378,
				"y": -2.2095695108,
				"z": 0.9786388813,
				"element": "H" 
			},
			{
				"x": 1.1987084774,
				"y": -2.8046622222,
				"z": -1.0143917063,
				"element": "H" 
			},
			{
				"x": 2.0086836757,
				"y": -1.0853028401,
				"z": -3.5503312231,
				"element": "H" 
			},
			{
				"x": 3.0204944444,
				"y": -2.1507502527,
				"z": -2.573338378,
				"element": "H" 
			},
			{
				"x": 3.4613189575,
				"y": -0.4467377793,
				"z": -2.7789084145,
				"element": "H" 
			},
			{
				"x": 2.2603684385,
				"y": 1.3293421766,
				"z": -1.5190763657,
				"element": "H" 
			},
			{
				"x": 0.8901295436,
				"y": 1.9227851304,
				"z": 0.4754383797,
				"element": "H" 
			}
		],
		 "valence_orbital": [ 
			{
				"type": "occ",
				"energy": -0.29522,
				"method": "rhf"
			},
			{
				"type": "occ",
				"energy": -0.29255,
				"method": "rhf"
			},
			{
				"type": "occ",
				"energy": -0.27284,
				"method": "rhf"
			},
			{
				"type": "occ",
				"energy": -0.2673,
				"method": "rhf"
			},
			{
				"type": "occ",
				"energy": -0.23792,
				"method": "rhf"
			},
			{
				"type": "unocc",
				"energy": -0.0407,
				"method": "rhf"
			},
			{
				"type": "unocc",
				"energy": -0.02401,
				"method": "rhf"
			},
			{
				"type": "unocc",
				"energy": 0.02267,
				"method": "rhf"
			},
			{
				"type": "unocc",
				"energy": 0.04844,
				"method": "rhf"
			},
			{
				"type": "unocc",
				"energy": 0.06317,
				"method": "rhf"
			}
		],
		"cosmo_sigma_profile": { 
			"-0.025": 0.0,
			"-0.024": 0.0,
			"-0.023": 0.0,
			"-0.022": 0.0,
			"-0.021": 0.0,
			"-0.02": 0.0,
			"-0.019": 0.0,
			"-0.018": 0.0,
			"-0.017": 0.0,
			"-0.016": 0.0,
			"-0.015": 0.0,
			"-0.014": 0.0,
			"-0.013": 0.0,
			"-0.012": 0.0,
			"-0.011": 0.00857881505451,
			"-0.01": 1.64902494789,
			"-0.009": 3.820722174,
			"-0.008": 4.44509861964,
			"-0.007": 8.81924684128,
			"-0.006": 16.1890284113,
			"-0.005": 18.9240700727,
			"-0.004": 18.9459399162,
			"-0.003": 17.6946165927,
			"-0.002": 22.7022212209,
			"-0.001": 22.6342767176,
			"0.0": 16.2760460862,
			"0.001": 14.2046668111,
			"0.002": 14.8773407086,
			"0.003": 12.3562810404,
			"0.004": 7.24777433757,
			"0.005": 5.69124036231,
			"0.006": 5.33240772167,
			"0.007": 4.86397089476,
			"0.008": 5.17090169242,
			"0.009": 4.66057722471,
			"0.01": 4.29019872953,
			"0.011": 9.02208868388,
			"0.012": 8.18711449218,
			"0.013": 0.580170642436,
			"0.014": 0.0,
			"0.015": 0.0,
			"0.016": 0.0,
			"0.017": 0.0,
			"0.018": 0.0,
			"0.019": 0.0,
			"0.02": 0.0,
			"0.021": 0.0,
			"0.022": 0.0,
			"0.023": 0.0,
			"0.024": 0.0,
			"0.025": 0.0
		}
	}
}
