{
	 "smiles": "CNS(=O)(=O)CC1=CC=C(CN)C=C1", 
	 "Tm": 414.15, 
	 "num_atms": 28, 
	 "gaussian": { 
		 "optdone": 1, 
		 "sigma_profile": "yes", 
		 "theory": "DFT", 
		 "functional": "B3LYP", 
		 "basiset": "6-31G**", 
		 "properties": { 
			 "R2extent": 4762.9799, 
			 "electric_dipole_moment_norm": 5.58921974877, 
			 "electric_quadrupole_moment_norm": 19.807074575, 
			 "total_energy": -1009.46315227, 
			 "HOMO_LUMO_gap": 0.20976, 
			 "cosmo_polarized_energy": -23.0, 
			 "cosmo_cavitation_energy": 32.98, 
			 "cosmo_dispersion_energy": -23.59, 
			 "cosmo_repulsion_energy": 1.84, 
			 "cosmo_total_nonelectrostatic_energy": 11.23, 
			 "SMD_solvation_energy": 3.0 
		},
		"coords": [
			{
				"x": -4.9136896066,
				"y": 1.4594562886,
				"z": 0.3565833268,
				"element": "C" 
			},
			{
				"x": -3.7203812948,
				"y": 2.1435077897,
				"z": 0.8481089377,
				"element": "N" 
			},
			{
				"x": -2.2423212313,
				"y": 1.9449079003,
				"z": 0.0857630827,
				"element": "S" 
			},
			{
				"x": -2.4919311378,
				"y": 2.049559577,
				"z": -1.3527900959,
				"element": "O" 
			},
			{
				"x": -1.313906711,
				"y": 2.8276271951,
				"z": 0.7937065305,
				"element": "O" 
			},
			{
				"x": -1.7280528217,
				"y": 0.2128220025,
				"z": 0.4294260678,
				"element": "C" 
			},
			{
				"x": -0.4234018886,
				"y": -0.1319144485,
				"z": -0.2334045432,
				"element": "C" 
			},
			{
				"x": 0.7931717506,
				"y": 0.1267594896,
				"z": 0.4113650299,
				"element": "C" 
			},
			{
				"x": 2.0016026327,
				"y": -0.17529612,
				"z": -0.212593712,
				"element": "C" 
			},
			{
				"x": 2.0321705434,
				"y": -0.7386906407,
				"z": -1.4955929838,
				"element": "C" 
			},
			{
				"x": 3.3484977384,
				"y": -1.1289368402,
				"z": -2.1451900719,
				"element": "C" 
			},
			{
				"x": 3.8111785402,
				"y": -2.4982719604,
				"z": -1.8618398413,
				"element": "N" 
			},
			{
				"x": 0.8116293683,
				"y": -0.9799542541,
				"z": -2.140891136,
				"element": "C" 
			},
			{
				"x": -0.4000419875,
				"y": -0.67984309,
				"z": -1.5222553829,
				"element": "C" 
			},
			{
				"x": -5.7952160863,
				"y": 1.9726152605,
				"z": 0.7498982363,
				"element": "H" 
			},
			{
				"x": -4.9702370524,
				"y": 0.3986317359,
				"z": 0.64015833,
				"element": "H" 
			},
			{
				"x": -4.929790237,
				"y": 1.5407485872,
				"z": -0.7314109442,
				"element": "H" 
			},
			{
				"x": -3.6180567113,
				"y": 2.2356528886,
				"z": 1.8526185328,
				"element": "H" 
			},
			{
				"x": -2.5463361853,
				"y": -0.4184505385,
				"z": 0.0719044017,
				"element": "H" 
			},
			{
				"x": -1.6670351395,
				"y": 0.1390691798,
				"z": 1.5187388353,
				"element": "H" 
			},
			{
				"x": 0.7912337047,
				"y": 0.5791916838,
				"z": 1.3989831491,
				"element": "H" 
			},
			{
				"x": 2.9364698397,
				"y": 0.03752437,
				"z": 0.3011885716,
				"element": "H" 
			},
			{
				"x": 3.2670294425,
				"y": -1.0255974796,
				"z": -3.2331055782,
				"element": "H" 
			},
			{
				"x": 4.1368794594,
				"y": -0.4397250169,
				"z": -1.822255802,
				"element": "H" 
			},
			{
				"x": 3.8977434824,
				"y": -2.6202583502,
				"z": -0.854445022,
				"element": "H" 
			},
			{
				"x": 3.0955513692,
				"y": -3.1606331448,
				"z": -2.1557406256,
				"element": "H" 
			},
			{
				"x": 0.8102518012,
				"y": -1.4002401325,
				"z": -3.1441954939,
				"element": "H" 
			},
			{
				"x": -1.3346115819,
				"y": -0.8593619324,
				"z": -2.0463317992,
				"element": "H" 
			}
		],
		 "valence_orbital": [ 
			{
				"type": "occ",
				"energy": -0.29774,
				"method": "rhf"
			},
			{
				"type": "occ",
				"energy": -0.28094,
				"method": "rhf"
			},
			{
				"type": "occ",
				"energy": -0.25543,
				"method": "rhf"
			},
			{
				"type": "occ",
				"energy": -0.25382,
				"method": "rhf"
			},
			{
				"type": "occ",
				"energy": -0.22953,
				"method": "rhf"
			},
			{
				"type": "unocc",
				"energy": -0.01977,
				"method": "rhf"
			},
			{
				"type": "unocc",
				"energy": -0.00833,
				"method": "rhf"
			},
			{
				"type": "unocc",
				"energy": 0.05779,
				"method": "rhf"
			},
			{
				"type": "unocc",
				"energy": 0.07226,
				"method": "rhf"
			},
			{
				"type": "unocc",
				"energy": 0.08253,
				"method": "rhf"
			}
		],
		"cosmo_sigma_profile": { 
			"-0.025": 0.0,
			"-0.024": 0.0,
			"-0.023": 0.0,
			"-0.022": 0.0,
			"-0.021": 0.0,
			"-0.02": 0.0,
			"-0.019": 0.0,
			"-0.018": 0.0,
			"-0.017": 0.0,
			"-0.016": 0.000734885278426,
			"-0.015": 0.910839099644,
			"-0.014": 1.32137365033,
			"-0.013": 1.27681996562,
			"-0.012": 1.42003911676,
			"-0.011": 1.55328310995,
			"-0.01": 1.55027153075,
			"-0.009": 4.28437552354,
			"-0.008": 6.99995406589,
			"-0.007": 10.3953578583,
			"-0.006": 18.0754703408,
			"-0.005": 23.494823446,
			"-0.004": 23.6503936115,
			"-0.003": 20.8565531897,
			"-0.002": 16.8777153737,
			"-0.001": 13.0617285554,
			"0.0": 9.04631984908,
			"0.001": 8.91993188756,
			"0.002": 7.85549643157,
			"0.003": 9.11748613216,
			"0.004": 11.2051414598,
			"0.005": 13.7898997422,
			"0.006": 6.75722699044,
			"0.007": 5.62500455552,
			"0.008": 7.06454281934,
			"0.009": 4.98601041104,
			"0.01": 5.85434007251,
			"0.011": 10.7460596276,
			"0.012": 6.97834726993,
			"0.013": 1.30763368892,
			"0.014": 0.466056006431,
			"0.015": 0.779868920539,
			"0.016": 0.857793531565,
			"0.017": 0.514899930661,
			"0.018": 0.750548248148,
			"0.019": 0.548188099652,
			"0.02": 0.301661000281,
			"0.021": 0.0,
			"0.022": 0.0,
			"0.023": 0.0,
			"0.024": 0.0,
			"0.025": 0.0
		}
	}
}
