{
	 "smiles": "NC1=CC(=C(C=C1)N1CCOCC1)S(=O)(=O)NC1=CC=C(Cl)C=C1", 
	 "Tm": 510.15, 
	 "num_atms": 42, 
	 "gaussian": { 
		 "optdone": 1, 
		 "sigma_profile": "yes", 
		 "theory": "DFT", 
		 "functional": "B3LYP", 
		 "basiset": "6-31G**", 
		 "properties": { 
			 "R2extent": 9996.256, 
			 "electric_dipole_moment_norm": 6.0884656926, 
			 "electric_quadrupole_moment_norm": 18.4700192637, 
			 "total_energy": -1868.75783802, 
			 "HOMO_LUMO_gap": 0.17848, 
			 "cosmo_polarized_energy": -22.76, 
			 "cosmo_cavitation_energy": 46.48, 
			 "cosmo_dispersion_energy": -32.63, 
			 "cosmo_repulsion_energy": 2.44, 
			 "cosmo_total_nonelectrostatic_energy": 16.29, 
			 "SMD_solvation_energy": 6.38 
		},
		"coords": [
			{
				"x": -2.6170381958,
				"y": -3.5237341775,
				"z": -1.2103042783,
				"element": "N" 
			},
			{
				"x": -2.4266461771,
				"y": -2.237308522,
				"z": -0.7224480778,
				"element": "C" 
			},
			{
				"x": -1.5129794983,
				"y": -1.990810233,
				"z": 0.3153316288,
				"element": "C" 
			},
			{
				"x": -1.362582498,
				"y": -0.7071523055,
				"z": 0.8323263143,
				"element": "C" 
			},
			{
				"x": -2.1065515655,
				"y": 0.3893148186,
				"z": 0.3538031085,
				"element": "C" 
			},
			{
				"x": -3.0180892521,
				"y": 0.1204945286,
				"z": -0.6778623135,
				"element": "C" 
			},
			{
				"x": -3.1756818164,
				"y": -1.1538148155,
				"z": -1.2125881573,
				"element": "C" 
			},
			{
				"x": -1.9297739779,
				"y": 1.701224955,
				"z": 0.9102877634,
				"element": "N" 
			},
			{
				"x": -2.8806360368,
				"y": 1.9915369539,
				"z": 2.0157681745,
				"element": "C" 
			},
			{
				"x": -2.7754467008,
				"y": 3.4565914603,
				"z": 2.4112949472,
				"element": "C" 
			},
			{
				"x": -3.130021952,
				"y": 4.3506395017,
				"z": 1.350456232,
				"element": "O" 
			},
			{
				"x": -3.0367183124,
				"y": 3.7821831059,
				"z": 0.0523003636,
				"element": "C" 
			},
			{
				"x": -1.8549653223,
				"y": 2.8203469698,
				"z": -0.0653289806,
				"element": "C" 
			},
			{
				"x": -0.1573512492,
				"y": -0.5172147516,
				"z": 2.1631293483,
				"element": "S" 
			},
			{
				"x": 0.6185326961,
				"y": -1.7563130645,
				"z": 2.2383395495,
				"element": "O" 
			},
			{
				"x": -0.832358566,
				"y": 0.013030385,
				"z": 3.3483131032,
				"element": "O" 
			},
			{
				"x": 0.8872430431,
				"y": 0.7222521051,
				"z": 1.6547868933,
				"element": "N" 
			},
			{
				"x": 1.837023708,
				"y": 0.5383588859,
				"z": 0.6121756631,
				"element": "C" 
			},
			{
				"x": 1.844031806,
				"y": 1.4151139327,
				"z": -0.4811433889,
				"element": "C" 
			},
			{
				"x": 2.8124025357,
				"y": 1.3036227884,
				"z": -1.4773530217,
				"element": "C" 
			},
			{
				"x": 3.7654807441,
				"y": 0.2913307616,
				"z": -1.3898710578,
				"element": "C" 
			},
			{
				"x": 4.9813804447,
				"y": 0.1323493516,
				"z": -2.6506540787,
				"element": "Cl" 
			},
			{
				"x": 3.7700769061,
				"y": -0.592679408,
				"z": -0.3107680489,
				"element": "C" 
			},
			{
				"x": 2.8175821352,
				"y": -0.4611316689,
				"z": 0.6965011301,
				"element": "C" 
			},
			{
				"x": -1.8637412047,
				"y": -4.1761418096,
				"z": -1.0462406509,
				"element": "H" 
			},
			{
				"x": -3.000026514,
				"y": -3.5945464808,
				"z": -2.1419472838,
				"element": "H" 
			},
			{
				"x": -0.90354699,
				"y": -2.7922075042,
				"z": 0.7195165342,
				"element": "H" 
			},
			{
				"x": -3.6228854964,
				"y": 0.9312001293,
				"z": -1.0735612286,
				"element": "H" 
			},
			{
				"x": -3.8950276796,
				"y": -1.3162213247,
				"z": -2.0111580939,
				"element": "H" 
			},
			{
				"x": -3.9166963947,
				"y": 1.7648352905,
				"z": 1.717375674,
				"element": "H" 
			},
			{
				"x": -2.6263736566,
				"y": 1.3568304926,
				"z": 2.8667522888,
				"element": "H" 
			},
			{
				"x": -3.4509982138,
				"y": 3.6630899893,
				"z": 3.2480617973,
				"element": "H" 
			},
			{
				"x": -1.749942967,
				"y": 3.6713070067,
				"z": 2.7481307897,
				"element": "H" 
			},
			{
				"x": -2.9108818663,
				"y": 4.6156638405,
				"z": -0.6470872839,
				"element": "H" 
			},
			{
				"x": -3.9735304998,
				"y": 3.2667858934,
				"z": -0.2157981997,
				"element": "H" 
			},
			{
				"x": -1.7890097756,
				"y": 2.4250629415,
				"z": -1.0830570451,
				"element": "H" 
			},
			{
				"x": -0.9354268515,
				"y": 3.3947882572,
				"z": 0.1170126344,
				"element": "H" 
			},
			{
				"x": 0.3038184825,
				"y": 1.5532546559,
				"z": 1.5517343424,
				"element": "H" 
			},
			{
				"x": 1.0925074947,
				"y": 2.1959922105,
				"z": -0.5531616354,
				"element": "H" 
			},
			{
				"x": 2.8192472313,
				"y": 1.9894048285,
				"z": -2.3172627589,
				"element": "H" 
			},
			{
				"x": 4.5254162958,
				"y": -1.3682280987,
				"z": -0.2483764595,
				"element": "H" 
			},
			{
				"x": 2.8246857071,
				"y": -1.1307018757,
				"z": 1.5467737624,
				"element": "H" 
			}
		],
		 "valence_orbital": [ 
			{
				"type": "occ",
				"energy": -0.26572,
				"method": "rhf"
			},
			{
				"type": "occ",
				"energy": -0.25824,
				"method": "rhf"
			},
			{
				"type": "occ",
				"energy": -0.24503,
				"method": "rhf"
			},
			{
				"type": "occ",
				"energy": -0.22794,
				"method": "rhf"
			},
			{
				"type": "occ",
				"energy": -0.21639,
				"method": "rhf"
			},
			{
				"type": "unocc",
				"energy": -0.03791,
				"method": "rhf"
			},
			{
				"type": "unocc",
				"energy": -0.01736,
				"method": "rhf"
			},
			{
				"type": "unocc",
				"energy": -0.01563,
				"method": "rhf"
			},
			{
				"type": "unocc",
				"energy": -0.0123,
				"method": "rhf"
			},
			{
				"type": "unocc",
				"energy": 0.02803,
				"method": "rhf"
			}
		],
		"cosmo_sigma_profile": { 
			"-0.025": 0.0,
			"-0.024": 0.0,
			"-0.023": 0.0,
			"-0.022": 0.0,
			"-0.021": 0.0,
			"-0.02": 0.0,
			"-0.019": 0.0,
			"-0.018": 0.0,
			"-0.017": 0.0,
			"-0.016": 0.0,
			"-0.015": 0.0,
			"-0.014": 0.0533051399596,
			"-0.013": 1.86084526539,
			"-0.012": 2.84733897829,
			"-0.011": 4.5288665785,
			"-0.01": 5.15462511236,
			"-0.009": 3.77897939024,
			"-0.008": 5.05418273641,
			"-0.007": 11.7530059654,
			"-0.006": 16.6703734853,
			"-0.005": 25.1389534546,
			"-0.004": 28.9258390927,
			"-0.003": 26.1419600578,
			"-0.002": 24.8563676651,
			"-0.001": 20.1795323803,
			"0.0": 20.4371893529,
			"0.001": 22.1363045121,
			"0.002": 29.6243830741,
			"0.003": 34.6332588282,
			"0.004": 25.2671715862,
			"0.005": 13.4891290478,
			"0.006": 6.72090749687,
			"0.007": 5.65081334989,
			"0.008": 7.12449098627,
			"0.009": 7.04092673338,
			"0.01": 7.46735445701,
			"0.011": 7.76190771717,
			"0.012": 3.37317765556,
			"0.013": 2.83782292104,
			"0.014": 0.84012169014,
			"0.015": 0.0,
			"0.016": 0.0,
			"0.017": 0.0,
			"0.018": 0.0,
			"0.019": 0.0,
			"0.02": 0.0,
			"0.021": 0.0,
			"0.022": 0.0,
			"0.023": 0.0,
			"0.024": 0.0,
			"0.025": 0.0
		}
	}
}
