{
	 "smiles": "CN1C2=C(NC(Cl)=N2)C(=O)N(C)C1=O", 
	 "Tm": 563.15, 
	 "num_atms": 21, 
	 "gaussian": { 
		 "optdone": 1, 
		 "sigma_profile": "yes", 
		 "theory": "DFT", 
		 "functional": "B3LYP", 
		 "basiset": "6-31G**", 
		 "properties": { 
			 "R2extent": 6056.3985, 
			 "electric_dipole_moment_norm": 2.07006872591, 
			 "electric_quadrupole_moment_norm": 6.81402847661, 
			 "total_energy": -1100.64903521, 
			 "HOMO_LUMO_gap": 0.18554, 
			 "cosmo_polarized_energy": -14.73, 
			 "cosmo_cavitation_energy": 27.32, 
			 "cosmo_dispersion_energy": -20.6, 
			 "cosmo_repulsion_energy": 1.6, 
			 "cosmo_total_nonelectrostatic_energy": 8.32, 
			 "SMD_solvation_energy": 4.21 
		},
		"coords": [
			{
				"x": -3.5470956211,
				"y": -0.412923351,
				"z": 1.004838847,
				"element": "C" 
			},
			{
				"x": -2.4837095645,
				"y": -0.4957195117,
				"z": 0.0035641851,
				"element": "N" 
			},
			{
				"x": -2.5652132292,
				"y": -1.3891861604,
				"z": -1.0347088711,
				"element": "C" 
			},
			{
				"x": -1.5760743514,
				"y": -1.4842806408,
				"z": -1.9885813332,
				"element": "C" 
			},
			{
				"x": -2.010369188,
				"y": -2.4769591833,
				"z": -2.8518375348,
				"element": "N" 
			},
			{
				"x": -3.2043866487,
				"y": -2.8959957738,
				"z": -2.3619063997,
				"element": "C" 
			},
			{
				"x": -4.1010932387,
				"y": -4.1377181748,
				"z": -3.1428575955,
				"element": "Cl" 
			},
			{
				"x": -3.5845801073,
				"y": -2.2695503447,
				"z": -1.2640740047,
				"element": "N" 
			},
			{
				"x": -0.3888520512,
				"y": -0.681756975,
				"z": -1.997409022,
				"element": "C" 
			},
			{
				"x": 0.5132083697,
				"y": -0.7346142077,
				"z": -2.8257379275,
				"element": "O" 
			},
			{
				"x": -0.3817511367,
				"y": 0.2115963534,
				"z": -0.8966565879,
				"element": "N" 
			},
			{
				"x": 0.7687938005,
				"y": 1.11153524,
				"z": -0.7542494771,
				"element": "C" 
			},
			{
				"x": -1.3685494963,
				"y": 0.3434251937,
				"z": 0.1006740386,
				"element": "C" 
			},
			{
				"x": -1.2436786119,
				"y": 1.1573541442,
				"z": 1.0032173858,
				"element": "O" 
			},
			{
				"x": -3.2616293889,
				"y": 0.357511657,
				"z": 1.717651316,
				"element": "H" 
			},
			{
				"x": -3.6610235275,
				"y": -1.3748579316,
				"z": 1.5110894138,
				"element": "H" 
			},
			{
				"x": -4.4943495015,
				"y": -0.1538155788,
				"z": 0.5250912253,
				"element": "H" 
			},
			{
				"x": -1.5256262586,
				"y": -2.8088538161,
				"z": -3.6729994803,
				"element": "H" 
			},
			{
				"x": 0.4350440093,
				"y": 2.1508205298,
				"z": -0.780304545,
				"element": "H" 
			},
			{
				"x": 1.2654093539,
				"y": 0.9337894102,
				"z": 0.2017651468,
				"element": "H" 
			},
			{
				"x": 1.4441263881,
				"y": 0.9046991213,
				"z": -1.5815687795,
				"element": "H" 
			}
		],
		 "valence_orbital": [ 
			{
				"type": "occ",
				"energy": -0.29387,
				"method": "rhf"
			},
			{
				"type": "occ",
				"energy": -0.29327,
				"method": "rhf"
			},
			{
				"type": "occ",
				"energy": -0.27335,
				"method": "rhf"
			},
			{
				"type": "occ",
				"energy": -0.26685,
				"method": "rhf"
			},
			{
				"type": "occ",
				"energy": -0.22876,
				"method": "rhf"
			},
			{
				"type": "unocc",
				"energy": -0.04322,
				"method": "rhf"
			},
			{
				"type": "unocc",
				"energy": 0.01068,
				"method": "rhf"
			},
			{
				"type": "unocc",
				"energy": 0.01486,
				"method": "rhf"
			},
			{
				"type": "unocc",
				"energy": 0.02205,
				"method": "rhf"
			},
			{
				"type": "unocc",
				"energy": 0.06648,
				"method": "rhf"
			}
		],
		"cosmo_sigma_profile": { 
			"-0.025": 0.0,
			"-0.024": 0.0,
			"-0.023": 0.0,
			"-0.022": 0.0,
			"-0.021": 0.0,
			"-0.02": 0.0,
			"-0.019": 0.0162515630436,
			"-0.018": 1.41666419719,
			"-0.017": 0.751142435079,
			"-0.016": 0.747170881002,
			"-0.015": 1.76153015395,
			"-0.014": 0.548888620339,
			"-0.013": 1.11054710387,
			"-0.012": 0.985096689357,
			"-0.011": 0.958646977563,
			"-0.01": 0.914933503138,
			"-0.009": 0.96321375702,
			"-0.008": 1.0920540759,
			"-0.007": 1.45248103319,
			"-0.006": 6.22560255725,
			"-0.005": 14.4481160112,
			"-0.004": 18.8687637438,
			"-0.003": 28.2948223395,
			"-0.002": 29.6517911693,
			"-0.001": 17.1038882608,
			"0.0": 11.25629126,
			"0.001": 10.4063356706,
			"0.002": 14.3056716851,
			"0.003": 8.46756589339,
			"0.004": 5.29406457104,
			"0.005": 4.94389158925,
			"0.006": 4.53593706153,
			"0.007": 4.07769128644,
			"0.008": 2.1972959249,
			"0.009": 3.43406967044,
			"0.01": 5.53116037979,
			"0.011": 3.82092480933,
			"0.012": 10.1791926445,
			"0.013": 5.06462347465,
			"0.014": 0.277244705659,
			"0.015": 0.0,
			"0.016": 0.0,
			"0.017": 0.0,
			"0.018": 0.0,
			"0.019": 0.0,
			"0.02": 0.0,
			"0.021": 0.0,
			"0.022": 0.0,
			"0.023": 0.0,
			"0.024": 0.0,
			"0.025": 0.0
		}
	}
}
