{
	 "smiles": "COC1=CC2=C(NC=C2CCN(C)C)C=C1", 
	 "Tm": 342.65, 
	 "num_atms": 34, 
	 "gaussian": { 
		 "optdone": 1, 
		 "sigma_profile": "yes", 
		 "theory": "DFT", 
		 "functional": "B3LYP", 
		 "basiset": "6-31G**", 
		 "properties": { 
			 "R2extent": 5295.0197, 
			 "electric_dipole_moment_norm": 1.25975224151, 
			 "electric_quadrupole_moment_norm": 17.1841974785, 
			 "total_energy": -690.941354748, 
			 "HOMO_LUMO_gap": 0.18712, 
			 "cosmo_polarized_energy": -11.73, 
			 "cosmo_cavitation_energy": 36.23, 
			 "cosmo_dispersion_energy": -25.4, 
			 "cosmo_repulsion_energy": 2.0, 
			 "cosmo_total_nonelectrostatic_energy": 12.82, 
			 "SMD_solvation_energy": 4.2 
		},
		"coords": [
			{
				"x": -2.009814561,
				"y": 4.5873264183,
				"z": 0.4435074122,
				"element": "C" 
			},
			{
				"x": -2.4996954288,
				"y": 4.1269433589,
				"z": -0.8010171609,
				"element": "O" 
			},
			{
				"x": -1.976876573,
				"y": 2.9616922938,
				"z": -1.3047523578,
				"element": "C" 
			},
			{
				"x": -0.9972119498,
				"y": 2.1999254558,
				"z": -0.6763544551,
				"element": "C" 
			},
			{
				"x": -0.5501425011,
				"y": 1.0210019937,
				"z": -1.3094714243,
				"element": "C" 
			},
			{
				"x": -1.1053592549,
				"y": 0.6466992525,
				"z": -2.5598294843,
				"element": "C" 
			},
			{
				"x": -0.4890980757,
				"y": -0.5276216555,
				"z": -2.948680596,
				"element": "N" 
			},
			{
				"x": 0.4324062368,
				"y": -0.8912009266,
				"z": -1.9859994477,
				"element": "C" 
			},
			{
				"x": 0.432723687,
				"y": 0.0239033358,
				"z": -0.9598100431,
				"element": "C" 
			},
			{
				"x": 1.2741254015,
				"y": -0.0250143647,
				"z": 0.2842721812,
				"element": "C" 
			},
			{
				"x": 0.4842834,
				"y": -0.4916390586,
				"z": 1.5226275135,
				"element": "C" 
			},
			{
				"x": 1.3151629179,
				"y": -0.6423841103,
				"z": 2.7185506157,
				"element": "N" 
			},
			{
				"x": 0.6318169811,
				"y": -1.4227793509,
				"z": 3.7420795384,
				"element": "C" 
			},
			{
				"x": 1.7627918429,
				"y": 0.6340281865,
				"z": 3.2604065661,
				"element": "C" 
			},
			{
				"x": -2.09212509,
				"y": 1.4153578534,
				"z": -3.1889775127,
				"element": "C" 
			},
			{
				"x": -2.5198535242,
				"y": 2.5686979998,
				"z": -2.5523006254,
				"element": "C" 
			},
			{
				"x": -2.1981096423,
				"y": 3.8640490768,
				"z": 1.2488464893,
				"element": "H" 
			},
			{
				"x": -2.5480655745,
				"y": 5.5119685685,
				"z": 0.6602929369,
				"element": "H" 
			},
			{
				"x": -0.9323572187,
				"y": 4.7989527994,
				"z": 0.4047379833,
				"element": "H" 
			},
			{
				"x": -0.5787096398,
				"y": 2.4943450676,
				"z": 0.2787805643,
				"element": "H" 
			},
			{
				"x": -0.6624372488,
				"y": -1.0236697261,
				"z": -3.8067656453,
				"element": "H" 
			},
			{
				"x": 1.0311449962,
				"y": -1.7835733943,
				"z": -2.1072648878,
				"element": "H" 
			},
			{
				"x": 1.7060445722,
				"y": 0.9669095484,
				"z": 0.4672066831,
				"element": "H" 
			},
			{
				"x": 2.1185190246,
				"y": -0.7091100931,
				"z": 0.1439000403,
				"element": "H" 
			},
			{
				"x": 0.0506875747,
				"y": -1.4713763451,
				"z": 1.293091907,
				"element": "H" 
			},
			{
				"x": -0.3701153072,
				"y": 0.1922609917,
				"z": 1.6993537679,
				"element": "H" 
			},
			{
				"x": 0.3613337633,
				"y": -2.4054999872,
				"z": 3.3427918692,
				"element": "H" 
			},
			{
				"x": -0.2928280477,
				"y": -0.9422872808,
				"z": 4.1188194211,
				"element": "H" 
			},
			{
				"x": 1.2994248792,
				"y": -1.5768751337,
				"z": 4.5964495531,
				"element": "H" 
			},
			{
				"x": 2.4011477987,
				"y": 0.4583310934,
				"z": 4.1323158059,
				"element": "H" 
			},
			{
				"x": 2.3566412811,
				"y": 1.1803817701,
				"z": 2.5231729392,
				"element": "H" 
			},
			{
				"x": 0.926205619,
				"y": 1.2884791234,
				"z": 3.5786448518,
				"element": "H" 
			},
			{
				"x": -2.5141552093,
				"y": 1.1237896462,
				"z": -4.1467993978,
				"element": "H" 
			},
			{
				"x": -3.2821051299,
				"y": 3.201487593,
				"z": -2.9942256013,
				"element": "H" 
			}
		],
		 "valence_orbital": [ 
			{
				"type": "occ",
				"energy": -0.28717,
				"method": "rhf"
			},
			{
				"type": "occ",
				"energy": -0.26283,
				"method": "rhf"
			},
			{
				"type": "occ",
				"energy": -0.20819,
				"method": "rhf"
			},
			{
				"type": "occ",
				"energy": -0.19596,
				"method": "rhf"
			},
			{
				"type": "occ",
				"energy": -0.18921,
				"method": "rhf"
			},
			{
				"type": "unocc",
				"energy": -0.00209,
				"method": "rhf"
			},
			{
				"type": "unocc",
				"energy": 0.04453,
				"method": "rhf"
			},
			{
				"type": "unocc",
				"energy": 0.07054,
				"method": "rhf"
			},
			{
				"type": "unocc",
				"energy": 0.08225,
				"method": "rhf"
			},
			{
				"type": "unocc",
				"energy": 0.08784,
				"method": "rhf"
			}
		],
		"cosmo_sigma_profile": { 
			"-0.025": 0.0,
			"-0.024": 0.0,
			"-0.023": 0.0,
			"-0.022": 0.0,
			"-0.021": 0.0,
			"-0.02": 0.0,
			"-0.019": 0.0,
			"-0.018": 0.0,
			"-0.017": 0.0,
			"-0.016": 0.0236654887507,
			"-0.015": 1.20465772845,
			"-0.014": 1.55884403453,
			"-0.013": 0.997951432915,
			"-0.012": 1.72836201797,
			"-0.011": 0.901143778636,
			"-0.01": 1.10495668832,
			"-0.009": 1.40964966186,
			"-0.008": 1.5826395862,
			"-0.007": 4.19402455649,
			"-0.006": 5.39982482575,
			"-0.005": 11.3495489684,
			"-0.004": 22.3326691353,
			"-0.003": 31.2244385932,
			"-0.002": 27.6097526738,
			"-0.001": 30.5124684999,
			"0.0": 34.6701166588,
			"0.001": 16.684152341,
			"0.002": 11.2450002116,
			"0.003": 11.0117024489,
			"0.004": 10.338897881,
			"0.005": 16.2879842962,
			"0.006": 18.9435542395,
			"0.007": 10.0050584986,
			"0.008": 2.93134373913,
			"0.009": 2.12459422078,
			"0.01": 1.64690743187,
			"0.011": 2.08117684233,
			"0.012": 1.48206511171,
			"0.013": 0.309017326909,
			"0.014": 0.594551897431,
			"0.015": 0.319315745779,
			"0.016": 0.322197552986,
			"0.017": 0.264549349804,
			"0.018": 0.0,
			"0.019": 0.0,
			"0.02": 0.0,
			"0.021": 0.0,
			"0.022": 0.0,
			"0.023": 0.0,
			"0.024": 0.0,
			"0.025": 0.0
		}
	}
}
