{
	 "smiles": "NC1=C(Cl)C=C2NC(=O)COC2=C1", 
	 "Tm": 501.15, 
	 "num_atms": 20, 
	 "gaussian": { 
		 "optdone": 1, 
		 "sigma_profile": "yes", 
		 "theory": "DFT", 
		 "functional": "B3LYP", 
		 "basiset": "6-31G**", 
		 "properties": { 
			 "R2extent": 3286.1115, 
			 "electric_dipole_moment_norm": 2.84683463166, 
			 "electric_quadrupole_moment_norm": 9.85756601094, 
			 "total_energy": -1029.21991018, 
			 "HOMO_LUMO_gap": 0.18358, 
			 "cosmo_polarized_energy": -15.13, 
			 "cosmo_cavitation_energy": 25.87, 
			 "cosmo_dispersion_energy": -19.9, 
			 "cosmo_repulsion_energy": 1.57, 
			 "cosmo_total_nonelectrostatic_energy": 7.55, 
			 "SMD_solvation_energy": 4.87 
		},
		"coords": [
			{
				"x": 3.9765720726,
				"y": 0.7164363655,
				"z": -0.8321020918,
				"element": "N" 
			},
			{
				"x": 2.6353599546,
				"y": 0.5520113382,
				"z": -0.514968558,
				"element": "C" 
			},
			{
				"x": 1.7036487565,
				"y": 1.599491099,
				"z": -0.6392852909,
				"element": "C" 
			},
			{
				"x": 2.227633233,
				"y": 3.1471922013,
				"z": -1.3009954733,
				"element": "Cl" 
			},
			{
				"x": 0.370955417,
				"y": 1.449988664,
				"z": -0.2607156839,
				"element": "C" 
			},
			{
				"x": -0.0763509556,
				"y": 0.2331722738,
				"z": 0.2458166789,
				"element": "C" 
			},
			{
				"x": -1.4212734388,
				"y": -0.0033830596,
				"z": 0.5911620571,
				"element": "N" 
			},
			{
				"x": -1.8304605274,
				"y": -1.0898976825,
				"z": 1.3171428704,
				"element": "C" 
			},
			{
				"x": -2.9905941684,
				"y": -1.2954105119,
				"z": 1.6341559176,
				"element": "O" 
			},
			{
				"x": -0.6859783849,
				"y": -2.0041741298,
				"z": 1.7511211023,
				"element": "C" 
			},
			{
				"x": 0.4140339207,
				"y": -2.0442007538,
				"z": 0.8370010942,
				"element": "O" 
			},
			{
				"x": 0.8384089872,
				"y": -0.8236407225,
				"z": 0.383878943,
				"element": "C" 
			},
			{
				"x": 2.1666825695,
				"y": -0.6640105131,
				"z": 0.0163058924,
				"element": "C" 
			},
			{
				"x": 4.1839262467,
				"y": 1.4817293807,
				"z": -1.4584533021,
				"element": "H" 
			},
			{
				"x": 4.4730838313,
				"y": -0.1319846133,
				"z": -1.0629737653,
				"element": "H" 
			},
			{
				"x": -0.3153614525,
				"y": 2.2821089378,
				"z": -0.3782940709,
				"element": "H" 
			},
			{
				"x": -2.1399623804,
				"y": 0.6557003324,
				"z": 0.3214312287,
				"element": "H" 
			},
			{
				"x": -1.0702254724,
				"y": -3.0209795574,
				"z": 1.8283704464,
				"element": "H" 
			},
			{
				"x": -0.3415603782,
				"y": -1.6810389579,
				"z": 2.745670928,
				"element": "H" 
			},
			{
				"x": 2.8442621695,
				"y": -1.5019100908,
				"z": 0.1457310769,
				"element": "H" 
			}
		],
		 "valence_orbital": [ 
			{
				"type": "occ",
				"energy": -0.32232,
				"method": "rhf"
			},
			{
				"type": "occ",
				"energy": -0.27803,
				"method": "rhf"
			},
			{
				"type": "occ",
				"energy": -0.26245,
				"method": "rhf"
			},
			{
				"type": "occ",
				"energy": -0.23914,
				"method": "rhf"
			},
			{
				"type": "occ",
				"energy": -0.19969,
				"method": "rhf"
			},
			{
				"type": "unocc",
				"energy": -0.01611,
				"method": "rhf"
			},
			{
				"type": "unocc",
				"energy": -0.01011,
				"method": "rhf"
			},
			{
				"type": "unocc",
				"energy": 0.0235,
				"method": "rhf"
			},
			{
				"type": "unocc",
				"energy": 0.03262,
				"method": "rhf"
			},
			{
				"type": "unocc",
				"energy": 0.07217,
				"method": "rhf"
			}
		],
		"cosmo_sigma_profile": { 
			"-0.025": 0.0,
			"-0.024": 0.0,
			"-0.023": 0.0,
			"-0.022": 0.0,
			"-0.021": 0.0,
			"-0.02": 0.0,
			"-0.019": 0.0,
			"-0.018": 0.0,
			"-0.017": 0.0,
			"-0.016": 0.353818782713,
			"-0.015": 1.43027951871,
			"-0.014": 1.18947159179,
			"-0.013": 2.5278877983,
			"-0.012": 3.02609635044,
			"-0.011": 3.41019933181,
			"-0.01": 4.37373352946,
			"-0.009": 3.46172351841,
			"-0.008": 7.26484446271,
			"-0.007": 10.0566004644,
			"-0.006": 8.46493253059,
			"-0.005": 9.12126617929,
			"-0.004": 8.59904600341,
			"-0.003": 7.4267821286,
			"-0.002": 9.61663455509,
			"-0.001": 10.1055322906,
			"0.0": 10.9269358631,
			"0.001": 13.4783344319,
			"0.002": 15.6297866899,
			"0.003": 20.9941219503,
			"0.004": 17.4144561349,
			"0.005": 9.08515861126,
			"0.006": 3.04370030063,
			"0.007": 3.48488827604,
			"0.008": 3.56200763052,
			"0.009": 2.98887523018,
			"0.01": 3.32875660694,
			"0.011": 2.54879802345,
			"0.012": 4.32747122115,
			"0.013": 6.00111910664,
			"0.014": 1.34760230776,
			"0.015": 0.0,
			"0.016": 0.0,
			"0.017": 0.0,
			"0.018": 0.0,
			"0.019": 0.0,
			"0.02": 0.0,
			"0.021": 0.0,
			"0.022": 0.0,
			"0.023": 0.0,
			"0.024": 0.0,
			"0.025": 0.0
		}
	}
}
