{
	 "smiles": "CC1=CC2=C(C=C1)C=CC1=C2C=C(C)C=C1", 
	 "Tm": 418.15, 
	 "num_atms": 30, 
	 "gaussian": { 
		 "optdone": 1, 
		 "sigma_profile": "yes", 
		 "theory": "DFT", 
		 "functional": "B3LYP", 
		 "basiset": "6-31G**", 
		 "properties": { 
			 "R2extent": 3970.9907, 
			 "electric_dipole_moment_norm": 0.579438987297, 
			 "electric_quadrupole_moment_norm": 11.1560320912, 
			 "total_energy": -618.18302307, 
			 "HOMO_LUMO_gap": 0.1715, 
			 "cosmo_polarized_energy": -6.07, 
			 "cosmo_cavitation_energy": 32.41, 
			 "cosmo_dispersion_energy": -23.92, 
			 "cosmo_repulsion_energy": 1.81, 
			 "cosmo_total_nonelectrostatic_energy": 10.3, 
			 "SMD_solvation_energy": 5.0 
		},
		"coords": [
			{
				"x": 0.6002592787,
				"y": -3.6507369226,
				"z": -2.2071712288,
				"element": "C" 
			},
			{
				"x": 0.9847492689,
				"y": -2.3419145949,
				"z": -1.5595709192,
				"element": "C" 
			},
			{
				"x": 0.0262126782,
				"y": -1.4857081185,
				"z": -1.0400291816,
				"element": "C" 
			},
			{
				"x": 0.3583533773,
				"y": -0.2532750261,
				"z": -0.4277532269,
				"element": "C" 
			},
			{
				"x": 1.7361508407,
				"y": 0.1054740485,
				"z": -0.3509758367,
				"element": "C" 
			},
			{
				"x": 2.7079500868,
				"y": -0.7745480192,
				"z": -0.883902177,
				"element": "C" 
			},
			{
				"x": 2.3460718017,
				"y": -1.9667825074,
				"z": -1.4729921208,
				"element": "C" 
			},
			{
				"x": 2.1205718929,
				"y": 1.3442600797,
				"z": 0.2604417248,
				"element": "C" 
			},
			{
				"x": 1.188580648,
				"y": 2.1924000641,
				"z": 0.7737777948,
				"element": "C" 
			},
			{
				"x": -0.2088948094,
				"y": 1.8755207231,
				"z": 0.7203206655,
				"element": "C" 
			},
			{
				"x": -0.639904666,
				"y": 0.6551732165,
				"z": 0.1220772554,
				"element": "C" 
			},
			{
				"x": -2.0291684865,
				"y": 0.384758684,
				"z": 0.0920212716,
				"element": "C" 
			},
			{
				"x": -2.9696300576,
				"y": 1.256681832,
				"z": 0.6184152953,
				"element": "C" 
			},
			{
				"x": -4.4455948277,
				"y": 0.9410476999,
				"z": 0.5719770528,
				"element": "C" 
			},
			{
				"x": -2.520591158,
				"y": 2.4619956733,
				"z": 1.2074719407,
				"element": "C" 
			},
			{
				"x": -1.1757918864,
				"y": 2.7597564851,
				"z": 1.2551921465,
				"element": "C" 
			},
			{
				"x": 0.9373498391,
				"y": -3.6936179946,
				"z": -3.2497104766,
				"element": "H" 
			},
			{
				"x": -0.4830424041,
				"y": -3.7991179206,
				"z": -2.1999757172,
				"element": "H" 
			},
			{
				"x": 1.0583388465,
				"y": -4.5014897635,
				"z": -1.6887524704,
				"element": "H" 
			},
			{
				"x": -1.0146486245,
				"y": -1.7835949278,
				"z": -1.1119552853,
				"element": "H" 
			},
			{
				"x": 3.7560246728,
				"y": -0.4922204153,
				"z": -0.8206193213,
				"element": "H" 
			},
			{
				"x": 3.1095707499,
				"y": -2.6278322456,
				"z": -1.8759956387,
				"element": "H" 
			},
			{
				"x": 3.1780785728,
				"y": 1.5917946395,
				"z": 0.3049314095,
				"element": "H" 
			},
			{
				"x": 1.4881907246,
				"y": 3.1296441882,
				"z": 1.2357089033,
				"element": "H" 
			},
			{
				"x": -2.3849302807,
				"y": -0.5365802071,
				"z": -0.3572813318,
				"element": "H" 
			},
			{
				"x": -4.6354179608,
				"y": -0.0198725789,
				"z": 0.0859553066,
				"element": "H" 
			},
			{
				"x": -5.0004147536,
				"y": 1.7102214607,
				"z": 0.0216197249,
				"element": "H" 
			},
			{
				"x": -4.875627615,
				"y": 0.8974131916,
				"z": 1.5797248379,
				"element": "H" 
			},
			{
				"x": -3.2462357363,
				"y": 3.1560732934,
				"z": 1.6246306992,
				"element": "H" 
			},
			{
				"x": -0.8373600123,
				"y": 3.6878759626,
				"z": 1.7093189034,
				"element": "H" 
			}
		],
		 "valence_orbital": [ 
			{
				"type": "occ",
				"energy": -0.30051,
				"method": "rhf"
			},
			{
				"type": "occ",
				"energy": -0.27592,
				"method": "rhf"
			},
			{
				"type": "occ",
				"energy": -0.24874,
				"method": "rhf"
			},
			{
				"type": "occ",
				"energy": -0.21789,
				"method": "rhf"
			},
			{
				"type": "occ",
				"energy": -0.20285,
				"method": "rhf"
			},
			{
				"type": "unocc",
				"energy": -0.03135,
				"method": "rhf"
			},
			{
				"type": "unocc",
				"energy": -0.02782,
				"method": "rhf"
			},
			{
				"type": "unocc",
				"energy": 0.01382,
				"method": "rhf"
			},
			{
				"type": "unocc",
				"energy": 0.03779,
				"method": "rhf"
			},
			{
				"type": "unocc",
				"energy": 0.08208,
				"method": "rhf"
			}
		],
		"cosmo_sigma_profile": { 
			"-0.025": 0.0,
			"-0.024": 0.0,
			"-0.023": 0.0,
			"-0.022": 0.0,
			"-0.021": 0.0,
			"-0.02": 0.0,
			"-0.019": 0.0,
			"-0.018": 0.0,
			"-0.017": 0.0,
			"-0.016": 0.0,
			"-0.015": 0.0,
			"-0.014": 0.0,
			"-0.013": 0.0,
			"-0.012": 0.0,
			"-0.011": 0.0,
			"-0.01": 0.0,
			"-0.009": 0.0,
			"-0.008": 0.161332088859,
			"-0.007": 1.16741838088,
			"-0.006": 7.4961730265,
			"-0.005": 17.4562467297,
			"-0.004": 23.6877944603,
			"-0.003": 28.3745302963,
			"-0.002": 23.5840655455,
			"-0.001": 22.7054821549,
			"0.0": 23.3243729537,
			"0.001": 16.8960337702,
			"0.002": 14.5797711354,
			"0.003": 15.8335484825,
			"0.004": 28.4512111209,
			"0.005": 27.3319581197,
			"0.006": 7.38141017767,
			"0.007": 0.0,
			"0.008": 0.0,
			"0.009": 0.0,
			"0.01": 0.0,
			"0.011": 0.0,
			"0.012": 0.0,
			"0.013": 0.0,
			"0.014": 0.0,
			"0.015": 0.0,
			"0.016": 0.0,
			"0.017": 0.0,
			"0.018": 0.0,
			"0.019": 0.0,
			"0.02": 0.0,
			"0.021": 0.0,
			"0.022": 0.0,
			"0.023": 0.0,
			"0.024": 0.0,
			"0.025": 0.0
		}
	}
}
