{
	 "smiles": "CC(=O)NCCC1=C(F)C=C(C=C1)C(=O)CCl", 
	 "Tm": 371.15, 
	 "num_atms": 30, 
	 "gaussian": { 
		 "optdone": 1, 
		 "sigma_profile": "yes", 
		 "theory": "DFT", 
		 "functional": "B3LYP", 
		 "basiset": "6-31G**", 
		 "properties": { 
			 "R2extent": 7287.1955, 
			 "electric_dipole_moment_norm": 3.20748373651, 
			 "electric_quadrupole_moment_norm": 21.2753274861, 
			 "total_energy": -1230.3635786, 
			 "HOMO_LUMO_gap": 0.16108, 
			 "cosmo_polarized_energy": -18.08, 
			 "cosmo_cavitation_energy": 36.12, 
			 "cosmo_dispersion_energy": -25.04, 
			 "cosmo_repulsion_energy": 1.95, 
			 "cosmo_total_nonelectrostatic_energy": 13.02, 
			 "SMD_solvation_energy": 6.76 
		},
		"coords": [
			{
				"x": 0.6885642566,
				"y": 3.9491197716,
				"z": -1.8942033664,
				"element": "C" 
			},
			{
				"x": 1.4619634418,
				"y": 2.6508008425,
				"z": -1.7389905243,
				"element": "C" 
			},
			{
				"x": 2.070232386,
				"y": 2.1237027241,
				"z": -2.6616486375,
				"element": "O" 
			},
			{
				"x": 1.4170271954,
				"y": 2.0910925429,
				"z": -0.4851885341,
				"element": "N" 
			},
			{
				"x": 1.9199924972,
				"y": 0.7471084709,
				"z": -0.256205242,
				"element": "C" 
			},
			{
				"x": 0.9757417017,
				"y": -0.3696430911,
				"z": -0.7667458912,
				"element": "C" 
			},
			{
				"x": -0.3677720936,
				"y": -0.3755706965,
				"z": -0.0808686722,
				"element": "C" 
			},
			{
				"x": -1.4430669099,
				"y": 0.3770221268,
				"z": -0.5724420036,
				"element": "C" 
			},
			{
				"x": -1.2694256162,
				"y": 1.0876075783,
				"z": -1.712453225,
				"element": "F" 
			},
			{
				"x": -2.6800839672,
				"y": 0.4222793503,
				"z": 0.0446095911,
				"element": "C" 
			},
			{
				"x": -2.8858808533,
				"y": -0.3096879679,
				"z": 1.2241686562,
				"element": "C" 
			},
			{
				"x": -1.8319361915,
				"y": -1.0757769436,
				"z": 1.7450654074,
				"element": "C" 
			},
			{
				"x": -0.5996880892,
				"y": -1.1022712404,
				"z": 1.0953845049,
				"element": "C" 
			},
			{
				"x": -4.2428790443,
				"y": -0.2480845643,
				"z": 1.8408099846,
				"element": "C" 
			},
			{
				"x": -5.1515736662,
				"y": 0.3850987797,
				"z": 1.3292380439,
				"element": "O" 
			},
			{
				"x": -4.5322213995,
				"y": -1.0241835325,
				"z": 3.1289841258,
				"element": "C" 
			},
			{
				"x": -3.6842946688,
				"y": -0.2938273533,
				"z": 4.5589584033,
				"element": "Cl" 
			},
			{
				"x": -0.3501852938,
				"y": 3.7099507831,
				"z": -2.146890377,
				"element": "H" 
			},
			{
				"x": 0.6896199597,
				"y": 4.553247129,
				"z": -0.9817583877,
				"element": "H" 
			},
			{
				"x": 1.1204789782,
				"y": 4.5225222557,
				"z": -2.7148794577,
				"element": "H" 
			},
			{
				"x": 0.7875030705,
				"y": 2.4886720203,
				"z": 0.196120028,
				"element": "H" 
			},
			{
				"x": 2.1057181977,
				"y": 0.6280195124,
				"z": 0.815964895,
				"element": "H" 
			},
			{
				"x": 2.8732950685,
				"y": 0.6591613367,
				"z": -0.7828547773,
				"element": "H" 
			},
			{
				"x": 1.4698967109,
				"y": -1.33429239,
				"z": -0.6046707742,
				"element": "H" 
			},
			{
				"x": 0.853907649,
				"y": -0.2356568282,
				"z": -1.8443109155,
				"element": "H" 
			},
			{
				"x": -3.4878635808,
				"y": 1.0100796866,
				"z": -0.3758425833,
				"element": "H" 
			},
			{
				"x": -1.9591018306,
				"y": -1.642079263,
				"z": 2.6605215361,
				"element": "H" 
			},
			{
				"x": 0.2080126552,
				"y": -1.7032426008,
				"z": 1.5048087504,
				"element": "H" 
			},
			{
				"x": -5.6012523959,
				"y": -0.9645147828,
				"z": 3.3233914481,
				"element": "H" 
			},
			{
				"x": -4.2137281674,
				"y": -2.0663536565,
				"z": 3.0659279942,
				"element": "H" 
			}
		],
		 "valence_orbital": [ 
			{
				"type": "occ",
				"energy": -0.27576,
				"method": "rhf"
			},
			{
				"type": "occ",
				"energy": -0.26998,
				"method": "rhf"
			},
			{
				"type": "occ",
				"energy": -0.26487,
				"method": "rhf"
			},
			{
				"type": "occ",
				"energy": -0.25403,
				"method": "rhf"
			},
			{
				"type": "occ",
				"energy": -0.2434,
				"method": "rhf"
			},
			{
				"type": "unocc",
				"energy": -0.08232,
				"method": "rhf"
			},
			{
				"type": "unocc",
				"energy": -0.02156,
				"method": "rhf"
			},
			{
				"type": "unocc",
				"energy": -0.0071,
				"method": "rhf"
			},
			{
				"type": "unocc",
				"energy": 0.02885,
				"method": "rhf"
			},
			{
				"type": "unocc",
				"energy": 0.04404,
				"method": "rhf"
			}
		],
		"cosmo_sigma_profile": { 
			"-0.025": 0.0,
			"-0.024": 0.0,
			"-0.023": 0.0,
			"-0.022": 0.0,
			"-0.021": 0.0,
			"-0.02": 0.0,
			"-0.019": 0.0,
			"-0.018": 0.0,
			"-0.017": 0.0,
			"-0.016": 0.0,
			"-0.015": 0.0,
			"-0.014": 0.212366683093,
			"-0.013": 1.19667396384,
			"-0.012": 0.980812034474,
			"-0.011": 1.11284244519,
			"-0.01": 1.95673487449,
			"-0.009": 5.51961761138,
			"-0.008": 6.05767551638,
			"-0.007": 9.35246961639,
			"-0.006": 14.4898555127,
			"-0.005": 19.7095528948,
			"-0.004": 18.5844260896,
			"-0.003": 19.4254675203,
			"-0.002": 20.5670555993,
			"-0.001": 25.5399826356,
			"0.0": 21.8346135729,
			"0.001": 21.1463593867,
			"0.002": 17.9777078811,
			"0.003": 17.5503871079,
			"0.004": 15.922312443,
			"0.005": 12.7538422578,
			"0.006": 5.46667093276,
			"0.007": 2.93107756739,
			"0.008": 3.53708125546,
			"0.009": 3.52652553302,
			"0.01": 4.93450739618,
			"0.011": 4.53100169565,
			"0.012": 2.00156261544,
			"0.013": 3.13113485779,
			"0.014": 4.44918860093,
			"0.015": 1.90234057671,
			"0.016": 0.100685879718,
			"0.017": 0.0,
			"0.018": 0.0,
			"0.019": 0.0,
			"0.02": 0.0,
			"0.021": 0.0,
			"0.022": 0.0,
			"0.023": 0.0,
			"0.024": 0.0,
			"0.025": 0.0
		}
	}
}
