{
	 "smiles": "CNC1=C(C=C(Br)C=C1)[N+]([O-])=O", 
	 "Tm": 375.15, 
	 "num_atms": 19, 
	 "gaussian": { 
		 "optdone": 1, 
		 "sigma_profile": "yes", 
		 "theory": "DFT", 
		 "functional": "B3LYP", 
		 "basiset": "6-31G**", 
		 "properties": { 
			 "R2extent": 5023.4787, 
			 "electric_dipole_moment_norm": 5.08303408901, 
			 "electric_quadrupole_moment_norm": 10.8213967832, 
			 "total_energy": -3102.22195236, 
			 "HOMO_LUMO_gap": 0.12999, 
			 "cosmo_polarized_energy": -9.79, 
			 "cosmo_cavitation_energy": 25.65, 
			 "cosmo_dispersion_energy": -19.62, 
			 "cosmo_repulsion_energy": 1.56, 
			 "cosmo_total_nonelectrostatic_energy": 7.59, 
			 "SMD_solvation_energy": 4.76 
		},
		"coords": [
			{
				"x": -0.7336934679,
				"y": -1.4120236008,
				"z": 1.9777905766,
				"element": "C" 
			},
			{
				"x": 0.4511203684,
				"y": -0.846800997,
				"z": 1.3683575857,
				"element": "N" 
			},
			{
				"x": 0.6053946582,
				"y": -0.6416276883,
				"z": 0.037831293,
				"element": "C" 
			},
			{
				"x": 1.7880939826,
				"y": -0.0820897894,
				"z": -0.539482669,
				"element": "C" 
			},
			{
				"x": 1.9097831711,
				"y": 0.1152597289,
				"z": -1.9236928356,
				"element": "C" 
			},
			{
				"x": 0.8745043525,
				"y": -0.2324190457,
				"z": -2.7657249029,
				"element": "C" 
			},
			{
				"x": 1.0328914595,
				"y": 0.0331300114,
				"z": -4.6481094163,
				"element": "Br" 
			},
			{
				"x": -0.3020612237,
				"y": -0.7842663596,
				"z": -2.2369227731,
				"element": "C" 
			},
			{
				"x": -0.4298691536,
				"y": -0.9817478727,
				"z": -0.8757662391,
				"element": "C" 
			},
			{
				"x": 2.9272736118,
				"y": 0.3131799312,
				"z": 0.2646011723,
				"element": "N" 
			},
			{
				"x": 3.9130635361,
				"y": 0.7878301627,
				"z": -0.2989700805,
				"element": "O" 
			},
			{
				"x": 2.8723163065,
				"y": 0.15982411,
				"z": 1.501921001,
				"element": "O" 
			},
			{
				"x": -1.6249979854,
				"y": -0.7983564496,
				"z": 1.7932031958,
				"element": "H" 
			},
			{
				"x": -0.9363914205,
				"y": -2.4294902707,
				"z": 1.6189793946,
				"element": "H" 
			},
			{
				"x": -0.5735290027,
				"y": -1.4595440054,
				"z": 3.0559442785,
				"element": "H" 
			},
			{
				"x": 1.2429329082,
				"y": -0.5733974752,
				"z": 1.9369225548,
				"element": "H" 
			},
			{
				"x": 2.8299064646,
				"y": 0.5427010069,
				"z": -2.2978298095,
				"element": "H" 
			},
			{
				"x": -1.1157423879,
				"y": -1.0574871174,
				"z": -2.8997884817,
				"element": "H" 
			},
			{
				"x": -1.3479961777,
				"y": -1.4092742792,
				"z": -0.4921638448,
				"element": "H" 
			}
		],
		 "valence_orbital": [ 
			{
				"type": "occ",
				"energy": -0.29307,
				"method": "rhf"
			},
			{
				"type": "occ",
				"energy": -0.28998,
				"method": "rhf"
			},
			{
				"type": "occ",
				"energy": -0.28906,
				"method": "rhf"
			},
			{
				"type": "occ",
				"energy": -0.28527,
				"method": "rhf"
			},
			{
				"type": "occ",
				"energy": -0.21961,
				"method": "rhf"
			},
			{
				"type": "unocc",
				"energy": -0.08962,
				"method": "rhf"
			},
			{
				"type": "unocc",
				"energy": -0.01426,
				"method": "rhf"
			},
			{
				"type": "unocc",
				"energy": -0.00141,
				"method": "rhf"
			},
			{
				"type": "unocc",
				"energy": 0.00034,
				"method": "rhf"
			},
			{
				"type": "unocc",
				"energy": 0.08208,
				"method": "rhf"
			}
		],
		"cosmo_sigma_profile": { 
			"-0.025": 0.0,
			"-0.024": 0.0,
			"-0.023": 0.0,
			"-0.022": 0.0,
			"-0.021": 0.0,
			"-0.02": 0.0,
			"-0.019": 0.0,
			"-0.018": 0.0,
			"-0.017": 0.0,
			"-0.016": 0.0,
			"-0.015": 0.0,
			"-0.014": 0.0,
			"-0.013": 0.0,
			"-0.012": 0.0357247925057,
			"-0.011": 0.369624068833,
			"-0.01": 0.770734502361,
			"-0.009": 0.856930893697,
			"-0.008": 2.89736185674,
			"-0.007": 6.76319925017,
			"-0.006": 10.8904262651,
			"-0.005": 14.0520257889,
			"-0.004": 14.7699771539,
			"-0.003": 15.3480251144,
			"-0.002": 17.1714801025,
			"-0.001": 15.4426166167,
			"0.0": 17.8993199175,
			"0.001": 18.4988276518,
			"0.002": 17.7672821405,
			"0.003": 11.7080388144,
			"0.004": 12.1672765396,
			"0.005": 6.99717995861,
			"0.006": 3.02532436197,
			"0.007": 3.95634218029,
			"0.008": 6.62159382789,
			"0.009": 4.23076907685,
			"0.01": 4.23046787636,
			"0.011": 2.26438853788,
			"0.012": 0.0192267525393,
			"0.013": 0.0,
			"0.014": 0.0,
			"0.015": 0.0,
			"0.016": 0.0,
			"0.017": 0.0,
			"0.018": 0.0,
			"0.019": 0.0,
			"0.02": 0.0,
			"0.021": 0.0,
			"0.022": 0.0,
			"0.023": 0.0,
			"0.024": 0.0,
			"0.025": 0.0
		}
	}
}
