{
	 "smiles": "ClC(Br)C(Cl)Br", 
	 "Tm": 247.15, 
	 "num_atms": 8, 
	 "gaussian": { 
		 "optdone": 1, 
		 "sigma_profile": "yes", 
		 "theory": "DFT", 
		 "functional": "B3LYP", 
		 "basiset": "6-31G**", 
		 "properties": { 
			 "R2extent": 3793.9452, 
			 "electric_dipole_moment_norm": 1.56076193572, 
			 "electric_quadrupole_moment_norm": 8.13233888005, 
			 "total_energy": -6140.59471743, 
			 "HOMO_LUMO_gap": 0.23524, 
			 "cosmo_polarized_energy": -6.48, 
			 "cosmo_cavitation_energy": 19.69, 
			 "cosmo_dispersion_energy": -15.49, 
			 "cosmo_repulsion_energy": 1.32, 
			 "cosmo_total_nonelectrostatic_energy": 5.52, 
			 "SMD_solvation_energy": 0.44 
		},
		"coords": [
			{
				"x": -2.4487510932,
				"y": 0.4070157758,
				"z": 1.3686203887,
				"element": "Cl" 
			},
			{
				"x": -1.7972807596,
				"y": -1.1869839094,
				"z": 1.8699839238,
				"element": "C" 
			},
			{
				"x": -0.0073812852,
				"y": -1.0287447767,
				"z": 2.6430845703,
				"element": "Br" 
			},
			{
				"x": -1.8821756186,
				"y": -2.1775236856,
				"z": 0.7041817037,
				"element": "C" 
			},
			{
				"x": -1.6134242064,
				"y": -3.8481696034,
				"z": 1.2985963714,
				"element": "Cl" 
			},
			{
				"x": -0.6995725888,
				"y": -1.740349656,
				"z": -0.7913756389,
				"element": "Br" 
			},
			{
				"x": -2.4309242172,
				"y": -1.5461617231,
				"z": 2.6786874454,
				"element": "H" 
			},
			{
				"x": -2.8899902309,
				"y": -2.1471824217,
				"z": 0.2944212356,
				"element": "H" 
			}
		],
		 "valence_orbital": [ 
			{
				"type": "occ",
				"energy": -0.3298,
				"method": "rhf"
			},
			{
				"type": "occ",
				"energy": -0.30738,
				"method": "rhf"
			},
			{
				"type": "occ",
				"energy": -0.29932,
				"method": "rhf"
			},
			{
				"type": "occ",
				"energy": -0.29462,
				"method": "rhf"
			},
			{
				"type": "occ",
				"energy": -0.29151,
				"method": "rhf"
			},
			{
				"type": "unocc",
				"energy": -0.05627,
				"method": "rhf"
			},
			{
				"type": "unocc",
				"energy": -0.03252,
				"method": "rhf"
			},
			{
				"type": "unocc",
				"energy": -0.00786,
				"method": "rhf"
			},
			{
				"type": "unocc",
				"energy": 0.02112,
				"method": "rhf"
			},
			{
				"type": "unocc",
				"energy": 0.08895,
				"method": "rhf"
			}
		],
		"cosmo_sigma_profile": { 
			"-0.025": 0.0,
			"-0.024": 0.0,
			"-0.023": 0.0,
			"-0.022": 0.0,
			"-0.021": 0.0,
			"-0.02": 0.0,
			"-0.019": 0.0,
			"-0.018": 0.0,
			"-0.017": 0.0,
			"-0.016": 0.0,
			"-0.015": 0.0,
			"-0.014": 0.0,
			"-0.013": 0.191167941772,
			"-0.012": 4.57988266643,
			"-0.011": 3.80904044633,
			"-0.01": 2.64758620068,
			"-0.009": 2.6563851813,
			"-0.008": 2.26252737419,
			"-0.007": 1.91978793365,
			"-0.006": 3.53635744862,
			"-0.005": 4.51088376171,
			"-0.004": 5.53318941144,
			"-0.003": 7.49329151964,
			"-0.002": 9.63905897444,
			"-0.001": 8.07233934863,
			"0.0": 11.6852747351,
			"0.001": 12.4955835202,
			"0.002": 18.3952912668,
			"0.003": 31.7000539939,
			"0.004": 30.7840298399,
			"0.005": 5.57736355731,
			"0.006": 0.209636214968,
			"0.007": 0.0,
			"0.008": 0.0,
			"0.009": 0.0,
			"0.01": 0.0,
			"0.011": 0.0,
			"0.012": 0.0,
			"0.013": 0.0,
			"0.014": 0.0,
			"0.015": 0.0,
			"0.016": 0.0,
			"0.017": 0.0,
			"0.018": 0.0,
			"0.019": 0.0,
			"0.02": 0.0,
			"0.021": 0.0,
			"0.022": 0.0,
			"0.023": 0.0,
			"0.024": 0.0,
			"0.025": 0.0
		}
	}
}
