{
	 "smiles": "CC(C)(C)C1=NC=C(S1)C(O)=O", 
	 "Tm": 478.15, 
	 "num_atms": 23, 
	 "gaussian": { 
		 "optdone": 1, 
		 "sigma_profile": "yes", 
		 "theory": "DFT", 
		 "functional": "B3LYP", 
		 "basiset": "6-31G**", 
		 "properties": { 
			 "R2extent": 3392.4716, 
			 "electric_dipole_moment_norm": 5.2795995208, 
			 "electric_quadrupole_moment_norm": 22.2672331975, 
			 "total_energy": -914.877669247, 
			 "HOMO_LUMO_gap": 0.19137, 
			 "cosmo_polarized_energy": -13.53, 
			 "cosmo_cavitation_energy": 27.74, 
			 "cosmo_dispersion_energy": -20.3, 
			 "cosmo_repulsion_energy": 1.57, 
			 "cosmo_total_nonelectrostatic_energy": 9.02, 
			 "SMD_solvation_energy": 4.83 
		},
		"coords": [
			{
				"x": 0.3415087129,
				"y": 1.7357451883,
				"z": 0.7164924954,
				"element": "C" 
			},
			{
				"x": 0.3533192342,
				"y": 1.2554957581,
				"z": -0.7539485812,
				"element": "C" 
			},
			{
				"x": 1.7180644467,
				"y": 1.5957934185,
				"z": -1.3977114008,
				"element": "C" 
			},
			{
				"x": -0.7749213352,
				"y": 1.9553845677,
				"z": -1.5348573544,
				"element": "C" 
			},
			{
				"x": 0.1274316526,
				"y": -0.246776847,
				"z": -0.8010691325,
				"element": "C" 
			},
			{
				"x": -0.86552087,
				"y": -0.8417668964,
				"z": -1.4008737424,
				"element": "N" 
			},
			{
				"x": -0.8070659887,
				"y": -2.2017866356,
				"z": -1.2732335934,
				"element": "C" 
			},
			{
				"x": 0.2503240983,
				"y": -2.7046161848,
				"z": -0.55913837,
				"element": "C" 
			},
			{
				"x": 1.2433036465,
				"y": -1.3759696623,
				"z": -0.0082368424,
				"element": "S" 
			},
			{
				"x": 0.4807438378,
				"y": -4.1480078124,
				"z": -0.3149947356,
				"element": "C" 
			},
			{
				"x": 1.5730113351,
				"y": -4.5001085983,
				"z": 0.4116820082,
				"element": "O" 
			},
			{
				"x": -0.26542558,
				"y": -4.9983063993,
				"z": -0.7407959734,
				"element": "O" 
			},
			{
				"x": 0.4805622376,
				"y": 2.8211412458,
				"z": 0.7524014436,
				"element": "H" 
			},
			{
				"x": -0.6100035221,
				"y": 1.4974325603,
				"z": 1.2015241543,
				"element": "H" 
			},
			{
				"x": 1.1454478028,
				"y": 1.27583624,
				"z": 1.3002807494,
				"element": "H" 
			},
			{
				"x": 1.7591554458,
				"y": 1.2569346625,
				"z": -2.4373803968,
				"element": "H" 
			},
			{
				"x": 1.8729837558,
				"y": 2.679556071,
				"z": -1.3854799646,
				"element": "H" 
			},
			{
				"x": 2.5493260231,
				"y": 1.1329382001,
				"z": -0.8560120552,
				"element": "H" 
			},
			{
				"x": -1.7535500533,
				"y": 1.7318321288,
				"z": -1.103453236,
				"element": "H" 
			},
			{
				"x": -0.6186361514,
				"y": 3.0385406235,
				"z": -1.5049574991,
				"element": "H" 
			},
			{
				"x": -0.7928296492,
				"y": 1.6340410907,
				"z": -2.5790179976,
				"element": "H" 
			},
			{
				"x": -1.5687972182,
				"y": -2.8274714965,
				"z": -1.7221791428,
				"element": "H" 
			},
			{
				"x": 2.0836681389,
				"y": -3.7265612227,
				"z": 0.6904591671,
				"element": "H" 
			}
		],
		 "valence_orbital": [ 
			{
				"type": "occ",
				"energy": -0.32185,
				"method": "rhf"
			},
			{
				"type": "occ",
				"energy": -0.30275,
				"method": "rhf"
			},
			{
				"type": "occ",
				"energy": -0.28862,
				"method": "rhf"
			},
			{
				"type": "occ",
				"energy": -0.28028,
				"method": "rhf"
			},
			{
				"type": "occ",
				"energy": -0.25927,
				"method": "rhf"
			},
			{
				"type": "unocc",
				"energy": -0.0679,
				"method": "rhf"
			},
			{
				"type": "unocc",
				"energy": -0.0158,
				"method": "rhf"
			},
			{
				"type": "unocc",
				"energy": 0.00909,
				"method": "rhf"
			},
			{
				"type": "unocc",
				"energy": 0.0493,
				"method": "rhf"
			},
			{
				"type": "unocc",
				"energy": 0.08229,
				"method": "rhf"
			}
		],
		"cosmo_sigma_profile": { 
			"-0.025": 0.0,
			"-0.024": 0.0,
			"-0.023": 0.0,
			"-0.022": 0.0,
			"-0.021": 0.0,
			"-0.02": 0.0,
			"-0.019": 0.0,
			"-0.018": 0.403116184572,
			"-0.017": 1.12931222029,
			"-0.016": 0.937199822961,
			"-0.015": 0.99504225185,
			"-0.014": 0.809407493085,
			"-0.013": 1.47701042337,
			"-0.012": 1.11420401985,
			"-0.011": 1.20212260801,
			"-0.01": 0.575340028621,
			"-0.009": 1.16396666774,
			"-0.008": 2.30292868147,
			"-0.007": 2.86863603065,
			"-0.006": 2.73412180172,
			"-0.005": 4.17415225074,
			"-0.004": 17.1107749305,
			"-0.003": 23.5319912711,
			"-0.002": 22.3364986513,
			"-0.001": 26.8615530064,
			"0.0": 33.3503039363,
			"0.001": 19.878266266,
			"0.002": 7.87369965084,
			"0.003": 5.16669683117,
			"0.004": 4.34132529246,
			"0.005": 3.22947935993,
			"0.006": 3.62433572581,
			"0.007": 4.93694657174,
			"0.008": 3.55245553474,
			"0.009": 4.69469391178,
			"0.01": 5.6035339377,
			"0.011": 6.26165083261,
			"0.012": 4.77746823448,
			"0.013": 1.43973925284,
			"0.014": 0.0750115714556,
			"0.015": 0.0,
			"0.016": 0.0,
			"0.017": 0.0,
			"0.018": 0.0,
			"0.019": 0.0,
			"0.02": 0.0,
			"0.021": 0.0,
			"0.022": 0.0,
			"0.023": 0.0,
			"0.024": 0.0,
			"0.025": 0.0
		}
	}
}
