{
	 "smiles": "NS(=O)(=O)C1=CC=CC=C1OC(F)(F)F", 
	 "Tm": 461.65, 
	 "num_atms": 21, 
	 "gaussian": { 
		 "optdone": 1, 
		 "sigma_profile": "yes", 
		 "theory": "DFT", 
		 "functional": "B3LYP", 
		 "basiset": "6-31G**", 
		 "properties": { 
			 "R2extent": 3333.0038, 
			 "electric_dipole_moment_norm": 3.74952590203, 
			 "electric_quadrupole_moment_norm": 11.6037859697, 
			 "total_energy": -1248.41962047, 
			 "HOMO_LUMO_gap": 0.22586, 
			 "cosmo_polarized_energy": -14.27, 
			 "cosmo_cavitation_energy": 28.22, 
			 "cosmo_dispersion_energy": -20.44, 
			 "cosmo_repulsion_energy": 1.49, 
			 "cosmo_total_nonelectrostatic_energy": 9.27, 
			 "SMD_solvation_energy": 5.88 
		},
		"coords": [
			{
				"x": 1.8598099467,
				"y": 2.6049134812,
				"z": -0.0949384392,
				"element": "N" 
			},
			{
				"x": 0.2089650873,
				"y": 2.2819483208,
				"z": 0.0337537165,
				"element": "S" 
			},
			{
				"x": -0.4024911792,
				"y": 2.2133358428,
				"z": -1.2948903693,
				"element": "O" 
			},
			{
				"x": -0.298930113,
				"y": 3.19599211,
				"z": 1.0597289488,
				"element": "O" 
			},
			{
				"x": 0.1937414086,
				"y": 0.6264851902,
				"z": 0.7323410982,
				"element": "C" 
			},
			{
				"x": -0.4497202262,
				"y": 0.4194964629,
				"z": 1.9513752299,
				"element": "C" 
			},
			{
				"x": -0.5325932061,
				"y": -0.8706429097,
				"z": 2.4769213389,
				"element": "C" 
			},
			{
				"x": 0.0353400215,
				"y": -1.9419457031,
				"z": 1.7870627484,
				"element": "C" 
			},
			{
				"x": 0.6943120379,
				"y": -1.7386332616,
				"z": 0.572259355,
				"element": "C" 
			},
			{
				"x": 0.75768275,
				"y": -0.4522488457,
				"z": 0.0460985553,
				"element": "C" 
			},
			{
				"x": 1.465841139,
				"y": -0.164726564,
				"z": -1.1226339304,
				"element": "O" 
			},
			{
				"x": 1.1051604282,
				"y": -0.7839019276,
				"z": -2.285271857,
				"element": "C" 
			},
			{
				"x": -0.2134372165,
				"y": -0.7563898518,
				"z": -2.4940385143,
				"element": "F" 
			},
			{
				"x": 1.4919546155,
				"y": -2.0788395022,
				"z": -2.3041292506,
				"element": "F" 
			},
			{
				"x": 1.7297694844,
				"y": -0.1507865182,
				"z": -3.2757322958,
				"element": "F" 
			},
			{
				"x": 2.1956638149,
				"y": 2.3994793727,
				"z": -1.0321014034,
				"element": "H" 
			},
			{
				"x": 2.0212940938,
				"y": 3.5730019527,
				"z": 0.1707147637,
				"element": "H" 
			},
			{
				"x": -0.8768062795,
				"y": 1.2726802233,
				"z": 2.4664416751,
				"element": "H" 
			},
			{
				"x": -1.0356056947,
				"y": -1.0353939631,
				"z": 3.4242058703,
				"element": "H" 
			},
			{
				"x": -0.0215593039,
				"y": -2.9454985068,
				"z": 2.19711067,
				"element": "H" 
			},
			{
				"x": 1.1569083913,
				"y": -2.5603254029,
				"z": 0.0397220899,
				"element": "H" 
			}
		],
		 "valence_orbital": [ 
			{
				"type": "occ",
				"energy": -0.32474,
				"method": "rhf"
			},
			{
				"type": "occ",
				"energy": -0.31369,
				"method": "rhf"
			},
			{
				"type": "occ",
				"energy": -0.29647,
				"method": "rhf"
			},
			{
				"type": "occ",
				"energy": -0.27961,
				"method": "rhf"
			},
			{
				"type": "occ",
				"energy": -0.27203,
				"method": "rhf"
			},
			{
				"type": "unocc",
				"energy": -0.04617,
				"method": "rhf"
			},
			{
				"type": "unocc",
				"energy": -0.03156,
				"method": "rhf"
			},
			{
				"type": "unocc",
				"energy": 0.04556,
				"method": "rhf"
			},
			{
				"type": "unocc",
				"energy": 0.0649,
				"method": "rhf"
			},
			{
				"type": "unocc",
				"energy": 0.07789,
				"method": "rhf"
			}
		],
		"cosmo_sigma_profile": { 
			"-0.025": 0.0,
			"-0.024": 0.0,
			"-0.023": 0.0,
			"-0.022": 0.0,
			"-0.021": 0.0,
			"-0.02": 0.0,
			"-0.019": 0.0,
			"-0.018": 0.0,
			"-0.017": 0.0,
			"-0.016": 0.22680711997,
			"-0.015": 1.25288314291,
			"-0.014": 2.04601294651,
			"-0.013": 2.74931150327,
			"-0.012": 2.15189815326,
			"-0.011": 1.66053147424,
			"-0.01": 1.77147669388,
			"-0.009": 1.13205545456,
			"-0.008": 5.16252962215,
			"-0.007": 10.5554113446,
			"-0.006": 9.49267521962,
			"-0.005": 8.61286833528,
			"-0.004": 7.46336401302,
			"-0.003": 9.90110927632,
			"-0.002": 11.5048730261,
			"-0.001": 13.3286777022,
			"0.0": 21.7042208623,
			"0.001": 35.622104414,
			"0.002": 29.8593823334,
			"0.003": 6.75076504788,
			"0.004": 5.23820570746,
			"0.005": 3.80556604664,
			"0.006": 3.76730795042,
			"0.007": 4.66278193725,
			"0.008": 4.02201854165,
			"0.009": 5.18835855552,
			"0.01": 7.82422044561,
			"0.011": 7.95334480375,
			"0.012": 1.04145938122,
			"0.013": 0.0,
			"0.014": 0.0,
			"0.015": 0.0,
			"0.016": 0.0,
			"0.017": 0.0,
			"0.018": 0.0,
			"0.019": 0.0,
			"0.02": 0.0,
			"0.021": 0.0,
			"0.022": 0.0,
			"0.023": 0.0,
			"0.024": 0.0,
			"0.025": 0.0
		}
	}
}
