{
	 "smiles": "ClCC1=CC2=C(O1)C=CC(Br)=C2", 
	 "Tm": 336.65, 
	 "num_atms": 18, 
	 "gaussian": { 
		 "optdone": 1, 
		 "sigma_profile": "yes", 
		 "theory": "DFT", 
		 "functional": "B3LYP", 
		 "basiset": "6-31G**", 
		 "properties": { 
			 "R2extent": 5818.4999, 
			 "electric_dipole_moment_norm": 2.01835245683, 
			 "electric_quadrupole_moment_norm": 12.5539746742, 
			 "total_energy": -3453.38804264, 
			 "HOMO_LUMO_gap": 0.18584, 
			 "cosmo_polarized_energy": -7.8, 
			 "cosmo_cavitation_energy": 26.86, 
			 "cosmo_dispersion_energy": -20.43, 
			 "cosmo_repulsion_energy": 1.64, 
			 "cosmo_total_nonelectrostatic_energy": 8.08, 
			 "SMD_solvation_energy": 3.3 
		},
		"coords": [
			{
				"x": -1.739280998,
				"y": -4.031796136,
				"z": 1.7859387625,
				"element": "Cl" 
			},
			{
				"x": -1.9150392599,
				"y": -2.7578683583,
				"z": 0.4746550802,
				"element": "C" 
			},
			{
				"x": -0.7647086043,
				"y": -1.8353244434,
				"z": 0.4154422693,
				"element": "C" 
			},
			{
				"x": 0.2909152084,
				"y": -1.7516551882,
				"z": -0.4404272645,
				"element": "C" 
			},
			{
				"x": 1.0884615334,
				"y": -0.6394883994,
				"z": 0.0068037442,
				"element": "C" 
			},
			{
				"x": 0.4199275861,
				"y": -0.1339217947,
				"z": 1.1386894552,
				"element": "C" 
			},
			{
				"x": -0.7106312457,
				"y": -0.8597505302,
				"z": 1.3861961142,
				"element": "O" 
			},
			{
				"x": 0.8721821013,
				"y": 0.9556163017,
				"z": 1.8729517196,
				"element": "C" 
			},
			{
				"x": 2.052467055,
				"y": 1.5568726968,
				"z": 1.441719192,
				"element": "C" 
			},
			{
				"x": 2.7316672156,
				"y": 1.063580598,
				"z": 0.3128355947,
				"element": "C" 
			},
			{
				"x": 4.3482209098,
				"y": 1.9350311787,
				"z": -0.2281826593,
				"element": "Br" 
			},
			{
				"x": 2.276274399,
				"y": -0.0251576864,
				"z": -0.419471703,
				"element": "C" 
			},
			{
				"x": -2.8400806032,
				"y": -2.2294300313,
				"z": 0.7065905759,
				"element": "H" 
			},
			{
				"x": -2.0198651039,
				"y": -3.2988998134,
				"z": -0.4645105799,
				"element": "H" 
			},
			{
				"x": 0.4793666728,
				"y": -2.4033241294,
				"z": -1.2816151991,
				"element": "H" 
			},
			{
				"x": 0.332839807,
				"y": 1.318498167,
				"z": 2.7406571362,
				"element": "H" 
			},
			{
				"x": 2.4548967734,
				"y": 2.4097221018,
				"z": 1.9751829233,
				"element": "H" 
			},
			{
				"x": 2.8229865534,
				"y": -0.3819045333,
				"z": -1.2844551614,
				"element": "H" 
			}
		],
		 "valence_orbital": [ 
			{
				"type": "occ",
				"energy": -0.3031,
				"method": "rhf"
			},
			{
				"type": "occ",
				"energy": -0.30203,
				"method": "rhf"
			},
			{
				"type": "occ",
				"energy": -0.28887,
				"method": "rhf"
			},
			{
				"type": "occ",
				"energy": -0.24119,
				"method": "rhf"
			},
			{
				"type": "occ",
				"energy": -0.23749,
				"method": "rhf"
			},
			{
				"type": "unocc",
				"energy": -0.05165,
				"method": "rhf"
			},
			{
				"type": "unocc",
				"energy": -0.0084,
				"method": "rhf"
			},
			{
				"type": "unocc",
				"energy": 0.00382,
				"method": "rhf"
			},
			{
				"type": "unocc",
				"energy": 0.00944,
				"method": "rhf"
			},
			{
				"type": "unocc",
				"energy": 0.05649,
				"method": "rhf"
			}
		],
		"cosmo_sigma_profile": { 
			"-0.025": 0.0,
			"-0.024": 0.0,
			"-0.023": 0.0,
			"-0.022": 0.0,
			"-0.021": 0.0,
			"-0.02": 0.0,
			"-0.019": 0.0,
			"-0.018": 0.0,
			"-0.017": 0.0,
			"-0.016": 0.0,
			"-0.015": 0.0,
			"-0.014": 0.0,
			"-0.013": 0.0,
			"-0.012": 0.0,
			"-0.011": 0.0,
			"-0.01": 0.0253955320075,
			"-0.009": 3.5439229094,
			"-0.008": 9.3869119873,
			"-0.007": 11.1475664129,
			"-0.006": 11.0649016457,
			"-0.005": 10.9640340243,
			"-0.004": 9.72897446444,
			"-0.003": 8.42997354813,
			"-0.002": 9.35535170805,
			"-0.001": 11.7701512122,
			"0.0": 14.4527256004,
			"0.001": 20.8028316592,
			"0.002": 26.8104850265,
			"0.003": 25.5452761174,
			"0.004": 17.015105647,
			"0.005": 15.5913153869,
			"0.006": 12.4855652112,
			"0.007": 3.33433956554,
			"0.008": 0.377861812713,
			"0.009": 0.0,
			"0.01": 0.0,
			"0.011": 0.0,
			"0.012": 0.0,
			"0.013": 0.0,
			"0.014": 0.0,
			"0.015": 0.0,
			"0.016": 0.0,
			"0.017": 0.0,
			"0.018": 0.0,
			"0.019": 0.0,
			"0.02": 0.0,
			"0.021": 0.0,
			"0.022": 0.0,
			"0.023": 0.0,
			"0.024": 0.0,
			"0.025": 0.0
		}
	}
}
