{
	 "smiles": "CC(OC1=CC=CC=C1Cl)C(O)=O", 
	 "Tm": 387.15, 
	 "num_atms": 22, 
	 "gaussian": { 
		 "optdone": 1, 
		 "sigma_profile": "yes", 
		 "theory": "DFT", 
		 "functional": "B3LYP", 
		 "basiset": "6-31G**", 
		 "properties": { 
			 "R2extent": 3448.8902, 
			 "electric_dipole_moment_norm": 1.55159583011, 
			 "electric_quadrupole_moment_norm": 11.5535449984, 
			 "total_energy": -1034.24435099, 
			 "HOMO_LUMO_gap": 0.21005, 
			 "cosmo_polarized_energy": -12.11, 
			 "cosmo_cavitation_energy": 27.77, 
			 "cosmo_dispersion_energy": -19.99, 
			 "cosmo_repulsion_energy": 1.62, 
			 "cosmo_total_nonelectrostatic_energy": 9.4, 
			 "SMD_solvation_energy": 5.88 
		},
		"coords": [
			{
				"x": -0.8335615621,
				"y": 0.6789403166,
				"z": -1.6650439825,
				"element": "C" 
			},
			{
				"x": -1.2597117248,
				"y": -0.7204963387,
				"z": -1.230456793,
				"element": "C" 
			},
			{
				"x": -1.6577509142,
				"y": -0.8059398508,
				"z": 0.1374407203,
				"element": "O" 
			},
			{
				"x": -0.7662662955,
				"y": -0.648859566,
				"z": 1.1568405462,
				"element": "C" 
			},
			{
				"x": 0.6261484869,
				"y": -0.5704551374,
				"z": 1.0214629988,
				"element": "C" 
			},
			{
				"x": 1.4406166013,
				"y": -0.4309491522,
				"z": 2.1472218247,
				"element": "C" 
			},
			{
				"x": 0.8853422985,
				"y": -0.3679271544,
				"z": 3.4226707746,
				"element": "C" 
			},
			{
				"x": -0.5005083765,
				"y": -0.445739476,
				"z": 3.5712502882,
				"element": "C" 
			},
			{
				"x": -1.3157853159,
				"y": -0.5830892443,
				"z": 2.4522333843,
				"element": "C" 
			},
			{
				"x": -3.0532972326,
				"y": -0.6769413279,
				"z": 2.6598047885,
				"element": "Cl" 
			},
			{
				"x": -0.2567378488,
				"y": -1.8087715114,
				"z": -1.6395142636,
				"element": "C" 
			},
			{
				"x": -0.5214701595,
				"y": -2.9859795608,
				"z": -1.0429411733,
				"element": "O" 
			},
			{
				"x": 0.6341662699,
				"y": -1.6517779835,
				"z": -2.4454946231,
				"element": "O" 
			},
			{
				"x": -1.6386806444,
				"y": 1.3831133115,
				"z": -1.4424812534,
				"element": "H" 
			},
			{
				"x": 0.0725891833,
				"y": 1.0135963481,
				"z": -1.157674456,
				"element": "H" 
			},
			{
				"x": -0.6401950821,
				"y": 0.684104683,
				"z": -2.739745903,
				"element": "H" 
			},
			{
				"x": -2.184134216,
				"y": -0.9827646817,
				"z": -1.7602305014,
				"element": "H" 
			},
			{
				"x": 1.0868118205,
				"y": -0.6165159444,
				"z": 0.042362877,
				"element": "H" 
			},
			{
				"x": 2.5166062341,
				"y": -0.3716834534,
				"z": 2.0144232483,
				"element": "H" 
			},
			{
				"x": 1.5176990206,
				"y": -0.2586874841,
				"z": 4.297711525,
				"element": "H" 
			},
			{
				"x": -0.9600597988,
				"y": -0.3995228715,
				"z": 4.5525870597,
				"element": "H" 
			},
			{
				"x": 0.1396792561,
				"y": -3.6170539207,
				"z": -1.3747270865,
				"element": "H" 
			}
		],
		 "valence_orbital": [ 
			{
				"type": "occ",
				"energy": -0.32764,
				"method": "rhf"
			},
			{
				"type": "occ",
				"energy": -0.30436,
				"method": "rhf"
			},
			{
				"type": "occ",
				"energy": -0.28582,
				"method": "rhf"
			},
			{
				"type": "occ",
				"energy": -0.25143,
				"method": "rhf"
			},
			{
				"type": "occ",
				"energy": -0.22695,
				"method": "rhf"
			},
			{
				"type": "unocc",
				"energy": -0.0169,
				"method": "rhf"
			},
			{
				"type": "unocc",
				"energy": -0.00864,
				"method": "rhf"
			},
			{
				"type": "unocc",
				"energy": 9e-05,
				"method": "rhf"
			},
			{
				"type": "unocc",
				"energy": 0.03331,
				"method": "rhf"
			},
			{
				"type": "unocc",
				"energy": 0.06674,
				"method": "rhf"
			}
		],
		"cosmo_sigma_profile": { 
			"-0.025": 0.0,
			"-0.024": 0.0,
			"-0.023": 0.0,
			"-0.022": 0.0,
			"-0.021": 0.0,
			"-0.02": 0.0,
			"-0.019": 0.310287087006,
			"-0.018": 1.35212700585,
			"-0.017": 0.803602736168,
			"-0.016": 0.336120963672,
			"-0.015": 0.981294520338,
			"-0.014": 0.871379968501,
			"-0.013": 1.04690022018,
			"-0.012": 0.699823769863,
			"-0.011": 0.471886874387,
			"-0.01": 0.936888138194,
			"-0.009": 2.62501197046,
			"-0.008": 3.62920856536,
			"-0.007": 5.57594771282,
			"-0.006": 11.1049682651,
			"-0.005": 14.541937036,
			"-0.004": 16.0041889407,
			"-0.003": 12.4041671056,
			"-0.002": 13.9310120991,
			"-0.001": 14.8934456272,
			"0.0": 13.3319038194,
			"0.001": 12.5645183503,
			"0.002": 16.0839179553,
			"0.003": 16.8354574033,
			"0.004": 19.958582659,
			"0.005": 12.4550640249,
			"0.006": 5.15154401969,
			"0.007": 4.42469319772,
			"0.008": 5.34468098328,
			"0.009": 4.54825501311,
			"0.01": 4.11056007049,
			"0.011": 4.93588278113,
			"0.012": 0.814600026919,
			"0.013": 0.0,
			"0.014": 0.0,
			"0.015": 0.0,
			"0.016": 0.0,
			"0.017": 0.0,
			"0.018": 0.0,
			"0.019": 0.0,
			"0.02": 0.0,
			"0.021": 0.0,
			"0.022": 0.0,
			"0.023": 0.0,
			"0.024": 0.0,
			"0.025": 0.0
		}
	}
}
