{
	 "smiles": "ICC(CI)(CI)CI", 
	 "Tm": 498.15, 
	 "num_atms": 17, 
	 "gaussian": { 
		 "optdone": 1, 
		 "sigma_profile": "yes", 
		 "theory": "DFT", 
		 "functional": "B3LYP", 
		 "basiset": "6-31G**", 
		 "properties": { 
			 "R2extent": 1744.3734, 
			 "electric_dipole_moment_norm": 1.70552044256, 
			 "electric_quadrupole_moment_norm": 2.50072615654, 
			 "total_energy": -240.903172635, 
			 "HOMO_LUMO_gap": 0.18699, 
			 "cosmo_polarized_energy": -9.94, 
			 "cosmo_cavitation_energy": 30.48, 
			 "cosmo_dispersion_energy": -26.37, 
			 "cosmo_repulsion_energy": 2.01, 
			 "cosmo_total_nonelectrostatic_energy": 6.12, 
			 "SMD_solvation_energy": 1.37 
		},
		"coords": [
			{
				"x": 1.8227120164,
				"y": 2.2759957775,
				"z": -0.9350449711,
				"element": "I" 
			},
			{
				"x": 0.5792036374,
				"y": 0.6180517129,
				"z": -1.6113127687,
				"element": "C" 
			},
			{
				"x": 0.1532452934,
				"y": -0.4498449179,
				"z": -0.5863889509,
				"element": "C" 
			},
			{
				"x": -0.58074042,
				"y": -1.5717632703,
				"z": -1.3760710755,
				"element": "C" 
			},
			{
				"x": -2.4595866594,
				"y": -1.0231348359,
				"z": -2.3584820599,
				"element": "I" 
			},
			{
				"x": 1.348110625,
				"y": -1.1087664323,
				"z": 0.1363126699,
				"element": "C" 
			},
			{
				"x": 2.8051887515,
				"y": -2.1460389099,
				"z": -1.1256110038,
				"element": "I" 
			},
			{
				"x": -0.8608457616,
				"y": 0.0743940386,
				"z": 0.4721976189,
				"element": "C" 
			},
			{
				"x": -0.1455148327,
				"y": 0.9669671996,
				"z": 2.3404940142,
				"element": "I" 
			},
			{
				"x": -0.2935562577,
				"y": 1.0963644907,
				"z": -2.0513048763,
				"element": "H" 
			},
			{
				"x": 1.1731567577,
				"y": 0.1627626376,
				"z": -2.4024443333,
				"element": "H" 
			},
			{
				"x": 0.0391088873,
				"y": -1.9547711261,
				"z": -2.1837116665,
				"element": "H" 
			},
			{
				"x": -0.8542166531,
				"y": -2.3925857276,
				"z": -0.713114776,
				"element": "H" 
			},
			{
				"x": 1.9419845026,
				"y": -0.3613689793,
				"z": 0.6572925889,
				"element": "H" 
			},
			{
				"x": 1.0126408585,
				"y": -1.8641218331,
				"z": 0.8457806788,
				"element": "H" 
			},
			{
				"x": -1.5064242827,
				"y": 0.837034152,
				"z": 0.0417971619,
				"element": "H" 
			},
			{
				"x": -1.4799664628,
				"y": -0.7445739766,
				"z": 0.8335117493,
				"element": "H" 
			}
		],
		 "valence_orbital": [ 
			{
				"type": "occ",
				"energy": -0.27599,
				"method": "rhf"
			},
			{
				"type": "occ",
				"energy": -0.27159,
				"method": "rhf"
			},
			{
				"type": "occ",
				"energy": -0.26941,
				"method": "rhf"
			},
			{
				"type": "occ",
				"energy": -0.2652,
				"method": "rhf"
			},
			{
				"type": "occ",
				"energy": -0.25209,
				"method": "rhf"
			},
			{
				"type": "unocc",
				"energy": -0.0651,
				"method": "rhf"
			},
			{
				"type": "unocc",
				"energy": -0.05855,
				"method": "rhf"
			},
			{
				"type": "unocc",
				"energy": -0.05723,
				"method": "rhf"
			},
			{
				"type": "unocc",
				"energy": -0.05125,
				"method": "rhf"
			},
			{
				"type": "unocc",
				"energy": 0.01313,
				"method": "rhf"
			}
		],
		"cosmo_sigma_profile": { 
			"-0.025": 0.0,
			"-0.024": 0.0,
			"-0.023": 0.0,
			"-0.022": 0.0,
			"-0.021": 0.0,
			"-0.02": 0.0,
			"-0.019": 0.0,
			"-0.018": 0.0,
			"-0.017": 0.0,
			"-0.016": 0.0,
			"-0.015": 0.0,
			"-0.014": 0.0,
			"-0.013": 0.0,
			"-0.012": 0.119370078178,
			"-0.011": 0.906863660349,
			"-0.01": 1.9757590613,
			"-0.009": 3.02832123423,
			"-0.008": 6.51215661265,
			"-0.007": 8.84068916146,
			"-0.006": 12.1732742,
			"-0.005": 15.1933252233,
			"-0.004": 18.0418777025,
			"-0.003": 17.6452332562,
			"-0.002": 15.8706608497,
			"-0.001": 13.5211639637,
			"0.0": 15.7399191073,
			"0.001": 15.3782821393,
			"0.002": 17.7982354594,
			"0.003": 22.5590643131,
			"0.004": 21.5527832594,
			"0.005": 32.4668266413,
			"0.006": 19.8787933544,
			"0.007": 0.491511649285,
			"0.008": 0.0,
			"0.009": 0.0,
			"0.01": 0.0,
			"0.011": 0.0,
			"0.012": 0.0,
			"0.013": 0.0,
			"0.014": 0.0,
			"0.015": 0.0,
			"0.016": 0.0,
			"0.017": 0.0,
			"0.018": 0.0,
			"0.019": 0.0,
			"0.02": 0.0,
			"0.021": 0.0,
			"0.022": 0.0,
			"0.023": 0.0,
			"0.024": 0.0,
			"0.025": 0.0
		}
	}
}
