{
	 "smiles": "NC1=NN=C(O1)C1=CN(N=C1)C1=CC=CC=C1", 
	 "Tm": 557.15, 
	 "num_atms": 26, 
	 "gaussian": { 
		 "optdone": 1, 
		 "sigma_profile": "yes", 
		 "theory": "DFT", 
		 "functional": "B3LYP", 
		 "basiset": "6-31G**", 
		 "properties": { 
			 "R2extent": 6309.8834, 
			 "electric_dipole_moment_norm": 2.17496743194, 
			 "electric_quadrupole_moment_norm": 31.9929291397, 
			 "total_energy": -773.528421669, 
			 "HOMO_LUMO_gap": 0.17189, 
			 "cosmo_polarized_energy": -18.87, 
			 "cosmo_cavitation_energy": 31.94, 
			 "cosmo_dispersion_energy": -23.81, 
			 "cosmo_repulsion_energy": 1.82, 
			 "cosmo_total_nonelectrostatic_energy": 9.94, 
			 "SMD_solvation_energy": 3.57 
		},
		"coords": [
			{
				"x": 0.5976439767,
				"y": -3.6935015715,
				"z": -4.4780881624,
				"element": "N" 
			},
			{
				"x": 0.7375917478,
				"y": -2.5792187539,
				"z": -3.6953581634,
				"element": "C" 
			},
			{
				"x": 1.6715411783,
				"y": -1.6759911847,
				"z": -3.7285812724,
				"element": "N" 
			},
			{
				"x": 1.2904796432,
				"y": -0.7094018866,
				"z": -2.7890637166,
				"element": "N" 
			},
			{
				"x": 0.1777785039,
				"y": -1.1109230568,
				"z": -2.2608351981,
				"element": "C" 
			},
			{
				"x": -0.247239258,
				"y": -2.312336448,
				"z": -2.7973427427,
				"element": "O" 
			},
			{
				"x": -0.6258540864,
				"y": -0.4962586486,
				"z": -1.2337564975,
				"element": "C" 
			},
			{
				"x": -0.3548246361,
				"y": 0.6888369941,
				"z": -0.5700682754,
				"element": "C" 
			},
			{
				"x": -1.3729847716,
				"y": 0.8909505954,
				"z": 0.3114639984,
				"element": "N" 
			},
			{
				"x": -2.2969069318,
				"y": -0.1075573835,
				"z": 0.2555096399,
				"element": "N" 
			},
			{
				"x": -1.8514171585,
				"y": -0.9414693037,
				"z": -0.6715269106,
				"element": "C" 
			},
			{
				"x": -1.5519860256,
				"y": 1.9701887333,
				"z": 1.2226507713,
				"element": "C" 
			},
			{
				"x": -0.6163428251,
				"y": 3.0089322227,
				"z": 1.2910687574,
				"element": "C" 
			},
			{
				"x": -0.8129494442,
				"y": 4.0549879112,
				"z": 2.1916332961,
				"element": "C" 
			},
			{
				"x": -1.9327192535,
				"y": 4.0753506122,
				"z": 3.0237880845,
				"element": "C" 
			},
			{
				"x": -2.860501239,
				"y": 3.0346597621,
				"z": 2.9477517615,
				"element": "C" 
			},
			{
				"x": -2.6784538426,
				"y": 1.9822810721,
				"z": 2.0534467376,
				"element": "C" 
			},
			{
				"x": 0.1440280364,
				"y": -4.480866666,
				"z": -4.0352586838,
				"element": "H" 
			},
			{
				"x": 1.4439890185,
				"y": -3.9327329048,
				"z": -4.9761806269,
				"element": "H" 
			},
			{
				"x": 0.4777135242,
				"y": 1.3630029077,
				"z": -0.6827135529,
				"element": "H" 
			},
			{
				"x": -2.4124920697,
				"y": -1.8330023703,
				"z": -0.9146334691,
				"element": "H" 
			},
			{
				"x": 0.2604400045,
				"y": 3.0142262605,
				"z": 0.6537903775,
				"element": "H" 
			},
			{
				"x": -0.0823416656,
				"y": 4.8569452203,
				"z": 2.2382488239,
				"element": "H" 
			},
			{
				"x": -2.0802726766,
				"y": 4.8926906517,
				"z": 3.7228035034,
				"element": "H" 
			},
			{
				"x": -3.7367297759,
				"y": 3.0378286882,
				"z": 3.589332246,
				"element": "H" 
			},
			{
				"x": -3.3900899733,
				"y": 1.1697785467,
				"z": 1.9846192742,
				"element": "H" 
			}
		],
		 "valence_orbital": [ 
			{
				"type": "occ",
				"energy": -0.27596,
				"method": "rhf"
			},
			{
				"type": "occ",
				"energy": -0.26864,
				"method": "rhf"
			},
			{
				"type": "occ",
				"energy": -0.26076,
				"method": "rhf"
			},
			{
				"type": "occ",
				"energy": -0.24111,
				"method": "rhf"
			},
			{
				"type": "occ",
				"energy": -0.212,
				"method": "rhf"
			},
			{
				"type": "unocc",
				"energy": -0.04011,
				"method": "rhf"
			},
			{
				"type": "unocc",
				"energy": -0.01368,
				"method": "rhf"
			},
			{
				"type": "unocc",
				"energy": -0.00446,
				"method": "rhf"
			},
			{
				"type": "unocc",
				"energy": 0.03408,
				"method": "rhf"
			},
			{
				"type": "unocc",
				"energy": 0.0464,
				"method": "rhf"
			}
		],
		"cosmo_sigma_profile": { 
			"-0.025": 0.0,
			"-0.024": 0.0,
			"-0.023": 0.0,
			"-0.022": 0.0,
			"-0.021": 0.0,
			"-0.02": 0.0,
			"-0.019": 0.0,
			"-0.018": 0.0,
			"-0.017": 0.0,
			"-0.016": 0.0,
			"-0.015": 2.29194655524,
			"-0.014": 2.36511572667,
			"-0.013": 3.02079163431,
			"-0.012": 2.93005873337,
			"-0.011": 3.97858685127,
			"-0.01": 3.51647285353,
			"-0.009": 4.17588252361,
			"-0.008": 4.69958185639,
			"-0.007": 5.75955446796,
			"-0.006": 11.1746008062,
			"-0.005": 13.9563587135,
			"-0.004": 14.7219530007,
			"-0.003": 14.1443451795,
			"-0.002": 14.3614934486,
			"-0.001": 15.005359288,
			"0.0": 19.2610485843,
			"0.001": 20.2847191827,
			"0.002": 20.4853180405,
			"0.003": 16.7045861057,
			"0.004": 17.2372613418,
			"0.005": 10.8153163535,
			"0.006": 3.70535953844,
			"0.007": 3.76986315427,
			"0.008": 3.99639656468,
			"0.009": 4.37163281067,
			"0.01": 4.3705480961,
			"0.011": 3.70840792535,
			"0.012": 3.41235627486,
			"0.013": 3.41634758653,
			"0.014": 2.67704861135,
			"0.015": 2.42356156396,
			"0.016": 0.892753963722,
			"0.017": 0.0926786687845,
			"0.018": 0.0,
			"0.019": 0.0,
			"0.02": 0.0,
			"0.021": 0.0,
			"0.022": 0.0,
			"0.023": 0.0,
			"0.024": 0.0,
			"0.025": 0.0
		}
	}
}
