{
	 "smiles": "O=C(NCC1=CC2=C(OCO2)C=C1)N1C=CN=C1", 
	 "Tm": 382.15, 
	 "num_atms": 29, 
	 "gaussian": { 
		 "optdone": 1, 
		 "sigma_profile": "yes", 
		 "theory": "DFT", 
		 "functional": "B3LYP", 
		 "basiset": "6-31G**", 
		 "properties": { 
			 "R2extent": 6650.1477, 
			 "electric_dipole_moment_norm": 3.85015715264, 
			 "electric_quadrupole_moment_norm": 13.2922239682, 
			 "total_energy": -853.810814826, 
			 "HOMO_LUMO_gap": 0.18832, 
			 "cosmo_polarized_energy": -17.71, 
			 "cosmo_cavitation_energy": 34.06, 
			 "cosmo_dispersion_energy": -24.97, 
			 "cosmo_repulsion_energy": 1.9, 
			 "cosmo_total_nonelectrostatic_energy": 11.0, 
			 "SMD_solvation_energy": 5.57 
		},
		"coords": [
			{
				"x": -2.1265661524,
				"y": -2.0901263141,
				"z": -0.6964945478,
				"element": "O" 
			},
			{
				"x": -2.1126436197,
				"y": -1.6754034473,
				"z": 0.4499111104,
				"element": "C" 
			},
			{
				"x": -0.9969631146,
				"y": -1.3032160992,
				"z": 1.1414148507,
				"element": "N" 
			},
			{
				"x": 0.3168202196,
				"y": -1.2960538979,
				"z": 0.4855981073,
				"element": "C" 
			},
			{
				"x": 0.6959862243,
				"y": 0.0454825151,
				"z": -0.1120618501,
				"element": "C" 
			},
			{
				"x": 1.610676258,
				"y": 0.8795050777,
				"z": 0.5663573657,
				"element": "C" 
			},
			{
				"x": 1.9035583163,
				"y": 2.1007058944,
				"z": -0.0080325657,
				"element": "C" 
			},
			{
				"x": 1.3269373268,
				"y": 2.5073033496,
				"z": -1.2079119398,
				"element": "C" 
			},
			{
				"x": 1.7939581792,
				"y": 3.7526446096,
				"z": -1.5490939865,
				"element": "O" 
			},
			{
				"x": 2.7061609549,
				"y": 4.1341627689,
				"z": -0.5118713836,
				"element": "C" 
			},
			{
				"x": 2.7554596495,
				"y": 3.0746017345,
				"z": 0.4528245719,
				"element": "O" 
			},
			{
				"x": 0.4298506408,
				"y": 1.7086907337,
				"z": -1.8914987622,
				"element": "C" 
			},
			{
				"x": 0.1230442028,
				"y": 0.4619819627,
				"z": -1.3200616046,
				"element": "C" 
			},
			{
				"x": -3.3219516968,
				"y": -1.5669839663,
				"z": 1.1987896613,
				"element": "N" 
			},
			{
				"x": -4.5875042289,
				"y": -1.6087664764,
				"z": 0.6273242005,
				"element": "C" 
			},
			{
				"x": -5.4625630841,
				"y": -1.4931102866,
				"z": 1.6694311026,
				"element": "C" 
			},
			{
				"x": -4.7871347758,
				"y": -1.3971612572,
				"z": 2.8753317195,
				"element": "N" 
			},
			{
				"x": -3.5182248036,
				"y": -1.4450908704,
				"z": 2.5646392129,
				"element": "C" 
			},
			{
				"x": -1.1172471388,
				"y": -0.6861145291,
				"z": 1.932034717,
				"element": "H" 
			},
			{
				"x": 0.272085362,
				"y": -2.0656374863,
				"z": -0.2868052415,
				"element": "H" 
			},
			{
				"x": 1.0605930921,
				"y": -1.6045638177,
				"z": 1.2270786322,
				"element": "H" 
			},
			{
				"x": 2.0756369327,
				"y": 0.5751885439,
				"z": 1.4987674913,
				"element": "H" 
			},
			{
				"x": 3.7047694101,
				"y": 4.2856434373,
				"z": -0.9400971981,
				"element": "H" 
			},
			{
				"x": 2.3483084971,
				"y": 5.0518014715,
				"z": -0.0289544489,
				"element": "H" 
			},
			{
				"x": -0.0102646329,
				"y": 2.0305217748,
				"z": -2.828518363,
				"element": "H" 
			},
			{
				"x": -0.5782861192,
				"y": -0.1973625673,
				"z": -1.8216605906,
				"element": "H" 
			},
			{
				"x": -4.7059518101,
				"y": -1.7113674511,
				"z": -0.4385527441,
				"element": "H" 
			},
			{
				"x": -6.5425669381,
				"y": -1.4752709201,
				"z": 1.6303551622,
				"element": "H" 
			},
			{
				"x": -2.698877151,
				"y": -1.4436044866,
				"z": 3.2698573207,
				"element": "H" 
			}
		],
		 "valence_orbital": [ 
			{
				"type": "occ",
				"energy": -0.27703,
				"method": "rhf"
			},
			{
				"type": "occ",
				"energy": -0.26737,
				"method": "rhf"
			},
			{
				"type": "occ",
				"energy": -0.2547,
				"method": "rhf"
			},
			{
				"type": "occ",
				"energy": -0.23715,
				"method": "rhf"
			},
			{
				"type": "occ",
				"energy": -0.2124,
				"method": "rhf"
			},
			{
				"type": "unocc",
				"energy": -0.02408,
				"method": "rhf"
			},
			{
				"type": "unocc",
				"energy": -0.00822,
				"method": "rhf"
			},
			{
				"type": "unocc",
				"energy": -0.00135,
				"method": "rhf"
			},
			{
				"type": "unocc",
				"energy": 0.05914,
				"method": "rhf"
			},
			{
				"type": "unocc",
				"energy": 0.06678,
				"method": "rhf"
			}
		],
		"cosmo_sigma_profile": { 
			"-0.025": 0.0,
			"-0.024": 0.0,
			"-0.023": 0.0,
			"-0.022": 0.0,
			"-0.021": 0.0,
			"-0.02": 0.0,
			"-0.019": 0.0,
			"-0.018": 0.0,
			"-0.017": 0.0,
			"-0.016": 0.415149161111,
			"-0.015": 1.39340934109,
			"-0.014": 1.48002653037,
			"-0.013": 1.14755526685,
			"-0.012": 1.52110377553,
			"-0.011": 1.95022732419,
			"-0.01": 2.06458430711,
			"-0.009": 2.27040591922,
			"-0.008": 5.71180793108,
			"-0.007": 16.7081517322,
			"-0.006": 16.0265720302,
			"-0.005": 15.9835780454,
			"-0.004": 15.8547422628,
			"-0.003": 16.548201938,
			"-0.002": 16.5349063978,
			"-0.001": 15.3950501392,
			"0.0": 14.9894697171,
			"0.001": 16.3832133058,
			"0.002": 20.5488900046,
			"0.003": 19.7610660601,
			"0.004": 17.6406257592,
			"0.005": 11.8163198457,
			"0.006": 5.43678973868,
			"0.007": 5.51181809933,
			"0.008": 5.96235481778,
			"0.009": 6.10906301145,
			"0.01": 4.64375867425,
			"0.011": 2.75889754239,
			"0.012": 5.12041042937,
			"0.013": 1.82242234845,
			"0.014": 0.654491869721,
			"0.015": 1.14305935453,
			"0.016": 1.28816663416,
			"0.017": 0.647276017293,
			"0.018": 0.0362063508612,
			"0.019": 0.0,
			"0.02": 0.0,
			"0.021": 0.0,
			"0.022": 0.0,
			"0.023": 0.0,
			"0.024": 0.0,
			"0.025": 0.0
		}
	}
}
