{
	 "smiles": "O=C1OC(CC2=CC=CC=C12)C1CCCCC1", 
	 "Tm": 345.65, 
	 "num_atms": 35, 
	 "gaussian": { 
		 "optdone": 1, 
		 "sigma_profile": "yes", 
		 "theory": "DFT", 
		 "functional": "B3LYP", 
		 "basiset": "6-31G**", 
		 "properties": { 
			 "R2extent": 5240.3633, 
			 "electric_dipole_moment_norm": 4.70236688169, 
			 "electric_quadrupole_moment_norm": 19.518872377, 
			 "total_energy": -732.921660875, 
			 "HOMO_LUMO_gap": 0.20841, 
			 "cosmo_polarized_energy": -11.09, 
			 "cosmo_cavitation_energy": 35.02, 
			 "cosmo_dispersion_energy": -24.99, 
			 "cosmo_repulsion_energy": 1.93, 
			 "cosmo_total_nonelectrostatic_energy": 11.96, 
			 "SMD_solvation_energy": 5.59 
		},
		"coords": [
			{
				"x": -0.6311056205,
				"y": -3.8712271059,
				"z": 2.4430446852,
				"element": "O" 
			},
			{
				"x": -0.8796557671,
				"y": -2.8622080911,
				"z": 1.8193632807,
				"element": "C" 
			},
			{
				"x": -0.4453144851,
				"y": -1.6644542434,
				"z": 2.3004227746,
				"element": "O" 
			},
			{
				"x": -0.4809755977,
				"y": -0.473036201,
				"z": 1.4678680647,
				"element": "C" 
			},
			{
				"x": -1.8433721892,
				"y": -0.3755348826,
				"z": 0.7732470828,
				"element": "C" 
			},
			{
				"x": -2.1464750849,
				"y": -1.6444232129,
				"z": 0.0177014107,
				"element": "C" 
			},
			{
				"x": -2.8959874404,
				"y": -1.6755486743,
				"z": -1.1610366832,
				"element": "C" 
			},
			{
				"x": -3.1684548565,
				"y": -2.8904261128,
				"z": -1.7922481405,
				"element": "C" 
			},
			{
				"x": -2.6957628875,
				"y": -4.0901430945,
				"z": -1.2510465471,
				"element": "C" 
			},
			{
				"x": -1.9481388959,
				"y": -4.0706535774,
				"z": -0.076987691,
				"element": "C" 
			},
			{
				"x": -1.6694483831,
				"y": -2.8520906379,
				"z": 0.5535634233,
				"element": "C" 
			},
			{
				"x": 0.7436462835,
				"y": -0.4365535561,
				"z": 0.5354431356,
				"element": "C" 
			},
			{
				"x": 0.7568820667,
				"y": 0.8574222957,
				"z": -0.3238252327,
				"element": "C" 
			},
			{
				"x": 2.181977718,
				"y": 1.2686514991,
				"z": -0.763915876,
				"element": "C" 
			},
			{
				"x": 3.0745643816,
				"y": 0.0384834684,
				"z": -0.9699826935,
				"element": "C" 
			},
			{
				"x": 3.2654126008,
				"y": -0.731685503,
				"z": 0.3593454731,
				"element": "C" 
			},
			{
				"x": 2.0636465265,
				"y": -0.5617453704,
				"z": 1.316726012,
				"element": "C" 
			},
			{
				"x": -0.386124228,
				"y": 0.3439107682,
				"z": 2.1917896842,
				"element": "H" 
			},
			{
				"x": -2.6106847418,
				"y": -0.2158707018,
				"z": 1.5429729252,
				"element": "H" 
			},
			{
				"x": -1.8753009816,
				"y": 0.4958879336,
				"z": 0.1133220717,
				"element": "H" 
			},
			{
				"x": -3.2680197375,
				"y": -0.7463940926,
				"z": -1.5851990759,
				"element": "H" 
			},
			{
				"x": -3.7499367326,
				"y": -2.9012180973,
				"z": -2.7098626593,
				"element": "H" 
			},
			{
				"x": -2.9117295041,
				"y": -5.0331683965,
				"z": -1.744003956,
				"element": "H" 
			},
			{
				"x": -1.571164381,
				"y": -4.9828605263,
				"z": 0.3730790578,
				"element": "H" 
			},
			{
				"x": 0.6697134634,
				"y": -1.3003923102,
				"z": -0.1393563526,
				"element": "H" 
			},
			{
				"x": 0.1279024654,
				"y": 0.7095059834,
				"z": -1.2096168993,
				"element": "H" 
			},
			{
				"x": 0.3039666872,
				"y": 1.6839777387,
				"z": 0.2412247174,
				"element": "H" 
			},
			{
				"x": 2.6357745768,
				"y": 1.9139372319,
				"z": -0.0009028359,
				"element": "H" 
			},
			{
				"x": 2.1276173079,
				"y": 1.8702780566,
				"z": -1.6780495781,
				"element": "H" 
			},
			{
				"x": 2.6086601688,
				"y": -0.6153428751,
				"z": -1.7190276882,
				"element": "H" 
			},
			{
				"x": 4.0459308313,
				"y": 0.3304014066,
				"z": -1.3841362076,
				"element": "H" 
			},
			{
				"x": 3.4206741028,
				"y": -1.7957736103,
				"z": 0.1461595258,
				"element": "H" 
			},
			{
				"x": 4.1745693571,
				"y": -0.3854804433,
				"z": 0.8647488338,
				"element": "H" 
			},
			{
				"x": 2.1937634203,
				"y": 0.3434957129,
				"z": 1.9261972608,
				"element": "H" 
			},
			{
				"x": 2.0135495563,
				"y": -1.3983207783,
				"z": 2.0182786976,
				"element": "H" 
			}
		],
		 "valence_orbital": [ 
			{
				"type": "occ",
				"energy": -0.29692,
				"method": "rhf"
			},
			{
				"type": "occ",
				"energy": -0.28302,
				"method": "rhf"
			},
			{
				"type": "occ",
				"energy": -0.26485,
				"method": "rhf"
			},
			{
				"type": "occ",
				"energy": -0.25859,
				"method": "rhf"
			},
			{
				"type": "occ",
				"energy": -0.25507,
				"method": "rhf"
			},
			{
				"type": "unocc",
				"energy": -0.04666,
				"method": "rhf"
			},
			{
				"type": "unocc",
				"energy": -0.01302,
				"method": "rhf"
			},
			{
				"type": "unocc",
				"energy": 0.05716,
				"method": "rhf"
			},
			{
				"type": "unocc",
				"energy": 0.07519,
				"method": "rhf"
			},
			{
				"type": "unocc",
				"energy": 0.08849,
				"method": "rhf"
			}
		],
		"cosmo_sigma_profile": { 
			"-0.025": 0.0,
			"-0.024": 0.0,
			"-0.023": 0.0,
			"-0.022": 0.0,
			"-0.021": 0.0,
			"-0.02": 0.0,
			"-0.019": 0.0,
			"-0.018": 0.0,
			"-0.017": 0.0,
			"-0.016": 0.0,
			"-0.015": 0.0,
			"-0.014": 0.0,
			"-0.013": 0.0,
			"-0.012": 0.0,
			"-0.011": 0.0,
			"-0.01": 0.0,
			"-0.009": 0.0,
			"-0.008": 0.0,
			"-0.007": 1.12825395463,
			"-0.006": 9.86793909828,
			"-0.005": 17.9803687658,
			"-0.004": 20.188139793,
			"-0.003": 21.1278817355,
			"-0.002": 38.6131503795,
			"-0.001": 38.3973335681,
			"0.0": 30.8850928784,
			"0.001": 28.8828440538,
			"0.002": 14.2149047073,
			"0.003": 12.2474076346,
			"0.004": 11.7738163821,
			"0.005": 2.93483379295,
			"0.006": 2.43992897872,
			"0.007": 2.61903425723,
			"0.008": 1.51416871178,
			"0.009": 2.50370341284,
			"0.01": 2.89852929993,
			"0.011": 3.57577118703,
			"0.012": 6.05764704505,
			"0.013": 3.02467377162,
			"0.014": 0.933534083765,
			"0.015": 0.0,
			"0.016": 0.0,
			"0.017": 0.0,
			"0.018": 0.0,
			"0.019": 0.0,
			"0.02": 0.0,
			"0.021": 0.0,
			"0.022": 0.0,
			"0.023": 0.0,
			"0.024": 0.0,
			"0.025": 0.0
		}
	}
}
