{
	 "smiles": "CC1CCN(C1)C1=NC=CC(=C1)C(O)=O", 
	 "Tm": 469.15, 
	 "num_atms": 29, 
	 "gaussian": { 
		 "optdone": 1, 
		 "sigma_profile": "yes", 
		 "theory": "DFT", 
		 "functional": "B3LYP", 
		 "basiset": "6-31G**", 
		 "properties": { 
			 "R2extent": 4231.4576, 
			 "electric_dipole_moment_norm": 3.93098643727, 
			 "electric_quadrupole_moment_norm": 20.8146069021, 
			 "total_energy": -687.575892018, 
			 "HOMO_LUMO_gap": 0.15345, 
			 "cosmo_polarized_energy": -14.5, 
			 "cosmo_cavitation_energy": 31.51, 
			 "cosmo_dispersion_energy": -23.05, 
			 "cosmo_repulsion_energy": 1.8, 
			 "cosmo_total_nonelectrostatic_energy": 10.27, 
			 "SMD_solvation_energy": 4.52 
		},
		"coords": [
			{
				"x": 2.173296544,
				"y": -0.3248611862,
				"z": 3.6059271569,
				"element": "C" 
			},
			{
				"x": 1.4176389012,
				"y": -1.3821779844,
				"z": 2.7890325204,
				"element": "C" 
			},
			{
				"x": -0.0927607062,
				"y": -1.4131564296,
				"z": 3.1116890168,
				"element": "C" 
			},
			{
				"x": -0.6904002231,
				"y": -0.3000807205,
				"z": 2.2379706389,
				"element": "C" 
			},
			{
				"x": 0.2130466068,
				"y": -0.2638788739,
				"z": 1.0832191349,
				"element": "N" 
			},
			{
				"x": 1.4215518559,
				"y": -1.0640444928,
				"z": 1.2788559504,
				"element": "C" 
			},
			{
				"x": -0.0880218706,
				"y": 0.4066824008,
				"z": -0.0641094334,
				"element": "C" 
			},
			{
				"x": -1.238696655,
				"y": 1.1177272606,
				"z": -0.0632828534,
				"element": "N" 
			},
			{
				"x": -1.5655221929,
				"y": 1.7845483039,
				"z": -1.1713665121,
				"element": "C" 
			},
			{
				"x": -0.7922174626,
				"y": 1.8192019574,
				"z": -2.3292214807,
				"element": "C" 
			},
			{
				"x": 0.4059433053,
				"y": 1.0838551688,
				"z": -2.3279254069,
				"element": "C" 
			},
			{
				"x": 0.7596996802,
				"y": 0.3585964861,
				"z": -1.1994600908,
				"element": "C" 
			},
			{
				"x": 1.3323360696,
				"y": 1.0227895856,
				"z": -3.5112206849,
				"element": "C" 
			},
			{
				"x": 1.2328334011,
				"y": 2.0409001026,
				"z": -4.404502911,
				"element": "O" 
			},
			{
				"x": 2.1354704777,
				"y": 0.1372338635,
				"z": -3.6847395728,
				"element": "O" 
			},
			{
				"x": 1.7659565354,
				"y": 0.6782361125,
				"z": 3.438398318,
				"element": "H" 
			},
			{
				"x": 2.1069578696,
				"y": -0.5387974866,
				"z": 4.677797279,
				"element": "H" 
			},
			{
				"x": 3.233896506,
				"y": -0.3011002756,
				"z": 3.3343790727,
				"element": "H" 
			},
			{
				"x": 1.8753700083,
				"y": -2.3612197161,
				"z": 2.9667530158,
				"element": "H" 
			},
			{
				"x": -0.3016197549,
				"y": -1.2651029812,
				"z": 4.175177196,
				"element": "H" 
			},
			{
				"x": -0.516532988,
				"y": -2.3807877504,
				"z": 2.8208293278,
				"element": "H" 
			},
			{
				"x": -1.7161517695,
				"y": -0.5029270436,
				"z": 1.9184921902,
				"element": "H" 
			},
			{
				"x": -0.7034040661,
				"y": 0.6707123263,
				"z": 2.7512731033,
				"element": "H" 
			},
			{
				"x": 1.3898470173,
				"y": -1.9832330857,
				"z": 0.674211843,
				"element": "H" 
			},
			{
				"x": 2.3172874427,
				"y": -0.5054182522,
				"z": 0.9805751251,
				"element": "H" 
			},
			{
				"x": -2.5096597621,
				"y": 2.3263576614,
				"z": -1.1331228409,
				"element": "H" 
			},
			{
				"x": -1.1521252488,
				"y": 2.3517512282,
				"z": -3.2041853733,
				"element": "H" 
			},
			{
				"x": 1.6682752228,
				"y": -0.2293789302,
				"z": -1.2183064637,
				"element": "H" 
			},
			{
				"x": 0.6484052557,
				"y": 2.728672751,
				"z": -4.0550372653,
				"element": "H" 
			}
		],
		 "valence_orbital": [ 
			{
				"type": "occ",
				"energy": -0.30089,
				"method": "rhf"
			},
			{
				"type": "occ",
				"energy": -0.28587,
				"method": "rhf"
			},
			{
				"type": "occ",
				"energy": -0.27267,
				"method": "rhf"
			},
			{
				"type": "occ",
				"energy": -0.26042,
				"method": "rhf"
			},
			{
				"type": "occ",
				"energy": -0.20609,
				"method": "rhf"
			},
			{
				"type": "unocc",
				"energy": -0.05264,
				"method": "rhf"
			},
			{
				"type": "unocc",
				"energy": -0.00428,
				"method": "rhf"
			},
			{
				"type": "unocc",
				"energy": 0.05184,
				"method": "rhf"
			},
			{
				"type": "unocc",
				"energy": 0.06869,
				"method": "rhf"
			},
			{
				"type": "unocc",
				"energy": 0.07201,
				"method": "rhf"
			}
		],
		"cosmo_sigma_profile": { 
			"-0.025": 0.0,
			"-0.024": 0.0,
			"-0.023": 0.0,
			"-0.022": 0.0,
			"-0.021": 0.0,
			"-0.02": 0.0,
			"-0.019": 0.102260683475,
			"-0.018": 0.65787250691,
			"-0.017": 0.836273408662,
			"-0.016": 0.859665224824,
			"-0.015": 1.03800750705,
			"-0.014": 0.924110211454,
			"-0.013": 1.40462567471,
			"-0.012": 0.983204727366,
			"-0.011": 0.936240595099,
			"-0.01": 1.52732326524,
			"-0.009": 0.820582671602,
			"-0.008": 1.97405059941,
			"-0.007": 2.27354271696,
			"-0.006": 5.71809814365,
			"-0.005": 7.69772312003,
			"-0.004": 16.1662418012,
			"-0.003": 32.3868676585,
			"-0.002": 32.0842662563,
			"-0.001": 26.0207565454,
			"0.0": 20.4793132588,
			"0.001": 16.654774427,
			"0.002": 16.5610476066,
			"0.003": 12.6256862869,
			"0.004": 5.47128863423,
			"0.005": 4.96700459265,
			"0.006": 4.10771896351,
			"0.007": 2.8367236911,
			"0.008": 5.49551074503,
			"0.009": 4.4663508646,
			"0.01": 6.65675393014,
			"0.011": 5.95516065043,
			"0.012": 5.44866353048,
			"0.013": 1.42946122414,
			"0.014": 0.640984528129,
			"0.015": 0.0260433643125,
			"0.016": 0.0,
			"0.017": 0.0,
			"0.018": 0.0,
			"0.019": 0.0,
			"0.02": 0.0,
			"0.021": 0.0,
			"0.022": 0.0,
			"0.023": 0.0,
			"0.024": 0.0,
			"0.025": 0.0
		}
	}
}
