{
	 "smiles": "OC(=O)C1=CSC(=N1)C1=NC=CC=N1", 
	 "Tm": 491.15, 
	 "num_atms": 19, 
	 "gaussian": { 
		 "optdone": 1, 
		 "sigma_profile": "yes", 
		 "theory": "DFT", 
		 "functional": "B3LYP", 
		 "basiset": "6-31G**", 
		 "properties": { 
			 "R2extent": 3673.6827, 
			 "electric_dipole_moment_norm": 7.4318666417, 
			 "electric_quadrupole_moment_norm": 15.6030741814, 
			 "total_energy": -1020.75263833, 
			 "HOMO_LUMO_gap": 0.16951, 
			 "cosmo_polarized_energy": -15.77, 
			 "cosmo_cavitation_energy": 26.8, 
			 "cosmo_dispersion_energy": -20.5, 
			 "cosmo_repulsion_energy": 1.56, 
			 "cosmo_total_nonelectrostatic_energy": 7.86, 
			 "SMD_solvation_energy": 2.52 
		},
		"coords": [
			{
				"x": 1.441742686,
				"y": 3.0971880662,
				"z": -2.4944201086,
				"element": "O" 
			},
			{
				"x": 0.4905168365,
				"y": 3.3855854415,
				"z": -1.585240313,
				"element": "C" 
			},
			{
				"x": 0.0662976024,
				"y": 4.5046408217,
				"z": -1.4107872635,
				"element": "O" 
			},
			{
				"x": 0.0123297886,
				"y": 2.1958269769,
				"z": -0.8199783165,
				"element": "C" 
			},
			{
				"x": -0.9483573409,
				"y": 2.2178337575,
				"z": 0.1592004945,
				"element": "C" 
			},
			{
				"x": -1.1946753434,
				"y": 0.6321790672,
				"z": 0.7789500012,
				"element": "S" 
			},
			{
				"x": 0.0303301583,
				"y": 0.0392830453,
				"z": -0.3390749101,
				"element": "C" 
			},
			{
				"x": 0.5560331308,
				"y": 0.9663604242,
				"z": -1.0924173767,
				"element": "N" 
			},
			{
				"x": 0.3770624933,
				"y": -1.3923638161,
				"z": -0.3627413471,
				"element": "C" 
			},
			{
				"x": -0.2956903058,
				"y": -2.164896672,
				"z": 0.5058711713,
				"element": "N" 
			},
			{
				"x": 0.0045893182,
				"y": -3.4654365141,
				"z": 0.4995766332,
				"element": "C" 
			},
			{
				"x": 0.9635753472,
				"y": -4.0001493742,
				"z": -0.3593717765,
				"element": "C" 
			},
			{
				"x": 1.5973862727,
				"y": -3.1011627284,
				"z": -1.2174238667,
				"element": "C" 
			},
			{
				"x": 1.3151725401,
				"y": -1.7957077553,
				"z": -1.2307995856,
				"element": "N" 
			},
			{
				"x": 1.6153178706,
				"y": 2.1373773264,
				"z": -2.4498948805,
				"element": "H" 
			},
			{
				"x": -1.4928174631,
				"y": 3.0796129069,
				"z": 0.5175605013,
				"element": "H" 
			},
			{
				"x": -0.539546423,
				"y": -4.0928514161,
				"z": 1.2027174168,
				"element": "H" 
			},
			{
				"x": 1.2037466691,
				"y": -5.0572527942,
				"z": -0.3604786906,
				"element": "H" 
			},
			{
				"x": 2.3583861623,
				"y": -3.4367667634,
				"z": -1.9196477831,
				"element": "H" 
			}
		],
		 "valence_orbital": [ 
			{
				"type": "occ",
				"energy": -0.30733,
				"method": "rhf"
			},
			{
				"type": "occ",
				"energy": -0.30642,
				"method": "rhf"
			},
			{
				"type": "occ",
				"energy": -0.27372,
				"method": "rhf"
			},
			{
				"type": "occ",
				"energy": -0.26939,
				"method": "rhf"
			},
			{
				"type": "occ",
				"energy": -0.25839,
				"method": "rhf"
			},
			{
				"type": "unocc",
				"energy": -0.08888,
				"method": "rhf"
			},
			{
				"type": "unocc",
				"energy": -0.06229,
				"method": "rhf"
			},
			{
				"type": "unocc",
				"energy": -0.04101,
				"method": "rhf"
			},
			{
				"type": "unocc",
				"energy": 0.00865,
				"method": "rhf"
			},
			{
				"type": "unocc",
				"energy": 0.01402,
				"method": "rhf"
			}
		],
		"cosmo_sigma_profile": { 
			"-0.025": 0.0,
			"-0.024": 0.0,
			"-0.023": 0.0,
			"-0.022": 0.0,
			"-0.021": 0.0,
			"-0.02": 0.0,
			"-0.019": 0.0,
			"-0.018": 0.0,
			"-0.017": 0.0,
			"-0.016": 0.0,
			"-0.015": 0.132580473227,
			"-0.014": 0.353547283066,
			"-0.013": 0.657003101707,
			"-0.012": 0.278842494731,
			"-0.011": 1.58979801103,
			"-0.01": 2.48278746084,
			"-0.009": 4.1527985731,
			"-0.008": 10.9416291903,
			"-0.007": 9.91847704045,
			"-0.006": 9.87340194809,
			"-0.005": 8.13362992945,
			"-0.004": 9.21738752901,
			"-0.003": 18.2776117344,
			"-0.002": 19.4548513001,
			"-0.001": 25.6697557491,
			"0.0": 17.7452412943,
			"0.001": 11.5082034253,
			"0.002": 8.42471482639,
			"0.003": 6.4812494198,
			"0.004": 5.24880832491,
			"0.005": 5.41647249566,
			"0.006": 4.24844226486,
			"0.007": 5.86948025117,
			"0.008": 5.37658997084,
			"0.009": 5.56945398382,
			"0.01": 6.69945281251,
			"0.011": 6.47594468352,
			"0.012": 4.78891733375,
			"0.013": 2.48004847525,
			"0.014": 0.844483047472,
			"0.015": 1.07753394786,
			"0.016": 0.094081464932,
			"0.017": 0.0,
			"0.018": 0.0,
			"0.019": 0.0,
			"0.02": 0.0,
			"0.021": 0.0,
			"0.022": 0.0,
			"0.023": 0.0,
			"0.024": 0.0,
			"0.025": 0.0
		}
	}
}
