{
	 "smiles": "CC1=CC=C(CCCC(O)=O)C=C1", 
	 "Tm": 330.15, 
	 "num_atms": 27, 
	 "gaussian": { 
		 "optdone": 1, 
		 "sigma_profile": "yes", 
		 "theory": "DFT", 
		 "functional": "B3LYP", 
		 "basiset": "6-31G**", 
		 "properties": { 
			 "R2extent": 3310.5311, 
			 "electric_dipole_moment_norm": 3.96240734655, 
			 "electric_quadrupole_moment_norm": 18.4932935287, 
			 "total_energy": -578.081242194, 
			 "HOMO_LUMO_gap": 0.23182, 
			 "cosmo_polarized_energy": -14.71, 
			 "cosmo_cavitation_energy": 29.86, 
			 "cosmo_dispersion_energy": -21.2, 
			 "cosmo_repulsion_energy": 1.69, 
			 "cosmo_total_nonelectrostatic_energy": 10.36, 
			 "SMD_solvation_energy": 5.74 
		},
		"coords": [
			{
				"x": 4.1301588201,
				"y": 1.2675309367,
				"z": -2.0979050098,
				"element": "C" 
			},
			{
				"x": 2.8932309892,
				"y": 0.6459711955,
				"z": -1.4924759981,
				"element": "C" 
			},
			{
				"x": 2.182539942,
				"y": -0.3550468764,
				"z": -2.1679379501,
				"element": "C" 
			},
			{
				"x": 1.061239022,
				"y": -0.9526256878,
				"z": -1.5938002631,
				"element": "C" 
			},
			{
				"x": 0.6066267695,
				"y": -0.569377942,
				"z": -0.3247737026,
				"element": "C" 
			},
			{
				"x": -0.62762336,
				"y": -1.2075606615,
				"z": 0.2798697673,
				"element": "C" 
			},
			{
				"x": -1.9507042993,
				"y": -0.5183222321,
				"z": -0.1238061691,
				"element": "C" 
			},
			{
				"x": -2.1046576765,
				"y": 0.9248343205,
				"z": 0.4096576886,
				"element": "C" 
			},
			{
				"x": -2.1630474235,
				"y": 0.9638913006,
				"z": 1.9289906518,
				"element": "C" 
			},
			{
				"x": -3.3728083003,
				"y": 0.6717909286,
				"z": 2.4843450328,
				"element": "O" 
			},
			{
				"x": -1.2172998829,
				"y": 1.1838896007,
				"z": 2.6470575407,
				"element": "O" 
			},
			{
				"x": 1.3142245576,
				"y": 0.4343220233,
				"z": 0.3522846602,
				"element": "C" 
			},
			{
				"x": 2.4358739361,
				"y": 1.0304021662,
				"z": -0.2256675823,
				"element": "C" 
			},
			{
				"x": 5.0335401801,
				"y": 0.7115706299,
				"z": -1.8163491304,
				"element": "H" 
			},
			{
				"x": 4.0820134875,
				"y": 1.2740325636,
				"z": -3.1912684223,
				"element": "H" 
			},
			{
				"x": 4.2669051194,
				"y": 2.2990350628,
				"z": -1.7589703039,
				"element": "H" 
			},
			{
				"x": 2.5142920683,
				"y": -0.6740747128,
				"z": -3.1534821994,
				"element": "H" 
			},
			{
				"x": 0.5337204947,
				"y": -1.7329981474,
				"z": -2.1387852765,
				"element": "H" 
			},
			{
				"x": -0.5422104233,
				"y": -1.2159983794,
				"z": 1.3719585759,
				"element": "H" 
			},
			{
				"x": -0.6867382204,
				"y": -2.255235,
				"z": -0.0378753678,
				"element": "H" 
			},
			{
				"x": -2.7925183899,
				"y": -1.1297545902,
				"z": 0.2276701337,
				"element": "H" 
			},
			{
				"x": -2.0224042757,
				"y": -0.4856623339,
				"z": -1.2170168709,
				"element": "H" 
			},
			{
				"x": -1.2519965178,
				"y": 1.5306336542,
				"z": 0.0967592815,
				"element": "H" 
			},
			{
				"x": -3.0104590417,
				"y": 1.3780475489,
				"z": -0.0131197794,
				"element": "H" 
			},
			{
				"x": -4.0330326615,
				"y": 0.5344477413,
				"z": 1.7907956022,
				"element": "H" 
			},
			{
				"x": 0.9735392628,
				"y": 0.7561881334,
				"z": 1.3329931318,
				"element": "H" 
			},
			{
				"x": 2.9660958234,
				"y": 1.8074687573,
				"z": 0.3202519594,
				"element": "H" 
			}
		],
		 "valence_orbital": [ 
			{
				"type": "occ",
				"energy": -0.32633,
				"method": "rhf"
			},
			{
				"type": "occ",
				"energy": -0.31331,
				"method": "rhf"
			},
			{
				"type": "occ",
				"energy": -0.26918,
				"method": "rhf"
			},
			{
				"type": "occ",
				"energy": -0.24246,
				"method": "rhf"
			},
			{
				"type": "occ",
				"energy": -0.22884,
				"method": "rhf"
			},
			{
				"type": "unocc",
				"energy": 0.00298,
				"method": "rhf"
			},
			{
				"type": "unocc",
				"energy": 0.00488,
				"method": "rhf"
			},
			{
				"type": "unocc",
				"energy": 0.00611,
				"method": "rhf"
			},
			{
				"type": "unocc",
				"energy": 0.04899,
				"method": "rhf"
			},
			{
				"type": "unocc",
				"energy": 0.10189,
				"method": "rhf"
			}
		],
		"cosmo_sigma_profile": { 
			"-0.025": 0.0,
			"-0.024": 0.0,
			"-0.023": 0.0,
			"-0.022": 0.0,
			"-0.021": 0.0,
			"-0.02": 0.0,
			"-0.019": 0.216787465568,
			"-0.018": 0.847364642242,
			"-0.017": 1.15990300635,
			"-0.016": 1.02952064925,
			"-0.015": 1.26558016083,
			"-0.014": 0.74685990442,
			"-0.013": 1.08002973081,
			"-0.012": 1.55593693885,
			"-0.011": 1.0933911175,
			"-0.01": 1.25035998763,
			"-0.009": 1.26638555036,
			"-0.008": 1.48920580798,
			"-0.007": 2.00359831687,
			"-0.006": 2.98778164027,
			"-0.005": 6.83442461294,
			"-0.004": 21.3400132372,
			"-0.003": 28.6119957282,
			"-0.002": 26.8709778443,
			"-0.001": 20.5114268502,
			"0.0": 21.2758332112,
			"0.001": 15.1773554931,
			"0.002": 11.0897877247,
			"0.003": 9.26446708183,
			"0.004": 7.99011575286,
			"0.005": 10.1627079978,
			"0.006": 9.7629491953,
			"0.007": 6.76858142024,
			"0.008": 2.28760532914,
			"0.009": 3.31279307315,
			"0.01": 4.40485216983,
			"0.011": 5.16729178118,
			"0.012": 3.83028572515,
			"0.013": 1.82070574986,
			"0.014": 0.154984642965,
			"0.015": 0.0,
			"0.016": 0.0,
			"0.017": 0.0,
			"0.018": 0.0,
			"0.019": 0.0,
			"0.02": 0.0,
			"0.021": 0.0,
			"0.022": 0.0,
			"0.023": 0.0,
			"0.024": 0.0,
			"0.025": 0.0
		}
	}
}
