{
	 "smiles": "CC(C)(C)OC(=O)N[C@@H]1CCCCC[C@H]1N", 
	 "Tm": 346.15, 
	 "num_atms": 40, 
	 "gaussian": { 
		 "optdone": 1, 
		 "sigma_profile": "yes", 
		 "theory": "DFT", 
		 "functional": "B3LYP", 
		 "basiset": "6-31G**", 
		 "properties": { 
			 "R2extent": 6359.4205, 
			 "electric_dipole_moment_norm": 3.17916954722, 
			 "electric_quadrupole_moment_norm": 9.35264573156, 
			 "total_energy": -731.742738055, 
			 "HOMO_LUMO_gap": 0.29934, 
			 "cosmo_polarized_energy": -10.69, 
			 "cosmo_cavitation_energy": 38.53, 
			 "cosmo_dispersion_energy": -27.32, 
			 "cosmo_repulsion_energy": 2.17, 
			 "cosmo_total_nonelectrostatic_energy": 13.38, 
			 "SMD_solvation_energy": 5.45 
		},
		"coords": [
			{
				"x": 2.705435748,
				"y": 2.6341582478,
				"z": 3.7342070226,
				"element": "C" 
			},
			{
				"x": 2.0294594053,
				"y": 3.4250255513,
				"z": 2.6077676849,
				"element": "C" 
			},
			{
				"x": 3.0480989645,
				"y": 4.1430301326,
				"z": 1.7146591081,
				"element": "C" 
			},
			{
				"x": 1.0159226094,
				"y": 4.4207579278,
				"z": 3.1797780461,
				"element": "C" 
			},
			{
				"x": 1.1857212884,
				"y": 2.5376303991,
				"z": 1.8015880767,
				"element": "O" 
			},
			{
				"x": 1.7277961729,
				"y": 1.5034528056,
				"z": 1.1019600095,
				"element": "C" 
			},
			{
				"x": 2.9118666335,
				"y": 1.1899578953,
				"z": 1.0876228816,
				"element": "O" 
			},
			{
				"x": 0.7496171502,
				"y": 0.8675224896,
				"z": 0.4011886752,
				"element": "N" 
			},
			{
				"x": 1.0021773329,
				"y": -0.4049254783,
				"z": -0.2690970485,
				"element": "C" 
			},
			{
				"x": 1.7888453076,
				"y": -0.1530539794,
				"z": -1.5752081908,
				"element": "C" 
			},
			{
				"x": 2.3932552431,
				"y": -1.3803714661,
				"z": -2.2705227156,
				"element": "C" 
			},
			{
				"x": 1.4304305387,
				"y": -2.5301087864,
				"z": -2.6103557215,
				"element": "C" 
			},
			{
				"x": 0.9173802251,
				"y": -3.2763083882,
				"z": -1.366062088,
				"element": "C" 
			},
			{
				"x": -0.2766603754,
				"y": -2.6386329407,
				"z": -0.6247045745,
				"element": "C" 
			},
			{
				"x": -0.3663757537,
				"y": -1.0973082835,
				"z": -0.5495311553,
				"element": "C" 
			},
			{
				"x": -1.3919526753,
				"y": -0.6602521345,
				"z": 0.4191301641,
				"element": "N" 
			},
			{
				"x": 3.4110581784,
				"y": 1.9086157653,
				"z": 3.3291664019,
				"element": "H" 
			},
			{
				"x": 1.953652623,
				"y": 2.1048950674,
				"z": 4.3287972728,
				"element": "H" 
			},
			{
				"x": 3.2416646083,
				"y": 3.3203421973,
				"z": 4.3982336776,
				"element": "H" 
			},
			{
				"x": 3.7576231693,
				"y": 3.4339795863,
				"z": 1.2876799561,
				"element": "H" 
			},
			{
				"x": 3.5975067571,
				"y": 4.8854591979,
				"z": 2.3030621488,
				"element": "H" 
			},
			{
				"x": 2.5353590726,
				"y": 4.6659204826,
				"z": 0.9009107786,
				"element": "H" 
			},
			{
				"x": 0.2634123099,
				"y": 3.9021493689,
				"z": 3.7811922974,
				"element": "H" 
			},
			{
				"x": 1.5231553725,
				"y": 5.1535139524,
				"z": 3.8147352366,
				"element": "H" 
			},
			{
				"x": 0.503434944,
				"y": 4.9545869365,
				"z": 2.3741232409,
				"element": "H" 
			},
			{
				"x": -0.2196339853,
				"y": 1.0430783227,
				"z": 0.6449582834,
				"element": "H" 
			},
			{
				"x": 1.611513932,
				"y": -1.0355093758,
				"z": 0.3959958386,
				"element": "H" 
			},
			{
				"x": 1.1223246832,
				"y": 0.3809471861,
				"z": -2.2667039286,
				"element": "H" 
			},
			{
				"x": 2.6037057524,
				"y": 0.5325884332,
				"z": -1.3273494435,
				"element": "H" 
			},
			{
				"x": 2.8775689021,
				"y": -1.0343128343,
				"z": -3.1923199044,
				"element": "H" 
			},
			{
				"x": 3.1993916106,
				"y": -1.7853402632,
				"z": -1.6426948853,
				"element": "H" 
			},
			{
				"x": 1.9667643181,
				"y": -3.2452825795,
				"z": -3.2461102431,
				"element": "H" 
			},
			{
				"x": 0.5893892551,
				"y": -2.1628046595,
				"z": -3.2155155652,
				"element": "H" 
			},
			{
				"x": 1.7599798245,
				"y": -3.391072748,
				"z": -0.6720730663,
				"element": "H" 
			},
			{
				"x": 0.6250381441,
				"y": -4.2960460599,
				"z": -1.6438011294,
				"element": "H" 
			},
			{
				"x": -1.2127006345,
				"y": -2.9883457437,
				"z": -1.0808295476,
				"element": "H" 
			},
			{
				"x": -0.2857458699,
				"y": -3.0243731872,
				"z": 0.404638291,
				"element": "H" 
			},
			{
				"x": -0.7117698493,
				"y": -0.7187660902,
				"z": -1.5196728723,
				"element": "H" 
			},
			{
				"x": -2.3142585468,
				"y": -0.9240432446,
				"z": 0.0823104485,
				"element": "H" 
			},
			{
				"x": -1.2618523868,
				"y": -1.1459537031,
				"z": 1.3056465388,
				"element": "H" 
			}
		],
		 "valence_orbital": [ 
			{
				"type": "occ",
				"energy": -0.30965,
				"method": "rhf"
			},
			{
				"type": "occ",
				"energy": -0.27281,
				"method": "rhf"
			},
			{
				"type": "occ",
				"energy": -0.25463,
				"method": "rhf"
			},
			{
				"type": "occ",
				"energy": -0.24461,
				"method": "rhf"
			},
			{
				"type": "occ",
				"energy": -0.23419,
				"method": "rhf"
			},
			{
				"type": "unocc",
				"energy": 0.06515,
				"method": "rhf"
			},
			{
				"type": "unocc",
				"energy": 0.06855,
				"method": "rhf"
			},
			{
				"type": "unocc",
				"energy": 0.08606,
				"method": "rhf"
			},
			{
				"type": "unocc",
				"energy": 0.09318,
				"method": "rhf"
			},
			{
				"type": "unocc",
				"energy": 0.0963,
				"method": "rhf"
			}
		],
		"cosmo_sigma_profile": { 
			"-0.025": 0.0,
			"-0.024": 0.0,
			"-0.023": 0.0,
			"-0.022": 0.0,
			"-0.021": 0.0,
			"-0.02": 0.0,
			"-0.019": 0.0,
			"-0.018": 0.0,
			"-0.017": 0.0,
			"-0.016": 0.0,
			"-0.015": 0.0,
			"-0.014": 0.0,
			"-0.013": 0.0,
			"-0.012": 0.0,
			"-0.011": 0.0681726015371,
			"-0.01": 1.4626167639,
			"-0.009": 2.84614319421,
			"-0.008": 3.02819326294,
			"-0.007": 3.3953557893,
			"-0.006": 3.28249235426,
			"-0.005": 3.88153174355,
			"-0.004": 12.2530833475,
			"-0.003": 29.415855594,
			"-0.002": 43.9257596825,
			"-0.001": 42.1085204476,
			"0.0": 47.2116575977,
			"0.001": 43.2331000402,
			"0.002": 13.2685219569,
			"0.003": 7.01214885115,
			"0.004": 5.82010348038,
			"0.005": 4.8204003261,
			"0.006": 5.58977520982,
			"0.007": 5.42196730223,
			"0.008": 4.58101128564,
			"0.009": 3.20611803264,
			"0.01": 1.36377862715,
			"0.011": 1.92835589687,
			"0.012": 1.82413984422,
			"0.013": 2.1748327423,
			"0.014": 2.25898558434,
			"0.015": 0.265142623956,
			"0.016": 0.0,
			"0.017": 0.0,
			"0.018": 0.0,
			"0.019": 0.0,
			"0.02": 0.0,
			"0.021": 0.0,
			"0.022": 0.0,
			"0.023": 0.0,
			"0.024": 0.0,
			"0.025": 0.0
		}
	}
}
