{
	 "smiles": "CCOC(=O)C=CC1=CC(C=CC(=O)OCC)=CC=C1", 
	 "Tm": 326.65, 
	 "num_atms": 38, 
	 "gaussian": { 
		 "optdone": 1, 
		 "sigma_profile": "yes", 
		 "theory": "DFT", 
		 "functional": "B3LYP", 
		 "basiset": "6-31G**", 
		 "properties": { 
			 "R2extent": 11883.6274, 
			 "electric_dipole_moment_norm": 1.76682882589, 
			 "electric_quadrupole_moment_norm": 21.0386674217, 
			 "total_energy": -921.457469843, 
			 "HOMO_LUMO_gap": 0.16241, 
			 "cosmo_polarized_energy": -14.57, 
			 "cosmo_cavitation_energy": 44.05, 
			 "cosmo_dispersion_energy": -31.24, 
			 "cosmo_repulsion_energy": 2.45, 
			 "cosmo_total_nonelectrostatic_energy": 15.25, 
			 "SMD_solvation_energy": 9.91 
		},
		"coords": [
			{
				"x": -6.2097273123,
				"y": 0.0472726394,
				"z": 2.4675298178,
				"element": "C" 
			},
			{
				"x": -5.920644451,
				"y": 1.0887754143,
				"z": 1.4030125475,
				"element": "C" 
			},
			{
				"x": -4.5573791591,
				"y": 0.8981440438,
				"z": 0.9664148012,
				"element": "O" 
			},
			{
				"x": -4.1228658372,
				"y": 1.7508452789,
				"z": 0.0078861183,
				"element": "C" 
			},
			{
				"x": -4.8141268287,
				"y": 2.6303912141,
				"z": -0.4727934762,
				"element": "O" 
			},
			{
				"x": -2.7198331567,
				"y": 1.4574977574,
				"z": -0.3545619002,
				"element": "C" 
			},
			{
				"x": -2.0998808537,
				"y": 2.1950950495,
				"z": -1.292638175,
				"element": "C" 
			},
			{
				"x": -0.7262650155,
				"y": 2.0563242356,
				"z": -1.7807374894,
				"element": "C" 
			},
			{
				"x": 0.1658323385,
				"y": 1.0817911058,
				"z": -1.3003694957,
				"element": "C" 
			},
			{
				"x": 1.475284367,
				"y": 0.9718799938,
				"z": -1.786598896,
				"element": "C" 
			},
			{
				"x": 2.3408075473,
				"y": -0.073444061,
				"z": -1.2315248732,
				"element": "C" 
			},
			{
				"x": 3.6152209504,
				"y": -0.338880553,
				"z": -1.571538719,
				"element": "C" 
			},
			{
				"x": 4.4313153039,
				"y": -1.41104702,
				"z": -0.9667932226,
				"element": "C" 
			},
			{
				"x": 5.5858874329,
				"y": -1.628972946,
				"z": -1.2869991018,
				"element": "O" 
			},
			{
				"x": 3.762915473,
				"y": -2.1254984333,
				"z": -0.0271878952,
				"element": "O" 
			},
			{
				"x": 4.5004496293,
				"y": -3.1918470781,
				"z": 0.6129422338,
				"element": "C" 
			},
			{
				"x": 5.3195358491,
				"y": -2.6751103113,
				"z": 1.7865693928,
				"element": "C" 
			},
			{
				"x": 1.8981825271,
				"y": 1.8722608218,
				"z": -2.7869064012,
				"element": "C" 
			},
			{
				"x": 1.0298494104,
				"y": 2.8420966945,
				"z": -3.2732362283,
				"element": "C" 
			},
			{
				"x": -0.2714773748,
				"y": 2.9364824368,
				"z": -2.7771899733,
				"element": "C" 
			},
			{
				"x": -7.2377420498,
				"y": 0.1580074901,
				"z": 2.8263764689,
				"element": "H" 
			},
			{
				"x": -6.0920751931,
				"y": -0.9640599387,
				"z": 2.0676666698,
				"element": "H" 
			},
			{
				"x": -5.5337495212,
				"y": 0.1609618468,
				"z": 3.3199714724,
				"element": "H" 
			},
			{
				"x": -6.586129243,
				"y": 0.9903983657,
				"z": 0.5391716809,
				"element": "H" 
			},
			{
				"x": -6.0309116629,
				"y": 2.1091302373,
				"z": 1.7844159724,
				"element": "H" 
			},
			{
				"x": -2.2437427687,
				"y": 0.6357274105,
				"z": 0.170036269,
				"element": "H" 
			},
			{
				"x": -2.6893351023,
				"y": 2.9915168401,
				"z": -1.7444682571,
				"element": "H" 
			},
			{
				"x": -0.1598618546,
				"y": 0.3889525994,
				"z": -0.5299912403,
				"element": "H" 
			},
			{
				"x": 1.8894232764,
				"y": -0.6946107454,
				"z": -0.4613953815,
				"element": "H" 
			},
			{
				"x": 4.1503486663,
				"y": 0.2256285045,
				"z": -2.328023279,
				"element": "H" 
			},
			{
				"x": 5.1402534537,
				"y": -3.6733608961,
				"z": -0.1304054994,
				"element": "H" 
			},
			{
				"x": 3.7313072303,
				"y": -3.8955939343,
				"z": 0.9408814874,
				"element": "H" 
			},
			{
				"x": 6.0952434115,
				"y": -1.9887024359,
				"z": 1.4388902427,
				"element": "H" 
			},
			{
				"x": 4.6824773514,
				"y": -2.1551379402,
				"z": 2.508243259,
				"element": "H" 
			},
			{
				"x": 5.8058678232,
				"y": -3.5126516914,
				"z": 2.2979459387,
				"element": "H" 
			},
			{
				"x": 2.9070375644,
				"y": 1.8112993964,
				"z": -3.1816678885,
				"element": "H" 
			},
			{
				"x": 1.3652839253,
				"y": 3.5304397941,
				"z": -4.0431289214,
				"element": "H" 
			},
			{
				"x": -0.9453761466,
				"y": 3.6970988139,
				"z": -3.1616980583,
				"element": "H" 
			}
		],
		 "valence_orbital": [ 
			{
				"type": "occ",
				"energy": -0.29468,
				"method": "rhf"
			},
			{
				"type": "occ",
				"energy": -0.26992,
				"method": "rhf"
			},
			{
				"type": "occ",
				"energy": -0.2691,
				"method": "rhf"
			},
			{
				"type": "occ",
				"energy": -0.2499,
				"method": "rhf"
			},
			{
				"type": "occ",
				"energy": -0.23712,
				"method": "rhf"
			},
			{
				"type": "unocc",
				"energy": -0.07471,
				"method": "rhf"
			},
			{
				"type": "unocc",
				"energy": -0.06353,
				"method": "rhf"
			},
			{
				"type": "unocc",
				"energy": 0.0015,
				"method": "rhf"
			},
			{
				"type": "unocc",
				"energy": 0.02626,
				"method": "rhf"
			},
			{
				"type": "unocc",
				"energy": 0.08331,
				"method": "rhf"
			}
		],
		"cosmo_sigma_profile": { 
			"-0.025": 0.0,
			"-0.024": 0.0,
			"-0.023": 0.0,
			"-0.022": 0.0,
			"-0.021": 0.0,
			"-0.02": 0.0,
			"-0.019": 0.0,
			"-0.018": 0.0,
			"-0.017": 0.0,
			"-0.016": 0.0,
			"-0.015": 0.0,
			"-0.014": 0.0,
			"-0.013": 0.0,
			"-0.012": 0.0,
			"-0.011": 0.0,
			"-0.01": 0.0,
			"-0.009": 1.20978137509,
			"-0.008": 6.29918219809,
			"-0.007": 10.9246632043,
			"-0.006": 11.7136163338,
			"-0.005": 19.3784909203,
			"-0.004": 29.6083309319,
			"-0.003": 32.6665200585,
			"-0.002": 31.3621891856,
			"-0.001": 30.7417558884,
			"0.0": 35.9329273671,
			"0.001": 30.786065178,
			"0.002": 28.9830210528,
			"0.003": 25.0603834616,
			"0.004": 9.56702027435,
			"0.005": 5.79591639724,
			"0.006": 6.58082640807,
			"0.007": 4.73842047841,
			"0.008": 3.84564874751,
			"0.009": 3.7897975455,
			"0.01": 2.93787165716,
			"0.011": 4.36319336758,
			"0.012": 8.72816708298,
			"0.013": 4.58605556838,
			"0.014": 0.162090475409,
			"0.015": 0.0,
			"0.016": 0.0,
			"0.017": 0.0,
			"0.018": 0.0,
			"0.019": 0.0,
			"0.02": 0.0,
			"0.021": 0.0,
			"0.022": 0.0,
			"0.023": 0.0,
			"0.024": 0.0,
			"0.025": 0.0
		}
	}
}
