{
	 "smiles": "CCCCCO", 
	 "Tm": 194.65, 
	 "num_atms": 18, 
	 "gaussian": { 
		 "optdone": 1, 
		 "sigma_profile": "yes", 
		 "theory": "DFT", 
		 "functional": "B3LYP", 
		 "basiset": "6-31G**", 
		 "properties": { 
			 "R2extent": 993.637, 
			 "electric_dipole_moment_norm": 1.48835628463, 
			 "electric_quadrupole_moment_norm": 8.22423154404, 
			 "total_energy": -272.987970397, 
			 "HOMO_LUMO_gap": 0.34133, 
			 "cosmo_polarized_energy": -5.68, 
			 "cosmo_cavitation_energy": 19.67, 
			 "cosmo_dispersion_energy": -14.52, 
			 "cosmo_repulsion_energy": 1.28, 
			 "cosmo_total_nonelectrostatic_energy": 6.43, 
			 "SMD_solvation_energy": 3.28 
		},
		"coords": [
			{
				"x": -0.6028074246,
				"y": 0.1982677587,
				"z": 2.1093495537,
				"element": "C" 
			},
			{
				"x": -0.8817873105,
				"y": -0.2062972889,
				"z": 0.6571216008,
				"element": "C" 
			},
			{
				"x": 0.3098329297,
				"y": -0.8722821056,
				"z": -0.0557991264,
				"element": "C" 
			},
			{
				"x": 1.5719404587,
				"y": -0.0085034954,
				"z": -0.2128366441,
				"element": "C" 
			},
			{
				"x": 1.3817580769,
				"y": 1.2228285215,
				"z": -1.0914907755,
				"element": "C" 
			},
			{
				"x": 2.6482514903,
				"y": 1.8598508066,
				"z": -1.2227659543,
				"element": "O" 
			},
			{
				"x": -1.5009951644,
				"y": 0.6071948023,
				"z": 2.5837705472,
				"element": "H" 
			},
			{
				"x": -0.2768321554,
				"y": -0.6639167762,
				"z": 2.702908202,
				"element": "H" 
			},
			{
				"x": 0.1800767376,
				"y": 0.9605960605,
				"z": 2.1789041976,
				"element": "H" 
			},
			{
				"x": -1.2144649212,
				"y": 0.6733697393,
				"z": 0.090760945,
				"element": "H" 
			},
			{
				"x": -1.7262791325,
				"y": -0.9070799188,
				"z": 0.6381591917,
				"element": "H" 
			},
			{
				"x": 0.5813591905,
				"y": -1.7828456221,
				"z": 0.4946816979,
				"element": "H" 
			},
			{
				"x": -0.0167740355,
				"y": -1.208329559,
				"z": -1.0496669664,
				"element": "H" 
			},
			{
				"x": 1.9463681207,
				"y": 0.316635542,
				"z": 0.7649016235,
				"element": "H" 
			},
			{
				"x": 2.3701686638,
				"y": -0.6131918163,
				"z": -0.6597018887,
				"element": "H" 
			},
			{
				"x": 0.6429392437,
				"y": 1.9056854589,
				"z": -0.6425103841,
				"element": "H" 
			},
			{
				"x": 0.9843838026,
				"y": 0.9165472811,
				"z": -2.0745117202,
				"element": "H" 
			},
			{
				"x": 2.5293614296,
				"y": 2.6569706114,
				"z": -1.7534740998,
				"element": "H" 
			}
		],
		 "valence_orbital": [ 
			{
				"type": "occ",
				"energy": -0.33735,
				"method": "rhf"
			},
			{
				"type": "occ",
				"energy": -0.31929,
				"method": "rhf"
			},
			{
				"type": "occ",
				"energy": -0.31741,
				"method": "rhf"
			},
			{
				"type": "occ",
				"energy": -0.30723,
				"method": "rhf"
			},
			{
				"type": "occ",
				"energy": -0.26063,
				"method": "rhf"
			},
			{
				"type": "unocc",
				"energy": 0.0807,
				"method": "rhf"
			},
			{
				"type": "unocc",
				"energy": 0.08257,
				"method": "rhf"
			},
			{
				"type": "unocc",
				"energy": 0.12328,
				"method": "rhf"
			},
			{
				"type": "unocc",
				"energy": 0.12991,
				"method": "rhf"
			},
			{
				"type": "unocc",
				"energy": 0.14285,
				"method": "rhf"
			}
		],
		"cosmo_sigma_profile": { 
			"-0.025": 0.0,
			"-0.024": 0.0,
			"-0.023": 0.0,
			"-0.022": 0.0,
			"-0.021": 0.0,
			"-0.02": 0.0,
			"-0.019": 0.0,
			"-0.018": 0.0,
			"-0.017": 0.0,
			"-0.016": 0.126397285517,
			"-0.015": 0.850722243594,
			"-0.014": 1.34596497734,
			"-0.013": 0.573062712038,
			"-0.012": 1.16519763836,
			"-0.011": 0.732770569597,
			"-0.01": 0.626919961964,
			"-0.009": 0.928619135796,
			"-0.008": 0.433710223273,
			"-0.007": 0.682536255399,
			"-0.006": 1.48903270708,
			"-0.005": 0.998429636759,
			"-0.004": 0.950633354586,
			"-0.003": 9.49191034306,
			"-0.002": 27.0406783489,
			"-0.001": 27.6637322434,
			"0.0": 25.0215223418,
			"0.001": 22.3495296403,
			"0.002": 9.47733935028,
			"0.003": 1.90950928941,
			"0.004": 1.14605184158,
			"0.005": 1.44581363161,
			"0.006": 1.18359863925,
			"0.007": 1.81097718668,
			"0.008": 0.87971708825,
			"0.009": 1.33527414801,
			"0.01": 1.29507552148,
			"0.011": 1.70846543164,
			"0.012": 0.970839096375,
			"0.013": 1.4393688252,
			"0.014": 2.08277825994,
			"0.015": 1.6209149734,
			"0.016": 0.0,
			"0.017": 0.0,
			"0.018": 0.0,
			"0.019": 0.0,
			"0.02": 0.0,
			"0.021": 0.0,
			"0.022": 0.0,
			"0.023": 0.0,
			"0.024": 0.0,
			"0.025": 0.0
		}
	}
}
