{
	 "smiles": "CN(C)C1=CC=C(CC2=CC=C(C=C2)N(C)C)C=C1", 
	 "Tm": 362.35, 
	 "num_atms": 41, 
	 "gaussian": { 
		 "optdone": 1, 
		 "sigma_profile": "yes", 
		 "theory": "DFT", 
		 "functional": "B3LYP", 
		 "basiset": "6-31G**", 
		 "properties": { 
			 "R2extent": 8644.8669, 
			 "electric_dipole_moment_norm": 2.231880521, 
			 "electric_quadrupole_moment_norm": 13.8812105135, 
			 "total_energy": -770.563496136, 
			 "HOMO_LUMO_gap": 0.18569, 
			 "cosmo_polarized_energy": -9.5, 
			 "cosmo_cavitation_energy": 42.16, 
			 "cosmo_dispersion_energy": -30.1, 
			 "cosmo_repulsion_energy": 2.31, 
			 "cosmo_total_nonelectrostatic_energy": 14.37, 
			 "SMD_solvation_energy": 5.77 
		},
		"coords": [
			{
				"x": -3.0456528029,
				"y": -2.7691627191,
				"z": -3.8928170305,
				"element": "C" 
			},
			{
				"x": -2.6110873161,
				"y": -3.0194425642,
				"z": -2.5297299118,
				"element": "N" 
			},
			{
				"x": -1.994262878,
				"y": -4.3046613419,
				"z": -2.2498619646,
				"element": "C" 
			},
			{
				"x": -2.3045415945,
				"y": -1.9310012874,
				"z": -1.7108551669,
				"element": "C" 
			},
			{
				"x": -1.6436543896,
				"y": -2.1031997992,
				"z": -0.4725767103,
				"element": "C" 
			},
			{
				"x": -1.3732863427,
				"y": -1.0185046212,
				"z": 0.3541278328,
				"element": "C" 
			},
			{
				"x": -1.7335331604,
				"y": 0.2892440015,
				"z": 0.002834812,
				"element": "C" 
			},
			{
				"x": -1.4568203819,
				"y": 1.4632960994,
				"z": 0.9266186905,
				"element": "C" 
			},
			{
				"x": -0.0073405831,
				"y": 1.6165323298,
				"z": 1.3553589594,
				"element": "C" 
			},
			{
				"x": 1.02718284,
				"y": 1.7122792148,
				"z": 0.4151580958,
				"element": "C" 
			},
			{
				"x": 2.3542310508,
				"y": 1.8770210574,
				"z": 0.7958442342,
				"element": "C" 
			},
			{
				"x": 2.7177975446,
				"y": 1.9612652264,
				"z": 2.1598500537,
				"element": "C" 
			},
			{
				"x": 1.679514883,
				"y": 1.8448407479,
				"z": 3.107744238,
				"element": "C" 
			},
			{
				"x": 0.3550316212,
				"y": 1.6824762865,
				"z": 2.7034522239,
				"element": "C" 
			},
			{
				"x": 4.0435433313,
				"y": 2.1623097674,
				"z": 2.5487589054,
				"element": "N" 
			},
			{
				"x": 5.0977293571,
				"y": 1.996069065,
				"z": 1.5630415808,
				"element": "C" 
			},
			{
				"x": 4.3987782729,
				"y": 1.9774198335,
				"z": 3.9448810528,
				"element": "C" 
			},
			{
				"x": -2.371017267,
				"y": 0.4604698174,
				"z": -1.2289707049,
				"element": "C" 
			},
			{
				"x": -2.6497548624,
				"y": -0.6124545932,
				"z": -2.0746599337,
				"element": "C" 
			},
			{
				"x": -2.295054037,
				"y": -2.2340471416,
				"z": -4.4976090859,
				"element": "H" 
			},
			{
				"x": -3.9694554693,
				"y": -2.1803933807,
				"z": -3.9068955372,
				"element": "H" 
			},
			{
				"x": -3.2602521793,
				"y": -3.7220848103,
				"z": -4.3802558419,
				"element": "H" 
			},
			{
				"x": -0.8934542818,
				"y": -4.2797281291,
				"z": -2.3027220069,
				"element": "H" 
			},
			{
				"x": -2.2745314259,
				"y": -4.6656122443,
				"z": -1.2542472032,
				"element": "H" 
			},
			{
				"x": -2.3539989644,
				"y": -5.0382405541,
				"z": -2.9738540029,
				"element": "H" 
			},
			{
				"x": -1.3340413417,
				"y": -3.0896814916,
				"z": -0.1494301391,
				"element": "H" 
			},
			{
				"x": -0.8553456532,
				"y": -1.1930891759,
				"z": 1.2941058877,
				"element": "H" 
			},
			{
				"x": -1.7919424699,
				"y": 2.3822068058,
				"z": 0.4269377718,
				"element": "H" 
			},
			{
				"x": -2.0763875626,
				"y": 1.3753267771,
				"z": 1.8292780467,
				"element": "H" 
			},
			{
				"x": 0.7912006752,
				"y": 1.6432527645,
				"z": -0.6440198583,
				"element": "H" 
			},
			{
				"x": 3.1104008927,
				"y": 1.9373720631,
				"z": 0.0225590367,
				"element": "H" 
			},
			{
				"x": 1.8964952023,
				"y": 1.8778547417,
				"z": 4.1684314839,
				"element": "H" 
			},
			{
				"x": -0.4158040199,
				"y": 1.602061218,
				"z": 3.4672110625,
				"element": "H" 
			},
			{
				"x": 4.9778813632,
				"y": 2.70587818,
				"z": 0.7372942991,
				"element": "H" 
			},
			{
				"x": 5.1360623425,
				"y": 0.9814942998,
				"z": 1.1336382215,
				"element": "H" 
			},
			{
				"x": 6.0610654251,
				"y": 2.2044024762,
				"z": 2.0324111314,
				"element": "H" 
			},
			{
				"x": 4.2065198096,
				"y": 0.9554608581,
				"z": 4.3111378505,
				"element": "H" 
			},
			{
				"x": 3.8446791755,
				"y": 2.6729073164,
				"z": 4.58482114,
				"element": "H" 
			},
			{
				"x": 5.4611363797,
				"y": 2.1923494751,
				"z": 4.074938049,
				"element": "H" 
			},
			{
				"x": -2.6588964389,
				"y": 1.4608595218,
				"z": -1.5457244279,
				"element": "H" 
			},
			{
				"x": -3.1366347447,
				"y": -0.4123460909,
				"z": -3.0213051342,
				"element": "H" 
			}
		],
		 "valence_orbital": [ 
			{
				"type": "occ",
				"energy": -0.26284,
				"method": "rhf"
			},
			{
				"type": "occ",
				"energy": -0.23413,
				"method": "rhf"
			},
			{
				"type": "occ",
				"energy": -0.23178,
				"method": "rhf"
			},
			{
				"type": "occ",
				"energy": -0.1828,
				"method": "rhf"
			},
			{
				"type": "occ",
				"energy": -0.17468,
				"method": "rhf"
			},
			{
				"type": "unocc",
				"energy": 0.01101,
				"method": "rhf"
			},
			{
				"type": "unocc",
				"energy": 0.0169,
				"method": "rhf"
			},
			{
				"type": "unocc",
				"energy": 0.02499,
				"method": "rhf"
			},
			{
				"type": "unocc",
				"energy": 0.03367,
				"method": "rhf"
			},
			{
				"type": "unocc",
				"energy": 0.09184,
				"method": "rhf"
			}
		],
		"cosmo_sigma_profile": { 
			"-0.025": 0.0,
			"-0.024": 0.0,
			"-0.023": 0.0,
			"-0.022": 0.0,
			"-0.021": 0.0,
			"-0.02": 0.0,
			"-0.019": 0.0,
			"-0.018": 0.0,
			"-0.017": 0.0,
			"-0.016": 0.0,
			"-0.015": 0.0,
			"-0.014": 0.0,
			"-0.013": 0.0,
			"-0.012": 0.0,
			"-0.011": 0.0,
			"-0.01": 0.0,
			"-0.009": 0.0,
			"-0.008": 0.0,
			"-0.007": 0.350237757395,
			"-0.006": 5.08181536517,
			"-0.005": 18.8705448671,
			"-0.004": 31.0821093929,
			"-0.003": 41.6125004835,
			"-0.002": 47.7376954601,
			"-0.001": 45.4329115698,
			"0.0": 26.7095210649,
			"0.001": 16.638407924,
			"0.002": 13.9063057927,
			"0.003": 12.8830059358,
			"0.004": 12.4092113135,
			"0.005": 15.2880542318,
			"0.006": 16.7446590957,
			"0.007": 17.2669192882,
			"0.008": 8.77617790307,
			"0.009": 1.11515812824,
			"0.01": 0.145004681099,
			"0.011": 0.0,
			"0.012": 0.0,
			"0.013": 0.0,
			"0.014": 0.0,
			"0.015": 0.0,
			"0.016": 0.0,
			"0.017": 0.0,
			"0.018": 0.0,
			"0.019": 0.0,
			"0.02": 0.0,
			"0.021": 0.0,
			"0.022": 0.0,
			"0.023": 0.0,
			"0.024": 0.0,
			"0.025": 0.0
		}
	}
}
