{
	 "smiles": "CC1=CC=C2C(Cl)=CC(Cl)=C(O)C2=N1", 
	 "Tm": 387.15, 
	 "num_atms": 21, 
	 "gaussian": { 
		 "optdone": 1, 
		 "sigma_profile": "yes", 
		 "theory": "DFT", 
		 "functional": "B3LYP", 
		 "basiset": "6-31G**", 
		 "properties": { 
			 "R2extent": 4451.071, 
			 "electric_dipole_moment_norm": 4.15229756641, 
			 "electric_quadrupole_moment_norm": 12.3705243405, 
			 "total_energy": -1435.66163525, 
			 "HOMO_LUMO_gap": 0.15272, 
			 "cosmo_polarized_energy": -7.29, 
			 "cosmo_cavitation_energy": 28.58, 
			 "cosmo_dispersion_energy": -21.65, 
			 "cosmo_repulsion_energy": 1.69, 
			 "cosmo_total_nonelectrostatic_energy": 8.63, 
			 "SMD_solvation_energy": 3.73 
		},
		"coords": [
			{
				"x": 4.0381208518,
				"y": -0.4873936743,
				"z": 0.00725081,
				"element": "C" 
			},
			{
				"x": 2.561023307,
				"y": -0.441078994,
				"z": 0.2980485247,
				"element": "C" 
			},
			{
				"x": 1.9940505767,
				"y": 0.6615493247,
				"z": 0.9990211569,
				"element": "C" 
			},
			{
				"x": 0.645522398,
				"y": 0.6950579101,
				"z": 1.2596912884,
				"element": "C" 
			},
			{
				"x": -0.1796296763,
				"y": -0.3744824125,
				"z": 0.8270517527,
				"element": "C" 
			},
			{
				"x": -1.5830137137,
				"y": -0.4843600028,
				"z": 1.0197978045,
				"element": "C" 
			},
			{
				"x": -2.4536561813,
				"y": 0.787769723,
				"z": 1.8675863178,
				"element": "Cl" 
			},
			{
				"x": -2.2805621677,
				"y": -1.5754518592,
				"z": 0.5525373088,
				"element": "C" 
			},
			{
				"x": -1.6142775524,
				"y": -2.6165430673,
				"z": -0.1328891743,
				"element": "C" 
			},
			{
				"x": -2.5378228445,
				"y": -3.9816509624,
				"z": -0.7083219217,
				"element": "Cl" 
			},
			{
				"x": -0.2487734403,
				"y": -2.5646320045,
				"z": -0.3503097746,
				"element": "C" 
			},
			{
				"x": 0.4213894007,
				"y": -3.5316240715,
				"z": -0.9961630509,
				"element": "O" 
			},
			{
				"x": 0.4764128602,
				"y": -1.4313001733,
				"z": 0.134947433,
				"element": "C" 
			},
			{
				"x": 1.8133923528,
				"y": -1.4499677963,
				"z": -0.1156244005,
				"element": "N" 
			},
			{
				"x": 4.6215741992,
				"y": -0.4569468952,
				"z": 0.9345415873,
				"element": "H" 
			},
			{
				"x": 4.2850835486,
				"y": -1.4017986417,
				"z": -0.5340437092,
				"element": "H" 
			},
			{
				"x": 4.3464045042,
				"y": 0.3744797323,
				"z": -0.5955331038,
				"element": "H" 
			},
			{
				"x": 2.6381495285,
				"y": 1.4728349058,
				"z": 1.3239487944,
				"element": "H" 
			},
			{
				"x": 0.2013384115,
				"y": 1.5289028047,
				"z": 1.7925400526,
				"element": "H" 
			},
			{
				"x": -3.3504954169,
				"y": -1.6483376986,
				"z": 0.7054111012,
				"element": "H" 
			},
			{
				"x": 1.3531690542,
				"y": -3.228726147,
				"z": -0.9991887975,
				"element": "H" 
			}
		],
		 "valence_orbital": [ 
			{
				"type": "occ",
				"energy": -0.31005,
				"method": "rhf"
			},
			{
				"type": "occ",
				"energy": -0.30139,
				"method": "rhf"
			},
			{
				"type": "occ",
				"energy": -0.28748,
				"method": "rhf"
			},
			{
				"type": "occ",
				"energy": -0.25871,
				"method": "rhf"
			},
			{
				"type": "occ",
				"energy": -0.21862,
				"method": "rhf"
			},
			{
				"type": "unocc",
				"energy": -0.0659,
				"method": "rhf"
			},
			{
				"type": "unocc",
				"energy": -0.03647,
				"method": "rhf"
			},
			{
				"type": "unocc",
				"energy": 0.00919,
				"method": "rhf"
			},
			{
				"type": "unocc",
				"energy": 0.01315,
				"method": "rhf"
			},
			{
				"type": "unocc",
				"energy": 0.05245,
				"method": "rhf"
			}
		],
		"cosmo_sigma_profile": { 
			"-0.025": 0.0,
			"-0.024": 0.0,
			"-0.023": 0.0,
			"-0.022": 0.0,
			"-0.021": 0.0,
			"-0.02": 0.0,
			"-0.019": 0.0,
			"-0.018": 0.0,
			"-0.017": 0.0,
			"-0.016": 0.0,
			"-0.015": 0.0,
			"-0.014": 0.0,
			"-0.013": 0.0,
			"-0.012": 0.427544191123,
			"-0.011": 0.49551802703,
			"-0.01": 0.906430397997,
			"-0.009": 0.968073305399,
			"-0.008": 2.18511976749,
			"-0.007": 5.48096625587,
			"-0.006": 7.1178984602,
			"-0.005": 12.4071323852,
			"-0.004": 11.8305933302,
			"-0.003": 13.3269477232,
			"-0.002": 15.7978919471,
			"-0.001": 25.3844980673,
			"0.0": 32.9065746401,
			"0.001": 29.8280061506,
			"0.002": 20.4506416918,
			"0.003": 14.4613292276,
			"0.004": 18.9722940999,
			"0.005": 8.51035373025,
			"0.006": 3.8464255056,
			"0.007": 1.82679193887,
			"0.008": 1.88502655907,
			"0.009": 1.82063560813,
			"0.01": 2.50827165508,
			"0.011": 0.755334369925,
			"0.012": 0.0,
			"0.013": 0.0,
			"0.014": 0.0,
			"0.015": 0.0,
			"0.016": 0.0,
			"0.017": 0.0,
			"0.018": 0.0,
			"0.019": 0.0,
			"0.02": 0.0,
			"0.021": 0.0,
			"0.022": 0.0,
			"0.023": 0.0,
			"0.024": 0.0,
			"0.025": 0.0
		}
	}
}
