{
	 "smiles": "OC(=O)CCC(O)=O", 
	 "Tm": 459.15, 
	 "num_atms": 14, 
	 "gaussian": { 
		 "optdone": 1, 
		 "sigma_profile": "yes", 
		 "theory": "DFT", 
		 "functional": "B3LYP", 
		 "basiset": "6-31G**", 
		 "properties": { 
			 "R2extent": 1694.6649, 
			 "electric_dipole_moment_norm": 2.42742744073, 
			 "electric_quadrupole_moment_norm": 9.22467778028, 
			 "total_energy": -456.968760003, 
			 "HOMO_LUMO_gap": 0.27439, 
			 "cosmo_polarized_energy": -14.23, 
			 "cosmo_cavitation_energy": 19.09, 
			 "cosmo_dispersion_energy": -13.98, 
			 "cosmo_repulsion_energy": 1.22, 
			 "cosmo_total_nonelectrostatic_energy": 6.32, 
			 "SMD_solvation_energy": 5.88 
		},
		"coords": [
			{
				"x": -3.206301591,
				"y": 0.3252089484,
				"z": 2.3501447672,
				"element": "O" 
			},
			{
				"x": -2.4285416462,
				"y": -0.6810258748,
				"z": 1.8865007635,
				"element": "C" 
			},
			{
				"x": -2.6744449946,
				"y": -1.8490366448,
				"z": 2.093171644,
				"element": "O" 
			},
			{
				"x": -1.2609246967,
				"y": -0.1509031276,
				"z": 1.0827436242,
				"element": "C" 
			},
			{
				"x": -0.2414049412,
				"y": -1.2494100821,
				"z": 0.7657478009,
				"element": "C" 
			},
			{
				"x": 0.8563231954,
				"y": -0.8138789181,
				"z": -0.1795701584,
				"element": "C" 
			},
			{
				"x": 0.3680852611,
				"y": -0.1466535223,
				"z": -1.2574722544,
				"element": "O" 
			},
			{
				"x": 2.0369657479,
				"y": -1.0389564313,
				"z": -0.038556837,
				"element": "O" 
			},
			{
				"x": -3.938246899,
				"y": -0.0965690094,
				"z": 2.8311713274,
				"element": "H" 
			},
			{
				"x": -1.6615691491,
				"y": 0.2830099399,
				"z": 0.1598257523,
				"element": "H" 
			},
			{
				"x": -0.8068176707,
				"y": 0.679740017,
				"z": 1.6336016454,
				"element": "H" 
			},
			{
				"x": 0.2377364358,
				"y": -1.6227698157,
				"z": 1.6722882361,
				"element": "H" 
			},
			{
				"x": -0.7646801548,
				"y": -2.0974959732,
				"z": 0.3090871965,
				"element": "H" 
			},
			{
				"x": 1.1378211032,
				"y": 0.0677404942,
				"z": -1.8109835076,
				"element": "H" 
			}
		],
		 "valence_orbital": [ 
			{
				"type": "occ",
				"energy": -0.36592,
				"method": "rhf"
			},
			{
				"type": "occ",
				"energy": -0.32709,
				"method": "rhf"
			},
			{
				"type": "occ",
				"energy": -0.32304,
				"method": "rhf"
			},
			{
				"type": "occ",
				"energy": -0.28529,
				"method": "rhf"
			},
			{
				"type": "occ",
				"energy": -0.27766,
				"method": "rhf"
			},
			{
				"type": "unocc",
				"energy": -0.00327,
				"method": "rhf"
			},
			{
				"type": "unocc",
				"energy": 0.00967,
				"method": "rhf"
			},
			{
				"type": "unocc",
				"energy": 0.07008,
				"method": "rhf"
			},
			{
				"type": "unocc",
				"energy": 0.07517,
				"method": "rhf"
			},
			{
				"type": "unocc",
				"energy": 0.11252,
				"method": "rhf"
			}
		],
		"cosmo_sigma_profile": { 
			"-0.025": 0.0,
			"-0.024": 0.0,
			"-0.023": 0.0,
			"-0.022": 0.0,
			"-0.021": 0.0,
			"-0.02": 0.0,
			"-0.019": 0.133681682479,
			"-0.018": 1.35463592088,
			"-0.017": 2.16621139242,
			"-0.016": 1.47784007715,
			"-0.015": 1.6324476689,
			"-0.014": 1.4207507844,
			"-0.013": 1.41270011298,
			"-0.012": 1.05845205304,
			"-0.011": 1.5285079677,
			"-0.01": 1.36105662829,
			"-0.009": 0.92056645757,
			"-0.008": 1.52766071768,
			"-0.007": 7.23736517765,
			"-0.006": 10.8653668323,
			"-0.005": 10.7363002369,
			"-0.004": 8.70920681836,
			"-0.003": 8.02521437676,
			"-0.002": 9.71643543975,
			"-0.001": 6.2969524501,
			"0.0": 4.81520142072,
			"0.001": 5.24365451586,
			"0.002": 6.82075645853,
			"0.003": 4.68235238449,
			"0.004": 4.48751982342,
			"0.005": 4.86205086303,
			"0.006": 4.27009363948,
			"0.007": 5.51259457744,
			"0.008": 5.53116876226,
			"0.009": 5.19357373729,
			"0.01": 4.29319562459,
			"0.011": 8.64074583969,
			"0.012": 7.41177670258,
			"0.013": 0.689486896263,
			"0.014": 0.0,
			"0.015": 0.0,
			"0.016": 0.0,
			"0.017": 0.0,
			"0.018": 0.0,
			"0.019": 0.0,
			"0.02": 0.0,
			"0.021": 0.0,
			"0.022": 0.0,
			"0.023": 0.0,
			"0.024": 0.0,
			"0.025": 0.0
		}
	}
}
