{
	 "smiles": "CCOC(=O)C1=C(C)C2=C(S1)N=C(CN1CCCCC1)N=C2Cl", 
	 "Tm": 379.15, 
	 "num_atms": 43, 
	 "gaussian": { 
		 "optdone": 1, 
		 "sigma_profile": "yes", 
		 "theory": "DFT", 
		 "functional": "B3LYP", 
		 "basiset": "6-31G**", 
		 "properties": { 
			 "R2extent": 11627.5586, 
			 "electric_dipole_moment_norm": 3.36724189063, 
			 "electric_quadrupole_moment_norm": 18.5536885985, 
			 "total_energy": -1794.85090414, 
			 "HOMO_LUMO_gap": 0.11561, 
			 "cosmo_polarized_energy": -9.97, 
			 "cosmo_cavitation_energy": 47.46, 
			 "cosmo_dispersion_energy": -33.75, 
			 "cosmo_repulsion_energy": 2.56, 
			 "cosmo_total_nonelectrostatic_energy": 16.28, 
			 "SMD_solvation_energy": 3.38 
		},
		"coords": [
			{
				"x": 1.159033016,
				"y": -4.1023332339,
				"z": -5.0987411906,
				"element": "C" 
			},
			{
				"x": 2.2345224931,
				"y": -4.3193056025,
				"z": -4.0460391809,
				"element": "C" 
			},
			{
				"x": 2.1840381137,
				"y": -3.2935720606,
				"z": -3.0181120088,
				"element": "O" 
			},
			{
				"x": 1.3106165511,
				"y": -3.4985212841,
				"z": -2.012639846,
				"element": "C" 
			},
			{
				"x": 0.5918724325,
				"y": -4.4793776682,
				"z": -1.9310454357,
				"element": "O" 
			},
			{
				"x": 1.2876298821,
				"y": -2.4307534508,
				"z": -0.9864346928,
				"element": "C" 
			},
			{
				"x": 1.974445817,
				"y": -1.2434145185,
				"z": -0.8495377842,
				"element": "C" 
			},
			{
				"x": 3.0060029644,
				"y": -0.7073021986,
				"z": -1.8046678574,
				"element": "C" 
			},
			{
				"x": 1.5637186071,
				"y": -0.5604312894,
				"z": 0.3609721593,
				"element": "C" 
			},
			{
				"x": 0.5733612348,
				"y": -1.2748251377,
				"z": 1.0900413815,
				"element": "C" 
			},
			{
				"x": 0.1395765419,
				"y": -2.7677587425,
				"z": 0.312349007,
				"element": "S" 
			},
			{
				"x": 0.023289062,
				"y": -0.8850113112,
				"z": 2.2406289941,
				"element": "N" 
			},
			{
				"x": 0.4609273298,
				"y": 0.2824149254,
				"z": 2.718673858,
				"element": "C" 
			},
			{
				"x": -0.1765970905,
				"y": 0.8147046654,
				"z": 3.9900574165,
				"element": "C" 
			},
			{
				"x": -1.3148703638,
				"y": 1.7017526175,
				"z": 3.7754224741,
				"element": "N" 
			},
			{
				"x": -0.9820781858,
				"y": 3.0382189145,
				"z": 3.2721828196,
				"element": "C" 
			},
			{
				"x": -2.2674418628,
				"y": 3.8456102042,
				"z": 3.0771701178,
				"element": "C" 
			},
			{
				"x": -3.1604942895,
				"y": 3.2221107353,
				"z": 1.976194352,
				"element": "C" 
			},
			{
				"x": -2.9070906804,
				"y": 1.7041682615,
				"z": 1.8396252738,
				"element": "C" 
			},
			{
				"x": -2.5211245947,
				"y": 1.0835858993,
				"z": 3.1886293493,
				"element": "C" 
			},
			{
				"x": 1.395299439,
				"y": 1.0614485683,
				"z": 2.1197428671,
				"element": "N" 
			},
			{
				"x": 1.9204412922,
				"y": 0.6527732696,
				"z": 0.9881375634,
				"element": "C" 
			},
			{
				"x": 3.126480634,
				"y": 1.7319489097,
				"z": 0.2917700781,
				"element": "Cl" 
			},
			{
				"x": 0.1641629553,
				"y": -4.2187982446,
				"z": -4.6627971224,
				"element": "H" 
			},
			{
				"x": 1.2403549164,
				"y": -3.1052257879,
				"z": -5.5412276687,
				"element": "H" 
			},
			{
				"x": 1.2723599694,
				"y": -4.8426030762,
				"z": -5.8976307458,
				"element": "H" 
			},
			{
				"x": 3.2373194538,
				"y": -4.2209561374,
				"z": -4.4674355765,
				"element": "H" 
			},
			{
				"x": 2.1327531352,
				"y": -5.2961477605,
				"z": -3.5688497413,
				"element": "H" 
			},
			{
				"x": 3.1467552854,
				"y": -1.3800749767,
				"z": -2.6454942201,
				"element": "H" 
			},
			{
				"x": 3.9648120424,
				"y": -0.5691710658,
				"z": -1.2957915255,
				"element": "H" 
			},
			{
				"x": 2.7060233364,
				"y": 0.2752109277,
				"z": -2.1811108266,
				"element": "H" 
			},
			{
				"x": -0.5027553617,
				"y": -0.0413388843,
				"z": 4.5887000883,
				"element": "H" 
			},
			{
				"x": 0.5842622835,
				"y": 1.3658968841,
				"z": 4.5529444041,
				"element": "H" 
			},
			{
				"x": -0.3285629074,
				"y": 3.5244830357,
				"z": 4.0081571608,
				"element": "H" 
			},
			{
				"x": -0.4159442162,
				"y": 3.0194488636,
				"z": 2.3242911018,
				"element": "H" 
			},
			{
				"x": -2.0177687537,
				"y": 4.8833312876,
				"z": 2.8319038728,
				"element": "H" 
			},
			{
				"x": -2.8046807029,
				"y": 3.8664069852,
				"z": 4.0326736397,
				"element": "H" 
			},
			{
				"x": -2.9720540892,
				"y": 3.7104542394,
				"z": 1.0131390161,
				"element": "H" 
			},
			{
				"x": -4.2144116164,
				"y": 3.4068680424,
				"z": 2.2141887256,
				"element": "H" 
			},
			{
				"x": -2.0959711937,
				"y": 1.5227776108,
				"z": 1.1239029388,
				"element": "H" 
			},
			{
				"x": -3.7922691371,
				"y": 1.1978232629,
				"z": 1.4381915157,
				"element": "H" 
			},
			{
				"x": -3.3641980737,
				"y": 1.1947414515,
				"z": 3.8888640226,
				"element": "H" 
			},
			{
				"x": -2.3511456692,
				"y": 0.0098428701,
				"z": 3.0677012254,
				"element": "H" 
			}
		],
		 "valence_orbital": [ 
			{
				"type": "occ",
				"energy": -0.29129,
				"method": "rhf"
			},
			{
				"type": "occ",
				"energy": -0.27386,
				"method": "rhf"
			},
			{
				"type": "occ",
				"energy": -0.26814,
				"method": "rhf"
			},
			{
				"type": "occ",
				"energy": -0.24545,
				"method": "rhf"
			},
			{
				"type": "occ",
				"energy": -0.19475,
				"method": "rhf"
			},
			{
				"type": "unocc",
				"energy": -0.07914,
				"method": "rhf"
			},
			{
				"type": "unocc",
				"energy": -0.04498,
				"method": "rhf"
			},
			{
				"type": "unocc",
				"energy": -0.01211,
				"method": "rhf"
			},
			{
				"type": "unocc",
				"energy": 0.00531,
				"method": "rhf"
			},
			{
				"type": "unocc",
				"energy": 0.03343,
				"method": "rhf"
			}
		],
		"cosmo_sigma_profile": { 
			"-0.025": 0.0,
			"-0.024": 0.0,
			"-0.023": 0.0,
			"-0.022": 0.0,
			"-0.021": 0.0,
			"-0.02": 0.0,
			"-0.019": 0.0,
			"-0.018": 0.0,
			"-0.017": 0.0,
			"-0.016": 0.0,
			"-0.015": 0.0,
			"-0.014": 0.0,
			"-0.013": 0.0,
			"-0.012": 0.0,
			"-0.011": 0.0,
			"-0.01": 0.0,
			"-0.009": 0.0,
			"-0.008": 0.0,
			"-0.007": 0.188687942892,
			"-0.006": 2.5920655847,
			"-0.005": 12.1175242005,
			"-0.004": 25.0903360703,
			"-0.003": 42.4283975978,
			"-0.002": 54.1880606394,
			"-0.001": 65.6347219491,
			"0.0": 54.0285500346,
			"0.001": 35.2182221829,
			"0.002": 20.0474945805,
			"0.003": 18.5544041228,
			"0.004": 10.3115261747,
			"0.005": 6.79724852245,
			"0.006": 5.37878918874,
			"0.007": 4.360706878,
			"0.008": 4.8139060118,
			"0.009": 3.68912341108,
			"0.01": 4.22744438093,
			"0.011": 5.55355373833,
			"0.012": 2.28766116716,
			"0.013": 0.353587397011,
			"0.014": 0.397783549162,
			"0.015": 0.112489127247,
			"0.016": 0.0,
			"0.017": 0.0,
			"0.018": 0.0,
			"0.019": 0.0,
			"0.02": 0.0,
			"0.021": 0.0,
			"0.022": 0.0,
			"0.023": 0.0,
			"0.024": 0.0,
			"0.025": 0.0
		}
	}
}
