{
	 "smiles": "CC1(C)CC(CC(C)(C)N1)NC(=O)NP(=O)(N1CC1)N1CC1", 
	 "Tm": 416.15, 
	 "num_atms": 50, 
	 "gaussian": { 
		 "optdone": 1, 
		 "sigma_profile": "yes", 
		 "theory": "DFT", 
		 "functional": "B3LYP", 
		 "basiset": "6-31G**", 
		 "properties": { 
			 "R2extent": 8771.6126, 
			 "electric_dipole_moment_norm": 4.7759979376, 
			 "electric_quadrupole_moment_norm": 16.7284880946, 
			 "total_energy": -1315.93220316, 
			 "HOMO_LUMO_gap": 0.25515, 
			 "cosmo_polarized_energy": -20.54, 
			 "cosmo_cavitation_energy": 50.56, 
			 "cosmo_dispersion_energy": -31.61, 
			 "cosmo_repulsion_energy": 2.39, 
			 "cosmo_total_nonelectrostatic_energy": 21.34, 
			 "SMD_solvation_energy": 6.15 
		},
		"coords": [
			{
				"x": -0.0291926257,
				"y": 2.7167726914,
				"z": -4.4029473525,
				"element": "C" 
			},
			{
				"x": -0.6106272159,
				"y": 1.4946527459,
				"z": -3.6737009404,
				"element": "C" 
			},
			{
				"x": -1.9363985177,
				"y": 1.1007021703,
				"z": -4.3647303145,
				"element": "C" 
			},
			{
				"x": -0.8589261786,
				"y": 1.8556102819,
				"z": -2.1934059271,
				"element": "C" 
			},
			{
				"x": -1.2824445799,
				"y": 0.6443295223,
				"z": -1.3305560664,
				"element": "C" 
			},
			{
				"x": -0.6512722271,
				"y": -0.6798088761,
				"z": -1.836003297,
				"element": "C" 
			},
			{
				"x": 0.6358112831,
				"y": -0.5238481521,
				"z": -2.6688763145,
				"element": "C" 
			},
			{
				"x": 1.8172246448,
				"y": -0.0317352732,
				"z": -1.7948483941,
				"element": "C" 
			},
			{
				"x": 1.021580586,
				"y": -1.8960838145,
				"z": -3.2559511039,
				"element": "C" 
			},
			{
				"x": 0.3574486627,
				"y": 0.3759723883,
				"z": -3.8092076549,
				"element": "N" 
			},
			{
				"x": -0.9942528162,
				"y": 0.8867197243,
				"z": 0.0809967531,
				"element": "N" 
			},
			{
				"x": -1.9810141126,
				"y": 1.1334861864,
				"z": 0.9818610595,
				"element": "C" 
			},
			{
				"x": -3.1759729605,
				"y": 1.2047674345,
				"z": 0.7253910673,
				"element": "O" 
			},
			{
				"x": -1.5430247572,
				"y": 1.3358577533,
				"z": 2.3189475566,
				"element": "N" 
			},
			{
				"x": -0.1198455483,
				"y": 0.9449351884,
				"z": 3.1260205939,
				"element": "P" 
			},
			{
				"x": -0.1583810115,
				"y": 1.366376018,
				"z": 4.5570085569,
				"element": "O" 
			},
			{
				"x": 0.146398894,
				"y": -0.7013061549,
				"z": 2.808774338,
				"element": "N" 
			},
			{
				"x": 0.9671589126,
				"y": -1.4887601776,
				"z": 3.7466847158,
				"element": "C" 
			},
			{
				"x": -0.5025917719,
				"y": -1.6913729716,
				"z": 3.6841544074,
				"element": "C" 
			},
			{
				"x": 1.0830565156,
				"y": 1.6357149911,
				"z": 2.1357933793,
				"element": "N" 
			},
			{
				"x": 2.4409783311,
				"y": 1.8232327505,
				"z": 2.6754625783,
				"element": "C" 
			},
			{
				"x": 1.552328343,
				"y": 2.994069713,
				"z": 2.4610884996,
				"element": "C" 
			},
			{
				"x": 0.1945205181,
				"y": 2.4688454506,
				"z": -5.4468853899,
				"element": "H" 
			},
			{
				"x": -0.7379824098,
				"y": 3.5507058916,
				"z": -4.4014508687,
				"element": "H" 
			},
			{
				"x": 0.8962736248,
				"y": 3.0574340853,
				"z": -3.9241543902,
				"element": "H" 
			},
			{
				"x": -2.3892462318,
				"y": 0.2194340622,
				"z": -3.9027957926,
				"element": "H" 
			},
			{
				"x": -1.7476721107,
				"y": 0.8578676174,
				"z": -5.4145553862,
				"element": "H" 
			},
			{
				"x": -2.6657826951,
				"y": 1.9178364724,
				"z": -4.3191228067,
				"element": "H" 
			},
			{
				"x": -1.6242007389,
				"y": 2.6365143597,
				"z": -2.1173153663,
				"element": "H" 
			},
			{
				"x": 0.060357557,
				"y": 2.2876787278,
				"z": -1.7814611222,
				"element": "H" 
			},
			{
				"x": -2.368447552,
				"y": 0.5437718478,
				"z": -1.3717052679,
				"element": "H" 
			},
			{
				"x": -0.455024261,
				"y": -1.3321940738,
				"z": -0.9793767231,
				"element": "H" 
			},
			{
				"x": -1.3859068679,
				"y": -1.1992966319,
				"z": -2.4609000374,
				"element": "H" 
			},
			{
				"x": 1.6303503808,
				"y": 0.9454756996,
				"z": -1.3421930141,
				"element": "H" 
			},
			{
				"x": 2.0336495922,
				"y": -0.7397224099,
				"z": -0.9866827369,
				"element": "H" 
			},
			{
				"x": 2.724755058,
				"y": 0.0586861996,
				"z": -2.4045108603,
				"element": "H" 
			},
			{
				"x": 1.2357362426,
				"y": -2.6244206026,
				"z": -2.4651384529,
				"element": "H" 
			},
			{
				"x": 1.9164974091,
				"y": -1.8085165895,
				"z": -3.8828476619,
				"element": "H" 
			},
			{
				"x": 0.2125984129,
				"y": -2.2810105742,
				"z": -3.8825387989,
				"element": "H" 
			},
			{
				"x": 1.2338534652,
				"y": 0.713830647,
				"z": -4.1925405943,
				"element": "H" 
			},
			{
				"x": -0.0312837294,
				"y": 0.9763703514,
				"z": 0.3878624833,
				"element": "H" 
			},
			{
				"x": -2.3164469422,
				"y": 1.5821432927,
				"z": 2.9248929878,
				"element": "H" 
			},
			{
				"x": 1.3550881701,
				"y": -0.9869323623,
				"z": 4.63047773,
				"element": "H" 
			},
			{
				"x": 1.639465677,
				"y": -2.1985340763,
				"z": 3.2719799303,
				"element": "H" 
			},
			{
				"x": -0.9168950414,
				"y": -2.5491053836,
				"z": 3.1615183814,
				"element": "H" 
			},
			{
				"x": -1.0865049205,
				"y": -1.3260467523,
				"z": 4.5263741252,
				"element": "H" 
			},
			{
				"x": 3.2408881061,
				"y": 1.6042237888,
				"z": 1.9735738591,
				"element": "H" 
			},
			{
				"x": 2.6255511666,
				"y": 1.5266873335,
				"z": 3.705445036,
				"element": "H" 
			},
			{
				"x": 1.1359528377,
				"y": 3.4699558932,
				"z": 3.345759812,
				"element": "H" 
			},
			{
				"x": 1.6971134325,
				"y": 3.6394335962,
				"z": 1.5992347849,
				"element": "H" 
			}
		],
		 "valence_orbital": [ 
			{
				"type": "occ",
				"energy": -0.27443,
				"method": "rhf"
			},
			{
				"type": "occ",
				"energy": -0.25818,
				"method": "rhf"
			},
			{
				"type": "occ",
				"energy": -0.25187,
				"method": "rhf"
			},
			{
				"type": "occ",
				"energy": -0.23685,
				"method": "rhf"
			},
			{
				"type": "occ",
				"energy": -0.205,
				"method": "rhf"
			},
			{
				"type": "unocc",
				"energy": 0.05015,
				"method": "rhf"
			},
			{
				"type": "unocc",
				"energy": 0.05806,
				"method": "rhf"
			},
			{
				"type": "unocc",
				"energy": 0.06477,
				"method": "rhf"
			},
			{
				"type": "unocc",
				"energy": 0.07325,
				"method": "rhf"
			},
			{
				"type": "unocc",
				"energy": 0.07732,
				"method": "rhf"
			}
		],
		"cosmo_sigma_profile": { 
			"-0.025": 0.0,
			"-0.024": 0.0,
			"-0.023": 0.0,
			"-0.022": 0.0,
			"-0.021": 0.0,
			"-0.02": 0.0,
			"-0.019": 0.0,
			"-0.018": 0.0,
			"-0.017": 0.0,
			"-0.016": 0.0,
			"-0.015": 0.119576384321,
			"-0.014": 0.600006107925,
			"-0.013": 1.10259566242,
			"-0.012": 0.632498115731,
			"-0.011": 0.612209586295,
			"-0.01": 0.23120193569,
			"-0.009": 1.13405820863,
			"-0.008": 2.00325503323,
			"-0.007": 7.8003768531,
			"-0.006": 17.0947931195,
			"-0.005": 20.6363477469,
			"-0.004": 23.7946609042,
			"-0.003": 42.9142498629,
			"-0.002": 51.7301441009,
			"-0.001": 40.5052888692,
			"0.0": 40.5255889398,
			"0.001": 44.5407288087,
			"0.002": 25.5736195763,
			"0.003": 9.11652101521,
			"0.004": 6.55364558274,
			"0.005": 5.52033925141,
			"0.006": 4.86748262313,
			"0.007": 4.59660986177,
			"0.008": 4.29504177194,
			"0.009": 3.06412058419,
			"0.01": 4.84464448629,
			"0.011": 3.21080416024,
			"0.012": 3.6203000467,
			"0.013": 5.26909285371,
			"0.014": 9.54605370358,
			"0.015": 4.43802198111,
			"0.016": 0.379318409738,
			"0.017": 0.0642509664392,
			"0.018": 0.0,
			"0.019": 0.0,
			"0.02": 0.0,
			"0.021": 0.0,
			"0.022": 0.0,
			"0.023": 0.0,
			"0.024": 0.0,
			"0.025": 0.0
		}
	}
}
