{
	 "smiles": "ClCC(=O)C1=CC=C(Br)C=C1", 
	 "Tm": 393.15, 
	 "num_atms": 17, 
	 "gaussian": { 
		 "optdone": 1, 
		 "sigma_profile": "yes", 
		 "theory": "DFT", 
		 "functional": "B3LYP", 
		 "basiset": "6-31G**", 
		 "properties": { 
			 "R2extent": 4823.491, 
			 "electric_dipole_moment_norm": 3.31861582893, 
			 "electric_quadrupole_moment_norm": 20.0230973251, 
			 "total_energy": -3415.28338683, 
			 "HOMO_LUMO_gap": 0.18506, 
			 "cosmo_polarized_energy": -11.67, 
			 "cosmo_cavitation_energy": 25.8, 
			 "cosmo_dispersion_energy": -19.54, 
			 "cosmo_repulsion_energy": 1.57, 
			 "cosmo_total_nonelectrostatic_energy": 7.83, 
			 "SMD_solvation_energy": 3.47 
		},
		"coords": [
			{
				"x": -1.0518721512,
				"y": 4.7229629436,
				"z": 1.8359480018,
				"element": "Cl" 
			},
			{
				"x": -0.9776986944,
				"y": 2.9363833646,
				"z": 1.8589366957,
				"element": "C" 
			},
			{
				"x": -0.3344144271,
				"y": 2.3424473294,
				"z": 0.5999409015,
				"element": "C" 
			},
			{
				"x": 0.0742447701,
				"y": 3.0425254936,
				"z": -0.3049860757,
				"element": "O" 
			},
			{
				"x": -0.2327890506,
				"y": 0.8480070358,
				"z": 0.5379055068,
				"element": "C" 
			},
			{
				"x": -0.6894985454,
				"y": -0.0045178075,
				"z": 1.5550826339,
				"element": "C" 
			},
			{
				"x": -0.5646829188,
				"y": -1.3873092203,
				"z": 1.4348873997,
				"element": "C" 
			},
			{
				"x": 0.0221619744,
				"y": -1.9188948456,
				"z": 0.2868012034,
				"element": "C" 
			},
			{
				"x": 0.1957343333,
				"y": -3.8091392369,
				"z": 0.1167410758,
				"element": "Br" 
			},
			{
				"x": 0.4844958039,
				"y": -1.0920468267,
				"z": -0.7394621005,
				"element": "C" 
			},
			{
				"x": 0.3539529738,
				"y": 0.2855350932,
				"z": -0.6070949119,
				"element": "C" 
			},
			{
				"x": -0.4101234946,
				"y": 2.6377759056,
				"z": 2.7442620027,
				"element": "H" 
			},
			{
				"x": -1.9988928571,
				"y": 2.5618327754,
				"z": 1.9683919803,
				"element": "H" 
			},
			{
				"x": -1.1481966686,
				"y": 0.3942449503,
				"z": 2.4540764571,
				"element": "H" 
			},
			{
				"x": -0.9177160988,
				"y": -2.0445623699,
				"z": 2.2209832403,
				"element": "H" 
			},
			{
				"x": 0.9378441217,
				"y": -1.5237990692,
				"z": -1.6243232466,
				"element": "H" 
			},
			{
				"x": 0.7033509295,
				"y": 0.9537544846,
				"z": -1.3868907643,
				"element": "H" 
			}
		],
		 "valence_orbital": [ 
			{
				"type": "occ",
				"energy": -0.30278,
				"method": "rhf"
			},
			{
				"type": "occ",
				"energy": -0.30236,
				"method": "rhf"
			},
			{
				"type": "occ",
				"energy": -0.28384,
				"method": "rhf"
			},
			{
				"type": "occ",
				"energy": -0.27177,
				"method": "rhf"
			},
			{
				"type": "occ",
				"energy": -0.26176,
				"method": "rhf"
			},
			{
				"type": "unocc",
				"energy": -0.0767,
				"method": "rhf"
			},
			{
				"type": "unocc",
				"energy": -0.03308,
				"method": "rhf"
			},
			{
				"type": "unocc",
				"energy": -0.00813,
				"method": "rhf"
			},
			{
				"type": "unocc",
				"energy": 0.01606,
				"method": "rhf"
			},
			{
				"type": "unocc",
				"energy": 0.02102,
				"method": "rhf"
			}
		],
		"cosmo_sigma_profile": { 
			"-0.025": 0.0,
			"-0.024": 0.0,
			"-0.023": 0.0,
			"-0.022": 0.0,
			"-0.021": 0.0,
			"-0.02": 0.0,
			"-0.019": 0.0,
			"-0.018": 0.0,
			"-0.017": 0.0,
			"-0.016": 0.0,
			"-0.015": 0.0,
			"-0.014": 0.0,
			"-0.013": 0.0,
			"-0.012": 0.0,
			"-0.011": 0.0,
			"-0.01": 2.87370646367,
			"-0.009": 9.53749813643,
			"-0.008": 6.88622812663,
			"-0.007": 8.97545105774,
			"-0.006": 10.0699932933,
			"-0.005": 9.40633578679,
			"-0.004": 8.59974867478,
			"-0.003": 8.57003035887,
			"-0.002": 10.7855205764,
			"-0.001": 11.1481637336,
			"0.0": 17.3523054822,
			"0.001": 22.3349071201,
			"0.002": 22.6350271654,
			"0.003": 13.5956272072,
			"0.004": 16.4730583596,
			"0.005": 8.37203293274,
			"0.006": 7.81975559345,
			"0.007": 2.79149653871,
			"0.008": 2.25790953926,
			"0.009": 2.30080192543,
			"0.01": 3.21441408671,
			"0.011": 3.96774788386,
			"0.012": 1.89179598494,
			"0.013": 0.836974975078,
			"0.014": 0.0,
			"0.015": 0.0,
			"0.016": 0.0,
			"0.017": 0.0,
			"0.018": 0.0,
			"0.019": 0.0,
			"0.02": 0.0,
			"0.021": 0.0,
			"0.022": 0.0,
			"0.023": 0.0,
			"0.024": 0.0,
			"0.025": 0.0
		}
	}
}
