{
	 "smiles": "CC1=CSC(=S)N1O", 
	 "Tm": 363.65, 
	 "num_atms": 13, 
	 "gaussian": { 
		 "optdone": 1, 
		 "sigma_profile": "yes", 
		 "theory": "DFT", 
		 "functional": "B3LYP", 
		 "basiset": "6-31G**", 
		 "properties": { 
			 "R2extent": 1412.0568, 
			 "electric_dipole_moment_norm": 4.90259281095, 
			 "electric_quadrupole_moment_norm": 5.29932578259, 
			 "total_energy": -1081.73129002, 
			 "HOMO_LUMO_gap": 0.16995, 
			 "cosmo_polarized_energy": -9.85, 
			 "cosmo_cavitation_energy": 20.15, 
			 "cosmo_dispersion_energy": -16.27, 
			 "cosmo_repulsion_energy": 1.25, 
			 "cosmo_total_nonelectrostatic_energy": 5.13, 
			 "SMD_solvation_energy": 3.54 
		},
		"coords": [
			{
				"x": 0.0689788092,
				"y": 2.435526246,
				"z": 1.1106358689,
				"element": "C" 
			},
			{
				"x": -0.2803794803,
				"y": 1.2345108481,
				"z": 0.295382571,
				"element": "C" 
			},
			{
				"x": -0.5546190184,
				"y": 1.1295708607,
				"z": -1.0271079063,
				"element": "C" 
			},
			{
				"x": -0.9081602035,
				"y": -0.5223251399,
				"z": -1.4951475549,
				"element": "S" 
			},
			{
				"x": -0.6783500634,
				"y": -1.097711119,
				"z": 0.1517814037,
				"element": "C" 
			},
			{
				"x": -0.8017375459,
				"y": -2.6443049123,
				"z": 0.7807983347,
				"element": "S" 
			},
			{
				"x": -0.3597398712,
				"y": -0.0117122146,
				"z": 0.9031405356,
				"element": "N" 
			},
			{
				"x": -0.1175573363,
				"y": -0.1386068547,
				"z": 2.2503768201,
				"element": "O" 
			},
			{
				"x": 0.0860927518,
				"y": 3.3227870624,
				"z": 0.4753062862,
				"element": "H" 
			},
			{
				"x": 1.0509840834,
				"y": 2.3171516016,
				"z": 1.5796045098,
				"element": "H" 
			},
			{
				"x": -0.6600096209,
				"y": 2.5887027834,
				"z": 1.9127522829,
				"element": "H" 
			},
			{
				"x": -0.5684917293,
				"y": 1.9302125414,
				"z": -1.750747057,
				"element": "H" 
			},
			{
				"x": -0.2474107753,
				"y": -1.115601703,
				"z": 2.3788239053,
				"element": "H" 
			}
		],
		 "valence_orbital": [ 
			{
				"type": "occ",
				"energy": -0.37025,
				"method": "rhf"
			},
			{
				"type": "occ",
				"energy": -0.30243,
				"method": "rhf"
			},
			{
				"type": "occ",
				"energy": -0.28086,
				"method": "rhf"
			},
			{
				"type": "occ",
				"energy": -0.23544,
				"method": "rhf"
			},
			{
				"type": "occ",
				"energy": -0.20957,
				"method": "rhf"
			},
			{
				"type": "unocc",
				"energy": -0.03962,
				"method": "rhf"
			},
			{
				"type": "unocc",
				"energy": -0.00198,
				"method": "rhf"
			},
			{
				"type": "unocc",
				"energy": 0.01076,
				"method": "rhf"
			},
			{
				"type": "unocc",
				"energy": 0.05628,
				"method": "rhf"
			},
			{
				"type": "unocc",
				"energy": 0.06348,
				"method": "rhf"
			}
		],
		"cosmo_sigma_profile": { 
			"-0.025": 0.0,
			"-0.024": 0.0,
			"-0.023": 0.0,
			"-0.022": 0.0,
			"-0.021": 0.0,
			"-0.02": 0.0,
			"-0.019": 0.0,
			"-0.018": 0.0,
			"-0.017": 0.0,
			"-0.016": 0.0,
			"-0.015": 0.0,
			"-0.014": 0.0,
			"-0.013": 0.292794023768,
			"-0.012": 0.239552720773,
			"-0.011": 0.855673311784,
			"-0.01": 2.65947378545,
			"-0.009": 2.87439699832,
			"-0.008": 3.66577630258,
			"-0.007": 3.75081390854,
			"-0.006": 8.30159229781,
			"-0.005": 8.54430917403,
			"-0.004": 9.12022061497,
			"-0.003": 13.4035024679,
			"-0.002": 15.1358910854,
			"-0.001": 14.9089793598,
			"0.0": 12.2559598414,
			"0.001": 12.8652445381,
			"0.002": 11.2568183871,
			"0.003": 6.23607443362,
			"0.004": 5.28467933499,
			"0.005": 5.31094995815,
			"0.006": 6.12000886508,
			"0.007": 6.19137084584,
			"0.008": 4.91937171872,
			"0.009": 6.07433712456,
			"0.01": 5.34160279334,
			"0.011": 0.552768955964,
			"0.012": 0.0,
			"0.013": 0.0,
			"0.014": 0.0,
			"0.015": 0.0,
			"0.016": 0.0,
			"0.017": 0.0,
			"0.018": 0.0,
			"0.019": 0.0,
			"0.02": 0.0,
			"0.021": 0.0,
			"0.022": 0.0,
			"0.023": 0.0,
			"0.024": 0.0,
			"0.025": 0.0
		}
	}
}
