{
	 "smiles": "CC(C)C(C)NC1=C(C)C(=CC=C1)C(O)=O", 
	 "Tm": 364.15, 
	 "num_atms": 35, 
	 "gaussian": { 
		 "optdone": 1, 
		 "sigma_profile": "yes", 
		 "theory": "DFT", 
		 "functional": "B3LYP", 
		 "basiset": "6-31G**", 
		 "properties": { 
			 "R2extent": 5156.1372, 
			 "electric_dipole_moment_norm": 6.59759486556, 
			 "electric_quadrupole_moment_norm": 24.9800699721, 
			 "total_energy": -712.061176042, 
			 "HOMO_LUMO_gap": 0.17131, 
			 "cosmo_polarized_energy": -15.88, 
			 "cosmo_cavitation_energy": 36.12, 
			 "cosmo_dispersion_energy": -24.98, 
			 "cosmo_repulsion_energy": 1.94, 
			 "cosmo_total_nonelectrostatic_energy": 13.08, 
			 "SMD_solvation_energy": 6.71 
		},
		"coords": [
			{
				"x": 1.9142468227,
				"y": -2.2184387013,
				"z": -0.7342677666,
				"element": "C" 
			},
			{
				"x": 1.6721633505,
				"y": -0.8452523734,
				"z": -1.377382845,
				"element": "C" 
			},
			{
				"x": 2.7004156161,
				"y": -0.5604649518,
				"z": -2.4825797884,
				"element": "C" 
			},
			{
				"x": 0.2106688646,
				"y": -0.6551675658,
				"z": -1.884544718,
				"element": "C" 
			},
			{
				"x": -0.2403362557,
				"y": -1.703822433,
				"z": -2.9094517592,
				"element": "C" 
			},
			{
				"x": -0.7718074949,
				"y": -0.6314599103,
				"z": -0.8024543668,
				"element": "N" 
			},
			{
				"x": -0.9429169768,
				"y": 0.4054166184,
				"z": 0.1039254405,
				"element": "C" 
			},
			{
				"x": -1.8198773267,
				"y": 0.2160854288,
				"z": 1.2109269955,
				"element": "C" 
			},
			{
				"x": -2.5612833953,
				"y": -1.1008982339,
				"z": 1.316471324,
				"element": "C" 
			},
			{
				"x": -2.0263429196,
				"y": 1.2904828406,
				"z": 2.097243179,
				"element": "C" 
			},
			{
				"x": -1.4275939552,
				"y": 2.5406286602,
				"z": 1.880580685,
				"element": "C" 
			},
			{
				"x": -0.5733912448,
				"y": 2.709805504,
				"z": 0.7989270137,
				"element": "C" 
			},
			{
				"x": -0.3201491389,
				"y": 1.6553901462,
				"z": -0.074451393,
				"element": "C" 
			},
			{
				"x": -2.8914933422,
				"y": 1.2041753942,
				"z": 3.3249886207,
				"element": "C" 
			},
			{
				"x": -2.7477549199,
				"y": 0.0848877886,
				"z": 4.0949207926,
				"element": "O" 
			},
			{
				"x": -3.6502918059,
				"y": 2.0745225568,
				"z": 3.6768334257,
				"element": "O" 
			},
			{
				"x": 1.8696037046,
				"y": -3.0275624805,
				"z": -1.4717466241,
				"element": "H" 
			},
			{
				"x": 1.1803538244,
				"y": -2.432946958,
				"z": 0.0502138112,
				"element": "H" 
			},
			{
				"x": 2.9053671593,
				"y": -2.2550742244,
				"z": -0.2707788433,
				"element": "H" 
			},
			{
				"x": 1.8148762245,
				"y": -0.0888411964,
				"z": -0.5944548663,
				"element": "H" 
			},
			{
				"x": 3.7167216868,
				"y": -0.5620529583,
				"z": -2.0750966622,
				"element": "H" 
			},
			{
				"x": 2.5318664391,
				"y": 0.417933797,
				"z": -2.9471661151,
				"element": "H" 
			},
			{
				"x": 2.6673833329,
				"y": -1.316348081,
				"z": -3.2750710101,
				"element": "H" 
			},
			{
				"x": 0.1644766058,
				"y": 0.3222153475,
				"z": -2.3809579334,
				"element": "H" 
			},
			{
				"x": -0.2926928946,
				"y": -2.7040512197,
				"z": -2.4643297254,
				"element": "H" 
			},
			{
				"x": 0.4490830732,
				"y": -1.7546436514,
				"z": -3.7558766418,
				"element": "H" 
			},
			{
				"x": -1.2338643685,
				"y": -1.4536115285,
				"z": -3.2909317266,
				"element": "H" 
			},
			{
				"x": -1.06275943,
				"y": -1.5427220872,
				"z": -0.4843255894,
				"element": "H" 
			},
			{
				"x": -3.3289093412,
				"y": -1.0906666057,
				"z": 2.0895773934,
				"element": "H" 
			},
			{
				"x": -3.0602546708,
				"y": -1.3301541446,
				"z": 0.3667681235,
				"element": "H" 
			},
			{
				"x": -1.8893520579,
				"y": -1.9460259485,
				"z": 1.5320062589,
				"element": "H" 
			},
			{
				"x": -1.639148819,
				"y": 3.3503477894,
				"z": 2.5691224057,
				"element": "H" 
			},
			{
				"x": -0.0913464835,
				"y": 3.6683964663,
				"z": 0.6301467465,
				"element": "H" 
			},
			{
				"x": 0.3533535809,
				"y": 1.8111448346,
				"z": -0.9088607283,
				"element": "H" 
			},
			{
				"x": -2.011413444,
				"y": -0.4426279193,
				"z": 3.7546768872,
				"element": "H" 
			}
		],
		 "valence_orbital": [ 
			{
				"type": "occ",
				"energy": -0.30861,
				"method": "rhf"
			},
			{
				"type": "occ",
				"energy": -0.29634,
				"method": "rhf"
			},
			{
				"type": "occ",
				"energy": -0.26684,
				"method": "rhf"
			},
			{
				"type": "occ",
				"energy": -0.24834,
				"method": "rhf"
			},
			{
				"type": "occ",
				"energy": -0.20133,
				"method": "rhf"
			},
			{
				"type": "unocc",
				"energy": -0.03002,
				"method": "rhf"
			},
			{
				"type": "unocc",
				"energy": 0.00524,
				"method": "rhf"
			},
			{
				"type": "unocc",
				"energy": 0.04508,
				"method": "rhf"
			},
			{
				"type": "unocc",
				"energy": 0.05889,
				"method": "rhf"
			},
			{
				"type": "unocc",
				"energy": 0.0711,
				"method": "rhf"
			}
		],
		"cosmo_sigma_profile": { 
			"-0.025": 0.0,
			"-0.024": 0.0,
			"-0.023": 0.0,
			"-0.022": 0.0,
			"-0.021": 0.0,
			"-0.02": 0.0,
			"-0.019": 0.0,
			"-0.018": 0.152872292941,
			"-0.017": 0.551435832898,
			"-0.016": 0.990341214152,
			"-0.015": 0.422890770588,
			"-0.014": 0.874217502125,
			"-0.013": 0.740287281487,
			"-0.012": 0.912003400568,
			"-0.011": 1.37663691605,
			"-0.01": 1.70234174486,
			"-0.009": 2.25858930169,
			"-0.008": 2.97258190432,
			"-0.007": 3.4985712071,
			"-0.006": 5.86537896062,
			"-0.005": 12.7165866885,
			"-0.004": 17.1304014001,
			"-0.003": 26.6989252608,
			"-0.002": 32.7898606909,
			"-0.001": 33.2862879382,
			"0.0": 29.3621229414,
			"0.001": 27.4338177742,
			"0.002": 16.8335024772,
			"0.003": 7.66678189409,
			"0.004": 8.88353851424,
			"0.005": 10.8673132001,
			"0.006": 8.39954253251,
			"0.007": 3.45119216351,
			"0.008": 3.27439044739,
			"0.009": 3.79405421151,
			"0.01": 4.12598082946,
			"0.011": 5.9201907668,
			"0.012": 5.28633578077,
			"0.013": 2.3090282119,
			"0.014": 0.0670536401742,
			"0.015": 0.0,
			"0.016": 0.0,
			"0.017": 0.0,
			"0.018": 0.0,
			"0.019": 0.0,
			"0.02": 0.0,
			"0.021": 0.0,
			"0.022": 0.0,
			"0.023": 0.0,
			"0.024": 0.0,
			"0.025": 0.0
		}
	}
}
