{
	 "smiles": "OC(=O)C(CC1=CC=C(O)C=C1)NC(=O)CCl", 
	 "Tm": 427.15, 
	 "num_atms": 29, 
	 "gaussian": { 
		 "optdone": 1, 
		 "sigma_profile": "yes", 
		 "theory": "DFT", 
		 "functional": "B3LYP", 
		 "basiset": "6-31G**", 
		 "properties": { 
			 "R2extent": 5826.0978, 
			 "electric_dipole_moment_norm": 5.07357543651, 
			 "electric_quadrupole_moment_norm": 17.3082133416, 
			 "total_energy": -1242.25839364, 
			 "HOMO_LUMO_gap": 0.19661, 
			 "cosmo_polarized_energy": -22.22, 
			 "cosmo_cavitation_energy": 35.17, 
			 "cosmo_dispersion_energy": -24.41, 
			 "cosmo_repulsion_energy": 1.94, 
			 "cosmo_total_nonelectrostatic_energy": 12.7, 
			 "SMD_solvation_energy": 7.15 
		},
		"coords": [
			{
				"x": 3.1897917329,
				"y": -0.0717452314,
				"z": 0.2533002135,
				"element": "O" 
			},
			{
				"x": 2.0903549076,
				"y": -0.731583398,
				"z": -0.1580916802,
				"element": "C" 
			},
			{
				"x": 1.8742034882,
				"y": -1.8923678829,
				"z": 0.1239722155,
				"element": "O" 
			},
			{
				"x": 1.2045198196,
				"y": 0.1485717532,
				"z": -1.0513519052,
				"element": "C" 
			},
			{
				"x": -0.2985255328,
				"y": -0.0806287143,
				"z": -0.7835050571,
				"element": "C" 
			},
			{
				"x": -0.7078219196,
				"y": 0.3802775053,
				"z": 0.6008553897,
				"element": "C" 
			},
			{
				"x": -0.7477916167,
				"y": -0.5084255211,
				"z": 1.682111686,
				"element": "C" 
			},
			{
				"x": -1.1071409932,
				"y": -0.0768111151,
				"z": 2.9591096522,
				"element": "C" 
			},
			{
				"x": -1.4344838688,
				"y": 1.2650709913,
				"z": 3.1768609452,
				"element": "C" 
			},
			{
				"x": -1.7965815615,
				"y": 1.7508545271,
				"z": 4.4007310593,
				"element": "O" 
			},
			{
				"x": -1.4005927752,
				"y": 2.1687837921,
				"z": 2.1083507914,
				"element": "C" 
			},
			{
				"x": -1.0412070541,
				"y": 1.7226440567,
				"z": 0.8407524678,
				"element": "C" 
			},
			{
				"x": 1.6204703803,
				"y": 0.0142955927,
				"z": -2.4539952583,
				"element": "N" 
			},
			{
				"x": 1.6061110457,
				"y": -1.0391210042,
				"z": -3.342043578,
				"element": "C" 
			},
			{
				"x": 2.117400641,
				"y": -0.9191896131,
				"z": -4.444800835,
				"element": "O" 
			},
			{
				"x": 0.9424677792,
				"y": -2.3531725067,
				"z": -2.9358869611,
				"element": "C" 
			},
			{
				"x": -0.7850628707,
				"y": -2.3913881896,
				"z": -3.4975258281,
				"element": "Cl" 
			},
			{
				"x": 3.7191931908,
				"y": -0.7021535915,
				"z": 0.772084812,
				"element": "H" 
			},
			{
				"x": 1.4366654687,
				"y": 1.1837838393,
				"z": -0.7909401679,
				"element": "H" 
			},
			{
				"x": -0.8479761044,
				"y": 0.4746560414,
				"z": -1.5501281597,
				"element": "H" 
			},
			{
				"x": -0.5468691356,
				"y": -1.135188029,
				"z": -0.9160037648,
				"element": "H" 
			},
			{
				"x": -0.4908497401,
				"y": -1.5519444828,
				"z": 1.525549839,
				"element": "H" 
			},
			{
				"x": -1.1368575228,
				"y": -0.7855530157,
				"z": 3.7843537175,
				"element": "H" 
			},
			{
				"x": -1.7926246973,
				"y": 1.0288771741,
				"z": 5.0425115604,
				"element": "H" 
			},
			{
				"x": -1.6653704799,
				"y": 3.2053480727,
				"z": 2.2888646824,
				"element": "H" 
			},
			{
				"x": -1.0310994998,
				"y": 2.4323228316,
				"z": 0.0162806244,
				"element": "H" 
			},
			{
				"x": 2.1136510154,
				"y": 0.8058579026,
				"z": -2.8470859449,
				"element": "H" 
			},
			{
				"x": 0.9462923095,
				"y": -2.5428685444,
				"z": -1.8643456366,
				"element": "H" 
			},
			{
				"x": 1.4567335938,
				"y": -3.1501032405,
				"z": -3.4697848796,
				"element": "H" 
			}
		],
		 "valence_orbital": [ 
			{
				"type": "occ",
				"energy": -0.29941,
				"method": "rhf"
			},
			{
				"type": "occ",
				"energy": -0.26509,
				"method": "rhf"
			},
			{
				"type": "occ",
				"energy": -0.26038,
				"method": "rhf"
			},
			{
				"type": "occ",
				"energy": -0.25908,
				"method": "rhf"
			},
			{
				"type": "occ",
				"energy": -0.22512,
				"method": "rhf"
			},
			{
				"type": "unocc",
				"energy": -0.02851,
				"method": "rhf"
			},
			{
				"type": "unocc",
				"energy": -0.01942,
				"method": "rhf"
			},
			{
				"type": "unocc",
				"energy": -0.00905,
				"method": "rhf"
			},
			{
				"type": "unocc",
				"energy": 0.00342,
				"method": "rhf"
			},
			{
				"type": "unocc",
				"energy": 0.05981,
				"method": "rhf"
			}
		],
		"cosmo_sigma_profile": { 
			"-0.025": 0.0,
			"-0.024": 0.0,
			"-0.023": 0.0,
			"-0.022": 0.0,
			"-0.021": 0.0,
			"-0.02": 0.0,
			"-0.019": 0.35200313271,
			"-0.018": 1.23440839525,
			"-0.017": 2.15139916201,
			"-0.016": 1.90415958606,
			"-0.015": 3.20862647478,
			"-0.014": 2.52009389743,
			"-0.013": 2.45256891359,
			"-0.012": 2.97753202805,
			"-0.011": 2.88673332752,
			"-0.01": 2.76384537238,
			"-0.009": 3.70246948346,
			"-0.008": 5.88996055948,
			"-0.007": 5.95503833333,
			"-0.006": 11.687314219,
			"-0.005": 15.3844157707,
			"-0.004": 17.7614508761,
			"-0.003": 15.2625701963,
			"-0.002": 13.7795973343,
			"-0.001": 14.6848844964,
			"0.0": 14.9686926473,
			"0.001": 14.7015489014,
			"0.002": 15.4063291672,
			"0.003": 18.3834826223,
			"0.004": 20.6869808724,
			"0.005": 21.2577101702,
			"0.006": 12.0054972679,
			"0.007": 5.61473751004,
			"0.008": 4.6713015682,
			"0.009": 4.56788394318,
			"0.01": 5.15205214579,
			"0.011": 5.83787940209,
			"0.012": 5.1326068168,
			"0.013": 4.73076622221,
			"0.014": 0.793706012075,
			"0.015": 0.0,
			"0.016": 0.0,
			"0.017": 0.0,
			"0.018": 0.0,
			"0.019": 0.0,
			"0.02": 0.0,
			"0.021": 0.0,
			"0.022": 0.0,
			"0.023": 0.0,
			"0.024": 0.0,
			"0.025": 0.0
		}
	}
}
