{
	 "smiles": "[O-][N+](=O)C1=CC=C(C=C1)C1=NN(C(=O)C1C(Br)C1(Br)C(=O)N(N=C1C1=CC=C(C=C1)[N+]([O-])=O)C1=CC=CC=C1)C1=CC=CC=C1", 
	 "Tm": 582.15, 
	 "num_atms": 65, 
	 "gaussian": { 
		 "optdone": 1, 
		 "sigma_profile": "yes", 
		 "theory": "DFT", 
		 "functional": "B3LYP", 
		 "basiset": "6-31G**", 
		 "properties": { 
			 "R2extent": 28594.7065, 
			 "electric_dipole_moment_norm": 5.6289780831, 
			 "electric_quadrupole_moment_norm": 36.3934663069, 
			 "total_energy": -7115.76215433, 
			 "HOMO_LUMO_gap": 0.11261, 
			 "cosmo_polarized_energy": -26.97, 
			 "cosmo_cavitation_energy": 73.97, 
			 "cosmo_dispersion_energy": -45.73, 
			 "cosmo_repulsion_energy": 3.35, 
			 "cosmo_total_nonelectrostatic_energy": 31.59, 
			 "SMD_solvation_energy": 14.41 
		},
		"coords": [
			{
				"x": -7.0202514072,
				"y": 2.8129089732,
				"z": -2.9689335177,
				"element": "O" 
			},
			{
				"x": -6.767074993,
				"y": 1.6517524846,
				"z": -2.6507683985,
				"element": "N" 
			},
			{
				"x": -7.6062500481,
				"y": 0.7722783408,
				"z": -2.4643942336,
				"element": "O" 
			},
			{
				"x": -5.3508316553,
				"y": 1.286395875,
				"z": -2.4814175727,
				"element": "C" 
			},
			{
				"x": -5.0278034958,
				"y": -0.0190833062,
				"z": -2.106425334,
				"element": "C" 
			},
			{
				"x": -3.6920629415,
				"y": -0.3573377489,
				"z": -1.9466539172,
				"element": "C" 
			},
			{
				"x": -2.6774810859,
				"y": 0.5972306689,
				"z": -2.1636785136,
				"element": "C" 
			},
			{
				"x": -3.0362799448,
				"y": 1.9048706968,
				"z": -2.5400379349,
				"element": "C" 
			},
			{
				"x": -4.3745650818,
				"y": 2.2537430024,
				"z": -2.6995347796,
				"element": "C" 
			},
			{
				"x": -1.2690499001,
				"y": 0.2136819885,
				"z": -2.0142616601,
				"element": "C" 
			},
			{
				"x": -0.9166476329,
				"y": -1.0316133769,
				"z": -1.9927852262,
				"element": "N" 
			},
			{
				"x": 0.4586605492,
				"y": -1.1216701331,
				"z": -1.8661630077,
				"element": "N" 
			},
			{
				"x": 1.0693742667,
				"y": 0.1265009746,
				"z": -1.8043118497,
				"element": "C" 
			},
			{
				"x": 2.2585660602,
				"y": 0.3694847386,
				"z": -1.7051317067,
				"element": "O" 
			},
			{
				"x": -0.0735347338,
				"y": 1.1410143199,
				"z": -1.9426968241,
				"element": "C" 
			},
			{
				"x": -0.1536567448,
				"y": 2.2918499943,
				"z": -0.8903981498,
				"element": "C" 
			},
			{
				"x": 0.1014988946,
				"y": 4.0377317139,
				"z": -1.8142368434,
				"element": "Br" 
			},
			{
				"x": 0.7298624073,
				"y": 2.1695253556,
				"z": 0.3652823201,
				"element": "C" 
			},
			{
				"x": 0.1803885409,
				"y": 3.5912287513,
				"z": 1.6768228176,
				"element": "Br" 
			},
			{
				"x": 2.2654719012,
				"y": 2.3798684759,
				"z": 0.2193998481,
				"element": "C" 
			},
			{
				"x": 2.8385392806,
				"y": 3.2840562214,
				"z": -0.3378888936,
				"element": "O" 
			},
			{
				"x": 2.8258580016,
				"y": 1.3260195256,
				"z": 0.9464043221,
				"element": "N" 
			},
			{
				"x": 1.8869332089,
				"y": 0.4483051284,
				"z": 1.4094084769,
				"element": "N" 
			},
			{
				"x": 0.6912176467,
				"y": 0.850196299,
				"z": 1.1036681627,
				"element": "C" 
			},
			{
				"x": -0.4769187308,
				"y": 0.037332934,
				"z": 1.4742283173,
				"element": "C" 
			},
			{
				"x": -1.7624881093,
				"y": 0.5922342446,
				"z": 1.6150380833,
				"element": "C" 
			},
			{
				"x": -2.8466088137,
				"y": -0.2077940311,
				"z": 1.9622393964,
				"element": "C" 
			},
			{
				"x": -2.6382903249,
				"y": -1.5681802946,
				"z": 2.1729241379,
				"element": "C" 
			},
			{
				"x": -1.3746642162,
				"y": -2.1475623154,
				"z": 2.0521128217,
				"element": "C" 
			},
			{
				"x": -0.3002579449,
				"y": -1.3430306408,
				"z": 1.7009586667,
				"element": "C" 
			},
			{
				"x": -3.7839560107,
				"y": -2.4189509261,
				"z": 2.5294836476,
				"element": "N" 
			},
			{
				"x": -4.8886992614,
				"y": -1.8825156372,
				"z": 2.6087963771,
				"element": "O" 
			},
			{
				"x": -3.5663309552,
				"y": -3.6144494621,
				"z": 2.722952616,
				"element": "O" 
			},
			{
				"x": 4.2038505073,
				"y": 1.06211845,
				"z": 1.1932792994,
				"element": "C" 
			},
			{
				"x": 4.5465657219,
				"y": 0.0905616528,
				"z": 2.1436376465,
				"element": "C" 
			},
			{
				"x": 5.8892089094,
				"y": -0.1788810786,
				"z": 2.39725171,
				"element": "C" 
			},
			{
				"x": 6.8938622294,
				"y": 0.5132639022,
				"z": 1.7183736976,
				"element": "C" 
			},
			{
				"x": 6.5408684404,
				"y": 1.4799617913,
				"z": 0.7768206669,
				"element": "C" 
			},
			{
				"x": 5.2025466617,
				"y": 1.7624277197,
				"z": 0.503391928,
				"element": "C" 
			},
			{
				"x": 1.0624388511,
				"y": -2.4119110341,
				"z": -1.8125353833,
				"element": "C" 
			},
			{
				"x": 0.2684260309,
				"y": -3.5435334214,
				"z": -2.0470403458,
				"element": "C" 
			},
			{
				"x": 0.8439619694,
				"y": -4.8106639192,
				"z": -1.9911533345,
				"element": "C" 
			},
			{
				"x": 2.2021025518,
				"y": -4.9641475733,
				"z": -1.7065888508,
				"element": "C" 
			},
			{
				"x": 2.9833814384,
				"y": -3.8317604436,
				"z": -1.4768682968,
				"element": "C" 
			},
			{
				"x": 2.4284357677,
				"y": -2.5526884183,
				"z": -1.5258630424,
				"element": "C" 
			},
			{
				"x": -5.8210121975,
				"y": -0.7375914544,
				"z": -1.9420752674,
				"element": "H" 
			},
			{
				"x": -3.4148868872,
				"y": -1.361976815,
				"z": -1.6491647582,
				"element": "H" 
			},
			{
				"x": -2.2747407723,
				"y": 2.6569624723,
				"z": -2.721021869,
				"element": "H" 
			},
			{
				"x": -4.6694159146,
				"y": 3.2534598064,
				"z": -2.9924315164,
				"element": "H" 
			},
			{
				"x": 0.0700644722,
				"y": 1.6032811266,
				"z": -2.925994204,
				"element": "H" 
			},
			{
				"x": -1.183737391,
				"y": 2.3623741644,
				"z": -0.5502217118,
				"element": "H" 
			},
			{
				"x": -1.9132597259,
				"y": 1.6585266432,
				"z": 1.4955105515,
				"element": "H" 
			},
			{
				"x": -3.8407718532,
				"y": 0.2043009967,
				"z": 2.0802851625,
				"element": "H" 
			},
			{
				"x": -1.2569056315,
				"y": -3.2104272575,
				"z": 2.2213333528,
				"element": "H" 
			},
			{
				"x": 0.6868103263,
				"y": -1.7743979452,
				"z": 1.5823758639,
				"element": "H" 
			},
			{
				"x": 3.7652528033,
				"y": -0.4422145622,
				"z": 2.6704158123,
				"element": "H" 
			},
			{
				"x": 6.1475023517,
				"y": -0.9326330929,
				"z": 3.1352732917,
				"element": "H" 
			},
			{
				"x": 7.9390602923,
				"y": 0.3018899458,
				"z": 1.9223531621,
				"element": "H" 
			},
			{
				"x": 7.3118255368,
				"y": 2.0245196889,
				"z": 0.2397938594,
				"element": "H" 
			},
			{
				"x": 4.9343967592,
				"y": 2.5114228481,
				"z": -0.2276985542,
				"element": "H" 
			},
			{
				"x": -0.7836802348,
				"y": -3.4224043823,
				"z": -2.2686587829,
				"element": "H" 
			},
			{
				"x": 0.2221967399,
				"y": -5.6819685003,
				"z": -2.1744482693,
				"element": "H" 
			},
			{
				"x": 2.6453229024,
				"y": -5.9543300059,
				"z": -1.6661188534,
				"element": "H" 
			},
			{
				"x": 4.0414248387,
				"y": -3.9349971546,
				"z": -1.2551489069,
				"element": "H" 
			},
			{
				"x": 3.0407377802,
				"y": -1.6795669843,
				"z": -1.3516657062,
				"element": "H" 
			}
		],
		 "valence_orbital": [ 
			{
				"type": "occ",
				"energy": -0.27697,
				"method": "rhf"
			},
			{
				"type": "occ",
				"energy": -0.26675,
				"method": "rhf"
			},
			{
				"type": "occ",
				"energy": -0.26078,
				"method": "rhf"
			},
			{
				"type": "occ",
				"energy": -0.23788,
				"method": "rhf"
			},
			{
				"type": "occ",
				"energy": -0.22946,
				"method": "rhf"
			},
			{
				"type": "unocc",
				"energy": -0.11685,
				"method": "rhf"
			},
			{
				"type": "unocc",
				"energy": -0.11302,
				"method": "rhf"
			},
			{
				"type": "unocc",
				"energy": -0.09296,
				"method": "rhf"
			},
			{
				"type": "unocc",
				"energy": -0.07302,
				"method": "rhf"
			},
			{
				"type": "unocc",
				"energy": -0.04766,
				"method": "rhf"
			}
		],
		"cosmo_sigma_profile": { 
			"-0.025": 0.0,
			"-0.024": 0.0,
			"-0.023": 0.0,
			"-0.022": 0.0,
			"-0.021": 0.0,
			"-0.02": 0.0,
			"-0.019": 0.0,
			"-0.018": 0.0,
			"-0.017": 0.0,
			"-0.016": 0.0,
			"-0.015": 0.0,
			"-0.014": 0.0,
			"-0.013": 0.138819726033,
			"-0.012": 1.95620881978,
			"-0.011": 2.86686582616,
			"-0.01": 3.55444641979,
			"-0.009": 4.11646103088,
			"-0.008": 8.18378751006,
			"-0.007": 16.4662877726,
			"-0.006": 29.5648151808,
			"-0.005": 35.4389922763,
			"-0.004": 41.4415301124,
			"-0.003": 38.5157004516,
			"-0.002": 43.7459636474,
			"-0.001": 51.8012261171,
			"0.0": 59.8393926641,
			"0.001": 48.7129617026,
			"0.002": 40.06164504,
			"0.003": 37.5901953665,
			"0.004": 36.8389580723,
			"0.005": 27.5475234192,
			"0.006": 11.7915616865,
			"0.007": 22.4109779948,
			"0.008": 17.7298405451,
			"0.009": 12.5171416331,
			"0.01": 8.55179345674,
			"0.011": 0.954358189258,
			"0.012": 0.0,
			"0.013": 0.0,
			"0.014": 0.0,
			"0.015": 0.0,
			"0.016": 0.0,
			"0.017": 0.0,
			"0.018": 0.0,
			"0.019": 0.0,
			"0.02": 0.0,
			"0.021": 0.0,
			"0.022": 0.0,
			"0.023": 0.0,
			"0.024": 0.0,
			"0.025": 0.0
		}
	}
}
