{
	 "smiles": "NC1CCCCC1N", 
	 "Tm": 315.65, 
	 "num_atms": 22, 
	 "gaussian": { 
		 "optdone": 1, 
		 "sigma_profile": "yes", 
		 "theory": "DFT", 
		 "functional": "B3LYP", 
		 "basiset": "6-31G**", 
		 "properties": { 
			 "R2extent": 1389.2005, 
			 "electric_dipole_moment_norm": 1.77224190505, 
			 "electric_quadrupole_moment_norm": 6.82891429731, 
			 "total_energy": -346.579317778, 
			 "HOMO_LUMO_gap": 0.291, 
			 "cosmo_polarized_energy": -7.79, 
			 "cosmo_cavitation_energy": 22.11, 
			 "cosmo_dispersion_energy": -16.65, 
			 "cosmo_repulsion_energy": 1.39, 
			 "cosmo_total_nonelectrostatic_energy": 6.85, 
			 "SMD_solvation_energy": 1.24 
		},
		"coords": [
			{
				"x": -0.1105133122,
				"y": -1.9652014441,
				"z": 1.3459274458,
				"element": "N" 
			},
			{
				"x": 0.8199766661,
				"y": -1.0045738493,
				"z": 0.7293384508,
				"element": "C" 
			},
			{
				"x": 0.2560856464,
				"y": 0.4248096769,
				"z": 0.4866557845,
				"element": "C" 
			},
			{
				"x": -0.2576303006,
				"y": 0.6086650615,
				"z": -0.9474382758,
				"element": "C" 
			},
			{
				"x": 0.8909360567,
				"y": 0.4355084205,
				"z": -1.9709093547,
				"element": "C" 
			},
			{
				"x": 1.965581246,
				"y": -0.5644016106,
				"z": -1.4800317634,
				"element": "C" 
			},
			{
				"x": 1.3549779795,
				"y": -1.6379403612,
				"z": -0.5738990928,
				"element": "C" 
			},
			{
				"x": 2.3418764564,
				"y": -2.6606333257,
				"z": -0.2197777085,
				"element": "N" 
			},
			{
				"x": -0.9710775862,
				"y": -2.0073353582,
				"z": 0.8013999178,
				"element": "H" 
			},
			{
				"x": -0.3776101017,
				"y": -1.6458045699,
				"z": 2.2744664921,
				"element": "H" 
			},
			{
				"x": 1.6780129258,
				"y": -0.9297773865,
				"z": 1.4084988879,
				"element": "H" 
			},
			{
				"x": -0.5372646472,
				"y": 0.6279763615,
				"z": 1.216848253,
				"element": "H" 
			},
			{
				"x": 1.0435542793,
				"y": 1.1659644428,
				"z": 0.6772039648,
				"element": "H" 
			},
			{
				"x": -0.7292455176,
				"y": 1.5904929396,
				"z": -1.0669523487,
				"element": "H" 
			},
			{
				"x": -1.0462863617,
				"y": -0.1298008029,
				"z": -1.1445459033,
				"element": "H" 
			},
			{
				"x": 1.3632005509,
				"y": 1.405397704,
				"z": -2.165959165,
				"element": "H" 
			},
			{
				"x": 0.4746395102,
				"y": 0.1010232523,
				"z": -2.9285651784,
				"element": "H" 
			},
			{
				"x": 2.752549441,
				"y": -0.0492966137,
				"z": -0.9155500985,
				"element": "H" 
			},
			{
				"x": 2.4655262681,
				"y": -1.0347378285,
				"z": -2.3353699498,
				"element": "H" 
			},
			{
				"x": 0.4811783224,
				"y": -2.0655444401,
				"z": -1.1059494287,
				"element": "H" 
			},
			{
				"x": 1.9048944135,
				"y": -3.2889244967,
				"z": 0.4528654776,
				"element": "H" 
			},
			{
				"x": 2.5691380646,
				"y": -3.2218657717,
				"z": -1.0379564069,
				"element": "H" 
			}
		],
		 "valence_orbital": [ 
			{
				"type": "occ",
				"energy": -0.31255,
				"method": "rhf"
			},
			{
				"type": "occ",
				"energy": -0.30566,
				"method": "rhf"
			},
			{
				"type": "occ",
				"energy": -0.2932,
				"method": "rhf"
			},
			{
				"type": "occ",
				"energy": -0.23795,
				"method": "rhf"
			},
			{
				"type": "occ",
				"energy": -0.21774,
				"method": "rhf"
			},
			{
				"type": "unocc",
				"energy": 0.07326,
				"method": "rhf"
			},
			{
				"type": "unocc",
				"energy": 0.0998,
				"method": "rhf"
			},
			{
				"type": "unocc",
				"energy": 0.10238,
				"method": "rhf"
			},
			{
				"type": "unocc",
				"energy": 0.11234,
				"method": "rhf"
			},
			{
				"type": "unocc",
				"energy": 0.13636,
				"method": "rhf"
			}
		],
		"cosmo_sigma_profile": { 
			"-0.025": 0.0,
			"-0.024": 0.0,
			"-0.023": 0.0,
			"-0.022": 0.0,
			"-0.021": 0.0,
			"-0.02": 0.0,
			"-0.019": 0.0,
			"-0.018": 0.0,
			"-0.017": 0.0,
			"-0.016": 0.0,
			"-0.015": 0.0,
			"-0.014": 0.0,
			"-0.013": 0.0,
			"-0.012": 0.0,
			"-0.011": 0.0,
			"-0.01": 0.113275377228,
			"-0.009": 2.43227295396,
			"-0.008": 3.78296547117,
			"-0.007": 4.55205029816,
			"-0.006": 5.68905269987,
			"-0.005": 6.28993556712,
			"-0.004": 6.36055342218,
			"-0.003": 9.24472034889,
			"-0.002": 21.7210115954,
			"-0.001": 28.2848549404,
			"0.0": 25.8894963602,
			"0.001": 18.8746237372,
			"0.002": 9.11949845472,
			"0.003": 2.42809011572,
			"0.004": 2.31458316116,
			"0.005": 2.2022457692,
			"0.006": 2.16415684119,
			"0.007": 2.30635023902,
			"0.008": 1.35673515244,
			"0.009": 1.79632282256,
			"0.01": 1.75924906042,
			"0.011": 1.11170924066,
			"0.012": 1.65551585194,
			"0.013": 0.631789712091,
			"0.014": 1.238537838,
			"0.015": 1.51938294316,
			"0.016": 1.41523233726,
			"0.017": 0.296110121422,
			"0.018": 0.346945872496,
			"0.019": 0.579246865793,
			"0.02": 0.690984906903,
			"0.021": 0.0,
			"0.022": 0.0,
			"0.023": 0.0,
			"0.024": 0.0,
			"0.025": 0.0
		}
	}
}
