{
	 "smiles": "BrC=CC1=CC=CC=C1", 
	 "Tm": 280.15, 
	 "num_atms": 16, 
	 "gaussian": { 
		 "optdone": 1, 
		 "sigma_profile": "yes", 
		 "theory": "DFT", 
		 "functional": "B3LYP", 
		 "basiset": "6-31G**", 
		 "properties": { 
			 "R2extent": 3312.0979, 
			 "electric_dipole_moment_norm": 1.93049038589, 
			 "electric_quadrupole_moment_norm": 6.07532213961, 
			 "total_energy": -2880.45634908, 
			 "HOMO_LUMO_gap": 0.17956, 
			 "cosmo_polarized_energy": -4.97, 
			 "cosmo_cavitation_energy": 22.53, 
			 "cosmo_dispersion_energy": -17.13, 
			 "cosmo_repulsion_energy": 1.4, 
			 "cosmo_total_nonelectrostatic_energy": 6.79, 
			 "SMD_solvation_energy": 3.02 
		},
		"coords": [
			{
				"x": -0.7366763015,
				"y": 3.6329028417,
				"z": 1.7807777095,
				"element": "Br" 
			},
			{
				"x": -0.787373005,
				"y": 2.3318285851,
				"z": 0.394172842,
				"element": "C" 
			},
			{
				"x": -0.148292262,
				"y": 1.1613563253,
				"z": 0.4837966983,
				"element": "C" 
			},
			{
				"x": -0.1298265409,
				"y": 0.0981241994,
				"z": -0.5318078492,
				"element": "C" 
			},
			{
				"x": -0.8031712926,
				"y": 0.1875467115,
				"z": -1.765019169,
				"element": "C" 
			},
			{
				"x": -0.7462896124,
				"y": -0.8553504099,
				"z": -2.6841324993,
				"element": "C" 
			},
			{
				"x": -0.0168153046,
				"y": -2.0135946745,
				"z": -2.3974124478,
				"element": "C" 
			},
			{
				"x": 0.6561190976,
				"y": -2.1175926668,
				"z": -1.1799328379,
				"element": "C" 
			},
			{
				"x": 0.5992443641,
				"y": -1.0727495742,
				"z": -0.2588275475,
				"element": "C" 
			},
			{
				"x": -1.3836598901,
				"y": 2.6566774464,
				"z": -0.4482914131,
				"element": "H" 
			},
			{
				"x": 0.4191818743,
				"y": 0.9554417723,
				"z": 1.3884313193,
				"element": "H" 
			},
			{
				"x": -1.3755622859,
				"y": 1.0771574888,
				"z": -2.0096012954,
				"element": "H" 
			},
			{
				"x": -1.2732170113,
				"y": -0.7658244555,
				"z": -3.6298384709,
				"element": "H" 
			},
			{
				"x": 0.0248903896,
				"y": -2.8251923809,
				"z": -3.1177550208,
				"element": "H" 
			},
			{
				"x": 1.2261646635,
				"y": -3.0119808726,
				"z": -0.9455374625,
				"element": "H" 
			},
			{
				"x": 1.1255831172,
				"y": -1.1594503363,
				"z": 0.6882774442,
				"element": "H" 
			}
		],
		 "valence_orbital": [ 
			{
				"type": "occ",
				"energy": -0.33855,
				"method": "rhf"
			},
			{
				"type": "occ",
				"energy": -0.28549,
				"method": "rhf"
			},
			{
				"type": "occ",
				"energy": -0.28543,
				"method": "rhf"
			},
			{
				"type": "occ",
				"energy": -0.25786,
				"method": "rhf"
			},
			{
				"type": "occ",
				"energy": -0.22337,
				"method": "rhf"
			},
			{
				"type": "unocc",
				"energy": -0.04381,
				"method": "rhf"
			},
			{
				"type": "unocc",
				"energy": -0.00688,
				"method": "rhf"
			},
			{
				"type": "unocc",
				"energy": 0.01135,
				"method": "rhf"
			},
			{
				"type": "unocc",
				"energy": 0.04809,
				"method": "rhf"
			},
			{
				"type": "unocc",
				"energy": 0.09232,
				"method": "rhf"
			}
		],
		"cosmo_sigma_profile": { 
			"-0.025": 0.0,
			"-0.024": 0.0,
			"-0.023": 0.0,
			"-0.022": 0.0,
			"-0.021": 0.0,
			"-0.02": 0.0,
			"-0.019": 0.0,
			"-0.018": 0.0,
			"-0.017": 0.0,
			"-0.016": 0.0,
			"-0.015": 0.0,
			"-0.014": 0.0,
			"-0.013": 0.0,
			"-0.012": 0.0,
			"-0.011": 0.0,
			"-0.01": 0.0813505782589,
			"-0.009": 1.93990497134,
			"-0.008": 2.47428112062,
			"-0.007": 4.52014993559,
			"-0.006": 10.4020582625,
			"-0.005": 12.2040574865,
			"-0.004": 14.0894200029,
			"-0.003": 12.4601375755,
			"-0.002": 10.4012295421,
			"-0.001": 10.0110672957,
			"0.0": 11.6820079894,
			"0.001": 11.87841018,
			"0.002": 15.1402945978,
			"0.003": 20.8722601205,
			"0.004": 22.6358455167,
			"0.005": 20.9970441237,
			"0.006": 2.45145650299,
			"0.007": 0.0,
			"0.008": 0.0,
			"0.009": 0.0,
			"0.01": 0.0,
			"0.011": 0.0,
			"0.012": 0.0,
			"0.013": 0.0,
			"0.014": 0.0,
			"0.015": 0.0,
			"0.016": 0.0,
			"0.017": 0.0,
			"0.018": 0.0,
			"0.019": 0.0,
			"0.02": 0.0,
			"0.021": 0.0,
			"0.022": 0.0,
			"0.023": 0.0,
			"0.024": 0.0,
			"0.025": 0.0
		}
	}
}
