{
	 "smiles": "CC(C)(C)N(NC(=O)C1=CC=CC=C1)C(=O)C1=CC=C(Br)C=C1", 
	 "Tm": 501.15, 
	 "num_atms": 42, 
	 "gaussian": { 
		 "optdone": 1, 
		 "sigma_profile": "yes", 
		 "theory": "DFT", 
		 "functional": "B3LYP", 
		 "basiset": "6-31G**", 
		 "properties": { 
			 "R2extent": 16314.8736, 
			 "electric_dipole_moment_norm": 2.88723427176, 
			 "electric_quadrupole_moment_norm": 14.8455386777, 
			 "total_energy": -3528.71978301, 
			 "HOMO_LUMO_gap": 0.1937, 
			 "cosmo_polarized_energy": -14.73, 
			 "cosmo_cavitation_energy": 47.79, 
			 "cosmo_dispersion_energy": -31.94, 
			 "cosmo_repulsion_energy": 2.42, 
			 "cosmo_total_nonelectrostatic_energy": 18.27, 
			 "SMD_solvation_energy": 8.18 
		},
		"coords": [
			{
				"x": -2.291505305,
				"y": -2.1126412898,
				"z": 0.0128621056,
				"element": "C" 
			},
			{
				"x": -1.7389886607,
				"y": -0.687006257,
				"z": -0.1250669434,
				"element": "C" 
			},
			{
				"x": -1.3234260692,
				"y": -0.4585759682,
				"z": -1.593495961,
				"element": "C" 
			},
			{
				"x": -2.8291218272,
				"y": 0.3143773303,
				"z": 0.2867630058,
				"element": "C" 
			},
			{
				"x": -0.5335196061,
				"y": -0.4439247725,
				"z": 0.763723913,
				"element": "N" 
			},
			{
				"x": -0.0060825564,
				"y": 0.8486600583,
				"z": 0.5992309874,
				"element": "N" 
			},
			{
				"x": -0.0561437423,
				"y": 1.7084610386,
				"z": 1.6916410215,
				"element": "C" 
			},
			{
				"x": -0.881631373,
				"y": 1.5951823934,
				"z": 2.584919146,
				"element": "O" 
			},
			{
				"x": 0.929468103,
				"y": 2.8389908888,
				"z": 1.639086865,
				"element": "C" 
			},
			{
				"x": 0.5461623409,
				"y": 4.0673711674,
				"z": 2.1942270354,
				"element": "C" 
			},
			{
				"x": 1.4285649174,
				"y": 5.1446478077,
				"z": 2.189760509,
				"element": "C" 
			},
			{
				"x": 2.7095681043,
				"y": 4.997699783,
				"z": 1.649679612,
				"element": "C" 
			},
			{
				"x": 3.1073394021,
				"y": 3.7683824738,
				"z": 1.1212868801,
				"element": "C" 
			},
			{
				"x": 2.2211193469,
				"y": 2.690517522,
				"z": 1.1124810269,
				"element": "C" 
			},
			{
				"x": 0.4997329587,
				"y": -1.3782332295,
				"z": 0.9882509336,
				"element": "C" 
			},
			{
				"x": 1.6670967776,
				"y": -1.110368917,
				"z": 0.718805467,
				"element": "O" 
			},
			{
				"x": 0.1629865821,
				"y": -2.6334128555,
				"z": 1.7220815242,
				"element": "C" 
			},
			{
				"x": 0.8747418057,
				"y": -3.8064724965,
				"z": 1.4384977884,
				"element": "C" 
			},
			{
				"x": 0.6511504603,
				"y": -4.9640520441,
				"z": 2.1785027221,
				"element": "C" 
			},
			{
				"x": -0.2650706409,
				"y": -4.9287142813,
				"z": 3.23170103,
				"element": "C" 
			},
			{
				"x": -0.5682582441,
				"y": -6.5098591674,
				"z": 4.2580548433,
				"element": "Br" 
			},
			{
				"x": -0.9534429526,
				"y": -3.7603339974,
				"z": 3.5568588128,
				"element": "C" 
			},
			{
				"x": -0.7392877427,
				"y": -2.6128414141,
				"z": 2.7943798502,
				"element": "C" 
			},
			{
				"x": -3.1493595727,
				"y": -2.2017502161,
				"z": -0.6602273703,
				"element": "H" 
			},
			{
				"x": -1.5666251752,
				"y": -2.877921165,
				"z": -0.2747225825,
				"element": "H" 
			},
			{
				"x": -2.6368858023,
				"y": -2.3274811441,
				"z": 1.0251848071,
				"element": "H" 
			},
			{
				"x": -0.5485106873,
				"y": -1.1698551164,
				"z": -1.8995255186,
				"element": "H" 
			},
			{
				"x": -2.1867723246,
				"y": -0.5958757431,
				"z": -2.2519891157,
				"element": "H" 
			},
			{
				"x": -0.9463252855,
				"y": 0.5559019341,
				"z": -1.7444613073,
				"element": "H" 
			},
			{
				"x": -3.7233116497,
				"y": 0.1538985668,
				"z": -0.323993954,
				"element": "H" 
			},
			{
				"x": -3.0900849417,
				"y": 0.1911577756,
				"z": 1.3400768398,
				"element": "H" 
			},
			{
				"x": -2.4972717243,
				"y": 1.3441214161,
				"z": 0.1409046872,
				"element": "H" 
			},
			{
				"x": 0.8309623119,
				"y": 0.8706608352,
				"z": 0.0282680797,
				"element": "H" 
			},
			{
				"x": -0.4454781992,
				"y": 4.1541021355,
				"z": 2.6259364786,
				"element": "H" 
			},
			{
				"x": 1.1218444013,
				"y": 6.0975515779,
				"z": 2.6111426102,
				"element": "H" 
			},
			{
				"x": 3.3995661256,
				"y": 5.8366897321,
				"z": 1.6510715103,
				"element": "H" 
			},
			{
				"x": 4.1106016023,
				"y": 3.6443916446,
				"z": 0.7244010351,
				"element": "H" 
			},
			{
				"x": 2.5564857673,
				"y": 1.724681219,
				"z": 0.7433815951,
				"element": "H" 
			},
			{
				"x": 1.6048939761,
				"y": -3.8021360421,
				"z": 0.6357260163,
				"element": "H" 
			},
			{
				"x": 1.1852989195,
				"y": -5.8794873145,
				"z": 1.9516319644,
				"element": "H" 
			},
			{
				"x": -1.6398322017,
				"y": -3.7465940083,
				"z": 4.3956175427,
				"element": "H" 
			},
			{
				"x": -1.2453476191,
				"y": -1.6852098604,
				"z": 3.0425445069,
				"element": "H" 
			}
		],
		 "valence_orbital": [ 
			{
				"type": "occ",
				"energy": -0.26452,
				"method": "rhf"
			},
			{
				"type": "occ",
				"energy": -0.2601,
				"method": "rhf"
			},
			{
				"type": "occ",
				"energy": -0.25396,
				"method": "rhf"
			},
			{
				"type": "occ",
				"energy": -0.24802,
				"method": "rhf"
			},
			{
				"type": "occ",
				"energy": -0.24767,
				"method": "rhf"
			},
			{
				"type": "unocc",
				"energy": -0.05397,
				"method": "rhf"
			},
			{
				"type": "unocc",
				"energy": -0.03656,
				"method": "rhf"
			},
			{
				"type": "unocc",
				"energy": -0.02239,
				"method": "rhf"
			},
			{
				"type": "unocc",
				"energy": -0.00985,
				"method": "rhf"
			},
			{
				"type": "unocc",
				"energy": 0.00194,
				"method": "rhf"
			}
		],
		"cosmo_sigma_profile": { 
			"-0.025": 0.0,
			"-0.024": 0.0,
			"-0.023": 0.0,
			"-0.022": 0.0,
			"-0.021": 0.0,
			"-0.02": 0.0,
			"-0.019": 0.0,
			"-0.018": 0.0,
			"-0.017": 0.0,
			"-0.016": 0.0,
			"-0.015": 0.0,
			"-0.014": 0.0,
			"-0.013": 0.0,
			"-0.012": 0.0301882448637,
			"-0.011": 0.397521249551,
			"-0.01": 0.55869751858,
			"-0.009": 0.79516351089,
			"-0.008": 1.73264223575,
			"-0.007": 8.39687407209,
			"-0.006": 16.3633774283,
			"-0.005": 22.5714541645,
			"-0.004": 31.175422533,
			"-0.003": 30.1016398587,
			"-0.002": 34.006059321,
			"-0.001": 36.2526002441,
			"0.0": 41.4912075065,
			"0.001": 36.9989283009,
			"0.002": 32.0823482491,
			"0.003": 22.597779494,
			"0.004": 27.4691294551,
			"0.005": 8.46611066551,
			"0.006": 3.24499229038,
			"0.007": 3.05838867838,
			"0.008": 4.5781022349,
			"0.009": 3.8966226363,
			"0.01": 3.82926479452,
			"0.011": 4.14753969454,
			"0.012": 4.04555252841,
			"0.013": 3.50835994227,
			"0.014": 0.459333633916,
			"0.015": 0.0,
			"0.016": 0.0,
			"0.017": 0.0,
			"0.018": 0.0,
			"0.019": 0.0,
			"0.02": 0.0,
			"0.021": 0.0,
			"0.022": 0.0,
			"0.023": 0.0,
			"0.024": 0.0,
			"0.025": 0.0
		}
	}
}
