{
	 "smiles": "C1=CC=C(C=C1)C1=C(N=CC=N1)C1=CC=CC=C1", 
	 "Tm": 394.15, 
	 "num_atms": 30, 
	 "gaussian": { 
		 "optdone": 1, 
		 "sigma_profile": "yes", 
		 "theory": "DFT", 
		 "functional": "B3LYP", 
		 "basiset": "6-31G**", 
		 "properties": { 
			 "R2extent": 4492.6606, 
			 "electric_dipole_moment_norm": 0.720754805742, 
			 "electric_quadrupole_moment_norm": 7.93765446842, 
			 "total_energy": -726.432979549, 
			 "HOMO_LUMO_gap": 0.17202, 
			 "cosmo_polarized_energy": -8.65, 
			 "cosmo_cavitation_energy": 33.94, 
			 "cosmo_dispersion_energy": -24.13, 
			 "cosmo_repulsion_energy": 1.86, 
			 "cosmo_total_nonelectrostatic_energy": 11.67, 
			 "SMD_solvation_energy": 3.51 
		},
		"coords": [
			{
				"x": 3.1319529099,
				"y": 2.3707527369,
				"z": -1.4135427806,
				"element": "C" 
			},
			{
				"x": 2.0867887665,
				"y": 1.5745556224,
				"z": -1.8869177214,
				"element": "C" 
			},
			{
				"x": 0.9933812907,
				"y": 1.2919324247,
				"z": -1.070019815,
				"element": "C" 
			},
			{
				"x": 0.9258554721,
				"y": 1.8075578229,
				"z": 0.234377595,
				"element": "C" 
			},
			{
				"x": 1.9713353132,
				"y": 2.6250764425,
				"z": 0.6929530635,
				"element": "C" 
			},
			{
				"x": 3.0697166,
				"y": 2.895863141,
				"z": -0.1209768181,
				"element": "C" 
			},
			{
				"x": -0.259513168,
				"y": 1.5811467492,
				"z": 1.1069229125,
				"element": "C" 
			},
			{
				"x": -0.9879970324,
				"y": 0.3599727763,
				"z": 1.1936691588,
				"element": "C" 
			},
			{
				"x": -2.1734193109,
				"y": 0.3278701498,
				"z": 1.8279124608,
				"element": "N" 
			},
			{
				"x": -2.5875631761,
				"y": 1.4274329557,
				"z": 2.4555821911,
				"element": "C" 
			},
			{
				"x": -1.7923230225,
				"y": 2.5713800627,
				"z": 2.5070810753,
				"element": "C" 
			},
			{
				"x": -0.6558236203,
				"y": 2.6523058786,
				"z": 1.8169157779,
				"element": "N" 
			},
			{
				"x": -0.5220155468,
				"y": -0.9511841583,
				"z": 0.6631849097,
				"element": "C" 
			},
			{
				"x": 0.8170352145,
				"y": -1.359606439,
				"z": 0.7727295083,
				"element": "C" 
			},
			{
				"x": 1.2114403962,
				"y": -2.6194129781,
				"z": 0.3254501419,
				"element": "C" 
			},
			{
				"x": 0.2778050324,
				"y": -3.4886455408,
				"z": -0.2430059805,
				"element": "C" 
			},
			{
				"x": -1.0580870591,
				"y": -3.095273395,
				"z": -0.347890762,
				"element": "C" 
			},
			{
				"x": -1.4570205922,
				"y": -1.8410726149,
				"z": 0.1104495139,
				"element": "C" 
			},
			{
				"x": 3.985703621,
				"y": 2.5854009568,
				"z": -2.0499687091,
				"element": "H" 
			},
			{
				"x": 2.1195564889,
				"y": 1.1756421418,
				"z": -2.8966776008,
				"element": "H" 
			},
			{
				"x": 0.183508711,
				"y": 0.6780342579,
				"z": -1.4495492538,
				"element": "H" 
			},
			{
				"x": 1.9054861337,
				"y": 3.0475939321,
				"z": 1.6898467432,
				"element": "H" 
			},
			{
				"x": 3.8754933668,
				"y": 3.5214785087,
				"z": 0.2524293967,
				"element": "H" 
			},
			{
				"x": -3.559789636,
				"y": 1.3873838929,
				"z": 2.9426793541,
				"element": "H" 
			},
			{
				"x": -2.0829082385,
				"y": 3.4409915247,
				"z": 3.0931100393,
				"element": "H" 
			},
			{
				"x": 1.5486278917,
				"y": -0.6944456214,
				"z": 1.2189687926,
				"element": "H" 
			},
			{
				"x": 2.2492530851,
				"y": -2.9238600485,
				"z": 0.4258275441,
				"element": "H" 
			},
			{
				"x": 0.5883093674,
				"y": -4.4679804471,
				"z": -0.5958415695,
				"element": "H" 
			},
			{
				"x": -1.7917407967,
				"y": -3.7681066107,
				"z": -0.7828060999,
				"element": "H" 
			},
			{
				"x": -2.4967484615,
				"y": -1.537284124,
				"z": 0.0527069321,
				"element": "H" 
			}
		],
		 "valence_orbital": [ 
			{
				"type": "occ",
				"energy": -0.26157,
				"method": "rhf"
			},
			{
				"type": "occ",
				"energy": -0.25117,
				"method": "rhf"
			},
			{
				"type": "occ",
				"energy": -0.24686,
				"method": "rhf"
			},
			{
				"type": "occ",
				"energy": -0.24456,
				"method": "rhf"
			},
			{
				"type": "occ",
				"energy": -0.22271,
				"method": "rhf"
			},
			{
				"type": "unocc",
				"energy": -0.05069,
				"method": "rhf"
			},
			{
				"type": "unocc",
				"energy": -0.04838,
				"method": "rhf"
			},
			{
				"type": "unocc",
				"energy": -0.00719,
				"method": "rhf"
			},
			{
				"type": "unocc",
				"energy": 0.00463,
				"method": "rhf"
			},
			{
				"type": "unocc",
				"energy": 0.01021,
				"method": "rhf"
			}
		],
		"cosmo_sigma_profile": { 
			"-0.025": 0.0,
			"-0.024": 0.0,
			"-0.023": 0.0,
			"-0.022": 0.0,
			"-0.021": 0.0,
			"-0.02": 0.0,
			"-0.019": 0.0,
			"-0.018": 0.0,
			"-0.017": 0.0,
			"-0.016": 0.0,
			"-0.015": 0.0,
			"-0.014": 0.0,
			"-0.013": 0.0,
			"-0.012": 0.0,
			"-0.011": 0.0,
			"-0.01": 0.0,
			"-0.009": 0.0,
			"-0.008": 1.16273153504,
			"-0.007": 5.4750258279,
			"-0.006": 13.2335199821,
			"-0.005": 22.3456534429,
			"-0.004": 26.1684966515,
			"-0.003": 22.0158104807,
			"-0.002": 21.184911598,
			"-0.001": 21.5756362278,
			"0.0": 22.6948983758,
			"0.001": 18.7890757295,
			"0.002": 16.8258284763,
			"0.003": 18.8673175173,
			"0.004": 20.3672135128,
			"0.005": 22.0321059975,
			"0.006": 6.89021979714,
			"0.007": 2.19296080735,
			"0.008": 3.02774794159,
			"0.009": 2.07560443288,
			"0.01": 1.91293900419,
			"0.011": 1.59090128996,
			"0.012": 1.54138888093,
			"0.013": 1.1578804525,
			"0.014": 0.341779038388,
			"0.015": 0.0,
			"0.016": 0.0,
			"0.017": 0.0,
			"0.018": 0.0,
			"0.019": 0.0,
			"0.02": 0.0,
			"0.021": 0.0,
			"0.022": 0.0,
			"0.023": 0.0,
			"0.024": 0.0,
			"0.025": 0.0
		}
	}
}
