{
	 "smiles": "NC1=NC(=NS1)N1CCOCC1", 
	 "Tm": 461.15, 
	 "num_atms": 22, 
	 "gaussian": { 
		 "optdone": 1, 
		 "sigma_profile": "yes", 
		 "theory": "DFT", 
		 "functional": "B3LYP", 
		 "basiset": "6-31G**", 
		 "properties": { 
			 "R2extent": 3921.9929, 
			 "electric_dipole_moment_norm": 3.65352748039, 
			 "electric_quadrupole_moment_norm": 19.5154014563, 
			 "total_energy": -927.057681808, 
			 "HOMO_LUMO_gap": 0.19188, 
			 "cosmo_polarized_energy": -15.06, 
			 "cosmo_cavitation_energy": 26.22, 
			 "cosmo_dispersion_energy": -20.7, 
			 "cosmo_repulsion_energy": 1.63, 
			 "cosmo_total_nonelectrostatic_energy": 7.14, 
			 "SMD_solvation_energy": 0.95 
		},
		"coords": [
			{
				"x": -1.8973045365,
				"y": 3.1494087486,
				"z": 4.0032346776,
				"element": "N" 
			},
			{
				"x": -1.789957477,
				"y": 2.2208501715,
				"z": 3.0086447954,
				"element": "C" 
			},
			{
				"x": -0.8066197341,
				"y": 1.3652554465,
				"z": 2.9185176726,
				"element": "N" 
			},
			{
				"x": -0.9804161574,
				"y": 0.6167878773,
				"z": 1.7672081797,
				"element": "C" 
			},
			{
				"x": -2.0171960716,
				"y": 0.8305037217,
				"z": 0.9724963051,
				"element": "N" 
			},
			{
				"x": -2.9202717346,
				"y": 2.0868062374,
				"z": 1.665829214,
				"element": "S" 
			},
			{
				"x": -0.0718504658,
				"y": -0.3598240559,
				"z": 1.4717511805,
				"element": "N" 
			},
			{
				"x": -0.2239062142,
				"y": -1.1290769026,
				"z": 0.2391540304,
				"element": "C" 
			},
			{
				"x": 0.7319787355,
				"y": -2.3167874435,
				"z": 0.2734801458,
				"element": "C" 
			},
			{
				"x": 2.0958627415,
				"y": -1.9346714753,
				"z": 0.4199533945,
				"element": "O" 
			},
			{
				"x": 2.316654373,
				"y": -0.8072767164,
				"z": 1.2689172239,
				"element": "C" 
			},
			{
				"x": 1.1614604649,
				"y": -0.5418342074,
				"z": 2.2313832456,
				"element": "C" 
			},
			{
				"x": -1.3101832433,
				"y": 2.9835733712,
				"z": 4.8086457403,
				"element": "H" 
			},
			{
				"x": -2.806244287,
				"y": 3.5389139976,
				"z": 4.2001393337,
				"element": "H" 
			},
			{
				"x": -0.0234104809,
				"y": -0.5013478749,
				"z": -0.6415110356,
				"element": "H" 
			},
			{
				"x": -1.2585362758,
				"y": -1.4785468812,
				"z": 0.1512799564,
				"element": "H" 
			},
			{
				"x": 0.6650829425,
				"y": -2.8721542511,
				"z": -0.6669088942,
				"element": "H" 
			},
			{
				"x": 0.4354758675,
				"y": -3.0003721384,
				"z": 1.0848805556,
				"element": "H" 
			},
			{
				"x": 2.4830784629,
				"y": 0.0887642742,
				"z": 0.65197297,
				"element": "H" 
			},
			{
				"x": 3.2355559855,
				"y": -1.0010748785,
				"z": 1.8347513115,
				"element": "H" 
			},
			{
				"x": 1.0679552727,
				"y": -1.3757331876,
				"z": 2.9431307488,
				"element": "H" 
			},
			{
				"x": 1.3568918322,
				"y": 0.3603361668,
				"z": 2.8132492485,
				"element": "H" 
			}
		],
		 "valence_orbital": [ 
			{
				"type": "occ",
				"energy": -0.28752,
				"method": "rhf"
			},
			{
				"type": "occ",
				"energy": -0.26699,
				"method": "rhf"
			},
			{
				"type": "occ",
				"energy": -0.25007,
				"method": "rhf"
			},
			{
				"type": "occ",
				"energy": -0.24456,
				"method": "rhf"
			},
			{
				"type": "occ",
				"energy": -0.19369,
				"method": "rhf"
			},
			{
				"type": "unocc",
				"energy": -0.00181,
				"method": "rhf"
			},
			{
				"type": "unocc",
				"energy": 0.00468,
				"method": "rhf"
			},
			{
				"type": "unocc",
				"energy": 0.06725,
				"method": "rhf"
			},
			{
				"type": "unocc",
				"energy": 0.08004,
				"method": "rhf"
			},
			{
				"type": "unocc",
				"energy": 0.09049,
				"method": "rhf"
			}
		],
		"cosmo_sigma_profile": { 
			"-0.025": 0.0,
			"-0.024": 0.0,
			"-0.023": 0.0,
			"-0.022": 0.0,
			"-0.021": 0.0,
			"-0.02": 0.0,
			"-0.019": 0.0,
			"-0.018": 0.0,
			"-0.017": 0.0,
			"-0.016": 0.15836696203,
			"-0.015": 1.72655694521,
			"-0.014": 2.61383864036,
			"-0.013": 3.47241502729,
			"-0.012": 2.74901738713,
			"-0.011": 1.82460129103,
			"-0.01": 1.62364869012,
			"-0.009": 2.61855905673,
			"-0.008": 2.22968176979,
			"-0.007": 1.0932621624,
			"-0.006": 2.55655529272,
			"-0.005": 12.6446072817,
			"-0.004": 25.5377409415,
			"-0.003": 19.2828251111,
			"-0.002": 14.2077185034,
			"-0.001": 10.3731573192,
			"0.0": 11.5594289627,
			"0.001": 13.1508124158,
			"0.002": 10.9636737788,
			"0.003": 11.5082918202,
			"0.004": 10.5917047272,
			"0.005": 9.46423836259,
			"0.006": 5.93842753392,
			"0.007": 6.08039437491,
			"0.008": 4.5644423089,
			"0.009": 4.20781754698,
			"0.01": 3.43305409412,
			"0.011": 4.01387482609,
			"0.012": 2.8172337539,
			"0.013": 3.13345302861,
			"0.014": 1.55179780698,
			"0.015": 0.953081732967,
			"0.016": 0.10583411553,
			"0.017": 0.0,
			"0.018": 0.0,
			"0.019": 0.0,
			"0.02": 0.0,
			"0.021": 0.0,
			"0.022": 0.0,
			"0.023": 0.0,
			"0.024": 0.0,
			"0.025": 0.0
		}
	}
}
