{
	 "smiles": "OC(=O)C1=C2OCCOC2=CS1", 
	 "Tm": 479.15, 
	 "num_atms": 18, 
	 "gaussian": { 
		 "optdone": 1, 
		 "sigma_profile": "yes", 
		 "theory": "DFT", 
		 "functional": "B3LYP", 
		 "basiset": "6-31G**", 
		 "properties": { 
			 "R2extent": 2644.7128, 
			 "electric_dipole_moment_norm": 2.66619519916, 
			 "electric_quadrupole_moment_norm": 10.5840697839, 
			 "total_energy": -969.413083353, 
			 "HOMO_LUMO_gap": 0.17813, 
			 "cosmo_polarized_energy": -14.55, 
			 "cosmo_cavitation_energy": 23.86, 
			 "cosmo_dispersion_energy": -18.82, 
			 "cosmo_repulsion_energy": 1.46, 
			 "cosmo_total_nonelectrostatic_energy": 6.51, 
			 "SMD_solvation_energy": 5.78 
		},
		"coords": [
			{
				"x": -2.3620280607,
				"y": 1.9763503337,
				"z": 2.0091967051,
				"element": "O" 
			},
			{
				"x": -1.429541629,
				"y": 1.832515362,
				"z": 1.024914594,
				"element": "C" 
			},
			{
				"x": -1.4616304455,
				"y": 2.4815020849,
				"z": -0.0019943593,
				"element": "O" 
			},
			{
				"x": -0.4287343804,
				"y": 0.8278650676,
				"z": 1.370351552,
				"element": "C" 
			},
			{
				"x": 0.6694726731,
				"y": 0.4526122416,
				"z": 0.6185964265,
				"element": "C" 
			},
			{
				"x": 0.9886866808,
				"y": 0.9628446805,
				"z": -0.5939412852,
				"element": "O" 
			},
			{
				"x": 2.3232974291,
				"y": 0.6378975729,
				"z": -1.0138433891,
				"element": "C" 
			},
			{
				"x": 2.6461550073,
				"y": -0.8199550492,
				"z": -0.7263738259,
				"element": "C" 
			},
			{
				"x": 2.5846975709,
				"y": -1.0815001841,
				"z": 0.6816590473,
				"element": "O" 
			},
			{
				"x": 1.4562092612,
				"y": -0.5637650171,
				"z": 1.2535603278,
				"element": "C" 
			},
			{
				"x": 0.9595845789,
				"y": -0.9394291006,
				"z": 2.4712792147,
				"element": "C" 
			},
			{
				"x": -0.4793048082,
				"y": -0.0683873752,
				"z": 2.8756284456,
				"element": "S" 
			},
			{
				"x": -2.9770414732,
				"y": 2.6565971452,
				"z": 1.6908631065,
				"element": "H" 
			},
			{
				"x": 3.0369492213,
				"y": 1.291690931,
				"z": -0.4963021086,
				"element": "H" 
			},
			{
				"x": 2.3597025546,
				"y": 0.8455771248,
				"z": -2.0854383782,
				"element": "H" 
			},
			{
				"x": 1.9419434319,
				"y": -1.4744523781,
				"z": -1.2575278524,
				"element": "H" 
			},
			{
				"x": 3.6643240817,
				"y": -1.0619268481,
				"z": -1.0396115569,
				"element": "H" 
			},
			{
				"x": 1.3678583064,
				"y": -1.6852365918,
				"z": 3.1376833361,
				"element": "H" 
			}
		],
		 "valence_orbital": [ 
			{
				"type": "occ",
				"energy": -0.31706,
				"method": "rhf"
			},
			{
				"type": "occ",
				"energy": -0.30907,
				"method": "rhf"
			},
			{
				"type": "occ",
				"energy": -0.2672,
				"method": "rhf"
			},
			{
				"type": "occ",
				"energy": -0.23106,
				"method": "rhf"
			},
			{
				"type": "occ",
				"energy": -0.22462,
				"method": "rhf"
			},
			{
				"type": "unocc",
				"energy": -0.04649,
				"method": "rhf"
			},
			{
				"type": "unocc",
				"energy": 0.02511,
				"method": "rhf"
			},
			{
				"type": "unocc",
				"energy": 0.04623,
				"method": "rhf"
			},
			{
				"type": "unocc",
				"energy": 0.06116,
				"method": "rhf"
			},
			{
				"type": "unocc",
				"energy": 0.08888,
				"method": "rhf"
			}
		],
		"cosmo_sigma_profile": { 
			"-0.025": 0.0,
			"-0.024": 0.0,
			"-0.023": 0.0,
			"-0.022": 0.0,
			"-0.021": 0.0,
			"-0.02": 0.0,
			"-0.019": 0.0216987100358,
			"-0.018": 0.801981905642,
			"-0.017": 0.859779824654,
			"-0.016": 0.815124568622,
			"-0.015": 0.729571718889,
			"-0.014": 0.595753687383,
			"-0.013": 1.15349821939,
			"-0.012": 0.519562410847,
			"-0.011": 0.310799369541,
			"-0.01": 1.41362596922,
			"-0.009": 2.81590889128,
			"-0.008": 6.41082478167,
			"-0.007": 12.1855310574,
			"-0.006": 15.9083300467,
			"-0.005": 10.8008366879,
			"-0.004": 8.24173491027,
			"-0.003": 7.09866311873,
			"-0.002": 7.57999220056,
			"-0.001": 8.86231191202,
			"0.0": 10.8744805838,
			"0.001": 14.1714047896,
			"0.002": 15.2412003117,
			"0.003": 14.8096840425,
			"0.004": 9.23481795169,
			"0.005": 6.40769019998,
			"0.006": 5.01301161411,
			"0.007": 4.55036250112,
			"0.008": 4.67731712736,
			"0.009": 3.90334085661,
			"0.01": 3.05931094166,
			"0.011": 3.0961642341,
			"0.012": 5.94128750455,
			"0.013": 2.54910449021,
			"0.014": 1.42930860879,
			"0.015": 0.567418359529,
			"0.016": 0.0,
			"0.017": 0.0,
			"0.018": 0.0,
			"0.019": 0.0,
			"0.02": 0.0,
			"0.021": 0.0,
			"0.022": 0.0,
			"0.023": 0.0,
			"0.024": 0.0,
			"0.025": 0.0
		}
	}
}
