{
	 "smiles": "CCOC(=O)C(CC=C1/OC(=O)C(OC)=C1OC)S(=O)(=O)C1=CC=CC=C1", 
	 "Tm": 373.15, 
	 "num_atms": 47, 
	 "gaussian": { 
		 "optdone": 1, 
		 "sigma_profile": "yes", 
		 "theory": "DFT", 
		 "functional": "B3LYP", 
		 "basiset": "6-31G**", 
		 "properties": { 
			 "R2extent": 13334.8201, 
			 "electric_dipole_moment_norm": 9.59275926989, 
			 "electric_quadrupole_moment_norm": 21.0950051112, 
			 "total_energy": -1697.83761719, 
			 "HOMO_LUMO_gap": 0.16404, 
			 "cosmo_polarized_energy": -24.4, 
			 "cosmo_cavitation_energy": 52.96, 
			 "cosmo_dispersion_energy": -33.17, 
			 "cosmo_repulsion_energy": 2.51, 
			 "cosmo_total_nonelectrostatic_energy": 22.31, 
			 "SMD_solvation_energy": 11.69 
		},
		"coords": [
			{
				"x": 2.8102377292,
				"y": 1.4700558185,
				"z": 3.2281933394,
				"element": "C" 
			},
			{
				"x": 1.5246340451,
				"y": 1.582029741,
				"z": 4.0322730992,
				"element": "C" 
			},
			{
				"x": 0.5479410882,
				"y": 0.6003091046,
				"z": 3.5926831897,
				"element": "O" 
			},
			{
				"x": 0.6163534025,
				"y": -0.6182429088,
				"z": 4.1577769527,
				"element": "C" 
			},
			{
				"x": 1.4193262651,
				"y": -0.9486275448,
				"z": 5.0000144005,
				"element": "O" 
			},
			{
				"x": -0.4016057963,
				"y": -1.5842406068,
				"z": 3.5684846096,
				"element": "C" 
			},
			{
				"x": 0.0879531944,
				"y": -2.2703131692,
				"z": 2.2676666455,
				"element": "C" 
			},
			{
				"x": 0.7057036146,
				"y": -1.3608322713,
				"z": 1.2446452018,
				"element": "C" 
			},
			{
				"x": 1.881007305,
				"y": -1.6042855966,
				"z": 0.6514087189,
				"element": "C" 
			},
			{
				"x": 2.6348079455,
				"y": -2.7355343651,
				"z": 0.9148726496,
				"element": "O" 
			},
			{
				"x": 3.7916633759,
				"y": -2.6904583225,
				"z": 0.1375106292,
				"element": "C" 
			},
			{
				"x": 4.6287996129,
				"y": -3.5578511236,
				"z": 0.1970926847,
				"element": "O" 
			},
			{
				"x": 3.7353780396,
				"y": -1.4624359776,
				"z": -0.675702806,
				"element": "C" 
			},
			{
				"x": 4.7306683429,
				"y": -1.0377497989,
				"z": -1.494025168,
				"element": "O" 
			},
			{
				"x": 5.3021863459,
				"y": -2.0262625498,
				"z": -2.3707928697,
				"element": "C" 
			},
			{
				"x": 2.5855454571,
				"y": -0.8077269691,
				"z": -0.3506501772,
				"element": "C" 
			},
			{
				"x": 2.0471136999,
				"y": 0.3595990465,
				"z": -0.7297307691,
				"element": "O" 
			},
			{
				"x": 2.6572356314,
				"y": 1.0584108354,
				"z": -1.8254730955,
				"element": "C" 
			},
			{
				"x": -2.1374055324,
				"y": -0.9370860717,
				"z": 3.4875207278,
				"element": "S" 
			},
			{
				"x": -2.9403138441,
				"y": -2.1114098136,
				"z": 3.0998008657,
				"element": "O" 
			},
			{
				"x": -2.3686894808,
				"y": -0.2357592148,
				"z": 4.7599937041,
				"element": "O" 
			},
			{
				"x": -2.3077454198,
				"y": 0.2648022319,
				"z": 2.1561453893,
				"element": "C" 
			},
			{
				"x": -2.691632165,
				"y": -0.1816870824,
				"z": 0.889293422,
				"element": "C" 
			},
			{
				"x": -2.8815735035,
				"y": 0.7546468946,
				"z": -0.1279020173,
				"element": "C" 
			},
			{
				"x": -2.702317306,
				"y": 2.1153169938,
				"z": 0.1316328938,
				"element": "C" 
			},
			{
				"x": -2.3409378207,
				"y": 2.5490076061,
				"z": 1.4100967849,
				"element": "C" 
			},
			{
				"x": -2.1425126987,
				"y": 1.6232877794,
				"z": 2.433880677,
				"element": "C" 
			},
			{
				"x": 3.3036592903,
				"y": 0.5146444598,
				"z": 3.4221118415,
				"element": "H" 
			},
			{
				"x": 3.4956519829,
				"y": 2.2739649324,
				"z": 3.5165026853,
				"element": "H" 
			},
			{
				"x": 2.6081419474,
				"y": 1.5536496044,
				"z": 2.1564605706,
				"element": "H" 
			},
			{
				"x": 1.70431294,
				"y": 1.4393909515,
				"z": 5.0998239452,
				"element": "H" 
			},
			{
				"x": 1.0297180689,
				"y": 2.5421831855,
				"z": 3.8705114773,
				"element": "H" 
			},
			{
				"x": -0.5527878263,
				"y": -2.3632092506,
				"z": 4.3219756756,
				"element": "H" 
			},
			{
				"x": -0.7719273061,
				"y": -2.8094836041,
				"z": 1.8487295536,
				"element": "H" 
			},
			{
				"x": 0.8171792444,
				"y": -3.0320048511,
				"z": 2.5568835959,
				"element": "H" 
			},
			{
				"x": 0.1924451123,
				"y": -0.451985189,
				"z": 0.9532637834,
				"element": "H" 
			},
			{
				"x": 4.5457177701,
				"y": -2.4041300252,
				"z": -3.0695152147,
				"element": "H" 
			},
			{
				"x": 5.7249818402,
				"y": -2.8552548762,
				"z": -1.8011317367,
				"element": "H" 
			},
			{
				"x": 6.0850048884,
				"y": -1.5080645482,
				"z": -2.9261274483,
				"element": "H" 
			},
			{
				"x": 2.0751799045,
				"y": 1.9721861111,
				"z": -1.9475552325,
				"element": "H" 
			},
			{
				"x": 3.7002849172,
				"y": 1.2968939798,
				"z": -1.607712066,
				"element": "H" 
			},
			{
				"x": 2.6061026221,
				"y": 0.4604931985,
				"z": -2.7406562284,
				"element": "H" 
			},
			{
				"x": -2.8627079069,
				"y": -1.2387485757,
				"z": 0.7189781924,
				"element": "H" 
			},
			{
				"x": -3.1824149969,
				"y": 0.4220509718,
				"z": -1.1166792897,
				"element": "H" 
			},
			{
				"x": -2.8581737909,
				"y": 2.8414204581,
				"z": -0.6609819799,
				"element": "H" 
			},
			{
				"x": -2.2228129297,
				"y": 3.6093097313,
				"z": 1.6122374605,
				"element": "H" 
			},
			{
				"x": -1.8825772998,
				"y": 1.9368306707,
				"z": 3.437670732,
				"element": "H" 
			}
		],
		 "valence_orbital": [ 
			{
				"type": "occ",
				"energy": -0.27666,
				"method": "rhf"
			},
			{
				"type": "occ",
				"energy": -0.27523,
				"method": "rhf"
			},
			{
				"type": "occ",
				"energy": -0.27278,
				"method": "rhf"
			},
			{
				"type": "occ",
				"energy": -0.26285,
				"method": "rhf"
			},
			{
				"type": "occ",
				"energy": -0.22913,
				"method": "rhf"
			},
			{
				"type": "unocc",
				"energy": -0.06509,
				"method": "rhf"
			},
			{
				"type": "unocc",
				"energy": -0.0476,
				"method": "rhf"
			},
			{
				"type": "unocc",
				"energy": -0.0258,
				"method": "rhf"
			},
			{
				"type": "unocc",
				"energy": -0.01023,
				"method": "rhf"
			},
			{
				"type": "unocc",
				"energy": 0.04855,
				"method": "rhf"
			}
		],
		"cosmo_sigma_profile": { 
			"-0.025": 0.0,
			"-0.024": 0.0,
			"-0.023": 0.0,
			"-0.022": 0.0,
			"-0.021": 0.0,
			"-0.02": 0.0,
			"-0.019": 0.0,
			"-0.018": 0.0,
			"-0.017": 0.0,
			"-0.016": 0.0,
			"-0.015": 0.0,
			"-0.014": 0.0,
			"-0.013": 0.0,
			"-0.012": 0.0,
			"-0.011": 0.0398195182961,
			"-0.01": 1.43530620321,
			"-0.009": 1.87569686229,
			"-0.008": 2.42693319633,
			"-0.007": 12.0677905777,
			"-0.006": 27.3684170635,
			"-0.005": 33.7136027103,
			"-0.004": 40.3773310382,
			"-0.003": 40.4200594154,
			"-0.002": 32.2574898514,
			"-0.001": 35.7210212231,
			"0.0": 34.3286941022,
			"0.001": 25.63518395,
			"0.002": 24.9551265703,
			"0.003": 19.7279555723,
			"0.004": 11.2968480986,
			"0.005": 8.87750865258,
			"0.006": 9.03479039725,
			"0.007": 8.33986124775,
			"0.008": 7.19402001908,
			"0.009": 8.21510940379,
			"0.01": 13.056478756,
			"0.011": 16.1210161912,
			"0.012": 6.2350882878,
			"0.013": 0.154173225391,
			"0.014": 0.0,
			"0.015": 0.0,
			"0.016": 0.0,
			"0.017": 0.0,
			"0.018": 0.0,
			"0.019": 0.0,
			"0.02": 0.0,
			"0.021": 0.0,
			"0.022": 0.0,
			"0.023": 0.0,
			"0.024": 0.0,
			"0.025": 0.0
		}
	}
}
