{
	 "smiles": "CCC1=C2NC=C(C=O)C2=CC=C1", 
	 "Tm": 373.15, 
	 "num_atms": 24, 
	 "gaussian": { 
		 "optdone": 1, 
		 "sigma_profile": "yes", 
		 "theory": "DFT", 
		 "functional": "B3LYP", 
		 "basiset": "6-31G**", 
		 "properties": { 
			 "R2extent": 3608.3264, 
			 "electric_dipole_moment_norm": 5.63739973658, 
			 "electric_quadrupole_moment_norm": 21.971819315, 
			 "total_energy": -555.785351771, 
			 "HOMO_LUMO_gap": 0.17575, 
			 "cosmo_polarized_energy": -15.52, 
			 "cosmo_cavitation_energy": 27.73, 
			 "cosmo_dispersion_energy": -19.91, 
			 "cosmo_repulsion_energy": 1.56, 
			 "cosmo_total_nonelectrostatic_energy": 9.38, 
			 "SMD_solvation_energy": 5.57 
		},
		"coords": [
			{
				"x": -0.7805109456,
				"y": 1.8550656097,
				"z": 0.5234831254,
				"element": "C" 
			},
			{
				"x": 0.2419949623,
				"y": 1.9226944885,
				"z": -0.6269274149,
				"element": "C" 
			},
			{
				"x": 0.4085402244,
				"y": 0.6118169337,
				"z": -1.3629521536,
				"element": "C" 
			},
			{
				"x": 1.1758456454,
				"y": -0.4441868876,
				"z": -0.8451763713,
				"element": "C" 
			},
			{
				"x": 1.9176433026,
				"y": -0.5060791127,
				"z": 0.3333035118,
				"element": "N" 
			},
			{
				"x": 2.5192804965,
				"y": -1.7284762829,
				"z": 0.4351635946,
				"element": "C" 
			},
			{
				"x": 2.1900861194,
				"y": -2.5006195125,
				"z": -0.6648244935,
				"element": "C" 
			},
			{
				"x": 2.6480939677,
				"y": -3.858799304,
				"z": -0.8959888451,
				"element": "C" 
			},
			{
				"x": 2.3580844323,
				"y": -4.5404874543,
				"z": -1.8685795978,
				"element": "O" 
			},
			{
				"x": 1.3274387144,
				"y": -1.6910540285,
				"z": -1.498728716,
				"element": "C" 
			},
			{
				"x": 0.6834860383,
				"y": -1.9095336254,
				"z": -2.7264214466,
				"element": "C" 
			},
			{
				"x": -0.0805852652,
				"y": -0.8770279144,
				"z": -3.2551274604,
				"element": "C" 
			},
			{
				"x": -0.2116400928,
				"y": 0.3562462751,
				"z": -2.5859161557,
				"element": "C" 
			},
			{
				"x": -1.7704315879,
				"y": 1.5837047827,
				"z": 0.1447653974,
				"element": "H" 
			},
			{
				"x": -0.8625172019,
				"y": 2.8207337496,
				"z": 1.0331769988,
				"element": "H" 
			},
			{
				"x": -0.5004545383,
				"y": 1.1024326428,
				"z": 1.2685256955,
				"element": "H" 
			},
			{
				"x": -0.0697585303,
				"y": 2.6932195087,
				"z": -1.3403713789,
				"element": "H" 
			},
			{
				"x": 1.2124201575,
				"y": 2.2567860934,
				"z": -0.2325839749,
				"element": "H" 
			},
			{
				"x": 2.0036943581,
				"y": 0.238405146,
				"z": 1.0063480512,
				"element": "H" 
			},
			{
				"x": 3.1434879666,
				"y": -1.9737558874,
				"z": 1.2836167385,
				"element": "H" 
			},
			{
				"x": 3.3114748139,
				"y": -4.2652722397,
				"z": -0.0982087593,
				"element": "H" 
			},
			{
				"x": 0.7959418229,
				"y": -2.86177126,
				"z": -3.231247427,
				"element": "H" 
			},
			{
				"x": -0.5869410663,
				"y": -1.0158994347,
				"z": -4.205907039,
				"element": "H" 
			},
			{
				"x": -0.8145737939,
				"y": 1.1409577137,
				"z": -3.0366218791,
				"element": "H" 
			}
		],
		 "valence_orbital": [ 
			{
				"type": "occ",
				"energy": -0.33346,
				"method": "rhf"
			},
			{
				"type": "occ",
				"energy": -0.27378,
				"method": "rhf"
			},
			{
				"type": "occ",
				"energy": -0.23817,
				"method": "rhf"
			},
			{
				"type": "occ",
				"energy": -0.23028,
				"method": "rhf"
			},
			{
				"type": "occ",
				"energy": -0.21389,
				"method": "rhf"
			},
			{
				"type": "unocc",
				"energy": -0.03814,
				"method": "rhf"
			},
			{
				"type": "unocc",
				"energy": -0.00336,
				"method": "rhf"
			},
			{
				"type": "unocc",
				"energy": 0.02118,
				"method": "rhf"
			},
			{
				"type": "unocc",
				"energy": 0.0517,
				"method": "rhf"
			},
			{
				"type": "unocc",
				"energy": 0.09798,
				"method": "rhf"
			}
		],
		"cosmo_sigma_profile": { 
			"-0.025": 0.0,
			"-0.024": 0.0,
			"-0.023": 0.0,
			"-0.022": 0.0,
			"-0.021": 0.0,
			"-0.02": 0.0,
			"-0.019": 0.0,
			"-0.018": 0.0,
			"-0.017": 0.0,
			"-0.016": 1.05063227783,
			"-0.015": 0.87733742463,
			"-0.014": 1.0269492188,
			"-0.013": 1.29891175554,
			"-0.012": 1.19467193458,
			"-0.011": 2.00745369656,
			"-0.01": 3.02768020971,
			"-0.009": 3.97621540758,
			"-0.008": 3.67140182158,
			"-0.007": 4.16902920274,
			"-0.006": 4.34067755428,
			"-0.005": 8.89663403829,
			"-0.004": 13.8973878054,
			"-0.003": 17.6612325676,
			"-0.002": 17.3794343654,
			"-0.001": 20.8743225584,
			"0.0": 18.4846081928,
			"0.001": 17.0473449599,
			"0.002": 12.9284232528,
			"0.003": 12.5849270975,
			"0.004": 12.7218359861,
			"0.005": 11.1893632551,
			"0.006": 10.0203015287,
			"0.007": 4.05692905804,
			"0.008": 1.33946032494,
			"0.009": 2.33652416531,
			"0.01": 1.85688460981,
			"0.011": 2.35027357716,
			"0.012": 3.77110839938,
			"0.013": 2.94312558575,
			"0.014": 1.36585712285,
			"0.015": 0.0728778039401,
			"0.016": 0.0,
			"0.017": 0.0,
			"0.018": 0.0,
			"0.019": 0.0,
			"0.02": 0.0,
			"0.021": 0.0,
			"0.022": 0.0,
			"0.023": 0.0,
			"0.024": 0.0,
			"0.0": 0.0
		}
	}
}
