{
	 "smiles": "CC(C)C1=CC=C(C=C1)N1CCC(C(O)=O)C1=O", 
	 "Tm": 403.15, 
	 "num_atms": 35, 
	 "gaussian": { 
		 "optdone": 1, 
		 "sigma_profile": "yes", 
		 "theory": "DFT", 
		 "functional": "B3LYP", 
		 "basiset": "6-31G**", 
		 "properties": { 
			 "R2extent": 7010.2745, 
			 "electric_dipole_moment_norm": 2.36647100341, 
			 "electric_quadrupole_moment_norm": 11.676077018, 
			 "total_energy": -824.205275324, 
			 "HOMO_LUMO_gap": 0.19266, 
			 "cosmo_polarized_energy": -15.32, 
			 "cosmo_cavitation_energy": 37.62, 
			 "cosmo_dispersion_energy": -26.69, 
			 "cosmo_repulsion_energy": 2.07, 
			 "cosmo_total_nonelectrostatic_energy": 13.01, 
			 "SMD_solvation_energy": 7.49 
		},
		"coords": [
			{
				"x": -2.5074551281,
				"y": -3.2825672884,
				"z": -1.5637396411,
				"element": "C" 
			},
			{
				"x": -2.0348661673,
				"y": -2.0262383094,
				"z": -2.3197475475,
				"element": "C" 
			},
			{
				"x": -1.2450955312,
				"y": -2.4081766366,
				"z": -3.5860696903,
				"element": "C" 
			},
			{
				"x": -1.2454755773,
				"y": -1.0858238913,
				"z": -1.4198331308,
				"element": "C" 
			},
			{
				"x": -0.0334578784,
				"y": -1.4699234189,
				"z": -0.832652378,
				"element": "C" 
			},
			{
				"x": 0.6846465519,
				"y": -0.6058790816,
				"z": -0.0094113959,
				"element": "C" 
			},
			{
				"x": 0.2086378241,
				"y": 0.6893228218,
				"z": 0.2560632442,
				"element": "C" 
			},
			{
				"x": -1.0065029857,
				"y": 1.0897597587,
				"z": -0.3238896534,
				"element": "C" 
			},
			{
				"x": -1.7072125394,
				"y": 0.206339928,
				"z": -1.1421939126,
				"element": "C" 
			},
			{
				"x": 0.9694770888,
				"y": 1.5559317141,
				"z": 1.0832439272,
				"element": "N" 
			},
			{
				"x": 2.33800821,
				"y": 1.212883375,
				"z": 1.4946932108,
				"element": "C" 
			},
			{
				"x": 2.8866411661,
				"y": 2.5193024503,
				"z": 2.0906448768,
				"element": "C" 
			},
			{
				"x": 1.6388697693,
				"y": 3.2530829232,
				"z": 2.5930826957,
				"element": "C" 
			},
			{
				"x": 1.3093995286,
				"y": 2.9086719593,
				"z": 4.0355261655,
				"element": "C" 
			},
			{
				"x": 0.5758431033,
				"y": 3.8707342989,
				"z": 4.6280494706,
				"element": "O" 
			},
			{
				"x": 1.6453407033,
				"y": 1.886824531,
				"z": 4.5970214612,
				"element": "O" 
			},
			{
				"x": 0.5049299941,
				"y": 2.708080346,
				"z": 1.6871259244,
				"element": "C" 
			},
			{
				"x": -0.5905299687,
				"y": 3.2250853479,
				"z": 1.5631870732,
				"element": "O" 
			},
			{
				"x": -3.1225695687,
				"y": -3.9166735419,
				"z": -2.2117901741,
				"element": "H" 
			},
			{
				"x": -3.1010512089,
				"y": -3.0154304653,
				"z": -0.6840415187,
				"element": "H" 
			},
			{
				"x": -1.6574129151,
				"y": -3.883656814,
				"z": -1.2220184924,
				"element": "H" 
			},
			{
				"x": -2.9312649184,
				"y": -1.4809279705,
				"z": -2.6434932276,
				"element": "H" 
			},
			{
				"x": -1.8522677207,
				"y": -3.0366932553,
				"z": -4.2469118471,
				"element": "H" 
			},
			{
				"x": -0.9400952788,
				"y": -1.5187707149,
				"z": -4.1461685387,
				"element": "H" 
			},
			{
				"x": -0.3389309955,
				"y": -2.9705903966,
				"z": -3.3345776484,
				"element": "H" 
			},
			{
				"x": 0.3661848994,
				"y": -2.4645300405,
				"z": -1.012274955,
				"element": "H" 
			},
			{
				"x": 1.610304326,
				"y": -0.9549030529,
				"z": 0.4330293796,
				"element": "H" 
			},
			{
				"x": -1.3953109233,
				"y": 2.077150306,
				"z": -0.1220334634,
				"element": "H" 
			},
			{
				"x": -2.6453949471,
				"y": 0.539761465,
				"z": -1.5798044847,
				"element": "H" 
			},
			{
				"x": 2.3248543825,
				"y": 0.4110874894,
				"z": 2.2414727266,
				"element": "H" 
			},
			{
				"x": 2.9164189994,
				"y": 0.8760994656,
				"z": 0.629765105,
				"element": "H" 
			},
			{
				"x": 3.6125760899,
				"y": 2.3262066319,
				"z": 2.8819496285,
				"element": "H" 
			},
			{
				"x": 3.368615557,
				"y": 3.1148236091,
				"z": 1.3100791846,
				"element": "H" 
			},
			{
				"x": 1.6692852783,
				"y": 4.3387045293,
				"z": 2.4844061511,
				"element": "H" 
			},
			{
				"x": 0.3662607804,
				"y": 3.5481319275,
				"z": 5.5212114747,
				"element": "H" 
			}
		],
		 "valence_orbital": [ 
			{
				"type": "occ",
				"energy": -0.28894,
				"method": "rhf"
			},
			{
				"type": "occ",
				"energy": -0.28443,
				"method": "rhf"
			},
			{
				"type": "occ",
				"energy": -0.25536,
				"method": "rhf"
			},
			{
				"type": "occ",
				"energy": -0.24688,
				"method": "rhf"
			},
			{
				"type": "occ",
				"energy": -0.21369,
				"method": "rhf"
			},
			{
				"type": "unocc",
				"energy": -0.02103,
				"method": "rhf"
			},
			{
				"type": "unocc",
				"energy": 0.00065,
				"method": "rhf"
			},
			{
				"type": "unocc",
				"energy": 0.00478,
				"method": "rhf"
			},
			{
				"type": "unocc",
				"energy": 0.0471,
				"method": "rhf"
			},
			{
				"type": "unocc",
				"energy": 0.07422,
				"method": "rhf"
			}
		],
		"cosmo_sigma_profile": { 
			"-0.025": 0.0,
			"-0.024": 0.0,
			"-0.023": 0.0,
			"-0.022": 0.0,
			"-0.021": 0.0,
			"-0.02": 0.0,
			"-0.019": 0.354238221777,
			"-0.018": 0.917432024233,
			"-0.017": 0.952710915099,
			"-0.016": 1.08662194484,
			"-0.015": 0.69783835506,
			"-0.014": 0.424148075337,
			"-0.013": 0.529965910525,
			"-0.012": 0.590790706557,
			"-0.011": 0.625034292962,
			"-0.01": 0.830010402527,
			"-0.009": 0.708402616363,
			"-0.008": 1.73257087925,
			"-0.007": 3.68606678401,
			"-0.006": 12.1984964908,
			"-0.005": 21.6585735386,
			"-0.004": 22.282544455,
			"-0.003": 28.2394681291,
			"-0.002": 27.4262164259,
			"-0.001": 26.0096795231,
			"0.0": 23.2594024333,
			"0.001": 26.2132918172,
			"0.002": 16.9661483377,
			"0.003": 10.8887769075,
			"0.004": 12.3621791922,
			"0.005": 12.2379282564,
			"0.006": 10.6191243968,
			"0.007": 4.13661524259,
			"0.008": 5.72723789127,
			"0.009": 4.28746667992,
			"0.01": 4.6083404414,
			"0.011": 6.62693360987,
			"0.012": 4.91981307926,
			"0.013": 1.84157870767,
			"0.014": 0.142459768735,
			"0.015": 0.0,
			"0.016": 0.0,
			"0.017": 0.0,
			"0.018": 0.0,
			"0.019": 0.0,
			"0.02": 0.0,
			"0.021": 0.0,
			"0.022": 0.0,
			"0.023": 0.0,
			"0.024": 0.0,
			"0.025": 0.0
		}
	}
}
