{
	 "smiles": "OC1=C2CCCN3CCCC(C=C1)=C23", 
	 "Tm": 406.65, 
	 "num_atms": 29, 
	 "gaussian": { 
		 "optdone": 1, 
		 "sigma_profile": "yes", 
		 "theory": "DFT", 
		 "functional": "B3LYP", 
		 "basiset": "6-31G**", 
		 "properties": { 
			 "R2extent": 2823.4713, 
			 "electric_dipole_moment_norm": 2.89852816616, 
			 "electric_quadrupole_moment_norm": 9.40764404726, 
			 "total_energy": -596.306909453, 
			 "HOMO_LUMO_gap": 0.19322, 
			 "cosmo_polarized_energy": -8.83, 
			 "cosmo_cavitation_energy": 28.65, 
			 "cosmo_dispersion_energy": -22.01, 
			 "cosmo_repulsion_energy": 1.71, 
			 "cosmo_total_nonelectrostatic_energy": 8.35, 
			 "SMD_solvation_energy": 2.83 
		},
		"coords": [
			{
				"x": -0.3911575737,
				"y": -2.6245882715,
				"z": -2.9322824713,
				"element": "O" 
			},
			{
				"x": -0.5293419097,
				"y": -1.5039406582,
				"z": -2.1533041082,
				"element": "C" 
			},
			{
				"x": 0.5062984223,
				"y": -1.0475150636,
				"z": -1.3238992554,
				"element": "C" 
			},
			{
				"x": 1.8260439714,
				"y": -1.7969386536,
				"z": -1.298163552,
				"element": "C" 
			},
			{
				"x": 2.9426971557,
				"y": -0.9782661376,
				"z": -0.6429847112,
				"element": "C" 
			},
			{
				"x": 2.4192221338,
				"y": -0.3075729226,
				"z": 0.6228258672,
				"element": "C" 
			},
			{
				"x": 1.3213824142,
				"y": 0.5897754174,
				"z": 0.2974926981,
				"element": "N" 
			},
			{
				"x": 0.9905927455,
				"y": 1.5676063954,
				"z": 1.3262715895,
				"element": "C" 
			},
			{
				"x": 0.067497669,
				"y": 2.6462561054,
				"z": 0.7661870018,
				"element": "C" 
			},
			{
				"x": -1.2279588225,
				"y": 2.0004935737,
				"z": 0.2707285114,
				"element": "C" 
			},
			{
				"x": -0.9524447034,
				"y": 0.7811124884,
				"z": -0.5884848811,
				"element": "C" 
			},
			{
				"x": -1.9387151772,
				"y": 0.2962952139,
				"z": -1.4488891184,
				"element": "C" 
			},
			{
				"x": -1.7528370034,
				"y": -0.8376816324,
				"z": -2.2299063982,
				"element": "C" 
			},
			{
				"x": 0.2897221931,
				"y": 0.1036595119,
				"z": -0.5244695835,
				"element": "C" 
			},
			{
				"x": 0.4691970965,
				"y": -3.0281924814,
				"z": -2.7674524634,
				"element": "H" 
			},
			{
				"x": 2.1371931832,
				"y": -2.0582091904,
				"z": -2.3208118374,
				"element": "H" 
			},
			{
				"x": 1.7122172616,
				"y": -2.750172295,
				"z": -0.7581431218,
				"element": "H" 
			},
			{
				"x": 3.8004413409,
				"y": -1.6169455326,
				"z": -0.4070049775,
				"element": "H" 
			},
			{
				"x": 3.2886160169,
				"y": -0.1996006735,
				"z": -1.3317730969,
				"element": "H" 
			},
			{
				"x": 3.2108565227,
				"y": 0.2864837572,
				"z": 1.0929032022,
				"element": "H" 
			},
			{
				"x": 2.1148656202,
				"y": -1.076961319,
				"z": 1.3575562017,
				"element": "H" 
			},
			{
				"x": 1.9296092018,
				"y": 2.0108229634,
				"z": 1.6776113491,
				"element": "H" 
			},
			{
				"x": 0.5141100336,
				"y": 1.0890825946,
				"z": 2.2025311264,
				"element": "H" 
			},
			{
				"x": -0.1388840479,
				"y": 3.3963182517,
				"z": 1.5373535683,
				"element": "H" 
			},
			{
				"x": 0.5789786312,
				"y": 3.1534002359,
				"z": -0.0602820832,
				"element": "H" 
			},
			{
				"x": -1.825677015,
				"y": 2.7261524809,
				"z": -0.2935036691,
				"element": "H" 
			},
			{
				"x": -1.8397142218,
				"y": 1.7151156108,
				"z": 1.1395004087,
				"element": "H" 
			},
			{
				"x": -2.8883964995,
				"y": 0.8247260097,
				"z": -1.4981569217,
				"element": "H" 
			},
			{
				"x": -2.5249146392,
				"y": -1.2173157791,
				"z": -2.8895492741,
				"element": "H" 
			}
		],
		 "valence_orbital": [ 
			{
				"type": "occ",
				"energy": -0.31119,
				"method": "rhf"
			},
			{
				"type": "occ",
				"energy": -0.30939,
				"method": "rhf"
			},
			{
				"type": "occ",
				"energy": -0.26529,
				"method": "rhf"
			},
			{
				"type": "occ",
				"energy": -0.2053,
				"method": "rhf"
			},
			{
				"type": "occ",
				"energy": -0.17692,
				"method": "rhf"
			},
			{
				"type": "unocc",
				"energy": 0.0163,
				"method": "rhf"
			},
			{
				"type": "unocc",
				"energy": 0.03071,
				"method": "rhf"
			},
			{
				"type": "unocc",
				"energy": 0.07416,
				"method": "rhf"
			},
			{
				"type": "unocc",
				"energy": 0.09109,
				"method": "rhf"
			},
			{
				"type": "unocc",
				"energy": 0.10758,
				"method": "rhf"
			}
		],
		"cosmo_sigma_profile": { 
			"-0.025": 0.0,
			"-0.024": 0.0,
			"-0.023": 0.0,
			"-0.022": 0.0,
			"-0.021": 0.0,
			"-0.02": 0.0,
			"-0.019": 0.0,
			"-0.018": 0.0,
			"-0.017": 0.0,
			"-0.016": 0.112610972744,
			"-0.015": 0.569694619648,
			"-0.014": 0.647968356907,
			"-0.013": 1.1932325112,
			"-0.012": 0.795162873397,
			"-0.011": 0.901606395196,
			"-0.01": 0.644532733322,
			"-0.009": 1.58711354545,
			"-0.008": 1.29499248424,
			"-0.007": 1.29698685782,
			"-0.006": 1.07011263349,
			"-0.005": 4.79299978593,
			"-0.004": 14.7704484675,
			"-0.003": 26.1791906123,
			"-0.002": 39.1493007021,
			"-0.001": 33.1607745752,
			"0.0": 22.7551070612,
			"0.001": 10.6158539687,
			"0.002": 6.81246893089,
			"0.003": 6.39359871334,
			"0.004": 6.78341580954,
			"0.005": 8.72308121764,
			"0.006": 10.0826502957,
			"0.007": 9.50693351637,
			"0.008": 5.55639270907,
			"0.009": 2.37986012209,
			"0.01": 1.87544762765,
			"0.011": 1.75707629181,
			"0.012": 1.9768770772,
			"0.013": 0.203023283345,
			"0.014": 0.0,
			"0.015": 0.0,
			"0.016": 0.0,
			"0.017": 0.0,
			"0.018": 0.0,
			"0.019": 0.0,
			"0.02": 0.0,
			"0.021": 0.0,
			"0.022": 0.0,
			"0.023": 0.0,
			"0.024": 0.0,
			"0.025": 0.0
		}
	}
}
