{
	 "smiles": "OC(=O)CSCC1=CC(Cl)=C(Cl)C=C1", 
	 "Tm": 341.15, 
	 "num_atms": 22, 
	 "gaussian": { 
		 "optdone": 1, 
		 "sigma_profile": "yes", 
		 "theory": "DFT", 
		 "functional": "B3LYP", 
		 "basiset": "6-31G**", 
		 "properties": { 
			 "R2extent": 5270.8584, 
			 "electric_dipole_moment_norm": 2.6441064918, 
			 "electric_quadrupole_moment_norm": 17.6201181023, 
			 "total_energy": -1816.80781395, 
			 "HOMO_LUMO_gap": 0.21102, 
			 "cosmo_polarized_energy": -14.21, 
			 "cosmo_cavitation_energy": 31.42, 
			 "cosmo_dispersion_energy": -22.9, 
			 "cosmo_repulsion_energy": 1.77, 
			 "cosmo_total_nonelectrostatic_energy": 10.29, 
			 "SMD_solvation_energy": 5.31 
		},
		"coords": [
			{
				"x": -2.3705713891,
				"y": -3.0184491878,
				"z": 2.9181846751,
				"element": "O" 
			},
			{
				"x": -1.5775395721,
				"y": -3.1558857906,
				"z": 1.8373052619,
				"element": "C" 
			},
			{
				"x": -0.4929609576,
				"y": -3.6806021624,
				"z": 1.9078158188,
				"element": "O" 
			},
			{
				"x": -2.1424475551,
				"y": -2.6261738165,
				"z": 0.51409874,
				"element": "C" 
			},
			{
				"x": -3.1913148478,
				"y": -1.134869124,
				"z": 0.6698099446,
				"element": "S" 
			},
			{
				"x": -1.9409185054,
				"y": 0.0770664931,
				"z": 1.3173442241,
				"element": "C" 
			},
			{
				"x": -0.8085924407,
				"y": 0.3695243321,
				"z": 0.368196977,
				"element": "C" 
			},
			{
				"x": -0.9681615924,
				"y": 1.3093028076,
				"z": -0.6561553064,
				"element": "C" 
			},
			{
				"x": 0.071948992,
				"y": 1.5878375399,
				"z": -1.5417153733,
				"element": "C" 
			},
			{
				"x": -0.1878442395,
				"y": 2.7792343841,
				"z": -2.7917523792,
				"element": "Cl" 
			},
			{
				"x": 1.2977462163,
				"y": 0.9172922246,
				"z": -1.4132684181,
				"element": "C" 
			},
			{
				"x": 2.6290902574,
				"y": 1.23305853,
				"z": -2.495796621,
				"element": "Cl" 
			},
			{
				"x": 1.4609956094,
				"y": -0.0243570773,
				"z": -0.3962173745,
				"element": "C" 
			},
			{
				"x": 0.4190440775,
				"y": -0.2954103911,
				"z": 0.4880324214,
				"element": "C" 
			},
			{
				"x": -3.160060735,
				"y": -2.5044277131,
				"z": 2.6616436035,
				"element": "H" 
			},
			{
				"x": -1.3102737976,
				"y": -2.4567840599,
				"z": -0.1702455921,
				"element": "H" 
			},
			{
				"x": -2.7908970273,
				"y": -3.393076479,
				"z": 0.076113645,
				"element": "H" 
			},
			{
				"x": -2.5335746772,
				"y": 0.9732850033,
				"z": 1.5190248816,
				"element": "H" 
			},
			{
				"x": -1.5674662888,
				"y": -0.2981496216,
				"z": 2.2740407564,
				"element": "H" 
			},
			{
				"x": -1.9096277839,
				"y": 1.835550891,
				"z": -0.7756037932,
				"element": "H" 
			},
			{
				"x": 2.4101238142,
				"y": -0.5400778884,
				"z": -0.3025822856,
				"element": "H" 
			},
			{
				"x": 0.5665024427,
				"y": -1.034788894,
				"z": 1.270026194,
				"element": "H" 
			}
		],
		 "valence_orbital": [ 
			{
				"type": "occ",
				"energy": -0.31539,
				"method": "rhf"
			},
			{
				"type": "occ",
				"energy": -0.29142,
				"method": "rhf"
			},
			{
				"type": "occ",
				"energy": -0.27211,
				"method": "rhf"
			},
			{
				"type": "occ",
				"energy": -0.25894,
				"method": "rhf"
			},
			{
				"type": "occ",
				"energy": -0.25497,
				"method": "rhf"
			},
			{
				"type": "unocc",
				"energy": -0.04395,
				"method": "rhf"
			},
			{
				"type": "unocc",
				"energy": -0.03366,
				"method": "rhf"
			},
			{
				"type": "unocc",
				"energy": -0.01448,
				"method": "rhf"
			},
			{
				"type": "unocc",
				"energy": -0.00379,
				"method": "rhf"
			},
			{
				"type": "unocc",
				"energy": 0.0187,
				"method": "rhf"
			}
		],
		"cosmo_sigma_profile": { 
			"-0.025": 0.0,
			"-0.024": 0.0,
			"-0.023": 0.0,
			"-0.022": 0.0,
			"-0.021": 0.0,
			"-0.02": 0.0,
			"-0.019": 0.0,
			"-0.018": 0.0,
			"-0.017": 0.0,
			"-0.016": 0.0,
			"-0.015": 0.0,
			"-0.014": 0.638034820521,
			"-0.013": 0.720596913934,
			"-0.012": 0.82178532874,
			"-0.011": 1.27701910048,
			"-0.01": 3.83857632354,
			"-0.009": 4.43121922091,
			"-0.008": 9.71260344285,
			"-0.007": 12.1440948458,
			"-0.006": 10.8075062631,
			"-0.005": 13.3930234314,
			"-0.004": 11.4398029508,
			"-0.003": 13.2764714132,
			"-0.002": 11.4833743812,
			"-0.001": 15.3104362253,
			"0.0": 20.8065040459,
			"0.001": 25.001868711,
			"0.002": 21.4371703063,
			"0.003": 18.9607217009,
			"0.004": 21.9459869436,
			"0.005": 10.4170503099,
			"0.006": 4.02317093622,
			"0.007": 3.27909509209,
			"0.008": 3.49608060204,
			"0.009": 4.07918827101,
			"0.01": 4.87754088951,
			"0.011": 4.36985045652,
			"0.012": 4.33160816878,
			"0.013": 0.846585303466,
			"0.014": 0.0,
			"0.015": 0.0,
			"0.016": 0.0,
			"0.017": 0.0,
			"0.018": 0.0,
			"0.019": 0.0,
			"0.02": 0.0,
			"0.021": 0.0,
			"0.022": 0.0,
			"0.023": 0.0,
			"0.024": 0.0,
			"0.025": 0.0
		}
	}
}
