{
	 "smiles": "CC(C)NCC(O)COC1=CC=C(CC(N)=O)C=C1", 
	 "Tm": 419.15, 
	 "num_atms": 41, 
	 "gaussian": { 
		 "optdone": 1, 
		 "sigma_profile": "yes", 
		 "theory": "DFT", 
		 "functional": "B3LYP", 
		 "basiset": "6-31G**", 
		 "properties": { 
			 "R2extent": 8134.8627, 
			 "electric_dipole_moment_norm": 5.7601712544, 
			 "electric_quadrupole_moment_norm": 23.1544403266, 
			 "total_energy": -881.936224435, 
			 "HOMO_LUMO_gap": 0.20767, 
			 "cosmo_polarized_energy": -17.14, 
			 "cosmo_cavitation_energy": 42.67, 
			 "cosmo_dispersion_energy": -29.3, 
			 "cosmo_repulsion_energy": 2.33, 
			 "cosmo_total_nonelectrostatic_energy": 15.7, 
			 "SMD_solvation_energy": 7.31 
		},
		"coords": [
			{
				"x": -2.4280827759,
				"y": 2.6813868524,
				"z": 2.860483123,
				"element": "C" 
			},
			{
				"x": -1.3500278286,
				"y": 2.7616257335,
				"z": 1.7651235713,
				"element": "C" 
			},
			{
				"x": -1.2452785402,
				"y": 4.1736409474,
				"z": 1.1767202789,
				"element": "C" 
			},
			{
				"x": -1.4973850323,
				"y": 1.7501635293,
				"z": 0.6995178895,
				"element": "N" 
			},
			{
				"x": -2.7649863191,
				"y": 1.7123248587,
				"z": -0.0357476097,
				"element": "C" 
			},
			{
				"x": -2.5513275135,
				"y": 0.9250837464,
				"z": -1.3493229593,
				"element": "C" 
			},
			{
				"x": -1.3387917403,
				"y": 1.3412510589,
				"z": -1.9499169827,
				"element": "O" 
			},
			{
				"x": -2.6175568511,
				"y": -0.595424679,
				"z": -1.1619213594,
				"element": "C" 
			},
			{
				"x": -1.7651569781,
				"y": -1.0910671694,
				"z": -0.1163452334,
				"element": "O" 
			},
			{
				"x": -0.5935707214,
				"y": -1.7341718254,
				"z": -0.4395253327,
				"element": "C" 
			},
			{
				"x": -0.1608615788,
				"y": -2.7139803721,
				"z": 0.4633345396,
				"element": "C" 
			},
			{
				"x": 1.0262733651,
				"y": -3.4002683865,
				"z": 0.2295531393,
				"element": "C" 
			},
			{
				"x": 1.8051864811,
				"y": -3.142408428,
				"z": -0.9103749075,
				"element": "C" 
			},
			{
				"x": 3.1003047754,
				"y": -3.8839016065,
				"z": -1.1493427006,
				"element": "C" 
			},
			{
				"x": 4.3729364977,
				"y": -3.3133571474,
				"z": -0.4937007386,
				"element": "C" 
			},
			{
				"x": 4.3062148039,
				"y": -2.011649422,
				"z": -0.0935217873,
				"element": "N" 
			},
			{
				"x": 5.3849674673,
				"y": -3.9902736136,
				"z": -0.3874895616,
				"element": "O" 
			},
			{
				"x": 1.3540761476,
				"y": -2.1563566234,
				"z": -1.797983703,
				"element": "C" 
			},
			{
				"x": 0.1731489965,
				"y": -1.4442709732,
				"z": -1.5728507025,
				"element": "C" 
			},
			{
				"x": -2.2063830901,
				"y": 3.37789361,
				"z": 3.6762090144,
				"element": "H" 
			},
			{
				"x": -2.4836836962,
				"y": 1.6733615564,
				"z": 3.2863247103,
				"element": "H" 
			},
			{
				"x": -3.4182365522,
				"y": 2.9376038922,
				"z": 2.467686231,
				"element": "H" 
			},
			{
				"x": -0.3830034926,
				"y": 2.5324314346,
				"z": 2.2320638879,
				"element": "H" 
			},
			{
				"x": -2.1924800315,
				"y": 4.5084513038,
				"z": 0.7402964164,
				"element": "H" 
			},
			{
				"x": -0.9787466288,
				"y": 4.8909981032,
				"z": 1.9592532106,
				"element": "H" 
			},
			{
				"x": -0.4790205882,
				"y": 4.210194758,
				"z": 0.3971515369,
				"element": "H" 
			},
			{
				"x": -1.3230780891,
				"y": 0.8226100609,
				"z": 1.0780936172,
				"element": "H" 
			},
			{
				"x": -3.0407554005,
				"y": 2.7379755326,
				"z": -0.2974894183,
				"element": "H" 
			},
			{
				"x": -3.6054944599,
				"y": 1.2809551612,
				"z": 0.5304741098,
				"element": "H" 
			},
			{
				"x": -3.3719669451,
				"y": 1.1710480012,
				"z": -2.0399405943,
				"element": "H" 
			},
			{
				"x": -0.7988910351,
				"y": 1.6306370545,
				"z": -1.1855143907,
				"element": "H" 
			},
			{
				"x": -3.6371722461,
				"y": -0.8737628879,
				"z": -0.8667600259,
				"element": "H" 
			},
			{
				"x": -2.3841610796,
				"y": -1.0952728908,
				"z": -2.107819474,
				"element": "H" 
			},
			{
				"x": -0.7730293221,
				"y": -2.9297061283,
				"z": 1.3332809737,
				"element": "H" 
			},
			{
				"x": 1.3484422282,
				"y": -4.1614770388,
				"z": 0.9359707487,
				"element": "H" 
			},
			{
				"x": 3.3170422666,
				"y": -3.9372245827,
				"z": -2.2230315036,
				"element": "H" 
			},
			{
				"x": 3.0337785562,
				"y": -4.9189916602,
				"z": -0.8020385984,
				"element": "H" 
			},
			{
				"x": 3.4417542525,
				"y": -1.4950323391,
				"z": -0.1147160259,
				"element": "H" 
			},
			{
				"x": 5.1177058868,
				"y": -1.6132002035,
				"z": 0.3528123621,
				"element": "H" 
			},
			{
				"x": 1.9393720509,
				"y": -1.9312754229,
				"z": -2.6866953735,
				"element": "H" 
			},
			{
				"x": -0.1343752392,
				"y": -0.6510637944,
				"z": -2.2454003778,
				"element": "H" 
			}
		],
		 "valence_orbital": [ 
			{
				"type": "occ",
				"energy": -0.25941,
				"method": "rhf"
			},
			{
				"type": "occ",
				"energy": -0.25403,
				"method": "rhf"
			},
			{
				"type": "occ",
				"energy": -0.24417,
				"method": "rhf"
			},
			{
				"type": "occ",
				"energy": -0.23953,
				"method": "rhf"
			},
			{
				"type": "occ",
				"energy": -0.21651,
				"method": "rhf"
			},
			{
				"type": "unocc",
				"energy": -0.00884,
				"method": "rhf"
			},
			{
				"type": "unocc",
				"energy": 0.00172,
				"method": "rhf"
			},
			{
				"type": "unocc",
				"energy": 0.04139,
				"method": "rhf"
			},
			{
				"type": "unocc",
				"energy": 0.06734,
				"method": "rhf"
			},
			{
				"type": "unocc",
				"energy": 0.08938,
				"method": "rhf"
			}
		],
		"cosmo_sigma_profile": { 
			"-0.025": 0.0,
			"-0.024": 0.0,
			"-0.023": 0.0,
			"-0.022": 0.0,
			"-0.021": 0.0,
			"-0.02": 0.0,
			"-0.019": 0.0,
			"-0.018": 0.0,
			"-0.017": 0.0,
			"-0.016": 0.0,
			"-0.015": 0.0,
			"-0.014": 0.396263855967,
			"-0.013": 1.28311553825,
			"-0.012": 1.40459597156,
			"-0.011": 2.17411719199,
			"-0.01": 1.96417311581,
			"-0.009": 1.64842327556,
			"-0.008": 1.29823240585,
			"-0.007": 2.44465997772,
			"-0.006": 11.0045407196,
			"-0.005": 23.4126925385,
			"-0.004": 28.2128728398,
			"-0.003": 36.8174698831,
			"-0.002": 36.7836564828,
			"-0.001": 30.3686575935,
			"0.0": 28.3288862818,
			"0.001": 29.519052364,
			"0.002": 20.0148606399,
			"0.003": 13.3162924499,
			"0.004": 13.186291161,
			"0.005": 11.3353390152,
			"0.006": 5.81648870711,
			"0.007": 3.44818528098,
			"0.008": 2.63308742145,
			"0.009": 2.59353772305,
			"0.01": 2.97814378214,
			"0.011": 2.45457486582,
			"0.012": 2.54525050634,
			"0.013": 4.21338801257,
			"0.014": 7.0103956821,
			"0.015": 4.42701921801,
			"0.016": 0.139076923524,
			"0.017": 0.0,
			"0.018": 0.0,
			"0.019": 0.0,
			"0.02": 0.0,
			"0.021": 0.0,
			"0.022": 0.0,
			"0.023": 0.0,
			"0.024": 0.0,
			"0.025": 0.0
		}
	}
}
