{
	 "smiles": "OC(=O)C1=CC(Cl)=CN=C1O", 
	 "Tm": 534.15, 
	 "num_atms": 15, 
	 "gaussian": { 
		 "optdone": 1, 
		 "sigma_profile": "yes", 
		 "theory": "DFT", 
		 "functional": "B3LYP", 
		 "basiset": "6-31G**", 
		 "properties": { 
			 "R2extent": 2366.2184, 
			 "electric_dipole_moment_norm": 1.97954348525, 
			 "electric_quadrupole_moment_norm": 3.17390547276, 
			 "total_energy": -971.67684645, 
			 "HOMO_LUMO_gap": 0.17985, 
			 "cosmo_polarized_energy": -11.95, 
			 "cosmo_cavitation_energy": 22.29, 
			 "cosmo_dispersion_energy": -16.92, 
			 "cosmo_repulsion_energy": 1.37, 
			 "cosmo_total_nonelectrostatic_energy": 6.73, 
			 "SMD_solvation_energy": 4.15 
		},
		"coords": [
			{
				"x": 1.8237702068,
				"y": 1.5606169543,
				"z": -2.6908895448,
				"element": "O" 
			},
			{
				"x": 1.0873898427,
				"y": 0.5341353102,
				"z": -2.2248148243,
				"element": "C" 
			},
			{
				"x": 1.0898606842,
				"y": -0.5627697744,
				"z": -2.7517309433,
				"element": "O" 
			},
			{
				"x": 0.274325694,
				"y": 0.852157114,
				"z": -1.0172640922,
				"element": "C" 
			},
			{
				"x": -0.5043499423,
				"y": -0.1903764005,
				"z": -0.5045839173,
				"element": "C" 
			},
			{
				"x": -1.2917170292,
				"y": 0.0236471085,
				"z": 0.6193685084,
				"element": "C" 
			},
			{
				"x": -2.2790269506,
				"y": -1.2575848839,
				"z": 1.2883233308,
				"element": "Cl" 
			},
			{
				"x": -1.2845075398,
				"y": 1.2860237276,
				"z": 1.2129917793,
				"element": "C" 
			},
			{
				"x": -0.5489281275,
				"y": 2.2918820059,
				"z": 0.738834918,
				"element": "N" 
			},
			{
				"x": 0.2108068741,
				"y": 2.0937702268,
				"z": -0.3416643058,
				"element": "C" 
			},
			{
				"x": 0.9234858486,
				"y": 3.1503751169,
				"z": -0.7625951501,
				"element": "O" 
			},
			{
				"x": 2.2929509802,
				"y": 1.2112402464,
				"z": -3.4673964947,
				"element": "H" 
			},
			{
				"x": -0.4719394934,
				"y": -1.1511917411,
				"z": -1.0054182876,
				"element": "H" 
			},
			{
				"x": -1.8887370497,
				"y": 1.4881536729,
				"z": 2.0937590456,
				"element": "H" 
			},
			{
				"x": 0.7116160019,
				"y": 3.8691213164,
				"z": -0.144020022,
				"element": "H" 
			}
		],
		 "valence_orbital": [ 
			{
				"type": "occ",
				"energy": -0.32889,
				"method": "rhf"
			},
			{
				"type": "occ",
				"energy": -0.30281,
				"method": "rhf"
			},
			{
				"type": "occ",
				"energy": -0.30271,
				"method": "rhf"
			},
			{
				"type": "occ",
				"energy": -0.28144,
				"method": "rhf"
			},
			{
				"type": "occ",
				"energy": -0.24973,
				"method": "rhf"
			},
			{
				"type": "unocc",
				"energy": -0.06988,
				"method": "rhf"
			},
			{
				"type": "unocc",
				"energy": -0.02768,
				"method": "rhf"
			},
			{
				"type": "unocc",
				"energy": 0.01987,
				"method": "rhf"
			},
			{
				"type": "unocc",
				"energy": 0.03509,
				"method": "rhf"
			},
			{
				"type": "unocc",
				"energy": 0.07469,
				"method": "rhf"
			}
		],
		"cosmo_sigma_profile": { 
			"-0.025": 0.0,
			"-0.024": 0.0,
			"-0.023": 0.0,
			"-0.022": 0.0,
			"-0.021": 0.0,
			"-0.02": 0.0,
			"-0.019": 0.283960717803,
			"-0.018": 1.27250655187,
			"-0.017": 1.47167235994,
			"-0.016": 2.04967350554,
			"-0.015": 1.07634352771,
			"-0.014": 2.03467087761,
			"-0.013": 1.06319788793,
			"-0.012": 1.13054875058,
			"-0.011": 1.32250750028,
			"-0.01": 1.62716314277,
			"-0.009": 1.52046607382,
			"-0.008": 3.91475352384,
			"-0.007": 4.16428538392,
			"-0.006": 4.42732837113,
			"-0.005": 4.81208584283,
			"-0.004": 5.03465051944,
			"-0.003": 12.7437068958,
			"-0.002": 17.8106681066,
			"-0.001": 20.849613295,
			"0.0": 13.3838574801,
			"0.001": 10.3824818138,
			"0.002": 9.02163470965,
			"0.003": 11.0396459995,
			"0.004": 12.7199150271,
			"0.005": 5.43810326566,
			"0.006": 3.89594073955,
			"0.007": 3.52355922199,
			"0.008": 3.5637113019,
			"0.009": 3.82883771236,
			"0.01": 4.32335040221,
			"0.011": 6.62152972844,
			"0.012": 4.09529008652,
			"0.013": 0.901568044569,
			"0.014": 0.00716844611833,
			"0.015": 0.0,
			"0.016": 0.0,
			"0.017": 0.0,
			"0.018": 0.0,
			"0.019": 0.0,
			"0.02": 0.0,
			"0.021": 0.0,
			"0.022": 0.0,
			"0.023": 0.0,
			"0.024": 0.0,
			"0.025": 0.0
		}
	}
}
