{
	 "smiles": "COC1=CC(=C(Cl)C=C1NC(C)=O)[N+]([O-])=O", 
	 "Tm": 458.15, 
	 "num_atms": 25, 
	 "gaussian": { 
		 "optdone": 1, 
		 "sigma_profile": "yes", 
		 "theory": "DFT", 
		 "functional": "B3LYP", 
		 "basiset": "6-31G**", 
		 "properties": { 
			 "R2extent": 5481.5395, 
			 "electric_dipole_moment_norm": 3.05650391461, 
			 "electric_quadrupole_moment_norm": 38.9181371829, 
			 "total_energy": -1218.86495618, 
			 "HOMO_LUMO_gap": 0.14731, 
			 "cosmo_polarized_energy": -16.39, 
			 "cosmo_cavitation_energy": 31.83, 
			 "cosmo_dispersion_energy": -23.09, 
			 "cosmo_repulsion_energy": 1.81, 
			 "cosmo_total_nonelectrostatic_energy": 10.54, 
			 "SMD_solvation_energy": 9.02 
		},
		"coords": [
			{
				"x": -1.8696924108,
				"y": -1.7936374965,
				"z": -2.8212504414,
				"element": "C" 
			},
			{
				"x": -1.2010082872,
				"y": -0.8278753514,
				"z": -2.0141781516,
				"element": "O" 
			},
			{
				"x": -0.4153080939,
				"y": -1.2673978527,
				"z": -0.992163289,
				"element": "C" 
			},
			{
				"x": -0.1805515324,
				"y": -2.5945607991,
				"z": -0.6893949259,
				"element": "C" 
			},
			{
				"x": 0.6523280814,
				"y": -2.952928482,
				"z": 0.3823731463,
				"element": "C" 
			},
			{
				"x": 1.2279683082,
				"y": -1.9562558164,
				"z": 1.1779174581,
				"element": "C" 
			},
			{
				"x": 2.2008309395,
				"y": -2.2542239224,
				"z": 2.5940612097,
				"element": "Cl" 
			},
			{
				"x": 0.9710613396,
				"y": -0.613009566,
				"z": 0.8798774839,
				"element": "C" 
			},
			{
				"x": 0.1832255582,
				"y": -0.2370115388,
				"z": -0.2099805679,
				"element": "C" 
			},
			{
				"x": -0.1192968282,
				"y": 1.0667194947,
				"z": -0.5863875814,
				"element": "N" 
			},
			{
				"x": 0.4401231847,
				"y": 2.3199575104,
				"z": -0.3279154087,
				"element": "C" 
			},
			{
				"x": 1.6577823028,
				"y": 2.4316712834,
				"z": 0.5628112579,
				"element": "C" 
			},
			{
				"x": -0.0734897562,
				"y": 3.2941679439,
				"z": -0.8514849104,
				"element": "O" 
			},
			{
				"x": 0.8568265925,
				"y": -4.3921859482,
				"z": 0.5795007584,
				"element": "N" 
			},
			{
				"x": 0.0482119329,
				"y": -5.1497597221,
				"z": 0.0343012222,
				"element": "O" 
			},
			{
				"x": 1.8165911925,
				"y": -4.7651668701,
				"z": 1.2472539426,
				"element": "O" 
			},
			{
				"x": -1.151988131,
				"y": -2.4375121309,
				"z": -3.3425582969,
				"element": "H" 
			},
			{
				"x": -2.5466805438,
				"y": -2.4114936098,
				"z": -2.2201206999,
				"element": "H" 
			},
			{
				"x": -2.445049317,
				"y": -1.224598221,
				"z": -3.5515031178,
				"element": "H" 
			},
			{
				"x": -0.6193414546,
				"y": -3.3980339838,
				"z": -1.2633746374,
				"element": "H" 
			},
			{
				"x": 1.3901179299,
				"y": 0.1312236142,
				"z": 1.5388832813,
				"element": "H" 
			},
			{
				"x": -0.8544312319,
				"y": 1.1336420493,
				"z": -1.2822678774,
				"element": "H" 
			},
			{
				"x": 1.3846966472,
				"y": 2.2972452846,
				"z": 1.6150164532,
				"element": "H" 
			},
			{
				"x": 2.4259477436,
				"y": 1.6955934404,
				"z": 0.310594037,
				"element": "H" 
			},
			{
				"x": 2.0569258344,
				"y": 3.4380306902,
				"z": 0.438489655,
				"element": "H" 
			}
		],
		 "valence_orbital": [ 
			{
				"type": "occ",
				"energy": -0.30509,
				"method": "rhf"
			},
			{
				"type": "occ",
				"energy": -0.28556,
				"method": "rhf"
			},
			{
				"type": "occ",
				"energy": -0.27468,
				"method": "rhf"
			},
			{
				"type": "occ",
				"energy": -0.26667,
				"method": "rhf"
			},
			{
				"type": "occ",
				"energy": -0.2389,
				"method": "rhf"
			},
			{
				"type": "unocc",
				"energy": -0.09159,
				"method": "rhf"
			},
			{
				"type": "unocc",
				"energy": -0.0337,
				"method": "rhf"
			},
			{
				"type": "unocc",
				"energy": -0.01889,
				"method": "rhf"
			},
			{
				"type": "unocc",
				"energy": 0.0091,
				"method": "rhf"
			},
			{
				"type": "unocc",
				"energy": 0.02119,
				"method": "rhf"
			}
		],
		"cosmo_sigma_profile": { 
			"-0.025": 0.0,
			"-0.024": 0.0,
			"-0.023": 0.0,
			"-0.022": 0.0,
			"-0.021": 0.0,
			"-0.02": 0.0,
			"-0.019": 0.0,
			"-0.018": 0.0,
			"-0.017": 0.0,
			"-0.016": 0.0,
			"-0.015": 0.0,
			"-0.014": 0.0,
			"-0.013": 0.0,
			"-0.012": 0.0,
			"-0.011": 0.0,
			"-0.01": 1.0073631361,
			"-0.009": 3.14480170662,
			"-0.008": 5.16660579792,
			"-0.007": 11.5651393936,
			"-0.006": 19.1832175287,
			"-0.005": 17.3510841175,
			"-0.004": 19.0006571361,
			"-0.003": 17.7326459407,
			"-0.002": 19.7035211159,
			"-0.001": 25.2367060764,
			"0.0": 20.6025134163,
			"0.001": 13.5165442287,
			"0.002": 10.7798189257,
			"0.003": 11.1259540925,
			"0.004": 8.58077042385,
			"0.005": 4.97954341644,
			"0.006": 5.96455625111,
			"0.007": 7.46203033515,
			"0.008": 12.1364372515,
			"0.009": 6.54142554715,
			"0.01": 4.27757576319,
			"0.011": 2.6383030157,
			"0.012": 5.33289982666,
			"0.013": 3.20766307694,
			"0.014": 0.318857435519,
			"0.015": 0.0,
			"0.016": 0.0,
			"0.017": 0.0,
			"0.018": 0.0,
			"0.019": 0.0,
			"0.02": 0.0,
			"0.021": 0.0,
			"0.022": 0.0,
			"0.023": 0.0,
			"0.024": 0.0,
			"0.025": 0.0
		}
	}
}
