{
	 "smiles": "CC(=O)C1=NC2=C(N1)C=C(C)C=C2", 
	 "Tm": 430.15, 
	 "num_atms": 23, 
	 "gaussian": { 
		 "optdone": 1, 
		 "sigma_profile": "yes", 
		 "theory": "DFT", 
		 "functional": "B3LYP", 
		 "basiset": "6-31G**", 
		 "properties": { 
			 "R2extent": 3287.8152, 
			 "electric_dipole_moment_norm": 2.14646904706, 
			 "electric_quadrupole_moment_norm": 7.64688901776, 
			 "total_energy": -571.844535219, 
			 "HOMO_LUMO_gap": 0.16284, 
			 "cosmo_polarized_energy": -10.74, 
			 "cosmo_cavitation_energy": 27.34, 
			 "cosmo_dispersion_energy": -20.19, 
			 "cosmo_repulsion_energy": 1.6, 
			 "cosmo_total_nonelectrostatic_energy": 8.75, 
			 "SMD_solvation_energy": 3.42 
		},
		"coords": [
			{
				"x": 2.124098537,
				"y": -2.7281684227,
				"z": 0.4026494283,
				"element": "C" 
			},
			{
				"x": 0.9560995937,
				"y": -1.8829256127,
				"z": 0.8464515722,
				"element": "C" 
			},
			{
				"x": 0.444452479,
				"y": -1.9631794362,
				"z": 1.9569994059,
				"element": "O" 
			},
			{
				"x": 0.4110143554,
				"y": -0.9091894991,
				"z": -0.1242820971,
				"element": "C" 
			},
			{
				"x": 0.8307423583,
				"y": -0.685111735,
				"z": -1.3545123666,
				"element": "N" 
			},
			{
				"x": -0.0009735269,
				"y": 0.3070927038,
				"z": -1.8317945027,
				"element": "C" 
			},
			{
				"x": -0.9488955891,
				"y": 0.6818506002,
				"z": -0.8415459512,
				"element": "C" 
			},
			{
				"x": -0.6560831226,
				"y": -0.116988035,
				"z": 0.2373517348,
				"element": "N" 
			},
			{
				"x": -1.9152850626,
				"y": 1.6702114153,
				"z": -1.0625913359,
				"element": "C" 
			},
			{
				"x": -1.928113346,
				"y": 2.2951326113,
				"z": -2.3068766597,
				"element": "C" 
			},
			{
				"x": -2.9426628005,
				"y": 3.3706153029,
				"z": -2.6178978986,
				"element": "C" 
			},
			{
				"x": -0.9809443686,
				"y": 1.9223357545,
				"z": -3.2994620212,
				"element": "C" 
			},
			{
				"x": -0.0239802989,
				"y": 0.9450924518,
				"z": -3.0837185766,
				"element": "C" 
			},
			{
				"x": 1.8544972781,
				"y": -3.3082716537,
				"z": -0.4856177657,
				"element": "H" 
			},
			{
				"x": 2.9638145381,
				"y": -2.0891378436,
				"z": 0.1116067548,
				"element": "H" 
			},
			{
				"x": 2.417629715,
				"y": -3.393452133,
				"z": 1.2152400245,
				"element": "H" 
			},
			{
				"x": -1.095106064,
				"y": -0.1622662482,
				"z": 1.1454021621,
				"element": "H" 
			},
			{
				"x": -2.6328779356,
				"y": 1.9447982059,
				"z": -0.2947820995,
				"element": "H" 
			},
			{
				"x": -2.4526175702,
				"y": 4.3173292375,
				"z": -2.8734813444,
				"element": "H" 
			},
			{
				"x": -3.6054496312,
				"y": 3.5560927798,
				"z": -1.7683612597,
				"element": "H" 
			},
			{
				"x": -3.5667534207,
				"y": 3.0920328871,
				"z": -3.4750554646,
				"element": "H" 
			},
			{
				"x": -1.0165866471,
				"y": 2.4285544959,
				"z": -4.2606815838,
				"element": "H" 
			},
			{
				"x": 0.6930805298,
				"y": 0.670352173,
				"z": -3.8504401551,
				"element": "H" 
			}
		],
		 "valence_orbital": [ 
			{
				"type": "occ",
				"energy": -0.31242,
				"method": "rhf"
			},
			{
				"type": "occ",
				"energy": -0.28507,
				"method": "rhf"
			},
			{
				"type": "occ",
				"energy": -0.25996,
				"method": "rhf"
			},
			{
				"type": "occ",
				"energy": -0.23422,
				"method": "rhf"
			},
			{
				"type": "occ",
				"energy": -0.22752,
				"method": "rhf"
			},
			{
				"type": "unocc",
				"energy": -0.06468,
				"method": "rhf"
			},
			{
				"type": "unocc",
				"energy": 0.00574,
				"method": "rhf"
			},
			{
				"type": "unocc",
				"energy": 0.01601,
				"method": "rhf"
			},
			{
				"type": "unocc",
				"energy": 0.08673,
				"method": "rhf"
			},
			{
				"type": "unocc",
				"energy": 0.09349,
				"method": "rhf"
			}
		],
		"cosmo_sigma_profile": { 
			"-0.025": 0.0,
			"-0.024": 0.0,
			"-0.023": 0.0,
			"-0.022": 0.0,
			"-0.021": 0.0,
			"-0.02": 0.0,
			"-0.019": 0.0,
			"-0.018": 0.0,
			"-0.017": 0.0,
			"-0.016": 0.505800673073,
			"-0.015": 1.15268561359,
			"-0.014": 0.989724583586,
			"-0.013": 0.662583528567,
			"-0.012": 0.857659778975,
			"-0.011": 1.14087169397,
			"-0.01": 1.04367533422,
			"-0.009": 0.847510108068,
			"-0.008": 0.793582236476,
			"-0.007": 2.145869494,
			"-0.006": 9.57403041083,
			"-0.005": 14.5528498529,
			"-0.004": 17.9707923457,
			"-0.003": 18.3372560732,
			"-0.002": 22.4845628169,
			"-0.001": 18.9961381801,
			"0.0": 20.0770802825,
			"0.001": 13.5415392616,
			"0.002": 10.2901226371,
			"0.003": 11.6627310133,
			"0.004": 13.966838332,
			"0.005": 10.0807432297,
			"0.006": 3.49816054198,
			"0.007": 2.33175127107,
			"0.008": 3.05520471258,
			"0.009": 3.21586703766,
			"0.01": 3.50999829136,
			"0.011": 4.38341684974,
			"0.012": 2.66965375839,
			"0.013": 1.86083929279,
			"0.014": 0.554982307471,
			"0.015": 0.809346646923,
			"0.016": 0.306281163637,
			"0.017": 0.0,
			"0.018": 0.0,
			"0.019": 0.0,
			"0.02": 0.0,
			"0.021": 0.0,
			"0.022": 0.0,
			"0.023": 0.0,
			"0.024": 0.0,
			"0.025": 0.0
		}
	}
}
