{
	 "smiles": "CCN(CC)C(=O)CC1=CC=C(N)C=C1", 
	 "Tm": 361.15, 
	 "num_atms": 33, 
	 "gaussian": { 
		 "optdone": 1, 
		 "sigma_profile": "yes", 
		 "theory": "DFT", 
		 "functional": "B3LYP", 
		 "basiset": "6-31G**", 
		 "properties": { 
			 "R2extent": 4622.1335, 
			 "electric_dipole_moment_norm": 4.58063077752, 
			 "electric_quadrupole_moment_norm": 16.2639581366, 
			 "total_energy": -652.879114542, 
			 "HOMO_LUMO_gap": 0.19858, 
			 "cosmo_polarized_energy": -15.25, 
			 "cosmo_cavitation_energy": 34.73, 
			 "cosmo_dispersion_energy": -23.6, 
			 "cosmo_repulsion_energy": 1.86, 
			 "cosmo_total_nonelectrostatic_energy": 12.99, 
			 "SMD_solvation_energy": 5.9 
		},
		"coords": [
			{
				"x": 0.1140646044,
				"y": 2.2540504733,
				"z": -1.7351546219,
				"element": "C" 
			},
			{
				"x": -0.2729939237,
				"y": 1.0003488192,
				"z": -2.526100581,
				"element": "C" 
			},
			{
				"x": 0.1113582187,
				"y": -0.2659928659,
				"z": -1.8839076347,
				"element": "N" 
			},
			{
				"x": -0.9354998625,
				"y": -1.0363909013,
				"z": -1.2139032668,
				"element": "C" 
			},
			{
				"x": -1.4387984409,
				"y": -0.4111577907,
				"z": 0.0924843617,
				"element": "C" 
			},
			{
				"x": 1.4342221434,
				"y": -0.6230840339,
				"z": -1.9659692469,
				"element": "C" 
			},
			{
				"x": 2.2545537244,
				"y": 0.1094130439,
				"z": -2.5208747959,
				"element": "O" 
			},
			{
				"x": 1.9032867537,
				"y": -1.9401239466,
				"z": -1.3343428729,
				"element": "C" 
			},
			{
				"x": 2.0907250563,
				"y": -1.8450887674,
				"z": 0.1707173947,
				"element": "C" 
			},
			{
				"x": 1.5299029776,
				"y": -2.7834450184,
				"z": 1.0439160348,
				"element": "C" 
			},
			{
				"x": 1.7210742024,
				"y": -2.7021428307,
				"z": 2.4225110107,
				"element": "C" 
			},
			{
				"x": 2.4895859106,
				"y": -1.6659158979,
				"z": 2.9760210224,
				"element": "C" 
			},
			{
				"x": 2.7360456239,
				"y": -1.6083091831,
				"z": 4.3502932634,
				"element": "N" 
			},
			{
				"x": 3.0555816938,
				"y": -0.7195339571,
				"z": 2.1027362937,
				"element": "C" 
			},
			{
				"x": 2.8586334703,
				"y": -0.8121677903,
				"z": 0.7292553757,
				"element": "C" 
			},
			{
				"x": -0.2038231481,
				"y": 3.1506775767,
				"z": -2.2787194433,
				"element": "H" 
			},
			{
				"x": 1.1981765408,
				"y": 2.2929044388,
				"z": -1.6134608349,
				"element": "H" 
			},
			{
				"x": -0.3530377294,
				"y": 2.2721988143,
				"z": -0.7460999244,
				"element": "H" 
			},
			{
				"x": -1.3562363122,
				"y": 0.965255033,
				"z": -2.6848950675,
				"element": "H" 
			},
			{
				"x": 0.2101859605,
				"y": 1.0353327804,
				"z": -3.5067267033,
				"element": "H" 
			},
			{
				"x": -0.5592046101,
				"y": -2.037953156,
				"z": -1.0080031879,
				"element": "H" 
			},
			{
				"x": -1.7745493182,
				"y": -1.1550799746,
				"z": -1.9132572848,
				"element": "H" 
			},
			{
				"x": -2.2040805054,
				"y": -1.0532465759,
				"z": 0.5421476955,
				"element": "H" 
			},
			{
				"x": -1.8881812556,
				"y": 0.5715902479,
				"z": -0.0782401524,
				"element": "H" 
			},
			{
				"x": -0.6187639498,
				"y": -0.2991575755,
				"z": 0.8067512873,
				"element": "H" 
			},
			{
				"x": 1.2360221261,
				"y": -2.7729085452,
				"z": -1.5773034348,
				"element": "H" 
			},
			{
				"x": 2.8608521584,
				"y": -2.1431512329,
				"z": -1.8229989706,
				"element": "H" 
			},
			{
				"x": 0.9339111516,
				"y": -3.6008879225,
				"z": 0.6434801515,
				"element": "H" 
			},
			{
				"x": 1.2776740715,
				"y": -3.4498889972,
				"z": 3.0759208506,
				"element": "H" 
			},
			{
				"x": 2.0464955916,
				"y": -2.0677392551,
				"z": 4.9291412785,
				"element": "H" 
			},
			{
				"x": 2.9712370736,
				"y": -0.6913009265,
				"z": 4.7044876683,
				"element": "H" 
			},
			{
				"x": 3.6597550944,
				"y": 0.0884472149,
				"z": 2.5088993947,
				"element": "H" 
			},
			{
				"x": 3.3041249081,
				"y": -0.0702512977,
				"z": 0.0718949407,
				"element": "H" 
			}
		],
		 "valence_orbital": [ 
			{
				"type": "occ",
				"energy": -0.29993,
				"method": "rhf"
			},
			{
				"type": "occ",
				"energy": -0.24535,
				"method": "rhf"
			},
			{
				"type": "occ",
				"energy": -0.23592,
				"method": "rhf"
			},
			{
				"type": "occ",
				"energy": -0.22871,
				"method": "rhf"
			},
			{
				"type": "occ",
				"energy": -0.19743,
				"method": "rhf"
			},
			{
				"type": "unocc",
				"energy": 0.00115,
				"method": "rhf"
			},
			{
				"type": "unocc",
				"energy": 0.01485,
				"method": "rhf"
			},
			{
				"type": "unocc",
				"energy": 0.03912,
				"method": "rhf"
			},
			{
				"type": "unocc",
				"energy": 0.08131,
				"method": "rhf"
			},
			{
				"type": "unocc",
				"energy": 0.08452,
				"method": "rhf"
			}
		],
		"cosmo_sigma_profile": { 
			"-0.025": 0.0,
			"-0.024": 0.0,
			"-0.023": 0.0,
			"-0.022": 0.0,
			"-0.021": 0.0,
			"-0.02": 0.0,
			"-0.019": 0.0,
			"-0.018": 0.0,
			"-0.017": 0.0,
			"-0.016": 0.0,
			"-0.015": 0.0,
			"-0.014": 0.0,
			"-0.013": 0.10507317354,
			"-0.012": 1.93978966079,
			"-0.011": 3.25409985251,
			"-0.01": 2.29719331038,
			"-0.009": 3.33027584977,
			"-0.008": 3.31622796613,
			"-0.007": 4.39392710168,
			"-0.006": 7.94872824807,
			"-0.005": 13.0671914161,
			"-0.004": 20.6214452411,
			"-0.003": 27.3764528703,
			"-0.002": 27.4221008603,
			"-0.001": 26.0804085978,
			"0.0": 22.9610722886,
			"0.001": 22.0925830482,
			"0.002": 17.1659099224,
			"0.003": 12.5311633974,
			"0.004": 9.41938944779,
			"0.005": 11.8127969848,
			"0.006": 8.30220022487,
			"0.007": 5.70304938521,
			"0.008": 2.38864375915,
			"0.009": 2.32498349837,
			"0.01": 1.30219288877,
			"0.011": 3.0741131167,
			"0.012": 1.82578114323,
			"0.013": 2.45600582578,
			"0.014": 3.93009094837,
			"0.015": 3.07369648201,
			"0.016": 0.274996240704,
			"0.017": 0.0,
			"0.018": 0.0,
			"0.019": 0.0,
			"0.02": 0.0,
			"0.021": 0.0,
			"0.022": 0.0,
			"0.023": 0.0,
			"0.024": 0.0,
			"0.025": 0.0
		}
	}
}
