{
	 "smiles": "NC1=NOC=N1", 
	 "Tm": 378.15, 
	 "num_atms": 9, 
	 "gaussian": { 
		 "optdone": 1, 
		 "sigma_profile": "yes", 
		 "theory": "DFT", 
		 "functional": "B3LYP", 
		 "basiset": "6-31G**", 
		 "properties": { 
			 "R2extent": 761.8136, 
			 "electric_dipole_moment_norm": 1.90978581522, 
			 "electric_quadrupole_moment_norm": 9.87021094911, 
			 "total_energy": -317.449763833, 
			 "HOMO_LUMO_gap": 0.22837, 
			 "cosmo_polarized_energy": -11.34, 
			 "cosmo_cavitation_energy": 13.66, 
			 "cosmo_dispersion_energy": -10.53, 
			 "cosmo_repulsion_energy": 0.92, 
			 "cosmo_total_nonelectrostatic_energy": 4.04, 
			 "SMD_solvation_energy": 1.26 
		},
		"coords": [
			{
				"x": -0.1306984234,
				"y": 1.7799864079,
				"z": -0.8417406916,
				"element": "N" 
			},
			{
				"x": -0.7258826451,
				"y": 1.1342518579,
				"z": 0.2087700024,
				"element": "C" 
			},
			{
				"x": -0.3944678831,
				"y": 1.3324077197,
				"z": 1.4690585197,
				"element": "N" 
			},
			{
				"x": -1.223538005,
				"y": 0.4011402053,
				"z": 2.1500906787,
				"element": "O" 
			},
			{
				"x": -1.9403780044,
				"y": -0.2134334531,
				"z": 1.2111383314,
				"element": "C" 
			},
			{
				"x": -1.7001541816,
				"y": 0.1744022043,
				"z": -0.0022937395,
				"element": "N" 
			},
			{
				"x": -0.6892891259,
				"y": 1.819436663,
				"z": -1.6813062062,
				"element": "H" 
			},
			{
				"x": 0.3588592012,
				"y": 2.6324700349,
				"z": -0.6121337505,
				"element": "H" 
			},
			{
				"x": -2.6449509328,
				"y": -0.9663616399,
				"z": 1.5386168555,
				"element": "H" 
			}
		],
		 "valence_orbital": [ 
			{
				"type": "occ",
				"energy": -0.37198,
				"method": "rhf"
			},
			{
				"type": "occ",
				"energy": -0.33972,
				"method": "rhf"
			},
			{
				"type": "occ",
				"energy": -0.30935,
				"method": "rhf"
			},
			{
				"type": "occ",
				"energy": -0.29801,
				"method": "rhf"
			},
			{
				"type": "occ",
				"energy": -0.24455,
				"method": "rhf"
			},
			{
				"type": "unocc",
				"energy": -0.01618,
				"method": "rhf"
			},
			{
				"type": "unocc",
				"energy": 0.05526,
				"method": "rhf"
			},
			{
				"type": "unocc",
				"energy": 0.07077,
				"method": "rhf"
			},
			{
				"type": "unocc",
				"energy": 0.10277,
				"method": "rhf"
			},
			{
				"type": "unocc",
				"energy": 0.12876,
				"method": "rhf"
			}
		],
		"cosmo_sigma_profile": { 
			"-0.025": 0.0,
			"-0.024": 0.0,
			"-0.023": 0.0,
			"-0.022": 0.0,
			"-0.021": 0.0,
			"-0.02": 0.0,
			"-0.019": 0.0,
			"-0.018": 0.0,
			"-0.017": 0.0,
			"-0.016": 0.0,
			"-0.015": 0.392692949786,
			"-0.014": 2.27588211147,
			"-0.013": 2.78577276314,
			"-0.012": 4.38182106901,
			"-0.011": 4.38466635211,
			"-0.01": 4.04866375091,
			"-0.009": 2.86417663323,
			"-0.008": 2.85209674849,
			"-0.007": 3.02285260268,
			"-0.006": 3.36701047948,
			"-0.005": 2.64195095607,
			"-0.004": 3.27296811531,
			"-0.003": 5.09001379608,
			"-0.002": 5.88453550015,
			"-0.001": 4.68565608759,
			"0.0": 4.203632747,
			"0.001": 4.17798851274,
			"0.002": 3.98990356879,
			"0.003": 3.34288835012,
			"0.004": 3.96208883165,
			"0.005": 6.50997182431,
			"0.006": 4.45167125408,
			"0.007": 6.12017755849,
			"0.008": 4.28319780051,
			"0.009": 3.1416185885,
			"0.01": 3.29645960941,
			"0.011": 3.67856702647,
			"0.012": 2.25517860637,
			"0.013": 2.19548044216,
			"0.014": 1.90514960889,
			"0.015": 0.101452594981,
			"0.016": 0.0,
			"0.017": 0.0,
			"0.018": 0.0,
			"0.019": 0.0,
			"0.02": 0.0,
			"0.021": 0.0,
			"0.022": 0.0,
			"0.023": 0.0,
			"0.024": 0.0,
			"0.025": 0.0
		}
	}
}
