{
	 "smiles": "CC1=CC(Br)=C(C(Br)=C1)S(Cl)(=O)=O", 
	 "Tm": 398.15, 
	 "num_atms": 18, 
	 "gaussian": { 
		 "optdone": 1, 
		 "sigma_profile": "yes", 
		 "theory": "DFT", 
		 "functional": "B3LYP", 
		 "basiset": "6-31G**", 
		 "properties": { 
			 "R2extent": 5799.9666, 
			 "electric_dipole_moment_norm": 6.4539469234, 
			 "electric_quadrupole_moment_norm": 6.03792921124, 
			 "total_energy": -6421.30232844, 
			 "HOMO_LUMO_gap": 0.17156, 
			 "cosmo_polarized_energy": -10.25, 
			 "cosmo_cavitation_energy": 29.56, 
			 "cosmo_dispersion_energy": -22.83, 
			 "cosmo_repulsion_energy": 1.75, 
			 "cosmo_total_nonelectrostatic_energy": 8.49, 
			 "SMD_solvation_energy": 1.99 
		},
		"coords": [
			{
				"x": 0.4718305794,
				"y": -3.165595006,
				"z": 0.8310635448,
				"element": "C" 
			},
			{
				"x": 0.1333263477,
				"y": -1.7996164352,
				"z": 0.2903751184,
				"element": "C" 
			},
			{
				"x": -0.8228959355,
				"y": -1.6462063817,
				"z": -0.7161554765,
				"element": "C" 
			},
			{
				"x": -1.1656343559,
				"y": -0.3878292451,
				"z": -1.1999110861,
				"element": "C" 
			},
			{
				"x": -2.4493329635,
				"y": -0.4000516509,
				"z": -2.6074397213,
				"element": "Br" 
			},
			{
				"x": -0.5564459982,
				"y": 0.779499021,
				"z": -0.6819059428,
				"element": "C" 
			},
			{
				"x": 0.4327283897,
				"y": 0.6199174352,
				"z": 0.3132441279,
				"element": "C" 
			},
			{
				"x": 1.4443901396,
				"y": 2.0148145608,
				"z": 1.1277815268,
				"element": "Br" 
			},
			{
				"x": 0.7550022315,
				"y": -0.654733024,
				"z": 0.7849096802,
				"element": "C" 
			},
			{
				"x": -1.0905546502,
				"y": 2.4111956313,
				"z": -1.2771494937,
				"element": "S" 
			},
			{
				"x": -0.2567866779,
				"y": 2.4176183181,
				"z": -3.2369411525,
				"element": "Cl" 
			},
			{
				"x": -2.5386260407,
				"y": 2.4122056231,
				"z": -1.4121475157,
				"element": "O" 
			},
			{
				"x": -0.4087360992,
				"y": 3.4778797603,
				"z": -0.5665239412,
				"element": "O" 
			},
			{
				"x": 0.4946319452,
				"y": -3.9134538544,
				"z": 0.0332026702,
				"element": "H" 
			},
			{
				"x": 1.4420846477,
				"y": -3.1671131237,
				"z": 1.3336179291,
				"element": "H" 
			},
			{
				"x": -0.2811801842,
				"y": -3.4881350779,
				"z": 1.5599290773,
				"element": "H" 
			},
			{
				"x": -1.311666455,
				"y": -2.5154090492,
				"z": -1.1410845947,
				"element": "H" 
			},
			{
				"x": 1.5143650795,
				"y": -0.7396875016,
				"z": 1.5533352497,
				"element": "H" 
			}
		],
		 "valence_orbital": [ 
			{
				"type": "occ",
				"energy": -0.30787,
				"method": "rhf"
			},
			{
				"type": "occ",
				"energy": -0.2984,
				"method": "rhf"
			},
			{
				"type": "occ",
				"energy": -0.28857,
				"method": "rhf"
			},
			{
				"type": "occ",
				"energy": -0.28507,
				"method": "rhf"
			},
			{
				"type": "occ",
				"energy": -0.26443,
				"method": "rhf"
			},
			{
				"type": "unocc",
				"energy": -0.09287,
				"method": "rhf"
			},
			{
				"type": "unocc",
				"energy": -0.06339,
				"method": "rhf"
			},
			{
				"type": "unocc",
				"energy": -0.05106,
				"method": "rhf"
			},
			{
				"type": "unocc",
				"energy": -0.03248,
				"method": "rhf"
			},
			{
				"type": "unocc",
				"energy": 0.00522,
				"method": "rhf"
			}
		],
		"cosmo_sigma_profile": { 
			"-0.025": 0.0,
			"-0.024": 0.0,
			"-0.023": 0.0,
			"-0.022": 0.0,
			"-0.021": 0.0,
			"-0.02": 0.0,
			"-0.019": 0.0,
			"-0.018": 0.0,
			"-0.017": 0.0,
			"-0.016": 0.0,
			"-0.015": 0.0,
			"-0.014": 0.0,
			"-0.013": 0.0,
			"-0.012": 0.0,
			"-0.011": 0.0,
			"-0.01": 0.0,
			"-0.009": 0.314032042682,
			"-0.008": 3.99498206211,
			"-0.007": 6.08982956478,
			"-0.006": 10.7629682656,
			"-0.005": 13.3862289799,
			"-0.004": 14.845366349,
			"-0.003": 16.5420279233,
			"-0.002": 24.4692242145,
			"-0.001": 29.3928811974,
			"0.0": 22.1338243729,
			"0.001": 15.0318670049,
			"0.002": 20.3679520346,
			"0.003": 26.2717088386,
			"0.004": 11.7876572104,
			"0.005": 4.35049544016,
			"0.006": 5.05253910183,
			"0.007": 7.69418735069,
			"0.008": 11.0703255156,
			"0.009": 2.26710030213,
			"0.01": 0.0,
			"0.011": 0.0,
			"0.012": 0.0,
			"0.013": 0.0,
			"0.014": 0.0,
			"0.015": 0.0,
			"0.016": 0.0,
			"0.017": 0.0,
			"0.018": 0.0,
			"0.019": 0.0,
			"0.02": 0.0,
			"0.021": 0.0,
			"0.022": 0.0,
			"0.023": 0.0,
			"0.024": 0.0,
			"0.025": 0.0
		}
	}
}
