{
	 "smiles": "COC1=CC=CC=C1C(=S)N1CCCCC1", 
	 "Tm": 358.15, 
	 "num_atms": 33, 
	 "gaussian": { 
		 "optdone": 1, 
		 "sigma_profile": "yes", 
		 "theory": "DFT", 
		 "functional": "B3LYP", 
		 "basiset": "6-31G**", 
		 "properties": { 
			 "R2extent": 4539.558, 
			 "electric_dipole_moment_norm": 5.57616699983, 
			 "electric_quadrupole_moment_norm": 20.8011989703, 
			 "total_energy": -1033.78594782, 
			 "HOMO_LUMO_gap": 0.16149, 
			 "cosmo_polarized_energy": -15.22, 
			 "cosmo_cavitation_energy": 35.36, 
			 "cosmo_dispersion_energy": -24.92, 
			 "cosmo_repulsion_energy": 1.92, 
			 "cosmo_total_nonelectrostatic_energy": 12.35, 
			 "SMD_solvation_energy": 4.61 
		},
		"coords": [
			{
				"x": -0.131635185,
				"y": 3.9831373987,
				"z": 1.6928791577,
				"element": "C" 
			},
			{
				"x": 0.1460410347,
				"y": 2.69455378,
				"z": 1.1652830143,
				"element": "O" 
			},
			{
				"x": -0.2199515997,
				"y": 1.5994849423,
				"z": 1.8990671809,
				"element": "C" 
			},
			{
				"x": -1.0037574181,
				"y": 1.6617803905,
				"z": 3.0561794001,
				"element": "C" 
			},
			{
				"x": -1.3387211866,
				"y": 0.4881691809,
				"z": 3.7361290659,
				"element": "C" 
			},
			{
				"x": -0.8896184327,
				"y": -0.7471793782,
				"z": 3.2755963599,
				"element": "C" 
			},
			{
				"x": -0.0937232278,
				"y": -0.80353053,
				"z": 2.1306230859,
				"element": "C" 
			},
			{
				"x": 0.243305607,
				"y": 0.3534232635,
				"z": 1.4225043938,
				"element": "C" 
			},
			{
				"x": 1.1653946915,
				"y": 0.2670480464,
				"z": 0.2410441157,
				"element": "C" 
			},
			{
				"x": 2.7769633276,
				"y": -0.1163396661,
				"z": 0.5076839545,
				"element": "S" 
			},
			{
				"x": 0.6501098841,
				"y": 0.4919458614,
				"z": -0.9850510648,
				"element": "N" 
			},
			{
				"x": 1.5310072567,
				"y": 0.4602663831,
				"z": -2.1679751877,
				"element": "C" 
			},
			{
				"x": 0.8117180058,
				"y": 0.9809654141,
				"z": -3.418728093,
				"element": "C" 
			},
			{
				"x": 0.0343635238,
				"y": 2.2637951442,
				"z": -3.0979262205,
				"element": "C" 
			},
			{
				"x": -1.0407846145,
				"y": 1.9997287562,
				"z": -2.0122505055,
				"element": "C" 
			},
			{
				"x": -0.7794145414,
				"y": 0.680154401,
				"z": -1.265856311,
				"element": "C" 
			},
			{
				"x": -1.210775063,
				"y": 4.1742154818,
				"z": 1.7577690475,
				"element": "H" 
			},
			{
				"x": 0.3170444799,
				"y": 4.1148488174,
				"z": 2.6849740226,
				"element": "H" 
			},
			{
				"x": 0.3161768506,
				"y": 4.6948088716,
				"z": 0.997662868,
				"element": "H" 
			},
			{
				"x": -1.3542299052,
				"y": 2.6155798373,
				"z": 3.4321622475,
				"element": "H" 
			},
			{
				"x": -1.9496964159,
				"y": 0.5505765937,
				"z": 4.6320323856,
				"element": "H" 
			},
			{
				"x": -1.1425597484,
				"y": -1.6591845934,
				"z": 3.806885111,
				"element": "H" 
			},
			{
				"x": 0.2930613822,
				"y": -1.7543645894,
				"z": 1.7778915744,
				"element": "H" 
			},
			{
				"x": 1.9113555693,
				"y": -0.5593316016,
				"z": -2.3093837842,
				"element": "H" 
			},
			{
				"x": 2.4040096883,
				"y": 1.0808063824,
				"z": -1.9408628669,
				"element": "H" 
			},
			{
				"x": 1.5660299867,
				"y": 1.1637923303,
				"z": -4.1912372433,
				"element": "H" 
			},
			{
				"x": 0.1345872865,
				"y": 0.219482663,
				"z": -3.8253486809,
				"element": "H" 
			},
			{
				"x": 0.7444987085,
				"y": 3.0172107093,
				"z": -2.7369089451,
				"element": "H" 
			},
			{
				"x": -0.4226838967,
				"y": 2.6749749786,
				"z": -4.0037915053,
				"element": "H" 
			},
			{
				"x": -1.0572193053,
				"y": 2.8199266563,
				"z": -1.2901378185,
				"element": "H" 
			},
			{
				"x": -2.0401991136,
				"y": 1.9397164,
				"z": -2.4586722794,
				"element": "H" 
			},
			{
				"x": -1.3332774588,
				"y": 0.6395013341,
				"z": -0.3303477601,
				"element": "H" 
			},
			{
				"x": -1.1169201708,
				"y": -0.1694636593,
				"z": -1.874588719,
				"element": "H" 
			}
		],
		 "valence_orbital": [ 
			{
				"type": "occ",
				"energy": -0.2996,
				"method": "rhf"
			},
			{
				"type": "occ",
				"energy": -0.25387,
				"method": "rhf"
			},
			{
				"type": "occ",
				"energy": -0.22484,
				"method": "rhf"
			},
			{
				"type": "occ",
				"energy": -0.20949,
				"method": "rhf"
			},
			{
				"type": "occ",
				"energy": -0.18551,
				"method": "rhf"
			},
			{
				"type": "unocc",
				"energy": -0.02402,
				"method": "rhf"
			},
			{
				"type": "unocc",
				"energy": 0.00075,
				"method": "rhf"
			},
			{
				"type": "unocc",
				"energy": 0.01054,
				"method": "rhf"
			},
			{
				"type": "unocc",
				"energy": 0.07264,
				"method": "rhf"
			},
			{
				"type": "unocc",
				"energy": 0.08714,
				"method": "rhf"
			}
		],
		"cosmo_sigma_profile": { 
			"-0.025": 0.0,
			"-0.024": 0.0,
			"-0.023": 0.0,
			"-0.022": 0.0,
			"-0.021": 0.0,
			"-0.02": 0.0,
			"-0.019": 0.0,
			"-0.018": 0.0,
			"-0.017": 0.0,
			"-0.016": 0.0,
			"-0.015": 0.0,
			"-0.014": 0.0,
			"-0.013": 0.0,
			"-0.012": 0.0,
			"-0.011": 0.0,
			"-0.01": 0.0,
			"-0.009": 0.0,
			"-0.008": 0.0,
			"-0.007": 0.995326579341,
			"-0.006": 10.9180886879,
			"-0.005": 21.9557083144,
			"-0.004": 33.9731933918,
			"-0.003": 39.4782846729,
			"-0.002": 33.0036864328,
			"-0.001": 25.9750431406,
			"0.0": 20.2001248911,
			"0.001": 11.5533049792,
			"0.002": 8.53780958321,
			"0.003": 8.89241567664,
			"0.004": 10.3154289605,
			"0.005": 11.5395883139,
			"0.006": 7.83662504282,
			"0.007": 5.94122034267,
			"0.008": 7.32780161382,
			"0.009": 7.57188158944,
			"0.01": 6.56459557821,
			"0.011": 4.21459769989,
			"0.012": 2.10736594549,
			"0.013": 1.49172576754,
			"0.014": 0.276786851808,
			"0.015": 0.0,
			"0.016": 0.0,
			"0.017": 0.0,
			"0.018": 0.0,
			"0.019": 0.0,
			"0.02": 0.0,
			"0.021": 0.0,
			"0.022": 0.0,
			"0.023": 0.0,
			"0.024": 0.0,
			"0.025": 0.0
		}
	}
}
