{
	 "smiles": "OC(=O)C1=CC=C2NC3=C(CCCC3)C2=C1", 
	 "Tm": 540.15, 
	 "num_atms": 29, 
	 "gaussian": { 
		 "optdone": 1, 
		 "sigma_profile": "yes", 
		 "theory": "DFT", 
		 "functional": "B3LYP", 
		 "basiset": "6-31G**", 
		 "properties": { 
			 "R2extent": 4562.1036, 
			 "electric_dipole_moment_norm": 7.73711768813, 
			 "electric_quadrupole_moment_norm": 32.6065367899, 
			 "total_energy": -708.454765704, 
			 "HOMO_LUMO_gap": 0.17652, 
			 "cosmo_polarized_energy": -18.29, 
			 "cosmo_cavitation_energy": 31.52, 
			 "cosmo_dispersion_energy": -23.56, 
			 "cosmo_repulsion_energy": 1.83, 
			 "cosmo_total_nonelectrostatic_energy": 9.78, 
			 "SMD_solvation_energy": 5.12 
		},
		"coords": [
			{
				"x": -1.7325401135,
				"y": 4.3477504225,
				"z": 1.4892057878,
				"element": "O" 
			},
			{
				"x": -0.9079832999,
				"y": 4.3218634087,
				"z": 0.4022368029,
				"element": "C" 
			},
			{
				"x": -0.5435308953,
				"y": 5.3637985062,
				"z": -0.0937663234,
				"element": "O" 
			},
			{
				"x": -0.511210444,
				"y": 2.973988523,
				"z": -0.1063640867,
				"element": "C" 
			},
			{
				"x": -0.0193832098,
				"y": 2.9058509526,
				"z": -1.4311715226,
				"element": "C" 
			},
			{
				"x": 0.3778730539,
				"y": 1.7025406041,
				"z": -1.9936775745,
				"element": "C" 
			},
			{
				"x": 0.2933998936,
				"y": 0.5531570266,
				"z": -1.2004116747,
				"element": "C" 
			},
			{
				"x": 0.6202090455,
				"y": -0.7548186396,
				"z": -1.4800180399,
				"element": "N" 
			},
			{
				"x": 0.3814228487,
				"y": -1.5391716307,
				"z": -0.3590163196,
				"element": "C" 
			},
			{
				"x": -0.1078463672,
				"y": -0.7537460221,
				"z": 0.654767222,
				"element": "C" 
			},
			{
				"x": -0.4710294451,
				"y": -1.3024078972,
				"z": 2.0061837678,
				"element": "C" 
			},
			{
				"x": -0.5843778295,
				"y": -2.8394565066,
				"z": 1.9500531667,
				"element": "C" 
			},
			{
				"x": 0.5858202833,
				"y": -3.4738518557,
				"z": 1.1787858914,
				"element": "C" 
			},
			{
				"x": 0.6154379104,
				"y": -3.0158985165,
				"z": -0.2941453819,
				"element": "C" 
			},
			{
				"x": -0.1752504093,
				"y": 0.5919608295,
				"z": 0.1459345734,
				"element": "C" 
			},
			{
				"x": -0.5780030922,
				"y": 1.8211879509,
				"z": 0.6833407405,
				"element": "C" 
			},
			{
				"x": -2.0765085035,
				"y": 3.4595311221,
				"z": 1.6557842779,
				"element": "H" 
			},
			{
				"x": 0.036541481,
				"y": 3.8287664585,
				"z": -1.9971886592,
				"element": "H" 
			},
			{
				"x": 0.7463133313,
				"y": 1.6589030871,
				"z": -3.0146496568,
				"element": "H" 
			},
			{
				"x": 0.9941770227,
				"y": -1.0885637371,
				"z": -2.353917956,
				"element": "H" 
			},
			{
				"x": -1.4175754669,
				"y": -0.872687726,
				"z": 2.358990956,
				"element": "H" 
			},
			{
				"x": 0.2859300562,
				"y": -1.0143204325,
				"z": 2.7508995683,
				"element": "H" 
			},
			{
				"x": -0.6279806304,
				"y": -3.2474934091,
				"z": 2.9658170701,
				"element": "H" 
			},
			{
				"x": -1.5272269372,
				"y": -3.1139350236,
				"z": 1.4585381509,
				"element": "H" 
			},
			{
				"x": 1.5305673861,
				"y": -3.1912689344,
				"z": 1.6607381966,
				"element": "H" 
			},
			{
				"x": 0.5225224846,
				"y": -4.5664455737,
				"z": 1.2220154662,
				"element": "H" 
			},
			{
				"x": -0.1585743587,
				"y": -3.5476868655,
				"z": -0.867787554,
				"element": "H" 
			},
			{
				"x": 1.5756105236,
				"y": -3.2815873525,
				"z": -0.7563572337,
				"element": "H" 
			},
			{
				"x": -0.8941043184,
				"y": 1.868841231,
				"z": 1.7231803446,
				"element": "H" 
			}
		],
		 "valence_orbital": [ 
			{
				"type": "occ",
				"energy": -0.29943,
				"method": "rhf"
			},
			{
				"type": "occ",
				"energy": -0.28037,
				"method": "rhf"
			},
			{
				"type": "occ",
				"energy": -0.25836,
				"method": "rhf"
			},
			{
				"type": "occ",
				"energy": -0.22935,
				"method": "rhf"
			},
			{
				"type": "occ",
				"energy": -0.20794,
				"method": "rhf"
			},
			{
				"type": "unocc",
				"energy": -0.03142,
				"method": "rhf"
			},
			{
				"type": "unocc",
				"energy": -0.01114,
				"method": "rhf"
			},
			{
				"type": "unocc",
				"energy": 0.05467,
				"method": "rhf"
			},
			{
				"type": "unocc",
				"energy": 0.06838,
				"method": "rhf"
			},
			{
				"type": "unocc",
				"energy": 0.07356,
				"method": "rhf"
			}
		],
		"cosmo_sigma_profile": { 
			"-0.025": 0.0,
			"-0.024": 0.0,
			"-0.023": 0.0,
			"-0.022": 0.0,
			"-0.021": 0.0,
			"-0.02": 0.0,
			"-0.019": 0.0,
			"-0.018": 0.314167397274,
			"-0.017": 0.673356781679,
			"-0.016": 0.92740539492,
			"-0.015": 2.58777910757,
			"-0.014": 2.20465416309,
			"-0.013": 2.18318808496,
			"-0.012": 2.27139764507,
			"-0.011": 2.12010138025,
			"-0.01": 2.7446936096,
			"-0.009": 2.25811795337,
			"-0.008": 2.60473191322,
			"-0.007": 3.81008318351,
			"-0.006": 5.65215732191,
			"-0.005": 7.13672801098,
			"-0.004": 10.0042163022,
			"-0.003": 20.5945946204,
			"-0.002": 27.9496026989,
			"-0.001": 28.8339796925,
			"0.0": 23.610033183,
			"0.001": 15.2065646932,
			"0.002": 10.0208572415,
			"0.003": 11.0630454469,
			"0.004": 16.8291083867,
			"0.005": 16.1079925574,
			"0.006": 3.95918911406,
			"0.007": 2.56659269472,
			"0.008": 2.62231712447,
			"0.009": 3.31690287481,
			"0.01": 3.63010307971,
			"0.011": 4.9443044607,
			"0.012": 5.90240949827,
			"0.013": 3.74085614496,
			"0.014": 0.69339564524,
			"0.015": 0.0,
			"0.016": 0.0,
			"0.017": 0.0,
			"0.018": 0.0,
			"0.019": 0.0,
			"0.02": 0.0,
			"0.021": 0.0,
			"0.022": 0.0,
			"0.023": 0.0,
			"0.024": 0.0,
			"0.025": 0.0
		}
	}
}
