{
	 "smiles": "COCCOC1=NC=C(C=C1)C#N", 
	 "Tm": 313.15, 
	 "num_atms": 23, 
	 "gaussian": { 
		 "optdone": 1, 
		 "sigma_profile": "yes", 
		 "theory": "DFT", 
		 "functional": "B3LYP", 
		 "basiset": "6-31G**", 
		 "properties": { 
			 "R2extent": 3630.0165, 
			 "electric_dipole_moment_norm": 4.17084337035, 
			 "electric_quadrupole_moment_norm": 26.2010476361, 
			 "total_energy": -608.894848345, 
			 "HOMO_LUMO_gap": 0.20041, 
			 "cosmo_polarized_energy": -12.15, 
			 "cosmo_cavitation_energy": 28.72, 
			 "cosmo_dispersion_energy": -20.24, 
			 "cosmo_repulsion_energy": 1.64, 
			 "cosmo_total_nonelectrostatic_energy": 10.12, 
			 "SMD_solvation_energy": 6.65 
		},
		"coords": [
			{
				"x": 0.5138748717,
				"y": 0.3074727468,
				"z": -3.6951760548,
				"element": "C" 
			},
			{
				"x": -0.5920862015,
				"y": 0.2090155634,
				"z": -2.8233175163,
				"element": "O" 
			},
			{
				"x": -0.5562779381,
				"y": 1.1651714085,
				"z": -1.7859356083,
				"element": "C" 
			},
			{
				"x": -1.7556493525,
				"y": 0.953453793,
				"z": -0.8798851409,
				"element": "C" 
			},
			{
				"x": -1.7086599165,
				"y": -0.3089499125,
				"z": -0.1868954185,
				"element": "O" 
			},
			{
				"x": -0.9956053017,
				"y": -0.4009402322,
				"z": 0.9465458487,
				"element": "C" 
			},
			{
				"x": -0.3518400446,
				"y": 0.6662444457,
				"z": 1.4205184857,
				"element": "N" 
			},
			{
				"x": 0.3319825887,
				"y": 0.5303077741,
				"z": 2.5600351785,
				"element": "C" 
			},
			{
				"x": 0.4103689343,
				"y": -0.6707540959,
				"z": 3.2748866718,
				"element": "C" 
			},
			{
				"x": -0.2745620977,
				"y": -1.7920237996,
				"z": 2.7556029447,
				"element": "C" 
			},
			{
				"x": -0.9855096461,
				"y": -1.6615807583,
				"z": 1.5812271924,
				"element": "C" 
			},
			{
				"x": 1.163324291,
				"y": -0.7498187993,
				"z": 4.4869022806,
				"element": "C" 
			},
			{
				"x": 1.7770124173,
				"y": -0.8121929125,
				"z": 5.4738276522,
				"element": "N" 
			},
			{
				"x": 1.467346119,
				"y": 0.1495258512,
				"z": -3.1668841541,
				"element": "H" 
			},
			{
				"x": 0.5568550032,
				"y": 1.2888108452,
				"z": -4.194500275,
				"element": "H" 
			},
			{
				"x": 0.3982065582,
				"y": -0.4692962449,
				"z": -4.4546160553,
				"element": "H" 
			},
			{
				"x": 0.3749611622,
				"y": 1.090649147,
				"z": -1.2040841198,
				"element": "H" 
			},
			{
				"x": -0.6094132649,
				"y": 2.1920147823,
				"z": -2.1907413489,
				"element": "H" 
			},
			{
				"x": -1.827429476,
				"y": 1.7717184083,
				"z": -0.1598161124,
				"element": "H" 
			},
			{
				"x": -2.6664791788,
				"y": 0.8986731401,
				"z": -1.4797645399,
				"element": "H" 
			},
			{
				"x": 0.8465678466,
				"y": 1.4156365052,
				"z": 2.9259907937,
				"element": "H" 
			},
			{
				"x": -0.2372489669,
				"y": -2.7407113795,
				"z": 3.2807290057,
				"element": "H" 
			},
			{
				"x": -1.5299384069,
				"y": -2.4869262762,
				"z": 1.1381502902,
				"element": "H" 
			}
		],
		 "valence_orbital": [ 
			{
				"type": "occ",
				"energy": -0.32137,
				"method": "rhf"
			},
			{
				"type": "occ",
				"energy": -0.30733,
				"method": "rhf"
			},
			{
				"type": "occ",
				"energy": -0.28806,
				"method": "rhf"
			},
			{
				"type": "occ",
				"energy": -0.26266,
				"method": "rhf"
			},
			{
				"type": "occ",
				"energy": -0.24816,
				"method": "rhf"
			},
			{
				"type": "unocc",
				"energy": -0.04775,
				"method": "rhf"
			},
			{
				"type": "unocc",
				"energy": -0.04378,
				"method": "rhf"
			},
			{
				"type": "unocc",
				"energy": 0.03211,
				"method": "rhf"
			},
			{
				"type": "unocc",
				"energy": 0.07412,
				"method": "rhf"
			},
			{
				"type": "unocc",
				"energy": 0.08643,
				"method": "rhf"
			}
		],
		"cosmo_sigma_profile": { 
			"-0.025": 0.0,
			"-0.024": 0.0,
			"-0.023": 0.0,
			"-0.022": 0.0,
			"-0.021": 0.0,
			"-0.02": 0.0,
			"-0.019": 0.0,
			"-0.018": 0.0,
			"-0.017": 0.0,
			"-0.016": 0.0,
			"-0.015": 0.0,
			"-0.014": 0.0,
			"-0.013": 0.0,
			"-0.012": 0.0,
			"-0.011": 0.0,
			"-0.01": 0.019378403648,
			"-0.009": 2.59841746584,
			"-0.008": 6.4245581471,
			"-0.007": 6.51221232163,
			"-0.006": 9.28663827816,
			"-0.005": 14.6620319586,
			"-0.004": 20.545534079,
			"-0.003": 24.1687433308,
			"-0.002": 27.2119895008,
			"-0.001": 22.294926876,
			"0.0": 16.647835487,
			"0.001": 11.9534253377,
			"0.002": 7.5194051216,
			"0.003": 5.61895958934,
			"0.004": 5.8618738307,
			"0.005": 5.79078468795,
			"0.006": 6.67506414142,
			"0.007": 4.70825921566,
			"0.008": 6.9276282442,
			"0.009": 6.86523561697,
			"0.01": 5.43957603239,
			"0.011": 4.79804581036,
			"0.012": 4.1144264042,
			"0.013": 2.83998077664,
			"0.014": 0.0485218911983,
			"0.015": 0.0,
			"0.016": 0.0,
			"0.017": 0.0,
			"0.018": 0.0,
			"0.019": 0.0,
			"0.02": 0.0,
			"0.021": 0.0,
			"0.022": 0.0,
			"0.023": 0.0,
			"0.024": 0.0,
			"0.025": 0.0
		}
	}
}
