{
	 "smiles": "COC1=CC=C(C(N)=C1)N(=O)=O", 
	 "Tm": 404.15, 
	 "num_atms": 20, 
	 "gaussian": { 
		 "optdone": 1, 
		 "sigma_profile": "yes", 
		 "theory": "DFT", 
		 "functional": "B3LYP", 
		 "basiset": "6-31G**", 
		 "properties": { 
			 "R2extent": 2537.0968, 
			 "electric_dipole_moment_norm": 6.35379215272, 
			 "electric_quadrupole_moment_norm": 5.76143611698, 
			 "total_energy": -606.639922339, 
			 "HOMO_LUMO_gap": 0.14896, 
			 "cosmo_polarized_energy": -13.86, 
			 "cosmo_cavitation_energy": 24.26, 
			 "cosmo_dispersion_energy": -18.42, 
			 "cosmo_repulsion_energy": 1.46, 
			 "cosmo_total_nonelectrostatic_energy": 7.3, 
			 "SMD_solvation_energy": 7.01 
		},
		"coords": [
			{
				"x": 0.8795106007,
				"y": 3.4879478491,
				"z": -3.1069378537,
				"element": "C" 
			},
			{
				"x": 1.6770574094,
				"y": 2.3714415317,
				"z": -2.7347238762,
				"element": "O" 
			},
			{
				"x": 1.1855472438,
				"y": 1.4878036998,
				"z": -1.8324903701,
				"element": "C" 
			},
			{
				"x": 2.0456236384,
				"y": 0.4081240548,
				"z": -1.5209236941,
				"element": "C" 
			},
			{
				"x": 1.6270036035,
				"y": -0.5355832318,
				"z": -0.6152298307,
				"element": "C" 
			},
			{
				"x": 0.365042271,
				"y": -0.4488043789,
				"z": 0.0053273116,
				"element": "C" 
			},
			{
				"x": -0.5137892107,
				"y": 0.6317150883,
				"z": -0.2963548554,
				"element": "C" 
			},
			{
				"x": -1.7387515869,
				"y": 0.7733151728,
				"z": 0.2658181625,
				"element": "N" 
			},
			{
				"x": -0.0627531527,
				"y": 1.5944510762,
				"z": -1.2334494904,
				"element": "C" 
			},
			{
				"x": 0.0158162089,
				"y": -1.485645847,
				"z": 0.9395979485,
				"element": "N" 
			},
			{
				"x": -1.0958729282,
				"y": -1.4422486377,
				"z": 1.509211583,
				"element": "O" 
			},
			{
				"x": 0.8277298757,
				"y": -2.3903216187,
				"z": 1.1511543702,
				"element": "O" 
			},
			{
				"x": 1.4703247034,
				"y": 4.049725296,
				"z": -3.8312262115,
				"element": "H" 
			},
			{
				"x": -0.0610127872,
				"y": 3.1707310386,
				"z": -3.5738163748,
				"element": "H" 
			},
			{
				"x": 0.6587201483,
				"y": 4.1282126022,
				"z": -2.2440957568,
				"element": "H" 
			},
			{
				"x": 3.0137701608,
				"y": 0.3507617583,
				"z": -2.0037050253,
				"element": "H" 
			},
			{
				"x": 2.2553946299,
				"y": -1.376205361,
				"z": -0.3505007302,
				"element": "H" 
			},
			{
				"x": -2.3217114425,
				"y": 1.553430069,
				"z": 0.0154048158,
				"element": "H" 
			},
			{
				"x": -2.0391847311,
				"y": 0.0725530522,
				"z": 0.9293348723,
				"element": "H" 
			},
			{
				"x": -0.7253646545,
				"y": 2.4190967861,
				"z": -1.4680949948,
				"element": "H" 
			}
		],
		 "valence_orbital": [ 
			{
				"type": "occ",
				"energy": -0.29479,
				"method": "rhf"
			},
			{
				"type": "occ",
				"energy": -0.29124,
				"method": "rhf"
			},
			{
				"type": "occ",
				"energy": -0.2746,
				"method": "rhf"
			},
			{
				"type": "occ",
				"energy": -0.24783,
				"method": "rhf"
			},
			{
				"type": "occ",
				"energy": -0.21896,
				"method": "rhf"
			},
			{
				"type": "unocc",
				"energy": -0.07,
				"method": "rhf"
			},
			{
				"type": "unocc",
				"energy": -0.00204,
				"method": "rhf"
			},
			{
				"type": "unocc",
				"energy": 0.02431,
				"method": "rhf"
			},
			{
				"type": "unocc",
				"energy": 0.07208,
				"method": "rhf"
			},
			{
				"type": "unocc",
				"energy": 0.08809,
				"method": "rhf"
			}
		],
		"cosmo_sigma_profile": { 
			"-0.025": 0.0,
			"-0.024": 0.0,
			"-0.023": 0.0,
			"-0.022": 0.0,
			"-0.021": 0.0,
			"-0.02": 0.0,
			"-0.019": 0.0,
			"-0.018": 0.0,
			"-0.017": 0.0,
			"-0.016": 0.0,
			"-0.015": 0.322653364294,
			"-0.014": 1.76981435684,
			"-0.013": 1.11822294804,
			"-0.012": 1.51682829196,
			"-0.011": 1.50838944267,
			"-0.01": 2.13163237691,
			"-0.009": 2.64248033391,
			"-0.008": 2.52107012544,
			"-0.007": 5.03873794213,
			"-0.006": 12.6394668649,
			"-0.005": 12.9104917324,
			"-0.004": 13.7322346189,
			"-0.003": 12.4290741682,
			"-0.002": 9.10143517212,
			"-0.001": 10.5766972448,
			"0.0": 10.695489561,
			"0.001": 13.8738940143,
			"0.002": 18.2399445391,
			"0.003": 14.5490703011,
			"0.004": 8.24657996093,
			"0.005": 5.24446477975,
			"0.006": 3.87978952393,
			"0.007": 4.87322206755,
			"0.008": 5.19526217931,
			"0.009": 8.47281249557,
			"0.01": 4.32935281539,
			"0.011": 3.9260945518,
			"0.012": 1.92617224804,
			"0.013": 0.00978472471744,
			"0.014": 0.0,
			"0.015": 0.0,
			"0.016": 0.0,
			"0.017": 0.0,
			"0.018": 0.0,
			"0.019": 0.0,
			"0.02": 0.0,
			"0.021": 0.0,
			"0.022": 0.0,
			"0.023": 0.0,
			"0.024": 0.0,
			"0.025": 0.0
		}
	}
}
