{
	 "smiles": "CNC(=S)N(C)C", 
	 "Tm": 399.15, 
	 "num_atms": 17, 
	 "gaussian": { 
		 "optdone": 1, 
		 "sigma_profile": "yes", 
		 "theory": "DFT", 
		 "functional": "B3LYP", 
		 "basiset": "6-31G**", 
		 "properties": { 
			 "R2extent": 1407.6184, 
			 "electric_dipole_moment_norm": 5.1467890903, 
			 "electric_quadrupole_moment_norm": 11.3772470541, 
			 "total_energy": -666.142570346, 
			 "HOMO_LUMO_gap": 0.18912, 
			 "cosmo_polarized_energy": -13.56, 
			 "cosmo_cavitation_energy": 20.84, 
			 "cosmo_dispersion_energy": -15.74, 
			 "cosmo_repulsion_energy": 1.27, 
			 "cosmo_total_nonelectrostatic_energy": 6.37, 
			 "SMD_solvation_energy": 2.48 
		},
		"coords": [
			{
				"x": 2.3430643206,
				"y": 0.6317594869,
				"z": -2.022010136,
				"element": "C" 
			},
			{
				"x": 2.5796087597,
				"y": -0.0904138884,
				"z": -0.7685017145,
				"element": "N" 
			},
			{
				"x": 1.6357169653,
				"y": -0.2219265171,
				"z": 0.2275005852,
				"element": "C" 
			},
			{
				"x": 2.0860887532,
				"y": -0.0698279232,
				"z": 1.8452956841,
				"element": "S" 
			},
			{
				"x": 0.3614985903,
				"y": -0.4865406037,
				"z": -0.1908488416,
				"element": "N" 
			},
			{
				"x": -0.7483615336,
				"y": -0.4329620642,
				"z": 0.7542911627,
				"element": "C" 
			},
			{
				"x": 0.0939216708,
				"y": -1.2601728042,
				"z": -1.4047733615,
				"element": "C" 
			},
			{
				"x": 1.4599252299,
				"y": 1.2725530692,
				"z": -1.9388314116,
				"element": "H" 
			},
			{
				"x": 2.2046718557,
				"y": -0.038613918,
				"z": -2.8776132152,
				"element": "H" 
			},
			{
				"x": 3.207062801,
				"y": 1.2676420184,
				"z": -2.2304840248,
				"element": "H" 
			},
			{
				"x": 3.4942382772,
				"y": 0.0487918156,
				"z": -0.362348997,
				"element": "H" 
			},
			{
				"x": -0.8567786888,
				"y": -1.3770403605,
				"z": 1.3039934314,
				"element": "H" 
			},
			{
				"x": -0.5790121559,
				"y": 0.3633205395,
				"z": 1.4774466791,
				"element": "H" 
			},
			{
				"x": -1.6695472801,
				"y": -0.236425703,
				"z": 0.1965752685,
				"element": "H" 
			},
			{
				"x": 1.0236501627,
				"y": -1.6618589792,
				"z": -1.8062146135,
				"element": "H" 
			},
			{
				"x": -0.4047992021,
				"y": -0.6615885942,
				"z": -2.1767833155,
				"element": "H" 
			},
			{
				"x": -0.5579485259,
				"y": -2.1042955742,
				"z": -1.1530931797,
				"element": "H" 
			}
		],
		 "valence_orbital": [ 
			{
				"type": "occ",
				"energy": -0.35447,
				"method": "rhf"
			},
			{
				"type": "occ",
				"energy": -0.3447,
				"method": "rhf"
			},
			{
				"type": "occ",
				"energy": -0.24841,
				"method": "rhf"
			},
			{
				"type": "occ",
				"energy": -0.21087,
				"method": "rhf"
			},
			{
				"type": "occ",
				"energy": -0.19305,
				"method": "rhf"
			},
			{
				"type": "unocc",
				"energy": -0.00393,
				"method": "rhf"
			},
			{
				"type": "unocc",
				"energy": 0.06927,
				"method": "rhf"
			},
			{
				"type": "unocc",
				"energy": 0.08927,
				"method": "rhf"
			},
			{
				"type": "unocc",
				"energy": 0.11175,
				"method": "rhf"
			},
			{
				"type": "unocc",
				"energy": 0.12143,
				"method": "rhf"
			}
		],
		"cosmo_sigma_profile": { 
			"-0.025": 0.0,
			"-0.024": 0.0,
			"-0.023": 0.0,
			"-0.022": 0.0,
			"-0.021": 0.0,
			"-0.02": 0.0,
			"-0.019": 0.0,
			"-0.018": 0.0,
			"-0.017": 0.0,
			"-0.016": 0.0,
			"-0.015": 0.0,
			"-0.014": 0.0,
			"-0.013": 0.670573859703,
			"-0.012": 0.837129889432,
			"-0.011": 1.16741277374,
			"-0.01": 0.943920388232,
			"-0.009": 0.852446391372,
			"-0.008": 0.978356548843,
			"-0.007": 1.52843919479,
			"-0.006": 6.4423814636,
			"-0.005": 16.8258116035,
			"-0.004": 22.5141490675,
			"-0.003": 22.569341422,
			"-0.002": 21.4992567255,
			"-0.001": 9.21247043012,
			"0.0": 5.22620033461,
			"0.001": 4.39307026697,
			"0.002": 4.3651296078,
			"0.003": 3.1590404849,
			"0.004": 2.97578986188,
			"0.005": 4.1573431348,
			"0.006": 3.49248453034,
			"0.007": 4.14380117979,
			"0.008": 3.15727558374,
			"0.009": 4.2422005802,
			"0.01": 5.66632731528,
			"0.011": 6.60499711673,
			"0.012": 5.05456940504,
			"0.013": 2.92902892939,
			"0.014": 0.126698999142,
			"0.015": 0.0,
			"0.016": 0.0,
			"0.017": 0.0,
			"0.018": 0.0,
			"0.019": 0.0,
			"0.02": 0.0,
			"0.021": 0.0,
			"0.022": 0.0,
			"0.023": 0.0,
			"0.024": 0.0,
			"0.025": 0.0
		}
	}
}
