{
	 "smiles": "OC(=O)CC#CC1=CC=CC=C1", 
	 "Tm": 345.15, 
	 "num_atms": 20, 
	 "gaussian": { 
		 "optdone": 1, 
		 "sigma_profile": "yes", 
		 "theory": "DFT", 
		 "functional": "B3LYP", 
		 "basiset": "6-31G**", 
		 "properties": { 
			 "R2extent": 3881.0202, 
			 "electric_dipole_moment_norm": 5.19178570629, 
			 "electric_quadrupole_moment_norm": 28.7659791612, 
			 "total_energy": -536.283343924, 
			 "HOMO_LUMO_gap": 0.19606, 
			 "cosmo_polarized_energy": -12.09, 
			 "cosmo_cavitation_energy": 26.03, 
			 "cosmo_dispersion_energy": -18.78, 
			 "cosmo_repulsion_energy": 1.54, 
			 "cosmo_total_nonelectrostatic_energy": 8.8, 
			 "SMD_solvation_energy": 5.95 
		},
		"coords": [
			{
				"x": -0.3689288471,
				"y": 4.3753372803,
				"z": 0.1803887084,
				"element": "O" 
			},
			{
				"x": -1.5206594788,
				"y": 4.4612195823,
				"z": -0.5099515001,
				"element": "C" 
			},
			{
				"x": -1.9318502051,
				"y": 5.5074312001,
				"z": -0.9427121167,
				"element": "O" 
			},
			{
				"x": -2.2961712813,
				"y": 3.1403755943,
				"z": -0.7219235192,
				"element": "C" 
			},
			{
				"x": -1.6758543232,
				"y": 1.9544908587,
				"z": -0.1411083199,
				"element": "C" 
			},
			{
				"x": -1.1238796852,
				"y": 0.9944104638,
				"z": 0.3579251474,
				"element": "C" 
			},
			{
				"x": -0.4849574064,
				"y": -0.145169352,
				"z": 0.9404965769,
				"element": "C" 
			},
			{
				"x": 0.4413264344,
				"y": -0.9013124846,
				"z": 0.1965108491,
				"element": "C" 
			},
			{
				"x": 1.0604625268,
				"y": -2.0102039861,
				"z": 0.7675400683,
				"element": "C" 
			},
			{
				"x": 0.7674791575,
				"y": -2.380392064,
				"z": 2.0824427662,
				"element": "C" 
			},
			{
				"x": -0.1503088278,
				"y": -1.6360849082,
				"z": 2.8277560796,
				"element": "C" 
			},
			{
				"x": -0.7743810529,
				"y": -0.5256357371,
				"z": 2.2651567292,
				"element": "C" 
			},
			{
				"x": -0.2218555288,
				"y": 3.4472289426,
				"z": 0.4368941709,
				"element": "H" 
			},
			{
				"x": -3.3002677326,
				"y": 3.3009862605,
				"z": -0.3119748896,
				"element": "H" 
			},
			{
				"x": -2.4257919762,
				"y": 3.0271417418,
				"z": -1.8047355979,
				"element": "H" 
			},
			{
				"x": 0.6649763918,
				"y": -0.6101763923,
				"z": -0.8247444188,
				"element": "H" 
			},
			{
				"x": 1.7730966596,
				"y": -2.586964208,
				"z": 0.1854699921,
				"element": "H" 
			},
			{
				"x": 1.2524297636,
				"y": -3.2456633389,
				"z": 2.5245683342,
				"element": "H" 
			},
			{
				"x": -0.3804807506,
				"y": -1.9215170438,
				"z": 3.8499373718,
				"element": "H" 
			},
			{
				"x": -1.4885838376,
				"y": 0.0552975907,
				"z": 2.8397635681,
				"element": "H" 
			}
		],
		 "valence_orbital": [ 
			{
				"type": "occ",
				"energy": -0.31541,
				"method": "rhf"
			},
			{
				"type": "occ",
				"energy": -0.28149,
				"method": "rhf"
			},
			{
				"type": "occ",
				"energy": -0.27784,
				"method": "rhf"
			},
			{
				"type": "occ",
				"energy": -0.2684,
				"method": "rhf"
			},
			{
				"type": "occ",
				"energy": -0.24213,
				"method": "rhf"
			},
			{
				"type": "unocc",
				"energy": -0.04607,
				"method": "rhf"
			},
			{
				"type": "unocc",
				"energy": -0.01723,
				"method": "rhf"
			},
			{
				"type": "unocc",
				"energy": 0.00989,
				"method": "rhf"
			},
			{
				"type": "unocc",
				"energy": 0.03561,
				"method": "rhf"
			},
			{
				"type": "unocc",
				"energy": 0.06498,
				"method": "rhf"
			}
		],
		"cosmo_sigma_profile": { 
			"-0.025": 0.0,
			"-0.024": 0.0,
			"-0.023": 0.0,
			"-0.022": 0.0,
			"-0.021": 0.0,
			"-0.02": 0.0,
			"-0.019": 0.0,
			"-0.018": 0.0,
			"-0.017": 0.0,
			"-0.016": 0.0,
			"-0.015": 0.0,
			"-0.014": 0.0686674716441,
			"-0.013": 0.70153780033,
			"-0.012": 0.580349477306,
			"-0.011": 0.658162033518,
			"-0.01": 1.06712914163,
			"-0.009": 3.19897577945,
			"-0.008": 6.0869997918,
			"-0.007": 8.17716780635,
			"-0.006": 16.6369470724,
			"-0.005": 16.9172734958,
			"-0.004": 14.4084850461,
			"-0.003": 11.1923088946,
			"-0.002": 12.0306183955,
			"-0.001": 8.65766809834,
			"0.0": 12.5738984816,
			"0.001": 12.4006153166,
			"0.002": 13.4497594048,
			"0.003": 15.6439487344,
			"0.004": 18.1142346655,
			"0.005": 9.28359789949,
			"0.006": 2.36255751179,
			"0.007": 2.35803201168,
			"0.008": 3.24126082468,
			"0.009": 3.03339347266,
			"0.01": 5.16529287025,
			"0.011": 5.08437472956,
			"0.012": 5.11897362134,
			"0.013": 1.30968408079,
			"0.014": 0.0,
			"0.015": 0.0,
			"0.016": 0.0,
			"0.017": 0.0,
			"0.018": 0.0,
			"0.019": 0.0,
			"0.02": 0.0,
			"0.021": 0.0,
			"0.022": 0.0,
			"0.023": 0.0,
			"0.024": 0.0,
			"0.025": 0.0
		}
	}
}
