{
	 "smiles": "CN(C)C1CSSC1", 
	 "Tm": 450.15, 
	 "num_atms": 19, 
	 "gaussian": { 
		 "optdone": 1, 
		 "sigma_profile": "yes", 
		 "theory": "DFT", 
		 "functional": "B3LYP", 
		 "basiset": "6-31G**", 
		 "properties": { 
			 "R2extent": 1812.5298, 
			 "electric_dipole_moment_norm": 3.03163958445, 
			 "electric_quadrupole_moment_norm": 7.34991629, 
			 "total_energy": -1048.2696851, 
			 "HOMO_LUMO_gap": 0.17438, 
			 "cosmo_polarized_energy": -6.52, 
			 "cosmo_cavitation_energy": 23.05, 
			 "cosmo_dispersion_energy": -18.12, 
			 "cosmo_repulsion_energy": 1.38, 
			 "cosmo_total_nonelectrostatic_energy": 6.31, 
			 "SMD_solvation_energy": 0.62 
		},
		"coords": [
			{
				"x": 0.5269944257,
				"y": 2.552665492,
				"z": -1.2502732805,
				"element": "C" 
			},
			{
				"x": 0.2240613989,
				"y": 1.1871999596,
				"z": -0.8434180779,
				"element": "N" 
			},
			{
				"x": -1.1634335425,
				"y": 1.0615602254,
				"z": -0.4110173817,
				"element": "C" 
			},
			{
				"x": 1.228024258,
				"y": 0.6106623183,
				"z": 0.0527026649,
				"element": "C" 
			},
			{
				"x": 1.2268781137,
				"y": -0.9384993008,
				"z": -0.0831283239,
				"element": "C" 
			},
			{
				"x": 1.7986882212,
				"y": -1.7089575739,
				"z": 1.4792508536,
				"element": "S" 
			},
			{
				"x": 0.6189443042,
				"y": -0.3731758973,
				"z": 2.6088003223,
				"element": "S" 
			},
			{
				"x": 1.1520205999,
				"y": 1.041431251,
				"z": 1.5618216907,
				"element": "C" 
			},
			{
				"x": 1.5423655553,
				"y": 2.6073250649,
				"z": -1.6554900129,
				"element": "H" 
			},
			{
				"x": 0.4439123372,
				"y": 3.2930829865,
				"z": -0.431615002,
				"element": "H" 
			},
			{
				"x": -0.1679659721,
				"y": 2.8582303825,
				"z": -2.0395933535,
				"element": "H" 
			},
			{
				"x": -1.4312576658,
				"y": 1.7336764875,
				"z": 0.4246286027,
				"element": "H" 
			},
			{
				"x": -1.8225328516,
				"y": 1.3040869437,
				"z": -1.2513395435,
				"element": "H" 
			},
			{
				"x": -1.3825602308,
				"y": 0.0397825522,
				"z": -0.0940467084,
				"element": "H" 
			},
			{
				"x": 2.1954830561,
				"y": 0.9669584415,
				"z": -0.3153470008,
				"element": "H" 
			},
			{
				"x": 0.224250777,
				"y": -1.3034412354,
				"z": -0.3125852584,
				"element": "H" 
			},
			{
				"x": 1.9018712304,
				"y": -1.2591804884,
				"z": -0.8805424406,
				"element": "H" 
			},
			{
				"x": 2.1301526348,
				"y": 1.3780126054,
				"z": 1.9123566566,
				"element": "H" 
			},
			{
				"x": 0.4325033503,
				"y": 1.8510797853,
				"z": 1.7137355934,
				"element": "H" 
			}
		],
		 "valence_orbital": [ 
			{
				"type": "occ",
				"energy": -0.33693,
				"method": "rhf"
			},
			{
				"type": "occ",
				"energy": -0.32017,
				"method": "rhf"
			},
			{
				"type": "occ",
				"energy": -0.27147,
				"method": "rhf"
			},
			{
				"type": "occ",
				"energy": -0.22113,
				"method": "rhf"
			},
			{
				"type": "occ",
				"energy": -0.20904,
				"method": "rhf"
			},
			{
				"type": "unocc",
				"energy": -0.03466,
				"method": "rhf"
			},
			{
				"type": "unocc",
				"energy": 0.03043,
				"method": "rhf"
			},
			{
				"type": "unocc",
				"energy": 0.06372,
				"method": "rhf"
			},
			{
				"type": "unocc",
				"energy": 0.07168,
				"method": "rhf"
			},
			{
				"type": "unocc",
				"energy": 0.0891,
				"method": "rhf"
			}
		],
		"cosmo_sigma_profile": { 
			"-0.025": 0.0,
			"-0.024": 0.0,
			"-0.023": 0.0,
			"-0.022": 0.0,
			"-0.021": 0.0,
			"-0.02": 0.0,
			"-0.019": 0.0,
			"-0.018": 0.0,
			"-0.017": 0.0,
			"-0.016": 0.0,
			"-0.015": 0.0,
			"-0.014": 0.0,
			"-0.013": 0.0,
			"-0.012": 0.0,
			"-0.011": 0.0,
			"-0.01": 0.0,
			"-0.009": 0.0,
			"-0.008": 0.0,
			"-0.007": 1.42287260945,
			"-0.006": 6.98426332978,
			"-0.005": 15.7689429498,
			"-0.004": 16.6515227092,
			"-0.003": 18.3282017489,
			"-0.002": 20.2937575779,
			"-0.001": 20.3506360913,
			"0.0": 18.1088116675,
			"0.001": 8.71015873737,
			"0.002": 9.09498735946,
			"0.003": 8.24501165519,
			"0.004": 8.9650972387,
			"0.005": 7.47325778539,
			"0.006": 6.48269527425,
			"0.007": 5.4860544248,
			"0.008": 4.92450616083,
			"0.009": 3.81596182725,
			"0.01": 0.982024698698,
			"0.011": 0.394679425674,
			"0.012": 0.777968899148,
			"0.013": 0.46518841486,
			"0.014": 0.280385078407,
			"0.015": 0.131328082147,
			"0.016": 0.0,
			"0.017": 0.0,
			"0.018": 0.0,
			"0.019": 0.0,
			"0.02": 0.0,
			"0.021": 0.0,
			"0.022": 0.0,
			"0.023": 0.0,
			"0.024": 0.0,
			"0.025": 0.0
		}
	}
}
