{
	 "smiles": "ClCC(=O)N1CCC(=CC1)C1=CC=CC=C1", 
	 "Tm": 360.15, 
	 "num_atms": 30, 
	 "gaussian": { 
		 "optdone": 1, 
		 "sigma_profile": "yes", 
		 "theory": "DFT", 
		 "functional": "B3LYP", 
		 "basiset": "6-31G**", 
		 "properties": { 
			 "R2extent": 6735.737, 
			 "electric_dipole_moment_norm": 3.5459361331, 
			 "electric_quadrupole_moment_norm": 16.9160780233, 
			 "total_energy": -1093.988891, 
			 "HOMO_LUMO_gap": 0.19687, 
			 "cosmo_polarized_energy": -12.37, 
			 "cosmo_cavitation_energy": 34.14, 
			 "cosmo_dispersion_energy": -24.76, 
			 "cosmo_repulsion_energy": 1.93, 
			 "cosmo_total_nonelectrostatic_energy": 11.31, 
			 "SMD_solvation_energy": 5.16 
		},
		"coords": [
			{
				"x": -3.9130586325,
				"y": -3.9135472756,
				"z": -0.5999525573,
				"element": "Cl" 
			},
			{
				"x": -4.5817747525,
				"y": -2.2265402274,
				"z": -0.7248027371,
				"element": "C" 
			},
			{
				"x": -3.6858751726,
				"y": -1.2963889445,
				"z": -1.5485800286,
				"element": "C" 
			},
			{
				"x": -4.0465741662,
				"y": -0.9784563302,
				"z": -2.6771770918,
				"element": "O" 
			},
			{
				"x": -2.5296839009,
				"y": -0.8438364299,
				"z": -0.9744670993,
				"element": "N" 
			},
			{
				"x": -1.679900462,
				"y": 0.0802032279,
				"z": -1.725631253,
				"element": "C" 
			},
			{
				"x": -0.2430862898,
				"y": -0.4407413281,
				"z": -1.7848364698,
				"element": "C" 
			},
			{
				"x": 0.2628930195,
				"y": -0.8110468036,
				"z": -0.4026776379,
				"element": "C" 
			},
			{
				"x": -0.6209366209,
				"y": -1.0993661937,
				"z": 0.5669271348,
				"element": "C" 
			},
			{
				"x": -2.117836453,
				"y": -1.1076038504,
				"z": 0.4022722431,
				"element": "C" 
			},
			{
				"x": 1.729093229,
				"y": -0.8509804746,
				"z": -0.1705990386,
				"element": "C" 
			},
			{
				"x": 2.2833504942,
				"y": -0.5566913147,
				"z": 1.0884683468,
				"element": "C" 
			},
			{
				"x": 3.6590347371,
				"y": -0.6132608484,
				"z": 1.2996365845,
				"element": "C" 
			},
			{
				"x": 4.5190851118,
				"y": -0.9575791126,
				"z": 0.2541526101,
				"element": "C" 
			},
			{
				"x": 3.9874746004,
				"y": -1.2386438981,
				"z": -1.0047968374,
				"element": "C" 
			},
			{
				"x": 2.6099619318,
				"y": -1.1802716012,
				"z": -1.2159598347,
				"element": "C" 
			},
			{
				"x": -5.5272900563,
				"y": -2.304111474,
				"z": -1.2558375686,
				"element": "H" 
			},
			{
				"x": -4.7485713606,
				"y": -1.876142532,
				"z": 0.2951303196,
				"element": "H" 
			},
			{
				"x": -2.1162442477,
				"y": 0.186850603,
				"z": -2.7179364994,
				"element": "H" 
			},
			{
				"x": -1.6959012781,
				"y": 1.0632105037,
				"z": -1.2339707257,
				"element": "H" 
			},
			{
				"x": -0.1973103316,
				"y": -1.3094279501,
				"z": -2.4552829611,
				"element": "H" 
			},
			{
				"x": 0.4002202135,
				"y": 0.3292791607,
				"z": -2.2262557989,
				"element": "H" 
			},
			{
				"x": -0.2760870809,
				"y": -1.3834911935,
				"z": 1.5577399555,
				"element": "H" 
			},
			{
				"x": -2.4914431576,
				"y": -2.0870009111,
				"z": 0.7137222132,
				"element": "H" 
			},
			{
				"x": -2.5616417356,
				"y": -0.3642906945,
				"z": 1.0889729463,
				"element": "H" 
			},
			{
				"x": 1.6301728997,
				"y": -0.2548481593,
				"z": 1.9016699793,
				"element": "H" 
			},
			{
				"x": 4.0620187733,
				"y": -0.3748713079,
				"z": 2.2800231096,
				"element": "H" 
			},
			{
				"x": 5.5920224919,
				"y": -0.9972904887,
				"z": 0.4177300788,
				"element": "H" 
			},
			{
				"x": 4.6454311035,
				"y": -1.5056273223,
				"z": -1.8270079096,
				"element": "H" 
			},
			{
				"x": 2.2155570929,
				"y": -1.4112868291,
				"z": -2.2006734726,
				"element": "H" 
			}
		],
		 "valence_orbital": [ 
			{
				"type": "occ",
				"energy": -0.28327,
				"method": "rhf"
			},
			{
				"type": "occ",
				"energy": -0.25551,
				"method": "rhf"
			},
			{
				"type": "occ",
				"energy": -0.25402,
				"method": "rhf"
			},
			{
				"type": "occ",
				"energy": -0.24647,
				"method": "rhf"
			},
			{
				"type": "occ",
				"energy": -0.22655,
				"method": "rhf"
			},
			{
				"type": "unocc",
				"energy": -0.02968,
				"method": "rhf"
			},
			{
				"type": "unocc",
				"energy": -0.0205,
				"method": "rhf"
			},
			{
				"type": "unocc",
				"energy": -0.00485,
				"method": "rhf"
			},
			{
				"type": "unocc",
				"energy": 0.04173,
				"method": "rhf"
			},
			{
				"type": "unocc",
				"energy": 0.05454,
				"method": "rhf"
			}
		],
		"cosmo_sigma_profile": { 
			"-0.025": 0.0,
			"-0.024": 0.0,
			"-0.023": 0.0,
			"-0.022": 0.0,
			"-0.021": 0.0,
			"-0.02": 0.0,
			"-0.019": 0.0,
			"-0.018": 0.0,
			"-0.017": 0.0,
			"-0.016": 0.0,
			"-0.015": 0.0,
			"-0.014": 0.0,
			"-0.013": 0.0,
			"-0.012": 0.0,
			"-0.011": 0.0,
			"-0.01": 0.0,
			"-0.009": 1.58879001512,
			"-0.008": 5.10251292116,
			"-0.007": 4.19843686314,
			"-0.006": 10.9525630113,
			"-0.005": 27.220940525,
			"-0.004": 28.9894892213,
			"-0.003": 27.3306608811,
			"-0.002": 18.9414516986,
			"-0.001": 17.4657310427,
			"0.0": 14.9114670424,
			"0.001": 14.5678104636,
			"0.002": 17.0292687491,
			"0.003": 17.6491935933,
			"0.004": 17.589824198,
			"0.005": 19.1814435435,
			"0.006": 13.1005617824,
			"0.007": 2.46698542503,
			"0.008": 1.50609994515,
			"0.009": 1.09704162035,
			"0.01": 0.839165369304,
			"0.011": 2.06529475537,
			"0.012": 2.3405231313,
			"0.013": 4.99249622723,
			"0.014": 1.91526692482,
			"0.015": 0.0229717317097,
			"0.016": 0.0,
			"0.017": 0.0,
			"0.018": 0.0,
			"0.019": 0.0,
			"0.02": 0.0,
			"0.021": 0.0,
			"0.022": 0.0,
			"0.023": 0.0,
			"0.024": 0.0,
			"0.025": 0.0
		}
	}
}
