{
	 "smiles": "CC1=CC(C)=C(C(O)=O)C(=O)N1", 
	 "Tm": 508.15, 
	 "num_atms": 21, 
	 "gaussian": { 
		 "optdone": 1, 
		 "sigma_profile": "yes", 
		 "theory": "DFT", 
		 "functional": "B3LYP", 
		 "basiset": "6-31G**", 
		 "properties": { 
			 "R2extent": 2857.9951, 
			 "electric_dipole_moment_norm": 5.16383137021, 
			 "electric_quadrupole_moment_norm": 5.78077675317, 
			 "total_energy": -590.731505545, 
			 "HOMO_LUMO_gap": 0.16172, 
			 "cosmo_polarized_energy": -20.09, 
			 "cosmo_cavitation_energy": 25.11, 
			 "cosmo_dispersion_energy": -18.6, 
			 "cosmo_repulsion_energy": 1.48, 
			 "cosmo_total_nonelectrostatic_energy": 8.0, 
			 "SMD_solvation_energy": 6.28 
		},
		"coords": [
			{
				"x": -0.9326769749,
				"y": -1.6940657386,
				"z": -1.2168676734,
				"element": "C" 
			},
			{
				"x": -0.5616200233,
				"y": -0.4680215726,
				"z": -0.4343356492,
				"element": "C" 
			},
			{
				"x": -0.4308103782,
				"y": -0.4292816663,
				"z": 0.9288014883,
				"element": "C" 
			},
			{
				"x": -0.0788449488,
				"y": 0.7788522755,
				"z": 1.5971722352,
				"element": "C" 
			},
			{
				"x": 0.0456605819,
				"y": 0.7095248139,
				"z": 3.100405757,
				"element": "C" 
			},
			{
				"x": 0.1211687799,
				"y": 1.9465371855,
				"z": 0.8646002739,
				"element": "C" 
			},
			{
				"x": 0.475216057,
				"y": 3.2094599271,
				"z": 1.5622681239,
				"element": "C" 
			},
			{
				"x": 0.1441455187,
				"y": 4.327585012,
				"z": 0.8846730309,
				"element": "O" 
			},
			{
				"x": 0.9922496617,
				"y": 3.2700402836,
				"z": 2.6672388146,
				"element": "O" 
			},
			{
				"x": 0.0168813656,
				"y": 1.938383656,
				"z": -0.5985626441,
				"element": "C" 
			},
			{
				"x": 0.2192200837,
				"y": 2.8542683619,
				"z": -1.384404083,
				"element": "O" 
			},
			{
				"x": -0.3435696546,
				"y": 0.676417244,
				"z": -1.1333538638,
				"element": "N" 
			},
			{
				"x": -1.0829037562,
				"y": -2.545476148,
				"z": -0.5512953502,
				"element": "H" 
			},
			{
				"x": -0.1463077052,
				"y": -1.9534177044,
				"z": -1.9352713763,
				"element": "H" 
			},
			{
				"x": -1.8571063615,
				"y": -1.53216102,
				"z": -1.7834026985,
				"element": "H" 
			},
			{
				"x": -0.6017650426,
				"y": -1.3310446822,
				"z": 1.5038492465,
				"element": "H" 
			},
			{
				"x": -0.4900667702,
				"y": 1.5249822737,
				"z": 3.5903838887,
				"element": "H" 
			},
			{
				"x": 1.0903776344,
				"y": 0.8187798171,
				"z": 3.4033712257,
				"element": "H" 
			},
			{
				"x": -0.3348995207,
				"y": -0.2463884697,
				"z": 3.4692083908,
				"element": "H" 
			},
			{
				"x": 0.4364204803,
				"y": 5.060125153,
				"z": 1.4528753927,
				"element": "H" 
			},
			{
				"x": -0.4155690272,
				"y": 0.6859009985,
				"z": -2.1442545297,
				"element": "H" 
			}
		],
		 "valence_orbital": [ 
			{
				"type": "occ",
				"energy": -0.30364,
				"method": "rhf"
			},
			{
				"type": "occ",
				"energy": -0.29292,
				"method": "rhf"
			},
			{
				"type": "occ",
				"energy": -0.26356,
				"method": "rhf"
			},
			{
				"type": "occ",
				"energy": -0.24686,
				"method": "rhf"
			},
			{
				"type": "occ",
				"energy": -0.22006,
				"method": "rhf"
			},
			{
				"type": "unocc",
				"energy": -0.05834,
				"method": "rhf"
			},
			{
				"type": "unocc",
				"energy": 0.00936,
				"method": "rhf"
			},
			{
				"type": "unocc",
				"energy": 0.04149,
				"method": "rhf"
			},
			{
				"type": "unocc",
				"energy": 0.06724,
				"method": "rhf"
			},
			{
				"type": "unocc",
				"energy": 0.09583,
				"method": "rhf"
			}
		],
		"cosmo_sigma_profile": { 
			"-0.025": 0.0,
			"-0.024": 0.0,
			"-0.023": 0.0,
			"-0.022": 0.0,
			"-0.021": 0.0,
			"-0.02": 0.0,
			"-0.019": 0.0,
			"-0.018": 0.184625725957,
			"-0.017": 0.85384490467,
			"-0.016": 1.08882656534,
			"-0.015": 1.83904816686,
			"-0.014": 1.58701668566,
			"-0.013": 2.40855925427,
			"-0.012": 1.60817085917,
			"-0.011": 1.2809287557,
			"-0.01": 2.10463343727,
			"-0.009": 1.7498461931,
			"-0.008": 1.80493190222,
			"-0.007": 6.30058784607,
			"-0.006": 12.2380836746,
			"-0.005": 9.99333472316,
			"-0.004": 13.0254705278,
			"-0.003": 13.8282088461,
			"-0.002": 16.9359801006,
			"-0.001": 21.7129158242,
			"0.0": 16.6139107293,
			"0.001": 12.1123500982,
			"0.002": 7.87819772854,
			"0.003": 5.28705741233,
			"0.004": 3.04337233323,
			"0.005": 3.03256311284,
			"0.006": 4.30248088255,
			"0.007": 2.59430726876,
			"0.008": 3.03565667928,
			"0.009": 3.2337397332,
			"0.01": 2.95100880012,
			"0.011": 3.80325163442,
			"0.012": 6.18917631222,
			"0.013": 3.48639156683,
			"0.014": 5.59105858483,
			"0.015": 2.49994506665,
			"0.016": 1.52276433294,
			"0.017": 1.02861879365,
			"0.018": 0.0165037683806,
			"0.019": 0.0,
			"0.02": 0.0,
			"0.021": 0.0,
			"0.022": 0.0,
			"0.023": 0.0,
			"0.024": 0.0,
			"0.025": 0.0
		}
	}
}
