{
	 "smiles": "COCC(C)NC(N)=O", 
	 "Tm": 347.15, 
	 "num_atms": 21, 
	 "gaussian": { 
		 "optdone": 1, 
		 "sigma_profile": "yes", 
		 "theory": "DFT", 
		 "functional": "B3LYP", 
		 "basiset": "6-31G**", 
		 "properties": { 
			 "R2extent": 2069.7431, 
			 "electric_dipole_moment_norm": 4.34500060069, 
			 "electric_quadrupole_moment_norm": 16.3539982894, 
			 "total_energy": -457.728912337, 
			 "HOMO_LUMO_gap": 0.29056, 
			 "cosmo_polarized_energy": -15.11, 
			 "cosmo_cavitation_energy": 24.21, 
			 "cosmo_dispersion_energy": -17.26, 
			 "cosmo_repulsion_energy": 1.47, 
			 "cosmo_total_nonelectrostatic_energy": 8.42, 
			 "SMD_solvation_energy": 5.52 
		},
		"coords": [
			{
				"x": -0.9553394989,
				"y": -2.0792480531,
				"z": -0.3110720249,
				"element": "C" 
			},
			{
				"x": -0.3153021183,
				"y": -0.8191261847,
				"z": -0.3176121429,
				"element": "O" 
			},
			{
				"x": -0.2923189454,
				"y": -0.1978518044,
				"z": 0.9550981265,
				"element": "C" 
			},
			{
				"x": 0.3457680741,
				"y": 1.1861366857,
				"z": 0.7959464315,
				"element": "C" 
			},
			{
				"x": 1.830302818,
				"y": 1.0901324177,
				"z": 0.4080184112,
				"element": "C" 
			},
			{
				"x": -0.4284973125,
				"y": 1.9480275554,
				"z": -0.1780686982,
				"element": "N" 
			},
			{
				"x": -0.9202106122,
				"y": 3.2252651047,
				"z": -0.0529434495,
				"element": "C" 
			},
			{
				"x": -0.3994889132,
				"y": 3.9668444109,
				"z": 1.0113689471,
				"element": "N" 
			},
			{
				"x": -1.7770368385,
				"y": 3.6771143424,
				"z": -0.8026148941,
				"element": "O" 
			},
			{
				"x": -0.9291163283,
				"y": -2.4618991825,
				"z": -1.3338730194,
				"element": "H" 
			},
			{
				"x": -2.0038760174,
				"y": -2.0012767738,
				"z": 0.0148281161,
				"element": "H" 
			},
			{
				"x": -0.4395698279,
				"y": -2.7927767032,
				"z": 0.349883734,
				"element": "H" 
			},
			{
				"x": -1.3160129702,
				"y": -0.0907912905,
				"z": 1.3480888953,
				"element": "H" 
			},
			{
				"x": 0.2872257454,
				"y": -0.8015724126,
				"z": 1.6732388797,
				"element": "H" 
			},
			{
				"x": 0.2510721659,
				"y": 1.6871694101,
				"z": 1.7660778321,
				"element": "H" 
			},
			{
				"x": 1.939464823,
				"y": 0.5442280855,
				"z": -0.5324329741,
				"element": "H" 
			},
			{
				"x": 2.2623384718,
				"y": 2.0869801085,
				"z": 0.2751931306,
				"element": "H" 
			},
			{
				"x": 2.4050794636,
				"y": 0.567316388,
				"z": 1.1806138434,
				"element": "H" 
			},
			{
				"x": -0.8405888473,
				"y": 1.4210238742,
				"z": -0.9355659185,
				"element": "H" 
			},
			{
				"x": -0.6705021427,
				"y": 4.9378620367,
				"z": 0.9380762265,
				"element": "H" 
			},
			{
				"x": 0.5787088111,
				"y": 3.839741985,
				"z": 1.2337505476,
				"element": "H" 
			}
		],
		 "valence_orbital": [ 
			{
				"type": "occ",
				"energy": -0.33117,
				"method": "rhf"
			},
			{
				"type": "occ",
				"energy": -0.26875,
				"method": "rhf"
			},
			{
				"type": "occ",
				"energy": -0.26606,
				"method": "rhf"
			},
			{
				"type": "occ",
				"energy": -0.24265,
				"method": "rhf"
			},
			{
				"type": "occ",
				"energy": -0.23394,
				"method": "rhf"
			},
			{
				"type": "unocc",
				"energy": 0.05662,
				"method": "rhf"
			},
			{
				"type": "unocc",
				"energy": 0.07147,
				"method": "rhf"
			},
			{
				"type": "unocc",
				"energy": 0.09724,
				"method": "rhf"
			},
			{
				"type": "unocc",
				"energy": 0.11122,
				"method": "rhf"
			},
			{
				"type": "unocc",
				"energy": 0.12451,
				"method": "rhf"
			}
		],
		"cosmo_sigma_profile": { 
			"-0.025": 0.0,
			"-0.024": 0.0,
			"-0.023": 0.0,
			"-0.022": 0.0,
			"-0.021": 0.0,
			"-0.02": 0.0,
			"-0.019": 0.0,
			"-0.018": 0.0,
			"-0.017": 0.0,
			"-0.016": 0.0,
			"-0.015": 0.0,
			"-0.014": 0.0,
			"-0.013": 0.402874812631,
			"-0.012": 2.29490344769,
			"-0.011": 1.69867076372,
			"-0.01": 2.54967182599,
			"-0.009": 3.99681517889,
			"-0.008": 3.67802002549,
			"-0.007": 3.52936973862,
			"-0.006": 3.15033945082,
			"-0.005": 8.20933641779,
			"-0.004": 23.4431842613,
			"-0.003": 23.2819433935,
			"-0.002": 20.2701063709,
			"-0.001": 13.4962910285,
			"0.0": 11.5119206227,
			"0.001": 11.7468646375,
			"0.002": 6.07932225135,
			"0.003": 5.0336856548,
			"0.004": 6.84681601432,
			"0.005": 4.04253269162,
			"0.006": 4.04003564496,
			"0.007": 3.3455940168,
			"0.008": 3.06489556122,
			"0.009": 2.55402733578,
			"0.01": 2.91342595539,
			"0.011": 1.60772472931,
			"0.012": 1.48213492874,
			"0.013": 2.35038700488,
			"0.014": 3.605057452,
			"0.015": 6.54757256623,
			"0.016": 1.1092772525,
			"0.017": 0.0,
			"0.018": 0.0,
			"0.019": 0.0,
			"0.02": 0.0,
			"0.021": 0.0,
			"0.022": 0.0,
			"0.023": 0.0,
			"0.024": 0.0,
			"0.025": 0.0
		}
	}
}
