{
	 "smiles": "CC1=NC(CCl)=NC(O)=C1", 
	 "Tm": 421.15, 
	 "num_atms": 17, 
	 "gaussian": { 
		 "optdone": 1, 
		 "sigma_profile": "yes", 
		 "theory": "DFT", 
		 "functional": "B3LYP", 
		 "basiset": "6-31G**", 
		 "properties": { 
			 "R2extent": 1992.2169, 
			 "electric_dipole_moment_norm": 2.7228688639, 
			 "electric_quadrupole_moment_norm": 7.34524192318, 
			 "total_energy": -877.795769297, 
			 "HOMO_LUMO_gap": 0.22004, 
			 "cosmo_polarized_energy": -10.02, 
			 "cosmo_cavitation_energy": 23.31, 
			 "cosmo_dispersion_energy": -17.36, 
			 "cosmo_repulsion_energy": 1.45, 
			 "cosmo_total_nonelectrostatic_energy": 7.4, 
			 "SMD_solvation_energy": 1.56 
		},
		"coords": [
			{
				"x": 1.3833367677,
				"y": -2.6008259871,
				"z": -1.0377828293,
				"element": "C" 
			},
			{
				"x": 1.06934113,
				"y": -1.2453499901,
				"z": -0.4671336124,
				"element": "C" 
			},
			{
				"x": -0.2143575062,
				"y": -0.83225859,
				"z": -0.5726841752,
				"element": "N" 
			},
			{
				"x": -0.500484854,
				"y": 0.3669230316,
				"z": -0.0715095901,
				"element": "C" 
			},
			{
				"x": -1.9257074912,
				"y": 0.8345257089,
				"z": -0.1990988249,
				"element": "C" 
			},
			{
				"x": -2.1248876461,
				"y": 1.9367803579,
				"z": -1.6372919241,
				"element": "Cl" 
			},
			{
				"x": 0.352648953,
				"y": 1.2043196919,
				"z": 0.5394923742,
				"element": "N" 
			},
			{
				"x": 1.6118993301,
				"y": 0.7858040005,
				"z": 0.6320447757,
				"element": "C" 
			},
			{
				"x": 2.4988170863,
				"y": 1.5952514449,
				"z": 1.2340689011,
				"element": "O" 
			},
			{
				"x": 2.0386156736,
				"y": -0.4534223224,
				"z": 0.1361897126,
				"element": "C" 
			},
			{
				"x": 2.4348205415,
				"y": -2.8655445145,
				"z": -0.9054122658,
				"element": "H" 
			},
			{
				"x": 1.1429525735,
				"y": -2.6204590499,
				"z": -2.1056218085,
				"element": "H" 
			},
			{
				"x": 0.7605037934,
				"y": -3.3622641108,
				"z": -0.5575558619,
				"element": "H" 
			},
			{
				"x": -2.2261781162,
				"y": 1.4153108593,
				"z": 0.6719136362,
				"element": "H" 
			},
			{
				"x": -2.5883062221,
				"y": -0.012773883,
				"z": -0.3628446879,
				"element": "H" 
			},
			{
				"x": 2.0096840924,
				"y": 2.3947925737,
				"z": 1.4894766529,
				"element": "H" 
			},
			{
				"x": 3.0723018944,
				"y": -0.7632092209,
				"z": 0.2298495275,
				"element": "H" 
			}
		],
		 "valence_orbital": [ 
			{
				"type": "occ",
				"energy": -0.30036,
				"method": "rhf"
			},
			{
				"type": "occ",
				"energy": -0.29267,
				"method": "rhf"
			},
			{
				"type": "occ",
				"energy": -0.28897,
				"method": "rhf"
			},
			{
				"type": "occ",
				"energy": -0.26673,
				"method": "rhf"
			},
			{
				"type": "occ",
				"energy": -0.265,
				"method": "rhf"
			},
			{
				"type": "unocc",
				"energy": -0.04496,
				"method": "rhf"
			},
			{
				"type": "unocc",
				"energy": -0.02727,
				"method": "rhf"
			},
			{
				"type": "unocc",
				"energy": 0.04364,
				"method": "rhf"
			},
			{
				"type": "unocc",
				"energy": 0.07795,
				"method": "rhf"
			},
			{
				"type": "unocc",
				"energy": 0.10405,
				"method": "rhf"
			}
		],
		"cosmo_sigma_profile": { 
			"-0.025": 0.0,
			"-0.024": 0.0,
			"-0.023": 0.0,
			"-0.022": 0.0,
			"-0.021": 0.0,
			"-0.02": 0.0,
			"-0.019": 0.0063882538758,
			"-0.018": 0.48278276991,
			"-0.017": 0.821440814145,
			"-0.016": 0.73946601963,
			"-0.015": 1.07408162833,
			"-0.014": 0.645583916725,
			"-0.013": 0.218800329146,
			"-0.012": 0.576770203056,
			"-0.011": 0.633954091549,
			"-0.01": 0.745298127122,
			"-0.009": 0.359312023986,
			"-0.008": 3.69765850599,
			"-0.007": 7.39472827007,
			"-0.006": 7.81049333574,
			"-0.005": 11.8271063302,
			"-0.004": 10.3922456365,
			"-0.003": 10.5888560714,
			"-0.002": 13.687128984,
			"-0.001": 21.720361095,
			"0.0": 15.666885958,
			"0.001": 10.5528159152,
			"0.002": 7.63514772987,
			"0.003": 8.04228948859,
			"0.004": 8.6620551726,
			"0.005": 10.5729219456,
			"0.006": 13.5963254278,
			"0.007": 6.45622770949,
			"0.008": 3.41756219589,
			"0.009": 3.24464239009,
			"0.01": 3.31032115551,
			"0.011": 1.09827573468,
			"0.012": 0.267493149954,
			"0.013": 0.949016168862,
			"0.014": 0.702967520749,
			"0.015": 0.165834152749,
			"0.016": 0.0,
			"0.017": 0.0,
			"0.018": 0.0,
			"0.019": 0.0,
			"0.02": 0.0,
			"0.021": 0.0,
			"0.022": 0.0,
			"0.023": 0.0,
			"0.024": 0.0,
			"0.025": 0.0
		}
	}
}
