{
	 "smiles": "CCOC1=C(Br)C=C(Br)C=C1C=O", 
	 "Tm": 360.35, 
	 "num_atms": 21, 
	 "gaussian": { 
		 "optdone": 1, 
		 "sigma_profile": "yes", 
		 "theory": "DFT", 
		 "functional": "B3LYP", 
		 "basiset": "6-31G**", 
		 "properties": { 
			 "R2extent": 6098.3808, 
			 "electric_dipole_moment_norm": 3.01486696721, 
			 "electric_quadrupole_moment_norm": 8.92068529374, 
			 "total_energy": -5641.01303955, 
			 "HOMO_LUMO_gap": 0.17167, 
			 "cosmo_polarized_energy": -7.9, 
			 "cosmo_cavitation_energy": 30.27, 
			 "cosmo_dispersion_energy": -22.06, 
			 "cosmo_repulsion_energy": 1.76, 
			 "cosmo_total_nonelectrostatic_energy": 9.96, 
			 "SMD_solvation_energy": 4.33 
		},
		"coords": [
			{
				"x": -1.3447957298,
				"y": -0.9227612526,
				"z": -3.3983827998,
				"element": "C" 
			},
			{
				"x": -0.4734780454,
				"y": -1.3057208599,
				"z": -2.2188349795,
				"element": "C" 
			},
			{
				"x": -0.5781319515,
				"y": -0.2463987347,
				"z": -1.2371015469,
				"element": "O" 
			},
			{
				"x": 0.221948308,
				"y": -0.3687971937,
				"z": -0.1380614027,
				"element": "C" 
			},
			{
				"x": 1.5549409012,
				"y": 0.0742091982,
				"z": -0.1466457748,
				"element": "C" 
			},
			{
				"x": 2.2949533598,
				"y": 0.839802897,
				"z": -1.726455316,
				"element": "Br" 
			},
			{
				"x": 2.3494236427,
				"y": -0.0107404051,
				"z": 0.9937085313,
				"element": "C" 
			},
			{
				"x": 1.8090631919,
				"y": -0.5453338531,
				"z": 2.1662868534,
				"element": "C" 
			},
			{
				"x": 2.9071529256,
				"y": -0.6595868106,
				"z": 3.7217955972,
				"element": "Br" 
			},
			{
				"x": 0.4937029069,
				"y": -0.9803897776,
				"z": 2.2101109545,
				"element": "C" 
			},
			{
				"x": -0.3018972989,
				"y": -0.8933660958,
				"z": 1.0595126591,
				"element": "C" 
			},
			{
				"x": -1.7175348975,
				"y": -1.3445568572,
				"z": 1.1358878716,
				"element": "C" 
			},
			{
				"x": -2.2064261284,
				"y": -1.8395166925,
				"z": 2.1340240836,
				"element": "O" 
			},
			{
				"x": -1.3049038472,
				"y": -1.7066580672,
				"z": -4.160850976,
				"element": "H" 
			},
			{
				"x": -0.9969057945,
				"y": 0.0138411183,
				"z": -3.8420561364,
				"element": "H" 
			},
			{
				"x": -2.3855564016,
				"y": -0.7940232085,
				"z": -3.0878412205,
				"element": "H" 
			},
			{
				"x": 0.573781698,
				"y": -1.4209492155,
				"z": -2.5199032215,
				"element": "H" 
			},
			{
				"x": -0.8068072708,
				"y": -2.2469516281,
				"z": -1.76066019,
				"element": "H" 
			},
			{
				"x": 3.3733905573,
				"y": 0.3402855796,
				"z": 0.9690950704,
				"element": "H" 
			},
			{
				"x": 0.0528786738,
				"y": -1.3877464016,
				"z": 3.1126659428,
				"element": "H" 
			},
			{
				"x": -2.3124987995,
				"y": -1.1912417395,
				"z": 0.2171060003,
				"element": "H" 
			}
		],
		 "valence_orbital": [ 
			{
				"type": "occ",
				"energy": -0.30028,
				"method": "rhf"
			},
			{
				"type": "occ",
				"energy": -0.2976,
				"method": "rhf"
			},
			{
				"type": "occ",
				"energy": -0.27053,
				"method": "rhf"
			},
			{
				"type": "occ",
				"energy": -0.26346,
				"method": "rhf"
			},
			{
				"type": "occ",
				"energy": -0.25189,
				"method": "rhf"
			},
			{
				"type": "unocc",
				"energy": -0.08022,
				"method": "rhf"
			},
			{
				"type": "unocc",
				"energy": -0.03436,
				"method": "rhf"
			},
			{
				"type": "unocc",
				"energy": -0.02436,
				"method": "rhf"
			},
			{
				"type": "unocc",
				"energy": 0.01376,
				"method": "rhf"
			},
			{
				"type": "unocc",
				"energy": 0.01763,
				"method": "rhf"
			}
		],
		"cosmo_sigma_profile": { 
			"-0.025": 0.0,
			"-0.024": 0.0,
			"-0.023": 0.0,
			"-0.022": 0.0,
			"-0.021": 0.0,
			"-0.02": 0.0,
			"-0.019": 0.0,
			"-0.018": 0.0,
			"-0.017": 0.0,
			"-0.016": 0.0,
			"-0.015": 0.0,
			"-0.014": 0.0,
			"-0.013": 0.0,
			"-0.012": 0.0,
			"-0.011": 0.0,
			"-0.01": 0.0,
			"-0.009": 0.639666604253,
			"-0.008": 1.53804900875,
			"-0.007": 3.18051441883,
			"-0.006": 8.58901990731,
			"-0.005": 13.8340915354,
			"-0.004": 22.0254728602,
			"-0.003": 22.416787899,
			"-0.002": 20.8746627412,
			"-0.001": 27.3501218364,
			"0.0": 33.5830390016,
			"0.001": 19.3612243458,
			"0.002": 14.062158216,
			"0.003": 17.5915479602,
			"0.004": 17.8137200938,
			"0.005": 3.76760961864,
			"0.006": 2.9604142673,
			"0.007": 3.68205093157,
			"0.008": 2.80890899923,
			"0.009": 3.03454443699,
			"0.01": 3.95426794526,
			"0.011": 3.78753391707,
			"0.012": 1.4026050198,
			"0.013": 0.18459255229,
			"0.014": 0.0,
			"0.015": 0.0,
			"0.016": 0.0,
			"0.017": 0.0,
			"0.018": 0.0,
			"0.019": 0.0,
			"0.02": 0.0,
			"0.021": 0.0,
			"0.022": 0.0,
			"0.023": 0.0,
			"0.024": 0.0,
			"0.025": 0.0
		}
	}
}
