{
	 "smiles": "NC(=O)N1CCC(=CC1)C1=CC=C(O)C=C1", 
	 "Tm": 518.15, 
	 "num_atms": 30, 
	 "gaussian": { 
		 "optdone": 1, 
		 "sigma_profile": "yes", 
		 "theory": "DFT", 
		 "functional": "B3LYP", 
		 "basiset": "6-31G**", 
		 "properties": { 
			 "R2extent": 5472.4673, 
			 "electric_dipole_moment_norm": 3.69427479893, 
			 "electric_quadrupole_moment_norm": 28.5879194691, 
			 "total_energy": -725.672999319, 
			 "HOMO_LUMO_gap": 0.1889, 
			 "cosmo_polarized_energy": -19.5, 
			 "cosmo_cavitation_energy": 32.76, 
			 "cosmo_dispersion_energy": -24.27, 
			 "cosmo_repulsion_energy": 1.89, 
			 "cosmo_total_nonelectrostatic_energy": 10.37, 
			 "SMD_solvation_energy": 5.73 
		},
		"coords": [
			{
				"x": -4.7015856499,
				"y": -1.3953419509,
				"z": 1.611153936,
				"element": "N" 
			},
			{
				"x": -3.609009866,
				"y": -0.89884821,
				"z": 2.3308105808,
				"element": "C" 
			},
			{
				"x": -3.4818701485,
				"y": -1.1284320317,
				"z": 3.530163938,
				"element": "O" 
			},
			{
				"x": -2.6768270577,
				"y": -0.1855121429,
				"z": 1.6080366229,
				"element": "N" 
			},
			{
				"x": -2.6732624544,
				"y": -0.0161630259,
				"z": 0.1611947621,
				"element": "C" 
			},
			{
				"x": -1.3290077392,
				"y": -0.4479862213,
				"z": -0.4403078139,
				"element": "C" 
			},
			{
				"x": -0.1634936389,
				"y": 0.194487142,
				"z": 0.2874810913,
				"element": "C" 
			},
			{
				"x": -0.3300464221,
				"y": 0.591719188,
				"z": 1.5604981029,
				"element": "C" 
			},
			{
				"x": -1.5974761335,
				"y": 0.4566674454,
				"z": 2.3525906244,
				"element": "C" 
			},
			{
				"x": 1.1224365218,
				"y": 0.3473768564,
				"z": -0.435527317,
				"element": "C" 
			},
			{
				"x": 2.0192563679,
				"y": 1.3883043384,
				"z": -0.1400189644,
				"element": "C" 
			},
			{
				"x": 3.2335066162,
				"y": 1.5171741543,
				"z": -0.8084087326,
				"element": "C" 
			},
			{
				"x": 3.5841633379,
				"y": 0.602866716,
				"z": -1.8080572366,
				"element": "C" 
			},
			{
				"x": 4.7577982529,
				"y": 0.6780946281,
				"z": -2.5032249648,
				"element": "O" 
			},
			{
				"x": 2.7028228227,
				"y": -0.4332826203,
				"z": -2.1313882891,
				"element": "C" 
			},
			{
				"x": 1.4924501819,
				"y": -0.5493678587,
				"z": -1.4557161421,
				"element": "C" 
			},
			{
				"x": -5.3848047273,
				"y": -1.7808745862,
				"z": 2.2492144094,
				"element": "H" 
			},
			{
				"x": -5.1143547591,
				"y": -0.7896333304,
				"z": 0.9148824961,
				"element": "H" 
			},
			{
				"x": -3.4686548708,
				"y": -0.6210497816,
				"z": -0.2743514018,
				"element": "H" 
			},
			{
				"x": -2.8657658069,
				"y": 1.035838992,
				"z": -0.0990052261,
				"element": "H" 
			},
			{
				"x": -1.2531323376,
				"y": -1.5430489325,
				"z": -0.396752502,
				"element": "H" 
			},
			{
				"x": -1.310765821,
				"y": -0.1734974813,
				"z": -1.5017896777,
				"element": "H" 
			},
			{
				"x": 0.4990873638,
				"y": 1.0336249582,
				"z": 2.1078854766,
				"element": "H" 
			},
			{
				"x": -1.4276259066,
				"y": -0.1378471418,
				"z": 3.2555481121,
				"element": "H" 
			},
			{
				"x": -1.9136159077,
				"y": 1.4541918919,
				"z": 2.7066552374,
				"element": "H" 
			},
			{
				"x": 1.753248569,
				"y": 2.1271748667,
				"z": 0.6096338867,
				"element": "H" 
			},
			{
				"x": 3.9031697236,
				"y": 2.339645165,
				"z": -0.5640755718,
				"element": "H" 
			},
			{
				"x": 5.2708137399,
				"y": 1.4288978616,
				"z": -2.1773820884,
				"element": "H" 
			},
			{
				"x": 2.9821529105,
				"y": -1.1366037077,
				"z": -2.9089884968,
				"element": "H" 
			},
			{
				"x": 0.8304928393,
				"y": -1.3690751808,
				"z": -1.7176548516,
				"element": "H" 
			}
		],
		 "valence_orbital": [ 
			{
				"type": "occ",
				"energy": -0.2635,
				"method": "rhf"
			},
			{
				"type": "occ",
				"energy": -0.25387,
				"method": "rhf"
			},
			{
				"type": "occ",
				"energy": -0.24299,
				"method": "rhf"
			},
			{
				"type": "occ",
				"energy": -0.23014,
				"method": "rhf"
			},
			{
				"type": "occ",
				"energy": -0.20477,
				"method": "rhf"
			},
			{
				"type": "unocc",
				"energy": -0.01587,
				"method": "rhf"
			},
			{
				"type": "unocc",
				"energy": -0.00429,
				"method": "rhf"
			},
			{
				"type": "unocc",
				"energy": 0.05258,
				"method": "rhf"
			},
			{
				"type": "unocc",
				"energy": 0.05867,
				"method": "rhf"
			},
			{
				"type": "unocc",
				"energy": 0.06879,
				"method": "rhf"
			}
		],
		"cosmo_sigma_profile": { 
			"-0.025": 0.0,
			"-0.024": 0.0,
			"-0.023": 0.0,
			"-0.022": 0.0,
			"-0.021": 0.0,
			"-0.02": 0.0,
			"-0.019": 0.0,
			"-0.018": 0.317527617174,
			"-0.017": 0.980554607496,
			"-0.016": 1.31884106741,
			"-0.015": 0.900380549892,
			"-0.014": 1.06998568147,
			"-0.013": 2.41538466142,
			"-0.012": 3.93089615572,
			"-0.011": 2.71346877443,
			"-0.01": 3.5791487352,
			"-0.009": 4.19428268454,
			"-0.008": 3.66137105465,
			"-0.007": 3.04383958288,
			"-0.006": 6.89078118937,
			"-0.005": 13.4406409353,
			"-0.004": 25.2920717124,
			"-0.003": 26.5714834233,
			"-0.002": 19.7289077548,
			"-0.001": 13.2534885311,
			"0.0": 11.634990143,
			"0.001": 12.041941622,
			"0.002": 12.035785361,
			"0.003": 14.8744273657,
			"0.004": 15.5473395107,
			"0.005": 16.5389258632,
			"0.006": 11.4335029362,
			"0.007": 3.27069299109,
			"0.008": 2.58085467392,
			"0.009": 4.29929222654,
			"0.01": 2.75802038773,
			"0.011": 4.31906887176,
			"0.012": 3.3159633703,
			"0.013": 1.70129675688,
			"0.014": 4.7946161271,
			"0.015": 3.9725799787,
			"0.016": 0.118478478598,
			"0.017": 0.0,
			"0.018": 0.0,
			"0.019": 0.0,
			"0.02": 0.0,
			"0.021": 0.0,
			"0.022": 0.0,
			"0.023": 0.0,
			"0.024": 0.0,
			"0.025": 0.0
		}
	}
}
