{
	 "smiles": "CC1=CC2=C(C=C1)C(=O)CC2", 
	 "Tm": 344.15, 
	 "num_atms": 21, 
	 "gaussian": { 
		 "optdone": 1, 
		 "sigma_profile": "yes", 
		 "theory": "DFT", 
		 "functional": "B3LYP", 
		 "basiset": "6-31G**", 
		 "properties": { 
			 "R2extent": 3311.5727, 
			 "electric_dipole_moment_norm": 3.83433574691, 
			 "electric_quadrupole_moment_norm": 15.6873613387, 
			 "total_energy": -462.33202072, 
			 "HOMO_LUMO_gap": 0.1876, 
			 "cosmo_polarized_energy": -8.63, 
			 "cosmo_cavitation_energy": 24.18, 
			 "cosmo_dispersion_energy": -17.97, 
			 "cosmo_repulsion_energy": 1.45, 
			 "cosmo_total_nonelectrostatic_energy": 7.66, 
			 "SMD_solvation_energy": 4.37 
		},
		"coords": [
			{
				"x": 2.7596474009,
				"y": 3.036357063,
				"z": 1.1907658397,
				"element": "C" 
			},
			{
				"x": 1.6108910564,
				"y": 2.7564528003,
				"z": 0.2510994428,
				"element": "C" 
			},
			{
				"x": 1.3581882204,
				"y": 1.457021015,
				"z": -0.2062959745,
				"element": "C" 
			},
			{
				"x": 0.2907995867,
				"y": 1.2219500809,
				"z": -1.073984916,
				"element": "C" 
			},
			{
				"x": -0.5197062287,
				"y": 2.2839016082,
				"z": -1.4816218845,
				"element": "C" 
			},
			{
				"x": -0.2857109413,
				"y": 3.5897489523,
				"z": -1.0373781765,
				"element": "C" 
			},
			{
				"x": 0.7783791915,
				"y": 3.814778627,
				"z": -0.1742209255,
				"element": "C" 
			},
			{
				"x": -1.5806979195,
				"y": 1.8027238159,
				"z": -2.3942665134,
				"element": "C" 
			},
			{
				"x": -2.4491594881,
				"y": 2.4695998559,
				"z": -2.9265120286,
				"element": "O" 
			},
			{
				"x": -1.3878021808,
				"y": 0.2833351486,
				"z": -2.5536223045,
				"element": "C" 
			},
			{
				"x": -0.1609882842,
				"y": -0.0912094691,
				"z": -1.687145197,
				"element": "C" 
			},
			{
				"x": 3.4633051215,
				"y": 3.753752772,
				"z": 0.7529958979,
				"element": "H" 
			},
			{
				"x": 2.4040701237,
				"y": 3.4714428238,
				"z": 2.1319007889,
				"element": "H" 
			},
			{
				"x": 3.3143411299,
				"y": 2.1254452739,
				"z": 1.4304575366,
				"element": "H" 
			},
			{
				"x": 1.997570658,
				"y": 0.6393419283,
				"z": 0.119293885,
				"element": "H" 
			},
			{
				"x": -0.9316126319,
				"y": 4.3969962059,
				"z": -1.370184884,
				"element": "H" 
			},
			{
				"x": 0.9811436469,
				"y": 4.820694396,
				"z": 0.185263206,
				"element": "H" 
			},
			{
				"x": -1.2486758964,
				"y": 0.051460466,
				"z": -3.6144415158,
				"element": "H" 
			},
			{
				"x": -2.304311932,
				"y": -0.2266769764,
				"z": -2.2399898763,
				"element": "H" 
			},
			{
				"x": -0.4145163335,
				"y": -0.820670229,
				"z": -0.909117104,
				"element": "H" 
			},
			{
				"x": 0.6409457006,
				"y": -0.5421461586,
				"z": -2.2831952963,
				"element": "H" 
			}
		],
		 "valence_orbital": [ 
			{
				"type": "occ",
				"energy": -0.34001,
				"method": "rhf"
			},
			{
				"type": "occ",
				"energy": -0.32913,
				"method": "rhf"
			},
			{
				"type": "occ",
				"energy": -0.25468,
				"method": "rhf"
			},
			{
				"type": "occ",
				"energy": -0.24609,
				"method": "rhf"
			},
			{
				"type": "occ",
				"energy": -0.2355,
				"method": "rhf"
			},
			{
				"type": "unocc",
				"energy": -0.0479,
				"method": "rhf"
			},
			{
				"type": "unocc",
				"energy": -0.0102,
				"method": "rhf"
			},
			{
				"type": "unocc",
				"energy": 0.04934,
				"method": "rhf"
			},
			{
				"type": "unocc",
				"energy": 0.09723,
				"method": "rhf"
			},
			{
				"type": "unocc",
				"energy": 0.10222,
				"method": "rhf"
			}
		],
		"cosmo_sigma_profile": { 
			"-0.025": 0.0,
			"-0.024": 0.0,
			"-0.023": 0.0,
			"-0.022": 0.0,
			"-0.021": 0.0,
			"-0.02": 0.0,
			"-0.019": 0.0,
			"-0.018": 0.0,
			"-0.017": 0.0,
			"-0.016": 0.0,
			"-0.015": 0.0,
			"-0.014": 0.0,
			"-0.013": 0.0,
			"-0.012": 0.0,
			"-0.011": 0.0,
			"-0.01": 0.0,
			"-0.009": 0.0,
			"-0.008": 0.0,
			"-0.007": 0.0662825458927,
			"-0.006": 4.75741380187,
			"-0.005": 16.873517845,
			"-0.004": 23.9534533531,
			"-0.003": 25.1973237325,
			"-0.002": 19.3822690347,
			"-0.001": 19.6788290086,
			"0.0": 15.5476387716,
			"0.001": 9.55960757684,
			"0.002": 11.0283616783,
			"0.003": 9.10228396424,
			"0.004": 11.7644909284,
			"0.005": 4.40209436784,
			"0.006": 1.98755547908,
			"0.007": 1.51677947649,
			"0.008": 1.4441152031,
			"0.009": 1.21881347077,
			"0.01": 2.20554922274,
			"0.011": 2.69312636343,
			"0.012": 4.21578970884,
			"0.013": 4.02522308561,
			"0.014": 1.11478914504,
			"0.015": 0.0,
			"0.016": 0.0,
			"0.017": 0.0,
			"0.018": 0.0,
			"0.019": 0.0,
			"0.02": 0.0,
			"0.021": 0.0,
			"0.022": 0.0,
			"0.023": 0.0,
			"0.024": 0.0,
			"0.025": 0.0
		}
	}
}
