{
	 "smiles": "NC1=NC=NC=C1C#N", 
	 "Tm": 528.15, 
	 "num_atms": 13, 
	 "gaussian": { 
		 "optdone": 1, 
		 "sigma_profile": "yes", 
		 "theory": "DFT", 
		 "functional": "B3LYP", 
		 "basiset": "6-31G**", 
		 "properties": { 
			 "R2extent": 1233.927, 
			 "electric_dipole_moment_norm": 2.64715960229, 
			 "electric_quadrupole_moment_norm": 10.4637202729, 
			 "total_energy": -411.936791673, 
			 "HOMO_LUMO_gap": 0.192, 
			 "cosmo_polarized_energy": -12.9, 
			 "cosmo_cavitation_energy": 18.77, 
			 "cosmo_dispersion_energy": -13.64, 
			 "cosmo_repulsion_energy": 1.12, 
			 "cosmo_total_nonelectrostatic_energy": 6.25, 
			 "SMD_solvation_energy": 1.88 
		},
		"coords": [
			{
				"x": 1.864960994,
				"y": 0.4338436273,
				"z": 0.1701410728,
				"element": "N" 
			},
			{
				"x": 0.6848559809,
				"y": 0.8296775073,
				"z": 0.6902936039,
				"element": "C" 
			},
			{
				"x": 0.6819939096,
				"y": 1.9410259991,
				"z": 1.4491637309,
				"element": "N" 
			},
			{
				"x": -0.488471528,
				"y": 2.3197640594,
				"z": 1.9557803975,
				"element": "C" 
			},
			{
				"x": -1.6829796636,
				"y": 1.7295371051,
				"z": 1.8062786787,
				"element": "N" 
			},
			{
				"x": -1.6800130624,
				"y": 0.6268479666,
				"z": 1.0533375851,
				"element": "C" 
			},
			{
				"x": -0.525746169,
				"y": 0.1124163412,
				"z": 0.45768083,
				"element": "C" 
			},
			{
				"x": -0.528658914,
				"y": -1.0640723539,
				"z": -0.3443151312,
				"element": "C" 
			},
			{
				"x": -0.469319438,
				"y": -2.0193408778,
				"z": -1.0086061992,
				"element": "N" 
			},
			{
				"x": 2.683783782,
				"y": 0.9853420975,
				"z": 0.3715133389,
				"element": "H" 
			},
			{
				"x": 1.9378178425,
				"y": -0.3881876211,
				"z": -0.4076407742,
				"element": "H" 
			},
			{
				"x": -0.4714133502,
				"y": 3.2204938828,
				"z": 2.5667607006,
				"element": "H" 
			},
			{
				"x": -2.6319103838,
				"y": 0.1199522663,
				"z": 0.9092121662,
				"element": "H" 
			}
		],
		 "valence_orbital": [ 
			{
				"type": "occ",
				"energy": -0.35376,
				"method": "rhf"
			},
			{
				"type": "occ",
				"energy": -0.31813,
				"method": "rhf"
			},
			{
				"type": "occ",
				"energy": -0.30584,
				"method": "rhf"
			},
			{
				"type": "occ",
				"energy": -0.26974,
				"method": "rhf"
			},
			{
				"type": "occ",
				"energy": -0.25729,
				"method": "rhf"
			},
			{
				"type": "unocc",
				"energy": -0.06529,
				"method": "rhf"
			},
			{
				"type": "unocc",
				"energy": -0.03202,
				"method": "rhf"
			},
			{
				"type": "unocc",
				"energy": 0.0143,
				"method": "rhf"
			},
			{
				"type": "unocc",
				"energy": 0.05503,
				"method": "rhf"
			},
			{
				"type": "unocc",
				"energy": 0.06767,
				"method": "rhf"
			}
		],
		"cosmo_sigma_profile": { 
			"-0.025": 0.0,
			"-0.024": 0.0,
			"-0.023": 0.0,
			"-0.022": 0.0,
			"-0.021": 0.0,
			"-0.02": 0.0,
			"-0.019": 0.0,
			"-0.018": 0.0,
			"-0.017": 0.0,
			"-0.016": 0.18450233759,
			"-0.015": 1.41564926483,
			"-0.014": 1.90247357834,
			"-0.013": 2.56840599827,
			"-0.012": 2.19875856283,
			"-0.011": 1.60963777652,
			"-0.01": 1.70012061416,
			"-0.009": 4.51206192327,
			"-0.008": 5.23208034169,
			"-0.007": 6.12789164095,
			"-0.006": 5.42080656098,
			"-0.005": 5.21427956972,
			"-0.004": 7.55206022544,
			"-0.003": 10.2506538043,
			"-0.002": 14.0342439925,
			"-0.001": 9.85822845466,
			"0.0": 7.70391761324,
			"0.001": 7.20664838093,
			"0.002": 7.48289629577,
			"0.003": 5.66554754207,
			"0.004": 3.03234745505,
			"0.005": 4.47566169619,
			"0.006": 4.70755636775,
			"0.007": 4.87002330127,
			"0.008": 4.98499288203,
			"0.009": 4.69289198536,
			"0.01": 4.81000377262,
			"0.011": 4.31152719783,
			"0.012": 4.29403828025,
			"0.013": 2.09867044695,
			"0.014": 0.954194972336,
			"0.015": 0.963987990443,
			"0.016": 0.206330839809,
			"0.017": 0.0,
			"0.018": 0.0,
			"0.019": 0.0,
			"0.02": 0.0,
			"0.021": 0.0,
			"0.022": 0.0,
			"0.023": 0.0,
			"0.024": 0.0,
			"0.025": 0.0
		}
	}
}
