{
	 "smiles": "CCNCCO", 
	 "Tm": 267.15, 
	 "num_atms": 17, 
	 "gaussian": { 
		 "optdone": 1, 
		 "sigma_profile": "yes", 
		 "theory": "DFT", 
		 "functional": "B3LYP", 
		 "basiset": "6-31G**", 
		 "properties": { 
			 "R2extent": 783.65, 
			 "electric_dipole_moment_norm": 2.39086831925, 
			 "electric_quadrupole_moment_norm": 3.9722658622, 
			 "total_energy": -289.010903271, 
			 "HOMO_LUMO_gap": 0.27548, 
			 "cosmo_polarized_energy": -8.05, 
			 "cosmo_cavitation_energy": 18.78, 
			 "cosmo_dispersion_energy": -14.04, 
			 "cosmo_repulsion_energy": 1.24, 
			 "cosmo_total_nonelectrostatic_energy": 5.98, 
			 "SMD_solvation_energy": 1.42 
		},
		"coords": [
			{
				"x": 0.3502869094,
				"y": -1.8746789042,
				"z": -0.0652123573,
				"element": "C" 
			},
			{
				"x": -0.0791658271,
				"y": -0.7076110512,
				"z": 0.8235131335,
				"element": "C" 
			},
			{
				"x": -1.4464816832,
				"y": -0.2543010722,
				"z": 0.5259617067,
				"element": "N" 
			},
			{
				"x": -1.697923521,
				"y": 0.3569556398,
				"z": -0.7752627577,
				"element": "C" 
			},
			{
				"x": -0.9647590671,
				"y": 1.6579272375,
				"z": -1.1180824356,
				"element": "C" 
			},
			{
				"x": 0.4006422526,
				"y": 1.3640887445,
				"z": -1.398094303,
				"element": "O" 
			},
			{
				"x": 0.4801787977,
				"y": -1.557541351,
				"z": -1.1039336254,
				"element": "H" 
			},
			{
				"x": 1.3106973336,
				"y": -2.2750878944,
				"z": 0.2761645247,
				"element": "H" 
			},
			{
				"x": -0.3929226412,
				"y": -2.677851272,
				"z": -0.0344424853,
				"element": "H" 
			},
			{
				"x": 0.6712342592,
				"y": 0.0934416737,
				"z": 0.7436219051,
				"element": "H" 
			},
			{
				"x": -0.08906597,
				"y": -1.0416473926,
				"z": 1.8686725386,
				"element": "H" 
			},
			{
				"x": -1.7495927435,
				"y": 0.3846684569,
				"z": 1.2562571736,
				"element": "H" 
			},
			{
				"x": -1.4749247628,
				"y": -0.3715292906,
				"z": -1.5630588563,
				"element": "H" 
			},
			{
				"x": -2.7752178298,
				"y": 0.5599032338,
				"z": -0.8372395363,
				"element": "H" 
			},
			{
				"x": -1.4538712228,
				"y": 2.1215897215,
				"z": -1.9919741169,
				"element": "H" 
			},
			{
				"x": -1.0593659343,
				"y": 2.3653230256,
				"z": -0.2763023043,
				"element": "H" 
			},
			{
				"x": 0.8651516503,
				"y": 2.1951504949,
				"z": -1.5560882041,
				"element": "H" 
			}
		],
		 "valence_orbital": [ 
			{
				"type": "occ",
				"energy": -0.339,
				"method": "rhf"
			},
			{
				"type": "occ",
				"energy": -0.33468,
				"method": "rhf"
			},
			{
				"type": "occ",
				"energy": -0.32359,
				"method": "rhf"
			},
			{
				"type": "occ",
				"energy": -0.26864,
				"method": "rhf"
			},
			{
				"type": "occ",
				"energy": -0.20464,
				"method": "rhf"
			},
			{
				"type": "unocc",
				"energy": 0.07084,
				"method": "rhf"
			},
			{
				"type": "unocc",
				"energy": 0.10082,
				"method": "rhf"
			},
			{
				"type": "unocc",
				"energy": 0.12479,
				"method": "rhf"
			},
			{
				"type": "unocc",
				"energy": 0.1362,
				"method": "rhf"
			},
			{
				"type": "unocc",
				"energy": 0.15447,
				"method": "rhf"
			}
		],
		"cosmo_sigma_profile": { 
			"-0.025": 0.0,
			"-0.024": 0.0,
			"-0.023": 0.0,
			"-0.022": 0.0,
			"-0.021": 0.0,
			"-0.02": 0.0,
			"-0.019": 0.0,
			"-0.018": 0.0,
			"-0.017": 0.0,
			"-0.016": 0.107832243035,
			"-0.015": 0.854976758586,
			"-0.014": 1.37800427814,
			"-0.013": 0.639689032362,
			"-0.012": 0.890115806076,
			"-0.011": 1.18433065486,
			"-0.01": 0.612970410879,
			"-0.009": 2.41483712664,
			"-0.008": 2.06000485262,
			"-0.007": 1.66333596111,
			"-0.006": 2.60127527857,
			"-0.005": 2.70012433964,
			"-0.004": 5.87382064048,
			"-0.003": 17.5467943141,
			"-0.002": 17.2035281125,
			"-0.001": 16.4282572579,
			"0.0": 14.9845702115,
			"0.001": 15.551513083,
			"0.002": 8.11503411414,
			"0.003": 4.56236739173,
			"0.004": 3.17520818396,
			"0.005": 3.5481502213,
			"0.006": 2.35751159519,
			"0.007": 2.80483536623,
			"0.008": 2.28570088856,
			"0.009": 2.32554466286,
			"0.01": 2.48619592535,
			"0.011": 2.32559839106,
			"0.012": 1.4558282957,
			"0.013": 1.2096090876,
			"0.014": 0.676882496371,
			"0.015": 0.470415321989,
			"0.016": 0.607354016703,
			"0.017": 0.519308193697,
			"0.018": 0.351115662593,
			"0.019": 0.257087049895,
			"0.02": 0.0,
			"0.021": 0.0,
			"0.022": 0.0,
			"0.023": 0.0,
			"0.024": 0.0,
			"0.025": 0.0
		}
	}
}
