{
	 "smiles": "C1CNCC(C1)C1=CNN=C1", 
	 "Tm": 345.15, 
	 "num_atms": 24, 
	 "gaussian": { 
		 "optdone": 1, 
		 "sigma_profile": "yes", 
		 "theory": "DFT", 
		 "functional": "B3LYP", 
		 "basiset": "6-31G**", 
		 "properties": { 
			 "R2extent": 2231.4269, 
			 "electric_dipole_moment_norm": 1.86016269181, 
			 "electric_quadrupole_moment_norm": 10.780580021, 
			 "total_energy": -476.906582162, 
			 "HOMO_LUMO_gap": 0.23322, 
			 "cosmo_polarized_energy": -11.23, 
			 "cosmo_cavitation_energy": 25.51, 
			 "cosmo_dispersion_energy": -19.04, 
			 "cosmo_repulsion_energy": 1.55, 
			 "cosmo_total_nonelectrostatic_energy": 8.01, 
			 "SMD_solvation_energy": 1.2 
		},
		"coords": [
			{
				"x": 1.0835108322,
				"y": -3.0506109,
				"z": 0.1779118745,
				"element": "C" 
			},
			{
				"x": 2.5729926387,
				"y": -2.6812831846,
				"z": 0.3597777806,
				"element": "C" 
			},
			{
				"x": 2.8555190259,
				"y": -1.4832918944,
				"z": -0.42933695,
				"element": "N" 
			},
			{
				"x": 2.2445384565,
				"y": -0.2753019948,
				"z": 0.1395883467,
				"element": "C" 
			},
			{
				"x": 0.8117671228,
				"y": -0.5743370613,
				"z": 0.6684020074,
				"element": "C" 
			},
			{
				"x": 0.2303933732,
				"y": -1.7895594359,
				"z": -0.0847318739,
				"element": "C" 
			},
			{
				"x": -0.0763689882,
				"y": 0.6406368128,
				"z": 0.6250174015,
				"element": "C" 
			},
			{
				"x": -0.4924436783,
				"y": 1.370972821,
				"z": -0.4786083737,
				"element": "C" 
			},
			{
				"x": -1.295792132,
				"y": 2.3615277853,
				"z": -0.0078389571,
				"element": "N" 
			},
			{
				"x": -1.441417901,
				"y": 2.3396546818,
				"z": 1.3326191947,
				"element": "N" 
			},
			{
				"x": -0.7036568527,
				"y": 1.2974514799,
				"z": 1.7137655716,
				"element": "C" 
			},
			{
				"x": 0.9688946153,
				"y": -3.7463771714,
				"z": -0.6601742569,
				"element": "H" 
			},
			{
				"x": 0.7271642401,
				"y": -3.5712283673,
				"z": 1.0751112623,
				"element": "H" 
			},
			{
				"x": 3.2152877957,
				"y": -3.4939633642,
				"z": 0.0052516068,
				"element": "H" 
			},
			{
				"x": 2.7997393741,
				"y": -2.549313757,
				"z": 1.4355868876,
				"element": "H" 
			},
			{
				"x": 3.8560641274,
				"y": -1.3479921657,
				"z": -0.5342614648,
				"element": "H" 
			},
			{
				"x": 2.1930567034,
				"y": 0.4843230851,
				"z": -0.6498890415,
				"element": "H" 
			},
			{
				"x": 2.8337406686,
				"y": 0.1640687927,
				"z": 0.9651181291,
				"element": "H" 
			},
			{
				"x": 0.8963366248,
				"y": -0.8643583081,
				"z": 1.7243687821,
				"element": "H" 
			},
			{
				"x": 0.2161851138,
				"y": -1.5675008385,
				"z": -1.1575605414,
				"element": "H" 
			},
			{
				"x": -0.8081543681,
				"y": -1.9555495906,
				"z": 0.2198064397,
				"element": "H" 
			},
			{
				"x": -0.284115791,
				"y": 1.2618878769,
				"z": -1.533247338,
				"element": "H" 
			},
			{
				"x": -1.7688840798,
				"y": 3.075660671,
				"z": -0.5388875647,
				"element": "H" 
			},
			{
				"x": -0.6391569215,
				"y": 1.0429840273,
				"z": 2.7643110771,
				"element": "H" 
			}
		],
		 "valence_orbital": [ 
			{
				"type": "occ",
				"energy": -0.3077,
				"method": "rhf"
			},
			{
				"type": "occ",
				"energy": -0.27802,
				"method": "rhf"
			},
			{
				"type": "occ",
				"energy": -0.24914,
				"method": "rhf"
			},
			{
				"type": "occ",
				"energy": -0.23221,
				"method": "rhf"
			},
			{
				"type": "occ",
				"energy": -0.21009,
				"method": "rhf"
			},
			{
				"type": "unocc",
				"energy": 0.02313,
				"method": "rhf"
			},
			{
				"type": "unocc",
				"energy": 0.0726,
				"method": "rhf"
			},
			{
				"type": "unocc",
				"energy": 0.08061,
				"method": "rhf"
			},
			{
				"type": "unocc",
				"energy": 0.0854,
				"method": "rhf"
			},
			{
				"type": "unocc",
				"energy": 0.11147,
				"method": "rhf"
			}
		],
		"cosmo_sigma_profile": { 
			"-0.025": 0.0,
			"-0.024": 0.0,
			"-0.023": 0.0,
			"-0.022": 0.0,
			"-0.021": 0.0,
			"-0.02": 0.0,
			"-0.019": 0.0,
			"-0.018": 0.0,
			"-0.017": 0.071024240179,
			"-0.016": 1.51875316176,
			"-0.015": 1.54936610138,
			"-0.014": 1.13081054633,
			"-0.013": 1.003911373,
			"-0.012": 0.785697645379,
			"-0.011": 1.1016564769,
			"-0.01": 1.69928674483,
			"-0.009": 2.66141401548,
			"-0.008": 3.73803633177,
			"-0.007": 3.97125674741,
			"-0.006": 4.49892271985,
			"-0.005": 5.1913615702,
			"-0.004": 6.5567818931,
			"-0.003": 14.5156791923,
			"-0.002": 22.847366178,
			"-0.001": 30.1568522793,
			"0.0": 23.0698853523,
			"0.001": 16.2674752779,
			"0.002": 8.34261573033,
			"0.003": 6.67643043848,
			"0.004": 6.54764887191,
			"0.005": 7.8451439084,
			"0.006": 4.68127291298,
			"0.007": 3.73667154663,
			"0.008": 2.14592206052,
			"0.009": 2.40393045021,
			"0.01": 2.11015345825,
			"0.011": 1.95303910662,
			"0.012": 2.03857171278,
			"0.013": 1.2045428725,
			"0.014": 2.33040053119,
			"0.015": 1.75110240876,
			"0.016": 1.47311624977,
			"0.017": 0.78774498337,
			"0.018": 0.351781723835,
			"0.019": 0.0,
			"0.02": 0.0,
			"0.021": 0.0,
			"0.022": 0.0,
			"0.023": 0.0,
			"0.024": 0.0,
			"0.025": 0.0
		}
	}
}
