{
	 "smiles": "FC1=C(C=CC=C1)C1=NC(CCl)=CS1", 
	 "Tm": 338.15, 
	 "num_atms": 21, 
	 "gaussian": { 
		 "optdone": 1, 
		 "sigma_profile": "yes", 
		 "theory": "DFT", 
		 "functional": "B3LYP", 
		 "basiset": "6-31G**", 
		 "properties": { 
			 "R2extent": 4781.1337, 
			 "electric_dipole_moment_norm": 2.54705861927, 
			 "electric_quadrupole_moment_norm": 20.3456632846, 
			 "total_energy": -1398.25120889, 
			 "HOMO_LUMO_gap": 0.17008, 
			 "cosmo_polarized_energy": -8.69, 
			 "cosmo_cavitation_energy": 29.3, 
			 "cosmo_dispersion_energy": -22.09, 
			 "cosmo_repulsion_energy": 1.69, 
			 "cosmo_total_nonelectrostatic_energy": 8.9, 
			 "SMD_solvation_energy": 3.72 
		},
		"coords": [
			{
				"x": 0.9979333826,
				"y": 2.7433996872,
				"z": -0.351102358,
				"element": "F" 
			},
			{
				"x": -0.3367311598,
				"y": 2.5127135905,
				"z": -0.3797588978,
				"element": "C" 
			},
			{
				"x": -0.7977175054,
				"y": 1.2216000768,
				"z": -0.6645955645,
				"element": "C" 
			},
			{
				"x": -2.1942012572,
				"y": 1.0347762209,
				"z": -0.6842162772,
				"element": "C" 
			},
			{
				"x": -3.0647803875,
				"y": 2.0881627891,
				"z": -0.4297464178,
				"element": "C" 
			},
			{
				"x": -2.5639348088,
				"y": 3.3635301794,
				"z": -0.1479526879,
				"element": "C" 
			},
			{
				"x": -1.187110204,
				"y": 3.57915279,
				"z": -0.1226223948,
				"element": "C" 
			},
			{
				"x": 0.0850244156,
				"y": 0.0818894907,
				"z": -0.9391197572,
				"element": "C" 
			},
			{
				"x": -0.3728186385,
				"y": -1.1192869877,
				"z": -1.1836181726,
				"element": "N" 
			},
			{
				"x": 0.6376703423,
				"y": -2.0196357501,
				"z": -1.4107643242,
				"element": "C" 
			},
			{
				"x": 0.3000224726,
				"y": -3.441852953,
				"z": -1.704404492,
				"element": "C" 
			},
			{
				"x": -0.1692911877,
				"y": -3.7040836283,
				"z": -3.4580155519,
				"element": "Cl" 
			},
			{
				"x": 1.9056754505,
				"y": -1.5045927564,
				"z": -1.3370602203,
				"element": "C" 
			},
			{
				"x": 1.8512000114,
				"y": 0.179869523,
				"z": -0.9701299814,
				"element": "S" 
			},
			{
				"x": -2.5655155378,
				"y": 0.0409751776,
				"z": -0.9065441936,
				"element": "H" 
			},
			{
				"x": -4.1362953222,
				"y": 1.9167399431,
				"z": -0.4520930255,
				"element": "H" 
			},
			{
				"x": -3.2408256437,
				"y": 4.1886447777,
				"z": 0.0506749075,
				"element": "H" 
			},
			{
				"x": -0.7586668026,
				"y": 4.5522009916,
				"z": 0.0907576626,
				"element": "H" 
			},
			{
				"x": 1.145046346,
				"y": -4.1040996463,
				"z": -1.520240444,
				"element": "H" 
			},
			{
				"x": -0.562318681,
				"y": -3.7635781581,
				"z": -1.1214464286,
				"element": "H" 
			},
			{
				"x": 2.8456347153,
				"y": -2.0180253574,
				"z": -1.4838013807,
				"element": "H" 
			}
		],
		 "valence_orbital": [ 
			{
				"type": "occ",
				"energy": -0.2916,
				"method": "rhf"
			},
			{
				"type": "occ",
				"energy": -0.283,
				"method": "rhf"
			},
			{
				"type": "occ",
				"energy": -0.2799,
				"method": "rhf"
			},
			{
				"type": "occ",
				"energy": -0.25974,
				"method": "rhf"
			},
			{
				"type": "occ",
				"energy": -0.23111,
				"method": "rhf"
			},
			{
				"type": "unocc",
				"energy": -0.06103,
				"method": "rhf"
			},
			{
				"type": "unocc",
				"energy": -0.0182,
				"method": "rhf"
			},
			{
				"type": "unocc",
				"energy": -0.00773,
				"method": "rhf"
			},
			{
				"type": "unocc",
				"energy": 0.02031,
				"method": "rhf"
			},
			{
				"type": "unocc",
				"energy": 0.03159,
				"method": "rhf"
			}
		],
		"cosmo_sigma_profile": { 
			"-0.025": 0.0,
			"-0.024": 0.0,
			"-0.023": 0.0,
			"-0.022": 0.0,
			"-0.021": 0.0,
			"-0.02": 0.0,
			"-0.019": 0.0,
			"-0.018": 0.0,
			"-0.017": 0.0,
			"-0.016": 0.0,
			"-0.015": 0.0,
			"-0.014": 0.0,
			"-0.013": 0.0,
			"-0.012": 0.0,
			"-0.011": 0.0,
			"-0.01": 0.934947329022,
			"-0.009": 3.63098777364,
			"-0.008": 6.59310784313,
			"-0.007": 8.99804137307,
			"-0.006": 11.4252220565,
			"-0.005": 14.5492827857,
			"-0.004": 12.1499076942,
			"-0.003": 10.3288516087,
			"-0.002": 12.3956604312,
			"-0.001": 14.2860624389,
			"0.0": 21.6146324166,
			"0.001": 22.6517883767,
			"0.002": 29.5285336289,
			"0.003": 25.5953458527,
			"0.004": 13.9902367878,
			"0.005": 7.97481048955,
			"0.006": 11.3850786906,
			"0.007": 8.43747806386,
			"0.008": 1.28244492969,
			"0.009": 1.45832450925,
			"0.01": 0.98267830231,
			"0.011": 0.149720655946,
			"0.012": 0.0,
			"0.013": 0.0,
			"0.014": 0.0,
			"0.015": 0.0,
			"0.016": 0.0,
			"0.017": 0.0,
			"0.018": 0.0,
			"0.019": 0.0,
			"0.02": 0.0,
			"0.021": 0.0,
			"0.022": 0.0,
			"0.023": 0.0,
			"0.024": 0.0,
			"0.025": 0.0
		}
	}
}
