{
	 "smiles": "NC1CCN(C1=O)C1=C(F)C=CC=C1F", 
	 "Tm": 336.15, 
	 "num_atms": 25, 
	 "gaussian": { 
		 "optdone": 1, 
		 "sigma_profile": "yes", 
		 "theory": "DFT", 
		 "functional": "B3LYP", 
		 "basiset": "6-31G**", 
		 "properties": { 
			 "R2extent": 3506.4775, 
			 "electric_dipole_moment_norm": 3.23481365769, 
			 "electric_quadrupole_moment_norm": 10.139631805, 
			 "total_energy": -771.492460395, 
			 "HOMO_LUMO_gap": 0.20664, 
			 "cosmo_polarized_energy": -13.52, 
			 "cosmo_cavitation_energy": 29.24, 
			 "cosmo_dispersion_energy": -20.74, 
			 "cosmo_repulsion_energy": 1.6, 
			 "cosmo_total_nonelectrostatic_energy": 10.09, 
			 "SMD_solvation_energy": 4.85 
		},
		"coords": [
			{
				"x": 0.1901058055,
				"y": 2.4804642846,
				"z": 3.2254208272,
				"element": "N" 
			},
			{
				"x": -0.0000887935,
				"y": 1.9535643542,
				"z": 1.8829922934,
				"element": "C" 
			},
			{
				"x": 1.2510523957,
				"y": 2.0051113215,
				"z": 0.9968460623,
				"element": "C" 
			},
			{
				"x": 1.0150897423,
				"y": 0.8905498752,
				"z": -0.0387990099,
				"element": "C" 
			},
			{
				"x": 0.1970389803,
				"y": -0.0812604686,
				"z": 0.7055853279,
				"element": "N" 
			},
			{
				"x": -0.4228175885,
				"y": 0.4735497585,
				"z": 1.8126600662,
				"element": "C" 
			},
			{
				"x": -1.1730153767,
				"y": -0.0970673822,
				"z": 2.5827322991,
				"element": "O" 
			},
			{
				"x": -0.0127062321,
				"y": -1.4093509031,
				"z": 0.2850422531,
				"element": "C" 
			},
			{
				"x": 0.239754694,
				"y": -2.4960617712,
				"z": 1.1343937341,
				"element": "C" 
			},
			{
				"x": 0.7316551353,
				"y": -2.2516199532,
				"z": 2.3578415466,
				"element": "F" 
			},
			{
				"x": 0.0209908583,
				"y": -3.8116059815,
				"z": 0.7435667206,
				"element": "C" 
			},
			{
				"x": -0.4418923054,
				"y": -4.0674621241,
				"z": -0.5472944486,
				"element": "C" 
			},
			{
				"x": -0.688604018,
				"y": -3.0181965931,
				"z": -1.4338024821,
				"element": "C" 
			},
			{
				"x": -0.4818025759,
				"y": -1.7166333561,
				"z": -0.9978573386,
				"element": "C" 
			},
			{
				"x": -0.7356157652,
				"y": -0.6931218998,
				"z": -1.8419027754,
				"element": "F" 
			},
			{
				"x": -0.6656771288,
				"y": 2.3155478919,
				"z": 3.7535218857,
				"element": "H" 
			},
			{
				"x": 0.9054950179,
				"y": 1.9299794333,
				"z": 3.6989247408,
				"element": "H" 
			},
			{
				"x": -0.8106353361,
				"y": 2.5272864902,
				"z": 1.4096873399,
				"element": "H" 
			},
			{
				"x": 2.1321033664,
				"y": 1.7668953893,
				"z": 1.6047013092,
				"element": "H" 
			},
			{
				"x": 1.4146381547,
				"y": 2.9810600637,
				"z": 0.5353410249,
				"element": "H" 
			},
			{
				"x": 0.4760239258,
				"y": 1.2574531512,
				"z": -0.9195552342,
				"element": "H" 
			},
			{
				"x": 1.9417082313,
				"y": 0.4199726127,
				"z": -0.3804114279,
				"element": "H" 
			},
			{
				"x": 0.2288857162,
				"y": -4.6091482469,
				"z": 1.4476003938,
				"element": "H" 
			},
			{
				"x": -0.6090436588,
				"y": -5.0910981001,
				"z": -0.8659559612,
				"element": "H" 
			},
			{
				"x": -1.050443245,
				"y": -3.1873078463,
				"z": -2.4414791468,
				"element": "H" 
			}
		],
		 "valence_orbital": [ 
			{
				"type": "occ",
				"energy": -0.28535,
				"method": "rhf"
			},
			{
				"type": "occ",
				"energy": -0.26926,
				"method": "rhf"
			},
			{
				"type": "occ",
				"energy": -0.25274,
				"method": "rhf"
			},
			{
				"type": "occ",
				"energy": -0.2392,
				"method": "rhf"
			},
			{
				"type": "occ",
				"energy": -0.22892,
				"method": "rhf"
			},
			{
				"type": "unocc",
				"energy": -0.02228,
				"method": "rhf"
			},
			{
				"type": "unocc",
				"energy": -0.00587,
				"method": "rhf"
			},
			{
				"type": "unocc",
				"energy": 0.02549,
				"method": "rhf"
			},
			{
				"type": "unocc",
				"energy": 0.06591,
				"method": "rhf"
			},
			{
				"type": "unocc",
				"energy": 0.09188,
				"method": "rhf"
			}
		],
		"cosmo_sigma_profile": { 
			"-0.025": 0.0,
			"-0.024": 0.0,
			"-0.023": 0.0,
			"-0.022": 0.0,
			"-0.021": 0.0,
			"-0.02": 0.0,
			"-0.019": 0.0,
			"-0.018": 0.0,
			"-0.017": 0.0,
			"-0.016": 0.0,
			"-0.015": 0.0,
			"-0.014": 0.0,
			"-0.013": 0.0,
			"-0.012": 0.0,
			"-0.011": 0.114108303364,
			"-0.01": 1.69637396891,
			"-0.009": 2.91376879156,
			"-0.008": 4.89207935708,
			"-0.007": 8.6443864897,
			"-0.006": 14.0305702367,
			"-0.005": 20.3200994255,
			"-0.004": 19.6837751536,
			"-0.003": 18.1233530604,
			"-0.002": 12.5700552039,
			"-0.001": 15.186830181,
			"0.0": 16.3292379642,
			"0.001": 16.2297678249,
			"0.002": 14.4444478822,
			"0.003": 17.9512077495,
			"0.004": 15.760816631,
			"0.005": 3.04041274621,
			"0.006": 2.36236461397,
			"0.007": 2.8983920319,
			"0.008": 3.07610982239,
			"0.009": 2.35804161455,
			"0.01": 2.27442707996,
			"0.011": 3.4336711244,
			"0.012": 3.56142795559,
			"0.013": 5.53600917675,
			"0.014": 1.6540885225,
			"0.015": 0.895972143222,
			"0.016": 0.362124356471,
			"0.017": 0.665442775467,
			"0.018": 0.72027515523,
			"0.019": 0.220114611842,
			"0.02": 0.0,
			"0.021": 0.0,
			"0.022": 0.0,
			"0.023": 0.0,
			"0.024": 0.0,
			"0.025": 0.0
		}
	}
}
