{
	 "smiles": "[O-][N+](=O)C1=CC(Cl)=C(NC2=C(C=C(C=C2C(F)(F)F)[N+]([O-])=O)[N+]([O-])=O)N=C1", 
	 "Tm": 371.15, 
	 "num_atms": 32, 
	 "gaussian": { 
		 "optdone": 1, 
		 "sigma_profile": "yes", 
		 "theory": "DFT", 
		 "functional": "B3LYP", 
		 "basiset": "6-31G**", 
		 "properties": { 
			 "R2extent": 11968.8657, 
			 "electric_dipole_moment_norm": 4.46591855389, 
			 "electric_quadrupole_moment_norm": 18.4327065902, 
			 "total_energy": -1944.79172391, 
			 "HOMO_LUMO_gap": 0.13927, 
			 "cosmo_polarized_energy": -18.05, 
			 "cosmo_cavitation_energy": 43.35, 
			 "cosmo_dispersion_energy": -29.19, 
			 "cosmo_repulsion_energy": 2.11, 
			 "cosmo_total_nonelectrostatic_energy": 16.27, 
			 "SMD_solvation_energy": 14.44 
		},
		"coords": [
			{
				"x": -1.5471133405,
				"y": -4.688765116,
				"z": 1.1813653494,
				"element": "O" 
			},
			{
				"x": -0.5136470502,
				"y": -4.1831857602,
				"z": 1.6163665071,
				"element": "N" 
			},
			{
				"x": 0.2963336229,
				"y": -4.7429262217,
				"z": 2.3548773534,
				"element": "O" 
			},
			{
				"x": -0.2225099457,
				"y": -2.8068286947,
				"z": 1.2216727966,
				"element": "C" 
			},
			{
				"x": 0.9399302535,
				"y": -2.1875598472,
				"z": 1.6840427339,
				"element": "C" 
			},
			{
				"x": 1.1768302725,
				"y": -0.885925923,
				"z": 1.2874775283,
				"element": "C" 
			},
			{
				"x": 2.61405131,
				"y": -0.0454635738,
				"z": 1.8240142635,
				"element": "Cl" 
			},
			{
				"x": 0.2431796358,
				"y": -0.2428454534,
				"z": 0.436291167,
				"element": "C" 
			},
			{
				"x": 0.4827726518,
				"y": 1.044124071,
				"z": -0.0018282276,
				"element": "N" 
			},
			{
				"x": -0.3510392278,
				"y": 1.8320119613,
				"z": -0.7872533378,
				"element": "C" 
			},
			{
				"x": -1.7507681234,
				"y": 1.9295176206,
				"z": -0.6162893544,
				"element": "C" 
			},
			{
				"x": -2.5464451904,
				"y": 2.6811280548,
				"z": -1.471193829,
				"element": "C" 
			},
			{
				"x": -1.9404586458,
				"y": 3.4119178155,
				"z": -2.4816206134,
				"element": "C" 
			},
			{
				"x": -0.5613896354,
				"y": 3.3961032835,
				"z": -2.6602079065,
				"element": "C" 
			},
			{
				"x": 0.222865031,
				"y": 2.6052038743,
				"z": -1.8310750393,
				"element": "C" 
			},
			{
				"x": 1.7075912046,
				"y": 2.52158864,
				"z": -2.1038433408,
				"element": "C" 
			},
			{
				"x": 2.4300753798,
				"y": 2.8114701959,
				"z": -0.9829445147,
				"element": "F" 
			},
			{
				"x": 2.0739626207,
				"y": 1.2835326217,
				"z": -2.4876066107,
				"element": "F" 
			},
			{
				"x": 2.0946180221,
				"y": 3.3819397471,
				"z": -3.0558865435,
				"element": "F" 
			},
			{
				"x": -2.7722569195,
				"y": 4.2283351086,
				"z": -3.3766833853,
				"element": "N" 
			},
			{
				"x": -2.1932834516,
				"y": 4.8742650868,
				"z": -4.2480466933,
				"element": "O" 
			},
			{
				"x": -3.9865897664,
				"y": 4.2085851856,
				"z": -3.1918684937,
				"element": "O" 
			},
			{
				"x": -2.4505502103,
				"y": 1.3435651372,
				"z": 0.5428268501,
				"element": "N" 
			},
			{
				"x": -1.8481492418,
				"y": 1.3261824124,
				"z": 1.6123648311,
				"element": "O" 
			},
			{
				"x": -3.6062320482,
				"y": 0.9742133751,
				"z": 0.3683713019,
				"element": "O" 
			},
			{
				"x": -0.8573406148,
				"y": -0.8642825944,
				"z": 0.0026292039,
				"element": "N" 
			},
			{
				"x": -1.0976574491,
				"y": -2.1156436498,
				"z": 0.3879211013,
				"element": "C" 
			},
			{
				"x": 1.6213567901,
				"y": -2.7217462283,
				"z": 2.334121336,
				"element": "H" 
			},
			{
				"x": 1.42350765,
				"y": 1.3901205369,
				"z": 0.1389266065,
				"element": "H" 
			},
			{
				"x": -3.6184871776,
				"y": 2.7140401431,
				"z": -1.3278529336,
				"element": "H" 
			},
			{
				"x": -0.118841592,
				"y": 3.9788218514,
				"z": -3.4568777408,
				"element": "H" 
			},
			{
				"x": -2.0036148145,
				"y": -2.5898936601,
				"z": 0.0266096341,
				"element": "H" 
			}
		],
		 "valence_orbital": [ 
			{
				"type": "occ",
				"energy": -0.31357,
				"method": "rhf"
			},
			{
				"type": "occ",
				"energy": -0.31211,
				"method": "rhf"
			},
			{
				"type": "occ",
				"energy": -0.30947,
				"method": "rhf"
			},
			{
				"type": "occ",
				"energy": -0.30594,
				"method": "rhf"
			},
			{
				"type": "occ",
				"energy": -0.26631,
				"method": "rhf"
			},
			{
				"type": "unocc",
				"energy": -0.12704,
				"method": "rhf"
			},
			{
				"type": "unocc",
				"energy": -0.10871,
				"method": "rhf"
			},
			{
				"type": "unocc",
				"energy": -0.103,
				"method": "rhf"
			},
			{
				"type": "unocc",
				"energy": -0.07299,
				"method": "rhf"
			},
			{
				"type": "unocc",
				"energy": -0.06684,
				"method": "rhf"
			}
		],
		"cosmo_sigma_profile": { 
			"-0.025": 0.0,
			"-0.024": 0.0,
			"-0.023": 0.0,
			"-0.022": 0.0,
			"-0.021": 0.0,
			"-0.02": 0.0,
			"-0.019": 0.0,
			"-0.018": 0.0,
			"-0.017": 0.0,
			"-0.016": 0.0,
			"-0.015": 0.0,
			"-0.014": 0.0,
			"-0.013": 0.0,
			"-0.012": 0.0,
			"-0.011": 0.0372937702433,
			"-0.01": 1.96836018725,
			"-0.009": 5.33537367947,
			"-0.008": 8.96943918434,
			"-0.007": 12.6367044671,
			"-0.006": 16.1187652643,
			"-0.005": 24.1097754752,
			"-0.004": 30.361155583,
			"-0.003": 29.3589305425,
			"-0.002": 23.8050618465,
			"-0.001": 18.9814549648,
			"0.0": 21.8946871411,
			"0.001": 28.8209950693,
			"0.002": 27.6641277439,
			"0.003": 13.3534856356,
			"0.004": 10.2866458567,
			"0.005": 10.750262353,
			"0.006": 19.3715255974,
			"0.007": 25.6398263739,
			"0.008": 13.6695925112,
			"0.009": 8.93256864439,
			"0.01": 1.37019015992,
			"0.011": 0.0,
			"0.012": 0.0,
			"0.013": 0.0,
			"0.014": 0.0,
			"0.015": 0.0,
			"0.016": 0.0,
			"0.017": 0.0,
			"0.018": 0.0,
			"0.019": 0.0,
			"0.02": 0.0,
			"0.021": 0.0,
			"0.022": 0.0,
			"0.023": 0.0,
			"0.024": 0.0,
			"0.025": 0.0
		}
	}
}
