{
	 "smiles": "CC(=O)C1=CC=C(C=C1)S(=O)(=O)N1CCCCC1C(O)=O", 
	 "Tm": 406.15, 
	 "num_atms": 38, 
	 "gaussian": { 
		 "optdone": 1, 
		 "sigma_profile": "yes", 
		 "theory": "DFT", 
		 "functional": "B3LYP", 
		 "basiset": "6-31G**", 
		 "properties": { 
			 "R2extent": 7983.249, 
			 "electric_dipole_moment_norm": 2.91402565878, 
			 "electric_quadrupole_moment_norm": 27.9154740866, 
			 "total_energy": -1372.7374762, 
			 "HOMO_LUMO_gap": 0.16723, 
			 "cosmo_polarized_energy": -23.06, 
			 "cosmo_cavitation_energy": 41.32, 
			 "cosmo_dispersion_energy": -28.96, 
			 "cosmo_repulsion_energy": 2.14, 
			 "cosmo_total_nonelectrostatic_energy": 14.51, 
			 "SMD_solvation_energy": 7.52 
		},
		"coords": [
			{
				"x": 5.3186215698,
				"y": 2.4855103831,
				"z": -0.6977388205,
				"element": "C" 
			},
			{
				"x": 5.1520777981,
				"y": 1.0787010178,
				"z": -0.1562881772,
				"element": "C" 
			},
			{
				"x": 6.0825886553,
				"y": 0.4920474212,
				"z": 0.371134602,
				"element": "O" 
			},
			{
				"x": 3.8093239951,
				"y": 0.4048381109,
				"z": -0.2774640783,
				"element": "C" 
			},
			{
				"x": 3.6862430539,
				"y": -0.9026553975,
				"z": 0.2137821977,
				"element": "C" 
			},
			{
				"x": 2.472486948,
				"y": -1.5801892259,
				"z": 0.1340335708,
				"element": "C" 
			},
			{
				"x": 1.3757143276,
				"y": -0.9321324043,
				"z": -0.4378158204,
				"element": "C" 
			},
			{
				"x": 1.4757882233,
				"y": 0.3651871481,
				"z": -0.9475989126,
				"element": "C" 
			},
			{
				"x": 2.69632541,
				"y": 1.0304687947,
				"z": -0.8611707735,
				"element": "C" 
			},
			{
				"x": -0.1959082526,
				"y": -1.7973318194,
				"z": -0.5603830813,
				"element": "S" 
			},
			{
				"x": -0.8158003373,
				"y": -1.4498876758,
				"z": -1.8421985014,
				"element": "O" 
			},
			{
				"x": 0.0400497642,
				"y": -3.1949283856,
				"z": -0.1819484385,
				"element": "O" 
			},
			{
				"x": -1.1157490446,
				"y": -0.9960857242,
				"z": 0.6507706227,
				"element": "N" 
			},
			{
				"x": -0.9423755375,
				"y": -1.5174928739,
				"z": 2.0294374543,
				"element": "C" 
			},
			{
				"x": -1.7785147309,
				"y": -2.7818092246,
				"z": 2.3220172697,
				"element": "C" 
			},
			{
				"x": -3.0595419743,
				"y": -2.8121234169,
				"z": 1.4604565547,
				"element": "C" 
			},
			{
				"x": -3.5545144633,
				"y": -1.3917672169,
				"z": 1.1685023547,
				"element": "C" 
			},
			{
				"x": -2.5189716145,
				"y": -0.6312935949,
				"z": 0.307254109,
				"element": "C" 
			},
			{
				"x": -2.716800693,
				"y": 0.8935121311,
				"z": 0.4071470344,
				"element": "C" 
			},
			{
				"x": -1.5855592203,
				"y": 1.6102397731,
				"z": 0.5520459285,
				"element": "O" 
			},
			{
				"x": -3.809107738,
				"y": 1.4023725203,
				"z": 0.3441088412,
				"element": "O" 
			},
			{
				"x": 5.102567879,
				"y": 2.5213357103,
				"z": -1.7713247964,
				"element": "H" 
			},
			{
				"x": 4.6322019825,
				"y": 3.1814913679,
				"z": -0.202705392,
				"element": "H" 
			},
			{
				"x": 6.3457979206,
				"y": 2.806720811,
				"z": -0.524655037,
				"element": "H" 
			},
			{
				"x": 4.5613582027,
				"y": -1.3702031395,
				"z": 0.6519963277,
				"element": "H" 
			},
			{
				"x": 2.3685704122,
				"y": -2.5982898244,
				"z": 0.4924926919,
				"element": "H" 
			},
			{
				"x": 0.6182156724,
				"y": 0.8407844382,
				"z": -1.4123729626,
				"element": "H" 
			},
			{
				"x": 2.7746521954,
				"y": 2.0373409747,
				"z": -1.2566681896,
				"element": "H" 
			},
			{
				"x": -1.2430301438,
				"y": -0.6949479263,
				"z": 2.6874795048,
				"element": "H" 
			},
			{
				"x": 0.1228443878,
				"y": -1.6831150255,
				"z": 2.2078233892,
				"element": "H" 
			},
			{
				"x": -2.0362470352,
				"y": -2.7756632065,
				"z": 3.3876936461,
				"element": "H" 
			},
			{
				"x": -1.1817629367,
				"y": -3.6767697347,
				"z": 2.1336174,
				"element": "H" 
			},
			{
				"x": -2.8515598802,
				"y": -3.3253996425,
				"z": 0.514249175,
				"element": "H" 
			},
			{
				"x": -3.8404084167,
				"y": -3.3910600927,
				"z": 1.9630804563,
				"element": "H" 
			},
			{
				"x": -3.7308213105,
				"y": -0.8517520159,
				"z": 2.1062809031,
				"element": "H" 
			},
			{
				"x": -4.5073052284,
				"y": -1.3934218735,
				"z": 0.6346252466,
				"element": "H" 
			},
			{
				"x": -2.6731652823,
				"y": -0.8840722452,
				"z": -0.7456035871,
				"element": "H" 
			},
			{
				"x": -0.8626845578,
				"y": 0.9540410844,
				"z": 0.621507288,
				"element": "H" 
			}
		],
		 "valence_orbital": [ 
			{
				"type": "occ",
				"energy": -0.30638,
				"method": "rhf"
			},
			{
				"type": "occ",
				"energy": -0.29317,
				"method": "rhf"
			},
			{
				"type": "occ",
				"energy": -0.28475,
				"method": "rhf"
			},
			{
				"type": "occ",
				"energy": -0.26982,
				"method": "rhf"
			},
			{
				"type": "occ",
				"energy": -0.25694,
				"method": "rhf"
			},
			{
				"type": "unocc",
				"energy": -0.08971,
				"method": "rhf"
			},
			{
				"type": "unocc",
				"energy": -0.04316,
				"method": "rhf"
			},
			{
				"type": "unocc",
				"energy": -0.00426,
				"method": "rhf"
			},
			{
				"type": "unocc",
				"energy": 0.00717,
				"method": "rhf"
			},
			{
				"type": "unocc",
				"energy": 0.03539,
				"method": "rhf"
			}
		],
		"cosmo_sigma_profile": { 
			"-0.025": 0.0,
			"-0.024": 0.0,
			"-0.023": 0.0,
			"-0.022": 0.0,
			"-0.021": 0.0,
			"-0.02": 0.0,
			"-0.019": 0.0,
			"-0.018": 0.0,
			"-0.017": 0.0,
			"-0.016": 0.0,
			"-0.015": 0.00275433526349,
			"-0.014": 0.058679008156,
			"-0.013": 0.20647462037,
			"-0.012": 0.136097917196,
			"-0.011": 0.297964377439,
			"-0.01": 1.71190813293,
			"-0.009": 2.9259607611,
			"-0.008": 6.43529804177,
			"-0.007": 16.1319578437,
			"-0.006": 22.797852252,
			"-0.005": 23.9238174709,
			"-0.004": 27.2220791801,
			"-0.003": 28.535317601,
			"-0.002": 29.6384894515,
			"-0.001": 25.1326316695,
			"0.0": 25.8894246041,
			"0.001": 18.9907325175,
			"0.002": 8.1768045906,
			"0.003": 7.41156424352,
			"0.004": 6.6736621683,
			"0.005": 6.31479772906,
			"0.006": 7.57669177878,
			"0.007": 6.56440482302,
			"0.008": 8.29476050843,
			"0.009": 10.5602903745,
			"0.01": 13.7211715469,
			"0.011": 11.5241227065,
			"0.012": 7.59894001446,
			"0.013": 2.23809552691,
			"0.014": 0.0510304344541,
			"0.015": 0.0,
			"0.016": 0.0,
			"0.017": 0.0,
			"0.018": 0.0,
			"0.019": 0.0,
			"0.02": 0.0,
			"0.021": 0.0,
			"0.022": 0.0,
			"0.023": 0.0,
			"0.024": 0.0,
			"0.025": 0.0
		}
	}
}
