{
	 "smiles": "COC1=C2N=C(N)SC2=CC(=C1)[N+]([O-])=O", 
	 "Tm": 553.15, 
	 "num_atms": 22, 
	 "gaussian": { 
		 "optdone": 1, 
		 "sigma_profile": "yes", 
		 "theory": "DFT", 
		 "functional": "B3LYP", 
		 "basiset": "6-31G**", 
		 "properties": { 
			 "R2extent": 4082.9411, 
			 "electric_dipole_moment_norm": 8.12307519416, 
			 "electric_quadrupole_moment_norm": 8.35959274187, 
			 "total_energy": -1097.07931513, 
			 "HOMO_LUMO_gap": 0.14295, 
			 "cosmo_polarized_energy": -15.83, 
			 "cosmo_cavitation_energy": 28.93, 
			 "cosmo_dispersion_energy": -21.94, 
			 "cosmo_repulsion_energy": 1.67, 
			 "cosmo_total_nonelectrostatic_energy": 8.66, 
			 "SMD_solvation_energy": 6.68 
		},
		"coords": [
			{
				"x": -0.5787816574,
				"y": 0.2962764926,
				"z": 3.6042411384,
				"element": "C" 
			},
			{
				"x": 0.1962349904,
				"y": 0.895268336,
				"z": 2.561238059,
				"element": "O" 
			},
			{
				"x": 0.4734440697,
				"y": 0.2088628389,
				"z": 1.4230841549,
				"element": "C" 
			},
			{
				"x": -0.3354720292,
				"y": -0.8022981799,
				"z": 0.846805252,
				"element": "C" 
			},
			{
				"x": -1.5422589173,
				"y": -1.2625595643,
				"z": 1.3420400016,
				"element": "N" 
			},
			{
				"x": -2.0399279361,
				"y": -2.1858071803,
				"z": 0.576252057,
				"element": "C" 
			},
			{
				"x": -3.1939405005,
				"y": -2.8607040384,
				"z": 0.8509503033,
				"element": "N" 
			},
			{
				"x": -1.0840515911,
				"y": -2.6127973945,
				"z": -0.8661135627,
				"element": "S" 
			},
			{
				"x": 0.0935921321,
				"y": -1.3984349024,
				"z": -0.3707842271,
				"element": "C" 
			},
			{
				"x": 1.2508980911,
				"y": -1.0285309696,
				"z": -1.0392390328,
				"element": "C" 
			},
			{
				"x": 2.003891959,
				"y": -0.0195853922,
				"z": -0.441812467,
				"element": "C" 
			},
			{
				"x": 1.6414592951,
				"y": 0.5891117818,
				"z": 0.7599366525,
				"element": "C" 
			},
			{
				"x": 3.2401669143,
				"y": 0.4119695484,
				"z": -1.1037811086,
				"element": "N" 
			},
			{
				"x": 3.5477770287,
				"y": -0.1454840497,
				"z": -2.1593708104,
				"element": "O" 
			},
			{
				"x": 3.8981791723,
				"y": 1.3045809519,
				"z": -0.5690669071,
				"element": "O" 
			},
			{
				"x": -1.6328650226,
				"y": 0.2220091481,
				"z": 3.3331198134,
				"element": "H" 
			},
			{
				"x": -0.2041130412,
				"y": -0.7033712173,
				"z": 3.8497605861,
				"element": "H" 
			},
			{
				"x": -0.4531620547,
				"y": 0.9544916461,
				"z": 4.4660527559,
				"element": "H" 
			},
			{
				"x": -3.7626572721,
				"y": -2.4487107072,
				"z": 1.5777493469,
				"element": "H" 
			},
			{
				"x": -3.699523176,
				"y": -3.2843497189,
				"z": 0.0878617625,
				"element": "H" 
			},
			{
				"x": 1.5736816125,
				"y": -1.4736060179,
				"z": -1.9705625467,
				"element": "H" 
			},
			{
				"x": 2.2667279329,
				"y": 1.3620685887,
				"z": 1.1861387787,
				"element": "H" 
			}
		],
		 "valence_orbital": [ 
			{
				"type": "occ",
				"energy": -0.29874,
				"method": "rhf"
			},
			{
				"type": "occ",
				"energy": -0.29126,
				"method": "rhf"
			},
			{
				"type": "occ",
				"energy": -0.28004,
				"method": "rhf"
			},
			{
				"type": "occ",
				"energy": -0.24223,
				"method": "rhf"
			},
			{
				"type": "occ",
				"energy": -0.22329,
				"method": "rhf"
			},
			{
				"type": "unocc",
				"energy": -0.08034,
				"method": "rhf"
			},
			{
				"type": "unocc",
				"energy": -0.01798,
				"method": "rhf"
			},
			{
				"type": "unocc",
				"energy": -0.01587,
				"method": "rhf"
			},
			{
				"type": "unocc",
				"energy": -0.01128,
				"method": "rhf"
			},
			{
				"type": "unocc",
				"energy": 0.03767,
				"method": "rhf"
			}
		],
		"cosmo_sigma_profile": { 
			"-0.025": 0.0,
			"-0.024": 0.0,
			"-0.023": 0.0,
			"-0.022": 0.0,
			"-0.021": 0.0,
			"-0.02": 0.0,
			"-0.019": 0.0,
			"-0.018": 0.0,
			"-0.017": 0.0,
			"-0.016": 0.5326740062,
			"-0.015": 2.29940633822,
			"-0.014": 3.22371036065,
			"-0.013": 2.23898318366,
			"-0.012": 2.50055818578,
			"-0.011": 3.19764903469,
			"-0.01": 1.43147282643,
			"-0.009": 1.9375951342,
			"-0.008": 3.17328650718,
			"-0.007": 3.68116082974,
			"-0.006": 6.54475297692,
			"-0.005": 9.49556597279,
			"-0.004": 12.1434002218,
			"-0.003": 15.4357176854,
			"-0.002": 14.8701305077,
			"-0.001": 17.1861772356,
			"0.0": 23.1190643527,
			"0.001": 25.7428595666,
			"0.002": 15.3752695956,
			"0.003": 12.4971823989,
			"0.004": 8.99344352924,
			"0.005": 6.83955492562,
			"0.006": 7.38106272253,
			"0.007": 8.91759480088,
			"0.008": 13.0776203302,
			"0.009": 6.25900458125,
			"0.01": 5.05542324446,
			"0.011": 0.861606634095,
			"0.012": 0.0,
			"0.013": 0.0,
			"0.014": 0.0,
			"0.015": 0.0,
			"0.016": 0.0,
			"0.017": 0.0,
			"0.018": 0.0,
			"0.019": 0.0,
			"0.02": 0.0,
			"0.021": 0.0,
			"0.022": 0.0,
			"0.023": 0.0,
			"0.024": 0.0,
			"0.025": 0.0
		}
	}
}
