{
	 "smiles": "CS(=O)(=O)CC1=CC=C(N)C=C1", 
	 "Tm": 433.15, 
	 "num_atms": 23, 
	 "gaussian": { 
		 "optdone": 1, 
		 "sigma_profile": "yes", 
		 "theory": "DFT", 
		 "functional": "B3LYP", 
		 "basiset": "6-31G**", 
		 "properties": { 
			 "R2extent": 3034.0967, 
			 "electric_dipole_moment_norm": 6.29058343638, 
			 "electric_quadrupole_moment_norm": 16.5758799797, 
			 "total_energy": -914.815398679, 
			 "HOMO_LUMO_gap": 0.20103, 
			 "cosmo_polarized_energy": -20.11, 
			 "cosmo_cavitation_energy": 27.81, 
			 "cosmo_dispersion_energy": -20.42, 
			 "cosmo_repulsion_energy": 1.59, 
			 "cosmo_total_nonelectrostatic_energy": 8.98, 
			 "SMD_solvation_energy": 4.27 
		},
		"coords": [
			{
				"x": 0.3597646455,
				"y": 2.8929871006,
				"z": -0.6733570753,
				"element": "C" 
			},
			{
				"x": 1.2651611778,
				"y": 2.4176481909,
				"z": 0.8180584059,
				"element": "S" 
			},
			{
				"x": 2.5968923241,
				"y": 3.0442253986,
				"z": 0.7654244946,
				"element": "O" 
			},
			{
				"x": 0.3803573576,
				"y": 2.6519624623,
				"z": 1.9723642388,
				"element": "O" 
			},
			{
				"x": 1.5146760526,
				"y": 0.6042941509,
				"z": 0.6412238141,
				"element": "C" 
			},
			{
				"x": 0.2575307224,
				"y": -0.2007023365,
				"z": 0.4859101343,
				"element": "C" 
			},
			{
				"x": -0.0617769026,
				"y": -0.8047145185,
				"z": -0.7380311559,
				"element": "C" 
			},
			{
				"x": -1.2231947702,
				"y": -1.5544542115,
				"z": -0.8966069361,
				"element": "C" 
			},
			{
				"x": -2.1143903278,
				"y": -1.7231984777,
				"z": 0.177538747,
				"element": "C" 
			},
			{
				"x": -3.2483175306,
				"y": -2.518490606,
				"z": 0.0470588039,
				"element": "N" 
			},
			{
				"x": -1.7996321516,
				"y": -1.1147398522,
				"z": 1.4073421252,
				"element": "C" 
			},
			{
				"x": -0.6362882235,
				"y": -0.3704722217,
				"z": 1.5555017122,
				"element": "C" 
			},
			{
				"x": -0.5749952944,
				"y": 2.3341714632,
				"z": -0.7210941513,
				"element": "H" 
			},
			{
				"x": 0.9820248166,
				"y": 2.7041806469,
				"z": -1.5494999179,
				"element": "H" 
			},
			{
				"x": 0.1628008402,
				"y": 3.9618041914,
				"z": -0.5737848883,
				"element": "H" 
			},
			{
				"x": 2.1988170678,
				"y": 0.4828071348,
				"z": -0.2027055042,
				"element": "H" 
			},
			{
				"x": 2.0644533353,
				"y": 0.3675717629,
				"z": 1.5584174724,
				"element": "H" 
			},
			{
				"x": 0.6139849794,
				"y": -0.6956780098,
				"z": -1.5834156006,
				"element": "H" 
			},
			{
				"x": -1.4405965069,
				"y": -2.0219249397,
				"z": -1.8537160345,
				"element": "H" 
			},
			{
				"x": -3.9902414849,
				"y": -2.338887844,
				"z": 0.7085941715,
				"element": "H" 
			},
			{
				"x": -3.5914795335,
				"y": -2.6471596283,
				"z": -0.8941727539,
				"element": "H" 
			},
			{
				"x": -2.4742023614,
				"y": -1.2352500736,
				"z": 2.2513168247,
				"element": "H" 
			},
			{
				"x": -0.4234482319,
				"y": 0.1046202171,
				"z": 2.5079330731,
				"element": "H" 
			}
		],
		 "valence_orbital": [ 
			{
				"type": "occ",
				"energy": -0.30192,
				"method": "rhf"
			},
			{
				"type": "occ",
				"energy": -0.28513,
				"method": "rhf"
			},
			{
				"type": "occ",
				"energy": -0.27815,
				"method": "rhf"
			},
			{
				"type": "occ",
				"energy": -0.2574,
				"method": "rhf"
			},
			{
				"type": "occ",
				"energy": -0.21029,
				"method": "rhf"
			},
			{
				"type": "unocc",
				"energy": -0.00926,
				"method": "rhf"
			},
			{
				"type": "unocc",
				"energy": -0.00507,
				"method": "rhf"
			},
			{
				"type": "unocc",
				"energy": 0.07008,
				"method": "rhf"
			},
			{
				"type": "unocc",
				"energy": 0.07364,
				"method": "rhf"
			},
			{
				"type": "unocc",
				"energy": 0.07684,
				"method": "rhf"
			}
		],
		"cosmo_sigma_profile": { 
			"-0.025": 0.0,
			"-0.024": 0.0,
			"-0.023": 0.0,
			"-0.022": 0.0,
			"-0.021": 0.0,
			"-0.02": 0.0,
			"-0.019": 0.0,
			"-0.018": 0.0,
			"-0.017": 0.0,
			"-0.016": 0.0,
			"-0.015": 0.0,
			"-0.014": 0.0,
			"-0.013": 0.612838292168,
			"-0.012": 2.76886198549,
			"-0.011": 2.92069021103,
			"-0.01": 3.45570633826,
			"-0.009": 6.61333974612,
			"-0.008": 10.7632920062,
			"-0.007": 11.7378840841,
			"-0.006": 14.1993793668,
			"-0.005": 13.0613225023,
			"-0.004": 17.8610838201,
			"-0.003": 15.779036267,
			"-0.002": 9.00579256973,
			"-0.001": 9.70344017889,
			"0.0": 7.98659222505,
			"0.001": 6.66294326148,
			"0.002": 7.86321116777,
			"0.003": 8.24210779003,
			"0.004": 9.27941983132,
			"0.005": 11.3888579823,
			"0.006": 9.60391810343,
			"0.007": 4.19672055795,
			"0.008": 2.08891243499,
			"0.009": 4.31742177803,
			"0.01": 4.66801587447,
			"0.011": 7.07378589369,
			"0.012": 11.7597097878,
			"0.013": 5.83913960331,
			"0.014": 0.329707417129,
			"0.015": 0.0,
			"0.016": 0.0,
			"0.017": 0.0,
			"0.018": 0.0,
			"0.019": 0.0,
			"0.02": 0.0,
			"0.021": 0.0,
			"0.022": 0.0,
			"0.023": 0.0,
			"0.024": 0.0,
			"0.025": 0.0
		}
	}
}
