{
	 "smiles": "N#CCC=CCC#N", 
	 "Tm": 349.15, 
	 "num_atms": 14, 
	 "gaussian": { 
		 "optdone": 1, 
		 "sigma_profile": "yes", 
		 "theory": "DFT", 
		 "functional": "B3LYP", 
		 "basiset": "6-31G**", 
		 "properties": { 
			 "R2extent": 1693.4984, 
			 "electric_dipole_moment_norm": 0.00100498756211, 
			 "electric_quadrupole_moment_norm": 29.1106378779, 
			 "total_energy": -341.696805055, 
			 "HOMO_LUMO_gap": 0.26661, 
			 "cosmo_polarized_energy": -16.45, 
			 "cosmo_cavitation_energy": 20.85, 
			 "cosmo_dispersion_energy": -13.82, 
			 "cosmo_repulsion_energy": 1.2, 
			 "cosmo_total_nonelectrostatic_energy": 8.23, 
			 "SMD_solvation_energy": 6.8 
		},
		"coords": [
			{
				"x": 2.5888308178,
				"y": 0.1702472647,
				"z": 2.6061985153,
				"element": "N" 
			},
			{
				"x": 1.5851852335,
				"y": -0.0994025564,
				"z": 2.0900722459,
				"element": "C" 
			},
			{
				"x": 0.3235705051,
				"y": -0.4325064738,
				"z": 1.4146459969,
				"element": "C" 
			},
			{
				"x": 0.2032321019,
				"y": 0.2388116443,
				"z": 0.064265689,
				"element": "C" 
			},
			{
				"x": -0.7938833335,
				"y": 1.0576012704,
				"z": -0.2666693987,
				"element": "C" 
			},
			{
				"x": -0.9142981154,
				"y": 1.7287398621,
				"z": -1.6171099865,
				"element": "C" 
			},
			{
				"x": -2.1757514348,
				"y": 1.3951849688,
				"z": -2.2927404875,
				"element": "C" 
			},
			{
				"x": -3.1792572863,
				"y": 1.1255913993,
				"z": -2.8091899479,
				"element": "N" 
			},
			{
				"x": -0.5105214229,
				"y": -0.1471397854,
				"z": 2.0649540149,
				"element": "H" 
			},
			{
				"x": 0.2821341698,
				"y": -1.5243507283,
				"z": 1.3015025325,
				"element": "H" 
			},
			{
				"x": 0.9908101543,
				"y": 0.0133881418,
				"z": -0.6527674804,
				"element": "H" 
			},
			{
				"x": -1.5815074992,
				"y": 1.2829862885,
				"z": 0.4503268047,
				"element": "H" 
			},
			{
				"x": -0.0800086878,
				"y": 1.4436542509,
				"z": -2.2672881039,
				"element": "H" 
			},
			{
				"x": -0.8733352025,
				"y": 2.8205944531,
				"z": -1.5040003944,
				"element": "H" 
			}
		],
		 "valence_orbital": [ 
			{
				"type": "occ",
				"energy": -0.34118,
				"method": "rhf"
			},
			{
				"type": "occ",
				"energy": -0.33636,
				"method": "rhf"
			},
			{
				"type": "occ",
				"energy": -0.33585,
				"method": "rhf"
			},
			{
				"type": "occ",
				"energy": -0.33105,
				"method": "rhf"
			},
			{
				"type": "occ",
				"energy": -0.29513,
				"method": "rhf"
			},
			{
				"type": "unocc",
				"energy": -0.02852,
				"method": "rhf"
			},
			{
				"type": "unocc",
				"energy": 0.02285,
				"method": "rhf"
			},
			{
				"type": "unocc",
				"energy": 0.0276,
				"method": "rhf"
			},
			{
				"type": "unocc",
				"energy": 0.02903,
				"method": "rhf"
			},
			{
				"type": "unocc",
				"energy": 0.04056,
				"method": "rhf"
			}
		],
		"cosmo_sigma_profile": { 
			"-0.025": 0.0,
			"-0.024": 0.0,
			"-0.023": 0.0,
			"-0.022": 0.0,
			"-0.021": 0.0,
			"-0.02": 0.0,
			"-0.019": 0.0,
			"-0.018": 0.0,
			"-0.017": 0.0,
			"-0.016": 0.0,
			"-0.015": 0.0,
			"-0.014": 0.0,
			"-0.013": 0.0,
			"-0.012": 0.0,
			"-0.011": 0.0,
			"-0.01": 0.0658248170205,
			"-0.009": 8.4483249043,
			"-0.008": 13.336194304,
			"-0.007": 17.2238148221,
			"-0.006": 12.8297910705,
			"-0.005": 11.0970583246,
			"-0.004": 7.25461665114,
			"-0.003": 6.64326245874,
			"-0.002": 6.11280690228,
			"-0.001": 5.64432568229,
			"0.0": 7.27972216735,
			"0.001": 7.36488055175,
			"0.002": 5.9128516192,
			"0.003": 4.25322405691,
			"0.004": 4.86589864405,
			"0.005": 3.28306393829,
			"0.006": 6.08990669527,
			"0.007": 5.16888782244,
			"0.008": 6.67968554227,
			"0.009": 7.265820354,
			"0.01": 6.38263840365,
			"0.011": 5.79662821315,
			"0.012": 4.83638556563,
			"0.013": 3.79817685717,
			"0.014": 0.439000495963,
			"0.015": 0.0,
			"0.016": 0.0,
			"0.017": 0.0,
			"0.018": 0.0,
			"0.019": 0.0,
			"0.02": 0.0,
			"0.021": 0.0,
			"0.022": 0.0,
			"0.023": 0.0,
			"0.024": 0.0,
			"0.025": 0.0
		}
	}
}
