{
	 "smiles": "CCCCCCCCCCCCCCCCOC1=CC=C(C=C1)C(O)=O", 
	 "Tm": 405.15, 
	 "num_atms": 64, 
	 "gaussian": { 
		 "optdone": 1, 
		 "sigma_profile": "yes", 
		 "theory": "DFT", 
		 "functional": "B3LYP", 
		 "basiset": "6-31G**", 
		 "properties": { 
			 "R2extent": 18781.0908, 
			 "electric_dipole_moment_norm": 3.90257587883, 
			 "electric_quadrupole_moment_norm": 25.6033953237, 
			 "total_energy": -1125.07949934, 
			 "HOMO_LUMO_gap": 0.19356, 
			 "cosmo_polarized_energy": -11.55, 
			 "cosmo_cavitation_energy": 63.67, 
			 "cosmo_dispersion_energy": -40.34, 
			 "cosmo_repulsion_energy": 3.14, 
			 "cosmo_total_nonelectrostatic_energy": 26.47, 
			 "SMD_solvation_energy": 10.09 
		},
		"coords": [
			{
				"x": 2.9549884128,
				"y": -0.9134351758,
				"z": 2.9993358856,
				"element": "C" 
			},
			{
				"x": 2.2004640686,
				"y": -2.2371506498,
				"z": 3.1588297812,
				"element": "C" 
			},
			{
				"x": 0.7730979103,
				"y": -2.1925425349,
				"z": 2.597781796,
				"element": "C" 
			},
			{
				"x": 0.0146501773,
				"y": -3.5183807207,
				"z": 2.7534641383,
				"element": "C" 
			},
			{
				"x": -1.446388537,
				"y": -3.4853268449,
				"z": 2.2744535798,
				"element": "C" 
			},
			{
				"x": -1.6242013249,
				"y": -3.2844335539,
				"z": 0.7626576618,
				"element": "C" 
			},
			{
				"x": -3.0947883318,
				"y": -3.3055702389,
				"z": 0.321106861,
				"element": "C" 
			},
			{
				"x": -3.3030536351,
				"y": -3.1132915756,
				"z": -1.1936581031,
				"element": "C" 
			},
			{
				"x": -2.9873484486,
				"y": -1.709372881,
				"z": -1.7611108044,
				"element": "C" 
			},
			{
				"x": -4.1783258278,
				"y": -0.733370111,
				"z": -1.8315637527,
				"element": "C" 
			},
			{
				"x": -4.8132949881,
				"y": -0.2960092112,
				"z": -0.4997757113,
				"element": "C" 
			},
			{
				"x": -3.9253843979,
				"y": 0.5002439053,
				"z": 0.4766313314,
				"element": "C" 
			},
			{
				"x": -3.4650241857,
				"y": 1.8895192559,
				"z": -0.0251511455,
				"element": "C" 
			},
			{
				"x": -2.0893742805,
				"y": 1.947496816,
				"z": -0.7155270178,
				"element": "C" 
			},
			{
				"x": -0.9092159818,
				"y": 1.7326996053,
				"z": 0.2429410141,
				"element": "C" 
			},
			{
				"x": 0.4521792444,
				"y": 1.8098999119,
				"z": -0.4346840787,
				"element": "C" 
			},
			{
				"x": 0.6212170404,
				"y": 3.1377447541,
				"z": -0.9414300821,
				"element": "O" 
			},
			{
				"x": 1.7597095405,
				"y": 3.4536749731,
				"z": -1.609094133,
				"element": "C" 
			},
			{
				"x": 2.817902376,
				"y": 2.5626162962,
				"z": -1.8445590921,
				"element": "C" 
			},
			{
				"x": 3.9425428482,
				"y": 2.9986428879,
				"z": -2.5427647731,
				"element": "C" 
			},
			{
				"x": 4.0304597938,
				"y": 4.3142585281,
				"z": -3.0121412251,
				"element": "C" 
			},
			{
				"x": 2.9647401704,
				"y": 5.1989050443,
				"z": -2.770165304,
				"element": "C" 
			},
			{
				"x": 1.8429192131,
				"y": 4.7774939028,
				"z": -2.0781626574,
				"element": "C" 
			},
			{
				"x": 5.2048361346,
				"y": 4.8178760685,
				"z": -3.7570351562,
				"element": "C" 
			},
			{
				"x": 6.1726807663,
				"y": 3.8780194315,
				"z": -3.932654425,
				"element": "O" 
			},
			{
				"x": 5.3302598346,
				"y": 5.9500859342,
				"z": -4.1855006308,
				"element": "O" 
			},
			{
				"x": 3.0419367524,
				"y": -0.6314051399,
				"z": 1.9432266139,
				"element": "H" 
			},
			{
				"x": 3.9685783449,
				"y": -0.9763157412,
				"z": 3.4085047095,
				"element": "H" 
			},
			{
				"x": 2.4381876402,
				"y": -0.0972775341,
				"z": 3.5173469847,
				"element": "H" 
			},
			{
				"x": 2.1623609287,
				"y": -2.5109929142,
				"z": 4.2219508081,
				"element": "H" 
			},
			{
				"x": 2.7599477038,
				"y": -3.0400874348,
				"z": 2.6597588075,
				"element": "H" 
			},
			{
				"x": 0.8183404648,
				"y": -1.9085826503,
				"z": 1.537564464,
				"element": "H" 
			},
			{
				"x": 0.2109490722,
				"y": -1.3935073929,
				"z": 3.1036760157,
				"element": "H" 
			},
			{
				"x": 0.5552211607,
				"y": -4.3103561765,
				"z": 2.2153486943,
				"element": "H" 
			},
			{
				"x": 0.0309151599,
				"y": -3.808821551,
				"z": 3.812752113,
				"element": "H" 
			},
			{
				"x": -1.9840328626,
				"y": -2.6901364295,
				"z": 2.8111241592,
				"element": "H" 
			},
			{
				"x": -1.9342146237,
				"y": -4.4259703376,
				"z": 2.5640905714,
				"element": "H" 
			},
			{
				"x": -1.1627589488,
				"y": -2.3358792567,
				"z": 0.46079435,
				"element": "H" 
			},
			{
				"x": -1.0750578741,
				"y": -4.0717865816,
				"z": 0.2255981986,
				"element": "H" 
			},
			{
				"x": -3.6500784329,
				"y": -2.5431412547,
				"z": 0.8815397813,
				"element": "H" 
			},
			{
				"x": -3.5326380513,
				"y": -4.2699201879,
				"z": 0.6133622826,
				"element": "H" 
			},
			{
				"x": -4.3394996098,
				"y": -3.3720277978,
				"z": -1.4494551175,
				"element": "H" 
			},
			{
				"x": -2.6785602455,
				"y": -3.8534538777,
				"z": -1.7117427657,
				"element": "H" 
			},
			{
				"x": -2.1615578835,
				"y": -1.2559221541,
				"z": -1.1984571125,
				"element": "H" 
			},
			{
				"x": -2.6090577549,
				"y": -1.8260450306,
				"z": -2.7844291952,
				"element": "H" 
			},
			{
				"x": -4.9635757469,
				"y": -1.200095122,
				"z": -2.442385061,
				"element": "H" 
			},
			{
				"x": -3.8654904656,
				"y": 0.1583070996,
				"z": -2.3902114452,
				"element": "H" 
			},
			{
				"x": -5.2004798109,
				"y": -1.1803491007,
				"z": 0.0219839744,
				"element": "H" 
			},
			{
				"x": -5.6955571366,
				"y": 0.3167068438,
				"z": -0.7317959203,
				"element": "H" 
			},
			{
				"x": -4.5042337329,
				"y": 0.6367287941,
				"z": 1.3984972432,
				"element": "H" 
			},
			{
				"x": -3.0556370793,
				"y": -0.1016848114,
				"z": 0.7693127269,
				"element": "H" 
			},
			{
				"x": -3.4417293217,
				"y": 2.5866116329,
				"z": 0.8230781529,
				"element": "H" 
			},
			{
				"x": -4.224351052,
				"y": 2.2876420051,
				"z": -0.7112240132,
				"element": "H" 
			},
			{
				"x": -2.0360045669,
				"y": 1.2067603724,
				"z": -1.5234101458,
				"element": "H" 
			},
			{
				"x": -1.9703708738,
				"y": 2.9274483343,
				"z": -1.190926853,
				"element": "H" 
			},
			{
				"x": -0.9422065578,
				"y": 2.4789398551,
				"z": 1.0470247677,
				"element": "H" 
			},
			{
				"x": -0.9758123396,
				"y": 0.7497266341,
				"z": 0.7261363931,
				"element": "H" 
			},
			{
				"x": 1.2554695278,
				"y": 1.5831443745,
				"z": 0.2797358359,
				"element": "H" 
			},
			{
				"x": 0.5169663096,
				"y": 1.0879347542,
				"z": -1.2615061688,
				"element": "H" 
			},
			{
				"x": 2.7740193859,
				"y": 1.5399680881,
				"z": -1.4907402699,
				"element": "H" 
			},
			{
				"x": 4.7606058168,
				"y": 2.3108043617,
				"z": -2.7250998127,
				"element": "H" 
			},
			{
				"x": 3.0423975089,
				"y": 6.2165377902,
				"z": -3.1377902603,
				"element": "H" 
			},
			{
				"x": 1.0119885754,
				"y": 5.4471835555,
				"z": -1.8830300981,
				"element": "H" 
			},
			{
				"x": 6.878673027,
				"y": 4.3251201643,
				"z": -4.4270273655,
				"element": "H" 
			}
		],
		 "valence_orbital": [ 
			{
				"type": "occ",
				"energy": -0.30212,
				"method": "rhf"
			},
			{
				"type": "occ",
				"energy": -0.29874,
				"method": "rhf"
			},
			{
				"type": "occ",
				"energy": -0.26816,
				"method": "rhf"
			},
			{
				"type": "occ",
				"energy": -0.25866,
				"method": "rhf"
			},
			{
				"type": "occ",
				"energy": -0.22851,
				"method": "rhf"
			},
			{
				"type": "unocc",
				"energy": -0.03495,
				"method": "rhf"
			},
			{
				"type": "unocc",
				"energy": -0.00645,
				"method": "rhf"
			},
			{
				"type": "unocc",
				"energy": 0.05048,
				"method": "rhf"
			},
			{
				"type": "unocc",
				"energy": 0.06989,
				"method": "rhf"
			},
			{
				"type": "unocc",
				"energy": 0.07543,
				"method": "rhf"
			}
		],
		"cosmo_sigma_profile": { 
			"-0.025": 0.0,
			"-0.024": 0.0,
			"-0.023": 0.0,
			"-0.022": 0.0,
			"-0.021": 0.0,
			"-0.02": 0.0,
			"-0.019": 0.0,
			"-0.018": 0.411025360516,
			"-0.017": 0.888088545208,
			"-0.016": 1.15426720822,
			"-0.015": 0.225711085056,
			"-0.014": 0.74606962833,
			"-0.013": 0.482675024836,
			"-0.012": 0.854125996708,
			"-0.011": 1.06937646652,
			"-0.01": 0.984124582538,
			"-0.009": 0.4816090212,
			"-0.008": 0.217560648751,
			"-0.007": 3.05202256848,
			"-0.006": 7.54607563888,
			"-0.005": 11.1562288266,
			"-0.004": 12.6366659515,
			"-0.003": 18.8369055555,
			"-0.002": 58.3614333941,
			"-0.001": 91.9638619466,
			"0.0": 95.0161181162,
			"0.001": 78.5220955157,
			"0.002": 44.2663113469,
			"0.003": 18.3486996024,
			"0.004": 14.4655304728,
			"0.005": 4.9990196632,
			"0.006": 5.43105740962,
			"0.007": 3.67435658209,
			"0.008": 4.1881150969,
			"0.009": 1.76639593939,
			"0.01": 1.80173561625,
			"0.011": 2.65811313997,
			"0.012": 5.29785740441,
			"0.013": 1.10254989471,
			"0.014": 0.0,
			"0.015": 0.0,
			"0.016": 0.0,
			"0.017": 0.0,
			"0.018": 0.0,
			"0.019": 0.0,
			"0.02": 0.0,
			"0.021": 0.0,
			"0.022": 0.0,
			"0.023": 0.0,
			"0.024": 0.0,
			"0.025": 0.0
		}
	}
}
