{
	 "smiles": "CC1=CC=C(C(F)=C1)[N+]([O-])=O", 
	 "Tm": 326.25, 
	 "num_atms": 17, 
	 "gaussian": { 
		 "optdone": 1, 
		 "sigma_profile": "yes", 
		 "theory": "DFT", 
		 "functional": "B3LYP", 
		 "basiset": "6-31G**", 
		 "properties": { 
			 "R2extent": 2195.6514, 
			 "electric_dipole_moment_norm": 5.82637843776, 
			 "electric_quadrupole_moment_norm": 10.723422912, 
			 "total_energy": -575.291498748, 
			 "HOMO_LUMO_gap": 0.18269, 
			 "cosmo_polarized_energy": -9.08, 
			 "cosmo_cavitation_energy": 22.31, 
			 "cosmo_dispersion_energy": -16.39, 
			 "cosmo_repulsion_energy": 1.29, 
			 "cosmo_total_nonelectrostatic_energy": 7.22, 
			 "SMD_solvation_energy": 6.66 
		},
		"coords": [
			{
				"x": -0.7003458416,
				"y": 2.8359764451,
				"z": -0.6751613182,
				"element": "C" 
			},
			{
				"x": -0.747233577,
				"y": 1.4314145801,
				"z": -0.1278918329,
				"element": "C" 
			},
			{
				"x": -0.6131633331,
				"y": 1.1908495592,
				"z": 1.2504171496,
				"element": "C" 
			},
			{
				"x": -0.6820254235,
				"y": -0.0984956833,
				"z": 1.7563785497,
				"element": "C" 
			},
			{
				"x": -0.8858166204,
				"y": -1.1868767029,
				"z": 0.9014420648,
				"element": "C" 
			},
			{
				"x": -1.0172356551,
				"y": -0.9565892049,
				"z": -0.4753763194,
				"element": "C" 
			},
			{
				"x": -1.2054437452,
				"y": -1.9457294535,
				"z": -1.3503070244,
				"element": "F" 
			},
			{
				"x": -0.9463438144,
				"y": 0.3398144281,
				"z": -0.9769794729,
				"element": "C" 
			},
			{
				"x": -0.9501696376,
				"y": -2.5283665292,
				"z": 1.4896596515,
				"element": "N" 
			},
			{
				"x": -0.7828439174,
				"y": -2.6149553876,
				"z": 2.7080262183,
				"element": "O" 
			},
			{
				"x": -1.1670389068,
				"y": -3.4803794709,
				"z": 0.7447246918,
				"element": "O" 
			},
			{
				"x": -1.6654015239,
				"y": 3.3379739502,
				"z": -0.5348872484,
				"element": "H" 
			},
			{
				"x": 0.0549771819,
				"y": 3.4368391477,
				"z": -0.1599587002,
				"element": "H" 
			},
			{
				"x": -0.4759838314,
				"y": 2.8444913641,
				"z": -1.7447150588,
				"element": "H" 
			},
			{
				"x": -0.452295625,
				"y": 2.0229695122,
				"z": 1.9291448428,
				"element": "H" 
			},
			{
				"x": -0.5785498368,
				"y": -0.3012667881,
				"z": 2.8149713459,
				"element": "H" 
			},
			{
				"x": -1.0492858926,
				"y": 0.471530234,
				"z": -2.0491875392,
				"element": "H" 
			}
		],
		 "valence_orbital": [ 
			{
				"type": "occ",
				"energy": -0.30608,
				"method": "rhf"
			},
			{
				"type": "occ",
				"energy": -0.30392,
				"method": "rhf"
			},
			{
				"type": "occ",
				"energy": -0.28648,
				"method": "rhf"
			},
			{
				"type": "occ",
				"energy": -0.28126,
				"method": "rhf"
			},
			{
				"type": "occ",
				"energy": -0.27017,
				"method": "rhf"
			},
			{
				"type": "unocc",
				"energy": -0.08748,
				"method": "rhf"
			},
			{
				"type": "unocc",
				"energy": -0.02682,
				"method": "rhf"
			},
			{
				"type": "unocc",
				"energy": -0.00351,
				"method": "rhf"
			},
			{
				"type": "unocc",
				"energy": 0.06413,
				"method": "rhf"
			},
			{
				"type": "unocc",
				"energy": 0.10075,
				"method": "rhf"
			}
		],
		"cosmo_sigma_profile": { 
			"-0.025": 0.0,
			"-0.024": 0.0,
			"-0.023": 0.0,
			"-0.022": 0.0,
			"-0.021": 0.0,
			"-0.02": 0.0,
			"-0.019": 0.0,
			"-0.018": 0.0,
			"-0.017": 0.0,
			"-0.016": 0.0,
			"-0.015": 0.0,
			"-0.014": 0.0,
			"-0.013": 0.0,
			"-0.012": 0.0,
			"-0.011": 0.0,
			"-0.01": 0.0,
			"-0.009": 0.0331081137079,
			"-0.008": 1.96901780912,
			"-0.007": 5.71700219295,
			"-0.006": 10.0415832907,
			"-0.005": 13.1088421242,
			"-0.004": 12.7417677843,
			"-0.003": 14.1649991206,
			"-0.002": 17.5317936438,
			"-0.001": 20.5586873866,
			"0.0": 14.7707625289,
			"0.001": 12.0102666737,
			"0.002": 9.30914244454,
			"0.003": 8.37968061935,
			"0.004": 4.93760796482,
			"0.005": 3.48479562561,
			"0.006": 3.93144713183,
			"0.007": 7.01201941062,
			"0.008": 10.3503277192,
			"0.009": 5.3568998629,
			"0.01": 3.13586989631,
			"0.011": 0.225303674221,
			"0.012": 0.0,
			"0.013": 0.0,
			"0.014": 0.0,
			"0.015": 0.0,
			"0.016": 0.0,
			"0.017": 0.0,
			"0.018": 0.0,
			"0.019": 0.0,
			"0.02": 0.0,
			"0.021": 0.0,
			"0.022": 0.0,
			"0.023": 0.0,
			"0.024": 0.0,
			"0.025": 0.0
		}
	}
}
