{
	 "smiles": "CC(C)(C)OC(=O)N1CCN(CCO)CC1", 
	 "Tm": 314.15, 
	 "num_atms": 38, 
	 "gaussian": { 
		 "optdone": 1, 
		 "sigma_profile": "yes", 
		 "theory": "DFT", 
		 "functional": "B3LYP", 
		 "basiset": "6-31G**", 
		 "properties": { 
			 "R2extent": 6317.4511, 
			 "electric_dipole_moment_norm": 2.89074437818, 
			 "electric_quadrupole_moment_norm": 16.3516841766, 
			 "total_energy": -767.612684216, 
			 "HOMO_LUMO_gap": 0.26783, 
			 "cosmo_polarized_energy": -13.16, 
			 "cosmo_cavitation_energy": 37.67, 
			 "cosmo_dispersion_energy": -26.54, 
			 "cosmo_repulsion_energy": 2.1, 
			 "cosmo_total_nonelectrostatic_energy": 13.23, 
			 "SMD_solvation_energy": 4.24 
		},
		"coords": [
			{
				"x": 2.3844292048,
				"y": -2.4257191629,
				"z": -1.9872436016,
				"element": "C" 
			},
			{
				"x": 1.102810986,
				"y": -2.6424392526,
				"z": -1.1747307089,
				"element": "C" 
			},
			{
				"x": 1.1370963346,
				"y": -3.9499931696,
				"z": -0.3756662511,
				"element": "C" 
			},
			{
				"x": -0.1285707799,
				"y": -2.5958185525,
				"z": -2.0839957578,
				"element": "C" 
			},
			{
				"x": 0.8777073543,
				"y": -1.5035782648,
				"z": -0.2744435847,
				"element": "O" 
			},
			{
				"x": 1.7639282733,
				"y": -1.2124510633,
				"z": 0.7133480972,
				"element": "C" 
			},
			{
				"x": 2.8095590284,
				"y": -1.8115081981,
				"z": 0.9323312009,
				"element": "O" 
			},
			{
				"x": 1.3275715798,
				"y": -0.143482636,
				"z": 1.445705252,
				"element": "N" 
			},
			{
				"x": 0.0978030311,
				"y": 0.5984235408,
				"z": 1.1439167471,
				"element": "C" 
			},
			{
				"x": -0.2669811579,
				"y": 1.4667014764,
				"z": 2.352946973,
				"element": "C" 
			},
			{
				"x": 0.7895128883,
				"y": 2.4166086604,
				"z": 2.7506854811,
				"element": "N" 
			},
			{
				"x": 0.623135927,
				"y": 3.7901880646,
				"z": 2.2953560126,
				"element": "C" 
			},
			{
				"x": -0.5730756743,
				"y": 4.533294911,
				"z": 2.8982072289,
				"element": "C" 
			},
			{
				"x": -1.840001721,
				"y": 4.1693257701,
				"z": 2.3521466959,
				"element": "O" 
			},
			{
				"x": 2.1440447159,
				"y": 1.9200435903,
				"z": 2.4679275122,
				"element": "C" 
			},
			{
				"x": 2.1962052395,
				"y": 0.3954724072,
				"z": 2.4940905128,
				"element": "C" 
			},
			{
				"x": 2.4861248785,
				"y": -3.2201235928,
				"z": -2.7340065271,
				"element": "H" 
			},
			{
				"x": 2.340933599,
				"y": -1.467479479,
				"z": -2.5150272836,
				"element": "H" 
			},
			{
				"x": 3.2607165924,
				"y": -2.4335477668,
				"z": -1.3390628497,
				"element": "H" 
			},
			{
				"x": 1.1895505187,
				"y": -4.8003863358,
				"z": -1.0634869308,
				"element": "H" 
			},
			{
				"x": 0.2257348473,
				"y": -4.052969312,
				"z": 0.2221689091,
				"element": "H" 
			},
			{
				"x": 2.0010732275,
				"y": -3.9776470532,
				"z": 0.288389713,
				"element": "H" 
			},
			{
				"x": -0.0838882794,
				"y": -3.4039648155,
				"z": -2.8201883105,
				"element": "H" 
			},
			{
				"x": -0.177831681,
				"y": -1.6425080665,
				"z": -2.6184288487,
				"element": "H" 
			},
			{
				"x": -1.0458029759,
				"y": -2.7108153869,
				"z": -1.4988633634,
				"element": "H" 
			},
			{
				"x": 0.228569508,
				"y": 1.2178752084,
				"z": 0.2443119403,
				"element": "H" 
			},
			{
				"x": -0.7108718511,
				"y": -0.1058528769,
				"z": 0.9324268556,
				"element": "H" 
			},
			{
				"x": -1.181009482,
				"y": 2.0256186826,
				"z": 2.1486609229,
				"element": "H" 
			},
			{
				"x": -0.4865165553,
				"y": 0.8017957285,
				"z": 3.1988030699,
				"element": "H" 
			},
			{
				"x": 0.5778279345,
				"y": 3.8796308887,
				"z": 1.1872455683,
				"element": "H" 
			},
			{
				"x": 1.5252714324,
				"y": 4.3373070626,
				"z": 2.5991225782,
				"element": "H" 
			},
			{
				"x": -0.6312404484,
				"y": 4.3117230878,
				"z": 3.967637344,
				"element": "H" 
			},
			{
				"x": -0.4051319343,
				"y": 5.6159105824,
				"z": 2.7860422658,
				"element": "H" 
			},
			{
				"x": -1.8442437593,
				"y": 4.4363704184,
				"z": 1.4233252635,
				"element": "H" 
			},
			{
				"x": 2.5032339214,
				"y": 2.2529179381,
				"z": 1.4757173975,
				"element": "H" 
			},
			{
				"x": 2.8434357504,
				"y": 2.3249963668,
				"z": 3.2116027344,
				"element": "H" 
			},
			{
				"x": 1.8944242014,
				"y": 0.0243448849,
				"z": 3.4833078041,
				"element": "H" 
			},
			{
				"x": 3.2096653253,
				"y": 0.0394357149,
				"z": 2.3052199377,
				"element": "H" 
			}
		],
		 "valence_orbital": [ 
			{
				"type": "occ",
				"energy": -0.2804,
				"method": "rhf"
			},
			{
				"type": "occ",
				"energy": -0.27243,
				"method": "rhf"
			},
			{
				"type": "occ",
				"energy": -0.25349,
				"method": "rhf"
			},
			{
				"type": "occ",
				"energy": -0.22922,
				"method": "rhf"
			},
			{
				"type": "occ",
				"energy": -0.20747,
				"method": "rhf"
			},
			{
				"type": "unocc",
				"energy": 0.06036,
				"method": "rhf"
			},
			{
				"type": "unocc",
				"energy": 0.06492,
				"method": "rhf"
			},
			{
				"type": "unocc",
				"energy": 0.08402,
				"method": "rhf"
			},
			{
				"type": "unocc",
				"energy": 0.09446,
				"method": "rhf"
			},
			{
				"type": "unocc",
				"energy": 0.10589,
				"method": "rhf"
			}
		],
		"cosmo_sigma_profile": { 
			"-0.025": 0.0,
			"-0.024": 0.0,
			"-0.023": 0.0,
			"-0.022": 0.0,
			"-0.021": 0.0,
			"-0.02": 0.0,
			"-0.019": 0.0,
			"-0.018": 0.0,
			"-0.017": 0.0,
			"-0.016": 0.158589885963,
			"-0.015": 0.698185824827,
			"-0.014": 0.991761170074,
			"-0.013": 1.23787178391,
			"-0.012": 1.11782131441,
			"-0.011": 0.474296276086,
			"-0.01": 0.549929284984,
			"-0.009": 1.04233894728,
			"-0.008": 1.18806912003,
			"-0.007": 1.58699472983,
			"-0.006": 1.36056780888,
			"-0.005": 2.6126754466,
			"-0.004": 26.2266874957,
			"-0.003": 46.3328807958,
			"-0.002": 44.4401676111,
			"-0.001": 33.3908919698,
			"0.0": 30.0876691402,
			"0.001": 29.227848713,
			"0.002": 11.0531913494,
			"0.003": 8.05205733985,
			"0.004": 6.50466804226,
			"0.005": 6.75888772821,
			"0.006": 5.70222537282,
			"0.007": 4.841026842,
			"0.008": 3.85954512967,
			"0.009": 2.8718767195,
			"0.01": 2.4788899982,
			"0.011": 3.3321656012,
			"0.012": 3.68758485966,
			"0.013": 3.83128474756,
			"0.014": 4.36389764458,
			"0.015": 0.740681097541,
			"0.016": 0.0,
			"0.017": 0.0,
			"0.018": 0.0,
			"0.019": 0.0,
			"0.02": 0.0,
			"0.021": 0.0,
			"0.022": 0.0,
			"0.023": 0.0,
			"0.024": 0.0,
			"0.025": 0.0
		}
	}
}
