{
	 "smiles": "CC1=NOC(S)=N1", 
	 "Tm": 397.15, 
	 "num_atms": 11, 
	 "gaussian": { 
		 "optdone": 1, 
		 "sigma_profile": "yes", 
		 "theory": "DFT", 
		 "functional": "B3LYP", 
		 "basiset": "6-31G**", 
		 "properties": { 
			 "R2extent": 2365.2402, 
			 "electric_dipole_moment_norm": 0.404303425659, 
			 "electric_quadrupole_moment_norm": 11.0191227232, 
			 "total_energy": -699.595527144, 
			 "HOMO_LUMO_gap": 0.23292, 
			 "cosmo_polarized_energy": -7.92, 
			 "cosmo_cavitation_energy": 17.49, 
			 "cosmo_dispersion_energy": -13.8, 
			 "cosmo_repulsion_energy": 1.13, 
			 "cosmo_total_nonelectrostatic_energy": 4.82, 
			 "SMD_solvation_energy": 0.94 
		},
		"coords": [
			{
				"x": -0.0124383503,
				"y": -1.1159384645,
				"z": 1.3612693063,
				"element": "C" 
			},
			{
				"x": -1.2708534812,
				"y": -0.3123094819,
				"z": 1.2587929563,
				"element": "C" 
			},
			{
				"x": -2.4575670983,
				"y": -0.8371786127,
				"z": 1.4451123517,
				"element": "N" 
			},
			{
				"x": -3.3314741137,
				"y": 0.2643626845,
				"z": 1.2539593791,
				"element": "O" 
			},
			{
				"x": -2.5421380107,
				"y": 1.3116460253,
				"z": 0.9762507399,
				"element": "C" 
			},
			{
				"x": -3.2588488133,
				"y": 2.883262983,
				"z": 0.6720667398,
				"element": "S" 
			},
			{
				"x": -1.2709572127,
				"y": 1.0367998785,
				"z": 0.9611122097,
				"element": "N" 
			},
			{
				"x": 0.8442867565,
				"y": -0.4696846328,
				"z": 1.1680217388,
				"element": "H" 
			},
			{
				"x": -0.0140334165,
				"y": -1.9336412581,
				"z": 0.6352381867,
				"element": "H" 
			},
			{
				"x": 0.0881491869,
				"y": -1.5539114199,
				"z": 2.3581745663,
				"element": "H" 
			},
			{
				"x": -4.5268254468,
				"y": 2.4596922986,
				"z": 0.8412018254,
				"element": "H" 
			}
		],
		 "valence_orbital": [ 
			{
				"type": "occ",
				"energy": -0.34397,
				"method": "rhf"
			},
			{
				"type": "occ",
				"energy": -0.34193,
				"method": "rhf"
			},
			{
				"type": "occ",
				"energy": -0.31986,
				"method": "rhf"
			},
			{
				"type": "occ",
				"energy": -0.3015,
				"method": "rhf"
			},
			{
				"type": "occ",
				"energy": -0.25989,
				"method": "rhf"
			},
			{
				"type": "unocc",
				"energy": -0.02697,
				"method": "rhf"
			},
			{
				"type": "unocc",
				"energy": -0.00637,
				"method": "rhf"
			},
			{
				"type": "unocc",
				"energy": 0.03872,
				"method": "rhf"
			},
			{
				"type": "unocc",
				"energy": 0.04223,
				"method": "rhf"
			},
			{
				"type": "unocc",
				"energy": 0.09059,
				"method": "rhf"
			}
		],
		"cosmo_sigma_profile": { 
			"-0.025": 0.0,
			"-0.024": 0.0,
			"-0.023": 0.0,
			"-0.022": 0.0,
			"-0.021": 0.0,
			"-0.02": 0.0,
			"-0.019": 0.0,
			"-0.018": 0.0,
			"-0.017": 0.0,
			"-0.016": 0.0,
			"-0.015": 0.0,
			"-0.014": 0.253791969876,
			"-0.013": 1.93603157323,
			"-0.012": 1.66476873188,
			"-0.011": 1.72946420173,
			"-0.01": 1.24035474715,
			"-0.009": 1.39199859184,
			"-0.008": 1.84692308937,
			"-0.007": 1.56166243289,
			"-0.006": 6.86789483328,
			"-0.005": 7.45921831516,
			"-0.004": 9.65251862528,
			"-0.003": 12.4952737557,
			"-0.002": 14.7710261564,
			"-0.001": 11.2757508528,
			"0.0": 8.91440576914,
			"0.001": 10.1206844602,
			"0.002": 7.11170279664,
			"0.003": 6.17002661557,
			"0.004": 6.40120871692,
			"0.005": 5.72481805443,
			"0.006": 7.09206709198,
			"0.007": 2.77620908312,
			"0.008": 2.84519250968,
			"0.009": 2.30764952489,
			"0.01": 1.92989460873,
			"0.011": 2.9290772738,
			"0.012": 2.15019210859,
			"0.013": 1.69244158631,
			"0.014": 0.568833793452,
			"0.015": 0.00578845484929,
			"0.016": 0.0,
			"0.017": 0.0,
			"0.018": 0.0,
			"0.019": 0.0,
			"0.02": 0.0,
			"0.021": 0.0,
			"0.022": 0.0,
			"0.023": 0.0,
			"0.024": 0.0,
			"0.025": 0.0
		}
	}
}
