{
	 "smiles": "CC(Cl)C(=O)NC1=C(CC2=CC=CC=C2)C=CC=C1", 
	 "Tm": 418.15, 
	 "num_atms": 35, 
	 "gaussian": { 
		 "optdone": 1, 
		 "sigma_profile": "yes", 
		 "theory": "DFT", 
		 "functional": "B3LYP", 
		 "basiset": "6-31G**", 
		 "properties": { 
			 "R2extent": 5456.2339, 
			 "electric_dipole_moment_norm": 4.07214399795, 
			 "electric_quadrupole_moment_norm": 10.0111512365, 
			 "total_energy": -1209.53351514, 
			 "HOMO_LUMO_gap": 0.2121, 
			 "cosmo_polarized_energy": -12.45, 
			 "cosmo_cavitation_energy": 38.55, 
			 "cosmo_dispersion_energy": -25.79, 
			 "cosmo_repulsion_energy": 1.97, 
			 "cosmo_total_nonelectrostatic_energy": 14.72, 
			 "SMD_solvation_energy": 6.35 
		},
		"coords": [
			{
				"x": -0.3000050165,
				"y": 0.3480731462,
				"z": 1.3313224529,
				"element": "C" 
			},
			{
				"x": 1.0797111033,
				"y": -0.045098831,
				"z": 1.8408607845,
				"element": "C" 
			},
			{
				"x": 1.9458110452,
				"y": 1.4009841548,
				"z": 2.5781378527,
				"element": "Cl" 
			},
			{
				"x": 2.0177038029,
				"y": -0.779409775,
				"z": 0.8687344912,
				"element": "C" 
			},
			{
				"x": 2.5351696872,
				"y": -1.8265789173,
				"z": 1.2361979232,
				"element": "O" 
			},
			{
				"x": 2.2680586234,
				"y": -0.3098342155,
				"z": -0.4013706787,
				"element": "N" 
			},
			{
				"x": 1.7295517652,
				"y": 0.7542538033,
				"z": -1.1867309993,
				"element": "C" 
			},
			{
				"x": 1.0366206538,
				"y": 0.4404658071,
				"z": -2.3763683769,
				"element": "C" 
			},
			{
				"x": 0.7619857747,
				"y": -0.9968680599,
				"z": -2.7906994479,
				"element": "C" 
			},
			{
				"x": -0.3406994543,
				"y": -1.6761379881,
				"z": -1.9873110278,
				"element": "C" 
			},
			{
				"x": -1.6625209468,
				"y": -1.2153109847,
				"z": -2.0721399985,
				"element": "C" 
			},
			{
				"x": -2.6823140673,
				"y": -1.8324791231,
				"z": -1.3485976772,
				"element": "C" 
			},
			{
				"x": -2.3960619622,
				"y": -2.9232370792,
				"z": -0.5227235787,
				"element": "C" 
			},
			{
				"x": -1.0843452186,
				"y": -3.3895179682,
				"z": -0.4295137967,
				"element": "C" 
			},
			{
				"x": -0.0654403876,
				"y": -2.769850939,
				"z": -1.1581729524,
				"element": "C" 
			},
			{
				"x": 0.5861036098,
				"y": 1.498323971,
				"z": -3.1750216527,
				"element": "C" 
			},
			{
				"x": 0.7888717679,
				"y": 2.8292277066,
				"z": -2.8082838853,
				"element": "C" 
			},
			{
				"x": 1.4761723091,
				"y": 3.1233106586,
				"z": -1.6316011641,
				"element": "C" 
			},
			{
				"x": 1.9639114367,
				"y": 2.0874820615,
				"z": -0.8350722017,
				"element": "C" 
			},
			{
				"x": -0.7959030436,
				"y": -0.5369287132,
				"z": 0.9191906438,
				"element": "H" 
			},
			{
				"x": -0.9005363111,
				"y": 0.7256957142,
				"z": 2.1627886756,
				"element": "H" 
			},
			{
				"x": -0.2561817941,
				"y": 1.1145728965,
				"z": 0.5580119092,
				"element": "H" 
			},
			{
				"x": 0.9934431412,
				"y": -0.7398941673,
				"z": 2.6746346924,
				"element": "H" 
			},
			{
				"x": 2.8476834024,
				"y": -0.9774657626,
				"z": -0.8976365751,
				"element": "H" 
			},
			{
				"x": 1.6737169673,
				"y": -1.6011674997,
				"z": -2.7201429457,
				"element": "H" 
			},
			{
				"x": 0.4844567015,
				"y": -0.9961636247,
				"z": -3.8509206951,
				"element": "H" 
			},
			{
				"x": -1.8926561018,
				"y": -0.363086904,
				"z": -2.7066532368,
				"element": "H" 
			},
			{
				"x": -3.7008921505,
				"y": -1.4632016352,
				"z": -1.4295952209,
				"element": "H" 
			},
			{
				"x": -3.1895952586,
				"y": -3.4048672252,
				"z": 0.0412988175,
				"element": "H" 
			},
			{
				"x": -0.8483658138,
				"y": -4.2345048857,
				"z": 0.2108862131,
				"element": "H" 
			},
			{
				"x": 0.9536926985,
				"y": -3.1358809179,
				"z": -1.067524636,
				"element": "H" 
			},
			{
				"x": 0.063667971,
				"y": 1.270059506,
				"z": -4.1006816004,
				"element": "H" 
			},
			{
				"x": 0.4206689089,
				"y": 3.6289275209,
				"z": -3.4440955216,
				"element": "H" 
			},
			{
				"x": 1.6552689814,
				"y": 4.1541971345,
				"z": -1.3414887585,
				"element": "H" 
			},
			{
				"x": 2.5274471757,
				"y": 2.3009111354,
				"z": 0.0649821716,
				"element": "H" 
			}
		],
		 "valence_orbital": [ 
			{
				"type": "occ",
				"energy": -0.26,
				"method": "rhf"
			},
			{
				"type": "occ",
				"energy": -0.25827,
				"method": "rhf"
			},
			{
				"type": "occ",
				"energy": -0.25422,
				"method": "rhf"
			},
			{
				"type": "occ",
				"energy": -0.24599,
				"method": "rhf"
			},
			{
				"type": "occ",
				"energy": -0.23769,
				"method": "rhf"
			},
			{
				"type": "unocc",
				"energy": -0.02559,
				"method": "rhf"
			},
			{
				"type": "unocc",
				"energy": -0.01881,
				"method": "rhf"
			},
			{
				"type": "unocc",
				"energy": -0.00968,
				"method": "rhf"
			},
			{
				"type": "unocc",
				"energy": -0.00633,
				"method": "rhf"
			},
			{
				"type": "unocc",
				"energy": 0.00162,
				"method": "rhf"
			}
		],
		"cosmo_sigma_profile": { 
			"-0.025": 0.0,
			"-0.024": 0.0,
			"-0.023": 0.0,
			"-0.022": 0.0,
			"-0.021": 0.0,
			"-0.02": 0.0,
			"-0.019": 0.0,
			"-0.018": 0.0,
			"-0.017": 0.0,
			"-0.016": 0.0,
			"-0.015": 0.0,
			"-0.014": 0.475544124377,
			"-0.013": 1.04390487291,
			"-0.012": 1.35739021476,
			"-0.011": 1.2108848331,
			"-0.01": 1.09315926099,
			"-0.009": 1.24741894765,
			"-0.008": 2.11428859815,
			"-0.007": 3.04319979472,
			"-0.006": 11.3418806937,
			"-0.005": 24.3781316961,
			"-0.004": 27.4907716447,
			"-0.003": 24.679003249,
			"-0.002": 22.4091741805,
			"-0.001": 24.1272224686,
			"0.0": 22.470521809,
			"0.001": 24.0176224658,
			"0.002": 28.5466291406,
			"0.003": 25.3250127458,
			"0.004": 18.7077783195,
			"0.005": 17.1336256485,
			"0.006": 9.82628444884,
			"0.007": 1.69602532769,
			"0.008": 1.37103660972,
			"0.009": 1.61975829438,
			"0.01": 1.48278335893,
			"0.011": 1.35839895324,
			"0.012": 3.0086430575,
			"0.013": 4.74459205399,
			"0.014": 0.802648553321,
			"0.015": 0.0,
			"0.016": 0.0,
			"0.017": 0.0,
			"0.018": 0.0,
			"0.019": 0.0,
			"0.02": 0.0,
			"0.021": 0.0,
			"0.022": 0.0,
			"0.023": 0.0,
			"0.024": 0.0,
			"0.025": 0.0
		}
	}
}
