{
	 "smiles": "COC(=O)C1=CC2=C(S1)C=CC(N)=C2", 
	 "Tm": 451.15, 
	 "num_atms": 23, 
	 "gaussian": { 
		 "optdone": 1, 
		 "sigma_profile": "yes", 
		 "theory": "DFT", 
		 "functional": "B3LYP", 
		 "basiset": "6-31G**", 
		 "properties": { 
			 "R2extent": 4066.3757, 
			 "electric_dipole_moment_norm": 2.71728550395, 
			 "electric_quadrupole_moment_norm": 21.7677372761, 
			 "total_energy": -989.888477512, 
			 "HOMO_LUMO_gap": 0.14505, 
			 "cosmo_polarized_energy": -13.18, 
			 "cosmo_cavitation_energy": 29.32, 
			 "cosmo_dispersion_energy": -22.14, 
			 "cosmo_repulsion_energy": 1.69, 
			 "cosmo_total_nonelectrostatic_energy": 8.87, 
			 "SMD_solvation_energy": 6.01 
		},
		"coords": [
			{
				"x": -3.3761009301,
				"y": -0.7763444903,
				"z": 2.8565578344,
				"element": "C" 
			},
			{
				"x": -2.1858033921,
				"y": -0.3986283571,
				"z": 2.1488687808,
				"element": "O" 
			},
			{
				"x": -1.8840921917,
				"y": -1.1645610836,
				"z": 1.0744766328,
				"element": "C" 
			},
			{
				"x": -2.5543841806,
				"y": -2.1111000767,
				"z": 0.7095701653,
				"element": "O" 
			},
			{
				"x": -0.6520055507,
				"y": -0.7106090104,
				"z": 0.4082889505,
				"element": "C" 
			},
			{
				"x": -0.1120084973,
				"y": -1.3011865522,
				"z": -0.6996156988,
				"element": "C" 
			},
			{
				"x": 1.0909390287,
				"y": -0.6655895343,
				"z": -1.1497481443,
				"element": "C" 
			},
			{
				"x": 1.4357717884,
				"y": 0.4374381567,
				"z": -0.3273192592,
				"element": "C" 
			},
			{
				"x": 0.2816164628,
				"y": 0.6684233903,
				"z": 0.9744531403,
				"element": "S" 
			},
			{
				"x": 2.5796875702,
				"y": 1.195944378,
				"z": -0.5999637755,
				"element": "C" 
			},
			{
				"x": 3.3701161922,
				"y": 0.8519872307,
				"z": -1.6853843129,
				"element": "C" 
			},
			{
				"x": 3.0453476324,
				"y": -0.2450905496,
				"z": -2.5242363755,
				"element": "C" 
			},
			{
				"x": 3.9043117775,
				"y": -0.5882466284,
				"z": -3.5725952858,
				"element": "N" 
			},
			{
				"x": 1.9034717439,
				"y": -0.9971504011,
				"z": -2.249826148,
				"element": "C" 
			},
			{
				"x": -3.4667627144,
				"y": -0.0667607289,
				"z": 3.6786926497,
				"element": "H" 
			},
			{
				"x": -3.2893226437,
				"y": -1.7970942553,
				"z": 3.2374541796,
				"element": "H" 
			},
			{
				"x": -4.2483010631,
				"y": -0.718164199,
				"z": 2.2004632677,
				"element": "H" 
			},
			{
				"x": -0.5702600515,
				"y": -2.1639538227,
				"z": -1.1686635732,
				"element": "H" 
			},
			{
				"x": 2.8511171307,
				"y": 2.0422345227,
				"z": 0.023589153,
				"element": "H" 
			},
			{
				"x": 4.2654821903,
				"y": 1.4300412444,
				"z": -1.8995937963,
				"element": "H" 
			},
			{
				"x": 4.4463061278,
				"y": 0.1774502029,
				"z": -3.9489755621,
				"element": "H" 
			},
			{
				"x": 3.4816987371,
				"y": -1.1404262001,
				"z": -4.3062818821,
				"element": "H" 
			},
			{
				"x": 1.6405748332,
				"y": -1.8426132361,
				"z": -2.8805109402,
				"element": "H" 
			}
		],
		 "valence_orbital": [ 
			{
				"type": "occ",
				"energy": -0.29474,
				"method": "rhf"
			},
			{
				"type": "occ",
				"energy": -0.27616,
				"method": "rhf"
			},
			{
				"type": "occ",
				"energy": -0.2737,
				"method": "rhf"
			},
			{
				"type": "occ",
				"energy": -0.22424,
				"method": "rhf"
			},
			{
				"type": "occ",
				"energy": -0.20048,
				"method": "rhf"
			},
			{
				"type": "unocc",
				"energy": -0.05543,
				"method": "rhf"
			},
			{
				"type": "unocc",
				"energy": 0.00615,
				"method": "rhf"
			},
			{
				"type": "unocc",
				"energy": 0.02588,
				"method": "rhf"
			},
			{
				"type": "unocc",
				"energy": 0.02746,
				"method": "rhf"
			},
			{
				"type": "unocc",
				"energy": 0.07533,
				"method": "rhf"
			}
		],
		"cosmo_sigma_profile": { 
			"-0.025": 0.0,
			"-0.024": 0.0,
			"-0.023": 0.0,
			"-0.022": 0.0,
			"-0.021": 0.0,
			"-0.02": 0.0,
			"-0.019": 0.0,
			"-0.018": 0.0,
			"-0.017": 0.0,
			"-0.016": 0.0,
			"-0.015": 0.0,
			"-0.014": 0.0,
			"-0.013": 0.465490846357,
			"-0.012": 2.77315852533,
			"-0.011": 2.81371010384,
			"-0.01": 3.20216663723,
			"-0.009": 3.33078050621,
			"-0.008": 3.05018646868,
			"-0.007": 9.79286737016,
			"-0.006": 14.0831516102,
			"-0.005": 15.2438310252,
			"-0.004": 16.0942648639,
			"-0.003": 15.3165382553,
			"-0.002": 11.4026490989,
			"-0.001": 9.68494286453,
			"0.0": 10.9508834323,
			"0.001": 14.0425159662,
			"0.002": 19.8120274592,
			"0.003": 20.2539533232,
			"0.004": 20.7407827395,
			"0.005": 17.1106742473,
			"0.006": 5.45992957259,
			"0.007": 2.61241037137,
			"0.008": 2.01279330025,
			"0.009": 2.92862088142,
			"0.01": 2.70972712878,
			"0.011": 3.88982596909,
			"0.012": 4.84360222037,
			"0.013": 0.444266476804,
			"0.014": 0.982840760312,
			"0.015": 0.148647633406,
			"0.016": 0.0,
			"0.017": 0.0,
			"0.018": 0.0,
			"0.019": 0.0,
			"0.02": 0.0,
			"0.021": 0.0,
			"0.022": 0.0,
			"0.023": 0.0,
			"0.024": 0.0,
			"0.025": 0.0
		}
	}
}
