{
	 "smiles": "CC(C)(C)N1C=NN=C1SCC(O)=O", 
	 "Tm": 435.15, 
	 "num_atms": 27, 
	 "gaussian": { 
		 "optdone": 1, 
		 "sigma_profile": "yes", 
		 "theory": "DFT", 
		 "functional": "B3LYP", 
		 "basiset": "6-31G**", 
		 "properties": { 
			 "R2extent": 4188.0459, 
			 "electric_dipole_moment_norm": 9.58843041431, 
			 "electric_quadrupole_moment_norm": 25.7450618261, 
			 "total_energy": -1025.57426758, 
			 "HOMO_LUMO_gap": 0.22053, 
			 "cosmo_polarized_energy": -19.53, 
			 "cosmo_cavitation_energy": 30.51, 
			 "cosmo_dispersion_energy": -22.32, 
			 "cosmo_repulsion_energy": 1.69, 
			 "cosmo_total_nonelectrostatic_energy": 9.88, 
			 "SMD_solvation_energy": 5.65 
		},
		"coords": [
			{
				"x": 1.1980942896,
				"y": -1.9017911072,
				"z": 0.2202510814,
				"element": "C" 
			},
			{
				"x": 0.6738363727,
				"y": -0.9240420848,
				"z": -0.846485748,
				"element": "C" 
			},
			{
				"x": 1.8280033983,
				"y": -0.5496959405,
				"z": -1.7901374837,
				"element": "C" 
			},
			{
				"x": -0.4749874823,
				"y": -1.5393471463,
				"z": -1.6657019439,
				"element": "C" 
			},
			{
				"x": 0.1787487701,
				"y": 0.3207820908,
				"z": -0.1692422339,
				"element": "N" 
			},
			{
				"x": 0.5873241028,
				"y": 1.6166346101,
				"z": -0.4062632733,
				"element": "C" 
			},
			{
				"x": -0.0622319115,
				"y": 2.4766492822,
				"z": 0.331885739,
				"element": "N" 
			},
			{
				"x": -0.9325299419,
				"y": 1.7448293911,
				"z": 1.101484475,
				"element": "N" 
			},
			{
				"x": -0.7911630775,
				"y": 0.4684042438,
				"z": 0.7958337786,
				"element": "C" 
			},
			{
				"x": -1.736276661,
				"y": -0.8168711451,
				"z": 1.552131623,
				"element": "S" 
			},
			{
				"x": -3.1981545865,
				"y": 0.1533481586,
				"z": 2.1278735587,
				"element": "C" 
			},
			{
				"x": -3.0302907901,
				"y": 0.883630014,
				"z": 3.4719121599,
				"element": "C" 
			},
			{
				"x": -2.1848357915,
				"y": 1.9102518305,
				"z": 3.4900152515,
				"element": "O" 
			},
			{
				"x": -3.6723538521,
				"y": 0.5402359793,
				"z": 4.4391534855,
				"element": "O" 
			},
			{
				"x": 0.4114172502,
				"y": -2.2363640371,
				"z": 0.9003694752,
				"element": "H" 
			},
			{
				"x": 1.6078270387,
				"y": -2.7888913796,
				"z": -0.2713964444,
				"element": "H" 
			},
			{
				"x": 1.9921877383,
				"y": -1.4394613572,
				"z": 0.8136173896,
				"element": "H" 
			},
			{
				"x": 1.5045925468,
				"y": 0.1279638724,
				"z": -2.5855301732,
				"element": "H" 
			},
			{
				"x": 2.1948885282,
				"y": -1.4627405117,
				"z": -2.2655421229,
				"element": "H" 
			},
			{
				"x": 2.6650973099,
				"y": -0.0957360946,
				"z": -1.2515903741,
				"element": "H" 
			},
			{
				"x": -0.1175297475,
				"y": -2.4381351833,
				"z": -2.1768713729,
				"element": "H" 
			},
			{
				"x": -0.8298408722,
				"y": -0.8326284733,
				"z": -2.421725784,
				"element": "H" 
			},
			{
				"x": -1.3185746557,
				"y": -1.8213186085,
				"z": -1.0326290905,
				"element": "H" 
			},
			{
				"x": 1.3559480916,
				"y": 1.877638681,
				"z": -1.1145493452,
				"element": "H" 
			},
			{
				"x": -3.4738427271,
				"y": 0.8462230243,
				"z": 1.3284786025,
				"element": "H" 
			},
			{
				"x": -3.9821836797,
				"y": -0.5932044298,
				"z": 2.2562640884,
				"element": "H" 
			},
			{
				"x": -1.7390696604,
				"y": 2.032036321,
				"z": 2.6035946818,
				"element": "H" 
			}
		],
		 "valence_orbital": [ 
			{
				"type": "occ",
				"energy": -0.3133,
				"method": "rhf"
			},
			{
				"type": "occ",
				"energy": -0.29016,
				"method": "rhf"
			},
			{
				"type": "occ",
				"energy": -0.28545,
				"method": "rhf"
			},
			{
				"type": "occ",
				"energy": -0.25932,
				"method": "rhf"
			},
			{
				"type": "occ",
				"energy": -0.24091,
				"method": "rhf"
			},
			{
				"type": "unocc",
				"energy": -0.02038,
				"method": "rhf"
			},
			{
				"type": "unocc",
				"energy": -0.00134,
				"method": "rhf"
			},
			{
				"type": "unocc",
				"energy": 0.01673,
				"method": "rhf"
			},
			{
				"type": "unocc",
				"energy": 0.02764,
				"method": "rhf"
			},
			{
				"type": "unocc",
				"energy": 0.05499,
				"method": "rhf"
			}
		],
		"cosmo_sigma_profile": { 
			"-0.025": 0.0,
			"-0.024": 0.0,
			"-0.023": 0.0,
			"-0.022": 0.0,
			"-0.021": 0.0,
			"-0.02": 0.0,
			"-0.019": 0.0,
			"-0.018": 0.0,
			"-0.017": 0.0,
			"-0.016": 0.0,
			"-0.015": 0.0,
			"-0.014": 0.0,
			"-0.013": 0.0,
			"-0.012": 0.0,
			"-0.011": 0.185064479701,
			"-0.01": 1.47920894623,
			"-0.009": 3.89409663251,
			"-0.008": 6.88953085212,
			"-0.007": 5.93666826522,
			"-0.006": 10.9446163718,
			"-0.005": 21.2155458723,
			"-0.004": 19.3092598861,
			"-0.003": 22.1773686926,
			"-0.002": 25.1807429562,
			"-0.001": 30.1454819417,
			"0.0": 19.1259992123,
			"0.001": 8.85660898357,
			"0.002": 7.24424246034,
			"0.003": 6.3025256215,
			"0.004": 4.57184215555,
			"0.005": 4.29634031446,
			"0.006": 4.01564106064,
			"0.007": 3.96785033907,
			"0.008": 4.39868013371,
			"0.009": 4.04658200993,
			"0.01": 5.92152660006,
			"0.011": 6.59299809808,
			"0.012": 8.32999556051,
			"0.013": 4.34496394529,
			"0.014": 1.92192018271,
			"0.015": 1.02792660863,
			"0.016": 0.362107309083,
			"0.017": 0.0,
			"0.018": 0.0,
			"0.019": 0.0,
			"0.02": 0.0,
			"0.021": 0.0,
			"0.022": 0.0,
			"0.023": 0.0,
			"0.024": 0.0,
			"0.025": 0.0
		}
	}
}
