{
	 "smiles": "CN1N=CC(C(O)=O)=C1C1=CC=CC=C1", 
	 "Tm": 487.15, 
	 "num_atms": 25, 
	 "gaussian": { 
		 "optdone": 1, 
		 "sigma_profile": "yes", 
		 "theory": "DFT", 
		 "functional": "B3LYP", 
		 "basiset": "6-31G**", 
		 "properties": { 
			 "R2extent": 3864.6699, 
			 "electric_dipole_moment_norm": 4.71307562957, 
			 "electric_quadrupole_moment_norm": 18.9515598654, 
			 "total_energy": -685.147582135, 
			 "HOMO_LUMO_gap": 0.23132, 
			 "cosmo_polarized_energy": -14.18, 
			 "cosmo_cavitation_energy": 30.24, 
			 "cosmo_dispersion_energy": -20.83, 
			 "cosmo_repulsion_energy": 1.66, 
			 "cosmo_total_nonelectrostatic_energy": 11.06, 
			 "SMD_solvation_energy": 5.59 
		},
		"coords": [
			{
				"x": -2.4563514573,
				"y": 1.0420183084,
				"z": 0.9687769502,
				"element": "C" 
			},
			{
				"x": -1.6247405615,
				"y": 0.3835475991,
				"z": 1.964703042,
				"element": "N" 
			},
			{
				"x": -2.0900365569,
				"y": 0.2539774477,
				"z": 3.2367549083,
				"element": "N" 
			},
			{
				"x": -1.1221919964,
				"y": -0.3738456219,
				"z": 3.8871610211,
				"element": "C" 
			},
			{
				"x": -0.0193879516,
				"y": -0.6580452122,
				"z": 3.0451553103,
				"element": "C" 
			},
			{
				"x": 1.1988636238,
				"y": -1.3428281454,
				"z": 3.4779253336,
				"element": "C" 
			},
			{
				"x": 2.1144275242,
				"y": -1.498679756,
				"z": 2.486271891,
				"element": "O" 
			},
			{
				"x": 1.3980484586,
				"y": -1.7438658598,
				"z": 4.6098370235,
				"element": "O" 
			},
			{
				"x": -0.3840963119,
				"y": -0.1478373892,
				"z": 1.7945839847,
				"element": "C" 
			},
			{
				"x": 0.3071533476,
				"y": -0.1126977605,
				"z": 0.4831381014,
				"element": "C" 
			},
			{
				"x": 1.1260105692,
				"y": 0.973159915,
				"z": 0.1418507174,
				"element": "C" 
			},
			{
				"x": 1.756390862,
				"y": 1.0168630921,
				"z": -1.1018182169,
				"element": "C" 
			},
			{
				"x": 1.5751514663,
				"y": -0.0226111923,
				"z": -2.0161286073,
				"element": "C" 
			},
			{
				"x": 0.763503094,
				"y": -1.1084347103,
				"z": -1.6821576402,
				"element": "C" 
			},
			{
				"x": 0.1321094861,
				"y": -1.1543135388,
				"z": -0.4390802242,
				"element": "C" 
			},
			{
				"x": -3.3767283291,
				"y": 1.3353098467,
				"z": 1.4712321129,
				"element": "H" 
			},
			{
				"x": -2.6858254735,
				"y": 0.3625043854,
				"z": 0.1437318229,
				"element": "H" 
			},
			{
				"x": -1.9551979255,
				"y": 1.9272821555,
				"z": 0.5684934379,
				"element": "H" 
			},
			{
				"x": -1.2221546462,
				"y": -0.6129669029,
				"z": 4.9365441021,
				"element": "H" 
			},
			{
				"x": 2.8638033465,
				"y": -1.959640477,
				"z": 2.8984226565,
				"element": "H" 
			},
			{
				"x": 1.2728033522,
				"y": 1.7765990252,
				"z": 0.8576723055,
				"element": "H" 
			},
			{
				"x": 2.390997582,
				"y": 1.8611766143,
				"z": -1.3550117547,
				"element": "H" 
			},
			{
				"x": 2.0671219953,
				"y": 0.0118062866,
				"z": -2.983880918,
				"element": "H" 
			},
			{
				"x": 0.6236169269,
				"y": -1.9219798604,
				"z": -2.3880434624,
				"element": "H" 
			},
			{
				"x": -0.4925904249,
				"y": -2.0022982494,
				"z": -0.1742338976,
				"element": "H" 
			}
		],
		 "valence_orbital": [ 
			{
				"type": "occ",
				"energy": -0.26759,
				"method": "rhf"
			},
			{
				"type": "occ",
				"energy": -0.26242,
				"method": "rhf"
			},
			{
				"type": "occ",
				"energy": -0.25864,
				"method": "rhf"
			},
			{
				"type": "occ",
				"energy": -0.25665,
				"method": "rhf"
			},
			{
				"type": "occ",
				"energy": -0.25133,
				"method": "rhf"
			},
			{
				"type": "unocc",
				"energy": -0.02001,
				"method": "rhf"
			},
			{
				"type": "unocc",
				"energy": -0.01893,
				"method": "rhf"
			},
			{
				"type": "unocc",
				"energy": -0.01313,
				"method": "rhf"
			},
			{
				"type": "unocc",
				"energy": 0.02076,
				"method": "rhf"
			},
			{
				"type": "unocc",
				"energy": 0.0832,
				"method": "rhf"
			}
		],
		"cosmo_sigma_profile": { 
			"-0.025": 0.0,
			"-0.024": 0.0,
			"-0.023": 0.0,
			"-0.022": 0.0,
			"-0.021": 0.0,
			"-0.02": 0.0,
			"-0.019": 0.0,
			"-0.018": 0.472420215837,
			"-0.017": 1.00985362027,
			"-0.016": 0.82204554822,
			"-0.015": 0.443614657751,
			"-0.014": 0.741319511076,
			"-0.013": 0.613588721171,
			"-0.012": 0.6840112852,
			"-0.011": 0.971186261284,
			"-0.01": 0.935176217145,
			"-0.009": 0.624525217851,
			"-0.008": 0.962329650658,
			"-0.007": 4.40778160141,
			"-0.006": 16.7409133866,
			"-0.005": 21.875540703,
			"-0.004": 23.2379414278,
			"-0.003": 18.6152462151,
			"-0.002": 15.75698574,
			"-0.001": 13.5944895716,
			"0.0": 15.0751754052,
			"0.001": 13.8144290319,
			"0.002": 15.7329379812,
			"0.003": 13.3933065558,
			"0.004": 13.0074677358,
			"0.005": 10.4592723831,
			"0.006": 6.77467850675,
			"0.007": 4.57324554287,
			"0.008": 4.65677547608,
			"0.009": 4.24237149905,
			"0.01": 3.31957725903,
			"0.011": 3.5556695449,
			"0.012": 6.77764054921,
			"0.013": 2.45633531563,
			"0.014": 0.999053470745,
			"0.015": 0.388734316804,
			"0.016": 0.0,
			"0.017": 0.0,
			"0.018": 0.0,
			"0.019": 0.0,
			"0.02": 0.0,
			"0.021": 0.0,
			"0.022": 0.0,
			"0.023": 0.0,
			"0.024": 0.0,
			"0.025": 0.0
		}
	}
}
