{
	 "smiles": "OC12CCCC1C1=CC=CC=C21", 
	 "Tm": 339.15, 
	 "num_atms": 24, 
	 "gaussian": { 
		 "optdone": 1, 
		 "sigma_profile": "yes", 
		 "theory": "DFT", 
		 "functional": "B3LYP", 
		 "basiset": "6-31G**", 
		 "properties": { 
			 "R2extent": 1895.8266, 
			 "electric_dipole_moment_norm": 1.24963030133, 
			 "electric_quadrupole_moment_norm": 4.13634933365, 
			 "total_energy": -501.591693162, 
			 "HOMO_LUMO_gap": 0.22589, 
			 "cosmo_polarized_energy": -6.61, 
			 "cosmo_cavitation_energy": 25.76, 
			 "cosmo_dispersion_energy": -18.88, 
			 "cosmo_repulsion_energy": 1.52, 
			 "cosmo_total_nonelectrostatic_energy": 8.4, 
			 "SMD_solvation_energy": 3.62 
		},
		"coords": [
			{
				"x": -1.7405333515,
				"y": -0.865435185,
				"z": -2.2216514584,
				"element": "O" 
			},
			{
				"x": -0.6776812972,
				"y": -0.2978222433,
				"z": -1.4890899414,
				"element": "C" 
			},
			{
				"x": 0.6369433969,
				"y": -0.5298333892,
				"z": -2.2492187514,
				"element": "C" 
			},
			{
				"x": 1.5522440553,
				"y": 0.647766003,
				"z": -1.8667405082,
				"element": "C" 
			},
			{
				"x": 0.5953279452,
				"y": 1.8554622542,
				"z": -1.7585070313,
				"element": "C" 
			},
			{
				"x": -0.685010518,
				"y": 1.2717787052,
				"z": -1.1388487919,
				"element": "C" 
			},
			{
				"x": -0.613475554,
				"y": 0.8298967708,
				"z": 0.3194248357,
				"element": "C" 
			},
			{
				"x": -0.5286735141,
				"y": 1.2954168202,
				"z": 1.6257044279,
				"element": "C" 
			},
			{
				"x": -0.5079900206,
				"y": 0.3160071862,
				"z": 2.6318029422,
				"element": "C" 
			},
			{
				"x": -0.5576895705,
				"y": -1.0537255454,
				"z": 2.33122051,
				"element": "C" 
			},
			{
				"x": -0.6218977709,
				"y": -1.513711718,
				"z": 1.0065603372,
				"element": "C" 
			},
			{
				"x": -0.6455647086,
				"y": -0.5328288497,
				"z": 0.0223826934,
				"element": "C" 
			},
			{
				"x": -2.5388162384,
				"y": -0.8019383538,
				"z": -1.6802500212,
				"element": "H" 
			},
			{
				"x": 0.394616239,
				"y": -0.4929533508,
				"z": -3.3182475547,
				"element": "H" 
			},
			{
				"x": 1.0759717052,
				"y": -1.5102162521,
				"z": -2.0404355886,
				"element": "H" 
			},
			{
				"x": 2.3560875662,
				"y": 0.8080660276,
				"z": -2.5916341309,
				"element": "H" 
			},
			{
				"x": 2.0243792547,
				"y": 0.4573213491,
				"z": -0.8961059984,
				"element": "H" 
			},
			{
				"x": 1.0170388793,
				"y": 2.682694458,
				"z": -1.1774683635,
				"element": "H" 
			},
			{
				"x": 0.3675548565,
				"y": 2.2410847975,
				"z": -2.7599922784,
				"element": "H" 
			},
			{
				"x": -1.5985679749,
				"y": 1.8056387454,
				"z": -1.4206596324,
				"element": "H" 
			},
			{
				"x": -0.4947066565,
				"y": 2.3520203725,
				"z": 1.8779880124,
				"element": "H" 
			},
			{
				"x": -0.4575542337,
				"y": 0.6226484727,
				"z": 3.673286319,
				"element": "H" 
			},
			{
				"x": -0.5434137378,
				"y": -1.7715819554,
				"z": 3.1470044927,
				"element": "H" 
			},
			{
				"x": -0.6543887515,
				"y": -2.5769551196,
				"z": 0.7843754801,
				"element": "H" 
			}
		],
		 "valence_orbital": [ 
			{
				"type": "occ",
				"energy": -0.30639,
				"method": "rhf"
			},
			{
				"type": "occ",
				"energy": -0.2924,
				"method": "rhf"
			},
			{
				"type": "occ",
				"energy": -0.25789,
				"method": "rhf"
			},
			{
				"type": "occ",
				"energy": -0.24827,
				"method": "rhf"
			},
			{
				"type": "occ",
				"energy": -0.23435,
				"method": "rhf"
			},
			{
				"type": "unocc",
				"energy": -0.00846,
				"method": "rhf"
			},
			{
				"type": "unocc",
				"energy": 0.00205,
				"method": "rhf"
			},
			{
				"type": "unocc",
				"energy": 0.08997,
				"method": "rhf"
			},
			{
				"type": "unocc",
				"energy": 0.10198,
				"method": "rhf"
			},
			{
				"type": "unocc",
				"energy": 0.10604,
				"method": "rhf"
			}
		],
		"cosmo_sigma_profile": { 
			"-0.025": 0.0,
			"-0.024": 0.0,
			"-0.023": 0.0,
			"-0.022": 0.0,
			"-0.021": 0.0,
			"-0.02": 0.0,
			"-0.019": 0.0,
			"-0.018": 0.0,
			"-0.017": 0.0,
			"-0.016": 0.125573366512,
			"-0.015": 0.555315818346,
			"-0.014": 0.878078465181,
			"-0.013": 0.951384609448,
			"-0.012": 1.06379891121,
			"-0.011": 0.44669421614,
			"-0.01": 0.724132406476,
			"-0.009": 0.793061528135,
			"-0.008": 0.738988044652,
			"-0.007": 1.37879175551,
			"-0.006": 3.13760082945,
			"-0.005": 8.77510741215,
			"-0.004": 11.8951016077,
			"-0.003": 19.8116180668,
			"-0.002": 21.0106235327,
			"-0.001": 27.6443254892,
			"0.0": 25.2120429892,
			"0.001": 21.2612041521,
			"0.002": 10.3470470705,
			"0.003": 8.58426076176,
			"0.004": 8.16477393077,
			"0.005": 8.19119228714,
			"0.006": 8.07198619936,
			"0.007": 2.61804384415,
			"0.008": 1.61538351632,
			"0.009": 1.07304112759,
			"0.01": 1.37794729836,
			"0.011": 1.08840932949,
			"0.012": 1.36359233673,
			"0.013": 2.27117909129,
			"0.014": 1.3870934677,
			"0.015": 0.00360145907406,
			"0.016": 0.0,
			"0.017": 0.0,
			"0.018": 0.0,
			"0.019": 0.0,
			"0.02": 0.0,
			"0.021": 0.0,
			"0.022": 0.0,
			"0.023": 0.0,
			"0.024": 0.0,
			"0.025": 0.0
		}
	}
}
