{
	 "smiles": "CC1=CC=C(CNC(=O)C2=CNN=C2N)C=C1", 
	 "Tm": 442.15, 
	 "num_atms": 31, 
	 "gaussian": { 
		 "optdone": 1, 
		 "sigma_profile": "yes", 
		 "theory": "DFT", 
		 "functional": "B3LYP", 
		 "basiset": "6-31G**", 
		 "properties": { 
			 "R2extent": 5542.8259, 
			 "electric_dipole_moment_norm": 1.69916083112, 
			 "electric_quadrupole_moment_norm": 17.7687433458, 
			 "total_energy": -759.94558099, 
			 "HOMO_LUMO_gap": 0.2045, 
			 "cosmo_polarized_energy": -19.1, 
			 "cosmo_cavitation_energy": 34.85, 
			 "cosmo_dispersion_energy": -24.98, 
			 "cosmo_repulsion_energy": 1.96, 
			 "cosmo_total_nonelectrostatic_energy": 11.83, 
			 "SMD_solvation_energy": 5.09 
		},
		"coords": [
			{
				"x": 4.4982727488,
				"y": -2.6054627347,
				"z": 1.3944452393,
				"element": "C" 
			},
			{
				"x": 3.3587422275,
				"y": -1.6205749684,
				"z": 1.2767037369,
				"element": "C" 
			},
			{
				"x": 3.5869032864,
				"y": -0.2971323222,
				"z": 0.8743439807,
				"element": "C" 
			},
			{
				"x": 2.5420885612,
				"y": 0.6210896086,
				"z": 0.7992884352,
				"element": "C" 
			},
			{
				"x": 1.2286099946,
				"y": 0.2465969276,
				"z": 1.1115884671,
				"element": "C" 
			},
			{
				"x": 0.1072892952,
				"y": 1.266167797,
				"z": 0.9712767881,
				"element": "C" 
			},
			{
				"x": -1.0456962838,
				"y": 1.0158759206,
				"z": 1.8421728459,
				"element": "N" 
			},
			{
				"x": -2.1555779581,
				"y": 0.2623546667,
				"z": 1.4645773799,
				"element": "C" 
			},
			{
				"x": -2.6528886647,
				"y": -0.5529059772,
				"z": 2.2394269217,
				"element": "O" 
			},
			{
				"x": -2.7476211412,
				"y": 0.5338333076,
				"z": 0.1421457411,
				"element": "C" 
			},
			{
				"x": -3.5554507289,
				"y": -0.3679682104,
				"z": -0.5400548654,
				"element": "C" 
			},
			{
				"x": -3.9963615659,
				"y": 0.2620822088,
				"z": -1.6413258774,
				"element": "N" 
			},
			{
				"x": -3.5660725101,
				"y": 1.5541759713,
				"z": -1.7376506486,
				"element": "N" 
			},
			{
				"x": -2.8059800172,
				"y": 1.7213501734,
				"z": -0.6579349248,
				"element": "C" 
			},
			{
				"x": -2.1635574268,
				"y": 2.9310686426,
				"z": -0.4223051659,
				"element": "N" 
			},
			{
				"x": 0.9943502677,
				"y": -1.0734653668,
				"z": 1.5133677532,
				"element": "C" 
			},
			{
				"x": 2.0460744807,
				"y": -1.9884837735,
				"z": 1.5930010614,
				"element": "C" 
			},
			{
				"x": 5.0031124768,
				"y": -2.5164165013,
				"z": 2.3647718725,
				"element": "H" 
			},
			{
				"x": 5.2544971799,
				"y": -2.4380536046,
				"z": 0.6209398623,
				"element": "H" 
			},
			{
				"x": 4.1458089973,
				"y": -3.6373045076,
				"z": 1.3051840369,
				"element": "H" 
			},
			{
				"x": 4.5967509219,
				"y": 0.019392341,
				"z": 0.6234114666,
				"element": "H" 
			},
			{
				"x": 2.7490447308,
				"y": 1.6434851364,
				"z": 0.4899611093,
				"element": "H" 
			},
			{
				"x": 0.5052586784,
				"y": 2.2670064819,
				"z": 1.1780297554,
				"element": "H" 
			},
			{
				"x": -0.2504232264,
				"y": 1.2950927838,
				"z": -0.0607704421,
				"element": "H" 
			},
			{
				"x": -0.7862754066,
				"y": 0.7693362883,
				"z": 2.7928009545,
				"element": "H" 
			},
			{
				"x": -3.8185463329,
				"y": -1.3856268099,
				"z": -0.2932427276,
				"element": "H" 
			},
			{
				"x": -4.586535089,
				"y": -0.1049452743,
				"z": -2.3704823602,
				"element": "H" 
			},
			{
				"x": -2.5826907724,
				"y": 3.6970237511,
				"z": -0.9347730149,
				"element": "H" 
			},
			{
				"x": -2.0496154117,
				"y": 3.1390924471,
				"z": 0.5618661632,
				"element": "H" 
			},
			{
				"x": -0.0106219172,
				"y": -1.3941410224,
				"z": 1.7717142337,
				"element": "H" 
			},
			{
				"x": 1.8390106058,
				"y": -3.0086433804,
				"z": 1.907722222,
				"element": "H" 
			}
		],
		 "valence_orbital": [ 
			{
				"type": "occ",
				"energy": -0.25055,
				"method": "rhf"
			},
			{
				"type": "occ",
				"energy": -0.24617,
				"method": "rhf"
			},
			{
				"type": "occ",
				"energy": -0.2371,
				"method": "rhf"
			},
			{
				"type": "occ",
				"energy": -0.22923,
				"method": "rhf"
			},
			{
				"type": "occ",
				"energy": -0.21521,
				"method": "rhf"
			},
			{
				"type": "unocc",
				"energy": -0.01071,
				"method": "rhf"
			},
			{
				"type": "unocc",
				"energy": 0.00118,
				"method": "rhf"
			},
			{
				"type": "unocc",
				"energy": 0.00189,
				"method": "rhf"
			},
			{
				"type": "unocc",
				"energy": 0.03467,
				"method": "rhf"
			},
			{
				"type": "unocc",
				"energy": 0.07462,
				"method": "rhf"
			}
		],
		"cosmo_sigma_profile": { 
			"-0.025": 0.0,
			"-0.024": 0.0,
			"-0.023": 0.0,
			"-0.022": 0.0,
			"-0.021": 0.0,
			"-0.02": 0.0,
			"-0.019": 0.0,
			"-0.018": 0.0,
			"-0.017": 0.748461810209,
			"-0.016": 1.87440899326,
			"-0.015": 1.32816258927,
			"-0.014": 1.11219003845,
			"-0.013": 0.951597759806,
			"-0.012": 2.44405267677,
			"-0.011": 4.47759330531,
			"-0.01": 4.81996251219,
			"-0.009": 6.0539610429,
			"-0.008": 5.22607806826,
			"-0.007": 4.33692233941,
			"-0.006": 5.92321098614,
			"-0.005": 14.3466465287,
			"-0.004": 20.2914092874,
			"-0.003": 20.83692792,
			"-0.002": 20.0190267484,
			"-0.001": 21.6958191593,
			"0.0": 22.065519013,
			"0.001": 16.7694607366,
			"0.002": 14.0964547406,
			"0.003": 15.2471294932,
			"0.004": 12.802640988,
			"0.005": 11.2596372671,
			"0.006": 11.9033209396,
			"0.007": 5.98992776315,
			"0.008": 3.95131143408,
			"0.009": 3.6986295254,
			"0.01": 3.26385079092,
			"0.011": 2.40021964434,
			"0.012": 3.25293539815,
			"0.013": 4.96154201614,
			"0.014": 5.77324256288,
			"0.015": 1.57026686431,
			"0.016": 0.601993645726,
			"0.017": 0.0374856661505,
			"0.018": 0.0,
			"0.019": 0.0,
			"0.02": 0.0,
			"0.021": 0.0,
			"0.022": 0.0,
			"0.023": 0.0,
			"0.024": 0.0,
			"0.025": 0.0
		}
	}
}
