{
	 "smiles": "CNC(=O)NC(=O)C(C)Cl", 
	 "Tm": 392.15, 
	 "num_atms": 19, 
	 "gaussian": { 
		 "optdone": 1, 
		 "sigma_profile": "yes", 
		 "theory": "DFT", 
		 "functional": "B3LYP", 
		 "basiset": "6-31G**", 
		 "properties": { 
			 "R2extent": 1863.1519, 
			 "electric_dipole_moment_norm": 3.32383522606, 
			 "electric_quadrupole_moment_norm": 14.2534502374, 
			 "total_energy": -916.125548697, 
			 "HOMO_LUMO_gap": 0.22699, 
			 "cosmo_polarized_energy": -15.21, 
			 "cosmo_cavitation_energy": 24.32, 
			 "cosmo_dispersion_energy": -17.38, 
			 "cosmo_repulsion_energy": 1.44, 
			 "cosmo_total_nonelectrostatic_energy": 8.38, 
			 "SMD_solvation_energy": 5.63 
		},
		"coords": [
			{
				"x": -0.8896681562,
				"y": 1.2731410119,
				"z": -2.2568121245,
				"element": "C" 
			},
			{
				"x": -1.8338022344,
				"y": 0.5749538325,
				"z": -1.3826967326,
				"element": "N" 
			},
			{
				"x": -2.0842775043,
				"y": 0.8713607641,
				"z": -0.0672694278,
				"element": "C" 
			},
			{
				"x": -3.1823823198,
				"y": 0.7577283824,
				"z": 0.449323671,
				"element": "O" 
			},
			{
				"x": -0.9766026007,
				"y": 1.3431631673,
				"z": 0.7008119719,
				"element": "N" 
			},
			{
				"x": 0.2567812012,
				"y": 0.7644288961,
				"z": 1.0044771527,
				"element": "C" 
			},
			{
				"x": 0.9192568128,
				"y": 1.2016306786,
				"z": 1.9254724748,
				"element": "O" 
			},
			{
				"x": 0.7135161338,
				"y": -0.4636130222,
				"z": 0.2054797169,
				"element": "C" 
			},
			{
				"x": 1.1321587472,
				"y": -1.580480928,
				"z": 1.1517049829,
				"element": "C" 
			},
			{
				"x": 2.136077255,
				"y": 0.0353061703,
				"z": -0.8352467351,
				"element": "Cl" 
			},
			{
				"x": -0.1381104721,
				"y": 1.7829335544,
				"z": -1.6571260093,
				"element": "H" 
			},
			{
				"x": -0.3776758958,
				"y": 0.565316076,
				"z": -2.913689203,
				"element": "H" 
			},
			{
				"x": -1.4070367888,
				"y": 2.0189335687,
				"z": -2.8718341821,
				"element": "H" 
			},
			{
				"x": -2.6790500711,
				"y": 0.2405212158,
				"z": -1.8289888276,
				"element": "H" 
			},
			{
				"x": -1.2892598764,
				"y": 1.9306799385,
				"z": 1.4673875556,
				"element": "H" 
			},
			{
				"x": -0.0490343047,
				"y": -0.7949963012,
				"z": -0.4966432831,
				"element": "H" 
			},
			{
				"x": 1.5198127585,
				"y": -2.43195991,
				"z": 0.588517424,
				"element": "H" 
			},
			{
				"x": 1.8936286057,
				"y": -1.2184115227,
				"z": 1.8441791989,
				"element": "H" 
			},
			{
				"x": 0.26276871,
				"y": -1.9117355725,
				"z": 1.7311523764,
				"element": "H" 
			}
		],
		 "valence_orbital": [ 
			{
				"type": "occ",
				"energy": -0.3093,
				"method": "rhf"
			},
			{
				"type": "occ",
				"energy": -0.3043,
				"method": "rhf"
			},
			{
				"type": "occ",
				"energy": -0.2836,
				"method": "rhf"
			},
			{
				"type": "occ",
				"energy": -0.27614,
				"method": "rhf"
			},
			{
				"type": "occ",
				"energy": -0.26454,
				"method": "rhf"
			},
			{
				"type": "unocc",
				"energy": -0.03755,
				"method": "rhf"
			},
			{
				"type": "unocc",
				"energy": 0.00671,
				"method": "rhf"
			},
			{
				"type": "unocc",
				"energy": 0.04618,
				"method": "rhf"
			},
			{
				"type": "unocc",
				"energy": 0.06972,
				"method": "rhf"
			},
			{
				"type": "unocc",
				"energy": 0.10011,
				"method": "rhf"
			}
		],
		"cosmo_sigma_profile": { 
			"-0.025": 0.0,
			"-0.024": 0.0,
			"-0.023": 0.0,
			"-0.022": 0.0,
			"-0.021": 0.0,
			"-0.02": 0.0,
			"-0.019": 0.0,
			"-0.018": 0.0,
			"-0.017": 0.0,
			"-0.016": 0.0269357544773,
			"-0.015": 0.740448194627,
			"-0.014": 2.17209104108,
			"-0.013": 1.99527696451,
			"-0.012": 1.31734447732,
			"-0.011": 1.85605344504,
			"-0.01": 1.32913490677,
			"-0.009": 3.05016129741,
			"-0.008": 3.14784497711,
			"-0.007": 4.4273429832,
			"-0.006": 8.16887296712,
			"-0.005": 16.4695689126,
			"-0.004": 16.0309686018,
			"-0.003": 18.8955414133,
			"-0.002": 15.0278940246,
			"-0.001": 12.7962954985,
			"0.0": 9.45512334932,
			"0.001": 7.17879133961,
			"0.002": 7.70085228296,
			"0.003": 7.03282118143,
			"0.004": 7.84738733362,
			"0.005": 7.8043255204,
			"0.006": 6.99275146292,
			"0.007": 3.28677313108,
			"0.008": 2.46479815819,
			"0.009": 3.08448084555,
			"0.01": 4.10232176671,
			"0.011": 5.45060338886,
			"0.012": 9.32256884448,
			"0.013": 4.03594737097,
			"0.014": 0.198740406358,
			"0.015": 0.0,
			"0.016": 0.0,
			"0.017": 0.0,
			"0.018": 0.0,
			"0.019": 0.0,
			"0.02": 0.0,
			"0.021": 0.0,
			"0.022": 0.0,
			"0.023": 0.0,
			"0.024": 0.0,
			"0.025": 0.0
		}
	}
}
