{
	 "smiles": "CC(O)C1=NC2=C(N1)C=CC(Cl)=C2", 
	 "Tm": 458.15, 
	 "num_atms": 22, 
	 "gaussian": { 
		 "optdone": 1, 
		 "sigma_profile": "yes", 
		 "theory": "DFT", 
		 "functional": "B3LYP", 
		 "basiset": "6-31G**", 
		 "properties": { 
			 "R2extent": 4081.4212, 
			 "electric_dipole_moment_norm": 4.29667281975, 
			 "electric_quadrupole_moment_norm": 12.0411307069, 
			 "total_energy": -993.314317569, 
			 "HOMO_LUMO_gap": 0.20048, 
			 "cosmo_polarized_energy": -14.64, 
			 "cosmo_cavitation_energy": 27.93, 
			 "cosmo_dispersion_energy": -20.75, 
			 "cosmo_repulsion_energy": 1.66, 
			 "cosmo_total_nonelectrostatic_energy": 8.84, 
			 "SMD_solvation_energy": 2.2 
		},
		"coords": [
			{
				"x": 1.7822933039,
				"y": -0.2995835371,
				"z": -3.0347780565,
				"element": "C" 
			},
			{
				"x": 1.7088821176,
				"y": 0.6917288207,
				"z": -1.8737359217,
				"element": "C" 
			},
			{
				"x": 0.9447499899,
				"y": 1.8142487822,
				"z": -2.3266771069,
				"element": "O" 
			},
			{
				"x": 1.0596631131,
				"y": 0.0835229335,
				"z": -0.6560122456,
				"element": "C" 
			},
			{
				"x": 1.655301308,
				"y": -0.6370137659,
				"z": 0.2644346166,
				"element": "N" 
			},
			{
				"x": 0.6391997395,
				"y": -1.0055590163,
				"z": 1.1355726103,
				"element": "C" 
			},
			{
				"x": -0.6018997931,
				"y": -0.4712126306,
				"z": 0.7053573779,
				"element": "C" 
			},
			{
				"x": -0.294305016,
				"y": 0.2209512557,
				"z": -0.451760948,
				"element": "N" 
			},
			{
				"x": -1.788755759,
				"y": -0.6813118522,
				"z": 1.4079461734,
				"element": "C" 
			},
			{
				"x": -1.7152563647,
				"y": -1.4513067185,
				"z": 2.5656725506,
				"element": "C" 
			},
			{
				"x": -0.4837544924,
				"y": -1.9833348834,
				"z": 2.9922743022,
				"element": "C" 
			},
			{
				"x": -0.4592413851,
				"y": -2.9503969725,
				"z": 4.4670990296,
				"element": "Cl" 
			},
			{
				"x": 0.7040128702,
				"y": -1.777983738,
				"z": 2.3021760991,
				"element": "C" 
			},
			{
				"x": 2.2761149928,
				"y": 0.1687409808,
				"z": -3.8903120654,
				"element": "H" 
			},
			{
				"x": 0.7758611839,
				"y": -0.6044652619,
				"z": -3.3370598029,
				"element": "H" 
			},
			{
				"x": 2.3433749324,
				"y": -1.1879364757,
				"z": -2.7349371669,
				"element": "H" 
			},
			{
				"x": 2.7276086516,
				"y": 0.9895921736,
				"z": -1.5923181249,
				"element": "H" 
			},
			{
				"x": 1.0877989865,
				"y": 2.5416190923,
				"z": -1.7064746113,
				"element": "H" 
			},
			{
				"x": -0.900271639,
				"y": 0.7650240352,
				"z": -1.0470456979,
				"element": "H" 
			},
			{
				"x": -2.7370811443,
				"y": -0.2703881083,
				"z": 1.0760542711,
				"element": "H" 
			},
			{
				"x": -2.6079848015,
				"y": -1.6478855503,
				"z": 3.1481055221,
				"element": "H" 
			},
			{
				"x": 1.6430892055,
				"y": -2.1948495635,
				"z": 2.6459191952,
				"element": "H" 
			}
		],
		 "valence_orbital": [ 
			{
				"type": "occ",
				"energy": -0.30493,
				"method": "rhf"
			},
			{
				"type": "occ",
				"energy": -0.30008,
				"method": "rhf"
			},
			{
				"type": "occ",
				"energy": -0.27695,
				"method": "rhf"
			},
			{
				"type": "occ",
				"energy": -0.23204,
				"method": "rhf"
			},
			{
				"type": "occ",
				"energy": -0.22546,
				"method": "rhf"
			},
			{
				"type": "unocc",
				"energy": -0.02498,
				"method": "rhf"
			},
			{
				"type": "unocc",
				"energy": 0.01172,
				"method": "rhf"
			},
			{
				"type": "unocc",
				"energy": 0.03638,
				"method": "rhf"
			},
			{
				"type": "unocc",
				"energy": 0.04129,
				"method": "rhf"
			},
			{
				"type": "unocc",
				"energy": 0.05599,
				"method": "rhf"
			}
		],
		"cosmo_sigma_profile": { 
			"-0.025": 0.0,
			"-0.024": 0.0,
			"-0.023": 0.0,
			"-0.022": 0.0,
			"-0.021": 0.0,
			"-0.02": 0.0,
			"-0.019": 0.0,
			"-0.018": 0.0,
			"-0.017": 0.191841983524,
			"-0.016": 1.42925994851,
			"-0.015": 2.22455072092,
			"-0.014": 1.55108724954,
			"-0.013": 2.2156048856,
			"-0.012": 2.25308034443,
			"-0.011": 1.7023778231,
			"-0.01": 1.53554209093,
			"-0.009": 1.93162155859,
			"-0.008": 3.51554572885,
			"-0.007": 7.17960708869,
			"-0.006": 8.9307382273,
			"-0.005": 9.14117185107,
			"-0.004": 12.9797169203,
			"-0.003": 13.1974392051,
			"-0.002": 13.4175717337,
			"-0.001": 14.5003232346,
			"0.0": 17.6358352969,
			"0.001": 13.7341458011,
			"0.002": 15.7686426008,
			"0.003": 20.4084257413,
			"0.004": 21.6469017256,
			"0.005": 15.0647431357,
			"0.006": 3.60238768377,
			"0.007": 1.82620436371,
			"0.008": 1.92621696859,
			"0.009": 2.63844420636,
			"0.01": 2.6374803299,
			"0.011": 1.68853404843,
			"0.012": 2.14235062349,
			"0.013": 2.23875371161,
			"0.014": 0.836600650516,
			"0.015": 0.733889506524,
			"0.016": 1.1040780468,
			"0.017": 0.781721359807,
			"0.018": 0.0765999152645,
			"0.019": 0.0,
			"0.02": 0.0,
			"0.021": 0.0,
			"0.022": 0.0,
			"0.023": 0.0,
			"0.024": 0.0,
			"0.025": 0.0
		}
	}
}
