{
	 "smiles": "CC1CCC(C)CC1", 
	 "Tm": 236.25, 
	 "num_atms": 24, 
	 "gaussian": { 
		 "optdone": 1, 
		 "sigma_profile": "yes", 
		 "theory": "DFT", 
		 "functional": "B3LYP", 
		 "basiset": "6-31G**", 
		 "properties": { 
			 "R2extent": 1265.6273, 
			 "electric_dipole_moment_norm": 0.0803724455271, 
			 "electric_quadrupole_moment_norm": 0.459892346099, 
			 "total_energy": -314.513875925, 
			 "HOMO_LUMO_gap": 0.36114, 
			 "cosmo_polarized_energy": -0.56, 
			 "cosmo_cavitation_energy": 23.16, 
			 "cosmo_dispersion_energy": -17.28, 
			 "cosmo_repulsion_energy": 1.43, 
			 "cosmo_total_nonelectrostatic_energy": 7.31, 
			 "SMD_solvation_energy": 3.33 
		},
		"coords": [
			{
				"x": 1.7857925,
				"y": 2.4451580709,
				"z": -0.8049317572,
				"element": "C" 
			},
			{
				"x": 1.6463396541,
				"y": 0.9165737716,
				"z": -0.7104841076,
				"element": "C" 
			},
			{
				"x": 0.4428902822,
				"y": 0.3803091096,
				"z": -1.5488490947,
				"element": "C" 
			},
			{
				"x": -0.7468037361,
				"y": -0.0951155913,
				"z": -0.6893383683,
				"element": "C" 
			},
			{
				"x": -1.0091728081,
				"y": 0.8496783433,
				"z": 0.4936112764,
				"element": "C" 
			},
			{
				"x": -2.2921420686,
				"y": 0.4925828521,
				"z": 1.2526297815,
				"element": "C" 
			},
			{
				"x": 0.2242440895,
				"y": 0.8789722449,
				"z": 1.4388566843,
				"element": "C" 
			},
			{
				"x": 1.5337138643,
				"y": 0.4363448546,
				"z": 0.7495667263,
				"element": "C" 
			},
			{
				"x": 2.6487449416,
				"y": 2.8000842008,
				"z": -0.2295566497,
				"element": "H" 
			},
			{
				"x": 1.9261243757,
				"y": 2.7605840005,
				"z": -1.8448286701,
				"element": "H" 
			},
			{
				"x": 0.8981956586,
				"y": 2.9621454603,
				"z": -0.4242960837,
				"element": "H" 
			},
			{
				"x": 2.5684804135,
				"y": 0.488702099,
				"z": -1.1248593512,
				"element": "H" 
			},
			{
				"x": 0.0975854925,
				"y": 1.1714575768,
				"z": -2.2266405483,
				"element": "H" 
			},
			{
				"x": 0.7718533923,
				"y": -0.4442406674,
				"z": -2.1921549951,
				"element": "H" 
			},
			{
				"x": -0.5549684332,
				"y": -1.1057029417,
				"z": -0.3020350754,
				"element": "H" 
			},
			{
				"x": -1.643807604,
				"y": -0.1773276656,
				"z": -1.3155942391,
				"element": "H" 
			},
			{
				"x": -1.1442317628,
				"y": 1.8572849393,
				"z": 0.0736488282,
				"element": "H" 
			},
			{
				"x": -2.2385224552,
				"y": -0.5281119264,
				"z": 1.6511384151,
				"element": "H" 
			},
			{
				"x": -3.17290996,
				"y": 0.551413415,
				"z": 0.6032580415,
				"element": "H" 
			},
			{
				"x": -2.4551568524,
				"y": 1.1691363039,
				"z": 2.0993400078,
				"element": "H" 
			},
			{
				"x": 0.0417182167,
				"y": 0.2180386257,
				"z": 2.2961806139,
				"element": "H" 
			},
			{
				"x": 0.3357944481,
				"y": 1.8863558924,
				"z": 1.8571482833,
				"element": "H" 
			},
			{
				"x": 1.5911847231,
				"y": -0.6595052338,
				"z": 0.7568282786,
				"element": "H" 
			},
			{
				"x": 2.3974536283,
				"y": 0.7861822654,
				"z": 1.3282620037,
				"element": "H" 
			}
		],
		 "valence_orbital": [ 
			{
				"type": "occ",
				"energy": -0.33018,
				"method": "rhf"
			},
			{
				"type": "occ",
				"energy": -0.32589,
				"method": "rhf"
			},
			{
				"type": "occ",
				"energy": -0.29067,
				"method": "rhf"
			},
			{
				"type": "occ",
				"energy": -0.28857,
				"method": "rhf"
			},
			{
				"type": "occ",
				"energy": -0.28407,
				"method": "rhf"
			},
			{
				"type": "unocc",
				"energy": 0.07707,
				"method": "rhf"
			},
			{
				"type": "unocc",
				"energy": 0.101,
				"method": "rhf"
			},
			{
				"type": "unocc",
				"energy": 0.11586,
				"method": "rhf"
			},
			{
				"type": "unocc",
				"energy": 0.13125,
				"method": "rhf"
			},
			{
				"type": "unocc",
				"energy": 0.1434,
				"method": "rhf"
			}
		],
		"cosmo_sigma_profile": { 
			"-0.025": 0.0,
			"-0.024": 0.0,
			"-0.023": 0.0,
			"-0.022": 0.0,
			"-0.021": 0.0,
			"-0.02": 0.0,
			"-0.019": 0.0,
			"-0.018": 0.0,
			"-0.017": 0.0,
			"-0.016": 0.0,
			"-0.015": 0.0,
			"-0.014": 0.0,
			"-0.013": 0.0,
			"-0.012": 0.0,
			"-0.011": 0.0,
			"-0.01": 0.0,
			"-0.009": 0.0,
			"-0.008": 0.0,
			"-0.007": 0.0,
			"-0.006": 0.0,
			"-0.005": 0.0,
			"-0.004": 0.0,
			"-0.003": 1.40240065204,
			"-0.002": 22.0079894868,
			"-0.001": 41.7627735947,
			"0.0": 47.5390417252,
			"0.001": 38.3033868595,
			"0.002": 24.1995998516,
			"0.003": 1.46429466924,
			"0.004": 0.0,
			"0.005": 0.0,
			"0.006": 0.0,
			"0.007": 0.0,
			"0.008": 0.0,
			"0.009": 0.0,
			"0.01": 0.0,
			"0.011": 0.0,
			"0.012": 0.0,
			"0.013": 0.0,
			"0.014": 0.0,
			"0.015": 0.0,
			"0.016": 0.0,
			"0.017": 0.0,
			"0.018": 0.0,
			"0.019": 0.0,
			"0.02": 0.0,
			"0.021": 0.0,
			"0.022": 0.0,
			"0.023": 0.0,
			"0.024": 0.0,
			"0.025": 0.0
		}
	}
}
