{
	 "smiles": "C1=CC2=C(C=C1)C1=CC3=C(C=CC=C3)C3=C1C2=CC=C3", 
	 "Tm": 439.15, 
	 "num_atms": 32, 
	 "gaussian": { 
		 "optdone": 1, 
		 "sigma_profile": "yes", 
		 "theory": "DFT", 
		 "functional": "B3LYP", 
		 "basiset": "6-31G**", 
		 "properties": { 
			 "R2extent": 5876.5538, 
			 "electric_dipole_moment_norm": 0.376263644271, 
			 "electric_quadrupole_moment_norm": 14.0392038888, 
			 "total_energy": -769.401022624, 
			 "HOMO_LUMO_gap": 0.14704, 
			 "cosmo_polarized_energy": -7.64, 
			 "cosmo_cavitation_energy": 35.03, 
			 "cosmo_dispersion_energy": -26.02, 
			 "cosmo_repulsion_energy": 1.88, 
			 "cosmo_total_nonelectrostatic_energy": 10.9, 
			 "SMD_solvation_energy": 4.59 
		},
		"coords": [
			{
				"x": 2.3745949472,
				"y": 0.2383599883,
				"z": 4.5042122301,
				"element": "C" 
			},
			{
				"x": 2.1580083936,
				"y": 1.3448927142,
				"z": 3.6743870265,
				"element": "C" 
			},
			{
				"x": 1.3901831881,
				"y": 1.186212643,
				"z": 2.524187201,
				"element": "C" 
			},
			{
				"x": 0.8352303415,
				"y": -0.0878325016,
				"z": 2.2018423702,
				"element": "C" 
			},
			{
				"x": 1.0568600661,
				"y": -1.1814499164,
				"z": 3.0340286985,
				"element": "C" 
			},
			{
				"x": 1.8304380319,
				"y": -1.0106550672,
				"z": 4.18800901,
				"element": "C" 
			},
			{
				"x": 0.0806783752,
				"y": 0.0477722762,
				"z": 0.9433329655,
				"element": "C" 
			},
			{
				"x": -0.6470425493,
				"y": -0.7986784554,
				"z": 0.1585768555,
				"element": "C" 
			},
			{
				"x": -1.2686469116,
				"y": -0.3050489314,
				"z": -1.0461052423,
				"element": "C" 
			},
			{
				"x": -1.1396778826,
				"y": 1.069612371,
				"z": -1.444881557,
				"element": "C" 
			},
			{
				"x": -1.7730351216,
				"y": 1.4862945564,
				"z": -2.6343842165,
				"element": "C" 
			},
			{
				"x": -2.5051937319,
				"y": 0.6034298611,
				"z": -3.4102861414,
				"element": "C" 
			},
			{
				"x": -2.6322941196,
				"y": -0.7423546339,
				"z": -3.021288269,
				"element": "C" 
			},
			{
				"x": -2.0234929588,
				"y": -1.1817467146,
				"z": -1.8607266738,
				"element": "C" 
			},
			{
				"x": -0.3622696049,
				"y": 1.9705139151,
				"z": -0.6051662125,
				"element": "C" 
			},
			{
				"x": 0.2090116565,
				"y": 1.4191427935,
				"z": 0.5449650595,
				"element": "C" 
			},
			{
				"x": 0.9931443788,
				"y": 2.1427741799,
				"z": 1.4731970612,
				"element": "C" 
			},
			{
				"x": 1.2198605447,
				"y": 3.4892931827,
				"z": 1.2419608933,
				"element": "C" 
			},
			{
				"x": 0.6546037532,
				"y": 4.0757543715,
				"z": 0.0859568318,
				"element": "C" 
			},
			{
				"x": -0.1143815065,
				"y": 3.3502898897,
				"z": -0.8174426199,
				"element": "C" 
			},
			{
				"x": 2.9723132602,
				"y": 0.3514842614,
				"z": 5.4041059936,
				"element": "H" 
			},
			{
				"x": 2.5853447096,
				"y": 2.3110084971,
				"z": 3.9291519161,
				"element": "H" 
			},
			{
				"x": 0.6379143068,
				"y": -2.1555729824,
				"z": 2.7960343661,
				"element": "H" 
			},
			{
				"x": 2.0097665353,
				"y": -1.8571613503,
				"z": 4.8445093788,
				"element": "H" 
			},
			{
				"x": -0.7786435843,
				"y": -1.8484151796,
				"z": 0.4104627093,
				"element": "H" 
			},
			{
				"x": -1.6851751817,
				"y": 2.5213585483,
				"z": -2.9492299232,
				"element": "H" 
			},
			{
				"x": -2.9821060006,
				"y": 0.9525261703,
				"z": -4.3214990503,
				"element": "H" 
			},
			{
				"x": -3.2068334164,
				"y": -1.4335978768,
				"z": -3.630816101,
				"element": "H" 
			},
			{
				"x": -2.1180373086,
				"y": -2.2206881336,
				"z": -1.5546674794,
				"element": "H" 
			},
			{
				"x": 1.814167421,
				"y": 4.0950596788,
				"z": 1.9203251739,
				"element": "H" 
			},
			{
				"x": 0.8275541358,
				"y": 5.1315576551,
				"z": -0.1030876313,
				"element": "H" 
			},
			{
				"x": -0.5206441674,
				"y": 3.8582641895,
				"z": -1.6863646234,
				"element": "H" 
			}
		],
		 "valence_orbital": [ 
			{
				"type": "occ",
				"energy": -0.27121,
				"method": "rhf"
			},
			{
				"type": "occ",
				"energy": -0.26073,
				"method": "rhf"
			},
			{
				"type": "occ",
				"energy": -0.22544,
				"method": "rhf"
			},
			{
				"type": "occ",
				"energy": -0.216,
				"method": "rhf"
			},
			{
				"type": "occ",
				"energy": -0.2106,
				"method": "rhf"
			},
			{
				"type": "unocc",
				"energy": -0.06356,
				"method": "rhf"
			},
			{
				"type": "unocc",
				"energy": -0.03695,
				"method": "rhf"
			},
			{
				"type": "unocc",
				"energy": -0.00591,
				"method": "rhf"
			},
			{
				"type": "unocc",
				"energy": 0.01103,
				"method": "rhf"
			},
			{
				"type": "unocc",
				"energy": 0.02082,
				"method": "rhf"
			}
		],
		"cosmo_sigma_profile": { 
			"-0.025": 0.0,
			"-0.024": 0.0,
			"-0.023": 0.0,
			"-0.022": 0.0,
			"-0.021": 0.0,
			"-0.02": 0.0,
			"-0.019": 0.0,
			"-0.018": 0.0,
			"-0.017": 0.0,
			"-0.016": 0.0,
			"-0.015": 0.0,
			"-0.014": 0.0,
			"-0.013": 0.0,
			"-0.012": 0.0,
			"-0.011": 0.0,
			"-0.01": 0.0,
			"-0.009": 0.0,
			"-0.008": 0.725986505361,
			"-0.007": 3.3030086384,
			"-0.006": 20.0908679345,
			"-0.005": 25.4178200741,
			"-0.004": 24.3216424812,
			"-0.003": 20.2782545409,
			"-0.002": 16.2999042379,
			"-0.001": 14.4121741887,
			"0.0": 13.8701092712,
			"0.001": 16.0626147635,
			"0.002": 22.2481458325,
			"0.003": 40.0800519624,
			"0.004": 36.3501041288,
			"0.005": 25.4111829942,
			"0.006": 4.32631388036,
			"0.007": 0.0,
			"0.008": 0.0,
			"0.009": 0.0,
			"0.01": 0.0,
			"0.011": 0.0,
			"0.012": 0.0,
			"0.013": 0.0,
			"0.014": 0.0,
			"0.015": 0.0,
			"0.016": 0.0,
			"0.017": 0.0,
			"0.018": 0.0,
			"0.019": 0.0,
			"0.02": 0.0,
			"0.021": 0.0,
			"0.022": 0.0,
			"0.023": 0.0,
			"0.024": 0.0,
			"0.025": 0.0
		}
	}
}
