{
	 "smiles": "[O-][N+](=O)C1=CC=CC2=C1C(=O)C(C2=O)=C1NC2=C(C=CC=C2)C=C1", 
	 "Tm": 633.15, 
	 "num_atms": 34, 
	 "gaussian": { 
		 "optdone": 1, 
		 "sigma_profile": "yes", 
		 "theory": "DFT", 
		 "functional": "B3LYP", 
		 "basiset": "6-31G**", 
		 "properties": { 
			 "R2extent": 9774.0561, 
			 "electric_dipole_moment_norm": 7.16889397606, 
			 "electric_quadrupole_moment_norm": 32.4829148124, 
			 "total_energy": -1102.26172267, 
			 "HOMO_LUMO_gap": 0.12892, 
			 "cosmo_polarized_energy": -18.94, 
			 "cosmo_cavitation_energy": 40.4, 
			 "cosmo_dispersion_energy": -28.87, 
			 "cosmo_repulsion_energy": 2.09, 
			 "cosmo_total_nonelectrostatic_energy": 13.63, 
			 "SMD_solvation_energy": 9.48 
		},
		"coords": [
			{
				"x": 0.8934135136,
				"y": -0.9179220875,
				"z": -5.1664438127,
				"element": "O" 
			},
			{
				"x": 0.9019674357,
				"y": 0.2558856115,
				"z": -4.8143880424,
				"element": "N" 
			},
			{
				"x": 1.7508073818,
				"y": 1.0941329921,
				"z": -5.094804629,
				"element": "O" 
			},
			{
				"x": -0.2522278158,
				"y": 0.7193047108,
				"z": -4.0161042874,
				"element": "C" 
			},
			{
				"x": -1.3714101904,
				"y": 1.2189537198,
				"z": -4.688911699,
				"element": "C" 
			},
			{
				"x": -2.4755503402,
				"y": 1.6635303517,
				"z": -3.9572810962,
				"element": "C" 
			},
			{
				"x": -2.4786469599,
				"y": 1.616241775,
				"z": -2.5561061241,
				"element": "C" 
			},
			{
				"x": -1.3529139974,
				"y": 1.1150106683,
				"z": -1.9192576989,
				"element": "C" 
			},
			{
				"x": -0.2351028876,
				"y": 0.664074289,
				"z": -2.6342292043,
				"element": "C" 
			},
			{
				"x": 0.8223753643,
				"y": 0.1806490537,
				"z": -1.6695387055,
				"element": "C" 
			},
			{
				"x": 1.914175068,
				"y": -0.2726074086,
				"z": -1.9973322273,
				"element": "O" 
			},
			{
				"x": 0.2509694272,
				"y": 0.3777523104,
				"z": -0.3389190824,
				"element": "C" 
			},
			{
				"x": -1.0749182492,
				"y": 0.9459566511,
				"z": -0.4550397374,
				"element": "C" 
			},
			{
				"x": -1.8572412808,
				"y": 1.2469912428,
				"z": 0.4624784823,
				"element": "O" 
			},
			{
				"x": 0.8556698553,
				"y": 0.0778567422,
				"z": 0.8930577435,
				"element": "C" 
			},
			{
				"x": 0.1530212903,
				"y": 0.3372526723,
				"z": 2.0334065831,
				"element": "N" 
			},
			{
				"x": 0.6142172701,
				"y": 0.09699252,
				"z": 3.3072622512,
				"element": "C" 
			},
			{
				"x": 1.910125479,
				"y": -0.4596093116,
				"z": 3.467296656,
				"element": "C" 
			},
			{
				"x": 2.3838501526,
				"y": -0.7062025285,
				"z": 4.773336085,
				"element": "C" 
			},
			{
				"x": 1.6010287682,
				"y": -0.411485166,
				"z": 5.8756968344,
				"element": "C" 
			},
			{
				"x": 0.3172667262,
				"y": 0.1404713519,
				"z": 5.6987842023,
				"element": "C" 
			},
			{
				"x": -0.1785587016,
				"y": 0.3951875211,
				"z": 4.4309133617,
				"element": "C" 
			},
			{
				"x": 2.6663112982,
				"y": -0.7402337409,
				"z": 2.2816877022,
				"element": "C" 
			},
			{
				"x": 2.1676924538,
				"y": -0.4852383526,
				"z": 1.0387851629,
				"element": "C" 
			},
			{
				"x": -1.3748861579,
				"y": 1.2580333585,
				"z": -5.7732458749,
				"element": "H" 
			},
			{
				"x": -3.339438683,
				"y": 2.0496829051,
				"z": -4.4893230889,
				"element": "H" 
			},
			{
				"x": -3.3308343285,
				"y": 1.9589025109,
				"z": -1.9783050042,
				"element": "H" 
			},
			{
				"x": -0.7818596213,
				"y": 0.7406536457,
				"z": 1.8698027491,
				"element": "H" 
			},
			{
				"x": 3.3755548267,
				"y": -1.1321873416,
				"z": 4.8974862769,
				"element": "H" 
			},
			{
				"x": 1.9730946672,
				"y": -0.6043200358,
				"z": 6.8766503484,
				"element": "H" 
			},
			{
				"x": -0.2938519548,
				"y": 0.3703086295,
				"z": 6.5662312255,
				"element": "H" 
			},
			{
				"x": -1.1680672434,
				"y": 0.8207540153,
				"z": 4.292338677,
				"element": "H" 
			},
			{
				"x": 3.6600725545,
				"y": -1.1666484805,
				"z": 2.3904849483,
				"element": "H" 
			},
			{
				"x": 2.7198948793,
				"y": -0.6887247951,
				"z": 0.1297310251,
				"element": "H" 
			}
		],
		 "valence_orbital": [ 
			{
				"type": "occ",
				"energy": -0.27046,
				"method": "rhf"
			},
			{
				"type": "occ",
				"energy": -0.26401,
				"method": "rhf"
			},
			{
				"type": "occ",
				"energy": -0.26299,
				"method": "rhf"
			},
			{
				"type": "occ",
				"energy": -0.24603,
				"method": "rhf"
			},
			{
				"type": "occ",
				"energy": -0.21739,
				"method": "rhf"
			},
			{
				"type": "unocc",
				"energy": -0.08847,
				"method": "rhf"
			},
			{
				"type": "unocc",
				"energy": -0.0763,
				"method": "rhf"
			},
			{
				"type": "unocc",
				"energy": -0.06099,
				"method": "rhf"
			},
			{
				"type": "unocc",
				"energy": -0.04921,
				"method": "rhf"
			},
			{
				"type": "unocc",
				"energy": -0.02247,
				"method": "rhf"
			}
		],
		"cosmo_sigma_profile": { 
			"-0.025": 0.0,
			"-0.024": 0.0,
			"-0.023": 0.0,
			"-0.022": 0.0,
			"-0.021": 0.0,
			"-0.02": 0.0,
			"-0.019": 0.0,
			"-0.018": 0.0,
			"-0.017": 0.0,
			"-0.016": 0.0,
			"-0.015": 0.0,
			"-0.014": 0.0,
			"-0.013": 0.0,
			"-0.012": 0.146127072843,
			"-0.011": 1.16509466979,
			"-0.01": 2.64149475378,
			"-0.009": 4.28764671387,
			"-0.008": 9.96674736617,
			"-0.007": 16.0837316278,
			"-0.006": 17.9145656574,
			"-0.005": 17.2712099862,
			"-0.004": 13.821104938,
			"-0.003": 18.1004181517,
			"-0.002": 24.4381734034,
			"-0.001": 24.4508184916,
			"0.0": 37.3686715049,
			"0.001": 32.3480335225,
			"0.002": 18.9654378422,
			"0.003": 15.7852236736,
			"0.004": 9.53836953959,
			"0.005": 7.33057689482,
			"0.006": 11.9014036614,
			"0.007": 14.3899503867,
			"0.008": 10.5403277909,
			"0.009": 6.29463813964,
			"0.01": 3.41829979307,
			"0.011": 5.01873463818,
			"0.012": 3.34544085848,
			"0.013": 0.762233055372,
			"0.014": 0.0,
			"0.015": 0.0,
			"0.016": 0.0,
			"0.017": 0.0,
			"0.018": 0.0,
			"0.019": 0.0,
			"0.02": 0.0,
			"0.021": 0.0,
			"0.022": 0.0,
			"0.023": 0.0,
			"0.024": 0.0,
			"0.025": 0.0
		}
	}
}
