{
	 "smiles": "COC1=C(NC(=O)CCCl)C=CC(=C1)[N+]([O-])=O", 
	 "Tm": 418.15, 
	 "num_atms": 28, 
	 "gaussian": { 
		 "optdone": 1, 
		 "sigma_profile": "yes", 
		 "theory": "DFT", 
		 "functional": "B3LYP", 
		 "basiset": "6-31G**", 
		 "properties": { 
			 "R2extent": 6419.7091, 
			 "electric_dipole_moment_norm": 3.39342462418, 
			 "electric_quadrupole_moment_norm": 31.6388337699, 
			 "total_energy": -1258.18972009, 
			 "HOMO_LUMO_gap": 0.15083, 
			 "cosmo_polarized_energy": -18.86, 
			 "cosmo_cavitation_energy": 34.94, 
			 "cosmo_dispersion_energy": -24.26, 
			 "cosmo_repulsion_energy": 1.92, 
			 "cosmo_total_nonelectrostatic_energy": 12.6, 
			 "SMD_solvation_energy": 9.28 
		},
		"coords": [
			{
				"x": -1.3949685574,
				"y": 2.7074545951,
				"z": -0.6897779061,
				"element": "C" 
			},
			{
				"x": -0.1930847879,
				"y": 2.0929629241,
				"z": -1.1473705443,
				"element": "O" 
			},
			{
				"x": -0.1520191764,
				"y": 0.7384389494,
				"z": -1.2305037872,
				"element": "C" 
			},
			{
				"x": 1.0379969936,
				"y": 0.1760106532,
				"z": -1.7619637196,
				"element": "C" 
			},
			{
				"x": 2.0951091256,
				"y": 0.9963969294,
				"z": -2.211874454,
				"element": "N" 
			},
			{
				"x": 2.8411578927,
				"y": 1.9490094346,
				"z": -1.5413783525,
				"element": "C" 
			},
			{
				"x": 3.6964926734,
				"y": 2.5828243854,
				"z": -2.139189301,
				"element": "O" 
			},
			{
				"x": 2.5878787226,
				"y": 2.1515924924,
				"z": -0.0505993058,
				"element": "C" 
			},
			{
				"x": 3.8857737205,
				"y": 2.4360251232,
				"z": 0.6906418145,
				"element": "C" 
			},
			{
				"x": 4.8941601031,
				"y": 0.932373354,
				"z": 0.8755339368,
				"element": "Cl" 
			},
			{
				"x": 1.1252539097,
				"y": -1.2100068868,
				"z": -1.9263773299,
				"element": "C" 
			},
			{
				"x": 0.0778213803,
				"y": -2.0536425344,
				"z": -1.5655480869,
				"element": "C" 
			},
			{
				"x": -1.0625418657,
				"y": -1.4764427835,
				"z": -1.0207924664,
				"element": "C" 
			},
			{
				"x": -1.1976680454,
				"y": -0.0995487448,
				"z": -0.8441685222,
				"element": "C" 
			},
			{
				"x": -2.1812249943,
				"y": -2.3416474467,
				"z": -0.6173492179,
				"element": "N" 
			},
			{
				"x": -3.1736441878,
				"y": -1.8014335363,
				"z": -0.12704091,
				"element": "O" 
			},
			{
				"x": -2.0580395837,
				"y": -3.5525234995,
				"z": -0.7952028881,
				"element": "O" 
			},
			{
				"x": -2.2443962528,
				"y": 2.4456905733,
				"z": -1.3313050751,
				"element": "H" 
			},
			{
				"x": -1.6203877014,
				"y": 2.4258156855,
				"z": 0.3456115229,
				"element": "H" 
			},
			{
				"x": -1.217506326,
				"y": 3.7817481423,
				"z": -0.7438452778,
				"element": "H" 
			},
			{
				"x": 2.4341796951,
				"y": 0.8401530553,
				"z": -3.1538017573,
				"element": "H" 
			},
			{
				"x": 2.0618438347,
				"y": 1.3058211277,
				"z": 0.3978584785,
				"element": "H" 
			},
			{
				"x": 1.936012343,
				"y": 3.0277076328,
				"z": 0.0490023469,
				"element": "H" 
			},
			{
				"x": 4.4935044869,
				"y": 3.149258908,
				"z": 0.1352158862,
				"element": "H" 
			},
			{
				"x": 3.6963922034,
				"y": 2.7997782388,
				"z": 1.7005116137,
				"element": "H" 
			},
			{
				"x": 2.0413949548,
				"y": -1.6238694497,
				"z": -2.3356598022,
				"element": "H" 
			},
			{
				"x": 0.1379439998,
				"y": -3.1273034749,
				"z": -1.6842777555,
				"element": "H" 
			},
			{
				"x": -2.1224345605,
				"y": 0.2798561522,
				"z": -0.4335491399,
				"element": "H" 
			}
		],
		 "valence_orbital": [ 
			{
				"type": "occ",
				"energy": -0.29699,
				"method": "rhf"
			},
			{
				"type": "occ",
				"energy": -0.29398,
				"method": "rhf"
			},
			{
				"type": "occ",
				"energy": -0.27372,
				"method": "rhf"
			},
			{
				"type": "occ",
				"energy": -0.26861,
				"method": "rhf"
			},
			{
				"type": "occ",
				"energy": -0.24814,
				"method": "rhf"
			},
			{
				"type": "unocc",
				"energy": -0.09731,
				"method": "rhf"
			},
			{
				"type": "unocc",
				"energy": -0.03173,
				"method": "rhf"
			},
			{
				"type": "unocc",
				"energy": -0.01216,
				"method": "rhf"
			},
			{
				"type": "unocc",
				"energy": 0.01281,
				"method": "rhf"
			},
			{
				"type": "unocc",
				"energy": 0.02765,
				"method": "rhf"
			}
		],
		"cosmo_sigma_profile": { 
			"-0.025": 0.0,
			"-0.024": 0.0,
			"-0.023": 0.0,
			"-0.022": 0.0,
			"-0.021": 0.0,
			"-0.02": 0.0,
			"-0.019": 0.0,
			"-0.018": 0.0,
			"-0.017": 0.0,
			"-0.016": 0.0227174420104,
			"-0.015": 0.712058524231,
			"-0.014": 1.18511435283,
			"-0.013": 0.96186684263,
			"-0.012": 1.14554614738,
			"-0.011": 0.821976394006,
			"-0.01": 0.969810528252,
			"-0.009": 1.57462477788,
			"-0.008": 5.32467928862,
			"-0.007": 15.1061450241,
			"-0.006": 20.2858530204,
			"-0.005": 21.975525202,
			"-0.004": 20.719575145,
			"-0.003": 17.9038315321,
			"-0.002": 15.2912997503,
			"-0.001": 18.3320523964,
			"0.0": 20.4230049653,
			"0.001": 15.6992310395,
			"0.002": 12.3277377367,
			"0.003": 7.88529854298,
			"0.004": 10.7008443229,
			"0.005": 11.4601926943,
			"0.006": 15.4755016801,
			"0.007": 13.6473325285,
			"0.008": 9.57043968874,
			"0.009": 6.10704009013,
			"0.01": 4.50506050577,
			"0.011": 1.86699984703,
			"0.012": 3.28673170805,
			"0.013": 4.4102926552,
			"0.014": 0.348698303642,
			"0.015": 0.0,
			"0.016": 0.0,
			"0.017": 0.0,
			"0.018": 0.0,
			"0.019": 0.0,
			"0.02": 0.0,
			"0.021": 0.0,
			"0.022": 0.0,
			"0.023": 0.0,
			"0.024": 0.0,
			"0.025": 0.0
		}
	}
}
