{
	 "smiles": "CCCC(C)Cl", 
	 "Tm": 193.15, 
	 "num_atms": 17, 
	 "gaussian": { 
		 "optdone": 1, 
		 "sigma_profile": "yes", 
		 "theory": "DFT", 
		 "functional": "B3LYP", 
		 "basiset": "6-31G**", 
		 "properties": { 
			 "R2extent": 1096.8241, 
			 "electric_dipole_moment_norm": 2.35205259508, 
			 "electric_quadrupole_moment_norm": 5.6127023821, 
			 "total_energy": -657.373680419, 
			 "HOMO_LUMO_gap": 0.30764, 
			 "cosmo_polarized_energy": -3.88, 
			 "cosmo_cavitation_energy": 20.06, 
			 "cosmo_dispersion_energy": -14.8, 
			 "cosmo_repulsion_energy": 1.27, 
			 "cosmo_total_nonelectrostatic_energy": 6.53, 
			 "SMD_solvation_energy": 3.05 
		},
		"coords": [
			{
				"x": 0.0015720971,
				"y": -2.7651987295,
				"z": 0.0771232342,
				"element": "C" 
			},
			{
				"x": 0.8250810374,
				"y": -1.5034114702,
				"z": -0.2088189047,
				"element": "C" 
			},
			{
				"x": 0.0288791996,
				"y": -0.2334811233,
				"z": -0.5584409512,
				"element": "C" 
			},
			{
				"x": -0.7842425581,
				"y": 0.4582054424,
				"z": 0.5446652081,
				"element": "C" 
			},
			{
				"x": -0.046728722,
				"y": 0.6678252544,
				"z": 1.860709201,
				"element": "C" 
			},
			{
				"x": -2.3709195121,
				"y": -0.4265045912,
				"z": 0.8801477596,
				"element": "Cl" 
			},
			{
				"x": 0.6620626046,
				"y": -3.6300161413,
				"z": 0.2020708981,
				"element": "H" 
			},
			{
				"x": -0.6022231029,
				"y": -2.6677814768,
				"z": 0.9821625515,
				"element": "H" 
			},
			{
				"x": -0.6837914461,
				"y": -2.9845441158,
				"z": -0.7488170989,
				"element": "H" 
			},
			{
				"x": 1.4880485966,
				"y": -1.7036596945,
				"z": -1.0603243556,
				"element": "H" 
			},
			{
				"x": 1.4925800467,
				"y": -1.2985317404,
				"z": 0.6376586998,
				"element": "H" 
			},
			{
				"x": -0.634965074,
				"y": -0.4315504741,
				"z": -1.4078180871,
				"element": "H" 
			},
			{
				"x": 0.744716336,
				"y": 0.5272123033,
				"z": -0.9033059881,
				"element": "H" 
			},
			{
				"x": -1.1274677486,
				"y": 1.4209153519,
				"z": 0.1588834117,
				"element": "H" 
			},
			{
				"x": -0.6547446215,
				"y": 1.2469765793,
				"z": 2.5594969075,
				"element": "H" 
			},
			{
				"x": 0.8828428703,
				"y": 1.2186978047,
				"z": 1.6733093393,
				"element": "H" 
			},
			{
				"x": 0.2076999968,
				"y": -0.2827531787,
				"z": 2.3356981747,
				"element": "H" 
			}
		],
		 "valence_orbital": [ 
			{
				"type": "occ",
				"energy": -0.34091,
				"method": "rhf"
			},
			{
				"type": "occ",
				"energy": -0.33418,
				"method": "rhf"
			},
			{
				"type": "occ",
				"energy": -0.32887,
				"method": "rhf"
			},
			{
				"type": "occ",
				"energy": -0.28672,
				"method": "rhf"
			},
			{
				"type": "occ",
				"energy": -0.28063,
				"method": "rhf"
			},
			{
				"type": "unocc",
				"energy": 0.02701,
				"method": "rhf"
			},
			{
				"type": "unocc",
				"energy": 0.0744,
				"method": "rhf"
			},
			{
				"type": "unocc",
				"energy": 0.11344,
				"method": "rhf"
			},
			{
				"type": "unocc",
				"energy": 0.12993,
				"method": "rhf"
			},
			{
				"type": "unocc",
				"energy": 0.1419,
				"method": "rhf"
			}
		],
		"cosmo_sigma_profile": { 
			"-0.025": 0.0,
			"-0.024": 0.0,
			"-0.023": 0.0,
			"-0.022": 0.0,
			"-0.021": 0.0,
			"-0.02": 0.0,
			"-0.019": 0.0,
			"-0.018": 0.0,
			"-0.017": 0.0,
			"-0.016": 0.0,
			"-0.015": 0.0,
			"-0.014": 0.0,
			"-0.013": 0.0,
			"-0.012": 0.0,
			"-0.011": 0.0,
			"-0.01": 0.0,
			"-0.009": 0.0,
			"-0.008": 0.0,
			"-0.007": 0.0993618943005,
			"-0.006": 2.15191571299,
			"-0.005": 5.10248978803,
			"-0.004": 11.2127508269,
			"-0.003": 16.3774059384,
			"-0.002": 23.5747319035,
			"-0.001": 23.3945313403,
			"0.0": 20.2916577553,
			"0.001": 13.6333607616,
			"0.002": 9.8592709709,
			"0.003": 5.09729494545,
			"0.004": 4.1718491789,
			"0.005": 6.31402323007,
			"0.006": 6.13363350352,
			"0.007": 7.67402634652,
			"0.008": 2.05452491432,
			"0.009": 0.0,
			"0.01": 0.0,
			"0.011": 0.0,
			"0.012": 0.0,
			"0.013": 0.0,
			"0.014": 0.0,
			"0.015": 0.0,
			"0.016": 0.0,
			"0.017": 0.0,
			"0.018": 0.0,
			"0.019": 0.0,
			"0.02": 0.0,
			"0.021": 0.0,
			"0.022": 0.0,
			"0.023": 0.0,
			"0.024": 0.0,
			"0.025": 0.0
		}
	}
}
