{
	 "smiles": "CC1=C(NC(=O)CCl)C=C(C=C1)S(=O)(=O)N1CCOCC1", 
	 "Tm": 350.15, 
	 "num_atms": 38, 
	 "gaussian": { 
		 "optdone": 1, 
		 "sigma_profile": "yes", 
		 "theory": "DFT", 
		 "functional": "B3LYP", 
		 "basiset": "6-31G**", 
		 "properties": { 
			 "R2extent": 7850.8932, 
			 "electric_dipole_moment_norm": 5.37965721678, 
			 "electric_quadrupole_moment_norm": 19.6802393065, 
			 "total_energy": -1774.32554324, 
			 "HOMO_LUMO_gap": 0.19509, 
			 "cosmo_polarized_energy": -24.3, 
			 "cosmo_cavitation_energy": 43.13, 
			 "cosmo_dispersion_energy": -29.68, 
			 "cosmo_repulsion_energy": 2.25, 
			 "cosmo_total_nonelectrostatic_energy": 15.7, 
			 "SMD_solvation_energy": 5.81 
		},
		"coords": [
			{
				"x": -3.5156305777,
				"y": 0.8718245183,
				"z": 1.6994769716,
				"element": "C" 
			},
			{
				"x": -2.0816434851,
				"y": 0.8189173473,
				"z": 1.2334467168,
				"element": "C" 
			},
			{
				"x": -1.5422122194,
				"y": -0.3625287169,
				"z": 0.6696264281,
				"element": "C" 
			},
			{
				"x": -2.3974168764,
				"y": -1.4802537679,
				"z": 0.5286781579,
				"element": "N" 
			},
			{
				"x": -2.2153192841,
				"y": -2.8393477536,
				"z": 0.7127536172,
				"element": "C" 
			},
			{
				"x": -3.1510835962,
				"y": -3.6062274962,
				"z": 0.5579416481,
				"element": "O" 
			},
			{
				"x": -0.8481816471,
				"y": -3.3523972701,
				"z": 1.1498994203,
				"element": "C" 
			},
			{
				"x": 0.0886659495,
				"y": -3.954413572,
				"z": -0.2805525495,
				"element": "Cl" 
			},
			{
				"x": -0.2126463966,
				"y": -0.3908277447,
				"z": 0.2324796319,
				"element": "C" 
			},
			{
				"x": 0.5906984749,
				"y": 0.7397649714,
				"z": 0.3974804749,
				"element": "C" 
			},
			{
				"x": 0.0860855789,
				"y": 1.908911325,
				"z": 0.9645874902,
				"element": "C" 
			},
			{
				"x": -1.2491832446,
				"y": 1.933982629,
				"z": 1.3650287025,
				"element": "C" 
			},
			{
				"x": 2.2979174456,
				"y": 0.6984173408,
				"z": -0.1779601233,
				"element": "S" 
			},
			{
				"x": 2.9877690025,
				"y": 1.8157884859,
				"z": 0.4700784137,
				"element": "O" 
			},
			{
				"x": 2.7520112658,
				"y": -0.688227366,
				"z": -0.0636853037,
				"element": "O" 
			},
			{
				"x": 2.2729663043,
				"y": 1.047417015,
				"z": -1.8123325206,
				"element": "N" 
			},
			{
				"x": 1.7943593774,
				"y": 0.0135020857,
				"z": -2.7460447644,
				"element": "C" 
			},
			{
				"x": 2.0220239905,
				"y": 0.5178532773,
				"z": -4.1674286565,
				"element": "C" 
			},
			{
				"x": 1.3029298902,
				"y": 1.7155881392,
				"z": -4.4559656073,
				"element": "O" 
			},
			{
				"x": 1.0419969177,
				"y": 2.543810048,
				"z": -3.3272689391,
				"element": "C" 
			},
			{
				"x": 2.128032053,
				"y": 2.4481241785,
				"z": -2.2588578661,
				"element": "C" 
			},
			{
				"x": -3.7236788304,
				"y": 1.8159822756,
				"z": 2.2073753654,
				"element": "H" 
			},
			{
				"x": -3.7439156746,
				"y": 0.0549924992,
				"z": 2.3930385195,
				"element": "H" 
			},
			{
				"x": -4.223592329,
				"y": 0.7932515053,
				"z": 0.8632099806,
				"element": "H" 
			},
			{
				"x": -3.3733976309,
				"y": -1.2808409891,
				"z": 0.3438129937,
				"element": "H" 
			},
			{
				"x": -0.2314948834,
				"y": -2.6081731584,
				"z": 1.6521712774,
				"element": "H" 
			},
			{
				"x": -1.0174987146,
				"y": -4.2125812022,
				"z": 1.795156169,
				"element": "H" 
			},
			{
				"x": 0.2011535642,
				"y": -1.2814693,
				"z": -0.2246992974,
				"element": "H" 
			},
			{
				"x": 0.7352382244,
				"y": 2.7639363674,
				"z": 1.1136169486,
				"element": "H" 
			},
			{
				"x": -1.6531626,
				"y": 2.8369677052,
				"z": 1.8142521919,
				"element": "H" 
			},
			{
				"x": 0.7254458864,
				"y": -0.2062987441,
				"z": -2.6022183785,
				"element": "H" 
			},
			{
				"x": 2.3586026069,
				"y": -0.9057191822,
				"z": -2.5759752153,
				"element": "H" 
			},
			{
				"x": 1.6825307569,
				"y": -0.2381462251,
				"z": -4.8825894437,
				"element": "H" 
			},
			{
				"x": 3.0992791147,
				"y": 0.6750318362,
				"z": -4.3258396467,
				"element": "H" 
			},
			{
				"x": 0.0681524342,
				"y": 2.2864809346,
				"z": -2.8818216788,
				"element": "H" 
			},
			{
				"x": 0.9766634144,
				"y": 3.5720117779,
				"z": -3.6982801898,
				"element": "H" 
			},
			{
				"x": 1.8797988477,
				"y": 3.0893890228,
				"z": -1.409887275,
				"element": "H" 
			},
			{
				"x": 3.0858368901,
				"y": 2.800607203,
				"z": -2.6595036635,
				"element": "H" 
			}
		],
		 "valence_orbital": [ 
			{
				"type": "occ",
				"energy": -0.28325,
				"method": "rhf"
			},
			{
				"type": "occ",
				"energy": -0.27453,
				"method": "rhf"
			},
			{
				"type": "occ",
				"energy": -0.26395,
				"method": "rhf"
			},
			{
				"type": "occ",
				"energy": -0.25495,
				"method": "rhf"
			},
			{
				"type": "occ",
				"energy": -0.24676,
				"method": "rhf"
			},
			{
				"type": "unocc",
				"energy": -0.05167,
				"method": "rhf"
			},
			{
				"type": "unocc",
				"energy": -0.04336,
				"method": "rhf"
			},
			{
				"type": "unocc",
				"energy": -0.01977,
				"method": "rhf"
			},
			{
				"type": "unocc",
				"energy": 0.04709,
				"method": "rhf"
			},
			{
				"type": "unocc",
				"energy": 0.05083,
				"method": "rhf"
			}
		],
		"cosmo_sigma_profile": { 
			"-0.025": 0.0,
			"-0.024": 0.0,
			"-0.023": 0.0,
			"-0.022": 0.0,
			"-0.021": 0.0,
			"-0.02": 0.0,
			"-0.019": 0.0,
			"-0.018": 0.0,
			"-0.017": 0.0,
			"-0.016": 0.0,
			"-0.015": 0.0,
			"-0.014": 0.708031989781,
			"-0.013": 0.90438940189,
			"-0.012": 1.36029451867,
			"-0.011": 1.14291736631,
			"-0.01": 1.24695433451,
			"-0.009": 2.85602157987,
			"-0.008": 5.94445548545,
			"-0.007": 10.1729323728,
			"-0.006": 22.8410647211,
			"-0.005": 34.4125745946,
			"-0.004": 35.7915006334,
			"-0.003": 27.7829699853,
			"-0.002": 21.8355751896,
			"-0.001": 20.4777461993,
			"0.0": 17.9694766782,
			"0.001": 18.0376354704,
			"0.002": 17.7452706225,
			"0.003": 13.4986003474,
			"0.004": 12.472137689,
			"0.005": 15.2278440075,
			"0.006": 7.69851907667,
			"0.007": 5.65682094506,
			"0.008": 5.87617377334,
			"0.009": 6.12345205511,
			"0.01": 8.8155274795,
			"0.011": 12.0769170029,
			"0.012": 9.97091978087,
			"0.013": 4.34556196909,
			"0.014": 0.187985783833,
			"0.015": 0.0,
			"0.016": 0.0,
			"0.017": 0.0,
			"0.018": 0.0,
			"0.019": 0.0,
			"0.02": 0.0,
			"0.021": 0.0,
			"0.022": 0.0,
			"0.023": 0.0,
			"0.024": 0.0,
			"0.025": 0.0
		}
	}
}
