{
	 "smiles": "COC1=CC(Br)=C(C=C1)C(O)=O", 
	 "Tm": 463.15, 
	 "num_atms": 19, 
	 "gaussian": { 
		 "optdone": 1, 
		 "sigma_profile": "yes", 
		 "theory": "DFT", 
		 "functional": "B3LYP", 
		 "basiset": "6-31G**", 
		 "properties": { 
			 "R2extent": 3308.4476, 
			 "electric_dipole_moment_norm": 6.43582970331, 
			 "electric_quadrupole_moment_norm": 11.6098079588, 
			 "total_energy": -3106.14018715, 
			 "HOMO_LUMO_gap": 0.19741, 
			 "cosmo_polarized_energy": -12.61, 
			 "cosmo_cavitation_energy": 25.47, 
			 "cosmo_dispersion_energy": -19.49, 
			 "cosmo_repulsion_energy": 1.53, 
			 "cosmo_total_nonelectrostatic_energy": 7.51, 
			 "SMD_solvation_energy": 5.36 
		},
		"coords": [
			{
				"x": 1.1323980795,
				"y": -0.4533154201,
				"z": 3.3374653253,
				"element": "C" 
			},
			{
				"x": 0.0040303879,
				"y": -1.150624283,
				"z": 2.821051096,
				"element": "O" 
			},
			{
				"x": -0.4536984741,
				"y": -0.8296477279,
				"z": 1.588008985,
				"element": "C" 
			},
			{
				"x": 0.1101447842,
				"y": 0.1536022088,
				"z": 0.7677809481,
				"element": "C" 
			},
			{
				"x": -0.4438551018,
				"y": 0.4032471756,
				"z": -0.4889205851,
				"element": "C" 
			},
			{
				"x": 0.4686246599,
				"y": 1.7940502557,
				"z": -1.4761751902,
				"element": "Br" 
			},
			{
				"x": -1.5566995829,
				"y": -0.2937797698,
				"z": -0.9801810854,
				"element": "C" 
			},
			{
				"x": -2.0920632569,
				"y": -1.2769567103,
				"z": -0.1174278826,
				"element": "C" 
			},
			{
				"x": -1.5691408939,
				"y": -1.5488675904,
				"z": 1.1305284332,
				"element": "C" 
			},
			{
				"x": -2.291672574,
				"y": -0.1686188653,
				"z": -2.2982680491,
				"element": "C" 
			},
			{
				"x": -1.8867754661,
				"y": 0.730296479,
				"z": -3.2119365048,
				"element": "O" 
			},
			{
				"x": -3.2471860532,
				"y": -0.8742294291,
				"z": -2.5404716297,
				"element": "O" 
			},
			{
				"x": 2.0188448084,
				"y": -0.6048758843,
				"z": 2.7097236144,
				"element": "H" 
			},
			{
				"x": 0.931194546,
				"y": 0.6207042229,
				"z": 3.4313125458,
				"element": "H" 
			},
			{
				"x": 1.3150829283,
				"y": -0.8736725289,
				"z": 4.3267357971,
				"element": "H" 
			},
			{
				"x": 0.9692374964,
				"y": 0.7263139797,
				"z": 1.0880834715,
				"element": "H" 
			},
			{
				"x": -2.9527709606,
				"y": -1.8222409991,
				"z": -0.4870212944,
				"element": "H" 
			},
			{
				"x": -2.0010128332,
				"y": -2.3094599636,
				"z": 1.7715333256,
				"element": "H" 
			},
			{
				"x": -1.1139824939,
				"y": 1.2367748502,
				"z": -2.9074213208,
				"element": "H" 
			}
		],
		 "valence_orbital": [ 
			{
				"type": "occ",
				"energy": -0.3177,
				"method": "rhf"
			},
			{
				"type": "occ",
				"energy": -0.30275,
				"method": "rhf"
			},
			{
				"type": "occ",
				"energy": -0.26996,
				"method": "rhf"
			},
			{
				"type": "occ",
				"energy": -0.26949,
				"method": "rhf"
			},
			{
				"type": "occ",
				"energy": -0.24771,
				"method": "rhf"
			},
			{
				"type": "unocc",
				"energy": -0.0503,
				"method": "rhf"
			},
			{
				"type": "unocc",
				"energy": -0.02824,
				"method": "rhf"
			},
			{
				"type": "unocc",
				"energy": -0.02604,
				"method": "rhf"
			},
			{
				"type": "unocc",
				"energy": 0.0565,
				"method": "rhf"
			},
			{
				"type": "unocc",
				"energy": 0.08365,
				"method": "rhf"
			}
		],
		"cosmo_sigma_profile": { 
			"-0.025": 0.0,
			"-0.024": 0.0,
			"-0.023": 0.0,
			"-0.022": 0.0,
			"-0.021": 0.0,
			"-0.02": 0.0,
			"-0.019": 0.0,
			"-0.018": 0.0,
			"-0.017": 0.0,
			"-0.016": 0.0,
			"-0.015": 0.0,
			"-0.014": 0.0,
			"-0.013": 0.0,
			"-0.012": 0.0,
			"-0.011": 0.00423121701186,
			"-0.01": 0.538698555887,
			"-0.009": 1.02076469595,
			"-0.008": 3.91975744607,
			"-0.007": 9.31333483635,
			"-0.006": 15.3844345819,
			"-0.005": 16.7586075328,
			"-0.004": 16.0884809894,
			"-0.003": 13.5354409724,
			"-0.002": 11.6798984488,
			"-0.001": 11.0604580588,
			"0.0": 16.8756309088,
			"0.001": 25.5524000821,
			"0.002": 16.9463776638,
			"0.003": 10.1515843129,
			"0.004": 3.60649447009,
			"0.005": 3.62201090649,
			"0.006": 3.38048988978,
			"0.007": 3.21562762564,
			"0.008": 4.58662558332,
			"0.009": 3.63694498204,
			"0.01": 3.8483259885,
			"0.011": 5.54370104809,
			"0.012": 4.70294980415,
			"0.013": 2.1782525148,
			"0.014": 0.288214354073,
			"0.015": 0.0,
			"0.016": 0.0,
			"0.017": 0.0,
			"0.018": 0.0,
			"0.019": 0.0,
			"0.02": 0.0,
			"0.021": 0.0,
			"0.022": 0.0,
			"0.023": 0.0,
			"0.024": 0.0,
			"0.025": 0.0
		}
	}
}
