{
	 "smiles": "CC1=CC=CC(C)=C1NC(=O)CCCCl", 
	 "Tm": 378.15, 
	 "num_atms": 31, 
	 "gaussian": { 
		 "optdone": 1, 
		 "sigma_profile": "yes", 
		 "theory": "DFT", 
		 "functional": "B3LYP", 
		 "basiset": "6-31G**", 
		 "properties": { 
			 "R2extent": 5704.9397, 
			 "electric_dipole_moment_norm": 5.81272929354, 
			 "electric_quadrupole_moment_norm": 23.3844701477, 
			 "total_energy": -1057.12757026, 
			 "HOMO_LUMO_gap": 0.22709, 
			 "cosmo_polarized_energy": -12.93, 
			 "cosmo_cavitation_energy": 35.24, 
			 "cosmo_dispersion_energy": -24.29, 
			 "cosmo_repulsion_energy": 1.93, 
			 "cosmo_total_nonelectrostatic_energy": 12.88, 
			 "SMD_solvation_energy": 6.46 
		},
		"coords": [
			{
				"x": -0.2503793503,
				"y": 3.6660838984,
				"z": -0.388628694,
				"element": "C" 
			},
			{
				"x": -0.6515176136,
				"y": 2.5210656016,
				"z": 0.5107193075,
				"element": "C" 
			},
			{
				"x": -0.5030805759,
				"y": 2.6190648583,
				"z": 1.8992031995,
				"element": "C" 
			},
			{
				"x": -0.8910328009,
				"y": 1.573542402,
				"z": 2.7347557588,
				"element": "C" 
			},
			{
				"x": -1.4429732472,
				"y": 0.4143935677,
				"z": 2.1930526896,
				"element": "C" 
			},
			{
				"x": -1.6086731047,
				"y": 0.2768353429,
				"z": 0.80985576,
				"element": "C" 
			},
			{
				"x": -2.2290330697,
				"y": -0.972180181,
				"z": 0.2302193928,
				"element": "C" 
			},
			{
				"x": -1.1945556074,
				"y": 1.33540572,
				"z": -0.0219778092,
				"element": "C" 
			},
			{
				"x": -1.366524339,
				"y": 1.2189729495,
				"z": -1.4411799467,
				"element": "N" 
			},
			{
				"x": -0.4712226612,
				"y": 0.7258169562,
				"z": -2.3618631604,
				"element": "C" 
			},
			{
				"x": -0.7447272982,
				"y": 0.7110032804,
				"z": -3.5564027279,
				"element": "O" 
			},
			{
				"x": 0.8589588433,
				"y": 0.2139181578,
				"z": -1.8101059109,
				"element": "C" 
			},
			{
				"x": 1.8065405698,
				"y": -0.3032275844,
				"z": -2.9012487971,
				"element": "C" 
			},
			{
				"x": 1.3104195672,
				"y": -1.5969573738,
				"z": -3.535941132,
				"element": "C" 
			},
			{
				"x": 2.5179081336,
				"y": -2.2502351488,
				"z": -4.7322120285,
				"element": "Cl" 
			},
			{
				"x": 0.1212758929,
				"y": 4.5085522809,
				"z": 0.1999138464,
				"element": "H" 
			},
			{
				"x": 0.5353581415,
				"y": 3.3775725223,
				"z": -1.0953112826,
				"element": "H" 
			},
			{
				"x": -1.0944310586,
				"y": 4.0200595423,
				"z": -0.9905216003,
				"element": "H" 
			},
			{
				"x": -0.0835956191,
				"y": 3.5266640084,
				"z": 2.3246542082,
				"element": "H" 
			},
			{
				"x": -0.7694904216,
				"y": 1.6650642887,
				"z": 3.8102964786,
				"element": "H" 
			},
			{
				"x": -1.7558114682,
				"y": -0.3947085795,
				"z": 2.8474222331,
				"element": "H" 
			},
			{
				"x": -2.5309147614,
				"y": -1.6589357588,
				"z": 1.0249107442,
				"element": "H" 
			},
			{
				"x": -3.1138162424,
				"y": -0.7398701908,
				"z": -0.3720146574,
				"element": "H" 
			},
			{
				"x": -1.536153689,
				"y": -1.5066209193,
				"z": -0.4289887442,
				"element": "H" 
			},
			{
				"x": -2.2247571932,
				"y": 1.556648073,
				"z": -1.8625387699,
				"element": "H" 
			},
			{
				"x": 1.3432227151,
				"y": 1.0280816591,
				"z": -1.2577340776,
				"element": "H" 
			},
			{
				"x": 0.6632799807,
				"y": -0.5628565028,
				"z": -1.0596228084,
				"element": "H" 
			},
			{
				"x": 2.7943253944,
				"y": -0.4729563789,
				"z": -2.4605158407,
				"element": "H" 
			},
			{
				"x": 1.9166099087,
				"y": 0.4560618419,
				"z": -3.6804262022,
				"element": "H" 
			},
			{
				"x": 1.1692189148,
				"y": -2.3856728909,
				"z": -2.7930515131,
				"element": "H" 
			},
			{
				"x": 0.3845720596,
				"y": -1.4335854423,
				"z": -4.0843179154,
				"element": "H" 
			}
		],
		 "valence_orbital": [ 
			{
				"type": "occ",
				"energy": -0.28266,
				"method": "rhf"
			},
			{
				"type": "occ",
				"energy": -0.26562,
				"method": "rhf"
			},
			{
				"type": "occ",
				"energy": -0.26224,
				"method": "rhf"
			},
			{
				"type": "occ",
				"energy": -0.25216,
				"method": "rhf"
			},
			{
				"type": "occ",
				"energy": -0.24859,
				"method": "rhf"
			},
			{
				"type": "unocc",
				"energy": -0.0215,
				"method": "rhf"
			},
			{
				"type": "unocc",
				"energy": -0.01046,
				"method": "rhf"
			},
			{
				"type": "unocc",
				"energy": 0.01955,
				"method": "rhf"
			},
			{
				"type": "unocc",
				"energy": 0.03342,
				"method": "rhf"
			},
			{
				"type": "unocc",
				"energy": 0.07482,
				"method": "rhf"
			}
		],
		"cosmo_sigma_profile": { 
			"-0.025": 0.0,
			"-0.024": 0.0,
			"-0.023": 0.0,
			"-0.022": 0.0,
			"-0.021": 0.0,
			"-0.02": 0.0,
			"-0.019": 0.0,
			"-0.018": 0.0,
			"-0.017": 0.0,
			"-0.016": 0.0,
			"-0.015": 0.0,
			"-0.014": 0.169318181087,
			"-0.013": 0.965236735302,
			"-0.012": 1.05496663786,
			"-0.011": 0.707173607312,
			"-0.01": 0.930509871671,
			"-0.009": 0.904100380726,
			"-0.008": 0.848726594606,
			"-0.007": 1.80223845187,
			"-0.006": 11.3843125132,
			"-0.005": 20.8665358759,
			"-0.004": 29.8305583612,
			"-0.003": 28.560711681,
			"-0.002": 24.9691006666,
			"-0.001": 22.7264604324,
			"0.0": 26.9177421759,
			"0.001": 17.8706701002,
			"0.002": 11.9945487228,
			"0.003": 11.8262349014,
			"0.004": 13.4234017364,
			"0.005": 13.3423533786,
			"0.006": 12.5732735953,
			"0.007": 11.2357513605,
			"0.008": 1.81361497081,
			"0.009": 1.0330091389,
			"0.01": 1.08493091436,
			"0.011": 1.59492169321,
			"0.012": 1.88357376617,
			"0.013": 3.38318256924,
			"0.014": 3.11149394134,
			"0.015": 0.296244759041,
			"0.016": 0.0,
			"0.017": 0.0,
			"0.018": 0.0,
			"0.019": 0.0,
			"0.02": 0.0,
			"0.021": 0.0,
			"0.022": 0.0,
			"0.023": 0.0,
			"0.024": 0.0,
			"0.025": 0.0
		}
	}
}
