{
	 "smiles": "CC1=C(SC(=N1)C1=C(C)C=C(C)C=C1)C(O)=O", 
	 "Tm": 492.15, 
	 "num_atms": 30, 
	 "gaussian": { 
		 "optdone": 1, 
		 "sigma_profile": "yes", 
		 "theory": "DFT", 
		 "functional": "B3LYP", 
		 "basiset": "6-31G**", 
		 "properties": { 
			 "R2extent": 6329.2684, 
			 "electric_dipole_moment_norm": 5.71424351336, 
			 "electric_quadrupole_moment_norm": 19.6549532134, 
			 "total_energy": -1106.63182317, 
			 "HOMO_LUMO_gap": 0.1558, 
			 "cosmo_polarized_energy": -13.04, 
			 "cosmo_cavitation_energy": 35.1, 
			 "cosmo_dispersion_energy": -25.86, 
			 "cosmo_repulsion_energy": 1.96, 
			 "cosmo_total_nonelectrostatic_energy": 11.19, 
			 "SMD_solvation_energy": 6.14 
		},
		"coords": [
			{
				"x": 0.3372282808,
				"y": 0.7331796539,
				"z": -3.9109396259,
				"element": "C" 
			},
			{
				"x": -0.553902365,
				"y": 0.6184510363,
				"z": -2.7115392447,
				"element": "C" 
			},
			{
				"x": -1.9367373165,
				"y": 0.6454425475,
				"z": -2.6968329423,
				"element": "C" 
			},
			{
				"x": -2.5079971228,
				"y": 0.4835772738,
				"z": -1.0485108235,
				"element": "S" 
			},
			{
				"x": -0.8273764471,
				"y": 0.346413966,
				"z": -0.5048037587,
				"element": "C" 
			},
			{
				"x": 0.0344553798,
				"y": 0.4515018286,
				"z": -1.483178394,
				"element": "N" 
			},
			{
				"x": -0.5096023665,
				"y": 0.1629931495,
				"z": 0.9165873284,
				"element": "C" 
			},
			{
				"x": 0.743183089,
				"y": 0.5386416586,
				"z": 1.4680775187,
				"element": "C" 
			},
			{
				"x": 1.8559916923,
				"y": 1.161474551,
				"z": 0.6609508602,
				"element": "C" 
			},
			{
				"x": 0.9446703318,
				"y": 0.3282794086,
				"z": 2.8377007345,
				"element": "C" 
			},
			{
				"x": -0.0209912903,
				"y": -0.2306298338,
				"z": 3.6806001015,
				"element": "C" 
			},
			{
				"x": 0.2415129593,
				"y": -0.4123544385,
				"z": 5.1554217274,
				"element": "C" 
			},
			{
				"x": -1.2485394873,
				"y": -0.5997915776,
				"z": 3.1154104203,
				"element": "C" 
			},
			{
				"x": -1.4819333005,
				"y": -0.4048708057,
				"z": 1.7620525976,
				"element": "C" 
			},
			{
				"x": -2.847997327,
				"y": 0.7860983622,
				"z": -3.8541581374,
				"element": "C" 
			},
			{
				"x": -4.1566161161,
				"y": 0.471656344,
				"z": -3.6453016472,
				"element": "O" 
			},
			{
				"x": -2.496359285,
				"y": 1.1645612763,
				"z": -4.9494298279,
				"element": "O" 
			},
			{
				"x": 1.0631636496,
				"y": -0.08587226,
				"z": -3.909451229,
				"element": "H" 
			},
			{
				"x": -0.2379758966,
				"y": 0.7312893422,
				"z": -4.8344453288,
				"element": "H" 
			},
			{
				"x": 0.9064716837,
				"y": 1.6683846867,
				"z": -3.8575407073,
				"element": "H" 
			},
			{
				"x": 2.663142686,
				"y": 1.4883054455,
				"z": 1.3220498688,
				"element": "H" 
			},
			{
				"x": 1.505644494,
				"y": 2.0231522915,
				"z": 0.0853862558,
				"element": "H" 
			},
			{
				"x": 2.2618502571,
				"y": 0.4578958989,
				"z": -0.0705934,
				"element": "H" 
			},
			{
				"x": 1.9022725825,
				"y": 0.6194245211,
				"z": 3.2630980562,
				"element": "H" 
			},
			{
				"x": -0.2423012712,
				"y": 0.3792204586,
				"z": 5.7411825193,
				"element": "H" 
			},
			{
				"x": 1.3110962565,
				"y": -0.3801209519,
				"z": 5.3799457444,
				"element": "H" 
			},
			{
				"x": -0.1541548484,
				"y": -1.3670682296,
				"z": 5.516472048,
				"element": "H" 
			},
			{
				"x": -2.0192840188,
				"y": -1.0499441478,
				"z": 3.7352416984,
				"element": "H" 
			},
			{
				"x": -2.4309184814,
				"y": -0.7246022498,
				"z": 1.3409687116,
				"element": "H" 
			},
			{
				"x": -4.284696402,
				"y": 0.0492107938,
				"z": -2.7836211243,
				"element": "H" 
			}
		],
		 "valence_orbital": [ 
			{
				"type": "occ",
				"energy": -0.28175,
				"method": "rhf"
			},
			{
				"type": "occ",
				"energy": -0.2789,
				"method": "rhf"
			},
			{
				"type": "occ",
				"energy": -0.27216,
				"method": "rhf"
			},
			{
				"type": "occ",
				"energy": -0.2566,
				"method": "rhf"
			},
			{
				"type": "occ",
				"energy": -0.23053,
				"method": "rhf"
			},
			{
				"type": "unocc",
				"energy": -0.07473,
				"method": "rhf"
			},
			{
				"type": "unocc",
				"energy": -0.01921,
				"method": "rhf"
			},
			{
				"type": "unocc",
				"energy": -0.01616,
				"method": "rhf"
			},
			{
				"type": "unocc",
				"energy": -0.00075,
				"method": "rhf"
			},
			{
				"type": "unocc",
				"energy": 0.03065,
				"method": "rhf"
			}
		],
		"cosmo_sigma_profile": { 
			"-0.025": 0.0,
			"-0.024": 0.0,
			"-0.023": 0.0,
			"-0.022": 0.0,
			"-0.021": 0.0,
			"-0.02": 0.0,
			"-0.019": 0.0,
			"-0.018": 0.334028401036,
			"-0.017": 0.506251625093,
			"-0.016": 0.874335210741,
			"-0.015": 1.13942979637,
			"-0.014": 0.774166631293,
			"-0.013": 0.9104824379,
			"-0.012": 0.932323968348,
			"-0.011": 1.57234262263,
			"-0.01": 0.671785652562,
			"-0.009": 0.455976704176,
			"-0.008": 0.946654402,
			"-0.007": 1.47896477818,
			"-0.006": 5.43165810228,
			"-0.005": 15.9805895892,
			"-0.004": 21.8649368698,
			"-0.003": 21.5439056119,
			"-0.002": 27.9608971709,
			"-0.001": 35.9185771066,
			"0.0": 36.2097808803,
			"0.001": 22.0051248812,
			"0.002": 16.2780619856,
			"0.003": 14.6260763959,
			"0.004": 13.6557764295,
			"0.005": 8.25463238499,
			"0.006": 4.31757254267,
			"0.007": 3.25351442385,
			"0.008": 4.77919618513,
			"0.009": 4.4176962921,
			"0.01": 4.98452073642,
			"0.011": 5.01464783261,
			"0.012": 3.23166947508,
			"0.013": 1.12747967566,
			"0.014": 0.0,
			"0.015": 0.0,
			"0.016": 0.0,
			"0.017": 0.0,
			"0.018": 0.0,
			"0.019": 0.0,
			"0.02": 0.0,
			"0.021": 0.0,
			"0.022": 0.0,
			"0.023": 0.0,
			"0.024": 0.0,
			"0.025": 0.0
		}
	}
}
