{
	 "smiles": "CC1=CC=C(S1)C(=O)NC1=NC2=C(S1)C=C(N)C=C2", 
	 "Tm": 524.15, 
	 "num_atms": 30, 
	 "gaussian": { 
		 "optdone": 1, 
		 "sigma_profile": "yes", 
		 "theory": "DFT", 
		 "functional": "B3LYP", 
		 "basiset": "6-31G**", 
		 "properties": { 
			 "R2extent": 9394.0121, 
			 "electric_dipole_moment_norm": 4.9867078609, 
			 "electric_quadrupole_moment_norm": 27.0627146905, 
			 "total_energy": -1537.87920447, 
			 "HOMO_LUMO_gap": 0.14287, 
			 "cosmo_polarized_energy": -16.93, 
			 "cosmo_cavitation_energy": 37.94, 
			 "cosmo_dispersion_energy": -28.8, 
			 "cosmo_repulsion_energy": 2.1, 
			 "cosmo_total_nonelectrostatic_energy": 11.24, 
			 "SMD_solvation_energy": 5.57 
		},
		"coords": [
			{
				"x": 4.2046823545,
				"y": 4.777693568,
				"z": -1.2069886974,
				"element": "C" 
			},
			{
				"x": 3.2272632096,
				"y": 3.6641540446,
				"z": -1.4392761457,
				"element": "C" 
			},
			{
				"x": 2.7731403459,
				"y": 2.7409722545,
				"z": -0.5257955224,
				"element": "C" 
			},
			{
				"x": 1.8459888263,
				"y": 1.8122510354,
				"z": -1.0650966131,
				"element": "C" 
			},
			{
				"x": 1.5897673033,
				"y": 2.0281115802,
				"z": -2.4024040518,
				"element": "C" 
			},
			{
				"x": 2.5114156901,
				"y": 3.4011163698,
				"z": -2.9989956332,
				"element": "S" 
			},
			{
				"x": 0.7500580185,
				"y": 1.3924562533,
				"z": -3.4199720871,
				"element": "C" 
			},
			{
				"x": 0.7330494246,
				"y": 1.8225983411,
				"z": -4.5721160989,
				"element": "O" 
			},
			{
				"x": -0.0816893915,
				"y": 0.2744733443,
				"z": -3.1911828783,
				"element": "N" 
			},
			{
				"x": -0.432972875,
				"y": -0.5522291596,
				"z": -2.1430372002,
				"element": "C" 
			},
			{
				"x": -0.0377012643,
				"y": -0.5228622307,
				"z": -0.9164341076,
				"element": "N" 
			},
			{
				"x": -0.6297017621,
				"y": -1.5337902955,
				"z": -0.169489515,
				"element": "C" 
			},
			{
				"x": -1.5237750512,
				"y": -2.3754694405,
				"z": -0.8702043186,
				"element": "C" 
			},
			{
				"x": -1.6093380722,
				"y": -1.8544799441,
				"z": -2.5465152325,
				"element": "S" 
			},
			{
				"x": -2.1951880334,
				"y": -3.4269271108,
				"z": -0.2532487473,
				"element": "C" 
			},
			{
				"x": -1.9706575114,
				"y": -3.6577631754,
				"z": 1.1132347514,
				"element": "C" 
			},
			{
				"x": -2.5768963652,
				"y": -4.7387120369,
				"z": 1.7575239167,
				"element": "N" 
			},
			{
				"x": -1.0773826346,
				"y": -2.8213911364,
				"z": 1.8197130087,
				"element": "C" 
			},
			{
				"x": -0.4154851454,
				"y": -1.7746889312,
				"z": 1.1928732485,
				"element": "C" 
			},
			{
				"x": 4.5375574588,
				"y": 4.7703842425,
				"z": -0.1656524083,
				"element": "H" 
			},
			{
				"x": 5.0897171707,
				"y": 4.6805034336,
				"z": -1.8456123474,
				"element": "H" 
			},
			{
				"x": 3.759711074,
				"y": 5.7576092278,
				"z": -1.4128868075,
				"element": "H" 
			},
			{
				"x": 3.0983256499,
				"y": 2.7302032389,
				"z": 0.5093203286,
				"element": "H" 
			},
			{
				"x": 1.3740810933,
				"y": 1.0122155498,
				"z": -0.5115546348,
				"element": "H" 
			},
			{
				"x": -0.5315964582,
				"y": 0.0588720777,
				"z": -4.0732689837,
				"element": "H" 
			},
			{
				"x": -2.8750595812,
				"y": -4.0645651818,
				"z": -0.8104517907,
				"element": "H" 
			},
			{
				"x": -2.6712447838,
				"y": -4.641290921,
				"z": 2.7590724035,
				"element": "H" 
			},
			{
				"x": -3.4315332507,
				"y": -5.0702899447,
				"z": 1.3318223693,
				"element": "H" 
			},
			{
				"x": -0.9046510625,
				"y": -3.0100938166,
				"z": 2.8759487969,
				"element": "H" 
			},
			{
				"x": 0.2660156233,
				"y": -1.1379612361,
				"z": 1.7475749979,
				"element": "H" 
			}
		],
		 "valence_orbital": [ 
			{
				"type": "occ",
				"energy": -0.26658,
				"method": "rhf"
			},
			{
				"type": "occ",
				"energy": -0.24866,
				"method": "rhf"
			},
			{
				"type": "occ",
				"energy": -0.23701,
				"method": "rhf"
			},
			{
				"type": "occ",
				"energy": -0.23061,
				"method": "rhf"
			},
			{
				"type": "occ",
				"energy": -0.1973,
				"method": "rhf"
			},
			{
				"type": "unocc",
				"energy": -0.05443,
				"method": "rhf"
			},
			{
				"type": "unocc",
				"energy": -0.01274,
				"method": "rhf"
			},
			{
				"type": "unocc",
				"energy": -0.01008,
				"method": "rhf"
			},
			{
				"type": "unocc",
				"energy": -0.00745,
				"method": "rhf"
			},
			{
				"type": "unocc",
				"energy": 0.03571,
				"method": "rhf"
			}
		],
		"cosmo_sigma_profile": { 
			"-0.025": 0.0,
			"-0.024": 0.0,
			"-0.023": 0.0,
			"-0.022": 0.0,
			"-0.021": 0.0,
			"-0.02": 0.0,
			"-0.019": 0.0,
			"-0.018": 0.0,
			"-0.017": 0.0,
			"-0.016": 0.274863431234,
			"-0.015": 1.03396719234,
			"-0.014": 0.860980050691,
			"-0.013": 2.10496238623,
			"-0.012": 3.21694067986,
			"-0.011": 3.41886108127,
			"-0.01": 4.34982885347,
			"-0.009": 4.20957800005,
			"-0.008": 4.45948291157,
			"-0.007": 6.59027528622,
			"-0.006": 12.3445015544,
			"-0.005": 16.5063901267,
			"-0.004": 17.2125161344,
			"-0.003": 17.7696055794,
			"-0.002": 18.4562548899,
			"-0.001": 25.4143981874,
			"0.0": 20.7637157841,
			"0.001": 19.2395799611,
			"0.002": 24.3302905484,
			"0.003": 30.860577422,
			"0.004": 28.1373179547,
			"0.005": 17.4936014426,
			"0.006": 6.50761891969,
			"0.007": 3.86658898407,
			"0.008": 2.16611699935,
			"0.009": 2.79170256898,
			"0.01": 2.65623600854,
			"0.011": 2.59211066675,
			"0.012": 5.91869107143,
			"0.013": 2.16716030714,
			"0.014": 0.652946617993,
			"0.015": 0.0849335170476,
			"0.016": 0.0,
			"0.017": 0.0,
			"0.018": 0.0,
			"0.019": 0.0,
			"0.02": 0.0,
			"0.021": 0.0,
			"0.022": 0.0,
			"0.023": 0.0,
			"0.024": 0.0,
			"0.025": 0.0
		}
	}
}
