{
	 "smiles": "Cl[C@@]12CC(C3=CC=CC=C3)(C3=CC=CC=C3)[C@]1(Cl)C(=O)N(C2=O)C1=CC=CC=C1", 
	 "Tm": 433.0, 
	 "num_atms": 46, 
	 "gaussian": { 
		 "optdone": 1, 
		 "sigma_profile": "yes", 
		 "theory": "DFT", 
		 "functional": "B3LYP", 
		 "basiset": "6-31G**", 
		 "properties": { 
			 "R2extent": 12582.3458, 
			 "electric_dipole_moment_norm": 3.3000785521, 
			 "electric_quadrupole_moment_norm": 17.3291311366, 
			 "total_energy": -2050.36754332, 
			 "HOMO_LUMO_gap": 0.19995, 
			 "cosmo_polarized_energy": -15.16, 
			 "cosmo_cavitation_energy": 50.93, 
			 "cosmo_dispersion_energy": -33.75, 
			 "cosmo_repulsion_energy": 2.52, 
			 "cosmo_total_nonelectrostatic_energy": 19.7, 
			 "SMD_solvation_energy": 8.69 
		},
		"coords": [
			{
				"x": 3.8290660142,
				"y": 1.4065184595,
				"z": 1.0618248118,
				"element": "Cl" 
			},
			{
				"x": 2.3391287121,
				"y": 1.1898596988,
				"z": 0.0977704228,
				"element": "C" 
			},
			{
				"x": 1.836609923,
				"y": -0.2589352842,
				"z": -0.0727971413,
				"element": "C" 
			},
			{
				"x": 0.4378265184,
				"y": 0.0932343627,
				"z": 0.5548954458,
				"element": "C" 
			},
			{
				"x": 0.2143849476,
				"y": -0.6100040695,
				"z": 1.9077657746,
				"element": "C" 
			},
			{
				"x": 1.2770776527,
				"y": -0.7776705807,
				"z": 2.8140795504,
				"element": "C" 
			},
			{
				"x": 1.0945366426,
				"y": -1.4330504854,
				"z": 4.0298582479,
				"element": "C" 
			},
			{
				"x": -0.1580532849,
				"y": -1.9423661257,
				"z": 4.375420379,
				"element": "C" 
			},
			{
				"x": -1.2219298771,
				"y": -1.7823594588,
				"z": 3.4909074626,
				"element": "C" 
			},
			{
				"x": -1.038009885,
				"y": -1.1240959519,
				"z": 2.2727392894,
				"element": "C" 
			},
			{
				"x": -0.7482222138,
				"y": -0.1028641464,
				"z": -0.388221817,
				"element": "C" 
			},
			{
				"x": -1.911684299,
				"y": 0.6752656959,
				"z": -0.2685035591,
				"element": "C" 
			},
			{
				"x": -3.011371807,
				"y": 0.4495486097,
				"z": -1.0977133003,
				"element": "C" 
			},
			{
				"x": -2.9788473438,
				"y": -0.5683237242,
				"z": -2.0526089237,
				"element": "C" 
			},
			{
				"x": -1.8392060364,
				"y": -1.3642755126,
				"z": -2.1650231938,
				"element": "C" 
			},
			{
				"x": -0.7378905383,
				"y": -1.1341289275,
				"z": -1.3386400669,
				"element": "C" 
			},
			{
				"x": 0.9659462642,
				"y": 1.6278081705,
				"z": 0.684535938,
				"element": "C" 
			},
			{
				"x": 0.9007077801,
				"y": 2.3972046965,
				"z": 2.2893768831,
				"element": "Cl" 
			},
			{
				"x": 0.4278175961,
				"y": 2.6489440237,
				"z": -0.3387520906,
				"element": "C" 
			},
			{
				"x": -0.5639637499,
				"y": 3.3294776368,
				"z": -0.2351428741,
				"element": "O" 
			},
			{
				"x": 1.3158383566,
				"y": 2.6881554194,
				"z": -1.4266272222,
				"element": "N" 
			},
			{
				"x": 2.4741736481,
				"y": 1.9226777363,
				"z": -1.2417189379,
				"element": "C" 
			},
			{
				"x": 3.3929588889,
				"y": 1.8278018043,
				"z": -2.0197012328,
				"element": "O" 
			},
			{
				"x": 1.075337707,
				"y": 3.4811899764,
				"z": -2.5987657905,
				"element": "C" 
			},
			{
				"x": -0.1715015166,
				"y": 3.4145884866,
				"z": -3.2269234908,
				"element": "C" 
			},
			{
				"x": -0.4037417783,
				"y": 4.1847832324,
				"z": -4.3651286951,
				"element": "C" 
			},
			{
				"x": 0.6015356186,
				"y": 5.0066782802,
				"z": -4.8785033032,
				"element": "C" 
			},
			{
				"x": 1.8447282214,
				"y": 5.0608745923,
				"z": -4.2464870206,
				"element": "C" 
			},
			{
				"x": 2.0873962283,
				"y": 4.3029076917,
				"z": -3.101361799,
				"element": "C" 
			},
			{
				"x": 1.8141848914,
				"y": -0.5745406782,
				"z": -1.1166107781,
				"element": "H" 
			},
			{
				"x": 2.4096969275,
				"y": -0.9875166681,
				"z": 0.4986842939,
				"element": "H" 
			},
			{
				"x": 2.2606248905,
				"y": -0.3802020121,
				"z": 2.5885766536,
				"element": "H" 
			},
			{
				"x": 1.936020125,
				"y": -1.5422203274,
				"z": 4.7079011928,
				"element": "H" 
			},
			{
				"x": -0.3005166424,
				"y": -2.4564247241,
				"z": 5.3215033599,
				"element": "H" 
			},
			{
				"x": -2.2040871007,
				"y": -2.1738651103,
				"z": 3.7400921542,
				"element": "H" 
			},
			{
				"x": -1.8821263061,
				"y": -1.0252372742,
				"z": 1.6023189299,
				"element": "H" 
			},
			{
				"x": -1.9562088932,
				"y": 1.4705159106,
				"z": 0.4663993976,
				"element": "H" 
			},
			{
				"x": -3.8955597315,
				"y": 1.0713019387,
				"z": -0.9913684333,
				"element": "H" 
			},
			{
				"x": -3.8348982537,
				"y": -0.7423212695,
				"z": -2.6979542109,
				"element": "H" 
			},
			{
				"x": -1.8031490899,
				"y": -2.1683054262,
				"z": -2.894359778,
				"element": "H" 
			},
			{
				"x": 0.128045093,
				"y": -1.7820193637,
				"z": -1.4316026949,
				"element": "H" 
			},
			{
				"x": -0.9479215026,
				"y": 2.7745705472,
				"z": -2.8244692932,
				"element": "H" 
			},
			{
				"x": -1.372945157,
				"y": 4.1381817567,
				"z": -4.8523252135,
				"element": "H" 
			},
			{
				"x": 0.4166159623,
				"y": 5.6021144843,
				"z": -5.7675803717,
				"element": "H" 
			},
			{
				"x": 2.6310876679,
				"y": 5.69704835,
				"z": -4.6410850708,
				"element": "H" 
			},
			{
				"x": 3.0516887297,
				"y": 4.3389755593,
				"z": -2.6095738837,
				"element": "H" 
			}
		],
		 "valence_orbital": [ 
			{
				"type": "occ",
				"energy": -0.25925,
				"method": "rhf"
			},
			{
				"type": "occ",
				"energy": -0.25605,
				"method": "rhf"
			},
			{
				"type": "occ",
				"energy": -0.25208,
				"method": "rhf"
			},
			{
				"type": "occ",
				"energy": -0.25125,
				"method": "rhf"
			},
			{
				"type": "occ",
				"energy": -0.24836,
				"method": "rhf"
			},
			{
				"type": "unocc",
				"energy": -0.04841,
				"method": "rhf"
			},
			{
				"type": "unocc",
				"energy": -0.04214,
				"method": "rhf"
			},
			{
				"type": "unocc",
				"energy": -0.02529,
				"method": "rhf"
			},
			{
				"type": "unocc",
				"energy": -0.01546,
				"method": "rhf"
			},
			{
				"type": "unocc",
				"energy": -0.00992,
				"method": "rhf"
			}
		],
		"cosmo_sigma_profile": { 
			"-0.025": 0.0,
			"-0.024": 0.0,
			"-0.023": 0.0,
			"-0.022": 0.0,
			"-0.021": 0.0,
			"-0.02": 0.0,
			"-0.019": 0.0,
			"-0.018": 0.0,
			"-0.017": 0.0,
			"-0.016": 0.0,
			"-0.015": 0.0,
			"-0.014": 0.0,
			"-0.013": 0.0,
			"-0.012": 0.0,
			"-0.011": 0.0858009244281,
			"-0.01": 0.590695905743,
			"-0.009": 1.01917574707,
			"-0.008": 3.64308353649,
			"-0.007": 8.90022196571,
			"-0.006": 26.1186163212,
			"-0.005": 32.5770215527,
			"-0.004": 36.5705843084,
			"-0.003": 31.0588065001,
			"-0.002": 29.3527700673,
			"-0.001": 24.580631857,
			"0.0": 26.7327708445,
			"0.001": 29.9346165952,
			"0.002": 29.2080111248,
			"0.003": 35.1795885247,
			"0.004": 38.1600673092,
			"0.005": 23.3444811635,
			"0.006": 9.80815706091,
			"0.007": 4.26815742713,
			"0.008": 5.06089383771,
			"0.009": 5.62097984124,
			"0.01": 8.33715225286,
			"0.011": 2.4283678055,
			"0.012": 0.0397444678575,
			"0.013": 0.0,
			"0.014": 0.0,
			"0.015": 0.0,
			"0.016": 0.0,
			"0.017": 0.0,
			"0.018": 0.0,
			"0.019": 0.0,
			"0.02": 0.0,
			"0.021": 0.0,
			"0.022": 0.0,
			"0.023": 0.0,
			"0.024": 0.0,
			"0.025": 0.0
		}
	}
}
