{
	 "smiles": "CCOC(=O)C=C1SC(N2CCCCC2)C(=O)N1C", 
	 "Tm": 413.15, 
	 "num_atms": 39, 
	 "gaussian": { 
		 "optdone": 1, 
		 "sigma_profile": "yes", 
		 "theory": "DFT", 
		 "functional": "B3LYP", 
		 "basiset": "6-31G**", 
		 "properties": { 
			 "R2extent": 8687.6404, 
			 "electric_dipole_moment_norm": 2.75229058059, 
			 "electric_quadrupole_moment_norm": 11.3976245933, 
			 "total_energy": -1240.80385017, 
			 "HOMO_LUMO_gap": 0.17655, 
			 "cosmo_polarized_energy": -12.2, 
			 "cosmo_cavitation_energy": 41.19, 
			 "cosmo_dispersion_energy": -29.86, 
			 "cosmo_repulsion_energy": 2.28, 
			 "cosmo_total_nonelectrostatic_energy": 13.61, 
			 "SMD_solvation_energy": 6.0 
		},
		"coords": [
			{
				"x": 0.4067227745,
				"y": 4.6356354054,
				"z": -5.5371618701,
				"element": "C" 
			},
			{
				"x": 1.5805496215,
				"y": 3.7082450582,
				"z": -5.2548469908,
				"element": "C" 
			},
			{
				"x": 1.1528086028,
				"y": 2.4979566091,
				"z": -4.5967061572,
				"element": "O" 
			},
			{
				"x": 1.0419887741,
				"y": 2.5523699829,
				"z": -3.2383098809,
				"element": "C" 
			},
			{
				"x": 1.2768641659,
				"y": 3.5702077838,
				"z": -2.6038025995,
				"element": "O" 
			},
			{
				"x": 0.690859358,
				"y": 1.2219385552,
				"z": -2.7393461357,
				"element": "C" 
			},
			{
				"x": 0.3028846921,
				"y": 0.806354468,
				"z": -1.502496539,
				"element": "C" 
			},
			{
				"x": 0.2860555268,
				"y": -0.9383955554,
				"z": -1.160900693,
				"element": "S" 
			},
			{
				"x": -0.0221352152,
				"y": -0.6348172791,
				"z": 0.7148966738,
				"element": "C" 
			},
			{
				"x": -0.9436767669,
				"y": -1.4661234254,
				"z": 1.3678482211,
				"element": "N" 
			},
			{
				"x": -0.4797823223,
				"y": -2.8054715074,
				"z": 1.7706865639,
				"element": "C" 
			},
			{
				"x": -1.1725035356,
				"y": -3.9192744789,
				"z": 0.9748483336,
				"element": "C" 
			},
			{
				"x": -2.7050073145,
				"y": -3.8806984571,
				"z": 1.1957870836,
				"element": "C" 
			},
			{
				"x": -3.1817033969,
				"y": -2.4678864686,
				"z": 1.5998858579,
				"element": "C" 
			},
			{
				"x": -2.3456790745,
				"y": -1.3755660854,
				"z": 0.9312566072,
				"element": "C" 
			},
			{
				"x": -0.3923467028,
				"y": 0.8582913829,
				"z": 0.774954548,
				"element": "C" 
			},
			{
				"x": -0.8561500418,
				"y": 1.3757528331,
				"z": 1.7717417929,
				"element": "O" 
			},
			{
				"x": -0.130915954,
				"y": 1.5442482981,
				"z": -0.4062309887,
				"element": "N" 
			},
			{
				"x": -0.5508709317,
				"y": 2.949112058,
				"z": -0.4871668593,
				"element": "C" 
			},
			{
				"x": -0.0325456556,
				"y": 4.9909198276,
				"z": -4.6019140625,
				"element": "H" 
			},
			{
				"x": -0.3642844241,
				"y": 4.1214606258,
				"z": -6.1188159982,
				"element": "H" 
			},
			{
				"x": 0.7467618249,
				"y": 5.5053821623,
				"z": -6.1095670555,
				"element": "H" 
			},
			{
				"x": 2.3304534468,
				"y": 4.2059860246,
				"z": -4.6348375132,
				"element": "H" 
			},
			{
				"x": 2.0469727138,
				"y": 3.3647362024,
				"z": -6.1819819756,
				"element": "H" 
			},
			{
				"x": 0.8526907061,
				"y": 0.4319704369,
				"z": -3.4644925236,
				"element": "H" 
			},
			{
				"x": 0.9630942686,
				"y": -0.7495740024,
				"z": 1.1750395595,
				"element": "H" 
			},
			{
				"x": -0.6684847588,
				"y": -2.948443452,
				"z": 2.8440370146,
				"element": "H" 
			},
			{
				"x": 0.605043877,
				"y": -2.8529455972,
				"z": 1.6358651575,
				"element": "H" 
			},
			{
				"x": -0.9403878493,
				"y": -3.7867651213,
				"z": -0.0885514098,
				"element": "H" 
			},
			{
				"x": -0.7600108627,
				"y": -4.8916896396,
				"z": 1.265510727,
				"element": "H" 
			},
			{
				"x": -3.2128921549,
				"y": -4.1990862788,
				"z": 0.278617976,
				"element": "H" 
			},
			{
				"x": -2.9947404913,
				"y": -4.5957005454,
				"z": 1.9738145105,
				"element": "H" 
			},
			{
				"x": -3.1141561068,
				"y": -2.3402201671,
				"z": 2.6865995812,
				"element": "H" 
			},
			{
				"x": -4.2346370222,
				"y": -2.3260748926,
				"z": 1.3361292067,
				"element": "H" 
			},
			{
				"x": -2.7277056005,
				"y": -0.3853850023,
				"z": 1.1994607827,
				"element": "H" 
			},
			{
				"x": -2.4174838571,
				"y": -1.4729194074,
				"z": -0.1658777771,
				"element": "H" 
			},
			{
				"x": -1.2355425186,
				"y": 3.0698342434,
				"z": -1.3306093269,
				"element": "H" 
			},
			{
				"x": -1.0601527832,
				"y": 3.1754018608,
				"z": 0.4484340013,
				"element": "H" 
			},
			{
				"x": 0.3063449885,
				"y": 3.5993335449,
				"z": -0.6423978426,
				"element": "H" 
			}
		],
		 "valence_orbital": [ 
			{
				"type": "occ",
				"energy": -0.27623,
				"method": "rhf"
			},
			{
				"type": "occ",
				"energy": -0.26427,
				"method": "rhf"
			},
			{
				"type": "occ",
				"energy": -0.25675,
				"method": "rhf"
			},
			{
				"type": "occ",
				"energy": -0.22169,
				"method": "rhf"
			},
			{
				"type": "occ",
				"energy": -0.2202,
				"method": "rhf"
			},
			{
				"type": "unocc",
				"energy": -0.04365,
				"method": "rhf"
			},
			{
				"type": "unocc",
				"energy": -0.0069,
				"method": "rhf"
			},
			{
				"type": "unocc",
				"energy": 0.01719,
				"method": "rhf"
			},
			{
				"type": "unocc",
				"energy": 0.05685,
				"method": "rhf"
			},
			{
				"type": "unocc",
				"energy": 0.07758,
				"method": "rhf"
			}
		],
		"cosmo_sigma_profile": { 
			"-0.025": 0.0,
			"-0.024": 0.0,
			"-0.023": 0.0,
			"-0.022": 0.0,
			"-0.021": 0.0,
			"-0.02": 0.0,
			"-0.019": 0.0,
			"-0.018": 0.0,
			"-0.017": 0.0,
			"-0.016": 0.0,
			"-0.015": 0.0,
			"-0.014": 0.0,
			"-0.013": 0.0,
			"-0.012": 0.0,
			"-0.011": 0.0,
			"-0.01": 0.480224659573,
			"-0.009": 3.05598819684,
			"-0.008": 2.74896974754,
			"-0.007": 2.66523940765,
			"-0.006": 5.95351325526,
			"-0.005": 10.9390451526,
			"-0.004": 21.8385402825,
			"-0.003": 42.2157332482,
			"-0.002": 56.8388641546,
			"-0.001": 40.8373382895,
			"0.0": 31.1566822286,
			"0.001": 21.3961222731,
			"0.002": 12.0419386715,
			"0.003": 13.9062772047,
			"0.004": 11.0616982417,
			"0.005": 7.240860737,
			"0.006": 7.22828948241,
			"0.007": 5.87812521182,
			"0.008": 5.11171077866,
			"0.009": 4.47196487447,
			"0.01": 4.26214736077,
			"0.011": 5.7134720163,
			"0.012": 4.70096948806,
			"0.013": 1.96389651101,
			"0.014": 0.762423091262,
			"0.015": 0.0161630993412,
			"0.016": 0.0,
			"0.017": 0.0,
			"0.018": 0.0,
			"0.019": 0.0,
			"0.02": 0.0,
			"0.021": 0.0,
			"0.022": 0.0,
			"0.023": 0.0,
			"0.024": 0.0,
			"0.025": 0.0
		}
	}
}
