{
	 "smiles": "NNC(=O)C1=CSC(=N1)C1=C(Cl)C(Cl)=CC=C1", 
	 "Tm": 505.15, 
	 "num_atms": 24, 
	 "gaussian": { 
		 "optdone": 1, 
		 "sigma_profile": "yes", 
		 "theory": "DFT", 
		 "functional": "B3LYP", 
		 "basiset": "6-31G**", 
		 "properties": { 
			 "R2extent": 8396.7453, 
			 "electric_dipole_moment_norm": 2.35314721596, 
			 "electric_quadrupole_moment_norm": 7.30355085284, 
			 "total_energy": -1943.30689087, 
			 "HOMO_LUMO_gap": 0.16797, 
			 "cosmo_polarized_energy": -12.64, 
			 "cosmo_cavitation_energy": 34.23, 
			 "cosmo_dispersion_energy": -25.9, 
			 "cosmo_repulsion_energy": 1.95, 
			 "cosmo_total_nonelectrostatic_energy": 10.28, 
			 "SMD_solvation_energy": 5.65 
		},
		"coords": [
			{
				"x": 2.1990288012,
				"y": 3.1229652605,
				"z": -2.1657452194,
				"element": "N" 
			},
			{
				"x": 1.1774784313,
				"y": 2.2288788075,
				"z": -1.8030660663,
				"element": "N" 
			},
			{
				"x": 0.086394819,
				"y": 2.0177278895,
				"z": -2.5899192208,
				"element": "C" 
			},
			{
				"x": -0.1120036935,
				"y": 2.6205025274,
				"z": -3.6415033659,
				"element": "O" 
			},
			{
				"x": -0.857257821,
				"y": 0.9841071465,
				"z": -2.0693844811,
				"element": "C" 
			},
			{
				"x": -2.0054876884,
				"y": 0.6270890887,
				"z": -2.7232940436,
				"element": "C" 
			},
			{
				"x": -2.8256817914,
				"y": -0.6027040997,
				"z": -1.8471864202,
				"element": "S" 
			},
			{
				"x": -1.5530065005,
				"y": -0.5572836725,
				"z": -0.6158694527,
				"element": "C" 
			},
			{
				"x": -0.6175857822,
				"y": 0.3198766947,
				"z": -0.8952198849,
				"element": "N" 
			},
			{
				"x": -1.5063998033,
				"y": -1.342524035,
				"z": 0.6375149626,
				"element": "C" 
			},
			{
				"x": -2.3268638192,
				"y": -2.4427988533,
				"z": 0.971436956,
				"element": "C" 
			},
			{
				"x": -3.558630458,
				"y": -3.0258115688,
				"z": -0.1207297814,
				"element": "Cl" 
			},
			{
				"x": -2.1597077975,
				"y": -3.102103626,
				"z": 2.2019819716,
				"element": "C" 
			},
			{
				"x": -3.158227979,
				"y": -4.4683709578,
				"z": 2.638720802,
				"element": "Cl" 
			},
			{
				"x": -1.18980896,
				"y": -2.6845739147,
				"z": 3.109776842,
				"element": "C" 
			},
			{
				"x": -0.3767011545,
				"y": -1.5997801415,
				"z": 2.7892986578,
				"element": "C" 
			},
			{
				"x": -0.5345968791,
				"y": -0.9436650436,
				"z": 1.5783264086,
				"element": "C" 
			},
			{
				"x": 2.4597554403,
				"y": 2.9104948805,
				"z": -3.12921708,
				"element": "H" 
			},
			{
				"x": 1.7905598501,
				"y": 4.0571551226,
				"z": -2.2009222558,
				"element": "H" 
			},
			{
				"x": 1.3309352844,
				"y": 1.6637484721,
				"z": -0.9810074119,
				"element": "H" 
			},
			{
				"x": -2.3708693064,
				"y": 1.021285369,
				"z": -3.6602888283,
				"element": "H" 
			},
			{
				"x": -1.0849807886,
				"y": -3.2096268915,
				"z": 4.0522216159,
				"element": "H" 
			},
			{
				"x": 0.3795485921,
				"y": -1.265478287,
				"z": 3.4921646138,
				"element": "H" 
			},
			{
				"x": 0.090609004,
				"y": -0.0982101679,
				"z": 1.3222106821,
				"element": "H" 
			}
		],
		 "valence_orbital": [ 
			{
				"type": "occ",
				"energy": -0.27966,
				"method": "rhf"
			},
			{
				"type": "occ",
				"energy": -0.26235,
				"method": "rhf"
			},
			{
				"type": "occ",
				"energy": -0.26043,
				"method": "rhf"
			},
			{
				"type": "occ",
				"energy": -0.25844,
				"method": "rhf"
			},
			{
				"type": "occ",
				"energy": -0.24304,
				"method": "rhf"
			},
			{
				"type": "unocc",
				"energy": -0.07507,
				"method": "rhf"
			},
			{
				"type": "unocc",
				"energy": -0.03521,
				"method": "rhf"
			},
			{
				"type": "unocc",
				"energy": -0.03014,
				"method": "rhf"
			},
			{
				"type": "unocc",
				"energy": -0.00924,
				"method": "rhf"
			},
			{
				"type": "unocc",
				"energy": 0.01292,
				"method": "rhf"
			}
		],
		"cosmo_sigma_profile": { 
			"-0.025": 0.0,
			"-0.024": 0.0,
			"-0.023": 0.0,
			"-0.022": 0.0,
			"-0.021": 0.0,
			"-0.02": 0.0,
			"-0.019": 0.0,
			"-0.018": 0.0,
			"-0.017": 0.0,
			"-0.016": 0.0,
			"-0.015": 0.0,
			"-0.014": 0.0,
			"-0.013": 0.0805646558569,
			"-0.012": 1.21326368117,
			"-0.011": 2.3439747423,
			"-0.01": 4.51042530726,
			"-0.009": 4.29088692378,
			"-0.008": 7.19899695443,
			"-0.007": 9.37426721657,
			"-0.006": 9.4636549721,
			"-0.005": 8.98229383913,
			"-0.004": 11.1756460329,
			"-0.003": 12.1606414017,
			"-0.002": 17.5289921973,
			"-0.001": 29.5556719226,
			"0.0": 37.2700964253,
			"0.001": 35.1509123028,
			"0.002": 28.3202209824,
			"0.003": 19.1519324841,
			"0.004": 14.252427563,
			"0.005": 4.86201019905,
			"0.006": 1.82156259963,
			"0.007": 1.95618872059,
			"0.008": 2.03452566776,
			"0.009": 1.89450939584,
			"0.01": 2.30888000506,
			"0.011": 1.63669344866,
			"0.012": 2.85250465061,
			"0.013": 5.75777731046,
			"0.014": 2.66657596158,
			"0.015": 0.419397193128,
			"0.016": 0.89305890891,
			"0.017": 0.0141700149988,
			"0.018": 0.0,
			"0.019": 0.0,
			"0.02": 0.0,
			"0.021": 0.0,
			"0.022": 0.0,
			"0.023": 0.0,
			"0.024": 0.0,
			"0.025": 0.0
		}
	}
}
