{
	 "smiles": "CN1C(N)=NC2=C1C=CC=C2F", 
	 "Tm": 437.15, 
	 "num_atms": 20, 
	 "gaussian": { 
		 "optdone": 1, 
		 "sigma_profile": "yes", 
		 "theory": "DFT", 
		 "functional": "B3LYP", 
		 "basiset": "6-31G**", 
		 "properties": { 
			 "R2extent": 2541.1249, 
			 "electric_dipole_moment_norm": 5.13281176842, 
			 "electric_quadrupole_moment_norm": 14.9519007685, 
			 "total_energy": -573.774064797, 
			 "HOMO_LUMO_gap": 0.20589, 
			 "cosmo_polarized_energy": -15.08, 
			 "cosmo_cavitation_energy": 24.32, 
			 "cosmo_dispersion_energy": -18.02, 
			 "cosmo_repulsion_energy": 1.4, 
			 "cosmo_total_nonelectrostatic_energy": 7.7, 
			 "SMD_solvation_energy": 2.72 
		},
		"coords": [
			{
				"x": 1.1813405704,
				"y": 1.0472216997,
				"z": 2.0894563102,
				"element": "C" 
			},
			{
				"x": -0.0321745629,
				"y": 0.4150913739,
				"z": 1.6125705263,
				"element": "N" 
			},
			{
				"x": -1.3132982934,
				"y": 0.9364871027,
				"z": 1.6448598678,
				"element": "C" 
			},
			{
				"x": -1.5577204006,
				"y": 2.1846037159,
				"z": 2.2000920582,
				"element": "N" 
			},
			{
				"x": -2.2143401204,
				"y": 0.1890315969,
				"z": 1.0526940667,
				"element": "N" 
			},
			{
				"x": -1.4965816334,
				"y": -0.9023504994,
				"z": 0.5886263792,
				"element": "C" 
			},
			{
				"x": -0.1291910814,
				"y": -0.7988691196,
				"z": 0.937506707,
				"element": "C" 
			},
			{
				"x": 0.8214459432,
				"y": -1.7668416765,
				"z": 0.6132856778,
				"element": "C" 
			},
			{
				"x": 0.3662527752,
				"y": -2.8772707384,
				"z": -0.0989585521,
				"element": "C" 
			},
			{
				"x": -0.9840246737,
				"y": -3.014710919,
				"z": -0.4639439225,
				"element": "C" 
			},
			{
				"x": -1.9054679352,
				"y": -2.0339422791,
				"z": -0.1210989156,
				"element": "C" 
			},
			{
				"x": -3.1976853385,
				"y": -2.1734763161,
				"z": -0.4739511755,
				"element": "F" 
			},
			{
				"x": 1.0214918754,
				"y": 2.1262073751,
				"z": 2.1453550201,
				"element": "H" 
			},
			{
				"x": 1.4808561938,
				"y": 0.6741533967,
				"z": 3.0763917492,
				"element": "H" 
			},
			{
				"x": 1.9947520758,
				"y": 0.8571633261,
				"z": 1.3837917307,
				"element": "H" 
			},
			{
				"x": -2.5473697851,
				"y": 2.3956147399,
				"z": 2.1495669047,
				"element": "H" 
			},
			{
				"x": -1.2105303202,
				"y": 2.3034446084,
				"z": 3.145136763,
				"element": "H" 
			},
			{
				"x": 1.8640503053,
				"y": -1.6704450911,
				"z": 0.8985446157,
				"element": "H" 
			},
			{
				"x": 1.0680720486,
				"y": -3.6572202072,
				"z": -0.3773815744,
				"element": "H" 
			},
			{
				"x": -1.3283776431,
				"y": -3.8833920889,
				"z": -1.0145442366,
				"element": "H" 
			}
		],
		 "valence_orbital": [ 
			{
				"type": "occ",
				"energy": -0.29798,
				"method": "rhf"
			},
			{
				"type": "occ",
				"energy": -0.28513,
				"method": "rhf"
			},
			{
				"type": "occ",
				"energy": -0.27138,
				"method": "rhf"
			},
			{
				"type": "occ",
				"energy": -0.21717,
				"method": "rhf"
			},
			{
				"type": "occ",
				"energy": -0.20371,
				"method": "rhf"
			},
			{
				"type": "unocc",
				"energy": 0.00218,
				"method": "rhf"
			},
			{
				"type": "unocc",
				"energy": 0.02328,
				"method": "rhf"
			},
			{
				"type": "unocc",
				"energy": 0.05886,
				"method": "rhf"
			},
			{
				"type": "unocc",
				"energy": 0.07152,
				"method": "rhf"
			},
			{
				"type": "unocc",
				"energy": 0.09491,
				"method": "rhf"
			}
		],
		"cosmo_sigma_profile": { 
			"-0.025": 0.0,
			"-0.024": 0.0,
			"-0.023": 0.0,
			"-0.022": 0.0,
			"-0.021": 0.0,
			"-0.02": 0.0,
			"-0.019": 0.0,
			"-0.018": 0.0,
			"-0.017": 0.0,
			"-0.016": 0.0,
			"-0.015": 0.0250964196973,
			"-0.014": 1.02941381655,
			"-0.013": 2.21275704349,
			"-0.012": 3.05218439742,
			"-0.011": 2.095772002,
			"-0.01": 3.56183249969,
			"-0.009": 1.95610736788,
			"-0.008": 1.97479626672,
			"-0.007": 3.21693209768,
			"-0.006": 13.2169307986,
			"-0.005": 14.5673216103,
			"-0.004": 14.2634137695,
			"-0.003": 15.516441899,
			"-0.002": 7.94611709049,
			"-0.001": 7.21835133207,
			"0.0": 6.97586916516,
			"0.001": 9.63826014262,
			"0.002": 11.7268106016,
			"0.003": 14.0502341112,
			"0.004": 17.1476923029,
			"0.005": 15.9010618046,
			"0.006": 8.70755847444,
			"0.007": 2.94614251642,
			"0.008": 2.44126565465,
			"0.009": 1.80382380179,
			"0.01": 1.94406642749,
			"0.011": 2.4405811666,
			"0.012": 1.23435495929,
			"0.013": 1.46527036408,
			"0.014": 1.30651258962,
			"0.015": 0.952638518988,
			"0.016": 1.03537817848,
			"0.017": 0.583501186107,
			"0.018": 0.0104330319324,
			"0.019": 0.0,
			"0.02": 0.0,
			"0.021": 0.0,
			"0.022": 0.0,
			"0.023": 0.0,
			"0.024": 0.0,
			"0.025": 0.0
		}
	}
}
