{
	 "smiles": "NC1=CC(=NC(N)=N1)C1=CC=C(F)C=C1", 
	 "Tm": 438.15, 
	 "num_atms": 24, 
	 "gaussian": { 
		 "optdone": 1, 
		 "sigma_profile": "yes", 
		 "theory": "DFT", 
		 "functional": "B3LYP", 
		 "basiset": "6-31G**", 
		 "properties": { 
			 "R2extent": 4269.6438, 
			 "electric_dipole_moment_norm": 3.00156918628, 
			 "electric_quadrupole_moment_norm": 13.0219757871, 
			 "total_energy": -705.36550007, 
			 "HOMO_LUMO_gap": 0.17445, 
			 "cosmo_polarized_energy": -14.69, 
			 "cosmo_cavitation_energy": 29.18, 
			 "cosmo_dispersion_energy": -21.72, 
			 "cosmo_repulsion_energy": 1.68, 
			 "cosmo_total_nonelectrostatic_energy": 9.14, 
			 "SMD_solvation_energy": 2.92 
		},
		"coords": [
			{
				"x": 0.1556954445,
				"y": -2.7813454798,
				"z": 2.8832222585,
				"element": "N" 
			},
			{
				"x": 0.4152775089,
				"y": -1.5914974827,
				"z": 2.2523309661,
				"element": "C" 
			},
			{
				"x": -0.5298213795,
				"y": -0.992404119,
				"z": 1.3957060342,
				"element": "C" 
			},
			{
				"x": -0.1565702851,
				"y": 0.2031136527,
				"z": 0.7846340541,
				"element": "C" 
			},
			{
				"x": 1.0621159224,
				"y": 0.7457504181,
				"z": 0.9774519529,
				"element": "N" 
			},
			{
				"x": 1.8868662417,
				"y": 0.0771632881,
				"z": 1.7971676752,
				"element": "C" 
			},
			{
				"x": 3.1432141869,
				"y": 0.5977968623,
				"z": 1.9569153791,
				"element": "N" 
			},
			{
				"x": 1.6236069332,
				"y": -1.0574219269,
				"z": 2.4689008932,
				"element": "N" 
			},
			{
				"x": -1.0682225376,
				"y": 0.9455507615,
				"z": -0.1263873115,
				"element": "C" 
			},
			{
				"x": -0.5383249994,
				"y": 1.9104287539,
				"z": -0.9995223464,
				"element": "C" 
			},
			{
				"x": -1.358107116,
				"y": 2.6180013658,
				"z": -1.8739252959,
				"element": "C" 
			},
			{
				"x": -2.7247454321,
				"y": 2.3602998477,
				"z": -1.8655053607,
				"element": "C" 
			},
			{
				"x": -3.5274176041,
				"y": 3.0428389743,
				"z": -2.7084021437,
				"element": "F" 
			},
			{
				"x": -3.2893885665,
				"y": 1.4227343829,
				"z": -1.0079583546,
				"element": "C" 
			},
			{
				"x": -2.4543723654,
				"y": 0.7206384826,
				"z": -0.1416395414,
				"element": "C" 
			},
			{
				"x": -0.8034281293,
				"y": -3.0633010287,
				"z": 3.0082882553,
				"element": "H" 
			},
			{
				"x": 0.8008567159,
				"y": -3.0340883902,
				"z": 3.6169581691,
				"element": "H" 
			},
			{
				"x": -1.4851708983,
				"y": -1.4664622933,
				"z": 1.208869848,
				"element": "H" 
			},
			{
				"x": 3.2724182487,
				"y": 1.5557113495,
				"z": 1.6728186587,
				"element": "H" 
			},
			{
				"x": 3.6801167117,
				"y": 0.2562633322,
				"z": 2.7379569431,
				"element": "H" 
			},
			{
				"x": 0.5298176291,
				"y": 2.0916135392,
				"z": -0.9755247667,
				"element": "H" 
			},
			{
				"x": -0.9571128915,
				"y": 3.3593679414,
				"z": -2.5567979956,
				"element": "H" 
			},
			{
				"x": -4.3617737702,
				"y": 1.2610519851,
				"z": -1.0213043158,
				"element": "H" 
			},
			{
				"x": -2.898329568,
				"y": 0.0070957832,
				"z": 0.5445463448,
				"element": "H" 
			}
		],
		 "valence_orbital": [ 
			{
				"type": "occ",
				"energy": -0.25803,
				"method": "rhf"
			},
			{
				"type": "occ",
				"energy": -0.24919,
				"method": "rhf"
			},
			{
				"type": "occ",
				"energy": -0.24193,
				"method": "rhf"
			},
			{
				"type": "occ",
				"energy": -0.23289,
				"method": "rhf"
			},
			{
				"type": "occ",
				"energy": -0.2105,
				"method": "rhf"
			},
			{
				"type": "unocc",
				"energy": -0.03605,
				"method": "rhf"
			},
			{
				"type": "unocc",
				"energy": -0.00819,
				"method": "rhf"
			},
			{
				"type": "unocc",
				"energy": 0.02008,
				"method": "rhf"
			},
			{
				"type": "unocc",
				"energy": 0.04267,
				"method": "rhf"
			},
			{
				"type": "unocc",
				"energy": 0.08159,
				"method": "rhf"
			}
		],
		"cosmo_sigma_profile": { 
			"-0.025": 0.0,
			"-0.024": 0.0,
			"-0.023": 0.0,
			"-0.022": 0.0,
			"-0.021": 0.0,
			"-0.02": 0.0,
			"-0.019": 0.0,
			"-0.018": 0.0,
			"-0.017": 0.0,
			"-0.016": 0.0,
			"-0.015": 0.0,
			"-0.014": 0.698121551668,
			"-0.013": 3.73662125514,
			"-0.012": 3.86725892932,
			"-0.011": 4.32298674195,
			"-0.01": 4.5202228533,
			"-0.009": 4.5036282506,
			"-0.008": 6.57196328716,
			"-0.007": 9.0073477765,
			"-0.006": 8.62276886053,
			"-0.005": 10.3590951975,
			"-0.004": 9.58027416822,
			"-0.003": 7.54494688729,
			"-0.002": 8.71198425996,
			"-0.001": 9.15727582394,
			"0.0": 11.3921331275,
			"0.001": 18.5072074577,
			"0.002": 22.8362970853,
			"0.003": 25.1462483853,
			"0.004": 26.1323267824,
			"0.005": 7.70987125245,
			"0.006": 6.85049283362,
			"0.007": 5.12810867609,
			"0.008": 4.22572815534,
			"0.009": 5.34319458768,
			"0.01": 2.89225205354,
			"0.011": 3.11166029782,
			"0.012": 1.48299608375,
			"0.013": 0.797074669915,
			"0.014": 0.65492347602,
			"0.015": 0.0188219505859,
			"0.016": 0.0,
			"0.017": 0.0,
			"0.018": 0.0,
			"0.019": 0.0,
			"0.02": 0.0,
			"0.021": 0.0,
			"0.022": 0.0,
			"0.023": 0.0,
			"0.024": 0.0,
			"0.025": 0.0
		}
	}
}
