{
	 "smiles": "COC1=NC=C(C=C1)[N+]([O-])=O", 
	 "Tm": 381.15, 
	 "num_atms": 17, 
	 "gaussian": { 
		 "optdone": 1, 
		 "sigma_profile": "yes", 
		 "theory": "DFT", 
		 "functional": "B3LYP", 
		 "basiset": "6-31G**", 
		 "properties": { 
			 "R2extent": 2015.2051, 
			 "electric_dipole_moment_norm": 4.61077465726, 
			 "electric_quadrupole_moment_norm": 8.13375346381, 
			 "total_energy": -567.319106146, 
			 "HOMO_LUMO_gap": 0.17242, 
			 "cosmo_polarized_energy": -8.84, 
			 "cosmo_cavitation_energy": 22.37, 
			 "cosmo_dispersion_energy": -16.69, 
			 "cosmo_repulsion_energy": 1.34, 
			 "cosmo_total_nonelectrostatic_energy": 7.01, 
			 "SMD_solvation_energy": 6.29 
		},
		"coords": [
			{
				"x": -1.4102572499,
				"y": 0.9548275056,
				"z": -3.4541257698,
				"element": "C" 
			},
			{
				"x": -0.5694059733,
				"y": -0.0643706977,
				"z": -2.8934009933,
				"element": "O" 
			},
			{
				"x": -0.3026017436,
				"y": 0.0014171542,
				"z": -1.581777951,
				"element": "C" 
			},
			{
				"x": -0.8192971465,
				"y": 0.9948176333,
				"z": -0.857020972,
				"element": "N" 
			},
			{
				"x": -0.5319168631,
				"y": 1.0286446492,
				"z": 0.4481103864,
				"element": "C" 
			},
			{
				"x": 0.275859854,
				"y": 0.0730341439,
				"z": 1.0555045758,
				"element": "C" 
			},
			{
				"x": 0.8192757317,
				"y": -0.9713372983,
				"z": 0.2945203248,
				"element": "C" 
			},
			{
				"x": 0.5270538782,
				"y": -1.0125300655,
				"z": -1.0524512167,
				"element": "C" 
			},
			{
				"x": 0.5567180652,
				"y": 0.1584744884,
				"z": 2.4837486412,
				"element": "N" 
			},
			{
				"x": 1.2773957264,
				"y": -0.712198475,
				"z": 2.9746277153,
				"element": "O" 
			},
			{
				"x": 0.0568969877,
				"y": 1.0935411469,
				"z": 3.1109214713,
				"element": "O" 
			},
			{
				"x": -2.3963088172,
				"y": 0.9498406511,
				"z": -2.9827644588,
				"element": "H" 
			},
			{
				"x": -0.9636539644,
				"y": 1.9438760987,
				"z": -3.3243709129,
				"element": "H" 
			},
			{
				"x": -1.4906567857,
				"y": 0.7069941753,
				"z": -4.5125433453,
				"element": "H" 
			},
			{
				"x": -0.9531510479,
				"y": 1.8374984301,
				"z": 1.0361254301,
				"element": "H" 
			},
			{
				"x": 1.4475285457,
				"y": -1.7124540225,
				"z": 0.7734207663,
				"element": "H" 
			},
			{
				"x": 0.9097208026,
				"y": -1.7880755177,
				"z": -1.7051236915,
				"element": "H" 
			}
		],
		 "valence_orbital": [ 
			{
				"type": "occ",
				"energy": -0.31412,
				"method": "rhf"
			},
			{
				"type": "occ",
				"energy": -0.30756,
				"method": "rhf"
			},
			{
				"type": "occ",
				"energy": -0.29234,
				"method": "rhf"
			},
			{
				"type": "occ",
				"energy": -0.28796,
				"method": "rhf"
			},
			{
				"type": "occ",
				"energy": -0.26093,
				"method": "rhf"
			},
			{
				"type": "unocc",
				"energy": -0.08851,
				"method": "rhf"
			},
			{
				"type": "unocc",
				"energy": -0.04687,
				"method": "rhf"
			},
			{
				"type": "unocc",
				"energy": 0.00262,
				"method": "rhf"
			},
			{
				"type": "unocc",
				"energy": 0.08824,
				"method": "rhf"
			},
			{
				"type": "unocc",
				"energy": 0.10527,
				"method": "rhf"
			}
		],
		"cosmo_sigma_profile": { 
			"-0.025": 0.0,
			"-0.024": 0.0,
			"-0.023": 0.0,
			"-0.022": 0.0,
			"-0.021": 0.0,
			"-0.02": 0.0,
			"-0.019": 0.0,
			"-0.018": 0.0,
			"-0.017": 0.0,
			"-0.016": 0.0,
			"-0.015": 0.0,
			"-0.014": 0.0,
			"-0.013": 0.0,
			"-0.012": 0.0,
			"-0.011": 0.0,
			"-0.01": 0.0,
			"-0.009": 1.02734583661,
			"-0.008": 4.17670796921,
			"-0.007": 5.71455564461,
			"-0.006": 10.8569674638,
			"-0.005": 11.2515393825,
			"-0.004": 14.8860263929,
			"-0.003": 18.1932833651,
			"-0.002": 17.8654904779,
			"-0.001": 16.4209170581,
			"0.0": 11.8847006413,
			"0.001": 9.17324868998,
			"0.002": 5.61877029758,
			"0.003": 4.84853771001,
			"0.004": 5.26597800185,
			"0.005": 5.56023292592,
			"0.006": 6.18524162627,
			"0.007": 9.84246055497,
			"0.008": 10.401276052,
			"0.009": 5.61727422448,
			"0.01": 3.56741489042,
			"0.011": 0.818574872276,
			"0.012": 0.272491598247,
			"0.013": 0.0,
			"0.014": 0.0,
			"0.015": 0.0,
			"0.016": 0.0,
			"0.017": 0.0,
			"0.018": 0.0,
			"0.019": 0.0,
			"0.02": 0.0,
			"0.021": 0.0,
			"0.022": 0.0,
			"0.023": 0.0,
			"0.024": 0.0,
			"0.025": 0.0
		}
	}
}
