{
	 "smiles": "CC(=O)OCCCCCC1=CC=C(C=C1)S(N)(=O)=O", 
	 "Tm": 357.15, 
	 "num_atms": 38, 
	 "gaussian": { 
		 "optdone": 1, 
		 "sigma_profile": "yes", 
		 "theory": "DFT", 
		 "functional": "B3LYP", 
		 "basiset": "6-31G**", 
		 "properties": { 
			 "R2extent": 5901.6169, 
			 "electric_dipole_moment_norm": 8.9637116743, 
			 "electric_quadrupole_moment_norm": 25.082116456, 
			 "total_energy": -1260.63260211, 
			 "HOMO_LUMO_gap": 0.21999, 
			 "cosmo_polarized_energy": -21.7, 
			 "cosmo_cavitation_energy": 41.65, 
			 "cosmo_dispersion_energy": -27.47, 
			 "cosmo_repulsion_energy": 2.05, 
			 "cosmo_total_nonelectrostatic_energy": 16.24, 
			 "SMD_solvation_energy": 6.41 
		},
		"coords": [
			{
				"x": -1.5044505978,
				"y": -0.1517493205,
				"z": -3.1942204625,
				"element": "C" 
			},
			{
				"x": -0.2808906056,
				"y": 0.4979030352,
				"z": -2.58940683,
				"element": "C" 
			},
			{
				"x": 0.7043260873,
				"y": -0.1053118098,
				"z": -2.2041273455,
				"element": "O" 
			},
			{
				"x": -0.4359961501,
				"y": 1.8289732649,
				"z": -2.5033303165,
				"element": "O" 
			},
			{
				"x": 0.6187159891,
				"y": 2.6164131378,
				"z": -1.8895401534,
				"element": "C" 
			},
			{
				"x": -0.0440616813,
				"y": 3.8282207137,
				"z": -1.2418697251,
				"element": "C" 
			},
			{
				"x": -0.8453005858,
				"y": 3.4686207938,
				"z": 0.023280541,
				"element": "C" 
			},
			{
				"x": 0.0288018025,
				"y": 3.3509080902,
				"z": 1.2864952693,
				"element": "C" 
			},
			{
				"x": -0.5416641632,
				"y": 2.3987754761,
				"z": 2.3635043357,
				"element": "C" 
			},
			{
				"x": -0.4519777006,
				"y": 0.9482230339,
				"z": 1.9379366006,
				"element": "C" 
			},
			{
				"x": 0.8041092622,
				"y": 0.3284600581,
				"z": 1.8456459243,
				"element": "C" 
			},
			{
				"x": 0.9360032979,
				"y": -0.9678534734,
				"z": 1.3572093298,
				"element": "C" 
			},
			{
				"x": -0.2071262171,
				"y": -1.6663582226,
				"z": 0.9643015939,
				"element": "C" 
			},
			{
				"x": -1.4740420299,
				"y": -1.0955776692,
				"z": 1.093062596,
				"element": "C" 
			},
			{
				"x": -1.5874370085,
				"y": 0.2091982862,
				"z": 1.5762536256,
				"element": "C" 
			},
			{
				"x": -0.0190899153,
				"y": -3.2884337167,
				"z": 0.2104649397,
				"element": "S" 
			},
			{
				"x": -0.0266803286,
				"y": -3.0151500311,
				"z": -1.4483701476,
				"element": "N" 
			},
			{
				"x": 1.314338545,
				"y": -3.7673267353,
				"z": 0.5698834017,
				"element": "O" 
			},
			{
				"x": -1.2301233692,
				"y": -4.0683555545,
				"z": 0.4808512898,
				"element": "O" 
			},
			{
				"x": -1.2027140894,
				"y": -1.0116601059,
				"z": -3.794956535,
				"element": "H" 
			},
			{
				"x": -2.0726013647,
				"y": 0.5535587663,
				"z": -3.8015042153,
				"element": "H" 
			},
			{
				"x": -2.1501268746,
				"y": -0.5046645861,
				"z": -2.3824458825,
				"element": "H" 
			},
			{
				"x": 1.1562397345,
				"y": 1.989113577,
				"z": -1.1741622061,
				"element": "H" 
			},
			{
				"x": 1.3142642272,
				"y": 2.9099952752,
				"z": -2.6825288429,
				"element": "H" 
			},
			{
				"x": 0.736511651,
				"y": 4.5618946926,
				"z": -1.0024224787,
				"element": "H" 
			},
			{
				"x": -0.6936556733,
				"y": 4.2981575532,
				"z": -1.9889356077,
				"element": "H" 
			},
			{
				"x": -1.3719946052,
				"y": 2.5250221859,
				"z": -0.1618421468,
				"element": "H" 
			},
			{
				"x": -1.6251065707,
				"y": 4.2198406452,
				"z": 0.1944105711,
				"element": "H" 
			},
			{
				"x": 1.0306081541,
				"y": 2.9942789908,
				"z": 1.0149152724,
				"element": "H" 
			},
			{
				"x": 0.1727425054,
				"y": 4.3473527823,
				"z": 1.7220741857,
				"element": "H" 
			},
			{
				"x": 0.0211113393,
				"y": 2.5407503783,
				"z": 3.2942125557,
				"element": "H" 
			},
			{
				"x": -1.5825240861,
				"y": 2.664788884,
				"z": 2.58238881,
				"element": "H" 
			},
			{
				"x": 1.6935316769,
				"y": 0.8729591724,
				"z": 2.1530650039,
				"element": "H" 
			},
			{
				"x": 1.9066001885,
				"y": -1.4452869543,
				"z": 1.2807823662,
				"element": "H" 
			},
			{
				"x": -2.355936663,
				"y": -1.6709567621,
				"z": 0.8291018998,
				"element": "H" 
			},
			{
				"x": -2.5717944237,
				"y": 0.6598495134,
				"z": 1.6737172131,
				"element": "H" 
			},
			{
				"x": -0.9836481117,
				"y": -2.9599062,
				"z": -1.78241874,
				"element": "H" 
			},
			{
				"x": 0.5164383544,
				"y": -2.1960671651,
				"z": -1.7312756899,
				"element": "H" 
			}
		],
		 "valence_orbital": [ 
			{
				"type": "occ",
				"energy": -0.29319,
				"method": "rhf"
			},
			{
				"type": "occ",
				"energy": -0.29107,
				"method": "rhf"
			},
			{
				"type": "occ",
				"energy": -0.28322,
				"method": "rhf"
			},
			{
				"type": "occ",
				"energy": -0.26818,
				"method": "rhf"
			},
			{
				"type": "occ",
				"energy": -0.2547,
				"method": "rhf"
			},
			{
				"type": "unocc",
				"energy": -0.03471,
				"method": "rhf"
			},
			{
				"type": "unocc",
				"energy": -0.02047,
				"method": "rhf"
			},
			{
				"type": "unocc",
				"energy": -0.00821,
				"method": "rhf"
			},
			{
				"type": "unocc",
				"energy": 0.05316,
				"method": "rhf"
			},
			{
				"type": "unocc",
				"energy": 0.07724,
				"method": "rhf"
			}
		],
		"cosmo_sigma_profile": { 
			"-0.025": 0.0,
			"-0.024": 0.0,
			"-0.023": 0.0,
			"-0.022": 0.0,
			"-0.021": 0.0,
			"-0.02": 0.0,
			"-0.019": 0.0,
			"-0.018": 0.0,
			"-0.017": 0.0,
			"-0.016": 0.0,
			"-0.015": 0.0,
			"-0.014": 0.0615690461009,
			"-0.013": 0.557704534347,
			"-0.012": 0.611899132675,
			"-0.011": 1.2336326921,
			"-0.01": 1.40460713961,
			"-0.009": 2.28231560806,
			"-0.008": 2.83612265055,
			"-0.007": 5.82174609813,
			"-0.006": 14.6708187568,
			"-0.005": 20.3093736377,
			"-0.004": 31.55079386,
			"-0.003": 35.0734728133,
			"-0.002": 37.1805291922,
			"-0.001": 36.1084127037,
			"0.0": 24.9414228126,
			"0.001": 16.7349215658,
			"0.002": 12.4419561858,
			"0.003": 13.4191535591,
			"0.004": 9.90807722923,
			"0.005": 7.60165242589,
			"0.006": 6.04891979277,
			"0.007": 6.82517486776,
			"0.008": 6.24176998734,
			"0.009": 4.23563014746,
			"0.01": 7.55553877574,
			"0.011": 12.8751012024,
			"0.012": 8.17831932192,
			"0.013": 0.918178908051,
			"0.014": 0.106400532688,
			"0.015": 0.0,
			"0.016": 0.0,
			"0.017": 0.0,
			"0.018": 0.0,
			"0.019": 0.0,
			"0.02": 0.0,
			"0.021": 0.0,
			"0.022": 0.0,
			"0.023": 0.0,
			"0.024": 0.0,
			"0.025": 0.0
		}
	}
}
