{
	 "smiles": "OC(=O)CCC1=CC2=C(OCC2)C=C1", 
	 "Tm": 366.15, 
	 "num_atms": 26, 
	 "gaussian": { 
		 "optdone": 1, 
		 "sigma_profile": "yes", 
		 "theory": "DFT", 
		 "functional": "B3LYP", 
		 "basiset": "6-31G**", 
		 "properties": { 
			 "R2extent": 3346.6521, 
			 "electric_dipole_moment_norm": 1.18750281263, 
			 "electric_quadrupole_moment_norm": 11.9183066733, 
			 "total_energy": -652.090099816, 
			 "HOMO_LUMO_gap": 0.20251, 
			 "cosmo_polarized_energy": -11.48, 
			 "cosmo_cavitation_energy": 29.38, 
			 "cosmo_dispersion_energy": -21.47, 
			 "cosmo_repulsion_energy": 1.73, 
			 "cosmo_total_nonelectrostatic_energy": 9.64, 
			 "SMD_solvation_energy": 5.8 
		},
		"coords": [
			{
				"x": -0.6787660876,
				"y": -3.9214831795,
				"z": -0.6766279694,
				"element": "O" 
			},
			{
				"x": -1.3665566735,
				"y": -2.7675452628,
				"z": -0.5030027736,
				"element": "C" 
			},
			{
				"x": -1.9817675396,
				"y": -2.5286180021,
				"z": 0.5147338192,
				"element": "O" 
			},
			{
				"x": -1.2962601727,
				"y": -1.8856932484,
				"z": -1.7318896536,
				"element": "C" 
			},
			{
				"x": -1.6392903845,
				"y": -0.4114458938,
				"z": -1.4490280369,
				"element": "C" 
			},
			{
				"x": -0.5454149312,
				"y": 0.3456727609,
				"z": -0.7208954003,
				"element": "C" 
			},
			{
				"x": -0.5026412845,
				"y": 0.3803091887,
				"z": 0.6857328959,
				"element": "C" 
			},
			{
				"x": 0.5274921683,
				"y": 1.0565196056,
				"z": 1.3251181588,
				"element": "C" 
			},
			{
				"x": 1.5131518124,
				"y": 1.7033691481,
				"z": 0.5755104081,
				"element": "C" 
			},
			{
				"x": 2.4524563267,
				"y": 2.3357765809,
				"z": 1.3414384086,
				"element": "O" 
			},
			{
				"x": 2.2351403502,
				"y": 1.925537559,
				"z": 2.7156575465,
				"element": "C" 
			},
			{
				"x": 0.8122320303,
				"y": 1.3190420876,
				"z": 2.7878535778,
				"element": "C" 
			},
			{
				"x": 1.5000958816,
				"y": 1.6970285227,
				"z": -0.8142631125,
				"element": "C" 
			},
			{
				"x": 0.4561860288,
				"y": 1.0106048239,
				"z": -1.443968441,
				"element": "C" 
			},
			{
				"x": -0.8093485531,
				"y": -4.4377907203,
				"z": 0.1367522208,
				"element": "H" 
			},
			{
				"x": -0.3052122098,
				"y": -1.9888319898,
				"z": -2.1843079842,
				"element": "H" 
			},
			{
				"x": -2.0091990103,
				"y": -2.3099375072,
				"z": -2.4526622363,
				"element": "H" 
			},
			{
				"x": -1.8409543636,
				"y": 0.0768980264,
				"z": -2.4087307129,
				"element": "H" 
			},
			{
				"x": -2.5685477057,
				"y": -0.3798801696,
				"z": -0.8717258532,
				"element": "H" 
			},
			{
				"x": -1.2722367955,
				"y": -0.1322496262,
				"z": 1.2553364484,
				"element": "H" 
			},
			{
				"x": 2.9999449657,
				"y": 1.1815395626,
				"z": 2.971033745,
				"element": "H" 
			},
			{
				"x": 2.374648236,
				"y": 2.8041415866,
				"z": 3.3494588478,
				"element": "H" 
			},
			{
				"x": 0.0901309769,
				"y": 2.0292108102,
				"z": 3.2104249137,
				"element": "H" 
			},
			{
				"x": 0.7850991983,
				"y": 0.4180321464,
				"z": 3.4083701963,
				"element": "H" 
			},
			{
				"x": 2.2700850133,
				"y": 2.2089887421,
				"z": -1.3812972793,
				"element": "H" 
			},
			{
				"x": 0.4216327229,
				"y": 0.9947044479,
				"z": -2.531121734,
				"element": "H" 
			}
		],
		 "valence_orbital": [ 
			{
				"type": "occ",
				"energy": -0.31695,
				"method": "rhf"
			},
			{
				"type": "occ",
				"energy": -0.30005,
				"method": "rhf"
			},
			{
				"type": "occ",
				"energy": -0.27611,
				"method": "rhf"
			},
			{
				"type": "occ",
				"energy": -0.2406,
				"method": "rhf"
			},
			{
				"type": "occ",
				"energy": -0.20276,
				"method": "rhf"
			},
			{
				"type": "unocc",
				"energy": -0.00025,
				"method": "rhf"
			},
			{
				"type": "unocc",
				"energy": 0.01008,
				"method": "rhf"
			},
			{
				"type": "unocc",
				"energy": 0.01859,
				"method": "rhf"
			},
			{
				"type": "unocc",
				"energy": 0.07963,
				"method": "rhf"
			},
			{
				"type": "unocc",
				"energy": 0.09857,
				"method": "rhf"
			}
		],
		"cosmo_sigma_profile": { 
			"-0.025": 0.0,
			"-0.024": 0.0,
			"-0.023": 0.0,
			"-0.022": 0.0,
			"-0.021": 0.0,
			"-0.02": 0.0,
			"-0.019": 0.0,
			"-0.018": 0.572589711045,
			"-0.017": 0.946095815066,
			"-0.016": 0.684096896137,
			"-0.015": 1.10818932238,
			"-0.014": 0.654100284263,
			"-0.013": 0.150296114704,
			"-0.012": 0.687520083433,
			"-0.011": 1.06988867737,
			"-0.01": 0.894898920163,
			"-0.009": 0.318330238732,
			"-0.008": 0.662450473178,
			"-0.007": 1.70799827041,
			"-0.006": 6.99368684734,
			"-0.005": 18.203855246,
			"-0.004": 24.8355916536,
			"-0.003": 27.3241642195,
			"-0.002": 22.4008004297,
			"-0.001": 16.789587114,
			"0.0": 11.8813185303,
			"0.001": 11.5475915557,
			"0.002": 9.08192286882,
			"0.003": 11.6724100833,
			"0.004": 13.152840176,
			"0.005": 11.0950766762,
			"0.006": 10.9927705414,
			"0.007": 5.72487714206,
			"0.008": 3.53636569792,
			"0.009": 3.96801084323,
			"0.01": 4.55195093711,
			"0.011": 4.41338865643,
			"0.012": 4.10156739822,
			"0.013": 0.147060979437,
			"0.014": 0.0,
			"0.015": 0.0,
			"0.016": 0.0,
			"0.017": 0.0,
			"0.018": 0.0,
			"0.019": 0.0,
			"0.02": 0.0,
			"0.021": 0.0,
			"0.022": 0.0,
			"0.023": 0.0,
			"0.024": 0.0,
			"0.025": 0.0
		}
	}
}
