{
	 "smiles": "CC1=CC=C(C=C1)C(=O)C1=NOC(=C1S(=O)(=O)C1=CC=CC=C1)C1=CC=C(C=C1)[N+]([O-])=O", 
	 "Tm": 443.15, 
	 "num_atms": 48, 
	 "gaussian": { 
		 "optdone": 1, 
		 "sigma_profile": "yes", 
		 "theory": "DFT", 
		 "functional": "B3LYP", 
		 "basiset": "6-31G**", 
		 "properties": { 
			 "R2extent": 16184.57, 
			 "electric_dipole_moment_norm": 7.87398588073, 
			 "electric_quadrupole_moment_norm": 18.8811212948, 
			 "total_energy": -1844.89662359, 
			 "HOMO_LUMO_gap": 0.1493, 
			 "cosmo_polarized_energy": -24.38, 
			 "cosmo_cavitation_energy": 55.86, 
			 "cosmo_dispersion_energy": -36.8, 
			 "cosmo_repulsion_energy": 2.71, 
			 "cosmo_total_nonelectrostatic_energy": 21.76, 
			 "SMD_solvation_energy": 11.16 
		},
		"coords": [
			{
				"x": 0.6704182831,
				"y": -5.9720506415,
				"z": 4.2566761215,
				"element": "C" 
			},
			{
				"x": 1.198940046,
				"y": -4.8883985723,
				"z": 3.3495711301,
				"element": "C" 
			},
			{
				"x": 0.427082546,
				"y": -4.3829698317,
				"z": 2.2959163772,
				"element": "C" 
			},
			{
				"x": 0.9211130646,
				"y": -3.3834935386,
				"z": 1.458367184,
				"element": "C" 
			},
			{
				"x": 2.2090168291,
				"y": -2.8680867647,
				"z": 1.6593102313,
				"element": "C" 
			},
			{
				"x": 2.9914501043,
				"y": -3.3732555018,
				"z": 2.7121005537,
				"element": "C" 
			},
			{
				"x": 2.4901425107,
				"y": -4.3646546789,
				"z": 3.5425323343,
				"element": "C" 
			},
			{
				"x": 2.7897064544,
				"y": -1.8128506075,
				"z": 0.7973425339,
				"element": "C" 
			},
			{
				"x": 3.9450407008,
				"y": -1.4393588327,
				"z": 0.8698925509,
				"element": "O" 
			},
			{
				"x": 1.9117537523,
				"y": -1.1747130209,
				"z": -0.2746023021,
				"element": "C" 
			},
			{
				"x": 1.7947790768,
				"y": -1.7751331585,
				"z": -1.4335940327,
				"element": "N" 
			},
			{
				"x": 1.0667799002,
				"y": -0.8957721107,
				"z": -2.2431568104,
				"element": "O" 
			},
			{
				"x": 0.7575417441,
				"y": 0.2241262282,
				"z": -1.558358924,
				"element": "C" 
			},
			{
				"x": 1.2621986908,
				"y": 0.1022089949,
				"z": -0.279277068,
				"element": "C" 
			},
			{
				"x": 1.0798575148,
				"y": 1.1447835425,
				"z": 1.1620593682,
				"element": "S" 
			},
			{
				"x": 1.3828299563,
				"y": 2.5343862838,
				"z": 0.7871654985,
				"element": "O" 
			},
			{
				"x": 1.820710118,
				"y": 0.4617962012,
				"z": 2.2289420339,
				"element": "O" 
			},
			{
				"x": -0.6719605454,
				"y": 1.0475115518,
				"z": 1.5581229408,
				"element": "C" 
			},
			{
				"x": -1.5149297129,
				"y": 2.1052201663,
				"z": 1.2134601246,
				"element": "C" 
			},
			{
				"x": -2.8686909062,
				"y": 2.0224605065,
				"z": 1.5437362481,
				"element": "C" 
			},
			{
				"x": -3.3598659151,
				"y": 0.8977273656,
				"z": 2.2092637543,
				"element": "C" 
			},
			{
				"x": -2.5007201426,
				"y": -0.148505089,
				"z": 2.5582729463,
				"element": "C" 
			},
			{
				"x": -1.1459749054,
				"y": -0.078687954,
				"z": 2.237729791,
				"element": "C" 
			},
			{
				"x": -0.0188300152,
				"y": 1.2177278024,
				"z": -2.3081596307,
				"element": "C" 
			},
			{
				"x": 0.1137411318,
				"y": 2.59535629,
				"z": -2.0592326604,
				"element": "C" 
			},
			{
				"x": -0.6211614247,
				"y": 3.5117707345,
				"z": -2.805812792,
				"element": "C" 
			},
			{
				"x": -1.4783098828,
				"y": 3.0420761916,
				"z": -3.7976026458,
				"element": "C" 
			},
			{
				"x": -1.6178083832,
				"y": 1.6833125161,
				"z": -4.0748679253,
				"element": "C" 
			},
			{
				"x": -0.8819893213,
				"y": 0.7721596379,
				"z": -3.3280996517,
				"element": "C" 
			},
			{
				"x": -2.2620001901,
				"y": 4.0128100944,
				"z": -4.5830847898,
				"element": "N" 
			},
			{
				"x": -3.0027120271,
				"y": 3.5683407906,
				"z": -5.4585636083,
				"element": "O" 
			},
			{
				"x": -2.1274514522,
				"y": 5.2043334304,
				"z": -4.3108844571,
				"element": "O" 
			},
			{
				"x": -0.3592159634,
				"y": -6.2403372475,
				"z": 4.0064588729,
				"element": "H" 
			},
			{
				"x": 1.2812879828,
				"y": -6.8792457038,
				"z": 4.1832918364,
				"element": "H" 
			},
			{
				"x": 0.6929101528,
				"y": -5.6556805514,
				"z": 5.3055669802,
				"element": "H" 
			},
			{
				"x": -0.5695528709,
				"y": -4.7813404581,
				"z": 2.1254715977,
				"element": "H" 
			},
			{
				"x": 0.310815139,
				"y": -3.0199357032,
				"z": 0.6378437179,
				"element": "H" 
			},
			{
				"x": 3.9863582068,
				"y": -2.9660053369,
				"z": 2.8573895903,
				"element": "H" 
			},
			{
				"x": 3.1026510683,
				"y": -4.7440951953,
				"z": 4.3565684602,
				"element": "H" 
			},
			{
				"x": -1.1099429169,
				"y": 2.9786852992,
				"z": 0.7161805584,
				"element": "H" 
			},
			{
				"x": -3.5356822007,
				"y": 2.8396252641,
				"z": 1.2869736221,
				"element": "H" 
			},
			{
				"x": -4.4136163723,
				"y": 0.8391082445,
				"z": 2.4651806341,
				"element": "H" 
			},
			{
				"x": -2.8839927726,
				"y": -1.0147679992,
				"z": 3.088724779,
				"element": "H" 
			},
			{
				"x": -0.4634004574,
				"y": -0.8730266386,
				"z": 2.5209836756,
				"element": "H" 
			},
			{
				"x": 0.7974874453,
				"y": 2.942894568,
				"z": -1.2938798796,
				"element": "H" 
			},
			{
				"x": -0.5324864518,
				"y": 4.5777462619,
				"z": -2.6379627124,
				"element": "H" 
			},
			{
				"x": -2.2927436738,
				"y": 1.3642900454,
				"z": -4.8588579459,
				"element": "H" 
			},
			{
				"x": -0.9738739152,
				"y": -0.2892928753,
				"z": -3.5272982112,
				"element": "H" 
			}
		],
		 "valence_orbital": [ 
			{
				"type": "occ",
				"energy": -0.28351,
				"method": "rhf"
			},
			{
				"type": "occ",
				"energy": -0.27287,
				"method": "rhf"
			},
			{
				"type": "occ",
				"energy": -0.27008,
				"method": "rhf"
			},
			{
				"type": "occ",
				"energy": -0.26721,
				"method": "rhf"
			},
			{
				"type": "occ",
				"energy": -0.26068,
				"method": "rhf"
			},
			{
				"type": "unocc",
				"energy": -0.11138,
				"method": "rhf"
			},
			{
				"type": "unocc",
				"energy": -0.07198,
				"method": "rhf"
			},
			{
				"type": "unocc",
				"energy": -0.06169,
				"method": "rhf"
			},
			{
				"type": "unocc",
				"energy": -0.05165,
				"method": "rhf"
			},
			{
				"type": "unocc",
				"energy": -0.04388,
				"method": "rhf"
			}
		],
		"cosmo_sigma_profile": { 
			"-0.025": 0.0,
			"-0.024": 0.0,
			"-0.023": 0.0,
			"-0.022": 0.0,
			"-0.021": 0.0,
			"-0.02": 0.0,
			"-0.019": 0.0,
			"-0.018": 0.0,
			"-0.017": 0.0,
			"-0.016": 0.0,
			"-0.015": 0.0,
			"-0.014": 0.0,
			"-0.013": 0.0,
			"-0.012": 0.0,
			"-0.011": 0.000199070976728,
			"-0.01": 0.0132814678611,
			"-0.009": 1.23892816439,
			"-0.008": 5.66400789926,
			"-0.007": 17.8934759483,
			"-0.006": 26.1038070004,
			"-0.005": 34.0030223282,
			"-0.004": 35.8857204123,
			"-0.003": 36.9563017828,
			"-0.002": 34.6523951263,
			"-0.001": 40.274774633,
			"0.0": 38.628729583,
			"0.001": 26.2010409489,
			"0.002": 29.5012959362,
			"0.003": 26.9938436156,
			"0.004": 13.2906068681,
			"0.005": 11.5771432387,
			"0.006": 10.19007196,
			"0.007": 15.8687937458,
			"0.008": 12.1900735337,
			"0.009": 12.3491831525,
			"0.01": 12.4861040065,
			"0.011": 7.91923399408,
			"0.012": 0.665941866232,
			"0.013": 0.0,
			"0.014": 0.0,
			"0.015": 0.0,
			"0.016": 0.0,
			"0.017": 0.0,
			"0.018": 0.0,
			"0.019": 0.0,
			"0.02": 0.0,
			"0.021": 0.0,
			"0.022": 0.0,
			"0.023": 0.0,
			"0.024": 0.0,
			"0.025": 0.0
		}
	}
}
