{
	 "smiles": "CN1C=C(C=N1)C1=NN=C(N)O1", 
	 "Tm": 527.15, 
	 "num_atms": 19, 
	 "gaussian": { 
		 "optdone": 1, 
		 "sigma_profile": "yes", 
		 "theory": "DFT", 
		 "functional": "B3LYP", 
		 "basiset": "6-31G**", 
		 "properties": { 
			 "R2extent": 3264.2487, 
			 "electric_dipole_moment_norm": 6.1687185063, 
			 "electric_quadrupole_moment_norm": 19.308086861, 
			 "total_energy": -581.788437262, 
			 "HOMO_LUMO_gap": 0.19537, 
			 "cosmo_polarized_energy": -20.72, 
			 "cosmo_cavitation_energy": 24.63, 
			 "cosmo_dispersion_energy": -18.36, 
			 "cosmo_repulsion_energy": 1.47, 
			 "cosmo_total_nonelectrostatic_energy": 7.74, 
			 "SMD_solvation_energy": 2.39 
		},
		"coords": [
			{
				"x": -1.8123233626,
				"y": -0.1048431548,
				"z": -2.1631987573,
				"element": "C" 
			},
			{
				"x": -0.9010393177,
				"y": 0.6544567367,
				"z": -1.3273596002,
				"element": "N" 
			},
			{
				"x": -0.3874061645,
				"y": 0.3082371623,
				"z": -0.1215892121,
				"element": "C" 
			},
			{
				"x": 0.4288883738,
				"y": 1.3587373372,
				"z": 0.2786885044,
				"element": "C" 
			},
			{
				"x": 0.3307781731,
				"y": 2.2996498515,
				"z": -0.7786972357,
				"element": "C" 
			},
			{
				"x": -0.4728532506,
				"y": 1.8691486253,
				"z": -1.7447414104,
				"element": "N" 
			},
			{
				"x": 1.2012322366,
				"y": 1.4782163034,
				"z": 1.48911717,
				"element": "C" 
			},
			{
				"x": 1.9480220602,
				"y": 2.4555122783,
				"z": 1.8944574364,
				"element": "N" 
			},
			{
				"x": 2.4961520448,
				"y": 2.071044182,
				"z": 3.1262030154,
				"element": "N" 
			},
			{
				"x": 2.0151480182,
				"y": 0.8889584013,
				"z": 3.3665015043,
				"element": "C" 
			},
			{
				"x": 2.179775486,
				"y": 0.1091187055,
				"z": 4.4816031494,
				"element": "N" 
			},
			{
				"x": 1.1897209883,
				"y": 0.4264122739,
				"z": 2.390318614,
				"element": "O" 
			},
			{
				"x": -2.0449988208,
				"y": -1.0486124702,
				"z": -1.6676384035,
				"element": "H" 
			},
			{
				"x": -1.3506031262,
				"y": -0.3076806973,
				"z": -3.132825426,
				"element": "H" 
			},
			{
				"x": -2.7347572149,
				"y": 0.4597620503,
				"z": -2.320638155,
				"element": "H" 
			},
			{
				"x": -0.6270336613,
				"y": -0.6280202828,
				"z": 0.3595871887,
				"element": "H" 
			},
			{
				"x": 0.8187304946,
				"y": 3.2609629212,
				"z": -0.8534523118,
				"element": "H" 
			},
			{
				"x": 2.9400335628,
				"y": 0.42664984,
				"z": 5.0676695452,
				"element": "H" 
			},
			{
				"x": 2.1871334802,
				"y": -0.8878100639,
				"z": 4.3125943843,
				"element": "H" 
			}
		],
		 "valence_orbital": [ 
			{
				"type": "occ",
				"energy": -0.29491,
				"method": "rhf"
			},
			{
				"type": "occ",
				"energy": -0.27715,
				"method": "rhf"
			},
			{
				"type": "occ",
				"energy": -0.26443,
				"method": "rhf"
			},
			{
				"type": "occ",
				"energy": -0.26118,
				"method": "rhf"
			},
			{
				"type": "occ",
				"energy": -0.21132,
				"method": "rhf"
			},
			{
				"type": "unocc",
				"energy": -0.01595,
				"method": "rhf"
			},
			{
				"type": "unocc",
				"energy": 0.01568,
				"method": "rhf"
			},
			{
				"type": "unocc",
				"energy": 0.04799,
				"method": "rhf"
			},
			{
				"type": "unocc",
				"energy": 0.06946,
				"method": "rhf"
			},
			{
				"type": "unocc",
				"energy": 0.0875,
				"method": "rhf"
			}
		],
		"cosmo_sigma_profile": { 
			"-0.025": 0.0,
			"-0.024": 0.0,
			"-0.023": 0.0,
			"-0.022": 0.0,
			"-0.021": 0.0,
			"-0.02": 0.0,
			"-0.019": 0.0,
			"-0.018": 0.0,
			"-0.017": 0.0,
			"-0.016": 0.169409205016,
			"-0.015": 1.85232944833,
			"-0.014": 2.63974735038,
			"-0.013": 2.52189986796,
			"-0.012": 2.41536582738,
			"-0.011": 2.18458779476,
			"-0.01": 4.40582434776,
			"-0.009": 4.02574684447,
			"-0.008": 5.89263038536,
			"-0.007": 8.00694863005,
			"-0.006": 9.67965336232,
			"-0.005": 10.3327164059,
			"-0.004": 12.8142778684,
			"-0.003": 13.874676034,
			"-0.002": 7.97812465374,
			"-0.001": 10.2011048491,
			"0.0": 10.494952607,
			"0.001": 10.6413767168,
			"0.002": 13.2538169358,
			"0.003": 11.9660772451,
			"0.004": 6.44290600053,
			"0.005": 3.9947313148,
			"0.006": 4.33379601726,
			"0.007": 4.80092348953,
			"0.008": 2.69807523048,
			"0.009": 4.36720733486,
			"0.01": 3.93900432432,
			"0.011": 3.98268654535,
			"0.012": 4.28161630335,
			"0.013": 4.56387704781,
			"0.014": 4.0341834277,
			"0.015": 2.92225064651,
			"0.016": 1.55480876018,
			"0.017": 0.128011576781,
			"0.018": 0.0,
			"0.019": 0.0,
			"0.02": 0.0,
			"0.021": 0.0,
			"0.022": 0.0,
			"0.023": 0.0,
			"0.024": 0.0,
			"0.025": 0.0
		}
	}
}
