{
	 "smiles": "CC1=NN(CC2=C(Cl)C=CC=C2Cl)C2=C1C=C(S2)C(O)=O", 
	 "Tm": 556.15, 
	 "num_atms": 31, 
	 "gaussian": { 
		 "optdone": 1, 
		 "sigma_profile": "yes", 
		 "theory": "DFT", 
		 "functional": "B3LYP", 
		 "basiset": "6-31G**", 
		 "properties": { 
			 "R2extent": 8230.6109, 
			 "electric_dipole_moment_norm": 5.41537828873, 
			 "electric_quadrupole_moment_norm": 31.7228878347, 
			 "total_energy": -2118.01341486, 
			 "HOMO_LUMO_gap": 0.17748, 
			 "cosmo_polarized_energy": -17.4, 
			 "cosmo_cavitation_energy": 40.83, 
			 "cosmo_dispersion_energy": -28.65, 
			 "cosmo_repulsion_energy": 2.17, 
			 "cosmo_total_nonelectrostatic_energy": 14.35, 
			 "SMD_solvation_energy": 6.38 
		},
		"coords": [
			{
				"x": -4.0352513283,
				"y": -2.0696323505,
				"z": -1.5016691226,
				"element": "C" 
			},
			{
				"x": -2.8091841662,
				"y": -1.4524765069,
				"z": -0.9060158468,
				"element": "C" 
			},
			{
				"x": -1.6598838869,
				"y": -2.1171927579,
				"z": -0.8792097531,
				"element": "N" 
			},
			{
				"x": -0.736464643,
				"y": -1.3060294691,
				"z": -0.2632403954,
				"element": "N" 
			},
			{
				"x": 0.6524917083,
				"y": -1.7507004376,
				"z": -0.1930459448,
				"element": "C" 
			},
			{
				"x": 1.3042081688,
				"y": -1.476011704,
				"z": 1.1462575238,
				"element": "C" 
			},
			{
				"x": 0.9567743626,
				"y": -2.2127785717,
				"z": 2.2953856504,
				"element": "C" 
			},
			{
				"x": -0.2559455993,
				"y": -3.4749231739,
				"z": 2.1858392758,
				"element": "Cl" 
			},
			{
				"x": 1.5502043623,
				"y": -1.9903652406,
				"z": 3.5357809001,
				"element": "C" 
			},
			{
				"x": 2.5301885638,
				"y": -1.0075881217,
				"z": 3.6556861397,
				"element": "C" 
			},
			{
				"x": 2.9139091098,
				"y": -0.2591157402,
				"z": 2.5469145447,
				"element": "C" 
			},
			{
				"x": 2.302012373,
				"y": -0.4990700327,
				"z": 1.316548206,
				"element": "C" 
			},
			{
				"x": 2.8389675038,
				"y": 0.4832171422,
				"z": -0.0449240029,
				"element": "Cl" 
			},
			{
				"x": -1.3045366004,
				"y": -0.1254818677,
				"z": 0.073513573,
				"element": "C" 
			},
			{
				"x": -2.6508401778,
				"y": -0.1661291965,
				"z": -0.3055172713,
				"element": "C" 
			},
			{
				"x": -3.3427098194,
				"y": 1.0293173268,
				"z": 0.038288827,
				"element": "C" 
			},
			{
				"x": -2.5319668895,
				"y": 1.9474740541,
				"z": 0.6533960922,
				"element": "C" 
			},
			{
				"x": -0.8576855971,
				"y": 1.3514445357,
				"z": 0.8708997025,
				"element": "S" 
			},
			{
				"x": -2.9696235256,
				"y": 3.2866706479,
				"z": 1.0962793432,
				"element": "C" 
			},
			{
				"x": -1.9985152732,
				"y": 4.1792941894,
				"z": 1.4407219452,
				"element": "O" 
			},
			{
				"x": -4.1350629366,
				"y": 3.6042768453,
				"z": 1.1628282486,
				"element": "O" 
			},
			{
				"x": -4.4225715479,
				"y": -1.4645378923,
				"z": -2.3288539357,
				"element": "H" 
			},
			{
				"x": -3.8009370625,
				"y": -3.0666494861,
				"z": -1.8799329036,
				"element": "H" 
			},
			{
				"x": -4.8354754522,
				"y": -2.1586308162,
				"z": -0.7585658463,
				"element": "H" 
			},
			{
				"x": 0.613141984,
				"y": -2.823954528,
				"z": -0.3863327205,
				"element": "H" 
			},
			{
				"x": 1.2291795259,
				"y": -1.2803792832,
				"z": -0.9923795011,
				"element": "H" 
			},
			{
				"x": 1.2459800776,
				"y": -2.5848560502,
				"z": 4.389270624,
				"element": "H" 
			},
			{
				"x": 2.9989123068,
				"y": -0.8264426137,
				"z": 4.6177311163,
				"element": "H" 
			},
			{
				"x": 3.6777895314,
				"y": 0.5054317277,
				"z": 2.6251934024,
				"element": "H" 
			},
			{
				"x": -4.3868178741,
				"y": 1.2445285566,
				"z": -0.15354968,
				"element": "H" 
			},
			{
				"x": -1.1231871982,
				"y": 3.8713908149,
				"z": 1.1639018091,
				"element": "H" 
			}
		],
		 "valence_orbital": [ 
			{
				"type": "occ",
				"energy": -0.27884,
				"method": "rhf"
			},
			{
				"type": "occ",
				"energy": -0.27178,
				"method": "rhf"
			},
			{
				"type": "occ",
				"energy": -0.26675,
				"method": "rhf"
			},
			{
				"type": "occ",
				"energy": -0.24603,
				"method": "rhf"
			},
			{
				"type": "occ",
				"energy": -0.22826,
				"method": "rhf"
			},
			{
				"type": "unocc",
				"energy": -0.05078,
				"method": "rhf"
			},
			{
				"type": "unocc",
				"energy": -0.04819,
				"method": "rhf"
			},
			{
				"type": "unocc",
				"energy": -0.04059,
				"method": "rhf"
			},
			{
				"type": "unocc",
				"energy": -0.01051,
				"method": "rhf"
			},
			{
				"type": "unocc",
				"energy": -0.00661,
				"method": "rhf"
			}
		],
		"cosmo_sigma_profile": { 
			"-0.025": 0.0,
			"-0.024": 0.0,
			"-0.023": 0.0,
			"-0.022": 0.0,
			"-0.021": 0.0,
			"-0.02": 0.0,
			"-0.019": 0.0,
			"-0.018": 0.311317373634,
			"-0.017": 1.10663646773,
			"-0.016": 0.718073416027,
			"-0.015": 0.790904381921,
			"-0.014": 0.941322304437,
			"-0.013": 1.30255018123,
			"-0.012": 0.8256035146,
			"-0.011": 0.755268972446,
			"-0.01": 0.692308873926,
			"-0.009": 1.32058463015,
			"-0.008": 6.35747546623,
			"-0.007": 11.7132787835,
			"-0.006": 13.2567866173,
			"-0.005": 18.4533731793,
			"-0.004": 19.7950212717,
			"-0.003": 20.5286501932,
			"-0.002": 20.3928188389,
			"-0.001": 25.8961246792,
			"0.0": 35.6109272614,
			"0.001": 37.7139413869,
			"0.002": 33.2764041819,
			"0.003": 23.2036457775,
			"0.004": 15.9189028282,
			"0.005": 4.93650837565,
			"0.006": 4.50436232662,
			"0.007": 4.0831240508,
			"0.008": 3.90910203123,
			"0.009": 5.1414343465,
			"0.01": 5.30990293661,
			"0.011": 6.4265924036,
			"0.012": 5.81209035588,
			"0.013": 2.17107481927,
			"0.014": 0.743842504831,
			"0.015": 0.0379423464171,
			"0.016": 0.0,
			"0.017": 0.0,
			"0.018": 0.0,
			"0.019": 0.0,
			"0.02": 0.0,
			"0.021": 0.0,
			"0.022": 0.0,
			"0.023": 0.0,
			"0.024": 0.0,
			"0.025": 0.0
		}
	}
}
