{
	 "smiles": "CC(C)NS(=O)(=O)C1CCNC1", 
	 "Tm": 378.15, 
	 "num_atms": 28, 
	 "gaussian": { 
		 "optdone": 1, 
		 "sigma_profile": "yes", 
		 "theory": "DFT", 
		 "functional": "B3LYP", 
		 "basiset": "6-31G**", 
		 "properties": { 
			 "R2extent": 3091.1637, 
			 "electric_dipole_moment_norm": 4.77127776597, 
			 "electric_quadrupole_moment_norm": 11.2276102698, 
			 "total_energy": -934.461860529, 
			 "HOMO_LUMO_gap": 0.29064, 
			 "cosmo_polarized_energy": -16.27, 
			 "cosmo_cavitation_energy": 30.08, 
			 "cosmo_dispersion_energy": -21.85, 
			 "cosmo_repulsion_energy": 1.7, 
			 "cosmo_total_nonelectrostatic_energy": 9.93, 
			 "SMD_solvation_energy": 0.72 
		},
		"coords": [
			{
				"x": -3.0256916177,
				"y": -0.2278182141,
				"z": -2.3856073948,
				"element": "C" 
			},
			{
				"x": -2.0480948744,
				"y": -0.7026603872,
				"z": -1.3078364484,
				"element": "C" 
			},
			{
				"x": -2.3370137103,
				"y": -0.0485331127,
				"z": 0.0446826724,
				"element": "C" 
			},
			{
				"x": -0.6786871276,
				"y": -0.3570748932,
				"z": -1.7745686544,
				"element": "N" 
			},
			{
				"x": 0.6571011102,
				"y": -1.1239073234,
				"z": -1.0559579986,
				"element": "S" 
			},
			{
				"x": 0.1969773336,
				"y": -2.1844050814,
				"z": -0.1476962888,
				"element": "O" 
			},
			{
				"x": 1.5823866376,
				"y": -1.4220927011,
				"z": -2.1599393862,
				"element": "O" 
			},
			{
				"x": 1.3979574469,
				"y": 0.1773252167,
				"z": -0.0281598512,
				"element": "C" 
			},
			{
				"x": 1.9833151017,
				"y": 1.3509741874,
				"z": -0.8517129456,
				"element": "C" 
			},
			{
				"x": 3.5080656792,
				"y": 1.2349344564,
				"z": -0.6098942901,
				"element": "C" 
			},
			{
				"x": 3.6717706023,
				"y": 0.620216642,
				"z": 0.7147150139,
				"element": "N" 
			},
			{
				"x": 2.6186047647,
				"y": -0.3976311607,
				"z": 0.7705965503,
				"element": "C" 
			},
			{
				"x": -4.0519853393,
				"y": -0.4664964632,
				"z": -2.0920917158,
				"element": "H" 
			},
			{
				"x": -2.9518604497,
				"y": 0.8551643779,
				"z": -2.5296459365,
				"element": "H" 
			},
			{
				"x": -2.8325267535,
				"y": -0.7181319335,
				"z": -3.3465055816,
				"element": "H" 
			},
			{
				"x": -2.1394691846,
				"y": -1.7905025789,
				"z": -1.1946014765,
				"element": "H" 
			},
			{
				"x": -3.3619844138,
				"y": -0.2728634394,
				"z": 0.3565827915,
				"element": "H" 
			},
			{
				"x": -1.667917588,
				"y": -0.433216982,
				"z": 0.8186807052,
				"element": "H" 
			},
			{
				"x": -2.2243576852,
				"y": 1.0389219916,
				"z": -0.0200018488,
				"element": "H" 
			},
			{
				"x": -0.5638390015,
				"y": -0.4989050359,
				"z": -2.775939517,
				"element": "H" 
			},
			{
				"x": 0.5920549191,
				"y": 0.4976298298,
				"z": 0.6358774177,
				"element": "H" 
			},
			{
				"x": 1.7123597826,
				"y": 1.3036462156,
				"z": -1.9087622855,
				"element": "H" 
			},
			{
				"x": 1.5986661461,
				"y": 2.2960391624,
				"z": -0.4546682705,
				"element": "H" 
			},
			{
				"x": 4.03033148,
				"y": 2.193949272,
				"z": -0.6620396658,
				"element": "H" 
			},
			{
				"x": 3.9498155505,
				"y": 0.5671186316,
				"z": -1.3580778767,
				"element": "H" 
			},
			{
				"x": 3.4847247356,
				"y": 1.3253464157,
				"z": 1.4258473459,
				"element": "H" 
			},
			{
				"x": 2.9854554477,
				"y": -1.3086285184,
				"z": 0.2853208121,
				"element": "H" 
			},
			{
				"x": 2.3603410075,
				"y": -0.6517985737,
				"z": 1.8001041238,
				"element": "H" 
			}
		],
		 "valence_orbital": [ 
			{
				"type": "occ",
				"energy": -0.30971,
				"method": "rhf"
			},
			{
				"type": "occ",
				"energy": -0.29787,
				"method": "rhf"
			},
			{
				"type": "occ",
				"energy": -0.29159,
				"method": "rhf"
			},
			{
				"type": "occ",
				"energy": -0.27044,
				"method": "rhf"
			},
			{
				"type": "occ",
				"energy": -0.23515,
				"method": "rhf"
			},
			{
				"type": "unocc",
				"energy": 0.05549,
				"method": "rhf"
			},
			{
				"type": "unocc",
				"energy": 0.05769,
				"method": "rhf"
			},
			{
				"type": "unocc",
				"energy": 0.06922,
				"method": "rhf"
			},
			{
				"type": "unocc",
				"energy": 0.07917,
				"method": "rhf"
			},
			{
				"type": "unocc",
				"energy": 0.09473,
				"method": "rhf"
			}
		],
		"cosmo_sigma_profile": { 
			"-0.025": 0.0,
			"-0.024": 0.0,
			"-0.023": 0.0,
			"-0.022": 0.0,
			"-0.021": 0.0,
			"-0.02": 0.0,
			"-0.019": 0.0,
			"-0.018": 0.0,
			"-0.017": 0.0,
			"-0.016": 0.0,
			"-0.015": 0.0,
			"-0.014": 0.000319829755939,
			"-0.013": 0.546889975712,
			"-0.012": 1.04053374884,
			"-0.011": 1.39043340424,
			"-0.01": 2.70370246711,
			"-0.009": 3.1413807752,
			"-0.008": 3.37160290099,
			"-0.007": 4.6105967319,
			"-0.006": 9.77558344855,
			"-0.005": 13.2290603652,
			"-0.004": 21.0578890725,
			"-0.003": 26.5542687356,
			"-0.002": 25.5557192419,
			"-0.001": 24.9314849687,
			"0.0": 19.4597493304,
			"0.001": 11.623239621,
			"0.002": 5.95922232625,
			"0.003": 6.28696344067,
			"0.004": 4.85967183433,
			"0.005": 3.99948425608,
			"0.006": 5.08653170839,
			"0.007": 3.19906431407,
			"0.008": 3.47515164569,
			"0.009": 5.23679090135,
			"0.01": 5.3143072045,
			"0.011": 8.9265213138,
			"0.012": 7.05605378051,
			"0.013": 1.74382850915,
			"0.014": 0.521192675409,
			"0.015": 0.655303077748,
			"0.016": 0.70715203989,
			"0.017": 0.608470981196,
			"0.018": 0.459201068236,
			"0.019": 0.0512107651754,
			"0.02": 0.0,
			"0.021": 0.0,
			"0.022": 0.0,
			"0.023": 0.0,
			"0.024": 0.0,
			"0.025": 0.0
		}
	}
}
