{
	 "smiles": "CC(=O)C1=CC=NC=C1", 
	 "Tm": 288.65, 
	 "num_atms": 16, 
	 "gaussian": { 
		 "optdone": 1, 
		 "sigma_profile": "yes", 
		 "theory": "DFT", 
		 "functional": "B3LYP", 
		 "basiset": "6-31G**", 
		 "properties": { 
			 "R2extent": 1590.7635, 
			 "electric_dipole_moment_norm": 2.34518149831, 
			 "electric_quadrupole_moment_norm": 13.2639944104, 
			 "total_energy": -400.931843242, 
			 "HOMO_LUMO_gap": 0.18385, 
			 "cosmo_polarized_energy": -9.28, 
			 "cosmo_cavitation_energy": 20.25, 
			 "cosmo_dispersion_energy": -14.93, 
			 "cosmo_repulsion_energy": 1.21, 
			 "cosmo_total_nonelectrostatic_energy": 6.53, 
			 "SMD_solvation_energy": 2.96 
		},
		"coords": [
			{
				"x": 2.481279609,
				"y": 1.7136636118,
				"z": 0.3396917292,
				"element": "C" 
			},
			{
				"x": 1.0878362557,
				"y": 1.7058965134,
				"z": -0.2593741014,
				"element": "C" 
			},
			{
				"x": 0.3457819971,
				"y": 2.6668608254,
				"z": -0.1439116041,
				"element": "O" 
			},
			{
				"x": 0.6279834201,
				"y": 0.4817635162,
				"z": -1.0077076342,
				"element": "C" 
			},
			{
				"x": 1.4196708,
				"y": -0.6588662016,
				"z": -1.1827563236,
				"element": "C" 
			},
			{
				"x": 0.8931025722,
				"y": -1.7386505967,
				"z": -1.8945527015,
				"element": "C" 
			},
			{
				"x": -0.3344041135,
				"y": -1.75134658,
				"z": -2.4256195915,
				"element": "N" 
			},
			{
				"x": -1.0864612118,
				"y": -0.6544188299,
				"z": -2.253307025,
				"element": "C" 
			},
			{
				"x": -0.6581304059,
				"y": 0.475277035,
				"z": -1.5610371866,
				"element": "C" 
			},
			{
				"x": 2.6009225452,
				"y": 0.8984979516,
				"z": 1.0620299255,
				"element": "H" 
			},
			{
				"x": 3.241548431,
				"y": 1.5742575852,
				"z": -0.4369362578,
				"element": "H" 
			},
			{
				"x": 2.6436262948,
				"y": 2.6687106804,
				"z": 0.8396121705,
				"element": "H" 
			},
			{
				"x": 2.4251463851,
				"y": -0.7205940937,
				"z": -0.7802348721,
				"element": "H" 
			},
			{
				"x": 1.4899210579,
				"y": -2.6366917182,
				"z": -2.0437003331,
				"element": "H" 
			},
			{
				"x": -2.0817817122,
				"y": -0.6838184791,
				"z": -2.6925174683,
				"element": "H" 
			},
			{
				"x": -1.2935419248,
				"y": 1.3457587803,
				"z": -1.4407787261,
				"element": "H" 
			}
		],
		 "valence_orbital": [ 
			{
				"type": "occ",
				"energy": -0.369,
				"method": "rhf"
			},
			{
				"type": "occ",
				"energy": -0.29412,
				"method": "rhf"
			},
			{
				"type": "occ",
				"energy": -0.27246,
				"method": "rhf"
			},
			{
				"type": "occ",
				"energy": -0.26815,
				"method": "rhf"
			},
			{
				"type": "occ",
				"energy": -0.25839,
				"method": "rhf"
			},
			{
				"type": "unocc",
				"energy": -0.07454,
				"method": "rhf"
			},
			{
				"type": "unocc",
				"energy": -0.02078,
				"method": "rhf"
			},
			{
				"type": "unocc",
				"energy": 0.0231,
				"method": "rhf"
			},
			{
				"type": "unocc",
				"energy": 0.08648,
				"method": "rhf"
			},
			{
				"type": "unocc",
				"energy": 0.1188,
				"method": "rhf"
			}
		],
		"cosmo_sigma_profile": { 
			"-0.025": 0.0,
			"-0.024": 0.0,
			"-0.023": 0.0,
			"-0.022": 0.0,
			"-0.021": 0.0,
			"-0.02": 0.0,
			"-0.019": 0.0,
			"-0.018": 0.0,
			"-0.017": 0.0,
			"-0.016": 0.0,
			"-0.015": 0.0,
			"-0.014": 0.0,
			"-0.013": 0.0,
			"-0.012": 0.0,
			"-0.011": 0.0,
			"-0.01": 0.0,
			"-0.009": 0.0,
			"-0.008": 0.909125159448,
			"-0.007": 8.99063560768,
			"-0.006": 16.4540507563,
			"-0.005": 12.7275968944,
			"-0.004": 11.45740257,
			"-0.003": 11.02530803,
			"-0.002": 11.5157047358,
			"-0.001": 12.2759334061,
			"0.0": 11.991834558,
			"0.001": 17.5180017414,
			"0.002": 9.24031879674,
			"0.003": 3.56117479727,
			"0.004": 4.61697430811,
			"0.005": 3.34874934098,
			"0.006": 2.53783536489,
			"0.007": 2.76403055706,
			"0.008": 3.1953080737,
			"0.009": 2.99229066946,
			"0.01": 2.80036132817,
			"0.011": 5.45578917119,
			"0.012": 3.10292888968,
			"0.013": 1.30178239814,
			"0.014": 0.541380006496,
			"0.015": 1.14675276106,
			"0.016": 0.583471198837,
			"0.017": 0.0534506619654,
			"0.018": 0.0,
			"0.019": 0.0,
			"0.02": 0.0,
			"0.021": 0.0,
			"0.022": 0.0,
			"0.023": 0.0,
			"0.024": 0.0,
			"0.025": 0.0
		}
	}
}
