{
	 "smiles": "OC(=O)CCC=C", 
	 "Tm": 250.95, 
	 "num_atms": 15, 
	 "gaussian": { 
		 "optdone": 1, 
		 "sigma_profile": "yes", 
		 "theory": "DFT", 
		 "functional": "B3LYP", 
		 "basiset": "6-31G**", 
		 "properties": { 
			 "R2extent": 1345.1069, 
			 "electric_dipole_moment_norm": 4.21274408551, 
			 "electric_quadrupole_moment_norm": 17.6522570772, 
			 "total_energy": -345.784832739, 
			 "HOMO_LUMO_gap": 0.26471, 
			 "cosmo_polarized_energy": -13.91, 
			 "cosmo_cavitation_energy": 19.26, 
			 "cosmo_dispersion_energy": -13.67, 
			 "cosmo_repulsion_energy": 1.19, 
			 "cosmo_total_nonelectrostatic_energy": 6.77, 
			 "SMD_solvation_energy": 5.15 
		},
		"coords": [
			{
				"x": 2.203111736,
				"y": 0.8561006547,
				"z": -2.1829982544,
				"element": "O" 
			},
			{
				"x": 0.9105997524,
				"y": 0.703384559,
				"z": -2.5906901971,
				"element": "C" 
			},
			{
				"x": 0.6643678049,
				"y": 0.5459393977,
				"z": -3.7592975541,
				"element": "O" 
			},
			{
				"x": -0.1336794975,
				"y": 0.7240575277,
				"z": -1.4825497872,
				"element": "C" 
			},
			{
				"x": -0.0073738643,
				"y": -0.4769838106,
				"z": -0.5129620024,
				"element": "C" 
			},
			{
				"x": -1.0978959763,
				"y": -0.4838474685,
				"z": 0.5233320048,
				"element": "C" 
			},
			{
				"x": -0.9024465638,
				"y": -0.4127636801,
				"z": 1.8398404649,
				"element": "C" 
			},
			{
				"x": 2.2393005439,
				"y": 0.9959210324,
				"z": -1.226410675,
				"element": "H" 
			},
			{
				"x": -0.0507736353,
				"y": 1.6608915843,
				"z": -0.9161701072,
				"element": "H" 
			},
			{
				"x": -1.1119050551,
				"y": 0.71675373,
				"z": -1.9679890219,
				"element": "H" 
			},
			{
				"x": -0.0504206503,
				"y": -1.4017209733,
				"z": -1.1040734023,
				"element": "H" 
			},
			{
				"x": 0.9701853276,
				"y": -0.4698324267,
				"z": -0.0144610712,
				"element": "H" 
			},
			{
				"x": -2.1161650387,
				"y": -0.5457252126,
				"z": 0.1376250875,
				"element": "H" 
			},
			{
				"x": 0.0959894521,
				"y": -0.351001883,
				"z": 2.2673670163,
				"element": "H" 
			},
			{
				"x": -1.7312943357,
				"y": -0.4211730308,
				"z": 2.5411374994,
				"element": "H" 
			}
		],
		 "valence_orbital": [ 
			{
				"type": "occ",
				"energy": -0.37106,
				"method": "rhf"
			},
			{
				"type": "occ",
				"energy": -0.35678,
				"method": "rhf"
			},
			{
				"type": "occ",
				"energy": -0.31494,
				"method": "rhf"
			},
			{
				"type": "occ",
				"energy": -0.27698,
				"method": "rhf"
			},
			{
				"type": "occ",
				"energy": -0.26337,
				"method": "rhf"
			},
			{
				"type": "unocc",
				"energy": 0.00134,
				"method": "rhf"
			},
			{
				"type": "unocc",
				"energy": 0.01149,
				"method": "rhf"
			},
			{
				"type": "unocc",
				"energy": 0.04519,
				"method": "rhf"
			},
			{
				"type": "unocc",
				"energy": 0.10337,
				"method": "rhf"
			},
			{
				"type": "unocc",
				"energy": 0.11204,
				"method": "rhf"
			}
		],
		"cosmo_sigma_profile": { 
			"-0.025": 0.0,
			"-0.024": 0.0,
			"-0.023": 0.0,
			"-0.022": 0.0,
			"-0.021": 0.0,
			"-0.02": 0.0,
			"-0.019": 0.228164977573,
			"-0.018": 0.892762185032,
			"-0.017": 1.19156804034,
			"-0.016": 1.75702724873,
			"-0.015": 0.782333045344,
			"-0.014": 0.738030260706,
			"-0.013": 1.30242955389,
			"-0.012": 0.791688255282,
			"-0.011": 1.28901050217,
			"-0.01": 0.768310077445,
			"-0.009": 1.14257127269,
			"-0.008": 1.41555183795,
			"-0.007": 2.75727365573,
			"-0.006": 2.95211096932,
			"-0.005": 13.4564787075,
			"-0.004": 16.3359495298,
			"-0.003": 13.3151431743,
			"-0.002": 12.4024388084,
			"-0.001": 9.45124515908,
			"0.0": 7.8425956837,
			"0.001": 5.92366474531,
			"0.002": 5.85723403979,
			"0.003": 5.89093262072,
			"0.004": 4.79356570038,
			"0.005": 4.90728944353,
			"0.006": 4.37568387505,
			"0.007": 3.94857775285,
			"0.008": 2.40881726025,
			"0.009": 3.35882897846,
			"0.01": 3.9860663185,
			"0.011": 6.12390216894,
			"0.012": 5.96442956765,
			"0.013": 2.91540594796,
			"0.014": 0.134968598638,
			"0.015": 0.0,
			"0.016": 0.0,
			"0.017": 0.0,
			"0.018": 0.0,
			"0.019": 0.0,
			"0.02": 0.0,
			"0.021": 0.0,
			"0.022": 0.0,
			"0.023": 0.0,
			"0.024": 0.0,
			"0.025": 0.0
		}
	}
}
