{
	 "smiles": "OC(=O)COC1=C(Br)C=C(Br)C=C1", 
	 "Tm": 424.15, 
	 "num_atms": 19, 
	 "gaussian": { 
		 "optdone": 1, 
		 "sigma_profile": "yes", 
		 "theory": "DFT", 
		 "functional": "B3LYP", 
		 "basiset": "6-31G**", 
		 "properties": { 
			 "R2extent": 9401.8812, 
			 "electric_dipole_moment_norm": 3.24803453338, 
			 "electric_quadrupole_moment_norm": 14.2777915081, 
			 "total_energy": -5676.93875893, 
			 "HOMO_LUMO_gap": 0.20311, 
			 "cosmo_polarized_energy": -13.53, 
			 "cosmo_cavitation_energy": 28.9, 
			 "cosmo_dispersion_energy": -21.77, 
			 "cosmo_repulsion_energy": 1.73, 
			 "cosmo_total_nonelectrostatic_energy": 8.86, 
			 "SMD_solvation_energy": 4.32 
		},
		"coords": [
			{
				"x": -0.6880166647,
				"y": -2.8416726844,
				"z": 1.0854344354,
				"element": "O" 
			},
			{
				"x": -1.002650921,
				"y": -2.2069419764,
				"z": -0.0526077102,
				"element": "C" 
			},
			{
				"x": -1.4404225637,
				"y": -2.7681386457,
				"z": -1.0249271755,
				"element": "O" 
			},
			{
				"x": -0.7735506558,
				"y": -0.69254331,
				"z": -0.0596883939,
				"element": "C" 
			},
			{
				"x": -0.2553526166,
				"y": -0.3122055479,
				"z": 1.2090648622,
				"element": "O" 
			},
			{
				"x": 0.0383627902,
				"y": 0.9919042389,
				"z": 1.4731371527,
				"element": "C" 
			},
			{
				"x": 0.5460668539,
				"y": 1.2847090539,
				"z": 2.7504798741,
				"element": "C" 
			},
			{
				"x": 0.7907885444,
				"y": -0.1207225127,
				"z": 4.0123793526,
				"element": "Br" 
			},
			{
				"x": 0.8732337659,
				"y": 2.5874281216,
				"z": 3.1078747474,
				"element": "C" 
			},
			{
				"x": 0.6925233526,
				"y": 3.61426336,
				"z": 2.1803298795,
				"element": "C" 
			},
			{
				"x": 1.1405874611,
				"y": 5.402346527,
				"z": 2.6687497109,
				"element": "Br" 
			},
			{
				"x": 0.1915844195,
				"y": 3.3464101475,
				"z": 0.9108711519,
				"element": "C" 
			},
			{
				"x": -0.1346886921,
				"y": 2.0352697076,
				"z": 0.5594064696,
				"element": "C" 
			},
			{
				"x": -0.3550952555,
				"y": -2.1914736093,
				"z": 1.7304186033,
				"element": "H" 
			},
			{
				"x": -1.7305070015,
				"y": -0.1987835056,
				"z": -0.2666392472,
				"element": "H" 
			},
			{
				"x": -0.0724095717,
				"y": -0.4523082127,
				"z": -0.8678133618,
				"element": "H" 
			},
			{
				"x": 1.2632213341,
				"y": 2.7958254842,
				"z": 4.0959752851,
				"element": "H" 
			},
			{
				"x": 0.0540120733,
				"y": 4.1489135555,
				"z": 0.1959088581,
				"element": "H" 
			},
			{
				"x": -0.5242866525,
				"y": 1.8362198085,
				"z": -0.4319544943,
				"element": "H" 
			}
		],
		 "valence_orbital": [ 
			{
				"type": "occ",
				"energy": -0.30875,
				"method": "rhf"
			},
			{
				"type": "occ",
				"energy": -0.30137,
				"method": "rhf"
			},
			{
				"type": "occ",
				"energy": -0.2835,
				"method": "rhf"
			},
			{
				"type": "occ",
				"energy": -0.27348,
				"method": "rhf"
			},
			{
				"type": "occ",
				"energy": -0.24571,
				"method": "rhf"
			},
			{
				"type": "unocc",
				"energy": -0.0426,
				"method": "rhf"
			},
			{
				"type": "unocc",
				"energy": -0.02919,
				"method": "rhf"
			},
			{
				"type": "unocc",
				"energy": -0.02866,
				"method": "rhf"
			},
			{
				"type": "unocc",
				"energy": 0.00117,
				"method": "rhf"
			},
			{
				"type": "unocc",
				"energy": 0.0114,
				"method": "rhf"
			}
		],
		"cosmo_sigma_profile": { 
			"-0.025": 0.0,
			"-0.024": 0.0,
			"-0.023": 0.0,
			"-0.022": 0.0,
			"-0.021": 0.0,
			"-0.02": 0.0,
			"-0.019": 0.0,
			"-0.018": 0.0,
			"-0.017": 0.0,
			"-0.016": 0.0,
			"-0.015": 0.0,
			"-0.014": 0.0,
			"-0.013": 0.0,
			"-0.012": 0.0,
			"-0.011": 0.0,
			"-0.01": 1.43646267701,
			"-0.009": 10.2340216256,
			"-0.008": 11.6512461728,
			"-0.007": 11.9609969918,
			"-0.006": 10.3399236218,
			"-0.005": 8.60820411417,
			"-0.004": 10.3053869936,
			"-0.003": 10.6973155905,
			"-0.002": 11.4184431786,
			"-0.001": 13.0614238673,
			"0.0": 19.5870954072,
			"0.001": 26.284513036,
			"0.002": 22.5168745552,
			"0.003": 18.1480635116,
			"0.004": 19.6683448284,
			"0.005": 6.0559400363,
			"0.006": 1.85276371458,
			"0.007": 2.0848035578,
			"0.008": 3.56159216728,
			"0.009": 4.50973179159,
			"0.01": 4.23735464784,
			"0.011": 5.03144236196,
			"0.012": 4.54713416746,
			"0.013": 0.710832733626,
			"0.014": 0.0,
			"0.015": 0.0,
			"0.016": 0.0,
			"0.017": 0.0,
			"0.018": 0.0,
			"0.019": 0.0,
			"0.02": 0.0,
			"0.021": 0.0,
			"0.022": 0.0,
			"0.023": 0.0,
			"0.024": 0.0,
			"0.025": 0.0
		}
	}
}
