{
	 "smiles": "CC(C)NCC(O)COC1=CC=CC2=C1C=CC=C2", 
	 "Tm": 435.15, 
	 "num_atms": 40, 
	 "gaussian": { 
		 "optdone": 1, 
		 "sigma_profile": "yes", 
		 "theory": "DFT", 
		 "functional": "B3LYP", 
		 "basiset": "6-31G**", 
		 "properties": { 
			 "R2extent": 8566.8311, 
			 "electric_dipole_moment_norm": 3.59424518641, 
			 "electric_quadrupole_moment_norm": 13.3045315152, 
			 "total_energy": -827.550660997, 
			 "HOMO_LUMO_gap": 0.1696, 
			 "cosmo_polarized_energy": -13.64, 
			 "cosmo_cavitation_energy": 41.63, 
			 "cosmo_dispersion_energy": -29.45, 
			 "cosmo_repulsion_energy": 2.27, 
			 "cosmo_total_nonelectrostatic_energy": 14.45, 
			 "SMD_solvation_energy": 5.82 
		},
		"coords": [
			{
				"x": 0.2715369078,
				"y": -0.8011163895,
				"z": -5.9433930138,
				"element": "C" 
			},
			{
				"x": 1.0458455951,
				"y": -0.3254354653,
				"z": -4.7000620003,
				"element": "C" 
			},
			{
				"x": 1.4209523992,
				"y": 1.1580007647,
				"z": -4.804133834,
				"element": "C" 
			},
			{
				"x": 0.3796324975,
				"y": -0.6106949591,
				"z": -3.413850445,
				"element": "N" 
			},
			{
				"x": -0.9695700647,
				"y": -0.0854738545,
				"z": -3.2267860683,
				"element": "C" 
			},
			{
				"x": -1.4620952249,
				"y": -0.3077218682,
				"z": -1.7842088993,
				"element": "C" 
			},
			{
				"x": -2.8555210611,
				"y": -0.0072466134,
				"z": -1.6999993916,
				"element": "O" 
			},
			{
				"x": -0.6008491023,
				"y": 0.4598581932,
				"z": -0.7742109603,
				"element": "C" 
			},
			{
				"x": -0.5622281412,
				"y": -0.1342600202,
				"z": 0.5252736407,
				"element": "O" 
			},
			{
				"x": -1.3241356188,
				"y": 0.3623659176,
				"z": 1.5496328149,
				"element": "C" 
			},
			{
				"x": -2.56223259,
				"y": 0.9489278532,
				"z": 1.3821883572,
				"element": "C" 
			},
			{
				"x": -3.2755717683,
				"y": 1.4276423838,
				"z": 2.5077346279,
				"element": "C" 
			},
			{
				"x": -2.7647910188,
				"y": 1.3077489272,
				"z": 3.7783719702,
				"element": "C" 
			},
			{
				"x": -1.4997668611,
				"y": 0.6922883909,
				"z": 3.9842052404,
				"element": "C" 
			},
			{
				"x": -0.756703053,
				"y": 0.2141133203,
				"z": 2.8567501902,
				"element": "C" 
			},
			{
				"x": 0.5119469534,
				"y": -0.3870109223,
				"z": 3.0659479332,
				"element": "C" 
			},
			{
				"x": 1.0256318412,
				"y": -0.517811083,
				"z": 4.3378251718,
				"element": "C" 
			},
			{
				"x": 0.2940177487,
				"y": -0.0512186766,
				"z": 5.4559725071,
				"element": "C" 
			},
			{
				"x": -0.9369970173,
				"y": 0.5402431985,
				"z": 5.2803017624,
				"element": "C" 
			},
			{
				"x": -0.6611823992,
				"y": -0.2422960676,
				"z": -6.0768752659,
				"element": "H" 
			},
			{
				"x": 0.8704668464,
				"y": -0.663143647,
				"z": -6.8500431697,
				"element": "H" 
			},
			{
				"x": 0.0194873875,
				"y": -1.8650775269,
				"z": -5.8685885984,
				"element": "H" 
			},
			{
				"x": 1.9847020059,
				"y": -0.8931755329,
				"z": -4.6567301779,
				"element": "H" 
			},
			{
				"x": 0.538161215,
				"y": 1.7970332096,
				"z": -4.9174500685,
				"element": "H" 
			},
			{
				"x": 1.9651202846,
				"y": 1.4790195554,
				"z": -3.9115425149,
				"element": "H" 
			},
			{
				"x": 2.056401982,
				"y": 1.328426814,
				"z": -5.6788736867,
				"element": "H" 
			},
			{
				"x": 0.356696625,
				"y": -1.6191990818,
				"z": -3.2794206728,
				"element": "H" 
			},
			{
				"x": -1.7308526262,
				"y": -0.5194235123,
				"z": -3.8955074726,
				"element": "H" 
			},
			{
				"x": -0.9530663252,
				"y": 0.9950424443,
				"z": -3.4282783983,
				"element": "H" 
			},
			{
				"x": -1.3873273168,
				"y": -1.3737207175,
				"z": -1.5376449273,
				"element": "H" 
			},
			{
				"x": -2.9806098309,
				"y": 0.8979315859,
				"z": -2.0179722442,
				"element": "H" 
			},
			{
				"x": 0.4311535819,
				"y": 0.4360450449,
				"z": -1.1358089144,
				"element": "H" 
			},
			{
				"x": -0.9309532799,
				"y": 1.5058546768,
				"z": -0.7076485849,
				"element": "H" 
			},
			{
				"x": -3.0067675198,
				"y": 0.9858125199,
				"z": 0.3957407719,
				"element": "H" 
			},
			{
				"x": -4.2493278799,
				"y": 1.8843006365,
				"z": 2.3531973868,
				"element": "H" 
			},
			{
				"x": -3.3201949633,
				"y": 1.6721842502,
				"z": 4.6381319171,
				"element": "H" 
			},
			{
				"x": 1.0649605536,
				"y": -0.7414269873,
				"z": 2.2037504055,
				"element": "H" 
			},
			{
				"x": 1.9977962549,
				"y": -0.9795827516,
				"z": 4.48561813,
				"element": "H" 
			},
			{
				"x": 0.708184101,
				"y": -0.1601199093,
				"z": 6.4544927977,
				"element": "H" 
			},
			{
				"x": -1.5009511182,
				"y": 0.9017158994,
				"z": 6.1365936843,
				"element": "H" 
			}
		],
		 "valence_orbital": [ 
			{
				"type": "occ",
				"energy": -0.27689,
				"method": "rhf"
			},
			{
				"type": "occ",
				"energy": -0.25056,
				"method": "rhf"
			},
			{
				"type": "occ",
				"energy": -0.23207,
				"method": "rhf"
			},
			{
				"type": "occ",
				"energy": -0.2279,
				"method": "rhf"
			},
			{
				"type": "occ",
				"energy": -0.19205,
				"method": "rhf"
			},
			{
				"type": "unocc",
				"energy": -0.02245,
				"method": "rhf"
			},
			{
				"type": "unocc",
				"energy": 0.00201,
				"method": "rhf"
			},
			{
				"type": "unocc",
				"energy": 0.05022,
				"method": "rhf"
			},
			{
				"type": "unocc",
				"energy": 0.06349,
				"method": "rhf"
			},
			{
				"type": "unocc",
				"energy": 0.06761,
				"method": "rhf"
			}
		],
		"cosmo_sigma_profile": { 
			"-0.025": 0.0,
			"-0.024": 0.0,
			"-0.023": 0.0,
			"-0.022": 0.0,
			"-0.021": 0.0,
			"-0.02": 0.0,
			"-0.019": 0.0,
			"-0.018": 0.0,
			"-0.017": 0.0,
			"-0.016": 0.15933751984,
			"-0.015": 0.781892550295,
			"-0.014": 1.28718193245,
			"-0.013": 0.863766471047,
			"-0.012": 1.45206114019,
			"-0.011": 1.15369248525,
			"-0.01": 1.71390202914,
			"-0.009": 3.23682054148,
			"-0.008": 2.84282330293,
			"-0.007": 4.06882699718,
			"-0.006": 7.74199974762,
			"-0.005": 17.9978574038,
			"-0.004": 19.298130293,
			"-0.003": 31.1011752086,
			"-0.002": 35.299695036,
			"-0.001": 31.0151170325,
			"0.0": 23.7203379529,
			"0.001": 25.9364009659,
			"0.002": 21.4924161327,
			"0.003": 16.1501516212,
			"0.004": 24.8165229316,
			"0.005": 25.9059897369,
			"0.006": 12.0672859985,
			"0.007": 3.33121171727,
			"0.008": 2.64361764915,
			"0.009": 2.56457395193,
			"0.01": 1.6995242983,
			"0.011": 1.19829367971,
			"0.012": 2.1439662242,
			"0.013": 1.64475025949,
			"0.014": 1.2378255479,
			"0.015": 0.0661080599889,
			"0.016": 0.0,
			"0.017": 0.0,
			"0.018": 0.0,
			"0.019": 0.0,
			"0.02": 0.0,
			"0.021": 0.0,
			"0.022": 0.0,
			"0.023": 0.0,
			"0.024": 0.0,
			"0.025": 0.0
		}
	}
}
