{
	 "smiles": "COC(=O)C1=C(O)C(=CC(Cl)=C1)[N+]([O-])=O", 
	 "Tm": 437.15, 
	 "num_atms": 21, 
	 "gaussian": { 
		 "optdone": 1, 
		 "sigma_profile": "yes", 
		 "theory": "DFT", 
		 "functional": "B3LYP", 
		 "basiset": "6-31G**", 
		 "properties": { 
			 "R2extent": 5813.0315, 
			 "electric_dipole_moment_norm": 6.5543035122, 
			 "electric_quadrupole_moment_norm": 18.3554156499, 
			 "total_energy": -1199.43539631, 
			 "HOMO_LUMO_gap": 0.15593, 
			 "cosmo_polarized_energy": -12.41, 
			 "cosmo_cavitation_energy": 28.62, 
			 "cosmo_dispersion_energy": -21.37, 
			 "cosmo_repulsion_energy": 1.67, 
			 "cosmo_total_nonelectrostatic_energy": 8.92, 
			 "SMD_solvation_energy": 8.78 
		},
		"coords": [
			{
				"x": 2.555390879,
				"y": 0.8964140463,
				"z": -0.0163803152,
				"element": "C" 
			},
			{
				"x": 1.3277689485,
				"y": 0.1842415879,
				"z": -0.2742137533,
				"element": "O" 
			},
			{
				"x": 0.2796711192,
				"y": 0.9332039488,
				"z": -0.6287614951,
				"element": "C" 
			},
			{
				"x": 0.3499742076,
				"y": 2.1594209986,
				"z": -0.7317947004,
				"element": "O" 
			},
			{
				"x": -0.9548179913,
				"y": 0.1631425722,
				"z": -0.8807827333,
				"element": "C" 
			},
			{
				"x": -2.1220136325,
				"y": 0.8775911927,
				"z": -1.284510035,
				"element": "C" 
			},
			{
				"x": -2.1262976881,
				"y": 2.196422077,
				"z": -1.4185199589,
				"element": "O" 
			},
			{
				"x": -3.293663599,
				"y": 0.112197129,
				"z": -1.5046113556,
				"element": "C" 
			},
			{
				"x": -3.3114027829,
				"y": -1.267430085,
				"z": -1.3241336842,
				"element": "C" 
			},
			{
				"x": -2.1518449562,
				"y": -1.9359028401,
				"z": -0.9428120337,
				"element": "C" 
			},
			{
				"x": -2.1781132653,
				"y": -3.6759886978,
				"z": -0.7393622147,
				"element": "Cl" 
			},
			{
				"x": -0.977943193,
				"y": -1.2281415743,
				"z": -0.7223457337,
				"element": "C" 
			},
			{
				"x": -4.5562025285,
				"y": 0.7319136694,
				"z": -1.9367696009,
				"element": "N" 
			},
			{
				"x": -4.5064377395,
				"y": 1.8210218914,
				"z": -2.4962592492,
				"element": "O" 
			},
			{
				"x": -5.5894122273,
				"y": 0.0929723544,
				"z": -1.7226547554,
				"element": "O" 
			},
			{
				"x": 3.2805517958,
				"y": 0.1301760908,
				"z": 0.2534185262,
				"element": "H" 
			},
			{
				"x": 2.4176328275,
				"y": 1.6057933835,
				"z": 0.8022630216,
				"element": "H" 
			},
			{
				"x": 2.8755036404,
				"y": 1.4362069028,
				"z": -0.9099656132,
				"element": "H" 
			},
			{
				"x": -1.2134235078,
				"y": 2.5133141093,
				"z": -1.1901317977,
				"element": "H" 
			},
			{
				"x": -4.2424294499,
				"y": -1.7953992698,
				"z": -1.4860321418,
				"element": "H" 
			},
			{
				"x": -0.0734908567,
				"y": -1.7420694871,
				"z": -0.4220403767,
				"element": "H" 
			}
		],
		 "valence_orbital": [ 
			{
				"type": "occ",
				"energy": -0.30951,
				"method": "rhf"
			},
			{
				"type": "occ",
				"energy": -0.30695,
				"method": "rhf"
			},
			{
				"type": "occ",
				"energy": -0.30015,
				"method": "rhf"
			},
			{
				"type": "occ",
				"energy": -0.28533,
				"method": "rhf"
			},
			{
				"type": "occ",
				"energy": -0.25283,
				"method": "rhf"
			},
			{
				"type": "unocc",
				"energy": -0.0969,
				"method": "rhf"
			},
			{
				"type": "unocc",
				"energy": -0.068,
				"method": "rhf"
			},
			{
				"type": "unocc",
				"energy": -0.01755,
				"method": "rhf"
			},
			{
				"type": "unocc",
				"energy": 0.00982,
				"method": "rhf"
			},
			{
				"type": "unocc",
				"energy": 0.02552,
				"method": "rhf"
			}
		],
		"cosmo_sigma_profile": { 
			"-0.025": 0.0,
			"-0.024": 0.0,
			"-0.023": 0.0,
			"-0.022": 0.0,
			"-0.021": 0.0,
			"-0.02": 0.0,
			"-0.019": 0.0,
			"-0.018": 0.0,
			"-0.017": 0.0,
			"-0.016": 0.0,
			"-0.015": 0.0,
			"-0.014": 0.0,
			"-0.013": 0.0,
			"-0.012": 0.0,
			"-0.011": 0.0,
			"-0.01": 0.0,
			"-0.009": 0.686814153771,
			"-0.008": 3.39644883138,
			"-0.007": 8.91810046209,
			"-0.006": 14.4699845813,
			"-0.005": 18.6209667467,
			"-0.004": 19.6148843176,
			"-0.003": 21.4912976414,
			"-0.002": 20.0987675514,
			"-0.001": 19.1057774162,
			"0.0": 13.1313210662,
			"0.001": 10.6182670617,
			"0.002": 9.48604990137,
			"0.003": 15.6647207241,
			"0.004": 12.2196161308,
			"0.005": 5.31841192524,
			"0.006": 4.44456773791,
			"0.007": 9.81541551744,
			"0.008": 10.0601642662,
			"0.009": 8.17399017379,
			"0.01": 4.28249649419,
			"0.011": 1.61847128784,
			"0.012": 1.13338722807,
			"0.013": 0.132617570369,
			"0.014": 0.0,
			"0.015": 0.0,
			"0.016": 0.0,
			"0.017": 0.0,
			"0.018": 0.0,
			"0.019": 0.0,
			"0.02": 0.0,
			"0.021": 0.0,
			"0.022": 0.0,
			"0.023": 0.0,
			"0.024": 0.0,
			"0.025": 0.0
		}
	}
}
