{
	 "smiles": "NC(=NO)C1=CC=C(OCC2=CN=CC=C2)C=C1", 
	 "Tm": 439.15, 
	 "num_atms": 31, 
	 "gaussian": { 
		 "optdone": 1, 
		 "sigma_profile": "yes", 
		 "theory": "DFT", 
		 "functional": "B3LYP", 
		 "basiset": "6-31G**", 
		 "properties": { 
			 "R2extent": 8541.6461, 
			 "electric_dipole_moment_norm": 1.09399484917, 
			 "electric_quadrupole_moment_norm": 16.1580545809, 
			 "total_energy": -817.856465716, 
			 "HOMO_LUMO_gap": 0.17333, 
			 "cosmo_polarized_energy": -17.45, 
			 "cosmo_cavitation_energy": 36.09, 
			 "cosmo_dispersion_energy": -26.47, 
			 "cosmo_repulsion_energy": 2.04, 
			 "cosmo_total_nonelectrostatic_energy": 11.66, 
			 "SMD_solvation_energy": 4.88 
		},
		"coords": [
			{
				"x": -3.741229102,
				"y": -2.0461508509,
				"z": -1.6781311166,
				"element": "N" 
			},
			{
				"x": -3.4730180374,
				"y": -0.9832429778,
				"z": -0.8329849134,
				"element": "C" 
			},
			{
				"x": -4.3846537593,
				"y": -0.3114695325,
				"z": -0.2055381301,
				"element": "N" 
			},
			{
				"x": -5.6743069754,
				"y": -0.7572976139,
				"z": -0.6175628327,
				"element": "O" 
			},
			{
				"x": -2.0570778519,
				"y": -0.6300765139,
				"z": -0.5846663571,
				"element": "C" 
			},
			{
				"x": -1.7071663843,
				"y": 0.6557448941,
				"z": -0.1540748226,
				"element": "C" 
			},
			{
				"x": -0.3787881928,
				"y": 1.0020136372,
				"z": 0.0870089215,
				"element": "C" 
			},
			{
				"x": 0.6327041043,
				"y": 0.051789373,
				"z": -0.1082751472,
				"element": "C" 
			},
			{
				"x": 1.9653754704,
				"y": 0.2824348619,
				"z": 0.0867966931,
				"element": "O" 
			},
			{
				"x": 2.3707041994,
				"y": 1.555980602,
				"z": 0.5823232431,
				"element": "C" 
			},
			{
				"x": 3.8626511651,
				"y": 1.5379516259,
				"z": 0.7966763662,
				"element": "C" 
			},
			{
				"x": 4.6380826534,
				"y": 2.6632222812,
				"z": 0.4986980214,
				"element": "C" 
			},
			{
				"x": 5.9571884734,
				"y": 2.7457572852,
				"z": 0.7056168112,
				"element": "N" 
			},
			{
				"x": 6.5635820008,
				"y": 1.6702211598,
				"z": 1.221040757,
				"element": "C" 
			},
			{
				"x": 5.891702288,
				"y": 0.488897706,
				"z": 1.5431108226,
				"element": "C" 
			},
			{
				"x": 4.5174017233,
				"y": 0.4235045541,
				"z": 1.3303926162,
				"element": "C" 
			},
			{
				"x": 0.296546035,
				"y": -1.2387608976,
				"z": -0.5400520886,
				"element": "C" 
			},
			{
				"x": -1.0312007853,
				"y": -1.57328081,
				"z": -0.7709272708,
				"element": "C" 
			},
			{
				"x": -3.1129249794,
				"y": -2.1464921924,
				"z": -2.4625892604,
				"element": "H" 
			},
			{
				"x": -4.7204580443,
				"y": -2.125275649,
				"z": -1.9186710328,
				"element": "H" 
			},
			{
				"x": -6.2548192059,
				"y": -0.2062430211,
				"z": -0.0796201808,
				"element": "H" 
			},
			{
				"x": -2.4929320835,
				"y": 1.3892109063,
				"z": -0.0112280427,
				"element": "H" 
			},
			{
				"x": -0.1460110375,
				"y": 2.0091534952,
				"z": 0.4115556105,
				"element": "H" 
			},
			{
				"x": 1.8495601308,
				"y": 1.7639723803,
				"z": 1.5293255667,
				"element": "H" 
			},
			{
				"x": 2.0976108814,
				"y": 2.350963872,
				"z": -0.1253660277,
				"element": "H" 
			},
			{
				"x": 4.1674353446,
				"y": 3.5464921126,
				"z": 0.0661581106,
				"element": "H" 
			},
			{
				"x": 7.6373245062,
				"y": 1.7542541929,
				"z": 1.3797318351,
				"element": "H" 
			},
			{
				"x": 6.4358809171,
				"y": -0.3572653756,
				"z": 1.9510783355,
				"element": "H" 
			},
			{
				"x": 3.955533179,
				"y": -0.4767704828,
				"z": 1.5580557159,
				"element": "H" 
			},
			{
				"x": 1.0917017081,
				"y": -1.9642223788,
				"z": -0.6770244153,
				"element": "H" 
			},
			{
				"x": -1.2798983415,
				"y": -2.5861166435,
				"z": -1.0721577879,
				"element": "H" 
			}
		],
		 "valence_orbital": [ 
			{
				"type": "occ",
				"energy": -0.26258,
				"method": "rhf"
			},
			{
				"type": "occ",
				"energy": -0.25679,
				"method": "rhf"
			},
			{
				"type": "occ",
				"energy": -0.25588,
				"method": "rhf"
			},
			{
				"type": "occ",
				"energy": -0.23679,
				"method": "rhf"
			},
			{
				"type": "occ",
				"energy": -0.20216,
				"method": "rhf"
			},
			{
				"type": "unocc",
				"energy": -0.02883,
				"method": "rhf"
			},
			{
				"type": "unocc",
				"energy": -0.0192,
				"method": "rhf"
			},
			{
				"type": "unocc",
				"energy": -0.01504,
				"method": "rhf"
			},
			{
				"type": "unocc",
				"energy": -0.00645,
				"method": "rhf"
			},
			{
				"type": "unocc",
				"energy": 0.06365,
				"method": "rhf"
			}
		],
		"cosmo_sigma_profile": { 
			"-0.025": 0.0,
			"-0.024": 0.0,
			"-0.023": 0.0,
			"-0.022": 0.0,
			"-0.021": 0.0,
			"-0.02": 0.0,
			"-0.019": 0.0,
			"-0.018": 0.0,
			"-0.017": 0.225670681531,
			"-0.016": 0.968565768455,
			"-0.015": 0.929727690355,
			"-0.014": 1.15744395701,
			"-0.013": 1.53317340368,
			"-0.012": 1.32860512787,
			"-0.011": 2.30021132105,
			"-0.01": 3.33137862481,
			"-0.009": 2.93411697028,
			"-0.008": 3.17257582405,
			"-0.007": 12.9431956653,
			"-0.006": 22.0326774351,
			"-0.005": 21.3611534644,
			"-0.004": 17.0976660478,
			"-0.003": 14.4366614577,
			"-0.002": 13.2503089563,
			"-0.001": 13.291173336,
			"0.0": 15.6455998827,
			"0.001": 15.439835121,
			"0.002": 23.4918940197,
			"0.003": 23.5921721012,
			"0.004": 19.9527909803,
			"0.005": 13.8066949466,
			"0.006": 8.45098268901,
			"0.007": 7.24551906446,
			"0.008": 7.26728629443,
			"0.009": 5.6572995144,
			"0.01": 4.39503077599,
			"0.011": 2.58731259673,
			"0.012": 2.47831183062,
			"0.013": 1.62937254069,
			"0.014": 1.82644060983,
			"0.015": 0.944521037872,
			"0.016": 0.695015305253,
			"0.017": 0.430107035551,
			"0.018": 0.0,
			"0.019": 0.0,
			"0.02": 0.0,
			"0.021": 0.0,
			"0.022": 0.0,
			"0.023": 0.0,
			"0.024": 0.0,
			"0.025": 0.0
		}
	}
}
