{
	 "smiles": "NC1=CC2=C(C=C1)N=C(O2)C1CC1", 
	 "Tm": 373.15, 
	 "num_atms": 23, 
	 "gaussian": { 
		 "optdone": 1, 
		 "sigma_profile": "yes", 
		 "theory": "DFT", 
		 "functional": "B3LYP", 
		 "basiset": "6-31G**", 
		 "properties": { 
			 "R2extent": 3498.4542, 
			 "electric_dipole_moment_norm": 1.99402322203, 
			 "electric_quadrupole_moment_norm": 18.3332634021, 
			 "total_energy": -571.79358044, 
			 "HOMO_LUMO_gap": 0.17989, 
			 "cosmo_polarized_energy": -11.43, 
			 "cosmo_cavitation_energy": 27.0, 
			 "cosmo_dispersion_energy": -20.29, 
			 "cosmo_repulsion_energy": 1.6, 
			 "cosmo_total_nonelectrostatic_energy": 8.32, 
			 "SMD_solvation_energy": 2.72 
		},
		"coords": [
			{
				"x": 4.0266555166,
				"y": -0.6604572557,
				"z": -3.6500805207,
				"element": "N" 
			},
			{
				"x": 2.9682036572,
				"y": -0.7537627332,
				"z": -2.7383478741,
				"element": "C" 
			},
			{
				"x": 1.9509974553,
				"y": 0.2170390614,
				"z": -2.7346932188,
				"element": "C" 
			},
			{
				"x": 0.9119122115,
				"y": 0.0117099539,
				"z": -1.8424217613,
				"element": "C" 
			},
			{
				"x": 0.8211484477,
				"y": -1.0767331442,
				"z": -0.965954989,
				"element": "C" 
			},
			{
				"x": 1.8349210513,
				"y": -2.0370313812,
				"z": -0.9741540592,
				"element": "C" 
			},
			{
				"x": 2.8943878179,
				"y": -1.8627367951,
				"z": -1.8601606567,
				"element": "C" 
			},
			{
				"x": -0.3511836049,
				"y": -0.95434952,
				"z": -0.2151065077,
				"element": "N" 
			},
			{
				"x": -0.8950440543,
				"y": 0.1406623936,
				"z": -0.6414860693,
				"element": "C" 
			},
			{
				"x": -0.1938208481,
				"y": 0.7998123394,
				"z": -1.6355249258,
				"element": "O" 
			},
			{
				"x": -2.1510806025,
				"y": 0.7672782203,
				"z": -0.2094121016,
				"element": "C" 
			},
			{
				"x": -2.5678898396,
				"y": 0.64938266,
				"z": 1.2480885793,
				"element": "C" 
			},
			{
				"x": -3.3122173424,
				"y": -0.1229651265,
				"z": 0.2046223011,
				"element": "C" 
			},
			{
				"x": 4.2260623484,
				"y": 0.2761038653,
				"z": -3.9744667332,
				"element": "H" 
			},
			{
				"x": 4.8705625738,
				"y": -1.1393087553,
				"z": -3.3662259154,
				"element": "H" 
			},
			{
				"x": 1.9777282314,
				"y": 1.0745475997,
				"z": -3.3990304417,
				"element": "H" 
			},
			{
				"x": 1.7978529816,
				"y": -2.8922690947,
				"z": -0.3075373411,
				"element": "H" 
			},
			{
				"x": 3.692523555,
				"y": -2.6000446326,
				"z": -1.8901340399,
				"element": "H" 
			},
			{
				"x": -2.3824394657,
				"y": 1.690984204,
				"z": -0.7287211149,
				"element": "H" 
			},
			{
				"x": -1.8911581451,
				"y": 0.1006493964,
				"z": 1.8946149413,
				"element": "H" 
			},
			{
				"x": -3.043155825,
				"y": 1.5147677792,
				"z": 1.6996146734,
				"element": "H" 
			},
			{
				"x": -3.1374050803,
				"y": -1.1921955604,
				"z": 0.1478919435,
				"element": "H" 
			},
			{
				"x": -4.30966104,
				"y": 0.2008165258,
				"z": -0.0762741683,
				"element": "H" 
			}
		],
		 "valence_orbital": [ 
			{
				"type": "occ",
				"energy": -0.30843,
				"method": "rhf"
			},
			{
				"type": "occ",
				"energy": -0.27812,
				"method": "rhf"
			},
			{
				"type": "occ",
				"energy": -0.27038,
				"method": "rhf"
			},
			{
				"type": "occ",
				"energy": -0.23651,
				"method": "rhf"
			},
			{
				"type": "occ",
				"energy": -0.18964,
				"method": "rhf"
			},
			{
				"type": "unocc",
				"energy": -0.00975,
				"method": "rhf"
			},
			{
				"type": "unocc",
				"energy": 0.02004,
				"method": "rhf"
			},
			{
				"type": "unocc",
				"energy": 0.05097,
				"method": "rhf"
			},
			{
				"type": "unocc",
				"energy": 0.08223,
				"method": "rhf"
			},
			{
				"type": "unocc",
				"energy": 0.09255,
				"method": "rhf"
			}
		],
		"cosmo_sigma_profile": { 
			"-0.025": 0.0,
			"-0.024": 0.0,
			"-0.023": 0.0,
			"-0.022": 0.0,
			"-0.021": 0.0,
			"-0.02": 0.0,
			"-0.019": 0.0,
			"-0.018": 0.0,
			"-0.017": 0.0,
			"-0.016": 0.0,
			"-0.015": 0.0,
			"-0.014": 0.0,
			"-0.013": 0.206033914025,
			"-0.012": 2.73783852941,
			"-0.011": 2.62462503596,
			"-0.01": 3.57623400581,
			"-0.009": 3.19788409715,
			"-0.008": 3.29281560049,
			"-0.007": 5.17734077838,
			"-0.006": 9.35983601797,
			"-0.005": 14.4019612003,
			"-0.004": 14.4032389929,
			"-0.003": 11.7947942111,
			"-0.002": 12.6440841462,
			"-0.001": 15.0504780827,
			"0.0": 14.3416358192,
			"0.001": 16.1395034028,
			"0.002": 17.563952109,
			"0.003": 14.0638548712,
			"0.004": 14.4229965604,
			"0.005": 13.517557804,
			"0.006": 8.03095668679,
			"0.007": 4.82046695623,
			"0.008": 2.67060380809,
			"0.009": 2.15838100007,
			"0.01": 1.94960218432,
			"0.011": 1.31131514226,
			"0.012": 1.68170877244,
			"0.013": 1.55524122634,
			"0.014": 1.25449674927,
			"0.015": 0.792085150574,
			"0.016": 0.314867294376,
			"0.017": 0.0,
			"0.018": 0.0,
			"0.019": 0.0,
			"0.02": 0.0,
			"0.021": 0.0,
			"0.022": 0.0,
			"0.023": 0.0,
			"0.024": 0.0,
			"0.025": 0.0
		}
	}
}
