{
	 "smiles": "CC(CC1=NC2=C(S1)C=CC=C2)(C(O)=O)C1=CC=CC=C1", 
	 "Tm": 467.15, 
	 "num_atms": 36, 
	 "gaussian": { 
		 "optdone": 1, 
		 "sigma_profile": "yes", 
		 "theory": "DFT", 
		 "functional": "B3LYP", 
		 "basiset": "6-31G**", 
		 "properties": { 
			 "R2extent": 8127.5228, 
			 "electric_dipole_moment_norm": 6.46176930879, 
			 "electric_quadrupole_moment_norm": 17.9932450403, 
			 "total_energy": -1260.26218783, 
			 "HOMO_LUMO_gap": 0.18105, 
			 "cosmo_polarized_energy": -16.85, 
			 "cosmo_cavitation_energy": 40.26, 
			 "cosmo_dispersion_energy": -28.71, 
			 "cosmo_repulsion_energy": 2.11, 
			 "cosmo_total_nonelectrostatic_energy": 13.66, 
			 "SMD_solvation_energy": 6.31 
		},
		"coords": [
			{
				"x": -1.1992737045,
				"y": -2.1327264468,
				"z": -0.4840964663,
				"element": "C" 
			},
			{
				"x": 0.0223113353,
				"y": -2.0288292372,
				"z": 0.4571876864,
				"element": "C" 
			},
			{
				"x": 0.063064004,
				"y": -0.6148584188,
				"z": 1.1544086518,
				"element": "C" 
			},
			{
				"x": -0.2625009532,
				"y": 0.5929232885,
				"z": 0.3195347449,
				"element": "C" 
			},
			{
				"x": 0.3217320211,
				"y": 0.8857027711,
				"z": -0.8024974746,
				"element": "N" 
			},
			{
				"x": -0.1497172404,
				"y": 2.0670163368,
				"z": -1.356673757,
				"element": "C" 
			},
			{
				"x": -1.1551928977,
				"y": 2.7087292423,
				"z": -0.596212343,
				"element": "C" 
			},
			{
				"x": -1.4862817751,
				"y": 1.7574032999,
				"z": 0.8392593397,
				"element": "S" 
			},
			{
				"x": -1.729288746,
				"y": 3.9104341168,
				"z": -1.0188124313,
				"element": "C" 
			},
			{
				"x": -1.2826640644,
				"y": 4.4616239579,
				"z": -2.216671686,
				"element": "C" 
			},
			{
				"x": -0.284063081,
				"y": 3.8304593044,
				"z": -2.9795949943,
				"element": "C" 
			},
			{
				"x": 0.2882538897,
				"y": 2.6359370251,
				"z": -2.5606498115,
				"element": "C" 
			},
			{
				"x": 1.270593601,
				"y": -2.3439082687,
				"z": -0.4299881776,
				"element": "C" 
			},
			{
				"x": 1.7907374021,
				"y": -1.3562947227,
				"z": -1.1684456756,
				"element": "O" 
			},
			{
				"x": 1.7240253048,
				"y": -3.4643548032,
				"z": -0.4958269299,
				"element": "O" 
			},
			{
				"x": -0.0305627902,
				"y": -3.0441175772,
				"z": 1.6114432612,
				"element": "C" 
			},
			{
				"x": 1.1076240914,
				"y": -3.2498101764,
				"z": 2.4080650768,
				"element": "C" 
			},
			{
				"x": 1.0713380339,
				"y": -4.0974237102,
				"z": 3.5122066855,
				"element": "C" 
			},
			{
				"x": -0.1092493734,
				"y": -4.7642096841,
				"z": 3.848743331,
				"element": "C" 
			},
			{
				"x": -1.2457881371,
				"y": -4.5723592043,
				"z": 3.066920272,
				"element": "C" 
			},
			{
				"x": -1.2063483475,
				"y": -3.7178110015,
				"z": 1.9609712357,
				"element": "C" 
			},
			{
				"x": -2.1257251289,
				"y": -1.8565847326,
				"z": 0.0289564093,
				"element": "H" 
			},
			{
				"x": -1.083179506,
				"y": -1.466548024,
				"z": -1.3419864825,
				"element": "H" 
			},
			{
				"x": -1.2976152666,
				"y": -3.1541562096,
				"z": -0.8594544106,
				"element": "H" 
			},
			{
				"x": 1.0534675012,
				"y": -0.4652654337,
				"z": 1.6013141548,
				"element": "H" 
			},
			{
				"x": -0.6417282792,
				"y": -0.6520524205,
				"z": 1.9891089766,
				"element": "H" 
			},
			{
				"x": -2.5002412683,
				"y": 4.4011753156,
				"z": -0.4338937429,
				"element": "H" 
			},
			{
				"x": -1.7140204687,
				"y": 5.3946950695,
				"z": -2.5659162033,
				"element": "H" 
			},
			{
				"x": 0.0439445998,
				"y": 4.2846205652,
				"z": -3.9093635409,
				"element": "H" 
			},
			{
				"x": 1.0603019452,
				"y": 2.1395124211,
				"z": -3.139122651,
				"element": "H" 
			},
			{
				"x": 1.3002889207,
				"y": -0.4943962962,
				"z": -1.1114984187,
				"element": "H" 
			},
			{
				"x": 2.04247852,
				"y": -2.7628788052,
				"z": 2.1475361988,
				"element": "H" 
			},
			{
				"x": 1.9693822158,
				"y": -4.2444055763,
				"z": 4.1054903662,
				"element": "H" 
			},
			{
				"x": -0.1384309797,
				"y": -5.4290405898,
				"z": 4.7071766892,
				"element": "H" 
			},
			{
				"x": -2.170425583,
				"y": -5.0879647718,
				"z": 3.3110412498,
				"element": "H" 
			},
			{
				"x": -2.1076457953,
				"y": -3.5920366031,
				"z": 1.3715408671,
				"element": "H" 
			}
		],
		 "valence_orbital": [ 
			{
				"type": "occ",
				"energy": -0.25912,
				"method": "rhf"
			},
			{
				"type": "occ",
				"energy": -0.25473,
				"method": "rhf"
			},
			{
				"type": "occ",
				"energy": -0.24943,
				"method": "rhf"
			},
			{
				"type": "occ",
				"energy": -0.2444,
				"method": "rhf"
			},
			{
				"type": "occ",
				"energy": -0.23869,
				"method": "rhf"
			},
			{
				"type": "unocc",
				"energy": -0.05764,
				"method": "rhf"
			},
			{
				"type": "unocc",
				"energy": -0.02382,
				"method": "rhf"
			},
			{
				"type": "unocc",
				"energy": -0.01318,
				"method": "rhf"
			},
			{
				"type": "unocc",
				"energy": -0.00075,
				"method": "rhf"
			},
			{
				"type": "unocc",
				"energy": 0.00248,
				"method": "rhf"
			}
		],
		"cosmo_sigma_profile": { 
			"-0.025": 0.0,
			"-0.024": 0.0,
			"-0.023": 0.0,
			"-0.022": 0.0,
			"-0.021": 0.0,
			"-0.02": 0.0,
			"-0.019": 0.0,
			"-0.018": 0.0,
			"-0.017": 0.0,
			"-0.016": 0.0,
			"-0.015": 0.0,
			"-0.014": 0.0,
			"-0.013": 0.0,
			"-0.012": 0.0,
			"-0.011": 0.0,
			"-0.01": 0.0281119631962,
			"-0.009": 0.480499718016,
			"-0.008": 2.94966617861,
			"-0.007": 10.8895821396,
			"-0.006": 19.0399196639,
			"-0.005": 27.1551618732,
			"-0.004": 30.0571550952,
			"-0.003": 26.3222356935,
			"-0.002": 27.1403096953,
			"-0.001": 23.7522516906,
			"0.0": 23.0634484236,
			"0.001": 22.2731423971,
			"0.002": 22.7170944447,
			"0.003": 21.439450166,
			"0.004": 18.39777027,
			"0.005": 9.8061053928,
			"0.006": 7.9015619265,
			"0.007": 3.27365697322,
			"0.008": 2.70952191484,
			"0.009": 3.02980622589,
			"0.01": 3.24491041821,
			"0.011": 3.90007575238,
			"0.012": 6.39700574921,
			"0.013": 5.683137935,
			"0.014": 2.06203142373,
			"0.015": 0.0447570924657,
			"0.016": 0.0,
			"0.017": 0.0,
			"0.018": 0.0,
			"0.019": 0.0,
			"0.02": 0.0,
			"0.021": 0.0,
			"0.022": 0.0,
			"0.023": 0.0,
			"0.024": 0.0,
			"0.025": 0.0
		}
	}
}
