{
	 "smiles": "CC1=NOC2=C1C=C1CCOC(=O)C1=N2", 
	 "Tm": 498.15, 
	 "num_atms": 23, 
	 "gaussian": { 
		 "optdone": 1, 
		 "sigma_profile": "yes", 
		 "theory": "DFT", 
		 "functional": "B3LYP", 
		 "basiset": "6-31G**", 
		 "properties": { 
			 "R2extent": 3516.544, 
			 "electric_dipole_moment_norm": 8.52490104693, 
			 "electric_quadrupole_moment_norm": 13.2122246265, 
			 "total_energy": -721.020788502, 
			 "HOMO_LUMO_gap": 0.18259, 
			 "cosmo_polarized_energy": -22.21, 
			 "cosmo_cavitation_energy": 27.6, 
			 "cosmo_dispersion_energy": -20.74, 
			 "cosmo_repulsion_energy": 1.61, 
			 "cosmo_total_nonelectrostatic_energy": 8.47, 
			 "SMD_solvation_energy": 4.01 
		},
		"coords": [
			{
				"x": -2.3584972158,
				"y": -1.9261372933,
				"z": 1.6776015595,
				"element": "C" 
			},
			{
				"x": -1.8482264308,
				"y": -0.7401476303,
				"z": 0.9238588241,
				"element": "C" 
			},
			{
				"x": -2.6669609893,
				"y": 0.214007545,
				"z": 0.5552142581,
				"element": "N" 
			},
			{
				"x": -1.9234379289,
				"y": 1.1937796434,
				"z": -0.1299631771,
				"element": "O" 
			},
			{
				"x": -0.630463918,
				"y": 0.7925116524,
				"z": -0.156163364,
				"element": "C" 
			},
			{
				"x": -0.5058774847,
				"y": -0.4428225393,
				"z": 0.5017424317,
				"element": "C" 
			},
			{
				"x": 0.7638274814,
				"y": -1.0184026855,
				"z": 0.5610818546,
				"element": "C" 
			},
			{
				"x": 1.8102578755,
				"y": -0.3160464862,
				"z": -0.0369135546,
				"element": "C" 
			},
			{
				"x": 3.2325612806,
				"y": -0.8192619782,
				"z": -0.0690304818,
				"element": "C" 
			},
			{
				"x": 3.896640047,
				"y": -0.3393312188,
				"z": -1.351813714,
				"element": "C" 
			},
			{
				"x": 3.8487162273,
				"y": 1.0941822008,
				"z": -1.4547127858,
				"element": "O" 
			},
			{
				"x": 2.6662243207,
				"y": 1.7428663775,
				"z": -1.2516397476,
				"element": "C" 
			},
			{
				"x": 2.5791666706,
				"y": 2.9168757166,
				"z": -1.502324152,
				"element": "O" 
			},
			{
				"x": 1.5375267275,
				"y": 0.930162946,
				"z": -0.6578053642,
				"element": "C" 
			},
			{
				"x": 0.3253503917,
				"y": 1.4969313747,
				"z": -0.7278511118,
				"element": "N" 
			},
			{
				"x": -2.1617770256,
				"y": -2.8524249661,
				"z": 1.1272253842,
				"element": "H" 
			},
			{
				"x": -1.8683679271,
				"y": -2.0082907588,
				"z": 2.6535858023,
				"element": "H" 
			},
			{
				"x": -3.4348572913,
				"y": -1.8326962649,
				"z": 1.8327900402,
				"element": "H" 
			},
			{
				"x": 0.9405803323,
				"y": -1.9758486733,
				"z": 1.0437078114,
				"element": "H" 
			},
			{
				"x": 3.7959658008,
				"y": -0.4391749966,
				"z": 0.7936987203,
				"element": "H" 
			},
			{
				"x": 3.2623957218,
				"y": -1.9131189505,
				"z": -0.0177903841,
				"element": "H" 
			},
			{
				"x": 4.9579488301,
				"y": -0.5933763105,
				"z": -1.3826086646,
				"element": "H" 
			},
			{
				"x": 3.4074045042,
				"y": -0.7815367039,
				"z": -2.229290185,
				"element": "H" 
			}
		],
		 "valence_orbital": [ 
			{
				"type": "occ",
				"energy": -0.30184,
				"method": "rhf"
			},
			{
				"type": "occ",
				"energy": -0.28974,
				"method": "rhf"
			},
			{
				"type": "occ",
				"energy": -0.2802,
				"method": "rhf"
			},
			{
				"type": "occ",
				"energy": -0.27428,
				"method": "rhf"
			},
			{
				"type": "occ",
				"energy": -0.2701,
				"method": "rhf"
			},
			{
				"type": "unocc",
				"energy": -0.08751,
				"method": "rhf"
			},
			{
				"type": "unocc",
				"energy": -0.03502,
				"method": "rhf"
			},
			{
				"type": "unocc",
				"energy": 0.00338,
				"method": "rhf"
			},
			{
				"type": "unocc",
				"energy": 0.05283,
				"method": "rhf"
			},
			{
				"type": "unocc",
				"energy": 0.07568,
				"method": "rhf"
			}
		],
		"cosmo_sigma_profile": { 
			"-0.025": 0.0,
			"-0.024": 0.0,
			"-0.023": 0.0,
			"-0.022": 0.0,
			"-0.021": 0.0,
			"-0.02": 0.0,
			"-0.019": 0.0,
			"-0.018": 0.0,
			"-0.017": 0.0,
			"-0.016": 0.0,
			"-0.015": 0.0,
			"-0.014": 0.0,
			"-0.013": 0.0,
			"-0.012": 0.0,
			"-0.011": 0.0,
			"-0.01": 0.00472902235353,
			"-0.009": 1.58449401637,
			"-0.008": 3.74167521169,
			"-0.007": 12.8803592506,
			"-0.006": 26.0858350554,
			"-0.005": 20.1950943884,
			"-0.004": 19.1352957708,
			"-0.003": 20.8613384144,
			"-0.002": 19.0556136964,
			"-0.001": 13.4324813796,
			"0.0": 6.91010211477,
			"0.001": 5.00568360106,
			"0.002": 4.55648748708,
			"0.003": 5.01685257188,
			"0.004": 3.63410618922,
			"0.005": 4.94690067949,
			"0.006": 7.21334410742,
			"0.007": 8.27624612794,
			"0.008": 6.72751499712,
			"0.009": 5.52255894941,
			"0.01": 6.00458938319,
			"0.011": 8.045196231,
			"0.012": 6.24879535138,
			"0.013": 2.88492287581,
			"0.014": 1.70332428207,
			"0.015": 1.29440507904,
			"0.016": 0.21454751119,
			"0.017": 0.0,
			"0.018": 0.0,
			"0.019": 0.0,
			"0.02": 0.0,
			"0.021": 0.0,
			"0.022": 0.0,
			"0.023": 0.0,
			"0.024": 0.0,
			"0.025": 0.0
		}
	}
}
