{
	 "smiles": "CCOP(=O)(OCC)ON1N=NC2=C(C=CC=C2)C1=O", 
	 "Tm": 347.15, 
	 "num_atms": 34, 
	 "gaussian": { 
		 "optdone": 1, 
		 "sigma_profile": "yes", 
		 "theory": "DFT", 
		 "functional": "B3LYP", 
		 "basiset": "6-31G**", 
		 "properties": { 
			 "R2extent": 6769.7542, 
			 "electric_dipole_moment_norm": 2.95199166157, 
			 "electric_quadrupole_moment_norm": 18.1216637567, 
			 "total_energy": -1309.3195206, 
			 "HOMO_LUMO_gap": 0.1769, 
			 "cosmo_polarized_energy": -15.27, 
			 "cosmo_cavitation_energy": 40.03, 
			 "cosmo_dispersion_energy": -28.42, 
			 "cosmo_repulsion_energy": 2.19, 
			 "cosmo_total_nonelectrostatic_energy": 13.8, 
			 "SMD_solvation_energy": 8.74 
		},
		"coords": [
			{
				"x": -3.5327337848,
				"y": 0.2502885377,
				"z": -2.8459068636,
				"element": "C" 
			},
			{
				"x": -3.5852382869,
				"y": 0.8513901313,
				"z": -1.4520895252,
				"element": "C" 
			},
			{
				"x": -3.5698772114,
				"y": -0.1905787623,
				"z": -0.428999125,
				"element": "O" 
			},
			{
				"x": -2.1888614605,
				"y": -0.7845335666,
				"z": 0.0891985425,
				"element": "P" 
			},
			{
				"x": -1.1765204628,
				"y": -1.2647956027,
				"z": -0.873149813,
				"element": "O" 
			},
			{
				"x": -2.7623874341,
				"y": -1.771009541,
				"z": 1.1908432555,
				"element": "O" 
			},
			{
				"x": -1.8763380871,
				"y": -2.7397397605,
				"z": 1.8380904461,
				"element": "C" 
			},
			{
				"x": -2.7270943565,
				"y": -3.5578934478,
				"z": 2.7876566622,
				"element": "C" 
			},
			{
				"x": -1.5868970675,
				"y": 0.5031894819,
				"z": 1.0144231835,
				"element": "O" 
			},
			{
				"x": -0.321972112,
				"y": 0.9247979088,
				"z": 0.6761823175,
				"element": "N" 
			},
			{
				"x": -0.3221871203,
				"y": 1.8820394004,
				"z": -0.2787563035,
				"element": "N" 
			},
			{
				"x": 0.7786513419,
				"y": 2.394018823,
				"z": -0.6482569485,
				"element": "N" 
			},
			{
				"x": 1.9716695253,
				"y": 1.9599973942,
				"z": -0.0746789617,
				"element": "C" 
			},
			{
				"x": 2.0211867568,
				"y": 0.9458796413,
				"z": 0.903587289,
				"element": "C" 
			},
			{
				"x": 3.2515379241,
				"y": 0.5391172836,
				"z": 1.4410310581,
				"element": "C" 
			},
			{
				"x": 4.4195882006,
				"y": 1.1468916909,
				"z": 1.005426654,
				"element": "C" 
			},
			{
				"x": 4.3744055027,
				"y": 2.1612853362,
				"z": 0.0295958874,
				"element": "C" 
			},
			{
				"x": 3.1646046443,
				"y": 2.5673916133,
				"z": -0.5097026175,
				"element": "C" 
			},
			{
				"x": 0.7699381534,
				"y": 0.3259368234,
				"z": 1.3346555303,
				"element": "C" 
			},
			{
				"x": 0.6322324871,
				"y": -0.5718462597,
				"z": 2.1476207842,
				"element": "O" 
			},
			{
				"x": -2.5927925479,
				"y": -0.2849040402,
				"z": -3.0002179229,
				"element": "H" 
			},
			{
				"x": -4.3632201284,
				"y": -0.444766572,
				"z": -2.9991523301,
				"element": "H" 
			},
			{
				"x": -3.6079064013,
				"y": 1.0488844772,
				"z": -3.5917442415,
				"element": "H" 
			},
			{
				"x": -4.5232924503,
				"y": 1.3825270844,
				"z": -1.2758692504,
				"element": "H" 
			},
			{
				"x": -2.7574968891,
				"y": 1.5446574824,
				"z": -1.2747350462,
				"element": "H" 
			},
			{
				"x": -1.0876520947,
				"y": -2.1902974066,
				"z": 2.3565387395,
				"element": "H" 
			},
			{
				"x": -1.4227668776,
				"y": -3.3598488232,
				"z": 1.0592542153,
				"element": "H" 
			},
			{
				"x": -2.1002153914,
				"y": -4.3009812171,
				"z": 3.2909159692,
				"element": "H" 
			},
			{
				"x": -3.5219998265,
				"y": -4.0820230646,
				"z": 2.2496891018,
				"element": "H" 
			},
			{
				"x": -3.1838690081,
				"y": -2.9193701205,
				"z": 3.5487325505,
				"element": "H" 
			},
			{
				"x": 3.2578418964,
				"y": -0.2456740971,
				"z": 2.1894344999,
				"element": "H" 
			},
			{
				"x": 5.3757977577,
				"y": 0.8393511262,
				"z": 1.4172972358,
				"element": "H" 
			},
			{
				"x": 5.2968812503,
				"y": 2.6272726522,
				"z": -0.3032295831,
				"element": "H" 
			},
			{
				"x": 3.1016835585,
				"y": 3.3437453935,
				"z": -1.2644853901,
				"element": "H" 
			}
		],
		 "valence_orbital": [ 
			{
				"type": "occ",
				"energy": -0.29265,
				"method": "rhf"
			},
			{
				"type": "occ",
				"energy": -0.29183,
				"method": "rhf"
			},
			{
				"type": "occ",
				"energy": -0.28252,
				"method": "rhf"
			},
			{
				"type": "occ",
				"energy": -0.26704,
				"method": "rhf"
			},
			{
				"type": "occ",
				"energy": -0.25648,
				"method": "rhf"
			},
			{
				"type": "unocc",
				"energy": -0.07958,
				"method": "rhf"
			},
			{
				"type": "unocc",
				"energy": -0.06069,
				"method": "rhf"
			},
			{
				"type": "unocc",
				"energy": 0.00094,
				"method": "rhf"
			},
			{
				"type": "unocc",
				"energy": 0.0413,
				"method": "rhf"
			},
			{
				"type": "unocc",
				"energy": 0.05184,
				"method": "rhf"
			}
		],
		"cosmo_sigma_profile": { 
			"-0.025": 0.0,
			"-0.024": 0.0,
			"-0.023": 0.0,
			"-0.022": 0.0,
			"-0.021": 0.0,
			"-0.02": 0.0,
			"-0.019": 0.0,
			"-0.018": 0.0,
			"-0.017": 0.0,
			"-0.016": 0.0,
			"-0.015": 0.0,
			"-0.014": 0.0,
			"-0.013": 0.0,
			"-0.012": 0.0,
			"-0.011": 0.0,
			"-0.01": 0.0142381677581,
			"-0.009": 0.254293494964,
			"-0.008": 4.52554661612,
			"-0.007": 11.0663892463,
			"-0.006": 15.3332091675,
			"-0.005": 20.037084292,
			"-0.004": 29.0528149236,
			"-0.003": 26.5910877513,
			"-0.002": 26.1282271809,
			"-0.001": 30.8392146372,
			"0.0": 33.0692211785,
			"0.001": 24.436230071,
			"0.002": 16.6109714445,
			"0.003": 11.6422437627,
			"0.004": 10.5651721019,
			"0.005": 8.62169558127,
			"0.006": 8.81912332929,
			"0.007": 8.70520661598,
			"0.008": 7.56857801063,
			"0.009": 7.5193513765,
			"0.01": 4.65907512081,
			"0.011": 3.80857194765,
			"0.012": 3.83389728177,
			"0.013": 2.92821079988,
			"0.014": 0.0619447308578,
			"0.015": 0.0,
			"0.016": 0.0,
			"0.017": 0.0,
			"0.018": 0.0,
			"0.019": 0.0,
			"0.02": 0.0,
			"0.021": 0.0,
			"0.022": 0.0,
			"0.023": 0.0,
			"0.024": 0.0,
			"0.025": 0.0
		}
	}
}
