{
	 "smiles": "CN1N=CC(N2CCOCC2)=C(Cl)C1=O", 
	 "Tm": 405.15, 
	 "num_atms": 27, 
	 "gaussian": { 
		 "optdone": 1, 
		 "sigma_profile": "yes", 
		 "theory": "DFT", 
		 "functional": "B3LYP", 
		 "basiset": "6-31G**", 
		 "properties": { 
			 "R2extent": 4303.8938, 
			 "electric_dipole_moment_norm": 4.15477717934, 
			 "electric_quadrupole_moment_norm": 14.7689476087, 
			 "total_energy": -1125.02669135, 
			 "HOMO_LUMO_gap": 0.16415, 
			 "cosmo_polarized_energy": -16.13, 
			 "cosmo_cavitation_energy": 30.76, 
			 "cosmo_dispersion_energy": -23.07, 
			 "cosmo_repulsion_energy": 1.79, 
			 "cosmo_total_nonelectrostatic_energy": 9.48, 
			 "SMD_solvation_energy": 3.95 
		},
		"coords": [
			{
				"x": 4.4131801182,
				"y": -2.3119054355,
				"z": -0.329768477,
				"element": "C" 
			},
			{
				"x": 3.1116187145,
				"y": -1.6463814779,
				"z": -0.3250147908,
				"element": "N" 
			},
			{
				"x": 2.3478381274,
				"y": -1.8236864294,
				"z": 0.754386989,
				"element": "N" 
			},
			{
				"x": 1.1806556775,
				"y": -1.2445231567,
				"z": 0.7853516396,
				"element": "C" 
			},
			{
				"x": 0.6435705928,
				"y": -0.4068123167,
				"z": -0.2633997135,
				"element": "C" 
			},
			{
				"x": -0.6198344799,
				"y": 0.1260918044,
				"z": -0.1129027329,
				"element": "N" 
			},
			{
				"x": -1.5532418669,
				"y": 0.2866235544,
				"z": -1.2435283653,
				"element": "C" 
			},
			{
				"x": -2.9646860218,
				"y": -0.097904697,
				"z": -0.8043255536,
				"element": "C" 
			},
			{
				"x": -3.4486571134,
				"y": 0.6993308485,
				"z": 0.272257349,
				"element": "O" 
			},
			{
				"x": -2.4318357713,
				"y": 1.1552104252,
				"z": 1.1576363651,
				"element": "C" 
			},
			{
				"x": -1.2352487785,
				"y": 0.2097019519,
				"z": 1.2163382882,
				"element": "C" 
			},
			{
				"x": 1.4880436457,
				"y": -0.2038436974,
				"z": -1.3445335605,
				"element": "C" 
			},
			{
				"x": 1.1451011535,
				"y": 0.9127205174,
				"z": -2.6386979344,
				"element": "Cl" 
			},
			{
				"x": 2.7884955077,
				"y": -0.8475041869,
				"z": -1.442089921,
				"element": "C" 
			},
			{
				"x": 3.5913407,
				"y": -0.7351110259,
				"z": -2.3622659643,
				"element": "O" 
			},
			{
				"x": 5.2144733768,
				"y": -1.5701031506,
				"z": -0.3758323559,
				"element": "H" 
			},
			{
				"x": 4.4810693509,
				"y": -2.8954681965,
				"z": 0.5865857726,
				"element": "H" 
			},
			{
				"x": 4.4981854201,
				"y": -2.9555239719,
				"z": -1.2082715091,
				"element": "H" 
			},
			{
				"x": 0.5990506919,
				"y": -1.4491990591,
				"z": 1.6756109821,
				"element": "H" 
			},
			{
				"x": -1.2472224504,
				"y": -0.3672653129,
				"z": -2.0628378456,
				"element": "H" 
			},
			{
				"x": -1.548646168,
				"y": 1.3146222721,
				"z": -1.6229839421,
				"element": "H" 
			},
			{
				"x": -3.656649657,
				"y": 0.0433797269,
				"z": -1.6407900403,
				"element": "H" 
			},
			{
				"x": -2.986936124,
				"y": -1.1638454701,
				"z": -0.5287957637,
				"element": "H" 
			},
			{
				"x": -2.0855764314,
				"y": 2.1565145378,
				"z": 0.8597202121,
				"element": "H" 
			},
			{
				"x": -2.8834473322,
				"y": 1.2375142781,
				"z": 2.1516137848,
				"element": "H" 
			},
			{
				"x": -0.5066465388,
				"y": 0.6024549202,
				"z": 1.9332113861,
				"element": "H" 
			},
			{
				"x": -1.5718943435,
				"y": -0.7719872523,
				"z": 1.5853257014,
				"element": "H" 
			}
		],
		 "valence_orbital": [ 
			{
				"type": "occ",
				"energy": -0.30622,
				"method": "rhf"
			},
			{
				"type": "occ",
				"energy": -0.26452,
				"method": "rhf"
			},
			{
				"type": "occ",
				"energy": -0.24922,
				"method": "rhf"
			},
			{
				"type": "occ",
				"energy": -0.24002,
				"method": "rhf"
			},
			{
				"type": "occ",
				"energy": -0.21743,
				"method": "rhf"
			},
			{
				"type": "unocc",
				"energy": -0.05328,
				"method": "rhf"
			},
			{
				"type": "unocc",
				"energy": 0.00433,
				"method": "rhf"
			},
			{
				"type": "unocc",
				"energy": 0.03273,
				"method": "rhf"
			},
			{
				"type": "unocc",
				"energy": 0.06788,
				"method": "rhf"
			},
			{
				"type": "unocc",
				"energy": 0.0939,
				"method": "rhf"
			}
		],
		"cosmo_sigma_profile": { 
			"-0.025": 0.0,
			"-0.024": 0.0,
			"-0.023": 0.0,
			"-0.022": 0.0,
			"-0.021": 0.0,
			"-0.02": 0.0,
			"-0.019": 0.0,
			"-0.018": 0.0,
			"-0.017": 0.0,
			"-0.016": 0.0,
			"-0.015": 0.0,
			"-0.014": 0.0,
			"-0.013": 0.0,
			"-0.012": 0.0,
			"-0.011": 0.0,
			"-0.01": 0.0,
			"-0.009": 0.414571833619,
			"-0.008": 2.46165294362,
			"-0.007": 5.09559155801,
			"-0.006": 16.6331580152,
			"-0.005": 27.7898602459,
			"-0.004": 28.1386486586,
			"-0.003": 25.2752499688,
			"-0.002": 20.8269032041,
			"-0.001": 16.2076940416,
			"0.0": 13.7725399493,
			"0.001": 12.1939613166,
			"0.002": 10.380750703,
			"0.003": 9.74504055983,
			"0.004": 8.64834862107,
			"0.005": 7.70790955512,
			"0.006": 4.59328815596,
			"0.007": 4.95354677944,
			"0.008": 3.18667583823,
			"0.009": 3.00155366159,
			"0.01": 3.88951936557,
			"0.011": 4.06178741099,
			"0.012": 3.81264760449,
			"0.013": 5.30648727093,
			"0.014": 5.83616292826,
			"0.015": 0.928871841133,
			"0.016": 0.0,
			"0.017": 0.0,
			"0.018": 0.0,
			"0.019": 0.0,
			"0.02": 0.0,
			"0.021": 0.0,
			"0.022": 0.0,
			"0.023": 0.0,
			"0.024": 0.0,
			"0.025": 0.0
		}
	}
}
