{
	 "smiles": "CC1=CC(O)=CC=C1Br", 
	 "Tm": 334.65, 
	 "num_atms": 16, 
	 "gaussian": { 
		 "optdone": 1, 
		 "sigma_profile": "yes", 
		 "theory": "DFT", 
		 "functional": "B3LYP", 
		 "basiset": "6-31G**", 
		 "properties": { 
			 "R2extent": 3063.3735, 
			 "electric_dipole_moment_norm": 2.41489951965, 
			 "electric_quadrupole_moment_norm": 7.68192807959, 
			 "total_energy": -2917.59444101, 
			 "HOMO_LUMO_gap": 0.20914, 
			 "cosmo_polarized_energy": -8.29, 
			 "cosmo_cavitation_energy": 22.0, 
			 "cosmo_dispersion_energy": -16.74, 
			 "cosmo_repulsion_energy": 1.36, 
			 "cosmo_total_nonelectrostatic_energy": 6.62, 
			 "SMD_solvation_energy": 3.11 
		},
		"coords": [
			{
				"x": 1.8846427291,
				"y": 0.1539133071,
				"z": -2.6776520001,
				"element": "C" 
			},
			{
				"x": 1.0717344232,
				"y": -0.3470507792,
				"z": -1.5118311311,
				"element": "C" 
			},
			{
				"x": -0.2741728354,
				"y": 0.0192063503,
				"z": -1.3790659702,
				"element": "C" 
			},
			{
				"x": -1.0557643157,
				"y": -0.4279479188,
				"z": -0.3100565943,
				"element": "C" 
			},
			{
				"x": -2.3684754252,
				"y": -0.0821952561,
				"z": -0.1634268633,
				"element": "O" 
			},
			{
				"x": -0.4949653465,
				"y": -1.2630235579,
				"z": 0.6605942806,
				"element": "C" 
			},
			{
				"x": 0.8395744862,
				"y": -1.6383649834,
				"z": 0.5472543048,
				"element": "C" 
			},
			{
				"x": 1.6080664949,
				"y": -1.1849567436,
				"z": -0.524534644,
				"element": "C" 
			},
			{
				"x": 3.4417990675,
				"y": -1.7391865716,
				"z": -0.622271165,
				"element": "Br" 
			},
			{
				"x": 2.7510674899,
				"y": 0.7304232459,
				"z": -2.336766281,
				"element": "H" 
			},
			{
				"x": 2.275554601,
				"y": -0.6776712621,
				"z": -3.273395091,
				"element": "H" 
			},
			{
				"x": 1.2815105584,
				"y": 0.7910472228,
				"z": -3.3292871054,
				"element": "H" 
			},
			{
				"x": -0.71641028,
				"y": 0.6693678925,
				"z": -2.1319266365,
				"element": "H" 
			},
			{
				"x": -2.6300056438,
				"y": 0.4923226678,
				"z": -0.8945792197,
				"element": "H" 
			},
			{
				"x": -1.1071852444,
				"y": -1.6062085073,
				"z": 1.4873535296,
				"element": "H" 
			},
			{
				"x": 1.2875292407,
				"y": -2.2855751065,
				"z": 1.2927905867,
				"element": "H" 
			}
		],
		 "valence_orbital": [ 
			{
				"type": "occ",
				"energy": -0.34861,
				"method": "rhf"
			},
			{
				"type": "occ",
				"energy": -0.29215,
				"method": "rhf"
			},
			{
				"type": "occ",
				"energy": -0.28173,
				"method": "rhf"
			},
			{
				"type": "occ",
				"energy": -0.25526,
				"method": "rhf"
			},
			{
				"type": "occ",
				"energy": -0.21853,
				"method": "rhf"
			},
			{
				"type": "unocc",
				"energy": -0.00939,
				"method": "rhf"
			},
			{
				"type": "unocc",
				"energy": 0.00204,
				"method": "rhf"
			},
			{
				"type": "unocc",
				"energy": 0.01286,
				"method": "rhf"
			},
			{
				"type": "unocc",
				"energy": 0.06641,
				"method": "rhf"
			},
			{
				"type": "unocc",
				"energy": 0.10346,
				"method": "rhf"
			}
		],
		"cosmo_sigma_profile": { 
			"-0.025": 0.0,
			"-0.024": 0.0,
			"-0.023": 0.0,
			"-0.022": 0.0,
			"-0.021": 0.0,
			"-0.02": 0.0,
			"-0.019": 0.0,
			"-0.018": 0.385242586263,
			"-0.017": 1.33277413454,
			"-0.016": 1.16083558561,
			"-0.015": 0.765455174509,
			"-0.014": 1.2032783359,
			"-0.013": 0.985403258071,
			"-0.012": 0.734192607682,
			"-0.011": 1.23994317088,
			"-0.01": 1.11963779334,
			"-0.009": 0.9644425197,
			"-0.008": 1.1508992943,
			"-0.007": 2.75900214281,
			"-0.006": 6.34306657121,
			"-0.005": 7.32546005909,
			"-0.004": 11.0713400433,
			"-0.003": 10.2973093094,
			"-0.002": 10.1401332294,
			"-0.001": 13.6286365123,
			"0.0": 15.6305803223,
			"0.001": 11.8389559916,
			"0.002": 12.4469180737,
			"0.003": 19.7472430303,
			"0.004": 23.0375202238,
			"0.005": 12.7488903361,
			"0.006": 1.87392592324,
			"0.007": 1.44654560263,
			"0.008": 1.45937318567,
			"0.009": 1.4125341054,
			"0.01": 1.47858140809,
			"0.011": 2.03503163532,
			"0.012": 0.407284014637,
			"0.013": 0.0,
			"0.014": 0.0,
			"0.015": 0.0,
			"0.016": 0.0,
			"0.017": 0.0,
			"0.018": 0.0,
			"0.019": 0.0,
			"0.02": 0.0,
			"0.021": 0.0,
			"0.022": 0.0,
			"0.023": 0.0,
			"0.024": 0.0,
			"0.025": 0.0
		}
	}
}
