{
	 "smiles": "CC1=C(N=C(O1)C1=CC=CC=C1)C(Cl)=O", 
	 "Tm": 409.15, 
	 "num_atms": 23, 
	 "gaussian": { 
		 "optdone": 1, 
		 "sigma_profile": "yes", 
		 "theory": "DFT", 
		 "functional": "B3LYP", 
		 "basiset": "6-31G**", 
		 "properties": { 
			 "R2extent": 4900.275, 
			 "electric_dipole_moment_norm": 5.25422536441, 
			 "electric_quadrupole_moment_norm": 13.9965743609, 
			 "total_energy": -1089.38938382, 
			 "HOMO_LUMO_gap": 0.17376, 
			 "cosmo_polarized_energy": -10.54, 
			 "cosmo_cavitation_energy": 30.27, 
			 "cosmo_dispersion_energy": -22.19, 
			 "cosmo_repulsion_energy": 1.73, 
			 "cosmo_total_nonelectrostatic_energy": 9.82, 
			 "SMD_solvation_energy": 4.85 
		},
		"coords": [
			{
				"x": -1.99934487,
				"y": -1.7897294254,
				"z": -1.367212552,
				"element": "C" 
			},
			{
				"x": -1.4752659811,
				"y": -0.736304278,
				"z": -0.4556221231,
				"element": "C" 
			},
			{
				"x": -1.8532808091,
				"y": 0.516199861,
				"z": -0.0202568856,
				"element": "C" 
			},
			{
				"x": -0.9013138446,
				"y": 1.01043932,
				"z": 0.8651271087,
				"element": "N" 
			},
			{
				"x": -0.0015801601,
				"y": 0.0817883813,
				"z": 0.9436632435,
				"element": "C" 
			},
			{
				"x": -0.2933193987,
				"y": -1.0134839523,
				"z": 0.1596722642,
				"element": "O" 
			},
			{
				"x": 1.2274981707,
				"y": 0.0631547186,
				"z": 1.7301192957,
				"element": "C" 
			},
			{
				"x": 2.0985824798,
				"y": -1.0368208568,
				"z": 1.696800975,
				"element": "C" 
			},
			{
				"x": 3.2643502533,
				"y": -1.0229241865,
				"z": 2.4599954713,
				"element": "C" 
			},
			{
				"x": 3.5691903903,
				"y": 0.0817233913,
				"z": 3.258088209,
				"element": "C" 
			},
			{
				"x": 2.7023148408,
				"y": 1.1781525708,
				"z": 3.2921917695,
				"element": "C" 
			},
			{
				"x": 1.5358855426,
				"y": 1.1735391509,
				"z": 2.5336103537,
				"element": "C" 
			},
			{
				"x": -3.018272958,
				"y": 1.3450924293,
				"z": -0.3250660796,
				"element": "C" 
			},
			{
				"x": -4.1929527118,
				"y": 0.5634457479,
				"z": -1.5108812861,
				"element": "Cl" 
			},
			{
				"x": -3.2596721766,
				"y": 2.4276813317,
				"z": 0.1064787392,
				"element": "O" 
			},
			{
				"x": -1.3052836476,
				"y": -2.6323913005,
				"z": -1.3768399479,
				"element": "H" 
			},
			{
				"x": -2.982961892,
				"y": -2.139520933,
				"z": -1.042337468,
				"element": "H" 
			},
			{
				"x": -2.1149233962,
				"y": -1.4090590808,
				"z": -2.3855920214,
				"element": "H" 
			},
			{
				"x": 1.8603892961,
				"y": -1.894100592,
				"z": 1.0763681376,
				"element": "H" 
			},
			{
				"x": 3.9355315004,
				"y": -1.8760714464,
				"z": 2.4312523315,
				"element": "H" 
			},
			{
				"x": 4.4787005424,
				"y": 0.0889582105,
				"z": 3.8515522875,
				"element": "H" 
			},
			{
				"x": 2.9369549847,
				"y": 2.0383801349,
				"z": 3.9119096477,
				"element": "H" 
			},
			{
				"x": 0.8532738448,
				"y": 2.0164508035,
				"z": 2.5493785297,
				"element": "H" 
			}
		],
		 "valence_orbital": [ 
			{
				"type": "occ",
				"energy": -0.30687,
				"method": "rhf"
			},
			{
				"type": "occ",
				"energy": -0.29629,
				"method": "rhf"
			},
			{
				"type": "occ",
				"energy": -0.29206,
				"method": "rhf"
			},
			{
				"type": "occ",
				"energy": -0.26607,
				"method": "rhf"
			},
			{
				"type": "occ",
				"energy": -0.23866,
				"method": "rhf"
			},
			{
				"type": "unocc",
				"energy": -0.0649,
				"method": "rhf"
			},
			{
				"type": "unocc",
				"energy": -0.05438,
				"method": "rhf"
			},
			{
				"type": "unocc",
				"energy": -0.0149,
				"method": "rhf"
			},
			{
				"type": "unocc",
				"energy": 0.01777,
				"method": "rhf"
			},
			{
				"type": "unocc",
				"energy": 0.04136,
				"method": "rhf"
			}
		],
		"cosmo_sigma_profile": { 
			"-0.025": 0.0,
			"-0.024": 0.0,
			"-0.023": 0.0,
			"-0.022": 0.0,
			"-0.021": 0.0,
			"-0.02": 0.0,
			"-0.019": 0.0,
			"-0.018": 0.0,
			"-0.017": 0.0,
			"-0.016": 0.0,
			"-0.015": 0.0,
			"-0.014": 0.0,
			"-0.013": 0.0,
			"-0.012": 0.0,
			"-0.011": 0.0,
			"-0.01": 0.0,
			"-0.009": 0.0,
			"-0.008": 0.0,
			"-0.007": 3.19691031003,
			"-0.006": 15.4881697684,
			"-0.005": 19.7634965411,
			"-0.004": 25.4478560626,
			"-0.003": 22.827493684,
			"-0.002": 18.9551341995,
			"-0.001": 17.2178479322,
			"0.0": 16.498267646,
			"0.001": 17.5818828828,
			"0.002": 18.0442448159,
			"0.003": 17.4434171341,
			"0.004": 20.0864741142,
			"0.005": 9.33209547297,
			"0.006": 3.14490000168,
			"0.007": 3.89227822535,
			"0.008": 5.498592198,
			"0.009": 5.34521037325,
			"0.01": 2.06969741651,
			"0.011": 1.91612548025,
			"0.012": 0.974730806189,
			"0.013": 0.988978350802,
			"0.014": 0.226754623268,
			"0.015": 0.0,
			"0.016": 0.0,
			"0.017": 0.0,
			"0.018": 0.0,
			"0.019": 0.0,
			"0.02": 0.0,
			"0.021": 0.0,
			"0.022": 0.0,
			"0.023": 0.0,
			"0.024": 0.0,
			"0.025": 0.0
		}
	}
}
