{
	 "smiles": "CC(=O)CCCOC1=C(C=CC=C1)C(N)=O", 
	 "Tm": 354.15, 
	 "num_atms": 31, 
	 "gaussian": { 
		 "optdone": 1, 
		 "sigma_profile": "yes", 
		 "theory": "DFT", 
		 "functional": "B3LYP", 
		 "basiset": "6-31G**", 
		 "properties": { 
			 "R2extent": 3929.9519, 
			 "electric_dipole_moment_norm": 1.96931994607, 
			 "electric_quadrupole_moment_norm": 11.1368143165, 
			 "total_energy": -746.754378796, 
			 "HOMO_LUMO_gap": 0.20911, 
			 "cosmo_polarized_energy": -15.28, 
			 "cosmo_cavitation_energy": 33.5, 
			 "cosmo_dispersion_energy": -23.32, 
			 "cosmo_repulsion_energy": 1.82, 
			 "cosmo_total_nonelectrostatic_energy": 11.99, 
			 "SMD_solvation_energy": 6.55 
		},
		"coords": [
			{
				"x": -1.0574357949,
				"y": 1.0774142293,
				"z": 3.5161538182,
				"element": "C" 
			},
			{
				"x": -0.5683488932,
				"y": -0.191610097,
				"z": 2.8461449199,
				"element": "C" 
			},
			{
				"x": 0.6230176208,
				"y": -0.446615172,
				"z": 2.7596391268,
				"element": "O" 
			},
			{
				"x": -1.6398855203,
				"y": -1.1055859959,
				"z": 2.267349517,
				"element": "C" 
			},
			{
				"x": -1.1039134549,
				"y": -2.3591640783,
				"z": 1.5699412229,
				"element": "C" 
			},
			{
				"x": -0.3937643968,
				"y": -2.0805787935,
				"z": 0.2524727123,
				"element": "C" 
			},
			{
				"x": -1.3437453236,
				"y": -1.5190418594,
				"z": -0.6744319921,
				"element": "O" 
			},
			{
				"x": -0.8196359159,
				"y": -0.9289068383,
				"z": -1.7953702313,
				"element": "C" 
			},
			{
				"x": -0.0881513067,
				"y": 0.2754997513,
				"z": -1.738277131,
				"element": "C" 
			},
			{
				"x": 0.4211840914,
				"y": 0.8174147842,
				"z": -2.9261596917,
				"element": "C" 
			},
			{
				"x": 0.1920296163,
				"y": 0.1999712208,
				"z": -4.1558324681,
				"element": "C" 
			},
			{
				"x": -0.5488990565,
				"y": -0.9814639841,
				"z": -4.2043190848,
				"element": "C" 
			},
			{
				"x": -1.0413816191,
				"y": -1.5475436313,
				"z": -3.0283948582,
				"element": "C" 
			},
			{
				"x": 0.076499948,
				"y": 1.0209015733,
				"z": -0.4413365546,
				"element": "C" 
			},
			{
				"x": 1.3626915716,
				"y": 1.3907915265,
				"z": -0.1453896203,
				"element": "N" 
			},
			{
				"x": -0.8715365228,
				"y": 1.3136937669,
				"z": 0.278604286,
				"element": "O" 
			},
			{
				"x": -1.9491706089,
				"y": 0.9036157555,
				"z": 4.1266575704,
				"element": "H" 
			},
			{
				"x": -0.2603869616,
				"y": 1.5066282685,
				"z": 4.126424672,
				"element": "H" 
			},
			{
				"x": -1.3237178138,
				"y": 1.7831610531,
				"z": 2.7217411444,
				"element": "H" 
			},
			{
				"x": -2.2386062472,
				"y": -0.5067288818,
				"z": 1.5707287278,
				"element": "H" 
			},
			{
				"x": -2.3160966318,
				"y": -1.385593331,
				"z": 3.0869696425,
				"element": "H" 
			},
			{
				"x": -0.3910377276,
				"y": -2.8716446969,
				"z": 2.2255729277,
				"element": "H" 
			},
			{
				"x": -1.9328569523,
				"y": -3.0508997713,
				"z": 1.3819619268,
				"element": "H" 
			},
			{
				"x": 0.0067066657,
				"y": -3.0119901857,
				"z": -0.1733293538,
				"element": "H" 
			},
			{
				"x": 0.4414687517,
				"y": -1.3933664826,
				"z": 0.4143804354,
				"element": "H" 
			},
			{
				"x": 0.974503538,
				"y": 1.7513627286,
				"z": -2.8816883266,
				"element": "H" 
			},
			{
				"x": 0.5797459041,
				"y": 0.6440087811,
				"z": -5.0674826063,
				"element": "H" 
			},
			{
				"x": -0.7372626355,
				"y": -1.4698294825,
				"z": -5.1561222505,
				"element": "H" 
			},
			{
				"x": -1.6071841571,
				"y": -2.473538793,
				"z": -3.0409095633,
				"element": "H" 
			},
			{
				"x": 1.5221064884,
				"y": 1.7324429553,
				"z": 0.7928827383,
				"element": "H" 
			},
			{
				"x": 2.1320633445,
				"y": 0.9230956801,
				"z": -0.6001816558,
				"element": "H" 
			}
		],
		 "valence_orbital": [ 
			{
				"type": "occ",
				"energy": -0.2718,
				"method": "rhf"
			},
			{
				"type": "occ",
				"energy": -0.26141,
				"method": "rhf"
			},
			{
				"type": "occ",
				"energy": -0.24873,
				"method": "rhf"
			},
			{
				"type": "occ",
				"energy": -0.23623,
				"method": "rhf"
			},
			{
				"type": "occ",
				"energy": -0.23497,
				"method": "rhf"
			},
			{
				"type": "unocc",
				"energy": -0.02586,
				"method": "rhf"
			},
			{
				"type": "unocc",
				"energy": -0.00418,
				"method": "rhf"
			},
			{
				"type": "unocc",
				"energy": -0.00022,
				"method": "rhf"
			},
			{
				"type": "unocc",
				"energy": 0.03593,
				"method": "rhf"
			},
			{
				"type": "unocc",
				"energy": 0.08145,
				"method": "rhf"
			}
		],
		"cosmo_sigma_profile": { 
			"-0.025": 0.0,
			"-0.024": 0.0,
			"-0.023": 0.0,
			"-0.022": 0.0,
			"-0.021": 0.0,
			"-0.02": 0.0,
			"-0.019": 0.0,
			"-0.018": 0.0,
			"-0.017": 0.0,
			"-0.016": 0.0,
			"-0.015": 0.10076758916,
			"-0.014": 0.919110387125,
			"-0.013": 1.97591735885,
			"-0.012": 1.32473484126,
			"-0.011": 2.20981646688,
			"-0.01": 2.89561623314,
			"-0.009": 1.47722837778,
			"-0.008": 1.89784514101,
			"-0.007": 2.41676175217,
			"-0.006": 10.9070707265,
			"-0.005": 17.1182085112,
			"-0.004": 22.2146050466,
			"-0.003": 25.7570137733,
			"-0.002": 27.209120519,
			"-0.001": 23.0070036953,
			"0.0": 19.3070912627,
			"0.001": 13.8047463537,
			"0.002": 11.8675597196,
			"0.003": 13.7469735541,
			"0.004": 16.9759340301,
			"0.005": 9.32211842042,
			"0.006": 4.81408568789,
			"0.007": 5.56768507998,
			"0.008": 3.70296421577,
			"0.009": 3.50800824293,
			"0.01": 4.78091220598,
			"0.011": 4.79600000248,
			"0.012": 5.66365085974,
			"0.013": 3.21781562878,
			"0.014": 1.15578406871,
			"0.015": 0.0441580178282,
			"0.016": 0.0,
			"0.017": 0.0,
			"0.018": 0.0,
			"0.019": 0.0,
			"0.02": 0.0,
			"0.021": 0.0,
			"0.022": 0.0,
			"0.023": 0.0,
			"0.024": 0.0,
			"0.025": 0.0
		}
	}
}
