{
	 "smiles": "CCC(=O)C(C)=C", 
	 "Tm": 203.65, 
	 "num_atms": 17, 
	 "gaussian": { 
		 "optdone": 1, 
		 "sigma_profile": "yes", 
		 "theory": "DFT", 
		 "functional": "B3LYP", 
		 "basiset": "6-31G**", 
		 "properties": { 
			 "R2extent": 1258.6812, 
			 "electric_dipole_moment_norm": 2.63459652129, 
			 "electric_quadrupole_moment_norm": 3.67420649665, 
			 "total_energy": -309.875442967, 
			 "HOMO_LUMO_gap": 0.19081, 
			 "cosmo_polarized_energy": -6.51, 
			 "cosmo_cavitation_energy": 20.16, 
			 "cosmo_dispersion_energy": -14.27, 
			 "cosmo_repulsion_energy": 1.21, 
			 "cosmo_total_nonelectrostatic_energy": 7.11, 
			 "SMD_solvation_energy": 4.91 
		},
		"coords": [
			{
				"x": -2.9660774746,
				"y": -0.3965715327,
				"z": -2.0548346818,
				"element": "C" 
			},
			{
				"x": -1.4535442749,
				"y": -0.2951997307,
				"z": -2.3300494068,
				"element": "C" 
			},
			{
				"x": -0.6606562004,
				"y": -0.0927638812,
				"z": -1.0425031752,
				"element": "C" 
			},
			{
				"x": -0.2038361088,
				"y": -1.0605659015,
				"z": -0.4490233229,
				"element": "O" 
			},
			{
				"x": -0.4697723226,
				"y": 1.2795983356,
				"z": -0.4625588811,
				"element": "C" 
			},
			{
				"x": 0.2696075617,
				"y": 1.3220985871,
				"z": 0.8495721257,
				"element": "C" 
			},
			{
				"x": -0.9279586618,
				"y": 2.3829033888,
				"z": -1.0732755469,
				"element": "C" 
			},
			{
				"x": -3.1741332618,
				"y": -1.2123181096,
				"z": -1.3560403551,
				"element": "H" 
			},
			{
				"x": -3.3589805088,
				"y": 0.5283158414,
				"z": -1.6217926854,
				"element": "H" 
			},
			{
				"x": -3.5121630823,
				"y": -0.5963556899,
				"z": -2.9816624523,
				"element": "H" 
			},
			{
				"x": -1.2535447277,
				"y": 0.5040413149,
				"z": -3.0506168094,
				"element": "H" 
			},
			{
				"x": -1.0959623357,
				"y": -1.2330467865,
				"z": -2.7638501014,
				"element": "H" 
			},
			{
				"x": 0.3777991716,
				"y": 2.3480028505,
				"z": 1.209982375,
				"element": "H" 
			},
			{
				"x": -0.254193057,
				"y": 0.731455264,
				"z": 1.6080123417,
				"element": "H" 
			},
			{
				"x": 1.26257648,
				"y": 0.873013766,
				"z": 0.7477156421,
				"element": "H" 
			},
			{
				"x": -1.4580576197,
				"y": 2.3520655557,
				"z": -2.0187904361,
				"element": "H" 
			},
			{
				"x": -0.7835035769,
				"y": 3.367426728,
				"z": -0.6368846298,
				"element": "H" 
			}
		],
		 "valence_orbital": [ 
			{
				"type": "occ",
				"energy": -0.36396,
				"method": "rhf"
			},
			{
				"type": "occ",
				"energy": -0.34892,
				"method": "rhf"
			},
			{
				"type": "occ",
				"energy": -0.34498,
				"method": "rhf"
			},
			{
				"type": "occ",
				"energy": -0.27015,
				"method": "rhf"
			},
			{
				"type": "occ",
				"energy": -0.24259,
				"method": "rhf"
			},
			{
				"type": "unocc",
				"energy": -0.05178,
				"method": "rhf"
			},
			{
				"type": "unocc",
				"energy": 0.05956,
				"method": "rhf"
			},
			{
				"type": "unocc",
				"energy": 0.09502,
				"method": "rhf"
			},
			{
				"type": "unocc",
				"energy": 0.12217,
				"method": "rhf"
			},
			{
				"type": "unocc",
				"energy": 0.13604,
				"method": "rhf"
			}
		],
		"cosmo_sigma_profile": { 
			"-0.025": 0.0,
			"-0.024": 0.0,
			"-0.023": 0.0,
			"-0.022": 0.0,
			"-0.021": 0.0,
			"-0.02": 0.0,
			"-0.019": 0.0,
			"-0.018": 0.0,
			"-0.017": 0.0,
			"-0.016": 0.0,
			"-0.015": 0.0,
			"-0.014": 0.0,
			"-0.013": 0.0,
			"-0.012": 0.0,
			"-0.011": 0.0,
			"-0.01": 0.0,
			"-0.009": 0.0,
			"-0.008": 0.0119618378982,
			"-0.007": 1.70211280613,
			"-0.006": 4.17038099751,
			"-0.005": 6.13967527868,
			"-0.004": 13.0097159963,
			"-0.003": 18.8792417214,
			"-0.002": 21.7009523877,
			"-0.001": 24.6321273024,
			"0.0": 21.1124497315,
			"0.001": 13.5527854264,
			"0.002": 5.92480443903,
			"0.003": 4.60639352571,
			"0.004": 3.08541060992,
			"0.005": 1.42958991034,
			"0.006": 1.89630221102,
			"0.007": 1.63669715397,
			"0.008": 1.24240743473,
			"0.009": 1.76275690253,
			"0.01": 1.72754531421,
			"0.011": 2.45758837042,
			"0.012": 4.04833896186,
			"0.013": 2.84854649796,
			"0.014": 0.500663102484,
			"0.015": 0.0,
			"0.016": 0.0,
			"0.017": 0.0,
			"0.018": 0.0,
			"0.019": 0.0,
			"0.02": 0.0,
			"0.021": 0.0,
			"0.022": 0.0,
			"0.023": 0.0,
			"0.024": 0.0,
			"0.025": 0.0
		}
	}
}
