{
	 "smiles": "CC1=CC(C(O)=O)=C(C=C1)S(N)(=O)=O", 
	 "Tm": 545.15, 
	 "num_atms": 23, 
	 "gaussian": { 
		 "optdone": 1, 
		 "sigma_profile": "yes", 
		 "theory": "DFT", 
		 "functional": "B3LYP", 
		 "basiset": "6-31G**", 
		 "properties": { 
			 "R2extent": 3624.8977, 
			 "electric_dipole_moment_norm": 6.21255321587, 
			 "electric_quadrupole_moment_norm": 22.6602098647, 
			 "total_energy": -1064.05872439, 
			 "HOMO_LUMO_gap": 0.20211, 
			 "cosmo_polarized_energy": -21.5, 
			 "cosmo_cavitation_energy": 28.32, 
			 "cosmo_dispersion_energy": -21.36, 
			 "cosmo_repulsion_energy": 1.64, 
			 "cosmo_total_nonelectrostatic_energy": 8.59, 
			 "SMD_solvation_energy": 5.59 
		},
		"coords": [
			{
				"x": 2.8809508231,
				"y": 1.0719680726,
				"z": -0.7527840337,
				"element": "C" 
			},
			{
				"x": 1.7120940307,
				"y": 0.280586382,
				"z": -0.2193773754,
				"element": "C" 
			},
			{
				"x": 0.4002812164,
				"y": 0.617926344,
				"z": -0.571460537,
				"element": "C" 
			},
			{
				"x": -0.7079009862,
				"y": -0.07043026,
				"z": -0.0653421605,
				"element": "C" 
			},
			{
				"x": -2.0344714715,
				"y": 0.4388863727,
				"z": -0.5351118242,
				"element": "C" 
			},
			{
				"x": -2.9951204299,
				"y": 0.4421764243,
				"z": 0.4271854185,
				"element": "O" 
			},
			{
				"x": -2.2372306454,
				"y": 0.8872154531,
				"z": -1.6401900477,
				"element": "O" 
			},
			{
				"x": -0.4915497482,
				"y": -1.1651523668,
				"z": 0.7969743707,
				"element": "C" 
			},
			{
				"x": 0.8124665999,
				"y": -1.5259293857,
				"z": 1.1364465527,
				"element": "C" 
			},
			{
				"x": 1.8988726994,
				"y": -0.8022750548,
				"z": 0.6456609181,
				"element": "C" 
			},
			{
				"x": -1.8034495701,
				"y": -2.2735882513,
				"z": 1.3914275415,
				"element": "S" 
			},
			{
				"x": -2.642348468,
				"y": -1.4647769537,
				"z": 2.5925241705,
				"element": "N" 
			},
			{
				"x": -2.7247358365,
				"y": -2.485410565,
				"z": 0.2785176438,
				"element": "O" 
			},
			{
				"x": -1.1320995386,
				"y": -3.3840492081,
				"z": 2.0682406202,
				"element": "O" 
			},
			{
				"x": 2.6936381695,
				"y": 1.4213796197,
				"z": -1.7721770782,
				"element": "H" 
			},
			{
				"x": 3.7972832754,
				"y": 0.4755347281,
				"z": -0.7579684811,
				"element": "H" 
			},
			{
				"x": 3.0686710359,
				"y": 1.9580448219,
				"z": -0.1339724818,
				"element": "H" 
			},
			{
				"x": 0.2148848565,
				"y": 1.4354348645,
				"z": -1.2612470514,
				"element": "H" 
			},
			{
				"x": -3.8155965308,
				"y": 0.7255223506,
				"z": -0.0109316368,
				"element": "H" 
			},
			{
				"x": 0.9646136976,
				"y": -2.3959496187,
				"z": 1.7649058122,
				"element": "H" 
			},
			{
				"x": 2.905641868,
				"y": -1.1012841238,
				"z": 0.9247965182,
				"element": "H" 
			},
			{
				"x": -3.0171912652,
				"y": -0.5834571614,
				"z": 2.2526240166,
				"element": "H" 
			},
			{
				"x": -2.0922037818,
				"y": -1.379472484,
				"z": 3.4411591248,
				"element": "H" 
			}
		],
		 "valence_orbital": [ 
			{
				"type": "occ",
				"energy": -0.30667,
				"method": "rhf"
			},
			{
				"type": "occ",
				"energy": -0.2999,
				"method": "rhf"
			},
			{
				"type": "occ",
				"energy": -0.29709,
				"method": "rhf"
			},
			{
				"type": "occ",
				"energy": -0.27691,
				"method": "rhf"
			},
			{
				"type": "occ",
				"energy": -0.26835,
				"method": "rhf"
			},
			{
				"type": "unocc",
				"energy": -0.06624,
				"method": "rhf"
			},
			{
				"type": "unocc",
				"energy": -0.03633,
				"method": "rhf"
			},
			{
				"type": "unocc",
				"energy": 0.02175,
				"method": "rhf"
			},
			{
				"type": "unocc",
				"energy": 0.05073,
				"method": "rhf"
			},
			{
				"type": "unocc",
				"energy": 0.06877,
				"method": "rhf"
			}
		],
		"cosmo_sigma_profile": { 
			"-0.025": 0.0,
			"-0.024": 0.0,
			"-0.023": 0.0,
			"-0.022": 0.0,
			"-0.021": 0.0,
			"-0.02": 0.0251634666848,
			"-0.019": 0.775483831806,
			"-0.018": 0.739547761858,
			"-0.017": 1.07914999277,
			"-0.016": 1.42953297342,
			"-0.015": 1.77800409317,
			"-0.014": 1.36342905729,
			"-0.013": 2.19282560321,
			"-0.012": 2.39787337928,
			"-0.011": 3.32746424992,
			"-0.01": 2.69559593078,
			"-0.009": 2.19025343687,
			"-0.008": 2.25240568026,
			"-0.007": 6.96472315745,
			"-0.006": 10.5695648328,
			"-0.005": 14.2502258059,
			"-0.004": 13.6434863465,
			"-0.003": 12.5980933007,
			"-0.002": 15.9177599047,
			"-0.001": 17.7195662222,
			"0.0": 14.2853352444,
			"0.001": 15.5130489888,
			"0.002": 13.4312889936,
			"0.003": 5.82101803283,
			"0.004": 4.37138736621,
			"0.005": 6.11001072273,
			"0.006": 4.18048763152,
			"0.007": 5.2858960756,
			"0.008": 7.13848912212,
			"0.009": 6.24336508582,
			"0.01": 10.6945568112,
			"0.011": 13.8942454889,
			"0.012": 4.34781409657,
			"0.013": 0.226986558141,
			"0.014": 0.0,
			"0.015": 0.0,
			"0.016": 0.0,
			"0.017": 0.0,
			"0.018": 0.0,
			"0.019": 0.0,
			"0.02": 0.0,
			"0.021": 0.0,
			"0.022": 0.0,
			"0.023": 0.0,
			"0.024": 0.0,
			"0.025": 0.0
		}
	}
}
