{
	 "smiles": "CC1=CC2=C(CCCC2=O)N1C1=CC(=CC=C1)C(F)(F)F", 
	 "Tm": 395.15, 
	 "num_atms": 35, 
	 "gaussian": { 
		 "optdone": 1, 
		 "sigma_profile": "yes", 
		 "theory": "DFT", 
		 "functional": "B3LYP", 
		 "basiset": "6-31G**", 
		 "properties": { 
			 "R2extent": 7381.4582, 
			 "electric_dipole_moment_norm": 5.18154870092, 
			 "electric_quadrupole_moment_norm": 28.804600363, 
			 "total_energy": -1047.65671285, 
			 "HOMO_LUMO_gap": 0.16292, 
			 "cosmo_polarized_energy": -13.89, 
			 "cosmo_cavitation_energy": 39.65, 
			 "cosmo_dispersion_energy": -26.78, 
			 "cosmo_repulsion_energy": 2.01, 
			 "cosmo_total_nonelectrostatic_energy": 14.88, 
			 "SMD_solvation_energy": 7.93 
		},
		"coords": [
			{
				"x": -2.7081125101,
				"y": -0.2277531073,
				"z": 0.2953178422,
				"element": "C" 
			},
			{
				"x": -1.5244531205,
				"y": -0.0869940865,
				"z": 1.197723169,
				"element": "C" 
			},
			{
				"x": -1.4248329968,
				"y": -0.2115428861,
				"z": 2.5588974859,
				"element": "C" 
			},
			{
				"x": -0.0535887674,
				"y": -0.020112697,
				"z": 2.9169454244,
				"element": "C" 
			},
			{
				"x": 0.6605329286,
				"y": 0.2075613724,
				"z": 1.7500885074,
				"element": "C" 
			},
			{
				"x": 2.1276572501,
				"y": 0.4929793145,
				"z": 1.6733335816,
				"element": "C" 
			},
			{
				"x": 2.8044644531,
				"y": -0.0634238329,
				"z": 2.9422712992,
				"element": "C" 
			},
			{
				"x": 2.0699217531,
				"y": 0.3540774855,
				"z": 4.2277923275,
				"element": "C" 
			},
			{
				"x": 0.5790804413,
				"y": -0.0073571857,
				"z": 4.2350343724,
				"element": "C" 
			},
			{
				"x": -0.0238143248,
				"y": -0.2247770552,
				"z": 5.2784361427,
				"element": "O" 
			},
			{
				"x": -0.2323978897,
				"y": 0.1733871721,
				"z": 0.7004792422,
				"element": "N" 
			},
			{
				"x": 0.0975359325,
				"y": 0.3590200308,
				"z": -0.6764263927,
				"element": "C" 
			},
			{
				"x": 0.7964870157,
				"y": -0.6352984249,
				"z": -1.3653739068,
				"element": "C" 
			},
			{
				"x": 1.1276042912,
				"y": -0.4430187108,
				"z": -2.70808858,
				"element": "C" 
			},
			{
				"x": 0.7523209948,
				"y": 0.7290271855,
				"z": -3.3694429622,
				"element": "C" 
			},
			{
				"x": 0.047432359,
				"y": 1.7144542416,
				"z": -2.6790548125,
				"element": "C" 
			},
			{
				"x": -0.2763800294,
				"y": 1.5358976571,
				"z": -1.3341782626,
				"element": "C" 
			},
			{
				"x": 1.8357362368,
				"y": -1.5379737375,
				"z": -3.4634091688,
				"element": "C" 
			},
			{
				"x": 2.630752075,
				"y": -2.2709596324,
				"z": -2.6541738805,
				"element": "F" 
			},
			{
				"x": 2.606158578,
				"y": -1.0425724656,
				"z": -4.4556432441,
				"element": "F" 
			},
			{
				"x": 0.9572169927,
				"y": -2.3927714001,
				"z": -4.0343163663,
				"element": "F" 
			},
			{
				"x": -3.583580584,
				"y": -0.4894755511,
				"z": 0.8937267812,
				"element": "H" 
			},
			{
				"x": -2.5660059691,
				"y": -1.015963822,
				"z": -0.4538454302,
				"element": "H" 
			},
			{
				"x": -2.940481714,
				"y": 0.695526814,
				"z": -0.24866028,
				"element": "H" 
			},
			{
				"x": -2.235475252,
				"y": -0.4215175686,
				"z": 3.2416560125,
				"element": "H" 
			},
			{
				"x": 2.3001383583,
				"y": 1.5783908927,
				"z": 1.6046616018,
				"element": "H" 
			},
			{
				"x": 2.5798500472,
				"y": 0.0561525993,
				"z": 0.7762566349,
				"element": "H" 
			},
			{
				"x": 2.821942396,
				"y": -1.1583825424,
				"z": 2.8789540075,
				"element": "H" 
			},
			{
				"x": 3.8473728119,
				"y": 0.2692101759,
				"z": 2.98022701,
				"element": "H" 
			},
			{
				"x": 2.5276948011,
				"y": -0.0902635348,
				"z": 5.1161788573,
				"element": "H" 
			},
			{
				"x": 2.1346683836,
				"y": 1.4455454302,
				"z": 4.3531075537,
				"element": "H" 
			},
			{
				"x": 1.0780099645,
				"y": -1.5486374008,
				"z": -0.8534608423,
				"element": "H" 
			},
			{
				"x": 1.0187965866,
				"y": 0.8692306936,
				"z": -4.4111735956,
				"element": "H" 
			},
			{
				"x": -0.2403556977,
				"y": 2.6297213322,
				"z": -3.186582889,
				"element": "H" 
			},
			{
				"x": -0.8074957957,
				"y": 2.3054132442,
				"z": -0.7832572398,
				"element": "H" 
			}
		],
		 "valence_orbital": [ 
			{
				"type": "occ",
				"energy": -0.28835,
				"method": "rhf"
			},
			{
				"type": "occ",
				"energy": -0.28685,
				"method": "rhf"
			},
			{
				"type": "occ",
				"energy": -0.24437,
				"method": "rhf"
			},
			{
				"type": "occ",
				"energy": -0.22464,
				"method": "rhf"
			},
			{
				"type": "occ",
				"energy": -0.2113,
				"method": "rhf"
			},
			{
				"type": "unocc",
				"energy": -0.04838,
				"method": "rhf"
			},
			{
				"type": "unocc",
				"energy": -0.03973,
				"method": "rhf"
			},
			{
				"type": "unocc",
				"energy": -0.01725,
				"method": "rhf"
			},
			{
				"type": "unocc",
				"energy": 0.03107,
				"method": "rhf"
			},
			{
				"type": "unocc",
				"energy": 0.07121,
				"method": "rhf"
			}
		],
		"cosmo_sigma_profile": { 
			"-0.025": 0.0,
			"-0.024": 0.0,
			"-0.023": 0.0,
			"-0.022": 0.0,
			"-0.021": 0.0,
			"-0.02": 0.0,
			"-0.019": 0.0,
			"-0.018": 0.0,
			"-0.017": 0.0,
			"-0.016": 0.0,
			"-0.015": 0.0,
			"-0.014": 0.0,
			"-0.013": 0.0,
			"-0.012": 0.0,
			"-0.011": 0.0,
			"-0.01": 0.0,
			"-0.009": 0.0,
			"-0.008": 1.79862864799,
			"-0.007": 7.10679696873,
			"-0.006": 10.7646005797,
			"-0.005": 18.1837017804,
			"-0.004": 27.3800366432,
			"-0.003": 32.0918453377,
			"-0.002": 34.4913937281,
			"-0.001": 31.9204600527,
			"0.0": 25.1259384773,
			"0.001": 22.2106055628,
			"0.002": 30.8066766825,
			"0.003": 32.0050313988,
			"0.004": 6.40215410678,
			"0.005": 7.23815202455,
			"0.006": 5.25333259787,
			"0.007": 3.2798643859,
			"0.008": 1.92335051286,
			"0.009": 2.08688941614,
			"0.01": 0.911142143877,
			"0.011": 1.91443696831,
			"0.012": 2.84614904788,
			"0.013": 4.51504351255,
			"0.014": 3.90482388379,
			"0.015": 1.1355620536,
			"0.016": 0.0,
			"0.017": 0.0,
			"0.018": 0.0,
			"0.019": 0.0,
			"0.02": 0.0,
			"0.021": 0.0,
			"0.022": 0.0,
			"0.023": 0.0,
			"0.024": 0.0,
			"0.025": 0.0
		}
	}
}
