{
	 "smiles": "COC1=CC=C(CNC2=NC=CC=C2)C=C1", 
	 "Tm": 397.15, 
	 "num_atms": 30, 
	 "gaussian": { 
		 "optdone": 1, 
		 "sigma_profile": "yes", 
		 "theory": "DFT", 
		 "functional": "B3LYP", 
		 "basiset": "6-31G**", 
		 "properties": { 
			 "R2extent": 5267.6947, 
			 "electric_dipole_moment_norm": 1.70187491021, 
			 "electric_quadrupole_moment_norm": 7.73666698715, 
			 "total_energy": -688.539792197, 
			 "HOMO_LUMO_gap": 0.18714, 
			 "cosmo_polarized_energy": -10.9, 
			 "cosmo_cavitation_energy": 33.72, 
			 "cosmo_dispersion_energy": -24.39, 
			 "cosmo_repulsion_energy": 1.9, 
			 "cosmo_total_nonelectrostatic_energy": 11.23, 
			 "SMD_solvation_energy": 5.03 
		},
		"coords": [
			{
				"x": -1.4585327126,
				"y": -0.0761273328,
				"z": 4.4835778351,
				"element": "C" 
			},
			{
				"x": -2.3098270536,
				"y": 0.6276038474,
				"z": 3.5945999342,
				"element": "O" 
			},
			{
				"x": -2.0404388646,
				"y": 0.5642748743,
				"z": 2.2564196946,
				"element": "C" 
			},
			{
				"x": -2.9165407325,
				"y": 1.2747137563,
				"z": 1.4243958848,
				"element": "C" 
			},
			{
				"x": -2.72348476,
				"y": 1.26954123,
				"z": 0.0473918346,
				"element": "C" 
			},
			{
				"x": -1.6624050565,
				"y": 0.5638674763,
				"z": -0.5387359477,
				"element": "C" 
			},
			{
				"x": -1.4428646039,
				"y": 0.5894862265,
				"z": -2.0404368704,
				"element": "C" 
			},
			{
				"x": -0.3866415581,
				"y": 1.5018845858,
				"z": -2.4811963727,
				"element": "N" 
			},
			{
				"x": 0.9333315062,
				"y": 1.1240430708,
				"z": -2.6097410874,
				"element": "C" 
			},
			{
				"x": 1.2223342624,
				"y": -0.1869405512,
				"z": -2.5663617771,
				"element": "N" 
			},
			{
				"x": 2.4974112311,
				"y": -0.5567844363,
				"z": -2.7509164533,
				"element": "C" 
			},
			{
				"x": 3.5464228073,
				"y": 0.3274408352,
				"z": -2.9720288336,
				"element": "C" 
			},
			{
				"x": 3.2397988702,
				"y": 1.6950601963,
				"z": -3.0029278538,
				"element": "C" 
			},
			{
				"x": 1.9310005434,
				"y": 2.1065150771,
				"z": -2.8233700257,
				"element": "C" 
			},
			{
				"x": -0.7991526306,
				"y": -0.144166423,
				"z": 0.3048710913,
				"element": "C" 
			},
			{
				"x": -0.9765840307,
				"y": -0.1499256936,
				"z": 1.6900705654,
				"element": "C" 
			},
			{
				"x": -1.8482308859,
				"y": 0.1097613465,
				"z": 5.4858208719,
				"element": "H" 
			},
			{
				"x": -1.4698151284,
				"y": -1.1563614581,
				"z": 4.2879310463,
				"element": "H" 
			},
			{
				"x": -0.4234028139,
				"y": 0.2853925632,
				"z": 4.4272288085,
				"element": "H" 
			},
			{
				"x": -3.7392701144,
				"y": 1.8167844884,
				"z": 1.8794400673,
				"element": "H" 
			},
			{
				"x": -3.4161885026,
				"y": 1.8200424203,
				"z": -0.5860005755,
				"element": "H" 
			},
			{
				"x": -2.3710519223,
				"y": 0.8876668693,
				"z": -2.5413534398,
				"element": "H" 
			},
			{
				"x": -1.1684577838,
				"y": -0.4007539702,
				"z": -2.4070429229,
				"element": "H" 
			},
			{
				"x": -0.5357672405,
				"y": 2.4776902345,
				"z": -2.2676507463,
				"element": "H" 
			},
			{
				"x": 2.682691311,
				"y": -1.6295366182,
				"z": -2.7119667315,
				"element": "H" 
			},
			{
				"x": 4.5597760822,
				"y": -0.0334632384,
				"z": -3.108956574,
				"element": "H" 
			},
			{
				"x": 4.0207938234,
				"y": 2.4325285839,
				"z": -3.1677216069,
				"element": "H" 
			},
			{
				"x": 1.6638480852,
				"y": 3.1592944673,
				"z": -2.8512808558,
				"element": "H" 
			},
			{
				"x": 0.0262117801,
				"y": -0.699170038,
				"z": -0.1315746127,
				"element": "H" 
			},
			{
				"x": -0.2896639078,
				"y": -0.7129623897,
				"z": 2.311115653,
				"element": "H" 
			}
		],
		 "valence_orbital": [ 
			{
				"type": "occ",
				"energy": -0.2731,
				"method": "rhf"
			},
			{
				"type": "occ",
				"energy": -0.24991,
				"method": "rhf"
			},
			{
				"type": "occ",
				"energy": -0.24607,
				"method": "rhf"
			},
			{
				"type": "occ",
				"energy": -0.21497,
				"method": "rhf"
			},
			{
				"type": "occ",
				"energy": -0.19757,
				"method": "rhf"
			},
			{
				"type": "unocc",
				"energy": -0.01043,
				"method": "rhf"
			},
			{
				"type": "unocc",
				"energy": 0.00126,
				"method": "rhf"
			},
			{
				"type": "unocc",
				"energy": 0.00986,
				"method": "rhf"
			},
			{
				"type": "unocc",
				"energy": 0.02219,
				"method": "rhf"
			},
			{
				"type": "unocc",
				"energy": 0.08953,
				"method": "rhf"
			}
		],
		"cosmo_sigma_profile": { 
			"-0.025": 0.0,
			"-0.024": 0.0,
			"-0.023": 0.0,
			"-0.022": 0.0,
			"-0.021": 0.0,
			"-0.02": 0.0,
			"-0.019": 0.0,
			"-0.018": 0.0,
			"-0.017": 0.0,
			"-0.016": 0.0,
			"-0.015": 0.0,
			"-0.014": 0.0,
			"-0.013": 0.830558002526,
			"-0.012": 0.881159936215,
			"-0.011": 1.6482918804,
			"-0.01": 1.15546967938,
			"-0.009": 1.18977630697,
			"-0.008": 1.66574597334,
			"-0.007": 2.68043077861,
			"-0.006": 11.2616676866,
			"-0.005": 26.7310433586,
			"-0.004": 25.2308701851,
			"-0.003": 24.8230704955,
			"-0.002": 18.4328798814,
			"-0.001": 16.5360423848,
			"0.0": 13.2793233472,
			"0.001": 13.0310804675,
			"0.002": 14.8691100023,
			"0.003": 20.0447697405,
			"0.004": 24.4972503,
			"0.005": 20.7205839992,
			"0.006": 13.1837936396,
			"0.007": 3.82530126396,
			"0.008": 3.33390147841,
			"0.009": 3.57965890509,
			"0.01": 2.58071788298,
			"0.011": 1.37092110073,
			"0.012": 0.50112079602,
			"0.013": 0.529290873026,
			"0.014": 0.0,
			"0.015": 0.0,
			"0.016": 0.0,
			"0.017": 0.0,
			"0.018": 0.0,
			"0.019": 0.0,
			"0.02": 0.0,
			"0.021": 0.0,
			"0.022": 0.0,
			"0.023": 0.0,
			"0.024": 0.0,
			"0.025": 0.0
		}
	}
}
