{
	 "smiles": "C1=CN=CN=C1", 
	 "Tm": 294.65, 
	 "num_atms": 10, 
	 "gaussian": { 
		 "optdone": 1, 
		 "sigma_profile": "yes", 
		 "theory": "DFT", 
		 "functional": "B3LYP", 
		 "basiset": "6-31G**", 
		 "properties": { 
			 "R2extent": 584.206, 
			 "electric_dipole_moment_norm": 2.27964838736, 
			 "electric_quadrupole_moment_norm": 5.49050654312, 
			 "total_energy": -264.323463027, 
			 "HOMO_LUMO_gap": 0.21134, 
			 "cosmo_polarized_energy": -6.8, 
			 "cosmo_cavitation_energy": 14.05, 
			 "cosmo_dispersion_energy": -10.75, 
			 "cosmo_repulsion_energy": 0.92, 
			 "cosmo_total_nonelectrostatic_energy": 4.21, 
			 "SMD_solvation_energy": -0.08 
		},
		"coords": [
			{
				"x": -0.678436787,
				"y": 0.3384222256,
				"z": -1.9063873564,
				"element": "C" 
			},
			{
				"x": -0.9896658777,
				"y": 0.3813385289,
				"z": -0.5487564449,
				"element": "C" 
			},
			{
				"x": -0.0486755876,
				"y": 0.4626384238,
				"z": 0.4004404143,
				"element": "N" 
			},
			{
				"x": 1.2151557845,
				"y": 0.5003447293,
				"z": -0.0363386993,
				"element": "C" 
			},
			{
				"x": 1.6359471547,
				"y": 0.4659468522,
				"z": -1.3056801248,
				"element": "N" 
			},
			{
				"x": 0.6750541611,
				"y": 0.3846090979,
				"z": -2.2347176713,
				"element": "C" 
			},
			{
				"x": -1.4488861964,
				"y": 0.2725818988,
				"z": -2.6672586191,
				"element": "H" 
			},
			{
				"x": -2.0230092569,
				"y": 0.3498836356,
				"z": -0.2070766449,
				"element": "H" 
			},
			{
				"x": 1.9882547187,
				"y": 0.5664055004,
				"z": 0.7271449173,
				"element": "H" 
			},
			{
				"x": 1.0036618866,
				"y": 0.3558291076,
				"z": -3.272369771,
				"element": "H" 
			}
		],
		 "valence_orbital": [ 
			{
				"type": "occ",
				"energy": -0.41325,
				"method": "rhf"
			},
			{
				"type": "occ",
				"energy": -0.31906,
				"method": "rhf"
			},
			{
				"type": "occ",
				"energy": -0.30316,
				"method": "rhf"
			},
			{
				"type": "occ",
				"energy": -0.2898,
				"method": "rhf"
			},
			{
				"type": "occ",
				"energy": -0.25421,
				"method": "rhf"
			},
			{
				"type": "unocc",
				"energy": -0.04287,
				"method": "rhf"
			},
			{
				"type": "unocc",
				"energy": -0.03068,
				"method": "rhf"
			},
			{
				"type": "unocc",
				"energy": 0.09861,
				"method": "rhf"
			},
			{
				"type": "unocc",
				"energy": 0.12631,
				"method": "rhf"
			},
			{
				"type": "unocc",
				"energy": 0.14636,
				"method": "rhf"
			}
		],
		"cosmo_sigma_profile": { 
			"-0.025": 0.0,
			"-0.024": 0.0,
			"-0.023": 0.0,
			"-0.022": 0.0,
			"-0.021": 0.0,
			"-0.02": 0.0,
			"-0.019": 0.0,
			"-0.018": 0.0,
			"-0.017": 0.0,
			"-0.016": 0.0,
			"-0.015": 0.0,
			"-0.014": 0.0,
			"-0.013": 0.0,
			"-0.012": 0.0,
			"-0.011": 0.0,
			"-0.01": 0.0,
			"-0.009": 0.0,
			"-0.008": 4.05142761781,
			"-0.007": 10.2629027282,
			"-0.006": 9.45777890793,
			"-0.005": 5.44515037371,
			"-0.004": 6.78318162334,
			"-0.003": 5.3859715391,
			"-0.002": 6.71298717845,
			"-0.001": 11.1884880005,
			"0.0": 14.0459995416,
			"0.001": 7.50281974015,
			"0.002": 3.50211208806,
			"0.003": 4.24366808976,
			"0.004": 2.87603028097,
			"0.005": 1.55250209419,
			"0.006": 3.57242045838,
			"0.007": 2.7192937591,
			"0.008": 0.96258240008,
			"0.009": 1.87378425929,
			"0.01": 2.39301369197,
			"0.011": 1.14443678168,
			"0.012": 2.12603964776,
			"0.013": 2.11843770906,
			"0.014": 1.42516431349,
			"0.015": 1.78977510225,
			"0.016": 0.447380929205,
			"0.017": 0.0,
			"0.018": 0.0,
			"0.019": 0.0,
			"0.02": 0.0,
			"0.021": 0.0,
			"0.022": 0.0,
			"0.023": 0.0,
			"0.024": 0.0,
			"0.025": 0.0
		}
	}
}
