{
	 "smiles": "CCOP(=O)(CC1=C(Cl)C=CC(Cl)=C1)OCC", 
	 "Tm": 327.15, 
	 "num_atms": 32, 
	 "gaussian": { 
		 "optdone": 1, 
		 "sigma_profile": "yes", 
		 "theory": "DFT", 
		 "functional": "B3LYP", 
		 "basiset": "6-31G**", 
		 "properties": { 
			 "R2extent": 6402.3627, 
			 "electric_dipole_moment_norm": 2.20741643783, 
			 "electric_quadrupole_moment_norm": 10.454847129, 
			 "total_energy": -1915.69666019, 
			 "HOMO_LUMO_gap": 0.21675, 
			 "cosmo_polarized_energy": -12.68, 
			 "cosmo_cavitation_energy": 40.44, 
			 "cosmo_dispersion_energy": -26.74, 
			 "cosmo_repulsion_energy": 2.1, 
			 "cosmo_total_nonelectrostatic_energy": 15.81, 
			 "SMD_solvation_energy": 7.87 
		},
		"coords": [
			{
				"x": -2.4085082691,
				"y": -1.0648538503,
				"z": 2.5007627588,
				"element": "C" 
			},
			{
				"x": -1.1634893922,
				"y": -0.5693676062,
				"z": 3.2170779835,
				"element": "C" 
			},
			{
				"x": -0.4377344406,
				"y": 0.3769884032,
				"z": 2.3872795794,
				"element": "O" 
			},
			{
				"x": 0.9019587917,
				"y": -0.0788563231,
				"z": 1.613681813,
				"element": "P" 
			},
			{
				"x": 1.9478120067,
				"y": -0.7652948108,
				"z": 2.4165565844,
				"element": "O" 
			},
			{
				"x": 1.4290075764,
				"y": 1.5280497935,
				"z": 0.9049973182,
				"element": "C" 
			},
			{
				"x": 0.4544119066,
				"y": 2.1945701596,
				"z": -0.0342210309,
				"element": "C" 
			},
			{
				"x": 0.5718074287,
				"y": 2.1373751463,
				"z": -1.43131392,
				"element": "C" 
			},
			{
				"x": 1.9018929054,
				"y": 1.2646654652,
				"z": -2.1903195315,
				"element": "Cl" 
			},
			{
				"x": -0.3419303308,
				"y": 2.7731712762,
				"z": -2.2727148387,
				"element": "C" 
			},
			{
				"x": -1.409107283,
				"y": 3.4854630613,
				"z": -1.7334448524,
				"element": "C" 
			},
			{
				"x": -1.5397849203,
				"y": 3.5483222163,
				"z": -0.3468325283,
				"element": "C" 
			},
			{
				"x": -2.8785137786,
				"y": 4.4429066221,
				"z": 0.3551518248,
				"element": "Cl" 
			},
			{
				"x": -0.6278361439,
				"y": 2.916998502,
				"z": 0.4917261436,
				"element": "C" 
			},
			{
				"x": 0.3086299018,
				"y": -0.9665046299,
				"z": 0.3910166472,
				"element": "O" 
			},
			{
				"x": 1.1288118176,
				"y": -1.9893429479,
				"z": -0.2340889265,
				"element": "C" 
			},
			{
				"x": 0.2055928446,
				"y": -2.9671075293,
				"z": -0.9366561183,
				"element": "C" 
			},
			{
				"x": -2.1410771977,
				"y": -1.6080282362,
				"z": 1.5913000205,
				"element": "H" 
			},
			{
				"x": -2.9741094456,
				"y": -1.7343767351,
				"z": 3.1579196963,
				"element": "H" 
			},
			{
				"x": -3.0540044889,
				"y": -0.2261416683,
				"z": 2.2249044383,
				"element": "H" 
			},
			{
				"x": -0.4971348958,
				"y": -1.3910831469,
				"z": 3.4981176575,
				"element": "H" 
			},
			{
				"x": -1.4198276905,
				"y": -0.0202499128,
				"z": 4.1273861391,
				"element": "H" 
			},
			{
				"x": 1.6293281285,
				"y": 2.1699934693,
				"z": 1.768579089,
				"element": "H" 
			},
			{
				"x": 2.3876010534,
				"y": 1.3380022374,
				"z": 0.4171564883,
				"element": "H" 
			},
			{
				"x": -0.2141417362,
				"y": 2.7102486786,
				"z": -3.347457345,
				"element": "H" 
			},
			{
				"x": -2.1237897592,
				"y": 3.983780741,
				"z": -2.3782766626,
				"element": "H" 
			},
			{
				"x": -0.7565032858,
				"y": 2.9679765871,
				"z": 1.5665810635,
				"element": "H" 
			},
			{
				"x": 1.8001376774,
				"y": -1.5027778442,
				"z": -0.950240347,
				"element": "H" 
			},
			{
				"x": 1.7326310533,
				"y": -2.4789350758,
				"z": 0.5348435041,
				"element": "H" 
			},
			{
				"x": -0.4086492575,
				"y": -2.4548601155,
				"z": -1.6825467431,
				"element": "H" 
			},
			{
				"x": 0.7972252196,
				"y": -3.7353123407,
				"z": -1.44525218,
				"element": "H" 
			},
			{
				"x": -0.4575059959,
				"y": -3.4610195859,
				"z": -0.220373725,
				"element": "H" 
			}
		],
		 "valence_orbital": [ 
			{
				"type": "occ",
				"energy": -0.30197,
				"method": "rhf"
			},
			{
				"type": "occ",
				"energy": -0.29106,
				"method": "rhf"
			},
			{
				"type": "occ",
				"energy": -0.2818,
				"method": "rhf"
			},
			{
				"type": "occ",
				"energy": -0.26378,
				"method": "rhf"
			},
			{
				"type": "occ",
				"energy": -0.24657,
				"method": "rhf"
			},
			{
				"type": "unocc",
				"energy": -0.02982,
				"method": "rhf"
			},
			{
				"type": "unocc",
				"energy": -0.02543,
				"method": "rhf"
			},
			{
				"type": "unocc",
				"energy": 0.01229,
				"method": "rhf"
			},
			{
				"type": "unocc",
				"energy": 0.03198,
				"method": "rhf"
			},
			{
				"type": "unocc",
				"energy": 0.06843,
				"method": "rhf"
			}
		],
		"cosmo_sigma_profile": { 
			"-0.025": 0.0,
			"-0.024": 0.0,
			"-0.023": 0.0,
			"-0.022": 0.0,
			"-0.021": 0.0,
			"-0.02": 0.0,
			"-0.019": 0.0,
			"-0.018": 0.0,
			"-0.017": 0.0,
			"-0.016": 0.0,
			"-0.015": 0.0,
			"-0.014": 0.0,
			"-0.013": 0.0,
			"-0.012": 0.0,
			"-0.011": 0.0,
			"-0.01": 0.0,
			"-0.009": 0.245003961195,
			"-0.008": 5.18745451121,
			"-0.007": 8.36142677314,
			"-0.006": 10.5187829031,
			"-0.005": 15.4314138885,
			"-0.004": 29.306157017,
			"-0.003": 30.8797818342,
			"-0.002": 27.6947705312,
			"-0.001": 29.497990927,
			"0.0": 32.7802736375,
			"0.001": 28.587467403,
			"0.002": 27.1685519307,
			"0.003": 20.2293096413,
			"0.004": 22.0149681705,
			"0.005": 10.6554157169,
			"0.006": 4.74089026381,
			"0.007": 2.69955263127,
			"0.008": 1.10803990224,
			"0.009": 1.29771765353,
			"0.01": 1.15233458099,
			"0.011": 1.12844290174,
			"0.012": 1.34571781158,
			"0.013": 1.56770445961,
			"0.014": 3.50982996138,
			"0.015": 5.06164996865,
			"0.016": 0.133992559724,
			"0.017": 0.0,
			"0.018": 0.0,
			"0.019": 0.0,
			"0.02": 0.0,
			"0.021": 0.0,
			"0.022": 0.0,
			"0.023": 0.0,
			"0.024": 0.0,
			"0.025": 0.0
		}
	}
}
