{
	 "smiles": "OCCOC1=C2C=CC=CC2=NC=C1C#N", 
	 "Tm": 446.15, 
	 "num_atms": 26, 
	 "gaussian": { 
		 "optdone": 1, 
		 "sigma_profile": "yes", 
		 "theory": "DFT", 
		 "functional": "B3LYP", 
		 "basiset": "6-31G**", 
		 "properties": { 
			 "R2extent": 3963.8271, 
			 "electric_dipole_moment_norm": 3.78969361558, 
			 "electric_quadrupole_moment_norm": 14.4313656901, 
			 "total_energy": -723.221292491, 
			 "HOMO_LUMO_gap": 0.16969, 
			 "cosmo_polarized_energy": -14.31, 
			 "cosmo_cavitation_energy": 31.09, 
			 "cosmo_dispersion_energy": -21.75, 
			 "cosmo_repulsion_energy": 1.68, 
			 "cosmo_total_nonelectrostatic_energy": 11.03, 
			 "SMD_solvation_energy": 5.15 
		},
		"coords": [
			{
				"x": 1.3364016896,
				"y": -1.4134750022,
				"z": 2.4681378461,
				"element": "O" 
			},
			{
				"x": 0.0406853854,
				"y": -1.0816102392,
				"z": 2.9405461443,
				"element": "C" 
			},
			{
				"x": -0.7658707131,
				"y": -0.3416268658,
				"z": 1.887184651,
				"element": "C" 
			},
			{
				"x": -0.8433626406,
				"y": -1.2293120868,
				"z": 0.7449820133,
				"element": "O" 
			},
			{
				"x": -1.2006673956,
				"y": -0.6682435585,
				"z": -0.4448016895,
				"element": "C" 
			},
			{
				"x": -0.2268619373,
				"y": -0.0491768891,
				"z": -1.2761740894,
				"element": "C" 
			},
			{
				"x": 1.1420425525,
				"y": 0.0615538278,
				"z": -0.9139563299,
				"element": "C" 
			},
			{
				"x": 2.0307013983,
				"y": 0.6729700144,
				"z": -1.7706454983,
				"element": "C" 
			},
			{
				"x": 1.5932009711,
				"y": 1.1895223347,
				"z": -3.0148149199,
				"element": "C" 
			},
			{
				"x": 0.2716910495,
				"y": 1.0884476952,
				"z": -3.3911044824,
				"element": "C" 
			},
			{
				"x": -0.6730979699,
				"y": 0.46688173,
				"z": -2.5359908363,
				"element": "C" 
			},
			{
				"x": -1.9722616746,
				"y": 0.3825629611,
				"z": -2.957195523,
				"element": "N" 
			},
			{
				"x": -2.8401573653,
				"y": -0.1992686291,
				"z": -2.1659062467,
				"element": "C" 
			},
			{
				"x": -2.5156903957,
				"y": -0.7463260577,
				"z": -0.8864034964,
				"element": "C" 
			},
			{
				"x": -3.5262452689,
				"y": -1.3522108967,
				"z": -0.0785287575,
				"element": "C" 
			},
			{
				"x": -4.368037462,
				"y": -1.8294748141,
				"z": 0.5676539001,
				"element": "N" 
			},
			{
				"x": 1.2088748102,
				"y": -2.0465174492,
				"z": 1.7483629113,
				"element": "H" 
			},
			{
				"x": 0.171226709,
				"y": -0.4332377716,
				"z": 3.8127519071,
				"element": "H" 
			},
			{
				"x": -0.5120440137,
				"y": -1.975728289,
				"z": 3.2634556305,
				"element": "H" 
			},
			{
				"x": -0.259846346,
				"y": 0.5854908763,
				"z": 1.596081633,
				"element": "H" 
			},
			{
				"x": -1.7776753594,
				"y": -0.1110304792,
				"z": 2.2427577224,
				"element": "H" 
			},
			{
				"x": 1.4726138166,
				"y": -0.3348150124,
				"z": 0.0403337458,
				"element": "H" 
			},
			{
				"x": 3.0767631061,
				"y": 0.7584435266,
				"z": -1.4926009719,
				"element": "H" 
			},
			{
				"x": 2.3098617112,
				"y": 1.6667996934,
				"z": -3.676656531,
				"element": "H" 
			},
			{
				"x": -0.0869679589,
				"y": 1.4719346809,
				"z": -4.3403225994,
				"element": "H" 
			},
			{
				"x": -3.8698766985,
				"y": -0.2623533,
				"z": -2.5128461334,
				"element": "H" 
			}
		],
		 "valence_orbital": [ 
			{
				"type": "occ",
				"energy": -0.30116,
				"method": "rhf"
			},
			{
				"type": "occ",
				"energy": -0.28811,
				"method": "rhf"
			},
			{
				"type": "occ",
				"energy": -0.27441,
				"method": "rhf"
			},
			{
				"type": "occ",
				"energy": -0.26851,
				"method": "rhf"
			},
			{
				"type": "occ",
				"energy": -0.24802,
				"method": "rhf"
			},
			{
				"type": "unocc",
				"energy": -0.07833,
				"method": "rhf"
			},
			{
				"type": "unocc",
				"energy": -0.04839,
				"method": "rhf"
			},
			{
				"type": "unocc",
				"energy": 0.00202,
				"method": "rhf"
			},
			{
				"type": "unocc",
				"energy": 0.02801,
				"method": "rhf"
			},
			{
				"type": "unocc",
				"energy": 0.0351,
				"method": "rhf"
			}
		],
		"cosmo_sigma_profile": { 
			"-0.025": 0.0,
			"-0.024": 0.0,
			"-0.023": 0.0,
			"-0.022": 0.0,
			"-0.021": 0.0,
			"-0.02": 0.0,
			"-0.019": 0.0,
			"-0.018": 0.0,
			"-0.017": 0.0,
			"-0.016": 0.0,
			"-0.015": 0.0530830137394,
			"-0.014": 0.54348825533,
			"-0.013": 0.573553010623,
			"-0.012": 0.537494533066,
			"-0.011": 1.42603418892,
			"-0.01": 0.443973917587,
			"-0.009": 0.99377302428,
			"-0.008": 3.22755096471,
			"-0.007": 8.00465219632,
			"-0.006": 19.9854882692,
			"-0.005": 24.6486405539,
			"-0.004": 19.8763691445,
			"-0.003": 17.601041157,
			"-0.002": 19.4211946407,
			"-0.001": 15.6183221939,
			"0.0": 13.996584356,
			"0.001": 15.0289413158,
			"0.002": 16.851589432,
			"0.003": 15.775827719,
			"0.004": 5.97158407231,
			"0.005": 6.0679250476,
			"0.006": 5.65987005307,
			"0.007": 6.19985865299,
			"0.008": 5.35393915644,
			"0.009": 5.42434433118,
			"0.01": 5.07948345913,
			"0.011": 5.0317601175,
			"0.012": 3.75263675444,
			"0.013": 4.25787288733,
			"0.014": 2.04717071909,
			"0.015": 0.378990371364,
			"0.016": 0.0,
			"0.017": 0.0,
			"0.018": 0.0,
			"0.019": 0.0,
			"0.02": 0.0,
			"0.021": 0.0,
			"0.022": 0.0,
			"0.023": 0.0,
			"0.024": 0.0,
			"0.025": 0.0
		}
	}
}
