{
	 "smiles": "ClC(Cl)=C(Cl)Cl", 
	 "Tm": 251.05, 
	 "num_atms": 6, 
	 "gaussian": { 
		 "optdone": 1, 
		 "sigma_profile": "yes", 
		 "theory": "DFT", 
		 "functional": "B3LYP", 
		 "basiset": "6-31G**", 
		 "properties": { 
			 "R2extent": 2008.0265, 
			 "electric_dipole_moment_norm": 0.0, 
			 "electric_quadrupole_moment_norm": 1.75396107425, 
			 "total_energy": -1916.9343625, 
			 "HOMO_LUMO_gap": 0.22114, 
			 "cosmo_polarized_energy": -1.23, 
			 "cosmo_cavitation_energy": 17.72, 
			 "cosmo_dispersion_energy": -13.84, 
			 "cosmo_repulsion_energy": 1.2, 
			 "cosmo_total_nonelectrostatic_energy": 5.08, 
			 "SMD_solvation_energy": 2.51 
		},
		"coords": [
			{
				"x": 2.257313752,
				"y": 1.9360277296,
				"z": 1.9485010685,
				"element": "Cl" 
			},
			{
				"x": 1.7260983556,
				"y": 0.5893272868,
				"z": 1.000104675,
				"element": "C" 
			},
			{
				"x": 2.1878948101,
				"y": -0.9636664058,
				"z": 1.6085189327,
				"element": "Cl" 
			},
			{
				"x": 1.0061633741,
				"y": 0.7389359461,
				"z": -0.1288381928,
				"element": "C" 
			},
			{
				"x": 0.4751045416,
				"y": -0.6077581064,
				"z": -1.0773355082,
				"element": "Cl" 
			},
			{
				"x": 0.5445251665,
				"y": 2.2919335498,
				"z": -0.7373509752,
				"element": "Cl" 
			}
		],
		 "valence_orbital": [ 
			{
				"type": "occ",
				"energy": -0.35468,
				"method": "rhf"
			},
			{
				"type": "occ",
				"energy": -0.34995,
				"method": "rhf"
			},
			{
				"type": "occ",
				"energy": -0.3437,
				"method": "rhf"
			},
			{
				"type": "occ",
				"energy": -0.31638,
				"method": "rhf"
			},
			{
				"type": "occ",
				"energy": -0.26141,
				"method": "rhf"
			},
			{
				"type": "unocc",
				"energy": -0.04027,
				"method": "rhf"
			},
			{
				"type": "unocc",
				"energy": -0.02414,
				"method": "rhf"
			},
			{
				"type": "unocc",
				"energy": -0.01974,
				"method": "rhf"
			},
			{
				"type": "unocc",
				"energy": -0.01009,
				"method": "rhf"
			},
			{
				"type": "unocc",
				"energy": 0.12106,
				"method": "rhf"
			}
		],
		"cosmo_sigma_profile": { 
			"-0.025": 0.0,
			"-0.024": 0.0,
			"-0.023": 0.0,
			"-0.022": 0.0,
			"-0.021": 0.0,
			"-0.02": 0.0,
			"-0.019": 0.0,
			"-0.018": 0.0,
			"-0.017": 0.0,
			"-0.016": 0.0,
			"-0.015": 0.0,
			"-0.014": 0.0,
			"-0.013": 0.0,
			"-0.012": 0.0,
			"-0.011": 0.0,
			"-0.01": 0.0,
			"-0.009": 0.0,
			"-0.008": 0.0,
			"-0.007": 0.0,
			"-0.006": 0.458504800279,
			"-0.005": 4.26534974211,
			"-0.004": 6.28203051475,
			"-0.003": 11.2235621578,
			"-0.002": 20.9790305448,
			"-0.001": 13.9983388062,
			"0.0": 18.0295886718,
			"0.001": 25.5954973439,
			"0.002": 41.093280756,
			"0.003": 10.0903296075,
			"0.004": 0.000898793937836,
			"0.005": 0.0,
			"0.006": 0.0,
			"0.007": 0.0,
			"0.008": 0.0,
			"0.009": 0.0,
			"0.01": 0.0,
			"0.011": 0.0,
			"0.012": 0.0,
			"0.013": 0.0,
			"0.014": 0.0,
			"0.015": 0.0,
			"0.016": 0.0,
			"0.017": 0.0,
			"0.018": 0.0,
			"0.019": 0.0,
			"0.02": 0.0,
			"0.021": 0.0,
			"0.022": 0.0,
			"0.023": 0.0,
			"0.024": 0.0,
			"0.025": 0.0
		}
	}
}
