{
	 "smiles": "CCCCC(=O)OCC(=O)C1(O)CC(OC2CC(NC(=O)C(F)(F)F)C(O)C(C)O2)C2=C(O)C3=C(C(O)=C2C1)C(=O)C1=CC=CC(OC)=C1C3=O", 
	 "Tm": 408.65, 
	 "num_atms": 87, 
	 "gaussian": { 
		 "optdone": 1, 
		 "sigma_profile": "yes", 
		 "theory": "DFT", 
		 "functional": "B3LYP", 
		 "basiset": "6-31G**", 
		 "properties": { 
			 "R2extent": 34979.5219, 
			 "electric_dipole_moment_norm": 5.60775960077, 
			 "electric_quadrupole_moment_norm": 22.4680266868, 
			 "total_energy": -2649.52767163, 
			 "HOMO_LUMO_gap": 0.10618, 
			 "cosmo_polarized_energy": -32.27, 
			 "cosmo_cavitation_energy": 85.28, 
			 "cosmo_dispersion_energy": -51.88, 
			 "cosmo_repulsion_energy": 3.69, 
			 "cosmo_total_nonelectrostatic_energy": 37.08, 
			 "SMD_solvation_energy": 15.87 
		},
		"coords": [
			{
				"x": 4.9624985644,
				"y": 3.9856639534,
				"z": -2.7637304952,
				"element": "C" 
			},
			{
				"x": 5.8440308696,
				"y": 2.9798117605,
				"z": -2.0144199597,
				"element": "C" 
			},
			{
				"x": 6.2447508472,
				"y": 3.4132383017,
				"z": -0.594735186,
				"element": "C" 
			},
			{
				"x": 5.0631533559,
				"y": 3.7124993697,
				"z": 0.3564451305,
				"element": "C" 
			},
			{
				"x": 4.1194277086,
				"y": 2.5417183965,
				"z": 0.5043026286,
				"element": "C" 
			},
			{
				"x": 2.9809659517,
				"y": 2.4913704328,
				"z": 0.0802838514,
				"element": "O" 
			},
			{
				"x": 4.704289343,
				"y": 1.5192382126,
				"z": 1.1765531009,
				"element": "O" 
			},
			{
				"x": 3.9079167487,
				"y": 0.3400992533,
				"z": 1.3069620748,
				"element": "C" 
			},
			{
				"x": 3.9296804787,
				"y": -0.4959095924,
				"z": 0.032120459,
				"element": "C" 
			},
			{
				"x": 4.8064167334,
				"y": -0.3620147143,
				"z": -0.8024306945,
				"element": "O" 
			},
			{
				"x": 2.8059080953,
				"y": -1.518365026,
				"z": -0.2393229435,
				"element": "C" 
			},
			{
				"x": 3.3387220544,
				"y": -2.5333238195,
				"z": -1.0707049663,
				"element": "O" 
			},
			{
				"x": 2.2485599442,
				"y": -2.2258602746,
				"z": 1.0252545572,
				"element": "C" 
			},
			{
				"x": 0.8267866791,
				"y": -1.8082177041,
				"z": 1.4176566087,
				"element": "C" 
			},
			{
				"x": 0.8571930617,
				"y": -0.4368390641,
				"z": 1.8680809471,
				"element": "O" 
			},
			{
				"x": 0.2552162706,
				"y": -0.1323601018,
				"z": 3.1260498985,
				"element": "C" 
			},
			{
				"x": -1.254903582,
				"y": 0.0467202828,
				"z": 3.0058393237,
				"element": "C" 
			},
			{
				"x": -1.553072058,
				"y": 1.1456885923,
				"z": 1.9721030281,
				"element": "C" 
			},
			{
				"x": -2.9628560278,
				"y": 1.5258606055,
				"z": 1.9490988114,
				"element": "N" 
			},
			{
				"x": -3.9434625229,
				"y": 0.679757868,
				"z": 1.5792911047,
				"element": "C" 
			},
			{
				"x": -3.8248215145,
				"y": -0.5098974348,
				"z": 1.3196680863,
				"element": "O" 
			},
			{
				"x": -5.3532410919,
				"y": 1.3166378862,
				"z": 1.5575151182,
				"element": "C" 
			},
			{
				"x": -5.3069633695,
				"y": 2.6716860145,
				"z": 1.5477542536,
				"element": "F" 
			},
			{
				"x": -6.0295781745,
				"y": 0.9161183448,
				"z": 0.4737173024,
				"element": "F" 
			},
			{
				"x": -6.0449371078,
				"y": 0.9405460413,
				"z": 2.647873085,
				"element": "F" 
			},
			{
				"x": -0.6748518886,
				"y": 2.4234390472,
				"z": 2.244018488,
				"element": "C" 
			},
			{
				"x": -1.458460653,
				"y": 3.6167714103,
				"z": 2.3421895272,
				"element": "O" 
			},
			{
				"x": 0.1851655942,
				"y": 2.2713013507,
				"z": 3.5146788167,
				"element": "C" 
			},
			{
				"x": 1.2215542784,
				"y": 3.3792639922,
				"z": 3.6451579751,
				"element": "C" 
			},
			{
				"x": 0.9031174746,
				"y": 1.037200252,
				"z": 3.5667643911,
				"element": "O" 
			},
			{
				"x": -0.0895509804,
				"y": -1.9233680486,
				"z": 0.2189792819,
				"element": "C" 
			},
			{
				"x": -1.3665651397,
				"y": -2.5314365218,
				"z": 0.3164059509,
				"element": "C" 
			},
			{
				"x": -1.7355623095,
				"y": -3.0421357916,
				"z": 1.4999734962,
				"element": "O" 
			},
			{
				"x": -2.2131883316,
				"y": -2.5472004928,
				"z": -0.8068219164,
				"element": "C" 
			},
			{
				"x": -1.7470169084,
				"y": -2.0153722482,
				"z": -2.0411546242,
				"element": "C" 
			},
			{
				"x": -0.4571337908,
				"y": -1.4562860992,
				"z": -2.1361039532,
				"element": "C" 
			},
			{
				"x": 0.0202730835,
				"y": -0.9549927202,
				"z": -3.2816313102,
				"element": "O" 
			},
			{
				"x": 0.3638350533,
				"y": -1.3913498728,
				"z": -0.978649409,
				"element": "C" 
			},
			{
				"x": 1.7064230847,
				"y": -0.7120119519,
				"z": -1.0118957319,
				"element": "C" 
			},
			{
				"x": -2.6086001171,
				"y": -2.0298127254,
				"z": -3.2154711866,
				"element": "C" 
			},
			{
				"x": -2.2048186739,
				"y": -1.6147965435,
				"z": -4.323542012,
				"element": "O" 
			},
			{
				"x": -4.0031499895,
				"y": -2.5224760285,
				"z": -3.070232169,
				"element": "C" 
			},
			{
				"x": -4.8094617744,
				"y": -2.5254811451,
				"z": -4.2107750693,
				"element": "C" 
			},
			{
				"x": -6.1336990721,
				"y": -2.9466270845,
				"z": -4.1232065777,
				"element": "C" 
			},
			{
				"x": -6.6600364466,
				"y": -3.323137899,
				"z": -2.8912629608,
				"element": "C" 
			},
			{
				"x": -5.8741509254,
				"y": -3.3099765228,
				"z": -1.7307391025,
				"element": "C" 
			},
			{
				"x": -6.4937978709,
				"y": -3.7009734604,
				"z": -0.5835750714,
				"element": "O" 
			},
			{
				"x": -6.7276866121,
				"y": -2.6819015287,
				"z": 0.401692061,
				"element": "C" 
			},
			{
				"x": -4.50668023,
				"y": -2.9431549631,
				"z": -1.811578691,
				"element": "C" 
			},
			{
				"x": -3.5768528899,
				"y": -3.061765005,
				"z": -0.660961893,
				"element": "C" 
			},
			{
				"x": -3.9334885734,
				"y": -3.589370691,
				"z": 0.4132105091,
				"element": "O" 
			},
			{
				"x": 5.4270147815,
				"y": 4.9787850064,
				"z": -2.7966476779,
				"element": "H" 
			},
			{
				"x": 3.97883892,
				"y": 4.0873997608,
				"z": -2.2944936654,
				"element": "H" 
			},
			{
				"x": 4.7975003769,
				"y": 3.6636800809,
				"z": -3.7969142145,
				"element": "H" 
			},
			{
				"x": 5.339361299,
				"y": 2.0075237293,
				"z": -1.9660681182,
				"element": "H" 
			},
			{
				"x": 6.7664170887,
				"y": 2.8091959205,
				"z": -2.583710102,
				"element": "H" 
			},
			{
				"x": 6.8609584037,
				"y": 4.3200904803,
				"z": -0.6457674262,
				"element": "H" 
			},
			{
				"x": 6.8658945472,
				"y": 2.6324112301,
				"z": -0.1431318046,
				"element": "H" 
			},
			{
				"x": 5.45857329,
				"y": 3.9653927213,
				"z": 1.3465162782,
				"element": "H" 
			},
			{
				"x": 4.4716546309,
				"y": 4.5573317288,
				"z": -0.0021245859,
				"element": "H" 
			},
			{
				"x": 2.8865565377,
				"y": 0.5732120156,
				"z": 1.6130653702,
				"element": "H" 
			},
			{
				"x": 4.3822047191,
				"y": -0.2445411007,
				"z": 2.1027401925,
				"element": "H" 
			},
			{
				"x": 4.0265918365,
				"y": -2.0977641406,
				"z": -1.6033604291,
				"element": "H" 
			},
			{
				"x": 2.2367137229,
				"y": -3.2930228329,
				"z": 0.7866771581,
				"element": "H" 
			},
			{
				"x": 2.911261787,
				"y": -2.1011823666,
				"z": 1.8874805331,
				"element": "H" 
			},
			{
				"x": 0.4670978897,
				"y": -2.4528912477,
				"z": 2.2249322449,
				"element": "H" 
			},
			{
				"x": 0.5026264344,
				"y": -0.9310531942,
				"z": 3.8406370111,
				"element": "H" 
			},
			{
				"x": -1.6623351943,
				"y": 0.3209962482,
				"z": 3.9864132763,
				"element": "H" 
			},
			{
				"x": -1.7228674065,
				"y": -0.8932992742,
				"z": 2.7083350355,
				"element": "H" 
			},
			{
				"x": -1.2847645039,
				"y": 0.7512051316,
				"z": 0.9878473864,
				"element": "H" 
			},
			{
				"x": -3.143613047,
				"y": 2.5235124573,
				"z": 1.9677888105,
				"element": "H" 
			},
			{
				"x": -0.0114830535,
				"y": 2.5754539359,
				"z": 1.3882826757,
				"element": "H" 
			},
			{
				"x": -1.7073518432,
				"y": 3.7417593541,
				"z": 3.2697592621,
				"element": "H" 
			},
			{
				"x": -0.5054961521,
				"y": 2.3156562418,
				"z": 4.3791746634,
				"element": "H" 
			},
			{
				"x": 0.7373895366,
				"y": 4.3587423896,
				"z": 3.6709957321,
				"element": "H" 
			},
			{
				"x": 1.8022434052,
				"y": 3.2457747611,
				"z": 4.561462863,
				"element": "H" 
			},
			{
				"x": 1.9023750004,
				"y": 3.3515382678,
				"z": 2.7895777157,
				"element": "H" 
			},
			{
				"x": -2.6738720521,
				"y": -3.3721545337,
				"z": 1.35970388,
				"element": "H" 
			},
			{
				"x": -0.696077596,
				"y": -1.0978763529,
				"z": -3.9611929591,
				"element": "H" 
			},
			{
				"x": 1.606703596,
				"y": 0.2914288585,
				"z": -0.5802553174,
				"element": "H" 
			},
			{
				"x": 2.0500681117,
				"y": -0.587208528,
				"z": -2.0397702384,
				"element": "H" 
			},
			{
				"x": -4.3761473348,
				"y": -2.195515429,
				"z": -5.147707513,
				"element": "H" 
			},
			{
				"x": -6.7621870756,
				"y": -2.9620879742,
				"z": -5.0087056222,
				"element": "H" 
			},
			{
				"x": -7.6953548052,
				"y": -3.6312522037,
				"z": -2.7882511542,
				"element": "H" 
			},
			{
				"x": -7.4429637206,
				"y": -1.9443886078,
				"z": 0.0159764135,
				"element": "H" 
			},
			{
				"x": -7.1627424928,
				"y": -3.1960636337,
				"z": 1.259852416,
				"element": "H" 
			},
			{
				"x": -5.8070862871,
				"y": -2.1818051926,
				"z": 0.7071879663,
				"element": "H" 
			}
		],
		 "valence_orbital": [ 
			{
				"type": "occ",
				"energy": -0.26168,
				"method": "rhf"
			},
			{
				"type": "occ",
				"energy": -0.25719,
				"method": "rhf"
			},
			{
				"type": "occ",
				"energy": -0.25047,
				"method": "rhf"
			},
			{
				"type": "occ",
				"energy": -0.24322,
				"method": "rhf"
			},
			{
				"type": "occ",
				"energy": -0.21142,
				"method": "rhf"
			},
			{
				"type": "unocc",
				"energy": -0.10524,
				"method": "rhf"
			},
			{
				"type": "unocc",
				"energy": -0.04875,
				"method": "rhf"
			},
			{
				"type": "unocc",
				"energy": -0.03528,
				"method": "rhf"
			},
			{
				"type": "unocc",
				"energy": -0.0254,
				"method": "rhf"
			},
			{
				"type": "unocc",
				"energy": -0.0161,
				"method": "rhf"
			}
		],
		"cosmo_sigma_profile": { 
			"-0.025": 0.0,
			"-0.024": 0.0,
			"-0.023": 0.0,
			"-0.022": 0.0,
			"-0.021": 0.0,
			"-0.02": 0.0,
			"-0.019": 0.0,
			"-0.018": 0.0,
			"-0.017": 0.235359383974,
			"-0.016": 0.964986038455,
			"-0.015": 1.37393773149,
			"-0.014": 1.34637168324,
			"-0.013": 1.50744545195,
			"-0.012": 2.02984469283,
			"-0.011": 2.35207962457,
			"-0.01": 3.20023817751,
			"-0.009": 5.5157211328,
			"-0.008": 6.32968718839,
			"-0.007": 14.8682533781,
			"-0.006": 24.7683442416,
			"-0.005": 32.8385301408,
			"-0.004": 40.1790657465,
			"-0.003": 52.9084069855,
			"-0.002": 64.6757480561,
			"-0.001": 62.1673794394,
			"0.0": 67.8956502109,
			"0.001": 65.8014447909,
			"0.002": 63.5478855425,
			"0.003": 31.2416109456,
			"0.004": 23.2979633931,
			"0.005": 19.5330227918,
			"0.006": 16.0990352847,
			"0.007": 16.5112693599,
			"0.008": 15.9867875592,
			"0.009": 11.2497506751,
			"0.01": 10.5278634512,
			"0.011": 6.13490283564,
			"0.012": 4.99887755718,
			"0.013": 2.49973588584,
			"0.014": 0.441628400253,
			"0.015": 0.0,
			"0.016": 0.0,
			"0.017": 0.0,
			"0.018": 0.0,
			"0.019": 0.0,
			"0.02": 0.0,
			"0.021": 0.0,
			"0.022": 0.0,
			"0.023": 0.0,
			"0.024": 0.0,
			"0.025": 0.0
		}
	}
}
