{
	 "smiles": "NCC1=CC=C(OCC2=CC=CC=C2)C=C1", 
	 "Tm": 325.15, 
	 "num_atms": 31, 
	 "gaussian": { 
		 "optdone": 1, 
		 "sigma_profile": "yes", 
		 "theory": "DFT", 
		 "functional": "B3LYP", 
		 "basiset": "6-31G**", 
		 "properties": { 
			 "R2extent": 5841.8538, 
			 "electric_dipole_moment_norm": 2.0482319107, 
			 "electric_quadrupole_moment_norm": 5.06622316425, 
			 "total_energy": -672.493071197, 
			 "HOMO_LUMO_gap": 0.20237, 
			 "cosmo_polarized_energy": -10.31, 
			 "cosmo_cavitation_energy": 34.32, 
			 "cosmo_dispersion_energy": -24.63, 
			 "cosmo_repulsion_energy": 1.96, 
			 "cosmo_total_nonelectrostatic_energy": 11.65, 
			 "SMD_solvation_energy": 4.96 
		},
		"coords": [
			{
				"x": 1.3927710067,
				"y": 3.9457991092,
				"z": 2.4009736224,
				"element": "N" 
			},
			{
				"x": 0.9339140999,
				"y": 2.6583713298,
				"z": 2.9359506439,
				"element": "C" 
			},
			{
				"x": 0.3208505237,
				"y": 1.7920322808,
				"z": 1.8533800311,
				"element": "C" 
			},
			{
				"x": -0.8053957234,
				"y": 1.0083827175,
				"z": 2.1093618032,
				"element": "C" 
			},
			{
				"x": -1.3603175633,
				"y": 0.1737032947,
				"z": 1.1336541223,
				"element": "C" 
			},
			{
				"x": -0.7826794225,
				"y": 0.1301405211,
				"z": -0.1384925309,
				"element": "C" 
			},
			{
				"x": -1.2400228981,
				"y": -0.6309875291,
				"z": -1.1855198998,
				"element": "O" 
			},
			{
				"x": -2.4706260117,
				"y": -1.3329935946,
				"z": -1.0470990484,
				"element": "C" 
			},
			{
				"x": -2.3687602517,
				"y": -2.6265060449,
				"z": -0.2597416543,
				"element": "C" 
			},
			{
				"x": -3.4866671515,
				"y": -3.1213389087,
				"z": 0.4220154151,
				"element": "C" 
			},
			{
				"x": -3.4242559625,
				"y": -4.3414473331,
				"z": 1.0973574066,
				"element": "C" 
			},
			{
				"x": -2.2372902479,
				"y": -5.0759337596,
				"z": 1.1044101625,
				"element": "C" 
			},
			{
				"x": -1.1167534401,
				"y": -4.5845162287,
				"z": 0.4309052162,
				"element": "C" 
			},
			{
				"x": -1.1825664505,
				"y": -3.3690713652,
				"z": -0.250749481,
				"element": "C" 
			},
			{
				"x": 0.3463555446,
				"y": 0.9154441321,
				"z": -0.4140175236,
				"element": "C" 
			},
			{
				"x": 0.888296622,
				"y": 1.7318250485,
				"z": 0.5704148104,
				"element": "C" 
			},
			{
				"x": 0.5934678957,
				"y": 4.4905802232,
				"z": 2.0855532537,
				"element": "H" 
			},
			{
				"x": 1.8469767033,
				"y": 4.485012811,
				"z": 3.1336108573,
				"element": "H" 
			},
			{
				"x": 0.2122712123,
				"y": 2.7434371562,
				"z": 3.7674216822,
				"element": "H" 
			},
			{
				"x": 1.8169693151,
				"y": 2.15340984,
				"z": 3.3527449253,
				"element": "H" 
			},
			{
				"x": -1.2657948939,
				"y": 1.0384562998,
				"z": 3.0945527994,
				"element": "H" 
			},
			{
				"x": -2.2191736933,
				"y": -0.4385207631,
				"z": 1.3802925484,
				"element": "H" 
			},
			{
				"x": -2.7700248495,
				"y": -1.5506653812,
				"z": -2.0787234433,
				"element": "H" 
			},
			{
				"x": -3.2406272611,
				"y": -0.6793745573,
				"z": -0.615373026,
				"element": "H" 
			},
			{
				"x": -4.4120602633,
				"y": -2.5490057568,
				"z": 0.4263201294,
				"element": "H" 
			},
			{
				"x": -4.2990486466,
				"y": -4.7129571422,
				"z": 1.6236955195,
				"element": "H" 
			},
			{
				"x": -2.1844590922,
				"y": -6.0226026002,
				"z": 1.6344151319,
				"element": "H" 
			},
			{
				"x": -0.1886514017,
				"y": -5.1492835356,
				"z": 0.436069065,
				"element": "H" 
			},
			{
				"x": -0.3124555219,
				"y": -2.9823974365,
				"z": -0.7718743866,
				"element": "H" 
			},
			{
				"x": 0.7759780648,
				"y": 0.8719348359,
				"z": -1.4099692367,
				"element": "H" 
			},
			{
				"x": 1.7530797585,
				"y": 2.350372337,
				"z": 0.3520610849,
				"element": "H" 
			}
		],
		 "valence_orbital": [ 
			{
				"type": "occ",
				"energy": -0.2504,
				"method": "rhf"
			},
			{
				"type": "occ",
				"energy": -0.24647,
				"method": "rhf"
			},
			{
				"type": "occ",
				"energy": -0.24,
				"method": "rhf"
			},
			{
				"type": "occ",
				"energy": -0.23339,
				"method": "rhf"
			},
			{
				"type": "occ",
				"energy": -0.20769,
				"method": "rhf"
			},
			{
				"type": "unocc",
				"energy": -0.00532,
				"method": "rhf"
			},
			{
				"type": "unocc",
				"energy": -0.00281,
				"method": "rhf"
			},
			{
				"type": "unocc",
				"energy": 0.00887,
				"method": "rhf"
			},
			{
				"type": "unocc",
				"energy": 0.01795,
				"method": "rhf"
			},
			{
				"type": "unocc",
				"energy": 0.09241,
				"method": "rhf"
			}
		],
		"cosmo_sigma_profile": { 
			"-0.025": 0.0,
			"-0.024": 0.0,
			"-0.023": 0.0,
			"-0.022": 0.0,
			"-0.021": 0.0,
			"-0.02": 0.0,
			"-0.019": 0.0,
			"-0.018": 0.0,
			"-0.017": 0.0,
			"-0.016": 0.0,
			"-0.015": 0.0,
			"-0.014": 0.0,
			"-0.013": 0.0,
			"-0.012": 0.0,
			"-0.011": 0.0,
			"-0.01": 1.08640047543,
			"-0.009": 2.67315791028,
			"-0.008": 2.59279118221,
			"-0.007": 2.77246044495,
			"-0.006": 13.023971742,
			"-0.005": 21.8319553589,
			"-0.004": 26.6922626357,
			"-0.003": 27.411539016,
			"-0.002": 20.6356365236,
			"-0.001": 19.3608274103,
			"0.0": 16.9810739332,
			"0.001": 14.9149872356,
			"0.002": 14.8499346939,
			"0.003": 16.5950135788,
			"0.004": 19.7577995816,
			"0.005": 20.0509511176,
			"0.006": 17.6603671171,
			"0.007": 2.74234878412,
			"0.008": 1.87937592385,
			"0.009": 1.83901340384,
			"0.01": 1.84387648768,
			"0.011": 1.20641501577,
			"0.012": 0.807493891135,
			"0.013": 0.642819076849,
			"0.014": 0.48091738447,
			"0.015": 0.534334527301,
			"0.016": 0.630073163679,
			"0.017": 0.401575587223,
			"0.018": 0.0140818840832,
			"0.019": 0.0,
			"0.02": 0.0,
			"0.021": 0.0,
			"0.022": 0.0,
			"0.023": 0.0,
			"0.024": 0.0,
			"0.025": 0.0
		}
	}
}
