{
	 "smiles": "C(N1CCNCCNCCNCC1)C1=CC=CC=C1", 
	 "Tm": 358.15, 
	 "num_atms": 45, 
	 "gaussian": { 
		 "optdone": 1, 
		 "sigma_profile": "no", 
		 "theory": "DFT", 
		 "functional": "B3LYP", 
		 "basiset": "6-31G**", 
		 "properties": { 
			 "R2extent": 5745.5271, 
			 "electric_dipole_moment_norm": 2.56285250844, 
			 "electric_quadrupole_moment_norm": 8.91623747721, 
			 "total_energy": -806.218863007, 
			 "HOMO_LUMO_gap": 0.1938, 
			 "cosmo_polarized_energy": -10.47, 
			 "cosmo_cavitation_energy": 41.37, 
			 "cosmo_dispersion_energy": -28.79, 
			 "cosmo_repulsion_energy": 2.21, 
			 "cosmo_total_nonelectrostatic_energy": 14.79, 
			 "SMD_solvation_energy": 3.66 
		},
		"coords": [
			{
				"x": -1.4340478709,
				"y": 0.3553718512,
				"z": 0.1783568911,
				"element": "C" 
			},
			{
				"x": -0.6736482432,
				"y": 0.4760097792,
				"z": 1.4283598554,
				"element": "N" 
			},
			{
				"x": -0.6324708239,
				"y": 1.8299447249,
				"z": 1.9836456989,
				"element": "C" 
			},
			{
				"x": 0.4533047621,
				"y": 2.7883629454,
				"z": 1.4212508781,
				"element": "C" 
			},
			{
				"x": 0.5377259978,
				"y": 2.7700602491,
				"z": -0.035983415,
				"element": "N" 
			},
			{
				"x": 1.8523099686,
				"y": 2.7991634486,
				"z": -0.6650024324,
				"element": "C" 
			},
			{
				"x": 1.9403369338,
				"y": 1.8958309284,
				"z": -1.9116934905,
				"element": "C" 
			},
			{
				"x": 1.7839747759,
				"y": 0.4724091336,
				"z": -1.613637485,
				"element": "N" 
			},
			{
				"x": 2.995107697,
				"y": -0.2210647391,
				"z": -1.1755599115,
				"element": "C" 
			},
			{
				"x": 2.7207684798,
				"y": -1.677043645,
				"z": -0.7615507123,
				"element": "C" 
			},
			{
				"x": 2.1994757744,
				"y": -1.8585794866,
				"z": 0.5953416081,
				"element": "N" 
			},
			{
				"x": 0.7780118805,
				"y": -1.5342316049,
				"z": 0.8109381131,
				"element": "C" 
			},
			{
				"x": 0.6681012851,
				"y": -0.1238100232,
				"z": 1.4048466097,
				"element": "C" 
			},
			{
				"x": -2.335566669,
				"y": -0.873579911,
				"z": 0.118618661,
				"element": "C" 
			},
			{
				"x": -2.8289215472,
				"y": -1.4797739788,
				"z": 1.2796110287,
				"element": "C" 
			},
			{
				"x": -3.7003333814,
				"y": -2.5678331368,
				"z": 1.2010229569,
				"element": "C" 
			},
			{
				"x": -4.0951801896,
				"y": -3.0670512194,
				"z": -0.0418661837,
				"element": "C" 
			},
			{
				"x": -3.6082148864,
				"y": -2.4702480837,
				"z": -1.2068921266,
				"element": "C" 
			},
			{
				"x": -2.7346793882,
				"y": -1.3850751158,
				"z": -1.1236658893,
				"element": "C" 
			},
			{
				"x": -0.7826671976,
				"y": 0.3871608455,
				"z": -0.7041185428,
				"element": "H" 
			},
			{
				"x": -2.0803187467,
				"y": 1.237790189,
				"z": 0.0957874671,
				"element": "H" 
			},
			{
				"x": -0.4692277582,
				"y": 1.7665730674,
				"z": 3.0710349402,
				"element": "H" 
			},
			{
				"x": -1.6244920369,
				"y": 2.2760739265,
				"z": 1.8496150666,
				"element": "H" 
			},
			{
				"x": 0.269784551,
				"y": 3.7933714579,
				"z": 1.8410289887,
				"element": "H" 
			},
			{
				"x": 1.4275133197,
				"y": 2.4814098583,
				"z": 1.8145822628,
				"element": "H" 
			},
			{
				"x": -0.0960519601,
				"y": 3.4353272792,
				"z": -0.4622644909,
				"element": "H" 
			},
			{
				"x": 2.1721943187,
				"y": 3.8136866344,
				"z": -0.9631151369,
				"element": "H" 
			},
			{
				"x": 2.5908163529,
				"y": 2.4587407177,
				"z": 0.0696181886,
				"element": "H" 
			},
			{
				"x": 1.137932143,
				"y": 2.1836660733,
				"z": -2.601487658,
				"element": "H" 
			},
			{
				"x": 2.8951271197,
				"y": 2.1181933043,
				"z": -2.427263122,
				"element": "H" 
			},
			{
				"x": 1.4077452274,
				"y": -0.0069909123,
				"z": -2.4257908101,
				"element": "H" 
			},
			{
				"x": 3.417090563,
				"y": 0.3021474001,
				"z": -0.3105245087,
				"element": "H" 
			},
			{
				"x": 3.7782445711,
				"y": -0.2204302019,
				"z": -1.9591357719,
				"element": "H" 
			},
			{
				"x": 3.6769685925,
				"y": -2.2117834874,
				"z": -0.8046281056,
				"element": "H" 
			},
			{
				"x": 2.0704013787,
				"y": -2.1353366802,
				"z": -1.5345150208,
				"element": "H" 
			},
			{
				"x": 2.3642061982,
				"y": -2.8216606897,
				"z": 0.8654048237,
				"element": "H" 
			},
			{
				"x": 0.2128246504,
				"y": -1.6055375526,
				"z": -0.1273398136,
				"element": "H" 
			},
			{
				"x": 0.3418451793,
				"y": -2.2702294064,
				"z": 1.4951795552,
				"element": "H" 
			},
			{
				"x": 1.3601919424,
				"y": 0.4933492641,
				"z": 0.827327621,
				"element": "H" 
			},
			{
				"x": 1.0424227784,
				"y": -0.1553320808,
				"z": 2.4373836903,
				"element": "H" 
			},
			{
				"x": -2.5053532068,
				"y": -1.0890561967,
				"z": 2.2391792092,
				"element": "H" 
			},
			{
				"x": -4.0723255883,
				"y": -3.0275599476,
				"z": 2.1132442186,
				"element": "H" 
			},
			{
				"x": -4.7720801876,
				"y": -3.9148157016,
				"z": -0.10286505,
				"element": "H" 
			},
			{
				"x": -3.9038676616,
				"y": -2.8537346135,
				"z": -2.1800633659,
				"element": "H" 
			},
			{
				"x": -2.3544790978,
				"y": -0.9278846633,
				"z": -2.0354152896,
				"element": "H" 
			}
		],
		 "valence_orbital": [ 
			{
				"type": "occ",
				"energy": -0.22639,
				"method": "rhf"
			},
			{
				"type": "occ",
				"energy": -0.21951,
				"method": "rhf"
			},
			{
				"type": "occ",
				"energy": -0.21309,
				"method": "rhf"
			},
			{
				"type": "occ",
				"energy": -0.20862,
				"method": "rhf"
			},
			{
				"type": "occ",
				"energy": -0.18017,
				"method": "rhf"
			},
			{
				"type": "unocc",
				"energy": 0.01363,
				"method": "rhf"
			},
			{
				"type": "unocc",
				"energy": 0.01653,
				"method": "rhf"
			},
			{
				"type": "unocc",
				"energy": 0.07775,
				"method": "rhf"
			},
			{
				"type": "unocc",
				"energy": 0.08306,
				"method": "rhf"
			},
			{
				"type": "unocc",
				"energy": 0.09083,
				"method": "rhf"
			}
		],
		"cosmo_sigma_profile": { 
			"0.0": 0.0,
			"0.0": 0.0,
			"0.0": 0.0,
			"0.0": 0.0,
			"0.0": 0.0,
			"0.0": 0.0,
			"0.0": 0.0,
			"0.0": 0.0,
			"0.0": 0.0,
			"0.0": 0.0,
			"0.0": 0.0,
			"0.0": 0.0,
			"0.0": 0.0,
			"0.0": 0.0,
			"0.0": 0.0,
			"0.0": 0.0,
			"0.0": 0.0,
			"0.0": 0.0,
			"0.0": 0.0,
			"0.0": 0.0,
			"0.0": 0.0,
			"0.0": 0.0,
			"0.0": 0.0,
			"0.0": 0.0,
			"0.0": 0.0,
			"0.0": 0.0,
			"0.0": 0.0,
			"0.0": 0.0,
			"0.0": 0.0,
			"0.0": 0.0,
			"0.0": 0.0,
			"0.0": 0.0,
			"0.0": 0.0,
			"0.0": 0.0,
			"0.0": 0.0,
			"0.0": 0.0,
			"0.0": 0.0,
			"0.0": 0.0,
			"0.0": 0.0,
			"0.0": 0.0,
			"0.0": 0.0,
			"0.0": 0.0,
			"0.0": 0.0,
			"0.0": 0.0,
			"0.0": 0.0,
			"0.0": 0.0,
			"0.0": 0.0,
			"0.0": 0.0,
			"0.0": 0.0,
			"0.0": 0.0,
			"0.0": 0.0
		}
	}
}
