{
	 "smiles": "CC1=C(SC(=N1)C1=CC=C(C=C1)C(F)(F)F)C(=O)CBr", 
	 "Tm": 356.15, 
	 "num_atms": 29, 
	 "gaussian": { 
		 "optdone": 1, 
		 "sigma_profile": "yes", 
		 "theory": "DFT", 
		 "functional": "B3LYP", 
		 "basiset": "6-31G**", 
		 "properties": { 
			 "R2extent": 15211.9608, 
			 "electric_dipole_moment_norm": 1.94222705161, 
			 "electric_quadrupole_moment_norm": 25.9712462102, 
			 "total_energy": -3899.90584437, 
			 "HOMO_LUMO_gap": 0.14789, 
			 "cosmo_polarized_energy": -12.65, 
			 "cosmo_cavitation_energy": 39.45, 
			 "cosmo_dispersion_energy": -28.89, 
			 "cosmo_repulsion_energy": 2.11, 
			 "cosmo_total_nonelectrostatic_energy": 12.67, 
			 "SMD_solvation_energy": 5.61 
		},
		"coords": [
			{
				"x": 0.2868076922,
				"y": 2.0522333666,
				"z": 2.6178832816,
				"element": "C" 
			},
			{
				"x": 0.5706233858,
				"y": 0.8091578629,
				"z": 1.8300478614,
				"element": "C" 
			},
			{
				"x": 1.6986593512,
				"y": 0.0041096439,
				"z": 1.9473049836,
				"element": "C" 
			},
			{
				"x": 1.5811608065,
				"y": -1.3310254965,
				"z": 0.8203696118,
				"element": "S" 
			},
			{
				"x": 0.0324350218,
				"y": -0.7057002848,
				"z": 0.2818239645,
				"element": "C" 
			},
			{
				"x": -0.3376904662,
				"y": 0.3923449269,
				"z": 0.8987209039,
				"element": "N" 
			},
			{
				"x": -0.7691887486,
				"y": -1.3564752889,
				"z": -0.7609664407,
				"element": "C" 
			},
			{
				"x": -0.3434684763,
				"y": -2.5264903824,
				"z": -1.4110631574,
				"element": "C" 
			},
			{
				"x": -1.130194217,
				"y": -3.1145589627,
				"z": -2.3952656828,
				"element": "C" 
			},
			{
				"x": -2.3550137104,
				"y": -2.5396269821,
				"z": -2.7449524376,
				"element": "C" 
			},
			{
				"x": -2.7883970639,
				"y": -1.3735919123,
				"z": -2.1060498179,
				"element": "C" 
			},
			{
				"x": -2.0028621267,
				"y": -0.785351452,
				"z": -1.1223293302,
				"element": "C" 
			},
			{
				"x": -3.2340781084,
				"y": -3.2073363618,
				"z": -3.7691585975,
				"element": "C" 
			},
			{
				"x": -2.5106788599,
				"y": -3.8989464582,
				"z": -4.6763720276,
				"element": "F" 
			},
			{
				"x": -4.0863310288,
				"y": -4.0850137938,
				"z": -3.1918277111,
				"element": "F" 
			},
			{
				"x": -3.9874312429,
				"y": -2.3115448174,
				"z": -4.4426154247,
				"element": "F" 
			},
			{
				"x": 2.8310533448,
				"y": 0.214411639,
				"z": 2.8652348716,
				"element": "C" 
			},
			{
				"x": 2.8591515166,
				"y": 1.1638884029,
				"z": 3.6293265487,
				"element": "O" 
			},
			{
				"x": 3.9511832839,
				"y": -0.8277670621,
				"z": 2.7921412977,
				"element": "C" 
			},
			{
				"x": 5.4130042431,
				"y": -0.4796211934,
				"z": 4.0337389061,
				"element": "Br" 
			},
			{
				"x": 1.0746937097,
				"y": 2.7967557681,
				"z": 2.4730682676,
				"element": "H" 
			},
			{
				"x": 0.2657250414,
				"y": 1.8404267071,
				"z": 3.6906069708,
				"element": "H" 
			},
			{
				"x": -0.673349355,
				"y": 2.464040316,
				"z": 2.3033726167,
				"element": "H" 
			},
			{
				"x": 0.6078979241,
				"y": -2.9826797531,
				"z": -1.1532742703,
				"element": "H" 
			},
			{
				"x": -0.7921507806,
				"y": -4.0134713173,
				"z": -2.8986069092,
				"element": "H" 
			},
			{
				"x": -3.7352876743,
				"y": -0.9252783558,
				"z": -2.3865102444,
				"element": "H" 
			},
			{
				"x": -2.3241519368,
				"y": 0.1201198742,
				"z": -0.6209529136,
				"element": "H" 
			},
			{
				"x": 3.5626471607,
				"y": -1.8215444761,
				"z": 3.0258125018,
				"element": "H" 
			},
			{
				"x": 4.3826313141,
				"y": -0.8537641568,
				"z": 1.7889923771,
				"element": "H" 
			}
		],
		 "valence_orbital": [ 
			{
				"type": "occ",
				"energy": -0.28317,
				"method": "rhf"
			},
			{
				"type": "occ",
				"energy": -0.27937,
				"method": "rhf"
			},
			{
				"type": "occ",
				"energy": -0.2789,
				"method": "rhf"
			},
			{
				"type": "occ",
				"energy": -0.27243,
				"method": "rhf"
			},
			{
				"type": "occ",
				"energy": -0.24671,
				"method": "rhf"
			},
			{
				"type": "unocc",
				"energy": -0.09882,
				"method": "rhf"
			},
			{
				"type": "unocc",
				"energy": -0.043,
				"method": "rhf"
			},
			{
				"type": "unocc",
				"energy": -0.0316,
				"method": "rhf"
			},
			{
				"type": "unocc",
				"energy": -0.01858,
				"method": "rhf"
			},
			{
				"type": "unocc",
				"energy": 0.00773,
				"method": "rhf"
			}
		],
		"cosmo_sigma_profile": { 
			"-0.025": 0.0,
			"-0.024": 0.0,
			"-0.023": 0.0,
			"-0.022": 0.0,
			"-0.021": 0.0,
			"-0.02": 0.0,
			"-0.019": 0.0,
			"-0.018": 0.0,
			"-0.017": 0.0,
			"-0.016": 0.0,
			"-0.015": 0.0,
			"-0.014": 0.0,
			"-0.013": 0.0,
			"-0.012": 0.0,
			"-0.011": 0.0,
			"-0.01": 1.82160824102,
			"-0.009": 5.39781717875,
			"-0.008": 7.56964567303,
			"-0.007": 10.187339955,
			"-0.006": 12.6642769462,
			"-0.005": 12.7177575814,
			"-0.004": 15.4616651418,
			"-0.003": 17.7782509814,
			"-0.002": 24.2986662261,
			"-0.001": 31.8640940324,
			"0.0": 31.7589196375,
			"0.001": 31.6652584109,
			"0.002": 38.0451425716,
			"0.003": 32.3460114029,
			"0.004": 9.00516462252,
			"0.005": 11.0805965384,
			"0.006": 8.76348971862,
			"0.007": 3.23269188245,
			"0.008": 4.11383986332,
			"0.009": 3.33487635435,
			"0.01": 3.18963524563,
			"0.011": 3.09669933034,
			"0.012": 2.23036315493,
			"0.013": 0.461216290383,
			"0.014": 0.0,
			"0.015": 0.0,
			"0.016": 0.0,
			"0.017": 0.0,
			"0.018": 0.0,
			"0.019": 0.0,
			"0.02": 0.0,
			"0.021": 0.0,
			"0.022": 0.0,
			"0.023": 0.0,
			"0.024": 0.0,
			"0.025": 0.0
		}
	}
}
