{
	 "smiles": "O=C(C1=CC=CC=C1)C1(C#N)C(NC(=O)NC1C1=CC=CC=C1)C1=CC=CC=C1", 
	 "Tm": 489.15, 
	 "num_atms": 48, 
	 "gaussian": { 
		 "optdone": 1, 
		 "sigma_profile": "yes", 
		 "theory": "DFT", 
		 "functional": "B3LYP", 
		 "basiset": "6-31G**", 
		 "properties": { 
			 "R2extent": 9960.3243, 
			 "electric_dipole_moment_norm": 3.15986360782, 
			 "electric_quadrupole_moment_norm": 29.6463444128, 
			 "total_energy": -1240.69384669, 
			 "HOMO_LUMO_gap": 0.16367, 
			 "cosmo_polarized_energy": -21.88, 
			 "cosmo_cavitation_energy": 50.0, 
			 "cosmo_dispersion_energy": -32.57, 
			 "cosmo_repulsion_energy": 2.44, 
			 "cosmo_total_nonelectrostatic_energy": 19.87, 
			 "SMD_solvation_energy": 9.73 
		},
		"coords": [
			{
				"x": 1.6529797388,
				"y": -1.8914067942,
				"z": -0.6914716246,
				"element": "O" 
			},
			{
				"x": 0.4970948556,
				"y": -1.536717738,
				"z": -0.5738969551,
				"element": "C" 
			},
			{
				"x": -0.6089190053,
				"y": -2.5458808754,
				"z": -0.6319312722,
				"element": "C" 
			},
			{
				"x": -0.2586419481,
				"y": -3.8668311902,
				"z": -0.2991091253,
				"element": "C" 
			},
			{
				"x": -1.2086406012,
				"y": -4.8820228905,
				"z": -0.3384651343,
				"element": "C" 
			},
			{
				"x": -2.5200001892,
				"y": -4.5978173406,
				"z": -0.7300854881,
				"element": "C" 
			},
			{
				"x": -2.8737533239,
				"y": -3.2945125582,
				"z": -1.0815424235,
				"element": "C" 
			},
			{
				"x": -1.928504876,
				"y": -2.269762823,
				"z": -1.0282989338,
				"element": "C" 
			},
			{
				"x": 0.191927642,
				"y": 0.0126574758,
				"z": -0.3196150834,
				"element": "C" 
			},
			{
				"x": -0.5002030485,
				"y": 0.5217738023,
				"z": -1.5051095117,
				"element": "C" 
			},
			{
				"x": -1.050603444,
				"y": 0.8586249354,
				"z": -2.471314841,
				"element": "N" 
			},
			{
				"x": 1.5751913543,
				"y": 0.7420490437,
				"z": -0.1364871099,
				"element": "C" 
			},
			{
				"x": 2.0180023337,
				"y": 0.5711374572,
				"z": 1.2461050708,
				"element": "N" 
			},
			{
				"x": 1.4330103252,
				"y": -0.1661334516,
				"z": 2.2480394668,
				"element": "C" 
			},
			{
				"x": 2.0050675994,
				"y": -0.4346906262,
				"z": 3.2968232903,
				"element": "O" 
			},
			{
				"x": 0.1301066881,
				"y": -0.5747351054,
				"z": 1.9896943951,
				"element": "N" 
			},
			{
				"x": -0.6882074319,
				"y": 0.0869149773,
				"z": 0.9879050274,
				"element": "C" 
			},
			{
				"x": -1.2423099306,
				"y": 1.4554689776,
				"z": 1.4035293143,
				"element": "C" 
			},
			{
				"x": -2.2232962775,
				"y": 2.0844937675,
				"z": 0.6217387991,
				"element": "C" 
			},
			{
				"x": -2.784035493,
				"y": 3.2970020851,
				"z": 1.0209613702,
				"element": "C" 
			},
			{
				"x": -2.3906347616,
				"y": 3.8937019034,
				"z": 2.2200853913,
				"element": "C" 
			},
			{
				"x": -1.4367846865,
				"y": 3.2629093694,
				"z": 3.0179388313,
				"element": "C" 
			},
			{
				"x": -0.8685080988,
				"y": 2.0524938107,
				"z": 2.6147270355,
				"element": "C" 
			},
			{
				"x": 1.6493133415,
				"y": 2.200279523,
				"z": -0.5851344767,
				"element": "C" 
			},
			{
				"x": 1.5133935795,
				"y": 3.2709051285,
				"z": 0.3052907252,
				"element": "C" 
			},
			{
				"x": 1.628989711,
				"y": 4.58642058,
				"z": -0.1461625521,
				"element": "C" 
			},
			{
				"x": 1.8863075475,
				"y": 4.8501079223,
				"z": -1.4920837875,
				"element": "C" 
			},
			{
				"x": 2.0370268798,
				"y": 3.7882034711,
				"z": -2.3855530188,
				"element": "C" 
			},
			{
				"x": 1.9281570477,
				"y": 2.4744936735,
				"z": -1.9317338662,
				"element": "C" 
			},
			{
				"x": 0.765311666,
				"y": -4.072901425,
				"z": -0.0079220443,
				"element": "H" 
			},
			{
				"x": -0.9276914521,
				"y": -5.8951791443,
				"z": -0.0670809171,
				"element": "H" 
			},
			{
				"x": -3.2614586324,
				"y": -5.3906875534,
				"z": -0.766186715,
				"element": "H" 
			},
			{
				"x": -3.8861890639,
				"y": -3.0720214345,
				"z": -1.4044504481,
				"element": "H" 
			},
			{
				"x": -2.2179818626,
				"y": -1.2726948065,
				"z": -1.3374694517,
				"element": "H" 
			},
			{
				"x": 2.2546953497,
				"y": 0.1760515399,
				"z": -0.7818689331,
				"element": "H" 
			},
			{
				"x": 2.9931571111,
				"y": 0.7617730525,
				"z": 1.4303913959,
				"element": "H" 
			},
			{
				"x": -0.3286320447,
				"y": -0.9423590833,
				"z": 2.8118570986,
				"element": "H" 
			},
			{
				"x": -1.5500369922,
				"y": -0.5612879581,
				"z": 0.809889645,
				"element": "H" 
			},
			{
				"x": -2.5537138964,
				"y": 1.6327541329,
				"z": -0.3075109468,
				"element": "H" 
			},
			{
				"x": -3.5353542197,
				"y": 3.7705049974,
				"z": 0.3957557469,
				"element": "H" 
			},
			{
				"x": -2.8317637824,
				"y": 4.8353532823,
				"z": 2.5335650122,
				"element": "H" 
			},
			{
				"x": -1.1321574622,
				"y": 3.7080578067,
				"z": 3.9608137051,
				"element": "H" 
			},
			{
				"x": -0.1364580009,
				"y": 1.5743691706,
				"z": 3.2565955075,
				"element": "H" 
			},
			{
				"x": 1.3220972151,
				"y": 3.0730552001,
				"z": 1.3530279631,
				"element": "H" 
			},
			{
				"x": 1.5188141689,
				"y": 5.4058920593,
				"z": 0.5583487937,
				"element": "H" 
			},
			{
				"x": 1.977394475,
				"y": 5.8746994089,
				"z": -1.8411472513,
				"element": "H" 
			},
			{
				"x": 2.249626325,
				"y": 3.9802744288,
				"z": -3.4331422696,
				"element": "H" 
			},
			{
				"x": 2.0613155706,
				"y": 1.6536198152,
				"z": -2.6317094042,
				"element": "H" 
			}
		],
		 "valence_orbital": [ 
			{
				"type": "occ",
				"energy": -0.25842,
				"method": "rhf"
			},
			{
				"type": "occ",
				"energy": -0.25711,
				"method": "rhf"
			},
			{
				"type": "occ",
				"energy": -0.25115,
				"method": "rhf"
			},
			{
				"type": "occ",
				"energy": -0.24918,
				"method": "rhf"
			},
			{
				"type": "occ",
				"energy": -0.23822,
				"method": "rhf"
			},
			{
				"type": "unocc",
				"energy": -0.07455,
				"method": "rhf"
			},
			{
				"type": "unocc",
				"energy": -0.02348,
				"method": "rhf"
			},
			{
				"type": "unocc",
				"energy": -0.01714,
				"method": "rhf"
			},
			{
				"type": "unocc",
				"energy": -0.01222,
				"method": "rhf"
			},
			{
				"type": "unocc",
				"energy": -0.00671,
				"method": "rhf"
			}
		],
		"cosmo_sigma_profile": { 
			"-0.025": 0.0,
			"-0.024": 0.0,
			"-0.023": 0.0,
			"-0.022": 0.0,
			"-0.021": 0.0,
			"-0.02": 0.0,
			"-0.019": 0.0,
			"-0.018": 0.0,
			"-0.017": 0.0,
			"-0.016": 0.0,
			"-0.015": 0.246415089607,
			"-0.014": 2.20968227851,
			"-0.013": 1.79760916712,
			"-0.012": 2.45586233601,
			"-0.011": 2.16720489976,
			"-0.01": 2.60901038737,
			"-0.009": 3.22109279048,
			"-0.008": 4.24049050538,
			"-0.007": 9.58857099021,
			"-0.006": 25.2446444767,
			"-0.005": 33.0315268648,
			"-0.004": 32.1936338485,
			"-0.003": 27.4032855353,
			"-0.002": 24.7416805833,
			"-0.001": 24.7607618856,
			"0.0": 21.2540678964,
			"0.001": 24.228251488,
			"0.002": 28.9868418093,
			"0.003": 33.4355320967,
			"0.004": 23.6214857858,
			"0.005": 23.7326325792,
			"0.006": 9.17717987224,
			"0.007": 5.40495374731,
			"0.008": 5.36354312776,
			"0.009": 5.86248341277,
			"0.01": 5.23293070297,
			"0.011": 4.1330642977,
			"0.012": 2.8563754503,
			"0.013": 2.67296328822,
			"0.014": 6.89654071904,
			"0.015": 1.52979367469,
			"0.016": 0.0,
			"0.017": 0.0,
			"0.018": 0.0,
			"0.019": 0.0,
			"0.02": 0.0,
			"0.021": 0.0,
			"0.022": 0.0,
			"0.023": 0.0,
			"0.024": 0.0,
			"0.025": 0.0
		}
	}
}
