{
	 "smiles": "CCCCCCCCCCC(C)C", 
	 "Tm": 247.15, 
	 "num_atms": 41, 
	 "gaussian": { 
		 "optdone": 1, 
		 "sigma_profile": "yes", 
		 "theory": "DFT", 
		 "functional": "B3LYP", 
		 "basiset": "6-31G**", 
		 "properties": { 
			 "R2extent": 6504.5082, 
			 "electric_dipole_moment_norm": 0.124007862654, 
			 "electric_quadrupole_moment_norm": 0.684805848398, 
			 "total_energy": -512.297619737, 
			 "HOMO_LUMO_gap": 0.37002, 
			 "cosmo_polarized_energy": -0.95, 
			 "cosmo_cavitation_energy": 39.56, 
			 "cosmo_dispersion_energy": -26.87, 
			 "cosmo_repulsion_energy": 2.21, 
			 "cosmo_total_nonelectrostatic_energy": 14.9, 
			 "SMD_solvation_energy": 5.61 
		},
		"coords": [
			{
				"x": 4.8477832211,
				"y": -3.5726545149,
				"z": 1.4528394432,
				"element": "C" 
			},
			{
				"x": 5.2719483083,
				"y": -2.1460340288,
				"z": 1.0843836838,
				"element": "C" 
			},
			{
				"x": 4.851172196,
				"y": -1.0753229821,
				"z": 2.1069645037,
				"element": "C" 
			},
			{
				"x": 3.3361216111,
				"y": -0.893617453,
				"z": 2.3068363126,
				"element": "C" 
			},
			{
				"x": 2.5799582507,
				"y": -0.4029027971,
				"z": 1.064257436,
				"element": "C" 
			},
			{
				"x": 1.08922167,
				"y": -0.1483785536,
				"z": 1.3223619962,
				"element": "C" 
			},
			{
				"x": 0.3359637331,
				"y": 0.365775031,
				"z": 0.0856498052,
				"element": "C" 
			},
			{
				"x": -1.1728371654,
				"y": 0.6424093845,
				"z": 0.3045430205,
				"element": "C" 
			},
			{
				"x": -2.1265123608,
				"y": -0.4322556655,
				"z": -0.2573542959,
				"element": "C" 
			},
			{
				"x": -2.0697285128,
				"y": -1.8442426494,
				"z": 0.3689373879,
				"element": "C" 
			},
			{
				"x": -3.0468436002,
				"y": -2.1181823091,
				"z": 1.5326454804,
				"element": "C" 
			},
			{
				"x": -2.8358875853,
				"y": -1.2057810324,
				"z": 2.7501206916,
				"element": "C" 
			},
			{
				"x": -2.9714604403,
				"y": -3.5946178492,
				"z": 1.9514549679,
				"element": "C" 
			},
			{
				"x": 3.7585199452,
				"y": -3.680853327,
				"z": 1.4835478935,
				"element": "H" 
			},
			{
				"x": 5.2275130627,
				"y": -4.2973818994,
				"z": 0.7249945881,
				"element": "H" 
			},
			{
				"x": 5.2350692768,
				"y": -3.8576478969,
				"z": 2.4382217855,
				"element": "H" 
			},
			{
				"x": 6.3645420886,
				"y": -2.1142208141,
				"z": 0.9843682312,
				"element": "H" 
			},
			{
				"x": 4.8753136697,
				"y": -1.8915403846,
				"z": 0.0932316811,
				"element": "H" 
			},
			{
				"x": 5.2839749346,
				"y": -0.111434134,
				"z": 1.8054081808,
				"element": "H" 
			},
			{
				"x": 5.305758287,
				"y": -1.3207118348,
				"z": 3.0768177673,
				"element": "H" 
			},
			{
				"x": 3.1800155112,
				"y": -0.1730040109,
				"z": 3.1212353786,
				"element": "H" 
			},
			{
				"x": 2.8895113759,
				"y": -1.8347937794,
				"z": 2.6549184593,
				"element": "H" 
			},
			{
				"x": 3.0478926775,
				"y": 0.5228435843,
				"z": 0.6982337134,
				"element": "H" 
			},
			{
				"x": 2.6807219923,
				"y": -1.1337693244,
				"z": 0.250619069,
				"element": "H" 
			},
			{
				"x": 0.9815846898,
				"y": 0.5842833842,
				"z": 2.1351020097,
				"element": "H" 
			},
			{
				"x": 0.624016255,
				"y": -1.072592249,
				"z": 1.690300937,
				"element": "H" 
			},
			{
				"x": 0.4634714086,
				"y": -0.3477983847,
				"z": -0.7406079403,
				"element": "H" 
			},
			{
				"x": 0.8277708788,
				"y": 1.2894452249,
				"z": -0.2465185962,
				"element": "H" 
			},
			{
				"x": -1.3598023184,
				"y": 0.803272918,
				"z": 1.3726700796,
				"element": "H" 
			},
			{
				"x": -1.4341266281,
				"y": 1.5889778292,
				"z": -0.1848800963,
				"element": "H" 
			},
			{
				"x": -1.914572873,
				"y": -0.5210229323,
				"z": -1.3311868002,
				"element": "H" 
			},
			{
				"x": -3.1583508893,
				"y": -0.0589631777,
				"z": -0.1939519444,
				"element": "H" 
			},
			{
				"x": -2.2951644449,
				"y": -2.5771222681,
				"z": -0.4167986827,
				"element": "H" 
			},
			{
				"x": -1.0466959188,
				"y": -2.0738407155,
				"z": 0.6953055679,
				"element": "H" 
			},
			{
				"x": -4.0625448617,
				"y": -1.9310453129,
				"z": 1.151057962,
				"element": "H" 
			},
			{
				"x": -1.8182930164,
				"y": -1.3055352299,
				"z": 3.1473691724,
				"element": "H" 
			},
			{
				"x": -3.5316509901,
				"y": -1.4672958587,
				"z": 3.5554144508,
				"element": "H" 
			},
			{
				"x": -2.9985779252,
				"y": -0.1519502916,
				"z": 2.5067219736,
				"element": "H" 
			},
			{
				"x": -1.9780647862,
				"y": -3.8386692543,
				"z": 2.3481142325,
				"element": "H" 
			},
			{
				"x": -3.7042883943,
				"y": -3.8248366821,
				"z": 2.732586007,
				"element": "H" 
			},
			{
				"x": -3.1630423332,
				"y": -4.2625877587,
				"z": 1.1043644868,
				"element": "H" 
			}
		],
		 "valence_orbital": [ 
			{
				"type": "occ",
				"energy": -0.31127,
				"method": "rhf"
			},
			{
				"type": "occ",
				"energy": -0.30675,
				"method": "rhf"
			},
			{
				"type": "occ",
				"energy": -0.30211,
				"method": "rhf"
			},
			{
				"type": "occ",
				"energy": -0.29502,
				"method": "rhf"
			},
			{
				"type": "occ",
				"energy": -0.29152,
				"method": "rhf"
			},
			{
				"type": "unocc",
				"energy": 0.0785,
				"method": "rhf"
			},
			{
				"type": "unocc",
				"energy": 0.0843,
				"method": "rhf"
			},
			{
				"type": "unocc",
				"energy": 0.10185,
				"method": "rhf"
			},
			{
				"type": "unocc",
				"energy": 0.1058,
				"method": "rhf"
			},
			{
				"type": "unocc",
				"energy": 0.11368,
				"method": "rhf"
			}
		],
		"cosmo_sigma_profile": { 
			"-0.025": 0.0,
			"-0.024": 0.0,
			"-0.023": 0.0,
			"-0.022": 0.0,
			"-0.021": 0.0,
			"-0.02": 0.0,
			"-0.019": 0.0,
			"-0.018": 0.0,
			"-0.017": 0.0,
			"-0.016": 0.0,
			"-0.015": 0.0,
			"-0.014": 0.0,
			"-0.013": 0.0,
			"-0.012": 0.0,
			"-0.011": 0.0,
			"-0.01": 0.0,
			"-0.009": 0.0,
			"-0.008": 0.0,
			"-0.007": 0.0,
			"-0.006": 0.0,
			"-0.005": 0.0,
			"-0.004": 0.0,
			"-0.003": 2.46913229109,
			"-0.002": 36.3159902316,
			"-0.001": 71.5967816456,
			"0.0": 82.0300108867,
			"0.001": 68.8156741168,
			"0.002": 38.3974371486,
			"0.003": 2.18247522561,
			"0.004": 0.0,
			"0.005": 0.0,
			"0.006": 0.0,
			"0.007": 0.0,
			"0.008": 0.0,
			"0.009": 0.0,
			"0.01": 0.0,
			"0.011": 0.0,
			"0.012": 0.0,
			"0.013": 0.0,
			"0.014": 0.0,
			"0.015": 0.0,
			"0.016": 0.0,
			"0.017": 0.0,
			"0.018": 0.0,
			"0.019": 0.0,
			"0.02": 0.0,
			"0.021": 0.0,
			"0.022": 0.0,
			"0.023": 0.0,
			"0.024": 0.0,
			"0.025": 0.0
		}
	}
}
