{
	 "smiles": "BrC1=CC2=C(NCC2)C=C1", 
	 "Tm": 311.15, 
	 "num_atms": 18, 
	 "gaussian": { 
		 "optdone": 1, 
		 "sigma_profile": "yes", 
		 "theory": "DFT", 
		 "functional": "B3LYP", 
		 "basiset": "6-31G**", 
		 "properties": { 
			 "R2extent": 3649.983, 
			 "electric_dipole_moment_norm": 3.58635977141, 
			 "electric_quadrupole_moment_norm": 9.46614669388, 
			 "total_energy": -2935.82910091, 
			 "HOMO_LUMO_gap": 0.18774, 
			 "cosmo_polarized_energy": -7.13, 
			 "cosmo_cavitation_energy": 23.26, 
			 "cosmo_dispersion_energy": -18.15, 
			 "cosmo_repulsion_energy": 1.48, 
			 "cosmo_total_nonelectrostatic_energy": 6.59, 
			 "SMD_solvation_energy": 1.13 
		},
		"coords": [
			{
				"x": 0.69999138,
				"y": 3.9166191752,
				"z": -1.3396235548,
				"element": "Br" 
			},
			{
				"x": -0.0053516026,
				"y": 2.1358868533,
				"z": -1.2656264631,
				"element": "C" 
			},
			{
				"x": 0.8775954633,
				"y": 1.0574138423,
				"z": -1.128204335,
				"element": "C" 
			},
			{
				"x": 0.3494407197,
				"y": -0.2235034791,
				"z": -1.0907671424,
				"element": "C" 
			},
			{
				"x": -1.0396897537,
				"y": -0.4302461105,
				"z": -1.1759403667,
				"element": "C" 
			},
			{
				"x": -1.3399497642,
				"y": -1.7916834906,
				"z": -1.0710792612,
				"element": "N" 
			},
			{
				"x": -0.1023278825,
				"y": -2.5503447726,
				"z": -1.338292935,
				"element": "C" 
			},
			{
				"x": 1.0196499093,
				"y": -1.5705344235,
				"z": -0.9137206593,
				"element": "C" 
			},
			{
				"x": -1.914616056,
				"y": 0.6483870843,
				"z": -1.3092400234,
				"element": "C" 
			},
			{
				"x": -1.3820420065,
				"y": 1.9418263148,
				"z": -1.355170835,
				"element": "C" 
			},
			{
				"x": 1.9465709868,
				"y": 1.230566635,
				"z": -1.0631022323,
				"element": "H" 
			},
			{
				"x": -2.1729410783,
				"y": -2.1122311904,
				"z": -1.5479533724,
				"element": "H" 
			},
			{
				"x": -0.0050523096,
				"y": -2.7942565973,
				"z": -2.4077385604,
				"element": "H" 
			},
			{
				"x": -0.0874449604,
				"y": -3.4856769562,
				"z": -0.7719963452,
				"element": "H" 
			},
			{
				"x": 1.2901669101,
				"y": -1.7274601805,
				"z": 0.1389349197,
				"element": "H" 
			},
			{
				"x": 1.9286550576,
				"y": -1.6972142994,
				"z": -1.5085153453,
				"element": "H" 
			},
			{
				"x": -2.9880221193,
				"y": 0.4982440286,
				"z": -1.3793442222,
				"element": "H" 
			},
			{
				"x": -2.0409328939,
				"y": 2.7957075667,
				"z": -1.4654192663,
				"element": "H" 
			}
		],
		 "valence_orbital": [ 
			{
				"type": "occ",
				"energy": -0.32206,
				"method": "rhf"
			},
			{
				"type": "occ",
				"energy": -0.27585,
				"method": "rhf"
			},
			{
				"type": "occ",
				"energy": -0.26842,
				"method": "rhf"
			},
			{
				"type": "occ",
				"energy": -0.25045,
				"method": "rhf"
			},
			{
				"type": "occ",
				"energy": -0.19507,
				"method": "rhf"
			},
			{
				"type": "unocc",
				"energy": -0.00733,
				"method": "rhf"
			},
			{
				"type": "unocc",
				"energy": 0.01008,
				"method": "rhf"
			},
			{
				"type": "unocc",
				"energy": 0.01808,
				"method": "rhf"
			},
			{
				"type": "unocc",
				"energy": 0.08272,
				"method": "rhf"
			},
			{
				"type": "unocc",
				"energy": 0.1133,
				"method": "rhf"
			}
		],
		"cosmo_sigma_profile": { 
			"-0.025": 0.0,
			"-0.024": 0.0,
			"-0.023": 0.0,
			"-0.022": 0.0,
			"-0.021": 0.0,
			"-0.02": 0.0,
			"-0.019": 0.0,
			"-0.018": 0.0,
			"-0.017": 0.0,
			"-0.016": 0.0,
			"-0.015": 0.0,
			"-0.014": 0.0,
			"-0.013": 0.599194400826,
			"-0.012": 1.28544757735,
			"-0.011": 1.56005693291,
			"-0.01": 0.575655195104,
			"-0.009": 1.6239312595,
			"-0.008": 1.23020147133,
			"-0.007": 2.64728810894,
			"-0.006": 6.71445350375,
			"-0.005": 7.19143788707,
			"-0.004": 17.4858717107,
			"-0.003": 19.9480849317,
			"-0.002": 17.6221932808,
			"-0.001": 15.9667978291,
			"0.0": 8.63845615813,
			"0.001": 8.95039395945,
			"0.002": 10.3638820241,
			"0.003": 13.0741716655,
			"0.004": 17.7512687965,
			"0.005": 23.6084582821,
			"0.006": 6.61289554188,
			"0.007": 0.778577828802,
			"0.008": 0.747510301429,
			"0.009": 0.748869313807,
			"0.01": 0.443088940367,
			"0.011": 0.803861563194,
			"0.012": 0.634595840655,
			"0.013": 0.458174223943,
			"0.014": 0.123264108057,
			"0.015": 0.0,
			"0.016": 0.0,
			"0.017": 0.0,
			"0.018": 0.0,
			"0.019": 0.0,
			"0.02": 0.0,
			"0.021": 0.0,
			"0.022": 0.0,
			"0.023": 0.0,
			"0.024": 0.0,
			"0.025": 0.0
		}
	}
}
