{
	 "smiles": "COC1=C(OC)C(=O)OC1C(O)COS(=O)(=O)C1=CC=C(C)C=C1", 
	 "Tm": 362.15, 
	 "num_atms": 42, 
	 "gaussian": { 
		 "optdone": 1, 
		 "sigma_profile": "yes", 
		 "theory": "DFT", 
		 "functional": "B3LYP", 
		 "basiset": "6-31G**", 
		 "properties": { 
			 "R2extent": 8248.6282, 
			 "electric_dipole_moment_norm": 7.0155938373, 
			 "electric_quadrupole_moment_norm": 14.4703965042, 
			 "total_energy": -1582.30744001, 
			 "HOMO_LUMO_gap": 0.17726, 
			 "cosmo_polarized_energy": -21.29, 
			 "cosmo_cavitation_energy": 45.5, 
			 "cosmo_dispersion_energy": -30.72, 
			 "cosmo_repulsion_energy": 2.29, 
			 "cosmo_total_nonelectrostatic_energy": 17.08, 
			 "SMD_solvation_energy": 9.0 
		},
		"coords": [
			{
				"x": 1.7985151504,
				"y": -2.6818102313,
				"z": 1.1572460076,
				"element": "C" 
			},
			{
				"x": 0.6577107347,
				"y": -1.9116261244,
				"z": 0.7429194337,
				"element": "O" 
			},
			{
				"x": -0.1800693411,
				"y": -2.4949044269,
				"z": -0.1427825808,
				"element": "C" 
			},
			{
				"x": -1.5282274488,
				"y": -2.4811857951,
				"z": -0.0753819067,
				"element": "C" 
			},
			{
				"x": -2.256793245,
				"y": -1.9463300765,
				"z": 0.927265361,
				"element": "O" 
			},
			{
				"x": -3.5974042571,
				"y": -1.5072654451,
				"z": 0.6185282341,
				"element": "C" 
			},
			{
				"x": -2.0561178687,
				"y": -3.2261818795,
				"z": -1.2384502967,
				"element": "C" 
			},
			{
				"x": -3.1890515757,
				"y": -3.5178045556,
				"z": -1.5348360639,
				"element": "O" 
			},
			{
				"x": -0.9798078676,
				"y": -3.61695392,
				"z": -2.0146873294,
				"element": "O" 
			},
			{
				"x": 0.2486015299,
				"y": -3.1743843396,
				"z": -1.4204380503,
				"element": "C" 
			},
			{
				"x": 1.0083482897,
				"y": -2.2894664346,
				"z": -2.4459905846,
				"element": "C" 
			},
			{
				"x": 2.2945734611,
				"y": -1.9572509009,
				"z": -1.9540547803,
				"element": "O" 
			},
			{
				"x": 0.244587798,
				"y": -1.0462657548,
				"z": -2.8993406612,
				"element": "C" 
			},
			{
				"x": 0.3734680655,
				"y": -0.066057681,
				"z": -1.8345250593,
				"element": "O" 
			},
			{
				"x": -0.7350587279,
				"y": 1.1622244933,
				"z": -1.833397998,
				"element": "S" 
			},
			{
				"x": -2.0598545852,
				"y": 0.5579021821,
				"z": -1.685746488,
				"element": "O" 
			},
			{
				"x": -0.4579807307,
				"y": 2.0409481626,
				"z": -2.9671213559,
				"element": "O" 
			},
			{
				"x": -0.2259216201,
				"y": 1.9393747754,
				"z": -0.3175936101,
				"element": "C" 
			},
			{
				"x": 0.4151220369,
				"y": 3.1764153566,
				"z": -0.3863421741,
				"element": "C" 
			},
			{
				"x": 0.7918673003,
				"y": 3.8043495358,
				"z": 0.79950759,
				"element": "C" 
			},
			{
				"x": 0.5366271753,
				"y": 3.2131888734,
				"z": 2.0443402584,
				"element": "C" 
			},
			{
				"x": 0.9201469591,
				"y": 3.912065599,
				"z": 3.3259268221,
				"element": "C" 
			},
			{
				"x": -0.1069886483,
				"y": 1.965669649,
				"z": 2.076266456,
				"element": "C" 
			},
			{
				"x": -0.4980514347,
				"y": 1.3210102639,
				"z": 0.9064378227,
				"element": "C" 
			},
			{
				"x": 2.4717909059,
				"y": -2.8739683006,
				"z": 0.3167793233,
				"element": "H" 
			},
			{
				"x": 2.3092658078,
				"y": -2.0741765234,
				"z": 1.9054517274,
				"element": "H" 
			},
			{
				"x": 1.4821562628,
				"y": -3.6271120618,
				"z": 1.6128694952,
				"element": "H" 
			},
			{
				"x": -3.9670671387,
				"y": -1.0618953433,
				"z": 1.5432871261,
				"element": "H" 
			},
			{
				"x": -3.5774559318,
				"y": -0.7574141269,
				"z": -0.1766330851,
				"element": "H" 
			},
			{
				"x": -4.2260276867,
				"y": -2.3475159346,
				"z": 0.3217870132,
				"element": "H" 
			},
			{
				"x": 0.8739734687,
				"y": -4.0580172949,
				"z": -1.2402337561,
				"element": "H" 
			},
			{
				"x": 1.1573052899,
				"y": -2.9154111435,
				"z": -3.3336786631,
				"element": "H" 
			},
			{
				"x": 2.1841172008,
				"y": -1.1630082751,
				"z": -1.4092123819,
				"element": "H" 
			},
			{
				"x": -0.8080720997,
				"y": -1.2768786709,
				"z": -3.0811671376,
				"element": "H" 
			},
			{
				"x": 0.6955491818,
				"y": -0.6330241755,
				"z": -3.8057350649,
				"element": "H" 
			},
			{
				"x": 0.6085297479,
				"y": 3.6309718535,
				"z": -1.3514877774,
				"element": "H" 
			},
			{
				"x": 1.2912659421,
				"y": 4.7683098731,
				"z": 0.7559842994,
				"element": "H" 
			},
			{
				"x": 0.0672089266,
				"y": 4.4654405407,
				"z": 3.7378358173,
				"element": "H" 
			},
			{
				"x": 1.7292267768,
				"y": 4.6297728982,
				"z": 3.1652037196,
				"element": "H" 
			},
			{
				"x": 1.2417921517,
				"y": 3.1980675727,
				"z": 4.0899711981,
				"element": "H" 
			},
			{
				"x": -0.3066128193,
				"y": 1.4911010727,
				"z": 3.0331670561,
				"element": "H" 
			},
			{
				"x": -0.9910871367,
				"y": 0.355996714,
				"z": 0.949162044,
				"element": "H" 
			}
		],
		 "valence_orbital": [ 
			{
				"type": "occ",
				"energy": -0.28368,
				"method": "rhf"
			},
			{
				"type": "occ",
				"energy": -0.27436,
				"method": "rhf"
			},
			{
				"type": "occ",
				"energy": -0.26995,
				"method": "rhf"
			},
			{
				"type": "occ",
				"energy": -0.26452,
				"method": "rhf"
			},
			{
				"type": "occ",
				"energy": -0.22373,
				"method": "rhf"
			},
			{
				"type": "unocc",
				"energy": -0.04647,
				"method": "rhf"
			},
			{
				"type": "unocc",
				"energy": -0.02996,
				"method": "rhf"
			},
			{
				"type": "unocc",
				"energy": -0.02464,
				"method": "rhf"
			},
			{
				"type": "unocc",
				"energy": 0.02849,
				"method": "rhf"
			},
			{
				"type": "unocc",
				"energy": 0.06509,
				"method": "rhf"
			}
		],
		"cosmo_sigma_profile": { 
			"-0.025": 0.0,
			"-0.024": 0.0,
			"-0.023": 0.0,
			"-0.022": 0.0,
			"-0.021": 0.0,
			"-0.02": 0.0,
			"-0.019": 0.0,
			"-0.018": 0.0,
			"-0.017": 0.0,
			"-0.016": 0.0,
			"-0.015": 0.0,
			"-0.014": 0.0,
			"-0.013": 0.357813668318,
			"-0.012": 0.383580784323,
			"-0.011": 0.47673416497,
			"-0.01": 0.183086201389,
			"-0.009": 0.949646679536,
			"-0.008": 7.81219245126,
			"-0.007": 15.6608008044,
			"-0.006": 24.1377165364,
			"-0.005": 26.7291697449,
			"-0.004": 29.9785882105,
			"-0.003": 33.1518464442,
			"-0.002": 28.0559564879,
			"-0.001": 26.3665199215,
			"0.0": 21.5705675684,
			"0.001": 20.9368126438,
			"0.002": 20.9448063859,
			"0.003": 19.4649105574,
			"0.004": 11.0685232439,
			"0.005": 8.6067541997,
			"0.006": 9.66592376182,
			"0.007": 8.52543579414,
			"0.008": 8.25797586803,
			"0.009": 12.3513341375,
			"0.01": 11.856373275,
			"0.011": 7.564320161,
			"0.012": 4.73622073989,
			"0.013": 1.19633673571,
			"0.014": 0.0,
			"0.015": 0.0,
			"0.016": 0.0,
			"0.017": 0.0,
			"0.018": 0.0,
			"0.019": 0.0,
			"0.02": 0.0,
			"0.021": 0.0,
			"0.022": 0.0,
			"0.023": 0.0,
			"0.024": 0.0,
			"0.025": 0.0
		}
	}
}
