{
	 "smiles": "NC1=NC(=CS1)C1=C(Cl)C=CC=C1", 
	 "Tm": 416.15, 
	 "num_atms": 20, 
	 "gaussian": { 
		 "optdone": 1, 
		 "sigma_profile": "yes", 
		 "theory": "DFT", 
		 "functional": "B3LYP", 
		 "basiset": "6-31G**", 
		 "properties": { 
			 "R2extent": 4275.7085, 
			 "electric_dipole_moment_norm": 2.78860703937, 
			 "electric_quadrupole_moment_norm": 17.4946435948, 
			 "total_energy": -1315.05659255, 
			 "HOMO_LUMO_gap": 0.17284, 
			 "cosmo_polarized_energy": -10.56, 
			 "cosmo_cavitation_energy": 27.44, 
			 "cosmo_dispersion_energy": -21.3, 
			 "cosmo_repulsion_energy": 1.63, 
			 "cosmo_total_nonelectrostatic_energy": 7.78, 
			 "SMD_solvation_energy": 3.11 
		},
		"coords": [
			{
				"x": 1.2723032961,
				"y": 3.638160578,
				"z": -0.2118930481,
				"element": "N" 
			},
			{
				"x": 1.7043205142,
				"y": 2.3448575582,
				"z": -0.0194536415,
				"element": "C" 
			},
			{
				"x": 0.9217923856,
				"y": 1.3101755435,
				"z": -0.0143081477,
				"element": "N" 
			},
			{
				"x": 1.6391986377,
				"y": 0.1221284118,
				"z": 0.1061003972,
				"element": "C" 
			},
			{
				"x": 2.9952458301,
				"y": 0.2823441408,
				"z": 0.2105064114,
				"element": "C" 
			},
			{
				"x": 3.4257095137,
				"y": 1.9698200623,
				"z": 0.1295780137,
				"element": "S" 
			},
			{
				"x": 0.851291347,
				"y": -1.1299821525,
				"z": 0.1710550957,
				"element": "C" 
			},
			{
				"x": 1.3267213146,
				"y": -2.4374189056,
				"z": -0.0548424495,
				"element": "C" 
			},
			{
				"x": 2.9978231836,
				"y": -2.7753762715,
				"z": -0.5162982846,
				"element": "Cl" 
			},
			{
				"x": 0.4927884611,
				"y": -3.5527324846,
				"z": 0.0425365569,
				"element": "C" 
			},
			{
				"x": -0.8516497828,
				"y": -3.3972550988,
				"z": 0.3678756935,
				"element": "C" 
			},
			{
				"x": -1.3579955333,
				"y": -2.1157481442,
				"z": 0.5869806108,
				"element": "C" 
			},
			{
				"x": -0.5195992227,
				"y": -1.0126283642,
				"z": 0.4859868565,
				"element": "C" 
			},
			{
				"x": 1.8047274431,
				"y": 4.3687474833,
				"z": 0.2385508824,
				"element": "H" 
			},
			{
				"x": 0.2708609858,
				"y": 3.7375834475,
				"z": -0.1080134145,
				"element": "H" 
			},
			{
				"x": 3.7613481426,
				"y": -0.4603521005,
				"z": 0.3517302196,
				"element": "H" 
			},
			{
				"x": 0.9081477785,
				"y": -4.5365322122,
				"z": -0.1452683867,
				"element": "H" 
			},
			{
				"x": -1.4926910526,
				"y": -4.2703868933,
				"z": 0.4425477851,
				"element": "H" 
			},
			{
				"x": -2.4052945066,
				"y": -1.9739874635,
				"z": 0.8363436603,
				"element": "H" 
			},
			{
				"x": -0.9053487357,
				"y": -0.0131171347,
				"z": 0.6455851894,
				"element": "H" 
			}
		],
		 "valence_orbital": [ 
			{
				"type": "occ",
				"energy": -0.28665,
				"method": "rhf"
			},
			{
				"type": "occ",
				"energy": -0.27486,
				"method": "rhf"
			},
			{
				"type": "occ",
				"energy": -0.25279,
				"method": "rhf"
			},
			{
				"type": "occ",
				"energy": -0.2438,
				"method": "rhf"
			},
			{
				"type": "occ",
				"energy": -0.20582,
				"method": "rhf"
			},
			{
				"type": "unocc",
				"energy": -0.03298,
				"method": "rhf"
			},
			{
				"type": "unocc",
				"energy": -0.00726,
				"method": "rhf"
			},
			{
				"type": "unocc",
				"energy": 0.00593,
				"method": "rhf"
			},
			{
				"type": "unocc",
				"energy": 0.01452,
				"method": "rhf"
			},
			{
				"type": "unocc",
				"energy": 0.03374,
				"method": "rhf"
			}
		],
		"cosmo_sigma_profile": { 
			"-0.025": 0.0,
			"-0.024": 0.0,
			"-0.023": 0.0,
			"-0.022": 0.0,
			"-0.021": 0.0,
			"-0.02": 0.0,
			"-0.019": 0.0,
			"-0.018": 0.0,
			"-0.017": 0.0,
			"-0.016": 0.0,
			"-0.015": 0.412387571916,
			"-0.014": 2.02331443051,
			"-0.013": 2.61908411398,
			"-0.012": 2.8330875576,
			"-0.011": 2.28433282135,
			"-0.01": 2.90588532389,
			"-0.009": 2.16164158963,
			"-0.008": 1.81125201995,
			"-0.007": 5.03300062397,
			"-0.006": 8.97648651401,
			"-0.005": 10.4957324958,
			"-0.004": 11.4454788831,
			"-0.003": 9.16014460985,
			"-0.002": 10.8931741683,
			"-0.001": 13.0442394178,
			"0.0": 13.4971280684,
			"0.001": 18.4511401689,
			"0.002": 24.5428478807,
			"0.003": 28.7335389172,
			"0.004": 28.3288189425,
			"0.005": 11.9085749695,
			"0.006": 2.80578678776,
			"0.007": 2.95923708826,
			"0.008": 2.54930453464,
			"0.009": 0.995801890414,
			"0.01": 1.79915801025,
			"0.011": 1.40131222178,
			"0.012": 0.782656222866,
			"0.013": 0.10097725712,
			"0.014": 0.0,
			"0.015": 0.0,
			"0.016": 0.0,
			"0.017": 0.0,
			"0.018": 0.0,
			"0.019": 0.0,
			"0.02": 0.0,
			"0.021": 0.0,
			"0.022": 0.0,
			"0.023": 0.0,
			"0.024": 0.0,
			"0.025": 0.0
		}
	}
}
