{
	 "smiles": "CCOC(=O)C1=C(N)SC(C(=O)OC(C)(C)C)=C1C", 
	 "Tm": 382.15, 
	 "num_atms": 38, 
	 "gaussian": { 
		 "optdone": 1, 
		 "sigma_profile": "yes", 
		 "theory": "DFT", 
		 "functional": "B3LYP", 
		 "basiset": "6-31G**", 
		 "properties": { 
			 "R2extent": 8416.0694, 
			 "electric_dipole_moment_norm": 2.26910425278, 
			 "electric_quadrupole_moment_norm": 11.1489950072, 
			 "total_energy": -1260.72212771, 
			 "HOMO_LUMO_gap": 0.17122, 
			 "cosmo_polarized_energy": -12.54, 
			 "cosmo_cavitation_energy": 41.5, 
			 "cosmo_dispersion_energy": -29.45, 
			 "cosmo_repulsion_energy": 2.24, 
			 "cosmo_total_nonelectrostatic_energy": 14.29, 
			 "SMD_solvation_energy": 8.68 
		},
		"coords": [
			{
				"x": 5.4084612176,
				"y": 1.7868863724,
				"z": -0.2692848799,
				"element": "C" 
			},
			{
				"x": 4.2508254699,
				"y": 2.6739646314,
				"z": 0.164373741,
				"element": "C" 
			},
			{
				"x": 3.0856533452,
				"y": 1.891667431,
				"z": 0.5167653992,
				"element": "O" 
			},
			{
				"x": 3.0368166345,
				"y": 1.4074815095,
				"z": 1.7786090535,
				"element": "C" 
			},
			{
				"x": 3.9395921874,
				"y": 1.6261817729,
				"z": 2.5901913725,
				"element": "O" 
			},
			{
				"x": 1.8415425382,
				"y": 0.6245775279,
				"z": 2.0813529384,
				"element": "C" 
			},
			{
				"x": 1.7038202886,
				"y": 0.076078579,
				"z": 3.3723109371,
				"element": "C" 
			},
			{
				"x": 2.5785113648,
				"y": 0.1968378211,
				"z": 4.3871172732,
				"element": "N" 
			},
			{
				"x": 0.2270909701,
				"y": -0.8201470817,
				"z": 3.548804173,
				"element": "S" 
			},
			{
				"x": -0.2249649913,
				"y": -0.4619887507,
				"z": 1.8710297315,
				"element": "C" 
			},
			{
				"x": -1.5158035775,
				"y": -1.0545641511,
				"z": 1.5050501411,
				"element": "C" 
			},
			{
				"x": -2.1618365158,
				"y": -1.7130067099,
				"z": 2.3109446928,
				"element": "O" 
			},
			{
				"x": -1.901244423,
				"y": -0.8067354744,
				"z": 0.2353449966,
				"element": "O" 
			},
			{
				"x": -3.1763048612,
				"y": -1.3296142969,
				"z": -0.2940327947,
				"element": "C" 
			},
			{
				"x": -4.3518940773,
				"y": -0.746510139,
				"z": 0.4974230582,
				"element": "C" 
			},
			{
				"x": -3.1795709692,
				"y": -0.8050168922,
				"z": -1.7324250817,
				"element": "C" 
			},
			{
				"x": -3.1630320253,
				"y": -2.8619291344,
				"z": -0.2768251542,
				"element": "C" 
			},
			{
				"x": 0.7216127139,
				"y": 0.3069325147,
				"z": 1.2254631624,
				"element": "C" 
			},
			{
				"x": 0.6119974133,
				"y": 0.7681003613,
				"z": -0.2031493765,
				"element": "C" 
			},
			{
				"x": 5.1114708728,
				"y": 1.1344331476,
				"z": -1.0957960734,
				"element": "H" 
			},
			{
				"x": 6.2458353403,
				"y": 2.4075307341,
				"z": -0.6057268329,
				"element": "H" 
			},
			{
				"x": 5.7513202272,
				"y": 1.1697836782,
				"z": 0.564378271,
				"element": "H" 
			},
			{
				"x": 3.9073845801,
				"y": 3.3105118476,
				"z": -0.6548261757,
				"element": "H" 
			},
			{
				"x": 4.5302442263,
				"y": 3.2977538881,
				"z": 1.016212344,
				"element": "H" 
			},
			{
				"x": 3.4108146721,
				"y": 0.7473475939,
				"z": 4.1955508054,
				"element": "H" 
			},
			{
				"x": 2.4040974648,
				"y": -0.2169596558,
				"z": 5.2872235368,
				"element": "H" 
			},
			{
				"x": -5.2930800204,
				"y": -1.0371093223,
				"z": 0.0191035631,
				"element": "H" 
			},
			{
				"x": -4.29905536,
				"y": 0.3467547136,
				"z": 0.5055722705,
				"element": "H" 
			},
			{
				"x": -4.3522678203,
				"y": -1.1085203046,
				"z": 1.5254067397,
				"element": "H" 
			},
			{
				"x": -3.1447237192,
				"y": 0.2883131447,
				"z": -1.7462137053,
				"element": "H" 
			},
			{
				"x": -4.0896911999,
				"y": -1.1279669945,
				"z": -2.2466917795,
				"element": "H" 
			},
			{
				"x": -2.3164697575,
				"y": -1.1864015977,
				"z": -2.2859419302,
				"element": "H" 
			},
			{
				"x": -3.1525319586,
				"y": -3.2439561817,
				"z": 0.7438391963,
				"element": "H" 
			},
			{
				"x": -4.0549827047,
				"y": -3.2398045575,
				"z": -0.7874225054,
				"element": "H" 
			},
			{
				"x": -2.2831394975,
				"y": -3.2399369537,
				"z": -0.8069199706,
				"element": "H" 
			},
			{
				"x": 1.4657339182,
				"y": 0.4090068539,
				"z": -0.784973556,
				"element": "H" 
			},
			{
				"x": 0.6462443514,
				"y": 1.8603116473,
				"z": -0.2532094859,
				"element": "H" 
			},
			{
				"x": -0.309276318,
				"y": 0.4142124278,
				"z": -0.6565280954,
				"element": "H" 
			}
		],
		 "valence_orbital": [ 
			{
				"type": "occ",
				"energy": -0.28779,
				"method": "rhf"
			},
			{
				"type": "occ",
				"energy": -0.27794,
				"method": "rhf"
			},
			{
				"type": "occ",
				"energy": -0.25938,
				"method": "rhf"
			},
			{
				"type": "occ",
				"energy": -0.24923,
				"method": "rhf"
			},
			{
				"type": "occ",
				"energy": -0.20276,
				"method": "rhf"
			},
			{
				"type": "unocc",
				"energy": -0.03154,
				"method": "rhf"
			},
			{
				"type": "unocc",
				"energy": -0.01755,
				"method": "rhf"
			},
			{
				"type": "unocc",
				"energy": 0.01773,
				"method": "rhf"
			},
			{
				"type": "unocc",
				"energy": 0.08578,
				"method": "rhf"
			},
			{
				"type": "unocc",
				"energy": 0.08605,
				"method": "rhf"
			}
		],
		"cosmo_sigma_profile": { 
			"-0.025": 0.0,
			"-0.024": 0.0,
			"-0.023": 0.0,
			"-0.022": 0.0,
			"-0.021": 0.0,
			"-0.02": 0.0,
			"-0.019": 0.0,
			"-0.018": 0.0,
			"-0.017": 0.0,
			"-0.016": 0.458049250403,
			"-0.015": 1.4796289581,
			"-0.014": 1.21973230529,
			"-0.013": 1.14446008126,
			"-0.012": 1.61355244216,
			"-0.011": 1.41854173514,
			"-0.01": 1.87753407626,
			"-0.009": 1.81817307481,
			"-0.008": 1.31611889331,
			"-0.007": 1.59047175059,
			"-0.006": 2.2693735462,
			"-0.005": 6.91093420928,
			"-0.004": 23.8899780331,
			"-0.003": 28.7278464863,
			"-0.002": 31.4889441635,
			"-0.001": 33.9803397583,
			"0.0": 51.4933605569,
			"0.001": 41.4786686684,
			"0.002": 26.6656542461,
			"0.003": 20.7343230204,
			"0.004": 13.7989304869,
			"0.005": 7.63573642226,
			"0.006": 3.90784822634,
			"0.007": 3.47272914858,
			"0.008": 3.62529017634,
			"0.009": 2.50783814166,
			"0.01": 3.18214313219,
			"0.011": 3.85981687095,
			"0.012": 3.6753747245,
			"0.013": 0.987006730534,
			"0.014": 0.0,
			"0.015": 0.0,
			"0.016": 0.0,
			"0.017": 0.0,
			"0.018": 0.0,
			"0.019": 0.0,
			"0.02": 0.0,
			"0.021": 0.0,
			"0.022": 0.0,
			"0.023": 0.0,
			"0.024": 0.0,
			"0.025": 0.0
		}
	}
}
