{
	 "smiles": "OC1=C(F)C(F)=C(C=C1)C#N", 
	 "Tm": 420.15, 
	 "num_atms": 14, 
	 "gaussian": { 
		 "optdone": 1, 
		 "sigma_profile": "yes", 
		 "theory": "DFT", 
		 "functional": "B3LYP", 
		 "basiset": "6-31G**", 
		 "properties": { 
			 "R2extent": 2247.8972, 
			 "electric_dipole_moment_norm": 4.75145366178, 
			 "electric_quadrupole_moment_norm": 11.4932577727, 
			 "total_energy": -598.163079868, 
			 "HOMO_LUMO_gap": 0.20128, 
			 "cosmo_polarized_energy": -11.11, 
			 "cosmo_cavitation_energy": 21.07, 
			 "cosmo_dispersion_energy": -14.87, 
			 "cosmo_repulsion_energy": 1.16, 
			 "cosmo_total_nonelectrostatic_energy": 7.35, 
			 "SMD_solvation_energy": 6.41 
		},
		"coords": [
			{
				"x": -0.0440742392,
				"y": -3.4563542935,
				"z": -0.7599107415,
				"element": "O" 
			},
			{
				"x": 0.0963099669,
				"y": -2.1129998854,
				"z": -0.8058421018,
				"element": "C" 
			},
			{
				"x": 1.0466845189,
				"y": -1.522762673,
				"z": -1.6453447106,
				"element": "C" 
			},
			{
				"x": 1.8160221011,
				"y": -2.3345831529,
				"z": -2.4051129816,
				"element": "F" 
			},
			{
				"x": 1.1997370319,
				"y": -0.1467796852,
				"z": -1.7009766302,
				"element": "C" 
			},
			{
				"x": 2.1195789223,
				"y": 0.3735959527,
				"z": -2.5168011104,
				"element": "F" 
			},
			{
				"x": 0.395336261,
				"y": 0.6849754773,
				"z": -0.9076271258,
				"element": "C" 
			},
			{
				"x": -0.5605442676,
				"y": 0.0872162641,
				"z": -0.0634806808,
				"element": "C" 
			},
			{
				"x": -0.7115488562,
				"y": -1.2918856461,
				"z": -0.0099894408,
				"element": "C" 
			},
			{
				"x": 0.5564718731,
				"y": 2.1025649676,
				"z": -0.9680346227,
				"element": "C" 
			},
			{
				"x": 0.6741727495,
				"y": 3.2592294397,
				"z": -1.004596331,
				"element": "N" 
			},
			{
				"x": 0.5926689657,
				"y": -3.8557571468,
				"z": -1.3718183211,
				"element": "H" 
			},
			{
				"x": -1.1838637246,
				"y": 0.7267056212,
				"z": 0.5510108935,
				"element": "H" 
			},
			{
				"x": -1.4459513029,
				"y": -1.7555652397,
				"z": 0.6383239046,
				"element": "H" 
			}
		],
		 "valence_orbital": [ 
			{
				"type": "occ",
				"energy": -0.36308,
				"method": "rhf"
			},
			{
				"type": "occ",
				"energy": -0.33784,
				"method": "rhf"
			},
			{
				"type": "occ",
				"energy": -0.33611,
				"method": "rhf"
			},
			{
				"type": "occ",
				"energy": -0.27741,
				"method": "rhf"
			},
			{
				"type": "occ",
				"energy": -0.25545,
				"method": "rhf"
			},
			{
				"type": "unocc",
				"energy": -0.05417,
				"method": "rhf"
			},
			{
				"type": "unocc",
				"energy": -0.03092,
				"method": "rhf"
			},
			{
				"type": "unocc",
				"energy": 0.01551,
				"method": "rhf"
			},
			{
				"type": "unocc",
				"energy": 0.04149,
				"method": "rhf"
			},
			{
				"type": "unocc",
				"energy": 0.07502,
				"method": "rhf"
			}
		],
		"cosmo_sigma_profile": { 
			"-0.025": 0.0,
			"-0.024": 0.0,
			"-0.023": 0.0,
			"-0.022": 0.0,
			"-0.021": 0.0,
			"-0.02": 0.0,
			"-0.019": 0.0,
			"-0.018": 0.437643447169,
			"-0.017": 0.889464900758,
			"-0.016": 0.925390712392,
			"-0.015": 0.996874066681,
			"-0.014": 0.0108296768606,
			"-0.013": 0.703905662206,
			"-0.012": 1.37292645222,
			"-0.011": 1.39225277892,
			"-0.01": 0.596379204809,
			"-0.009": 1.82142189254,
			"-0.008": 5.5671148134,
			"-0.007": 6.07864595519,
			"-0.006": 5.26021819346,
			"-0.005": 4.12052485545,
			"-0.004": 7.2471051769,
			"-0.003": 14.5649185287,
			"-0.002": 14.3069543063,
			"-0.001": 11.8980294755,
			"0.0": 13.1817563415,
			"0.001": 13.3617083992,
			"0.002": 20.6141384453,
			"0.003": 11.3485517604,
			"0.004": 3.15761449084,
			"0.005": 3.77659448261,
			"0.006": 3.42621670584,
			"0.007": 5.30320853439,
			"0.008": 4.52141530241,
			"0.009": 5.1176012729,
			"0.01": 3.44294300042,
			"0.011": 2.68282395261,
			"0.012": 2.4045889001,
			"0.013": 0.939413365041,
			"0.014": 0.0,
			"0.015": 0.0,
			"0.016": 0.0,
			"0.017": 0.0,
			"0.018": 0.0,
			"0.019": 0.0,
			"0.02": 0.0,
			"0.021": 0.0,
			"0.022": 0.0,
			"0.023": 0.0,
			"0.024": 0.0,
			"0.025": 0.0
		}
	}
}
