{
	 "smiles": "CC(C)(C)C=C=C=C=CC(C)(C)C", 
	 "Tm": 408.15, 
	 "num_atms": 33, 
	 "gaussian": { 
		 "optdone": 1, 
		 "sigma_profile": "yes", 
		 "theory": "DFT", 
		 "functional": "B3LYP", 
		 "basiset": "6-31G**", 
		 "properties": { 
			 "R2extent": 5005.6875, 
			 "electric_dipole_moment_norm": 0.322620349637, 
			 "electric_quadrupole_moment_norm": 8.01650525042, 
			 "total_energy": -507.347531642, 
			 "HOMO_LUMO_gap": 0.18668, 
			 "cosmo_polarized_energy": -4.03, 
			 "cosmo_cavitation_energy": 35.97, 
			 "cosmo_dispersion_energy": -24.09, 
			 "cosmo_repulsion_energy": 1.97, 
			 "cosmo_total_nonelectrostatic_energy": 13.84, 
			 "SMD_solvation_energy": 6.94 
		},
		"coords": [
			{
				"x": -2.5076811908,
				"y": 1.6996622388,
				"z": -3.8503150316,
				"element": "C" 
			},
			{
				"x": -1.3769300029,
				"y": 0.7601658345,
				"z": -3.3730650133,
				"element": "C" 
			},
			{
				"x": -0.1283539955,
				"y": 1.5834321323,
				"z": -3.0210874237,
				"element": "C" 
			},
			{
				"x": -1.0422665214,
				"y": -0.2464976643,
				"z": -4.4971227512,
				"element": "C" 
			},
			{
				"x": -1.8889816331,
				"y": -0.0252459995,
				"z": -2.1693508971,
				"element": "C" 
			},
			{
				"x": -1.3725429527,
				"y": -0.034065031,
				"z": -0.958241718,
				"element": "C" 
			},
			{
				"x": -0.8786969222,
				"y": -0.0489386412,
				"z": 0.2228941863,
				"element": "C" 
			},
			{
				"x": -0.3862544115,
				"y": -0.0636971758,
				"z": 1.4046172716,
				"element": "C" 
			},
			{
				"x": 0.1129503387,
				"y": -0.071172188,
				"z": 2.6229437438,
				"element": "C" 
			},
			{
				"x": 1.1770245738,
				"y": -1.0201287173,
				"z": 3.1662656792,
				"element": "C" 
			},
			{
				"x": 2.3771245485,
				"y": -0.1727820584,
				"z": 3.6465567542,
				"element": "C" 
			},
			{
				"x": 0.5745158238,
				"y": -1.7790574992,
				"z": 4.3704282457,
				"element": "C" 
			},
			{
				"x": 1.6401236821,
				"y": -2.0216307805,
				"z": 2.0970944004,
				"element": "C" 
			},
			{
				"x": -3.4153986952,
				"y": 1.1366805603,
				"z": -4.094611798,
				"element": "H" 
			},
			{
				"x": -2.7626491097,
				"y": 2.4313659353,
				"z": -3.0772002391,
				"element": "H" 
			},
			{
				"x": -2.1990840534,
				"y": 2.2453253393,
				"z": -4.7494340586,
				"element": "H" 
			},
			{
				"x": 0.2207034184,
				"y": 2.1382042007,
				"z": -3.8985780743,
				"element": "H" 
			},
			{
				"x": 0.6873231833,
				"y": 0.9389035257,
				"z": -2.6790933438,
				"element": "H" 
			},
			{
				"x": -0.3405340358,
				"y": 2.3037393702,
				"z": -2.2249813381,
				"element": "H" 
			},
			{
				"x": -0.7203528622,
				"y": 0.2818421533,
				"z": -5.4018895988,
				"element": "H" 
			},
			{
				"x": -0.237532495,
				"y": -0.9228099053,
				"z": -4.1918918288,
				"element": "H" 
			},
			{
				"x": -1.9148443653,
				"y": -0.8560533103,
				"z": -4.7572139488,
				"element": "H" 
			},
			{
				"x": -2.7767631238,
				"y": -0.6346639431,
				"z": -2.3573119621,
				"element": "H" 
			},
			{
				"x": -0.2567944427,
				"y": 0.6685485091,
				"z": 3.3377668667,
				"element": "H" 
			},
			{
				"x": 2.831428285,
				"y": 0.3724441585,
				"z": 2.8131877559,
				"element": "H" 
			},
			{
				"x": 3.1447166479,
				"y": -0.8142000888,
				"z": 4.0946255782,
				"element": "H" 
			},
			{
				"x": 2.0696399387,
				"y": 0.5596298602,
				"z": 4.4012833625,
				"element": "H" 
			},
			{
				"x": -0.2747656842,
				"y": -2.3961289583,
				"z": 4.0604970415,
				"element": "H" 
			},
			{
				"x": 1.3258216485,
				"y": -2.4346879344,
				"z": 4.8254756589,
				"element": "H" 
			},
			{
				"x": 0.2234584464,
				"y": -1.0849403523,
				"z": 5.1421429092,
				"element": "H" 
			},
			{
				"x": 2.4021547859,
				"y": -2.6918524199,
				"z": 2.5090736439,
				"element": "H" 
			},
			{
				"x": 2.0708070161,
				"y": -1.5068881489,
				"z": 1.2326520412,
				"element": "H" 
			},
			{
				"x": 0.8059341601,
				"y": -2.633203002,
				"z": 1.7396838863,
				"element": "H" 
			}
		],
		 "valence_orbital": [ 
			{
				"type": "occ",
				"energy": -0.32663,
				"method": "rhf"
			},
			{
				"type": "occ",
				"energy": -0.31751,
				"method": "rhf"
			},
			{
				"type": "occ",
				"energy": -0.3175,
				"method": "rhf"
			},
			{
				"type": "occ",
				"energy": -0.21766,
				"method": "rhf"
			},
			{
				"type": "occ",
				"energy": -0.21763,
				"method": "rhf"
			},
			{
				"type": "unocc",
				"energy": -0.03095,
				"method": "rhf"
			},
			{
				"type": "unocc",
				"energy": -0.03093,
				"method": "rhf"
			},
			{
				"type": "unocc",
				"energy": 0.08653,
				"method": "rhf"
			},
			{
				"type": "unocc",
				"energy": 0.08733,
				"method": "rhf"
			},
			{
				"type": "unocc",
				"energy": 0.1295,
				"method": "rhf"
			}
		],
		"cosmo_sigma_profile": { 
			"-0.025": 0.0,
			"-0.024": 0.0,
			"-0.023": 0.0,
			"-0.022": 0.0,
			"-0.021": 0.0,
			"-0.02": 0.0,
			"-0.019": 0.0,
			"-0.018": 0.0,
			"-0.017": 0.0,
			"-0.016": 0.0,
			"-0.015": 0.0,
			"-0.014": 0.0,
			"-0.013": 0.0,
			"-0.012": 0.0,
			"-0.011": 0.0,
			"-0.01": 0.0,
			"-0.009": 0.0,
			"-0.008": 0.0,
			"-0.007": 0.176037832107,
			"-0.006": 3.07904175279,
			"-0.005": 4.24191116717,
			"-0.004": 7.82485972145,
			"-0.003": 34.0714146983,
			"-0.002": 40.1379162081,
			"-0.001": 36.9288071155,
			"0.0": 36.0836927888,
			"0.001": 50.0413011028,
			"0.002": 21.0490023763,
			"0.003": 8.09305498306,
			"0.004": 15.7709739371,
			"0.005": 22.3464280786,
			"0.006": 0.376476005817,
			"0.007": 0.0,
			"0.008": 0.0,
			"0.009": 0.0,
			"0.01": 0.0,
			"0.011": 0.0,
			"0.012": 0.0,
			"0.013": 0.0,
			"0.014": 0.0,
			"0.015": 0.0,
			"0.016": 0.0,
			"0.017": 0.0,
			"0.018": 0.0,
			"0.019": 0.0,
			"0.02": 0.0,
			"0.021": 0.0,
			"0.022": 0.0,
			"0.023": 0.0,
			"0.024": 0.0,
			"0.025": 0.0
		}
	}
}
