{
	 "smiles": "COC1=NC(SC)=NC(N)=N1", 
	 "Tm": 474.15, 
	 "num_atms": 19, 
	 "gaussian": { 
		 "optdone": 1, 
		 "sigma_profile": "yes", 
		 "theory": "DFT", 
		 "functional": "B3LYP", 
		 "basiset": "6-31G**", 
		 "properties": { 
			 "R2extent": 3173.089, 
			 "electric_dipole_moment_norm": 0.817546530786, 
			 "electric_quadrupole_moment_norm": 13.4895783811, 
			 "total_energy": -887.79569988, 
			 "HOMO_LUMO_gap": 0.21545, 
			 "cosmo_polarized_energy": -12.92, 
			 "cosmo_cavitation_energy": 25.17, 
			 "cosmo_dispersion_energy": -19.12, 
			 "cosmo_repulsion_energy": 1.51, 
			 "cosmo_total_nonelectrostatic_energy": 7.57, 
			 "SMD_solvation_energy": 1.88 
		},
		"coords": [
			{
				"x": -1.6437357116,
				"y": 0.8557310707,
				"z": 1.1252554773,
				"element": "C" 
			},
			{
				"x": -1.0903882201,
				"y": 1.8503257978,
				"z": 0.2563594836,
				"element": "O" 
			},
			{
				"x": -0.5224989349,
				"y": 1.4372248125,
				"z": -0.8818086446,
				"element": "C" 
			},
			{
				"x": -0.4991685375,
				"y": 0.1235854105,
				"z": -1.1515560516,
				"element": "N" 
			},
			{
				"x": 0.0934072522,
				"y": -0.1695895288,
				"z": -2.3172680523,
				"element": "C" 
			},
			{
				"x": 0.2090138152,
				"y": -1.860557907,
				"z": -2.8275680134,
				"element": "S" 
			},
			{
				"x": -0.6068638547,
				"y": -2.7233718031,
				"z": -1.4426612274,
				"element": "C" 
			},
			{
				"x": 0.6283987563,
				"y": 0.6956055135,
				"z": -3.174437515,
				"element": "N" 
			},
			{
				"x": 0.5353844988,
				"y": 1.9823480141,
				"z": -2.7763580308,
				"element": "C" 
			},
			{
				"x": 1.0619998937,
				"y": 2.9162764861,
				"z": -3.597947882,
				"element": "N" 
			},
			{
				"x": -0.0315970918,
				"y": 2.4162728411,
				"z": -1.6364288389,
				"element": "N" 
			},
			{
				"x": -2.044854889,
				"y": 1.4106351596,
				"z": 1.9740233496,
				"element": "H" 
			},
			{
				"x": -0.8755496352,
				"y": 0.1535568024,
				"z": 1.4595942376,
				"element": "H" 
			},
			{
				"x": -2.4398210481,
				"y": 0.2964060828,
				"z": 0.6269149405,
				"element": "H" 
			},
			{
				"x": -1.6436483785,
				"y": -2.4017768149,
				"z": -1.3417132469,
				"element": "H" 
			},
			{
				"x": -0.5702381846,
				"y": -3.7855096502,
				"z": -1.6948018123,
				"element": "H" 
			},
			{
				"x": -0.0753435128,
				"y": -2.5457180615,
				"z": -0.5075400682,
				"element": "H" 
			},
			{
				"x": 0.9967262047,
				"y": 3.887649191,
				"z": -3.3449382406,
				"element": "H" 
			},
			{
				"x": 1.4780775777,
				"y": 2.6290065833,
				"z": -4.4674198646,
				"element": "H" 
			}
		],
		 "valence_orbital": [ 
			{
				"type": "occ",
				"energy": -0.27557,
				"method": "rhf"
			},
			{
				"type": "occ",
				"energy": -0.27015,
				"method": "rhf"
			},
			{
				"type": "occ",
				"energy": -0.2624,
				"method": "rhf"
			},
			{
				"type": "occ",
				"energy": -0.25052,
				"method": "rhf"
			},
			{
				"type": "occ",
				"energy": -0.23403,
				"method": "rhf"
			},
			{
				"type": "unocc",
				"energy": -0.01858,
				"method": "rhf"
			},
			{
				"type": "unocc",
				"energy": 0.00221,
				"method": "rhf"
			},
			{
				"type": "unocc",
				"energy": 0.03876,
				"method": "rhf"
			},
			{
				"type": "unocc",
				"energy": 0.08691,
				"method": "rhf"
			},
			{
				"type": "unocc",
				"energy": 0.09085,
				"method": "rhf"
			}
		],
		"cosmo_sigma_profile": { 
			"-0.025": 0.0,
			"-0.024": 0.0,
			"-0.023": 0.0,
			"-0.022": 0.0,
			"-0.021": 0.0,
			"-0.02": 0.0,
			"-0.019": 0.0,
			"-0.018": 0.0,
			"-0.017": 0.0,
			"-0.016": 0.0,
			"-0.015": 0.721861166727,
			"-0.014": 2.39900039062,
			"-0.013": 1.50167911133,
			"-0.012": 2.02008275684,
			"-0.011": 2.28263462175,
			"-0.01": 2.35811131848,
			"-0.009": 1.57317801677,
			"-0.008": 1.06492412108,
			"-0.007": 4.40915059385,
			"-0.006": 8.17522053349,
			"-0.005": 12.5323432469,
			"-0.004": 14.3180912547,
			"-0.003": 19.3079543716,
			"-0.002": 17.0996419781,
			"-0.001": 13.0819680582,
			"0.0": 10.8024904083,
			"0.001": 10.019164609,
			"0.002": 11.3678961066,
			"0.003": 11.0679190886,
			"0.004": 10.6600878371,
			"0.005": 9.92486156187,
			"0.006": 8.90336127993,
			"0.007": 7.68394168326,
			"0.008": 3.23148966793,
			"0.009": 3.10647444569,
			"0.01": 2.41141873284,
			"0.011": 3.66298487129,
			"0.012": 2.99985909285,
			"0.013": 1.44841170223,
			"0.014": 1.23138498852,
			"0.015": 0.636331706491,
			"0.016": 0.020517362017,
			"0.017": 0.0,
			"0.018": 0.0,
			"0.019": 0.0,
			"0.02": 0.0,
			"0.021": 0.0,
			"0.022": 0.0,
			"0.023": 0.0,
			"0.024": 0.0,
			"0.025": 0.0
		}
	}
}
