{
	 "smiles": "CC1=C(N2C=CSC2=N1)C(N)=S", 
	 "Tm": 506.15, 
	 "num_atms": 19, 
	 "gaussian": { 
		 "optdone": 1, 
		 "sigma_profile": "yes", 
		 "theory": "DFT", 
		 "functional": "B3LYP", 
		 "basiset": "6-31G**", 
		 "properties": { 
			 "R2extent": 3149.021, 
			 "electric_dipole_moment_norm": 1.93167339631, 
			 "electric_quadrupole_moment_norm": 23.4204234665, 
			 "total_energy": -1231.58655233, 
			 "HOMO_LUMO_gap": 0.15278, 
			 "cosmo_polarized_energy": -15.14, 
			 "cosmo_cavitation_energy": 25.84, 
			 "cosmo_dispersion_energy": -20.51, 
			 "cosmo_repulsion_energy": 1.51, 
			 "cosmo_total_nonelectrostatic_energy": 6.84, 
			 "SMD_solvation_energy": 2.04 
		},
		"coords": [
			{
				"x": -0.8731788459,
				"y": 0.7943861879,
				"z": 1.7605391323,
				"element": "C" 
			},
			{
				"x": -0.6378168011,
				"y": -0.2209260459,
				"z": 0.6824709498,
				"element": "C" 
			},
			{
				"x": 0.4939417167,
				"y": -0.407585437,
				"z": -0.1386248116,
				"element": "C" 
			},
			{
				"x": 0.1594109807,
				"y": -1.52455122,
				"z": -0.9195186376,
				"element": "N" 
			},
			{
				"x": 0.704392459,
				"y": -2.3076849879,
				"z": -1.9360481759,
				"element": "C" 
			},
			{
				"x": -0.1440784934,
				"y": -3.2834406572,
				"z": -2.3283544192,
				"element": "C" 
			},
			{
				"x": -1.6675573023,
				"y": -3.2706711622,
				"z": -1.4429349621,
				"element": "S" 
			},
			{
				"x": -1.1004836945,
				"y": -1.8989116461,
				"z": -0.5327897099,
				"element": "C" 
			},
			{
				"x": -1.6079441214,
				"y": -1.146811671,
				"z": 0.4282307393,
				"element": "N" 
			},
			{
				"x": 1.7571724276,
				"y": 0.2958209678,
				"z": -0.2210397428,
				"element": "C" 
			},
			{
				"x": 1.8298185568,
				"y": 1.469037121,
				"z": 0.4601901441,
				"element": "N" 
			},
			{
				"x": 3.1122440967,
				"y": -0.257305627,
				"z": -1.0550973803,
				"element": "S" 
			},
			{
				"x": -0.0208469131,
				"y": 0.8750512013,
				"z": 2.4430241936,
				"element": "H" 
			},
			{
				"x": -1.7517316805,
				"y": 0.4929464498,
				"z": 2.3333946453,
				"element": "H" 
			},
			{
				"x": -1.0811135253,
				"y": 1.793231623,
				"z": 1.3519922757,
				"element": "H" 
			},
			{
				"x": 1.7008587616,
				"y": -2.0908523915,
				"z": -2.288806118,
				"element": "H" 
			},
			{
				"x": 0.0333191622,
				"y": -4.0274812135,
				"z": -3.0901477281,
				"element": "H" 
			},
			{
				"x": 2.6900720587,
				"y": 1.9898118365,
				"z": 0.3753056457,
				"element": "H" 
			},
			{
				"x": 1.0087211575,
				"y": 1.9503366719,
				"z": 0.7906139595,
				"element": "H" 
			}
		],
		 "valence_orbital": [ 
			{
				"type": "occ",
				"energy": -0.29298,
				"method": "rhf"
			},
			{
				"type": "occ",
				"energy": -0.24708,
				"method": "rhf"
			},
			{
				"type": "occ",
				"energy": -0.23979,
				"method": "rhf"
			},
			{
				"type": "occ",
				"energy": -0.21884,
				"method": "rhf"
			},
			{
				"type": "occ",
				"energy": -0.21214,
				"method": "rhf"
			},
			{
				"type": "unocc",
				"energy": -0.05936,
				"method": "rhf"
			},
			{
				"type": "unocc",
				"energy": -0.00674,
				"method": "rhf"
			},
			{
				"type": "unocc",
				"energy": 0.00282,
				"method": "rhf"
			},
			{
				"type": "unocc",
				"energy": 0.03981,
				"method": "rhf"
			},
			{
				"type": "unocc",
				"energy": 0.05954,
				"method": "rhf"
			}
		],
		"cosmo_sigma_profile": { 
			"-0.025": 0.0,
			"-0.024": 0.0,
			"-0.023": 0.0,
			"-0.022": 0.0,
			"-0.021": 0.0,
			"-0.02": 0.0,
			"-0.019": 0.0,
			"-0.018": 0.0,
			"-0.017": 0.0,
			"-0.016": 0.0,
			"-0.015": 0.240032627034,
			"-0.014": 1.69931110665,
			"-0.013": 2.74732443822,
			"-0.012": 2.52673855545,
			"-0.011": 2.82697705455,
			"-0.01": 4.97032346791,
			"-0.009": 3.95123560184,
			"-0.008": 3.37904332625,
			"-0.007": 5.86485549897,
			"-0.006": 6.41590735105,
			"-0.005": 8.12597203565,
			"-0.004": 8.42283264524,
			"-0.003": 12.0844162711,
			"-0.002": 16.2717653157,
			"-0.001": 19.3269831724,
			"0.0": 20.1015570944,
			"0.001": 18.1723045447,
			"0.002": 13.8280820996,
			"0.003": 11.1322956872,
			"0.004": 7.64863520893,
			"0.005": 6.24345975401,
			"0.006": 5.02499066033,
			"0.007": 4.72750284494,
			"0.008": 5.26149420711,
			"0.009": 5.90639066753,
			"0.01": 6.45692077474,
			"0.011": 4.14585497139,
			"0.012": 1.98408540518,
			"0.013": 0.965684771114,
			"0.014": 0.937715035746,
			"0.015": 0.750361060021,
			"0.016": 0.305733571079,
			"0.017": 0.0,
			"0.018": 0.0,
			"0.019": 0.0,
			"0.02": 0.0,
			"0.021": 0.0,
			"0.022": 0.0,
			"0.023": 0.0,
			"0.024": 0.0,
			"0.025": 0.0
		}
	}
}
