{
	 "smiles": "O=CC1=CSC=N1", 
	 "Tm": 335.15, 
	 "num_atms": 10, 
	 "gaussian": { 
		 "optdone": 1, 
		 "sigma_profile": "yes", 
		 "theory": "DFT", 
		 "functional": "B3LYP", 
		 "basiset": "6-31G**", 
		 "properties": { 
			 "R2extent": 2109.1424, 
			 "electric_dipole_moment_norm": 3.11095907238, 
			 "electric_quadrupole_moment_norm": 10.7552525266, 
			 "total_energy": -682.366611455, 
			 "HOMO_LUMO_gap": 0.1905, 
			 "cosmo_polarized_energy": -8.27, 
			 "cosmo_cavitation_energy": 16.66, 
			 "cosmo_dispersion_energy": -12.94, 
			 "cosmo_repulsion_energy": 1.03, 
			 "cosmo_total_nonelectrostatic_energy": 4.75, 
			 "SMD_solvation_energy": 2.94 
		},
		"coords": [
			{
				"x": -0.1928118862,
				"y": -0.9465933199,
				"z": 3.1980425847,
				"element": "O" 
			},
			{
				"x": -0.011957156,
				"y": -0.8313805835,
				"z": 2.0011402879,
				"element": "C" 
			},
			{
				"x": -0.6769610175,
				"y": -1.6711176165,
				"z": 0.9829642976,
				"element": "C" 
			},
			{
				"x": -1.5725210324,
				"y": -2.6749481132,
				"z": 1.2640316156,
				"element": "C" 
			},
			{
				"x": -2.1122949186,
				"y": -3.4058436964,
				"z": -0.1960208918,
				"element": "S" 
			},
			{
				"x": -1.0838320618,
				"y": -2.2957011288,
				"z": -1.0887714487,
				"element": "C" 
			},
			{
				"x": -0.4084046311,
				"y": -1.4662776977,
				"z": -0.3562108448,
				"element": "N" 
			},
			{
				"x": 0.6776570046,
				"y": -0.0746969777,
				"z": 1.57476693,
				"element": "H" 
			},
			{
				"x": -1.9138492867,
				"y": -2.9909321995,
				"z": 2.2392178518,
				"element": "H" 
			},
			{
				"x": -1.0444250144,
				"y": -2.3336086667,
				"z": -2.1709603822,
				"element": "H" 
			}
		],
		 "valence_orbital": [ 
			{
				"type": "occ",
				"energy": -0.38637,
				"method": "rhf"
			},
			{
				"type": "occ",
				"energy": -0.30794,
				"method": "rhf"
			},
			{
				"type": "occ",
				"energy": -0.29729,
				"method": "rhf"
			},
			{
				"type": "occ",
				"energy": -0.26863,
				"method": "rhf"
			},
			{
				"type": "occ",
				"energy": -0.26143,
				"method": "rhf"
			},
			{
				"type": "unocc",
				"energy": -0.07093,
				"method": "rhf"
			},
			{
				"type": "unocc",
				"energy": -0.02705,
				"method": "rhf"
			},
			{
				"type": "unocc",
				"energy": -0.00033,
				"method": "rhf"
			},
			{
				"type": "unocc",
				"energy": 0.07888,
				"method": "rhf"
			},
			{
				"type": "unocc",
				"energy": 0.08394,
				"method": "rhf"
			}
		],
		"cosmo_sigma_profile": { 
			"-0.025": 0.0,
			"-0.024": 0.0,
			"-0.023": 0.0,
			"-0.022": 0.0,
			"-0.021": 0.0,
			"-0.02": 0.0,
			"-0.019": 0.0,
			"-0.018": 0.0,
			"-0.017": 0.0,
			"-0.016": 0.0,
			"-0.015": 0.0,
			"-0.014": 0.0,
			"-0.013": 0.0,
			"-0.012": 0.0,
			"-0.011": 1.24868978217,
			"-0.01": 3.98984539093,
			"-0.009": 3.60146370776,
			"-0.008": 3.85469190736,
			"-0.007": 4.0128104513,
			"-0.006": 6.03350778642,
			"-0.005": 6.32681348098,
			"-0.004": 7.4126635342,
			"-0.003": 8.64483136787,
			"-0.002": 8.94920300682,
			"-0.001": 14.719217134,
			"0.0": 17.6154822912,
			"0.001": 11.2002970513,
			"0.002": 4.26035796851,
			"0.003": 4.17808399063,
			"0.004": 3.55577050285,
			"0.005": 2.59101169063,
			"0.006": 2.64661635021,
			"0.007": 2.20292164338,
			"0.008": 2.7865771355,
			"0.009": 3.3928194647,
			"0.01": 3.57625878552,
			"0.011": 5.79843325547,
			"0.012": 2.76909180276,
			"0.013": 1.276663113,
			"0.014": 0.516117403605,
			"0.015": 0.0,
			"0.016": 0.0,
			"0.017": 0.0,
			"0.018": 0.0,
			"0.019": 0.0,
			"0.02": 0.0,
			"0.021": 0.0,
			"0.022": 0.0,
			"0.023": 0.0,
			"0.024": 0.0,
			"0.025": 0.0
		}
	}
}
