{
	 "smiles": "CC(C)(C)CC(=O)NN", 
	 "Tm": 325.15, 
	 "num_atms": 23, 
	 "gaussian": { 
		 "optdone": 1, 
		 "sigma_profile": "yes", 
		 "theory": "DFT", 
		 "functional": "B3LYP", 
		 "basiset": "6-31G**", 
		 "properties": { 
			 "R2extent": 2099.2287, 
			 "electric_dipole_moment_norm": 2.15491671533, 
			 "electric_quadrupole_moment_norm": 7.44618643535, 
			 "total_energy": -421.802059707, 
			 "HOMO_LUMO_gap": 0.27119, 
			 "cosmo_polarized_energy": -11.17, 
			 "cosmo_cavitation_energy": 24.76, 
			 "cosmo_dispersion_energy": -17.47, 
			 "cosmo_repulsion_energy": 1.44, 
			 "cosmo_total_nonelectrostatic_energy": 8.74, 
			 "SMD_solvation_energy": 5.34 
		},
		"coords": [
			{
				"x": -1.2001967697,
				"y": -2.7505460414,
				"z": 2.4426486812,
				"element": "C" 
			},
			{
				"x": -0.3153080209,
				"y": -1.617391954,
				"z": 1.8877000453,
				"element": "C" 
			},
			{
				"x": 0.6018924768,
				"y": -1.0938692723,
				"z": 3.0094286757,
				"element": "C" 
			},
			{
				"x": -1.2126019367,
				"y": -0.4766950931,
				"z": 1.3704497308,
				"element": "C" 
			},
			{
				"x": 0.5292530527,
				"y": -2.206700065,
				"z": 0.7193107065,
				"element": "C" 
			},
			{
				"x": 1.3307779619,
				"y": -1.1824104244,
				"z": -0.0722735457,
				"element": "C" 
			},
			{
				"x": 2.1976048191,
				"y": -0.460254107,
				"z": 0.412425752,
				"element": "O" 
			},
			{
				"x": 1.0148846235,
				"y": -1.106298755,
				"z": -1.4038269396,
				"element": "N" 
			},
			{
				"x": 1.7546647942,
				"y": -0.3007609364,
				"z": -2.2921772632,
				"element": "N" 
			},
			{
				"x": -0.5935800649,
				"y": -3.5955646032,
				"z": 2.7879192925,
				"element": "H" 
			},
			{
				"x": -1.8979492489,
				"y": -3.1245294043,
				"z": 1.6841225751,
				"element": "H" 
			},
			{
				"x": -1.7915263286,
				"y": -2.3962106248,
				"z": 3.2941431372,
				"element": "H" 
			},
			{
				"x": 0.0024678759,
				"y": -0.6710592161,
				"z": 3.8238204123,
				"element": "H" 
			},
			{
				"x": 1.2077668172,
				"y": -1.9059103376,
				"z": 3.4281567832,
				"element": "H" 
			},
			{
				"x": 1.2843053836,
				"y": -0.3282987424,
				"z": 2.6357511826,
				"element": "H" 
			},
			{
				"x": -0.6160960078,
				"y": 0.3673499044,
				"z": 1.0098616279,
				"element": "H" 
			},
			{
				"x": -1.8567487936,
				"y": -0.8138608917,
				"z": 0.5496602951,
				"element": "H" 
			},
			{
				"x": -1.8618414848,
				"y": -0.106155164,
				"z": 2.171087585,
				"element": "H" 
			},
			{
				"x": -0.1369938463,
				"y": -2.7606201788,
				"z": 0.0455188037,
				"element": "H" 
			},
			{
				"x": 1.2447340942,
				"y": -2.9305241576,
				"z": 1.1282183574,
				"element": "H" 
			},
			{
				"x": 0.4432120389,
				"y": -1.8107459722,
				"z": -1.845110547,
				"element": "H" 
			},
			{
				"x": 2.731067869,
				"y": -0.3620931715,
				"z": -1.999948473,
				"element": "H" 
			},
			{
				"x": 1.4892106953,
				"y": 0.6683492084,
				"z": -2.116586875,
				"element": "H" 
			}
		],
		 "valence_orbital": [ 
			{
				"type": "occ",
				"energy": -0.32089,
				"method": "rhf"
			},
			{
				"type": "occ",
				"energy": -0.31902,
				"method": "rhf"
			},
			{
				"type": "occ",
				"energy": -0.28362,
				"method": "rhf"
			},
			{
				"type": "occ",
				"energy": -0.25487,
				"method": "rhf"
			},
			{
				"type": "occ",
				"energy": -0.24813,
				"method": "rhf"
			},
			{
				"type": "unocc",
				"energy": 0.02306,
				"method": "rhf"
			},
			{
				"type": "unocc",
				"energy": 0.07133,
				"method": "rhf"
			},
			{
				"type": "unocc",
				"energy": 0.08651,
				"method": "rhf"
			},
			{
				"type": "unocc",
				"energy": 0.09975,
				"method": "rhf"
			},
			{
				"type": "unocc",
				"energy": 0.13108,
				"method": "rhf"
			}
		],
		"cosmo_sigma_profile": { 
			"-0.025": 0.0,
			"-0.024": 0.0,
			"-0.023": 0.0,
			"-0.022": 0.0,
			"-0.021": 0.0,
			"-0.02": 0.0,
			"-0.019": 0.0,
			"-0.018": 0.0,
			"-0.017": 0.0,
			"-0.016": 0.0,
			"-0.015": 0.0,
			"-0.014": 0.833506340807,
			"-0.013": 1.11959715604,
			"-0.012": 1.47126013403,
			"-0.011": 2.3309392561,
			"-0.01": 3.2426034967,
			"-0.009": 3.864906508,
			"-0.008": 2.84309383298,
			"-0.007": 3.25235418158,
			"-0.006": 3.50856025102,
			"-0.005": 2.91372989927,
			"-0.004": 6.89945147696,
			"-0.003": 17.1674650885,
			"-0.002": 27.0278546586,
			"-0.001": 19.2080456914,
			"0.0": 19.000676087,
			"0.001": 22.843288204,
			"0.002": 17.678539371,
			"0.003": 5.15024454477,
			"0.004": 2.9718808362,
			"0.005": 2.72325535148,
			"0.006": 2.07976108886,
			"0.007": 2.10701208403,
			"0.008": 1.52938842851,
			"0.009": 2.11117491831,
			"0.01": 2.51825081203,
			"0.011": 1.64220686067,
			"0.012": 3.01914319181,
			"0.013": 2.86487312801,
			"0.014": 4.71653957069,
			"0.015": 0.923874436364,
			"0.016": 0.785123602276,
			"0.017": 0.246630577149,
			"0.018": 0.0,
			"0.019": 0.0,
			"0.02": 0.0,
			"0.021": 0.0,
			"0.022": 0.0,
			"0.023": 0.0,
			"0.024": 0.0,
			"0.025": 0.0
		}
	}
}
