{
	 "smiles": "OC(=O)C1=C2OC(=O)NC2=CC=C1", 
	 "Tm": 603.15, 
	 "num_atms": 18, 
	 "gaussian": { 
		 "optdone": 1, 
		 "sigma_profile": "yes", 
		 "theory": "DFT", 
		 "functional": "B3LYP", 
		 "basiset": "6-31G**", 
		 "properties": { 
			 "R2extent": 2437.1899, 
			 "electric_dipole_moment_norm": 5.65558234048, 
			 "electric_quadrupole_moment_norm": 16.6903916224, 
			 "total_energy": -663.541833998, 
			 "HOMO_LUMO_gap": 0.17628, 
			 "cosmo_polarized_energy": -20.09, 
			 "cosmo_cavitation_energy": 23.67, 
			 "cosmo_dispersion_energy": -17.91, 
			 "cosmo_repulsion_energy": 1.41, 
			 "cosmo_total_nonelectrostatic_energy": 7.18, 
			 "SMD_solvation_energy": 6.58 
		},
		"coords": [
			{
				"x": 1.3797370335,
				"y": 0.7120781574,
				"z": 2.6993535766,
				"element": "O" 
			},
			{
				"x": 1.3517360053,
				"y": 0.1216510946,
				"z": 1.4757366048,
				"element": "C" 
			},
			{
				"x": 2.0063424387,
				"y": -0.8650415006,
				"z": 1.2166429622,
				"element": "O" 
			},
			{
				"x": 0.4438192012,
				"y": 0.8237870944,
				"z": 0.5340802178,
				"element": "C" 
			},
			{
				"x": 0.273086669,
				"y": 0.375866228,
				"z": -0.7744821569,
				"element": "C" 
			},
			{
				"x": 0.8531538573,
				"y": -0.6983329576,
				"z": -1.3936492589,
				"element": "O" 
			},
			{
				"x": 0.383805213,
				"y": -0.7590913498,
				"z": -2.7069069578,
				"element": "C" 
			},
			{
				"x": 0.7115581327,
				"y": -1.5952044374,
				"z": -3.5043935649,
				"element": "O" 
			},
			{
				"x": -0.4900090876,
				"y": 0.3049855462,
				"z": -2.8555340465,
				"element": "N" 
			},
			{
				"x": -0.5818058127,
				"y": 1.0304728436,
				"z": -1.6737341362,
				"element": "C" 
			},
			{
				"x": -1.3005727349,
				"y": 2.1574193183,
				"z": -1.305082249,
				"element": "C" 
			},
			{
				"x": -1.1373724359,
				"y": 2.6183734785,
				"z": 0.0097298276,
				"element": "C" 
			},
			{
				"x": -0.2895595841,
				"y": 1.9710152401,
				"z": 0.9052371475,
				"element": "C" 
			},
			{
				"x": 1.9955422828,
				"y": 0.1805225552,
				"z": 3.22995996,
				"element": "H" 
			},
			{
				"x": -0.9661772164,
				"y": 0.4805151279,
				"z": -3.7255443384,
				"element": "H" 
			},
			{
				"x": -1.9612642043,
				"y": 2.6624071115,
				"z": -2.0020613246,
				"element": "H" 
			},
			{
				"x": -1.6840455243,
				"y": 3.4978748868,
				"z": 0.333805664,
				"element": "H" 
			},
			{
				"x": -0.1790742334,
				"y": 2.3447015629,
				"z": 1.9156420728,
				"element": "H" 
			}
		],
		 "valence_orbital": [ 
			{
				"type": "occ",
				"energy": -0.32235,
				"method": "rhf"
			},
			{
				"type": "occ",
				"energy": -0.2973,
				"method": "rhf"
			},
			{
				"type": "occ",
				"energy": -0.27867,
				"method": "rhf"
			},
			{
				"type": "occ",
				"energy": -0.26925,
				"method": "rhf"
			},
			{
				"type": "occ",
				"energy": -0.23607,
				"method": "rhf"
			},
			{
				"type": "unocc",
				"energy": -0.05979,
				"method": "rhf"
			},
			{
				"type": "unocc",
				"energy": -0.01029,
				"method": "rhf"
			},
			{
				"type": "unocc",
				"energy": 0.03225,
				"method": "rhf"
			},
			{
				"type": "unocc",
				"energy": 0.05699,
				"method": "rhf"
			},
			{
				"type": "unocc",
				"energy": 0.06437,
				"method": "rhf"
			}
		],
		"cosmo_sigma_profile": { 
			"-0.025": 0.0,
			"-0.024": 0.0,
			"-0.023": 0.0,
			"-0.022": 0.0,
			"-0.021": 0.0,
			"-0.02": 0.0,
			"-0.019": 0.08287401615,
			"-0.018": 1.50978298643,
			"-0.017": 2.55681384183,
			"-0.016": 2.17775900498,
			"-0.015": 2.3132203422,
			"-0.014": 1.70049779865,
			"-0.013": 0.835940901782,
			"-0.012": 2.26267375131,
			"-0.011": 2.2204003502,
			"-0.01": 1.62620761895,
			"-0.009": 2.18872452004,
			"-0.008": 3.23623686957,
			"-0.007": 5.69513729652,
			"-0.006": 8.95015025856,
			"-0.005": 8.44388071017,
			"-0.004": 9.35017733004,
			"-0.003": 10.4077569251,
			"-0.002": 12.796267887,
			"-0.001": 11.9378203206,
			"0.0": 12.5235902035,
			"0.001": 13.6492509476,
			"0.002": 11.3956097857,
			"0.003": 9.62220777078,
			"0.004": 4.87870976827,
			"0.005": 4.40820114789,
			"0.006": 5.40834466231,
			"0.007": 4.40486267189,
			"0.008": 4.22185948933,
			"0.009": 4.05254440655,
			"0.01": 4.94510528617,
			"0.011": 10.7226019965,
			"0.012": 8.30238781151,
			"0.013": 1.75576325963,
			"0.014": 0.0723338493298,
			"0.015": 0.0,
			"0.016": 0.0,
			"0.017": 0.0,
			"0.018": 0.0,
			"0.019": 0.0,
			"0.02": 0.0,
			"0.021": 0.0,
			"0.022": 0.0,
			"0.023": 0.0,
			"0.024": 0.0,
			"0.025": 0.0
		}
	}
}
