{
	 "smiles": "CC1=CC=C(NC(=O)NCC#C)C=C1", 
	 "Tm": 448.15, 
	 "num_atms": 26, 
	 "gaussian": { 
		 "optdone": 1, 
		 "sigma_profile": "yes", 
		 "theory": "DFT", 
		 "functional": "B3LYP", 
		 "basiset": "6-31G**", 
		 "properties": { 
			 "R2extent": 4553.7602, 
			 "electric_dipole_moment_norm": 3.19857028999, 
			 "electric_quadrupole_moment_norm": 19.3915332555, 
			 "total_energy": -611.075699488, 
			 "HOMO_LUMO_gap": 0.2063, 
			 "cosmo_polarized_energy": -13.68, 
			 "cosmo_cavitation_energy": 30.98, 
			 "cosmo_dispersion_energy": -21.25, 
			 "cosmo_repulsion_energy": 1.7, 
			 "cosmo_total_nonelectrostatic_energy": 11.43, 
			 "SMD_solvation_energy": 6.96 
		},
		"coords": [
			{
				"x": -2.7383430928,
				"y": -1.7988826472,
				"z": -0.0932932065,
				"element": "C" 
			},
			{
				"x": -1.288275378,
				"y": -1.4354977055,
				"z": -0.3099164149,
				"element": "C" 
			},
			{
				"x": -0.8080048902,
				"y": -1.064632073,
				"z": -1.5706061828,
				"element": "C" 
			},
			{
				"x": 0.5362605583,
				"y": -0.7593568274,
				"z": -1.7880431593,
				"element": "C" 
			},
			{
				"x": 1.4436886239,
				"y": -0.7948019131,
				"z": -0.7205444713,
				"element": "C" 
			},
			{
				"x": 2.8262045352,
				"y": -0.522553008,
				"z": -0.8622220096,
				"element": "N" 
			},
			{
				"x": 3.5360190437,
				"y": 0.0532987593,
				"z": -1.9112672278,
				"element": "C" 
			},
			{
				"x": 4.6744721751,
				"y": -0.3099261509,
				"z": -2.171814017,
				"element": "O" 
			},
			{
				"x": 2.8971261447,
				"y": 1.0533767699,
				"z": -2.6448177119,
				"element": "N" 
			},
			{
				"x": 2.1225125578,
				"y": 2.127164567,
				"z": -2.0027134674,
				"element": "C" 
			},
			{
				"x": 2.9399834695,
				"y": 3.0961349343,
				"z": -1.2614505722,
				"element": "C" 
			},
			{
				"x": 3.6258224596,
				"y": 3.8925904088,
				"z": -0.6668958884,
				"element": "C" 
			},
			{
				"x": 0.9735924007,
				"y": -1.1577819655,
				"z": 0.5513993387,
				"element": "C" 
			},
			{
				"x": -0.3659477698,
				"y": -1.4787478806,
				"z": 0.7454796678,
				"element": "C" 
			},
			{
				"x": -3.3670765844,
				"y": -1.4381700864,
				"z": -0.9123889025,
				"element": "H" 
			},
			{
				"x": -3.1240710313,
				"y": -1.3731593298,
				"z": 0.839058395,
				"element": "H" 
			},
			{
				"x": -2.8736203717,
				"y": -2.8859857851,
				"z": -0.0308826247,
				"element": "H" 
			},
			{
				"x": -1.4951182014,
				"y": -1.0259775476,
				"z": -2.412447248,
				"element": "H" 
			},
			{
				"x": 0.882746709,
				"y": -0.4958222184,
				"z": -2.7808349822,
				"element": "H" 
			},
			{
				"x": 3.4396089028,
				"y": -1.1183261822,
				"z": -0.3217671057,
				"element": "H" 
			},
			{
				"x": 3.5588666154,
				"y": 1.4022781165,
				"z": -3.3295305215,
				"element": "H" 
			},
			{
				"x": 1.5633691163,
				"y": 2.6450266293,
				"z": -2.7905600418,
				"element": "H" 
			},
			{
				"x": 1.3749622324,
				"y": 1.6822571457,
				"z": -1.3421549454,
				"element": "H" 
			},
			{
				"x": 4.2341547313,
				"y": 4.5883693276,
				"z": -0.136669632,
				"element": "H" 
			},
			{
				"x": 1.666110508,
				"y": -1.1787917909,
				"z": 1.3888568464,
				"element": "H" 
			},
			{
				"x": -0.7030434639,
				"y": -1.7578835469,
				"z": 1.7409260849,
				"element": "H" 
			}
		],
		 "valence_orbital": [ 
			{
				"type": "occ",
				"energy": -0.27259,
				"method": "rhf"
			},
			{
				"type": "occ",
				"energy": -0.26638,
				"method": "rhf"
			},
			{
				"type": "occ",
				"energy": -0.25548,
				"method": "rhf"
			},
			{
				"type": "occ",
				"energy": -0.25046,
				"method": "rhf"
			},
			{
				"type": "occ",
				"energy": -0.21592,
				"method": "rhf"
			},
			{
				"type": "unocc",
				"energy": -0.00962,
				"method": "rhf"
			},
			{
				"type": "unocc",
				"energy": -0.00732,
				"method": "rhf"
			},
			{
				"type": "unocc",
				"energy": 0.03178,
				"method": "rhf"
			},
			{
				"type": "unocc",
				"energy": 0.04741,
				"method": "rhf"
			},
			{
				"type": "unocc",
				"energy": 0.05993,
				"method": "rhf"
			}
		],
		"cosmo_sigma_profile": { 
			"-0.025": 0.0,
			"-0.024": 0.0,
			"-0.023": 0.0,
			"-0.022": 0.0,
			"-0.021": 0.0,
			"-0.02": 0.0,
			"-0.019": 0.0,
			"-0.018": 0.0,
			"-0.017": 0.0,
			"-0.016": 0.0,
			"-0.015": 0.0,
			"-0.014": 0.596421884348,
			"-0.013": 2.03850841707,
			"-0.012": 2.51063368556,
			"-0.011": 3.54791357746,
			"-0.01": 3.6118852055,
			"-0.009": 2.10241202805,
			"-0.008": 4.32837254185,
			"-0.007": 6.70608836257,
			"-0.006": 7.9928621748,
			"-0.005": 12.0565649213,
			"-0.004": 19.2643903519,
			"-0.003": 18.6045736619,
			"-0.002": 16.8344211726,
			"-0.001": 18.3387909226,
			"0.0": 19.5641777075,
			"0.001": 16.1692556856,
			"0.002": 14.8422933257,
			"0.003": 14.6321515143,
			"0.004": 13.8094351195,
			"0.005": 15.8024744534,
			"0.006": 13.3314946669,
			"0.007": 3.94686335174,
			"0.008": 1.61213481579,
			"0.009": 0.804141482728,
			"0.01": 0.982559339076,
			"0.011": 1.23777493407,
			"0.012": 2.6981303069,
			"0.013": 5.41828318798,
			"0.014": 3.62639696549,
			"0.015": 0.0987908757825,
			"0.016": 0.0,
			"0.017": 0.0,
			"0.018": 0.0,
			"0.019": 0.0,
			"0.02": 0.0,
			"0.021": 0.0,
			"0.022": 0.0,
			"0.023": 0.0,
			"0.024": 0.0,
			"0.025": 0.0
		}
	}
}
