{
	 "smiles": "CS(=O)(=O)C1=CC(N)=CC=C1", 
	 "Tm": 323.15, 
	 "num_atms": 20, 
	 "gaussian": { 
		 "optdone": 1, 
		 "sigma_profile": "yes", 
		 "theory": "DFT", 
		 "functional": "B3LYP", 
		 "basiset": "6-31G**", 
		 "properties": { 
			 "R2extent": 2433.6599, 
			 "electric_dipole_moment_norm": 6.52183245032, 
			 "electric_quadrupole_moment_norm": 12.7193350687, 
			 "total_energy": -875.495193779, 
			 "HOMO_LUMO_gap": 0.18761, 
			 "cosmo_polarized_energy": -18.97, 
			 "cosmo_cavitation_energy": 25.2, 
			 "cosmo_dispersion_energy": -18.93, 
			 "cosmo_repulsion_energy": 1.48, 
			 "cosmo_total_nonelectrostatic_energy": 7.76, 
			 "SMD_solvation_energy": 4.08 
		},
		"coords": [
			{
				"x": 0.0408245878,
				"y": -2.6648900557,
				"z": 1.5738927589,
				"element": "C" 
			},
			{
				"x": -0.418555203,
				"y": -0.9274880555,
				"z": 1.7910236924,
				"element": "S" 
			},
			{
				"x": -1.7131738848,
				"y": -0.900942435,
				"z": 2.491603058,
				"element": "O" 
			},
			{
				"x": 0.7555419191,
				"y": -0.2297931409,
				"z": 2.3379427198,
				"element": "O" 
			},
			{
				"x": -0.6813804862,
				"y": -0.3522384632,
				"z": 0.1042286735,
				"element": "C" 
			},
			{
				"x": -1.9769527277,
				"y": -0.3691331796,
				"z": -0.4043584625,
				"element": "C" 
			},
			{
				"x": -2.2069325937,
				"y": 0.0567409342,
				"z": -1.7244991818,
				"element": "C" 
			},
			{
				"x": -3.4973312643,
				"y": 0.111878951,
				"z": -2.2359711958,
				"element": "N" 
			},
			{
				"x": -1.1064853415,
				"y": 0.4816824636,
				"z": -2.4933408227,
				"element": "C" 
			},
			{
				"x": 0.1783810723,
				"y": 0.4959323183,
				"z": -1.9567425127,
				"element": "C" 
			},
			{
				"x": 0.4137376558,
				"y": 0.0807957764,
				"z": -0.6446532923,
				"element": "C" 
			},
			{
				"x": 0.2144200687,
				"y": -3.0624944182,
				"z": 2.5759689546,
				"element": "H" 
			},
			{
				"x": -0.7808259628,
				"y": -3.1951766886,
				"z": 1.090684248,
				"element": "H" 
			},
			{
				"x": 0.9523333295,
				"y": -2.7233526964,
				"z": 0.9777662417,
				"element": "H" 
			},
			{
				"x": -2.7984607729,
				"y": -0.6830943826,
				"z": 0.2322462937,
				"element": "H" 
			},
			{
				"x": -4.1860589191,
				"y": -0.4655794409,
				"z": -1.7760580115,
				"element": "H" 
			},
			{
				"x": -3.5812603575,
				"y": 0.1016022627,
				"z": -3.2420151454,
				"element": "H" 
			},
			{
				"x": -1.269978086,
				"y": 0.816492249,
				"z": -3.5146294151,
				"element": "H" 
			},
			{
				"x": 1.0059185369,
				"y": 0.8419160906,
				"z": -2.5692071567,
				"element": "H" 
			},
			{
				"x": 1.403538429,
				"y": 0.113641911,
				"z": -0.2043814443,
				"element": "H" 
			}
		],
		 "valence_orbital": [ 
			{
				"type": "occ",
				"energy": -0.30456,
				"method": "rhf"
			},
			{
				"type": "occ",
				"energy": -0.28876,
				"method": "rhf"
			},
			{
				"type": "occ",
				"energy": -0.28171,
				"method": "rhf"
			},
			{
				"type": "occ",
				"energy": -0.26851,
				"method": "rhf"
			},
			{
				"type": "occ",
				"energy": -0.21994,
				"method": "rhf"
			},
			{
				"type": "unocc",
				"energy": -0.03233,
				"method": "rhf"
			},
			{
				"type": "unocc",
				"energy": -0.00394,
				"method": "rhf"
			},
			{
				"type": "unocc",
				"energy": 0.06606,
				"method": "rhf"
			},
			{
				"type": "unocc",
				"energy": 0.07311,
				"method": "rhf"
			},
			{
				"type": "unocc",
				"energy": 0.08782,
				"method": "rhf"
			}
		],
		"cosmo_sigma_profile": { 
			"-0.025": 0.0,
			"-0.024": 0.0,
			"-0.023": 0.0,
			"-0.022": 0.0,
			"-0.021": 0.0,
			"-0.02": 0.0,
			"-0.019": 0.0,
			"-0.018": 0.0,
			"-0.017": 0.0,
			"-0.016": 0.0,
			"-0.015": 0.0,
			"-0.014": 0.021708487334,
			"-0.013": 1.98044916034,
			"-0.012": 3.15397976202,
			"-0.011": 2.71342018369,
			"-0.01": 3.40842172329,
			"-0.009": 4.47407336066,
			"-0.008": 7.75452383537,
			"-0.007": 10.1312280238,
			"-0.006": 13.921604171,
			"-0.005": 13.0014073356,
			"-0.004": 14.9060848963,
			"-0.003": 10.9215628319,
			"-0.002": 9.65828392137,
			"-0.001": 6.07980509694,
			"0.0": 7.80009285357,
			"0.001": 7.17970900113,
			"0.002": 9.6774313005,
			"0.003": 11.136858925,
			"0.004": 14.2335452729,
			"0.005": 7.09783384794,
			"0.006": 3.384105924,
			"0.007": 3.41107715206,
			"0.008": 3.49477528014,
			"0.009": 4.28046543252,
			"0.01": 4.09065185022,
			"0.011": 9.05685871166,
			"0.012": 10.5755807072,
			"0.013": 2.63233678591,
			"0.014": 0.0153383867186,
			"0.015": 0.0,
			"0.016": 0.0,
			"0.017": 0.0,
			"0.018": 0.0,
			"0.019": 0.0,
			"0.02": 0.0,
			"0.021": 0.0,
			"0.022": 0.0,
			"0.023": 0.0,
			"0.024": 0.0,
			"0.025": 0.0
		}
	}
}
