{
	 "smiles": "NC(=O)C1=CC=C(OCCCl)C=C1", 
	 "Tm": 456.15, 
	 "num_atms": 23, 
	 "gaussian": { 
		 "optdone": 1, 
		 "sigma_profile": "yes", 
		 "theory": "DFT", 
		 "functional": "B3LYP", 
		 "basiset": "6-31G**", 
		 "properties": { 
			 "R2extent": 4136.3764, 
			 "electric_dipole_moment_norm": 5.00308388097, 
			 "electric_quadrupole_moment_norm": 17.9817075774, 
			 "total_energy": -1014.38747995, 
			 "HOMO_LUMO_gap": 0.20098, 
			 "cosmo_polarized_energy": -19.1, 
			 "cosmo_cavitation_energy": 28.98, 
			 "cosmo_dispersion_energy": -21.26, 
			 "cosmo_repulsion_energy": 1.71, 
			 "cosmo_total_nonelectrostatic_energy": 9.43, 
			 "SMD_solvation_energy": 5.6 
		},
		"coords": [
			{
				"x": 4.6384642028,
				"y": -0.3185466352,
				"z": 0.1635413847,
				"element": "N" 
			},
			{
				"x": 3.7844053277,
				"y": -1.0083728506,
				"z": 0.9979321873,
				"element": "C" 
			},
			{
				"x": 4.2044806102,
				"y": -1.6622683993,
				"z": 1.945290168,
				"element": "O" 
			},
			{
				"x": 2.3260828942,
				"y": -0.9383981591,
				"z": 0.6644443716,
				"element": "C" 
			},
			{
				"x": 1.830255679,
				"y": -0.5282601273,
				"z": -0.5770519248,
				"element": "C" 
			},
			{
				"x": 0.4578419897,
				"y": -0.4891651174,
				"z": -0.8323355611,
				"element": "C" 
			},
			{
				"x": -0.442324038,
				"y": -0.8701430184,
				"z": 0.171499697,
				"element": "C" 
			},
			{
				"x": -1.8020091418,
				"y": -0.8951025206,
				"z": 0.0441494507,
				"element": "O" 
			},
			{
				"x": -2.4198699277,
				"y": -0.4219542013,
				"z": -1.1423251841,
				"element": "C" 
			},
			{
				"x": -2.491172149,
				"y": 1.097026683,
				"z": -1.2321786318,
				"element": "C" 
			},
			{
				"x": -3.5333344842,
				"y": 1.8089640005,
				"z": 0.0648658289,
				"element": "Cl" 
			},
			{
				"x": 0.0462994711,
				"y": -1.29371074,
				"z": 1.418476038,
				"element": "C" 
			},
			{
				"x": 1.4105079244,
				"y": -1.3338135791,
				"z": 1.6539731414,
				"element": "C" 
			},
			{
				"x": 5.5955723983,
				"y": -0.2754369147,
				"z": 0.4840827406,
				"element": "H" 
			},
			{
				"x": 4.3018468944,
				"y": 0.4830102357,
				"z": -0.3473017528,
				"element": "H" 
			},
			{
				"x": 2.51230557,
				"y": -0.2640915108,
				"z": -1.3800535009,
				"element": "H" 
			},
			{
				"x": 0.1144621307,
				"y": -0.1769427051,
				"z": -1.8114534916,
				"element": "H" 
			},
			{
				"x": -1.9086665183,
				"y": -0.8060924011,
				"z": -2.036211675,
				"element": "H" 
			},
			{
				"x": -3.4284147362,
				"y": -0.8413785392,
				"z": -1.1263818923,
				"element": "H" 
			},
			{
				"x": -2.9277943842,
				"y": 1.3912531368,
				"z": -2.1889951728,
				"element": "H" 
			},
			{
				"x": -1.507499555,
				"y": 1.555868638,
				"z": -1.1288797287,
				"element": "H" 
			},
			{
				"x": -0.6694463117,
				"y": -1.5890116252,
				"z": 2.1783222054,
				"element": "H" 
			},
			{
				"x": 1.8017061536,
				"y": -1.6716336497,
				"z": 2.6075913022,
				"element": "H" 
			}
		],
		 "valence_orbital": [ 
			{
				"type": "occ",
				"energy": -0.302,
				"method": "rhf"
			},
			{
				"type": "occ",
				"energy": -0.27201,
				"method": "rhf"
			},
			{
				"type": "occ",
				"energy": -0.26338,
				"method": "rhf"
			},
			{
				"type": "occ",
				"energy": -0.2484,
				"method": "rhf"
			},
			{
				"type": "occ",
				"energy": -0.23256,
				"method": "rhf"
			},
			{
				"type": "unocc",
				"energy": -0.03158,
				"method": "rhf"
			},
			{
				"type": "unocc",
				"energy": -0.01467,
				"method": "rhf"
			},
			{
				"type": "unocc",
				"energy": 0.01701,
				"method": "rhf"
			},
			{
				"type": "unocc",
				"energy": 0.06106,
				"method": "rhf"
			},
			{
				"type": "unocc",
				"energy": 0.07183,
				"method": "rhf"
			}
		],
		"cosmo_sigma_profile": { 
			"-0.025": 0.0,
			"-0.024": 0.0,
			"-0.023": 0.0,
			"-0.022": 0.0,
			"-0.021": 0.0,
			"-0.02": 0.0,
			"-0.019": 0.0,
			"-0.018": 0.0,
			"-0.017": 0.0,
			"-0.016": 0.0,
			"-0.015": 0.0281043646893,
			"-0.014": 0.955556309803,
			"-0.013": 2.12066016429,
			"-0.012": 2.80879248301,
			"-0.011": 2.14015947239,
			"-0.01": 2.72198878191,
			"-0.009": 4.84660173038,
			"-0.008": 10.2893918332,
			"-0.007": 13.0886517192,
			"-0.006": 15.5272809389,
			"-0.005": 12.6330790119,
			"-0.004": 12.3438792681,
			"-0.003": 8.33898330018,
			"-0.002": 8.31275236987,
			"-0.001": 9.09634438792,
			"0.0": 11.2696648325,
			"0.001": 13.3469938254,
			"0.002": 14.9387499488,
			"0.003": 15.6772970573,
			"0.004": 19.4068696628,
			"0.005": 10.2067019408,
			"0.006": 12.7809331615,
			"0.007": 7.09372354439,
			"0.008": 4.7007207947,
			"0.009": 3.12452676284,
			"0.01": 1.53177145469,
			"0.011": 2.28960405158,
			"0.012": 1.77160324536,
			"0.013": 3.81779237378,
			"0.014": 4.79017495125,
			"0.015": 0.479650066428,
			"0.016": 0.0,
			"0.017": 0.0,
			"0.018": 0.0,
			"0.019": 0.0,
			"0.02": 0.0,
			"0.021": 0.0,
			"0.022": 0.0,
			"0.023": 0.0,
			"0.024": 0.0,
			"0.025": 0.0
		}
	}
}
