{
	 "smiles": "N1C=CC=C1", 
	 "Tm": 249.75, 
	 "num_atms": 10, 
	 "gaussian": { 
		 "optdone": 1, 
		 "sigma_profile": "yes", 
		 "theory": "DFT", 
		 "functional": "B3LYP", 
		 "basiset": "6-31G**", 
		 "properties": { 
			 "R2extent": 396.8783, 
			 "electric_dipole_moment_norm": 1.9038761777, 
			 "electric_quadrupole_moment_norm": 7.12815625881, 
			 "total_energy": -210.171920008, 
			 "HOMO_LUMO_gap": 0.25155, 
			 "cosmo_polarized_energy": -6.76, 
			 "cosmo_cavitation_energy": 13.33, 
			 "cosmo_dispersion_energy": -10.32, 
			 "cosmo_repulsion_energy": 0.91, 
			 "cosmo_total_nonelectrostatic_energy": 3.93, 
			 "SMD_solvation_energy": 3.08 
		},
		"coords": [
			{
				"x": -1.1213701877,
				"y": 1.3859599509,
				"z": 0.5798315046,
				"element": "N" 
			},
			{
				"x": -1.7560685806,
				"y": 0.3933580602,
				"z": -0.1300135698,
				"element": "C" 
			},
			{
				"x": -0.8970081931,
				"y": -0.6819283428,
				"z": -0.2055972473,
				"element": "C" 
			},
			{
				"x": 0.2977200581,
				"y": -0.3229461345,
				"z": 0.4836789772,
				"element": "C" 
			},
			{
				"x": 0.1305595333,
				"y": 0.9602251993,
				"z": 0.9585154591,
				"element": "C" 
			},
			{
				"x": -1.5142048615,
				"y": 2.2886935888,
				"z": 0.7905890009,
				"element": "H" 
			},
			{
				"x": -2.7542961359,
				"y": 0.5343349505,
				"z": -0.5170650645,
				"element": "H" 
			},
			{
				"x": -1.1029968375,
				"y": -1.6208527841,
				"z": -0.7001894282,
				"element": "H" 
			},
			{
				"x": 1.1787056094,
				"y": -0.9352651476,
				"z": 0.6161953759,
				"element": "H" 
			},
			{
				"x": 0.7894595954,
				"y": 1.5991206594,
				"z": 1.5275549921,
				"element": "H" 
			}
		],
		 "valence_orbital": [ 
			{
				"type": "occ",
				"energy": -0.39404,
				"method": "rhf"
			},
			{
				"type": "occ",
				"energy": -0.37909,
				"method": "rhf"
			},
			{
				"type": "occ",
				"energy": -0.36422,
				"method": "rhf"
			},
			{
				"type": "occ",
				"energy": -0.23289,
				"method": "rhf"
			},
			{
				"type": "occ",
				"energy": -0.20216,
				"method": "rhf"
			},
			{
				"type": "unocc",
				"energy": 0.04939,
				"method": "rhf"
			},
			{
				"type": "unocc",
				"energy": 0.08082,
				"method": "rhf"
			},
			{
				"type": "unocc",
				"energy": 0.0952,
				"method": "rhf"
			},
			{
				"type": "unocc",
				"energy": 0.14215,
				"method": "rhf"
			},
			{
				"type": "unocc",
				"energy": 0.16532,
				"method": "rhf"
			}
		],
		"cosmo_sigma_profile": { 
			"-0.025": 0.0,
			"-0.024": 0.0,
			"-0.023": 0.0,
			"-0.022": 0.0,
			"-0.021": 0.0,
			"-0.02": 0.0,
			"-0.019": 0.0,
			"-0.018": 0.0,
			"-0.017": 0.0,
			"-0.016": 0.0471691021411,
			"-0.015": 1.46404840924,
			"-0.014": 1.40606092634,
			"-0.013": 1.06203087529,
			"-0.012": 2.01270076648,
			"-0.011": 0.675744480191,
			"-0.01": 0.82060306785,
			"-0.009": 1.11950447518,
			"-0.008": 1.15820717115,
			"-0.007": 3.73082820222,
			"-0.006": 5.37174583802,
			"-0.005": 6.03073812021,
			"-0.004": 6.3200817941,
			"-0.003": 5.15890495005,
			"-0.002": 6.23487982843,
			"-0.001": 7.44201950749,
			"0.0": 5.83142282353,
			"0.001": 6.48350836408,
			"0.002": 4.94825052653,
			"0.003": 4.52085149497,
			"0.004": 4.61000536631,
			"0.005": 6.32829014743,
			"0.006": 5.08869459678,
			"0.007": 5.25455463278,
			"0.008": 6.09642051295,
			"0.009": 5.01491174191,
			"0.01": 2.29912316535,
			"0.011": 0.0,
			"0.012": 0.0,
			"0.013": 0.0,
			"0.014": 0.0,
			"0.015": 0.0,
			"0.016": 0.0,
			"0.017": 0.0,
			"0.018": 0.0,
			"0.019": 0.0,
			"0.02": 0.0,
			"0.021": 0.0,
			"0.022": 0.0,
			"0.023": 0.0,
			"0.024": 0.0,
			"0.025": 0.0
		}
	}
}
