{
	 "smiles": "CC1=C(C=C(C(O)=C1N(=O)=O)N(=O)=O)N(=O)=O", 
	 "Tm": 383.15, 
	 "num_atms": 22, 
	 "gaussian": { 
		 "optdone": 1, 
		 "sigma_profile": "yes", 
		 "theory": "DFT", 
		 "functional": "B3LYP", 
		 "basiset": "6-31G**", 
		 "properties": { 
			 "R2extent": 4533.0412, 
			 "electric_dipole_moment_norm": 0.0678233735522, 
			 "electric_quadrupole_moment_norm": 14.053348776, 
			 "total_energy": -960.26140235, 
			 "HOMO_LUMO_gap": 0.15533, 
			 "cosmo_polarized_energy": -14.8, 
			 "cosmo_cavitation_energy": 28.74, 
			 "cosmo_dispersion_energy": -20.81, 
			 "cosmo_repulsion_energy": 1.58, 
			 "cosmo_total_nonelectrostatic_energy": 9.52, 
			 "SMD_solvation_energy": 12.08 
		},
		"coords": [
			{
				"x": 0.0967942621,
				"y": 2.2240219188,
				"z": -0.3696373807,
				"element": "C" 
			},
			{
				"x": -0.0400769168,
				"y": 0.7903967784,
				"z": -0.8163314804,
				"element": "C" 
			},
			{
				"x": -0.6225720205,
				"y": 0.3923337455,
				"z": -2.049095585,
				"element": "C" 
			},
			{
				"x": -0.6895256769,
				"y": -0.9329770878,
				"z": -2.4440460592,
				"element": "C" 
			},
			{
				"x": -0.1960087226,
				"y": -1.9312058385,
				"z": -1.6125118061,
				"element": "C" 
			},
			{
				"x": 0.3989548276,
				"y": -1.6147650859,
				"z": -0.3679261255,
				"element": "C" 
			},
			{
				"x": 0.8794511809,
				"y": -2.5074137429,
				"z": 0.4815075457,
				"element": "O" 
			},
			{
				"x": 0.453061963,
				"y": -0.2476886153,
				"z": -0.0271101215,
				"element": "C" 
			},
			{
				"x": 1.0927006006,
				"y": 0.0632153051,
				"z": 1.2698576707,
				"element": "N" 
			},
			{
				"x": 2.2957278615,
				"y": -0.1463114002,
				"z": 1.3545276781,
				"element": "O" 
			},
			{
				"x": 0.3671461882,
				"y": 0.5153497442,
				"z": 2.1497698882,
				"element": "O" 
			},
			{
				"x": -0.3042627392,
				"y": -3.3117394491,
				"z": -2.0488134876,
				"element": "N" 
			},
			{
				"x": -0.8185027696,
				"y": -3.5528620861,
				"z": -3.1291048725,
				"element": "O" 
			},
			{
				"x": 0.1409971702,
				"y": -4.1973740841,
				"z": -1.2847884236,
				"element": "O" 
			},
			{
				"x": -1.211313022,
				"y": 1.3648535041,
				"z": -2.9872306622,
				"element": "N" 
			},
			{
				"x": -1.5174885962,
				"y": 2.4742817207,
				"z": -2.5537044318,
				"element": "O" 
			},
			{
				"x": -1.3797298937,
				"y": 0.9948960832,
				"z": -4.1472736742,
				"element": "O" 
			},
			{
				"x": 0.4060626591,
				"y": 2.8592737967,
				"z": -1.1997648239,
				"element": "H" 
			},
			{
				"x": -0.8688625282,
				"y": 2.605834288,
				"z": -0.0277533592,
				"element": "H" 
			},
			{
				"x": 0.8133990532,
				"y": 2.320625638,
				"z": 0.4445345235,
				"element": "H" 
			},
			{
				"x": -1.1294132768,
				"y": -1.1931891362,
				"z": -3.3975511676,
				"element": "H" 
			},
			{
				"x": 0.7405603961,
				"y": -3.3951559963,
				"z": 0.0620461549,
				"element": "H" 
			}
		],
		 "valence_orbital": [ 
			{
				"type": "occ",
				"energy": -0.33426,
				"method": "rhf"
			},
			{
				"type": "occ",
				"energy": -0.32734,
				"method": "rhf"
			},
			{
				"type": "occ",
				"energy": -0.31848,
				"method": "rhf"
			},
			{
				"type": "occ",
				"energy": -0.30967,
				"method": "rhf"
			},
			{
				"type": "occ",
				"energy": -0.29,
				"method": "rhf"
			},
			{
				"type": "unocc",
				"energy": -0.13467,
				"method": "rhf"
			},
			{
				"type": "unocc",
				"energy": -0.11367,
				"method": "rhf"
			},
			{
				"type": "unocc",
				"energy": -0.10013,
				"method": "rhf"
			},
			{
				"type": "unocc",
				"energy": -0.04928,
				"method": "rhf"
			},
			{
				"type": "unocc",
				"energy": -0.02861,
				"method": "rhf"
			}
		],
		"cosmo_sigma_profile": { 
			"-0.025": 0.0,
			"-0.024": 0.0,
			"-0.023": 0.0,
			"-0.022": 0.0,
			"-0.021": 0.0,
			"-0.02": 0.0,
			"-0.019": 0.0,
			"-0.018": 0.0,
			"-0.017": 0.0,
			"-0.016": 0.0,
			"-0.015": 0.0,
			"-0.014": 0.0,
			"-0.013": 0.0831877191312,
			"-0.012": 0.743369846743,
			"-0.011": 1.95218628343,
			"-0.01": 3.3734677511,
			"-0.009": 5.22089983974,
			"-0.008": 7.03909502437,
			"-0.007": 11.1636697019,
			"-0.006": 16.1184455285,
			"-0.005": 19.8147171899,
			"-0.004": 17.7282628209,
			"-0.003": 13.0647674764,
			"-0.002": 11.0001355673,
			"-0.001": 8.20353878591,
			"0.0": 7.89691736989,
			"0.001": 6.78073767519,
			"0.002": 8.46057018557,
			"0.003": 8.04207225388,
			"0.004": 11.4612170162,
			"0.005": 12.9803044102,
			"0.006": 23.2553226893,
			"0.007": 20.8797022659,
			"0.008": 11.3965626384,
			"0.009": 4.27377747266,
			"0.01": 0.445407074599,
			"0.011": 0.0,
			"0.012": 0.0,
			"0.013": 0.0,
			"0.014": 0.0,
			"0.015": 0.0,
			"0.016": 0.0,
			"0.017": 0.0,
			"0.018": 0.0,
			"0.019": 0.0,
			"0.02": 0.0,
			"0.021": 0.0,
			"0.022": 0.0,
			"0.023": 0.0,
			"0.024": 0.0,
			"0.025": 0.0
		}
	}
}
