{
	 "smiles": "CCC1(C(C)C)C(=O)NC(=O)NC1=O", 
	 "Tm": 473.15, 
	 "num_atms": 28, 
	 "gaussian": { 
		 "optdone": 1, 
		 "sigma_profile": "yes", 
		 "theory": "DFT", 
		 "functional": "B3LYP", 
		 "basiset": "6-31G**", 
		 "properties": { 
			 "R2extent": 2841.9454, 
			 "electric_dipole_moment_norm": 1.45591666657, 
			 "electric_quadrupole_moment_norm": 7.07986365617, 
			 "total_energy": -686.636298152, 
			 "HOMO_LUMO_gap": 0.21636, 
			 "cosmo_polarized_energy": -14.71, 
			 "cosmo_cavitation_energy": 29.33, 
			 "cosmo_dispersion_energy": -20.89, 
			 "cosmo_repulsion_energy": 1.64, 
			 "cosmo_total_nonelectrostatic_energy": 10.08, 
			 "SMD_solvation_energy": 7.0 
		},
		"coords": [
			{
				"x": 2.0073098954,
				"y": -0.1970193348,
				"z": 0.2751970714,
				"element": "C" 
			},
			{
				"x": 0.8774360789,
				"y": 0.5217340197,
				"z": -0.472864696,
				"element": "C" 
			},
			{
				"x": -0.5430728456,
				"y": 0.0311831693,
				"z": -0.1165058884,
				"element": "C" 
			},
			{
				"x": -1.6860924057,
				"y": 0.8137478958,
				"z": -0.9236284586,
				"element": "C" 
			},
			{
				"x": -1.7241441026,
				"y": 2.3183103048,
				"z": -0.6069634403,
				"element": "C" 
			},
			{
				"x": -1.5982163438,
				"y": 0.6072556718,
				"z": -2.4451924192,
				"element": "C" 
			},
			{
				"x": -0.8261107078,
				"y": 0.2788255467,
				"z": 1.3692721796,
				"element": "C" 
			},
			{
				"x": -0.3766258822,
				"y": 1.2201134942,
				"z": 1.9952598586,
				"element": "O" 
			},
			{
				"x": -1.722810064,
				"y": -0.5976060987,
				"z": 1.977912866,
				"element": "N" 
			},
			{
				"x": -2.125794833,
				"y": -1.8458082945,
				"z": 1.5170573422,
				"element": "C" 
			},
			{
				"x": -2.8495772182,
				"y": -2.5843670204,
				"z": 2.1527420448,
				"element": "O" 
			},
			{
				"x": -1.6032339004,
				"y": -2.1819446185,
				"z": 0.2733701229,
				"element": "N" 
			},
			{
				"x": -0.695695445,
				"y": -1.4478212693,
				"z": -0.488269384,
				"element": "C" 
			},
			{
				"x": -0.1351012724,
				"y": -1.9683257596,
				"z": -1.4341626971,
				"element": "O" 
			},
			{
				"x": 1.9243234786,
				"y": -0.0571677604,
				"z": 1.3569211593,
				"element": "H" 
			},
			{
				"x": 2.9756429142,
				"y": 0.208195612,
				"z": -0.0339560238,
				"element": "H" 
			},
			{
				"x": 2.0156162777,
				"y": -1.268512981,
				"z": 0.0552375262,
				"element": "H" 
			},
			{
				"x": 1.017011987,
				"y": 0.3887742555,
				"z": -1.5478419013,
				"element": "H" 
			},
			{
				"x": 0.9261924104,
				"y": 1.5908504631,
				"z": -0.255374105,
				"element": "H" 
			},
			{
				"x": -2.6354444833,
				"y": 0.3783757998,
				"z": -0.5834711659,
				"element": "H" 
			},
			{
				"x": -2.5937705005,
				"y": 2.761956512,
				"z": -1.1023252479,
				"element": "H" 
			},
			{
				"x": -0.8351644783,
				"y": 2.8288662214,
				"z": -0.9894732167,
				"element": "H" 
			},
			{
				"x": -1.7973140916,
				"y": 2.5291757125,
				"z": 0.4611990135,
				"element": "H" 
			},
			{
				"x": -1.5811375731,
				"y": -0.4448707307,
				"z": -2.7342193541,
				"element": "H" 
			},
			{
				"x": -0.7055282554,
				"y": 1.0838222008,
				"z": -2.8614548484,
				"element": "H" 
			},
			{
				"x": -2.4681699845,
				"y": 1.0759319999,
				"z": -2.9163548126,
				"element": "H" 
			},
			{
				"x": -1.9851578642,
				"y": -0.3842721209,
				"z": 2.9333115398,
				"element": "H" 
			},
			{
				"x": -1.7772707907,
				"y": -3.1346028904,
				"z": -0.0254230652,
				"element": "H" 
			}
		],
		 "valence_orbital": [ 
			{
				"type": "occ",
				"energy": -0.31408,
				"method": "rhf"
			},
			{
				"type": "occ",
				"energy": -0.3023,
				"method": "rhf"
			},
			{
				"type": "occ",
				"energy": -0.30196,
				"method": "rhf"
			},
			{
				"type": "occ",
				"energy": -0.29163,
				"method": "rhf"
			},
			{
				"type": "occ",
				"energy": -0.26639,
				"method": "rhf"
			},
			{
				"type": "unocc",
				"energy": -0.05003,
				"method": "rhf"
			},
			{
				"type": "unocc",
				"energy": -0.00553,
				"method": "rhf"
			},
			{
				"type": "unocc",
				"energy": 0.04799,
				"method": "rhf"
			},
			{
				"type": "unocc",
				"energy": 0.07147,
				"method": "rhf"
			},
			{
				"type": "unocc",
				"energy": 0.08475,
				"method": "rhf"
			}
		],
		"cosmo_sigma_profile": { 
			"-0.025": 0.0,
			"-0.024": 0.0,
			"-0.023": 0.0,
			"-0.022": 0.0,
			"-0.021": 0.0,
			"-0.02": 0.0,
			"-0.019": 0.0,
			"-0.018": 0.0,
			"-0.017": 0.190411808016,
			"-0.016": 1.92795823672,
			"-0.015": 2.13324901859,
			"-0.014": 1.3700038492,
			"-0.013": 1.41184109821,
			"-0.012": 1.29998519811,
			"-0.011": 1.98901443571,
			"-0.01": 1.43706990495,
			"-0.009": 1.94850974571,
			"-0.008": 2.50909214129,
			"-0.007": 2.92054353197,
			"-0.006": 4.78242204121,
			"-0.005": 6.84139243029,
			"-0.004": 18.3071121402,
			"-0.003": 27.6088609244,
			"-0.002": 24.7674953988,
			"-0.001": 24.0997914443,
			"0.0": 22.8657603742,
			"0.001": 17.467411532,
			"0.002": 5.99472804051,
			"0.003": 4.04683669839,
			"0.004": 6.20495103241,
			"0.005": 4.37595001151,
			"0.006": 3.46805413192,
			"0.007": 4.2207410712,
			"0.008": 3.89287213096,
			"0.009": 4.24589996458,
			"0.01": 6.4023253742,
			"0.011": 12.3946842658,
			"0.012": 7.86632555112,
			"0.013": 0.0511237795984,
			"0.014": 0.0,
			"0.015": 0.0,
			"0.016": 0.0,
			"0.017": 0.0,
			"0.018": 0.0,
			"0.019": 0.0,
			"0.02": 0.0,
			"0.021": 0.0,
			"0.022": 0.0,
			"0.023": 0.0,
			"0.024": 0.0,
			"0.025": 0.0
		}
	}
}
