{
	 "smiles": "CCOC(=O)C(=NNC1=C(C=CC=C1)[N+]([O-])=O)C#N", 
	 "Tm": 375.15, 
	 "num_atms": 29, 
	 "gaussian": { 
		 "optdone": 1, 
		 "sigma_profile": "yes", 
		 "theory": "DFT", 
		 "functional": "B3LYP", 
		 "basiset": "6-31G**", 
		 "properties": { 
			 "R2extent": 6362.12, 
			 "electric_dipole_moment_norm": 6.04166426492, 
			 "electric_quadrupole_moment_norm": 25.9991531033, 
			 "total_energy": -944.938500292, 
			 "HOMO_LUMO_gap": 0.1481, 
			 "cosmo_polarized_energy": -20.99, 
			 "cosmo_cavitation_energy": 37.16, 
			 "cosmo_dispersion_energy": -24.58, 
			 "cosmo_repulsion_energy": 1.92, 
			 "cosmo_total_nonelectrostatic_energy": 14.5, 
			 "SMD_solvation_energy": 11.0 
		},
		"coords": [
			{
				"x": -2.8318104123,
				"y": -1.6299595455,
				"z": -3.7999366381,
				"element": "C" 
			},
			{
				"x": -1.9469507251,
				"y": -0.5232133214,
				"z": -4.3389558658,
				"element": "C" 
			},
			{
				"x": -0.8723483918,
				"y": -0.3311910078,
				"z": -3.3849552072,
				"element": "O" 
			},
			{
				"x": 0.0074552805,
				"y": 0.6287488017,
				"z": -3.6862044676,
				"element": "C" 
			},
			{
				"x": -0.0079711342,
				"y": 1.3147209355,
				"z": -4.6890232508,
				"element": "O" 
			},
			{
				"x": 1.0532153682,
				"y": 0.7940326589,
				"z": -2.6380626181,
				"element": "C" 
			},
			{
				"x": 1.035805527,
				"y": 0.0662722074,
				"z": -1.5575829403,
				"element": "N" 
			},
			{
				"x": 1.9667803671,
				"y": 0.2297226006,
				"z": -0.6400070278,
				"element": "N" 
			},
			{
				"x": 1.9895606943,
				"y": -0.5495515891,
				"z": 0.5234471484,
				"element": "C" 
			},
			{
				"x": 0.8459918753,
				"y": -1.1051535874,
				"z": 1.1260049749,
				"element": "C" 
			},
			{
				"x": 0.9600170107,
				"y": -1.9635102309,
				"z": 2.2193536057,
				"element": "C" 
			},
			{
				"x": 2.2071653954,
				"y": -2.2278823469,
				"z": 2.7768619547,
				"element": "C" 
			},
			{
				"x": 3.3454381958,
				"y": -1.6374953633,
				"z": 2.2227000472,
				"element": "C" 
			},
			{
				"x": 3.2384811571,
				"y": -0.82341128,
				"z": 1.0994855811,
				"element": "C" 
			},
			{
				"x": -0.5244169891,
				"y": -0.738730763,
				"z": 0.7278564375,
				"element": "N" 
			},
			{
				"x": -1.3692640901,
				"y": -1.631262971,
				"z": 0.7484404948,
				"element": "O" 
			},
			{
				"x": -0.7419532236,
				"y": 0.4420965795,
				"z": 0.4744785715,
				"element": "O" 
			},
			{
				"x": 2.07408559,
				"y": 1.7799207758,
				"z": -2.8555247389,
				"element": "C" 
			},
			{
				"x": 2.9744232101,
				"y": 2.5186023092,
				"z": -2.8742602182,
				"element": "N" 
			},
			{
				"x": -3.2327255099,
				"y": -1.3642903952,
				"z": -2.8180798615,
				"element": "H" 
			},
			{
				"x": -2.2728343296,
				"y": -2.5647244679,
				"z": -3.7014273517,
				"element": "H" 
			},
			{
				"x": -3.669207085,
				"y": -1.7986131683,
				"z": -4.4841083705,
				"element": "H" 
			},
			{
				"x": -2.4866521365,
				"y": 0.4222120397,
				"z": -4.4504551667,
				"element": "H" 
			},
			{
				"x": -1.5117238525,
				"y": -0.7736754276,
				"z": -5.3114527888,
				"element": "H" 
			},
			{
				"x": 2.7387971815,
				"y": 0.8776867404,
				"z": -0.8033360599,
				"element": "H" 
			},
			{
				"x": 0.0527819433,
				"y": -2.3891420895,
				"z": 2.6314997618,
				"element": "H" 
			},
			{
				"x": 2.2876668867,
				"y": -2.8808478172,
				"z": 3.6391521836,
				"element": "H" 
			},
			{
				"x": 4.3248541157,
				"y": -1.8306279177,
				"z": 2.6486591881,
				"element": "H" 
			},
			{
				"x": 4.130438081,
				"y": -0.4122323588,
				"z": 0.6352326227,
				"element": "H" 
			}
		],
		 "valence_orbital": [ 
			{
				"type": "occ",
				"energy": -0.30669,
				"method": "rhf"
			},
			{
				"type": "occ",
				"energy": -0.30515,
				"method": "rhf"
			},
			{
				"type": "occ",
				"energy": -0.28504,
				"method": "rhf"
			},
			{
				"type": "occ",
				"energy": -0.28306,
				"method": "rhf"
			},
			{
				"type": "occ",
				"energy": -0.24828,
				"method": "rhf"
			},
			{
				"type": "unocc",
				"energy": -0.10018,
				"method": "rhf"
			},
			{
				"type": "unocc",
				"energy": -0.07627,
				"method": "rhf"
			},
			{
				"type": "unocc",
				"energy": -0.03593,
				"method": "rhf"
			},
			{
				"type": "unocc",
				"energy": -0.01933,
				"method": "rhf"
			},
			{
				"type": "unocc",
				"energy": 0.00864,
				"method": "rhf"
			}
		],
		"cosmo_sigma_profile": { 
			"-0.025": 0.0,
			"-0.024": 0.0,
			"-0.023": 0.0,
			"-0.022": 0.0,
			"-0.021": 0.0,
			"-0.02": 0.0,
			"-0.019": 0.0,
			"-0.018": 0.0,
			"-0.017": 0.0,
			"-0.016": 1.00266696757,
			"-0.015": 1.4332292539,
			"-0.014": 1.23812756931,
			"-0.013": 1.23000578316,
			"-0.012": 1.56282761288,
			"-0.011": 1.33139040544,
			"-0.01": 2.01575041439,
			"-0.009": 2.69591444799,
			"-0.008": 6.57421150813,
			"-0.007": 11.6160241388,
			"-0.006": 14.1618273465,
			"-0.005": 18.3819434774,
			"-0.004": 25.0692070086,
			"-0.003": 22.0239426062,
			"-0.002": 20.3629062113,
			"-0.001": 21.4026356595,
			"0.0": 21.58488925,
			"0.001": 18.1432189435,
			"0.002": 14.7257258893,
			"0.003": 8.79369021124,
			"0.004": 9.41494597729,
			"0.005": 9.20006146396,
			"0.006": 11.3889974677,
			"0.007": 15.943856894,
			"0.008": 12.0839673563,
			"0.009": 9.06444774224,
			"0.01": 7.04410983972,
			"0.011": 6.78776220296,
			"0.012": 2.17304969165,
			"0.013": 0.0,
			"0.014": 0.0,
			"0.015": 0.0,
			"0.016": 0.0,
			"0.017": 0.0,
			"0.018": 0.0,
			"0.019": 0.0,
			"0.02": 0.0,
			"0.021": 0.0,
			"0.022": 0.0,
			"0.023": 0.0,
			"0.024": 0.0,
			"0.025": 0.0
		}
	}
}
