{
	 "smiles": "O=C1OC(=CC(=C1)C1=CC=CC=C1)C1=CC=CC=C1", 
	 "Tm": 410.15, 
	 "num_atms": 31, 
	 "gaussian": { 
		 "optdone": 1, 
		 "sigma_profile": "yes", 
		 "theory": "DFT", 
		 "functional": "B3LYP", 
		 "basiset": "6-31G**", 
		 "properties": { 
			 "R2extent": 6757.3411, 
			 "electric_dipole_moment_norm": 5.19383482025, 
			 "electric_quadrupole_moment_norm": 21.9159029711, 
			 "total_energy": -805.491322981, 
			 "HOMO_LUMO_gap": 0.14454, 
			 "cosmo_polarized_energy": -13.15, 
			 "cosmo_cavitation_energy": 35.83, 
			 "cosmo_dispersion_energy": -26.05, 
			 "cosmo_repulsion_energy": 1.96, 
			 "cosmo_total_nonelectrostatic_energy": 11.75, 
			 "SMD_solvation_energy": 7.03 
		},
		"coords": [
			{
				"x": -0.3857379331,
				"y": -0.353585241,
				"z": 3.7540589945,
				"element": "O" 
			},
			{
				"x": -0.1342681545,
				"y": -0.4374605891,
				"z": 2.5745597922,
				"element": "C" 
			},
			{
				"x": -0.9525777421,
				"y": -1.2974837951,
				"z": 1.8035320817,
				"element": "O" 
			},
			{
				"x": -0.7829191991,
				"y": -1.4977971942,
				"z": 0.4754481193,
				"element": "C" 
			},
			{
				"x": 0.2207970408,
				"y": -0.8679889894,
				"z": -0.198906864,
				"element": "C" 
			},
			{
				"x": 1.0955800894,
				"y": 0.0344637881,
				"z": 0.4947734222,
				"element": "C" 
			},
			{
				"x": 0.9107696337,
				"y": 0.231208015,
				"z": 1.8385515944,
				"element": "C" 
			},
			{
				"x": 2.1794850796,
				"y": 0.7271440212,
				"z": -0.2453034598,
				"element": "C" 
			},
			{
				"x": 2.8758035652,
				"y": 0.0756516867,
				"z": -1.2772667038,
				"element": "C" 
			},
			{
				"x": 3.9044735395,
				"y": 0.7220999122,
				"z": -1.9608508066,
				"element": "C" 
			},
			{
				"x": 4.2484920632,
				"y": 2.0348570119,
				"z": -1.6333433813,
				"element": "C" 
			},
			{
				"x": 3.5591354522,
				"y": 2.6959311145,
				"z": -0.6144877845,
				"element": "C" 
			},
			{
				"x": 2.5354814878,
				"y": 2.0483239687,
				"z": 0.0743118537,
				"element": "C" 
			},
			{
				"x": -1.7637945562,
				"y": -2.4383750279,
				"z": -0.0961249102,
				"element": "C" 
			},
			{
				"x": -1.9242777432,
				"y": -2.5728587959,
				"z": -1.487020281,
				"element": "C" 
			},
			{
				"x": -2.8445371952,
				"y": -3.4769060699,
				"z": -2.0091186049,
				"element": "C" 
			},
			{
				"x": -3.6251500316,
				"y": -4.2598852055,
				"z": -1.1545312799,
				"element": "C" 
			},
			{
				"x": -3.4806272828,
				"y": -4.1268945051,
				"z": 0.2273633838,
				"element": "C" 
			},
			{
				"x": -2.5610109751,
				"y": -3.2233310753,
				"z": 0.7554549543,
				"element": "C" 
			},
			{
				"x": 0.3462703103,
				"y": -1.0335638615,
				"z": -1.2595222006,
				"element": "H" 
			},
			{
				"x": 1.5608347567,
				"y": 0.8705696108,
				"z": 2.4226043711,
				"element": "H" 
			},
			{
				"x": 2.6316797999,
				"y": -0.9530302287,
				"z": -1.5249990984,
				"element": "H" 
			},
			{
				"x": 4.4403177955,
				"y": 0.1981185747,
				"z": -2.7469595685,
				"element": "H" 
			},
			{
				"x": 5.0463080803,
				"y": 2.5400887437,
				"z": -2.1697167656,
				"element": "H" 
			},
			{
				"x": 3.8136875292,
				"y": 3.7206690766,
				"z": -0.3601786287,
				"element": "H" 
			},
			{
				"x": 1.9878090961,
				"y": 2.5759443937,
				"z": 0.8490287993,
				"element": "H" 
			},
			{
				"x": -1.3444277725,
				"y": -1.9567947893,
				"z": -2.1663448131,
				"element": "H" 
			},
			{
				"x": -2.9588118863,
				"y": -3.5648087505,
				"z": -3.0855086107,
				"element": "H" 
			},
			{
				"x": -4.3438945171,
				"y": -4.9634685889,
				"z": -1.5642051221,
				"element": "H" 
			},
			{
				"x": -4.0859777625,
				"y": -4.7284970417,
				"z": 0.8989190423,
				"element": "H" 
			},
			{
				"x": -2.4500125677,
				"y": -3.1183401689,
				"z": 1.8281824749,
				"element": "H" 
			}
		],
		 "valence_orbital": [ 
			{
				"type": "occ",
				"energy": -0.26672,
				"method": "rhf"
			},
			{
				"type": "occ",
				"energy": -0.26366,
				"method": "rhf"
			},
			{
				"type": "occ",
				"energy": -0.26199,
				"method": "rhf"
			},
			{
				"type": "occ",
				"energy": -0.25302,
				"method": "rhf"
			},
			{
				"type": "occ",
				"energy": -0.21881,
				"method": "rhf"
			},
			{
				"type": "unocc",
				"energy": -0.07427,
				"method": "rhf"
			},
			{
				"type": "unocc",
				"energy": -0.03301,
				"method": "rhf"
			},
			{
				"type": "unocc",
				"energy": -0.01496,
				"method": "rhf"
			},
			{
				"type": "unocc",
				"energy": -0.01131,
				"method": "rhf"
			},
			{
				"type": "unocc",
				"energy": 0.01389,
				"method": "rhf"
			}
		],
		"cosmo_sigma_profile": { 
			"-0.025": 0.0,
			"-0.024": 0.0,
			"-0.023": 0.0,
			"-0.022": 0.0,
			"-0.021": 0.0,
			"-0.02": 0.0,
			"-0.019": 0.0,
			"-0.018": 0.0,
			"-0.017": 0.0,
			"-0.016": 0.0,
			"-0.015": 0.0,
			"-0.014": 0.0,
			"-0.013": 0.0,
			"-0.012": 0.0,
			"-0.011": 0.0,
			"-0.01": 0.0951890349963,
			"-0.009": 1.40035774971,
			"-0.008": 2.23756141273,
			"-0.007": 6.75788477562,
			"-0.006": 21.4387845345,
			"-0.005": 23.6535765492,
			"-0.004": 23.720403664,
			"-0.003": 18.577864828,
			"-0.002": 19.7114884829,
			"-0.001": 18.6556396575,
			"0.0": 26.1805222428,
			"0.001": 25.2647902685,
			"0.002": 21.9432302491,
			"0.003": 20.2303855327,
			"0.004": 24.5415289527,
			"0.005": 11.5364374343,
			"0.006": 1.53635482773,
			"0.007": 1.55246326077,
			"0.008": 2.19477958618,
			"0.009": 1.82564410514,
			"0.01": 1.74769299315,
			"0.011": 2.75121502698,
			"0.012": 5.35412366094,
			"0.013": 5.16817111998,
			"0.014": 0.953405144784,
			"0.015": 0.0,
			"0.016": 0.0,
			"0.017": 0.0,
			"0.018": 0.0,
			"0.019": 0.0,
			"0.02": 0.0,
			"0.021": 0.0,
			"0.022": 0.0,
			"0.023": 0.0,
			"0.024": 0.0,
			"0.025": 0.0
		}
	}
}
