{
	 "smiles": "CN1C=NC=C1CC1COC(=O)C1C(O)C1=CC=CC=C1", 
	 "Tm": 452.15, 
	 "num_atms": 39, 
	 "gaussian": { 
		 "optdone": 1, 
		 "sigma_profile": "yes", 
		 "theory": "DFT", 
		 "functional": "B3LYP", 
		 "basiset": "6-31G**", 
		 "properties": { 
			 "R2extent": 6720.9325, 
			 "electric_dipole_moment_norm": 0.696568237863, 
			 "electric_quadrupole_moment_norm": 25.8018274436, 
			 "total_energy": -955.719622453, 
			 "HOMO_LUMO_gap": 0.20601, 
			 "cosmo_polarized_energy": -21.13, 
			 "cosmo_cavitation_energy": 40.97, 
			 "cosmo_dispersion_energy": -27.51, 
			 "cosmo_repulsion_energy": 2.1, 
			 "cosmo_total_nonelectrostatic_energy": 15.56, 
			 "SMD_solvation_energy": 6.26 
		},
		"coords": [
			{
				"x": 2.6039694111,
				"y": 0.136602167,
				"z": 2.4837095177,
				"element": "C" 
			},
			{
				"x": 2.0662508873,
				"y": -1.2155119798,
				"z": 2.5036417892,
				"element": "N" 
			},
			{
				"x": 1.3087176773,
				"y": -1.7585817355,
				"z": 3.5072183455,
				"element": "C" 
			},
			{
				"x": 1.0157139906,
				"y": -3.0220691334,
				"z": 3.291642554,
				"element": "N" 
			},
			{
				"x": 1.6165916659,
				"y": -3.3214507904,
				"z": 2.0928133281,
				"element": "C" 
			},
			{
				"x": 2.2783207015,
				"y": -2.2293471136,
				"z": 1.5743437572,
				"element": "C" 
			},
			{
				"x": 3.0508887965,
				"y": -2.0499558758,
				"z": 0.3029652211,
				"element": "C" 
			},
			{
				"x": 2.1836019358,
				"y": -1.9308484842,
				"z": -0.9795570667,
				"element": "C" 
			},
			{
				"x": 3.0522878895,
				"y": -1.5293125398,
				"z": -2.1828520974,
				"element": "C" 
			},
			{
				"x": 3.1025021087,
				"y": -0.0836122891,
				"z": -2.1318836645,
				"element": "O" 
			},
			{
				"x": 2.0362817177,
				"y": 0.4007718735,
				"z": -1.4527928324,
				"element": "C" 
			},
			{
				"x": 1.855758478,
				"y": 1.5893737858,
				"z": -1.3147392978,
				"element": "O" 
			},
			{
				"x": 1.182105154,
				"y": -0.7592311759,
				"z": -0.9262149265,
				"element": "C" 
			},
			{
				"x": -0.0805340013,
				"y": -0.9792324311,
				"z": -1.8183178722,
				"element": "C" 
			},
			{
				"x": 0.2236718219,
				"y": -0.7372355604,
				"z": -3.2001456992,
				"element": "O" 
			},
			{
				"x": -1.3300070854,
				"y": -0.2313489089,
				"z": -1.3802381465,
				"element": "C" 
			},
			{
				"x": -2.5713688476,
				"y": -0.870021634,
				"z": -1.5128003118,
				"element": "C" 
			},
			{
				"x": -3.7542057825,
				"y": -0.2123108924,
				"z": -1.1779707768,
				"element": "C" 
			},
			{
				"x": -3.7117169562,
				"y": 1.1014109469,
				"z": -0.7065599986,
				"element": "C" 
			},
			{
				"x": -2.4821172087,
				"y": 1.7476252865,
				"z": -0.5739346134,
				"element": "C" 
			},
			{
				"x": -1.2962183089,
				"y": 1.0891559658,
				"z": -0.9073510358,
				"element": "C" 
			},
			{
				"x": 2.2288677872,
				"y": 0.6705522289,
				"z": 3.3585389519,
				"element": "H" 
			},
			{
				"x": 2.2922856866,
				"y": 0.6826204213,
				"z": 1.5886841028,
				"element": "H" 
			},
			{
				"x": 3.6977439602,
				"y": 0.1266290103,
				"z": 2.527628536,
				"element": "H" 
			},
			{
				"x": 1.0077670986,
				"y": -1.1747903591,
				"z": 4.3674914718,
				"element": "H" 
			},
			{
				"x": 1.5477218726,
				"y": -4.3116879715,
				"z": 1.6608465178,
				"element": "H" 
			},
			{
				"x": 3.6971596096,
				"y": -1.1667412048,
				"z": 0.3753823592,
				"element": "H" 
			},
			{
				"x": 3.7270661961,
				"y": -2.9029313317,
				"z": 0.1704310242,
				"element": "H" 
			},
			{
				"x": 1.6767562408,
				"y": -2.8847679792,
				"z": -1.1549015439,
				"element": "H" 
			},
			{
				"x": 4.0819105497,
				"y": -1.8915868477,
				"z": -2.1271491127,
				"element": "H" 
			},
			{
				"x": 2.6037301768,
				"y": -1.8221444959,
				"z": -3.1352209714,
				"element": "H" 
			},
			{
				"x": 0.8552263485,
				"y": -0.5493140278,
				"z": 0.0943048653,
				"element": "H" 
			},
			{
				"x": -0.3074764674,
				"y": -2.050016014,
				"z": -1.7743131873,
				"element": "H" 
			},
			{
				"x": 0.0832531467,
				"y": 0.2051734079,
				"z": -3.3692209401,
				"element": "H" 
			},
			{
				"x": -2.6088077262,
				"y": -1.8921668728,
				"z": -1.8814478038,
				"element": "H" 
			},
			{
				"x": -4.7061087039,
				"y": -0.7252749565,
				"z": -1.2814100968,
				"element": "H" 
			},
			{
				"x": -4.6310282352,
				"y": 1.6160870643,
				"z": -0.4420043416,
				"element": "H" 
			},
			{
				"x": -2.441570511,
				"y": 2.7693819437,
				"z": -0.2069823787,
				"element": "H" 
			},
			{
				"x": -0.3454910749,
				"y": 1.603008503,
				"z": -0.8007336258,
				"element": "H" 
			}
		],
		 "valence_orbital": [ 
			{
				"type": "occ",
				"energy": -0.26751,
				"method": "rhf"
			},
			{
				"type": "occ",
				"energy": -0.26199,
				"method": "rhf"
			},
			{
				"type": "occ",
				"energy": -0.25343,
				"method": "rhf"
			},
			{
				"type": "occ",
				"energy": -0.25081,
				"method": "rhf"
			},
			{
				"type": "occ",
				"energy": -0.22092,
				"method": "rhf"
			},
			{
				"type": "unocc",
				"energy": -0.01491,
				"method": "rhf"
			},
			{
				"type": "unocc",
				"energy": -0.0066,
				"method": "rhf"
			},
			{
				"type": "unocc",
				"energy": 0.0021,
				"method": "rhf"
			},
			{
				"type": "unocc",
				"energy": 0.02306,
				"method": "rhf"
			},
			{
				"type": "unocc",
				"energy": 0.06025,
				"method": "rhf"
			}
		],
		"cosmo_sigma_profile": { 
			"-0.025": 0.0,
			"-0.024": 0.0,
			"-0.023": 0.0,
			"-0.022": 0.0,
			"-0.021": 0.0,
			"-0.02": 0.0,
			"-0.019": 0.0,
			"-0.018": 0.0,
			"-0.017": 0.0,
			"-0.016": 0.0448930179337,
			"-0.015": 0.430189014689,
			"-0.014": 0.500477522163,
			"-0.013": 0.712815949908,
			"-0.012": 0.999280916542,
			"-0.011": 0.499562314377,
			"-0.01": 0.963739806659,
			"-0.009": 1.5933138625,
			"-0.008": 4.99123825758,
			"-0.007": 8.07572192512,
			"-0.006": 25.0731369093,
			"-0.005": 36.2774678727,
			"-0.004": 32.9876745021,
			"-0.003": 31.0741596115,
			"-0.002": 20.1991453964,
			"-0.001": 15.9806148732,
			"0.0": 12.788491044,
			"0.001": 15.492379693,
			"0.002": 13.5571457807,
			"0.003": 15.7394767457,
			"0.004": 13.8507210973,
			"0.005": 16.2787372678,
			"0.006": 12.0880851188,
			"0.007": 5.47980122279,
			"0.008": 4.82545609431,
			"0.009": 6.38949319449,
			"0.01": 7.51851850329,
			"0.011": 5.66895877011,
			"0.012": 4.8450950838,
			"0.013": 3.0504189007,
			"0.014": 1.53826460385,
			"0.015": 1.17481887364,
			"0.016": 1.37325401991,
			"0.017": 0.935771365654,
			"0.018": 1.15791896026,
			"0.019": 0.305455812248,
			"0.02": 0.0,
			"0.021": 0.0,
			"0.022": 0.0,
			"0.023": 0.0,
			"0.024": 0.0,
			"0.025": 0.0
		}
	}
}
