{
	 "smiles": "CC1=C(O)C(=CC=C1)C(=O)NO", 
	 "Tm": 413.15, 
	 "num_atms": 21, 
	 "gaussian": { 
		 "optdone": 1, 
		 "sigma_profile": "yes", 
		 "theory": "DFT", 
		 "functional": "B3LYP", 
		 "basiset": "6-31G**", 
		 "properties": { 
			 "R2extent": 2907.8862, 
			 "electric_dipole_moment_norm": 2.71680352068, 
			 "electric_quadrupole_moment_norm": 5.76267693438, 
			 "total_energy": -590.667692649, 
			 "HOMO_LUMO_gap": 0.17256, 
			 "cosmo_polarized_energy": -10.75, 
			 "cosmo_cavitation_energy": 24.58, 
			 "cosmo_dispersion_energy": -18.78, 
			 "cosmo_repulsion_energy": 1.48, 
			 "cosmo_total_nonelectrostatic_energy": 7.29, 
			 "SMD_solvation_energy": 5.96 
		},
		"coords": [
			{
				"x": -0.8393260962,
				"y": -0.8478550772,
				"z": 2.077828367,
				"element": "C" 
			},
			{
				"x": -0.1913180602,
				"y": -0.9780956402,
				"z": 0.7246269576,
				"element": "C" 
			},
			{
				"x": 0.7674651942,
				"y": -0.0173966137,
				"z": 0.3260545056,
				"element": "C" 
			},
			{
				"x": 1.0381359177,
				"y": 0.9747551856,
				"z": 1.1910620138,
				"element": "O" 
			},
			{
				"x": 1.4049065648,
				"y": -0.122555899,
				"z": -0.9358767897,
				"element": "C" 
			},
			{
				"x": 1.0381298582,
				"y": -1.1681727766,
				"z": -1.8076941104,
				"element": "C" 
			},
			{
				"x": 0.0927117912,
				"y": -2.103803931,
				"z": -1.4261775758,
				"element": "C" 
			},
			{
				"x": -0.5056900787,
				"y": -2.0033908076,
				"z": -0.1601732991,
				"element": "C" 
			},
			{
				"x": 2.4391740632,
				"y": 0.8661652142,
				"z": -1.2759783136,
				"element": "C" 
			},
			{
				"x": 2.6674804931,
				"y": 1.8924779888,
				"z": -0.5931418358,
				"element": "O" 
			},
			{
				"x": 3.1796472896,
				"y": 0.6830676837,
				"z": -2.4100513381,
				"element": "N" 
			},
			{
				"x": 4.2617274825,
				"y": 1.5584127902,
				"z": -2.5720745448,
				"element": "O" 
			},
			{
				"x": -1.3647764206,
				"y": 0.1085909043,
				"z": 2.1724246709,
				"element": "H" 
			},
			{
				"x": -0.0913867573,
				"y": -0.8695280402,
				"z": 2.8778403742,
				"element": "H" 
			},
			{
				"x": -1.5546644593,
				"y": -1.656382394,
				"z": 2.2485612941,
				"element": "H" 
			},
			{
				"x": 1.6826914294,
				"y": 1.578725495,
				"z": 0.7453126856,
				"element": "H" 
			},
			{
				"x": 1.4741421425,
				"y": -1.2217329022,
				"z": -2.8010037281,
				"element": "H" 
			},
			{
				"x": -0.1922150535,
				"y": -2.9026963883,
				"z": -2.1027988387,
				"element": "H" 
			},
			{
				"x": -1.2475655688,
				"y": -2.7396803826,
				"z": 0.1389827807,
				"element": "H" 
			},
			{
				"x": 3.4385640325,
				"y": -0.2507824088,
				"z": -2.6983831056,
				"element": "H" 
			},
			{
				"x": 4.1362662357,
				"y": 2.1573779995,
				"z": -1.80354017,
				"element": "H" 
			}
		],
		 "valence_orbital": [ 
			{
				"type": "occ",
				"energy": -0.34145,
				"method": "rhf"
			},
			{
				"type": "occ",
				"energy": -0.29323,
				"method": "rhf"
			},
			{
				"type": "occ",
				"energy": -0.26803,
				"method": "rhf"
			},
			{
				"type": "occ",
				"energy": -0.24404,
				"method": "rhf"
			},
			{
				"type": "occ",
				"energy": -0.22499,
				"method": "rhf"
			},
			{
				"type": "unocc",
				"energy": -0.05243,
				"method": "rhf"
			},
			{
				"type": "unocc",
				"energy": -9e-05,
				"method": "rhf"
			},
			{
				"type": "unocc",
				"energy": 0.04005,
				"method": "rhf"
			},
			{
				"type": "unocc",
				"energy": 0.07021,
				"method": "rhf"
			},
			{
				"type": "unocc",
				"energy": 0.08015,
				"method": "rhf"
			}
		],
		"cosmo_sigma_profile": { 
			"-0.025": 0.0,
			"-0.024": 0.0,
			"-0.023": 0.0,
			"-0.022": 0.0,
			"-0.021": 0.0,
			"-0.02": 0.0,
			"-0.019": 0.0,
			"-0.018": 0.0,
			"-0.017": 0.555385474423,
			"-0.016": 1.28017771404,
			"-0.015": 0.725638692097,
			"-0.014": 1.36935763233,
			"-0.013": 1.6512866498,
			"-0.012": 1.44620267693,
			"-0.011": 1.59773281342,
			"-0.01": 1.79655895495,
			"-0.009": 2.19346046929,
			"-0.008": 1.68857644995,
			"-0.007": 2.43108018604,
			"-0.006": 6.66358003124,
			"-0.005": 9.90176065137,
			"-0.004": 13.4165577757,
			"-0.003": 12.1000523139,
			"-0.002": 13.429487427,
			"-0.001": 16.9301452278,
			"0.0": 16.5199540244,
			"0.001": 15.5876896771,
			"0.002": 12.9201018816,
			"0.003": 12.4631128385,
			"0.004": 12.6907840794,
			"0.005": 8.59404566995,
			"0.006": 4.15894853657,
			"0.007": 4.62329264461,
			"0.008": 5.22966492546,
			"0.009": 5.82582578037,
			"0.01": 4.6051467171,
			"0.011": 2.68552963571,
			"0.012": 0.307665820022,
			"0.013": 0.0,
			"0.014": 0.0,
			"0.015": 0.0,
			"0.016": 0.0,
			"0.017": 0.0,
			"0.018": 0.0,
			"0.019": 0.0,
			"0.02": 0.0,
			"0.021": 0.0,
			"0.022": 0.0,
			"0.023": 0.0,
			"0.024": 0.0,
			"0.025": 0.0
		}
	}
}
