{
	 "smiles": "CC12CCC(O)(CC1)CC2=O", 
	 "Tm": 328.65, 
	 "num_atms": 25, 
	 "gaussian": { 
		 "optdone": 1, 
		 "sigma_profile": "yes", 
		 "theory": "DFT", 
		 "functional": "B3LYP", 
		 "basiset": "6-31G**", 
		 "properties": { 
			 "R2extent": 1950.0384, 
			 "electric_dipole_moment_norm": 2.25517434803, 
			 "electric_quadrupole_moment_norm": 12.6349993779, 
			 "total_energy": -501.849518072, 
			 "HOMO_LUMO_gap": 0.22107, 
			 "cosmo_polarized_energy": -11.15, 
			 "cosmo_cavitation_energy": 24.98, 
			 "cosmo_dispersion_energy": -18.43, 
			 "cosmo_repulsion_energy": 1.45, 
			 "cosmo_total_nonelectrostatic_energy": 8.01, 
			 "SMD_solvation_energy": 4.17 
		},
		"coords": [
			{
				"x": -0.0550409373,
				"y": 0.922023526,
				"z": 1.7092202174,
				"element": "C" 
			},
			{
				"x": 0.2462840181,
				"y": -0.1266521986,
				"z": 0.6418457269,
				"element": "C" 
			},
			{
				"x": -0.2387403567,
				"y": 0.3206634649,
				"z": -0.7666519465,
				"element": "C" 
			},
			{
				"x": 0.0791763844,
				"y": -0.7471410494,
				"z": -1.850919663,
				"element": "C" 
			},
			{
				"x": 0.7524353349,
				"y": -1.9665569935,
				"z": -1.2054900568,
				"element": "C" 
			},
			{
				"x": 0.9847162204,
				"y": -2.9088651313,
				"z": -2.2454599462,
				"element": "O" 
			},
			{
				"x": 2.0633935,
				"y": -1.517918526,
				"z": -0.5314607638,
				"element": "C" 
			},
			{
				"x": 1.7687106915,
				"y": -0.4332196656,
				"z": 0.5439424049,
				"element": "C" 
			},
			{
				"x": -0.1857042301,
				"y": -2.5223376129,
				"z": -0.1201841584,
				"element": "C" 
			},
			{
				"x": -0.4486477262,
				"y": -1.4566745173,
				"z": 0.946968282,
				"element": "C" 
			},
			{
				"x": -1.1343597837,
				"y": -1.6624310295,
				"z": 1.9288274669,
				"element": "O" 
			},
			{
				"x": -1.129029845,
				"y": 1.1194230268,
				"z": 1.7715884958,
				"element": "H" 
			},
			{
				"x": 0.4572015609,
				"y": 1.8628718131,
				"z": 1.4810266334,
				"element": "H" 
			},
			{
				"x": 0.2696964293,
				"y": 0.5807185198,
				"z": 2.6961664322,
				"element": "H" 
			},
			{
				"x": 0.2526367717,
				"y": 1.271023967,
				"z": -1.0043446927,
				"element": "H" 
			},
			{
				"x": -1.3133665115,
				"y": 0.5304325477,
				"z": -0.7284502781,
				"element": "H" 
			},
			{
				"x": -0.830081211,
				"y": -1.0812315208,
				"z": -2.3608895683,
				"element": "H" 
			},
			{
				"x": 0.7452718282,
				"y": -0.3495132102,
				"z": -2.6231403524,
				"element": "H" 
			},
			{
				"x": 1.4358399875,
				"y": -3.6723849955,
				"z": -1.8600428854,
				"element": "H" 
			},
			{
				"x": 2.5496323386,
				"y": -2.3912201255,
				"z": -0.0769708507,
				"element": "H" 
			},
			{
				"x": 2.7431196557,
				"y": -1.143946539,
				"z": -1.3036315294,
				"element": "H" 
			},
			{
				"x": 2.1408692881,
				"y": -0.7425091512,
				"z": 1.5267251878,
				"element": "H" 
			},
			{
				"x": 2.2833499876,
				"y": 0.5025857003,
				"z": 0.2979439021,
				"element": "H" 
			},
			{
				"x": 0.2447355478,
				"y": -3.4054756968,
				"z": 0.3710400567,
				"element": "H" 
			},
			{
				"x": -1.140898943,
				"y": -2.8378646025,
				"z": -0.5565581144,
				"element": "H" 
			}
		],
		 "valence_orbital": [ 
			{
				"type": "occ",
				"energy": -0.33212,
				"method": "rhf"
			},
			{
				"type": "occ",
				"energy": -0.3191,
				"method": "rhf"
			},
			{
				"type": "occ",
				"energy": -0.29815,
				"method": "rhf"
			},
			{
				"type": "occ",
				"energy": -0.2703,
				"method": "rhf"
			},
			{
				"type": "occ",
				"energy": -0.23519,
				"method": "rhf"
			},
			{
				"type": "unocc",
				"energy": -0.01412,
				"method": "rhf"
			},
			{
				"type": "unocc",
				"energy": 0.06252,
				"method": "rhf"
			},
			{
				"type": "unocc",
				"energy": 0.0743,
				"method": "rhf"
			},
			{
				"type": "unocc",
				"energy": 0.09951,
				"method": "rhf"
			},
			{
				"type": "unocc",
				"energy": 0.11721,
				"method": "rhf"
			}
		],
		"cosmo_sigma_profile": { 
			"-0.025": 0.0,
			"-0.024": 0.0,
			"-0.023": 0.0,
			"-0.022": 0.0,
			"-0.021": 0.0,
			"-0.02": 0.0,
			"-0.019": 0.0,
			"-0.018": 0.0,
			"-0.017": 0.0,
			"-0.016": 0.000302687724081,
			"-0.015": 0.6665079568,
			"-0.014": 0.923513392231,
			"-0.013": 1.11791390733,
			"-0.012": 1.03670651652,
			"-0.011": 0.869850254118,
			"-0.01": 0.969097100398,
			"-0.009": 1.63032629058,
			"-0.008": 1.02180063226,
			"-0.007": 1.52752579803,
			"-0.006": 3.16118926333,
			"-0.005": 7.3015439217,
			"-0.004": 14.0884066882,
			"-0.003": 32.696806352,
			"-0.002": 26.8027136704,
			"-0.001": 18.6512208491,
			"0.0": 20.2134184595,
			"0.001": 13.4847130918,
			"0.002": 5.337041109,
			"0.003": 3.18784161559,
			"0.004": 3.12021723222,
			"0.005": 3.26790921667,
			"0.006": 2.51008643813,
			"0.007": 2.40993640666,
			"0.008": 2.45902055408,
			"0.009": 3.9454128488,
			"0.01": 2.96916987163,
			"0.011": 3.84338818939,
			"0.012": 5.53971635649,
			"0.013": 4.7451955059,
			"0.014": 2.42771395566,
			"0.015": 0.153388527711,
			"0.016": 0.0,
			"0.017": 0.0,
			"0.018": 0.0,
			"0.019": 0.0,
			"0.02": 0.0,
			"0.021": 0.0,
			"0.022": 0.0,
			"0.023": 0.0,
			"0.024": 0.0,
			"0.025": 0.0
		}
	}
}
