{
	 "smiles": "C1OCC2(CO1)COCOC2", 
	 "Tm": 321.45, 
	 "num_atms": 23, 
	 "gaussian": { 
		 "optdone": 1, 
		 "sigma_profile": "yes", 
		 "theory": "DFT", 
		 "functional": "B3LYP", 
		 "basiset": "6-31G**", 
		 "properties": { 
			 "R2extent": 2019.0781, 
			 "electric_dipole_moment_norm": 1.7122923991, 
			 "electric_quadrupole_moment_norm": 4.29979125307, 
			 "total_energy": -574.817662624, 
			 "HOMO_LUMO_gap": 0.33683, 
			 "cosmo_polarized_energy": -9.51, 
			 "cosmo_cavitation_energy": 23.62, 
			 "cosmo_dispersion_energy": -18.19, 
			 "cosmo_repulsion_energy": 1.43, 
			 "cosmo_total_nonelectrostatic_energy": 6.85, 
			 "SMD_solvation_energy": 4.18 
		},
		"coords": [
			{
				"x": 1.8558870598,
				"y": 0.9162633198,
				"z": 1.752118536,
				"element": "C" 
			},
			{
				"x": 0.558570061,
				"y": 1.1502049501,
				"z": 2.2467320748,
				"element": "O" 
			},
			{
				"x": -0.4152376201,
				"y": 0.3962798431,
				"z": 1.5284131569,
				"element": "C" 
			},
			{
				"x": -0.3448804174,
				"y": 0.7023182064,
				"z": 0.021758194,
				"element": "C" 
			},
			{
				"x": 1.1141443289,
				"y": 0.4921667495,
				"z": -0.4142231492,
				"element": "C" 
			},
			{
				"x": 1.9960919204,
				"y": 1.265844135,
				"z": 0.3963447669,
				"element": "O" 
			},
			{
				"x": -0.7941369675,
				"y": 2.160589217,
				"z": -0.2470510912,
				"element": "C" 
			},
			{
				"x": -2.2123829941,
				"y": 2.1902612536,
				"z": -0.407576171,
				"element": "O" 
			},
			{
				"x": -2.6081625184,
				"y": 1.5553443712,
				"z": -1.6013466921,
				"element": "C" 
			},
			{
				"x": -1.7807723153,
				"y": 0.4559497435,
				"z": -1.9297236717,
				"element": "O" 
			},
			{
				"x": -1.3154150937,
				"y": -0.212222799,
				"z": -0.7618879179,
				"element": "C" 
			},
			{
				"x": 2.5353096819,
				"y": 1.5523729291,
				"z": 2.3218961463,
				"element": "H" 
			},
			{
				"x": 2.1196782251,
				"y": -0.1506772931,
				"z": 1.8892687541,
				"element": "H" 
			},
			{
				"x": -0.2627979315,
				"y": -0.6829057452,
				"z": 1.705560455,
				"element": "H" 
			},
			{
				"x": -1.3918121486,
				"y": 0.6776125322,
				"z": 1.9332221982,
				"element": "H" 
			},
			{
				"x": 1.3765778441,
				"y": -0.5778327385,
				"z": -0.335714072,
				"element": "H" 
			},
			{
				"x": 1.272153381,
				"y": 0.8071336804,
				"z": -1.4497092359,
				"element": "H" 
			},
			{
				"x": -0.2944287073,
				"y": 2.5645601204,
				"z": -1.1393047859,
				"element": "H" 
			},
			{
				"x": -0.5578498891,
				"y": 2.8051408655,
				"z": 0.6004434363,
				"element": "H" 
			},
			{
				"x": -2.5470438555,
				"y": 2.2356519484,
				"z": -2.4642624703,
				"element": "H" 
			},
			{
				"x": -3.650572917,
				"y": 1.2402743625,
				"z": -1.4422443599,
				"element": "H" 
			},
			{
				"x": -2.1619583669,
				"y": -0.5115417957,
				"z": -0.1235830571,
				"element": "H" 
			},
			{
				"x": -0.8208607598,
				"y": -1.1248878565,
				"z": -1.1084310443,
				"element": "H" 
			}
		],
		 "valence_orbital": [ 
			{
				"type": "occ",
				"energy": -0.30636,
				"method": "rhf"
			},
			{
				"type": "occ",
				"energy": -0.28789,
				"method": "rhf"
			},
			{
				"type": "occ",
				"energy": -0.26972,
				"method": "rhf"
			},
			{
				"type": "occ",
				"energy": -0.26496,
				"method": "rhf"
			},
			{
				"type": "occ",
				"energy": -0.25302,
				"method": "rhf"
			},
			{
				"type": "unocc",
				"energy": 0.08381,
				"method": "rhf"
			},
			{
				"type": "unocc",
				"energy": 0.09181,
				"method": "rhf"
			},
			{
				"type": "unocc",
				"energy": 0.0988,
				"method": "rhf"
			},
			{
				"type": "unocc",
				"energy": 0.11477,
				"method": "rhf"
			},
			{
				"type": "unocc",
				"energy": 0.12421,
				"method": "rhf"
			}
		],
		"cosmo_sigma_profile": { 
			"-0.025": 0.0,
			"-0.024": 0.0,
			"-0.023": 0.0,
			"-0.022": 0.0,
			"-0.021": 0.0,
			"-0.02": 0.0,
			"-0.019": 0.0,
			"-0.018": 0.0,
			"-0.017": 0.0,
			"-0.016": 0.0,
			"-0.015": 0.0,
			"-0.014": 0.0,
			"-0.013": 0.0,
			"-0.012": 0.0,
			"-0.011": 0.0,
			"-0.01": 0.0,
			"-0.009": 0.0,
			"-0.008": 0.0,
			"-0.007": 1.165032059,
			"-0.006": 9.6671112678,
			"-0.005": 25.7441084535,
			"-0.004": 28.3642526756,
			"-0.003": 21.6249043952,
			"-0.002": 14.4085316881,
			"-0.001": 10.1603706264,
			"0.0": 8.08575103889,
			"0.001": 6.7088350851,
			"0.002": 5.82034226389,
			"0.003": 5.33935195272,
			"0.004": 5.32278795683,
			"0.005": 5.73793169399,
			"0.006": 5.82829785828,
			"0.007": 3.79395757241,
			"0.008": 3.43743550267,
			"0.009": 4.41766453733,
			"0.01": 5.03094323675,
			"0.011": 4.59447424879,
			"0.012": 5.94120005526,
			"0.013": 1.92851390641,
			"0.014": 0.0,
			"0.015": 0.0,
			"0.016": 0.0,
			"0.017": 0.0,
			"0.018": 0.0,
			"0.019": 0.0,
			"0.02": 0.0,
			"0.021": 0.0,
			"0.022": 0.0,
			"0.023": 0.0,
			"0.024": 0.0,
			"0.025": 0.0
		}
	}
}
