{
	 "smiles": "COC1=CC(F)=C(N)C(F)=C1", 
	 "Tm": 312.15, 
	 "num_atms": 18, 
	 "gaussian": { 
		 "optdone": 1, 
		 "sigma_profile": "yes", 
		 "theory": "DFT", 
		 "functional": "B3LYP", 
		 "basiset": "6-31G**", 
		 "properties": { 
			 "R2extent": 2015.3183, 
			 "electric_dipole_moment_norm": 1.76690815268, 
			 "electric_quadrupole_moment_norm": 10.0785634214, 
			 "total_energy": -600.591560796, 
			 "HOMO_LUMO_gap": 0.1974, 
			 "cosmo_polarized_energy": -7.91, 
			 "cosmo_cavitation_energy": 22.88, 
			 "cosmo_dispersion_energy": -16.92, 
			 "cosmo_repulsion_energy": 1.32, 
			 "cosmo_total_nonelectrostatic_energy": 7.27, 
			 "SMD_solvation_energy": 5.57 
		},
		"coords": [
			{
				"x": -0.8164766142,
				"y": 1.1678838801,
				"z": -3.3365248299,
				"element": "C" 
			},
			{
				"x": -0.493166767,
				"y": 0.0934039863,
				"z": -2.4701994077,
				"element": "O" 
			},
			{
				"x": -0.1887730222,
				"y": 0.3879719997,
				"z": -1.171360657,
				"element": "C" 
			},
			{
				"x": 0.122260297,
				"y": -0.7082520077,
				"z": -0.3535695837,
				"element": "C" 
			},
			{
				"x": 0.4361557619,
				"y": -0.4868218574,
				"z": 0.9744494374,
				"element": "C" 
			},
			{
				"x": 0.7533100904,
				"y": -1.537398274,
				"z": 1.7713090023,
				"element": "F" 
			},
			{
				"x": 0.4665423091,
				"y": 0.7832495596,
				"z": 1.5661599282,
				"element": "C" 
			},
			{
				"x": 0.719373996,
				"y": 0.9668803097,
				"z": 2.9275707359,
				"element": "N" 
			},
			{
				"x": 0.1580070096,
				"y": 1.8381021168,
				"z": 0.7081234048,
				"element": "C" 
			},
			{
				"x": 0.1968586348,
				"y": 3.0897683862,
				"z": 1.2323604207,
				"element": "F" 
			},
			{
				"x": -0.1662550291,
				"y": 1.6803607512,
				"z": -0.6353060211,
				"element": "C" 
			},
			{
				"x": -1.7038803115,
				"y": 1.7144560738,
				"z": -2.9910524213,
				"element": "H" 
			},
			{
				"x": -1.0279115993,
				"y": 0.7194882027,
				"z": -4.3084748366,
				"element": "H" 
			},
			{
				"x": 0.0197474377,
				"y": 1.8721353588,
				"z": -3.4391764408,
				"element": "H" 
			},
			{
				"x": 0.1169154914,
				"y": -1.7135005932,
				"z": -0.7566906644,
				"element": "H" 
			},
			{
				"x": 1.2784437626,
				"y": 0.2280253173,
				"z": 3.3327131065,
				"element": "H" 
			},
			{
				"x": 1.0774346363,
				"y": 1.8867331654,
				"z": 3.1471706368,
				"element": "H" 
			},
			{
				"x": -0.3887860836,
				"y": 2.5639136248,
				"z": -1.2185018102,
				"element": "H" 
			}
		],
		 "valence_orbital": [ 
			{
				"type": "occ",
				"energy": -0.34341,
				"method": "rhf"
			},
			{
				"type": "occ",
				"energy": -0.33801,
				"method": "rhf"
			},
			{
				"type": "occ",
				"energy": -0.28227,
				"method": "rhf"
			},
			{
				"type": "occ",
				"energy": -0.24339,
				"method": "rhf"
			},
			{
				"type": "occ",
				"energy": -0.19352,
				"method": "rhf"
			},
			{
				"type": "unocc",
				"energy": 0.00388,
				"method": "rhf"
			},
			{
				"type": "unocc",
				"energy": 0.02116,
				"method": "rhf"
			},
			{
				"type": "unocc",
				"energy": 0.06683,
				"method": "rhf"
			},
			{
				"type": "unocc",
				"energy": 0.09878,
				"method": "rhf"
			},
			{
				"type": "unocc",
				"energy": 0.10826,
				"method": "rhf"
			}
		],
		"cosmo_sigma_profile": { 
			"-0.025": 0.0,
			"-0.024": 0.0,
			"-0.023": 0.0,
			"-0.022": 0.0,
			"-0.021": 0.0,
			"-0.02": 0.0,
			"-0.019": 0.0,
			"-0.018": 0.0,
			"-0.017": 0.0,
			"-0.016": 0.0,
			"-0.015": 0.0,
			"-0.014": 0.0,
			"-0.013": 0.114129663,
			"-0.012": 1.63108607998,
			"-0.011": 2.05140997975,
			"-0.01": 2.10378573872,
			"-0.009": 2.47941756259,
			"-0.008": 2.23949495152,
			"-0.007": 5.3838215691,
			"-0.006": 8.64899742418,
			"-0.005": 12.4405257186,
			"-0.004": 12.8948894462,
			"-0.003": 11.8701135734,
			"-0.002": 8.12365281733,
			"-0.001": 7.57264647871,
			"0.0": 8.8231760333,
			"0.001": 12.9498875471,
			"0.002": 17.8569764343,
			"0.003": 21.732680926,
			"0.004": 22.9600402637,
			"0.005": 6.37999702825,
			"0.006": 2.59889354451,
			"0.007": 2.22000320328,
			"0.008": 1.55454671695,
			"0.009": 2.61114863782,
			"0.01": 2.23945630539,
			"0.011": 0.94766410803,
			"0.012": 0.569273957608,
			"0.013": 0.523970861082,
			"0.014": 0.743661509657,
			"0.015": 0.129398313878,
			"0.016": 0.0,
			"0.017": 0.0,
			"0.018": 0.0,
			"0.019": 0.0,
			"0.02": 0.0,
			"0.021": 0.0,
			"0.022": 0.0,
			"0.023": 0.0,
			"0.024": 0.0,
			"0.025": 0.0
		}
	}
}
