{
	 "smiles": "O=CC1=CNC=C1", 
	 "Tm": 333.15, 
	 "num_atms": 12, 
	 "gaussian": { 
		 "optdone": 1, 
		 "sigma_profile": "yes", 
		 "theory": "DFT", 
		 "functional": "B3LYP", 
		 "basiset": "6-31G**", 
		 "properties": { 
			 "R2extent": 2426.9798, 
			 "electric_dipole_moment_norm": 5.58259561853, 
			 "electric_quadrupole_moment_norm": 29.0435164324, 
			 "total_energy": -323.498204337, 
			 "HOMO_LUMO_gap": 0.20172, 
			 "cosmo_polarized_energy": -14.01, 
			 "cosmo_cavitation_energy": 16.54, 
			 "cosmo_dispersion_energy": -12.28, 
			 "cosmo_repulsion_energy": 1.04, 
			 "cosmo_total_nonelectrostatic_energy": 5.31, 
			 "SMD_solvation_energy": 4.6 
		},
		"coords": [
			{
				"x": -0.1045681406,
				"y": 0.7823365082,
				"z": -5.5315681189,
				"element": "O" 
			},
			{
				"x": -0.0711313773,
				"y": 1.0887641165,
				"z": -4.3513549862,
				"element": "C" 
			},
			{
				"x": -0.1662416558,
				"y": 0.1469532916,
				"z": -3.2430733535,
				"element": "C" 
			},
			{
				"x": -0.1290348023,
				"y": 0.483671253,
				"z": -1.8956727256,
				"element": "C" 
			},
			{
				"x": -0.2465677293,
				"y": -0.6686232681,
				"z": -1.1776632935,
				"element": "N" 
			},
			{
				"x": -0.3597140975,
				"y": -1.750638551,
				"z": -2.034858359,
				"element": "C" 
			},
			{
				"x": -0.3131401112,
				"y": -1.2762342695,
				"z": -3.3196472552,
				"element": "C" 
			},
			{
				"x": 0.0398471483,
				"y": 2.1544045594,
				"z": -4.0436959821,
				"element": "H" 
			},
			{
				"x": -0.0289235526,
				"y": 1.4459455959,
				"z": -1.414687129,
				"element": "H" 
			},
			{
				"x": -0.2505682454,
				"y": -0.7252925636,
				"z": -0.1713586459,
				"element": "H" 
			},
			{
				"x": -0.462473738,
				"y": -2.7538910366,
				"z": -1.6489498844,
				"element": "H" 
			},
			{
				"x": -0.3742836985,
				"y": -1.8527956358,
				"z": -4.2304702668,
				"element": "H" 
			}
		],
		 "valence_orbital": [ 
			{
				"type": "occ",
				"energy": -0.37717,
				"method": "rhf"
			},
			{
				"type": "occ",
				"energy": -0.36917,
				"method": "rhf"
			},
			{
				"type": "occ",
				"energy": -0.25498,
				"method": "rhf"
			},
			{
				"type": "occ",
				"energy": -0.23724,
				"method": "rhf"
			},
			{
				"type": "occ",
				"energy": -0.23036,
				"method": "rhf"
			},
			{
				"type": "unocc",
				"energy": -0.02864,
				"method": "rhf"
			},
			{
				"type": "unocc",
				"energy": 0.0319,
				"method": "rhf"
			},
			{
				"type": "unocc",
				"energy": 0.06296,
				"method": "rhf"
			},
			{
				"type": "unocc",
				"energy": 0.12113,
				"method": "rhf"
			},
			{
				"type": "unocc",
				"energy": 0.12158,
				"method": "rhf"
			}
		],
		"cosmo_sigma_profile": { 
			"-0.025": 0.0,
			"-0.024": 0.0,
			"-0.023": 0.0,
			"-0.022": 0.0,
			"-0.021": 0.0,
			"-0.02": 0.0,
			"-0.019": 0.0,
			"-0.018": 0.0,
			"-0.017": 0.484426388882,
			"-0.016": 1.83489770673,
			"-0.015": 1.20370191913,
			"-0.014": 2.22378175028,
			"-0.013": 0.529337458335,
			"-0.012": 0.97446747201,
			"-0.011": 1.73981935629,
			"-0.01": 0.953314942852,
			"-0.009": 2.92107131385,
			"-0.008": 5.83921173925,
			"-0.007": 4.37085226043,
			"-0.006": 6.20223803428,
			"-0.005": 7.67280957081,
			"-0.004": 6.50029777068,
			"-0.003": 6.63328787957,
			"-0.002": 6.67669765467,
			"-0.001": 6.39044700221,
			"0.0": 5.95524389853,
			"0.001": 5.59085001955,
			"0.002": 6.76391715902,
			"0.003": 7.11652480731,
			"0.004": 9.20977189771,
			"0.005": 7.65942166047,
			"0.006": 6.24795658862,
			"0.007": 3.31789995096,
			"0.008": 1.01263451685,
			"0.009": 1.74323509316,
			"0.01": 2.20759050224,
			"0.011": 2.54191923774,
			"0.012": 4.24194599418,
			"0.013": 4.25895662278,
			"0.014": 1.56843077779,
			"0.015": 0.0352096888311,
			"0.016": 0.0,
			"0.017": 0.0,
			"0.018": 0.0,
			"0.019": 0.0,
			"0.02": 0.0,
			"0.021": 0.0,
			"0.022": 0.0,
			"0.023": 0.0,
			"0.024": 0.0,
			"0.025": 0.0
		}
	}
}
