{
	 "smiles": "NC1=CN=C(OCC2=CC=CC=C2)C=C1", 
	 "Tm": 316.15, 
	 "num_atms": 27, 
	 "gaussian": { 
		 "optdone": 1, 
		 "sigma_profile": "yes", 
		 "theory": "DFT", 
		 "functional": "B3LYP", 
		 "basiset": "6-31G**", 
		 "properties": { 
			 "R2extent": 5540.1098, 
			 "electric_dipole_moment_norm": 2.59095470821, 
			 "electric_quadrupole_moment_norm": 18.9837169163, 
			 "total_energy": -649.23106374, 
			 "HOMO_LUMO_gap": 0.17918, 
			 "cosmo_polarized_energy": -12.26, 
			 "cosmo_cavitation_energy": 31.44, 
			 "cosmo_dispersion_energy": -23.18, 
			 "cosmo_repulsion_energy": 1.82, 
			 "cosmo_total_nonelectrostatic_energy": 10.07, 
			 "SMD_solvation_energy": 4.51 
		},
		"coords": [
			{
				"x": 2.3939321779,
				"y": 3.9424804453,
				"z": -2.9708284806,
				"element": "N" 
			},
			{
				"x": 1.9505040744,
				"y": 3.1875022899,
				"z": -1.8756925155,
				"element": "C" 
			},
			{
				"x": 0.8636140989,
				"y": 2.3144644868,
				"z": -1.9749199168,
				"element": "C" 
			},
			{
				"x": 0.4419999526,
				"y": 1.5240875605,
				"z": -0.975662116,
				"element": "N" 
			},
			{
				"x": 1.0891008235,
				"y": 1.5759267555,
				"z": 0.1795600689,
				"element": "C" 
			},
			{
				"x": 0.691686194,
				"y": 0.7928520543,
				"z": 1.2184332999,
				"element": "O" 
			},
			{
				"x": -0.4452647304,
				"y": -0.0494666355,
				"z": 0.998370087,
				"element": "C" 
			},
			{
				"x": -0.7771270691,
				"y": -0.7679542842,
				"z": 2.2839419846,
				"element": "C" 
			},
			{
				"x": -0.6092566235,
				"y": -0.1490552348,
				"z": 3.5289374151,
				"element": "C" 
			},
			{
				"x": -0.9715694828,
				"y": -0.8114300873,
				"z": 4.7019340546,
				"element": "C" 
			},
			{
				"x": -1.5137109736,
				"y": -2.0974396612,
				"z": 4.6465115366,
				"element": "C" 
			},
			{
				"x": -1.6845853257,
				"y": -2.7203283234,
				"z": 3.4093862066,
				"element": "C" 
			},
			{
				"x": -1.3128774677,
				"y": -2.0601004579,
				"z": 2.2370697122,
				"element": "C" 
			},
			{
				"x": 2.1938519409,
				"y": 2.4159228645,
				"z": 0.402207151,
				"element": "C" 
			},
			{
				"x": 2.6227555945,
				"y": 3.221441467,
				"z": -0.637925795,
				"element": "C" 
			},
			{
				"x": 1.6899649706,
				"y": 4.0896767129,
				"z": -3.6826799965,
				"element": "H" 
			},
			{
				"x": 2.8383983573,
				"y": 4.8165034575,
				"z": -2.7214441143,
				"element": "H" 
			},
			{
				"x": 0.3058290253,
				"y": 2.2440668526,
				"z": -2.9087426779,
				"element": "H" 
			},
			{
				"x": -1.2887745219,
				"y": 0.5660878476,
				"z": 0.6587065334,
				"element": "H" 
			},
			{
				"x": -0.2346912169,
				"y": -0.7611274299,
				"z": 0.1915135193,
				"element": "H" 
			},
			{
				"x": -0.1808490286,
				"y": 0.8468788324,
				"z": 3.5712174251,
				"element": "H" 
			},
			{
				"x": -0.8305381409,
				"y": -0.3221894163,
				"z": 5.6618709626,
				"element": "H" 
			},
			{
				"x": -1.7959586582,
				"y": -2.611629139,
				"z": 5.5608728165,
				"element": "H" 
			},
			{
				"x": -2.0978629891,
				"y": -3.7236839565,
				"z": 3.3559125888,
				"element": "H" 
			},
			{
				"x": -1.4374607698,
				"y": -2.5546679181,
				"z": 1.2764963759,
				"element": "H" 
			},
			{
				"x": 2.6852485454,
				"y": 2.4179042224,
				"z": 1.3686349886,
				"element": "H" 
			},
			{
				"x": 3.4797412427,
				"y": 3.8770766949,
				"z": -0.503781114,
				"element": "H" 
			}
		],
		 "valence_orbital": [ 
			{
				"type": "occ",
				"energy": -0.27018,
				"method": "rhf"
			},
			{
				"type": "occ",
				"energy": -0.25934,
				"method": "rhf"
			},
			{
				"type": "occ",
				"energy": -0.24357,
				"method": "rhf"
			},
			{
				"type": "occ",
				"energy": -0.23654,
				"method": "rhf"
			},
			{
				"type": "occ",
				"energy": -0.19571,
				"method": "rhf"
			},
			{
				"type": "unocc",
				"energy": -0.01653,
				"method": "rhf"
			},
			{
				"type": "unocc",
				"energy": 0.0034,
				"method": "rhf"
			},
			{
				"type": "unocc",
				"energy": 0.005,
				"method": "rhf"
			},
			{
				"type": "unocc",
				"energy": 0.02221,
				"method": "rhf"
			},
			{
				"type": "unocc",
				"energy": 0.07734,
				"method": "rhf"
			}
		],
		"cosmo_sigma_profile": { 
			"-0.025": 0.0,
			"-0.024": 0.0,
			"-0.023": 0.0,
			"-0.022": 0.0,
			"-0.021": 0.0,
			"-0.02": 0.0,
			"-0.019": 0.0,
			"-0.018": 0.0,
			"-0.017": 0.0,
			"-0.016": 0.0,
			"-0.015": 0.0,
			"-0.014": 0.0,
			"-0.013": 0.273205837175,
			"-0.012": 2.9665266928,
			"-0.011": 2.7937786031,
			"-0.01": 3.04792202444,
			"-0.009": 4.00691410849,
			"-0.008": 2.96494243853,
			"-0.007": 5.01253896653,
			"-0.006": 10.8209587039,
			"-0.005": 18.8870357635,
			"-0.004": 18.509864617,
			"-0.003": 20.1839576519,
			"-0.002": 12.8004028104,
			"-0.001": 14.6034068502,
			"0.0": 13.3923285843,
			"0.001": 13.404841268,
			"0.002": 17.5436916445,
			"0.003": 22.1847637487,
			"0.004": 20.1522849743,
			"0.005": 14.8594377467,
			"0.006": 13.7115077162,
			"0.007": 3.62067743433,
			"0.008": 3.86232607372,
			"0.009": 3.37921845484,
			"0.01": 1.7294262676,
			"0.011": 1.25886352033,
			"0.012": 1.84765344229,
			"0.013": 1.52358428158,
			"0.014": 0.733184902378,
			"0.015": 0.402427829737,
			"0.016": 0.0406760445782,
			"0.017": 0.0,
			"0.018": 0.0,
			"0.019": 0.0,
			"0.02": 0.0,
			"0.021": 0.0,
			"0.022": 0.0,
			"0.023": 0.0,
			"0.024": 0.0,
			"0.025": 0.0
		}
	}
}
