{
	 "smiles": "CN(CC(=O)N1CCCC(C1)C(O)=O)C1=NC=C(Cl)C=C1", 
	 "Tm": 458.15, 
	 "num_atms": 39, 
	 "gaussian": { 
		 "optdone": 1, 
		 "sigma_profile": "yes", 
		 "theory": "DFT", 
		 "functional": "B3LYP", 
		 "basiset": "6-31G**", 
		 "properties": { 
			 "R2extent": 6882.7281, 
			 "electric_dipole_moment_norm": 4.23988925681, 
			 "electric_quadrupole_moment_norm": 18.3206823718, 
			 "total_energy": -1394.47543312, 
			 "HOMO_LUMO_gap": 0.17817, 
			 "cosmo_polarized_energy": -20.79, 
			 "cosmo_cavitation_energy": 40.55, 
			 "cosmo_dispersion_energy": -27.89, 
			 "cosmo_repulsion_energy": 2.11, 
			 "cosmo_total_nonelectrostatic_energy": 14.77, 
			 "SMD_solvation_energy": 6.57 
		},
		"coords": [
			{
				"x": 2.8065932649,
				"y": 0.1465972044,
				"z": 0.4406830724,
				"element": "C" 
			},
			{
				"x": 1.6182398993,
				"y": 0.6911266209,
				"z": -0.2088071411,
				"element": "N" 
			},
			{
				"x": 0.9860161563,
				"y": 1.8829758962,
				"z": 0.356630375,
				"element": "C" 
			},
			{
				"x": -0.5500387506,
				"y": 1.9142754135,
				"z": 0.4947606131,
				"element": "C" 
			},
			{
				"x": -1.1329791952,
				"y": 2.9609273971,
				"z": 0.2355418854,
				"element": "O" 
			},
			{
				"x": -1.2404202193,
				"y": 0.819156561,
				"z": 0.9535054251,
				"element": "N" 
			},
			{
				"x": -2.703855625,
				"y": 0.9674250434,
				"z": 1.0436370069,
				"element": "C" 
			},
			{
				"x": -3.3743884912,
				"y": -0.4020431059,
				"z": 1.2396400128,
				"element": "C" 
			},
			{
				"x": -2.6373165433,
				"y": -1.4743296499,
				"z": 0.4279359002,
				"element": "C" 
			},
			{
				"x": -1.2123123904,
				"y": -1.6734479695,
				"z": 0.9885302927,
				"element": "C" 
			},
			{
				"x": -0.6844994199,
				"y": -0.3478387397,
				"z": 1.6220943842,
				"element": "C" 
			},
			{
				"x": -0.1880653134,
				"y": -2.2234140791,
				"z": 0.0058949798,
				"element": "C" 
			},
			{
				"x": -0.6321754353,
				"y": -2.319633634,
				"z": -1.2626740084,
				"element": "O" 
			},
			{
				"x": 0.9395127288,
				"y": -2.5468243433,
				"z": 0.3269807809,
				"element": "O" 
			},
			{
				"x": 1.3981157898,
				"y": 0.4085100937,
				"z": -1.5439245001,
				"element": "C" 
			},
			{
				"x": 0.4123345827,
				"y": 1.0996338688,
				"z": -2.1417284195,
				"element": "N" 
			},
			{
				"x": 0.1258619923,
				"y": 0.8572394235,
				"z": -3.4203285789,
				"element": "C" 
			},
			{
				"x": 0.8119454745,
				"y": -0.086094685,
				"z": -4.181142374,
				"element": "C" 
			},
			{
				"x": 0.3854706461,
				"y": -0.3569816297,
				"z": -5.8618379745,
				"element": "Cl" 
			},
			{
				"x": 1.8489272821,
				"y": -0.803740789,
				"z": -3.5805023082,
				"element": "C" 
			},
			{
				"x": 2.1553254687,
				"y": -0.5611338796,
				"z": -2.2485006567,
				"element": "C" 
			},
			{
				"x": 2.7775703172,
				"y": -0.9465988584,
				"z": 0.4361195708,
				"element": "H" 
			},
			{
				"x": 3.7376723977,
				"y": 0.487084637,
				"z": -0.0356739286,
				"element": "H" 
			},
			{
				"x": 2.8221254698,
				"y": 0.4718638754,
				"z": 1.4821459853,
				"element": "H" 
			},
			{
				"x": 1.4151276263,
				"y": 2.0363521971,
				"z": 1.3521209097,
				"element": "H" 
			},
			{
				"x": 1.2019031983,
				"y": 2.7743258592,
				"z": -0.2401867175,
				"element": "H" 
			},
			{
				"x": -3.037820423,
				"y": 1.4316354143,
				"z": 0.1123555869,
				"element": "H" 
			},
			{
				"x": -2.968587909,
				"y": 1.6629198511,
				"z": 1.8517898067,
				"element": "H" 
			},
			{
				"x": -3.3916219636,
				"y": -0.6805489133,
				"z": 2.3012337925,
				"element": "H" 
			},
			{
				"x": -4.4204517209,
				"y": -0.3296578665,
				"z": 0.9254775414,
				"element": "H" 
			},
			{
				"x": -3.181416493,
				"y": -2.4240099187,
				"z": 0.4371521491,
				"element": "H" 
			},
			{
				"x": -2.5778460172,
				"y": -1.1537271062,
				"z": -0.6155660672,
				"element": "H" 
			},
			{
				"x": -1.2302645614,
				"y": -2.4122830985,
				"z": 1.7992838387,
				"element": "H" 
			},
			{
				"x": -0.9801868198,
				"y": -0.328719624,
				"z": 2.6802102798,
				"element": "H" 
			},
			{
				"x": 0.4010756578,
				"y": -0.327753327,
				"z": 1.5904606594,
				"element": "H" 
			},
			{
				"x": 0.1251324918,
				"y": -2.6100078872,
				"z": -1.7996718569,
				"element": "H" 
			},
			{
				"x": -0.6804863375,
				"y": 1.4396946508,
				"z": -3.8601938048,
				"element": "H" 
			},
			{
				"x": 2.4137172441,
				"y": -1.5333409311,
				"z": -4.1520632963,
				"element": "H" 
			},
			{
				"x": 2.9574659403,
				"y": -1.1094139718,
				"z": -1.7724832162,
				"element": "H" 
			}
		],
		 "valence_orbital": [ 
			{
				"type": "occ",
				"energy": -0.27872,
				"method": "rhf"
			},
			{
				"type": "occ",
				"energy": -0.26395,
				"method": "rhf"
			},
			{
				"type": "occ",
				"energy": -0.24362,
				"method": "rhf"
			},
			{
				"type": "occ",
				"energy": -0.23128,
				"method": "rhf"
			},
			{
				"type": "occ",
				"energy": -0.20879,
				"method": "rhf"
			},
			{
				"type": "unocc",
				"energy": -0.03062,
				"method": "rhf"
			},
			{
				"type": "unocc",
				"energy": -0.00697,
				"method": "rhf"
			},
			{
				"type": "unocc",
				"energy": -0.00237,
				"method": "rhf"
			},
			{
				"type": "unocc",
				"energy": 0.02532,
				"method": "rhf"
			},
			{
				"type": "unocc",
				"energy": 0.03416,
				"method": "rhf"
			}
		],
		"cosmo_sigma_profile": { 
			"-0.025": 0.0,
			"-0.024": 0.0,
			"-0.023": 0.0,
			"-0.022": 0.0,
			"-0.021": 0.0,
			"-0.02": 0.0,
			"-0.019": 0.0,
			"-0.018": 0.0,
			"-0.017": 0.0,
			"-0.016": 0.151256087318,
			"-0.015": 0.650619389278,
			"-0.014": 0.775742794098,
			"-0.013": 0.430367173799,
			"-0.012": 0.706694583404,
			"-0.011": 0.458230374594,
			"-0.01": 0.998782625206,
			"-0.009": 1.91026851838,
			"-0.008": 5.64807639946,
			"-0.007": 9.90900638238,
			"-0.006": 14.3878161071,
			"-0.005": 20.3988586362,
			"-0.004": 29.7597814558,
			"-0.003": 34.9655988986,
			"-0.002": 33.5703974483,
			"-0.001": 22.6588990336,
			"0.0": 17.3823770735,
			"0.001": 18.4079109439,
			"0.002": 17.7684654187,
			"0.003": 14.8702461316,
			"0.004": 17.1079612033,
			"0.005": 14.9652300366,
			"0.006": 5.59919228398,
			"0.007": 4.29023227525,
			"0.008": 5.1603871493,
			"0.009": 2.86047869057,
			"0.01": 3.33925223407,
			"0.011": 4.48119928303,
			"0.012": 4.23662087674,
			"0.013": 3.64880915395,
			"0.014": 6.40645713711,
			"0.015": 3.14610052393,
			"0.016": 0.0379996638737,
			"0.017": 0.0,
			"0.018": 0.0,
			"0.019": 0.0,
			"0.02": 0.0,
			"0.021": 0.0,
			"0.022": 0.0,
			"0.023": 0.0,
			"0.024": 0.0,
			"0.025": 0.0
		}
	}
}
