{
	 "smiles": "NC(CCl)C(O)=O", 
	 "Tm": 429.15, 
	 "num_atms": 13, 
	 "gaussian": { 
		 "optdone": 1, 
		 "sigma_profile": "yes", 
		 "theory": "DFT", 
		 "functional": "B3LYP", 
		 "basiset": "6-31G**", 
		 "properties": { 
			 "R2extent": 1746.0067, 
			 "electric_dipole_moment_norm": 3.52941075394, 
			 "electric_quadrupole_moment_norm": 10.7250451635, 
			 "total_energy": -783.341493798, 
			 "HOMO_LUMO_gap": 0.26133, 
			 "cosmo_polarized_energy": -14.07, 
			 "cosmo_cavitation_energy": 18.44, 
			 "cosmo_dispersion_energy": -13.89, 
			 "cosmo_repulsion_energy": 1.2, 
			 "cosmo_total_nonelectrostatic_energy": 5.74, 
			 "SMD_solvation_energy": 3.76 
		},
		"coords": [
			{
				"x": 0.3733633677,
				"y": -2.4075013034,
				"z": 1.3797855317,
				"element": "N" 
			},
			{
				"x": -0.0849729684,
				"y": -1.0220889905,
				"z": 1.2377846349,
				"element": "C" 
			},
			{
				"x": -1.5304443113,
				"y": -0.73495325,
				"z": 1.6393993604,
				"element": "C" 
			},
			{
				"x": -1.7988288241,
				"y": -1.0790639212,
				"z": 3.4013581601,
				"element": "Cl" 
			},
			{
				"x": 0.1430073599,
				"y": -0.5579576519,
				"z": -0.2223995528,
				"element": "C" 
			},
			{
				"x": 1.0453477909,
				"y": -1.2985727533,
				"z": -0.875843131,
				"element": "O" 
			},
			{
				"x": -0.419842184,
				"y": 0.3966647137,
				"z": -0.7049338372,
				"element": "O" 
			},
			{
				"x": 0.6190423447,
				"y": -2.611214281,
				"z": 2.3437502675,
				"element": "H" 
			},
			{
				"x": -0.3634065995,
				"y": -3.0604680138,
				"z": 1.1191565081,
				"element": "H" 
			},
			{
				"x": 0.5737732257,
				"y": -0.3970528852,
				"z": 1.8533703035,
				"element": "H" 
			},
			{
				"x": -2.2324509002,
				"y": -1.3631088732,
				"z": 1.0863912838,
				"element": "H" 
			},
			{
				"x": -1.7751516027,
				"y": 0.310793609,
				"z": 1.4634920719,
				"element": "H" 
			},
			{
				"x": 1.2893633013,
				"y": -2.018576399,
				"z": -0.247411601,
				"element": "H" 
			}
		],
		 "valence_orbital": [ 
			{
				"type": "occ",
				"energy": -0.31661,
				"method": "rhf"
			},
			{
				"type": "occ",
				"energy": -0.31584,
				"method": "rhf"
			},
			{
				"type": "occ",
				"energy": -0.31288,
				"method": "rhf"
			},
			{
				"type": "occ",
				"energy": -0.30701,
				"method": "rhf"
			},
			{
				"type": "occ",
				"energy": -0.26749,
				"method": "rhf"
			},
			{
				"type": "unocc",
				"energy": -0.00616,
				"method": "rhf"
			},
			{
				"type": "unocc",
				"energy": 0.02117,
				"method": "rhf"
			},
			{
				"type": "unocc",
				"energy": 0.05787,
				"method": "rhf"
			},
			{
				"type": "unocc",
				"energy": 0.0936,
				"method": "rhf"
			},
			{
				"type": "unocc",
				"energy": 0.11625,
				"method": "rhf"
			}
		],
		"cosmo_sigma_profile": { 
			"-0.025": 0.0,
			"-0.024": 0.0,
			"-0.023": 0.0,
			"-0.022": 0.0,
			"-0.021": 0.0,
			"-0.02": 0.0,
			"-0.019": 0.0,
			"-0.018": 0.0,
			"-0.017": 0.0,
			"-0.016": 0.0,
			"-0.015": 0.0,
			"-0.014": 0.000958865359786,
			"-0.013": 0.710684628024,
			"-0.012": 2.84113212419,
			"-0.011": 3.83159882313,
			"-0.01": 3.85151066836,
			"-0.009": 5.08316616936,
			"-0.008": 8.92701699244,
			"-0.007": 8.16939276711,
			"-0.006": 8.43369698345,
			"-0.005": 6.75351351638,
			"-0.004": 6.13030843897,
			"-0.003": 5.46967575493,
			"-0.002": 4.68644339801,
			"-0.001": 5.58779676665,
			"0.0": 5.80274861018,
			"0.001": 5.53805774766,
			"0.002": 4.83542967757,
			"0.003": 7.30053658508,
			"0.004": 7.39081178901,
			"0.005": 8.15762570562,
			"0.006": 10.6132827187,
			"0.007": 4.71337018973,
			"0.008": 2.22777637072,
			"0.009": 3.63987313139,
			"0.01": 5.27298371615,
			"0.011": 4.62626988337,
			"0.012": 4.48380753227,
			"0.013": 1.74822933376,
			"0.014": 0.135788968404,
			"0.015": 0.0,
			"0.016": 0.0,
			"0.017": 0.0,
			"0.018": 0.0,
			"0.019": 0.0,
			"0.02": 0.0,
			"0.021": 0.0,
			"0.022": 0.0,
			"0.023": 0.0,
			"0.024": 0.0,
			"0.025": 0.0
		}
	}
}
