{
	 "smiles": "NC(=O)C1=CC(Br)=NC=C1", 
	 "Tm": 465.15, 
	 "num_atms": 15, 
	 "gaussian": { 
		 "optdone": 1, 
		 "sigma_profile": "yes", 
		 "theory": "DFT", 
		 "functional": "B3LYP", 
		 "basiset": "6-31G**", 
		 "properties": { 
			 "R2extent": 2719.7452, 
			 "electric_dipole_moment_norm": 2.96522996579, 
			 "electric_quadrupole_moment_norm": 15.8987719916, 
			 "total_energy": -2987.79199023, 
			 "HOMO_LUMO_gap": 0.19253, 
			 "cosmo_polarized_energy": -14.52, 
			 "cosmo_cavitation_energy": 22.34, 
			 "cosmo_dispersion_energy": -17.07, 
			 "cosmo_repulsion_energy": 1.4, 
			 "cosmo_total_nonelectrostatic_energy": 6.67, 
			 "SMD_solvation_energy": 2.18 
		},
		"coords": [
			{
				"x": 1.8382892925,
				"y": 2.2516438115,
				"z": -0.0492198451,
				"element": "N" 
			},
			{
				"x": 0.539263705,
				"y": 2.4357945935,
				"z": 0.3412976469,
				"element": "C" 
			},
			{
				"x": 0.1268707151,
				"y": 3.4996129157,
				"z": 0.7813606679,
				"element": "O" 
			},
			{
				"x": -0.3800396653,
				"y": 1.2495575548,
				"z": 0.1771768274,
				"element": "C" 
			},
			{
				"x": -0.1099260662,
				"y": 0.173885036,
				"z": -0.6714575881,
				"element": "C" 
			},
			{
				"x": -1.0560387495,
				"y": -0.8532747032,
				"z": -0.7306865443,
				"element": "C" 
			},
			{
				"x": -0.7030064961,
				"y": -2.3411559575,
				"z": -1.8963018969,
				"element": "Br" 
			},
			{
				"x": -2.1823257264,
				"y": -0.8838739816,
				"z": -0.0477078236,
				"element": "N" 
			},
			{
				"x": -2.4383636138,
				"y": 0.1619659931,
				"z": 0.7565121417,
				"element": "C" 
			},
			{
				"x": -1.5801671982,
				"y": 1.2465656139,
				"z": 0.8980066684,
				"element": "C" 
			},
			{
				"x": 2.4722732937,
				"y": 3.0125446258,
				"z": 0.1476130118,
				"element": "H" 
			},
			{
				"x": 2.2336571262,
				"y": 1.3289265292,
				"z": -0.136979798,
				"element": "H" 
			},
			{
				"x": 0.77567785,
				"y": 0.1320078035,
				"z": -1.2936714198,
				"element": "H" 
			},
			{
				"x": -3.3758513804,
				"y": 0.1180814342,
				"z": 1.3054830197,
				"element": "H" 
			},
			{
				"x": -1.8168130865,
				"y": 2.083918731,
				"z": 1.543874932,
				"element": "H" 
			}
		],
		 "valence_orbital": [ 
			{
				"type": "occ",
				"energy": -0.29515,
				"method": "rhf"
			},
			{
				"type": "occ",
				"energy": -0.29039,
				"method": "rhf"
			},
			{
				"type": "occ",
				"energy": -0.28128,
				"method": "rhf"
			},
			{
				"type": "occ",
				"energy": -0.2702,
				"method": "rhf"
			},
			{
				"type": "occ",
				"energy": -0.26161,
				"method": "rhf"
			},
			{
				"type": "unocc",
				"energy": -0.06908,
				"method": "rhf"
			},
			{
				"type": "unocc",
				"energy": -0.03466,
				"method": "rhf"
			},
			{
				"type": "unocc",
				"energy": 0.00185,
				"method": "rhf"
			},
			{
				"type": "unocc",
				"energy": 0.03564,
				"method": "rhf"
			},
			{
				"type": "unocc",
				"energy": 0.06519,
				"method": "rhf"
			}
		],
		"cosmo_sigma_profile": { 
			"-0.025": 0.0,
			"-0.024": 0.0,
			"-0.023": 0.0,
			"-0.022": 0.0,
			"-0.021": 0.0,
			"-0.02": 0.0,
			"-0.019": 0.0,
			"-0.018": 0.0,
			"-0.017": 0.0,
			"-0.016": 0.11766868504,
			"-0.015": 1.44659322508,
			"-0.014": 2.93690724782,
			"-0.013": 2.03582851753,
			"-0.012": 2.71366766587,
			"-0.011": 2.91354714814,
			"-0.01": 2.8879866184,
			"-0.009": 2.53227530196,
			"-0.008": 3.29454885416,
			"-0.007": 6.91233931591,
			"-0.006": 6.64685178214,
			"-0.005": 4.84553589339,
			"-0.004": 7.52381911319,
			"-0.003": 9.24014468303,
			"-0.002": 11.2752261203,
			"-0.001": 17.049388889,
			"0.0": 16.8766350827,
			"0.001": 11.5022022776,
			"0.002": 10.3675651408,
			"0.003": 10.3417523,
			"0.004": 13.4795980158,
			"0.005": 6.12139691352,
			"0.006": 4.75974040939,
			"0.007": 3.3369285067,
			"0.008": 2.61635534496,
			"0.009": 2.20065455805,
			"0.01": 2.75838766437,
			"0.011": 3.31301870887,
			"0.012": 3.95979528719,
			"0.013": 5.6548078154,
			"0.014": 1.11615922886,
			"0.015": 0.0,
			"0.016": 0.0,
			"0.017": 0.0,
			"0.018": 0.0,
			"0.019": 0.0,
			"0.02": 0.0,
			"0.021": 0.0,
			"0.022": 0.0,
			"0.023": 0.0,
			"0.024": 0.0,
			"0.025": 0.0
		}
	}
}
