{
	 "smiles": "CCOC(=O)C1=NN(C(=O)C1C(Br)C1(Br)C(=O)N(N=C1C(=O)OCC)C1=CC=CC=C1)C1=CC=CC=C1", 
	 "Tm": 474.15, 
	 "num_atms": 59, 
	 "gaussian": { 
		 "optdone": 1, 
		 "sigma_profile": "yes", 
		 "theory": "DFT", 
		 "functional": "B3LYP", 
		 "basiset": "6-31G**", 
		 "properties": { 
			 "R2extent": 22425.1505, 
			 "electric_dipole_moment_norm": 4.76086483425, 
			 "electric_quadrupole_moment_norm": 15.015203254, 
			 "total_energy": -6779.03834357, 
			 "HOMO_LUMO_gap": 0.13375, 
			 "cosmo_polarized_energy": -21.37, 
			 "cosmo_cavitation_energy": 66.41, 
			 "cosmo_dispersion_energy": -42.83, 
			 "cosmo_repulsion_energy": 3.22, 
			 "cosmo_total_nonelectrostatic_energy": 26.8, 
			 "SMD_solvation_energy": 10.34 
		},
		"coords": [
			{
				"x": 3.5978521627,
				"y": 4.715708952,
				"z": 0.6690560937,
				"element": "C" 
			},
			{
				"x": 2.0904930683,
				"y": 4.5562132572,
				"z": 0.665692822,
				"element": "C" 
			},
			{
				"x": 1.7942006359,
				"y": 3.2351767818,
				"z": 1.188733197,
				"element": "O" 
			},
			{
				"x": 0.499105241,
				"y": 2.9112746377,
				"z": 1.2412977102,
				"element": "C" 
			},
			{
				"x": -0.4188995467,
				"y": 3.6277121874,
				"z": 0.8825783291,
				"element": "O" 
			},
			{
				"x": 0.2524162395,
				"y": 1.5620354928,
				"z": 1.8051883577,
				"element": "C" 
			},
			{
				"x": 1.132128876,
				"y": 0.9182009215,
				"z": 2.4945401325,
				"element": "N" 
			},
			{
				"x": 0.5583934097,
				"y": -0.2330250404,
				"z": 2.9884841486,
				"element": "N" 
			},
			{
				"x": -0.7763741448,
				"y": -0.3945331884,
				"z": 2.5796836107,
				"element": "C" 
			},
			{
				"x": -1.501659754,
				"y": -1.3363271181,
				"z": 2.818934572,
				"element": "O" 
			},
			{
				"x": -1.1069575767,
				"y": 0.9135112977,
				"z": 1.8496886071,
				"element": "C" 
			},
			{
				"x": -1.9849789396,
				"y": 0.9158118868,
				"z": 0.5935102916,
				"element": "C" 
			},
			{
				"x": -3.8476941268,
				"y": 0.4042241401,
				"z": 1.1125103433,
				"element": "Br" 
			},
			{
				"x": -1.6610974342,
				"y": 0.1228133646,
				"z": -0.6797424466,
				"element": "C" 
			},
			{
				"x": 0.1664750564,
				"y": 0.6019134941,
				"z": -1.3473889664,
				"element": "Br" 
			},
			{
				"x": -2.6251431623,
				"y": 0.6256478992,
				"z": -1.7959666273,
				"element": "C" 
			},
			{
				"x": -2.8622973755,
				"y": 1.7807318013,
				"z": -2.0711979542,
				"element": "O" 
			},
			{
				"x": -3.1508830676,
				"y": -0.5286299479,
				"z": -2.3598077501,
				"element": "N" 
			},
			{
				"x": -2.683912138,
				"y": -1.6661120163,
				"z": -1.7511802345,
				"element": "N" 
			},
			{
				"x": -1.8614093165,
				"y": -1.3677700575,
				"z": -0.8004391674,
				"element": "C" 
			},
			{
				"x": -1.1915366321,
				"y": -2.5224923225,
				"z": -0.1218853262,
				"element": "C" 
			},
			{
				"x": -1.6726271816,
				"y": -3.6306183538,
				"z": -0.0721461486,
				"element": "O" 
			},
			{
				"x": 0.0220338371,
				"y": -2.1767631217,
				"z": 0.3435306273,
				"element": "O" 
			},
			{
				"x": 0.8101930511,
				"y": -3.2569691391,
				"z": 0.919664622,
				"element": "C" 
			},
			{
				"x": 1.4879463813,
				"y": -4.0821349632,
				"z": -0.16301359,
				"element": "C" 
			},
			{
				"x": -4.0811740717,
				"y": -0.6533059242,
				"z": -3.4349949681,
				"element": "C" 
			},
			{
				"x": -4.5076265981,
				"y": 0.4776106321,
				"z": -4.1438069452,
				"element": "C" 
			},
			{
				"x": -5.4159904983,
				"y": 0.3180617543,
				"z": -5.190475604,
				"element": "C" 
			},
			{
				"x": -5.8984808018,
				"y": -0.9440749287,
				"z": -5.5362333089,
				"element": "C" 
			},
			{
				"x": -5.4650944691,
				"y": -2.061663532,
				"z": -4.8204161226,
				"element": "C" 
			},
			{
				"x": -4.5600489228,
				"y": -1.9266993538,
				"z": -3.7703073022,
				"element": "C" 
			},
			{
				"x": 1.3513571845,
				"y": -1.1040483925,
				"z": 3.7888408853,
				"element": "C" 
			},
			{
				"x": 0.7567299504,
				"y": -2.1416521173,
				"z": 4.5219329243,
				"element": "C" 
			},
			{
				"x": 1.5621301776,
				"y": -2.9705672755,
				"z": 5.3032280899,
				"element": "C" 
			},
			{
				"x": 2.9424290034,
				"y": -2.7783685722,
				"z": 5.3670095123,
				"element": "C" 
			},
			{
				"x": 3.5224260556,
				"y": -1.7400639846,
				"z": 4.635451418,
				"element": "C" 
			},
			{
				"x": 2.7379555163,
				"y": -0.9023062596,
				"z": 3.8456964746,
				"element": "C" 
			},
			{
				"x": 4.0727784342,
				"y": 3.9585478702,
				"z": 0.038980358,
				"element": "H" 
			},
			{
				"x": 3.8638817581,
				"y": 5.7036144613,
				"z": 0.2807702881,
				"element": "H" 
			},
			{
				"x": 3.9990192685,
				"y": 4.623632474,
				"z": 1.6821616428,
				"element": "H" 
			},
			{
				"x": 1.5932752899,
				"y": 5.300345227,
				"z": 1.2954613403,
				"element": "H" 
			},
			{
				"x": 1.6655462659,
				"y": 4.6351211591,
				"z": -0.3394688922,
				"element": "H" 
			},
			{
				"x": -1.6890152436,
				"y": 1.4999086928,
				"z": 2.577897179,
				"element": "H" 
			},
			{
				"x": -2.086209138,
				"y": 1.955137448,
				"z": 0.2781682807,
				"element": "H" 
			},
			{
				"x": 0.1544337567,
				"y": -3.8675306018,
				"z": 1.5432201544,
				"element": "H" 
			},
			{
				"x": 1.5381847472,
				"y": -2.7466339376,
				"z": 1.5503085631,
				"element": "H" 
			},
			{
				"x": 0.749297279,
				"y": -4.6041051697,
				"z": -0.775209352,
				"element": "H" 
			},
			{
				"x": 2.1030747274,
				"y": -3.4479149463,
				"z": -0.8080510757,
				"element": "H" 
			},
			{
				"x": 2.1379465074,
				"y": -4.8300490204,
				"z": 0.3031044744,
				"element": "H" 
			},
			{
				"x": -4.1399989067,
				"y": 1.4580749401,
				"z": -3.8757788218,
				"element": "H" 
			},
			{
				"x": -5.7454897247,
				"y": 1.1964923869,
				"z": -5.7374912762,
				"element": "H" 
			},
			{
				"x": -6.6051455381,
				"y": -1.056324732,
				"z": -6.3528354152,
				"element": "H" 
			},
			{
				"x": -5.8332471738,
				"y": -3.0508530929,
				"z": -5.0761058449,
				"element": "H" 
			},
			{
				"x": -4.2222379227,
				"y": -2.7899755815,
				"z": -3.2115646321,
				"element": "H" 
			},
			{
				"x": -0.3114690089,
				"y": -2.2988012471,
				"z": 4.4697109755,
				"element": "H" 
			},
			{
				"x": 1.0968661786,
				"y": -3.7726871786,
				"z": 5.8685454076,
				"element": "H" 
			},
			{
				"x": 3.5592774086,
				"y": -3.4289056543,
				"z": 5.9793731183,
				"element": "H" 
			},
			{
				"x": 4.5953848591,
				"y": -1.5766393363,
				"z": 4.67577844,
				"element": "H" 
			},
			{
				"x": 3.1822660874,
				"y": -0.0920770518,
				"z": 3.2816747807,
				"element": "H" 
			}
		],
		 "valence_orbital": [ 
			{
				"type": "occ",
				"energy": -0.26948,
				"method": "rhf"
			},
			{
				"type": "occ",
				"energy": -0.26184,
				"method": "rhf"
			},
			{
				"type": "occ",
				"energy": -0.25434,
				"method": "rhf"
			},
			{
				"type": "occ",
				"energy": -0.23223,
				"method": "rhf"
			},
			{
				"type": "occ",
				"energy": -0.22852,
				"method": "rhf"
			},
			{
				"type": "unocc",
				"energy": -0.09477,
				"method": "rhf"
			},
			{
				"type": "unocc",
				"energy": -0.07962,
				"method": "rhf"
			},
			{
				"type": "unocc",
				"energy": -0.04879,
				"method": "rhf"
			},
			{
				"type": "unocc",
				"energy": -0.03549,
				"method": "rhf"
			},
			{
				"type": "unocc",
				"energy": -0.0284,
				"method": "rhf"
			}
		],
		"cosmo_sigma_profile": { 
			"-0.025": 0.0,
			"-0.024": 0.0,
			"-0.023": 0.0,
			"-0.022": 0.0,
			"-0.021": 0.0,
			"-0.02": 0.0,
			"-0.019": 0.0,
			"-0.018": 0.0,
			"-0.017": 0.0,
			"-0.016": 0.0,
			"-0.015": 0.0,
			"-0.014": 0.0,
			"-0.013": 0.286139512877,
			"-0.012": 1.50769063285,
			"-0.011": 2.24015205658,
			"-0.01": 1.53774250189,
			"-0.009": 1.50406647309,
			"-0.008": 2.29063172877,
			"-0.007": 4.10621691862,
			"-0.006": 21.6962598474,
			"-0.005": 37.7623082859,
			"-0.004": 53.0952794933,
			"-0.003": 45.56023528,
			"-0.002": 45.1383235914,
			"-0.001": 49.1921500478,
			"0.0": 44.9696815041,
			"0.001": 40.5148100843,
			"0.002": 38.0283309299,
			"0.003": 37.1428265214,
			"0.004": 34.6276676782,
			"0.005": 18.8733235678,
			"0.006": 8.41388792303,
			"0.007": 7.99624306292,
			"0.008": 8.8799935907,
			"0.009": 9.52879063871,
			"0.01": 11.0544813504,
			"0.011": 7.94587470578,
			"0.012": 1.78243387984,
			"0.013": 0.121122739311,
			"0.014": 0.0,
			"0.015": 0.0,
			"0.016": 0.0,
			"0.017": 0.0,
			"0.018": 0.0,
			"0.019": 0.0,
			"0.02": 0.0,
			"0.021": 0.0,
			"0.022": 0.0,
			"0.023": 0.0,
			"0.024": 0.0,
			"0.025": 0.0
		}
	}
}
