{
	 "smiles": "CC1=CC=C(Cl)C(C)=C1N", 
	 "Tm": 304.15, 
	 "num_atms": 20, 
	 "gaussian": { 
		 "optdone": 1, 
		 "sigma_profile": "yes", 
		 "theory": "DFT", 
		 "functional": "B3LYP", 
		 "basiset": "6-31G**", 
		 "properties": { 
			 "R2extent": 1932.7135, 
			 "electric_dipole_moment_norm": 3.30666999412, 
			 "electric_quadrupole_moment_norm": 8.78665919562, 
			 "total_energy": -825.840055482, 
			 "HOMO_LUMO_gap": 0.20651, 
			 "cosmo_polarized_energy": -7.91, 
			 "cosmo_cavitation_energy": 24.01, 
			 "cosmo_dispersion_energy": -18.18, 
			 "cosmo_repulsion_energy": 1.46, 
			 "cosmo_total_nonelectrostatic_energy": 7.3, 
			 "SMD_solvation_energy": 3.73 
		},
		"coords": [
			{
				"x": 0.772148298,
				"y": 1.0605038203,
				"z": -2.4378419354,
				"element": "C" 
			},
			{
				"x": 0.6270256476,
				"y": 0.456267991,
				"z": -1.0630562674,
				"element": "C" 
			},
			{
				"x": 1.6696652195,
				"y": -0.2611799757,
				"z": -0.4773229768,
				"element": "C" 
			},
			{
				"x": 1.5534531962,
				"y": -0.8171004041,
				"z": 0.7939069563,
				"element": "C" 
			},
			{
				"x": 0.3612269292,
				"y": -0.637453399,
				"z": 1.4914640277,
				"element": "C" 
			},
			{
				"x": 0.2570951092,
				"y": -1.3590429508,
				"z": 3.1041784862,
				"element": "Cl" 
			},
			{
				"x": -0.7225702223,
				"y": 0.0750774672,
				"z": 0.9649698951,
				"element": "C" 
			},
			{
				"x": -2.014826025,
				"y": 0.3001453899,
				"z": 1.7085629344,
				"element": "C" 
			},
			{
				"x": -0.5731891922,
				"y": 0.6163316471,
				"z": -0.3357267875,
				"element": "C" 
			},
			{
				"x": -1.6137246843,
				"y": 1.3734392977,
				"z": -0.8817313723,
				"element": "N" 
			},
			{
				"x": 1.7684289611,
				"y": 0.8702733126,
				"z": -2.8443443751,
				"element": "H" 
			},
			{
				"x": 0.0478589173,
				"y": 0.6436975943,
				"z": -3.1527830901,
				"element": "H" 
			},
			{
				"x": 0.6199918664,
				"y": 2.1472912377,
				"z": -2.4221311997,
				"element": "H" 
			},
			{
				"x": 2.5964154487,
				"y": -0.3900733141,
				"z": -1.030523619,
				"element": "H" 
			},
			{
				"x": 2.3677712708,
				"y": -1.3748546269,
				"z": 1.2404028311,
				"element": "H" 
			},
			{
				"x": -1.9668850518,
				"y": -0.0870909519,
				"z": 2.7252793135,
				"element": "H" 
			},
			{
				"x": -2.8592274613,
				"y": -0.1975950179,
				"z": 1.2102878997,
				"element": "H" 
			},
			{
				"x": -2.2525493399,
				"y": 1.3695258967,
				"z": 1.7626096387,
				"element": "H" 
			},
			{
				"x": -1.6076477147,
				"y": 1.452246994,
				"z": -1.8883265958,
				"element": "H" 
			},
			{
				"x": -2.5365611728,
				"y": 1.1698899919,
				"z": -0.5265737636,
				"element": "H" 
			}
		],
		 "valence_orbital": [ 
			{
				"type": "occ",
				"energy": -0.33755,
				"method": "rhf"
			},
			{
				"type": "occ",
				"energy": -0.30066,
				"method": "rhf"
			},
			{
				"type": "occ",
				"energy": -0.29594,
				"method": "rhf"
			},
			{
				"type": "occ",
				"energy": -0.23079,
				"method": "rhf"
			},
			{
				"type": "occ",
				"energy": -0.20332,
				"method": "rhf"
			},
			{
				"type": "unocc",
				"energy": 0.00319,
				"method": "rhf"
			},
			{
				"type": "unocc",
				"energy": 0.01268,
				"method": "rhf"
			},
			{
				"type": "unocc",
				"energy": 0.04023,
				"method": "rhf"
			},
			{
				"type": "unocc",
				"energy": 0.07089,
				"method": "rhf"
			},
			{
				"type": "unocc",
				"energy": 0.10175,
				"method": "rhf"
			}
		],
		"cosmo_sigma_profile": { 
			"-0.025": 0.0,
			"-0.024": 0.0,
			"-0.023": 0.0,
			"-0.022": 0.0,
			"-0.021": 0.0,
			"-0.02": 0.0,
			"-0.019": 0.0,
			"-0.018": 0.0,
			"-0.017": 0.0,
			"-0.016": 0.0,
			"-0.015": 0.0,
			"-0.014": 0.0,
			"-0.013": 0.0,
			"-0.012": 0.905663531726,
			"-0.011": 2.2047900656,
			"-0.01": 2.70478710884,
			"-0.009": 3.02191726601,
			"-0.008": 3.22661841713,
			"-0.007": 2.62341555759,
			"-0.006": 4.14237700248,
			"-0.005": 9.60740962454,
			"-0.004": 14.2773083011,
			"-0.003": 12.3593779914,
			"-0.002": 14.1419254171,
			"-0.001": 15.9423009274,
			"0.0": 18.0906408682,
			"0.001": 14.7958253747,
			"0.002": 12.1696381454,
			"0.003": 13.8614713038,
			"0.004": 14.8635429789,
			"0.005": 17.4001763504,
			"0.006": 10.0300456011,
			"0.007": 1.29675606502,
			"0.008": 0.846710851576,
			"0.009": 0.917172480717,
			"0.01": 0.309735977788,
			"0.011": 0.547357264471,
			"0.012": 0.772851310113,
			"0.013": 0.382411293001,
			"0.014": 0.461234590531,
			"0.015": 0.00393817540421,
			"0.016": 0.0,
			"0.017": 0.0,
			"0.018": 0.0,
			"0.019": 0.0,
			"0.02": 0.0,
			"0.021": 0.0,
			"0.022": 0.0,
			"0.023": 0.0,
			"0.024": 0.0,
			"0.025": 0.0
		}
	}
}
