{
	 "smiles": "CCC1=NN(C)C2=C1C(N)=NN2", 
	 "Tm": 397.15, 
	 "num_atms": 23, 
	 "gaussian": { 
		 "optdone": 1, 
		 "sigma_profile": "yes", 
		 "theory": "DFT", 
		 "functional": "B3LYP", 
		 "basiset": "6-31G**", 
		 "properties": { 
			 "R2extent": 2504.3664, 
			 "electric_dipole_moment_norm": 1.39244330585, 
			 "electric_quadrupole_moment_norm": 19.0841185704, 
			 "total_energy": -547.081411711, 
			 "HOMO_LUMO_gap": 0.21527, 
			 "cosmo_polarized_energy": -15.93, 
			 "cosmo_cavitation_energy": 26.65, 
			 "cosmo_dispersion_energy": -19.43, 
			 "cosmo_repulsion_energy": 1.59, 
			 "cosmo_total_nonelectrostatic_energy": 8.8, 
			 "SMD_solvation_energy": 2.6 
		},
		"coords": [
			{
				"x": -0.4900597039,
				"y": -1.1069406832,
				"z": 2.0686505446,
				"element": "C" 
			},
			{
				"x": 0.5757524593,
				"y": -0.3203356211,
				"z": 1.2868587768,
				"element": "C" 
			},
			{
				"x": 0.1543284587,
				"y": 0.0002362307,
				"z": -0.1173581605,
				"element": "C" 
			},
			{
				"x": 0.874908509,
				"y": -0.4211708916,
				"z": -1.1523991898,
				"element": "N" 
			},
			{
				"x": 0.2497202522,
				"y": 0.0370956996,
				"z": -2.3001974914,
				"element": "N" 
			},
			{
				"x": 0.7297231151,
				"y": -0.3723572734,
				"z": -3.6003405024,
				"element": "C" 
			},
			{
				"x": -0.8794408682,
				"y": 0.7030398392,
				"z": -1.9587280913,
				"element": "C" 
			},
			{
				"x": -0.9869613449,
				"y": 0.7301759943,
				"z": -0.5739428267,
				"element": "C" 
			},
			{
				"x": -2.1937569366,
				"y": 1.4708476648,
				"z": -0.3463877015,
				"element": "C" 
			},
			{
				"x": -2.8091963102,
				"y": 1.7284038441,
				"z": 0.8773553873,
				"element": "N" 
			},
			{
				"x": -2.749540265,
				"y": 1.8585449333,
				"z": -1.4851735102,
				"element": "N" 
			},
			{
				"x": -1.8963958162,
				"y": 1.4241624774,
				"z": -2.5070116365,
				"element": "N" 
			},
			{
				"x": -0.1608244145,
				"y": -1.2927329188,
				"z": 3.0962298574,
				"element": "H" 
			},
			{
				"x": -0.6852859767,
				"y": -2.0735302962,
				"z": 1.5939721891,
				"element": "H" 
			},
			{
				"x": -1.4385384931,
				"y": -0.5608062684,
				"z": 2.1079405192,
				"element": "H" 
			},
			{
				"x": 0.8016573679,
				"y": 0.6129129372,
				"z": 1.8216300522,
				"element": "H" 
			},
			{
				"x": 1.5105434596,
				"y": -0.8869916994,
				"z": 1.2367480334,
				"element": "H" 
			},
			{
				"x": 0.2109776036,
				"y": -1.2656821548,
				"z": -3.9700871058,
				"element": "H" 
			},
			{
				"x": 0.5976965262,
				"y": 0.4422020942,
				"z": -4.3191985402,
				"element": "H" 
			},
			{
				"x": 1.7929582406,
				"y": -0.595115758,
				"z": -3.5067454142,
				"element": "H" 
			},
			{
				"x": -2.1655136868,
				"y": 2.0380847261,
				"z": 1.5948720693,
				"element": "H" 
			},
			{
				"x": -3.5804676167,
				"y": 2.3784076122,
				"z": 0.7767027365,
				"element": "H" 
			},
			{
				"x": -2.3028845595,
				"y": 1.3155495118,
				"z": -3.4224899953,
				"element": "H" 
			}
		],
		 "valence_orbital": [ 
			{
				"type": "occ",
				"energy": -0.30618,
				"method": "rhf"
			},
			{
				"type": "occ",
				"energy": -0.26298,
				"method": "rhf"
			},
			{
				"type": "occ",
				"energy": -0.24635,
				"method": "rhf"
			},
			{
				"type": "occ",
				"energy": -0.22442,
				"method": "rhf"
			},
			{
				"type": "occ",
				"energy": -0.19562,
				"method": "rhf"
			},
			{
				"type": "unocc",
				"energy": 0.01965,
				"method": "rhf"
			},
			{
				"type": "unocc",
				"energy": 0.04707,
				"method": "rhf"
			},
			{
				"type": "unocc",
				"energy": 0.0632,
				"method": "rhf"
			},
			{
				"type": "unocc",
				"energy": 0.08291,
				"method": "rhf"
			},
			{
				"type": "unocc",
				"energy": 0.11796,
				"method": "rhf"
			}
		],
		"cosmo_sigma_profile": { 
			"-0.025": 0.0,
			"-0.024": 0.0,
			"-0.023": 0.0,
			"-0.022": 0.0,
			"-0.021": 0.0,
			"-0.02": 0.0,
			"-0.019": 0.0,
			"-0.018": 0.0,
			"-0.017": 0.0,
			"-0.016": 0.337413801681,
			"-0.015": 1.42913546334,
			"-0.014": 1.2685454997,
			"-0.013": 1.77066550621,
			"-0.012": 3.10627490148,
			"-0.011": 3.51751630841,
			"-0.01": 3.07336446147,
			"-0.009": 3.81683304626,
			"-0.008": 4.19806750533,
			"-0.007": 5.03344982344,
			"-0.006": 7.22993558473,
			"-0.005": 11.3232848816,
			"-0.004": 11.892936914,
			"-0.003": 17.9975698497,
			"-0.002": 13.5788688151,
			"-0.001": 16.5484728933,
			"0.0": 16.2783005111,
			"0.001": 13.5892847549,
			"0.002": 7.8569357472,
			"0.003": 9.40377387939,
			"0.004": 11.6242764165,
			"0.005": 8.21699118388,
			"0.006": 4.80150511397,
			"0.007": 4.61588536941,
			"0.008": 5.00565138521,
			"0.009": 3.74158638555,
			"0.01": 3.39114276405,
			"0.011": 3.20439066471,
			"0.012": 2.13274251971,
			"0.013": 3.15061385262,
			"0.014": 2.97954406452,
			"0.015": 1.93929646791,
			"0.016": 1.43681637748,
			"0.017": 0.53536509119,
			"0.018": 0.0,
			"0.019": 0.0,
			"0.02": 0.0,
			"0.021": 0.0,
			"0.022": 0.0,
			"0.023": 0.0,
			"0.024": 0.0,
			"0.025": 0.0
		}
	}
}
