{
	 "smiles": "NC(=O)NC1=C(OC2=CC=CC=C2)C=CC=C1", 
	 "Tm": 456.15, 
	 "num_atms": 29, 
	 "gaussian": { 
		 "optdone": 1, 
		 "sigma_profile": "yes", 
		 "theory": "DFT", 
		 "functional": "B3LYP", 
		 "basiset": "6-31G**", 
		 "properties": { 
			 "R2extent": 4212.4417, 
			 "electric_dipole_moment_norm": 3.72697187271, 
			 "electric_quadrupole_moment_norm": 14.839591737, 
			 "total_energy": -762.582291143, 
			 "HOMO_LUMO_gap": 0.2085, 
			 "cosmo_polarized_energy": -15.02, 
			 "cosmo_cavitation_energy": 33.47, 
			 "cosmo_dispersion_energy": -23.32, 
			 "cosmo_repulsion_energy": 1.83, 
			 "cosmo_total_nonelectrostatic_energy": 11.99, 
			 "SMD_solvation_energy": 6.63 
		},
		"coords": [
			{
				"x": 0.9003726419,
				"y": 2.2769296582,
				"z": 1.5414088207,
				"element": "N" 
			},
			{
				"x": -0.3959228296,
				"y": 1.8454024754,
				"z": 1.6679087663,
				"element": "C" 
			},
			{
				"x": -1.0467164476,
				"y": 1.9319934825,
				"z": 2.6995912975,
				"element": "O" 
			},
			{
				"x": -0.9949115456,
				"y": 1.3043785166,
				"z": 0.513162233,
				"element": "N" 
			},
			{
				"x": -0.6668722223,
				"y": 1.5305504194,
				"z": -0.8435908339,
				"element": "C" 
			},
			{
				"x": 0.5440555524,
				"y": 1.1008891879,
				"z": -1.416515992,
				"element": "C" 
			},
			{
				"x": 1.5275946354,
				"y": 0.515958091,
				"z": -0.6255490755,
				"element": "O" 
			},
			{
				"x": 1.5066945709,
				"y": -0.8558333527,
				"z": -0.4039821269,
				"element": "C" 
			},
			{
				"x": 0.563834941,
				"y": -1.7138411274,
				"z": -0.9702903925,
				"element": "C" 
			},
			{
				"x": 0.6408484801,
				"y": -3.0808592986,
				"z": -0.6923465472,
				"element": "C" 
			},
			{
				"x": 1.6420529392,
				"y": -3.5879554611,
				"z": 0.1356167547,
				"element": "C" 
			},
			{
				"x": 2.5793777787,
				"y": -2.7137394495,
				"z": 0.6925180385,
				"element": "C" 
			},
			{
				"x": 2.5172450736,
				"y": -1.3480256484,
				"z": 0.4256241245,
				"element": "C" 
			},
			{
				"x": 0.8200627573,
				"y": 1.3127300302,
				"z": -2.7661305077,
				"element": "C" 
			},
			{
				"x": -0.1258523615,
				"y": 1.9210941909,
				"z": -3.5892482411,
				"element": "C" 
			},
			{
				"x": -1.3488408192,
				"y": 2.3220190619,
				"z": -3.0477503916,
				"element": "C" 
			},
			{
				"x": -1.6082552048,
				"y": 2.1359347155,
				"z": -1.6921772564,
				"element": "C" 
			},
			{
				"x": 1.3190282408,
				"y": 2.5092196663,
				"z": 2.429875886,
				"element": "H" 
			},
			{
				"x": 1.4977942398,
				"y": 1.8163811069,
				"z": 0.8664673817,
				"element": "H" 
			},
			{
				"x": -1.9846341616,
				"y": 1.1946409725,
				"z": 0.6931101871,
				"element": "H" 
			},
			{
				"x": -0.2157736013,
				"y": -1.3241243521,
				"z": -1.6141705156,
				"element": "H" 
			},
			{
				"x": -0.0939166818,
				"y": -3.7502222372,
				"z": -1.1305428132,
				"element": "H" 
			},
			{
				"x": 1.692524886,
				"y": -4.6516233124,
				"z": 0.3459761031,
				"element": "H" 
			},
			{
				"x": 3.3647456384,
				"y": -3.0946509039,
				"z": 1.3388553694,
				"element": "H" 
			},
			{
				"x": 3.2394740357,
				"y": -0.6561882686,
				"z": 0.8470005515,
				"element": "H" 
			},
			{
				"x": 1.7774615198,
				"y": 0.9790088461,
				"z": -3.1530846555,
				"element": "H" 
			},
			{
				"x": 0.0900898541,
				"y": 2.0773321826,
				"z": -4.6413236144,
				"element": "H" 
			},
			{
				"x": -2.0968781312,
				"y": 2.7957582981,
				"z": -3.6760907974,
				"element": "H" 
			},
			{
				"x": -2.5492837785,
				"y": 2.4719425099,
				"z": -1.265121753,
				"element": "H" 
			}
		],
		 "valence_orbital": [ 
			{
				"type": "occ",
				"energy": -0.25981,
				"method": "rhf"
			},
			{
				"type": "occ",
				"energy": -0.25636,
				"method": "rhf"
			},
			{
				"type": "occ",
				"energy": -0.25411,
				"method": "rhf"
			},
			{
				"type": "occ",
				"energy": -0.23218,
				"method": "rhf"
			},
			{
				"type": "occ",
				"energy": -0.22842,
				"method": "rhf"
			},
			{
				"type": "unocc",
				"energy": -0.01992,
				"method": "rhf"
			},
			{
				"type": "unocc",
				"energy": -0.01371,
				"method": "rhf"
			},
			{
				"type": "unocc",
				"energy": -0.00535,
				"method": "rhf"
			},
			{
				"type": "unocc",
				"energy": 0.00519,
				"method": "rhf"
			},
			{
				"type": "unocc",
				"energy": 0.06277,
				"method": "rhf"
			}
		],
		"cosmo_sigma_profile": { 
			"-0.025": 0.0,
			"-0.024": 0.0,
			"-0.023": 0.0,
			"-0.022": 0.0,
			"-0.021": 0.0,
			"-0.02": 0.0,
			"-0.019": 0.0,
			"-0.018": 0.0,
			"-0.017": 0.0,
			"-0.016": 0.0,
			"-0.015": 0.0,
			"-0.014": 0.61140392649,
			"-0.013": 1.84498907694,
			"-0.012": 2.2722856179,
			"-0.011": 1.99810165799,
			"-0.01": 1.77341073228,
			"-0.009": 3.39029614065,
			"-0.008": 3.43749992565,
			"-0.007": 5.44658025402,
			"-0.006": 16.1631926628,
			"-0.005": 20.9951904084,
			"-0.004": 20.615114308,
			"-0.003": 17.6387469366,
			"-0.002": 16.4869844607,
			"-0.001": 16.3058344297,
			"0.0": 16.3590429969,
			"0.001": 17.0912955392,
			"0.002": 17.9292447559,
			"0.003": 20.8902430611,
			"0.004": 19.7906736223,
			"0.005": 16.8084588428,
			"0.006": 8.1464660085,
			"0.007": 1.99117201928,
			"0.008": 1.64543256061,
			"0.009": 2.28511231218,
			"0.01": 1.7861475344,
			"0.011": 1.33895366538,
			"0.012": 1.76398058372,
			"0.013": 2.91693942661,
			"0.014": 6.70583268843,
			"0.015": 1.3544962467,
			"0.016": 0.0,
			"0.017": 0.0,
			"0.018": 0.0,
			"0.019": 0.0,
			"0.02": 0.0,
			"0.021": 0.0,
			"0.022": 0.0,
			"0.023": 0.0,
			"0.024": 0.0,
			"0.025": 0.0
		}
	}
}
