{
	 "smiles": "NC(=O)C1=C(N)C=CC(=C1)N1CCCCC1", 
	 "Tm": 442.15, 
	 "num_atms": 33, 
	 "gaussian": { 
		 "optdone": 1, 
		 "sigma_profile": "yes", 
		 "theory": "DFT", 
		 "functional": "B3LYP", 
		 "basiset": "6-31G**", 
		 "properties": { 
			 "R2extent": 5145.4115, 
			 "electric_dipole_moment_norm": 3.22340414779, 
			 "electric_quadrupole_moment_norm": 14.277332317, 
			 "total_energy": -707.024773337, 
			 "HOMO_LUMO_gap": 0.14173, 
			 "cosmo_polarized_energy": -14.3, 
			 "cosmo_cavitation_energy": 33.65, 
			 "cosmo_dispersion_energy": -25.09, 
			 "cosmo_repulsion_energy": 1.96, 
			 "cosmo_total_nonelectrostatic_energy": 10.52, 
			 "SMD_solvation_energy": 4.61 
		},
		"coords": [
			{
				"x": 2.0824823413,
				"y": 1.1812437506,
				"z": 3.1255302819,
				"element": "N" 
			},
			{
				"x": 1.0882980663,
				"y": 2.1360924317,
				"z": 3.0887326664,
				"element": "C" 
			},
			{
				"x": 1.1910119215,
				"y": 3.1497571544,
				"z": 3.7894526761,
				"element": "O" 
			},
			{
				"x": -0.0521382018,
				"y": 1.8878352158,
				"z": 2.1659470499,
				"element": "C" 
			},
			{
				"x": -1.2548536774,
				"y": 2.6222995211,
				"z": 2.3184394587,
				"element": "C" 
			},
			{
				"x": -1.4402820678,
				"y": 3.5444906858,
				"z": 3.3273871627,
				"element": "N" 
			},
			{
				"x": -2.3039527976,
				"y": 2.3384555997,
				"z": 1.4158555729,
				"element": "C" 
			},
			{
				"x": -2.1717697835,
				"y": 1.4042318803,
				"z": 0.4071710432,
				"element": "C" 
			},
			{
				"x": -0.9799896754,
				"y": 0.6611402668,
				"z": 0.2374288598,
				"element": "C" 
			},
			{
				"x": 0.0578394342,
				"y": 0.9309780977,
				"z": 1.1328346126,
				"element": "C" 
			},
			{
				"x": -0.8444403492,
				"y": -0.2396213878,
				"z": -0.8386634091,
				"element": "N" 
			},
			{
				"x": 0.470682759,
				"y": -0.8254402502,
				"z": -1.0834927286,
				"element": "C" 
			},
			{
				"x": 0.4415347857,
				"y": -1.7518224046,
				"z": -2.3189900302,
				"element": "C" 
			},
			{
				"x": -0.6093277732,
				"y": -1.2800334325,
				"z": -3.3300902285,
				"element": "C" 
			},
			{
				"x": -2.0186413733,
				"y": -1.3500522277,
				"z": -2.6993694718,
				"element": "C" 
			},
			{
				"x": -1.9418424961,
				"y": -1.1507954049,
				"z": -1.1713272608,
				"element": "C" 
			},
			{
				"x": 1.8608753703,
				"y": 0.2243468572,
				"z": 2.898406765,
				"element": "H" 
			},
			{
				"x": 2.7626596856,
				"y": 1.3229611934,
				"z": 3.8588436704,
				"element": "H" 
			},
			{
				"x": -0.580395473,
				"y": 3.8895841056,
				"z": 3.7403524428,
				"element": "H" 
			},
			{
				"x": -2.1782065519,
				"y": 4.2174008628,
				"z": 3.1854927429,
				"element": "H" 
			},
			{
				"x": -3.2354311318,
				"y": 2.8916844998,
				"z": 1.5104755887,
				"element": "H" 
			},
			{
				"x": -2.9955024467,
				"y": 1.268551803,
				"z": -0.2865490753,
				"element": "H" 
			},
			{
				"x": 1.0075772982,
				"y": 0.4274341502,
				"z": 1.0082938924,
				"element": "H" 
			},
			{
				"x": 0.8396204256,
				"y": -1.3965932179,
				"z": -0.2098823211,
				"element": "H" 
			},
			{
				"x": 1.179807063,
				"y": -0.0044475152,
				"z": -1.2479000331,
				"element": "H" 
			},
			{
				"x": 1.4404455387,
				"y": -1.7811004689,
				"z": -2.7667820648,
				"element": "H" 
			},
			{
				"x": 0.2119734639,
				"y": -2.7800226934,
				"z": -2.0123315935,
				"element": "H" 
			},
			{
				"x": -0.56548221,
				"y": -1.881925144,
				"z": -4.2441829302,
				"element": "H" 
			},
			{
				"x": -0.3859425031,
				"y": -0.2470889421,
				"z": -3.6196900031,
				"element": "H" 
			},
			{
				"x": -2.6626600402,
				"y": -0.5849111786,
				"z": -3.1464889762,
				"element": "H" 
			},
			{
				"x": -2.4859083519,
				"y": -2.3206740873,
				"z": -2.9061384338,
				"element": "H" 
			},
			{
				"x": -2.880696901,
				"y": -0.7527890208,
				"z": -0.7862509456,
				"element": "H" 
			},
			{
				"x": -1.7959443483,
				"y": -2.1236706999,
				"z": -0.6681149805,
				"element": "H" 
			}
		],
		 "valence_orbital": [ 
			{
				"type": "occ",
				"energy": -0.26696,
				"method": "rhf"
			},
			{
				"type": "occ",
				"energy": -0.24791,
				"method": "rhf"
			},
			{
				"type": "occ",
				"energy": -0.24538,
				"method": "rhf"
			},
			{
				"type": "occ",
				"energy": -0.23351,
				"method": "rhf"
			},
			{
				"type": "occ",
				"energy": -0.16816,
				"method": "rhf"
			},
			{
				"type": "unocc",
				"energy": -0.02643,
				"method": "rhf"
			},
			{
				"type": "unocc",
				"energy": 0.02744,
				"method": "rhf"
			},
			{
				"type": "unocc",
				"energy": 0.06473,
				"method": "rhf"
			},
			{
				"type": "unocc",
				"energy": 0.07684,
				"method": "rhf"
			},
			{
				"type": "unocc",
				"energy": 0.0882,
				"method": "rhf"
			}
		],
		"cosmo_sigma_profile": { 
			"-0.025": 0.0,
			"-0.024": 0.0,
			"-0.023": 0.0,
			"-0.022": 0.0,
			"-0.021": 0.0,
			"-0.02": 0.0,
			"-0.019": 0.0,
			"-0.018": 0.0,
			"-0.017": 0.0,
			"-0.016": 0.0,
			"-0.015": 0.0,
			"-0.014": 0.185182052544,
			"-0.013": 2.368777698,
			"-0.012": 2.77576570857,
			"-0.011": 3.62324531661,
			"-0.01": 4.18609502971,
			"-0.009": 4.21634796994,
			"-0.008": 3.01525491196,
			"-0.007": 4.56611974558,
			"-0.006": 7.55313072008,
			"-0.005": 7.42100160409,
			"-0.004": 9.54890297236,
			"-0.003": 20.4701600967,
			"-0.002": 32.8113787052,
			"-0.001": 33.5792221298,
			"0.0": 24.951943646,
			"0.001": 18.7634507429,
			"0.002": 10.5015355231,
			"0.003": 8.77499595678,
			"0.004": 11.1752153744,
			"0.005": 13.085767558,
			"0.006": 14.1806921324,
			"0.007": 4.5717573858,
			"0.008": 3.74983271936,
			"0.009": 3.64936948696,
			"0.01": 2.6895937781,
			"0.011": 2.35505386526,
			"0.012": 2.98956664319,
			"0.013": 3.26597653357,
			"0.014": 2.01363104174,
			"0.015": 0.294903066218,
			"0.016": 0.0,
			"0.017": 0.0,
			"0.018": 0.0,
			"0.019": 0.0,
			"0.02": 0.0,
			"0.021": 0.0,
			"0.022": 0.0,
			"0.023": 0.0,
			"0.024": 0.0,
			"0.025": 0.0
		}
	}
}
