{
	 "smiles": "O=C1CC(=O)C=C1", 
	 "Tm": 310.15, 
	 "num_atms": 11, 
	 "gaussian": { 
		 "optdone": 1, 
		 "sigma_profile": "yes", 
		 "theory": "DFT", 
		 "functional": "B3LYP", 
		 "basiset": "6-31G**", 
		 "properties": { 
			 "R2extent": 1124.3789, 
			 "electric_dipole_moment_norm": 1.61443970467, 
			 "electric_quadrupole_moment_norm": 15.6540643147, 
			 "total_energy": -343.359217039, 
			 "HOMO_LUMO_gap": 0.15444, 
			 "cosmo_polarized_energy": -10.24, 
			 "cosmo_cavitation_energy": 15.83, 
			 "cosmo_dispersion_energy": -11.7, 
			 "cosmo_repulsion_energy": 1.01, 
			 "cosmo_total_nonelectrostatic_energy": 5.15, 
			 "SMD_solvation_energy": 4.3 
		},
		"coords": [
			{
				"x": 0.2248246421,
				"y": -1.874347135,
				"z": -0.3902629533,
				"element": "O" 
			},
			{
				"x": -0.1905480315,
				"y": -0.9120424215,
				"z": -1.0020032225,
				"element": "C" 
			},
			{
				"x": -0.5365812186,
				"y": 0.4639695876,
				"z": -0.4309355248,
				"element": "C" 
			},
			{
				"x": -1.0021480762,
				"y": 1.2599770206,
				"z": -1.6511355318,
				"element": "C" 
			},
			{
				"x": -1.3776091361,
				"y": 2.4138365027,
				"z": -1.6718247658,
				"element": "O" 
			},
			{
				"x": -0.9111028817,
				"y": 0.3512329917,
				"z": -2.8340599925,
				"element": "C" 
			},
			{
				"x": -0.4577707062,
				"y": -0.8618458097,
				"z": -2.4715225262,
				"element": "C" 
			},
			{
				"x": 0.3327634338,
				"y": 0.9306213144,
				"z": 0.0435556051,
				"element": "H" 
			},
			{
				"x": -1.3237431016,
				"y": 0.396360253,
				"z": 0.3270005958,
				"element": "H" 
			},
			{
				"x": -1.18784363,
				"y": 0.6821052278,
				"z": -3.8290974524,
				"element": "H" 
			},
			{
				"x": -0.289541294,
				"y": -1.7216675316,
				"z": -3.1107142315,
				"element": "H" 
			}
		],
		 "valence_orbital": [ 
			{
				"type": "occ",
				"energy": -0.40062,
				"method": "rhf"
			},
			{
				"type": "occ",
				"energy": -0.37943,
				"method": "rhf"
			},
			{
				"type": "occ",
				"energy": -0.30897,
				"method": "rhf"
			},
			{
				"type": "occ",
				"energy": -0.28411,
				"method": "rhf"
			},
			{
				"type": "occ",
				"energy": -0.25362,
				"method": "rhf"
			},
			{
				"type": "unocc",
				"energy": -0.09918,
				"method": "rhf"
			},
			{
				"type": "unocc",
				"energy": -0.01699,
				"method": "rhf"
			},
			{
				"type": "unocc",
				"energy": 0.06661,
				"method": "rhf"
			},
			{
				"type": "unocc",
				"energy": 0.10234,
				"method": "rhf"
			},
			{
				"type": "unocc",
				"energy": 0.11516,
				"method": "rhf"
			}
		],
		"cosmo_sigma_profile": { 
			"-0.025": 0.0,
			"-0.024": 0.0,
			"-0.023": 0.0,
			"-0.022": 0.0,
			"-0.021": 0.0,
			"-0.02": 0.0,
			"-0.019": 0.0,
			"-0.018": 0.0,
			"-0.017": 0.0,
			"-0.016": 0.0,
			"-0.015": 0.0,
			"-0.014": 0.0,
			"-0.013": 0.0,
			"-0.012": 0.0,
			"-0.011": 0.0,
			"-0.01": 0.302299520409,
			"-0.009": 4.3903444517,
			"-0.008": 10.2958557406,
			"-0.007": 9.90228912555,
			"-0.006": 8.42055672144,
			"-0.005": 8.44891094915,
			"-0.004": 7.70189762766,
			"-0.003": 10.4943012795,
			"-0.002": 8.93288266662,
			"-0.001": 5.93721781402,
			"0.0": 3.94802867695,
			"0.001": 3.29000018966,
			"0.002": 2.95999915187,
			"0.003": 2.19046322579,
			"0.004": 2.90720133581,
			"0.005": 2.35347041447,
			"0.006": 3.21488057052,
			"0.007": 2.8588873902,
			"0.008": 3.86620682687,
			"0.009": 4.09114213296,
			"0.01": 6.6338972833,
			"0.011": 9.29332368159,
			"0.012": 4.63257946877,
			"0.013": 0.18962586659,
			"0.014": 0.0,
			"0.015": 0.0,
			"0.016": 0.0,
			"0.017": 0.0,
			"0.018": 0.0,
			"0.019": 0.0,
			"0.02": 0.0,
			"0.021": 0.0,
			"0.022": 0.0,
			"0.023": 0.0,
			"0.024": 0.0,
			"0.025": 0.0
		}
	}
}
