{
	 "smiles": "CCNC(=O)NC1=CC(N)=CC=C1", 
	 "Tm": 396.15, 
	 "num_atms": 26, 
	 "gaussian": { 
		 "optdone": 1, 
		 "sigma_profile": "yes", 
		 "theory": "DFT", 
		 "functional": "B3LYP", 
		 "basiset": "6-31G**", 
		 "properties": { 
			 "R2extent": 2835.5948, 
			 "electric_dipole_moment_norm": 4.34985951727, 
			 "electric_quadrupole_moment_norm": 13.172619711, 
			 "total_energy": -590.299340167, 
			 "HOMO_LUMO_gap": 0.19876, 
			 "cosmo_polarized_energy": -16.0, 
			 "cosmo_cavitation_energy": 29.24, 
			 "cosmo_dispersion_energy": -20.8, 
			 "cosmo_repulsion_energy": 1.69, 
			 "cosmo_total_nonelectrostatic_energy": 10.13, 
			 "SMD_solvation_energy": 5.31 
		},
		"coords": [
			{
				"x": 0.4891890746,
				"y": -1.3772073037,
				"z": 2.8714403807,
				"element": "C" 
			},
			{
				"x": 0.5201344321,
				"y": -0.0167564181,
				"z": 2.1682091623,
				"element": "C" 
			},
			{
				"x": -0.7920785606,
				"y": 0.638394789,
				"z": 2.0783224957,
				"element": "N" 
			},
			{
				"x": -1.8374652135,
				"y": 0.1517685912,
				"z": 1.3056719394,
				"element": "C" 
			},
			{
				"x": -2.9939228041,
				"y": 0.1359379701,
				"z": 1.7098698588,
				"element": "O" 
			},
			{
				"x": -1.5229304883,
				"y": -0.3467325048,
				"z": 0.0398064734,
				"element": "N" 
			},
			{
				"x": -0.6041789933,
				"y": 0.1200293457,
				"z": -0.9326219338,
				"element": "C" 
			},
			{
				"x": 0.0643350458,
				"y": 1.3434436807,
				"z": -0.8167664498,
				"element": "C" 
			},
			{
				"x": 0.9466036071,
				"y": 1.7700266872,
				"z": -1.8236835287,
				"element": "C" 
			},
			{
				"x": 1.5652075459,
				"y": 3.0165392835,
				"z": -1.7248778224,
				"element": "N" 
			},
			{
				"x": 1.1411706403,
				"y": 0.9641015933,
				"z": -2.9583593007,
				"element": "C" 
			},
			{
				"x": 0.4588422607,
				"y": -0.2445608797,
				"z": -3.0691873133,
				"element": "C" 
			},
			{
				"x": -0.40580401,
				"y": -0.6812948151,
				"z": -2.0685208679,
				"element": "C" 
			},
			{
				"x": 1.4972712621,
				"y": -1.8022373085,
				"z": 2.9273992004,
				"element": "H" 
			},
			{
				"x": 0.1023043296,
				"y": -1.2893628855,
				"z": 3.8925027752,
				"element": "H" 
			},
			{
				"x": -0.1466079021,
				"y": -2.0813372307,
				"z": 2.3261679768,
				"element": "H" 
			},
			{
				"x": 0.9303980901,
				"y": -0.117619441,
				"z": 1.1620670417,
				"element": "H" 
			},
			{
				"x": 1.1822195197,
				"y": 0.6715643233,
				"z": 2.7055221219,
				"element": "H" 
			},
			{
				"x": -1.1709931755,
				"y": 0.9185262197,
				"z": 2.9759985378,
				"element": "H" 
			},
			{
				"x": -2.3354239655,
				"y": -0.8102383414,
				"z": -0.3460162972,
				"element": "H" 
			},
			{
				"x": -0.112810636,
				"y": 1.9732661697,
				"z": 0.0484400867,
				"element": "H" 
			},
			{
				"x": 1.6669801627,
				"y": 3.3785568402,
				"z": -0.7871776844,
				"element": "H" 
			},
			{
				"x": 2.4084285308,
				"y": 3.1254737939,
				"z": -2.2705029369,
				"element": "H" 
			},
			{
				"x": 1.8152103976,
				"y": 1.2913213612,
				"z": -3.7453067811,
				"element": "H" 
			},
			{
				"x": 0.6124865484,
				"y": -0.8642392789,
				"z": -3.9483122661,
				"element": "H" 
			},
			{
				"x": -0.9180656985,
				"y": -1.6349642412,
				"z": -2.1527848689,
				"element": "H" 
			}
		],
		 "valence_orbital": [ 
			{
				"type": "occ",
				"energy": -0.28258,
				"method": "rhf"
			},
			{
				"type": "occ",
				"energy": -0.26508,
				"method": "rhf"
			},
			{
				"type": "occ",
				"energy": -0.24246,
				"method": "rhf"
			},
			{
				"type": "occ",
				"energy": -0.22089,
				"method": "rhf"
			},
			{
				"type": "occ",
				"energy": -0.19953,
				"method": "rhf"
			},
			{
				"type": "unocc",
				"energy": -0.00077,
				"method": "rhf"
			},
			{
				"type": "unocc",
				"energy": 0.01424,
				"method": "rhf"
			},
			{
				"type": "unocc",
				"energy": 0.05502,
				"method": "rhf"
			},
			{
				"type": "unocc",
				"energy": 0.07939,
				"method": "rhf"
			},
			{
				"type": "unocc",
				"energy": 0.08403,
				"method": "rhf"
			}
		],
		"cosmo_sigma_profile": { 
			"-0.025": 0.0,
			"-0.024": 0.0,
			"-0.023": 0.0,
			"-0.022": 0.0,
			"-0.021": 0.0,
			"-0.02": 0.0,
			"-0.019": 0.0,
			"-0.018": 0.0,
			"-0.017": 0.0,
			"-0.016": 0.0,
			"-0.015": 0.0,
			"-0.014": 0.19440427912,
			"-0.013": 1.35900693333,
			"-0.012": 4.15501151515,
			"-0.011": 4.66161478327,
			"-0.01": 4.20478722346,
			"-0.009": 5.59332215346,
			"-0.008": 4.85999928682,
			"-0.007": 4.71696409082,
			"-0.006": 6.37673024786,
			"-0.005": 11.1920450797,
			"-0.004": 14.2094306722,
			"-0.003": 17.6558966245,
			"-0.002": 18.8138291772,
			"-0.001": 17.4175902521,
			"0.0": 17.8480239366,
			"0.001": 17.1464636614,
			"0.002": 10.389540243,
			"0.003": 8.42018357119,
			"0.004": 9.22940264717,
			"0.005": 11.2647203376,
			"0.006": 10.0991083583,
			"0.007": 7.67509641432,
			"0.008": 2.45865549262,
			"0.009": 1.487531591,
			"0.01": 2.21032657829,
			"0.011": 1.74587520147,
			"0.012": 2.33304356401,
			"0.013": 4.12461585746,
			"0.014": 6.85778171299,
			"0.015": 1.23767116351,
			"0.016": 0.0,
			"0.017": 0.0,
			"0.018": 0.0,
			"0.019": 0.0,
			"0.02": 0.0,
			"0.021": 0.0,
			"0.022": 0.0,
			"0.023": 0.0,
			"0.024": 0.0,
			"0.025": 0.0
		}
	}
}
