{
	 "smiles": "CC1=C(N=C(N1)C1CCCN1)C1=CC=CC=C1", 
	 "Tm": 438.15, 
	 "num_atms": 34, 
	 "gaussian": { 
		 "optdone": 1, 
		 "sigma_profile": "yes", 
		 "theory": "DFT", 
		 "functional": "B3LYP", 
		 "basiset": "6-31G**", 
		 "properties": { 
			 "R2extent": 5433.1079, 
			 "electric_dipole_moment_norm": 3.62847594039, 
			 "electric_quadrupole_moment_norm": 15.3421910173, 
			 "total_energy": -708.002553807, 
			 "HOMO_LUMO_gap": 0.18935, 
			 "cosmo_polarized_energy": -14.85, 
			 "cosmo_cavitation_energy": 35.86, 
			 "cosmo_dispersion_energy": -25.9, 
			 "cosmo_repulsion_energy": 2.03, 
			 "cosmo_total_nonelectrostatic_energy": 11.98, 
			 "SMD_solvation_energy": 1.39 
		},
		"coords": [
			{
				"x": -2.5155159488,
				"y": -1.6525643631,
				"z": 0.7023859359,
				"element": "C" 
			},
			{
				"x": -1.107465219,
				"y": -1.540258135,
				"z": 0.2123873722,
				"element": "C" 
			},
			{
				"x": -0.1989073802,
				"y": -0.4976182569,
				"z": 0.1314295537,
				"element": "C" 
			},
			{
				"x": 0.9702090774,
				"y": -0.938914047,
				"z": -0.4748977098,
				"element": "N" 
			},
			{
				"x": 0.7955990726,
				"y": -2.2123887497,
				"z": -0.7442608839,
				"element": "C" 
			},
			{
				"x": -0.4468018916,
				"y": -2.6235960337,
				"z": -0.3438805923,
				"element": "N" 
			},
			{
				"x": 1.7942513325,
				"y": -3.1150233431,
				"z": -1.4180843517,
				"element": "C" 
			},
			{
				"x": 1.5688386887,
				"y": -3.2198800312,
				"z": -2.9658925955,
				"element": "C" 
			},
			{
				"x": 2.601486021,
				"y": -2.2425122601,
				"z": -3.5436092934,
				"element": "C" 
			},
			{
				"x": 3.7717337715,
				"y": -2.4249334245,
				"z": -2.5647802851,
				"element": "C" 
			},
			{
				"x": 3.1642040624,
				"y": -2.5948460739,
				"z": -1.2331004987,
				"element": "N" 
			},
			{
				"x": -0.3378594778,
				"y": 0.9046124207,
				"z": 0.5517111583,
				"element": "C" 
			},
			{
				"x": -1.2242103788,
				"y": 1.3050351958,
				"z": 1.5672342719,
				"element": "C" 
			},
			{
				"x": -1.3390045632,
				"y": 2.6479119381,
				"z": 1.9277131726,
				"element": "C" 
			},
			{
				"x": -0.5616099564,
				"y": 3.6175064652,
				"z": 1.2932467809,
				"element": "C" 
			},
			{
				"x": 0.3390875016,
				"y": 3.2293644076,
				"z": 0.2976353955,
				"element": "C" 
			},
			{
				"x": 0.4506828575,
				"y": 1.890778915,
				"z": -0.0687940044,
				"element": "C" 
			},
			{
				"x": -3.0279160271,
				"y": -0.691445345,
				"z": 0.6167582728,
				"element": "H" 
			},
			{
				"x": -2.5751177866,
				"y": -1.9664932873,
				"z": 1.7528098701,
				"element": "H" 
			},
			{
				"x": -3.080432221,
				"y": -2.3817810312,
				"z": 0.110452084,
				"element": "H" 
			},
			{
				"x": -0.821594238,
				"y": -3.5567288094,
				"z": -0.4301004794,
				"element": "H" 
			},
			{
				"x": 1.6993937776,
				"y": -4.1176261119,
				"z": -0.9731491347,
				"element": "H" 
			},
			{
				"x": 0.5381338212,
				"y": -2.992389633,
				"z": -3.2527326454,
				"element": "H" 
			},
			{
				"x": 1.7893452475,
				"y": -4.241337372,
				"z": -3.2974369543,
				"element": "H" 
			},
			{
				"x": 2.2232602587,
				"y": -1.2155266874,
				"z": -3.4873041448,
				"element": "H" 
			},
			{
				"x": 2.8592680379,
				"y": -2.4581206705,
				"z": -4.5855088498,
				"element": "H" 
			},
			{
				"x": 4.344779237,
				"y": -3.3252899183,
				"z": -2.8299241794,
				"element": "H" 
			},
			{
				"x": 4.4738703811,
				"y": -1.5857712217,
				"z": -2.554613503,
				"element": "H" 
			},
			{
				"x": 3.0812700622,
				"y": -1.6862616673,
				"z": -0.7832313004,
				"element": "H" 
			},
			{
				"x": -1.8055711678,
				"y": 0.562106338,
				"z": 2.1030251451,
				"element": "H" 
			},
			{
				"x": -2.0285512941,
				"y": 2.933706763,
				"z": 2.7174713536,
				"element": "H" 
			},
			{
				"x": -0.6492848053,
				"y": 4.6623426032,
				"z": 1.5771141743,
				"element": "H" 
			},
			{
				"x": 0.9560450184,
				"y": 3.9746286303,
				"z": -0.1972386246,
				"element": "H" 
			},
			{
				"x": 1.1499841289,
				"y": 1.5840127962,
				"z": -0.8390345103,
				"element": "H" 
			}
		],
		 "valence_orbital": [ 
			{
				"type": "occ",
				"energy": -0.26831,
				"method": "rhf"
			},
			{
				"type": "occ",
				"energy": -0.249,
				"method": "rhf"
			},
			{
				"type": "occ",
				"energy": -0.23962,
				"method": "rhf"
			},
			{
				"type": "occ",
				"energy": -0.21455,
				"method": "rhf"
			},
			{
				"type": "occ",
				"energy": -0.19676,
				"method": "rhf"
			},
			{
				"type": "unocc",
				"energy": -0.00741,
				"method": "rhf"
			},
			{
				"type": "unocc",
				"energy": 0.00887,
				"method": "rhf"
			},
			{
				"type": "unocc",
				"energy": 0.03031,
				"method": "rhf"
			},
			{
				"type": "unocc",
				"energy": 0.06994,
				"method": "rhf"
			},
			{
				"type": "unocc",
				"energy": 0.08586,
				"method": "rhf"
			}
		],
		"cosmo_sigma_profile": { 
			"-0.025": 0.0,
			"-0.024": 0.0,
			"-0.023": 0.0,
			"-0.022": 0.0,
			"-0.021": 0.0,
			"-0.02": 0.0,
			"-0.019": 0.0,
			"-0.018": 0.0,
			"-0.017": 0.0,
			"-0.016": 0.654558217998,
			"-0.015": 1.39056367584,
			"-0.014": 1.6933055556,
			"-0.013": 0.740789969739,
			"-0.012": 1.29333815277,
			"-0.011": 1.89532637351,
			"-0.01": 1.21664554067,
			"-0.009": 1.14762114658,
			"-0.008": 1.34778036789,
			"-0.007": 2.14048270136,
			"-0.006": 3.86340955643,
			"-0.005": 13.7876897651,
			"-0.004": 22.9640863441,
			"-0.003": 32.0180692236,
			"-0.002": 30.0883624682,
			"-0.001": 30.6363436908,
			"0.0": 26.2393224694,
			"0.001": 17.0612471497,
			"0.002": 12.1111415797,
			"0.003": 13.4209943185,
			"0.004": 15.1667001094,
			"0.005": 15.938397981,
			"0.006": 14.3956501402,
			"0.007": 7.23929914912,
			"0.008": 2.7916827221,
			"0.009": 2.20740280584,
			"0.01": 2.52696840413,
			"0.011": 1.89928899184,
			"0.012": 1.00900094641,
			"0.013": 0.379862946598,
			"0.014": 0.821319996146,
			"0.015": 0.528751036005,
			"0.016": 0.847517312205,
			"0.017": 0.500236432188,
			"0.018": 0.501689665066,
			"0.019": 0.368204137124,
			"0.02": 0.0161906311436,
			"0.021": 0.0,
			"0.022": 0.0,
			"0.023": 0.0,
			"0.024": 0.0,
			"0.025": 0.0
		}
	}
}
