{
	 "smiles": "OC1=NC=CC(Br)=C1", 
	 "Tm": 476.15, 
	 "num_atms": 12, 
	 "gaussian": { 
		 "optdone": 1, 
		 "sigma_profile": "yes", 
		 "theory": "DFT", 
		 "functional": "B3LYP", 
		 "basiset": "6-31G**", 
		 "properties": { 
			 "R2extent": 2164.4263, 
			 "electric_dipole_moment_norm": 0.955601915025, 
			 "electric_quadrupole_moment_norm": 3.42987821795, 
			 "total_energy": -2894.32211135, 
			 "HOMO_LUMO_gap": 0.21228, 
			 "cosmo_polarized_energy": -6.32, 
			 "cosmo_cavitation_energy": 18.82, 
			 "cosmo_dispersion_energy": -14.73, 
			 "cosmo_repulsion_energy": 1.22, 
			 "cosmo_total_nonelectrostatic_energy": 5.31, 
			 "SMD_solvation_energy": 1.35 
		},
		"coords": [
			{
				"x": 0.4593538296,
				"y": -0.1169646777,
				"z": 2.9300149123,
				"element": "O" 
			},
			{
				"x": 0.3017020808,
				"y": 0.2105929768,
				"z": 1.6304156799,
				"element": "C" 
			},
			{
				"x": 1.343899851,
				"y": 0.0363761834,
				"z": 0.8211645293,
				"element": "N" 
			},
			{
				"x": 1.1826386187,
				"y": 0.3631933997,
				"z": -0.4692010418,
				"element": "C" 
			},
			{
				"x": 0.0013545984,
				"y": 0.8680111975,
				"z": -1.0027430034,
				"element": "C" 
			},
			{
				"x": -1.070514309,
				"y": 1.0367050833,
				"z": -0.1208387512,
				"element": "C" 
			},
			{
				"x": -2.7254394503,
				"y": 1.7232354168,
				"z": -0.7693912697,
				"element": "Br" 
			},
			{
				"x": -0.9446394491,
				"y": 0.710937524,
				"z": 1.2197526397,
				"element": "C" 
			},
			{
				"x": 1.371465965,
				"y": -0.4376308794,
				"z": 3.0160279926,
				"element": "H" 
			},
			{
				"x": 2.0477811615,
				"y": 0.212320018,
				"z": -1.1114153431,
				"element": "H" 
			},
			{
				"x": -0.0822329347,
				"y": 1.1181463,
				"z": -2.0524890885,
				"element": "H" 
			},
			{
				"x": -1.7535699618,
				"y": 0.8290774576,
				"z": 1.9286027437,
				"element": "H" 
			}
		],
		 "valence_orbital": [ 
			{
				"type": "occ",
				"energy": -0.33231,
				"method": "rhf"
			},
			{
				"type": "occ",
				"energy": -0.29719,
				"method": "rhf"
			},
			{
				"type": "occ",
				"energy": -0.28237,
				"method": "rhf"
			},
			{
				"type": "occ",
				"energy": -0.26938,
				"method": "rhf"
			},
			{
				"type": "occ",
				"energy": -0.24811,
				"method": "rhf"
			},
			{
				"type": "unocc",
				"energy": -0.03583,
				"method": "rhf"
			},
			{
				"type": "unocc",
				"energy": -0.00991,
				"method": "rhf"
			},
			{
				"type": "unocc",
				"energy": -0.00241,
				"method": "rhf"
			},
			{
				"type": "unocc",
				"energy": 0.08506,
				"method": "rhf"
			},
			{
				"type": "unocc",
				"energy": 0.12693,
				"method": "rhf"
			}
		],
		"cosmo_sigma_profile": { 
			"-0.025": 0.0,
			"-0.024": 0.0,
			"-0.023": 0.0,
			"-0.022": 0.0,
			"-0.021": 0.0,
			"-0.02": 0.0,
			"-0.019": 0.0,
			"-0.018": 0.0520891114236,
			"-0.017": 0.880250492225,
			"-0.016": 0.493765523366,
			"-0.015": 0.718374002785,
			"-0.014": 0.850772622742,
			"-0.013": 0.935523385731,
			"-0.012": 0.360465103277,
			"-0.011": 0.449755834464,
			"-0.01": 0.745823408986,
			"-0.009": 0.596499787463,
			"-0.008": 2.72535597678,
			"-0.007": 5.96106672122,
			"-0.006": 6.92290197846,
			"-0.005": 6.77104031882,
			"-0.004": 6.59809870004,
			"-0.003": 6.60145446763,
			"-0.002": 7.24384071821,
			"-0.001": 8.46835641344,
			"0.0": 17.0064333796,
			"0.001": 22.7813459121,
			"0.002": 14.8552986459,
			"0.003": 12.3640300664,
			"0.004": 12.3289713249,
			"0.005": 2.47382552057,
			"0.006": 2.7361627508,
			"0.007": 2.0887775389,
			"0.008": 2.38450972057,
			"0.009": 2.60628966287,
			"0.01": 2.82942237293,
			"0.011": 1.25627666874,
			"0.012": 0.646856848742,
			"0.013": 0.650219159504,
			"0.014": 0.183283114393,
			"0.015": 0.0,
			"0.016": 0.0,
			"0.017": 0.0,
			"0.018": 0.0,
			"0.019": 0.0,
			"0.02": 0.0,
			"0.021": 0.0,
			"0.022": 0.0,
			"0.023": 0.0,
			"0.024": 0.0,
			"0.025": 0.0
		}
	}
}
