{
	 "smiles": "CC1(C)CCC(O)CC1", 
	 "Tm": 302.15, 
	 "num_atms": 25, 
	 "gaussian": { 
		 "optdone": 1, 
		 "sigma_profile": "yes", 
		 "theory": "DFT", 
		 "functional": "B3LYP", 
		 "basiset": "6-31G**", 
		 "properties": { 
			 "R2extent": 1461.3834, 
			 "electric_dipole_moment_norm": 1.47079804868, 
			 "electric_quadrupole_moment_norm": 7.18657935112, 
			 "total_energy": -389.736170206, 
			 "HOMO_LUMO_gap": 0.33227, 
			 "cosmo_polarized_energy": -5.76, 
			 "cosmo_cavitation_energy": 24.31, 
			 "cosmo_dispersion_energy": -17.95, 
			 "cosmo_repulsion_energy": 1.45, 
			 "cosmo_total_nonelectrostatic_energy": 7.81, 
			 "SMD_solvation_energy": 3.6 
		},
		"coords": [
			{
				"x": 0.3441835692,
				"y": 1.3930383237,
				"z": 1.6118684817,
				"element": "C" 
			},
			{
				"x": -0.2362144414,
				"y": 0.8980386635,
				"z": 0.2711686233,
				"element": "C" 
			},
			{
				"x": -1.5005424535,
				"y": 1.7180496339,
				"z": -0.0428633627,
				"element": "C" 
			},
			{
				"x": -0.6124739646,
				"y": -0.6037769772,
				"z": 0.3559576203,
				"element": "C" 
			},
			{
				"x": 0.5972284904,
				"y": -1.5465902779,
				"z": 0.4456819957,
				"element": "C" 
			},
			{
				"x": 1.5656271706,
				"y": -1.3228607867,
				"z": -0.7144314196,
				"element": "C" 
			},
			{
				"x": 2.6713111888,
				"y": -2.2010363573,
				"z": -0.5179901567,
				"element": "O" 
			},
			{
				"x": 2.000173826,
				"y": 0.1462632038,
				"z": -0.7833215891,
				"element": "C" 
			},
			{
				"x": 0.7896093656,
				"y": 1.089002699,
				"z": -0.8754737016,
				"element": "C" 
			},
			{
				"x": 0.5994605633,
				"y": 2.4574271546,
				"z": 1.5535095606,
				"element": "H" 
			},
			{
				"x": -0.3883217519,
				"y": 1.2711406753,
				"z": 2.4180007528,
				"element": "H" 
			},
			{
				"x": 1.2485641784,
				"y": 0.8537422108,
				"z": 1.9067293684,
				"element": "H" 
			},
			{
				"x": -1.952897523,
				"y": 1.4037385291,
				"z": -0.9904770161,
				"element": "H" 
			},
			{
				"x": -2.2546079328,
				"y": 1.5973755024,
				"z": 0.7435002375,
				"element": "H" 
			},
			{
				"x": -1.2696931967,
				"y": 2.7868617716,
				"z": -0.1207197397,
				"element": "H" 
			},
			{
				"x": -1.1970025616,
				"y": -0.8642291317,
				"z": -0.5381321829,
				"element": "H" 
			},
			{
				"x": -1.2777388277,
				"y": -0.7678676309,
				"z": 1.2131304103,
				"element": "H" 
			},
			{
				"x": 1.1467044021,
				"y": -1.3939802936,
				"z": 1.3826560675,
				"element": "H" 
			},
			{
				"x": 0.2683795325,
				"y": -2.5917822418,
				"z": 0.4450934922,
				"element": "H" 
			},
			{
				"x": 1.0435990464,
				"y": -1.576045434,
				"z": -1.6557130514,
				"element": "H" 
			},
			{
				"x": 3.2979801675,
				"y": -2.0521716567,
				"z": -1.2380587226,
				"element": "H" 
			},
			{
				"x": 2.6564788497,
				"y": 0.3002587959,
				"z": -1.6515165738,
				"element": "H" 
			},
			{
				"x": 2.6031816556,
				"y": 0.3659641662,
				"z": 0.1062220447,
				"element": "H" 
			},
			{
				"x": 0.276754165,
				"y": 0.9110043922,
				"z": -1.8316128778,
				"element": "H" 
			},
			{
				"x": 1.126956482,
				"y": 2.1330350659,
				"z": -0.899808261,
				"element": "H" 
			}
		],
		 "valence_orbital": [ 
			{
				"type": "occ",
				"energy": -0.31806,
				"method": "rhf"
			},
			{
				"type": "occ",
				"energy": -0.30765,
				"method": "rhf"
			},
			{
				"type": "occ",
				"energy": -0.30566,
				"method": "rhf"
			},
			{
				"type": "occ",
				"energy": -0.28846,
				"method": "rhf"
			},
			{
				"type": "occ",
				"energy": -0.25726,
				"method": "rhf"
			},
			{
				"type": "unocc",
				"energy": 0.07501,
				"method": "rhf"
			},
			{
				"type": "unocc",
				"energy": 0.08082,
				"method": "rhf"
			},
			{
				"type": "unocc",
				"energy": 0.10789,
				"method": "rhf"
			},
			{
				"type": "unocc",
				"energy": 0.12738,
				"method": "rhf"
			},
			{
				"type": "unocc",
				"energy": 0.13478,
				"method": "rhf"
			}
		],
		"cosmo_sigma_profile": { 
			"-0.025": 0.0,
			"-0.024": 0.0,
			"-0.023": 0.0,
			"-0.022": 0.0,
			"-0.021": 0.0,
			"-0.02": 0.0,
			"-0.019": 0.0,
			"-0.018": 0.0,
			"-0.017": 0.0,
			"-0.016": 0.0,
			"-0.015": 0.304907866118,
			"-0.014": 1.13035924362,
			"-0.013": 0.5350165473,
			"-0.012": 1.23465530868,
			"-0.011": 0.895798249979,
			"-0.01": 1.16163311346,
			"-0.009": 0.82738685155,
			"-0.008": 0.680297388316,
			"-0.007": 0.614561090839,
			"-0.006": 0.833153719576,
			"-0.005": 2.05492482886,
			"-0.004": 1.26671977218,
			"-0.003": 8.15030458422,
			"-0.002": 35.9419922231,
			"-0.001": 36.526200495,
			"0.0": 28.949367441,
			"0.001": 28.5569026772,
			"0.002": 16.216430526,
			"0.003": 2.64185151308,
			"0.004": 1.05930916726,
			"0.005": 1.13411959488,
			"0.006": 1.37474185053,
			"0.007": 1.77872274352,
			"0.008": 1.3560643824,
			"0.009": 1.27469025938,
			"0.01": 1.02916114141,
			"0.011": 0.830147891057,
			"0.012": 1.63399250786,
			"0.013": 1.93236228727,
			"0.014": 1.73531417471,
			"0.015": 1.58105094272,
			"0.016": 0.0,
			"0.017": 0.0,
			"0.018": 0.0,
			"0.019": 0.0,
			"0.02": 0.0,
			"0.021": 0.0,
			"0.022": 0.0,
			"0.023": 0.0,
			"0.024": 0.0,
			"0.025": 0.0
		}
	}
}
