{
	 "smiles": "CN(C)C1=CC=C(O)C=C1", 
	 "Tm": 350.15, 
	 "num_atms": 21, 
	 "gaussian": { 
		 "optdone": 1, 
		 "sigma_profile": "yes", 
		 "theory": "DFT", 
		 "functional": "B3LYP", 
		 "basiset": "6-31G**", 
		 "properties": { 
			 "R2extent": 2260.4145, 
			 "electric_dipole_moment_norm": 2.0802884151, 
			 "electric_quadrupole_moment_norm": 11.9398476133, 
			 "total_energy": -441.43984525, 
			 "HOMO_LUMO_gap": 0.18073, 
			 "cosmo_polarized_energy": -9.45, 
			 "cosmo_cavitation_energy": 23.49, 
			 "cosmo_dispersion_energy": -17.67, 
			 "cosmo_repulsion_energy": 1.42, 
			 "cosmo_total_nonelectrostatic_energy": 7.24, 
			 "SMD_solvation_energy": 3.72 
		},
		"coords": [
			{
				"x": -1.6679164072,
				"y": -0.2832107925,
				"z": 0.3464752751,
				"element": "C" 
			},
			{
				"x": -0.2991510903,
				"y": -0.770487573,
				"z": 0.3498728603,
				"element": "N" 
			},
			{
				"x": -0.0661527147,
				"y": -2.0605899709,
				"z": 0.9748784517,
				"element": "C" 
			},
			{
				"x": 0.7420440565,
				"y": 0.1691065351,
				"z": 0.3584974733,
				"element": "C" 
			},
			{
				"x": 2.0666904154,
				"y": -0.1994696947,
				"z": 0.6689483878,
				"element": "C" 
			},
			{
				"x": 3.1061348281,
				"y": 0.7302881224,
				"z": 0.6331357005,
				"element": "C" 
			},
			{
				"x": 2.8619939866,
				"y": 2.06218347,
				"z": 0.2980032734,
				"element": "C" 
			},
			{
				"x": 3.8449489037,
				"y": 3.0203762923,
				"z": 0.250422608,
				"element": "O" 
			},
			{
				"x": 1.5535383684,
				"y": 2.4506160418,
				"z": 0.0034067199,
				"element": "C" 
			},
			{
				"x": 0.5146300797,
				"y": 1.525984609,
				"z": 0.0374230006,
				"element": "C" 
			},
			{
				"x": -2.3495099339,
				"y": -1.1361073411,
				"z": 0.3364842513,
				"element": "H" 
			},
			{
				"x": -1.8714935069,
				"y": 0.303804,
				"z": -0.5555001286,
				"element": "H" 
			},
			{
				"x": -1.9122222604,
				"y": 0.3435939422,
				"z": 1.2206430381,
				"element": "H" 
			},
			{
				"x": 0.7468200713,
				"y": -2.5961046211,
				"z": 0.4725636751,
				"element": "H" 
			},
			{
				"x": -0.9649833026,
				"y": -2.6725059827,
				"z": 0.8762520484,
				"element": "H" 
			},
			{
				"x": 0.1870222462,
				"y": -1.9894381383,
				"z": 2.0463491628,
				"element": "H" 
			},
			{
				"x": 2.3048677977,
				"y": -1.2197664273,
				"z": 0.9425710409,
				"element": "H" 
			},
			{
				"x": 4.116231556,
				"y": 0.4060082371,
				"z": 0.8775817992,
				"element": "H" 
			},
			{
				"x": 4.6891531663,
				"y": 2.6098948699,
				"z": 0.4759883494,
				"element": "H" 
			},
			{
				"x": 1.3575960629,
				"y": 3.4882480589,
				"z": -0.2475579074,
				"element": "H" 
			},
			{
				"x": -0.4848423229,
				"y": 1.8744763629,
				"z": -0.1915390797,
				"element": "H" 
			}
		],
		 "valence_orbital": [ 
			{
				"type": "occ",
				"energy": -0.33064,
				"method": "rhf"
			},
			{
				"type": "occ",
				"energy": -0.32425,
				"method": "rhf"
			},
			{
				"type": "occ",
				"energy": -0.255,
				"method": "rhf"
			},
			{
				"type": "occ",
				"energy": -0.24086,
				"method": "rhf"
			},
			{
				"type": "occ",
				"energy": -0.17341,
				"method": "rhf"
			},
			{
				"type": "unocc",
				"energy": 0.00732,
				"method": "rhf"
			},
			{
				"type": "unocc",
				"energy": 0.03675,
				"method": "rhf"
			},
			{
				"type": "unocc",
				"energy": 0.08035,
				"method": "rhf"
			},
			{
				"type": "unocc",
				"energy": 0.08791,
				"method": "rhf"
			},
			{
				"type": "unocc",
				"energy": 0.11203,
				"method": "rhf"
			}
		],
		"cosmo_sigma_profile": { 
			"-0.025": 0.0,
			"-0.024": 0.0,
			"-0.023": 0.0,
			"-0.022": 0.0,
			"-0.021": 0.0,
			"-0.02": 0.0,
			"-0.019": 0.0,
			"-0.018": 0.0108091050224,
			"-0.017": 0.730869890528,
			"-0.016": 1.18129414084,
			"-0.015": 0.558557158846,
			"-0.014": 1.31484183212,
			"-0.013": 1.37650891511,
			"-0.012": 0.681564236063,
			"-0.011": 0.36796299272,
			"-0.01": 0.811725084167,
			"-0.009": 1.17703313291,
			"-0.008": 1.22977071526,
			"-0.007": 1.50311822612,
			"-0.006": 4.81404071573,
			"-0.005": 12.4995196974,
			"-0.004": 13.7989729967,
			"-0.003": 17.6473657756,
			"-0.002": 20.0168371938,
			"-0.001": 20.6435311456,
			"0.0": 12.87680963,
			"0.001": 6.24000737451,
			"0.002": 7.35478403424,
			"0.003": 6.54262482713,
			"0.004": 7.23949563816,
			"0.005": 10.4787882576,
			"0.006": 11.6105669516,
			"0.007": 11.0069575209,
			"0.008": 2.95396361671,
			"0.009": 2.0191111602,
			"0.01": 2.03540616028,
			"0.011": 1.815213901,
			"0.012": 2.15086901329,
			"0.013": 0.522872708841,
			"0.014": 0.0,
			"0.015": 0.0,
			"0.016": 0.0,
			"0.017": 0.0,
			"0.018": 0.0,
			"0.019": 0.0,
			"0.02": 0.0,
			"0.021": 0.0,
			"0.022": 0.0,
			"0.023": 0.0,
			"0.024": 0.0,
			"0.025": 0.0
		}
	}
}
