{
	 "smiles": "[O-][N+](=O)C1=CC(=CC=C1)C1=NN=C2SCN(CN12)C1=CC=CC=C1[N+]([O-])=O", 
	 "Tm": 456.15, 
	 "num_atms": 39, 
	 "gaussian": { 
		 "optdone": 1, 
		 "sigma_profile": "yes", 
		 "theory": "DFT", 
		 "functional": "B3LYP", 
		 "basiset": "6-31G**", 
		 "properties": { 
			 "R2extent": 11112.4294, 
			 "electric_dipole_moment_norm": 0.909571245148, 
			 "electric_quadrupole_moment_norm": 37.6884133067, 
			 "total_energy": -1644.27731065, 
			 "HOMO_LUMO_gap": 0.1311, 
			 "cosmo_polarized_energy": -27.25, 
			 "cosmo_cavitation_energy": 45.99, 
			 "cosmo_dispersion_energy": -31.85, 
			 "cosmo_repulsion_energy": 2.32, 
			 "cosmo_total_nonelectrostatic_energy": 16.46, 
			 "SMD_solvation_energy": 8.84 
		},
		"coords": [
			{
				"x": -4.6991372024,
				"y": -2.7372791149,
				"z": 1.9537686147,
				"element": "O" 
			},
			{
				"x": -3.7823522345,
				"y": -2.1935464427,
				"z": 1.3419853954,
				"element": "N" 
			},
			{
				"x": -3.7531099939,
				"y": -1.0021478033,
				"z": 1.0321291093,
				"element": "O" 
			},
			{
				"x": -2.6312206677,
				"y": -3.0274544694,
				"z": 0.9532726765,
				"element": "C" 
			},
			{
				"x": -1.5933011453,
				"y": -2.4324373265,
				"z": 0.241418443,
				"element": "C" 
			},
			{
				"x": -0.4894080024,
				"y": -3.2091062495,
				"z": -0.1308622502,
				"element": "C" 
			},
			{
				"x": -0.4787177978,
				"y": -4.5780680137,
				"z": 0.1976974936,
				"element": "C" 
			},
			{
				"x": -1.53649219,
				"y": -5.1512799993,
				"z": 0.9003769845,
				"element": "C" 
			},
			{
				"x": -2.6268836342,
				"y": -4.3765936616,
				"z": 1.2963796031,
				"element": "C" 
			},
			{
				"x": 0.6318357609,
				"y": -2.6693670623,
				"z": -0.9129637414,
				"element": "C" 
			},
			{
				"x": 1.2547618708,
				"y": -3.3517945072,
				"z": -1.8507274496,
				"element": "N" 
			},
			{
				"x": 2.2572014811,
				"y": -2.5633139818,
				"z": -2.3665796122,
				"element": "N" 
			},
			{
				"x": 2.2161427342,
				"y": -1.4183537193,
				"z": -1.7235863899,
				"element": "C" 
			},
			{
				"x": 3.2478253403,
				"y": -0.0353369199,
				"z": -2.0712410604,
				"element": "S" 
			},
			{
				"x": 2.9721223856,
				"y": 0.8539400529,
				"z": -0.4471661394,
				"element": "C" 
			},
			{
				"x": 1.5884844138,
				"y": 0.8853489839,
				"z": -0.0334181259,
				"element": "N" 
			},
			{
				"x": 1.0624807481,
				"y": -0.4126098032,
				"z": 0.301538916,
				"element": "C" 
			},
			{
				"x": 1.1891823604,
				"y": -1.4035756739,
				"z": -0.8007036022,
				"element": "N" 
			},
			{
				"x": 0.7115862181,
				"y": 1.8255620947,
				"z": -0.6484551722,
				"element": "C" 
			},
			{
				"x": -0.1815406506,
				"y": 1.4255165415,
				"z": -1.6548848237,
				"element": "C" 
			},
			{
				"x": -1.0865555291,
				"y": 2.3165591593,
				"z": -2.2284852986,
				"element": "C" 
			},
			{
				"x": -1.1265142595,
				"y": 3.6462728667,
				"z": -1.8090231711,
				"element": "C" 
			},
			{
				"x": -0.2699845869,
				"y": 4.0678642447,
				"z": -0.7989342731,
				"element": "C" 
			},
			{
				"x": 0.6381015583,
				"y": 3.1743365914,
				"z": -0.2275831401,
				"element": "C" 
			},
			{
				"x": 1.4579344363,
				"y": 3.7118080672,
				"z": 0.8683097506,
				"element": "N" 
			},
			{
				"x": 0.9744339351,
				"y": 4.6313185035,
				"z": 1.5273244519,
				"element": "O" 
			},
			{
				"x": 2.5737336873,
				"y": 3.2294673612,
				"z": 1.065638632,
				"element": "O" 
			},
			{
				"x": -1.6923004024,
				"y": -1.3918253961,
				"z": -0.0383256968,
				"element": "H" 
			},
			{
				"x": 0.369024842,
				"y": -5.1776851208,
				"z": -0.1147977797,
				"element": "H" 
			},
			{
				"x": -1.5100163769,
				"y": -6.2077067213,
				"z": 1.1470722249,
				"element": "H" 
			},
			{
				"x": -3.4596249821,
				"y": -4.7908237797,
				"z": 1.8503752771,
				"element": "H" 
			},
			{
				"x": 3.3523566429,
				"y": 1.8615864077,
				"z": -0.5872057949,
				"element": "H" 
			},
			{
				"x": 3.5655594783,
				"y": 0.3554632272,
				"z": 0.3225600841,
				"element": "H" 
			},
			{
				"x": 1.6189362496,
				"y": -0.8020263989,
				"z": 1.1623031913,
				"element": "H" 
			},
			{
				"x": 0.0155394406,
				"y": -0.3190064657,
				"z": 0.5807807407,
				"element": "H" 
			},
			{
				"x": -0.1488950055,
				"y": 0.3988578806,
				"z": -2.0006009806,
				"element": "H" 
			},
			{
				"x": -1.7520824677,
				"y": 1.9690732906,
				"z": -3.0124908453,
				"element": "H" 
			},
			{
				"x": -1.8225843236,
				"y": 4.3477518899,
				"z": -2.256440269,
				"element": "H" 
			},
			{
				"x": -0.2957221313,
				"y": 5.0828114681,
				"z": -0.4221559723,
				"element": "H" 
			}
		],
		 "valence_orbital": [ 
			{
				"type": "occ",
				"energy": -0.28941,
				"method": "rhf"
			},
			{
				"type": "occ",
				"energy": -0.28673,
				"method": "rhf"
			},
			{
				"type": "occ",
				"energy": -0.26675,
				"method": "rhf"
			},
			{
				"type": "occ",
				"energy": -0.26038,
				"method": "rhf"
			},
			{
				"type": "occ",
				"energy": -0.23265,
				"method": "rhf"
			},
			{
				"type": "unocc",
				"energy": -0.10155,
				"method": "rhf"
			},
			{
				"type": "unocc",
				"energy": -0.1003,
				"method": "rhf"
			},
			{
				"type": "unocc",
				"energy": -0.0603,
				"method": "rhf"
			},
			{
				"type": "unocc",
				"energy": -0.04556,
				"method": "rhf"
			},
			{
				"type": "unocc",
				"energy": -0.02431,
				"method": "rhf"
			}
		],
		"cosmo_sigma_profile": { 
			"-0.025": 0.0,
			"-0.024": 0.0,
			"-0.023": 0.0,
			"-0.022": 0.0,
			"-0.021": 0.0,
			"-0.02": 0.0,
			"-0.019": 0.0,
			"-0.018": 0.0,
			"-0.017": 0.0,
			"-0.016": 0.0,
			"-0.015": 0.0,
			"-0.014": 0.0,
			"-0.013": 0.0,
			"-0.012": 0.0674116206932,
			"-0.011": 1.30453640209,
			"-0.01": 3.48326236437,
			"-0.009": 8.03836509007,
			"-0.008": 15.0571855611,
			"-0.007": 25.9843347978,
			"-0.006": 26.6949784367,
			"-0.005": 21.2530793393,
			"-0.004": 20.696246785,
			"-0.003": 18.9885789881,
			"-0.002": 20.7742533382,
			"-0.001": 21.13376553,
			"0.0": 27.0898831519,
			"0.001": 27.1897925813,
			"0.002": 21.1494552341,
			"0.003": 12.6501494817,
			"0.004": 11.2392473498,
			"0.005": 12.3104796572,
			"0.006": 13.1398333134,
			"0.007": 18.5673752975,
			"0.008": 14.1334646999,
			"0.009": 10.4787400637,
			"0.01": 6.262743621,
			"0.011": 2.76008619286,
			"0.012": 2.63472370618,
			"0.013": 3.7443968628,
			"0.014": 2.26327779739,
			"0.015": 2.16170969584,
			"0.016": 1.34983520787,
			"0.017": 0.0723946431518,
			"0.018": 0.0,
			"0.019": 0.0,
			"0.02": 0.0,
			"0.021": 0.0,
			"0.022": 0.0,
			"0.023": 0.0,
			"0.024": 0.0,
			"0.025": 0.0
		}
	}
}
