{
	 "smiles": "NC1=CC(O)=NC=N1", 
	 "Tm": 536.15, 
	 "num_atms": 13, 
	 "gaussian": { 
		 "optdone": 1, 
		 "sigma_profile": "yes", 
		 "theory": "DFT", 
		 "functional": "B3LYP", 
		 "basiset": "6-31G**", 
		 "properties": { 
			 "R2extent": 1228.0923, 
			 "electric_dipole_moment_norm": 2.56446354039, 
			 "electric_quadrupole_moment_norm": 10.8519305527, 
			 "total_energy": -394.910071684, 
			 "HOMO_LUMO_gap": 0.2247, 
			 "cosmo_polarized_energy": -14.54, 
			 "cosmo_cavitation_energy": 17.57, 
			 "cosmo_dispersion_energy": -13.45, 
			 "cosmo_repulsion_energy": 1.13, 
			 "cosmo_total_nonelectrostatic_energy": 5.25, 
			 "SMD_solvation_energy": 0.77 
		},
		"coords": [
			{
				"x": 2.1579735928,
				"y": 2.3721744905,
				"z": 0.5475344117,
				"element": "N" 
			},
			{
				"x": 1.1331150288,
				"y": 1.6315856025,
				"z": -0.1289454372,
				"element": "C" 
			},
			{
				"x": 1.4253966757,
				"y": 0.675116465,
				"z": -1.1004596519,
				"element": "C" 
			},
			{
				"x": 0.3332105133,
				"y": 0.0239502212,
				"z": -1.6838529599,
				"element": "C" 
			},
			{
				"x": 0.544906325,
				"y": -0.9095746885,
				"z": -2.627734827,
				"element": "O" 
			},
			{
				"x": -0.928147503,
				"y": 0.2895977185,
				"z": -1.3425431084,
				"element": "N" 
			},
			{
				"x": -1.0852800189,
				"y": 1.2257884147,
				"z": -0.3992127209,
				"element": "C" 
			},
			{
				"x": -0.1319223021,
				"y": 1.9127920558,
				"z": 0.2280738439,
				"element": "N" 
			},
			{
				"x": 2.7905767763,
				"y": 1.7314780884,
				"z": 1.0216408482,
				"element": "H" 
			},
			{
				"x": 2.7212014934,
				"y": 2.8801391852,
				"z": -0.1308466483,
				"element": "H" 
			},
			{
				"x": 2.4398892322,
				"y": 0.4373620597,
				"z": -1.3989557962,
				"element": "H" 
			},
			{
				"x": -0.3325788302,
				"y": -1.2296206386,
				"z": -2.8938954116,
				"element": "H" 
			},
			{
				"x": -2.1122409835,
				"y": 1.4485110255,
				"z": -0.1152025425,
				"element": "H" 
			}
		],
		 "valence_orbital": [ 
			{
				"type": "occ",
				"energy": -0.30587,
				"method": "rhf"
			},
			{
				"type": "occ",
				"energy": -0.29784,
				"method": "rhf"
			},
			{
				"type": "occ",
				"energy": -0.2662,
				"method": "rhf"
			},
			{
				"type": "occ",
				"energy": -0.26451,
				"method": "rhf"
			},
			{
				"type": "occ",
				"energy": -0.25822,
				"method": "rhf"
			},
			{
				"type": "unocc",
				"energy": -0.03352,
				"method": "rhf"
			},
			{
				"type": "unocc",
				"energy": -0.01505,
				"method": "rhf"
			},
			{
				"type": "unocc",
				"energy": 0.07904,
				"method": "rhf"
			},
			{
				"type": "unocc",
				"energy": 0.08223,
				"method": "rhf"
			},
			{
				"type": "unocc",
				"energy": 0.12185,
				"method": "rhf"
			}
		],
		"cosmo_sigma_profile": { 
			"-0.025": 0.0,
			"-0.024": 0.0,
			"-0.023": 0.0,
			"-0.022": 0.0,
			"-0.021": 0.0,
			"-0.02": 0.0,
			"-0.019": 0.0,
			"-0.018": 0.342348774467,
			"-0.017": 0.735010100067,
			"-0.016": 0.768086655425,
			"-0.015": 1.37532530079,
			"-0.014": 0.375402462247,
			"-0.013": 0.0955728411419,
			"-0.012": 2.39587555091,
			"-0.011": 4.2825607491,
			"-0.01": 4.49475279092,
			"-0.009": 3.18205291622,
			"-0.008": 5.33353229251,
			"-0.007": 7.613992132,
			"-0.006": 6.53529833387,
			"-0.005": 5.19681573789,
			"-0.004": 3.82022908046,
			"-0.003": 4.51950787865,
			"-0.002": 7.66759833392,
			"-0.001": 12.7937955255,
			"0.0": 10.0095265083,
			"0.001": 8.17216520174,
			"0.002": 4.11553961893,
			"0.003": 5.9015139696,
			"0.004": 3.67724226775,
			"0.005": 3.43274369928,
			"0.006": 3.72296745524,
			"0.007": 4.95065442132,
			"0.008": 3.93605091893,
			"0.009": 2.8152320838,
			"0.01": 3.22713453549,
			"0.011": 1.89579814969,
			"0.012": 2.1215349743,
			"0.013": 2.18194771384,
			"0.014": 1.58504794408,
			"0.015": 1.47650697483,
			"0.016": 1.0495349337,
			"0.017": 1.46913506934,
			"0.018": 1.66125335222,
			"0.019": 0.842734870176,
			"0.02": 0.185068654351,
			"0.021": 0.0,
			"0.022": 0.0,
			"0.023": 0.0,
			"0.024": 0.0,
			"0.025": 0.0
		}
	}
}
