{
	 "smiles": "O1C=CC=C1P(C1=CC=CO1)C1=CC=CO1", 
	 "Tm": 335.15, 
	 "num_atms": 25, 
	 "gaussian": { 
		 "optdone": 1, 
		 "sigma_profile": "yes", 
		 "theory": "DFT", 
		 "functional": "B3LYP", 
		 "basiset": "6-31G**", 
		 "properties": { 
			 "R2extent": 4082.2381, 
			 "electric_dipole_moment_norm": 2.87091201015, 
			 "electric_quadrupole_moment_norm": 7.15128913134, 
			 "total_energy": -1029.62498488, 
			 "HOMO_LUMO_gap": 0.19833, 
			 "cosmo_polarized_energy": -9.25, 
			 "cosmo_cavitation_energy": 32.21, 
			 "cosmo_dispersion_energy": -23.03, 
			 "cosmo_repulsion_energy": 1.93, 
			 "cosmo_total_nonelectrostatic_energy": 11.11, 
			 "SMD_solvation_energy": 8.57 
		},
		"coords": [
			{
				"x": -2.5599705446,
				"y": -1.8027904413,
				"z": -0.4584551449,
				"element": "O" 
			},
			{
				"x": -2.5044108965,
				"y": -3.059561566,
				"z": -0.9717606784,
				"element": "C" 
			},
			{
				"x": -1.2109804882,
				"y": -3.4440483656,
				"z": -1.1617355763,
				"element": "C" 
			},
			{
				"x": -0.4043338095,
				"y": -2.3452948197,
				"z": -0.7261905579,
				"element": "C" 
			},
			{
				"x": -1.2642751402,
				"y": -1.3680225708,
				"z": -0.2988465904,
				"element": "C" 
			},
			{
				"x": -1.0868047242,
				"y": 0.3418278315,
				"z": 0.3185323991,
				"element": "P" 
			},
			{
				"x": 0.6576251714,
				"y": 0.6515515914,
				"z": -0.1255932525,
				"element": "C" 
			},
			{
				"x": 1.8687380503,
				"y": 0.4626277704,
				"z": 0.4865176159,
				"element": "C" 
			},
			{
				"x": 2.8628632532,
				"y": 1.0058071842,
				"z": -0.3877210399,
				"element": "C" 
			},
			{
				"x": 2.1891298396,
				"y": 1.4890532914,
				"z": -1.4691376621,
				"element": "C" 
			},
			{
				"x": 0.8521605154,
				"y": 1.2929629128,
				"z": -1.3272590677,
				"element": "O" 
			},
			{
				"x": -0.8970868479,
				"y": 0.0080322278,
				"z": 2.104267281,
				"element": "C" 
			},
			{
				"x": -0.6606343325,
				"y": -1.1035827699,
				"z": 2.8694843862,
				"element": "C" 
			},
			{
				"x": -0.7113087251,
				"y": -0.6828812086,
				"z": 4.2362664538,
				"element": "C" 
			},
			{
				"x": -0.9767070079,
				"y": 0.6534177483,
				"z": 4.2088356845,
				"element": "C" 
			},
			{
				"x": -1.1017505737,
				"y": 1.0906441444,
				"z": 2.9285012512,
				"element": "O" 
			},
			{
				"x": -3.4556699058,
				"y": -3.5391993711,
				"z": -1.1452499258,
				"element": "H" 
			},
			{
				"x": -0.8726239465,
				"y": -4.3886485716,
				"z": -1.563082882,
				"element": "H" 
			},
			{
				"x": 0.6737483419,
				"y": -2.2783801712,
				"z": -0.7295676209,
				"element": "H" 
			},
			{
				"x": 2.0225538136,
				"y": -0.00548191,
				"z": 1.4477383719,
				"element": "H" 
			},
			{
				"x": 3.9315848998,
				"y": 1.0338467957,
				"z": -0.2299738301,
				"element": "H" 
			},
			{
				"x": 2.4984593393,
				"y": 1.9801943168,
				"z": -2.3791570411,
				"element": "H" 
			},
			{
				"x": -0.4772926178,
				"y": -2.0995883884,
				"z": 2.4938673746,
				"element": "H" 
			},
			{
				"x": -0.571456105,
				"y": -1.2933710229,
				"z": 5.1169351409,
				"element": "H" 
			},
			{
				"x": -1.1044575591,
				"y": 1.4018853626,
				"z": 4.9759849107,
				"element": "H" 
			}
		],
		 "valence_orbital": [ 
			{
				"type": "occ",
				"energy": -0.27899,
				"method": "rhf"
			},
			{
				"type": "occ",
				"energy": -0.27333,
				"method": "rhf"
			},
			{
				"type": "occ",
				"energy": -0.23513,
				"method": "rhf"
			},
			{
				"type": "occ",
				"energy": -0.2351,
				"method": "rhf"
			},
			{
				"type": "occ",
				"energy": -0.20921,
				"method": "rhf"
			},
			{
				"type": "unocc",
				"energy": -0.01088,
				"method": "rhf"
			},
			{
				"type": "unocc",
				"energy": -0.01086,
				"method": "rhf"
			},
			{
				"type": "unocc",
				"energy": 0.01483,
				"method": "rhf"
			},
			{
				"type": "unocc",
				"energy": 0.0521,
				"method": "rhf"
			},
			{
				"type": "unocc",
				"energy": 0.05212,
				"method": "rhf"
			}
		],
		"cosmo_sigma_profile": { 
			"-0.025": 0.0,
			"-0.024": 0.0,
			"-0.023": 0.0,
			"-0.022": 0.0,
			"-0.021": 0.0,
			"-0.02": 0.0,
			"-0.019": 0.0,
			"-0.018": 0.0,
			"-0.017": 0.0,
			"-0.016": 0.0,
			"-0.015": 0.0,
			"-0.014": 0.0,
			"-0.013": 0.0,
			"-0.012": 0.0,
			"-0.011": 0.0,
			"-0.01": 0.148113443533,
			"-0.009": 4.47141138091,
			"-0.008": 5.48637724317,
			"-0.007": 10.8495601423,
			"-0.006": 12.629068298,
			"-0.005": 13.6576274309,
			"-0.004": 15.470514359,
			"-0.003": 13.7938397621,
			"-0.002": 16.483089978,
			"-0.001": 21.0826608981,
			"0.0": 18.7594677122,
			"0.001": 18.4799483576,
			"0.002": 25.9301229321,
			"0.003": 26.3585492939,
			"0.004": 22.2288783844,
			"0.005": 17.7966821828,
			"0.006": 5.56625799272,
			"0.007": 5.6521943356,
			"0.008": 5.08390358093,
			"0.009": 1.70835422651,
			"0.01": 0.46119249512,
			"0.011": 0.0,
			"0.012": 0.0,
			"0.013": 0.0,
			"0.014": 0.0,
			"0.015": 0.0,
			"0.016": 0.0,
			"0.017": 0.0,
			"0.018": 0.0,
			"0.019": 0.0,
			"0.02": 0.0,
			"0.021": 0.0,
			"0.022": 0.0,
			"0.023": 0.0,
			"0.024": 0.0,
			"0.025": 0.0
		}
	}
}
