{
	 "smiles": "O=C1CCN2C(C1)CC1=CC=CC=C1C2=O", 
	 "Tm": 399.15, 
	 "num_atms": 29, 
	 "gaussian": { 
		 "optdone": 1, 
		 "sigma_profile": "yes", 
		 "theory": "DFT", 
		 "functional": "B3LYP", 
		 "basiset": "6-31G**", 
		 "properties": { 
			 "R2extent": 3925.2414, 
			 "electric_dipole_moment_norm": 2.88804386566, 
			 "electric_quadrupole_moment_norm": 15.1520327273, 
			 "total_energy": -708.442756565, 
			 "HOMO_LUMO_gap": 0.20015, 
			 "cosmo_polarized_energy": -15.47, 
			 "cosmo_cavitation_energy": 30.88, 
			 "cosmo_dispersion_energy": -22.83, 
			 "cosmo_repulsion_energy": 1.74, 
			 "cosmo_total_nonelectrostatic_energy": 9.79, 
			 "SMD_solvation_energy": 5.01 
		},
		"coords": [
			{
				"x": -2.9000490779,
				"y": -3.6382125896,
				"z": 1.2781780393,
				"element": "O" 
			},
			{
				"x": -2.3921383819,
				"y": -2.6337469579,
				"z": 0.8233874254,
				"element": "C" 
			},
			{
				"x": -2.9765023476,
				"y": -1.8631582798,
				"z": -0.3527141541,
				"element": "C" 
			},
			{
				"x": -2.5576362557,
				"y": -0.3902263961,
				"z": -0.3365587048,
				"element": "C" 
			},
			{
				"x": -1.0959688153,
				"y": -0.246441045,
				"z": -0.3087782019,
				"element": "N" 
			},
			{
				"x": -0.2797239446,
				"y": -1.2976976615,
				"z": 0.3304421501,
				"element": "C" 
			},
			{
				"x": -1.1087466241,
				"y": -2.0351513099,
				"z": 1.3903126017,
				"element": "C" 
			},
			{
				"x": 0.9921201863,
				"y": -0.6817766692,
				"z": 0.916625789,
				"element": "C" 
			},
			{
				"x": 1.7265375194,
				"y": 0.1186358441,
				"z": -0.1311514432,
				"element": "C" 
			},
			{
				"x": 3.1185543234,
				"y": 0.2409090552,
				"z": -0.1471509539,
				"element": "C" 
			},
			{
				"x": 3.7492560809,
				"y": 1.0146388534,
				"z": -1.1224428385,
				"element": "C" 
			},
			{
				"x": 2.9918338315,
				"y": 1.6800343588,
				"z": -2.0909853917,
				"element": "C" 
			},
			{
				"x": 1.6041676023,
				"y": 1.5683652231,
				"z": -2.080289688,
				"element": "C" 
			},
			{
				"x": 0.9700151589,
				"y": 0.785274242,
				"z": -1.1088961349,
				"element": "C" 
			},
			{
				"x": -0.5256654867,
				"y": 0.7120975578,
				"z": -1.1202700765,
				"element": "C" 
			},
			{
				"x": -1.2038818192,
				"y": 1.4763260293,
				"z": -1.8058360839,
				"element": "O" 
			},
			{
				"x": -4.0648743652,
				"y": -1.9703205055,
				"z": -0.3430548579,
				"element": "H" 
			},
			{
				"x": -2.61721625,
				"y": -2.3433515558,
				"z": -1.2740831342,
				"element": "H" 
			},
			{
				"x": -2.9142955215,
				"y": 0.1381927627,
				"z": -1.2215193093,
				"element": "H" 
			},
			{
				"x": -2.9991610619,
				"y": 0.1116631376,
				"z": 0.5357880071,
				"element": "H" 
			},
			{
				"x": 0.026044391,
				"y": -2.0310070605,
				"z": -0.4347072426,
				"element": "H" 
			},
			{
				"x": -0.5249975627,
				"y": -2.8317902744,
				"z": 1.8593346494,
				"element": "H" 
			},
			{
				"x": -1.3924246331,
				"y": -1.3296488117,
				"z": 2.1850482324,
				"element": "H" 
			},
			{
				"x": 0.715251032,
				"y": -0.0326464772,
				"z": 1.7603401475,
				"element": "H" 
			},
			{
				"x": 1.6312278387,
				"y": -1.4756601751,
				"z": 1.3180237584,
				"element": "H" 
			},
			{
				"x": 3.7105918382,
				"y": -0.2732693186,
				"z": 0.6059320077,
				"element": "H" 
			},
			{
				"x": 4.8324860931,
				"y": 1.0969296821,
				"z": -1.1276022292,
				"element": "H" 
			},
			{
				"x": 3.4837709372,
				"y": 2.2832506847,
				"z": -2.8481823862,
				"element": "H" 
			},
			{
				"x": 0.9849253146,
				"y": 2.0796876571,
				"z": -2.809489977,
				"element": "H" 
			}
		],
		 "valence_orbital": [ 
			{
				"type": "occ",
				"energy": -0.26006,
				"method": "rhf"
			},
			{
				"type": "occ",
				"energy": -0.25612,
				"method": "rhf"
			},
			{
				"type": "occ",
				"energy": -0.25494,
				"method": "rhf"
			},
			{
				"type": "occ",
				"energy": -0.24634,
				"method": "rhf"
			},
			{
				"type": "occ",
				"energy": -0.24056,
				"method": "rhf"
			},
			{
				"type": "unocc",
				"energy": -0.04041,
				"method": "rhf"
			},
			{
				"type": "unocc",
				"energy": -0.02547,
				"method": "rhf"
			},
			{
				"type": "unocc",
				"energy": -0.00973,
				"method": "rhf"
			},
			{
				"type": "unocc",
				"energy": 0.05635,
				"method": "rhf"
			},
			{
				"type": "unocc",
				"energy": 0.07439,
				"method": "rhf"
			}
		],
		"cosmo_sigma_profile": { 
			"-0.025": 0.0,
			"-0.024": 0.0,
			"-0.023": 0.0,
			"-0.022": 0.0,
			"-0.021": 0.0,
			"-0.02": 0.0,
			"-0.019": 0.0,
			"-0.018": 0.0,
			"-0.017": 0.0,
			"-0.016": 0.0,
			"-0.015": 0.0,
			"-0.014": 0.0,
			"-0.013": 0.0,
			"-0.012": 0.0,
			"-0.011": 0.0,
			"-0.01": 0.0,
			"-0.009": 0.0,
			"-0.008": 1.24561724578,
			"-0.007": 7.25596382568,
			"-0.006": 20.8677700684,
			"-0.005": 30.432082593,
			"-0.004": 26.8926617727,
			"-0.003": 23.1167399846,
			"-0.002": 17.4193427389,
			"-0.001": 11.3390532107,
			"0.0": 11.561950768,
			"0.001": 11.2689251962,
			"0.002": 11.0664809383,
			"0.003": 10.8844706109,
			"0.004": 13.3336472544,
			"0.005": 9.66993853114,
			"0.006": 3.67077255042,
			"0.007": 3.53714016323,
			"0.008": 2.76400360993,
			"0.009": 2.44346321127,
			"0.01": 4.18716550962,
			"0.011": 5.83450923083,
			"0.012": 5.79367665273,
			"0.013": 5.39816023723,
			"0.014": 4.06935785184,
			"0.015": 0.0452735731361,
			"0.016": 0.0,
			"0.017": 0.0,
			"0.018": 0.0,
			"0.019": 0.0,
			"0.02": 0.0,
			"0.021": 0.0,
			"0.022": 0.0,
			"0.023": 0.0,
			"0.024": 0.0,
			"0.025": 0.0
		}
	}
}
