{
	 "smiles": "NC(CC(O)=O)C1=CC=CS1", 
	 "Tm": 493.15, 
	 "num_atms": 20, 
	 "gaussian": { 
		 "optdone": 1, 
		 "sigma_profile": "yes", 
		 "theory": "DFT", 
		 "functional": "B3LYP", 
		 "basiset": "6-31G**", 
		 "properties": { 
			 "R2extent": 2665.1335, 
			 "electric_dipole_moment_norm": 1.2117567784, 
			 "electric_quadrupole_moment_norm": 8.15521260974, 
			 "total_energy": -875.552313655, 
			 "HOMO_LUMO_gap": 0.21356, 
			 "cosmo_polarized_energy": -12.38, 
			 "cosmo_cavitation_energy": 25.42, 
			 "cosmo_dispersion_energy": -18.73, 
			 "cosmo_repulsion_energy": 1.48, 
			 "cosmo_total_nonelectrostatic_energy": 8.18, 
			 "SMD_solvation_energy": 4.3 
		},
		"coords": [
			{
				"x": 2.4594973585,
				"y": -0.9678782013,
				"z": 2.4265867484,
				"element": "N" 
			},
			{
				"x": 1.8788927619,
				"y": -1.3534252463,
				"z": 1.1351709563,
				"element": "C" 
			},
			{
				"x": 2.6568327744,
				"y": -0.6177500107,
				"z": 0.0280915681,
				"element": "C" 
			},
			{
				"x": 2.4750995489,
				"y": -1.2358953261,
				"z": -1.3398325419,
				"element": "C" 
			},
			{
				"x": 2.7748615909,
				"y": -0.3599639945,
				"z": -2.3265617728,
				"element": "O" 
			},
			{
				"x": 2.1426028309,
				"y": -2.3803705925,
				"z": -1.5649344642,
				"element": "O" 
			},
			{
				"x": 0.378396973,
				"y": -1.156875626,
				"z": 1.0054586048,
				"element": "C" 
			},
			{
				"x": -0.5216718112,
				"y": -1.8981559437,
				"z": 0.285163893,
				"element": "C" 
			},
			{
				"x": -1.8579221354,
				"y": -1.3947945434,
				"z": 0.3515864682,
				"element": "C" 
			},
			{
				"x": -1.9643877912,
				"y": -0.272677147,
				"z": 1.1235474245,
				"element": "C" 
			},
			{
				"x": -0.4283408895,
				"y": 0.1874192472,
				"z": 1.789844825,
				"element": "S" 
			},
			{
				"x": 1.9488981087,
				"y": -1.4184040587,
				"z": 3.1820413339,
				"element": "H" 
			},
			{
				"x": 2.3645883602,
				"y": 0.0354028962,
				"z": 2.5744082967,
				"element": "H" 
			},
			{
				"x": 2.0679612934,
				"y": -2.4234041084,
				"z": 0.9960230688,
				"element": "H" 
			},
			{
				"x": 2.3887303775,
				"y": 0.4428573566,
				"z": -0.0167381835,
				"element": "H" 
			},
			{
				"x": 3.7264045325,
				"y": -0.6677104729,
				"z": 0.2697779173,
				"element": "H" 
			},
			{
				"x": 2.6719401048,
				"y": -0.8476515912,
				"z": -3.1614124264,
				"element": "H" 
			},
			{
				"x": -0.2255477869,
				"y": -2.7702949146,
				"z": -0.2861669933,
				"element": "H" 
			},
			{
				"x": -2.7021680114,
				"y": -1.8559619403,
				"z": -0.1490138567,
				"element": "H" 
			},
			{
				"x": -2.8483681901,
				"y": 0.3032342178,
				"z": 1.3595591338,
				"element": "H" 
			}
		],
		 "valence_orbital": [ 
			{
				"type": "occ",
				"energy": -0.32146,
				"method": "rhf"
			},
			{
				"type": "occ",
				"energy": -0.27979,
				"method": "rhf"
			},
			{
				"type": "occ",
				"energy": -0.25539,
				"method": "rhf"
			},
			{
				"type": "occ",
				"energy": -0.24696,
				"method": "rhf"
			},
			{
				"type": "occ",
				"energy": -0.2237,
				"method": "rhf"
			},
			{
				"type": "unocc",
				"energy": -0.01014,
				"method": "rhf"
			},
			{
				"type": "unocc",
				"energy": 0.0061,
				"method": "rhf"
			},
			{
				"type": "unocc",
				"energy": 0.02998,
				"method": "rhf"
			},
			{
				"type": "unocc",
				"energy": 0.06801,
				"method": "rhf"
			},
			{
				"type": "unocc",
				"energy": 0.07412,
				"method": "rhf"
			}
		],
		"cosmo_sigma_profile": { 
			"-0.025": 0.0,
			"-0.024": 0.0,
			"-0.023": 0.0,
			"-0.022": 0.0,
			"-0.021": 0.0,
			"-0.02": 0.0,
			"-0.019": 0.0065201130925,
			"-0.018": 0.691797054011,
			"-0.017": 0.842910184425,
			"-0.016": 0.962302637539,
			"-0.015": 1.07755742541,
			"-0.014": 0.394159918072,
			"-0.013": 0.394162919458,
			"-0.012": 0.727570868499,
			"-0.011": 1.23364887308,
			"-0.01": 2.91820453584,
			"-0.009": 3.29347893538,
			"-0.008": 4.79128397646,
			"-0.007": 7.94482724913,
			"-0.006": 9.76799165312,
			"-0.005": 11.6525468892,
			"-0.004": 12.7038337394,
			"-0.003": 14.8168561397,
			"-0.002": 12.9257914891,
			"-0.001": 11.4081495713,
			"0.0": 9.47146966135,
			"0.001": 9.99101767245,
			"0.002": 12.7186008816,
			"0.003": 12.0795318039,
			"0.004": 13.507857958,
			"0.005": 14.509731311,
			"0.006": 7.37998579589,
			"0.007": 3.45935427814,
			"0.008": 5.03524059434,
			"0.009": 3.1188640773,
			"0.01": 2.59336991279,
			"0.011": 3.96082005813,
			"0.012": 2.93958855933,
			"0.013": 0.489824820932,
			"0.014": 0.624814025534,
			"0.015": 0.840055428417,
			"0.016": 0.622194562546,
			"0.017": 0.293970156862,
			"0.018": 0.462448625268,
			"0.019": 0.0216126828418,
			"0.02": 0.0,
			"0.021": 0.0,
			"0.022": 0.0,
			"0.023": 0.0,
			"0.024": 0.0,
			"0.025": 0.0
		}
	}
}
