{
	 "smiles": "CC1=NN(CC2=CC=CC=C2)C(C)=C1C=O", 
	 "Tm": 346.15, 
	 "num_atms": 30, 
	 "gaussian": { 
		 "optdone": 1, 
		 "sigma_profile": "yes", 
		 "theory": "DFT", 
		 "functional": "B3LYP", 
		 "basiset": "6-31G**", 
		 "properties": { 
			 "R2extent": 4683.3463, 
			 "electric_dipole_moment_norm": 5.06146805285, 
			 "electric_quadrupole_moment_norm": 15.9135872625, 
			 "total_energy": -688.540594606, 
			 "HOMO_LUMO_gap": 0.20651, 
			 "cosmo_polarized_energy": -13.28, 
			 "cosmo_cavitation_energy": 33.9, 
			 "cosmo_dispersion_energy": -23.42, 
			 "cosmo_repulsion_energy": 1.82, 
			 "cosmo_total_nonelectrostatic_energy": 12.3, 
			 "SMD_solvation_energy": 5.86 
		},
		"coords": [
			{
				"x": -1.5997166043,
				"y": 2.7393726166,
				"z": -3.3862443482,
				"element": "C" 
			},
			{
				"x": -1.0938529035,
				"y": 1.4715807822,
				"z": -2.7766429581,
				"element": "C" 
			},
			{
				"x": -1.8800469353,
				"y": 0.7070444589,
				"z": -2.0320457451,
				"element": "N" 
			},
			{
				"x": -1.1040061089,
				"y": -0.3575380936,
				"z": -1.6557552688,
				"element": "N" 
			},
			{
				"x": -1.6736211347,
				"y": -1.3568194524,
				"z": -0.7582349653,
				"element": "C" 
			},
			{
				"x": -1.3263417761,
				"y": -1.1356447498,
				"z": 0.7044823537,
				"element": "C" 
			},
			{
				"x": -1.5244899693,
				"y": 0.1183328768,
				"z": 1.2987973493,
				"element": "C" 
			},
			{
				"x": -1.2300976515,
				"y": 0.3107305504,
				"z": 2.6476168563,
				"element": "C" 
			},
			{
				"x": -0.7389129678,
				"y": -0.7460931618,
				"z": 3.4196592118,
				"element": "C" 
			},
			{
				"x": -0.5412647914,
				"y": -1.996699563,
				"z": 2.8348429132,
				"element": "C" 
			},
			{
				"x": -0.8313398081,
				"y": -2.188088599,
				"z": 1.4815423124,
				"element": "C" 
			},
			{
				"x": 0.1601559625,
				"y": -0.2804173277,
				"z": -2.1343110363,
				"element": "C" 
			},
			{
				"x": 1.1968420058,
				"y": -1.3200319686,
				"z": -1.8488188101,
				"element": "C" 
			},
			{
				"x": 0.2141616681,
				"y": 0.9011645166,
				"z": -2.8832292676,
				"element": "C" 
			},
			{
				"x": 1.3516598961,
				"y": 1.4302836979,
				"z": -3.6145902151,
				"element": "C" 
			},
			{
				"x": 1.3460018171,
				"y": 2.4699778897,
				"z": -4.2585969849,
				"element": "O" 
			},
			{
				"x": -1.0059676334,
				"y": 3.5963095127,
				"z": -3.0543250886,
				"element": "H" 
			},
			{
				"x": -2.6452424665,
				"y": 2.8921720392,
				"z": -3.1094786489,
				"element": "H" 
			},
			{
				"x": -1.513227567,
				"y": 2.710075216,
				"z": -4.4765581469,
				"element": "H" 
			},
			{
				"x": -1.3418048317,
				"y": -2.3487333194,
				"z": -1.0797222884,
				"element": "H" 
			},
			{
				"x": -2.7541498535,
				"y": -1.3011191133,
				"z": -0.9149966403,
				"element": "H" 
			},
			{
				"x": -1.9066448426,
				"y": 0.937333234,
				"z": 0.696130574,
				"element": "H" 
			},
			{
				"x": -1.3860452245,
				"y": 1.2865081129,
				"z": 3.0987034303,
				"element": "H" 
			},
			{
				"x": -0.5110256291,
				"y": -0.593423327,
				"z": 4.4705897431,
				"element": "H" 
			},
			{
				"x": -0.1572235392,
				"y": -2.8224073062,
				"z": 3.4269867929,
				"element": "H" 
			},
			{
				"x": -0.6748416612,
				"y": -3.1646688004,
				"z": 1.0287436809,
				"element": "H" 
			},
			{
				"x": 0.9098686545,
				"y": -2.2960128609,
				"z": -2.2582880669,
				"element": "H" 
			},
			{
				"x": 1.3487130857,
				"y": -1.4445527144,
				"z": -0.7713675885,
				"element": "H" 
			},
			{
				"x": 2.1523803755,
				"y": -1.0417256458,
				"z": -2.2960567297,
				"element": "H" 
			},
			{
				"x": 2.2785804346,
				"y": 0.8157904993,
				"z": -3.5594324205,
				"element": "H" 
			}
		],
		 "valence_orbital": [ 
			{
				"type": "occ",
				"energy": -0.26014,
				"method": "rhf"
			},
			{
				"type": "occ",
				"energy": -0.25904,
				"method": "rhf"
			},
			{
				"type": "occ",
				"energy": -0.24755,
				"method": "rhf"
			},
			{
				"type": "occ",
				"energy": -0.24371,
				"method": "rhf"
			},
			{
				"type": "occ",
				"energy": -0.23911,
				"method": "rhf"
			},
			{
				"type": "unocc",
				"energy": -0.0326,
				"method": "rhf"
			},
			{
				"type": "unocc",
				"energy": -0.01606,
				"method": "rhf"
			},
			{
				"type": "unocc",
				"energy": -0.01113,
				"method": "rhf"
			},
			{
				"type": "unocc",
				"energy": 0.01873,
				"method": "rhf"
			},
			{
				"type": "unocc",
				"energy": 0.07474,
				"method": "rhf"
			}
		],
		"cosmo_sigma_profile": { 
			"-0.025": 0.0,
			"-0.024": 0.0,
			"-0.023": 0.0,
			"-0.022": 0.0,
			"-0.021": 0.0,
			"-0.02": 0.0,
			"-0.019": 0.0,
			"-0.018": 0.0,
			"-0.017": 0.0,
			"-0.016": 0.0,
			"-0.015": 0.0,
			"-0.014": 0.0,
			"-0.013": 0.0,
			"-0.012": 0.0,
			"-0.011": 0.0,
			"-0.01": 0.0,
			"-0.009": 0.0,
			"-0.008": 1.0009015529,
			"-0.007": 8.61633689658,
			"-0.006": 15.4008991807,
			"-0.005": 19.0198086602,
			"-0.004": 25.4501391001,
			"-0.003": 25.9026781135,
			"-0.002": 25.9666558243,
			"-0.001": 21.1217784087,
			"0.0": 20.2326438725,
			"0.001": 19.748966824,
			"0.002": 16.862297275,
			"0.003": 13.9850093807,
			"0.004": 12.4730272269,
			"0.005": 12.3488386015,
			"0.006": 7.21970410946,
			"0.007": 2.49878982699,
			"0.008": 3.00790422638,
			"0.009": 2.39801515465,
			"0.01": 2.73820085964,
			"0.011": 3.67903252442,
			"0.012": 4.23574867514,
			"0.013": 3.6428939626,
			"0.014": 1.71524998442,
			"0.015": 0.379949339615,
			"0.016": 0.0,
			"0.017": 0.0,
			"0.018": 0.0,
			"0.019": 0.0,
			"0.02": 0.0,
			"0.021": 0.0,
			"0.022": 0.0,
			"0.023": 0.0,
			"0.024": 0.0,
			"0.025": 0.0
		}
	}
}
