{
	 "smiles": "COC1=CC2=C(C=C1)C(CCl)=CC(=O)O2", 
	 "Tm": 463.15, 
	 "num_atms": 24, 
	 "gaussian": { 
		 "optdone": 1, 
		 "sigma_profile": "yes", 
		 "theory": "DFT", 
		 "functional": "B3LYP", 
		 "basiset": "6-31G**", 
		 "properties": { 
			 "R2extent": 5588.6552, 
			 "electric_dipole_moment_norm": 7.46261427919, 
			 "electric_quadrupole_moment_norm": 19.7968859963, 
			 "total_energy": -1110.45215573, 
			 "HOMO_LUMO_gap": 0.16355, 
			 "cosmo_polarized_energy": -15.64, 
			 "cosmo_cavitation_energy": 30.0, 
			 "cosmo_dispersion_energy": -22.51, 
			 "cosmo_repulsion_energy": 1.74, 
			 "cosmo_total_nonelectrostatic_energy": 9.23, 
			 "SMD_solvation_energy": 6.63 
		},
		"coords": [
			{
				"x": 2.0694627575,
				"y": -2.9541815167,
				"z": 0.1463171842,
				"element": "C" 
			},
			{
				"x": 0.6926740462,
				"y": -2.8465362434,
				"z": -0.1925844802,
				"element": "O" 
			},
			{
				"x": 0.1048143799,
				"y": -1.624260285,
				"z": -0.1511608019,
				"element": "C" 
			},
			{
				"x": -1.2497846429,
				"y": -1.5934396546,
				"z": -0.4956372633,
				"element": "C" 
			},
			{
				"x": -1.9345332747,
				"y": -0.3846929609,
				"z": -0.4810272374,
				"element": "C" 
			},
			{
				"x": -1.2997990658,
				"y": 0.8279287113,
				"z": -0.125581712,
				"element": "C" 
			},
			{
				"x": 0.0627848179,
				"y": 0.7628401179,
				"z": 0.2153558398,
				"element": "C" 
			},
			{
				"x": 0.7662892454,
				"y": -0.4348746422,
				"z": 0.2073804506,
				"element": "C" 
			},
			{
				"x": -2.1032969552,
				"y": 2.0405015716,
				"z": -0.1406524392,
				"element": "C" 
			},
			{
				"x": -1.4140265232,
				"y": 3.3288778578,
				"z": 0.2407368385,
				"element": "C" 
			},
			{
				"x": -2.4521944125,
				"y": 4.802891481,
				"z": 0.2072420072,
				"element": "Cl" 
			},
			{
				"x": -3.4097578038,
				"y": 1.9658219228,
				"z": -0.4889635892,
				"element": "C" 
			},
			{
				"x": -4.0556926129,
				"y": 0.7119832857,
				"z": -0.8539030942,
				"element": "C" 
			},
			{
				"x": -5.2127471282,
				"y": 0.576727976,
				"z": -1.1729363865,
				"element": "O" 
			},
			{
				"x": -3.2515588366,
				"y": -0.4288723568,
				"z": -0.8273969276,
				"element": "O" 
			},
			{
				"x": 2.6988368005,
				"y": -2.3666804105,
				"z": -0.533324715,
				"element": "H" 
			},
			{
				"x": 2.3195071918,
				"y": -4.0107466693,
				"z": 0.0442387827,
				"element": "H" 
			},
			{
				"x": 2.2559644631,
				"y": -2.6369475494,
				"z": 1.1796415612,
				"element": "H" 
			},
			{
				"x": -1.763871998,
				"y": -2.5060172409,
				"z": -0.7724008795,
				"element": "H" 
			},
			{
				"x": 0.5928465352,
				"y": 1.6673577764,
				"z": 0.495014803,
				"element": "H" 
			},
			{
				"x": 1.814739824,
				"y": -0.438593436,
				"z": 0.4770865037,
				"element": "H" 
			},
			{
				"x": -0.5807875201,
				"y": 3.5272620785,
				"z": -0.4376643935,
				"element": "H" 
			},
			{
				"x": -1.0163988033,
				"y": 3.2589478902,
				"z": 1.2560524651,
				"element": "H" 
			},
			{
				"x": -4.0467704844,
				"y": 2.8398022965,
				"z": -0.5146325166,
				"element": "H" 
			}
		],
		 "valence_orbital": [ 
			{
				"type": "occ",
				"energy": -0.31155,
				"method": "rhf"
			},
			{
				"type": "occ",
				"energy": -0.29493,
				"method": "rhf"
			},
			{
				"type": "occ",
				"energy": -0.27243,
				"method": "rhf"
			},
			{
				"type": "occ",
				"energy": -0.25371,
				"method": "rhf"
			},
			{
				"type": "occ",
				"energy": -0.22981,
				"method": "rhf"
			},
			{
				"type": "unocc",
				"energy": -0.06626,
				"method": "rhf"
			},
			{
				"type": "unocc",
				"energy": -0.01622,
				"method": "rhf"
			},
			{
				"type": "unocc",
				"energy": 0.00298,
				"method": "rhf"
			},
			{
				"type": "unocc",
				"energy": 0.00914,
				"method": "rhf"
			},
			{
				"type": "unocc",
				"energy": 0.07618,
				"method": "rhf"
			}
		],
		"cosmo_sigma_profile": { 
			"-0.025": 0.0,
			"-0.024": 0.0,
			"-0.023": 0.0,
			"-0.022": 0.0,
			"-0.021": 0.0,
			"-0.02": 0.0,
			"-0.019": 0.0,
			"-0.018": 0.0,
			"-0.017": 0.0,
			"-0.016": 0.0,
			"-0.015": 0.0,
			"-0.014": 0.0,
			"-0.013": 0.0,
			"-0.012": 0.0,
			"-0.011": 0.0,
			"-0.01": 0.304185621973,
			"-0.009": 6.7367814005,
			"-0.008": 7.17583409588,
			"-0.007": 9.49130823163,
			"-0.006": 15.3210223102,
			"-0.005": 16.0848875323,
			"-0.004": 17.6714902282,
			"-0.003": 14.1007422229,
			"-0.002": 13.3182569667,
			"-0.001": 15.1751162275,
			"0.0": 18.5560489632,
			"0.001": 18.7965218855,
			"0.002": 21.4026579933,
			"0.003": 14.1168098506,
			"0.004": 10.0773939264,
			"0.005": 10.0036539237,
			"0.006": 7.38342298007,
			"0.007": 3.10757425813,
			"0.008": 4.09379358104,
			"0.009": 3.58658001286,
			"0.01": 3.44046515597,
			"0.011": 3.41136925401,
			"0.012": 6.46635898888,
			"0.013": 2.57984917626,
			"0.014": 0.122266855589,
			"0.015": 0.0,
			"0.016": 0.0,
			"0.017": 0.0,
			"0.018": 0.0,
			"0.019": 0.0,
			"0.02": 0.0,
			"0.021": 0.0,
			"0.022": 0.0,
			"0.023": 0.0,
			"0.024": 0.0,
			"0.025": 0.0
		}
	}
}
