{
	 "smiles": "OC1=C(C=C(Br)C=C1Br)C(=O)NC1=CC=C(Br)C=C1", 
	 "Tm": 500.15, 
	 "num_atms": 27, 
	 "gaussian": { 
		 "optdone": 1, 
		 "sigma_profile": "yes", 
		 "theory": "DFT", 
		 "functional": "B3LYP", 
		 "basiset": "6-31G**", 
		 "properties": { 
			 "R2extent": 12838.6705, 
			 "electric_dipole_moment_norm": 3.40296674976, 
			 "electric_quadrupole_moment_norm": 16.6113246296, 
			 "total_energy": -8419.63197405, 
			 "HOMO_LUMO_gap": 0.15803, 
			 "cosmo_polarized_energy": -12.48, 
			 "cosmo_cavitation_energy": 39.01, 
			 "cosmo_dispersion_energy": -28.53, 
			 "cosmo_repulsion_energy": 2.23, 
			 "cosmo_total_nonelectrostatic_energy": 12.71, 
			 "SMD_solvation_energy": 3.85 
		},
		"coords": [
			{
				"x": 1.1749416755,
				"y": 0.8241056332,
				"z": 3.6537424096,
				"element": "O" 
			},
			{
				"x": 0.9413820317,
				"y": 1.2523850029,
				"z": 2.4143142181,
				"element": "C" 
			},
			{
				"x": 1.2184065623,
				"y": 0.4643954905,
				"z": 1.2611533028,
				"element": "C" 
			},
			{
				"x": 1.0420474476,
				"y": 1.0161918514,
				"z": -0.0209958114,
				"element": "C" 
			},
			{
				"x": 0.5418790082,
				"y": 2.2986258962,
				"z": -0.163708902,
				"element": "C" 
			},
			{
				"x": 0.3144548266,
				"y": 3.0443811611,
				"z": -1.9065704945,
				"element": "Br" 
			},
			{
				"x": 0.1987183256,
				"y": 3.0626399724,
				"z": 0.9565271277,
				"element": "C" 
			},
			{
				"x": 0.3978578592,
				"y": 2.5415114593,
				"z": 2.2252666467,
				"element": "C" 
			},
			{
				"x": -0.0347022669,
				"y": 3.5946360858,
				"z": 3.7466578304,
				"element": "Br" 
			},
			{
				"x": 1.7625627827,
				"y": -0.8988421416,
				"z": 1.4846299995,
				"element": "C" 
			},
			{
				"x": 2.254237787,
				"y": -1.2147593555,
				"z": 2.5847256654,
				"element": "O" 
			},
			{
				"x": 1.7953679863,
				"y": -1.835701112,
				"z": 0.4784032717,
				"element": "N" 
			},
			{
				"x": 0.9332304299,
				"y": -2.0324749961,
				"z": -0.6380777174,
				"element": "C" 
			},
			{
				"x": 1.4823748774,
				"y": -2.5235101148,
				"z": -1.8282893042,
				"element": "C" 
			},
			{
				"x": 0.6660051774,
				"y": -2.7898245596,
				"z": -2.9264718028,
				"element": "C" 
			},
			{
				"x": -0.703257009,
				"y": -2.5458215398,
				"z": -2.834608774,
				"element": "C" 
			},
			{
				"x": -1.8248736275,
				"y": -2.8945634094,
				"z": -4.3377334833,
				"element": "Br" 
			},
			{
				"x": -1.2647238274,
				"y": -2.0548836711,
				"z": -1.6558545511,
				"element": "C" 
			},
			{
				"x": -0.4478123916,
				"y": -1.8130434212,
				"z": -0.5536662021,
				"element": "C" 
			},
			{
				"x": 1.6780893129,
				"y": -0.0298093527,
				"z": 3.5580346605,
				"element": "H" 
			},
			{
				"x": 1.3071283302,
				"y": 0.4461523017,
				"z": -0.9005654808,
				"element": "H" 
			},
			{
				"x": -0.2039977001,
				"y": 4.0610014017,
				"z": 0.8398733982,
				"element": "H" 
			},
			{
				"x": 2.3268230881,
				"y": -2.6484080503,
				"z": 0.7721896087,
				"element": "H" 
			},
			{
				"x": 2.55320353,
				"y": -2.6910589394,
				"z": -1.8950635319,
				"element": "H" 
			},
			{
				"x": 1.0925722801,
				"y": -3.1723386031,
				"z": -3.8464585558,
				"element": "H" 
			},
			{
				"x": -2.3323307315,
				"y": -1.8791754693,
				"z": -1.5923877956,
				"element": "H" 
			},
			{
				"x": -0.8848857648,
				"y": -1.4556115204,
				"z": 0.3723342673,
				"element": "H" 
			}
		],
		 "valence_orbital": [ 
			{
				"type": "occ",
				"energy": -0.28644,
				"method": "rhf"
			},
			{
				"type": "occ",
				"energy": -0.28473,
				"method": "rhf"
			},
			{
				"type": "occ",
				"energy": -0.26494,
				"method": "rhf"
			},
			{
				"type": "occ",
				"energy": -0.24626,
				"method": "rhf"
			},
			{
				"type": "occ",
				"energy": -0.23037,
				"method": "rhf"
			},
			{
				"type": "unocc",
				"energy": -0.07234,
				"method": "rhf"
			},
			{
				"type": "unocc",
				"energy": -0.03807,
				"method": "rhf"
			},
			{
				"type": "unocc",
				"energy": -0.03273,
				"method": "rhf"
			},
			{
				"type": "unocc",
				"energy": -0.01701,
				"method": "rhf"
			},
			{
				"type": "unocc",
				"energy": -0.0145,
				"method": "rhf"
			}
		],
		"cosmo_sigma_profile": { 
			"-0.025": 0.0,
			"-0.024": 0.0,
			"-0.023": 0.0,
			"-0.022": 0.0,
			"-0.021": 0.0,
			"-0.02": 0.0,
			"-0.019": 0.0,
			"-0.018": 0.0,
			"-0.017": 0.0,
			"-0.016": 0.117674098254,
			"-0.015": 0.83672721905,
			"-0.014": 1.12552459974,
			"-0.013": 0.74209719699,
			"-0.012": 1.12229201439,
			"-0.011": 0.974642514827,
			"-0.01": 1.08657132721,
			"-0.009": 1.39585165153,
			"-0.008": 5.81804885502,
			"-0.007": 11.6160489465,
			"-0.006": 11.6570051984,
			"-0.005": 15.418637442,
			"-0.004": 16.5163379911,
			"-0.003": 19.6615157173,
			"-0.002": 20.3738376439,
			"-0.001": 24.8306870608,
			"0.0": 31.5057148015,
			"0.001": 36.1596627166,
			"0.002": 30.352000388,
			"0.003": 28.5181243949,
			"0.004": 32.0016260689,
			"0.005": 12.253838752,
			"0.006": 2.67962319675,
			"0.007": 3.04066682058,
			"0.008": 3.17354692006,
			"0.009": 3.42447098927,
			"0.01": 3.8734164923,
			"0.011": 2.74900370902,
			"0.012": 1.04872859923,
			"0.013": 0.0,
			"0.014": 0.0,
			"0.015": 0.0,
			"0.016": 0.0,
			"0.017": 0.0,
			"0.018": 0.0,
			"0.019": 0.0,
			"0.02": 0.0,
			"0.021": 0.0,
			"0.022": 0.0,
			"0.023": 0.0,
			"0.024": 0.0,
			"0.025": 0.0
		}
	}
}
