{
	 "smiles": "CC(C)(C)OC(=O)N1CCC(C1)(C(O)=O)C(O)=O", 
	 "Tm": 405.15, 
	 "num_atms": 35, 
	 "gaussian": { 
		 "optdone": 1, 
		 "sigma_profile": "yes", 
		 "theory": "DFT", 
		 "functional": "B3LYP", 
		 "basiset": "6-31G**", 
		 "properties": { 
			 "R2extent": 6618.7363, 
			 "electric_dipole_moment_norm": 3.50324684971, 
			 "electric_quadrupole_moment_norm": 21.1921286231, 
			 "total_energy": -935.567809041, 
			 "HOMO_LUMO_gap": 0.20887, 
			 "cosmo_polarized_energy": -19.62, 
			 "cosmo_cavitation_energy": 37.21, 
			 "cosmo_dispersion_energy": -25.64, 
			 "cosmo_repulsion_energy": 2.01, 
			 "cosmo_total_nonelectrostatic_energy": 13.58, 
			 "SMD_solvation_energy": 8.85 
		},
		"coords": [
			{
				"x": -1.8498285844,
				"y": -3.4847614239,
				"z": 0.6599438753,
				"element": "C" 
			},
			{
				"x": -0.4536071182,
				"y": -2.8923471647,
				"z": 0.4416002241,
				"element": "C" 
			},
			{
				"x": 0.5968146555,
				"y": -3.6641222392,
				"z": 1.2443613436,
				"element": "C" 
			},
			{
				"x": -0.0720086925,
				"y": -2.8355413498,
				"z": -1.0414364032,
				"element": "C" 
			},
			{
				"x": -0.3802190933,
				"y": -1.5456956869,
				"z": 1.0320123569,
				"element": "O" 
			},
			{
				"x": -1.1780131326,
				"y": -0.5472828087,
				"z": 0.5847262104,
				"element": "C" 
			},
			{
				"x": -2.0077946523,
				"y": -0.6214434515,
				"z": -0.3117353853,
				"element": "O" 
			},
			{
				"x": -0.9289958007,
				"y": 0.5997801445,
				"z": 1.2843022657,
				"element": "N" 
			},
			{
				"x": 0.081242802,
				"y": 0.7709345611,
				"z": 2.3380458385,
				"element": "C" 
			},
			{
				"x": -0.0802718259,
				"y": 2.2439517423,
				"z": 2.7502574734,
				"element": "C" 
			},
			{
				"x": -0.6886017782,
				"y": 2.9302504051,
				"z": 1.5125158647,
				"element": "C" 
			},
			{
				"x": -1.6437795324,
				"y": 1.8270653738,
				"z": 0.9623310997,
				"element": "C" 
			},
			{
				"x": 0.4081858505,
				"y": 3.229031161,
				"z": 0.4893951931,
				"element": "C" 
			},
			{
				"x": -0.1097395821,
				"y": 3.6717626694,
				"z": -0.6990048939,
				"element": "O" 
			},
			{
				"x": 1.5963130496,
				"y": 3.10643995,
				"z": 0.6547112214,
				"element": "O" 
			},
			{
				"x": -1.5101094498,
				"y": 4.1951204477,
				"z": 1.8867588075,
				"element": "C" 
			},
			{
				"x": -1.9079589147,
				"y": 4.980840482,
				"z": 0.8697558337,
				"element": "O" 
			},
			{
				"x": -1.8347285201,
				"y": 4.4339441329,
				"z": 3.0227045026,
				"element": "O" 
			},
			{
				"x": -2.1053570158,
				"y": -3.4724246063,
				"z": 1.7243063418,
				"element": "H" 
			},
			{
				"x": -1.8643237073,
				"y": -4.5253221581,
				"z": 0.3197176641,
				"element": "H" 
			},
			{
				"x": -2.6032012158,
				"y": -2.9222361412,
				"z": 0.108136247,
				"element": "H" 
			},
			{
				"x": 1.5852040246,
				"y": -3.2111601534,
				"z": 1.1237488696,
				"element": "H" 
			},
			{
				"x": 0.3455222974,
				"y": -3.6652921815,
				"z": 2.3089980804,
				"element": "H" 
			},
			{
				"x": 0.6461524713,
				"y": -4.7009915499,
				"z": 0.8989182925,
				"element": "H" 
			},
			{
				"x": -0.8064247964,
				"y": -2.2657642209,
				"z": -1.6111204303,
				"element": "H" 
			},
			{
				"x": 0.9118988094,
				"y": -2.3710991145,
				"z": -1.1628138894,
				"element": "H" 
			},
			{
				"x": -0.0196116808,
				"y": -3.8514192985,
				"z": -1.4463697301,
				"element": "H" 
			},
			{
				"x": 1.081214792,
				"y": 0.5658004408,
				"z": 1.9425025147,
				"element": "H" 
			},
			{
				"x": -0.0968434935,
				"y": 0.0861566134,
				"z": 3.1725193139,
				"element": "H" 
			},
			{
				"x": -0.7883385989,
				"y": 2.3547908633,
				"z": 3.5730416848,
				"element": "H" 
			},
			{
				"x": 0.8664436775,
				"y": 2.6985307485,
				"z": 3.044336478,
				"element": "H" 
			},
			{
				"x": -2.6090514715,
				"y": 1.8862974001,
				"z": 1.4835444126,
				"element": "H" 
			},
			{
				"x": -1.8327495733,
				"y": 1.8925745626,
				"z": -0.1099433039,
				"element": "H" 
			},
			{
				"x": 0.6414032993,
				"y": 3.8668220779,
				"z": -1.2852188552,
				"element": "H" 
			},
			{
				"x": -1.5219374986,
				"y": 4.6771097724,
				"z": 0.0290508813,
				"element": "H" 
			}
		],
		 "valence_orbital": [ 
			{
				"type": "occ",
				"energy": -0.31417,
				"method": "rhf"
			},
			{
				"type": "occ",
				"energy": -0.28983,
				"method": "rhf"
			},
			{
				"type": "occ",
				"energy": -0.28131,
				"method": "rhf"
			},
			{
				"type": "occ",
				"energy": -0.26437,
				"method": "rhf"
			},
			{
				"type": "occ",
				"energy": -0.24495,
				"method": "rhf"
			},
			{
				"type": "unocc",
				"energy": -0.03608,
				"method": "rhf"
			},
			{
				"type": "unocc",
				"energy": 0.00377,
				"method": "rhf"
			},
			{
				"type": "unocc",
				"energy": 0.03882,
				"method": "rhf"
			},
			{
				"type": "unocc",
				"energy": 0.04863,
				"method": "rhf"
			},
			{
				"type": "unocc",
				"energy": 0.08081,
				"method": "rhf"
			}
		],
		"cosmo_sigma_profile": { 
			"-0.025": 0.0,
			"-0.024": 0.0,
			"-0.023": 0.0,
			"-0.022": 0.0,
			"-0.021": 0.0,
			"-0.02": 0.272879814509,
			"-0.019": 1.18870980766,
			"-0.018": 0.815003773716,
			"-0.017": 1.27099689592,
			"-0.016": 0.595632992621,
			"-0.015": 0.452763836572,
			"-0.014": 0.717769754386,
			"-0.013": 1.31563598543,
			"-0.012": 1.07122115373,
			"-0.011": 2.20040117742,
			"-0.01": 2.08364625983,
			"-0.009": 2.72843291324,
			"-0.008": 3.4734489127,
			"-0.007": 5.99975167499,
			"-0.006": 7.98867245852,
			"-0.005": 13.4397454756,
			"-0.004": 23.9019343578,
			"-0.003": 29.5490263546,
			"-0.002": 25.0380234399,
			"-0.001": 24.031574299,
			"0.0": 32.3545539364,
			"0.001": 23.040546586,
			"0.002": 9.9682656825,
			"0.003": 7.47799057199,
			"0.004": 8.28430575149,
			"0.005": 7.30908210002,
			"0.006": 7.12907715654,
			"0.007": 6.74535608002,
			"0.008": 7.06794920193,
			"0.009": 7.61117142849,
			"0.01": 10.5636524066,
			"0.011": 7.19626766827,
			"0.012": 3.45541293381,
			"0.013": 3.18039350996,
			"0.014": 1.25416241874,
			"0.015": 0.0,
			"0.016": 0.0,
			"0.017": 0.0,
			"0.018": 0.0,
			"0.019": 0.0,
			"0.02": 0.0,
			"0.021": 0.0,
			"0.022": 0.0,
			"0.023": 0.0,
			"0.024": 0.0,
			"0.025": 0.0
		}
	}
}
