{
	 "smiles": "NC(=O)NCCCC1=CC=CC=C1", 
	 "Tm": 411.15, 
	 "num_atms": 27, 
	 "gaussian": { 
		 "optdone": 1, 
		 "sigma_profile": "yes", 
		 "theory": "DFT", 
		 "functional": "B3LYP", 
		 "basiset": "6-31G**", 
		 "properties": { 
			 "R2extent": 3793.3839, 
			 "electric_dipole_moment_norm": 3.23444647969, 
			 "electric_quadrupole_moment_norm": 14.9284592537, 
			 "total_energy": -574.264298796, 
			 "HOMO_LUMO_gap": 0.23663, 
			 "cosmo_polarized_energy": -15.95, 
			 "cosmo_cavitation_energy": 30.44, 
			 "cosmo_dispersion_energy": -21.25, 
			 "cosmo_repulsion_energy": 1.72, 
			 "cosmo_total_nonelectrostatic_energy": 10.9, 
			 "SMD_solvation_energy": 5.44 
		},
		"coords": [
			{
				"x": 2.1221896391,
				"y": -2.5949233668,
				"z": -0.3278774148,
				"element": "N" 
			},
			{
				"x": 1.5857602076,
				"y": -1.4094850848,
				"z": -0.8281770793,
				"element": "C" 
			},
			{
				"x": 1.7194213317,
				"y": -1.0659301824,
				"z": -1.9956438472,
				"element": "O" 
			},
			{
				"x": 0.9154665804,
				"y": -0.6528548974,
				"z": 0.1126426607,
				"element": "N" 
			},
			{
				"x": 0.4879324638,
				"y": 0.7058888241,
				"z": -0.2296595801,
				"element": "C" 
			},
			{
				"x": -0.838392716,
				"y": 0.7421732989,
				"z": -0.9991494704,
				"element": "C" 
			},
			{
				"x": -2.0406638491,
				"y": 0.1519240028,
				"z": -0.2329936028,
				"element": "C" 
			},
			{
				"x": -2.3887540791,
				"y": 0.8955223533,
				"z": 1.0404949988,
				"element": "C" 
			},
			{
				"x": -2.0772389088,
				"y": 0.3653633337,
				"z": 2.2999586524,
				"element": "C" 
			},
			{
				"x": -2.3805771349,
				"y": 1.0615168279,
				"z": 3.4724482389,
				"element": "C" 
			},
			{
				"x": -3.0049684163,
				"y": 2.3071896962,
				"z": 3.4044495466,
				"element": "C" 
			},
			{
				"x": -3.3246689365,
				"y": 2.8482901573,
				"z": 2.1566552876,
				"element": "C" 
			},
			{
				"x": -3.0190708382,
				"y": 2.1483697768,
				"z": 0.9897089127,
				"element": "C" 
			},
			{
				"x": 2.4180549997,
				"y": -3.218474113,
				"z": -1.0658089734,
				"element": "H" 
			},
			{
				"x": 1.6171924165,
				"y": -3.0548902644,
				"z": 0.4176075286,
				"element": "H" 
			},
			{
				"x": 1.1417960394,
				"y": -0.8275917655,
				"z": 1.0807743412,
				"element": "H" 
			},
			{
				"x": 1.2638510512,
				"y": 1.1883281513,
				"z": -0.8340625416,
				"element": "H" 
			},
			{
				"x": 0.3924555775,
				"y": 1.2601513062,
				"z": 0.7085993088,
				"element": "H" 
			},
			{
				"x": -1.0459351901,
				"y": 1.7872154412,
				"z": -1.263196325,
				"element": "H" 
			},
			{
				"x": -0.7040419575,
				"y": 0.1969541886,
				"z": -1.9388595107,
				"element": "H" 
			},
			{
				"x": -2.9089821595,
				"y": 0.1519295914,
				"z": -0.903413211,
				"element": "H" 
			},
			{
				"x": -1.8276179919,
				"y": -0.8964994801,
				"z": 0.0021917068,
				"element": "H" 
			},
			{
				"x": -1.5988156872,
				"y": -0.6096683347,
				"z": 2.3604390477,
				"element": "H" 
			},
			{
				"x": -2.1328729067,
				"y": 0.6281346876,
				"z": 4.4377374307,
				"element": "H" 
			},
			{
				"x": -3.2451115369,
				"y": 2.8501173941,
				"z": 4.3140891902,
				"element": "H" 
			},
			{
				"x": -3.8172360753,
				"y": 3.814774939,
				"z": 2.0931788796,
				"element": "H" 
			},
			{
				"x": -3.278571923,
				"y": 2.5754735186,
				"z": 0.0235658249,
				"element": "H" 
			}
		],
		 "valence_orbital": [ 
			{
				"type": "occ",
				"energy": -0.27059,
				"method": "rhf"
			},
			{
				"type": "occ",
				"energy": -0.25056,
				"method": "rhf"
			},
			{
				"type": "occ",
				"energy": -0.24932,
				"method": "rhf"
			},
			{
				"type": "occ",
				"energy": -0.24794,
				"method": "rhf"
			},
			{
				"type": "occ",
				"energy": -0.23828,
				"method": "rhf"
			},
			{
				"type": "unocc",
				"energy": -0.00165,
				"method": "rhf"
			},
			{
				"type": "unocc",
				"energy": 0.00119,
				"method": "rhf"
			},
			{
				"type": "unocc",
				"energy": 0.05411,
				"method": "rhf"
			},
			{
				"type": "unocc",
				"energy": 0.06284,
				"method": "rhf"
			},
			{
				"type": "unocc",
				"energy": 0.0935,
				"method": "rhf"
			}
		],
		"cosmo_sigma_profile": { 
			"-0.025": 0.0,
			"-0.024": 0.0,
			"-0.023": 0.0,
			"-0.022": 0.0,
			"-0.021": 0.0,
			"-0.02": 0.0,
			"-0.019": 0.0,
			"-0.018": 0.0,
			"-0.017": 0.0,
			"-0.016": 0.0,
			"-0.015": 0.0,
			"-0.014": 0.793826956413,
			"-0.013": 3.88058310603,
			"-0.012": 3.67418158902,
			"-0.011": 3.45263695798,
			"-0.01": 2.84777445709,
			"-0.009": 2.97941127319,
			"-0.008": 2.33656459075,
			"-0.007": 2.88146770105,
			"-0.006": 4.05525462304,
			"-0.005": 11.9369261244,
			"-0.004": 13.0345108488,
			"-0.003": 25.4660856865,
			"-0.002": 23.0460174107,
			"-0.001": 22.0331517552,
			"0.0": 19.9548315658,
			"0.001": 16.1004927214,
			"0.002": 11.5140745099,
			"0.003": 10.7737322406,
			"0.004": 10.8175880785,
			"0.005": 10.5553609054,
			"0.006": 10.1308471483,
			"0.007": 5.60920458854,
			"0.008": 2.12326208631,
			"0.009": 2.66298817135,
			"0.01": 1.43717137042,
			"0.011": 2.1168813955,
			"0.012": 2.46174501679,
			"0.013": 1.75018116353,
			"0.014": 4.56093133343,
			"0.015": 3.69903663584,
			"0.016": 0.141478029183,
			"0.017": 0.0,
			"0.018": 0.0,
			"0.019": 0.0,
			"0.02": 0.0,
			"0.021": 0.0,
			"0.022": 0.0,
			"0.023": 0.0,
			"0.024": 0.0,
			"0.025": 0.0
		}
	}
}
