{
	 "smiles": "CC1=CC=C(C=C1)C1=NNC=C1Br", 
	 "Tm": 378.15, 
	 "num_atms": 22, 
	 "gaussian": { 
		 "optdone": 1, 
		 "sigma_profile": "yes", 
		 "theory": "DFT", 
		 "functional": "B3LYP", 
		 "basiset": "6-31G**", 
		 "properties": { 
			 "R2extent": 4386.737, 
			 "electric_dipole_moment_norm": 1.99425213551, 
			 "electric_quadrupole_moment_norm": 20.056438556, 
			 "total_energy": -3067.37970285, 
			 "HOMO_LUMO_gap": 0.19925, 
			 "cosmo_polarized_energy": -11.0, 
			 "cosmo_cavitation_energy": 28.21, 
			 "cosmo_dispersion_energy": -21.34, 
			 "cosmo_repulsion_energy": 1.69, 
			 "cosmo_total_nonelectrostatic_energy": 8.56, 
			 "SMD_solvation_energy": 3.22 
		},
		"coords": [
			{
				"x": 1.5422582167,
				"y": -0.5843974561,
				"z": -3.9863691612,
				"element": "C" 
			},
			{
				"x": 1.0366309515,
				"y": -0.4601941891,
				"z": -2.5688329984,
				"element": "C" 
			},
			{
				"x": 0.8516716219,
				"y": -1.5885526434,
				"z": -1.7620824313,
				"element": "C" 
			},
			{
				"x": 0.3568131339,
				"y": -1.4802136875,
				"z": -0.4628678352,
				"element": "C" 
			},
			{
				"x": 0.0266712582,
				"y": -0.2271186421,
				"z": 0.073255168,
				"element": "C" 
			},
			{
				"x": 0.2186439736,
				"y": 0.9100865264,
				"z": -0.7308114292,
				"element": "C" 
			},
			{
				"x": 0.7157935591,
				"y": 0.7920077519,
				"z": -2.0238969036,
				"element": "C" 
			},
			{
				"x": -0.4786255362,
				"y": -0.0623638071,
				"z": 1.4484310145,
				"element": "C" 
			},
			{
				"x": -0.2848141431,
				"y": 1.1006859026,
				"z": 2.0877824656,
				"element": "N" 
			},
			{
				"x": -0.8691687406,
				"y": 0.9559954455,
				"z": 3.2913636104,
				"element": "N" 
			},
			{
				"x": -1.4345930337,
				"y": -0.26157292,
				"z": 3.4705838822,
				"element": "C" 
			},
			{
				"x": -1.2036481098,
				"y": -0.9501991093,
				"z": 2.2977650066,
				"element": "C" 
			},
			{
				"x": -1.8412016725,
				"y": -2.6979450094,
				"z": 1.9744744873,
				"element": "Br" 
			},
			{
				"x": 2.0867030576,
				"y": -1.5212804462,
				"z": -4.1367102696,
				"element": "H" 
			},
			{
				"x": 2.2111891453,
				"y": 0.2420906187,
				"z": -4.2472275063,
				"element": "H" 
			},
			{
				"x": 0.7140994451,
				"y": -0.5685593005,
				"z": -4.7063333328,
				"element": "H" 
			},
			{
				"x": 1.1052116268,
				"y": -2.5713867284,
				"z": -2.1520812026,
				"element": "H" 
			},
			{
				"x": 0.2419339993,
				"y": -2.3747457305,
				"z": 0.1377134525,
				"element": "H" 
			},
			{
				"x": -0.0243241536,
				"y": 1.8861063984,
				"z": -0.3246357314,
				"element": "H" 
			},
			{
				"x": 0.8550145706,
				"y": 1.6878099708,
				"z": -2.6247488088,
				"element": "H" 
			},
			{
				"x": -0.8261026126,
				"y": 1.7193741446,
				"z": 3.9483489985,
				"element": "H" 
			},
			{
				"x": -1.9491565576,
				"y": -0.5504270893,
				"z": 4.3739795246,
				"element": "H" 
			}
		],
		 "valence_orbital": [ 
			{
				"type": "occ",
				"energy": -0.28145,
				"method": "rhf"
			},
			{
				"type": "occ",
				"energy": -0.27848,
				"method": "rhf"
			},
			{
				"type": "occ",
				"energy": -0.24236,
				"method": "rhf"
			},
			{
				"type": "occ",
				"energy": -0.24016,
				"method": "rhf"
			},
			{
				"type": "occ",
				"energy": -0.21628,
				"method": "rhf"
			},
			{
				"type": "unocc",
				"energy": -0.01703,
				"method": "rhf"
			},
			{
				"type": "unocc",
				"energy": 0.0056,
				"method": "rhf"
			},
			{
				"type": "unocc",
				"energy": 0.01359,
				"method": "rhf"
			},
			{
				"type": "unocc",
				"energy": 0.01805,
				"method": "rhf"
			},
			{
				"type": "unocc",
				"energy": 0.0776,
				"method": "rhf"
			}
		],
		"cosmo_sigma_profile": { 
			"-0.025": 0.0,
			"-0.024": 0.0,
			"-0.023": 0.0,
			"-0.022": 0.0,
			"-0.021": 0.0,
			"-0.02": 0.0,
			"-0.019": 0.0,
			"-0.018": 0.0466362020098,
			"-0.017": 1.64922679583,
			"-0.016": 1.85905195898,
			"-0.015": 1.47673031726,
			"-0.014": 0.787902212865,
			"-0.013": 0.779500034203,
			"-0.012": 0.929760427306,
			"-0.011": 1.30657424648,
			"-0.01": 3.10895731222,
			"-0.009": 2.60762816553,
			"-0.008": 1.72597552162,
			"-0.007": 2.4644285155,
			"-0.006": 2.45832488636,
			"-0.005": 7.87655251772,
			"-0.004": 16.2840541049,
			"-0.003": 16.6186549659,
			"-0.002": 16.4839870788,
			"-0.001": 16.9919874513,
			"0.0": 19.0397304106,
			"0.001": 16.0119316806,
			"0.002": 20.9735237063,
			"0.003": 24.0958040813,
			"0.004": 20.6962467171,
			"0.005": 15.1455637727,
			"0.006": 7.93565192742,
			"0.007": 2.09830893885,
			"0.008": 1.64443324041,
			"0.009": 1.45026290699,
			"0.01": 0.968046488019,
			"0.011": 1.38545620536,
			"0.012": 0.522794400834,
			"0.013": 0.894876685524,
			"0.014": 0.627733673527,
			"0.015": 0.10619735954,
			"0.016": 0.0,
			"0.017": 0.0,
			"0.018": 0.0,
			"0.019": 0.0,
			"0.02": 0.0,
			"0.021": 0.0,
			"0.022": 0.0,
			"0.023": 0.0,
			"0.024": 0.0,
			"0.025": 0.0
		}
	}
}
