{
	 "smiles": "CCC1=C(C=NN1)C(O)=O", 
	 "Tm": 503.15, 
	 "num_atms": 18, 
	 "gaussian": { 
		 "optdone": 1, 
		 "sigma_profile": "yes", 
		 "theory": "DFT", 
		 "functional": "B3LYP", 
		 "basiset": "6-31G**", 
		 "properties": { 
			 "R2extent": 1518.7973, 
			 "electric_dipole_moment_norm": 1.69044480833, 
			 "electric_quadrupole_moment_norm": 15.3941163637, 
			 "total_energy": -493.41895478, 
			 "HOMO_LUMO_gap": 0.22861, 
			 "cosmo_polarized_energy": -13.85, 
			 "cosmo_cavitation_energy": 22.25, 
			 "cosmo_dispersion_energy": -16.27, 
			 "cosmo_repulsion_energy": 1.34, 
			 "cosmo_total_nonelectrostatic_energy": 7.31, 
			 "SMD_solvation_energy": 4.17 
		},
		"coords": [
			{
				"x": 2.4160936185,
				"y": -1.9909767152,
				"z": 0.7733535985,
				"element": "C" 
			},
			{
				"x": 0.9564549946,
				"y": -2.1985165979,
				"z": 0.3289933512,
				"element": "C" 
			},
			{
				"x": 0.480626177,
				"y": -1.1514247189,
				"z": -0.6309832696,
				"element": "C" 
			},
			{
				"x": 0.0816859011,
				"y": 0.1757768245,
				"z": -0.4474649735,
				"element": "C" 
			},
			{
				"x": -0.2329406131,
				"y": 0.6506619662,
				"z": -1.7493321317,
				"element": "C" 
			},
			{
				"x": -0.0496255734,
				"y": -0.2812301314,
				"z": -2.6724882647,
				"element": "N" 
			},
			{
				"x": 0.3834064986,
				"y": -1.3593036959,
				"z": -1.9637175152,
				"element": "N" 
			},
			{
				"x": 0.0051687991,
				"y": 0.8712960042,
				"z": 0.831653061,
				"element": "C" 
			},
			{
				"x": -0.4592041225,
				"y": 2.1418147866,
				"z": 0.7048739462,
				"element": "O" 
			},
			{
				"x": 0.3122041165,
				"y": 0.4031458084,
				"z": 1.9163844242,
				"element": "O" 
			},
			{
				"x": 2.7204134676,
				"y": -2.7903163291,
				"z": 1.4559503285,
				"element": "H" 
			},
			{
				"x": 2.5143834303,
				"y": -1.0378497515,
				"z": 1.2973677835,
				"element": "H" 
			},
			{
				"x": 3.0988433559,
				"y": -1.9936785858,
				"z": -0.0823012501,
				"element": "H" 
			},
			{
				"x": 0.3113652495,
				"y": -2.1705956776,
				"z": 1.2115544402,
				"element": "H" 
			},
			{
				"x": 0.8388650284,
				"y": -3.186933444,
				"z": -0.132866364,
				"element": "H" 
			},
			{
				"x": -0.5842962709,
				"y": 1.6342389889,
				"z": -2.0278818559,
				"element": "H" 
			},
			{
				"x": 0.5862467667,
				"y": -2.2157052789,
				"z": -2.4577321275,
				"element": "H" 
			},
			{
				"x": -0.4678908238,
				"y": 2.5078965473,
				"z": 1.6044368186,
				"element": "H" 
			}
		],
		 "valence_orbital": [ 
			{
				"type": "occ",
				"energy": -0.31378,
				"method": "rhf"
			},
			{
				"type": "occ",
				"energy": -0.30002,
				"method": "rhf"
			},
			{
				"type": "occ",
				"energy": -0.2702,
				"method": "rhf"
			},
			{
				"type": "occ",
				"energy": -0.2697,
				"method": "rhf"
			},
			{
				"type": "occ",
				"energy": -0.2498,
				"method": "rhf"
			},
			{
				"type": "unocc",
				"energy": -0.02119,
				"method": "rhf"
			},
			{
				"type": "unocc",
				"energy": 0.01732,
				"method": "rhf"
			},
			{
				"type": "unocc",
				"energy": 0.06894,
				"method": "rhf"
			},
			{
				"type": "unocc",
				"energy": 0.08691,
				"method": "rhf"
			},
			{
				"type": "unocc",
				"energy": 0.10875,
				"method": "rhf"
			}
		],
		"cosmo_sigma_profile": { 
			"-0.025": 0.0,
			"-0.024": 0.0,
			"-0.023": 0.0,
			"-0.022": 0.0,
			"-0.021": 0.0,
			"-0.02": 0.0,
			"-0.019": 0.0,
			"-0.018": 0.446386361202,
			"-0.017": 1.46945257758,
			"-0.016": 2.65595815771,
			"-0.015": 1.53205274577,
			"-0.014": 2.46667827576,
			"-0.013": 2.02425152807,
			"-0.012": 1.64629467883,
			"-0.011": 1.63513313657,
			"-0.01": 1.79006358177,
			"-0.009": 1.66798589676,
			"-0.008": 1.87428507727,
			"-0.007": 3.52398959721,
			"-0.006": 3.98130102201,
			"-0.005": 5.63903726192,
			"-0.004": 7.37897405844,
			"-0.003": 10.941404501,
			"-0.002": 14.5928152973,
			"-0.001": 15.002510481,
			"0.0": 16.5301977397,
			"0.001": 15.7069796284,
			"0.002": 11.3391390173,
			"0.003": 8.43809859208,
			"0.004": 4.94069723268,
			"0.005": 5.85579500379,
			"0.006": 4.79799853254,
			"0.007": 4.12506164575,
			"0.008": 4.80440555573,
			"0.009": 3.47573277335,
			"0.01": 2.98264436794,
			"0.011": 3.45433072962,
			"0.012": 4.46508066243,
			"0.013": 2.51305809807,
			"0.014": 0.852959127883,
			"0.015": 1.2386217255,
			"0.016": 0.151691711131,
			"0.017": 0.0,
			"0.018": 0.0,
			"0.019": 0.0,
			"0.02": 0.0,
			"0.021": 0.0,
			"0.022": 0.0,
			"0.023": 0.0,
			"0.024": 0.0,
			"0.025": 0.0
		}
	}
}
