{
	 "smiles": "CCOC(=O)C(C#N)=C1CC(SC)=C(C(=O)OCC)C(=N)N1C1=CC=C(OC)C=C1", 
	 "Tm": 445.15, 
	 "num_atms": 53, 
	 "gaussian": { 
		 "optdone": 1, 
		 "sigma_profile": "yes", 
		 "theory": "DFT", 
		 "functional": "B3LYP", 
		 "basiset": "6-31G**", 
		 "properties": { 
			 "R2extent": 14912.4849, 
			 "electric_dipole_moment_norm": 3.31766770639, 
			 "electric_quadrupole_moment_norm": 18.9932184555, 
			 "total_energy": -1752.61635894, 
			 "HOMO_LUMO_gap": 0.13465, 
			 "cosmo_polarized_energy": -26.02, 
			 "cosmo_cavitation_energy": 58.75, 
			 "cosmo_dispersion_energy": -38.45, 
			 "cosmo_repulsion_energy": 2.95, 
			 "cosmo_total_nonelectrostatic_energy": 23.26, 
			 "SMD_solvation_energy": 12.87 
		},
		"coords": [
			{
				"x": 0.0187947439,
				"y": 1.6247793257,
				"z": 6.1979979713,
				"element": "C" 
			},
			{
				"x": 0.5462181025,
				"y": 1.6527013594,
				"z": 4.7761782607,
				"element": "C" 
			},
			{
				"x": -0.1530716803,
				"y": 0.6262471431,
				"z": 4.0366813201,
				"element": "O" 
			},
			{
				"x": 0.2105248368,
				"y": 0.48020849,
				"z": 2.745115997,
				"element": "C" 
			},
			{
				"x": 1.0430631327,
				"y": 1.1735072518,
				"z": 2.1953862568,
				"element": "O" 
			},
			{
				"x": -0.4860999904,
				"y": -0.6789612033,
				"z": 2.1249471462,
				"element": "C" 
			},
			{
				"x": -0.9177025836,
				"y": -1.7106961482,
				"z": 3.0123836806,
				"element": "C" 
			},
			{
				"x": -1.2645743647,
				"y": -2.5784680853,
				"z": 3.7102351383,
				"element": "N" 
			},
			{
				"x": -0.6323956477,
				"y": -0.8775343984,
				"z": 0.7645471252,
				"element": "C" 
			},
			{
				"x": -1.0485758153,
				"y": -2.2327754141,
				"z": 0.241365047,
				"element": "C" 
			},
			{
				"x": -0.1077549259,
				"y": -2.6840787854,
				"z": -0.8548945395,
				"element": "C" 
			},
			{
				"x": 0.3461267484,
				"y": -4.3761066634,
				"z": -0.9777624537,
				"element": "S" 
			},
			{
				"x": -0.558654133,
				"y": -5.1773164216,
				"z": 0.4027725503,
				"element": "C" 
			},
			{
				"x": 0.3181800262,
				"y": -1.7167460906,
				"z": -1.727026258,
				"element": "C" 
			},
			{
				"x": 1.2395372453,
				"y": -2.0786031222,
				"z": -2.824319562,
				"element": "C" 
			},
			{
				"x": 1.6567789751,
				"y": -3.2140324384,
				"z": -2.9918971298,
				"element": "O" 
			},
			{
				"x": 1.6020349012,
				"y": -1.044144839,
				"z": -3.6183640479,
				"element": "O" 
			},
			{
				"x": 2.5326697962,
				"y": -1.346219731,
				"z": -4.690064227,
				"element": "C" 
			},
			{
				"x": 1.8145372778,
				"y": -1.8785861304,
				"z": -5.9204358382,
				"element": "C" 
			},
			{
				"x": -0.1992118482,
				"y": -0.3263274191,
				"z": -1.560732134,
				"element": "C" 
			},
			{
				"x": -0.3927949776,
				"y": 0.5413657543,
				"z": -2.4751174384,
				"element": "N" 
			},
			{
				"x": -0.4807041583,
				"y": 0.0760802634,
				"z": -0.211445679,
				"element": "N" 
			},
			{
				"x": -0.8069198151,
				"y": 1.4626701093,
				"z": 0.025271677,
				"element": "C" 
			},
			{
				"x": -2.0800059874,
				"y": 1.7914140648,
				"z": 0.4999811226,
				"element": "C" 
			},
			{
				"x": -2.4229154181,
				"y": 3.1189012223,
				"z": 0.7245399077,
				"element": "C" 
			},
			{
				"x": -1.4981249173,
				"y": 4.1379031479,
				"z": 0.456770724,
				"element": "C" 
			},
			{
				"x": -1.929787643,
				"y": 5.4085258891,
				"z": 0.7008339487,
				"element": "O" 
			},
			{
				"x": -1.041119868,
				"y": 6.4828745107,
				"z": 0.4373685199,
				"element": "C" 
			},
			{
				"x": -0.2258672617,
				"y": 3.8089222883,
				"z": -0.0306353717,
				"element": "C" 
			},
			{
				"x": 0.1133875196,
				"y": 2.4738401949,
				"z": -0.2374290816,
				"element": "C" 
			},
			{
				"x": -1.0560406474,
				"y": 1.8254809987,
				"z": 6.2197337048,
				"element": "H" 
			},
			{
				"x": 0.1955396918,
				"y": 0.64975618,
				"z": 6.6604539704,
				"element": "H" 
			},
			{
				"x": 0.5250849368,
				"y": 2.3890755319,
				"z": 6.7959699422,
				"element": "H" 
			},
			{
				"x": 0.3709189395,
				"y": 2.6170435254,
				"z": 4.2887657905,
				"element": "H" 
			},
			{
				"x": 1.6212368384,
				"y": 1.4507341,
				"z": 4.7300621542,
				"element": "H" 
			},
			{
				"x": -2.0631137389,
				"y": -2.1613220405,
				"z": -0.1795086876,
				"element": "H" 
			},
			{
				"x": -1.0940554103,
				"y": -2.9399554722,
				"z": 1.0617544088,
				"element": "H" 
			},
			{
				"x": -1.6416074951,
				"y": -5.0777348113,
				"z": 0.3101569957,
				"element": "H" 
			},
			{
				"x": -0.2253165844,
				"y": -4.8373093727,
				"z": 1.3851884611,
				"element": "H" 
			},
			{
				"x": -0.2998657631,
				"y": -6.2337273018,
				"z": 0.2972614571,
				"element": "H" 
			},
			{
				"x": 3.268937841,
				"y": -2.0627976699,
				"z": -4.3202327509,
				"element": "H" 
			},
			{
				"x": 3.022093802,
				"y": -0.3906904166,
				"z": -4.8911325726,
				"element": "H" 
			},
			{
				"x": 1.3409826049,
				"y": -2.8390724559,
				"z": -5.7046920688,
				"element": "H" 
			},
			{
				"x": 2.5349023679,
				"y": -2.0256063094,
				"z": -6.7319806543,
				"element": "H" 
			},
			{
				"x": 1.052026254,
				"y": -1.1735506556,
				"z": -6.265117202,
				"element": "H" 
			},
			{
				"x": -0.1003169017,
				"y": 0.1693076662,
				"z": -3.3754551585,
				"element": "H" 
			},
			{
				"x": -2.8055340813,
				"y": 1.0075489894,
				"z": 0.6939607071,
				"element": "H" 
			},
			{
				"x": -3.4068645704,
				"y": 3.3907320379,
				"z": 1.09131917,
				"element": "H" 
			},
			{
				"x": -1.5853549149,
				"y": 7.3934282621,
				"z": 0.6927441334,
				"element": "H" 
			},
			{
				"x": -0.1347684536,
				"y": 6.4199902682,
				"z": 1.0533261949,
				"element": "H" 
			},
			{
				"x": -0.7527838041,
				"y": 6.5198889586,
				"z": -0.6209905872,
				"element": "H" 
			},
			{
				"x": 0.5075989744,
				"y": 4.5774158919,
				"z": -0.2416049965,
				"element": "H" 
			},
			{
				"x": 1.1019278443,
				"y": 2.2167199712,
				"z": -0.5967350444,
				"element": "H" 
			}
		],
		 "valence_orbital": [ 
			{
				"type": "occ",
				"energy": -0.26936,
				"method": "rhf"
			},
			{
				"type": "occ",
				"energy": -0.25229,
				"method": "rhf"
			},
			{
				"type": "occ",
				"energy": -0.23685,
				"method": "rhf"
			},
			{
				"type": "occ",
				"energy": -0.23572,
				"method": "rhf"
			},
			{
				"type": "occ",
				"energy": -0.20792,
				"method": "rhf"
			},
			{
				"type": "unocc",
				"energy": -0.07327,
				"method": "rhf"
			},
			{
				"type": "unocc",
				"energy": -0.05107,
				"method": "rhf"
			},
			{
				"type": "unocc",
				"energy": -0.00627,
				"method": "rhf"
			},
			{
				"type": "unocc",
				"energy": -0.00037,
				"method": "rhf"
			},
			{
				"type": "unocc",
				"energy": 0.01874,
				"method": "rhf"
			}
		],
		"cosmo_sigma_profile": { 
			"-0.025": 0.0,
			"-0.024": 0.0,
			"-0.023": 0.0,
			"-0.022": 0.0,
			"-0.021": 0.0,
			"-0.02": 0.0,
			"-0.019": 0.0,
			"-0.018": 0.0,
			"-0.017": 0.0,
			"-0.016": 0.0,
			"-0.015": 0.0,
			"-0.014": 0.0,
			"-0.013": 0.0,
			"-0.012": 0.0,
			"-0.011": 0.0,
			"-0.01": 0.192679778687,
			"-0.009": 3.700851474,
			"-0.008": 7.57215619278,
			"-0.007": 14.6338736309,
			"-0.006": 23.5634811029,
			"-0.005": 37.0397050727,
			"-0.004": 48.1803438858,
			"-0.003": 52.8609449906,
			"-0.002": 43.9655074635,
			"-0.001": 35.5871335269,
			"0.0": 31.4081692062,
			"0.001": 19.1941677856,
			"0.002": 18.0289115692,
			"0.003": 17.670717443,
			"0.004": 17.2932185443,
			"0.005": 14.9962231175,
			"0.006": 13.9663631587,
			"0.007": 12.272062622,
			"0.008": 11.2563824157,
			"0.009": 10.6423975299,
			"0.01": 10.6788354461,
			"0.011": 9.84986905425,
			"0.012": 7.17005439497,
			"0.013": 3.55880491153,
			"0.014": 1.81625116316,
			"0.015": 0.849605658583,
			"0.016": 0.478655436366,
			"0.017": 0.000224093126435,
			"0.018": 0.0,
			"0.019": 0.0,
			"0.02": 0.0,
			"0.021": 0.0,
			"0.022": 0.0,
			"0.023": 0.0,
			"0.024": 0.0,
			"0.025": 0.0
		}
	}
}
