{
	 "smiles": "CCOC1=C2C=CC=CC2=C(Cl)N=N1", 
	 "Tm": 354.15, 
	 "num_atms": 23, 
	 "gaussian": { 
		 "optdone": 1, 
		 "sigma_profile": "yes", 
		 "theory": "DFT", 
		 "functional": "B3LYP", 
		 "basiset": "6-31G**", 
		 "properties": { 
			 "R2extent": 3971.8585, 
			 "electric_dipole_moment_norm": 4.51011508722, 
			 "electric_quadrupole_moment_norm": 19.6084371909, 
			 "total_energy": -1031.38261656, 
			 "HOMO_LUMO_gap": 0.17685, 
			 "cosmo_polarized_energy": -9.98, 
			 "cosmo_cavitation_energy": 28.64, 
			 "cosmo_dispersion_energy": -21.46, 
			 "cosmo_repulsion_energy": 1.69, 
			 "cosmo_total_nonelectrostatic_energy": 8.87, 
			 "SMD_solvation_energy": 3.56 
		},
		"coords": [
			{
				"x": -1.5944011653,
				"y": 1.0594551168,
				"z": -4.0730490358,
				"element": "C" 
			},
			{
				"x": -0.8395062597,
				"y": -0.185255171,
				"z": -3.6325498404,
				"element": "C" 
			},
			{
				"x": -0.2716484445,
				"y": -0.0311020094,
				"z": -2.3075909766,
				"element": "O" 
			},
			{
				"x": -1.0599033151,
				"y": -0.2547172192,
				"z": -1.2424529338,
				"element": "C" 
			},
			{
				"x": -0.4354750556,
				"y": -0.102473911,
				"z": 0.0444805993,
				"element": "C" 
			},
			{
				"x": 0.9143859349,
				"y": 0.2686061068,
				"z": 0.2187210355,
				"element": "C" 
			},
			{
				"x": 1.4285179737,
				"y": 0.391523013,
				"z": 1.4953245272,
				"element": "C" 
			},
			{
				"x": 0.6121305144,
				"y": 0.1477015313,
				"z": 2.6203372948,
				"element": "C" 
			},
			{
				"x": -0.7120466201,
				"y": -0.2173144643,
				"z": 2.4681408997,
				"element": "C" 
			},
			{
				"x": -1.2585449814,
				"y": -0.3485791879,
				"z": 1.1724539145,
				"element": "C" 
			},
			{
				"x": -2.6105376642,
				"y": -0.7210958376,
				"z": 0.8660373515,
				"element": "C" 
			},
			{
				"x": -3.7264995087,
				"y": -1.0572144901,
				"z": 2.1869519682,
				"element": "Cl" 
			},
			{
				"x": -3.1038014111,
				"y": -0.8363970474,
				"z": -0.3283362036,
				"element": "N" 
			},
			{
				"x": -2.3149082896,
				"y": -0.5934329558,
				"z": -1.4154750974,
				"element": "N" 
			},
			{
				"x": -0.9534054219,
				"y": 1.9442857085,
				"z": -4.0156216585,
				"element": "H" 
			},
			{
				"x": -2.4776480834,
				"y": 1.2152667524,
				"z": -3.4502062017,
				"element": "H" 
			},
			{
				"x": -1.9222324066,
				"y": 0.9401937772,
				"z": -5.1112224999,
				"element": "H" 
			},
			{
				"x": -1.4870079165,
				"y": -1.0647620619,
				"z": -3.6411882304,
				"element": "H" 
			},
			{
				"x": 0.0318420517,
				"y": -0.3671691329,
				"z": -4.2665639547,
				"element": "H" 
			},
			{
				"x": 1.5261743148,
				"y": 0.4521721949,
				"z": -0.6567437701,
				"element": "H" 
			},
			{
				"x": 2.4664839897,
				"y": 0.6771511501,
				"z": 1.636849146,
				"element": "H" 
			},
			{
				"x": 1.0303207478,
				"y": 0.2481025,
				"z": 3.6174343383,
				"element": "H" 
			},
			{
				"x": -1.3398889832,
				"y": -0.4052443625,
				"z": 3.331069328,
				"element": "H" 
			}
		],
		 "valence_orbital": [ 
			{
				"type": "occ",
				"energy": -0.31088,
				"method": "rhf"
			},
			{
				"type": "occ",
				"energy": -0.28537,
				"method": "rhf"
			},
			{
				"type": "occ",
				"energy": -0.28007,
				"method": "rhf"
			},
			{
				"type": "occ",
				"energy": -0.2438,
				"method": "rhf"
			},
			{
				"type": "occ",
				"energy": -0.23872,
				"method": "rhf"
			},
			{
				"type": "unocc",
				"energy": -0.06187,
				"method": "rhf"
			},
			{
				"type": "unocc",
				"energy": -0.05002,
				"method": "rhf"
			},
			{
				"type": "unocc",
				"energy": 0.01985,
				"method": "rhf"
			},
			{
				"type": "unocc",
				"energy": 0.03256,
				"method": "rhf"
			},
			{
				"type": "unocc",
				"energy": 0.06658,
				"method": "rhf"
			}
		],
		"cosmo_sigma_profile": { 
			"-0.025": 0.0,
			"-0.024": 0.0,
			"-0.023": 0.0,
			"-0.022": 0.0,
			"-0.021": 0.0,
			"-0.02": 0.0,
			"-0.019": 0.0,
			"-0.018": 0.0,
			"-0.017": 0.0,
			"-0.016": 0.0,
			"-0.015": 0.0,
			"-0.014": 0.0,
			"-0.013": 0.0,
			"-0.012": 0.0,
			"-0.011": 0.0,
			"-0.01": 0.0,
			"-0.009": 0.0,
			"-0.008": 0.990023164291,
			"-0.007": 7.0888251251,
			"-0.006": 9.62045144833,
			"-0.005": 12.1178484997,
			"-0.004": 16.4006089911,
			"-0.003": 20.5661219192,
			"-0.002": 23.6429564844,
			"-0.001": 24.0267875287,
			"0.0": 27.0276545998,
			"0.001": 23.2035644585,
			"0.002": 18.778477273,
			"0.003": 9.83393738714,
			"0.004": 10.6734706245,
			"0.005": 6.10238665511,
			"0.006": 3.90277781832,
			"0.007": 2.74006101322,
			"0.008": 2.13815028321,
			"0.009": 2.11891159749,
			"0.01": 1.89873919652,
			"0.011": 1.83700278518,
			"0.012": 2.44608583601,
			"0.013": 2.64782247806,
			"0.014": 1.49079052726,
			"0.015": 0.539751086898,
			"0.016": 0.0,
			"0.017": 0.0,
			"0.018": 0.0,
			"0.019": 0.0,
			"0.02": 0.0,
			"0.021": 0.0,
			"0.022": 0.0,
			"0.023": 0.0,
			"0.024": 0.0,
			"0.025": 0.0
		}
	}
}
