{
	 "smiles": "CN(C1=CC=C(O)C=C1)S(=O)(=O)C1=CC=C(C)C=C1", 
	 "Tm": 411.15, 
	 "num_atms": 34, 
	 "gaussian": { 
		 "optdone": 1, 
		 "sigma_profile": "yes", 
		 "theory": "DFT", 
		 "functional": "B3LYP", 
		 "basiset": "6-31G**", 
		 "properties": { 
			 "R2extent": 5907.2929, 
			 "electric_dipole_moment_norm": 6.89607072107, 
			 "electric_quadrupole_moment_norm": 8.62719020133, 
			 "total_energy": -1221.0687663, 
			 "HOMO_LUMO_gap": 0.17979, 
			 "cosmo_polarized_energy": -19.04, 
			 "cosmo_cavitation_energy": 38.54, 
			 "cosmo_dispersion_energy": -27.0, 
			 "cosmo_repulsion_energy": 2.05, 
			 "cosmo_total_nonelectrostatic_energy": 13.58, 
			 "SMD_solvation_energy": 5.79 
		},
		"coords": [
			{
				"x": 0.1293244524,
				"y": -0.1635680843,
				"z": 2.5633441802,
				"element": "C" 
			},
			{
				"x": 0.8079403126,
				"y": -0.872038493,
				"z": 1.4702639192,
				"element": "N" 
			},
			{
				"x": 0.1178037609,
				"y": -1.9633982785,
				"z": 0.8425051878,
				"element": "C" 
			},
			{
				"x": -1.2706771655,
				"y": -1.9489011787,
				"z": 0.6641000868,
				"element": "C" 
			},
			{
				"x": -1.9259039012,
				"y": -3.0436581292,
				"z": 0.0997035733,
				"element": "C" 
			},
			{
				"x": -1.193295065,
				"y": -4.1591012604,
				"z": -0.316064767,
				"element": "C" 
			},
			{
				"x": -1.7740252234,
				"y": -5.2587906845,
				"z": -0.8803985327,
				"element": "O" 
			},
			{
				"x": 0.1974908628,
				"y": -4.1760852056,
				"z": -0.151035141,
				"element": "C" 
			},
			{
				"x": 0.8430093448,
				"y": -3.0943327867,
				"z": 0.4342815174,
				"element": "C" 
			},
			{
				"x": 1.8101613915,
				"y": 0.1026108615,
				"z": 0.4859311096,
				"element": "S" 
			},
			{
				"x": 2.4742049661,
				"y": 1.0354415885,
				"z": 1.4000823794,
				"element": "O" 
			},
			{
				"x": 2.5672828412,
				"y": -0.8057730911,
				"z": -0.375060522,
				"element": "O" 
			},
			{
				"x": 0.710294597,
				"y": 1.0547445783,
				"z": -0.5628344391,
				"element": "C" 
			},
			{
				"x": 0.24081916,
				"y": 0.4977379082,
				"z": -1.7560220303,
				"element": "C" 
			},
			{
				"x": -0.6416359712,
				"y": 1.2315903295,
				"z": -2.5451123305,
				"element": "C" 
			},
			{
				"x": -1.0630050901,
				"y": 2.5149364779,
				"z": -2.1653102545,
				"element": "C" 
			},
			{
				"x": -1.9910842992,
				"y": 3.3142235174,
				"z": -3.0481145428,
				"element": "C" 
			},
			{
				"x": -0.5753532623,
				"y": 3.0496143128,
				"z": -0.9646435115,
				"element": "C" 
			},
			{
				"x": 0.3079133829,
				"y": 2.3304912931,
				"z": -0.1607073889,
				"element": "C" 
			},
			{
				"x": -0.2872604114,
				"y": -0.9148029964,
				"z": 3.2375568013,
				"element": "H" 
			},
			{
				"x": -0.682710946,
				"y": 0.4949352696,
				"z": 2.2225508148,
				"element": "H" 
			},
			{
				"x": 0.8641842292,
				"y": 0.4323414266,
				"z": 3.1032015581,
				"element": "H" 
			},
			{
				"x": -1.8524285252,
				"y": -1.0855256338,
				"z": 0.9693264911,
				"element": "H" 
			},
			{
				"x": -3.0068630979,
				"y": -3.0232225788,
				"z": -0.0227653534,
				"element": "H" 
			},
			{
				"x": -2.7290901113,
				"y": -5.1235767165,
				"z": -0.9307582593,
				"element": "H" 
			},
			{
				"x": 0.7524426254,
				"y": -5.0516616076,
				"z": -0.4707524195,
				"element": "H" 
			},
			{
				"x": 1.9167016499,
				"y": -3.1064452917,
				"z": 0.5751565464,
				"element": "H" 
			},
			{
				"x": 0.579364501,
				"y": -0.4852500159,
				"z": -2.0634485986,
				"element": "H" 
			},
			{
				"x": -1.0051964158,
				"y": 0.803335362,
				"z": -3.475625221,
				"element": "H" 
			},
			{
				"x": -2.5643142812,
				"y": 4.0447165329,
				"z": -2.4701931355,
				"element": "H" 
			},
			{
				"x": -2.6968287249,
				"y": 2.6670152035,
				"z": -3.5773379383,
				"element": "H" 
			},
			{
				"x": -1.4267182464,
				"y": 3.8689311038,
				"z": -3.8079679829,
				"element": "H" 
			},
			{
				"x": -0.8847984865,
				"y": 4.045352847,
				"z": -0.6578724151,
				"element": "H" 
			},
			{
				"x": 0.7035511468,
				"y": 2.7553134201,
				"z": 0.7553206185,
				"element": "H" 
			}
		],
		 "valence_orbital": [ 
			{
				"type": "occ",
				"energy": -0.27886,
				"method": "rhf"
			},
			{
				"type": "occ",
				"energy": -0.26729,
				"method": "rhf"
			},
			{
				"type": "occ",
				"energy": -0.25949,
				"method": "rhf"
			},
			{
				"type": "occ",
				"energy": -0.25308,
				"method": "rhf"
			},
			{
				"type": "occ",
				"energy": -0.21455,
				"method": "rhf"
			},
			{
				"type": "unocc",
				"energy": -0.03476,
				"method": "rhf"
			},
			{
				"type": "unocc",
				"energy": -0.01923,
				"method": "rhf"
			},
			{
				"type": "unocc",
				"energy": -0.00749,
				"method": "rhf"
			},
			{
				"type": "unocc",
				"energy": 0.00181,
				"method": "rhf"
			},
			{
				"type": "unocc",
				"energy": 0.06411,
				"method": "rhf"
			}
		],
		"cosmo_sigma_profile": { 
			"-0.025": 0.0,
			"-0.024": 0.0,
			"-0.023": 0.0,
			"-0.022": 0.0,
			"-0.021": 0.0,
			"-0.02": 0.0,
			"-0.019": 0.0,
			"-0.018": 0.449630652158,
			"-0.017": 1.4422893627,
			"-0.016": 0.666134833675,
			"-0.015": 1.35862084612,
			"-0.014": 1.14114606577,
			"-0.013": 0.686761703116,
			"-0.012": 1.21888864662,
			"-0.011": 0.91228724208,
			"-0.01": 0.934006897517,
			"-0.009": 1.0624168445,
			"-0.008": 1.32726199715,
			"-0.007": 5.34151806096,
			"-0.006": 16.1413626131,
			"-0.005": 23.6462226776,
			"-0.004": 26.2525704215,
			"-0.003": 25.1401817421,
			"-0.002": 23.6732675803,
			"-0.001": 21.4408225983,
			"0.0": 19.3365830793,
			"0.001": 15.9502483609,
			"0.002": 19.1997424474,
			"0.003": 27.3649782877,
			"0.004": 20.3410381795,
			"0.005": 10.2992110688,
			"0.006": 4.95128141174,
			"0.007": 5.62341589835,
			"0.008": 4.5430483339,
			"0.009": 5.61362158924,
			"0.01": 7.9186807068,
			"0.011": 8.98283222425,
			"0.012": 3.38602358276,
			"0.013": 0.0,
			"0.014": 0.0,
			"0.015": 0.0,
			"0.016": 0.0,
			"0.017": 0.0,
			"0.018": 0.0,
			"0.019": 0.0,
			"0.02": 0.0,
			"0.021": 0.0,
			"0.022": 0.0,
			"0.023": 0.0,
			"0.024": 0.0,
			"0.025": 0.0
		}
	}
}
