{
	 "smiles": "CC(C)(C)C1=CC=C(C=C1)S(=O)(=O)CCN", 
	 "Tm": 320.15, 
	 "num_atms": 35, 
	 "gaussian": { 
		 "optdone": 1, 
		 "sigma_profile": "yes", 
		 "theory": "DFT", 
		 "functional": "B3LYP", 
		 "basiset": "6-31G**", 
		 "properties": { 
			 "R2extent": 6156.7663, 
			 "electric_dipole_moment_norm": 6.34471119437, 
			 "electric_quadrupole_moment_norm": 28.7053613442, 
			 "total_energy": -1072.06318955, 
			 "HOMO_LUMO_gap": 0.19714, 
			 "cosmo_polarized_energy": -16.44, 
			 "cosmo_cavitation_energy": 37.11, 
			 "cosmo_dispersion_energy": -26.56, 
			 "cosmo_repulsion_energy": 2.04, 
			 "cosmo_total_nonelectrostatic_energy": 12.59, 
			 "SMD_solvation_energy": 4.36 
		},
		"coords": [
			{
				"x": 1.6472526745,
				"y": 1.7675485458,
				"z": 2.8814744642,
				"element": "C" 
			},
			{
				"x": 0.6825088669,
				"y": 1.9032878639,
				"z": 1.6788007444,
				"element": "C" 
			},
			{
				"x": -0.6931305959,
				"y": 2.3459873853,
				"z": 2.2123044434,
				"element": "C" 
			},
			{
				"x": 1.2057003757,
				"y": 3.0006736955,
				"z": 0.7209438912,
				"element": "C" 
			},
			{
				"x": 0.615313884,
				"y": 0.5620983889,
				"z": 0.9267768973,
				"element": "C" 
			},
			{
				"x": -0.5756052963,
				"y": -0.162001189,
				"z": 0.772426062,
				"element": "C" 
			},
			{
				"x": -0.6070816586,
				"y": -1.3776911107,
				"z": 0.0854594413,
				"element": "C" 
			},
			{
				"x": 0.5690044897,
				"y": -1.8837295927,
				"z": -0.4623986504,
				"element": "C" 
			},
			{
				"x": 1.7759984483,
				"y": -1.1955123372,
				"z": -0.3148069387,
				"element": "C" 
			},
			{
				"x": 1.7873506672,
				"y": 0.0145433483,
				"z": 0.3707978421,
				"element": "C" 
			},
			{
				"x": 0.5452957334,
				"y": -3.4521351183,
				"z": -1.3435242821,
				"element": "S" 
			},
			{
				"x": 1.8569833373,
				"y": -4.0936568648,
				"z": -1.1579620715,
				"element": "O" 
			},
			{
				"x": -0.7024183968,
				"y": -4.14968796,
				"z": -0.9675466593,
				"element": "O" 
			},
			{
				"x": 0.425843613,
				"y": -2.9875653303,
				"z": -3.1041010274,
				"element": "C" 
			},
			{
				"x": -0.9496037069,
				"y": -2.4740751163,
				"z": -3.5334378324,
				"element": "C" 
			},
			{
				"x": -1.8874060985,
				"y": -3.5828207173,
				"z": -3.6896484784,
				"element": "N" 
			},
			{
				"x": 1.7081924266,
				"y": 2.716356943,
				"z": 3.4257397495,
				"element": "H" 
			},
			{
				"x": 1.3000857287,
				"y": 0.9978817468,
				"z": 3.5783024217,
				"element": "H" 
			},
			{
				"x": 2.6599139639,
				"y": 1.500226796,
				"z": 2.5658183471,
				"element": "H" 
			},
			{
				"x": -1.4194307309,
				"y": 2.4854862521,
				"z": 1.4047800867,
				"element": "H" 
			},
			{
				"x": -0.5932432444,
				"y": 3.3033383759,
				"z": 2.7332769016,
				"element": "H" 
			},
			{
				"x": -1.1062399803,
				"y": 1.6256179551,
				"z": 2.9258616333,
				"element": "H" 
			},
			{
				"x": 0.5383414307,
				"y": 3.1229664495,
				"z": -0.1384882919,
				"element": "H" 
			},
			{
				"x": 2.2042300163,
				"y": 2.768683249,
				"z": 0.3390454962,
				"element": "H" 
			},
			{
				"x": 1.2650090962,
				"y": 3.9615434452,
				"z": 1.2437197185,
				"element": "H" 
			},
			{
				"x": -1.5003584325,
				"y": 0.2120661032,
				"z": 1.1951664663,
				"element": "H" 
			},
			{
				"x": -1.5288181292,
				"y": -1.942043046,
				"z": -0.0068288375,
				"element": "H" 
			},
			{
				"x": 2.6933386068,
				"y": -1.6183217261,
				"z": -0.7116013297,
				"element": "H" 
			},
			{
				"x": 2.7325095808,
				"y": 0.5366047118,
				"z": 0.4825912423,
				"element": "H" 
			},
			{
				"x": 0.6736379436,
				"y": -3.9084496552,
				"z": -3.6407383285,
				"element": "H" 
			},
			{
				"x": 1.2184980005,
				"y": -2.2528025396,
				"z": -3.2686579933,
				"element": "H" 
			},
			{
				"x": -0.8208776699,
				"y": -1.9897603345,
				"z": -4.5091912044,
				"element": "H" 
			},
			{
				"x": -1.2703398121,
				"y": -1.6786892107,
				"z": -2.8364178173,
				"element": "H" 
			},
			{
				"x": -2.7945647066,
				"y": -3.2304554616,
				"z": -3.982109412,
				"element": "H" 
			},
			{
				"x": -2.0132904252,
				"y": -4.0432139451,
				"z": -2.7905266946,
				"element": "H" 
			}
		],
		 "valence_orbital": [ 
			{
				"type": "occ",
				"energy": -0.29446,
				"method": "rhf"
			},
			{
				"type": "occ",
				"energy": -0.27919,
				"method": "rhf"
			},
			{
				"type": "occ",
				"energy": -0.26968,
				"method": "rhf"
			},
			{
				"type": "occ",
				"energy": -0.26449,
				"method": "rhf"
			},
			{
				"type": "occ",
				"energy": -0.23465,
				"method": "rhf"
			},
			{
				"type": "unocc",
				"energy": -0.03751,
				"method": "rhf"
			},
			{
				"type": "unocc",
				"energy": -0.02197,
				"method": "rhf"
			},
			{
				"type": "unocc",
				"energy": 0.06125,
				"method": "rhf"
			},
			{
				"type": "unocc",
				"energy": 0.07241,
				"method": "rhf"
			},
			{
				"type": "unocc",
				"energy": 0.08068,
				"method": "rhf"
			}
		],
		"cosmo_sigma_profile": { 
			"-0.025": 0.0,
			"-0.024": 0.0,
			"-0.023": 0.0,
			"-0.022": 0.0,
			"-0.021": 0.0,
			"-0.02": 0.0,
			"-0.019": 0.0,
			"-0.018": 0.0,
			"-0.017": 0.0,
			"-0.016": 0.0,
			"-0.015": 0.0,
			"-0.014": 0.0,
			"-0.013": 0.0,
			"-0.012": 0.0,
			"-0.011": 0.0497111364629,
			"-0.01": 1.25292923429,
			"-0.009": 1.29076161364,
			"-0.008": 3.66926095362,
			"-0.007": 7.63592550264,
			"-0.006": 14.7986612025,
			"-0.005": 17.9915043957,
			"-0.004": 20.8618158377,
			"-0.003": 32.9951213811,
			"-0.002": 32.3607339659,
			"-0.001": 24.4178920136,
			"0.0": 23.0321932947,
			"0.001": 29.2191687779,
			"0.002": 15.9113602554,
			"0.003": 14.806429407,
			"0.004": 7.56704692347,
			"0.005": 3.25600230872,
			"0.006": 2.96432042453,
			"0.007": 4.03408583201,
			"0.008": 3.63748725,
			"0.009": 3.55788646959,
			"0.01": 3.93053198863,
			"0.011": 8.01746235845,
			"0.012": 8.05740820588,
			"0.013": 1.56599130257,
			"0.014": 0.294113879878,
			"0.015": 1.11149934194,
			"0.016": 0.291015289247,
			"0.017": 0.668070022911,
			"0.018": 0.215130530023,
			"0.019": 0.554543092306,
			"0.02": 0.121503193694,
			"0.021": 0.0,
			"0.022": 0.0,
			"0.023": 0.0,
			"0.024": 0.0,
			"0.025": 0.0
		}
	}
}
