{
	 "smiles": "OC(=O)C1=C(N=CC=C1)S(=O)(=O)C(F)(F)F", 
	 "Tm": 400.15, 
	 "num_atms": 20, 
	 "gaussian": { 
		 "optdone": 1, 
		 "sigma_profile": "yes", 
		 "theory": "DFT", 
		 "functional": "B3LYP", 
		 "basiset": "6-31G**", 
		 "properties": { 
			 "R2extent": 3511.9975, 
			 "electric_dipole_moment_norm": 4.53232214323, 
			 "electric_quadrupole_moment_norm": 24.6164098666, 
			 "total_energy": -1322.41365026, 
			 "HOMO_LUMO_gap": 0.19133, 
			 "cosmo_polarized_energy": -15.29, 
			 "cosmo_cavitation_energy": 27.77, 
			 "cosmo_dispersion_energy": -20.22, 
			 "cosmo_repulsion_energy": 1.45, 
			 "cosmo_total_nonelectrostatic_energy": 9.0, 
			 "SMD_solvation_energy": 5.31 
		},
		"coords": [
			{
				"x": 2.5432332267,
				"y": -1.0830357435,
				"z": -1.7201371744,
				"element": "O" 
			},
			{
				"x": 2.738830441,
				"y": -0.140393542,
				"z": -0.8072449822,
				"element": "C" 
			},
			{
				"x": 3.8521350004,
				"y": 0.1392011797,
				"z": -0.4186933281,
				"element": "O" 
			},
			{
				"x": 1.5590788301,
				"y": 0.6684965954,
				"z": -0.2585599298,
				"element": "C" 
			},
			{
				"x": 0.2036224281,
				"y": 0.3374852982,
				"z": -0.0520861946,
				"element": "C" 
			},
			{
				"x": -0.6970080115,
				"y": 1.1304302278,
				"z": 0.5090380667,
				"element": "N" 
			},
			{
				"x": -0.3267508892,
				"y": 2.3538860136,
				"z": 0.8901426391,
				"element": "C" 
			},
			{
				"x": 0.9827314758,
				"y": 2.8106516456,
				"z": 0.7416040564,
				"element": "C" 
			},
			{
				"x": 1.9212531898,
				"y": 1.9541939351,
				"z": 0.1813460968,
				"element": "C" 
			},
			{
				"x": -0.5889578177,
				"y": -1.2579944426,
				"z": -0.5219555028,
				"element": "S" 
			},
			{
				"x": -0.0251848363,
				"y": -1.6892256893,
				"z": -1.8216734707,
				"element": "O" 
			},
			{
				"x": -2.0289038928,
				"y": -1.1874554575,
				"z": -0.3289250323,
				"element": "O" 
			},
			{
				"x": 0.0815028454,
				"y": -2.4517798798,
				"z": 0.7694361402,
				"element": "C" 
			},
			{
				"x": 1.4153169942,
				"y": -2.4763495534,
				"z": 0.6986497829,
				"element": "F" 
			},
			{
				"x": -0.2927426845,
				"y": -2.0398788141,
				"z": 1.9787187342,
				"element": "F" 
			},
			{
				"x": -0.4081798856,
				"y": -3.6602725139,
				"z": 0.5242196319,
				"element": "F" 
			},
			{
				"x": 1.5950953048,
				"y": -1.2420729959,
				"z": -1.9308365331,
				"element": "H" 
			},
			{
				"x": -1.100658528,
				"y": 2.9756143913,
				"z": 1.3328744343,
				"element": "H" 
			},
			{
				"x": 1.261395285,
				"y": 3.8066704291,
				"z": 1.0691428548,
				"element": "H" 
			},
			{
				"x": 2.9608915244,
				"y": 2.2424289163,
				"z": 0.0759397108,
				"element": "H" 
			}
		],
		 "valence_orbital": [ 
			{
				"type": "occ",
				"energy": -0.33327,
				"method": "rhf"
			},
			{
				"type": "occ",
				"energy": -0.32377,
				"method": "rhf"
			},
			{
				"type": "occ",
				"energy": -0.31681,
				"method": "rhf"
			},
			{
				"type": "occ",
				"energy": -0.30751,
				"method": "rhf"
			},
			{
				"type": "occ",
				"energy": -0.28579,
				"method": "rhf"
			},
			{
				"type": "unocc",
				"energy": -0.09446,
				"method": "rhf"
			},
			{
				"type": "unocc",
				"energy": -0.07795,
				"method": "rhf"
			},
			{
				"type": "unocc",
				"energy": 0.00858,
				"method": "rhf"
			},
			{
				"type": "unocc",
				"energy": 0.01711,
				"method": "rhf"
			},
			{
				"type": "unocc",
				"energy": 0.02669,
				"method": "rhf"
			}
		],
		"cosmo_sigma_profile": { 
			"-0.025": 0.0,
			"-0.024": 0.0,
			"-0.023": 0.0,
			"-0.022": 0.0,
			"-0.021": 0.0,
			"-0.02": 0.0,
			"-0.019": 0.0,
			"-0.018": 0.0,
			"-0.017": 0.0,
			"-0.016": 0.0,
			"-0.015": 0.0,
			"-0.014": 0.0,
			"-0.013": 0.149715119192,
			"-0.012": 0.249829319765,
			"-0.011": 0.36366117341,
			"-0.01": 1.08840553768,
			"-0.009": 7.21095598362,
			"-0.008": 8.90523599309,
			"-0.007": 9.2244785965,
			"-0.006": 9.74226064015,
			"-0.005": 11.9345520415,
			"-0.004": 12.4076372782,
			"-0.003": 15.680708405,
			"-0.002": 22.1283732377,
			"-0.001": 21.3931965792,
			"0.0": 27.7452654392,
			"0.001": 7.95776275736,
			"0.002": 5.53859632104,
			"0.003": 5.19671497381,
			"0.004": 5.77503515962,
			"0.005": 5.07010515347,
			"0.006": 4.9482974968,
			"0.007": 7.22250143805,
			"0.008": 11.2807002451,
			"0.009": 7.14733353787,
			"0.01": 6.74002601252,
			"0.011": 5.73126537795,
			"0.012": 2.93969228186,
			"0.013": 1.10253034139,
			"0.014": 0.0874480790867,
			"0.015": 0.0,
			"0.016": 0.0,
			"0.017": 0.0,
			"0.018": 0.0,
			"0.019": 0.0,
			"0.02": 0.0,
			"0.021": 0.0,
			"0.022": 0.0,
			"0.023": 0.0,
			"0.024": 0.0,
			"0.025": 0.0
		}
	}
}
