{
	 "smiles": "CCOC(=O)C1=C(C)C2=C(S1)N=C(C)C=C2C", 
	 "Tm": 508.15, 
	 "num_atms": 32, 
	 "gaussian": { 
		 "optdone": 1, 
		 "sigma_profile": "yes", 
		 "theory": "DFT", 
		 "functional": "B3LYP", 
		 "basiset": "6-31G**", 
		 "properties": { 
			 "R2extent": 6403.376, 
			 "electric_dipole_moment_norm": 4.93820966039, 
			 "electric_quadrupole_moment_norm": 19.0345652748, 
			 "total_energy": -1107.84645661, 
			 "HOMO_LUMO_gap": 0.16502, 
			 "cosmo_polarized_energy": -11.92, 
			 "cosmo_cavitation_energy": 36.18, 
			 "cosmo_dispersion_energy": -26.69, 
			 "cosmo_repulsion_energy": 2.03, 
			 "cosmo_total_nonelectrostatic_energy": 11.52, 
			 "SMD_solvation_energy": 5.39 
		},
		"coords": [
			{
				"x": 2.9935822993,
				"y": -2.2773392832,
				"z": 3.5036394085,
				"element": "C" 
			},
			{
				"x": 1.6098382884,
				"y": -2.8858904716,
				"z": 3.3352207509,
				"element": "C" 
			},
			{
				"x": 0.8377758625,
				"y": -2.1784667064,
				"z": 2.3318534641,
				"element": "O" 
			},
			{
				"x": 1.0429843758,
				"y": -2.5521233788,
				"z": 1.0478595932,
				"element": "C" 
			},
			{
				"x": 1.8204424247,
				"y": -3.4348346169,
				"z": 0.7276139179,
				"element": "O" 
			},
			{
				"x": 0.2424073713,
				"y": -1.8095101983,
				"z": 0.0519693986,
				"element": "C" 
			},
			{
				"x": -0.6784745087,
				"y": -0.7864933038,
				"z": 0.1571527219,
				"element": "C" 
			},
			{
				"x": -1.1093930963,
				"y": -0.1377298282,
				"z": 1.4470675646,
				"element": "C" 
			},
			{
				"x": -1.1903388051,
				"y": -0.4024814695,
				"z": -1.1451926711,
				"element": "C" 
			},
			{
				"x": -0.6154119268,
				"y": -1.1714461742,
				"z": -2.1910384724,
				"element": "C" 
			},
			{
				"x": 0.5320413731,
				"y": -2.3465120238,
				"z": -1.5996517572,
				"element": "S" 
			},
			{
				"x": -0.8710983308,
				"y": -1.0681366053,
				"z": -3.4974285527,
				"element": "N" 
			},
			{
				"x": -1.7629683368,
				"y": -0.1422805709,
				"z": -3.8531805758,
				"element": "C" 
			},
			{
				"x": -2.06857154,
				"y": -0.0065043607,
				"z": -5.3232873861,
				"element": "C" 
			},
			{
				"x": -2.4022946606,
				"y": 0.6827341656,
				"z": -2.9031613813,
				"element": "C" 
			},
			{
				"x": -2.1405266918,
				"y": 0.5804780544,
				"z": -1.5420998544,
				"element": "C" 
			},
			{
				"x": -2.8648900081,
				"y": 1.4990565276,
				"z": -0.5871571678,
				"element": "C" 
			},
			{
				"x": 2.9255013737,
				"y": -1.2125846139,
				"z": 3.7457633266,
				"element": "H" 
			},
			{
				"x": 3.5221387648,
				"y": -2.781895665,
				"z": 4.3193799668,
				"element": "H" 
			},
			{
				"x": 3.5791968391,
				"y": -2.3975459767,
				"z": 2.589380084,
				"element": "H" 
			},
			{
				"x": 1.6727469949,
				"y": -3.9384205817,
				"z": 3.0510527243,
				"element": "H" 
			},
			{
				"x": 1.014465353,
				"y": -2.7888716692,
				"z": 4.2461734351,
				"element": "H" 
			},
			{
				"x": -0.5820295573,
				"y": -0.5617453807,
				"z": 2.2965127117,
				"element": "H" 
			},
			{
				"x": -2.1842054982,
				"y": -0.2700289344,
				"z": 1.6105853499,
				"element": "H" 
			},
			{
				"x": -0.916616478,
				"y": 0.9396510935,
				"z": 1.4250784487,
				"element": "H" 
			},
			{
				"x": -3.1312854601,
				"y": -0.1847433537,
				"z": -5.5244776968,
				"element": "H" 
			},
			{
				"x": -1.8366122053,
				"y": 1.002287362,
				"z": -5.684030676,
				"element": "H" 
			},
			{
				"x": -1.4774660301,
				"y": -0.7274039174,
				"z": -5.8897912956,
				"element": "H" 
			},
			{
				"x": -3.121470678,
				"y": 1.4195216591,
				"z": -3.2505685994,
				"element": "H" 
			},
			{
				"x": -3.4503376486,
				"y": 0.94187382,
				"z": 0.1502467394,
				"element": "H" 
			},
			{
				"x": -2.1715531574,
				"y": 2.1390746158,
				"z": -0.0328123989,
				"element": "H" 
			},
			{
				"x": -3.5509767025,
				"y": 2.1489117862,
				"z": -1.1358711206,
				"element": "H" 
			}
		],
		 "valence_orbital": [ 
			{
				"type": "occ",
				"energy": -0.29334,
				"method": "rhf"
			},
			{
				"type": "occ",
				"energy": -0.27662,
				"method": "rhf"
			},
			{
				"type": "occ",
				"energy": -0.25837,
				"method": "rhf"
			},
			{
				"type": "occ",
				"energy": -0.23835,
				"method": "rhf"
			},
			{
				"type": "occ",
				"energy": -0.22392,
				"method": "rhf"
			},
			{
				"type": "unocc",
				"energy": -0.0589,
				"method": "rhf"
			},
			{
				"type": "unocc",
				"energy": -0.01444,
				"method": "rhf"
			},
			{
				"type": "unocc",
				"energy": 0.00932,
				"method": "rhf"
			},
			{
				"type": "unocc",
				"energy": 0.03494,
				"method": "rhf"
			},
			{
				"type": "unocc",
				"energy": 0.0863,
				"method": "rhf"
			}
		],
		"cosmo_sigma_profile": { 
			"-0.025": 0.0,
			"-0.024": 0.0,
			"-0.023": 0.0,
			"-0.022": 0.0,
			"-0.021": 0.0,
			"-0.02": 0.0,
			"-0.019": 0.0,
			"-0.018": 0.0,
			"-0.017": 0.0,
			"-0.016": 0.0,
			"-0.015": 0.0,
			"-0.014": 0.0,
			"-0.013": 0.0,
			"-0.012": 0.0,
			"-0.011": 0.0,
			"-0.01": 0.0,
			"-0.009": 0.0,
			"-0.008": 0.0,
			"-0.007": 1.04021175468,
			"-0.006": 10.2773023061,
			"-0.005": 18.0996944609,
			"-0.004": 26.968156103,
			"-0.003": 26.7681684475,
			"-0.002": 30.0154910558,
			"-0.001": 32.6237479923,
			"0.0": 32.5613846912,
			"0.001": 28.8740338681,
			"0.002": 22.2652762188,
			"0.003": 15.2668858173,
			"0.004": 11.0029197022,
			"0.005": 7.35730010566,
			"0.006": 4.15450364485,
			"0.007": 3.35212919705,
			"0.008": 3.79641867795,
			"0.009": 2.20408142937,
			"0.01": 2.70571936715,
			"0.011": 3.83051383973,
			"0.012": 3.90524003341,
			"0.013": 1.03468022811,
			"0.014": 0.760118676167,
			"0.015": 0.0351481936077,
			"0.016": 0.0,
			"0.017": 0.0,
			"0.018": 0.0,
			"0.019": 0.0,
			"0.02": 0.0,
			"0.021": 0.0,
			"0.022": 0.0,
			"0.023": 0.0,
			"0.024": 0.0,
			"0.025": 0.0
		}
	}
}
