{
	 "smiles": "CNC(=O)CSP(=O)(OC)OC", 
	 "Tm": 245.15, 
	 "num_atms": 24, 
	 "gaussian": { 
		 "optdone": 1, 
		 "sigma_profile": "yes", 
		 "theory": "DFT", 
		 "functional": "B3LYP", 
		 "basiset": "6-31G**", 
		 "properties": { 
			 "R2extent": 2890.3878, 
			 "electric_dipole_moment_norm": 1.52239503743, 
			 "electric_quadrupole_moment_norm": 23.4761197865, 
			 "total_energy": -1293.02094361, 
			 "HOMO_LUMO_gap": 0.24637, 
			 "cosmo_polarized_energy": -16.95, 
			 "cosmo_cavitation_energy": 30.42, 
			 "cosmo_dispersion_energy": -21.43, 
			 "cosmo_repulsion_energy": 1.67, 
			 "cosmo_total_nonelectrostatic_energy": 10.65, 
			 "SMD_solvation_energy": 7.56 
		},
		"coords": [
			{
				"x": -0.2479025579,
				"y": 1.2915126006,
				"z": -3.5830037711,
				"element": "C" 
			},
			{
				"x": 0.155882773,
				"y": 0.3792306949,
				"z": -2.5269269026,
				"element": "N" 
			},
			{
				"x": 0.8648515688,
				"y": 0.80516611,
				"z": -1.4494201564,
				"element": "C" 
			},
			{
				"x": 1.3351962424,
				"y": 1.9324120664,
				"z": -1.3332324489,
				"element": "O" 
			},
			{
				"x": 1.1546071351,
				"y": -0.2503573706,
				"z": -0.3736824158,
				"element": "C" 
			},
			{
				"x": -0.221031307,
				"y": -1.4058579491,
				"z": 0.058613895,
				"element": "S" 
			},
			{
				"x": -1.4598567332,
				"y": -0.1020897414,
				"z": 1.1607094022,
				"element": "P" 
			},
			{
				"x": -2.6897665206,
				"y": -0.7955366017,
				"z": 1.6061401862,
				"element": "O" 
			},
			{
				"x": -1.5936962174,
				"y": 1.1652540219,
				"z": 0.1891806732,
				"element": "O" 
			},
			{
				"x": -1.4874857039,
				"y": 2.5444087906,
				"z": 0.6145524688,
				"element": "C" 
			},
			{
				"x": -0.5405045817,
				"y": 0.5194008759,
				"z": 2.3426713061,
				"element": "O" 
			},
			{
				"x": -0.412648921,
				"y": -0.2173678492,
				"z": 3.576015619,
				"element": "C" 
			},
			{
				"x": -1.2790067382,
				"y": 1.640176641,
				"z": -3.4462934933,
				"element": "H" 
			},
			{
				"x": -0.1665488367,
				"y": 0.8020295625,
				"z": -4.5578061569,
				"element": "H" 
			},
			{
				"x": 0.4193954594,
				"y": 2.1532515504,
				"z": -3.553515412,
				"element": "H" 
			},
			{
				"x": -0.3382010065,
				"y": -0.4979616795,
				"z": -2.4352744757,
				"element": "H" 
			},
			{
				"x": 1.4905354576,
				"y": 0.274747973,
				"z": 0.5201028935,
				"element": "H" 
			},
			{
				"x": 1.9667536701,
				"y": -0.900473245,
				"z": -0.714703077,
				"element": "H" 
			},
			{
				"x": -1.7976109506,
				"y": 2.6672455119,
				"z": 1.6531700059,
				"element": "H" 
			},
			{
				"x": -0.4544864017,
				"y": 2.871205687,
				"z": 0.4813223206,
				"element": "H" 
			},
			{
				"x": -2.1468895059,
				"y": 3.1152219785,
				"z": -0.0406179642,
				"element": "H" 
			},
			{
				"x": -1.3958662116,
				"y": -0.5119924761,
				"z": 3.9491548534,
				"element": "H" 
			},
			{
				"x": 0.2065077093,
				"y": -1.1071759263,
				"z": 3.4238450334,
				"element": "H" 
			},
			{
				"x": 0.0769721781,
				"y": 0.4531487746,
				"z": 4.2832976166,
				"element": "H" 
			}
		],
		 "valence_orbital": [ 
			{
				"type": "occ",
				"energy": -0.29925,
				"method": "rhf"
			},
			{
				"type": "occ",
				"energy": -0.29463,
				"method": "rhf"
			},
			{
				"type": "occ",
				"energy": -0.27591,
				"method": "rhf"
			},
			{
				"type": "occ",
				"energy": -0.25537,
				"method": "rhf"
			},
			{
				"type": "occ",
				"energy": -0.24802,
				"method": "rhf"
			},
			{
				"type": "unocc",
				"energy": -0.00165,
				"method": "rhf"
			},
			{
				"type": "unocc",
				"energy": 0.01079,
				"method": "rhf"
			},
			{
				"type": "unocc",
				"energy": 0.04602,
				"method": "rhf"
			},
			{
				"type": "unocc",
				"energy": 0.06388,
				"method": "rhf"
			},
			{
				"type": "unocc",
				"energy": 0.07503,
				"method": "rhf"
			}
		],
		"cosmo_sigma_profile": { 
			"-0.025": 0.0,
			"-0.024": 0.0,
			"-0.023": 0.0,
			"-0.022": 0.0,
			"-0.021": 0.0,
			"-0.02": 0.0,
			"-0.019": 0.0,
			"-0.018": 0.0,
			"-0.017": 0.0,
			"-0.016": 0.0,
			"-0.015": 0.0,
			"-0.014": 0.0,
			"-0.013": 0.151594927234,
			"-0.012": 0.89062513083,
			"-0.011": 0.822732157612,
			"-0.01": 0.781911463999,
			"-0.009": 3.43827174936,
			"-0.008": 3.87881176194,
			"-0.007": 6.74494380452,
			"-0.006": 15.0746708272,
			"-0.005": 20.4782376982,
			"-0.004": 28.8053253289,
			"-0.003": 21.118481063,
			"-0.002": 20.7952372091,
			"-0.001": 14.7861401096,
			"0.0": 9.64768285746,
			"0.001": 11.8063354915,
			"0.002": 10.7608883061,
			"0.003": 11.8271981627,
			"0.004": 9.28607925708,
			"0.005": 7.67086083166,
			"0.006": 6.90425109914,
			"0.007": 3.58937683656,
			"0.008": 4.41884359823,
			"0.009": 1.68041299179,
			"0.01": 1.804793221,
			"0.011": 3.53611713128,
			"0.012": 3.05520572465,
			"0.013": 9.04104480532,
			"0.014": 6.55970090824,
			"0.015": 0.288433971951,
			"0.016": 0.0,
			"0.017": 0.0,
			"0.018": 0.0,
			"0.019": 0.0,
			"0.02": 0.0,
			"0.021": 0.0,
			"0.022": 0.0,
			"0.023": 0.0,
			"0.024": 0.0,
			"0.025": 0.0
		}
	}
}
