{
	 "smiles": "COC1=CC(O)=C(C(C)=O)C(O)=C1", 
	 "Tm": 419.15, 
	 "num_atms": 23, 
	 "gaussian": { 
		 "optdone": 1, 
		 "sigma_profile": "yes", 
		 "theory": "DFT", 
		 "functional": "B3LYP", 
		 "basiset": "6-31G**", 
		 "properties": { 
			 "R2extent": 3080.2034, 
			 "electric_dipole_moment_norm": 5.29211143212, 
			 "electric_quadrupole_moment_norm": 21.8657643308, 
			 "total_energy": -649.852871463, 
			 "HOMO_LUMO_gap": 0.19317, 
			 "cosmo_polarized_energy": -21.03, 
			 "cosmo_cavitation_energy": 27.08, 
			 "cosmo_dispersion_energy": -20.02, 
			 "cosmo_repulsion_energy": 1.59, 
			 "cosmo_total_nonelectrostatic_energy": 8.65, 
			 "SMD_solvation_energy": 6.9 
		},
		"coords": [
			{
				"x": 1.6123099363,
				"y": -1.095013352,
				"z": -3.2624544897,
				"element": "C" 
			},
			{
				"x": 1.8892259124,
				"y": -0.470415662,
				"z": -2.0171623617,
				"element": "O" 
			},
			{
				"x": 0.8582936076,
				"y": 0.0810367537,
				"z": -1.3231689314,
				"element": "C" 
			},
			{
				"x": -0.4685721992,
				"y": 0.0899038343,
				"z": -1.7566364007,
				"element": "C" 
			},
			{
				"x": -1.4560549227,
				"y": 0.6787678312,
				"z": -0.9532429184,
				"element": "C" 
			},
			{
				"x": -2.7411481086,
				"y": 0.7103190863,
				"z": -1.3859955745,
				"element": "O" 
			},
			{
				"x": -1.1494063489,
				"y": 1.2887574147,
				"z": 0.285165404,
				"element": "C" 
			},
			{
				"x": -2.2344162601,
				"y": 1.8970269952,
				"z": 1.1272589376,
				"element": "C" 
			},
			{
				"x": -1.9275104155,
				"y": 3.1327030955,
				"z": 1.9626577687,
				"element": "C" 
			},
			{
				"x": -3.3625575652,
				"y": 1.4318945452,
				"z": 1.130359486,
				"element": "O" 
			},
			{
				"x": 0.2093249163,
				"y": 1.2595129384,
				"z": 0.6784235401,
				"element": "C" 
			},
			{
				"x": 0.5325513907,
				"y": 1.8152153541,
				"z": 1.8833497723,
				"element": "O" 
			},
			{
				"x": 1.1990470721,
				"y": 0.6658789089,
				"z": -0.0995432638,
				"element": "C" 
			},
			{
				"x": 1.1995448113,
				"y": -0.3829309594,
				"z": -3.9880668118,
				"element": "H" 
			},
			{
				"x": 2.5692289774,
				"y": -1.4675213429,
				"z": -3.6304505306,
				"element": "H" 
			},
			{
				"x": 0.9178274034,
				"y": -1.9362780755,
				"z": -3.1458161048,
				"element": "H" 
			},
			{
				"x": -0.7541416246,
				"y": -0.351074847,
				"z": -2.7052289121,
				"element": "H" 
			},
			{
				"x": -2.7830009106,
				"y": 0.3096778822,
				"z": -2.2639702301,
				"element": "H" 
			},
			{
				"x": -1.2173977492,
				"y": 3.8035250302,
				"z": 1.4722969211,
				"element": "H" 
			},
			{
				"x": -1.4839739461,
				"y": 2.8369456134,
				"z": 2.9178053635,
				"element": "H" 
			},
			{
				"x": -2.8719049098,
				"y": 3.6457465938,
				"z": 2.154737725,
				"element": "H" 
			},
			{
				"x": 1.482662313,
				"y": 1.7168185734,
				"z": 2.0260313723,
				"element": "H" 
			},
			{
				"x": 2.2342686199,
				"y": 0.6374037885,
				"z": 0.2268502389,
				"element": "H" 
			}
		],
		 "valence_orbital": [ 
			{
				"type": "occ",
				"energy": -0.32926,
				"method": "rhf"
			},
			{
				"type": "occ",
				"energy": -0.2866,
				"method": "rhf"
			},
			{
				"type": "occ",
				"energy": -0.22797,
				"method": "rhf"
			},
			{
				"type": "occ",
				"energy": -0.2233,
				"method": "rhf"
			},
			{
				"type": "occ",
				"energy": -0.21832,
				"method": "rhf"
			},
			{
				"type": "unocc",
				"energy": -0.02515,
				"method": "rhf"
			},
			{
				"type": "unocc",
				"energy": 0.01227,
				"method": "rhf"
			},
			{
				"type": "unocc",
				"energy": 0.04567,
				"method": "rhf"
			},
			{
				"type": "unocc",
				"energy": 0.05648,
				"method": "rhf"
			},
			{
				"type": "unocc",
				"energy": 0.07385,
				"method": "rhf"
			}
		],
		"cosmo_sigma_profile": { 
			"-0.025": 0.0,
			"-0.024": 0.0,
			"-0.023": 0.0,
			"-0.022": 0.0,
			"-0.021": 0.0,
			"-0.02": 0.0,
			"-0.019": 0.0258088508441,
			"-0.018": 1.45864438628,
			"-0.017": 2.24948306335,
			"-0.016": 2.32066108806,
			"-0.015": 2.11539117122,
			"-0.014": 2.17989401568,
			"-0.013": 1.64168493744,
			"-0.012": 1.51722404441,
			"-0.011": 1.93866000292,
			"-0.01": 2.8647249478,
			"-0.009": 2.23208716845,
			"-0.008": 1.84452088515,
			"-0.007": 3.19861165418,
			"-0.006": 8.59919163889,
			"-0.005": 13.1688797386,
			"-0.004": 15.4627339047,
			"-0.003": 13.6956342345,
			"-0.002": 12.1333066012,
			"-0.001": 12.899605566,
			"0.0": 12.1083224344,
			"0.001": 10.0208492973,
			"0.002": 12.0938876315,
			"0.003": 19.470099317,
			"0.004": 14.3516651808,
			"0.005": 6.81534407342,
			"0.006": 5.53290039223,
			"0.007": 4.60424950844,
			"0.008": 4.37729187401,
			"0.009": 3.17489493215,
			"0.01": 3.45840500747,
			"0.011": 2.41244359645,
			"0.012": 3.69117237217,
			"0.013": 4.65168820601,
			"0.014": 3.17578349248,
			"0.015": 1.0980785736,
			"0.016": 1.41182517506,
			"0.017": 0.290338391861,
			"0.018": 0.0,
			"0.019": 0.0,
			"0.02": 0.0,
			"0.021": 0.0,
			"0.022": 0.0,
			"0.023": 0.0,
			"0.024": 0.0,
			"0.025": 0.0
		}
	}
}
