{
	 "smiles": "OC(=O)CCNC(=O)C1=CC2=C(C=CC=C2)C=C1", 
	 "Tm": 453.15, 
	 "num_atms": 31, 
	 "gaussian": { 
		 "optdone": 1, 
		 "sigma_profile": "yes", 
		 "theory": "DFT", 
		 "functional": "B3LYP", 
		 "basiset": "6-31G**", 
		 "properties": { 
			 "R2extent": 6595.3598, 
			 "electric_dipole_moment_norm": 3.85197741816, 
			 "electric_quadrupole_moment_norm": 15.1586800095, 
			 "total_energy": -821.797506506, 
			 "HOMO_LUMO_gap": 0.16921, 
			 "cosmo_polarized_energy": -17.93, 
			 "cosmo_cavitation_energy": 35.68, 
			 "cosmo_dispersion_energy": -25.55, 
			 "cosmo_repulsion_energy": 1.97, 
			 "cosmo_total_nonelectrostatic_energy": 12.09, 
			 "SMD_solvation_energy": 6.78 
		},
		"coords": [
			{
				"x": 0.1853031934,
				"y": 3.8746150421,
				"z": 0.8721578205,
				"element": "O" 
			},
			{
				"x": 0.353403031,
				"y": 3.6801039795,
				"z": 2.2114164434,
				"element": "C" 
			},
			{
				"x": -0.3741634888,
				"y": 4.1987621132,
				"z": 3.0259803533,
				"element": "O" 
			},
			{
				"x": 1.5156839353,
				"y": 2.7659105886,
				"z": 2.5433793616,
				"element": "C" 
			},
			{
				"x": 2.4420799889,
				"y": 2.3711095686,
				"z": 1.3840698428,
				"element": "C" 
			},
			{
				"x": 1.8064724029,
				"y": 1.5336063702,
				"z": 0.379109247,
				"element": "N" 
			},
			{
				"x": 1.7209430669,
				"y": 0.1760026583,
				"z": 0.5568079263,
				"element": "C" 
			},
			{
				"x": 2.2362211379,
				"y": -0.3905799833,
				"z": 1.5192343982,
				"element": "O" 
			},
			{
				"x": 0.9692312186,
				"y": -0.5880714059,
				"z": -0.4956416235,
				"element": "C" 
			},
			{
				"x": 0.7545506309,
				"y": -0.1102810964,
				"z": -1.7750622842,
				"element": "C" 
			},
			{
				"x": 0.0480374457,
				"y": -0.877653457,
				"z": -2.7379470263,
				"element": "C" 
			},
			{
				"x": -0.4474289071,
				"y": -2.1700339458,
				"z": -2.3662144816,
				"element": "C" 
			},
			{
				"x": -1.1591168771,
				"y": -2.933872471,
				"z": -3.3290092697,
				"element": "C" 
			},
			{
				"x": -1.3694632523,
				"y": -2.4468080262,
				"z": -4.5999618601,
				"element": "C" 
			},
			{
				"x": -0.8753600282,
				"y": -1.1712333555,
				"z": -4.9692669469,
				"element": "C" 
			},
			{
				"x": -0.1815991949,
				"y": -0.4061275846,
				"z": -4.0591622436,
				"element": "C" 
			},
			{
				"x": -0.1987296887,
				"y": -2.6433729705,
				"z": -1.0481123119,
				"element": "C" 
			},
			{
				"x": 0.4954864856,
				"y": -1.8810047184,
				"z": -0.1414179522,
				"element": "C" 
			},
			{
				"x": -0.5822092648,
				"y": 4.4653720544,
				"z": 0.7854406794,
				"element": "H" 
			},
			{
				"x": 1.0995302107,
				"y": 1.8607156443,
				"z": 3.0001964075,
				"element": "H" 
			},
			{
				"x": 2.0850490549,
				"y": 3.2665865916,
				"z": 3.3343954699,
				"element": "H" 
			},
			{
				"x": 3.2789783584,
				"y": 1.8013083952,
				"z": 1.791733008,
				"element": "H" 
			},
			{
				"x": 2.8399212005,
				"y": 3.2625652768,
				"z": 0.8903822141,
				"element": "H" 
			},
			{
				"x": 1.1406604956,
				"y": 1.9856198819,
				"z": -0.2297843592,
				"element": "H" 
			},
			{
				"x": 1.153868405,
				"y": 0.8531671652,
				"z": -2.0815507058,
				"element": "H" 
			},
			{
				"x": -1.534756452,
				"y": -3.9135712759,
				"z": -3.0453173659,
				"element": "H" 
			},
			{
				"x": -1.9149143324,
				"y": -3.0413948954,
				"z": -5.3270589782,
				"element": "H" 
			},
			{
				"x": -1.0464977515,
				"y": -0.7998618054,
				"z": -5.9754161629,
				"element": "H" 
			},
			{
				"x": 0.1995592105,
				"y": 0.5726685697,
				"z": -4.3395434228,
				"element": "H" 
			},
			{
				"x": -0.565522819,
				"y": -3.6276890037,
				"z": -0.7686167414,
				"element": "H" 
			},
			{
				"x": 0.7043825838,
				"y": -2.2396579048,
				"z": 0.8603805643,
				"element": "H" 
			}
		],
		 "valence_orbital": [ 
			{
				"type": "occ",
				"energy": -0.28262,
				"method": "rhf"
			},
			{
				"type": "occ",
				"energy": -0.26146,
				"method": "rhf"
			},
			{
				"type": "occ",
				"energy": -0.25056,
				"method": "rhf"
			},
			{
				"type": "occ",
				"energy": -0.2451,
				"method": "rhf"
			},
			{
				"type": "occ",
				"energy": -0.22299,
				"method": "rhf"
			},
			{
				"type": "unocc",
				"energy": -0.05378,
				"method": "rhf"
			},
			{
				"type": "unocc",
				"energy": -0.02558,
				"method": "rhf"
			},
			{
				"type": "unocc",
				"energy": 0.00097,
				"method": "rhf"
			},
			{
				"type": "unocc",
				"energy": 0.01876,
				"method": "rhf"
			},
			{
				"type": "unocc",
				"energy": 0.04586,
				"method": "rhf"
			}
		],
		"cosmo_sigma_profile": { 
			"-0.025": 0.0,
			"-0.024": 0.0,
			"-0.023": 0.0,
			"-0.022": 0.0,
			"-0.021": 0.0,
			"-0.02": 0.0,
			"-0.019": 0.0480972576687,
			"-0.018": 0.694829109738,
			"-0.017": 1.12109939195,
			"-0.016": 0.762134412251,
			"-0.015": 0.546135615039,
			"-0.014": 0.352772362037,
			"-0.013": 0.967475495163,
			"-0.012": 0.798440868092,
			"-0.011": 1.77733123976,
			"-0.01": 1.84580025854,
			"-0.009": 0.993693859378,
			"-0.008": 2.34101729305,
			"-0.007": 6.0396230888,
			"-0.006": 21.0041987235,
			"-0.005": 23.6064735121,
			"-0.004": 24.5178077778,
			"-0.003": 20.0716679402,
			"-0.002": 18.3863630569,
			"-0.001": 13.747414334,
			"0.0": 16.2371694675,
			"0.001": 15.8589651987,
			"0.002": 17.0761074216,
			"0.003": 27.0316754424,
			"0.004": 22.6586944416,
			"0.005": 10.4568948596,
			"0.006": 3.77139008845,
			"0.007": 2.95104417428,
			"0.008": 2.51780600432,
			"0.009": 3.44669177579,
			"0.01": 3.55466619564,
			"0.011": 4.54759860474,
			"0.012": 6.80490856592,
			"0.013": 4.10359698481,
			"0.014": 3.40948467755,
			"0.015": 0.128061654974,
			"0.016": 0.0,
			"0.017": 0.0,
			"0.018": 0.0,
			"0.019": 0.0,
			"0.02": 0.0,
			"0.021": 0.0,
			"0.022": 0.0,
			"0.023": 0.0,
			"0.024": 0.0,
			"0.025": 0.0
		}
	}
}
