{
	 "smiles": "CC(CC(=O)NC1=CC=C(C)C=C1)C1=CC=C(C)C=C1", 
	 "Tm": 378.15, 
	 "num_atms": 41, 
	 "gaussian": { 
		 "optdone": 1, 
		 "sigma_profile": "yes", 
		 "theory": "DFT", 
		 "functional": "B3LYP", 
		 "basiset": "6-31G**", 
		 "properties": { 
			 "R2extent": 8352.199, 
			 "electric_dipole_moment_norm": 3.52910647898, 
			 "electric_quadrupole_moment_norm": 13.9306586445, 
			 "total_energy": -828.588906454, 
			 "HOMO_LUMO_gap": 0.20802, 
			 "cosmo_polarized_energy": -12.77, 
			 "cosmo_cavitation_energy": 43.66, 
			 "cosmo_dispersion_energy": -29.58, 
			 "cosmo_repulsion_energy": 2.34, 
			 "cosmo_total_nonelectrostatic_energy": 16.42, 
			 "SMD_solvation_energy": 7.77 
		},
		"coords": [
			{
				"x": -2.9059633087,
				"y": 2.7072691821,
				"z": 0.1795612265,
				"element": "C" 
			},
			{
				"x": -2.9204699418,
				"y": 1.4735429001,
				"z": -0.7394582362,
				"element": "C" 
			},
			{
				"x": -1.6321250419,
				"y": 1.4177984449,
				"z": -1.591892669,
				"element": "C" 
			},
			{
				"x": -1.7716224957,
				"y": 0.4547129909,
				"z": -2.7656237201,
				"element": "C" 
			},
			{
				"x": -2.8471547193,
				"y": 0.2543161666,
				"z": -3.3176613298,
				"element": "O" 
			},
			{
				"x": -0.6492920616,
				"y": -0.2159441236,
				"z": -3.2141161396,
				"element": "N" 
			},
			{
				"x": 0.7007692191,
				"y": -0.1810757308,
				"z": -2.7892482522,
				"element": "C" 
			},
			{
				"x": 1.404032223,
				"y": -1.388716199,
				"z": -2.6724228499,
				"element": "C" 
			},
			{
				"x": 2.7468614353,
				"y": -1.3920772336,
				"z": -2.3060133977,
				"element": "C" 
			},
			{
				"x": 3.4293188112,
				"y": -0.2001765591,
				"z": -2.0251595503,
				"element": "C" 
			},
			{
				"x": 4.8739818925,
				"y": -0.2131336096,
				"z": -1.5847153439,
				"element": "C" 
			},
			{
				"x": 2.7192517304,
				"y": 0.9995576069,
				"z": -2.1527417853,
				"element": "C" 
			},
			{
				"x": 1.3809643545,
				"y": 1.018902151,
				"z": -2.5444008509,
				"element": "C" 
			},
			{
				"x": -3.138216176,
				"y": 0.1733729603,
				"z": 0.0262685273,
				"element": "C" 
			},
			{
				"x": -2.3674162994,
				"y": -0.1612568782,
				"z": 1.148426388,
				"element": "C" 
			},
			{
				"x": -2.5753550547,
				"y": -1.3569912744,
				"z": 1.8356800974,
				"element": "C" 
			},
			{
				"x": -3.5587694615,
				"y": -2.2665452063,
				"z": 1.4266250557,
				"element": "C" 
			},
			{
				"x": -3.7666868834,
				"y": -3.5740927467,
				"z": 2.1548836975,
				"element": "C" 
			},
			{
				"x": -4.3267455644,
				"y": -1.9335010658,
				"z": 0.303856392,
				"element": "C" 
			},
			{
				"x": -4.1191106006,
				"y": -0.7386413693,
				"z": -0.3849425152,
				"element": "C" 
			},
			{
				"x": -3.8162401161,
				"y": 2.7508868822,
				"z": 0.7849090106,
				"element": "H" 
			},
			{
				"x": -2.051679894,
				"y": 2.7000776207,
				"z": 0.8653616484,
				"element": "H" 
			},
			{
				"x": -2.845739265,
				"y": 3.6283516537,
				"z": -0.4107977161,
				"element": "H" 
			},
			{
				"x": -3.7509332762,
				"y": 1.5814474441,
				"z": -1.4437290884,
				"element": "H" 
			},
			{
				"x": -0.7684879174,
				"y": 1.1602265419,
				"z": -0.9720161803,
				"element": "H" 
			},
			{
				"x": -1.4358137992,
				"y": 2.4156357523,
				"z": -2.0082896998,
				"element": "H" 
			},
			{
				"x": -0.8884236129,
				"y": -0.9060330355,
				"z": -3.9162343233,
				"element": "H" 
			},
			{
				"x": 0.8884372784,
				"y": -2.3257279654,
				"z": -2.8649352787,
				"element": "H" 
			},
			{
				"x": 3.2716180741,
				"y": -2.3410108466,
				"z": -2.2268349375,
				"element": "H" 
			},
			{
				"x": 4.9591089942,
				"y": -0.3692733235,
				"z": -0.501819888,
				"element": "H" 
			},
			{
				"x": 5.3713499046,
				"y": 0.7333516933,
				"z": -1.8165127344,
				"element": "H" 
			},
			{
				"x": 5.4344899584,
				"y": -1.0171915852,
				"z": -2.0717469311,
				"element": "H" 
			},
			{
				"x": 3.2265177136,
				"y": 1.9427779741,
				"z": -1.9654078163,
				"element": "H" 
			},
			{
				"x": 0.8733274749,
				"y": 1.9668592474,
				"z": -2.6839217741,
				"element": "H" 
			},
			{
				"x": -1.5967186656,
				"y": 0.5196554809,
				"z": 1.5011897431,
				"element": "H" 
			},
			{
				"x": -1.9656579454,
				"y": -1.5855562138,
				"z": 2.7070551216,
				"element": "H" 
			},
			{
				"x": -3.2066518711,
				"y": -4.3894273901,
				"z": 1.6791961254,
				"element": "H" 
			},
			{
				"x": -4.8212798065,
				"y": -3.8675134434,
				"z": 2.1586661914,
				"element": "H" 
			},
			{
				"x": -3.4297296978,
				"y": -3.5121621586,
				"z": 3.1941242435,
				"element": "H" 
			},
			{
				"x": -5.1001340157,
				"y": -2.6182170575,
				"z": -0.0372336262,
				"element": "H" 
			},
			{
				"x": -4.7163115726,
				"y": -0.5109776775,
				"z": -1.2630268343,
				"element": "H" 
			}
		],
		 "valence_orbital": [ 
			{
				"type": "occ",
				"energy": -0.25745,
				"method": "rhf"
			},
			{
				"type": "occ",
				"energy": -0.24885,
				"method": "rhf"
			},
			{
				"type": "occ",
				"energy": -0.23746,
				"method": "rhf"
			},
			{
				"type": "occ",
				"energy": -0.22427,
				"method": "rhf"
			},
			{
				"type": "occ",
				"energy": -0.22037,
				"method": "rhf"
			},
			{
				"type": "unocc",
				"energy": -0.01235,
				"method": "rhf"
			},
			{
				"type": "unocc",
				"energy": -0.00952,
				"method": "rhf"
			},
			{
				"type": "unocc",
				"energy": 0.00778,
				"method": "rhf"
			},
			{
				"type": "unocc",
				"energy": 0.01213,
				"method": "rhf"
			},
			{
				"type": "unocc",
				"energy": 0.03555,
				"method": "rhf"
			}
		],
		"cosmo_sigma_profile": { 
			"-0.025": 0.0,
			"-0.024": 0.0,
			"-0.023": 0.0,
			"-0.022": 0.0,
			"-0.021": 0.0,
			"-0.02": 0.0,
			"-0.019": 0.0,
			"-0.018": 0.0,
			"-0.017": 0.0,
			"-0.016": 0.0,
			"-0.015": 0.0,
			"-0.014": 0.522825977022,
			"-0.013": 0.914798646943,
			"-0.012": 0.725847943585,
			"-0.011": 1.20925746704,
			"-0.01": 1.39116438207,
			"-0.009": 0.783776500579,
			"-0.008": 1.40252035299,
			"-0.007": 2.81284052336,
			"-0.006": 7.61495275223,
			"-0.005": 16.8076518815,
			"-0.004": 32.9668727872,
			"-0.003": 36.4347006152,
			"-0.002": 35.7954762292,
			"-0.001": 34.4075637111,
			"0.0": 38.1164294285,
			"0.001": 28.1398815132,
			"0.002": 18.7424151952,
			"0.003": 17.7271685846,
			"0.004": 15.0150483804,
			"0.005": 17.5065742028,
			"0.006": 13.3797799299,
			"0.007": 6.04294054328,
			"0.008": 2.63724488655,
			"0.009": 1.71739292459,
			"0.01": 1.12594335606,
			"0.011": 1.49072524384,
			"0.012": 2.07707109196,
			"0.013": 3.29703256138,
			"0.014": 3.07766204481,
			"0.015": 0.137241503855,
			"0.016": 0.0,
			"0.017": 0.0,
			"0.018": 0.0,
			"0.019": 0.0,
			"0.02": 0.0,
			"0.021": 0.0,
			"0.022": 0.0,
			"0.023": 0.0,
			"0.024": 0.0,
			"0.025": 0.0
		}
	}
}
