{
	 "smiles": "CCCCCCCCCCCCCCCCCC(=O)OCCCC", 
	 "Tm": 300.15, 
	 "num_atms": 68, 
	 "gaussian": { 
		 "optdone": 1, 
		 "sigma_profile": "yes", 
		 "theory": "DFT", 
		 "functional": "B3LYP", 
		 "basiset": "6-31G**", 
		 "properties": { 
			 "R2extent": 19558.313, 
			 "electric_dipole_moment_norm": 2.02146082327, 
			 "electric_quadrupole_moment_norm": 10.5665039497, 
			 "total_energy": -1015.38624871, 
			 "HOMO_LUMO_gap": 0.27728, 
			 "cosmo_polarized_energy": -7.09, 
			 "cosmo_cavitation_energy": 66.52, 
			 "cosmo_dispersion_energy": -43.23, 
			 "cosmo_repulsion_energy": 3.53, 
			 "cosmo_total_nonelectrostatic_energy": 26.82, 
			 "SMD_solvation_energy": 9.7 
		},
		"coords": [
			{
				"x": -1.6867012261,
				"y": 6.60107146,
				"z": -2.6115819799,
				"element": "C" 
			},
			{
				"x": -2.4948148966,
				"y": 6.2052602728,
				"z": -3.852980854,
				"element": "C" 
			},
			{
				"x": -3.4725054199,
				"y": 5.037916872,
				"z": -3.6274999895,
				"element": "C" 
			},
			{
				"x": -2.8386984273,
				"y": 3.6880631006,
				"z": -3.2445294731,
				"element": "C" 
			},
			{
				"x": -1.9407589401,
				"y": 3.0775005525,
				"z": -4.3311468165,
				"element": "C" 
			},
			{
				"x": -1.3128663848,
				"y": 1.7237760354,
				"z": -3.9568818663,
				"element": "C" 
			},
			{
				"x": -2.310106004,
				"y": 0.5655544211,
				"z": -3.806777855,
				"element": "C" 
			},
			{
				"x": -1.6257658602,
				"y": -0.7758077314,
				"z": -3.5070705544,
				"element": "C" 
			},
			{
				"x": -2.5762462683,
				"y": -1.9840235953,
				"z": -3.43707481,
				"element": "C" 
			},
			{
				"x": -3.6412233782,
				"y": -1.9398542212,
				"z": -2.3244373019,
				"element": "C" 
			},
			{
				"x": -3.1044378708,
				"y": -1.8618350883,
				"z": -0.8839863268,
				"element": "C" 
			},
			{
				"x": -2.2723594073,
				"y": -3.0784289659,
				"z": -0.4513215343,
				"element": "C" 
			},
			{
				"x": -1.893200658,
				"y": -3.0893551654,
				"z": 1.0406869418,
				"element": "C" 
			},
			{
				"x": -0.985279091,
				"y": -1.9406827485,
				"z": 1.5156586216,
				"element": "C" 
			},
			{
				"x": 0.4094219933,
				"y": -1.9224839086,
				"z": 0.8746903095,
				"element": "C" 
			},
			{
				"x": 1.3120307482,
				"y": -0.8188201606,
				"z": 1.4400828298,
				"element": "C" 
			},
			{
				"x": 2.7100280791,
				"y": -0.8047227195,
				"z": 0.7912068285,
				"element": "C" 
			},
			{
				"x": 3.5904505667,
				"y": 0.3037324267,
				"z": 1.3305815139,
				"element": "C" 
			},
			{
				"x": 3.9301776668,
				"y": 1.2937160336,
				"z": 0.7180842246,
				"element": "O" 
			},
			{
				"x": 3.9474878475,
				"y": 0.0638645601,
				"z": 2.6146487374,
				"element": "O" 
			},
			{
				"x": 4.7699365076,
				"y": 1.075054878,
				"z": 3.2415239804,
				"element": "C" 
			},
			{
				"x": 5.0509265926,
				"y": 0.6361867071,
				"z": 4.6703935865,
				"element": "C" 
			},
			{
				"x": 3.8026845274,
				"y": 0.5581762252,
				"z": 5.5589777463,
				"element": "C" 
			},
			{
				"x": 4.1185822084,
				"y": 0.1213430707,
				"z": 6.9924967062,
				"element": "C" 
			},
			{
				"x": -1.0254927012,
				"y": 5.7942476671,
				"z": -2.2786990549,
				"element": "H" 
			},
			{
				"x": -2.3478754142,
				"y": 6.8523764,
				"z": -1.7737407281,
				"element": "H" 
			},
			{
				"x": -1.058773595,
				"y": 7.4754598431,
				"z": -2.8123050139,
				"element": "H" 
			},
			{
				"x": -3.0725329049,
				"y": 7.0742188441,
				"z": -4.1936285927,
				"element": "H" 
			},
			{
				"x": -1.8080615256,
				"y": 5.9653087742,
				"z": -4.6745927584,
				"element": "H" 
			},
			{
				"x": -4.0711411644,
				"y": 4.8988526561,
				"z": -4.5384280277,
				"element": "H" 
			},
			{
				"x": -4.1831185972,
				"y": 5.3264164685,
				"z": -2.8405062739,
				"element": "H" 
			},
			{
				"x": -2.2589746881,
				"y": 3.796542894,
				"z": -2.3175945407,
				"element": "H" 
			},
			{
				"x": -3.650727035,
				"y": 2.9894860049,
				"z": -3.0075502793,
				"element": "H" 
			},
			{
				"x": -2.5222454339,
				"y": 2.9634198728,
				"z": -5.2579105303,
				"element": "H" 
			},
			{
				"x": -1.1303247477,
				"y": 3.7780283831,
				"z": -4.5683334266,
				"element": "H" 
			},
			{
				"x": -0.5762333017,
				"y": 1.4536800367,
				"z": -4.7258647351,
				"element": "H" 
			},
			{
				"x": -0.7437455443,
				"y": 1.8355847063,
				"z": -3.0225778861,
				"element": "H" 
			},
			{
				"x": -2.8974137,
				"y": 0.4723273778,
				"z": -4.732367224,
				"element": "H" 
			},
			{
				"x": -3.0298609896,
				"y": 0.7976309881,
				"z": -3.0125819486,
				"element": "H" 
			},
			{
				"x": -1.0594770975,
				"y": -0.6896754935,
				"z": -2.569283636,
				"element": "H" 
			},
			{
				"x": -0.8768468918,
				"y": -0.9713277688,
				"z": -4.2867095941,
				"element": "H" 
			},
			{
				"x": -3.0925369416,
				"y": -2.0811630845,
				"z": -4.4020079249,
				"element": "H" 
			},
			{
				"x": -1.9763475062,
				"y": -2.8966232136,
				"z": -3.329167911,
				"element": "H" 
			},
			{
				"x": -4.2712006164,
				"y": -2.8353413017,
				"z": -2.4165987511,
				"element": "H" 
			},
			{
				"x": -4.3103892908,
				"y": -1.0873483551,
				"z": -2.4961850001,
				"element": "H" 
			},
			{
				"x": -2.5170557973,
				"y": -0.9432013519,
				"z": -0.7598802319,
				"element": "H" 
			},
			{
				"x": -3.960250054,
				"y": -1.7615207801,
				"z": -0.2018787783,
				"element": "H" 
			},
			{
				"x": -2.8465329923,
				"y": -3.9904453619,
				"z": -0.6660884867,
				"element": "H" 
			},
			{
				"x": -1.3646181458,
				"y": -3.1489220799,
				"z": -1.0633856708,
				"element": "H" 
			},
			{
				"x": -2.8158004826,
				"y": -3.0735082624,
				"z": 1.6369224899,
				"element": "H" 
			},
			{
				"x": -1.4005263763,
				"y": -4.0438047298,
				"z": 1.2719645973,
				"element": "H" 
			},
			{
				"x": -1.4779936608,
				"y": -0.9755701938,
				"z": 1.3381003685,
				"element": "H" 
			},
			{
				"x": -0.8703051226,
				"y": -2.0201063651,
				"z": 2.6052214891,
				"element": "H" 
			},
			{
				"x": 0.8916194676,
				"y": -2.8991291869,
				"z": 1.0262814713,
				"element": "H" 
			},
			{
				"x": 0.3227709117,
				"y": -1.7915135578,
				"z": -0.2120050094,
				"element": "H" 
			},
			{
				"x": 0.8353962728,
				"y": 0.1584456333,
				"z": 1.2872807925,
				"element": "H" 
			},
			{
				"x": 1.4218878283,
				"y": -0.9472160164,
				"z": 2.5233629171,
				"element": "H" 
			},
			{
				"x": 2.6311357453,
				"y": -0.6562344013,
				"z": -0.2889282698,
				"element": "H" 
			},
			{
				"x": 3.2048065413,
				"y": -1.7662990122,
				"z": 0.9722185589,
				"element": "H" 
			},
			{
				"x": 4.240565853,
				"y": 2.033676205,
				"z": 3.2053604856,
				"element": "H" 
			},
			{
				"x": 5.6917752917,
				"y": 1.1872260249,
				"z": 2.6618429852,
				"element": "H" 
			},
			{
				"x": 5.7673602115,
				"y": 1.3496233868,
				"z": 5.0998351627,
				"element": "H" 
			},
			{
				"x": 5.5566250201,
				"y": -0.3379258919,
				"z": 4.6504661603,
				"element": "H" 
			},
			{
				"x": 3.3099240176,
				"y": 1.5400293605,
				"z": 5.5729905032,
				"element": "H" 
			},
			{
				"x": 3.0868027009,
				"y": -0.1383708635,
				"z": 5.1078515642,
				"element": "H" 
			},
			{
				"x": 4.5826920717,
				"y": -0.8713650188,
				"z": 7.011084149,
				"element": "H" 
			},
			{
				"x": 3.211911238,
				"y": 0.0750444443,
				"z": 7.6042701243,
				"element": "H" 
			},
			{
				"x": 4.8116662423,
				"y": 0.8182840082,
				"z": 7.4778038003,
				"element": "H" 
			}
		],
		 "valence_orbital": [ 
			{
				"type": "occ",
				"energy": -0.3036,
				"method": "rhf"
			},
			{
				"type": "occ",
				"energy": -0.29532,
				"method": "rhf"
			},
			{
				"type": "occ",
				"energy": -0.29464,
				"method": "rhf"
			},
			{
				"type": "occ",
				"energy": -0.29235,
				"method": "rhf"
			},
			{
				"type": "occ",
				"energy": -0.26039,
				"method": "rhf"
			},
			{
				"type": "unocc",
				"energy": 0.01689,
				"method": "rhf"
			},
			{
				"type": "unocc",
				"energy": 0.06476,
				"method": "rhf"
			},
			{
				"type": "unocc",
				"energy": 0.08452,
				"method": "rhf"
			},
			{
				"type": "unocc",
				"energy": 0.08852,
				"method": "rhf"
			},
			{
				"type": "unocc",
				"energy": 0.097,
				"method": "rhf"
			}
		],
		"cosmo_sigma_profile": { 
			"-0.025": 0.0,
			"-0.024": 0.0,
			"-0.023": 0.0,
			"-0.022": 0.0,
			"-0.021": 0.0,
			"-0.02": 0.0,
			"-0.019": 0.0,
			"-0.018": 0.0,
			"-0.017": 0.0,
			"-0.016": 0.0,
			"-0.015": 0.0,
			"-0.014": 0.0,
			"-0.013": 0.0,
			"-0.012": 0.0,
			"-0.011": 0.0,
			"-0.01": 0.0,
			"-0.009": 0.0,
			"-0.008": 0.0,
			"-0.007": 0.0,
			"-0.006": 0.0572589155971,
			"-0.005": 4.55991939677,
			"-0.004": 12.4146624962,
			"-0.003": 27.0653319231,
			"-0.002": 76.6220834176,
			"-0.001": 110.562155659,
			"0.0": 111.743866251,
			"0.001": 95.7023781457,
			"0.002": 38.9655004795,
			"0.003": 5.07066157375,
			"0.004": 3.16826598569,
			"0.005": 2.80894701753,
			"0.006": 2.43773097971,
			"0.007": 2.45953840597,
			"0.008": 1.72597152526,
			"0.009": 1.58753594147,
			"0.01": 2.22673720878,
			"0.011": 2.1886848151,
			"0.012": 4.48448897887,
			"0.013": 2.99579592155,
			"0.014": 0.299310860228,
			"0.015": 0.0,
			"0.016": 0.0,
			"0.017": 0.0,
			"0.018": 0.0,
			"0.019": 0.0,
			"0.02": 0.0,
			"0.021": 0.0,
			"0.022": 0.0,
			"0.023": 0.0,
			"0.024": 0.0,
			"0.025": 0.0
		}
	}
}
