{
	 "smiles": "[O-][N+](=O)C1=CC=C(OC2=C(Cl)C=C(Cl)C=C2Cl)C=C1", 
	 "Tm": 379.15, 
	 "num_atms": 25, 
	 "gaussian": { 
		 "optdone": 1, 
		 "sigma_profile": "yes", 
		 "theory": "DFT", 
		 "functional": "B3LYP", 
		 "basiset": "6-31G**", 
		 "properties": { 
			 "R2extent": 8666.8452, 
			 "electric_dipole_moment_norm": 4.733808227, 
			 "electric_quadrupole_moment_norm": 24.6724773667, 
			 "total_energy": -2121.77541983, 
			 "HOMO_LUMO_gap": 0.17687, 
			 "cosmo_polarized_energy": -10.54, 
			 "cosmo_cavitation_energy": 36.91, 
			 "cosmo_dispersion_energy": -26.09, 
			 "cosmo_repulsion_energy": 2.03, 
			 "cosmo_total_nonelectrostatic_energy": 12.84, 
			 "SMD_solvation_energy": 7.93 
		},
		"coords": [
			{
				"x": -3.0041095743,
				"y": -5.6416997203,
				"z": 0.7031503346,
				"element": "O" 
			},
			{
				"x": -2.2286923402,
				"y": -4.820321715,
				"z": 1.1938397062,
				"element": "N" 
			},
			{
				"x": -1.7503524556,
				"y": -4.8981596991,
				"z": 2.3261524739,
				"element": "O" 
			},
			{
				"x": -1.8484400273,
				"y": -3.6686397813,
				"z": 0.371491204,
				"element": "C" 
			},
			{
				"x": -2.3724766669,
				"y": -3.5493621607,
				"z": -0.9175159169,
				"element": "C" 
			},
			{
				"x": -2.0106118405,
				"y": -2.4580933378,
				"z": -1.6934323729,
				"element": "C" 
			},
			{
				"x": -1.1310744404,
				"y": -1.5009126382,
				"z": -1.1728540847,
				"element": "C" 
			},
			{
				"x": -0.8333396878,
				"y": -0.4559111575,
				"z": -2.0199222655,
				"element": "O" 
			},
			{
				"x": 0.0174387791,
				"y": 0.543454281,
				"z": -1.6235374438,
				"element": "C" 
			},
			{
				"x": -0.4793016548,
				"y": 1.7125866462,
				"z": -1.0277850366,
				"element": "C" 
			},
			{
				"x": -2.1837091859,
				"y": 1.842291223,
				"z": -0.6865555505,
				"element": "Cl" 
			},
			{
				"x": 0.3633323958,
				"y": 2.7768964167,
				"z": -0.7108183713,
				"element": "C" 
			},
			{
				"x": 1.7223319548,
				"y": 2.6646559516,
				"z": -0.9979579515,
				"element": "C" 
			},
			{
				"x": 2.7906613839,
				"y": 3.993403197,
				"z": -0.6053380763,
				"element": "Cl" 
			},
			{
				"x": 2.2500640274,
				"y": 1.5209920898,
				"z": -1.5942170581,
				"element": "C" 
			},
			{
				"x": 1.3903196118,
				"y": 0.468105729,
				"z": -1.903170323,
				"element": "C" 
			},
			{
				"x": 2.0325914884,
				"y": -0.9643364486,
				"z": -2.6606592673,
				"element": "Cl" 
			},
			{
				"x": -0.609119462,
				"y": -1.6248143505,
				"z": 0.1183060699,
				"element": "C" 
			},
			{
				"x": -0.973043164,
				"y": -2.7201209044,
				"z": 0.8954961372,
				"element": "C" 
			},
			{
				"x": -3.0500482914,
				"y": -4.3079775063,
				"z": -1.2883296481,
				"element": "H" 
			},
			{
				"x": -2.3943556736,
				"y": -2.3273828901,
				"z": -2.698921779,
				"element": "H" 
			},
			{
				"x": -0.0375516796,
				"y": 3.6721514422,
				"z": -0.2526177798,
				"element": "H" 
			},
			{
				"x": 3.3065983733,
				"y": 1.4461463633,
				"z": -1.8184309909,
				"element": "H" 
			},
			{
				"x": 0.0709594657,
				"y": -0.8791828346,
				"z": 0.5129519554,
				"element": "H" 
			},
			{
				"x": -0.589171336,
				"y": -2.8496681954,
				"z": 1.8995760349,
				"element": "H" 
			}
		],
		 "valence_orbital": [ 
			{
				"type": "occ",
				"energy": -0.28905,
				"method": "rhf"
			},
			{
				"type": "occ",
				"energy": -0.28565,
				"method": "rhf"
			},
			{
				"type": "occ",
				"energy": -0.27926,
				"method": "rhf"
			},
			{
				"type": "occ",
				"energy": -0.27221,
				"method": "rhf"
			},
			{
				"type": "occ",
				"energy": -0.26339,
				"method": "rhf"
			},
			{
				"type": "unocc",
				"energy": -0.08652,
				"method": "rhf"
			},
			{
				"type": "unocc",
				"energy": -0.05457,
				"method": "rhf"
			},
			{
				"type": "unocc",
				"energy": -0.05052,
				"method": "rhf"
			},
			{
				"type": "unocc",
				"energy": -0.03364,
				"method": "rhf"
			},
			{
				"type": "unocc",
				"energy": -0.03077,
				"method": "rhf"
			}
		],
		"cosmo_sigma_profile": { 
			"-0.025": 0.0,
			"-0.024": 0.0,
			"-0.023": 0.0,
			"-0.022": 0.0,
			"-0.021": 0.0,
			"-0.02": 0.0,
			"-0.019": 0.0,
			"-0.018": 0.0,
			"-0.017": 0.0,
			"-0.016": 0.0,
			"-0.015": 0.0,
			"-0.014": 0.0,
			"-0.013": 0.0,
			"-0.012": 0.0,
			"-0.011": 0.0,
			"-0.01": 0.465756797497,
			"-0.009": 3.21603510782,
			"-0.008": 7.30340417078,
			"-0.007": 11.4850796364,
			"-0.006": 11.3277779485,
			"-0.005": 10.969604602,
			"-0.004": 12.4718453405,
			"-0.003": 17.5916698665,
			"-0.002": 24.3331691184,
			"-0.001": 34.7713574317,
			"0.0": 33.7349863535,
			"0.001": 32.9372257997,
			"0.002": 28.7540913017,
			"0.003": 28.0833846449,
			"0.004": 14.1000218596,
			"0.005": 4.54748328502,
			"0.006": 5.51278471741,
			"0.007": 6.50647093435,
			"0.008": 8.37371878765,
			"0.009": 4.89579274749,
			"0.01": 3.22300628846,
			"0.011": 0.361646502969,
			"0.012": 0.0,
			"0.013": 0.0,
			"0.014": 0.0,
			"0.015": 0.0,
			"0.016": 0.0,
			"0.017": 0.0,
			"0.018": 0.0,
			"0.019": 0.0,
			"0.02": 0.0,
			"0.021": 0.0,
			"0.022": 0.0,
			"0.023": 0.0,
			"0.024": 0.0,
			"0.025": 0.0
		}
	}
}
