{
	 "smiles": "C1CNCC(C1)C1=CC=NN1", 
	 "Tm": 348.15, 
	 "num_atms": 24, 
	 "gaussian": { 
		 "optdone": 1, 
		 "sigma_profile": "yes", 
		 "theory": "DFT", 
		 "functional": "B3LYP", 
		 "basiset": "6-31G**", 
		 "properties": { 
			 "R2extent": 2420.3256, 
			 "electric_dipole_moment_norm": 2.72390969197, 
			 "electric_quadrupole_moment_norm": 11.2059052829, 
			 "total_energy": -476.909324943, 
			 "HOMO_LUMO_gap": 0.2397, 
			 "cosmo_polarized_energy": -12.49, 
			 "cosmo_cavitation_energy": 25.35, 
			 "cosmo_dispersion_energy": -18.83, 
			 "cosmo_repulsion_energy": 1.51, 
			 "cosmo_total_nonelectrostatic_energy": 8.04, 
			 "SMD_solvation_energy": 0.34 
		},
		"coords": [
			{
				"x": 1.5085318806,
				"y": -0.3585309191,
				"z": -0.6236766318,
				"element": "C" 
			},
			{
				"x": 2.1161666044,
				"y": 0.2582561009,
				"z": -1.9118014282,
				"element": "C" 
			},
			{
				"x": 1.2442096428,
				"y": 1.244745956,
				"z": -2.5738524687,
				"element": "N" 
			},
			{
				"x": 0.4298646602,
				"y": 1.9851192685,
				"z": -1.6165065482,
				"element": "C" 
			},
			{
				"x": -0.5783645752,
				"y": 1.095915505,
				"z": -0.8211568031,
				"element": "C" 
			},
			{
				"x": -0.0210231785,
				"y": -0.358512665,
				"z": -0.7083170385,
				"element": "C" 
			},
			{
				"x": -0.9176317293,
				"y": 1.696379625,
				"z": 0.5148428933,
				"element": "C" 
			},
			{
				"x": -0.1571112053,
				"y": 2.3091579241,
				"z": 1.5017146978,
				"element": "C" 
			},
			{
				"x": -1.0696984937,
				"y": 2.6079012915,
				"z": 2.538995756,
				"element": "C" 
			},
			{
				"x": -2.3092151259,
				"y": 2.2224340922,
				"z": 2.2422831235,
				"element": "N" 
			},
			{
				"x": -2.1868967067,
				"y": 1.6717694405,
				"z": 1.0138254202,
				"element": "N" 
			},
			{
				"x": 1.8898876789,
				"y": -1.3745751861,
				"z": -0.4734507862,
				"element": "H" 
			},
			{
				"x": 1.8166116999,
				"y": 0.2171627339,
				"z": 0.2575546498,
				"element": "H" 
			},
			{
				"x": 2.3364837491,
				"y": -0.5290475368,
				"z": -2.6409391346,
				"element": "H" 
			},
			{
				"x": 3.0743366997,
				"y": 0.7392234824,
				"z": -1.6735351032,
				"element": "H" 
			},
			{
				"x": 0.6382962737,
				"y": 0.7738984562,
				"z": -3.2403527318,
				"element": "H" 
			},
			{
				"x": 1.1132870779,
				"y": 2.4803805715,
				"z": -0.9177285682,
				"element": "H" 
			},
			{
				"x": -0.1081643818,
				"y": 2.7847887945,
				"z": -2.1360446244,
				"element": "H" 
			},
			{
				"x": -1.512108285,
				"y": 1.0439713391,
				"z": -1.3993780768,
				"element": "H" 
			},
			{
				"x": -0.4652174305,
				"y": -0.862628241,
				"z": 0.1555867481,
				"element": "H" 
			},
			{
				"x": -0.3313861074,
				"y": -0.9268319145,
				"z": -1.5948995957,
				"element": "H" 
			},
			{
				"x": 0.9022997391,
				"y": 2.5158227785,
				"z": 1.4770195976,
				"element": "H" 
			},
			{
				"x": -0.8734209992,
				"y": 3.0921812158,
				"z": 3.4865903885,
				"element": "H" 
			},
			{
				"x": -3.0098374877,
				"y": 1.306517887,
				"z": 0.5593262646,
				"element": "H" 
			}
		],
		 "valence_orbital": [ 
			{
				"type": "occ",
				"energy": -0.31998,
				"method": "rhf"
			},
			{
				"type": "occ",
				"energy": -0.2795,
				"method": "rhf"
			},
			{
				"type": "occ",
				"energy": -0.25,
				"method": "rhf"
			},
			{
				"type": "occ",
				"energy": -0.2352,
				"method": "rhf"
			},
			{
				"type": "occ",
				"energy": -0.21605,
				"method": "rhf"
			},
			{
				"type": "unocc",
				"energy": 0.02365,
				"method": "rhf"
			},
			{
				"type": "unocc",
				"energy": 0.06549,
				"method": "rhf"
			},
			{
				"type": "unocc",
				"energy": 0.07443,
				"method": "rhf"
			},
			{
				"type": "unocc",
				"energy": 0.08283,
				"method": "rhf"
			},
			{
				"type": "unocc",
				"energy": 0.09326,
				"method": "rhf"
			}
		],
		"cosmo_sigma_profile": { 
			"-0.025": 0.0,
			"-0.024": 0.0,
			"-0.023": 0.0,
			"-0.022": 0.0,
			"-0.021": 0.0,
			"-0.02": 0.0,
			"-0.019": 0.0,
			"-0.018": 0.0,
			"-0.017": 0.0,
			"-0.016": 0.448613903422,
			"-0.015": 1.37787845934,
			"-0.014": 1.32563287254,
			"-0.013": 0.88058211911,
			"-0.012": 0.709285183465,
			"-0.011": 1.35936265607,
			"-0.01": 1.92178412474,
			"-0.009": 2.14625947569,
			"-0.008": 2.4842546507,
			"-0.007": 3.09990934069,
			"-0.006": 6.55003554538,
			"-0.005": 8.69135183369,
			"-0.004": 13.3506593447,
			"-0.003": 21.1606130863,
			"-0.002": 21.6493579279,
			"-0.001": 21.0218607036,
			"0.0": 19.1976446288,
			"0.001": 12.754031168,
			"0.002": 6.78309854427,
			"0.003": 6.38175916513,
			"0.004": 6.57407750989,
			"0.005": 5.39119163983,
			"0.006": 6.6902865873,
			"0.007": 4.96696413377,
			"0.008": 3.43994302369,
			"0.009": 2.66704216612,
			"0.01": 1.37352117374,
			"0.011": 1.98996595005,
			"0.012": 2.26122541744,
			"0.013": 1.91550358844,
			"0.014": 1.73082938432,
			"0.015": 1.57112709919,
			"0.016": 2.0242636316,
			"0.017": 1.03897113736,
			"0.018": 0.468956393136,
			"0.019": 0.257220264481,
			"0.02": 0.0,
			"0.021": 0.0,
			"0.022": 0.0,
			"0.023": 0.0,
			"0.024": 0.0,
			"0.025": 0.0
		}
	}
}
