{
	 "smiles": "CC(C)C[C@@H](CC(O)=O)NC(=O)OC(C)(C)C", 
	 "Tm": 327.15, 
	 "num_atms": 40, 
	 "gaussian": { 
		 "optdone": 1, 
		 "sigma_profile": "yes", 
		 "theory": "DFT", 
		 "functional": "B3LYP", 
		 "basiset": "6-31G**", 
		 "properties": { 
			 "R2extent": 5493.2082, 
			 "electric_dipole_moment_norm": 5.3890879386, 
			 "electric_quadrupole_moment_norm": 25.7172532746, 
			 "total_energy": -826.850855559, 
			 "HOMO_LUMO_gap": 0.27425, 
			 "cosmo_polarized_energy": -17.84, 
			 "cosmo_cavitation_energy": 40.7, 
			 "cosmo_dispersion_energy": -26.27, 
			 "cosmo_repulsion_energy": 2.08, 
			 "cosmo_total_nonelectrostatic_energy": 16.5, 
			 "SMD_solvation_energy": 9.29 
		},
		"coords": [
			{
				"x": 2.1955223665,
				"y": 2.5772503426,
				"z": 0.1677910858,
				"element": "C" 
			},
			{
				"x": 1.564024908,
				"y": 1.6538328199,
				"z": 1.2215512616,
				"element": "C" 
			},
			{
				"x": 2.5640682789,
				"y": 1.3605928384,
				"z": 2.350797011,
				"element": "C" 
			},
			{
				"x": 1.0424455748,
				"y": 0.3721713663,
				"z": 0.5374702934,
				"element": "C" 
			},
			{
				"x": 0.3117467861,
				"y": -0.6424526802,
				"z": 1.4402172973,
				"element": "C" 
			},
			{
				"x": -0.9977101662,
				"y": -0.0950862153,
				"z": 2.0418444764,
				"element": "C" 
			},
			{
				"x": -1.6514029726,
				"y": -0.9509524942,
				"z": 3.129118619,
				"element": "C" 
			},
			{
				"x": -1.6186516864,
				"y": -2.2864789765,
				"z": 2.9376467798,
				"element": "O" 
			},
			{
				"x": -2.1943735938,
				"y": -0.4703842494,
				"z": 4.0955824866,
				"element": "O" 
			},
			{
				"x": 0.0973227627,
				"y": -1.9478676749,
				"z": 0.750805813,
				"element": "N" 
			},
			{
				"x": -0.4855467382,
				"y": -2.1355768592,
				"z": -0.5071774117,
				"element": "C" 
			},
			{
				"x": -0.2269817302,
				"y": -3.1087272629,
				"z": -1.1895394823,
				"element": "O" 
			},
			{
				"x": -1.368056885,
				"y": -1.1623996645,
				"z": -0.7944405668,
				"element": "O" 
			},
			{
				"x": -2.1802169244,
				"y": -1.2148336852,
				"z": -2.0345081065,
				"element": "C" 
			},
			{
				"x": -1.2628192687,
				"y": -1.1625199206,
				"z": -3.2593939885,
				"element": "C" 
			},
			{
				"x": -3.0264643308,
				"y": 0.0555407763,
				"z": -1.930088412,
				"element": "C" 
			},
			{
				"x": -3.0655420286,
				"y": -2.464038068,
				"z": -2.0176399673,
				"element": "C" 
			},
			{
				"x": 2.5329293129,
				"y": 3.516121749,
				"z": 0.6188212625,
				"element": "H" 
			},
			{
				"x": 1.4837000179,
				"y": 2.8237936441,
				"z": -0.6274385628,
				"element": "H" 
			},
			{
				"x": 3.0662347838,
				"y": 2.1016016362,
				"z": -0.2997538576,
				"element": "H" 
			},
			{
				"x": 0.7094064272,
				"y": 2.1903012811,
				"z": 1.6560892836,
				"element": "H" 
			},
			{
				"x": 3.4215676938,
				"y": 0.7880973412,
				"z": 1.9756164833,
				"element": "H" 
			},
			{
				"x": 2.9505830987,
				"y": 2.2922046872,
				"z": 2.7766623742,
				"element": "H" 
			},
			{
				"x": 2.1150604432,
				"y": 0.7932104178,
				"z": 3.1724522409,
				"element": "H" 
			},
			{
				"x": 0.3719123512,
				"y": 0.6502187819,
				"z": -0.2829677331,
				"element": "H" 
			},
			{
				"x": 1.8972594066,
				"y": -0.146591657,
				"z": 0.0803656692,
				"element": "H" 
			},
			{
				"x": 0.9744747899,
				"y": -0.9044708144,
				"z": 2.2721622004,
				"element": "H" 
			},
			{
				"x": -0.8171451072,
				"y": 0.8790995604,
				"z": 2.4983251327,
				"element": "H" 
			},
			{
				"x": -1.7271291878,
				"y": 0.0521952497,
				"z": 1.2388233722,
				"element": "H" 
			},
			{
				"x": -1.1260069877,
				"y": -2.4759423619,
				"z": 2.1108008263,
				"element": "H" 
			},
			{
				"x": 0.8786991357,
				"y": -2.588164624,
				"z": 0.8346229366,
				"element": "H" 
			},
			{
				"x": -0.6152351529,
				"y": -0.2810707931,
				"z": -3.2154287272,
				"element": "H" 
			},
			{
				"x": -1.8723762746,
				"y": -1.0885449635,
				"z": -4.1655876822,
				"element": "H" 
			},
			{
				"x": -0.6427360898,
				"y": -2.0565372399,
				"z": -3.3255829449,
				"element": "H" 
			},
			{
				"x": -3.680296075,
				"y": 0.13878491,
				"z": -2.8030109515,
				"element": "H" 
			},
			{
				"x": -3.652208582,
				"y": 0.0343998422,
				"z": -1.0331509214,
				"element": "H" 
			},
			{
				"x": -2.3909645101,
				"y": 0.945093779,
				"z": -1.8905428971,
				"element": "H" 
			},
			{
				"x": -2.4664257349,
				"y": -3.3728331375,
				"z": -2.0774696502,
				"element": "H" 
			},
			{
				"x": -3.6678901918,
				"y": -2.4927551451,
				"z": -1.1043413529,
				"element": "H" 
			},
			{
				"x": -3.7484779188,
				"y": -2.4358825361,
				"z": -2.8726036897,
				"element": "H" 
			}
		],
		 "valence_orbital": [ 
			{
				"type": "occ",
				"energy": -0.30888,
				"method": "rhf"
			},
			{
				"type": "occ",
				"energy": -0.29673,
				"method": "rhf"
			},
			{
				"type": "occ",
				"energy": -0.28866,
				"method": "rhf"
			},
			{
				"type": "occ",
				"energy": -0.27622,
				"method": "rhf"
			},
			{
				"type": "occ",
				"energy": -0.25356,
				"method": "rhf"
			},
			{
				"type": "unocc",
				"energy": 0.02069,
				"method": "rhf"
			},
			{
				"type": "unocc",
				"energy": 0.02413,
				"method": "rhf"
			},
			{
				"type": "unocc",
				"energy": 0.05342,
				"method": "rhf"
			},
			{
				"type": "unocc",
				"energy": 0.06466,
				"method": "rhf"
			},
			{
				"type": "unocc",
				"energy": 0.07649,
				"method": "rhf"
			}
		],
		"cosmo_sigma_profile": { 
			"-0.025": 0.0,
			"-0.024": 0.0,
			"-0.023": 0.0,
			"-0.022": 0.0,
			"-0.021": 0.0,
			"-0.02": 0.0,
			"-0.019": 0.0,
			"-0.018": 0.0,
			"-0.017": 0.0,
			"-0.016": 0.0,
			"-0.015": 0.0257244384429,
			"-0.014": 1.02413288736,
			"-0.013": 1.19467015029,
			"-0.012": 1.46957838803,
			"-0.011": 1.32142472922,
			"-0.01": 1.25281668451,
			"-0.009": 2.50699836919,
			"-0.008": 3.61684217149,
			"-0.007": 5.76430114741,
			"-0.006": 4.86193408242,
			"-0.005": 10.7078251203,
			"-0.004": 21.6772000809,
			"-0.003": 33.5686580242,
			"-0.002": 43.3885631172,
			"-0.001": 40.8547795203,
			"0.0": 42.9824927035,
			"0.001": 31.3836493951,
			"0.002": 11.8325800426,
			"0.003": 3.91010700984,
			"0.004": 3.96849149408,
			"0.005": 3.06546669202,
			"0.006": 3.58436989282,
			"0.007": 3.32045912469,
			"0.008": 3.64338170907,
			"0.009": 5.27308652544,
			"0.01": 4.10870962545,
			"0.011": 6.78474517013,
			"0.012": 9.69294328239,
			"0.013": 7.15850938862,
			"0.014": 1.29577447621,
			"0.015": 0.0,
			"0.016": 0.0,
			"0.017": 0.0,
			"0.018": 0.0,
			"0.019": 0.0,
			"0.02": 0.0,
			"0.021": 0.0,
			"0.022": 0.0,
			"0.023": 0.0,
			"0.024": 0.0,
			"0.025": 0.0
		}
	}
}
