{
	 "smiles": "CC(=O)OC1=CC=CC=C1C(=O)NC1=NC=C(S1)[N+]([O-])=O", 
	 "Tm": 475.15, 
	 "num_atms": 30, 
	 "gaussian": { 
		 "optdone": 1, 
		 "sigma_profile": "yes", 
		 "theory": "DFT", 
		 "functional": "B3LYP", 
		 "basiset": "6-31G**", 
		 "properties": { 
			 "R2extent": 8220.8711, 
			 "electric_dipole_moment_norm": 7.97406152785, 
			 "electric_quadrupole_moment_norm": 16.8759419494, 
			 "total_energy": -1401.17095214, 
			 "HOMO_LUMO_gap": 0.15713, 
			 "cosmo_polarized_energy": -19.53, 
			 "cosmo_cavitation_energy": 38.67, 
			 "cosmo_dispersion_energy": -27.4, 
			 "cosmo_repulsion_energy": 2.06, 
			 "cosmo_total_nonelectrostatic_energy": 13.33, 
			 "SMD_solvation_energy": 8.72 
		},
		"coords": [
			{
				"x": -3.796861084,
				"y": -1.2963634327,
				"z": -0.7977410499,
				"element": "C" 
			},
			{
				"x": -3.1293579944,
				"y": -0.0147908509,
				"z": -0.3877025973,
				"element": "C" 
			},
			{
				"x": -2.9369366377,
				"y": 0.3750135034,
				"z": 0.7362737106,
				"element": "O" 
			},
			{
				"x": -2.728390132,
				"y": 0.6838549824,
				"z": -1.5082169192,
				"element": "O" 
			},
			{
				"x": -1.9629193234,
				"y": 1.8277177856,
				"z": -1.363568906,
				"element": "C" 
			},
			{
				"x": -2.4608540831,
				"y": 2.9883319496,
				"z": -1.9495521682,
				"element": "C" 
			},
			{
				"x": -1.7215880946,
				"y": 4.1695857917,
				"z": -1.9025831881,
				"element": "C" 
			},
			{
				"x": -0.4850202323,
				"y": 4.1953645509,
				"z": -1.2570479197,
				"element": "C" 
			},
			{
				"x": 0.0056296299,
				"y": 3.0341632279,
				"z": -0.6637671199,
				"element": "C" 
			},
			{
				"x": -0.7188059056,
				"y": 1.8327098824,
				"z": -0.7065830827,
				"element": "C" 
			},
			{
				"x": -0.1449196565,
				"y": 0.5804981462,
				"z": -0.13110323,
				"element": "C" 
			},
			{
				"x": -0.2321837403,
				"y": -0.5232877266,
				"z": -0.6546535463,
				"element": "O" 
			},
			{
				"x": 0.5451103554,
				"y": 0.7448635728,
				"z": 1.0594395027,
				"element": "N" 
			},
			{
				"x": 1.1678723093,
				"y": -0.2697118435,
				"z": 1.7523770962,
				"element": "C" 
			},
			{
				"x": 1.7597052841,
				"y": -0.013566255,
				"z": 2.9008374168,
				"element": "N" 
			},
			{
				"x": 2.3102676778,
				"y": -1.1526226919,
				"z": 3.4050485504,
				"element": "C" 
			},
			{
				"x": 2.1352394375,
				"y": -2.2693097946,
				"z": 2.6326799224,
				"element": "C" 
			},
			{
				"x": 1.2232823772,
				"y": -1.9236982831,
				"z": 1.1799250511,
				"element": "S" 
			},
			{
				"x": 2.6035333862,
				"y": -3.5868233657,
				"z": 2.9140566875,
				"element": "N" 
			},
			{
				"x": 2.3359238712,
				"y": -4.4658416674,
				"z": 2.0864727274,
				"element": "O" 
			},
			{
				"x": 3.2393035072,
				"y": -3.7559639455,
				"z": 3.9573688568,
				"element": "O" 
			},
			{
				"x": -4.4869332214,
				"y": -1.1317243184,
				"z": -1.6282567168,
				"element": "H" 
			},
			{
				"x": -4.3163344613,
				"y": -1.7263210834,
				"z": 0.0579602089,
				"element": "H" 
			},
			{
				"x": -3.0204427338,
				"y": -1.9890269587,
				"z": -1.1394306917,
				"element": "H" 
			},
			{
				"x": -3.4278497396,
				"y": 2.945580218,
				"z": -2.4389568954,
				"element": "H" 
			},
			{
				"x": -2.1145042728,
				"y": 5.0675549404,
				"z": -2.3692727154,
				"element": "H" 
			},
			{
				"x": 0.0991186648,
				"y": 5.1091827477,
				"z": -1.2231779571,
				"element": "H" 
			},
			{
				"x": 0.9843758129,
				"y": 3.0484024096,
				"z": -0.192767616,
				"element": "H" 
			},
			{
				"x": 0.5088854389,
				"y": 1.6280252441,
				"z": 1.5529909313,
				"element": "H" 
			},
			{
				"x": 2.8406535603,
				"y": -1.1383967353,
				"z": 4.3484516577,
				"element": "H" 
			}
		],
		 "valence_orbital": [ 
			{
				"type": "occ",
				"energy": -0.29068,
				"method": "rhf"
			},
			{
				"type": "occ",
				"energy": -0.28421,
				"method": "rhf"
			},
			{
				"type": "occ",
				"energy": -0.28255,
				"method": "rhf"
			},
			{
				"type": "occ",
				"energy": -0.2691,
				"method": "rhf"
			},
			{
				"type": "occ",
				"energy": -0.25174,
				"method": "rhf"
			},
			{
				"type": "unocc",
				"energy": -0.09461,
				"method": "rhf"
			},
			{
				"type": "unocc",
				"energy": -0.06309,
				"method": "rhf"
			},
			{
				"type": "unocc",
				"energy": -0.03514,
				"method": "rhf"
			},
			{
				"type": "unocc",
				"energy": -0.01591,
				"method": "rhf"
			},
			{
				"type": "unocc",
				"energy": -0.00127,
				"method": "rhf"
			}
		],
		"cosmo_sigma_profile": { 
			"-0.025": 0.0,
			"-0.024": 0.0,
			"-0.023": 0.0,
			"-0.022": 0.0,
			"-0.021": 0.0,
			"-0.02": 0.0,
			"-0.019": 0.0,
			"-0.018": 0.0,
			"-0.017": 0.573618391225,
			"-0.016": 0.747991278942,
			"-0.015": 1.22673648349,
			"-0.014": 0.821630891182,
			"-0.013": 1.39785968227,
			"-0.012": 1.16034616656,
			"-0.011": 1.06044686252,
			"-0.01": 2.06253031733,
			"-0.009": 2.58320081234,
			"-0.008": 4.82512918651,
			"-0.007": 12.8667979563,
			"-0.006": 17.2459286947,
			"-0.005": 19.8434586718,
			"-0.004": 20.4481901994,
			"-0.003": 25.5876026644,
			"-0.002": 24.6715401572,
			"-0.001": 19.3066609727,
			"0.0": 17.678822152,
			"0.001": 22.073235075,
			"0.002": 22.5839271899,
			"0.003": 16.487341054,
			"0.004": 7.7206969176,
			"0.005": 8.51095023755,
			"0.006": 10.5729485428,
			"0.007": 12.5716053921,
			"0.008": 14.0342201309,
			"0.009": 8.51871079126,
			"0.01": 8.20923628978,
			"0.011": 5.54384276164,
			"0.012": 1.75261950089,
			"0.013": 0.141905431768,
			"0.014": 0.0,
			"0.015": 0.0,
			"0.016": 0.0,
			"0.017": 0.0,
			"0.018": 0.0,
			"0.019": 0.0,
			"0.02": 0.0,
			"0.021": 0.0,
			"0.022": 0.0,
			"0.023": 0.0,
			"0.024": 0.0,
			"0.025": 0.0
		}
	}
}
