{
	 "smiles": "COC1=C(OC)C=C(C=C1)C1=NNC(=C1)C(F)(F)F", 
	 "Tm": 426.15, 
	 "num_atms": 30, 
	 "gaussian": { 
		 "optdone": 1, 
		 "sigma_profile": "yes", 
		 "theory": "DFT", 
		 "functional": "B3LYP", 
		 "basiset": "6-31G**", 
		 "properties": { 
			 "R2extent": 7922.6268, 
			 "electric_dipole_moment_norm": 2.14833000491, 
			 "electric_quadrupole_moment_norm": 11.8351588422, 
			 "total_energy": -1023.33472797, 
			 "HOMO_LUMO_gap": 0.18124, 
			 "cosmo_polarized_energy": -12.46, 
			 "cosmo_cavitation_energy": 36.25, 
			 "cosmo_dispersion_energy": -25.7, 
			 "cosmo_repulsion_energy": 1.92, 
			 "cosmo_total_nonelectrostatic_energy": 12.47, 
			 "SMD_solvation_energy": 7.98 
		},
		"coords": [
			{
				"x": 0.9306976341,
				"y": 2.9611832942,
				"z": 4.1025344016,
				"element": "C" 
			},
			{
				"x": 0.1076056737,
				"y": 1.7935804392,
				"z": 4.0375534417,
				"element": "O" 
			},
			{
				"x": -0.0433652173,
				"y": 1.2245006269,
				"z": 2.7986928953,
				"element": "C" 
			},
			{
				"x": -0.7370373922,
				"y": 1.8776720219,
				"z": 1.7513221997,
				"element": "C" 
			},
			{
				"x": -1.2097066803,
				"y": 3.12788659,
				"z": 2.0337738441,
				"element": "O" 
			},
			{
				"x": -1.948245201,
				"y": 3.8066037712,
				"z": 1.0289801938,
				"element": "C" 
			},
			{
				"x": -0.908906894,
				"y": 1.2294863484,
				"z": 0.5302782207,
				"element": "C" 
			},
			{
				"x": -0.4164094221,
				"y": -0.0728461938,
				"z": 0.3269805084,
				"element": "C" 
			},
			{
				"x": 0.2533614159,
				"y": -0.7169409156,
				"z": 1.3717329921,
				"element": "C" 
			},
			{
				"x": 0.4382232327,
				"y": -0.0644087704,
				"z": 2.5911755306,
				"element": "C" 
			},
			{
				"x": -0.6190215333,
				"y": -0.7323393901,
				"z": -0.9732890125,
				"element": "C" 
			},
			{
				"x": -1.2384856364,
				"y": -0.0950358366,
				"z": -1.9793165736,
				"element": "N" 
			},
			{
				"x": -1.2503471099,
				"y": -0.970389643,
				"z": -2.9958667941,
				"element": "N" 
			},
			{
				"x": -0.6695102808,
				"y": -2.1565685755,
				"z": -2.6739032867,
				"element": "C" 
			},
			{
				"x": -0.2398818001,
				"y": -2.0439050604,
				"z": -1.3694991475,
				"element": "C" 
			},
			{
				"x": -0.5261172244,
				"y": -3.2554435407,
				"z": -3.6686463331,
				"element": "C" 
			},
			{
				"x": -1.5039658391,
				"y": -3.1749935286,
				"z": -4.6055268141,
				"element": "F" 
			},
			{
				"x": -0.6003217809,
				"y": -4.462408745,
				"z": -3.0808274867,
				"element": "F" 
			},
			{
				"x": 0.651543969,
				"y": -3.2024912922,
				"z": -4.3284487158,
				"element": "F" 
			},
			{
				"x": 0.5055673107,
				"y": 3.7867898949,
				"z": 3.5253334969,
				"element": "H" 
			},
			{
				"x": 0.9783532919,
				"y": 3.2384561698,
				"z": 5.1576768748,
				"element": "H" 
			},
			{
				"x": 1.9445843138,
				"y": 2.7446884327,
				"z": 3.741114292,
				"element": "H" 
			},
			{
				"x": -1.3415753345,
				"y": 3.9894096528,
				"z": 0.132926744,
				"element": "H" 
			},
			{
				"x": -2.8474565494,
				"y": 3.2467131068,
				"z": 0.7434794326,
				"element": "H" 
			},
			{
				"x": -2.2420108648,
				"y": 4.7618483395,
				"z": 1.4667579703,
				"element": "H" 
			},
			{
				"x": -1.4342051668,
				"y": 1.7099995549,
				"z": -0.2848248988,
				"element": "H" 
			},
			{
				"x": 0.6417301459,
				"y": -1.7217618795,
				"z": 1.2422810065,
				"element": "H" 
			},
			{
				"x": 0.9558320979,
				"y": -0.5486465872,
				"z": 3.4129845459,
				"element": "H" 
			},
			{
				"x": -1.7036564795,
				"y": -0.7293515627,
				"z": -3.8641419665,
				"element": "H" 
			},
			{
				"x": 0.265227321,
				"y": -2.8029867217,
				"z": -0.7933875614,
				"element": "H" 
			}
		],
		 "valence_orbital": [ 
			{
				"type": "occ",
				"energy": -0.28428,
				"method": "rhf"
			},
			{
				"type": "occ",
				"energy": -0.26959,
				"method": "rhf"
			},
			{
				"type": "occ",
				"energy": -0.26795,
				"method": "rhf"
			},
			{
				"type": "occ",
				"energy": -0.23297,
				"method": "rhf"
			},
			{
				"type": "occ",
				"energy": -0.20725,
				"method": "rhf"
			},
			{
				"type": "unocc",
				"energy": -0.02601,
				"method": "rhf"
			},
			{
				"type": "unocc",
				"energy": -0.004,
				"method": "rhf"
			},
			{
				"type": "unocc",
				"energy": 0.01171,
				"method": "rhf"
			},
			{
				"type": "unocc",
				"energy": 0.07218,
				"method": "rhf"
			},
			{
				"type": "unocc",
				"energy": 0.08194,
				"method": "rhf"
			}
		],
		"cosmo_sigma_profile": { 
			"-0.025": 0.0,
			"-0.024": 0.0,
			"-0.023": 0.0,
			"-0.022": 0.0,
			"-0.021": 0.0,
			"-0.02": 0.0,
			"-0.019": 0.0,
			"-0.018": 0.196193469257,
			"-0.017": 1.23004170641,
			"-0.016": 0.77848705014,
			"-0.015": 1.13175113399,
			"-0.014": 1.15376210963,
			"-0.013": 0.509136132537,
			"-0.012": 1.09578592883,
			"-0.011": 1.22993165128,
			"-0.01": 0.962007112383,
			"-0.009": 1.9158620336,
			"-0.008": 2.82885242079,
			"-0.007": 3.95916555513,
			"-0.006": 9.99142618665,
			"-0.005": 19.8073237519,
			"-0.004": 19.9359128108,
			"-0.003": 22.1073913336,
			"-0.002": 20.1239712297,
			"-0.001": 15.4630745019,
			"0.0": 16.9609561537,
			"0.001": 22.9689479489,
			"0.002": 41.3563932332,
			"0.003": 31.5929259297,
			"0.004": 17.3275921128,
			"0.005": 10.5968040619,
			"0.006": 4.91124533804,
			"0.007": 4.26350760366,
			"0.008": 2.96822987719,
			"0.009": 2.26542662813,
			"0.01": 4.33958076328,
			"0.011": 3.51005271682,
			"0.012": 2.00537972631,
			"0.013": 0.398182836981,
			"0.014": 0.0,
			"0.015": 0.0,
			"0.016": 0.0,
			"0.017": 0.0,
			"0.018": 0.0,
			"0.019": 0.0,
			"0.02": 0.0,
			"0.021": 0.0,
			"0.022": 0.0,
			"0.023": 0.0,
			"0.024": 0.0,
			"0.025": 0.0
		}
	}
}
