{
	 "smiles": "ClS(=O)(=O)C1=C(Br)C=C2NC(=O)COC2=C1", 
	 "Tm": 497.15, 
	 "num_atms": 21, 
	 "gaussian": { 
		 "optdone": 1, 
		 "sigma_profile": "yes", 
		 "theory": "DFT", 
		 "functional": "B3LYP", 
		 "basiset": "6-31G**", 
		 "properties": { 
			 "R2extent": 8193.3642, 
			 "electric_dipole_moment_norm": 4.44609593801, 
			 "electric_quadrupole_moment_norm": 28.4055514305, 
			 "total_energy": -4093.21769701, 
			 "HOMO_LUMO_gap": 0.15813, 
			 "cosmo_polarized_energy": -18.02, 
			 "cosmo_cavitation_energy": 31.37, 
			 "cosmo_dispersion_energy": -24.18, 
			 "cosmo_repulsion_energy": 1.82, 
			 "cosmo_total_nonelectrostatic_energy": 9.02, 
			 "SMD_solvation_energy": 3.96 
		},
		"coords": [
			{
				"x": -0.3677814666,
				"y": -0.094719362,
				"z": -4.8825366892,
				"element": "Cl" 
			},
			{
				"x": -1.9419337501,
				"y": -0.6115751847,
				"z": -3.5514055027,
				"element": "S" 
			},
			{
				"x": -1.8861013954,
				"y": -2.0616164163,
				"z": -3.4115099951,
				"element": "O" 
			},
			{
				"x": -3.1403594157,
				"y": 0.0613043285,
				"z": -4.028765263,
				"element": "O" 
			},
			{
				"x": -1.3717890116,
				"y": 0.1152734702,
				"z": -2.0117559717,
				"element": "C" 
			},
			{
				"x": -1.3501264059,
				"y": 1.4917478218,
				"z": -1.7440202744,
				"element": "C" 
			},
			{
				"x": -1.8467711911,
				"y": 2.821981057,
				"z": -3.0023620947,
				"element": "Br" 
			},
			{
				"x": -0.9226808417,
				"y": 1.9310137443,
				"z": -0.4913418613,
				"element": "C" 
			},
			{
				"x": -0.5128047471,
				"y": 1.0192881102,
				"z": 0.4824770471,
				"element": "C" 
			},
			{
				"x": -0.0393485986,
				"y": 1.4264652984,
				"z": 1.729267823,
				"element": "N" 
			},
			{
				"x": 0.1421439465,
				"y": 0.564224484,
				"z": 2.7916517592,
				"element": "C" 
			},
			{
				"x": 0.5249739397,
				"y": 0.9324573374,
				"z": 3.8844528673,
				"element": "O" 
			},
			{
				"x": -0.2481693056,
				"y": -0.8803422572,
				"z": 2.4947148706,
				"element": "C" 
			},
			{
				"x": -0.0905695886,
				"y": -1.2611686469,
				"z": 1.1239658714,
				"element": "O" 
			},
			{
				"x": -0.5396068991,
				"y": -0.359802912,
				"z": 0.2043992961,
				"element": "C" 
			},
			{
				"x": -0.9675685926,
				"y": -0.8055496556,
				"z": -1.0365660825,
				"element": "C" 
			},
			{
				"x": -0.9021949584,
				"y": 2.9946021488,
				"z": -0.2808065376,
				"element": "H" 
			},
			{
				"x": 0.1326334743,
				"y": 2.406985975,
				"z": 1.9150016557,
				"element": "H" 
			},
			{
				"x": -1.2906303654,
				"y": -1.0289087956,
				"z": 2.8136997133,
				"element": "H" 
			},
			{
				"x": 0.3926997775,
				"y": -1.5386751971,
				"z": 3.0804543431,
				"element": "H" 
			},
			{
				"x": -0.9788146044,
				"y": -1.8673853481,
				"z": -1.2491149746,
				"element": "H" 
			}
		],
		 "valence_orbital": [ 
			{
				"type": "occ",
				"energy": -0.31472,
				"method": "rhf"
			},
			{
				"type": "occ",
				"energy": -0.30466,
				"method": "rhf"
			},
			{
				"type": "occ",
				"energy": -0.29145,
				"method": "rhf"
			},
			{
				"type": "occ",
				"energy": -0.27744,
				"method": "rhf"
			},
			{
				"type": "occ",
				"energy": -0.25178,
				"method": "rhf"
			},
			{
				"type": "unocc",
				"energy": -0.09365,
				"method": "rhf"
			},
			{
				"type": "unocc",
				"energy": -0.05988,
				"method": "rhf"
			},
			{
				"type": "unocc",
				"energy": -0.04766,
				"method": "rhf"
			},
			{
				"type": "unocc",
				"energy": -0.02198,
				"method": "rhf"
			},
			{
				"type": "unocc",
				"energy": -0.00974,
				"method": "rhf"
			}
		],
		"cosmo_sigma_profile": { 
			"-0.025": 0.0,
			"-0.024": 0.0,
			"-0.023": 0.0,
			"-0.022": 0.0,
			"-0.021": 0.0,
			"-0.02": 0.0,
			"-0.019": 0.0,
			"-0.018": 0.0,
			"-0.017": 0.900542743632,
			"-0.016": 1.63153513407,
			"-0.015": 1.30822911627,
			"-0.014": 1.50591514204,
			"-0.013": 1.69389261742,
			"-0.012": 1.03194903278,
			"-0.011": 0.71214292817,
			"-0.01": 2.30767773612,
			"-0.009": 5.42170853361,
			"-0.008": 8.51459700568,
			"-0.007": 7.04782920419,
			"-0.006": 9.50403259515,
			"-0.005": 11.0483597568,
			"-0.004": 12.4760266677,
			"-0.003": 12.0643737832,
			"-0.002": 20.4207120653,
			"-0.001": 25.8846346202,
			"0.0": 18.1814653382,
			"0.001": 12.1847525002,
			"0.002": 17.7267714839,
			"0.003": 23.33764936,
			"0.004": 12.4509754591,
			"0.005": 6.5269066416,
			"0.006": 4.60020386285,
			"0.007": 10.0677504734,
			"0.008": 12.8489959495,
			"0.009": 4.92690005617,
			"0.01": 2.4639071275,
			"0.011": 4.13016217197,
			"0.012": 4.51664338493,
			"0.013": 0.533074601454,
			"0.014": 0.0,
			"0.015": 0.0,
			"0.016": 0.0,
			"0.017": 0.0,
			"0.018": 0.0,
			"0.019": 0.0,
			"0.02": 0.0,
			"0.021": 0.0,
			"0.022": 0.0,
			"0.023": 0.0,
			"0.024": 0.0,
			"0.025": 0.0
		}
	}
}
