{
	 "smiles": "CCCCC1=CN=C(C=C1)C(O)=O", 
	 "Tm": 370.15, 
	 "num_atms": 26, 
	 "gaussian": { 
		 "optdone": 1, 
		 "sigma_profile": "yes", 
		 "theory": "DFT", 
		 "functional": "B3LYP", 
		 "basiset": "6-31G**", 
		 "properties": { 
			 "R2extent": 4707.1632, 
			 "electric_dipole_moment_norm": 6.51422156056, 
			 "electric_quadrupole_moment_norm": 28.9316429397, 
			 "total_energy": -594.130077905, 
			 "HOMO_LUMO_gap": 0.20152, 
			 "cosmo_polarized_energy": -11.37, 
			 "cosmo_cavitation_energy": 29.72, 
			 "cosmo_dispersion_energy": -21.42, 
			 "cosmo_repulsion_energy": 1.72, 
			 "cosmo_total_nonelectrostatic_energy": 10.03, 
			 "SMD_solvation_energy": 5.24 
		},
		"coords": [
			{
				"x": -2.5801858394,
				"y": -2.6900760966,
				"z": 0.9271174895,
				"element": "C" 
			},
			{
				"x": -2.6574997556,
				"y": -1.5169737623,
				"z": -0.0571808322,
				"element": "C" 
			},
			{
				"x": -1.676016358,
				"y": -0.3709067211,
				"z": 0.2356829013,
				"element": "C" 
			},
			{
				"x": -0.1897757072,
				"y": -0.7554838047,
				"z": 0.0660201196,
				"element": "C" 
			},
			{
				"x": 0.7432800881,
				"y": 0.4043893246,
				"z": 0.3184275613,
				"element": "C" 
			},
			{
				"x": 1.2005089911,
				"y": 1.2081781363,
				"z": -0.7367845755,
				"element": "C" 
			},
			{
				"x": 1.9984056879,
				"y": 2.265614947,
				"z": -0.5719508659,
				"element": "N" 
			},
			{
				"x": 2.3855855035,
				"y": 2.5778802367,
				"z": 0.6740807472,
				"element": "C" 
			},
			{
				"x": 1.9970853345,
				"y": 1.8497598139,
				"z": 1.7977745786,
				"element": "C" 
			},
			{
				"x": 1.1651769523,
				"y": 0.7499916644,
				"z": 1.6093824354,
				"element": "C" 
			},
			{
				"x": 3.2860606333,
				"y": 3.7801071515,
				"z": 0.7999364364,
				"element": "C" 
			},
			{
				"x": 3.5673275546,
				"y": 4.36469817,
				"z": -0.3751653041,
				"element": "O" 
			},
			{
				"x": 3.7135429834,
				"y": 4.1795472527,
				"z": 1.8599527212,
				"element": "O" 
			},
			{
				"x": -2.7451424941,
				"y": -2.3526003274,
				"z": 1.9569989435,
				"element": "H" 
			},
			{
				"x": -3.342084162,
				"y": -3.4423670977,
				"z": 0.6996359176,
				"element": "H" 
			},
			{
				"x": -1.6080407723,
				"y": -3.19305966,
				"z": 0.8942190313,
				"element": "H" 
			},
			{
				"x": -2.4910291958,
				"y": -1.8828447146,
				"z": -1.0795904994,
				"element": "H" 
			},
			{
				"x": -3.6753525442,
				"y": -1.1079132804,
				"z": -0.0449184628,
				"element": "H" 
			},
			{
				"x": -1.895523924,
				"y": 0.4724962523,
				"z": -0.4309354424,
				"element": "H" 
			},
			{
				"x": -1.8364179291,
				"y": -0.0009702593,
				"z": 1.2575026078,
				"element": "H" 
			},
			{
				"x": -0.0336155804,
				"y": -1.1365431998,
				"z": -0.9509418592,
				"element": "H" 
			},
			{
				"x": 0.0613518654,
				"y": -1.5742674994,
				"z": 0.7494743621,
				"element": "H" 
			},
			{
				"x": 0.9097641275,
				"y": 0.9788081867,
				"z": -1.7607923327,
				"element": "H" 
			},
			{
				"x": 2.3525520691,
				"y": 2.1542890545,
				"z": 2.7754275829,
				"element": "H" 
			},
			{
				"x": 0.8446571436,
				"y": 0.1539047006,
				"z": 2.460294213,
				"element": "H" 
			},
			{
				"x": 3.0963853277,
				"y": 3.8398415323,
				"z": -1.0568674743,
				"element": "H" 
			}
		],
		 "valence_orbital": [ 
			{
				"type": "occ",
				"energy": -0.30819,
				"method": "rhf"
			},
			{
				"type": "occ",
				"energy": -0.30052,
				"method": "rhf"
			},
			{
				"type": "occ",
				"energy": -0.29624,
				"method": "rhf"
			},
			{
				"type": "occ",
				"energy": -0.27099,
				"method": "rhf"
			},
			{
				"type": "occ",
				"energy": -0.26249,
				"method": "rhf"
			},
			{
				"type": "unocc",
				"energy": -0.06097,
				"method": "rhf"
			},
			{
				"type": "unocc",
				"energy": -0.03927,
				"method": "rhf"
			},
			{
				"type": "unocc",
				"energy": 0.05002,
				"method": "rhf"
			},
			{
				"type": "unocc",
				"energy": 0.07505,
				"method": "rhf"
			},
			{
				"type": "unocc",
				"energy": 0.09164,
				"method": "rhf"
			}
		],
		"cosmo_sigma_profile": { 
			"-0.025": 0.0,
			"-0.024": 0.0,
			"-0.023": 0.0,
			"-0.022": 0.0,
			"-0.021": 0.0,
			"-0.02": 0.0,
			"-0.019": 0.0,
			"-0.018": 0.0,
			"-0.017": 0.0,
			"-0.016": 0.0,
			"-0.015": 0.0,
			"-0.014": 0.0,
			"-0.013": 0.0446143970422,
			"-0.012": 0.317933978158,
			"-0.011": 0.587152414178,
			"-0.01": 0.649816311563,
			"-0.009": 0.728378737174,
			"-0.008": 1.29034739627,
			"-0.007": 6.06489163206,
			"-0.006": 8.37145735222,
			"-0.005": 9.06602784282,
			"-0.004": 13.3842739543,
			"-0.003": 20.616774824,
			"-0.002": 29.7042889577,
			"-0.001": 29.9351070384,
			"0.0": 35.0554667323,
			"0.001": 27.4902602844,
			"0.002": 9.661698089,
			"0.003": 4.37349204276,
			"0.004": 3.31758431422,
			"0.005": 4.2596287188,
			"0.006": 3.80501371032,
			"0.007": 2.4540901919,
			"0.008": 2.90877448078,
			"0.009": 3.4651816035,
			"0.01": 5.47356887206,
			"0.011": 4.56132929,
			"0.012": 4.91781279229,
			"0.013": 1.62758753564,
			"0.014": 0.156689581096,
			"0.015": 0.0,
			"0.016": 0.0,
			"0.017": 0.0,
			"0.018": 0.0,
			"0.019": 0.0,
			"0.02": 0.0,
			"0.021": 0.0,
			"0.022": 0.0,
			"0.023": 0.0,
			"0.024": 0.0,
			"0.025": 0.0
		}
	}
}
