{
	 "smiles": "CC(C)OC1=CC=C(CNC(=O)CCl)C=C1", 
	 "Tm": 337.15, 
	 "num_atms": 32, 
	 "gaussian": { 
		 "optdone": 1, 
		 "sigma_profile": "yes", 
		 "theory": "DFT", 
		 "functional": "B3LYP", 
		 "basiset": "6-31G**", 
		 "properties": { 
			 "R2extent": 6517.7485, 
			 "electric_dipole_moment_norm": 2.4548063834, 
			 "electric_quadrupole_moment_norm": 9.94850936523, 
			 "total_energy": -1132.32944286, 
			 "HOMO_LUMO_gap": 0.2257, 
			 "cosmo_polarized_energy": -12.83, 
			 "cosmo_cavitation_energy": 36.84, 
			 "cosmo_dispersion_energy": -25.91, 
			 "cosmo_repulsion_energy": 2.08, 
			 "cosmo_total_nonelectrostatic_energy": 13.01, 
			 "SMD_solvation_energy": 5.94 
		},
		"coords": [
			{
				"x": 2.7941406556,
				"y": 2.3607251171,
				"z": -1.5451836821,
				"element": "C" 
			},
			{
				"x": 2.3944321737,
				"y": 1.3832891147,
				"z": -2.6503723499,
				"element": "C" 
			},
			{
				"x": 3.1678149785,
				"y": 0.0668147978,
				"z": -2.5772320191,
				"element": "C" 
			},
			{
				"x": 0.9596071284,
				"y": 1.1737184314,
				"z": -2.7073617589,
				"element": "O" 
			},
			{
				"x": 0.3222812658,
				"y": 0.5817431098,
				"z": -1.6387838,
				"element": "C" 
			},
			{
				"x": -0.2161672631,
				"y": 1.3699873729,
				"z": -0.6120924073,
				"element": "C" 
			},
			{
				"x": -0.9356959847,
				"y": 0.7777003135,
				"z": 0.4226671662,
				"element": "C" 
			},
			{
				"x": -1.1360535787,
				"y": -0.6104680018,
				"z": 0.4539423864,
				"element": "C" 
			},
			{
				"x": -1.911307449,
				"y": -1.2451384324,
				"z": 1.5920090589,
				"element": "C" 
			},
			{
				"x": -1.1777659289,
				"y": -1.2685366842,
				"z": 2.8589472113,
				"element": "N" 
			},
			{
				"x": -1.3697676564,
				"y": -0.3298555701,
				"z": 3.8120630343,
				"element": "C" 
			},
			{
				"x": -2.1847145649,
				"y": 0.5852024749,
				"z": 3.7451884896,
				"element": "O" 
			},
			{
				"x": -0.5282372743,
				"y": -0.4116629128,
				"z": 5.0884151823,
				"element": "C" 
			},
			{
				"x": 0.7022883676,
				"y": -1.7467004191,
				"z": 5.1798560398,
				"element": "Cl" 
			},
			{
				"x": -0.6093526591,
				"y": -1.3866014425,
				"z": -0.5832143891,
				"element": "C" 
			},
			{
				"x": 0.1116411384,
				"y": -0.8007541946,
				"z": -1.625060487,
				"element": "C" 
			},
			{
				"x": 2.6114206549,
				"y": 1.9395287093,
				"z": -0.5517999998,
				"element": "H" 
			},
			{
				"x": 3.8615634548,
				"y": 2.5927976228,
				"z": -1.6212235964,
				"element": "H" 
			},
			{
				"x": 2.2341698726,
				"y": 3.2960329048,
				"z": -1.6345074904,
				"element": "H" 
			},
			{
				"x": 2.592614561,
				"y": 1.8521425724,
				"z": -3.620141462,
				"element": "H" 
			},
			{
				"x": 2.9965533964,
				"y": -0.4457550251,
				"z": -1.6255992674,
				"element": "H" 
			},
			{
				"x": 2.8714035628,
				"y": -0.6020597417,
				"z": -3.3903886314,
				"element": "H" 
			},
			{
				"x": 4.2418983258,
				"y": 0.2596100531,
				"z": -2.6674310496,
				"element": "H" 
			},
			{
				"x": -0.0835746554,
				"y": 2.4460832026,
				"z": -0.6497369217,
				"element": "H" 
			},
			{
				"x": -1.3567133562,
				"y": 1.3918862645,
				"z": 1.2140751386,
				"element": "H" 
			},
			{
				"x": -2.1837366408,
				"y": -2.2743068863,
				"z": 1.3369593161,
				"element": "H" 
			},
			{
				"x": -2.8313494729,
				"y": -0.6889091297,
				"z": 1.7872316864,
				"element": "H" 
			},
			{
				"x": -0.4175102647,
				"y": -1.923757172,
				"z": 2.9760689822,
				"element": "H" 
			},
			{
				"x": 0.0107907828,
				"y": 0.5285888949,
				"z": 5.2039352674,
				"element": "H" 
			},
			{
				"x": -1.2023541246,
				"y": -0.5381769383,
				"z": 5.9358158407,
				"element": "H" 
			},
			{
				"x": -0.7712402203,
				"y": -2.4623392463,
				"z": -0.5861815017,
				"element": "H" 
			},
			{
				"x": 0.4992207748,
				"y": -1.4022291595,
				"z": -2.4404639867,
				"element": "H" 
			}
		],
		 "valence_orbital": [ 
			{
				"type": "occ",
				"energy": -0.26745,
				"method": "rhf"
			},
			{
				"type": "occ",
				"energy": -0.2666,
				"method": "rhf"
			},
			{
				"type": "occ",
				"energy": -0.25959,
				"method": "rhf"
			},
			{
				"type": "occ",
				"energy": -0.2525,
				"method": "rhf"
			},
			{
				"type": "occ",
				"energy": -0.23277,
				"method": "rhf"
			},
			{
				"type": "unocc",
				"energy": -0.00707,
				"method": "rhf"
			},
			{
				"type": "unocc",
				"energy": -0.00386,
				"method": "rhf"
			},
			{
				"type": "unocc",
				"energy": 0.01268,
				"method": "rhf"
			},
			{
				"type": "unocc",
				"energy": 0.01949,
				"method": "rhf"
			},
			{
				"type": "unocc",
				"energy": 0.08572,
				"method": "rhf"
			}
		],
		"cosmo_sigma_profile": { 
			"-0.025": 0.0,
			"-0.024": 0.0,
			"-0.023": 0.0,
			"-0.022": 0.0,
			"-0.021": 0.0,
			"-0.02": 0.0,
			"-0.019": 0.0,
			"-0.018": 0.0,
			"-0.017": 0.0,
			"-0.016": 0.0,
			"-0.015": 0.0,
			"-0.014": 0.0,
			"-0.013": 0.418102937815,
			"-0.012": 0.880802321275,
			"-0.011": 0.816619010505,
			"-0.01": 0.576733413558,
			"-0.009": 4.06787351027,
			"-0.008": 4.99174331077,
			"-0.007": 5.04142877879,
			"-0.006": 10.9005554499,
			"-0.005": 13.9537146022,
			"-0.004": 23.8853730821,
			"-0.003": 28.6446489289,
			"-0.002": 27.1759558508,
			"-0.001": 25.7787731893,
			"0.0": 29.8725997281,
			"0.001": 22.967967667,
			"0.002": 13.875001763,
			"0.003": 14.0000161196,
			"0.004": 16.2713913468,
			"0.005": 17.8247709823,
			"0.006": 7.99203212005,
			"0.007": 2.45966171676,
			"0.008": 2.3257274311,
			"0.009": 1.9253611944,
			"0.01": 2.25623430507,
			"0.011": 3.07771384123,
			"0.012": 3.53145284744,
			"0.013": 4.67111887958,
			"0.014": 2.08796921218,
			"0.015": 0.0182267421161,
			"0.016": 0.0,
			"0.017": 0.0,
			"0.018": 0.0,
			"0.019": 0.0,
			"0.02": 0.0,
			"0.021": 0.0,
			"0.022": 0.0,
			"0.023": 0.0,
			"0.024": 0.0,
			"0.025": 0.0
		}
	}
}
