{
	 "smiles": "COC1=CC=C(C=C1)C(=O)C1=NN(C(S1)=NN=CC1=C(Cl)C=CC=C1)C1=CC=CC=C1", 
	 "Tm": 454.15, 
	 "num_atms": 48, 
	 "gaussian": { 
		 "optdone": 1, 
		 "sigma_profile": "yes", 
		 "theory": "DFT", 
		 "functional": "B3LYP", 
		 "basiset": "6-31G**", 
		 "properties": { 
			 "R2extent": 23826.3145, 
			 "electric_dipole_moment_norm": 4.30906187122, 
			 "electric_quadrupole_moment_norm": 34.7765622584, 
			 "total_energy": -2114.45510063, 
			 "HOMO_LUMO_gap": 0.11827, 
			 "cosmo_polarized_energy": -14.72, 
			 "cosmo_cavitation_energy": 57.91, 
			 "cosmo_dispersion_energy": -41.32, 
			 "cosmo_repulsion_energy": 3.04, 
			 "cosmo_total_nonelectrostatic_energy": 19.64, 
			 "SMD_solvation_energy": 9.57 
		},
		"coords": [
			{
				"x": -7.4494393971,
				"y": 1.7863936978,
				"z": -2.314652862,
				"element": "C" 
			},
			{
				"x": -7.217245471,
				"y": 1.6000518934,
				"z": -0.9240234513,
				"element": "O" 
			},
			{
				"x": -5.9491700195,
				"y": 1.3710725034,
				"z": -0.5004861733,
				"element": "C" 
			},
			{
				"x": -4.828102722,
				"y": 1.3035988117,
				"z": -1.3396277377,
				"element": "C" 
			},
			{
				"x": -3.5684885285,
				"y": 1.0591767476,
				"z": -0.7955263187,
				"element": "C" 
			},
			{
				"x": -3.4006117287,
				"y": 0.8804180331,
				"z": 0.58627679,
				"element": "C" 
			},
			{
				"x": -4.5390790228,
				"y": 0.9633376806,
				"z": 1.4170080725,
				"element": "C" 
			},
			{
				"x": -5.793182274,
				"y": 1.1980419942,
				"z": 0.8873914119,
				"element": "C" 
			},
			{
				"x": -2.101660814,
				"y": 0.6467650453,
				"z": 1.2614716385,
				"element": "C" 
			},
			{
				"x": -1.9910788212,
				"y": 0.7004128961,
				"z": 2.4859970652,
				"element": "O" 
			},
			{
				"x": -0.8483388874,
				"y": 0.3226380378,
				"z": 0.5163253442,
				"element": "C" 
			},
			{
				"x": -0.7351127043,
				"y": 0.0730004192,
				"z": -0.7477386075,
				"element": "N" 
			},
			{
				"x": 0.5472875036,
				"y": -0.205840807,
				"z": -1.1026967511,
				"element": "N" 
			},
			{
				"x": 1.4787725416,
				"y": -0.1790613674,
				"z": -0.0625670021,
				"element": "C" 
			},
			{
				"x": 0.644905002,
				"y": 0.2225337528,
				"z": 1.4566609898,
				"element": "S" 
			},
			{
				"x": 2.7392415453,
				"y": -0.4218373145,
				"z": -0.2085741117,
				"element": "N" 
			},
			{
				"x": 3.4059885214,
				"y": -0.3434448913,
				"z": 0.9997499176,
				"element": "N" 
			},
			{
				"x": 4.6661494681,
				"y": -0.6040260145,
				"z": 0.91628091,
				"element": "C" 
			},
			{
				"x": 5.5254584121,
				"y": -0.5656387696,
				"z": 2.0998452728,
				"element": "C" 
			},
			{
				"x": 6.9056498291,
				"y": -0.8388614833,
				"z": 2.0343913858,
				"element": "C" 
			},
			{
				"x": 7.6789917521,
				"y": -1.2454120326,
				"z": 0.5018875793,
				"element": "Cl" 
			},
			{
				"x": 7.7159250556,
				"y": -0.7998541901,
				"z": 3.1687186108,
				"element": "C" 
			},
			{
				"x": 7.1564144132,
				"y": -0.4833144645,
				"z": 4.4046881658,
				"element": "C" 
			},
			{
				"x": 5.7887995408,
				"y": -0.2069749795,
				"z": 4.5014692893,
				"element": "C" 
			},
			{
				"x": 4.9914098383,
				"y": -0.2487420979,
				"z": 3.3663003603,
				"element": "C" 
			},
			{
				"x": 0.787919585,
				"y": -0.5695488962,
				"z": -2.4668689227,
				"element": "C" 
			},
			{
				"x": -0.2631400886,
				"y": -1.1355390394,
				"z": -3.2010367981,
				"element": "C" 
			},
			{
				"x": -0.0654184934,
				"y": -1.4730058803,
				"z": -4.5375995648,
				"element": "C" 
			},
			{
				"x": 1.1724226483,
				"y": -1.2586579891,
				"z": -5.1473319772,
				"element": "C" 
			},
			{
				"x": 2.2132201329,
				"y": -0.6992489613,
				"z": -4.4061760379,
				"element": "C" 
			},
			{
				"x": 2.032090417,
				"y": -0.3480028378,
				"z": -3.068205138,
				"element": "C" 
			},
			{
				"x": -8.5225770663,
				"y": 1.9503157772,
				"z": -2.4191297222,
				"element": "H" 
			},
			{
				"x": -7.1601119615,
				"y": 0.9003380845,
				"z": -2.8928068892,
				"element": "H" 
			},
			{
				"x": -6.9102128057,
				"y": 2.6609793085,
				"z": -2.6985054671,
				"element": "H" 
			},
			{
				"x": -4.9236337896,
				"y": 1.4439959399,
				"z": -2.4095011675,
				"element": "H" 
			},
			{
				"x": -2.7114857641,
				"y": 1.0118061472,
				"z": -1.4544944743,
				"element": "H" 
			},
			{
				"x": -4.4048566672,
				"y": 0.8366112043,
				"z": 2.4855889976,
				"element": "H" 
			},
			{
				"x": -6.6739548461,
				"y": 1.2562675938,
				"z": 1.5181456404,
				"element": "H" 
			},
			{
				"x": 5.1110345777,
				"y": -0.8595966376,
				"z": -0.0453947658,
				"element": "H" 
			},
			{
				"x": 8.7741198691,
				"y": -1.0167783945,
				"z": 3.0751417561,
				"element": "H" 
			},
			{
				"x": 7.7885966374,
				"y": -0.4535547408,
				"z": 5.2869935989,
				"element": "H" 
			},
			{
				"x": 5.3480282554,
				"y": 0.0399731796,
				"z": 5.4624014652,
				"element": "H" 
			},
			{
				"x": 3.9293016364,
				"y": -0.0378318842,
				"z": 3.4236976021,
				"element": "H" 
			},
			{
				"x": -1.2192790389,
				"y": -1.3056676941,
				"z": -2.7217428847,
				"element": "H" 
			},
			{
				"x": -0.883025638,
				"y": -1.914032788,
				"z": -5.1001802946,
				"element": "H" 
			},
			{
				"x": 1.3240647402,
				"y": -1.5283281946,
				"z": -6.1880882848,
				"element": "H" 
			},
			{
				"x": 3.1804201496,
				"y": -0.5268490783,
				"z": -4.8688739209,
				"element": "H" 
			},
			{
				"x": 2.8430944778,
				"y": 0.0722226804,
				"z": -2.4908025392,
				"element": "H" 
			}
		],
		 "valence_orbital": [ 
			{
				"type": "occ",
				"energy": -0.25226,
				"method": "rhf"
			},
			{
				"type": "occ",
				"energy": -0.24783,
				"method": "rhf"
			},
			{
				"type": "occ",
				"energy": -0.23925,
				"method": "rhf"
			},
			{
				"type": "occ",
				"energy": -0.23577,
				"method": "rhf"
			},
			{
				"type": "occ",
				"energy": -0.20323,
				"method": "rhf"
			},
			{
				"type": "unocc",
				"energy": -0.08496,
				"method": "rhf"
			},
			{
				"type": "unocc",
				"energy": -0.05964,
				"method": "rhf"
			},
			{
				"type": "unocc",
				"energy": -0.01865,
				"method": "rhf"
			},
			{
				"type": "unocc",
				"energy": -0.01231,
				"method": "rhf"
			},
			{
				"type": "unocc",
				"energy": -0.01118,
				"method": "rhf"
			}
		],
		"cosmo_sigma_profile": { 
			"-0.025": 0.0,
			"-0.024": 0.0,
			"-0.023": 0.0,
			"-0.022": 0.0,
			"-0.021": 0.0,
			"-0.02": 0.0,
			"-0.019": 0.0,
			"-0.018": 0.0,
			"-0.017": 0.0,
			"-0.016": 0.0,
			"-0.015": 0.0,
			"-0.014": 0.0,
			"-0.013": 0.0,
			"-0.012": 0.0,
			"-0.011": 0.0,
			"-0.01": 0.0,
			"-0.009": 0.0,
			"-0.008": 0.611046261556,
			"-0.007": 8.72845458116,
			"-0.006": 26.5372555593,
			"-0.005": 34.8792390121,
			"-0.004": 37.1645647134,
			"-0.003": 35.0414631822,
			"-0.002": 32.6270318269,
			"-0.001": 32.0495354332,
			"0.0": 34.5533581559,
			"0.001": 44.1212171222,
			"0.002": 51.580947913,
			"0.003": 55.0035065065,
			"0.004": 37.3865362456,
			"0.005": 15.4783813592,
			"0.006": 5.79832531375,
			"0.007": 4.26111369166,
			"0.008": 4.16590256675,
			"0.009": 4.14858778672,
			"0.01": 3.11032212102,
			"0.011": 3.71567401692,
			"0.012": 0.51897444506,
			"0.013": 0.0,
			"0.014": 0.0,
			"0.015": 0.0,
			"0.016": 0.0,
			"0.017": 0.0,
			"0.018": 0.0,
			"0.019": 0.0,
			"0.02": 0.0,
			"0.021": 0.0,
			"0.022": 0.0,
			"0.023": 0.0,
			"0.024": 0.0,
			"0.025": 0.0
		}
	}
}
