{
	 "smiles": "CC(C)(C)OC(=O)NC(CC1=CC=C(Cl)C=C1)C(O)=O", 
	 "Tm": 383.15, 
	 "num_atms": 38, 
	 "gaussian": { 
		 "optdone": 1, 
		 "sigma_profile": "yes", 
		 "theory": "DFT", 
		 "functional": "B3LYP", 
		 "basiset": "6-31G**", 
		 "properties": { 
			 "R2extent": 11041.7095, 
			 "electric_dipole_moment_norm": 2.29365939276, 
			 "electric_quadrupole_moment_norm": 12.4520899784, 
			 "total_energy": -1360.23307489, 
			 "HOMO_LUMO_gap": 0.22197, 
			 "cosmo_polarized_energy": -16.91, 
			 "cosmo_cavitation_energy": 43.12, 
			 "cosmo_dispersion_energy": -29.62, 
			 "cosmo_repulsion_energy": 2.32, 
			 "cosmo_total_nonelectrostatic_energy": 15.82, 
			 "SMD_solvation_energy": 8.19 
		},
		"coords": [
			{
				"x": -0.4866554475,
				"y": -3.3355799675,
				"z": -3.6407118957,
				"element": "C" 
			},
			{
				"x": -1.1058280946,
				"y": -2.9927654171,
				"z": -2.2835930787,
				"element": "C" 
			},
			{
				"x": -0.7239318169,
				"y": -4.0370215092,
				"z": -1.2296116373,
				"element": "C" 
			},
			{
				"x": -2.62253177,
				"y": -2.8137485063,
				"z": -2.4051164306,
				"element": "C" 
			},
			{
				"x": -0.4721236853,
				"y": -1.7010072357,
				"z": -1.9622136947,
				"element": "O" 
			},
			{
				"x": -0.7689811212,
				"y": -1.0457664018,
				"z": -0.8223625381,
				"element": "C" 
			},
			{
				"x": -1.5369091247,
				"y": -1.4091384525,
				"z": 0.0546754439,
				"element": "O" 
			},
			{
				"x": -0.0342712031,
				"y": 0.1188107291,
				"z": -0.7564673695,
				"element": "N" 
			},
			{
				"x": -0.4063507568,
				"y": 1.1320697346,
				"z": 0.2214152354,
				"element": "C" 
			},
			{
				"x": -0.0703272076,
				"y": 0.7035020187,
				"z": 1.6754027923,
				"element": "C" 
			},
			{
				"x": 0.2039588082,
				"y": 1.8523216396,
				"z": 2.6250628343,
				"element": "C" 
			},
			{
				"x": -0.6799843689,
				"y": 2.1715104431,
				"z": 3.6625403977,
				"element": "C" 
			},
			{
				"x": -0.4131436435,
				"y": 3.2149268668,
				"z": 4.549290125,
				"element": "C" 
			},
			{
				"x": 0.757243784,
				"y": 3.9550544325,
				"z": 4.3941147653,
				"element": "C" 
			},
			{
				"x": 1.1040649717,
				"y": 5.2751001457,
				"z": 5.505194237,
				"element": "Cl" 
			},
			{
				"x": 1.6605919981,
				"y": 3.6620965773,
				"z": 3.3734273165,
				"element": "C" 
			},
			{
				"x": 1.3766598431,
				"y": 2.6113761268,
				"z": 2.5018537084,
				"element": "C" 
			},
			{
				"x": -1.8620696081,
				"y": 1.5732628074,
				"z": -0.0166001295,
				"element": "C" 
			},
			{
				"x": -2.4642375139,
				"y": 2.0414363272,
				"z": 1.0955093853,
				"element": "O" 
			},
			{
				"x": -2.4013608683,
				"y": 1.5557318811,
				"z": -1.0994800697,
				"element": "O" 
			},
			{
				"x": -0.7238235363,
				"y": -2.564325845,
				"z": -4.3792105657,
				"element": "H" 
			},
			{
				"x": -0.8779369784,
				"y": -4.2917988756,
				"z": -4.0003671291,
				"element": "H" 
			},
			{
				"x": 0.6014543491,
				"y": -3.4143816832,
				"z": -3.5605114427,
				"element": "H" 
			},
			{
				"x": 0.3647953257,
				"y": -4.1069032944,
				"z": -1.1401453406,
				"element": "H" 
			},
			{
				"x": -1.1440189111,
				"y": -3.7818977474,
				"z": -0.2563494093,
				"element": "H" 
			},
			{
				"x": -1.1034337041,
				"y": -5.0185311442,
				"z": -1.5317453586,
				"element": "H" 
			},
			{
				"x": -2.8552485782,
				"y": -2.0234584036,
				"z": -3.1253848655,
				"element": "H" 
			},
			{
				"x": -3.0732286647,
				"y": -3.7453794322,
				"z": -2.7624690929,
				"element": "H" 
			},
			{
				"x": -3.0651808764,
				"y": -2.5543179903,
				"z": -1.4432392719,
				"element": "H" 
			},
			{
				"x": 0.3135038823,
				"y": 0.4464185264,
				"z": -1.6464404797,
				"element": "H" 
			},
			{
				"x": 0.2015681869,
				"y": 2.0143014221,
				"z": -0.0142701845,
				"element": "H" 
			},
			{
				"x": 0.827246798,
				"y": 0.0806111241,
				"z": 1.6005521226,
				"element": "H" 
			},
			{
				"x": -0.8677524631,
				"y": 0.0634386525,
				"z": 2.0542903491,
				"element": "H" 
			},
			{
				"x": -1.5961823105,
				"y": 1.6004086767,
				"z": 3.774856759,
				"element": "H" 
			},
			{
				"x": -1.1044489265,
				"y": 3.4523158722,
				"z": 5.3504785825,
				"element": "H" 
			},
			{
				"x": 2.5722280773,
				"y": 4.2402810857,
				"z": 3.270004174,
				"element": "H" 
			},
			{
				"x": 2.0921415777,
				"y": 2.3739882599,
				"z": 1.7174302252,
				"element": "H" 
			},
			{
				"x": -3.3551964226,
				"y": 2.3202585565,
				"z": 0.8230915311,
				"element": "H" 
			}
		],
		 "valence_orbital": [ 
			{
				"type": "occ",
				"energy": -0.28354,
				"method": "rhf"
			},
			{
				"type": "occ",
				"energy": -0.27276,
				"method": "rhf"
			},
			{
				"type": "occ",
				"energy": -0.26483,
				"method": "rhf"
			},
			{
				"type": "occ",
				"energy": -0.26058,
				"method": "rhf"
			},
			{
				"type": "occ",
				"energy": -0.23843,
				"method": "rhf"
			},
			{
				"type": "unocc",
				"energy": -0.01646,
				"method": "rhf"
			},
			{
				"type": "unocc",
				"energy": -0.01054,
				"method": "rhf"
			},
			{
				"type": "unocc",
				"energy": 0.00482,
				"method": "rhf"
			},
			{
				"type": "unocc",
				"energy": 0.03136,
				"method": "rhf"
			},
			{
				"type": "unocc",
				"energy": 0.04296,
				"method": "rhf"
			}
		],
		"cosmo_sigma_profile": { 
			"-0.025": 0.0,
			"-0.024": 0.0,
			"-0.023": 0.0,
			"-0.022": 0.0,
			"-0.021": 0.0,
			"-0.02": 0.0,
			"-0.019": 0.191373680383,
			"-0.018": 0.70986147887,
			"-0.017": 0.85472870315,
			"-0.016": 1.22997095608,
			"-0.015": 0.875105955574,
			"-0.014": 1.54306170171,
			"-0.013": 1.72129610351,
			"-0.012": 2.17324358326,
			"-0.011": 2.04024531777,
			"-0.01": 1.53269738096,
			"-0.009": 2.55371015318,
			"-0.008": 2.86106763939,
			"-0.007": 8.31801969572,
			"-0.006": 9.98542370999,
			"-0.005": 13.7017898415,
			"-0.004": 23.5722172462,
			"-0.003": 25.0118496578,
			"-0.002": 24.571280864,
			"-0.001": 27.7582780329,
			"0.0": 36.754726279,
			"0.001": 28.4207004198,
			"0.002": 22.1244292511,
			"0.003": 23.4372207379,
			"0.004": 24.6228214303,
			"0.005": 17.9910253947,
			"0.006": 7.77853913506,
			"0.007": 6.97162781685,
			"0.008": 4.21757362147,
			"0.009": 3.23944154395,
			"0.01": 3.56898259171,
			"0.011": 4.99323279439,
			"0.012": 5.13477814113,
			"0.013": 0.691635810646,
			"0.014": 0.0,
			"0.015": 0.0,
			"0.016": 0.0,
			"0.017": 0.0,
			"0.018": 0.0,
			"0.019": 0.0,
			"0.02": 0.0,
			"0.021": 0.0,
			"0.022": 0.0,
			"0.023": 0.0,
			"0.024": 0.0,
			"0.025": 0.0
		}
	}
}
