{
	 "smiles": "COCCNC1=C(N)C=C(C=C1)S(C)(=O)=O", 
	 "Tm": 418.15, 
	 "num_atms": 32, 
	 "gaussian": { 
		 "optdone": 1, 
		 "sigma_profile": "yes", 
		 "theory": "DFT", 
		 "functional": "B3LYP", 
		 "basiset": "6-31G**", 
		 "properties": { 
			 "R2extent": 6164.7699, 
			 "electric_dipole_moment_norm": 5.1776288067, 
			 "electric_quadrupole_moment_norm": 37.7015695529, 
			 "total_energy": -1123.98209117, 
			 "HOMO_LUMO_gap": 0.18713, 
			 "cosmo_polarized_energy": -23.25, 
			 "cosmo_cavitation_energy": 36.62, 
			 "cosmo_dispersion_energy": -26.39, 
			 "cosmo_repulsion_energy": 2.07, 
			 "cosmo_total_nonelectrostatic_energy": 12.29, 
			 "SMD_solvation_energy": 5.38 
		},
		"coords": [
			{
				"x": 1.5947863523,
				"y": -0.205347816,
				"z": 4.7647635168,
				"element": "C" 
			},
			{
				"x": 0.5195280012,
				"y": 0.3874359915,
				"z": 4.0701440994,
				"element": "O" 
			},
			{
				"x": 0.8954441938,
				"y": 0.8993731265,
				"z": 2.8068775392,
				"element": "C" 
			},
			{
				"x": -0.3516442765,
				"y": 1.4984605472,
				"z": 2.1628696225,
				"element": "C" 
			},
			{
				"x": -0.0441459109,
				"y": 2.0623270901,
				"z": 0.8362939523,
				"element": "N" 
			},
			{
				"x": -0.0110897512,
				"y": 1.1425857185,
				"z": -0.2612743214,
				"element": "C" 
			},
			{
				"x": -1.2004838294,
				"y": 0.6536869801,
				"z": -0.8633342335,
				"element": "C" 
			},
			{
				"x": -2.4501488055,
				"y": 1.0093346803,
				"z": -0.3697465841,
				"element": "N" 
			},
			{
				"x": -1.097255986,
				"y": -0.2378465555,
				"z": -1.9432296498,
				"element": "C" 
			},
			{
				"x": 0.1569098881,
				"y": -0.6334693187,
				"z": -2.3979868234,
				"element": "C" 
			},
			{
				"x": 1.3371562262,
				"y": -0.1604409682,
				"z": -1.8243181128,
				"element": "C" 
			},
			{
				"x": 1.2289408416,
				"y": 0.732631659,
				"z": -0.759092185,
				"element": "C" 
			},
			{
				"x": 0.2444263585,
				"y": -1.794870362,
				"z": -3.7698081943,
				"element": "S" 
			},
			{
				"x": 0.3458100371,
				"y": -3.4060164442,
				"z": -2.9517247191,
				"element": "C" 
			},
			{
				"x": 1.5182037599,
				"y": -1.5793903551,
				"z": -4.4740993715,
				"element": "O" 
			},
			{
				"x": -1.0387416843,
				"y": -1.7494575005,
				"z": -4.4908131159,
				"element": "O" 
			},
			{
				"x": 2.0231150949,
				"y": -1.0549056441,
				"z": 4.2090764463,
				"element": "H" 
			},
			{
				"x": 2.4033522918,
				"y": 0.5163911968,
				"z": 4.9626267044,
				"element": "H" 
			},
			{
				"x": 1.2060741647,
				"y": -0.5690510611,
				"z": 5.719194588,
				"element": "H" 
			},
			{
				"x": 1.3080823279,
				"y": 0.099997007,
				"z": 2.168870137,
				"element": "H" 
			},
			{
				"x": 1.6715603361,
				"y": 1.6762730492,
				"z": 2.9040509746,
				"element": "H" 
			},
			{
				"x": -1.1386490433,
				"y": 0.7306961548,
				"z": 2.1343241155,
				"element": "H" 
			},
			{
				"x": -0.7112523605,
				"y": 2.3111124601,
				"z": 2.8025295655,
				"element": "H" 
			},
			{
				"x": -0.634034425,
				"y": 2.8639672619,
				"z": 0.6373739747,
				"element": "H" 
			},
			{
				"x": -2.4879874105,
				"y": 1.8469306467,
				"z": 0.1915207531,
				"element": "H" 
			},
			{
				"x": -3.2209103289,
				"y": 0.9292933326,
				"z": -1.0172396553,
				"element": "H" 
			},
			{
				"x": -1.9887630059,
				"y": -0.6123788088,
				"z": -2.4371549716,
				"element": "H" 
			},
			{
				"x": 2.3005617901,
				"y": -0.4534133589,
				"z": -2.2252573331,
				"element": "H" 
			},
			{
				"x": 2.1162020944,
				"y": 1.1539687007,
				"z": -0.297363371,
				"element": "H" 
			},
			{
				"x": -0.549932905,
				"y": -3.5583860025,
				"z": -2.3482143423,
				"element": "H" 
			},
			{
				"x": 0.4006243725,
				"y": -4.1507381394,
				"z": -3.7484639342,
				"element": "H" 
			},
			{
				"x": 1.2457615917,
				"y": -3.4394532679,
				"z": -2.336395071,
				"element": "H" 
			}
		],
		 "valence_orbital": [ 
			{
				"type": "occ",
				"energy": -0.28119,
				"method": "rhf"
			},
			{
				"type": "occ",
				"energy": -0.26825,
				"method": "rhf"
			},
			{
				"type": "occ",
				"energy": -0.25612,
				"method": "rhf"
			},
			{
				"type": "occ",
				"energy": -0.24436,
				"method": "rhf"
			},
			{
				"type": "occ",
				"energy": -0.21926,
				"method": "rhf"
			},
			{
				"type": "unocc",
				"energy": -0.03213,
				"method": "rhf"
			},
			{
				"type": "unocc",
				"energy": -0.00512,
				"method": "rhf"
			},
			{
				"type": "unocc",
				"energy": 0.04582,
				"method": "rhf"
			},
			{
				"type": "unocc",
				"energy": 0.07243,
				"method": "rhf"
			},
			{
				"type": "unocc",
				"energy": 0.083,
				"method": "rhf"
			}
		],
		"cosmo_sigma_profile": { 
			"-0.025": 0.0,
			"-0.024": 0.0,
			"-0.023": 0.0,
			"-0.022": 0.0,
			"-0.021": 0.0,
			"-0.02": 0.0,
			"-0.019": 0.0,
			"-0.018": 0.0,
			"-0.017": 0.0,
			"-0.016": 0.0,
			"-0.015": 0.309353280815,
			"-0.014": 1.27738026328,
			"-0.013": 3.15296210822,
			"-0.012": 3.77512861599,
			"-0.011": 3.02303471473,
			"-0.01": 4.13303148833,
			"-0.009": 4.39951772237,
			"-0.008": 8.11823992585,
			"-0.007": 9.44677178829,
			"-0.006": 10.4478989712,
			"-0.005": 14.5787092531,
			"-0.004": 20.241717033,
			"-0.003": 26.6566804659,
			"-0.002": 25.7400070272,
			"-0.001": 23.0462634415,
			"0.0": 13.9294016951,
			"0.001": 12.0283243602,
			"0.002": 11.9083571399,
			"0.003": 15.0965239303,
			"0.004": 14.7035584176,
			"0.005": 6.67510053548,
			"0.006": 4.71483336705,
			"0.007": 5.55576274068,
			"0.008": 5.6332841876,
			"0.009": 5.98379933107,
			"0.01": 5.76073692963,
			"0.011": 10.9811392993,
			"0.012": 11.4758167147,
			"0.013": 4.77663703654,
			"0.014": 0.302840781022,
			"0.015": 0.0,
			"0.016": 0.0,
			"0.017": 0.0,
			"0.018": 0.0,
			"0.019": 0.0,
			"0.02": 0.0,
			"0.021": 0.0,
			"0.022": 0.0,
			"0.023": 0.0,
			"0.024": 0.0,
			"0.025": 0.0
		}
	}
}
