{
	 "smiles": "CC1=NN=C2CN=C(C3=C(Cl)C=CC=C3)C3=C(C=CC(Cl)=C3)N12", 
	 "Tm": 507.15, 
	 "num_atms": 35, 
	 "gaussian": { 
		 "optdone": 1, 
		 "sigma_profile": "yes", 
		 "theory": "DFT", 
		 "functional": "B3LYP", 
		 "basiset": "6-31G**", 
		 "properties": { 
			 "R2extent": 8577.0874, 
			 "electric_dipole_moment_norm": 5.80041929605, 
			 "electric_quadrupole_moment_norm": 32.7762666466, 
			 "total_energy": -1794.39864178, 
			 "HOMO_LUMO_gap": 0.17546, 
			 "cosmo_polarized_energy": -21.54, 
			 "cosmo_cavitation_energy": 42.47, 
			 "cosmo_dispersion_energy": -29.33, 
			 "cosmo_repulsion_energy": 2.24, 
			 "cosmo_total_nonelectrostatic_energy": 15.38, 
			 "SMD_solvation_energy": 1.9 
		},
		"coords": [
			{
				"x": -4.2798267674,
				"y": -0.9216233875,
				"z": 1.2543980395,
				"element": "C" 
			},
			{
				"x": -3.6915825738,
				"y": 0.3499258073,
				"z": 0.739378555,
				"element": "C" 
			},
			{
				"x": -4.393597735,
				"y": 1.4025694152,
				"z": 0.3959027721,
				"element": "N" 
			},
			{
				"x": -3.5273512722,
				"y": 2.3697746133,
				"z": -0.0818980555,
				"element": "N" 
			},
			{
				"x": -2.3209734477,
				"y": 1.8755364218,
				"z": -0.0220728701,
				"element": "C" 
			},
			{
				"x": -1.0444810729,
				"y": 2.4864533591,
				"z": -0.489734074,
				"element": "C" 
			},
			{
				"x": -0.5149809177,
				"y": 1.7474788053,
				"z": -1.6405197531,
				"element": "N" 
			},
			{
				"x": -0.1248725238,
				"y": 0.5393036963,
				"z": -1.4868804301,
				"element": "C" 
			},
			{
				"x": 0.4130322721,
				"y": -0.1627814843,
				"z": -2.7006223787,
				"element": "C" 
			},
			{
				"x": 1.4700081356,
				"y": 0.3348764264,
				"z": -3.4812578477,
				"element": "C" 
			},
			{
				"x": 2.355872815,
				"y": 1.7783254721,
				"z": -3.0148955033,
				"element": "Cl" 
			},
			{
				"x": 1.8888130741,
				"y": -0.3295411499,
				"z": -4.6357089781,
				"element": "C" 
			},
			{
				"x": 1.2523352313,
				"y": -1.5041234539,
				"z": -5.0323981883,
				"element": "C" 
			},
			{
				"x": 0.2080051835,
				"y": -2.0246413446,
				"z": -4.2673120949,
				"element": "C" 
			},
			{
				"x": -0.1936546213,
				"y": -1.3610631579,
				"z": -3.1113092346,
				"element": "C" 
			},
			{
				"x": -0.1450964207,
				"y": -0.2548635064,
				"z": -0.2128204676,
				"element": "C" 
			},
			{
				"x": -1.2021166672,
				"y": -0.213681259,
				"z": 0.7269212338,
				"element": "C" 
			},
			{
				"x": -1.1225089265,
				"y": -0.970952807,
				"z": 1.9031416294,
				"element": "C" 
			},
			{
				"x": -0.0249669439,
				"y": -1.7842315244,
				"z": 2.1595491872,
				"element": "C" 
			},
			{
				"x": 1.0135832869,
				"y": -1.833162944,
				"z": 1.2293074431,
				"element": "C" 
			},
			{
				"x": 2.4092302955,
				"y": -2.8463421249,
				"z": 1.5415859951,
				"element": "Cl" 
			},
			{
				"x": 0.9551163378,
				"y": -1.0854244698,
				"z": 0.0597953972,
				"element": "C" 
			},
			{
				"x": -2.3448141075,
				"y": 0.5902265407,
				"z": 0.493276098,
				"element": "N" 
			},
			{
				"x": -5.3458440307,
				"y": -0.9098130143,
				"z": 1.0219043782,
				"element": "H" 
			},
			{
				"x": -4.1762956888,
				"y": -1.0233806302,
				"z": 2.3405146087,
				"element": "H" 
			},
			{
				"x": -3.8227505385,
				"y": -1.8006727398,
				"z": 0.7896778712,
				"element": "H" 
			},
			{
				"x": -1.2486813635,
				"y": 3.513868694,
				"z": -0.7936708043,
				"element": "H" 
			},
			{
				"x": -0.3076703706,
				"y": 2.5070645493,
				"z": 0.3277765528,
				"element": "H" 
			},
			{
				"x": 2.7125018427,
				"y": 0.0772655867,
				"z": -5.2116268841,
				"element": "H" 
			},
			{
				"x": 1.5801405323,
				"y": -2.0120340141,
				"z": -5.9343236099,
				"element": "H" 
			},
			{
				"x": -0.2901315906,
				"y": -2.9411116375,
				"z": -4.5674567146,
				"element": "H" 
			},
			{
				"x": -1.0059516658,
				"y": -1.762885611,
				"z": -2.5126967577,
				"element": "H" 
			},
			{
				"x": -1.9203905972,
				"y": -0.9066998855,
				"z": 2.6327963214,
				"element": "H" 
			},
			{
				"x": 0.0305324407,
				"y": -2.3628054287,
				"z": 3.0745910892,
				"element": "H" 
			},
			{
				"x": 1.7688683959,
				"y": -1.1390338126,
				"z": -0.6537125248,
				"element": "H" 
			}
		],
		 "valence_orbital": [ 
			{
				"type": "occ",
				"energy": -0.26432,
				"method": "rhf"
			},
			{
				"type": "occ",
				"energy": -0.26153,
				"method": "rhf"
			},
			{
				"type": "occ",
				"energy": -0.25353,
				"method": "rhf"
			},
			{
				"type": "occ",
				"energy": -0.24899,
				"method": "rhf"
			},
			{
				"type": "occ",
				"energy": -0.24701,
				"method": "rhf"
			},
			{
				"type": "unocc",
				"energy": -0.07155,
				"method": "rhf"
			},
			{
				"type": "unocc",
				"energy": -0.04867,
				"method": "rhf"
			},
			{
				"type": "unocc",
				"energy": -0.03619,
				"method": "rhf"
			},
			{
				"type": "unocc",
				"energy": -0.02176,
				"method": "rhf"
			},
			{
				"type": "unocc",
				"energy": 0.00419,
				"method": "rhf"
			}
		],
		"cosmo_sigma_profile": { 
			"-0.025": 0.0,
			"-0.024": 0.0,
			"-0.023": 0.0,
			"-0.022": 0.0,
			"-0.021": 0.0,
			"-0.02": 0.0,
			"-0.019": 0.0,
			"-0.018": 0.0,
			"-0.017": 0.0,
			"-0.016": 0.0,
			"-0.015": 0.0,
			"-0.014": 0.0,
			"-0.013": 0.0,
			"-0.012": 0.0,
			"-0.011": 0.0,
			"-0.01": 0.421497139575,
			"-0.009": 3.00867069728,
			"-0.008": 5.74009638515,
			"-0.007": 16.4549894096,
			"-0.006": 23.8024416344,
			"-0.005": 26.359108057,
			"-0.004": 23.4205472879,
			"-0.003": 24.227811943,
			"-0.002": 25.2684222738,
			"-0.001": 24.646362812,
			"0.0": 27.2905837698,
			"0.001": 26.0078928097,
			"0.002": 22.5226591556,
			"0.003": 26.7313377235,
			"0.004": 23.0890638765,
			"0.005": 9.35731413318,
			"0.006": 3.60121010832,
			"0.007": 2.94571492135,
			"0.008": 4.06379268121,
			"0.009": 2.98922007322,
			"0.01": 3.43445506673,
			"0.011": 2.57960440624,
			"0.012": 3.93471687113,
			"0.013": 4.22693668896,
			"0.014": 3.19877427627,
			"0.015": 3.4926018935,
			"0.016": 2.01660331735,
			"0.017": 1.1077628418,
			"0.018": 0.0,
			"0.019": 0.0,
			"0.02": 0.0,
			"0.021": 0.0,
			"0.022": 0.0,
			"0.023": 0.0,
			"0.024": 0.0,
			"0.025": 0.0
		}
	}
}
