{
	 "smiles": "CC1=C(C)C(C(N)=S)=C(N=N1)N1CCCC1", 
	 "Tm": 443.15, 
	 "num_atms": 32, 
	 "gaussian": { 
		 "optdone": 1, 
		 "sigma_profile": "yes", 
		 "theory": "DFT", 
		 "functional": "B3LYP", 
		 "basiset": "6-31G**", 
		 "properties": { 
			 "R2extent": 4233.6597, 
			 "electric_dipole_moment_norm": 3.36903544208, 
			 "electric_quadrupole_moment_norm": 25.0054987795, 
			 "total_energy": -1045.98670142, 
			 "HOMO_LUMO_gap": 0.1442, 
			 "cosmo_polarized_energy": -18.87, 
			 "cosmo_cavitation_energy": 34.56, 
			 "cosmo_dispersion_energy": -25.18, 
			 "cosmo_repulsion_energy": 1.94, 
			 "cosmo_total_nonelectrostatic_energy": 11.31, 
			 "SMD_solvation_energy": 2.28 
		},
		"coords": [
			{
				"x": -2.4618977413,
				"y": 3.1830867782,
				"z": 0.3570110169,
				"element": "C" 
			},
			{
				"x": -1.7489133325,
				"y": 1.8823881335,
				"z": 0.0863838609,
				"element": "C" 
			},
			{
				"x": -0.4872625459,
				"y": 1.8220606135,
				"z": -0.557312235,
				"element": "C" 
			},
			{
				"x": 0.1435780339,
				"y": 3.0914884025,
				"z": -1.0713605293,
				"element": "C" 
			},
			{
				"x": 0.0879706668,
				"y": 0.560284115,
				"z": -0.7193702751,
				"element": "C" 
			},
			{
				"x": 1.3507819332,
				"y": 0.3813829442,
				"z": -1.5056848819,
				"element": "C" 
			},
			{
				"x": 1.1875435351,
				"y": -0.3448120089,
				"z": -2.6298615031,
				"element": "N" 
			},
			{
				"x": 2.8284686637,
				"y": 1.016515325,
				"z": -1.0667237974,
				"element": "S" 
			},
			{
				"x": -0.6318600351,
				"y": -0.5597290146,
				"z": -0.1935186424,
				"element": "C" 
			},
			{
				"x": -1.8621767068,
				"y": -0.4145034939,
				"z": 0.3311173856,
				"element": "N" 
			},
			{
				"x": -2.4082875962,
				"y": 0.7856051306,
				"z": 0.4619270242,
				"element": "N" 
			},
			{
				"x": -0.1665800572,
				"y": -1.8611474171,
				"z": -0.2280964258,
				"element": "N" 
			},
			{
				"x": -1.0530389201,
				"y": -2.9386829294,
				"z": 0.2618014476,
				"element": "C" 
			},
			{
				"x": -0.1357486863,
				"y": -4.1628843657,
				"z": 0.2966219839,
				"element": "C" 
			},
			{
				"x": 1.2059335515,
				"y": -3.5561169441,
				"z": 0.73044588,
				"element": "C" 
			},
			{
				"x": 1.2556566969,
				"y": -2.2314984945,
				"z": -0.046828125,
				"element": "C" 
			},
			{
				"x": -1.8424204157,
				"y": 3.8739230175,
				"z": 0.9399076721,
				"element": "H" 
			},
			{
				"x": -3.3735576144,
				"y": 2.9682585408,
				"z": 0.9167185389,
				"element": "H" 
			},
			{
				"x": -2.7410616669,
				"y": 3.7016251683,
				"z": -0.5684015288,
				"element": "H" 
			},
			{
				"x": -0.6216046887,
				"y": 3.7974966047,
				"z": -1.4028258312,
				"element": "H" 
			},
			{
				"x": 0.7213660114,
				"y": 3.5791867249,
				"z": -0.2775607476,
				"element": "H" 
			},
			{
				"x": 0.8331040851,
				"y": 2.9096935898,
				"z": -1.8954463177,
				"element": "H" 
			},
			{
				"x": 0.3060292982,
				"y": -0.7919777743,
				"z": -2.839668832,
				"element": "H" 
			},
			{
				"x": 1.9971983029,
				"y": -0.5582385384,
				"z": -3.1957383354,
				"element": "H" 
			},
			{
				"x": -1.4395579806,
				"y": -2.6987587539,
				"z": 1.2598137776,
				"element": "H" 
			},
			{
				"x": -1.9195546868,
				"y": -3.0491626028,
				"z": -0.3960705909,
				"element": "H" 
			},
			{
				"x": -0.0482311883,
				"y": -4.6084970546,
				"z": -0.7015490832,
				"element": "H" 
			},
			{
				"x": -0.5038929326,
				"y": -4.9343704141,
				"z": 0.9781073978,
				"element": "H" 
			},
			{
				"x": 2.0685200724,
				"y": -4.1924047845,
				"z": 0.5142576815,
				"element": "H" 
			},
			{
				"x": 1.1950697426,
				"y": -3.3600366908,
				"z": 1.8085543967,
				"element": "H" 
			},
			{
				"x": 1.7474366006,
				"y": -2.3728326972,
				"z": -1.017239987,
				"element": "H" 
			},
			{
				"x": 1.8011896011,
				"y": -1.4485411096,
				"z": 0.4857896052,
				"element": "H" 
			}
		],
		 "valence_orbital": [ 
			{
				"type": "occ",
				"energy": -0.27954,
				"method": "rhf"
			},
			{
				"type": "occ",
				"energy": -0.24078,
				"method": "rhf"
			},
			{
				"type": "occ",
				"energy": -0.22353,
				"method": "rhf"
			},
			{
				"type": "occ",
				"energy": -0.21758,
				"method": "rhf"
			},
			{
				"type": "occ",
				"energy": -0.20381,
				"method": "rhf"
			},
			{
				"type": "unocc",
				"energy": -0.05961,
				"method": "rhf"
			},
			{
				"type": "unocc",
				"energy": -0.02462,
				"method": "rhf"
			},
			{
				"type": "unocc",
				"energy": -0.00133,
				"method": "rhf"
			},
			{
				"type": "unocc",
				"energy": 0.06154,
				"method": "rhf"
			},
			{
				"type": "unocc",
				"energy": 0.08609,
				"method": "rhf"
			}
		],
		"cosmo_sigma_profile": { 
			"-0.025": 0.0,
			"-0.024": 0.0,
			"-0.023": 0.0,
			"-0.022": 0.0,
			"-0.021": 0.0,
			"-0.02": 0.0,
			"-0.019": 0.0,
			"-0.018": 0.0,
			"-0.017": 0.0,
			"-0.016": 0.32850191129,
			"-0.015": 2.31987704627,
			"-0.014": 2.15055228182,
			"-0.013": 2.52274957963,
			"-0.012": 2.09243384826,
			"-0.011": 1.73036172364,
			"-0.01": 1.89045281497,
			"-0.009": 2.04064297572,
			"-0.008": 1.18296253629,
			"-0.007": 1.48559294454,
			"-0.006": 2.7770202905,
			"-0.005": 8.06189261273,
			"-0.004": 21.8188621306,
			"-0.003": 35.1574064765,
			"-0.002": 36.5713566663,
			"-0.001": 34.3409560264,
			"0.0": 27.6219748771,
			"0.001": 13.2803030542,
			"0.002": 7.99127844319,
			"0.003": 8.19368141448,
			"0.004": 6.47254493819,
			"0.005": 6.8386435782,
			"0.006": 6.05831487213,
			"0.007": 8.46982663816,
			"0.008": 7.10862761435,
			"0.009": 4.92382131383,
			"0.01": 4.82719509966,
			"0.011": 4.51191705527,
			"0.012": 2.89366986085,
			"0.013": 2.13815446326,
			"0.014": 2.20374999104,
			"0.015": 2.39878090887,
			"0.016": 1.09012046831,
			"0.017": 0.382602983483,
			"0.018": 0.0,
			"0.019": 0.0,
			"0.02": 0.0,
			"0.021": 0.0,
			"0.022": 0.0,
			"0.023": 0.0,
			"0.024": 0.0,
			"0.025": 0.0
		}
	}
}
