{
	 "smiles": "OC(=O)C1=C(OC2=C(Cl)C=C(Cl)C=C2)C=CC=C1", 
	 "Tm": 435.15, 
	 "num_atms": 26, 
	 "gaussian": { 
		 "optdone": 1, 
		 "sigma_profile": "yes", 
		 "theory": "DFT", 
		 "functional": "B3LYP", 
		 "basiset": "6-31G**", 
		 "properties": { 
			 "R2extent": 6882.8917, 
			 "electric_dipole_moment_norm": 4.7616321792, 
			 "electric_quadrupole_moment_norm": 9.13093385476, 
			 "total_energy": -1646.26052376, 
			 "HOMO_LUMO_gap": 0.16634, 
			 "cosmo_polarized_energy": -13.32, 
			 "cosmo_cavitation_energy": 35.17, 
			 "cosmo_dispersion_energy": -24.95, 
			 "cosmo_repulsion_energy": 1.95, 
			 "cosmo_total_nonelectrostatic_energy": 12.18, 
			 "SMD_solvation_energy": 6.76 
		},
		"coords": [
			{
				"x": -2.283112305,
				"y": -3.2579737156,
				"z": 1.1876968448,
				"element": "O" 
			},
			{
				"x": -1.1865142618,
				"y": -2.5354974074,
				"z": 0.8372519762,
				"element": "C" 
			},
			{
				"x": -0.2475270185,
				"y": -3.0399747282,
				"z": 0.2587906647,
				"element": "O" 
			},
			{
				"x": -1.3093707309,
				"y": -1.1042305007,
				"z": 1.2327916401,
				"element": "C" 
			},
			{
				"x": -0.1970678225,
				"y": -0.23872809,
				"z": 1.2173012518,
				"element": "C" 
			},
			{
				"x": 1.0772947314,
				"y": -0.7008236087,
				"z": 0.9593577151,
				"element": "O" 
			},
			{
				"x": 1.567646218,
				"y": -0.7187827715,
				"z": -0.3181230944,
				"element": "C" 
			},
			{
				"x": 2.8747272264,
				"y": -1.2011874731,
				"z": -0.4890924027,
				"element": "C" 
			},
			{
				"x": 3.7834883766,
				"y": -1.7598881559,
				"z": 0.8945605343,
				"element": "Cl" 
			},
			{
				"x": 3.4600756231,
				"y": -1.2384241018,
				"z": -1.7517433619,
				"element": "C" 
			},
			{
				"x": 2.7332650397,
				"y": -0.787446934,
				"z": -2.8526057073,
				"element": "C" 
			},
			{
				"x": 3.4721196822,
				"y": -0.832356418,
				"z": -4.4465844153,
				"element": "Cl" 
			},
			{
				"x": 1.4366060053,
				"y": -0.3036630651,
				"z": -2.7031344524,
				"element": "C" 
			},
			{
				"x": 0.8593273965,
				"y": -0.2705885444,
				"z": -1.4345681451,
				"element": "C" 
			},
			{
				"x": -0.3340270872,
				"y": 1.1004623173,
				"z": 1.5836002784,
				"element": "C" 
			},
			{
				"x": -1.5791520781,
				"y": 1.5993757443,
				"z": 1.9617929125,
				"element": "C" 
			},
			{
				"x": -2.6922051033,
				"y": 0.7562941484,
				"z": 1.9841790726,
				"element": "C" 
			},
			{
				"x": -2.5523700469,
				"y": -0.5820052996,
				"z": 1.6291880212,
				"element": "C" 
			},
			{
				"x": -2.1116713244,
				"y": -4.1592944491,
				"z": 0.8685853495,
				"element": "H" 
			},
			{
				"x": 4.4688934495,
				"y": -1.6149391902,
				"z": -1.8678043575,
				"element": "H" 
			},
			{
				"x": 0.879895325,
				"y": 0.0434622175,
				"z": -3.5660036089,
				"element": "H" 
			},
			{
				"x": -0.1506502808,
				"y": 0.1030904907,
				"z": -1.3117665498,
				"element": "H" 
			},
			{
				"x": 0.5498587333,
				"y": 1.7293977942,
				"z": 1.5787425562,
				"element": "H" 
			},
			{
				"x": -1.6762545235,
				"y": 2.6432020378,
				"z": 2.2449540426,
				"element": "H" 
			},
			{
				"x": -3.6631874569,
				"y": 1.1383209926,
				"z": 2.2828084972,
				"element": "H" 
			},
			{
				"x": -3.4080877671,
				"y": -1.2461012898,
				"z": 1.6521247383,
				"element": "H" 
			}
		],
		 "valence_orbital": [ 
			{
				"type": "occ",
				"energy": -0.28247,
				"method": "rhf"
			},
			{
				"type": "occ",
				"energy": -0.27713,
				"method": "rhf"
			},
			{
				"type": "occ",
				"energy": -0.26612,
				"method": "rhf"
			},
			{
				"type": "occ",
				"energy": -0.25683,
				"method": "rhf"
			},
			{
				"type": "occ",
				"energy": -0.2271,
				"method": "rhf"
			},
			{
				"type": "unocc",
				"energy": -0.06076,
				"method": "rhf"
			},
			{
				"type": "unocc",
				"energy": -0.02598,
				"method": "rhf"
			},
			{
				"type": "unocc",
				"energy": -0.01876,
				"method": "rhf"
			},
			{
				"type": "unocc",
				"energy": -0.00563,
				"method": "rhf"
			},
			{
				"type": "unocc",
				"energy": 0.01396,
				"method": "rhf"
			}
		],
		"cosmo_sigma_profile": { 
			"-0.025": 0.0,
			"-0.024": 0.0,
			"-0.023": 0.0,
			"-0.022": 0.0,
			"-0.021": 0.0,
			"-0.02": 0.0,
			"-0.019": 0.0569319898792,
			"-0.018": 0.787191600958,
			"-0.017": 0.979296840766,
			"-0.016": 0.833139997099,
			"-0.015": 0.598340233205,
			"-0.014": 0.448175406221,
			"-0.013": 0.786233891665,
			"-0.012": 0.998104537273,
			"-0.011": 0.900164993672,
			"-0.01": 0.752348998091,
			"-0.009": 0.580436386566,
			"-0.008": 4.05456428039,
			"-0.007": 12.0727571558,
			"-0.006": 14.7232123299,
			"-0.005": 14.3727242256,
			"-0.004": 12.2144255354,
			"-0.003": 15.7418140985,
			"-0.002": 17.6259140691,
			"-0.001": 18.0984351546,
			"0.0": 24.0937302626,
			"0.001": 30.3704425763,
			"0.002": 32.3627575921,
			"0.003": 24.3665683003,
			"0.004": 21.6760965045,
			"0.005": 12.2095617917,
			"0.006": 5.17082758933,
			"0.007": 4.58328302987,
			"0.008": 5.41089405074,
			"0.009": 4.2075551983,
			"0.01": 2.6225814839,
			"0.011": 2.36180516728,
			"0.012": 1.60020268857,
			"0.013": 0.0169217347097,
			"0.014": 0.0,
			"0.015": 0.0,
			"0.016": 0.0,
			"0.017": 0.0,
			"0.018": 0.0,
			"0.019": 0.0,
			"0.02": 0.0,
			"0.021": 0.0,
			"0.022": 0.0,
			"0.023": 0.0,
			"0.024": 0.0,
			"0.025": 0.0
		}
	}
}
