{
	 "smiles": "CCC(=O)NC1=CC=CC=C1", 
	 "Tm": 379.15, 
	 "num_atms": 22, 
	 "gaussian": { 
		 "optdone": 1, 
		 "sigma_profile": "yes", 
		 "theory": "DFT", 
		 "functional": "B3LYP", 
		 "basiset": "6-31G**", 
		 "properties": { 
			 "R2extent": 2717.1473, 
			 "electric_dipole_moment_norm": 3.20905528466, 
			 "electric_quadrupole_moment_norm": 8.50686981798, 
			 "total_energy": -479.588684726, 
			 "HOMO_LUMO_gap": 0.20867, 
			 "cosmo_polarized_energy": -11.71, 
			 "cosmo_cavitation_energy": 25.44, 
			 "cosmo_dispersion_energy": -18.96, 
			 "cosmo_repulsion_energy": 1.53, 
			 "cosmo_total_nonelectrostatic_energy": 8.02, 
			 "SMD_solvation_energy": 4.91 
		},
		"coords": [
			{
				"x": 2.0942614865,
				"y": -2.5626949758,
				"z": -2.4706305716,
				"element": "C" 
			},
			{
				"x": 2.5510299627,
				"y": -1.2577995188,
				"z": -1.817475643,
				"element": "C" 
			},
			{
				"x": 1.601094057,
				"y": -0.8077476036,
				"z": -0.7044392413,
				"element": "C" 
			},
			{
				"x": 0.9275576532,
				"y": -1.6023966813,
				"z": -0.0630762585,
				"element": "O" 
			},
			{
				"x": 1.6072662829,
				"y": 0.5529815635,
				"z": -0.4834416983,
				"element": "N" 
			},
			{
				"x": 0.9182300967,
				"y": 1.3023006671,
				"z": 0.4948015285,
				"element": "C" 
			},
			{
				"x": 0.0471593422,
				"y": 0.7276195985,
				"z": 1.4337652536,
				"element": "C" 
			},
			{
				"x": -0.5908714978,
				"y": 1.5484946113,
				"z": 2.3642549779,
				"element": "C" 
			},
			{
				"x": -0.381703039,
				"y": 2.9280896643,
				"z": 2.379989255,
				"element": "C" 
			},
			{
				"x": 0.4848615326,
				"y": 3.4948852717,
				"z": 1.443428014,
				"element": "C" 
			},
			{
				"x": 1.1301169319,
				"y": 2.6905983509,
				"z": 0.5082755089,
				"element": "C" 
			},
			{
				"x": 1.1510074688,
				"y": -2.4251910854,
				"z": -3.0077932261,
				"element": "H" 
			},
			{
				"x": 1.9317003857,
				"y": -3.3273633854,
				"z": -1.7083645422,
				"element": "H" 
			},
			{
				"x": 2.8436502978,
				"y": -2.9227247117,
				"z": -3.1813399472,
				"element": "H" 
			},
			{
				"x": 3.5407279477,
				"y": -1.3953297229,
				"z": -1.3600204752,
				"element": "H" 
			},
			{
				"x": 2.6664568144,
				"y": -0.4645975279,
				"z": -2.5669292222,
				"element": "H" 
			},
			{
				"x": 2.202626365,
				"y": 1.096272676,
				"z": -1.0921235816,
				"element": "H" 
			},
			{
				"x": -0.1155254353,
				"y": -0.3404764654,
				"z": 1.4205945044,
				"element": "H" 
			},
			{
				"x": -1.2630508115,
				"y": 1.0946936061,
				"z": 3.0872063858,
				"element": "H" 
			},
			{
				"x": -0.8860820644,
				"y": 3.5533768941,
				"z": 3.1102860043,
				"element": "H" 
			},
			{
				"x": 0.6618728809,
				"y": 4.5666134413,
				"z": 1.4379096296,
				"element": "H" 
			},
			{
				"x": 1.8045133423,
				"y": 3.1393953333,
				"z": -0.2183766546,
				"element": "H" 
			}
		],
		 "valence_orbital": [ 
			{
				"type": "occ",
				"energy": -0.34272,
				"method": "rhf"
			},
			{
				"type": "occ",
				"energy": -0.30426,
				"method": "rhf"
			},
			{
				"type": "occ",
				"energy": -0.25188,
				"method": "rhf"
			},
			{
				"type": "occ",
				"energy": -0.24881,
				"method": "rhf"
			},
			{
				"type": "occ",
				"energy": -0.21825,
				"method": "rhf"
			},
			{
				"type": "unocc",
				"energy": -0.00958,
				"method": "rhf"
			},
			{
				"type": "unocc",
				"energy": 0.00089,
				"method": "rhf"
			},
			{
				"type": "unocc",
				"energy": 0.04515,
				"method": "rhf"
			},
			{
				"type": "unocc",
				"energy": 0.0662,
				"method": "rhf"
			},
			{
				"type": "unocc",
				"energy": 0.09794,
				"method": "rhf"
			}
		],
		"cosmo_sigma_profile": { 
			"-0.025": 0.0,
			"-0.024": 0.0,
			"-0.023": 0.0,
			"-0.022": 0.0,
			"-0.021": 0.0,
			"-0.02": 0.0,
			"-0.019": 0.0,
			"-0.018": 0.0,
			"-0.017": 0.0,
			"-0.016": 0.0,
			"-0.015": 0.523275461853,
			"-0.014": 1.30108654491,
			"-0.013": 1.41392275862,
			"-0.012": 1.87351676563,
			"-0.011": 0.936807241972,
			"-0.01": 1.78361702202,
			"-0.009": 1.83430530978,
			"-0.008": 1.7668394546,
			"-0.007": 1.92989865949,
			"-0.006": 6.24812492908,
			"-0.005": 13.4377921516,
			"-0.004": 14.3563254837,
			"-0.003": 19.3304287828,
			"-0.002": 16.6265227096,
			"-0.001": 16.8740639529,
			"0.0": 13.7435846104,
			"0.001": 15.3739475282,
			"0.002": 10.2897300401,
			"0.003": 12.1217287645,
			"0.004": 12.3684676784,
			"0.005": 11.1477100866,
			"0.006": 9.96831761917,
			"0.007": 3.2686882697,
			"0.008": 1.55996054824,
			"0.009": 1.01823760501,
			"0.01": 2.18750458532,
			"0.011": 2.17497633804,
			"0.012": 2.2027859598,
			"0.013": 3.3378615945,
			"0.014": 0.740779718484,
			"0.015": 0.0,
			"0.016": 0.0,
			"0.017": 0.0,
			"0.018": 0.0,
			"0.019": 0.0,
			"0.02": 0.0,
			"0.021": 0.0,
			"0.022": 0.0,
			"0.023": 0.0,
			"0.024": 0.0,
			"0.025": 0.0
		}
	}
}
