{
	 "smiles": "FC(F)(F)C1=NC2=C(NC(=O)C1=NNC1=CC(=NN1)C1=CC=CC=C1)C=CC=C2", 
	 "Tm": 432.15, 
	 "num_atms": 42, 
	 "gaussian": { 
		 "optdone": 1, 
		 "sigma_profile": "yes", 
		 "theory": "DFT", 
		 "functional": "B3LYP", 
		 "basiset": "6-31G**", 
		 "properties": { 
			 "R2extent": 11378.0475, 
			 "electric_dipole_moment_norm": 4.26050908695, 
			 "electric_quadrupole_moment_norm": 20.8925453337, 
			 "total_energy": -1435.03763937, 
			 "HOMO_LUMO_gap": 0.14739, 
			 "cosmo_polarized_energy": -23.27, 
			 "cosmo_cavitation_energy": 48.86, 
			 "cosmo_dispersion_energy": -31.56, 
			 "cosmo_repulsion_energy": 2.3, 
			 "cosmo_total_nonelectrostatic_energy": 19.59, 
			 "SMD_solvation_energy": 6.74 
		},
		"coords": [
			{
				"x": -2.5723303356,
				"y": -4.2446993216,
				"z": 1.3406820816,
				"element": "F" 
			},
			{
				"x": -1.4713768297,
				"y": -3.5603295331,
				"z": 0.9717254279,
				"element": "C" 
			},
			{
				"x": -0.418579129,
				"y": -4.1503173522,
				"z": 1.5995042349,
				"element": "F" 
			},
			{
				"x": -1.2989398567,
				"y": -3.7168415675,
				"z": -0.343759197,
				"element": "F" 
			},
			{
				"x": -1.6208404774,
				"y": -2.0927644522,
				"z": 1.3747535763,
				"element": "C" 
			},
			{
				"x": -2.2184032265,
				"y": -1.3482878609,
				"z": 0.5260012751,
				"element": "N" 
			},
			{
				"x": -2.6259003416,
				"y": -0.0496243131,
				"z": 0.8299309805,
				"element": "C" 
			},
			{
				"x": -3.1905249295,
				"y": 0.3298042584,
				"z": 2.0745537972,
				"element": "C" 
			},
			{
				"x": -3.3604331067,
				"y": -0.5763163287,
				"z": 3.1407959588,
				"element": "N" 
			},
			{
				"x": -2.4306283608,
				"y": -1.4549300152,
				"z": 3.6878655584,
				"element": "C" 
			},
			{
				"x": -2.585422295,
				"y": -1.9411983231,
				"z": 4.7901091199,
				"element": "O" 
			},
			{
				"x": -1.2580759179,
				"y": -1.737850974,
				"z": 2.7805492797,
				"element": "C" 
			},
			{
				"x": -0.1091254993,
				"y": -1.6690239346,
				"z": 3.3554709378,
				"element": "N" 
			},
			{
				"x": 1.0644003783,
				"y": -1.8392760013,
				"z": 2.6898772362,
				"element": "N" 
			},
			{
				"x": 1.2685537405,
				"y": -1.4825823242,
				"z": 1.335358212,
				"element": "C" 
			},
			{
				"x": 1.3711374622,
				"y": -0.251416923,
				"z": 0.7138614932,
				"element": "C" 
			},
			{
				"x": 1.6421241629,
				"y": -0.5499622615,
				"z": -0.6468155692,
				"element": "C" 
			},
			{
				"x": 1.7110424204,
				"y": -1.8780536339,
				"z": -0.8371540608,
				"element": "N" 
			},
			{
				"x": 1.4914417775,
				"y": -2.4173897819,
				"z": 0.3675996778,
				"element": "N" 
			},
			{
				"x": 1.8378453602,
				"y": 0.3801939154,
				"z": -1.7723105726,
				"element": "C" 
			},
			{
				"x": 2.1789185587,
				"y": -0.1086018585,
				"z": -3.044800932,
				"element": "C" 
			},
			{
				"x": 2.3636405113,
				"y": 0.7658691832,
				"z": -4.1124541707,
				"element": "C" 
			},
			{
				"x": 2.2127815413,
				"y": 2.1434951452,
				"z": -3.9323272016,
				"element": "C" 
			},
			{
				"x": 1.8727857446,
				"y": 2.6386414568,
				"z": -2.6724949333,
				"element": "C" 
			},
			{
				"x": 1.6858236798,
				"y": 1.7649896294,
				"z": -1.6018303365,
				"element": "C" 
			},
			{
				"x": -3.6917518617,
				"y": 1.6331751765,
				"z": 2.2234232663,
				"element": "C" 
			},
			{
				"x": -3.6145399719,
				"y": 2.5552061896,
				"z": 1.1869995636,
				"element": "C" 
			},
			{
				"x": -3.0411518719,
				"y": 2.1890767272,
				"z": -0.0367263973,
				"element": "C" 
			},
			{
				"x": -2.575957383,
				"y": 0.8942575114,
				"z": -0.2128503323,
				"element": "C" 
			},
			{
				"x": -4.0900492741,
				"y": -0.3469807018,
				"z": 3.8062150633,
				"element": "H" 
			},
			{
				"x": 1.8247964654,
				"y": -1.5817514704,
				"z": 3.3059827021,
				"element": "H" 
			},
			{
				"x": 1.2629482009,
				"y": 0.7130185819,
				"z": 1.1855604251,
				"element": "H" 
			},
			{
				"x": 1.4371200384,
				"y": -3.4191997301,
				"z": 0.4785601445,
				"element": "H" 
			},
			{
				"x": 2.2953290275,
				"y": -1.1783984533,
				"z": -3.1801934099,
				"element": "H" 
			},
			{
				"x": 2.6275611859,
				"y": 0.3711514285,
				"z": -5.0895903749,
				"element": "H" 
			},
			{
				"x": 2.3586272969,
				"y": 2.8239469994,
				"z": -4.7662658823,
				"element": "H" 
			},
			{
				"x": 1.7516665131,
				"y": 3.7075935983,
				"z": -2.5210745383,
				"element": "H" 
			},
			{
				"x": 1.4156904434,
				"y": 2.1655606371,
				"z": -0.62926133,
				"element": "H" 
			},
			{
				"x": -4.1339423945,
				"y": 1.9170134991,
				"z": 3.1748451464,
				"element": "H" 
			},
			{
				"x": -4.0033323329,
				"y": 3.558356137,
				"z": 1.3326641999,
				"element": "H" 
			},
			{
				"x": -2.9792166782,
				"y": 2.9042409228,
				"z": -0.8506278514,
				"element": "H" 
			},
			{
				"x": -2.1589124352,
				"y": 0.568206119,
				"z": -1.1597522684,
				"element": "H" 
			}
		],
		 "valence_orbital": [ 
			{
				"type": "occ",
				"energy": -0.26116,
				"method": "rhf"
			},
			{
				"type": "occ",
				"energy": -0.25081,
				"method": "rhf"
			},
			{
				"type": "occ",
				"energy": -0.24427,
				"method": "rhf"
			},
			{
				"type": "occ",
				"energy": -0.23523,
				"method": "rhf"
			},
			{
				"type": "occ",
				"energy": -0.22525,
				"method": "rhf"
			},
			{
				"type": "unocc",
				"energy": -0.07786,
				"method": "rhf"
			},
			{
				"type": "unocc",
				"energy": -0.04122,
				"method": "rhf"
			},
			{
				"type": "unocc",
				"energy": -0.02717,
				"method": "rhf"
			},
			{
				"type": "unocc",
				"energy": -0.02229,
				"method": "rhf"
			},
			{
				"type": "unocc",
				"energy": -0.00585,
				"method": "rhf"
			}
		],
		"cosmo_sigma_profile": { 
			"-0.025": 0.0,
			"-0.024": 0.0,
			"-0.023": 0.0,
			"-0.022": 0.0,
			"-0.021": 0.0,
			"-0.02": 0.0,
			"-0.019": 0.0,
			"-0.018": 0.0,
			"-0.017": 0.000316760638802,
			"-0.016": 1.21568134785,
			"-0.015": 3.16072817692,
			"-0.014": 2.97857621796,
			"-0.013": 2.91397683919,
			"-0.012": 3.27096319111,
			"-0.011": 3.30576870047,
			"-0.01": 2.66169008896,
			"-0.009": 3.83422359158,
			"-0.008": 5.44726755619,
			"-0.007": 8.66314819526,
			"-0.006": 17.4867089381,
			"-0.005": 22.67681071,
			"-0.004": 22.3923660127,
			"-0.003": 22.229188131,
			"-0.002": 22.0454162588,
			"-0.001": 21.6693722656,
			"0.0": 23.5988638447,
			"0.001": 34.9067235388,
			"0.002": 48.5375314858,
			"0.003": 33.2880240423,
			"0.004": 26.0061598008,
			"0.005": 16.403948072,
			"0.006": 9.92050103639,
			"0.007": 4.71384093155,
			"0.008": 3.98513108906,
			"0.009": 3.85773296125,
			"0.01": 5.17293520789,
			"0.011": 5.89044419711,
			"0.012": 7.25073745189,
			"0.013": 3.43356115891,
			"0.014": 0.171134175351,
			"0.015": 0.0,
			"0.016": 0.0,
			"0.017": 0.0,
			"0.018": 0.0,
			"0.019": 0.0,
			"0.02": 0.0,
			"0.021": 0.0,
			"0.022": 0.0,
			"0.023": 0.0,
			"0.024": 0.0,
			"0.025": 0.0
		}
	}
}
