{
	 "smiles": "O=CC1=C(CCCC1)SC1=CC=CC=C1", 
	 "Tm": 316.15, 
	 "num_atms": 29, 
	 "gaussian": { 
		 "optdone": 1, 
		 "sigma_profile": "yes", 
		 "theory": "DFT", 
		 "functional": "B3LYP", 
		 "basiset": "6-31G**", 
		 "properties": { 
			 "R2extent": 4892.9867, 
			 "electric_dipole_moment_norm": 4.62424833892, 
			 "electric_quadrupole_moment_norm": 17.0342989181, 
			 "total_energy": -977.218802032, 
			 "HOMO_LUMO_gap": 0.1637, 
			 "cosmo_polarized_energy": -8.65, 
			 "cosmo_cavitation_energy": 32.91, 
			 "cosmo_dispersion_energy": -23.73, 
			 "cosmo_repulsion_energy": 1.83, 
			 "cosmo_total_nonelectrostatic_energy": 11.01, 
			 "SMD_solvation_energy": 5.57 
		},
		"coords": [
			{
				"x": -3.6259011393,
				"y": -2.0774779952,
				"z": 1.3819636467,
				"element": "O" 
			},
			{
				"x": -2.8269008843,
				"y": -1.1625205093,
				"z": 1.5051752766,
				"element": "C" 
			},
			{
				"x": -1.4676508142,
				"y": -1.2004618692,
				"z": 0.9210631228,
				"element": "C" 
			},
			{
				"x": -0.5399726178,
				"y": -0.2353743461,
				"z": 1.1520891536,
				"element": "C" 
			},
			{
				"x": 0.8168148674,
				"y": -0.2317990696,
				"z": 0.4813320026,
				"element": "C" 
			},
			{
				"x": 0.9017375654,
				"y": -1.1991037764,
				"z": -0.7069815891,
				"element": "C" 
			},
			{
				"x": 0.2875181569,
				"y": -2.5521696443,
				"z": -0.3366308458,
				"element": "C" 
			},
			{
				"x": -1.1936252885,
				"y": -2.3837433557,
				"z": 0.0133240216,
				"element": "C" 
			},
			{
				"x": -0.7926237137,
				"y": 0.9866271905,
				"z": 2.4415917615,
				"element": "S" 
			},
			{
				"x": -0.3197358088,
				"y": 2.5269860992,
				"z": 1.6504924208,
				"element": "C" 
			},
			{
				"x": -0.8393031324,
				"y": 2.902257728,
				"z": 0.4036689238,
				"element": "C" 
			},
			{
				"x": -0.4944434584,
				"y": 4.134737814,
				"z": -0.150556935,
				"element": "C" 
			},
			{
				"x": 0.3434274088,
				"y": 5.0108834097,
				"z": 0.5439892596,
				"element": "C" 
			},
			{
				"x": 0.8461368701,
				"y": 4.6439294689,
				"z": 1.793254668,
				"element": "C" 
			},
			{
				"x": 0.5265781461,
				"y": 3.4013923606,
				"z": 2.3435276217,
				"element": "C" 
			},
			{
				"x": -3.1018188851,
				"y": -0.2360540449,
				"z": 2.0430292901,
				"element": "H" 
			},
			{
				"x": 1.0655407137,
				"y": 0.7878399302,
				"z": 0.168594874,
				"element": "H" 
			},
			{
				"x": 1.5647458883,
				"y": -0.4982885419,
				"z": 1.2419892605,
				"element": "H" 
			},
			{
				"x": 0.3632538467,
				"y": -0.7764942917,
				"z": -1.565538393,
				"element": "H" 
			},
			{
				"x": 1.9481585069,
				"y": -1.308067478,
				"z": -1.0127322411,
				"element": "H" 
			},
			{
				"x": 0.3984946528,
				"y": -3.2702064905,
				"z": -1.1563646259,
				"element": "H" 
			},
			{
				"x": 0.8265835406,
				"y": -2.9696797204,
				"z": 0.5243016668,
				"element": "H" 
			},
			{
				"x": -1.600928692,
				"y": -3.2795540216,
				"z": 0.4941830094,
				"element": "H" 
			},
			{
				"x": -1.7868730769,
				"y": -2.2596362909,
				"z": -0.9038437923,
				"element": "H" 
			},
			{
				"x": -1.509330468,
				"y": 2.231562157,
				"z": -0.1256099447,
				"element": "H" 
			},
			{
				"x": -0.8938420675,
				"y": 4.4166774415,
				"z": -1.1206218667,
				"element": "H" 
			},
			{
				"x": 0.6013305856,
				"y": 5.9739785069,
				"z": 0.1137620519,
				"element": "H" 
			},
			{
				"x": 1.5002495169,
				"y": 5.3188362869,
				"z": 2.3377271997,
				"element": "H" 
			},
			{
				"x": 0.9342797806,
				"y": 3.1063230525,
				"z": 3.3055210018,
				"element": "H" 
			}
		],
		 "valence_orbital": [ 
			{
				"type": "occ",
				"energy": -0.29399,
				"method": "rhf"
			},
			{
				"type": "occ",
				"energy": -0.26419,
				"method": "rhf"
			},
			{
				"type": "occ",
				"energy": -0.26359,
				"method": "rhf"
			},
			{
				"type": "occ",
				"energy": -0.24646,
				"method": "rhf"
			},
			{
				"type": "occ",
				"energy": -0.22141,
				"method": "rhf"
			},
			{
				"type": "unocc",
				"energy": -0.05771,
				"method": "rhf"
			},
			{
				"type": "unocc",
				"energy": -0.02276,
				"method": "rhf"
			},
			{
				"type": "unocc",
				"energy": -0.01476,
				"method": "rhf"
			},
			{
				"type": "unocc",
				"energy": 0.02852,
				"method": "rhf"
			},
			{
				"type": "unocc",
				"energy": 0.06413,
				"method": "rhf"
			}
		],
		"cosmo_sigma_profile": { 
			"-0.025": 0.0,
			"-0.024": 0.0,
			"-0.023": 0.0,
			"-0.022": 0.0,
			"-0.021": 0.0,
			"-0.02": 0.0,
			"-0.019": 0.0,
			"-0.018": 0.0,
			"-0.017": 0.0,
			"-0.016": 0.0,
			"-0.015": 0.0,
			"-0.014": 0.0,
			"-0.013": 0.0,
			"-0.012": 0.0,
			"-0.011": 0.0,
			"-0.01": 0.0,
			"-0.009": 0.0,
			"-0.008": 0.0,
			"-0.007": 0.903125824672,
			"-0.006": 8.92061364632,
			"-0.005": 12.5064174127,
			"-0.004": 18.960633518,
			"-0.003": 31.3759203721,
			"-0.002": 38.2399992304,
			"-0.001": 33.6792702284,
			"0.0": 26.0569016759,
			"0.001": 17.0630621349,
			"0.002": 13.7850745154,
			"0.003": 14.0106415449,
			"0.004": 16.4773038658,
			"0.005": 9.57596798576,
			"0.006": 2.58592512637,
			"0.007": 2.64296897417,
			"0.008": 2.11292493227,
			"0.009": 1.17182682754,
			"0.01": 2.83423418985,
			"0.011": 2.90049812085,
			"0.012": 4.50521889484,
			"0.013": 1.82984364342,
			"0.014": 0.209259997484,
			"0.015": 0.0,
			"0.016": 0.0,
			"0.017": 0.0,
			"0.018": 0.0,
			"0.019": 0.0,
			"0.02": 0.0,
			"0.021": 0.0,
			"0.022": 0.0,
			"0.023": 0.0,
			"0.024": 0.0,
			"0.025": 0.0
		}
	}
}
