{
	 "smiles": "CC1=C(Cl)C=CC(O)=C1Cl", 
	 "Tm": 331.15, 
	 "num_atms": 16, 
	 "gaussian": { 
		 "optdone": 1, 
		 "sigma_profile": "yes", 
		 "theory": "DFT", 
		 "functional": "B3LYP", 
		 "basiset": "6-31G**", 
		 "properties": { 
			 "R2extent": 3375.2203, 
			 "electric_dipole_moment_norm": 0.888534191801, 
			 "electric_quadrupole_moment_norm": 5.87764968163, 
			 "total_energy": -1265.97328862, 
			 "HOMO_LUMO_gap": 0.2053, 
			 "cosmo_polarized_energy": -5.22, 
			 "cosmo_cavitation_energy": 22.88, 
			 "cosmo_dispersion_energy": -17.57, 
			 "cosmo_repulsion_energy": 1.41, 
			 "cosmo_total_nonelectrostatic_energy": 6.72, 
			 "SMD_solvation_energy": 3.84 
		},
		"coords": [
			{
				"x": -0.5968404845,
				"y": 2.6291282883,
				"z": 2.2046558181,
				"element": "C" 
			},
			{
				"x": -0.9819985317,
				"y": 1.2129205284,
				"z": 1.8642023034,
				"element": "C" 
			},
			{
				"x": -0.7798915847,
				"y": 0.1245020379,
				"z": 2.7272534974,
				"element": "C" 
			},
			{
				"x": -0.0399132174,
				"y": 0.3557165665,
				"z": 4.3119077305,
				"element": "Cl" 
			},
			{
				"x": -1.1497631921,
				"y": -1.1759535808,
				"z": 2.3780060636,
				"element": "C" 
			},
			{
				"x": -1.7370217338,
				"y": -1.4299610381,
				"z": 1.1469638001,
				"element": "C" 
			},
			{
				"x": -1.9613986684,
				"y": -0.3819158163,
				"z": 0.2489419472,
				"element": "C" 
			},
			{
				"x": -2.5369244162,
				"y": -0.6718827261,
				"z": -0.9419761089,
				"element": "O" 
			},
			{
				"x": -1.5791404527,
				"y": 0.9128373071,
				"z": 0.6283427809,
				"element": "C" 
			},
			{
				"x": -1.8808614085,
				"y": 2.2086759649,
				"z": -0.5361300707,
				"element": "Cl" 
			},
			{
				"x": 0.1163801415,
				"y": 3.0229211588,
				"z": 1.4731594992,
				"element": "H" 
			},
			{
				"x": -0.146075868,
				"y": 2.6890933364,
				"z": 3.1937782138,
				"element": "H" 
			},
			{
				"x": -1.4734176191,
				"y": 3.284902137,
				"z": 2.1819312082,
				"element": "H" 
			},
			{
				"x": -0.9743309494,
				"y": -1.9858602835,
				"z": 3.0766863653,
				"element": "H" 
			},
			{
				"x": -2.0311056569,
				"y": -2.4327559301,
				"z": 0.8576449872,
				"element": "H" 
			},
			{
				"x": -2.6288963581,
				"y": 0.1460320496,
				"z": -1.454568035,
				"element": "H" 
			}
		],
		 "valence_orbital": [ 
			{
				"type": "occ",
				"energy": -0.33778,
				"method": "rhf"
			},
			{
				"type": "occ",
				"energy": -0.31445,
				"method": "rhf"
			},
			{
				"type": "occ",
				"energy": -0.31342,
				"method": "rhf"
			},
			{
				"type": "occ",
				"energy": -0.25858,
				"method": "rhf"
			},
			{
				"type": "occ",
				"energy": -0.22886,
				"method": "rhf"
			},
			{
				"type": "unocc",
				"energy": -0.02356,
				"method": "rhf"
			},
			{
				"type": "unocc",
				"energy": -0.00619,
				"method": "rhf"
			},
			{
				"type": "unocc",
				"energy": 0.0011,
				"method": "rhf"
			},
			{
				"type": "unocc",
				"energy": 0.04715,
				"method": "rhf"
			},
			{
				"type": "unocc",
				"energy": 0.08442,
				"method": "rhf"
			}
		],
		"cosmo_sigma_profile": { 
			"-0.025": 0.0,
			"-0.024": 0.0,
			"-0.023": 0.0,
			"-0.022": 0.0,
			"-0.021": 0.0,
			"-0.02": 0.0,
			"-0.019": 0.0,
			"-0.018": 0.0,
			"-0.017": 0.0,
			"-0.016": 0.0,
			"-0.015": 0.535754849093,
			"-0.014": 0.739219597714,
			"-0.013": 0.519714850909,
			"-0.012": 0.324442850609,
			"-0.011": 1.16760031325,
			"-0.01": 1.07388385371,
			"-0.009": 0.995982603511,
			"-0.008": 1.38233240067,
			"-0.007": 4.19040703895,
			"-0.006": 4.97371406487,
			"-0.005": 7.42672500305,
			"-0.004": 8.805521742,
			"-0.003": 10.978551387,
			"-0.002": 14.4154392456,
			"-0.001": 18.6403599923,
			"0.0": 18.7639090422,
			"0.001": 19.6323133044,
			"0.002": 26.1807648192,
			"0.003": 18.3241467547,
			"0.004": 13.0539793609,
			"0.005": 7.14665575476,
			"0.006": 1.23708760974,
			"0.007": 1.46557792746,
			"0.008": 1.31328828489,
			"0.009": 1.73693349193,
			"0.01": 1.79288704766,
			"0.011": 0.443456698868,
			"0.012": 0.0,
			"0.013": 0.0,
			"0.014": 0.0,
			"0.015": 0.0,
			"0.016": 0.0,
			"0.017": 0.0,
			"0.018": 0.0,
			"0.019": 0.0,
			"0.02": 0.0,
			"0.021": 0.0,
			"0.022": 0.0,
			"0.023": 0.0,
			"0.024": 0.0,
			"0.025": 0.0
		}
	}
}
