{
	 "smiles": "CC1CC2=CC=C(C(=O)NC(CC3=CC=CC=C3)C(O)=O)C(O)=C2C(=O)O1", 
	 "Tm": 494.15, 
	 "num_atms": 46, 
	 "gaussian": { 
		 "optdone": 1, 
		 "sigma_profile": "yes", 
		 "theory": "DFT", 
		 "functional": "B3LYP", 
		 "basiset": "6-31G**", 
		 "properties": { 
			 "R2extent": 9564.074, 
			 "electric_dipole_moment_norm": 6.55712262353, 
			 "electric_quadrupole_moment_norm": 18.8492070791, 
			 "total_energy": -1279.73536574, 
			 "HOMO_LUMO_gap": 0.17249, 
			 "cosmo_polarized_energy": -25.75, 
			 "cosmo_cavitation_energy": 49.76, 
			 "cosmo_dispersion_energy": -31.64, 
			 "cosmo_repulsion_energy": 2.43, 
			 "cosmo_total_nonelectrostatic_energy": 20.55, 
			 "SMD_solvation_energy": 10.64 
		},
		"coords": [
			{
				"x": 3.978652896,
				"y": 1.944053251,
				"z": -1.0614797674,
				"element": "C" 
			},
			{
				"x": 3.513802281,
				"y": 2.8023106899,
				"z": 0.1120440169,
				"element": "C" 
			},
			{
				"x": 3.2721729888,
				"y": 2.0274021246,
				"z": 1.4079449319,
				"element": "C" 
			},
			{
				"x": 2.0271787637,
				"y": 1.1819105163,
				"z": 1.3128835057,
				"element": "C" 
			},
			{
				"x": 1.8714015312,
				"y": -0.0182354622,
				"z": 1.9974236526,
				"element": "C" 
			},
			{
				"x": 0.6593240364,
				"y": -0.7070257384,
				"z": 1.9164451655,
				"element": "C" 
			},
			{
				"x": -0.4075982455,
				"y": -0.2467984103,
				"z": 1.1424162311,
				"element": "C" 
			},
			{
				"x": -1.7055008217,
				"y": -1.0093442505,
				"z": 1.2419368672,
				"element": "C" 
			},
			{
				"x": -2.1233513604,
				"y": -1.3580339832,
				"z": 2.3415737994,
				"element": "O" 
			},
			{
				"x": -2.3932580551,
				"y": -1.3188993023,
				"z": 0.0998692748,
				"element": "N" 
			},
			{
				"x": -1.9822767042,
				"y": -1.2307637823,
				"z": -1.2820009168,
				"element": "C" 
			},
			{
				"x": -1.7127209167,
				"y": -2.6331302502,
				"z": -1.9145469417,
				"element": "C" 
			},
			{
				"x": -0.5197457634,
				"y": -3.3346498236,
				"z": -1.3066618075,
				"element": "C" 
			},
			{
				"x": 0.7573520912,
				"y": -3.1696832633,
				"z": -1.8611586091,
				"element": "C" 
			},
			{
				"x": 1.8707035164,
				"y": -3.7886393789,
				"z": -1.2921650397,
				"element": "C" 
			},
			{
				"x": 1.7234543815,
				"y": -4.5841611918,
				"z": -0.1541026411,
				"element": "C" 
			},
			{
				"x": 0.4569336436,
				"y": -4.7573027082,
				"z": 0.4071235024,
				"element": "C" 
			},
			{
				"x": -0.6551251823,
				"y": -4.1381454774,
				"z": -0.1661334047,
				"element": "C" 
			},
			{
				"x": -3.0777991094,
				"y": -0.5352743254,
				"z": -2.0838358139,
				"element": "C" 
			},
			{
				"x": -2.5892415988,
				"y": 0.0314130738,
				"z": -3.2087152082,
				"element": "O" 
			},
			{
				"x": -4.2528451029,
				"y": -0.5387070983,
				"z": -1.7949814468,
				"element": "O" 
			},
			{
				"x": -0.2696723167,
				"y": 0.9827442679,
				"z": 0.4639437079,
				"element": "C" 
			},
			{
				"x": -1.3085532343,
				"y": 1.4736652148,
				"z": -0.2275996479,
				"element": "O" 
			},
			{
				"x": 0.9655341971,
				"y": 1.6823046513,
				"z": 0.5348904083,
				"element": "C" 
			},
			{
				"x": 1.1078839832,
				"y": 2.947469616,
				"z": -0.202792503,
				"element": "C" 
			},
			{
				"x": 0.1631986772,
				"y": 3.5040613689,
				"z": -0.7642771063,
				"element": "O" 
			},
			{
				"x": 2.314801345,
				"y": 3.5381896446,
				"z": -0.2701892502,
				"element": "O" 
			},
			{
				"x": 4.9608382599,
				"y": 1.5128292116,
				"z": -0.8427548524,
				"element": "H" 
			},
			{
				"x": 4.0631089458,
				"y": 2.5556969318,
				"z": -1.9632508315,
				"element": "H" 
			},
			{
				"x": 3.2819188511,
				"y": 1.1245183136,
				"z": -1.2596726012,
				"element": "H" 
			},
			{
				"x": 4.2441173755,
				"y": 3.5958819298,
				"z": 0.2906374642,
				"element": "H" 
			},
			{
				"x": 3.160478738,
				"y": 2.7425776993,
				"z": 2.2340417362,
				"element": "H" 
			},
			{
				"x": 4.1479568241,
				"y": 1.4121553504,
				"z": 1.6382706387,
				"element": "H" 
			},
			{
				"x": 2.6819723604,
				"y": -0.4095807876,
				"z": 2.6045364218,
				"element": "H" 
			},
			{
				"x": 0.5182143857,
				"y": -1.6288963541,
				"z": 2.4709850367,
				"element": "H" 
			},
			{
				"x": -3.3094698094,
				"y": -1.7155273746,
				"z": 0.2718153618,
				"element": "H" 
			},
			{
				"x": -1.073891085,
				"y": -0.6368432004,
				"z": -1.3554186023,
				"element": "H" 
			},
			{
				"x": -2.6188176501,
				"y": -3.2388098017,
				"z": -1.7968312835,
				"element": "H" 
			},
			{
				"x": -1.556219316,
				"y": -2.4912797961,
				"z": -2.989371419,
				"element": "H" 
			},
			{
				"x": 0.8779262897,
				"y": -2.5561633442,
				"z": -2.7513043182,
				"element": "H" 
			},
			{
				"x": 2.8511401251,
				"y": -3.6549693732,
				"z": -1.740893724,
				"element": "H" 
			},
			{
				"x": 2.5881808454,
				"y": -5.0706279613,
				"z": 0.2881512119,
				"element": "H" 
			},
			{
				"x": 0.3314382131,
				"y": -5.3785088716,
				"z": 1.2894042809,
				"element": "H" 
			},
			{
				"x": -1.6370484268,
				"y": -4.2793667716,
				"z": 0.2765524269,
				"element": "H" 
			},
			{
				"x": -3.3511009459,
				"y": 0.4092810873,
				"z": -3.6803976772,
				"element": "H" 
			},
			{
				"x": -1.0233499012,
				"y": 2.3637031397,
				"z": -0.5710542291,
				"element": "H" 
			}
		],
		 "valence_orbital": [ 
			{
				"type": "occ",
				"energy": -0.25696,
				"method": "rhf"
			},
			{
				"type": "occ",
				"energy": -0.25271,
				"method": "rhf"
			},
			{
				"type": "occ",
				"energy": -0.24632,
				"method": "rhf"
			},
			{
				"type": "occ",
				"energy": -0.24194,
				"method": "rhf"
			},
			{
				"type": "occ",
				"energy": -0.23292,
				"method": "rhf"
			},
			{
				"type": "unocc",
				"energy": -0.06043,
				"method": "rhf"
			},
			{
				"type": "unocc",
				"energy": -0.02062,
				"method": "rhf"
			},
			{
				"type": "unocc",
				"energy": -0.01213,
				"method": "rhf"
			},
			{
				"type": "unocc",
				"energy": -0.00605,
				"method": "rhf"
			},
			{
				"type": "unocc",
				"energy": 0.0089,
				"method": "rhf"
			}
		],
		"cosmo_sigma_profile": { 
			"-0.025": 0.0,
			"-0.024": 0.0,
			"-0.023": 0.0,
			"-0.022": 0.0,
			"-0.021": 0.0,
			"-0.02": 0.0,
			"-0.019": 0.29019068343,
			"-0.018": 0.810497722449,
			"-0.017": 1.02244672628,
			"-0.016": 1.0966151705,
			"-0.015": 0.721118591279,
			"-0.014": 0.474838976521,
			"-0.013": 0.846655756185,
			"-0.012": 1.13798648494,
			"-0.011": 2.21988893726,
			"-0.01": 1.54661072488,
			"-0.009": 1.27930912665,
			"-0.008": 1.48445059097,
			"-0.007": 6.81624570574,
			"-0.006": 24.8703849997,
			"-0.005": 37.6663876814,
			"-0.004": 38.2681005036,
			"-0.003": 34.9541625289,
			"-0.002": 25.920702955,
			"-0.001": 27.8718045261,
			"0.0": 22.2670530053,
			"0.001": 22.3970469622,
			"0.002": 21.9878904546,
			"0.003": 22.1541039464,
			"0.004": 16.7494275257,
			"0.005": 14.7879728411,
			"0.006": 11.7295730348,
			"0.007": 7.80530286199,
			"0.008": 6.53352528183,
			"0.009": 7.13727873598,
			"0.01": 7.91016394718,
			"0.011": 8.6946700195,
			"0.012": 5.06497968153,
			"0.013": 5.55407377403,
			"0.014": 3.93038200199,
			"0.015": 0.375048267004,
			"0.016": 0.0,
			"0.017": 0.0,
			"0.018": 0.0,
			"0.019": 0.0,
			"0.02": 0.0,
			"0.021": 0.0,
			"0.022": 0.0,
			"0.023": 0.0,
			"0.024": 0.0,
			"0.025": 0.0
		}
	}
}
