{
	 "smiles": "CCCCCCCCCCC=O", 
	 "Tm": 271.15, 
	 "num_atms": 34, 
	 "gaussian": { 
		 "optdone": 1, 
		 "sigma_profile": "yes", 
		 "theory": "DFT", 
		 "functional": "B3LYP", 
		 "basiset": "6-31G**", 
		 "properties": { 
			 "R2extent": 3919.7195, 
			 "electric_dipole_moment_norm": 2.99103974564, 
			 "electric_quadrupole_moment_norm": 19.4213125373, 
			 "total_energy": -507.657501834, 
			 "HOMO_LUMO_gap": 0.22652, 
			 "cosmo_polarized_energy": -6.19, 
			 "cosmo_cavitation_energy": 34.08, 
			 "cosmo_dispersion_energy": -23.36, 
			 "cosmo_repulsion_energy": 1.92, 
			 "cosmo_total_nonelectrostatic_energy": 12.64, 
			 "SMD_solvation_energy": 5.89 
		},
		"coords": [
			{
				"x": 3.2504168918,
				"y": -2.7570028572,
				"z": -0.4979251508,
				"element": "C" 
			},
			{
				"x": 2.5457574586,
				"y": -1.4039435548,
				"z": -0.6554823517,
				"element": "C" 
			},
			{
				"x": 2.6186641751,
				"y": -0.5132905776,
				"z": 0.6003303455,
				"element": "C" 
			},
			{
				"x": 1.790716466,
				"y": -0.9810994775,
				"z": 1.8192021571,
				"element": "C" 
			},
			{
				"x": 0.3496310675,
				"y": -0.4457307704,
				"z": 1.9432953542,
				"element": "C" 
			},
			{
				"x": -0.6670831327,
				"y": -0.8981807496,
				"z": 0.8693995786,
				"element": "C" 
			},
			{
				"x": -0.8250819705,
				"y": 0.0364745404,
				"z": -0.3469958561,
				"element": "C" 
			},
			{
				"x": -1.5834671752,
				"y": 1.3336256738,
				"z": -0.0277621283,
				"element": "C" 
			},
			{
				"x": -1.7061588575,
				"y": 2.3327678185,
				"z": -1.1912054474,
				"element": "C" 
			},
			{
				"x": -2.5351056514,
				"y": 1.8484755811,
				"z": -2.4039808435,
				"element": "C" 
			},
			{
				"x": -1.7178194588,
				"y": 1.223608891,
				"z": -3.5177188788,
				"element": "C" 
			},
			{
				"x": -1.9640169272,
				"y": 1.3572859624,
				"z": -4.6962695647,
				"element": "O" 
			},
			{
				"x": 2.8071046534,
				"y": -3.3600819384,
				"z": 0.3016512001,
				"element": "H" 
			},
			{
				"x": 4.3115596219,
				"y": -2.6219277674,
				"z": -0.2582806057,
				"element": "H" 
			},
			{
				"x": 3.1898768115,
				"y": -3.3432143231,
				"z": -1.4208155376,
				"element": "H" 
			},
			{
				"x": 3.0068762997,
				"y": -0.8635574468,
				"z": -1.492464286,
				"element": "H" 
			},
			{
				"x": 1.5016871438,
				"y": -1.5711017745,
				"z": -0.944680608,
				"element": "H" 
			},
			{
				"x": 3.674413812,
				"y": -0.4480439447,
				"z": 0.8964848671,
				"element": "H" 
			},
			{
				"x": 2.324186676,
				"y": 0.5122506605,
				"z": 0.3403931701,
				"element": "H" 
			},
			{
				"x": 2.3204248681,
				"y": -0.6765082164,
				"z": 2.7307261388,
				"element": "H" 
			},
			{
				"x": 1.7660571149,
				"y": -2.0787400506,
				"z": 1.8510659436,
				"element": "H" 
			},
			{
				"x": -0.0236300203,
				"y": -0.7625124019,
				"z": 2.9252857387,
				"element": "H" 
			},
			{
				"x": 0.3815947873,
				"y": 0.65168061,
				"z": 1.9854379412,
				"element": "H" 
			},
			{
				"x": -0.3980966843,
				"y": -1.9043467848,
				"z": 0.5239406449,
				"element": "H" 
			},
			{
				"x": -1.6554434937,
				"y": -1.0039670754,
				"z": 1.3366577468,
				"element": "H" 
			},
			{
				"x": 0.1588365752,
				"y": 0.2860126966,
				"z": -0.7632647207,
				"element": "H" 
			},
			{
				"x": -1.3593064312,
				"y": -0.510158882,
				"z": -1.13535301,
				"element": "H" 
			},
			{
				"x": -2.5923318261,
				"y": 1.078382512,
				"z": 0.327916386,
				"element": "H" 
			},
			{
				"x": -1.0910473903,
				"y": 1.8456572859,
				"z": 0.8084357818,
				"element": "H" 
			},
			{
				"x": -2.1717590953,
				"y": 3.2474802607,
				"z": -0.8078764248,
				"element": "H" 
			},
			{
				"x": -0.7025902357,
				"y": 2.6308456609,
				"z": -1.5260752575,
				"element": "H" 
			},
			{
				"x": -3.1118239173,
				"y": 2.6621224985,
				"z": -2.8548419152,
				"element": "H" 
			},
			{
				"x": -3.2680993854,
				"y": 1.0949740609,
				"z": -2.0767028227,
				"element": "H" 
			},
			{
				"x": -0.8464427695,
				"y": 0.61226388,
				"z": -3.1897275847,
				"element": "H" 
			}
		],
		 "valence_orbital": [ 
			{
				"type": "occ",
				"energy": -0.31946,
				"method": "rhf"
			},
			{
				"type": "occ",
				"energy": -0.31202,
				"method": "rhf"
			},
			{
				"type": "occ",
				"energy": -0.30483,
				"method": "rhf"
			},
			{
				"type": "occ",
				"energy": -0.3037,
				"method": "rhf"
			},
			{
				"type": "occ",
				"energy": -0.24772,
				"method": "rhf"
			},
			{
				"type": "unocc",
				"energy": -0.0212,
				"method": "rhf"
			},
			{
				"type": "unocc",
				"energy": 0.07466,
				"method": "rhf"
			},
			{
				"type": "unocc",
				"energy": 0.08635,
				"method": "rhf"
			},
			{
				"type": "unocc",
				"energy": 0.09603,
				"method": "rhf"
			},
			{
				"type": "unocc",
				"energy": 0.10313,
				"method": "rhf"
			}
		],
		"cosmo_sigma_profile": { 
			"-0.025": 0.0,
			"-0.024": 0.0,
			"-0.023": 0.0,
			"-0.022": 0.0,
			"-0.021": 0.0,
			"-0.02": 0.0,
			"-0.019": 0.0,
			"-0.018": 0.0,
			"-0.017": 0.0,
			"-0.016": 0.0,
			"-0.015": 0.0,
			"-0.014": 0.0,
			"-0.013": 0.0,
			"-0.012": 0.0,
			"-0.011": 0.0,
			"-0.01": 0.0,
			"-0.009": 0.0,
			"-0.008": 0.0,
			"-0.007": 0.0,
			"-0.006": 1.50565535964,
			"-0.005": 7.3863608096,
			"-0.004": 13.5480067521,
			"-0.003": 18.6195286699,
			"-0.002": 36.8362972224,
			"-0.001": 54.8819483317,
			"0.0": 48.8875326517,
			"0.001": 38.1445042146,
			"0.002": 18.2051692942,
			"0.003": 2.25028679634,
			"0.004": 1.43644742064,
			"0.005": 1.60020079113,
			"0.006": 1.22960281401,
			"0.007": 1.12311437592,
			"0.008": 2.17810136118,
			"0.009": 2.29432074297,
			"0.01": 2.75802056928,
			"0.011": 3.93656386737,
			"0.012": 4.0001355918,
			"0.013": 1.33058944549,
			"0.014": 0.0,
			"0.015": 0.0,
			"0.016": 0.0,
			"0.017": 0.0,
			"0.018": 0.0,
			"0.019": 0.0,
			"0.02": 0.0,
			"0.021": 0.0,
			"0.022": 0.0,
			"0.023": 0.0,
			"0.024": 0.0,
			"0.025": 0.0
		}
	}
}
