{
	 "smiles": "NNC1=C2SC(=CC2=NC=N1)C1=CC=C(F)C=C1", 
	 "Tm": 511.15, 
	 "num_atms": 27, 
	 "gaussian": { 
		 "optdone": 1, 
		 "sigma_profile": "yes", 
		 "theory": "DFT", 
		 "functional": "B3LYP", 
		 "basiset": "6-31G**", 
		 "properties": { 
			 "R2extent": 6427.7311, 
			 "electric_dipole_moment_norm": 4.29994121588, 
			 "electric_quadrupole_moment_norm": 22.4721387625, 
			 "total_energy": -1179.70590926, 
			 "HOMO_LUMO_gap": 0.16648, 
			 "cosmo_polarized_energy": -15.87, 
			 "cosmo_cavitation_energy": 33.64, 
			 "cosmo_dispersion_energy": -25.42, 
			 "cosmo_repulsion_energy": 1.88, 
			 "cosmo_total_nonelectrostatic_energy": 10.1, 
			 "SMD_solvation_energy": 3.37 
		},
		"coords": [
			{
				"x": -1.627188635,
				"y": 3.9210394335,
				"z": -1.4563227816,
				"element": "N" 
			},
			{
				"x": -1.0093429306,
				"y": 4.5482327541,
				"z": -0.371951718,
				"element": "N" 
			},
			{
				"x": -0.4494810479,
				"y": 3.7903564904,
				"z": 0.6274523465,
				"element": "C" 
			},
			{
				"x": -0.1629340088,
				"y": 2.4159623952,
				"z": 0.5182626649,
				"element": "C" 
			},
			{
				"x": -0.4375021031,
				"y": 1.2765788512,
				"z": -0.780253088,
				"element": "S" 
			},
			{
				"x": 0.3234987047,
				"y": -0.0148030884,
				"z": 0.1615649066,
				"element": "C" 
			},
			{
				"x": 0.735333926,
				"y": 0.4167702438,
				"z": 1.3931897406,
				"element": "C" 
			},
			{
				"x": 0.4690536515,
				"y": 1.8058029499,
				"z": 1.6234692207,
				"element": "C" 
			},
			{
				"x": 0.7885772915,
				"y": 2.4822824206,
				"z": 2.7530239813,
				"element": "N" 
			},
			{
				"x": 0.4553715456,
				"y": 3.7656656937,
				"z": 2.7354332033,
				"element": "C" 
			},
			{
				"x": -0.1444124882,
				"y": 4.4545782285,
				"z": 1.7499130846,
				"element": "N" 
			},
			{
				"x": 0.433918344,
				"y": -1.3700597637,
				"z": -0.3961069836,
				"element": "C" 
			},
			{
				"x": 0.5445758311,
				"y": -1.5884048361,
				"z": -1.7813879119,
				"element": "C" 
			},
			{
				"x": 0.6567223627,
				"y": -2.8751506847,
				"z": -2.3021658816,
				"element": "C" 
			},
			{
				"x": 0.6627341454,
				"y": -3.9539417536,
				"z": -1.4254639206,
				"element": "C" 
			},
			{
				"x": 0.7730288974,
				"y": -5.202475834,
				"z": -1.922142346,
				"element": "F" 
			},
			{
				"x": 0.5545545572,
				"y": -3.7808477124,
				"z": -0.0494157079,
				"element": "C" 
			},
			{
				"x": 0.4351543455,
				"y": -2.4899851875,
				"z": 0.4567768093,
				"element": "C" 
			},
			{
				"x": -2.6420631929,
				"y": 3.9517960357,
				"z": -1.3827224903,
				"element": "H" 
			},
			{
				"x": -1.3354602875,
				"y": 4.3586559523,
				"z": -2.3244218344,
				"element": "H" 
			},
			{
				"x": -1.2976235862,
				"y": 5.4752970071,
				"z": -0.0762386968,
				"element": "H" 
			},
			{
				"x": 1.2456986945,
				"y": -0.2017628816,
				"z": 2.1210418175,
				"element": "H" 
			},
			{
				"x": 0.6907266815,
				"y": 4.3415162392,
				"z": 3.6290676287,
				"element": "H" 
			},
			{
				"x": 0.5641885401,
				"y": -0.7402165316,
				"z": -2.4588080523,
				"element": "H" 
			},
			{
				"x": 0.7482211666,
				"y": -3.0498566067,
				"z": -3.3686019348,
				"element": "H" 
			},
			{
				"x": 0.5522393127,
				"y": -4.64826474,
				"z": 0.6016377696,
				"element": "H" 
			},
			{
				"x": 0.3214102822,
				"y": -2.346465075,
				"z": 1.5262701743,
				"element": "H" 
			}
		],
		 "valence_orbital": [ 
			{
				"type": "occ",
				"energy": -0.26798,
				"method": "rhf"
			},
			{
				"type": "occ",
				"energy": -0.26573,
				"method": "rhf"
			},
			{
				"type": "occ",
				"energy": -0.2452,
				"method": "rhf"
			},
			{
				"type": "occ",
				"energy": -0.22209,
				"method": "rhf"
			},
			{
				"type": "occ",
				"energy": -0.2176,
				"method": "rhf"
			},
			{
				"type": "unocc",
				"energy": -0.05112,
				"method": "rhf"
			},
			{
				"type": "unocc",
				"energy": -0.01845,
				"method": "rhf"
			},
			{
				"type": "unocc",
				"energy": -0.00192,
				"method": "rhf"
			},
			{
				"type": "unocc",
				"energy": 0.00827,
				"method": "rhf"
			},
			{
				"type": "unocc",
				"energy": 0.03613,
				"method": "rhf"
			}
		],
		"cosmo_sigma_profile": { 
			"-0.025": 0.0,
			"-0.024": 0.0,
			"-0.023": 0.0,
			"-0.022": 0.0,
			"-0.021": 0.0,
			"-0.02": 0.0,
			"-0.019": 0.0,
			"-0.018": 0.0,
			"-0.017": 0.0,
			"-0.016": 0.0,
			"-0.015": 0.0,
			"-0.014": 0.533662650783,
			"-0.013": 1.73848725848,
			"-0.012": 4.63421867653,
			"-0.011": 5.52691594414,
			"-0.01": 4.41603239728,
			"-0.009": 4.62790649349,
			"-0.008": 4.36646448973,
			"-0.007": 9.6803567084,
			"-0.006": 12.6383967633,
			"-0.005": 12.7789606257,
			"-0.004": 10.1656027901,
			"-0.003": 10.4913260502,
			"-0.002": 9.17490575093,
			"-0.001": 13.2293607983,
			"0.0": 21.499966877,
			"0.001": 25.2894892937,
			"0.002": 31.2448158825,
			"0.003": 30.8029919713,
			"0.004": 21.4943982469,
			"0.005": 10.4579166502,
			"0.006": 5.63918632969,
			"0.007": 4.8760782898,
			"0.008": 3.34925842955,
			"0.009": 1.74598857638,
			"0.01": 1.94169255863,
			"0.011": 1.99713977896,
			"0.012": 1.97546500322,
			"0.013": 1.80123951516,
			"0.014": 1.43983765546,
			"0.015": 1.37980743363,
			"0.016": 0.834198294828,
			"0.017": 0.327740451684,
			"0.018": 0.0,
			"0.019": 0.0,
			"0.02": 0.0,
			"0.021": 0.0,
			"0.022": 0.0,
			"0.023": 0.0,
			"0.024": 0.0,
			"0.025": 0.0
		}
	}
}
