{
	 "smiles": "OC(=O)CCCCCC1=CC=C(O)C=C1", 
	 "Tm": 378.15, 
	 "num_atms": 31, 
	 "gaussian": { 
		 "optdone": 1, 
		 "sigma_profile": "yes", 
		 "theory": "DFT", 
		 "functional": "B3LYP", 
		 "basiset": "6-31G**", 
		 "properties": { 
			 "R2extent": 5393.6017, 
			 "electric_dipole_moment_norm": 4.66392095666, 
			 "electric_quadrupole_moment_norm": 12.6815386768, 
			 "total_energy": -692.612281118, 
			 "HOMO_LUMO_gap": 0.21223, 
			 "cosmo_polarized_energy": -19.79, 
			 "cosmo_cavitation_energy": 34.59, 
			 "cosmo_dispersion_energy": -24.18, 
			 "cosmo_repulsion_energy": 1.95, 
			 "cosmo_total_nonelectrostatic_energy": 12.35, 
			 "SMD_solvation_energy": 6.6 
		},
		"coords": [
			{
				"x": 0.5773453508,
				"y": 0.4092503917,
				"z": -5.2468662804,
				"element": "O" 
			},
			{
				"x": 0.15964788,
				"y": -0.4241557181,
				"z": -4.2536931337,
				"element": "C" 
			},
			{
				"x": -0.9863470498,
				"y": -0.797761032,
				"z": -4.2280772303,
				"element": "O" 
			},
			{
				"x": 1.2370373067,
				"y": -0.8377089713,
				"z": -3.2559990324,
				"element": "C" 
			},
			{
				"x": 0.6888194447,
				"y": -1.6021104939,
				"z": -2.0465403611,
				"element": "C" 
			},
			{
				"x": -0.110047045,
				"y": -0.7229424298,
				"z": -1.0758043455,
				"element": "C" 
			},
			{
				"x": -0.6480226997,
				"y": -1.5057702909,
				"z": 0.1272462923,
				"element": "C" 
			},
			{
				"x": -1.4495964308,
				"y": -0.6470271681,
				"z": 1.130361965,
				"element": "C" 
			},
			{
				"x": -0.628036589,
				"y": 0.4063839561,
				"z": 1.8457906044,
				"element": "C" 
			},
			{
				"x": 0.2255859187,
				"y": 0.0569231368,
				"z": 2.9005369464,
				"element": "C" 
			},
			{
				"x": 1.0033275332,
				"y": 1.0105075097,
				"z": 3.5566880456,
				"element": "C" 
			},
			{
				"x": 0.9391161966,
				"y": 2.3518284535,
				"z": 3.1648543163,
				"element": "C" 
			},
			{
				"x": 1.6736999984,
				"y": 3.3362085784,
				"z": 3.768148941,
				"element": "O" 
			},
			{
				"x": 0.0915542831,
				"y": 2.7247062407,
				"z": 2.1175755784,
				"element": "C" 
			},
			{
				"x": -0.6777783835,
				"y": 1.7578520232,
				"z": 1.473728949,
				"element": "C" 
			},
			{
				"x": 1.5137997444,
				"y": 0.6233278624,
				"z": -5.1293638185,
				"element": "H" 
			},
			{
				"x": 1.7848142647,
				"y": 0.0584803308,
				"z": -2.931245834,
				"element": "H" 
			},
			{
				"x": 1.9620276737,
				"y": -1.4553295059,
				"z": -3.8051359052,
				"element": "H" 
			},
			{
				"x": 0.0554309586,
				"y": -2.4185344619,
				"z": -2.4110201663,
				"element": "H" 
			},
			{
				"x": 1.5316021928,
				"y": -2.0622699231,
				"z": -1.5155443664,
				"element": "H" 
			},
			{
				"x": -0.9486932472,
				"y": -0.2671289589,
				"z": -1.6156374499,
				"element": "H" 
			},
			{
				"x": 0.525545701,
				"y": 0.0995583228,
				"z": -0.7213739355,
				"element": "H" 
			},
			{
				"x": -1.2949008136,
				"y": -2.3172445836,
				"z": -0.2317824925,
				"element": "H" 
			},
			{
				"x": 0.1869103967,
				"y": -1.9867927836,
				"z": 0.6556544026,
				"element": "H" 
			},
			{
				"x": -1.9044772971,
				"y": -1.3161515132,
				"z": 1.871590376,
				"element": "H" 
			},
			{
				"x": -2.2806256028,
				"y": -0.1646393614,
				"z": 0.601067922,
				"element": "H" 
			},
			{
				"x": 0.2818553128,
				"y": -0.9804034538,
				"z": 3.2228989317,
				"element": "H" 
			},
			{
				"x": 1.6543860285,
				"y": 0.7135904649,
				"z": 4.3769944977,
				"element": "H" 
			},
			{
				"x": 2.2020801,
				"y": 2.9451572415,
				"z": 4.4757469452,
				"element": "H" 
			},
			{
				"x": 0.0442892252,
				"y": 3.7690973741,
				"z": 1.8266364273,
				"element": "H" 
			},
			{
				"x": -1.337850352,
				"y": 2.0623987631,
				"z": 0.6651632109,
				"element": "H" 
			}
		],
		 "valence_orbital": [ 
			{
				"type": "occ",
				"energy": -0.31306,
				"method": "rhf"
			},
			{
				"type": "occ",
				"energy": -0.3116,
				"method": "rhf"
			},
			{
				"type": "occ",
				"energy": -0.26973,
				"method": "rhf"
			},
			{
				"type": "occ",
				"energy": -0.24911,
				"method": "rhf"
			},
			{
				"type": "occ",
				"energy": -0.21347,
				"method": "rhf"
			},
			{
				"type": "unocc",
				"energy": -0.00124,
				"method": "rhf"
			},
			{
				"type": "unocc",
				"energy": 0.01156,
				"method": "rhf"
			},
			{
				"type": "unocc",
				"energy": 0.01541,
				"method": "rhf"
			},
			{
				"type": "unocc",
				"energy": 0.05571,
				"method": "rhf"
			},
			{
				"type": "unocc",
				"energy": 0.0714,
				"method": "rhf"
			}
		],
		"cosmo_sigma_profile": { 
			"-0.025": 0.0,
			"-0.024": 0.0,
			"-0.023": 0.0,
			"-0.022": 0.0,
			"-0.021": 0.0,
			"-0.02": 0.0,
			"-0.019": 0.401373775072,
			"-0.018": 1.11460342793,
			"-0.017": 1.88797579876,
			"-0.016": 2.8611248789,
			"-0.015": 1.37589850334,
			"-0.014": 1.66880304359,
			"-0.013": 2.23685926077,
			"-0.012": 1.88721431577,
			"-0.011": 2.44732348164,
			"-0.01": 2.50904652784,
			"-0.009": 2.49878295046,
			"-0.008": 2.67653115188,
			"-0.007": 4.22042241647,
			"-0.006": 7.05066096784,
			"-0.005": 10.5125570499,
			"-0.004": 13.4315738738,
			"-0.003": 22.1964990291,
			"-0.002": 28.5391844054,
			"-0.001": 25.9428032688,
			"0.0": 22.9196130949,
			"0.001": 17.1066306542,
			"0.002": 11.4705052871,
			"0.003": 10.3245610079,
			"0.004": 11.8794366201,
			"0.005": 12.4741230067,
			"0.006": 11.7884731602,
			"0.007": 6.06032812608,
			"0.008": 3.87568256779,
			"0.009": 4.73261000332,
			"0.01": 5.65114171877,
			"0.011": 7.35490998337,
			"0.012": 6.68472168446,
			"0.013": 2.56373065784,
			"0.014": 0.19248394099,
			"0.015": 0.0,
			"0.016": 0.0,
			"0.017": 0.0,
			"0.018": 0.0,
			"0.019": 0.0,
			"0.02": 0.0,
			"0.021": 0.0,
			"0.022": 0.0,
			"0.023": 0.0,
			"0.024": 0.0,
			"0.025": 0.0
		}
	}
}
