{
	 "smiles": "O=C1N(CCC#N)C(=O)C2=C1C=CC=C2", 
	 "Tm": 427.15, 
	 "num_atms": 23, 
	 "gaussian": { 
		 "optdone": 1, 
		 "sigma_profile": "yes", 
		 "theory": "DFT", 
		 "functional": "B3LYP", 
		 "basiset": "6-31G**", 
		 "properties": { 
			 "R2extent": 3942.0806, 
			 "electric_dipole_moment_norm": 6.73418986516, 
			 "electric_quadrupole_moment_norm": 13.9350224438, 
			 "total_energy": -683.958318875, 
			 "HOMO_LUMO_gap": 0.18585, 
			 "cosmo_polarized_energy": -16.08, 
			 "cosmo_cavitation_energy": 29.61, 
			 "cosmo_dispersion_energy": -20.35, 
			 "cosmo_repulsion_energy": 1.58, 
			 "cosmo_total_nonelectrostatic_energy": 10.84, 
			 "SMD_solvation_energy": 7.55 
		},
		"coords": [
			{
				"x": -2.5234914119,
				"y": -0.03917205,
				"z": 0.9676113954,
				"element": "O" 
			},
			{
				"x": -1.3424062424,
				"y": 0.1074216498,
				"z": 0.7253783238,
				"element": "C" 
			},
			{
				"x": -0.3706547443,
				"y": -0.9078314635,
				"z": 0.8072071806,
				"element": "N" 
			},
			{
				"x": -0.6635311868,
				"y": -2.2778540923,
				"z": 1.1806017917,
				"element": "C" 
			},
			{
				"x": -0.5506928765,
				"y": -2.4853844788,
				"z": 2.7088730714,
				"element": "C" 
			},
			{
				"x": -0.8453787754,
				"y": -3.8673415158,
				"z": 3.0913229637,
				"element": "C" 
			},
			{
				"x": -1.0823989104,
				"y": -4.9679453864,
				"z": 3.3727625382,
				"element": "N" 
			},
			{
				"x": 0.9178880059,
				"y": -0.4413662946,
				"z": 0.485080189,
				"element": "C" 
			},
			{
				"x": 1.9255329922,
				"y": -1.1193774683,
				"z": 0.4947018066,
				"element": "O" 
			},
			{
				"x": 0.7466550903,
				"y": 1.0031190489,
				"z": 0.1521587694,
				"element": "C" 
			},
			{
				"x": -0.6043901699,
				"y": 1.3311601975,
				"z": 0.2958724937,
				"element": "C" 
			},
			{
				"x": -1.0689563947,
				"y": 2.6156929329,
				"z": 0.0532029528,
				"element": "C" 
			},
			{
				"x": -0.1289191584,
				"y": 3.576372581,
				"z": -0.3434604764,
				"element": "C" 
			},
			{
				"x": 1.2252235927,
				"y": 3.2475682609,
				"z": -0.4875635552,
				"element": "C" 
			},
			{
				"x": 1.6847900813,
				"y": 1.9470564865,
				"z": -0.2397780816,
				"element": "C" 
			},
			{
				"x": 0.0453999345,
				"y": -2.926361562,
				"z": 0.6617249138,
				"element": "H" 
			},
			{
				"x": -1.6770532834,
				"y": -2.5079764572,
				"z": 0.8456585123,
				"element": "H" 
			},
			{
				"x": 0.4623698659,
				"y": -2.2333928118,
				"z": 3.0404883458,
				"element": "H" 
			},
			{
				"x": -1.2500539011,
				"y": -1.8176407203,
				"z": 3.2234346665,
				"element": "H" 
			},
			{
				"x": -2.120166444,
				"y": 2.8594260327,
				"z": 0.1676181174,
				"element": "H" 
			},
			{
				"x": -0.4535519058,
				"y": 4.5931355779,
				"z": -0.5429115294,
				"element": "H" 
			},
			{
				"x": 1.9288977056,
				"y": 4.0146449162,
				"z": -0.7964464096,
				"element": "H" 
			},
			{
				"x": 2.7312881366,
				"y": 1.6814466164,
				"z": -0.3485379796,
				"element": "H" 
			}
		],
		 "valence_orbital": [ 
			{
				"type": "occ",
				"energy": -0.30383,
				"method": "rhf"
			},
			{
				"type": "occ",
				"energy": -0.2976,
				"method": "rhf"
			},
			{
				"type": "occ",
				"energy": -0.2881,
				"method": "rhf"
			},
			{
				"type": "occ",
				"energy": -0.2805,
				"method": "rhf"
			},
			{
				"type": "occ",
				"energy": -0.27942,
				"method": "rhf"
			},
			{
				"type": "unocc",
				"energy": -0.09357,
				"method": "rhf"
			},
			{
				"type": "unocc",
				"energy": -0.05167,
				"method": "rhf"
			},
			{
				"type": "unocc",
				"energy": 0.01754,
				"method": "rhf"
			},
			{
				"type": "unocc",
				"energy": 0.02622,
				"method": "rhf"
			},
			{
				"type": "unocc",
				"energy": 0.03574,
				"method": "rhf"
			}
		],
		"cosmo_sigma_profile": { 
			"-0.025": 0.0,
			"-0.024": 0.0,
			"-0.023": 0.0,
			"-0.022": 0.0,
			"-0.021": 0.0,
			"-0.02": 0.0,
			"-0.019": 0.0,
			"-0.018": 0.0,
			"-0.017": 0.0,
			"-0.016": 0.0,
			"-0.015": 0.0,
			"-0.014": 0.0,
			"-0.013": 0.0,
			"-0.012": 0.0,
			"-0.011": 0.0,
			"-0.01": 0.0,
			"-0.009": 1.49000159059,
			"-0.008": 7.7266718637,
			"-0.007": 18.8030843248,
			"-0.006": 21.8564346882,
			"-0.005": 20.3484390063,
			"-0.004": 17.4645993978,
			"-0.003": 12.5953480772,
			"-0.002": 12.0481863244,
			"-0.001": 14.0425952225,
			"0.0": 14.5076846953,
			"0.001": 15.207001592,
			"0.002": 16.1396567878,
			"0.003": 6.52383590387,
			"0.004": 4.79712149322,
			"0.005": 4.71609047305,
			"0.006": 4.29707766113,
			"0.007": 6.13566393278,
			"0.008": 6.60867043697,
			"0.009": 6.48570192255,
			"0.01": 9.03757893963,
			"0.011": 11.9363314397,
			"0.012": 4.23366970145,
			"0.013": 1.68458513534,
			"0.014": 0.0780335187657,
			"0.015": 0.0,
			"0.016": 0.0,
			"0.017": 0.0,
			"0.018": 0.0,
			"0.019": 0.0,
			"0.02": 0.0,
			"0.021": 0.0,
			"0.022": 0.0,
			"0.023": 0.0,
			"0.024": 0.0,
			"0.025": 0.0
		}
	}
}
