{
	 "smiles": "[O-][N+](=O)C1=C2NCCCC2=CC=C1", 
	 "Tm": 343.15, 
	 "num_atms": 23, 
	 "gaussian": { 
		 "optdone": 1, 
		 "sigma_profile": "yes", 
		 "theory": "DFT", 
		 "functional": "B3LYP", 
		 "basiset": "6-31G**", 
		 "properties": { 
			 "R2extent": 3070.0265, 
			 "electric_dipole_moment_norm": 5.33470681013, 
			 "electric_quadrupole_moment_norm": 18.6349639863, 
			 "total_energy": -608.853697074, 
			 "HOMO_LUMO_gap": 0.13293, 
			 "cosmo_polarized_energy": -9.56, 
			 "cosmo_cavitation_energy": 25.53, 
			 "cosmo_dispersion_energy": -19.63, 
			 "cosmo_repulsion_energy": 1.54, 
			 "cosmo_total_nonelectrostatic_energy": 7.44, 
			 "SMD_solvation_energy": 4.98 
		},
		"coords": [
			{
				"x": 0.9692548429,
				"y": -3.5981204315,
				"z": 1.6734937118,
				"element": "O" 
			},
			{
				"x": 0.0214861929,
				"y": -2.8561934241,
				"z": 1.4077210551,
				"element": "N" 
			},
			{
				"x": -1.1106858505,
				"y": -3.3031816437,
				"z": 1.1233322354,
				"element": "O" 
			},
			{
				"x": 0.2310301613,
				"y": -1.425622643,
				"z": 1.4263016432,
				"element": "C" 
			},
			{
				"x": -0.8182780393,
				"y": -0.5003200704,
				"z": 1.1327750843,
				"element": "C" 
			},
			{
				"x": -2.0841297953,
				"y": -0.890380022,
				"z": 0.8312634291,
				"element": "N" 
			},
			{
				"x": -3.1695435982,
				"y": 0.0250297611,
				"z": 0.5142052031,
				"element": "C" 
			},
			{
				"x": -2.9609741714,
				"y": 1.3715855852,
				"z": 1.2055069752,
				"element": "C" 
			},
			{
				"x": -1.5664507817,
				"y": 1.908438653,
				"z": 0.8626033919,
				"element": "C" 
			},
			{
				"x": -0.4886539958,
				"y": 0.8912357898,
				"z": 1.1812839105,
				"element": "C" 
			},
			{
				"x": 0.7950204792,
				"y": 1.2856433747,
				"z": 1.5148792049,
				"element": "C" 
			},
			{
				"x": 1.8161558661,
				"y": 0.3611460553,
				"z": 1.7960183807,
				"element": "C" 
			},
			{
				"x": 1.5267536894,
				"y": -0.9862903312,
				"z": 1.7487540016,
				"element": "C" 
			},
			{
				"x": -2.224503654,
				"y": -1.8932077742,
				"z": 0.7962346221,
				"element": "H" 
			},
			{
				"x": -3.2424004259,
				"y": 0.1752817737,
				"z": -0.5743842372,
				"element": "H" 
			},
			{
				"x": -4.1072710226,
				"y": -0.4390003669,
				"z": 0.8369654607,
				"element": "H" 
			},
			{
				"x": -3.7379961341,
				"y": 2.0737236464,
				"z": 0.8874344856,
				"element": "H" 
			},
			{
				"x": -3.055319045,
				"y": 1.242510792,
				"z": 2.2900152514,
				"element": "H" 
			},
			{
				"x": -1.3659412482,
				"y": 2.8392591312,
				"z": 1.4036952008,
				"element": "H" 
			},
			{
				"x": -1.534891036,
				"y": 2.1605521431,
				"z": -0.2073897653,
				"element": "H" 
			},
			{
				"x": 1.0126145746,
				"y": 2.3506795881,
				"z": 1.5558917544,
				"element": "H" 
			},
			{
				"x": 2.8141654562,
				"y": 0.7017040322,
				"z": 2.0488405174,
				"element": "H" 
			},
			{
				"x": 2.2746575355,
				"y": -1.739873619,
				"z": 1.9577584831,
				"element": "H" 
			}
		],
		 "valence_orbital": [ 
			{
				"type": "occ",
				"energy": -0.29544,
				"method": "rhf"
			},
			{
				"type": "occ",
				"energy": -0.29506,
				"method": "rhf"
			},
			{
				"type": "occ",
				"energy": -0.27679,
				"method": "rhf"
			},
			{
				"type": "occ",
				"energy": -0.26235,
				"method": "rhf"
			},
			{
				"type": "occ",
				"energy": -0.20853,
				"method": "rhf"
			},
			{
				"type": "unocc",
				"energy": -0.0756,
				"method": "rhf"
			},
			{
				"type": "unocc",
				"energy": -0.00052,
				"method": "rhf"
			},
			{
				"type": "unocc",
				"energy": 0.01459,
				"method": "rhf"
			},
			{
				"type": "unocc",
				"energy": 0.07963,
				"method": "rhf"
			},
			{
				"type": "unocc",
				"energy": 0.09713,
				"method": "rhf"
			}
		],
		"cosmo_sigma_profile": { 
			"-0.025": 0.0,
			"-0.024": 0.0,
			"-0.023": 0.0,
			"-0.022": 0.0,
			"-0.021": 0.0,
			"-0.02": 0.0,
			"-0.019": 0.0,
			"-0.018": 0.0,
			"-0.017": 0.0,
			"-0.016": 0.0,
			"-0.015": 0.0,
			"-0.014": 0.0,
			"-0.013": 0.0,
			"-0.012": 0.0,
			"-0.011": 0.00413758229678,
			"-0.01": 0.483142116423,
			"-0.009": 0.636349199141,
			"-0.008": 1.00289633979,
			"-0.007": 1.26554517598,
			"-0.006": 6.66709343218,
			"-0.005": 12.2243681507,
			"-0.004": 24.330838256,
			"-0.003": 24.9271433656,
			"-0.002": 22.3191628562,
			"-0.001": 18.374260377,
			"0.0": 13.4358671732,
			"0.001": 14.0929240284,
			"0.002": 12.0488750369,
			"0.003": 10.2487039518,
			"0.004": 9.47669511348,
			"0.005": 4.38488909199,
			"0.006": 2.85764570232,
			"0.007": 3.01895198754,
			"0.008": 5.3592983107,
			"0.009": 6.26077316659,
			"0.01": 3.98131685712,
			"0.011": 3.97091009897,
			"0.012": 1.05524248966,
			"0.013": 0.0,
			"0.014": 0.0,
			"0.015": 0.0,
			"0.016": 0.0,
			"0.017": 0.0,
			"0.018": 0.0,
			"0.019": 0.0,
			"0.02": 0.0,
			"0.021": 0.0,
			"0.022": 0.0,
			"0.023": 0.0,
			"0.024": 0.0,
			"0.025": 0.0
		}
	}
}
