{
	 "smiles": "CCCCCCCCCCC1CCCC1", 
	 "Tm": 251.15, 
	 "num_atms": 45, 
	 "gaussian": { 
		 "optdone": 1, 
		 "sigma_profile": "yes", 
		 "theory": "DFT", 
		 "functional": "B3LYP", 
		 "basiset": "6-31G**", 
		 "properties": { 
			 "R2extent": 7225.9277, 
			 "electric_dipole_moment_norm": 0.0378726814472, 
			 "electric_quadrupole_moment_norm": 0.760298257265, 
			 "total_energy": -589.716174508, 
			 "HOMO_LUMO_gap": 0.35725, 
			 "cosmo_polarized_energy": -1.0, 
			 "cosmo_cavitation_energy": 42.4, 
			 "cosmo_dispersion_energy": -28.85, 
			 "cosmo_repulsion_energy": 2.33, 
			 "cosmo_total_nonelectrostatic_energy": 15.87, 
			 "SMD_solvation_energy": 5.23 
		},
		"coords": [
			{
				"x": 0.9374670187,
				"y": 4.9015038373,
				"z": 3.6284287488,
				"element": "C" 
			},
			{
				"x": -0.4238980153,
				"y": 4.2449932726,
				"z": 3.8863806973,
				"element": "C" 
			},
			{
				"x": -0.3589575166,
				"y": 2.9599869183,
				"z": 4.7312671897,
				"element": "C" 
			},
			{
				"x": 0.4239753454,
				"y": 1.7872042182,
				"z": 4.1140585939,
				"element": "C" 
			},
			{
				"x": -0.177002544,
				"y": 1.242210686,
				"z": 2.8095634371,
				"element": "C" 
			},
			{
				"x": 0.4857429103,
				"y": -0.049082393,
				"z": 2.2967026775,
				"element": "C" 
			},
			{
				"x": 1.9751424958,
				"y": 0.0626261864,
				"z": 1.9201595726,
				"element": "C" 
			},
			{
				"x": 2.3085049032,
				"y": 1.0691574507,
				"z": 0.8028414764,
				"element": "C" 
			},
			{
				"x": 1.6387644411,
				"y": 0.8100178287,
				"z": -0.558828235,
				"element": "C" 
			},
			{
				"x": 2.0438084283,
				"y": -0.514159856,
				"z": -1.2232764345,
				"element": "C" 
			},
			{
				"x": 1.4896312136,
				"y": -0.7010751881,
				"z": -2.6499256412,
				"element": "C" 
			},
			{
				"x": 2.0334705742,
				"y": -1.9778192635,
				"z": -3.3288528675,
				"element": "C" 
			},
			{
				"x": 1.136724072,
				"y": -3.1292108903,
				"z": -2.8111383311,
				"element": "C" 
			},
			{
				"x": -0.2106226333,
				"y": -2.4611286317,
				"z": -2.4044081976,
				"element": "C" 
			},
			{
				"x": -0.0356089464,
				"y": -0.9497579919,
				"z": -2.6962263493,
				"element": "C" 
			},
			{
				"x": 0.8240631985,
				"y": 5.8414861508,
				"z": 3.0782077866,
				"element": "H" 
			},
			{
				"x": 1.4516651939,
				"y": 5.1278401182,
				"z": 4.5700156814,
				"element": "H" 
			},
			{
				"x": 1.5983959394,
				"y": 4.2564687118,
				"z": 3.0397697007,
				"element": "H" 
			},
			{
				"x": -1.0726769198,
				"y": 4.9633147061,
				"z": 4.4039655498,
				"element": "H" 
			},
			{
				"x": -0.9164577079,
				"y": 4.0365548306,
				"z": 2.9280744829,
				"element": "H" 
			},
			{
				"x": -1.3843858877,
				"y": 2.625692683,
				"z": 4.9414778696,
				"element": "H" 
			},
			{
				"x": 0.0855999937,
				"y": 3.2047353797,
				"z": 5.7059463951,
				"element": "H" 
			},
			{
				"x": 1.4665461727,
				"y": 2.0867737708,
				"z": 3.9500649035,
				"element": "H" 
			},
			{
				"x": 0.4612810784,
				"y": 0.97250582,
				"z": 4.8507054306,
				"element": "H" 
			},
			{
				"x": -1.2449135146,
				"y": 1.0400905578,
				"z": 2.9724875316,
				"element": "H" 
			},
			{
				"x": -0.1365713131,
				"y": 2.012289687,
				"z": 2.028930485,
				"element": "H" 
			},
			{
				"x": 0.3836166443,
				"y": -0.8258294468,
				"z": 3.0671231009,
				"element": "H" 
			},
			{
				"x": -0.0812874341,
				"y": -0.414334839,
				"z": 1.4305887153,
				"element": "H" 
			},
			{
				"x": 2.3322407295,
				"y": -0.9337051289,
				"z": 1.6303527987,
				"element": "H" 
			},
			{
				"x": 2.5561956007,
				"y": 0.332694611,
				"z": 2.8109859208,
				"element": "H" 
			},
			{
				"x": 3.3982253379,
				"y": 1.0788264775,
				"z": 0.662859978,
				"element": "H" 
			},
			{
				"x": 2.0437091264,
				"y": 2.0814296242,
				"z": 1.1351652315,
				"element": "H" 
			},
			{
				"x": 1.9022766694,
				"y": 1.635353324,
				"z": -1.2346664688,
				"element": "H" 
			},
			{
				"x": 0.5480833187,
				"y": 0.8548899248,
				"z": -0.4475577683,
				"element": "H" 
			},
			{
				"x": 1.7339394084,
				"y": -1.358852706,
				"z": -0.5940602309,
				"element": "H" 
			},
			{
				"x": 3.1414008439,
				"y": -0.5604727979,
				"z": -1.268912829,
				"element": "H" 
			},
			{
				"x": 1.7554076209,
				"y": 0.1901101849,
				"z": -3.2342529309,
				"element": "H" 
			},
			{
				"x": 1.9226472639,
				"y": -1.8807904461,
				"z": -4.415874797,
				"element": "H" 
			},
			{
				"x": 3.0976852307,
				"y": -2.1455294676,
				"z": -3.1297173335,
				"element": "H" 
			},
			{
				"x": 1.5978527461,
				"y": -3.6179212602,
				"z": -1.9464591539,
				"element": "H" 
			},
			{
				"x": 1.0010347767,
				"y": -3.9059769142,
				"z": -3.5700557841,
				"element": "H" 
			},
			{
				"x": -0.4154299732,
				"y": -2.6286280255,
				"z": -1.3417492026,
				"element": "H" 
			},
			{
				"x": -1.0614896381,
				"y": -2.8783854433,
				"z": -2.9518887407,
				"element": "H" 
			},
			{
				"x": -0.6019396074,
				"y": -0.3181064865,
				"z": -2.0045592247,
				"element": "H" 
			},
			{
				"x": -0.4022566451,
				"y": -0.7207897838,
				"z": -3.7043134346,
				"element": "H" 
			}
		],
		 "valence_orbital": [ 
			{
				"type": "occ",
				"energy": -0.30399,
				"method": "rhf"
			},
			{
				"type": "occ",
				"energy": -0.30242,
				"method": "rhf"
			},
			{
				"type": "occ",
				"energy": -0.29866,
				"method": "rhf"
			},
			{
				"type": "occ",
				"energy": -0.29618,
				"method": "rhf"
			},
			{
				"type": "occ",
				"energy": -0.29221,
				"method": "rhf"
			},
			{
				"type": "unocc",
				"energy": 0.06504,
				"method": "rhf"
			},
			{
				"type": "unocc",
				"energy": 0.07423,
				"method": "rhf"
			},
			{
				"type": "unocc",
				"energy": 0.09234,
				"method": "rhf"
			},
			{
				"type": "unocc",
				"energy": 0.10356,
				"method": "rhf"
			},
			{
				"type": "unocc",
				"energy": 0.10717,
				"method": "rhf"
			}
		],
		"cosmo_sigma_profile": { 
			"-0.025": 0.0,
			"-0.024": 0.0,
			"-0.023": 0.0,
			"-0.022": 0.0,
			"-0.021": 0.0,
			"-0.02": 0.0,
			"-0.019": 0.0,
			"-0.018": 0.0,
			"-0.017": 0.0,
			"-0.016": 0.0,
			"-0.015": 0.0,
			"-0.014": 0.0,
			"-0.013": 0.0,
			"-0.012": 0.0,
			"-0.011": 0.0,
			"-0.01": 0.0,
			"-0.009": 0.0,
			"-0.008": 0.0,
			"-0.007": 0.0,
			"-0.006": 0.0,
			"-0.005": 0.0,
			"-0.004": 0.0,
			"-0.003": 2.00929941765,
			"-0.002": 38.0191964771,
			"-0.001": 81.617951337,
			"0.0": 84.5867674428,
			"0.001": 73.910900349,
			"0.002": 41.1362496606,
			"0.003": 2.10842020186,
			"0.004": 0.0,
			"0.005": 0.0,
			"0.006": 0.0,
			"0.007": 0.0,
			"0.008": 0.0,
			"0.009": 0.0,
			"0.01": 0.0,
			"0.011": 0.0,
			"0.012": 0.0,
			"0.013": 0.0,
			"0.014": 0.0,
			"0.015": 0.0,
			"0.016": 0.0,
			"0.017": 0.0,
			"0.018": 0.0,
			"0.019": 0.0,
			"0.02": 0.0,
			"0.021": 0.0,
			"0.022": 0.0,
			"0.023": 0.0,
			"0.024": 0.0,
			"0.025": 0.0
		}
	}
}
