{
	 "smiles": "CCC1=CC=NC(N)=C1", 
	 "Tm": 340.15, 
	 "num_atms": 19, 
	 "gaussian": { 
		 "optdone": 1, 
		 "sigma_profile": "yes", 
		 "theory": "DFT", 
		 "functional": "B3LYP", 
		 "basiset": "6-31G**", 
		 "properties": { 
			 "R2extent": 1499.1829, 
			 "electric_dipole_moment_norm": 2.12921447487, 
			 "electric_quadrupole_moment_norm": 9.25320567155, 
			 "total_energy": -382.291111166, 
			 "HOMO_LUMO_gap": 0.20048, 
			 "cosmo_polarized_energy": -8.93, 
			 "cosmo_cavitation_energy": 22.27, 
			 "cosmo_dispersion_energy": -16.42, 
			 "cosmo_repulsion_energy": 1.37, 
			 "cosmo_total_nonelectrostatic_energy": 7.22, 
			 "SMD_solvation_energy": 2.46 
		},
		"coords": [
			{
				"x": 1.0068482496,
				"y": 2.397571631,
				"z": 0.4750529815,
				"element": "C" 
			},
			{
				"x": 0.9985874576,
				"y": 1.046082735,
				"z": 1.2126282958,
				"element": "C" 
			},
			{
				"x": -0.1976559212,
				"y": 0.1941173091,
				"z": 0.8500657003,
				"element": "C" 
			},
			{
				"x": -1.4419964194,
				"y": 0.3873419316,
				"z": 1.4743263285,
				"element": "C" 
			},
			{
				"x": -2.515054222,
				"y": -0.4003790649,
				"z": 1.0742924542,
				"element": "C" 
			},
			{
				"x": -2.4476605549,
				"y": -1.34499358,
				"z": 0.1272484269,
				"element": "N" 
			},
			{
				"x": -1.262323533,
				"y": -1.5268352014,
				"z": -0.4741685308,
				"element": "C" 
			},
			{
				"x": -1.2318193412,
				"y": -2.471532398,
				"z": -1.4862823272,
				"element": "N" 
			},
			{
				"x": -0.1143383327,
				"y": -0.7795788929,
				"z": -0.1399672615,
				"element": "C" 
			},
			{
				"x": 0.1081031974,
				"y": 2.9774379885,
				"z": 0.7075185478,
				"element": "H" 
			},
			{
				"x": 1.8795271535,
				"y": 2.9929960677,
				"z": 0.7625992585,
				"element": "H" 
			},
			{
				"x": 1.0358513818,
				"y": 2.2510577273,
				"z": -0.609289607,
				"element": "H" 
			},
			{
				"x": 1.0012948285,
				"y": 1.2255752682,
				"z": 2.2944880562,
				"element": "H" 
			},
			{
				"x": 1.9208328725,
				"y": 0.5005508338,
				"z": 0.9814044639,
				"element": "H" 
			},
			{
				"x": -1.5645829205,
				"y": 1.1286591731,
				"z": 2.2581959238,
				"element": "H" 
			},
			{
				"x": -3.4893352677,
				"y": -0.2768562241,
				"z": 1.5456220054,
				"element": "H" 
			},
			{
				"x": -0.3449315565,
				"y": -2.9145949899,
				"z": -1.6745090837,
				"element": "H" 
			},
			{
				"x": -2.0233465694,
				"y": -3.0997761916,
				"z": -1.4762182867,
				"element": "H" 
			},
			{
				"x": 0.8247994975,
				"y": -0.9633441225,
				"z": -0.6564073457,
				"element": "H" 
			}
		],
		 "valence_orbital": [ 
			{
				"type": "occ",
				"energy": -0.33964,
				"method": "rhf"
			},
			{
				"type": "occ",
				"energy": -0.30563,
				"method": "rhf"
			},
			{
				"type": "occ",
				"energy": -0.26186,
				"method": "rhf"
			},
			{
				"type": "occ",
				"energy": -0.24825,
				"method": "rhf"
			},
			{
				"type": "occ",
				"energy": -0.20754,
				"method": "rhf"
			},
			{
				"type": "unocc",
				"energy": -0.00706,
				"method": "rhf"
			},
			{
				"type": "unocc",
				"energy": 0.01564,
				"method": "rhf"
			},
			{
				"type": "unocc",
				"energy": 0.08877,
				"method": "rhf"
			},
			{
				"type": "unocc",
				"energy": 0.10316,
				"method": "rhf"
			},
			{
				"type": "unocc",
				"energy": 0.12831,
				"method": "rhf"
			}
		],
		"cosmo_sigma_profile": { 
			"-0.025": 0.0,
			"-0.024": 0.0,
			"-0.023": 0.0,
			"-0.022": 0.0,
			"-0.021": 0.0,
			"-0.02": 0.0,
			"-0.019": 0.0,
			"-0.018": 0.0,
			"-0.017": 0.0,
			"-0.016": 0.0,
			"-0.015": 0.0,
			"-0.014": 0.00296601692094,
			"-0.013": 0.79528680684,
			"-0.012": 1.92368720668,
			"-0.011": 2.65550510201,
			"-0.01": 2.05342908476,
			"-0.009": 2.18871711995,
			"-0.008": 2.53337869193,
			"-0.007": 2.88105602947,
			"-0.006": 3.55286990696,
			"-0.005": 6.97416811162,
			"-0.004": 10.58230624,
			"-0.003": 17.3304481832,
			"-0.002": 15.9309485893,
			"-0.001": 18.518137879,
			"0.0": 15.760270276,
			"0.001": 14.7988248414,
			"0.002": 7.73422668734,
			"0.003": 7.51750320542,
			"0.004": 12.9158561739,
			"0.005": 8.5602416346,
			"0.006": 3.48224382684,
			"0.007": 2.66827844414,
			"0.008": 2.05113115061,
			"0.009": 1.90148283581,
			"0.01": 3.00512128533,
			"0.011": 1.71941630499,
			"0.012": 1.02465228431,
			"0.013": 1.24305122605,
			"0.014": 0.934576223112,
			"0.015": 0.918313218666,
			"0.016": 0.867527370464,
			"0.017": 0.215467668377,
			"0.018": 0.0,
			"0.019": 0.0,
			"0.02": 0.0,
			"0.021": 0.0,
			"0.022": 0.0,
			"0.023": 0.0,
			"0.024": 0.0,
			"0.025": 0.0
		}
	}
}
