{
	 "smiles": "OCC1=C2N=CC=CC2=CC=C1Cl", 
	 "Tm": 367.15, 
	 "num_atms": 21, 
	 "gaussian": { 
		 "optdone": 1, 
		 "sigma_profile": "yes", 
		 "theory": "DFT", 
		 "functional": "B3LYP", 
		 "basiset": "6-31G**", 
		 "properties": { 
			 "R2extent": 3967.1337, 
			 "electric_dipole_moment_norm": 2.67693084707, 
			 "electric_quadrupole_moment_norm": 12.5323026121, 
			 "total_energy": -976.043579088, 
			 "HOMO_LUMO_gap": 0.17473, 
			 "cosmo_polarized_energy": -11.87, 
			 "cosmo_cavitation_energy": 26.49, 
			 "cosmo_dispersion_energy": -19.83, 
			 "cosmo_repulsion_energy": 1.56, 
			 "cosmo_total_nonelectrostatic_energy": 8.21, 
			 "SMD_solvation_energy": 3.21 
		},
		"coords": [
			{
				"x": -2.9221651581,
				"y": -0.7166680947,
				"z": -2.0265450467,
				"element": "O" 
			},
			{
				"x": -1.9963240379,
				"y": -1.7968469253,
				"z": -1.8946558406,
				"element": "C" 
			},
			{
				"x": -1.537408193,
				"y": -1.8381103845,
				"z": -0.4583384249,
				"element": "C" 
			},
			{
				"x": -0.2652886647,
				"y": -1.28343778,
				"z": -0.0940639902,
				"element": "C" 
			},
			{
				"x": 0.5233538801,
				"y": -0.7714506115,
				"z": -1.0827544835,
				"element": "N" 
			},
			{
				"x": 1.6915192411,
				"y": -0.2599472941,
				"z": -0.7523828259,
				"element": "C" 
			},
			{
				"x": 2.1925268442,
				"y": -0.2069121217,
				"z": 0.5713537127,
				"element": "C" 
			},
			{
				"x": 1.4187054799,
				"y": -0.7244580745,
				"z": 1.5822825186,
				"element": "C" 
			},
			{
				"x": 0.1534095251,
				"y": -1.28512308,
				"z": 1.2756221418,
				"element": "C" 
			},
			{
				"x": -0.700444303,
				"y": -1.8376028527,
				"z": 2.2630705562,
				"element": "C" 
			},
			{
				"x": -1.916525873,
				"y": -2.3691363392,
				"z": 1.9119521166,
				"element": "C" 
			},
			{
				"x": -2.3210876108,
				"y": -2.3589280162,
				"z": 0.5552300819,
				"element": "C" 
			},
			{
				"x": -3.8955070503,
				"y": -3.0605724458,
				"z": 0.203311271,
				"element": "Cl" 
			},
			{
				"x": -3.2193005345,
				"y": -0.7046189574,
				"z": -2.9453887,
				"element": "H" 
			},
			{
				"x": -2.4700681697,
				"y": -2.7561127969,
				"z": -2.1470321985,
				"element": "H" 
			},
			{
				"x": -1.1205039375,
				"y": -1.652814991,
				"z": -2.5344632312,
				"element": "H" 
			},
			{
				"x": 2.2911590377,
				"y": 0.1392267368,
				"z": -1.569982,
				"element": "H" 
			},
			{
				"x": 3.1658640134,
				"y": 0.2311824924,
				"z": 0.7670839335,
				"element": "H" 
			},
			{
				"x": 1.7585621374,
				"y": -0.7124143267,
				"z": 2.6148454105,
				"element": "H" 
			},
			{
				"x": -0.3823764435,
				"y": -1.8373630524,
				"z": 3.3021560041,
				"element": "H" 
			},
			{
				"x": -2.5785001829,
				"y": -2.7953910846,
				"z": 2.6570989948,
				"element": "H" 
			}
		],
		 "valence_orbital": [ 
			{
				"type": "occ",
				"energy": -0.30306,
				"method": "rhf"
			},
			{
				"type": "occ",
				"energy": -0.26555,
				"method": "rhf"
			},
			{
				"type": "occ",
				"energy": -0.25267,
				"method": "rhf"
			},
			{
				"type": "occ",
				"energy": -0.25144,
				"method": "rhf"
			},
			{
				"type": "occ",
				"energy": -0.23547,
				"method": "rhf"
			},
			{
				"type": "unocc",
				"energy": -0.06074,
				"method": "rhf"
			},
			{
				"type": "unocc",
				"energy": -0.02412,
				"method": "rhf"
			},
			{
				"type": "unocc",
				"energy": 0.0063,
				"method": "rhf"
			},
			{
				"type": "unocc",
				"energy": 0.0331,
				"method": "rhf"
			},
			{
				"type": "unocc",
				"energy": 0.07434,
				"method": "rhf"
			}
		],
		"cosmo_sigma_profile": { 
			"-0.025": 0.0,
			"-0.024": 0.0,
			"-0.023": 0.0,
			"-0.022": 0.0,
			"-0.021": 0.0,
			"-0.02": 0.0,
			"-0.019": 0.0,
			"-0.018": 0.0,
			"-0.017": 0.0,
			"-0.016": 0.470175300975,
			"-0.015": 1.02682007853,
			"-0.014": 1.05521636363,
			"-0.013": 1.20456424683,
			"-0.012": 0.690664601266,
			"-0.011": 0.531603012502,
			"-0.01": 0.678593709906,
			"-0.009": 0.930590866414,
			"-0.008": 4.18227635,
			"-0.007": 11.1858285228,
			"-0.006": 11.2785992161,
			"-0.005": 11.4753642536,
			"-0.004": 10.4612694203,
			"-0.003": 11.8577460216,
			"-0.002": 13.5958389081,
			"-0.001": 11.7085306702,
			"0.0": 15.4729578303,
			"0.001": 26.7836095405,
			"0.002": 22.8593661858,
			"0.003": 13.9347599425,
			"0.004": 10.4266889127,
			"0.005": 6.47008833739,
			"0.006": 2.78024684727,
			"0.007": 3.56292411298,
			"0.008": 3.42211453997,
			"0.009": 3.72880400474,
			"0.01": 2.63949501717,
			"0.011": 3.13836885658,
			"0.012": 3.60586632303,
			"0.013": 1.36400437918,
			"0.014": 1.68175361866,
			"0.015": 0.0603086815246,
			"0.016": 0.0,
			"0.017": 0.0,
			"0.018": 0.0,
			"0.019": 0.0,
			"0.02": 0.0,
			"0.021": 0.0,
			"0.022": 0.0,
			"0.023": 0.0,
			"0.024": 0.0,
			"0.025": 0.0
		}
	}
}
