{
	 "smiles": "CCN(CCCl)CCCl", 
	 "Tm": 239.15, 
	 "num_atms": 22, 
	 "gaussian": { 
		 "optdone": 1, 
		 "sigma_profile": "yes", 
		 "theory": "DFT", 
		 "functional": "B3LYP", 
		 "basiset": "6-31G**", 
		 "properties": { 
			 "R2extent": 3213.8112, 
			 "electric_dipole_moment_norm": 3.94636495398, 
			 "electric_quadrupole_moment_norm": 8.49749186937, 
			 "total_energy": -1211.60786556, 
			 "HOMO_LUMO_gap": 0.23502, 
			 "cosmo_polarized_energy": -8.69, 
			 "cosmo_cavitation_energy": 27.27, 
			 "cosmo_dispersion_energy": -19.42, 
			 "cosmo_repulsion_energy": 1.63, 
			 "cosmo_total_nonelectrostatic_energy": 9.49, 
			 "SMD_solvation_energy": 3.48 
		},
		"coords": [
			{
				"x": 2.4109369759,
				"y": -0.3528922008,
				"z": -0.2078213772,
				"element": "C" 
			},
			{
				"x": 1.4109452662,
				"y": -1.5014766208,
				"z": -0.4363789003,
				"element": "C" 
			},
			{
				"x": 0.0260354777,
				"y": -1.1291192178,
				"z": -0.6798453491,
				"element": "N" 
			},
			{
				"x": -0.4280554402,
				"y": -0.8508372146,
				"z": -2.0258338838,
				"element": "C" 
			},
			{
				"x": -0.1519096781,
				"y": 0.5845710969,
				"z": -2.5063087462,
				"element": "C" 
			},
			{
				"x": -0.8489329981,
				"y": 0.8553231338,
				"z": -4.1664128682,
				"element": "Cl" 
			},
			{
				"x": -0.7581759308,
				"y": -0.6531646261,
				"z": 0.4386087953,
				"element": "C" 
			},
			{
				"x": -1.3345213996,
				"y": -1.7635795731,
				"z": 1.3224036501,
				"element": "C" 
			},
			{
				"x": -2.5605956995,
				"y": -2.7745729888,
				"z": 0.4440044388,
				"element": "Cl" 
			},
			{
				"x": 2.5233236289,
				"y": 0.2718183068,
				"z": -1.0989478616,
				"element": "H" 
			},
			{
				"x": 2.099091511,
				"y": 0.2945604617,
				"z": 0.6188280665,
				"element": "H" 
			},
			{
				"x": 3.3985136277,
				"y": -0.7551765223,
				"z": 0.0443468729,
				"element": "H" 
			},
			{
				"x": 1.7461245558,
				"y": -2.1124878113,
				"z": -1.2828713232,
				"element": "H" 
			},
			{
				"x": 1.4415831433,
				"y": -2.1663246408,
				"z": 0.4382994591,
				"element": "H" 
			},
			{
				"x": -1.5050715901,
				"y": -1.0390318237,
				"z": -2.089097372,
				"element": "H" 
			},
			{
				"x": 0.0523532509,
				"y": -1.5530103774,
				"z": -2.7165509667,
				"element": "H" 
			},
			{
				"x": -0.615771383,
				"y": 1.325019936,
				"z": -1.8516717969,
				"element": "H" 
			},
			{
				"x": 0.914759734,
				"y": 0.79585843,
				"z": -2.5837510883,
				"element": "H" 
			},
			{
				"x": -0.1673368482,
				"y": -0.0030863248,
				"z": 1.1067681464,
				"element": "H" 
			},
			{
				"x": -1.585172865,
				"y": -0.0375511579,
				"z": 0.0707878117,
				"element": "H" 
			},
			{
				"x": -1.8433214706,
				"y": -1.3415453335,
				"z": 2.1919808209,
				"element": "H" 
			},
			{
				"x": -0.5597018682,
				"y": -2.4524949316,
				"z": 1.6628634716,
				"element": "H" 
			}
		],
		 "valence_orbital": [ 
			{
				"type": "occ",
				"energy": -0.29774,
				"method": "rhf"
			},
			{
				"type": "occ",
				"energy": -0.29635,
				"method": "rhf"
			},
			{
				"type": "occ",
				"energy": -0.29323,
				"method": "rhf"
			},
			{
				"type": "occ",
				"energy": -0.29199,
				"method": "rhf"
			},
			{
				"type": "occ",
				"energy": -0.21113,
				"method": "rhf"
			},
			{
				"type": "unocc",
				"energy": 0.02389,
				"method": "rhf"
			},
			{
				"type": "unocc",
				"energy": 0.02748,
				"method": "rhf"
			},
			{
				"type": "unocc",
				"energy": 0.06848,
				"method": "rhf"
			},
			{
				"type": "unocc",
				"energy": 0.09062,
				"method": "rhf"
			},
			{
				"type": "unocc",
				"energy": 0.10257,
				"method": "rhf"
			}
		],
		"cosmo_sigma_profile": { 
			"-0.025": 0.0,
			"-0.024": 0.0,
			"-0.023": 0.0,
			"-0.022": 0.0,
			"-0.021": 0.0,
			"-0.02": 0.0,
			"-0.019": 0.0,
			"-0.018": 0.0,
			"-0.017": 0.0,
			"-0.016": 0.0,
			"-0.015": 0.0,
			"-0.014": 0.0,
			"-0.013": 0.0,
			"-0.012": 0.0,
			"-0.011": 0.0,
			"-0.01": 0.0,
			"-0.009": 0.0,
			"-0.008": 0.0,
			"-0.007": 2.75088646633,
			"-0.006": 13.1748422418,
			"-0.005": 17.1488963826,
			"-0.004": 23.2134700813,
			"-0.003": 20.6512588835,
			"-0.002": 17.8149333324,
			"-0.001": 17.7237846247,
			"0.0": 15.9240343224,
			"0.001": 15.1395410877,
			"0.002": 9.89442052958,
			"0.003": 9.18855035428,
			"0.004": 7.3164188101,
			"0.005": 11.5459092441,
			"0.006": 13.8477009642,
			"0.007": 17.4114797842,
			"0.008": 2.44203418713,
			"0.009": 1.15691935159,
			"0.01": 0.503532274703,
			"0.011": 0.0112783552979,
			"0.012": 0.0,
			"0.013": 0.0,
			"0.014": 0.0,
			"0.015": 0.0,
			"0.016": 0.0,
			"0.017": 0.0,
			"0.018": 0.0,
			"0.019": 0.0,
			"0.02": 0.0,
			"0.021": 0.0,
			"0.022": 0.0,
			"0.023": 0.0,
			"0.024": 0.0,
			"0.025": 0.0
		}
	}
}
