{
	 "smiles": "COC1=CC(=C(C=C1OC)[N+]([O-])=O)[N+]([O-])=O", 
	 "Tm": 406.15, 
	 "num_atms": 24, 
	 "gaussian": { 
		 "optdone": 1, 
		 "sigma_profile": "yes", 
		 "theory": "DFT", 
		 "functional": "B3LYP", 
		 "basiset": "6-31G**", 
		 "properties": { 
			 "R2extent": 4710.5441, 
			 "electric_dipole_moment_norm": 7.95394966227, 
			 "electric_quadrupole_moment_norm": 16.9229970508, 
			 "total_energy": -870.261203978, 
			 "HOMO_LUMO_gap": 0.16404, 
			 "cosmo_polarized_energy": -13.89, 
			 "cosmo_cavitation_energy": 30.09, 
			 "cosmo_dispersion_energy": -21.14, 
			 "cosmo_repulsion_energy": 1.66, 
			 "cosmo_total_nonelectrostatic_energy": 10.61, 
			 "SMD_solvation_energy": 11.42 
		},
		"coords": [
			{
				"x": -2.2213913764,
				"y": -1.3092252851,
				"z": -0.7289453705,
				"element": "C" 
			},
			{
				"x": -0.8488788509,
				"y": -0.905768924,
				"z": -0.8942916764,
				"element": "O" 
			},
			{
				"x": -0.3047506583,
				"y": -0.2211663662,
				"z": 0.154328784,
				"element": "C" 
			},
			{
				"x": 0.0869572082,
				"y": 1.1033048667,
				"z": -0.0497942654,
				"element": "C" 
			},
			{
				"x": 0.664619839,
				"y": 1.8365430394,
				"z": 0.9799043788,
				"element": "C" 
			},
			{
				"x": 0.8351271091,
				"y": 1.2547993916,
				"z": 2.2401204877,
				"element": "C" 
			},
			{
				"x": 0.4770983403,
				"y": -0.072360074,
				"z": 2.4451847494,
				"element": "C" 
			},
			{
				"x": -0.0756630191,
				"y": -0.827194769,
				"z": 1.4088569694,
				"element": "C" 
			},
			{
				"x": -0.4298530389,
				"y": -2.1206755515,
				"z": 1.6658041301,
				"element": "O" 
			},
			{
				"x": 0.3046496583,
				"y": -3.1229346444,
				"z": 0.9378658625,
				"element": "C" 
			},
			{
				"x": 1.2876417569,
				"y": 2.0167289198,
				"z": 3.4163785013,
				"element": "N" 
			},
			{
				"x": 0.8883275868,
				"y": 3.1707452083,
				"z": 3.5206939782,
				"element": "O" 
			},
			{
				"x": 1.9841222092,
				"y": 1.4164379284,
				"z": 4.2309619459,
				"element": "O" 
			},
			{
				"x": 1.1678888067,
				"y": 3.1797952586,
				"z": 0.6463881406,
				"element": "N" 
			},
			{
				"x": 0.5009028439,
				"y": 3.8404966481,
				"z": -0.1458374577,
				"element": "O" 
			},
			{
				"x": 2.2398418708,
				"y": 3.5119887783,
				"z": 1.1390318016,
				"element": "O" 
			},
			{
				"x": -2.3439305755,
				"y": -1.9568320876,
				"z": 0.143313015,
				"element": "H" 
			},
			{
				"x": -2.4833979933,
				"y": -1.8518952481,
				"z": -1.6378963402,
				"element": "H" 
			},
			{
				"x": -2.866247248,
				"y": -0.4289674623,
				"z": -0.6299233155,
				"element": "H" 
			},
			{
				"x": -0.0560466005,
				"y": 1.5606403754,
				"z": -1.0211425395,
				"element": "H" 
			},
			{
				"x": 0.6225716253,
				"y": -0.5245238967,
				"z": 3.4185908725,
				"element": "H" 
			},
			{
				"x": -0.1144275934,
				"y": -4.08143536,
				"z": 1.2461019445,
				"element": "H" 
			},
			{
				"x": 0.1916405482,
				"y": -2.9938493795,
				"z": -0.141875063,
				"element": "H" 
			},
			{
				"x": 1.3662975515,
				"y": -3.0848513665,
				"z": 1.2060804667,
				"element": "H" 
			}
		],
		 "valence_orbital": [ 
			{
				"type": "occ",
				"energy": -0.31291,
				"method": "rhf"
			},
			{
				"type": "occ",
				"energy": -0.30347,
				"method": "rhf"
			},
			{
				"type": "occ",
				"energy": -0.29952,
				"method": "rhf"
			},
			{
				"type": "occ",
				"energy": -0.28644,
				"method": "rhf"
			},
			{
				"type": "occ",
				"energy": -0.26996,
				"method": "rhf"
			},
			{
				"type": "unocc",
				"energy": -0.10592,
				"method": "rhf"
			},
			{
				"type": "unocc",
				"energy": -0.08042,
				"method": "rhf"
			},
			{
				"type": "unocc",
				"energy": -0.03848,
				"method": "rhf"
			},
			{
				"type": "unocc",
				"energy": -0.02186,
				"method": "rhf"
			},
			{
				"type": "unocc",
				"energy": 0.05245,
				"method": "rhf"
			}
		],
		"cosmo_sigma_profile": { 
			"-0.025": 0.0,
			"-0.024": 0.0,
			"-0.023": 0.0,
			"-0.022": 0.0,
			"-0.021": 0.0,
			"-0.02": 0.0,
			"-0.019": 0.0,
			"-0.018": 0.0,
			"-0.017": 0.0,
			"-0.016": 0.0,
			"-0.015": 0.0,
			"-0.014": 0.0,
			"-0.013": 0.0,
			"-0.012": 0.0,
			"-0.011": 0.0,
			"-0.01": 0.195418532349,
			"-0.009": 2.72164830712,
			"-0.008": 3.54755890009,
			"-0.007": 6.33656485882,
			"-0.006": 12.399165459,
			"-0.005": 17.6877760296,
			"-0.004": 26.3139559869,
			"-0.003": 33.4733005119,
			"-0.002": 20.2969566521,
			"-0.001": 13.2951369474,
			"0.0": 9.06532300287,
			"0.001": 7.83146043883,
			"0.002": 7.89280689892,
			"0.003": 7.52435301421,
			"0.004": 8.19420805833,
			"0.005": 8.95851955211,
			"0.006": 16.5132800507,
			"0.007": 19.5477963013,
			"0.008": 11.1815109167,
			"0.009": 6.16162868502,
			"0.01": 1.42967846683,
			"0.011": 0.0,
			"0.012": 0.0,
			"0.013": 0.0,
			"0.014": 0.0,
			"0.015": 0.0,
			"0.016": 0.0,
			"0.017": 0.0,
			"0.018": 0.0,
			"0.019": 0.0,
			"0.02": 0.0,
			"0.021": 0.0,
			"0.022": 0.0,
			"0.023": 0.0,
			"0.024": 0.0,
			"0.025": 0.0
		}
	}
}
