{
	 "smiles": "NC1=CC=C(CC(F)(F)F)C=C1", 
	 "Tm": 320.15, 
	 "num_atms": 20, 
	 "gaussian": { 
		 "optdone": 1, 
		 "sigma_profile": "yes", 
		 "theory": "DFT", 
		 "functional": "B3LYP", 
		 "basiset": "6-31G**", 
		 "properties": { 
			 "R2extent": 2984.7757, 
			 "electric_dipole_moment_norm": 2.77695234745, 
			 "electric_quadrupole_moment_norm": 14.5473977924, 
			 "total_energy": -663.964220574, 
			 "HOMO_LUMO_gap": 0.20343, 
			 "cosmo_polarized_energy": -9.28, 
			 "cosmo_cavitation_energy": 25.23, 
			 "cosmo_dispersion_energy": -17.88, 
			 "cosmo_repulsion_energy": 1.38, 
			 "cosmo_total_nonelectrostatic_energy": 8.73, 
			 "SMD_solvation_energy": 5.25 
		},
		"coords": [
			{
				"x": 1.1255196365,
				"y": -3.030414897,
				"z": 0.8562337221,
				"element": "N" 
			},
			{
				"x": 0.8546368584,
				"y": -1.7204346286,
				"z": 0.4602679925,
				"element": "C" 
			},
			{
				"x": 1.6177397912,
				"y": -0.6469574449,
				"z": 0.9515422032,
				"element": "C" 
			},
			{
				"x": 1.3053661504,
				"y": 0.6621767396,
				"z": 0.599893169,
				"element": "C" 
			},
			{
				"x": 0.226382244,
				"y": 0.9525972133,
				"z": -0.2439234073,
				"element": "C" 
			},
			{
				"x": -0.0900869617,
				"y": 2.3745922228,
				"z": -0.6431012694,
				"element": "C" 
			},
			{
				"x": 0.6307883552,
				"y": 2.8227091328,
				"z": -1.902018856,
				"element": "C" 
			},
			{
				"x": 0.3054482904,
				"y": 2.0589297955,
				"z": -2.9676962389,
				"element": "F" 
			},
			{
				"x": 0.3111946106,
				"y": 4.1012055148,
				"z": -2.212273047,
				"element": "F" 
			},
			{
				"x": 1.973079427,
				"y": 2.7687946767,
				"z": -1.7601489874,
				"element": "F" 
			},
			{
				"x": -0.5280445744,
				"y": -0.1202453353,
				"z": -0.7343181662,
				"element": "C" 
			},
			{
				"x": -0.2268759888,
				"y": -1.4341543214,
				"z": -0.3908587118,
				"element": "C" 
			},
			{
				"x": 0.7948153787,
				"y": -3.748128842,
				"z": 0.2261133023,
				"element": "H" 
			},
			{
				"x": 2.0748658767,
				"y": -3.2018346611,
				"z": 1.1577078348,
				"element": "H" 
			},
			{
				"x": 2.4557650459,
				"y": -0.8448316376,
				"z": 1.615407027,
				"element": "H" 
			},
			{
				"x": 1.9154040455,
				"y": 1.4738029433,
				"z": 0.9881260949,
				"element": "H" 
			},
			{
				"x": 0.189434213,
				"y": 3.0803631608,
				"z": 0.1452569792,
				"element": "H" 
			},
			{
				"x": -1.1600656989,
				"y": 2.5056996362,
				"z": -0.8321416987,
				"element": "H" 
			},
			{
				"x": -1.365551197,
				"y": 0.0736145308,
				"z": -1.3995950137,
				"element": "H" 
			},
			{
				"x": -0.8338155027,
				"y": -2.2486837986,
				"z": -0.7785729286,
				"element": "H" 
			}
		],
		 "valence_orbital": [ 
			{
				"type": "occ",
				"energy": -0.35224,
				"method": "rhf"
			},
			{
				"type": "occ",
				"energy": -0.33877,
				"method": "rhf"
			},
			{
				"type": "occ",
				"energy": -0.30618,
				"method": "rhf"
			},
			{
				"type": "occ",
				"energy": -0.24977,
				"method": "rhf"
			},
			{
				"type": "occ",
				"energy": -0.2044,
				"method": "rhf"
			},
			{
				"type": "unocc",
				"energy": -0.00097,
				"method": "rhf"
			},
			{
				"type": "unocc",
				"energy": 0.00985,
				"method": "rhf"
			},
			{
				"type": "unocc",
				"energy": 0.07765,
				"method": "rhf"
			},
			{
				"type": "unocc",
				"energy": 0.09524,
				"method": "rhf"
			},
			{
				"type": "unocc",
				"energy": 0.11434,
				"method": "rhf"
			}
		],
		"cosmo_sigma_profile": { 
			"-0.025": 0.0,
			"-0.024": 0.0,
			"-0.023": 0.0,
			"-0.022": 0.0,
			"-0.021": 0.0,
			"-0.02": 0.0,
			"-0.019": 0.0,
			"-0.018": 0.0,
			"-0.017": 0.0,
			"-0.016": 0.0,
			"-0.015": 0.0,
			"-0.014": 0.0,
			"-0.013": 0.340516134171,
			"-0.012": 2.5091116857,
			"-0.011": 2.61065396733,
			"-0.01": 2.39129079908,
			"-0.009": 3.63629435583,
			"-0.008": 2.9045877921,
			"-0.007": 5.63780526567,
			"-0.006": 12.07926328,
			"-0.005": 12.1537446622,
			"-0.004": 12.1718370358,
			"-0.003": 11.3105317216,
			"-0.002": 8.810421425,
			"-0.001": 8.63667235059,
			"0.0": 7.9699340559,
			"0.001": 8.44408424324,
			"0.002": 12.2843838199,
			"0.003": 34.6115153014,
			"0.004": 22.1345908781,
			"0.005": 9.33885363847,
			"0.006": 10.7466325234,
			"0.007": 4.34060190352,
			"0.008": 0.59597424798,
			"0.009": 0.48153362051,
			"0.01": 0.789699209539,
			"0.011": 1.16429903886,
			"0.012": 0.61082959648,
			"0.013": 0.657259559712,
			"0.014": 0.43707682557,
			"0.015": 0.217900916416,
			"0.016": 0.0,
			"0.017": 0.0,
			"0.018": 0.0,
			"0.019": 0.0,
			"0.02": 0.0,
			"0.021": 0.0,
			"0.022": 0.0,
			"0.023": 0.0,
			"0.024": 0.0,
			"0.025": 0.0
		}
	}
}
