{
	 "smiles": "C1CCCCCCCCCC1", 
	 "Tm": 266.15, 
	 "num_atms": 33, 
	 "gaussian": { 
		 "optdone": 1, 
		 "sigma_profile": "yes", 
		 "theory": "DFT", 
		 "functional": "B3LYP", 
		 "basiset": "6-31G**", 
		 "properties": { 
			 "R2extent": 2426.9924, 
			 "electric_dipole_moment_norm": 0.0531733015714, 
			 "electric_quadrupole_moment_norm": 0.297894041565, 
			 "total_energy": -432.447532195, 
			 "HOMO_LUMO_gap": 0.37446, 
			 "cosmo_polarized_energy": -0.7, 
			 "cosmo_cavitation_energy": 28.66, 
			 "cosmo_dispersion_energy": -21.71, 
			 "cosmo_repulsion_energy": 1.73, 
			 "cosmo_total_nonelectrostatic_energy": 8.68, 
			 "SMD_solvation_energy": 3.32 
		},
		"coords": [
			{
				"x": 1.4978203371,
				"y": -2.5290485254,
				"z": 1.6737967458,
				"element": "C" 
			},
			{
				"x": 1.791132216,
				"y": -2.2463765996,
				"z": 0.1727638109,
				"element": "C" 
			},
			{
				"x": 0.63020758,
				"y": -2.532229147,
				"z": -0.7980843194,
				"element": "C" 
			},
			{
				"x": 0.7434573228,
				"y": -1.8161933948,
				"z": -2.1583788993,
				"element": "C" 
			},
			{
				"x": 0.7186524984,
				"y": -0.274193327,
				"z": -2.0955340252,
				"element": "C" 
			},
			{
				"x": -0.5896919532,
				"y": 0.3402714035,
				"z": -1.5338453979,
				"element": "C" 
			},
			{
				"x": -0.3900345531,
				"y": 1.4838151696,
				"z": -0.5171351681,
				"element": "C" 
			},
			{
				"x": 0.3191708561,
				"y": 1.0960256542,
				"z": 0.7966092067,
				"element": "C" 
			},
			{
				"x": -0.4333446816,
				"y": 0.0543789418,
				"z": 1.6386627462,
				"element": "C" 
			},
			{
				"x": 0.3232295922,
				"y": -0.4901161783,
				"z": 2.8627472029,
				"element": "C" 
			},
			{
				"x": 1.6146899924,
				"y": -1.2976597869,
				"z": 2.6083452418,
				"element": "C" 
			},
			{
				"x": 2.1974856778,
				"y": -3.2923204688,
				"z": 2.0327158579,
				"element": "H" 
			},
			{
				"x": 0.5002162853,
				"y": -2.9759074283,
				"z": 1.7842090823,
				"element": "H" 
			},
			{
				"x": 2.096992483,
				"y": -1.2010898935,
				"z": 0.0715508881,
				"element": "H" 
			},
			{
				"x": 2.6634409123,
				"y": -2.8292552536,
				"z": -0.1490860203,
				"element": "H" 
			},
			{
				"x": 0.5586937427,
				"y": -3.6141011301,
				"z": -0.9708084048,
				"element": "H" 
			},
			{
				"x": -0.3186365757,
				"y": -2.2539105385,
				"z": -0.3250893268,
				"element": "H" 
			},
			{
				"x": -0.0762456819,
				"y": -2.1601723258,
				"z": -2.8038037793,
				"element": "H" 
			},
			{
				"x": 1.6712714668,
				"y": -2.1315425255,
				"z": -2.6554523383,
				"element": "H" 
			},
			{
				"x": 0.8958826972,
				"y": 0.1127651217,
				"z": -3.1063509348,
				"element": "H" 
			},
			{
				"x": 1.5744808254,
				"y": 0.0726868873,
				"z": -1.5056338542,
				"element": "H" 
			},
			{
				"x": -1.1946833357,
				"y": 0.7235070062,
				"z": -2.3645643354,
				"element": "H" 
			},
			{
				"x": -1.2028425126,
				"y": -0.4420587892,
				"z": -1.0730640248,
				"element": "H" 
			},
			{
				"x": -1.3732886762,
				"y": 1.9112232361,
				"z": -0.2763401638,
				"element": "H" 
			},
			{
				"x": 0.1802860466,
				"y": 2.2910272815,
				"z": -0.9968494865,
				"element": "H" 
			},
			{
				"x": 1.3286119793,
				"y": 0.734484811,
				"z": 0.5703814023,
				"element": "H" 
			},
			{
				"x": 0.4631386128,
				"y": 2.0040716581,
				"z": 1.3979350356,
				"element": "H" 
			},
			{
				"x": -1.3755770416,
				"y": 0.5008982034,
				"z": 1.9859443514,
				"element": "H" 
			},
			{
				"x": -0.7277663107,
				"y": -0.7907642598,
				"z": 1.0090548171,
				"element": "H" 
			},
			{
				"x": 0.5708212305,
				"y": 0.3439975989,
				"z": 3.5344161596,
				"element": "H" 
			},
			{
				"x": -0.3698902103,
				"y": -1.1304850282,
				"z": 3.4257133388,
				"element": "H" 
			},
			{
				"x": 1.9692270497,
				"y": -1.6344676128,
				"z": 3.5909145602,
				"element": "H" 
			},
			{
				"x": 2.4043921281,
				"y": -0.6367607603,
				"z": 2.2272600313,
				"element": "H" 
			}
		],
		 "valence_orbital": [ 
			{
				"type": "occ",
				"energy": -0.3039,
				"method": "rhf"
			},
			{
				"type": "occ",
				"energy": -0.30029,
				"method": "rhf"
			},
			{
				"type": "occ",
				"energy": -0.2979,
				"method": "rhf"
			},
			{
				"type": "occ",
				"energy": -0.29739,
				"method": "rhf"
			},
			{
				"type": "occ",
				"energy": -0.29254,
				"method": "rhf"
			},
			{
				"type": "unocc",
				"energy": 0.08192,
				"method": "rhf"
			},
			{
				"type": "unocc",
				"energy": 0.09194,
				"method": "rhf"
			},
			{
				"type": "unocc",
				"energy": 0.10029,
				"method": "rhf"
			},
			{
				"type": "unocc",
				"energy": 0.10834,
				"method": "rhf"
			},
			{
				"type": "unocc",
				"energy": 0.11169,
				"method": "rhf"
			}
		],
		"cosmo_sigma_profile": { 
			"-0.025": 0.0,
			"-0.024": 0.0,
			"-0.023": 0.0,
			"-0.022": 0.0,
			"-0.021": 0.0,
			"-0.02": 0.0,
			"-0.019": 0.0,
			"-0.018": 0.0,
			"-0.017": 0.0,
			"-0.016": 0.0,
			"-0.015": 0.0,
			"-0.014": 0.0,
			"-0.013": 0.0,
			"-0.012": 0.0,
			"-0.011": 0.0,
			"-0.01": 0.0,
			"-0.009": 0.0,
			"-0.008": 0.0,
			"-0.007": 0.0,
			"-0.006": 0.0,
			"-0.005": 0.000446231912693,
			"-0.004": 1.00399656549,
			"-0.003": 4.09507827779,
			"-0.002": 23.2484195713,
			"-0.001": 46.2615827995,
			"0.0": 60.0846114441,
			"0.001": 57.9219458186,
			"0.002": 25.8030005978,
			"0.003": 0.0930261515278,
			"0.004": 0.0,
			"0.005": 0.0,
			"0.006": 0.0,
			"0.007": 0.0,
			"0.008": 0.0,
			"0.009": 0.0,
			"0.01": 0.0,
			"0.011": 0.0,
			"0.012": 0.0,
			"0.013": 0.0,
			"0.014": 0.0,
			"0.015": 0.0,
			"0.016": 0.0,
			"0.017": 0.0,
			"0.018": 0.0,
			"0.019": 0.0,
			"0.02": 0.0,
			"0.021": 0.0,
			"0.022": 0.0,
			"0.023": 0.0,
			"0.024": 0.0,
			"0.025": 0.0
		}
	}
}
