{
	 "smiles": "NC1=CC=C(N)N=C1", 
	 "Tm": 383.15, 
	 "num_atms": 15, 
	 "gaussian": { 
		 "optdone": 1, 
		 "sigma_profile": "yes", 
		 "theory": "DFT", 
		 "functional": "B3LYP", 
		 "basiset": "6-31G**", 
		 "properties": { 
			 "R2extent": 1678.845, 
			 "electric_dipole_moment_norm": 2.83246255227, 
			 "electric_quadrupole_moment_norm": 12.3649356549, 
			 "total_energy": -359.007148813, 
			 "HOMO_LUMO_gap": 0.17273, 
			 "cosmo_polarized_energy": -13.35, 
			 "cosmo_cavitation_energy": 18.82, 
			 "cosmo_dispersion_energy": -14.38, 
			 "cosmo_repulsion_energy": 1.21, 
			 "cosmo_total_nonelectrostatic_energy": 5.65, 
			 "SMD_solvation_energy": 1.86 
		},
		"coords": [
			{
				"x": -0.1548496747,
				"y": 1.3303650681,
				"z": 2.1868422785,
				"element": "N" 
			},
			{
				"x": 0.6456785066,
				"y": 1.2016306992,
				"z": 1.0384117942,
				"element": "C" 
			},
			{
				"x": 0.7578774237,
				"y": -0.0159722444,
				"z": 0.3469451837,
				"element": "C" 
			},
			{
				"x": 1.6106908312,
				"y": -0.1168664561,
				"z": -0.7417534226,
				"element": "C" 
			},
			{
				"x": 2.3479747984,
				"y": 1.0153762461,
				"z": -1.1368091518,
				"element": "C" 
			},
			{
				"x": 3.2633887615,
				"y": 0.9595958332,
				"z": -2.1890877542,
				"element": "N" 
			},
			{
				"x": 2.2444730712,
				"y": 2.183238705,
				"z": -0.4925700883,
				"element": "N" 
			},
			{
				"x": 1.4237427961,
				"y": 2.2624940416,
				"z": 0.5599592375,
				"element": "C" 
			},
			{
				"x": -0.4062924201,
				"y": 2.2875503723,
				"z": 2.4001504381,
				"element": "H" 
			},
			{
				"x": -0.9805235603,
				"y": 0.7448080899,
				"z": 2.1791947137,
				"element": "H" 
			},
			{
				"x": 0.1832002486,
				"y": -0.8804759298,
				"z": 0.6713430202,
				"element": "H" 
			},
			{
				"x": 1.7147285656,
				"y": -1.056518946,
				"z": -1.276581468,
				"element": "H" 
			},
			{
				"x": 3.0196348332,
				"y": 0.3360230662,
				"z": -2.9462087388,
				"element": "H" 
			},
			{
				"x": 3.5320487104,
				"y": 1.880979804,
				"z": -2.5093601392,
				"element": "H" 
			},
			{
				"x": 1.3757271085,
				"y": 3.2330716507,
				"z": 1.055624097,
				"element": "H" 
			}
		],
		 "valence_orbital": [ 
			{
				"type": "occ",
				"energy": -0.34003,
				"method": "rhf"
			},
			{
				"type": "occ",
				"energy": -0.27571,
				"method": "rhf"
			},
			{
				"type": "occ",
				"energy": -0.26173,
				"method": "rhf"
			},
			{
				"type": "occ",
				"energy": -0.24605,
				"method": "rhf"
			},
			{
				"type": "occ",
				"energy": -0.18145,
				"method": "rhf"
			},
			{
				"type": "unocc",
				"energy": -0.00872,
				"method": "rhf"
			},
			{
				"type": "unocc",
				"energy": 0.02936,
				"method": "rhf"
			},
			{
				"type": "unocc",
				"energy": 0.08185,
				"method": "rhf"
			},
			{
				"type": "unocc",
				"energy": 0.09772,
				"method": "rhf"
			},
			{
				"type": "unocc",
				"energy": 0.11504,
				"method": "rhf"
			}
		],
		"cosmo_sigma_profile": { 
			"-0.025": 0.0,
			"-0.024": 0.0,
			"-0.023": 0.0,
			"-0.022": 0.0,
			"-0.021": 0.0,
			"-0.02": 0.0,
			"-0.019": 0.0,
			"-0.018": 0.0,
			"-0.017": 0.0,
			"-0.016": 0.0,
			"-0.015": 0.0,
			"-0.014": 0.0,
			"-0.013": 0.13446948957,
			"-0.012": 2.87049618613,
			"-0.011": 5.37132868173,
			"-0.01": 5.39178315497,
			"-0.009": 5.78027738414,
			"-0.008": 5.9940956218,
			"-0.007": 6.53520264951,
			"-0.006": 8.95493411936,
			"-0.005": 7.08621468382,
			"-0.004": 6.72194763126,
			"-0.003": 6.66151380902,
			"-0.002": 5.30944626203,
			"-0.001": 4.8335885298,
			"0.0": 5.47324236769,
			"0.001": 5.55207860489,
			"0.002": 5.94909780105,
			"0.003": 6.94393259356,
			"0.004": 12.1046130468,
			"0.005": 11.0325557908,
			"0.006": 5.21808966033,
			"0.007": 3.28697105729,
			"0.008": 2.62825591987,
			"0.009": 3.56635031603,
			"0.01": 3.33042607573,
			"0.011": 2.51901071221,
			"0.012": 2.10021889266,
			"0.013": 1.68752622019,
			"0.014": 3.00142833244,
			"0.015": 1.30422131532,
			"0.016": 1.24781303143,
			"0.017": 0.195326808582,
			"0.018": 0.0,
			"0.019": 0.0,
			"0.02": 0.0,
			"0.021": 0.0,
			"0.022": 0.0,
			"0.023": 0.0,
			"0.024": 0.0,
			"0.025": 0.0
		}
	}
}
