{
	 "smiles": "CCCCC(O)(CN1C=NC=N1)C1=C(Cl)C=C(Cl)C=C1", 
	 "Tm": 384.15, 
	 "num_atms": 37, 
	 "gaussian": { 
		 "optdone": 1, 
		 "sigma_profile": "yes", 
		 "theory": "DFT", 
		 "functional": "B3LYP", 
		 "basiset": "6-31G**", 
		 "properties": { 
			 "R2extent": 7991.3664, 
			 "electric_dipole_moment_norm": 2.25059340841, 
			 "electric_quadrupole_moment_norm": 14.1593866968, 
			 "total_energy": -1703.57942767, 
			 "HOMO_LUMO_gap": 0.21986, 
			 "cosmo_polarized_energy": -14.45, 
			 "cosmo_cavitation_energy": 42.52, 
			 "cosmo_dispersion_energy": -28.79, 
			 "cosmo_repulsion_energy": 2.22, 
			 "cosmo_total_nonelectrostatic_energy": 15.96, 
			 "SMD_solvation_energy": 4.16 
		},
		"coords": [
			{
				"x": -0.1131989451,
				"y": 2.116429731,
				"z": -4.6640872932,
				"element": "C" 
			},
			{
				"x": 0.5373494216,
				"y": 0.7387399701,
				"z": -4.4891314911,
				"element": "C" 
			},
			{
				"x": 1.5233803797,
				"y": 0.6399224226,
				"z": -3.311054486,
				"element": "C" 
			},
			{
				"x": 0.842388562,
				"y": 0.7637305832,
				"z": -1.9388310638,
				"element": "C" 
			},
			{
				"x": 1.8021117301,
				"y": 0.7304660348,
				"z": -0.7272597559,
				"element": "C" 
			},
			{
				"x": 2.7984686521,
				"y": 1.6999177702,
				"z": -1.0410389765,
				"element": "O" 
			},
			{
				"x": 2.5171383585,
				"y": -0.6554751747,
				"z": -0.6112071525,
				"element": "C" 
			},
			{
				"x": 1.6398957039,
				"y": -1.7938227132,
				"z": -0.3912542832,
				"element": "N" 
			},
			{
				"x": 1.1011645922,
				"y": -2.6566542296,
				"z": -1.2871906093,
				"element": "C" 
			},
			{
				"x": 0.3492683431,
				"y": -3.5555555606,
				"z": -0.6756705451,
				"element": "N" 
			},
			{
				"x": 0.4647200952,
				"y": -3.1898560872,
				"z": 0.6322591124,
				"element": "C" 
			},
			{
				"x": 1.2331635601,
				"y": -2.1346524425,
				"z": 0.8614114873,
				"element": "N" 
			},
			{
				"x": 1.0740294888,
				"y": 1.0737340025,
				"z": 0.5969918098,
				"element": "C" 
			},
			{
				"x": 1.7332095244,
				"y": 1.3931390829,
				"z": 1.7985318325,
				"element": "C" 
			},
			{
				"x": 3.505652875,
				"y": 1.4330649308,
				"z": 1.9326306925,
				"element": "Cl" 
			},
			{
				"x": 1.0615873066,
				"y": 1.6989775354,
				"z": 2.9803413656,
				"element": "C" 
			},
			{
				"x": -0.3294056658,
				"y": 1.681712679,
				"z": 2.9881415825,
				"element": "C" 
			},
			{
				"x": -1.1855295106,
				"y": 2.0650476008,
				"z": 4.4682521921,
				"element": "Cl" 
			},
			{
				"x": -1.0353918051,
				"y": 1.363012743,
				"z": 1.8337149284,
				"element": "C" 
			},
			{
				"x": -0.3286152919,
				"y": 1.0679172564,
				"z": 0.6707667197,
				"element": "C" 
			},
			{
				"x": -0.7498448519,
				"y": 2.1374099385,
				"z": -5.5544803292,
				"element": "H" 
			},
			{
				"x": 0.6463728555,
				"y": 2.8980348564,
				"z": -4.7789105231,
				"element": "H" 
			},
			{
				"x": -0.7411230965,
				"y": 2.3893171334,
				"z": -3.8096897446,
				"element": "H" 
			},
			{
				"x": -0.2447907539,
				"y": -0.0253729169,
				"z": -4.378716357,
				"element": "H" 
			},
			{
				"x": 1.0779583138,
				"y": 0.4850288207,
				"z": -5.4095114297,
				"element": "H" 
			},
			{
				"x": 2.0490530977,
				"y": -0.3207480502,
				"z": -3.3869701117,
				"element": "H" 
			},
			{
				"x": 2.2894916905,
				"y": 1.4161710633,
				"z": -3.4015267684,
				"element": "H" 
			},
			{
				"x": 0.0959937197,
				"y": -0.0319423595,
				"z": -1.8371296398,
				"element": "H" 
			},
			{
				"x": 0.3053233792,
				"y": 1.716169926,
				"z": -1.8961929673,
				"element": "H" 
			},
			{
				"x": 3.41824404,
				"y": 1.7702489101,
				"z": -0.3016960395,
				"element": "H" 
			},
			{
				"x": 3.0731547873,
				"y": -0.8260181394,
				"z": -1.534869834,
				"element": "H" 
			},
			{
				"x": 3.2299866491,
				"y": -0.6376084071,
				"z": 0.2136107675,
				"element": "H" 
			},
			{
				"x": 1.2920129663,
				"y": -2.5958301331,
				"z": -2.3498570657,
				"element": "H" 
			},
			{
				"x": -0.0242160146,
				"y": -3.7184798405,
				"z": 1.4390765312,
				"element": "H" 
			},
			{
				"x": 1.6179876528,
				"y": 1.9426908748,
				"z": 3.8766924789,
				"element": "H" 
			},
			{
				"x": -2.1190829727,
				"y": 1.3437344136,
				"z": 1.839719437,
				"element": "H" 
			},
			{
				"x": -0.9032088373,
				"y": 0.8195977746,
				"z": -0.2116644709,
				"element": "H" 
			}
		],
		 "valence_orbital": [ 
			{
				"type": "occ",
				"energy": -0.28144,
				"method": "rhf"
			},
			{
				"type": "occ",
				"energy": -0.27623,
				"method": "rhf"
			},
			{
				"type": "occ",
				"energy": -0.27017,
				"method": "rhf"
			},
			{
				"type": "occ",
				"energy": -0.26439,
				"method": "rhf"
			},
			{
				"type": "occ",
				"energy": -0.25393,
				"method": "rhf"
			},
			{
				"type": "unocc",
				"energy": -0.03407,
				"method": "rhf"
			},
			{
				"type": "unocc",
				"energy": -0.03048,
				"method": "rhf"
			},
			{
				"type": "unocc",
				"energy": -0.00634,
				"method": "rhf"
			},
			{
				"type": "unocc",
				"energy": 0.00257,
				"method": "rhf"
			},
			{
				"type": "unocc",
				"energy": 0.03763,
				"method": "rhf"
			}
		],
		"cosmo_sigma_profile": { 
			"-0.025": 0.0,
			"-0.024": 0.0,
			"-0.023": 0.0,
			"-0.022": 0.0,
			"-0.021": 0.0,
			"-0.02": 0.0,
			"-0.019": 0.0,
			"-0.018": 0.0,
			"-0.017": 0.0,
			"-0.016": 0.0,
			"-0.015": 0.0,
			"-0.014": 0.0,
			"-0.013": 0.0,
			"-0.012": 0.0,
			"-0.011": 0.0829679706863,
			"-0.01": 0.541583925232,
			"-0.009": 2.51012592361,
			"-0.008": 10.2923311898,
			"-0.007": 15.0338767882,
			"-0.006": 13.3476496522,
			"-0.005": 14.37841718,
			"-0.004": 17.3188560278,
			"-0.003": 22.1775807808,
			"-0.002": 29.2554254458,
			"-0.001": 33.5680417269,
			"0.0": 36.0054812858,
			"0.001": 40.3281284737,
			"0.002": 28.4331316003,
			"0.003": 19.5127500809,
			"0.004": 16.2138465964,
			"0.005": 6.90469914302,
			"0.006": 5.44727665302,
			"0.007": 4.70312360558,
			"0.008": 4.56442331464,
			"0.009": 3.52852355464,
			"0.01": 4.4749077907,
			"0.011": 3.43190026818,
			"0.012": 2.979490737,
			"0.013": 2.08559805899,
			"0.014": 1.28961314313,
			"0.015": 0.667684016493,
			"0.016": 1.38853952272,
			"0.017": 0.286210567767,
			"0.018": 0.0,
			"0.019": 0.0,
			"0.02": 0.0,
			"0.021": 0.0,
			"0.022": 0.0,
			"0.023": 0.0,
			"0.024": 0.0,
			"0.025": 0.0
		}
	}
}
