{
	 "smiles": "OC(=O)C(=O)CC1=CNC2=C1C=CC=C2", 
	 "Tm": 488.15, 
	 "num_atms": 24, 
	 "gaussian": { 
		 "optdone": 1, 
		 "sigma_profile": "yes", 
		 "theory": "DFT", 
		 "functional": "B3LYP", 
		 "basiset": "6-31G**", 
		 "properties": { 
			 "R2extent": 3307.4705, 
			 "electric_dipole_moment_norm": 5.56931919987, 
			 "electric_quadrupole_moment_norm": 13.5292051326, 
			 "total_energy": -705.017835048, 
			 "HOMO_LUMO_gap": 0.13486, 
			 "cosmo_polarized_energy": -19.01, 
			 "cosmo_cavitation_energy": 29.37, 
			 "cosmo_dispersion_energy": -20.69, 
			 "cosmo_repulsion_energy": 1.63, 
			 "cosmo_total_nonelectrostatic_energy": 10.31, 
			 "SMD_solvation_energy": 6.69 
		},
		"coords": [
			{
				"x": -3.6850530903,
				"y": 0.7186187051,
				"z": 0.5969101932,
				"element": "O" 
			},
			{
				"x": -3.2009350946,
				"y": -0.5437381085,
				"z": 0.4999809962,
				"element": "C" 
			},
			{
				"x": -3.6415808625,
				"y": -1.3744976839,
				"z": -0.2532340664,
				"element": "O" 
			},
			{
				"x": -2.044731868,
				"y": -0.8044630256,
				"z": 1.4999104329,
				"element": "C" 
			},
			{
				"x": -1.765737051,
				"y": -1.9535500615,
				"z": 1.7561244021,
				"element": "O" 
			},
			{
				"x": -1.2886819303,
				"y": 0.3974573731,
				"z": 2.0457423353,
				"element": "C" 
			},
			{
				"x": -0.3901910569,
				"y": 0.9578536079,
				"z": 0.9745590962,
				"element": "C" 
			},
			{
				"x": -0.5586187219,
				"y": 2.1350464047,
				"z": 0.2862079974,
				"element": "C" 
			},
			{
				"x": 0.4717004616,
				"y": 2.2997408296,
				"z": -0.6168527415,
				"element": "N" 
			},
			{
				"x": 1.3301483604,
				"y": 1.2195147774,
				"z": -0.5343806572,
				"element": "C" 
			},
			{
				"x": 0.8106351026,
				"y": 0.3447011808,
				"z": 0.4576682521,
				"element": "C" 
			},
			{
				"x": 1.4939209104,
				"y": -0.8515940131,
				"z": 0.7394021771,
				"element": "C" 
			},
			{
				"x": 2.6617257301,
				"y": -1.1348537895,
				"z": 0.0425318983,
				"element": "C" 
			},
			{
				"x": 3.1632684107,
				"y": -0.2490535853,
				"z": -0.9336759584,
				"element": "C" 
			},
			{
				"x": 2.506180963,
				"y": 0.9378157762,
				"z": -1.2374027234,
				"element": "C" 
			},
			{
				"x": -4.4147135964,
				"y": 0.7803587135,
				"z": -0.0435492638,
				"element": "H" 
			},
			{
				"x": -0.7091885284,
				"y": 0.0498454779,
				"z": 2.9066309219,
				"element": "H" 
			},
			{
				"x": -1.9971410556,
				"y": 1.160409141,
				"z": 2.379619866,
				"element": "H" 
			},
			{
				"x": -1.3407616796,
				"y": 2.8754598835,
				"z": 0.3759814808,
				"element": "H" 
			},
			{
				"x": 0.5850409671,
				"y": 3.089971746,
				"z": -1.2302637159,
				"element": "H" 
			},
			{
				"x": 1.1039483295,
				"y": -1.5465671138,
				"z": 1.4769475938,
				"element": "H" 
			},
			{
				"x": 3.1982536331,
				"y": -2.0564890931,
				"z": 0.2473621165,
				"element": "H" 
			},
			{
				"x": 4.0788621003,
				"y": -0.5001605856,
				"z": -1.4610386678,
				"element": "H" 
			},
			{
				"x": 2.8917495669,
				"y": 1.6179734434,
				"z": -1.9917819655,
				"element": "H" 
			}
		],
		 "valence_orbital": [ 
			{
				"type": "occ",
				"energy": -0.30138,
				"method": "rhf"
			},
			{
				"type": "occ",
				"energy": -0.28103,
				"method": "rhf"
			},
			{
				"type": "occ",
				"energy": -0.25793,
				"method": "rhf"
			},
			{
				"type": "occ",
				"energy": -0.22408,
				"method": "rhf"
			},
			{
				"type": "occ",
				"energy": -0.20585,
				"method": "rhf"
			},
			{
				"type": "unocc",
				"energy": -0.07099,
				"method": "rhf"
			},
			{
				"type": "unocc",
				"energy": -0.01114,
				"method": "rhf"
			},
			{
				"type": "unocc",
				"energy": 0.0252,
				"method": "rhf"
			},
			{
				"type": "unocc",
				"energy": 0.04747,
				"method": "rhf"
			},
			{
				"type": "unocc",
				"energy": 0.06413,
				"method": "rhf"
			}
		],
		"cosmo_sigma_profile": { 
			"-0.025": 0.0,
			"-0.024": 0.0,
			"-0.023": 0.0,
			"-0.022": 0.0,
			"-0.021": 0.0,
			"-0.02": 0.162247731604,
			"-0.019": 0.787195043223,
			"-0.018": 1.0744234044,
			"-0.017": 0.925127672189,
			"-0.016": 1.17659821472,
			"-0.015": 2.24561380209,
			"-0.014": 1.75343328606,
			"-0.013": 2.06692672236,
			"-0.012": 2.27467690786,
			"-0.011": 2.00884560989,
			"-0.01": 1.88792369377,
			"-0.009": 2.24396806177,
			"-0.008": 4.66416268593,
			"-0.007": 5.60891461038,
			"-0.006": 8.62572137066,
			"-0.005": 13.3116101242,
			"-0.004": 13.5958713736,
			"-0.003": 18.6503635242,
			"-0.002": 14.5007002243,
			"-0.001": 11.2176276256,
			"0.0": 11.8648145366,
			"0.001": 10.8947437234,
			"0.002": 14.0737221026,
			"0.003": 14.5032766119,
			"0.004": 14.59246731,
			"0.005": 14.3145986757,
			"0.006": 12.2783828457,
			"0.007": 8.45207510582,
			"0.008": 4.19259135155,
			"0.009": 4.16115548576,
			"0.01": 8.67158428416,
			"0.011": 5.04153834598,
			"0.012": 2.40079819908,
			"0.013": 0.375636721839,
			"0.014": 0.0,
			"0.015": 0.0,
			"0.016": 0.0,
			"0.017": 0.0,
			"0.018": 0.0,
			"0.019": 0.0,
			"0.02": 0.0,
			"0.021": 0.0,
			"0.022": 0.0,
			"0.023": 0.0,
			"0.024": 0.0,
			"0.025": 0.0
		}
	}
}
