{
	 "smiles": "CN1CCCC1=NS(=O)(=O)C1=CC=C(N)C=C1", 
	 "Tm": 446.15, 
	 "num_atms": 32, 
	 "gaussian": { 
		 "optdone": 1, 
		 "sigma_profile": "yes", 
		 "theory": "DFT", 
		 "functional": "B3LYP", 
		 "basiset": "6-31G**", 
		 "properties": { 
			 "R2extent": 5787.9383, 
			 "electric_dipole_moment_norm": 6.17238742303, 
			 "electric_quadrupole_moment_norm": 30.1090981152, 
			 "total_energy": -1141.04700583, 
			 "HOMO_LUMO_gap": 0.20486, 
			 "cosmo_polarized_energy": -24.37, 
			 "cosmo_cavitation_energy": 36.23, 
			 "cosmo_dispersion_energy": -26.58, 
			 "cosmo_repulsion_energy": 2.05, 
			 "cosmo_total_nonelectrostatic_energy": 11.7, 
			 "SMD_solvation_energy": 4.24 
		},
		"coords": [
			{
				"x": -2.7290849492,
				"y": 2.1114125649,
				"z": 0.2062529218,
				"element": "C" 
			},
			{
				"x": -1.6629302195,
				"y": 2.0578755677,
				"z": 1.1853887974,
				"element": "N" 
			},
			{
				"x": -1.805946083,
				"y": 2.6576226283,
				"z": 2.5097099675,
				"element": "C" 
			},
			{
				"x": -0.3881229589,
				"y": 2.5479881276,
				"z": 3.0986909243,
				"element": "C" 
			},
			{
				"x": 0.2253013464,
				"y": 1.3433091697,
				"z": 2.361964944,
				"element": "C" 
			},
			{
				"x": -0.5757645887,
				"y": 1.2523154149,
				"z": 1.0728289234,
				"element": "C" 
			},
			{
				"x": -0.3736392903,
				"y": 0.5422314975,
				"z": -0.0005485968,
				"element": "N" 
			},
			{
				"x": 1.0208093617,
				"y": -0.3918189904,
				"z": -0.0518368633,
				"element": "S" 
			},
			{
				"x": 0.9815078129,
				"y": -1.4137900059,
				"z": 1.0118417598,
				"element": "O" 
			},
			{
				"x": 2.2074771389,
				"y": 0.4784408232,
				"z": -0.1559148428,
				"element": "O" 
			},
			{
				"x": 0.8011094289,
				"y": -1.21448006,
				"z": -1.6162352378,
				"element": "C" 
			},
			{
				"x": 0.1666654583,
				"y": -2.4576230859,
				"z": -1.66303921,
				"element": "C" 
			},
			{
				"x": -0.0002473843,
				"y": -3.1026293679,
				"z": -2.8821987063,
				"element": "C" 
			},
			{
				"x": 0.4688085192,
				"y": -2.5159623556,
				"z": -4.0734106431,
				"element": "C" 
			},
			{
				"x": 0.3489994053,
				"y": -3.184172055,
				"z": -5.2850375992,
				"element": "N" 
			},
			{
				"x": 1.116406653,
				"y": -1.2670501548,
				"z": -4.0052620494,
				"element": "C" 
			},
			{
				"x": 1.2833818456,
				"y": -0.622839716,
				"z": -2.7859421417,
				"element": "C" 
			},
			{
				"x": -3.6096972812,
				"y": 1.5492600285,
				"z": 0.5452457268,
				"element": "H" 
			},
			{
				"x": -2.3658338315,
				"y": 1.6722431475,
				"z": -0.722963046,
				"element": "H" 
			},
			{
				"x": -3.0258613366,
				"y": 3.1512221837,
				"z": 0.031865749,
				"element": "H" 
			},
			{
				"x": -2.5471659147,
				"y": 2.1033099086,
				"z": 3.1061135591,
				"element": "H" 
			},
			{
				"x": -2.1573715873,
				"y": 3.691777934,
				"z": 2.4229582074,
				"element": "H" 
			},
			{
				"x": 0.177500572,
				"y": 3.4557961245,
				"z": 2.868548032,
				"element": "H" 
			},
			{
				"x": -0.3991813543,
				"y": 2.4257106054,
				"z": 4.1838284436,
				"element": "H" 
			},
			{
				"x": 1.2912327068,
				"y": 1.4457918344,
				"z": 2.1505356208,
				"element": "H" 
			},
			{
				"x": 0.0964520336,
				"y": 0.4003963164,
				"z": 2.9045853256,
				"element": "H" 
			},
			{
				"x": -0.1805213139,
				"y": -2.915385232,
				"z": -0.7431118523,
				"element": "H" 
			},
			{
				"x": -0.4863847191,
				"y": -4.074216161,
				"z": -2.9195008514,
				"element": "H" 
			},
			{
				"x": 0.4018401645,
				"y": -2.6131057292,
				"z": -6.1160951271,
				"element": "H" 
			},
			{
				"x": -0.3733088085,
				"y": -3.8878730026,
				"z": -5.3364141446,
				"element": "H" 
			},
			{
				"x": 1.4982447138,
				"y": -0.8119809012,
				"z": -4.9156536093,
				"element": "H" 
			},
			{
				"x": 1.79622446,
				"y": 0.3313229408,
				"z": -2.7312943815,
				"element": "H" 
			}
		],
		 "valence_orbital": [ 
			{
				"type": "occ",
				"energy": -0.27344,
				"method": "rhf"
			},
			{
				"type": "occ",
				"energy": -0.25588,
				"method": "rhf"
			},
			{
				"type": "occ",
				"energy": -0.25128,
				"method": "rhf"
			},
			{
				"type": "occ",
				"energy": -0.22596,
				"method": "rhf"
			},
			{
				"type": "occ",
				"energy": -0.20823,
				"method": "rhf"
			},
			{
				"type": "unocc",
				"energy": -0.00337,
				"method": "rhf"
			},
			{
				"type": "unocc",
				"energy": -0.00146,
				"method": "rhf"
			},
			{
				"type": "unocc",
				"energy": 0.008,
				"method": "rhf"
			},
			{
				"type": "unocc",
				"energy": 0.07301,
				"method": "rhf"
			},
			{
				"type": "unocc",
				"energy": 0.07622,
				"method": "rhf"
			}
		],
		"cosmo_sigma_profile": { 
			"-0.025": 0.0,
			"-0.024": 0.0,
			"-0.023": 0.0,
			"-0.022": 0.0,
			"-0.021": 0.0,
			"-0.02": 0.0,
			"-0.019": 0.0,
			"-0.018": 0.0,
			"-0.017": 0.0,
			"-0.016": 0.0,
			"-0.015": 0.0,
			"-0.014": 0.0377905508395,
			"-0.013": 2.10298852811,
			"-0.012": 2.96258605573,
			"-0.011": 3.41982652927,
			"-0.01": 3.18494252398,
			"-0.009": 3.33969789913,
			"-0.008": 2.60928473543,
			"-0.007": 4.34704208079,
			"-0.006": 13.1007731747,
			"-0.005": 27.6426669497,
			"-0.004": 34.5658199864,
			"-0.003": 27.2816928378,
			"-0.002": 21.4204533955,
			"-0.001": 14.2740365664,
			"0.0": 9.16714161254,
			"0.001": 9.92785808058,
			"0.002": 10.6987830139,
			"0.003": 13.9337319277,
			"0.004": 17.6967126307,
			"0.005": 11.7661488871,
			"0.006": 6.2775036548,
			"0.007": 6.39852517652,
			"0.008": 6.67013990707,
			"0.009": 5.05973444407,
			"0.01": 6.06899473003,
			"0.011": 8.30582241562,
			"0.012": 9.39797340093,
			"0.013": 4.54271236077,
			"0.014": 0.1068647398,
			"0.015": 0.0,
			"0.016": 0.0,
			"0.017": 0.0,
			"0.018": 0.0,
			"0.019": 0.0,
			"0.02": 0.0,
			"0.021": 0.0,
			"0.022": 0.0,
			"0.023": 0.0,
			"0.024": 0.0,
			"0.025": 0.0
		}
	}
}
