{
	 "smiles": "NC1=NC(N)=C(F)C(=C1)C(F)(F)F", 
	 "Tm": 344.15, 
	 "num_atms": 18, 
	 "gaussian": { 
		 "optdone": 1, 
		 "sigma_profile": "yes", 
		 "theory": "DFT", 
		 "functional": "B3LYP", 
		 "basiset": "6-31G**", 
		 "properties": { 
			 "R2extent": 2713.47, 
			 "electric_dipole_moment_norm": 3.57682446033, 
			 "electric_quadrupole_moment_norm": 12.8704839672, 
			 "total_energy": -795.278636989, 
			 "HOMO_LUMO_gap": 0.17441, 
			 "cosmo_polarized_energy": -11.13, 
			 "cosmo_cavitation_energy": 24.38, 
			 "cosmo_dispersion_energy": -17.71, 
			 "cosmo_repulsion_energy": 1.35, 
			 "cosmo_total_nonelectrostatic_energy": 8.02, 
			 "SMD_solvation_energy": 4.33 
		},
		"coords": [
			{
				"x": 2.1021071266,
				"y": 0.3134264476,
				"z": 1.4387428553,
				"element": "N" 
			},
			{
				"x": 0.9532673854,
				"y": 0.0102416728,
				"z": 0.7314715614,
				"element": "C" 
			},
			{
				"x": -0.1734082484,
				"y": -0.0808173505,
				"z": 1.4558112302,
				"element": "N" 
			},
			{
				"x": -1.3098992153,
				"y": -0.4325102748,
				"z": 0.8454816321,
				"element": "C" 
			},
			{
				"x": -2.4422259402,
				"y": -0.5812988275,
				"z": 1.6086423981,
				"element": "N" 
			},
			{
				"x": -1.3530649963,
				"y": -0.6777354255,
				"z": -0.5366766413,
				"element": "C" 
			},
			{
				"x": -2.5455668404,
				"y": -0.9984321842,
				"z": -1.1009945417,
				"element": "F" 
			},
			{
				"x": -0.1977647285,
				"y": -0.5686735875,
				"z": -1.291978584,
				"element": "C" 
			},
			{
				"x": 0.9943302173,
				"y": -0.2247998042,
				"z": -0.6543337401,
				"element": "C" 
			},
			{
				"x": -0.2468676389,
				"y": -0.8195326447,
				"z": -2.7778881542,
				"element": "C" 
			},
			{
				"x": 0.9699187649,
				"y": -0.6786408502,
				"z": -3.3470677068,
				"element": "F" 
			},
			{
				"x": -1.0811559096,
				"y": 0.0423548583,
				"z": -3.3963009076,
				"element": "F" 
			},
			{
				"x": -0.6795242566,
				"y": -2.0657301722,
				"z": -3.0564797978,
				"element": "F" 
			},
			{
				"x": 1.9330627532,
				"y": 0.6927323216,
				"z": 2.359415475,
				"element": "H" 
			},
			{
				"x": 2.8531818548,
				"y": 0.7545447449,
				"z": 0.9298650321,
				"element": "H" 
			},
			{
				"x": -3.3281984139,
				"y": -0.5509084246,
				"z": 1.1283988142,
				"element": "H" 
			},
			{
				"x": -2.4064773442,
				"y": -0.1553210019,
				"z": 2.5224525222,
				"element": "H" 
			},
			{
				"x": 1.91628543,
				"y": -0.1467994975,
				"z": -1.215961447,
				"element": "H" 
			}
		],
		 "valence_orbital": [ 
			{
				"type": "occ",
				"energy": -0.3519,
				"method": "rhf"
			},
			{
				"type": "occ",
				"energy": -0.30584,
				"method": "rhf"
			},
			{
				"type": "occ",
				"energy": -0.27628,
				"method": "rhf"
			},
			{
				"type": "occ",
				"energy": -0.25571,
				"method": "rhf"
			},
			{
				"type": "occ",
				"energy": -0.20338,
				"method": "rhf"
			},
			{
				"type": "unocc",
				"energy": -0.02897,
				"method": "rhf"
			},
			{
				"type": "unocc",
				"energy": 0.01369,
				"method": "rhf"
			},
			{
				"type": "unocc",
				"energy": 0.07438,
				"method": "rhf"
			},
			{
				"type": "unocc",
				"energy": 0.08485,
				"method": "rhf"
			},
			{
				"type": "unocc",
				"energy": 0.11563,
				"method": "rhf"
			}
		],
		"cosmo_sigma_profile": { 
			"-0.025": 0.0,
			"-0.024": 0.0,
			"-0.023": 0.0,
			"-0.022": 0.0,
			"-0.021": 0.0,
			"-0.02": 0.0,
			"-0.019": 0.0,
			"-0.018": 0.0,
			"-0.017": 0.0,
			"-0.016": 0.0,
			"-0.015": 0.0,
			"-0.014": 0.483402874616,
			"-0.013": 3.49350833072,
			"-0.012": 4.88001327404,
			"-0.011": 4.04887922137,
			"-0.01": 4.50860765,
			"-0.009": 5.3163667186,
			"-0.008": 3.79417045821,
			"-0.007": 4.58942101625,
			"-0.006": 4.36867679792,
			"-0.005": 3.75864244896,
			"-0.004": 3.80093951511,
			"-0.003": 4.33245169444,
			"-0.002": 6.81877557036,
			"-0.001": 9.35526952141,
			"0.0": 16.043911845,
			"0.001": 18.727483011,
			"0.002": 30.0142230114,
			"0.003": 33.2545794392,
			"0.004": 11.2706248269,
			"0.005": 2.83098969207,
			"0.006": 3.46669754632,
			"0.007": 3.30637474771,
			"0.008": 2.74662697364,
			"0.009": 2.83024571716,
			"0.01": 2.00678277884,
			"0.011": 2.40615298325,
			"0.012": 1.68921234898,
			"0.013": 0.517326711522,
			"0.014": 0.0,
			"0.015": 0.0,
			"0.016": 0.0,
			"0.017": 0.0,
			"0.018": 0.0,
			"0.019": 0.0,
			"0.02": 0.0,
			"0.021": 0.0,
			"0.022": 0.0,
			"0.023": 0.0,
			"0.024": 0.0,
			"0.025": 0.0
		}
	}
}
