{
	 "smiles": "CC1=CC=C(O1)C(N)CC(O)=O", 
	 "Tm": 473.15, 
	 "num_atms": 23, 
	 "gaussian": { 
		 "optdone": 1, 
		 "sigma_profile": "yes", 
		 "theory": "DFT", 
		 "functional": "B3LYP", 
		 "basiset": "6-31G**", 
		 "properties": { 
			 "R2extent": 2843.4316, 
			 "electric_dipole_moment_norm": 1.96426351084, 
			 "electric_quadrupole_moment_norm": 8.02543442812, 
			 "total_energy": -591.899005208, 
			 "HOMO_LUMO_gap": 0.21702, 
			 "cosmo_polarized_energy": -13.41, 
			 "cosmo_cavitation_energy": 27.08, 
			 "cosmo_dispersion_energy": -18.97, 
			 "cosmo_repulsion_energy": 1.56, 
			 "cosmo_total_nonelectrostatic_energy": 9.67, 
			 "SMD_solvation_energy": 5.06 
		},
		"coords": [
			{
				"x": 2.6920335132,
				"y": -0.3288007231,
				"z": 2.9443613879,
				"element": "C" 
			},
			{
				"x": 1.2127700114,
				"y": -0.1985663122,
				"z": 2.8457544108,
				"element": "C" 
			},
			{
				"x": 0.2458075841,
				"y": 0.2543628102,
				"z": 3.6923820586,
				"element": "C" 
			},
			{
				"x": -1.0057359888,
				"y": 0.1227700459,
				"z": 3.0002235265,
				"element": "C" 
			},
			{
				"x": -0.7178623723,
				"y": -0.4029999044,
				"z": 1.7760547969,
				"element": "C" 
			},
			{
				"x": 0.6350550728,
				"y": -0.6058312599,
				"z": 1.6694291609,
				"element": "O" 
			},
			{
				"x": -1.5549519256,
				"y": -0.7828210497,
				"z": 0.5813559203,
				"element": "C" 
			},
			{
				"x": -2.9956007083,
				"y": -0.7673900781,
				"z": 0.8269387449,
				"element": "N" 
			},
			{
				"x": -1.2041323969,
				"y": 0.075407401,
				"z": -0.6622957759,
				"element": "C" 
			},
			{
				"x": -1.2469010004,
				"y": 1.5749630761,
				"z": -0.4550226783,
				"element": "C" 
			},
			{
				"x": -2.4290974649,
				"y": 1.9992740261,
				"z": 0.0726405257,
				"element": "O" 
			},
			{
				"x": -0.3609944287,
				"y": 2.3496292891,
				"z": -0.7343254802,
				"element": "O" 
			},
			{
				"x": 3.0137537413,
				"y": -1.3700642791,
				"z": 2.8254582516,
				"element": "H" 
			},
			{
				"x": 3.0305571565,
				"y": 0.0239354446,
				"z": 3.9213555313,
				"element": "H" 
			},
			{
				"x": 3.1986281042,
				"y": 0.2615904701,
				"z": 2.1721380885,
				"element": "H" 
			},
			{
				"x": 0.4029491687,
				"y": 0.636672124,
				"z": 4.6910897043,
				"element": "H" 
			},
			{
				"x": -1.9866724986,
				"y": 0.3857656033,
				"z": 3.3684245716,
				"element": "H" 
			},
			{
				"x": -1.2863672775,
				"y": -1.8118152833,
				"z": 0.3039742752,
				"element": "H" 
			},
			{
				"x": -3.2091195506,
				"y": -1.3318781451,
				"z": 1.6451336334,
				"element": "H" 
			},
			{
				"x": -3.3009735114,
				"y": 0.18280269,
				"z": 1.0203382473,
				"element": "H" 
			},
			{
				"x": -1.9147224919,
				"y": -0.1861196273,
				"z": -1.4548524549,
				"element": "H" 
			},
			{
				"x": -0.1942548894,
				"y": -0.1575039273,
				"z": -1.0024241025,
				"element": "H" 
			},
			{
				"x": -2.344867847,
				"y": 2.9628176091,
				"z": 0.1714676561,
				"element": "H" 
			}
		],
		 "valence_orbital": [ 
			{
				"type": "occ",
				"energy": -0.31962,
				"method": "rhf"
			},
			{
				"type": "occ",
				"energy": -0.27388,
				"method": "rhf"
			},
			{
				"type": "occ",
				"energy": -0.27184,
				"method": "rhf"
			},
			{
				"type": "occ",
				"energy": -0.24479,
				"method": "rhf"
			},
			{
				"type": "occ",
				"energy": -0.21031,
				"method": "rhf"
			},
			{
				"type": "unocc",
				"energy": 0.00671,
				"method": "rhf"
			},
			{
				"type": "unocc",
				"energy": 0.01753,
				"method": "rhf"
			},
			{
				"type": "unocc",
				"energy": 0.071,
				"method": "rhf"
			},
			{
				"type": "unocc",
				"energy": 0.07709,
				"method": "rhf"
			},
			{
				"type": "unocc",
				"energy": 0.10075,
				"method": "rhf"
			}
		],
		"cosmo_sigma_profile": { 
			"-0.025": 0.0,
			"-0.024": 0.0,
			"-0.023": 0.0,
			"-0.022": 0.0,
			"-0.021": 0.0,
			"-0.02": 0.0662314199511,
			"-0.019": 0.0877469235673,
			"-0.018": 0.94194453324,
			"-0.017": 0.605375089649,
			"-0.016": 0.817531508173,
			"-0.015": 0.997660607289,
			"-0.014": 1.08189743048,
			"-0.013": 0.712074627311,
			"-0.012": 0.500315636691,
			"-0.011": 1.30111363283,
			"-0.01": 1.88320539264,
			"-0.009": 1.9787201783,
			"-0.008": 1.925571638,
			"-0.007": 3.96757177575,
			"-0.006": 9.26629167312,
			"-0.005": 16.541656966,
			"-0.004": 18.6943746354,
			"-0.003": 15.9069423889,
			"-0.002": 16.55194865,
			"-0.001": 16.9560261,
			"0.0": 12.7134123082,
			"0.001": 8.5756812991,
			"0.002": 11.6518868138,
			"0.003": 12.0291381942,
			"0.004": 10.9628367585,
			"0.005": 9.80191499466,
			"0.006": 8.85022514574,
			"0.007": 4.90995297179,
			"0.008": 3.27365452366,
			"0.009": 2.6406490227,
			"0.01": 2.81381241337,
			"0.011": 4.42621583817,
			"0.012": 5.08508623373,
			"0.013": 1.65415288698,
			"0.014": 0.491082509703,
			"0.015": 0.483865355326,
			"0.016": 0.479401038366,
			"0.017": 0.519807221362,
			"0.018": 0.644753174302,
			"0.019": 0.199927428032,
			"0.02": 0.0,
			"0.021": 0.0,
			"0.022": 0.0,
			"0.023": 0.0,
			"0.024": 0.0,
			"0.025": 0.0
		}
	}
}
