{
	 "smiles": "OC1=C2C=NNC2=CC=C1", 
	 "Tm": 438.15, 
	 "num_atms": 16, 
	 "gaussian": { 
		 "optdone": 1, 
		 "sigma_profile": "yes", 
		 "theory": "DFT", 
		 "functional": "B3LYP", 
		 "basiset": "6-31G**", 
		 "properties": { 
			 "R2extent": 1631.6456, 
			 "electric_dipole_moment_norm": 0.989702147113, 
			 "electric_quadrupole_moment_norm": 11.8931862901, 
			 "total_energy": -455.065254249, 
			 "HOMO_LUMO_gap": 0.18602, 
			 "cosmo_polarized_energy": -12.9, 
			 "cosmo_cavitation_energy": 20.1, 
			 "cosmo_dispersion_energy": -15.46, 
			 "cosmo_repulsion_energy": 1.24, 
			 "cosmo_total_nonelectrostatic_energy": 5.87, 
			 "SMD_solvation_energy": 2.8 
		},
		"coords": [
			{
				"x": 0.0244602671,
				"y": -0.6498680754,
				"z": 2.2500843507,
				"element": "O" 
			},
			{
				"x": -0.1478515165,
				"y": -0.487386364,
				"z": 0.9063768738,
				"element": "C" 
			},
			{
				"x": -1.1773965935,
				"y": -1.1324490558,
				"z": 0.1866364629,
				"element": "C" 
			},
			{
				"x": -2.2453892273,
				"y": -2.0337167731,
				"z": 0.4897483588,
				"element": "C" 
			},
			{
				"x": -2.943456614,
				"y": -2.3404360392,
				"z": -0.5888976809,
				"element": "N" 
			},
			{
				"x": -2.3593029949,
				"y": -1.6586676166,
				"z": -1.6091317614,
				"element": "N" 
			},
			{
				"x": -1.286354471,
				"y": -0.9089167218,
				"z": -1.209501917,
				"element": "C" 
			},
			{
				"x": -0.4103693263,
				"y": -0.0685585311,
				"z": -1.9157020181,
				"element": "C" 
			},
			{
				"x": 0.5860831033,
				"y": 0.5450314082,
				"z": -1.1705334697,
				"element": "C" 
			},
			{
				"x": 0.7244050465,
				"y": 0.3458362999,
				"z": 0.2192112333,
				"element": "C" 
			},
			{
				"x": -0.6491774062,
				"y": -1.2513219235,
				"z": 2.5908637446,
				"element": "H" 
			},
			{
				"x": -2.5306438504,
				"y": -2.4666837208,
				"z": 1.4403820691,
				"element": "H" 
			},
			{
				"x": -2.7410710956,
				"y": -1.7519156672,
				"z": -2.5364091855,
				"element": "H" 
			},
			{
				"x": -0.5055759486,
				"y": 0.0932439966,
				"z": -2.9839917602,
				"element": "H" 
			},
			{
				"x": 1.2896816324,
				"y": 1.2049735578,
				"z": -1.669801246,
				"element": "H" 
			},
			{
				"x": 1.514958995,
				"y": 0.8410352263,
				"z": 0.7723659458,
				"element": "H" 
			}
		],
		 "valence_orbital": [ 
			{
				"type": "occ",
				"energy": -0.32807,
				"method": "rhf"
			},
			{
				"type": "occ",
				"energy": -0.29508,
				"method": "rhf"
			},
			{
				"type": "occ",
				"energy": -0.27833,
				"method": "rhf"
			},
			{
				"type": "occ",
				"energy": -0.24235,
				"method": "rhf"
			},
			{
				"type": "occ",
				"energy": -0.2061,
				"method": "rhf"
			},
			{
				"type": "unocc",
				"energy": -0.02008,
				"method": "rhf"
			},
			{
				"type": "unocc",
				"energy": 0.02179,
				"method": "rhf"
			},
			{
				"type": "unocc",
				"energy": 0.05786,
				"method": "rhf"
			},
			{
				"type": "unocc",
				"energy": 0.0587,
				"method": "rhf"
			},
			{
				"type": "unocc",
				"energy": 0.0862,
				"method": "rhf"
			}
		],
		"cosmo_sigma_profile": { 
			"-0.025": 0.0,
			"-0.024": 0.0,
			"-0.023": 0.0,
			"-0.022": 0.0,
			"-0.021": 0.0,
			"-0.02": 0.0,
			"-0.019": 0.0,
			"-0.018": 0.188146854548,
			"-0.017": 1.11224201715,
			"-0.016": 2.65029715605,
			"-0.015": 2.67397319478,
			"-0.014": 2.14652957316,
			"-0.013": 1.74072085557,
			"-0.012": 1.95933389121,
			"-0.011": 2.26189076482,
			"-0.01": 2.71088467935,
			"-0.009": 2.06262526872,
			"-0.008": 2.58513091316,
			"-0.007": 3.35383134619,
			"-0.006": 6.43692833996,
			"-0.005": 8.03297495462,
			"-0.004": 7.90130242376,
			"-0.003": 7.3374356652,
			"-0.002": 6.86199992594,
			"-0.001": 6.03907951337,
			"0.0": 5.760303712,
			"0.001": 7.05757378109,
			"0.002": 9.00340813914,
			"0.003": 16.4101550832,
			"0.004": 14.7449151182,
			"0.005": 11.9145871169,
			"0.006": 8.46564871817,
			"0.007": 2.88738023012,
			"0.008": 2.57591098483,
			"0.009": 2.78006500713,
			"0.01": 3.44412244818,
			"0.011": 3.37788997598,
			"0.012": 1.18475021155,
			"0.013": 1.24706084331,
			"0.014": 1.10775201814,
			"0.015": 0.89667156693,
			"0.016": 0.210205906501,
			"0.017": 0.0,
			"0.018": 0.0,
			"0.019": 0.0,
			"0.02": 0.0,
			"0.021": 0.0,
			"0.022": 0.0,
			"0.023": 0.0,
			"0.024": 0.0,
			"0.025": 0.0
		}
	}
}
