{
	 "smiles": "OC(C1C(=O)N(N=C1C(F)(F)F)C1=CC=CC=C1)C1=C(Cl)C=CC=C1Cl", 
	 "Tm": 469.15, 
	 "num_atms": 37, 
	 "gaussian": { 
		 "optdone": 1, 
		 "sigma_profile": "yes", 
		 "theory": "DFT", 
		 "functional": "B3LYP", 
		 "basiset": "6-31G**", 
		 "properties": { 
			 "R2extent": 12983.9211, 
			 "electric_dipole_moment_norm": 2.93628429482, 
			 "electric_quadrupole_moment_norm": 18.2708689511, 
			 "total_energy": -2134.25625984, 
			 "HOMO_LUMO_gap": 0.16552, 
			 "cosmo_polarized_energy": -14.56, 
			 "cosmo_cavitation_energy": 46.01, 
			 "cosmo_dispersion_energy": -30.95, 
			 "cosmo_repulsion_energy": 2.27, 
			 "cosmo_total_nonelectrostatic_energy": 17.33, 
			 "SMD_solvation_energy": 8.26 
		},
		"coords": [
			{
				"x": 0.6873716024,
				"y": -2.3872835809,
				"z": -3.7007715939,
				"element": "O" 
			},
			{
				"x": 0.3550557523,
				"y": -1.6939818019,
				"z": -2.507272402,
				"element": "C" 
			},
			{
				"x": 0.5151948008,
				"y": -0.189212227,
				"z": -2.8519292068,
				"element": "C" 
			},
			{
				"x": 0.4193475137,
				"y": 0.7660086562,
				"z": -1.6547415079,
				"element": "C" 
			},
			{
				"x": 1.0855004152,
				"y": 0.7530145226,
				"z": -0.6386248215,
				"element": "O" 
			},
			{
				"x": -0.5927246537,
				"y": 1.6737568663,
				"z": -1.9905664534,
				"element": "N" 
			},
			{
				"x": -1.1485175187,
				"y": 1.4041197057,
				"z": -3.2270850454,
				"element": "N" 
			},
			{
				"x": -0.5654458312,
				"y": 0.3740935126,
				"z": -3.7278347641,
				"element": "C" 
			},
			{
				"x": -1.0006850441,
				"y": -0.1459277431,
				"z": -5.0699240297,
				"element": "C" 
			},
			{
				"x": -1.8081357931,
				"y": 0.7214143112,
				"z": -5.6985983048,
				"element": "F" 
			},
			{
				"x": 0.0644421548,
				"y": -0.3786987185,
				"z": -5.8592899629,
				"element": "F" 
			},
			{
				"x": -1.6780406413,
				"y": -1.310709385,
				"z": -4.9380016828,
				"element": "F" 
			},
			{
				"x": -1.0810473785,
				"y": 2.7881299096,
				"z": -1.2488313499,
				"element": "C" 
			},
			{
				"x": -0.5692769474,
				"y": 3.0810985512,
				"z": 0.0235328054,
				"element": "C" 
			},
			{
				"x": -1.0706601837,
				"y": 4.179997224,
				"z": 0.7214759716,
				"element": "C" 
			},
			{
				"x": -2.0688240125,
				"y": 4.9858133399,
				"z": 0.1741789297,
				"element": "C" 
			},
			{
				"x": -2.5702742758,
				"y": 4.6834296411,
				"z": -1.0930436055,
				"element": "C" 
			},
			{
				"x": -2.0843540473,
				"y": 3.5918154565,
				"z": -1.8088400399,
				"element": "C" 
			},
			{
				"x": 1.1861899641,
				"y": -2.1638664746,
				"z": -1.3145635469,
				"element": "C" 
			},
			{
				"x": 2.5913209013,
				"y": -2.2594858396,
				"z": -1.3376669454,
				"element": "C" 
			},
			{
				"x": 3.5212914848,
				"y": -1.7522094588,
				"z": -2.7422451112,
				"element": "Cl" 
			},
			{
				"x": 3.3272404972,
				"y": -2.7440558704,
				"z": -0.2584162588,
				"element": "C" 
			},
			{
				"x": 2.6677410562,
				"y": -3.1501295754,
				"z": 0.8981906628,
				"element": "C" 
			},
			{
				"x": 1.2818408471,
				"y": -3.065583846,
				"z": 0.9746574044,
				"element": "C" 
			},
			{
				"x": 0.5692836602,
				"y": -2.577278302,
				"z": -0.1190657951,
				"element": "C" 
			},
			{
				"x": -1.1854909178,
				"y": -2.4897404552,
				"z": 0.0726166868,
				"element": "Cl" 
			},
			{
				"x": 0.3036274435,
				"y": -3.2722868898,
				"z": -3.6539783255,
				"element": "H" 
			},
			{
				"x": -0.6967698224,
				"y": -1.8576874726,
				"z": -2.2590720395,
				"element": "H" 
			},
			{
				"x": 1.4986158958,
				"y": -0.0652896799,
				"z": -3.3202971636,
				"element": "H" 
			},
			{
				"x": 0.204560963,
				"y": 2.4595152104,
				"z": 0.4507236754,
				"element": "H" 
			},
			{
				"x": -0.6702161908,
				"y": 4.4021071582,
				"z": 1.7063951347,
				"element": "H" 
			},
			{
				"x": -2.4514124168,
				"y": 5.8384512959,
				"z": 0.7268874914,
				"element": "H" 
			},
			{
				"x": -3.3474601826,
				"y": 5.3004604725,
				"z": -1.5345884974,
				"element": "H" 
			},
			{
				"x": -2.4718840479,
				"y": 3.3563669316,
				"z": -2.7914762465,
				"element": "H" 
			},
			{
				"x": 4.4073681866,
				"y": -2.7935911684,
				"z": -0.3318457692,
				"element": "H" 
			},
			{
				"x": 3.2358820672,
				"y": -3.5281071939,
				"z": 1.7422068886,
				"element": "H" 
			},
			{
				"x": 0.7496446995,
				"y": -3.3690670824,
				"z": 1.8684048189,
				"element": "H" 
			}
		],
		 "valence_orbital": [ 
			{
				"type": "occ",
				"energy": -0.27471,
				"method": "rhf"
			},
			{
				"type": "occ",
				"energy": -0.2644,
				"method": "rhf"
			},
			{
				"type": "occ",
				"energy": -0.25658,
				"method": "rhf"
			},
			{
				"type": "occ",
				"energy": -0.25283,
				"method": "rhf"
			},
			{
				"type": "occ",
				"energy": -0.22514,
				"method": "rhf"
			},
			{
				"type": "unocc",
				"energy": -0.05962,
				"method": "rhf"
			},
			{
				"type": "unocc",
				"energy": -0.03516,
				"method": "rhf"
			},
			{
				"type": "unocc",
				"energy": -0.02962,
				"method": "rhf"
			},
			{
				"type": "unocc",
				"energy": -0.02265,
				"method": "rhf"
			},
			{
				"type": "unocc",
				"energy": -0.00252,
				"method": "rhf"
			}
		],
		"cosmo_sigma_profile": { 
			"-0.025": 0.0,
			"-0.024": 0.0,
			"-0.023": 0.0,
			"-0.022": 0.0,
			"-0.021": 0.0,
			"-0.02": 0.0,
			"-0.019": 0.0,
			"-0.018": 0.082866394482,
			"-0.017": 0.88846199161,
			"-0.016": 1.201660767,
			"-0.015": 0.954265256632,
			"-0.014": 0.865997720426,
			"-0.013": 0.957143253154,
			"-0.012": 0.802478328316,
			"-0.011": 0.332680605561,
			"-0.01": 1.28880515378,
			"-0.009": 3.25577183499,
			"-0.008": 7.02767572151,
			"-0.007": 9.81553311158,
			"-0.006": 16.0364865373,
			"-0.005": 18.4851281573,
			"-0.004": 20.8393405149,
			"-0.003": 20.6343510601,
			"-0.002": 20.8509618523,
			"-0.001": 24.0846732481,
			"0.0": 27.7984967252,
			"0.001": 35.8075571781,
			"0.002": 53.4140972181,
			"0.003": 37.8136961039,
			"0.004": 27.3643108773,
			"0.005": 17.0926438952,
			"0.006": 6.83005016643,
			"0.007": 5.48228723069,
			"0.008": 4.02486128211,
			"0.009": 3.71708957604,
			"0.01": 3.85808052168,
			"0.011": 2.1991213363,
			"0.012": 0.239037239983,
			"0.013": 0.0,
			"0.014": 0.0,
			"0.015": 0.0,
			"0.016": 0.0,
			"0.017": 0.0,
			"0.018": 0.0,
			"0.019": 0.0,
			"0.02": 0.0,
			"0.021": 0.0,
			"0.022": 0.0,
			"0.023": 0.0,
			"0.024": 0.0,
			"0.025": 0.0
		}
	}
}
