{
	 "smiles": "CC1=C2C(=NO1)C(=NN=C2C)C1=CC=CC=C1", 
	 "Tm": 453.15, 
	 "num_atms": 28, 
	 "gaussian": { 
		 "optdone": 1, 
		 "sigma_profile": "yes", 
		 "theory": "DFT", 
		 "functional": "B3LYP", 
		 "basiset": "6-31G**", 
		 "properties": { 
			 "R2extent": 4815.3689, 
			 "electric_dipole_moment_norm": 4.08661107643, 
			 "electric_quadrupole_moment_norm": 26.2871141969, 
			 "total_energy": -741.412241566, 
			 "HOMO_LUMO_gap": 0.1421, 
			 "cosmo_polarized_energy": -14.63, 
			 "cosmo_cavitation_energy": 32.17, 
			 "cosmo_dispersion_energy": -23.82, 
			 "cosmo_repulsion_energy": 1.8, 
			 "cosmo_total_nonelectrostatic_energy": 10.16, 
			 "SMD_solvation_energy": 3.97 
		},
		"coords": [
			{
				"x": -1.4961012476,
				"y": 2.6708301575,
				"z": 3.5069977775,
				"element": "C" 
			},
			{
				"x": -0.9519318889,
				"y": 1.8755513317,
				"z": 2.3710649347,
				"element": "C" 
			},
			{
				"x": 0.2969591397,
				"y": 1.7114625754,
				"z": 1.8016264001,
				"element": "C" 
			},
			{
				"x": 0.0744815666,
				"y": 0.7882400756,
				"z": 0.7338890343,
				"element": "C" 
			},
			{
				"x": -1.1962397703,
				"y": 0.4189185688,
				"z": 0.6549440304,
				"element": "N" 
			},
			{
				"x": -1.8224581199,
				"y": 1.1150664305,
				"z": 1.6940940877,
				"element": "O" 
			},
			{
				"x": 1.2175874786,
				"y": 0.4059491222,
				"z": -0.0721937697,
				"element": "C" 
			},
			{
				"x": 2.3928570211,
				"y": 0.9268525812,
				"z": 0.2208211336,
				"element": "N" 
			},
			{
				"x": 2.6024757976,
				"y": 1.8108490998,
				"z": 1.2440834885,
				"element": "N" 
			},
			{
				"x": 1.618188996,
				"y": 2.2067909905,
				"z": 2.0202711165,
				"element": "C" 
			},
			{
				"x": 1.955632285,
				"y": 3.1789846048,
				"z": 3.1147314088,
				"element": "C" 
			},
			{
				"x": 1.1602304063,
				"y": -0.5376606646,
				"z": -1.2134531763,
				"element": "C" 
			},
			{
				"x": -0.0387051333,
				"y": -1.1520421228,
				"z": -1.6152652042,
				"element": "C" 
			},
			{
				"x": -0.0502565969,
				"y": -2.0351084195,
				"z": -2.6954616035,
				"element": "C" 
			},
			{
				"x": 1.1257365703,
				"y": -2.3189736248,
				"z": -3.3891644118,
				"element": "C" 
			},
			{
				"x": 2.3228341519,
				"y": -1.7119093046,
				"z": -2.9959034506,
				"element": "C" 
			},
			{
				"x": 2.3425060476,
				"y": -0.8310731872,
				"z": -1.9208196008,
				"element": "C" 
			},
			{
				"x": -2.5676284326,
				"y": 2.4879383232,
				"z": 3.6065332783,
				"element": "H" 
			},
			{
				"x": -1.3374629827,
				"y": 3.7421930271,
				"z": 3.3479357854,
				"element": "H" 
			},
			{
				"x": -1.005806755,
				"y": 2.3990035292,
				"z": 4.4471488455,
				"element": "H" 
			},
			{
				"x": 3.022412266,
				"y": 3.4032743684,
				"z": 3.0731526094,
				"element": "H" 
			},
			{
				"x": 1.3915095126,
				"y": 4.1127945708,
				"z": 3.0060804232,
				"element": "H" 
			},
			{
				"x": 1.7176668155,
				"y": 2.7656185956,
				"z": 4.1019491664,
				"element": "H" 
			},
			{
				"x": -0.9600390088,
				"y": -0.9412696111,
				"z": -1.0862114649,
				"element": "H" 
			},
			{
				"x": -0.9850095077,
				"y": -2.5014592827,
				"z": -2.9931726504,
				"element": "H" 
			},
			{
				"x": 1.1123557383,
				"y": -3.0071858734,
				"z": -4.2297060864,
				"element": "H" 
			},
			{
				"x": 3.243682891,
				"y": -1.9271257849,
				"z": -3.5305269867,
				"element": "H" 
			},
			{
				"x": 3.2635227597,
				"y": -0.3546100769,
				"z": -1.606645115,
				"element": "H" 
			}
		],
		 "valence_orbital": [ 
			{
				"type": "occ",
				"energy": -0.298,
				"method": "rhf"
			},
			{
				"type": "occ",
				"energy": -0.2658,
				"method": "rhf"
			},
			{
				"type": "occ",
				"energy": -0.24665,
				"method": "rhf"
			},
			{
				"type": "occ",
				"energy": -0.23251,
				"method": "rhf"
			},
			{
				"type": "occ",
				"energy": -0.22605,
				"method": "rhf"
			},
			{
				"type": "unocc",
				"energy": -0.08395,
				"method": "rhf"
			},
			{
				"type": "unocc",
				"energy": -0.0213,
				"method": "rhf"
			},
			{
				"type": "unocc",
				"energy": -0.00793,
				"method": "rhf"
			},
			{
				"type": "unocc",
				"energy": 0.00619,
				"method": "rhf"
			},
			{
				"type": "unocc",
				"energy": 0.03895,
				"method": "rhf"
			}
		],
		"cosmo_sigma_profile": { 
			"-0.025": 0.0,
			"-0.024": 0.0,
			"-0.023": 0.0,
			"-0.022": 0.0,
			"-0.021": 0.0,
			"-0.02": 0.0,
			"-0.019": 0.0,
			"-0.018": 0.0,
			"-0.017": 0.0,
			"-0.016": 0.0,
			"-0.015": 0.0,
			"-0.014": 0.0,
			"-0.013": 0.0,
			"-0.012": 0.0,
			"-0.011": 0.0,
			"-0.01": 0.0,
			"-0.009": 0.0,
			"-0.008": 1.06510524866,
			"-0.007": 10.0469796122,
			"-0.006": 15.8937889045,
			"-0.005": 19.0595041243,
			"-0.004": 25.5022918649,
			"-0.003": 27.7851674158,
			"-0.002": 24.3831860559,
			"-0.001": 17.6992439381,
			"0.0": 13.9162930565,
			"0.001": 11.1169901874,
			"0.002": 13.7478340444,
			"0.003": 16.0761969457,
			"0.004": 16.1969689708,
			"0.005": 13.6144104691,
			"0.006": 6.8106729719,
			"0.007": 5.4963270714,
			"0.008": 3.57392632052,
			"0.009": 3.47302834576,
			"0.01": 2.96047438328,
			"0.011": 1.9117190331,
			"0.012": 2.08345270374,
			"0.013": 1.55119528391,
			"0.014": 2.03245303301,
			"0.015": 1.54946510316,
			"0.016": 0.928170973268,
			"0.017": 0.0461709777235,
			"0.018": 0.0,
			"0.019": 0.0,
			"0.02": 0.0,
			"0.021": 0.0,
			"0.022": 0.0,
			"0.023": 0.0,
			"0.024": 0.0,
			"0.025": 0.0
		}
	}
}
