{
	 "smiles": "CC12CCC3C(C1CCC2=O)C(=O)CC1CC(O)CCC31C", 
	 "Tm": 473.15, 
	 "num_atms": 50, 
	 "gaussian": { 
		 "optdone": 1, 
		 "sigma_profile": "yes", 
		 "theory": "DFT", 
		 "functional": "B3LYP", 
		 "basiset": "6-31G**", 
		 "properties": { 
			 "R2extent": 7703.475, 
			 "electric_dipole_moment_norm": 3.34874610713, 
			 "electric_quadrupole_moment_norm": 19.5702528264, 
			 "total_energy": -966.570773385, 
			 "HOMO_LUMO_gap": 0.2137, 
			 "cosmo_polarized_energy": -16.18, 
			 "cosmo_cavitation_energy": 43.26, 
			 "cosmo_dispersion_energy": -30.33, 
			 "cosmo_repulsion_energy": 2.22, 
			 "cosmo_total_nonelectrostatic_energy": 15.15, 
			 "SMD_solvation_energy": 6.86 
		},
		"coords": [
			{
				"x": 3.7154285193,
				"y": 0.6934446643,
				"z": 1.914157582,
				"element": "C" 
			},
			{
				"x": 3.042742572,
				"y": -0.6661856766,
				"z": 2.2249621688,
				"element": "C" 
			},
			{
				"x": 1.878831696,
				"y": -0.4850036766,
				"z": 3.2190680136,
				"element": "C" 
			},
			{
				"x": 0.6659971011,
				"y": 0.1636263378,
				"z": 2.5422965145,
				"element": "C" 
			},
			{
				"x": 0.0690860309,
				"y": -0.716277032,
				"z": 1.4108271975,
				"element": "C" 
			},
			{
				"x": 1.1081957753,
				"y": -1.7768234694,
				"z": 0.8936102267,
				"element": "C" 
			},
			{
				"x": 2.6052159676,
				"y": -1.4001639749,
				"z": 0.9114074423,
				"element": "C" 
			},
			{
				"x": 3.5138630059,
				"y": -2.6695782657,
				"z": 0.7907370829,
				"element": "C" 
			},
			{
				"x": 4.7105579884,
				"y": -2.4453402368,
				"z": 1.725955315,
				"element": "C" 
			},
			{
				"x": 4.1524047163,
				"y": -1.5509273364,
				"z": 2.8243921387,
				"element": "C" 
			},
			{
				"x": 4.5078038334,
				"y": -1.522967182,
				"z": 3.9840245885,
				"element": "O" 
			},
			{
				"x": 0.649361246,
				"y": -2.3234132333,
				"z": -0.4530313929,
				"element": "C" 
			},
			{
				"x": 1.4118533192,
				"y": -2.6219912957,
				"z": -1.3577186994,
				"element": "O" 
			},
			{
				"x": -0.8551602748,
				"y": -2.3693105628,
				"z": -0.5962651478,
				"element": "C" 
			},
			{
				"x": -1.3733354421,
				"y": -0.905377887,
				"z": -0.7277584793,
				"element": "C" 
			},
			{
				"x": -1.2381247919,
				"y": -0.4811352533,
				"z": -2.2107820435,
				"element": "C" 
			},
			{
				"x": -1.392310908,
				"y": 1.0153153093,
				"z": -2.4552923984,
				"element": "C" 
			},
			{
				"x": -2.7452998163,
				"y": 1.3545917686,
				"z": -2.1218735001,
				"element": "O" 
			},
			{
				"x": -0.3517857213,
				"y": 1.8162661808,
				"z": -1.628748589,
				"element": "C" 
			},
			{
				"x": 0.3199875178,
				"y": 0.9859898523,
				"z": -0.5163320728,
				"element": "C" 
			},
			{
				"x": -0.6624757218,
				"y": 0.0913703374,
				"z": 0.2811815788,
				"element": "C" 
			},
			{
				"x": -1.7464083845,
				"y": 0.9662213202,
				"z": 0.9520376706,
				"element": "C" 
			},
			{
				"x": 4.5594349604,
				"y": 0.5707516575,
				"z": 1.2267554293,
				"element": "H" 
			},
			{
				"x": 3.0123360521,
				"y": 1.3853142591,
				"z": 1.4408161163,
				"element": "H" 
			},
			{
				"x": 4.0906648605,
				"y": 1.1542953793,
				"z": 2.8333610095,
				"element": "H" 
			},
			{
				"x": 2.2196161307,
				"y": 0.1183155817,
				"z": 4.0663318656,
				"element": "H" 
			},
			{
				"x": 1.5958800002,
				"y": -1.4583881976,
				"z": 3.640205868,
				"element": "H" 
			},
			{
				"x": 0.9643719446,
				"y": 1.1418562172,
				"z": 2.1519349338,
				"element": "H" 
			},
			{
				"x": -0.1069661679,
				"y": 0.368408197,
				"z": 3.2899876463,
				"element": "H" 
			},
			{
				"x": -0.7270143854,
				"y": -1.3076675235,
				"z": 1.8815048616,
				"element": "H" 
			},
			{
				"x": 0.9984014123,
				"y": -2.6345053961,
				"z": 1.5775033944,
				"element": "H" 
			},
			{
				"x": 2.8076084776,
				"y": -0.7512104695,
				"z": 0.0528896032,
				"element": "H" 
			},
			{
				"x": 2.9560061296,
				"y": -3.5514864235,
				"z": 1.1289516807,
				"element": "H" 
			},
			{
				"x": 3.7943005734,
				"y": -2.8602363282,
				"z": -0.2451820038,
				"element": "H" 
			},
			{
				"x": 5.1551643324,
				"y": -3.3535991356,
				"z": 2.1391929053,
				"element": "H" 
			},
			{
				"x": 5.5127356897,
				"y": -1.8898410219,
				"z": 1.2195570939,
				"element": "H" 
			},
			{
				"x": -1.125548331,
				"y": -2.9564733035,
				"z": -1.4776598446,
				"element": "H" 
			},
			{
				"x": -1.2949354493,
				"y": -2.8463409278,
				"z": 0.2869168201,
				"element": "H" 
			},
			{
				"x": -2.4399450809,
				"y": -0.915776143,
				"z": -0.4828827551,
				"element": "H" 
			},
			{
				"x": -1.985260395,
				"y": -1.01972042,
				"z": -2.8038373102,
				"element": "H" 
			},
			{
				"x": -0.2569645493,
				"y": -0.7877334974,
				"z": -2.5933691576,
				"element": "H" 
			},
			{
				"x": -1.233321105,
				"y": 1.2119246136,
				"z": -3.5266548646,
				"element": "H" 
			},
			{
				"x": -2.8665180403,
				"y": 2.2958862273,
				"z": -2.3011579948,
				"element": "H" 
			},
			{
				"x": 0.4292706718,
				"y": 2.2029322504,
				"z": -2.2938100325,
				"element": "H" 
			},
			{
				"x": -0.8492963695,
				"y": 2.6939866271,
				"z": -1.1992594175,
				"element": "H" 
			},
			{
				"x": 1.0918714139,
				"y": 0.3563111807,
				"z": -0.9735809844,
				"element": "H" 
			},
			{
				"x": 0.8475172686,
				"y": 1.6680918503,
				"z": 0.1587555321,
				"element": "H" 
			},
			{
				"x": -2.3700831972,
				"y": 0.3575306465,
				"z": 1.6177409869,
				"element": "H" 
			},
			{
				"x": -2.402883539,
				"y": 1.41233745,
				"z": 0.203113204,
				"element": "H" 
			},
			{
				"x": -1.3062715364,
				"y": 1.7696059618,
				"z": 1.5522202174,
				"element": "H" 
			}
		],
		 "valence_orbital": [ 
			{
				"type": "occ",
				"energy": -0.29308,
				"method": "rhf"
			},
			{
				"type": "occ",
				"energy": -0.28646,
				"method": "rhf"
			},
			{
				"type": "occ",
				"energy": -0.2673,
				"method": "rhf"
			},
			{
				"type": "occ",
				"energy": -0.23939,
				"method": "rhf"
			},
			{
				"type": "occ",
				"energy": -0.22912,
				"method": "rhf"
			},
			{
				"type": "unocc",
				"energy": -0.01542,
				"method": "rhf"
			},
			{
				"type": "unocc",
				"energy": -0.01107,
				"method": "rhf"
			},
			{
				"type": "unocc",
				"energy": 0.06331,
				"method": "rhf"
			},
			{
				"type": "unocc",
				"energy": 0.06701,
				"method": "rhf"
			},
			{
				"type": "unocc",
				"energy": 0.07622,
				"method": "rhf"
			}
		],
		"cosmo_sigma_profile": { 
			"-0.025": 0.0,
			"-0.024": 0.0,
			"-0.023": 0.0,
			"-0.022": 0.0,
			"-0.021": 0.0,
			"-0.02": 0.0,
			"-0.019": 0.0,
			"-0.018": 0.0,
			"-0.017": 0.0,
			"-0.016": 0.0,
			"-0.015": 0.632802854338,
			"-0.014": 0.70296496805,
			"-0.013": 1.06899843893,
			"-0.012": 1.08997243986,
			"-0.011": 0.886551471777,
			"-0.01": 0.804442601538,
			"-0.009": 0.856514485892,
			"-0.008": 1.02635515003,
			"-0.007": 1.14497621027,
			"-0.006": 8.24599281822,
			"-0.005": 17.4895207461,
			"-0.004": 19.4738663958,
			"-0.003": 38.8623873532,
			"-0.002": 56.0377659765,
			"-0.001": 47.2703265449,
			"0.0": 38.5999541853,
			"0.001": 22.0834649174,
			"0.002": 11.1094487004,
			"0.003": 7.38344637379,
			"0.004": 5.79041084504,
			"0.005": 4.51531100444,
			"0.006": 4.85478781987,
			"0.007": 5.34535372687,
			"0.008": 3.87023750105,
			"0.009": 5.1982707527,
			"0.01": 4.53718753256,
			"0.011": 6.35607689575,
			"0.012": 8.68934547316,
			"0.013": 5.53834809382,
			"0.014": 1.84012562661,
			"0.015": 0.461236265941,
			"0.016": 0.0,
			"0.017": 0.0,
			"0.018": 0.0,
			"0.019": 0.0,
			"0.02": 0.0,
			"0.021": 0.0,
			"0.022": 0.0,
			"0.023": 0.0,
			"0.024": 0.0,
			"0.025": 0.0
		}
	}
}
