{
	 "smiles": "CC1=NC2=NC(=NN2C(Cl)=C1)C(F)(F)F", 
	 "Tm": 380.15, 
	 "num_atms": 19, 
	 "gaussian": { 
		 "optdone": 1, 
		 "sigma_profile": "yes", 
		 "theory": "DFT", 
		 "functional": "B3LYP", 
		 "basiset": "6-31G**", 
		 "properties": { 
			 "R2extent": 4396.7921, 
			 "electric_dipole_moment_norm": 6.04315956185, 
			 "electric_quadrupole_moment_norm": 7.11500268025, 
			 "total_energy": -1247.85071987, 
			 "HOMO_LUMO_gap": 0.18716, 
			 "cosmo_polarized_energy": -12.24, 
			 "cosmo_cavitation_energy": 27.89, 
			 "cosmo_dispersion_energy": -20.33, 
			 "cosmo_repulsion_energy": 1.54, 
			 "cosmo_total_nonelectrostatic_energy": 9.1, 
			 "SMD_solvation_energy": 1.67 
		},
		"coords": [
			{
				"x": 2.6621351459,
				"y": 0.6404323404,
				"z": 2.5292453414,
				"element": "C" 
			},
			{
				"x": 1.8709655356,
				"y": 0.7009400052,
				"z": 1.2491143405,
				"element": "C" 
			},
			{
				"x": 0.6219225162,
				"y": 0.2589889661,
				"z": 1.292435147,
				"element": "N" 
			},
			{
				"x": -0.0878141268,
				"y": 0.309061697,
				"z": 0.160474512,
				"element": "C" 
			},
			{
				"x": -1.3458865575,
				"y": -0.0634957102,
				"z": -0.0745388478,
				"element": "N" 
			},
			{
				"x": -1.5050316572,
				"y": 0.2216571645,
				"z": -1.3800628075,
				"element": "C" 
			},
			{
				"x": -0.4658391232,
				"y": 0.7498069154,
				"z": -2.0326686429,
				"element": "N" 
			},
			{
				"x": 0.4524839758,
				"y": 0.8091777142,
				"z": -1.0446293374,
				"element": "N" 
			},
			{
				"x": 1.7329322195,
				"y": 1.2645468074,
				"z": -1.0979825081,
				"element": "C" 
			},
			{
				"x": 2.3258599105,
				"y": 1.8594221391,
				"z": -2.5973233711,
				"element": "Cl" 
			},
			{
				"x": 2.4678034183,
				"y": 1.216285332,
				"z": 0.0603269232,
				"element": "C" 
			},
			{
				"x": -2.7957467668,
				"y": -0.0299997538,
				"z": -2.1225202775,
				"element": "C" 
			},
			{
				"x": -2.597097267,
				"y": -0.8780446139,
				"z": -3.1507253543,
				"element": "F" 
			},
			{
				"x": -3.2846534653,
				"y": 1.117775516,
				"z": -2.6318334538,
				"element": "F" 
			},
			{
				"x": -3.7202904205,
				"y": -0.5590153813,
				"z": -1.3128517053,
				"element": "F" 
			},
			{
				"x": 3.6768026469,
				"y": 1.0236693647,
				"z": 2.4029451934,
				"element": "H" 
			},
			{
				"x": 2.1573938125,
				"y": 1.22238589,
				"z": 3.306433338,
				"element": "H" 
			},
			{
				"x": 2.7150889067,
				"y": -0.3929051339,
				"z": 2.8854352818,
				"element": "H" 
			},
			{
				"x": 3.4903712963,
				"y": 1.569710741,
				"z": 0.0571262284,
				"element": "H" 
			}
		],
		 "valence_orbital": [ 
			{
				"type": "occ",
				"energy": -0.34898,
				"method": "rhf"
			},
			{
				"type": "occ",
				"energy": -0.30451,
				"method": "rhf"
			},
			{
				"type": "occ",
				"energy": -0.29683,
				"method": "rhf"
			},
			{
				"type": "occ",
				"energy": -0.29199,
				"method": "rhf"
			},
			{
				"type": "occ",
				"energy": -0.27043,
				"method": "rhf"
			},
			{
				"type": "unocc",
				"energy": -0.08327,
				"method": "rhf"
			},
			{
				"type": "unocc",
				"energy": -0.04497,
				"method": "rhf"
			},
			{
				"type": "unocc",
				"energy": -0.00717,
				"method": "rhf"
			},
			{
				"type": "unocc",
				"energy": 0.01473,
				"method": "rhf"
			},
			{
				"type": "unocc",
				"energy": 0.08476,
				"method": "rhf"
			}
		],
		"cosmo_sigma_profile": { 
			"-0.025": 0.0,
			"-0.024": 0.0,
			"-0.023": 0.0,
			"-0.022": 0.0,
			"-0.021": 0.0,
			"-0.02": 0.0,
			"-0.019": 0.0,
			"-0.018": 0.0,
			"-0.017": 0.0,
			"-0.016": 0.0,
			"-0.015": 0.0,
			"-0.014": 0.0,
			"-0.013": 0.0,
			"-0.012": 0.0,
			"-0.011": 0.0266924032026,
			"-0.01": 1.70636600194,
			"-0.009": 2.72418056689,
			"-0.008": 4.0066506786,
			"-0.007": 5.71046531481,
			"-0.006": 10.8206287108,
			"-0.005": 12.9718337382,
			"-0.004": 17.1585638488,
			"-0.003": 21.0851168642,
			"-0.002": 19.1716748629,
			"-0.001": 13.6666478747,
			"0.0": 11.4706951713,
			"0.001": 20.8458536226,
			"0.002": 35.8407689671,
			"0.003": 13.8054799346,
			"0.004": 5.33765500079,
			"0.005": 4.80105363045,
			"0.006": 3.56237506055,
			"0.007": 3.76538394933,
			"0.008": 3.66346965848,
			"0.009": 3.85422079787,
			"0.01": 3.26783290812,
			"0.011": 3.34616035335,
			"0.012": 2.17115518755,
			"0.013": 1.91737878379,
			"0.014": 1.013194194,
			"0.015": 0.0,
			"0.016": 0.0,
			"0.017": 0.0,
			"0.018": 0.0,
			"0.019": 0.0,
			"0.02": 0.0,
			"0.021": 0.0,
			"0.022": 0.0,
			"0.023": 0.0,
			"0.024": 0.0,
			"0.025": 0.0
		}
	}
}
