{
	 "smiles": "OC(=O)C1=C(OC2=CN=CC=C2)C=CC=C1", 
	 "Tm": 408.15, 
	 "num_atms": 25, 
	 "gaussian": { 
		 "optdone": 1, 
		 "sigma_profile": "yes", 
		 "theory": "DFT", 
		 "functional": "B3LYP", 
		 "basiset": "6-31G**", 
		 "properties": { 
			 "R2extent": 3905.5569, 
			 "electric_dipole_moment_norm": 3.04085499325, 
			 "electric_quadrupole_moment_norm": 16.1313800959, 
			 "total_energy": -743.117188272, 
			 "HOMO_LUMO_gap": 0.17747, 
			 "cosmo_polarized_energy": -13.72, 
			 "cosmo_cavitation_energy": 30.33, 
			 "cosmo_dispersion_energy": -21.55, 
			 "cosmo_repulsion_energy": 1.68, 
			 "cosmo_total_nonelectrostatic_energy": 10.46, 
			 "SMD_solvation_energy": 5.34 
		},
		"coords": [
			{
				"x": 1.326058079,
				"y": 0.7628851646,
				"z": -0.0134422756,
				"element": "O" 
			},
			{
				"x": 0.4478911651,
				"y": 1.40676619,
				"z": 0.7832064425,
				"element": "C" 
			},
			{
				"x": 0.7491732443,
				"y": 2.4202250096,
				"z": 1.3846616202,
				"element": "O" 
			},
			{
				"x": -0.8996890601,
				"y": 0.7685392804,
				"z": 0.876645047,
				"element": "C" 
			},
			{
				"x": -1.3420753119,
				"y": -0.3455417947,
				"z": 0.1368211367,
				"element": "C" 
			},
			{
				"x": -0.566202305,
				"y": -0.9198992412,
				"z": -0.8508352036,
				"element": "O" 
			},
			{
				"x": 0.2066877432,
				"y": -2.0209612241,
				"z": -0.5679106988,
				"element": "C" 
			},
			{
				"x": 0.9162531541,
				"y": -2.5672154824,
				"z": -1.6463986803,
				"element": "C" 
			},
			{
				"x": 1.7045039957,
				"y": -3.6352183033,
				"z": -1.5334009519,
				"element": "N" 
			},
			{
				"x": 1.8172899886,
				"y": -4.2058218198,
				"z": -0.3247713179,
				"element": "C" 
			},
			{
				"x": 1.1519724574,
				"y": -3.7310631732,
				"z": 0.803688925,
				"element": "C" 
			},
			{
				"x": 0.3253592503,
				"y": -2.6121704968,
				"z": 0.6884208354,
				"element": "C" 
			},
			{
				"x": -2.6332978383,
				"y": -0.8470003899,
				"z": 0.3175382638,
				"element": "C" 
			},
			{
				"x": -3.4979318621,
				"y": -0.2511661255,
				"z": 1.23282569,
				"element": "C" 
			},
			{
				"x": -3.0766456746,
				"y": 0.8574854406,
				"z": 1.9717869788,
				"element": "C" 
			},
			{
				"x": -1.7932339751,
				"y": 1.3578875394,
				"z": 1.7875666342,
				"element": "C" 
			},
			{
				"x": 2.1474275175,
				"y": 1.280785129,
				"z": 0.0342474528,
				"element": "H" 
			},
			{
				"x": 0.8259919134,
				"y": -2.1028198688,
				"z": -2.6262369461,
				"element": "H" 
			},
			{
				"x": 2.4665773393,
				"y": -5.0762227401,
				"z": -0.260676392,
				"element": "H" 
			},
			{
				"x": 1.275742363,
				"y": -4.2249165743,
				"z": 1.7627013199,
				"element": "H" 
			},
			{
				"x": -0.2060873729,
				"y": -2.2153022513,
				"z": 1.5462605014,
				"element": "H" 
			},
			{
				"x": -2.9440576141,
				"y": -1.6970595042,
				"z": -0.2808367139,
				"element": "H" 
			},
			{
				"x": -4.5004433965,
				"y": -0.6482699182,
				"z": 1.3620736656,
				"element": "H" 
			},
			{
				"x": -3.7471092287,
				"y": 1.3303331165,
				"z": 2.6822969555,
				"element": "H" 
			},
			{
				"x": -1.4417545715,
				"y": 2.2213420376,
				"z": 2.3414677113,
				"element": "H" 
			}
		],
		 "valence_orbital": [ 
			{
				"type": "occ",
				"energy": -0.283,
				"method": "rhf"
			},
			{
				"type": "occ",
				"energy": -0.27368,
				"method": "rhf"
			},
			{
				"type": "occ",
				"energy": -0.26449,
				"method": "rhf"
			},
			{
				"type": "occ",
				"energy": -0.25339,
				"method": "rhf"
			},
			{
				"type": "occ",
				"energy": -0.23596,
				"method": "rhf"
			},
			{
				"type": "unocc",
				"energy": -0.05849,
				"method": "rhf"
			},
			{
				"type": "unocc",
				"energy": -0.02518,
				"method": "rhf"
			},
			{
				"type": "unocc",
				"energy": -0.01865,
				"method": "rhf"
			},
			{
				"type": "unocc",
				"energy": -0.00098,
				"method": "rhf"
			},
			{
				"type": "unocc",
				"energy": 0.04691,
				"method": "rhf"
			}
		],
		"cosmo_sigma_profile": { 
			"-0.025": 0.0,
			"-0.024": 0.0,
			"-0.023": 0.0,
			"-0.022": 0.0,
			"-0.021": 0.0,
			"-0.02": 0.0,
			"-0.019": 0.161753691167,
			"-0.018": 0.806109131371,
			"-0.017": 0.987696485563,
			"-0.016": 0.571146593662,
			"-0.015": 0.832499885706,
			"-0.014": 0.63066566432,
			"-0.013": 0.686346372022,
			"-0.012": 0.751298524049,
			"-0.011": 0.771941541359,
			"-0.01": 0.669049593705,
			"-0.009": 0.545005016922,
			"-0.008": 1.27260085276,
			"-0.007": 10.069141893,
			"-0.006": 16.9361178144,
			"-0.005": 17.7137361732,
			"-0.004": 14.5841574051,
			"-0.003": 15.0554773332,
			"-0.002": 14.6281361364,
			"-0.001": 16.2408113813,
			"0.0": 15.746039924,
			"0.001": 20.4844697406,
			"0.002": 23.5709983726,
			"0.003": 20.8613093479,
			"0.004": 8.12805833812,
			"0.005": 7.1612805674,
			"0.006": 4.99302889951,
			"0.007": 3.70695208286,
			"0.008": 4.7535537268,
			"0.009": 4.19140555307,
			"0.01": 3.88191341088,
			"0.011": 4.71579394329,
			"0.012": 3.93757531863,
			"0.013": 1.30793715207,
			"0.014": 0.625776570013,
			"0.015": 1.05367731415,
			"0.016": 0.71961654271,
			"0.017": 0.224101293016,
			"0.018": 0.0,
			"0.019": 0.0,
			"0.02": 0.0,
			"0.021": 0.0,
			"0.022": 0.0,
			"0.023": 0.0,
			"0.024": 0.0,
			"0.025": 0.0
		}
	}
}
