{
	 "smiles": "OC(=O)C1=CC=C(SCC2=CN3C=CC=CC3=N2)C=C1", 
	 "Tm": 375.15, 
	 "num_atms": 32, 
	 "gaussian": { 
		 "optdone": 1, 
		 "sigma_profile": "yes", 
		 "theory": "DFT", 
		 "functional": "B3LYP", 
		 "basiset": "6-31G**", 
		 "properties": { 
			 "R2extent": 7887.9932, 
			 "electric_dipole_moment_norm": 4.36006405114, 
			 "electric_quadrupole_moment_norm": 30.2772377948, 
			 "total_energy": -1236.96814908, 
			 "HOMO_LUMO_gap": 0.16265, 
			 "cosmo_polarized_energy": -23.7, 
			 "cosmo_cavitation_energy": 38.75, 
			 "cosmo_dispersion_energy": -27.84, 
			 "cosmo_repulsion_energy": 2.08, 
			 "cosmo_total_nonelectrostatic_energy": 12.99, 
			 "SMD_solvation_energy": 5.66 
		},
		"coords": [
			{
				"x": 2.1118881252,
				"y": -4.7566017822,
				"z": -1.9566783963,
				"element": "O" 
			},
			{
				"x": 1.3176277777,
				"y": -3.9376151546,
				"z": -2.6989849649,
				"element": "C" 
			},
			{
				"x": 1.403241691,
				"y": -3.9518665217,
				"z": -3.9054382738,
				"element": "O" 
			},
			{
				"x": 0.3722880529,
				"y": -3.0495332862,
				"z": -1.9531038752,
				"element": "C" 
			},
			{
				"x": -0.000866451,
				"y": -3.2552183516,
				"z": -0.6170196666,
				"element": "C" 
			},
			{
				"x": -0.8796859377,
				"y": -2.3835269303,
				"z": 0.0188886203,
				"element": "C" 
			},
			{
				"x": -1.426233193,
				"y": -1.2913957059,
				"z": -0.673998705,
				"element": "C" 
			},
			{
				"x": -2.6008419559,
				"y": -0.2796933378,
				"z": 0.2011590449,
				"element": "S" 
			},
			{
				"x": -2.3473665895,
				"y": 1.4164063454,
				"z": -0.5043554744,
				"element": "C" 
			},
			{
				"x": -1.0539925063,
				"y": 2.06067906,
				"z": -0.1299336048,
				"element": "C" 
			},
			{
				"x": 0.1199578501,
				"y": 2.0846879659,
				"z": -0.8647232037,
				"element": "C" 
			},
			{
				"x": 1.0226569129,
				"y": 2.785407448,
				"z": -0.0947800082,
				"element": "N" 
			},
			{
				"x": 2.3366854974,
				"y": 3.1229568464,
				"z": -0.3141888821,
				"element": "C" 
			},
			{
				"x": 3.0083931407,
				"y": 3.8421522737,
				"z": 0.6336452242,
				"element": "C" 
			},
			{
				"x": 2.3542158915,
				"y": 4.2390208637,
				"z": 1.8355981934,
				"element": "C" 
			},
			{
				"x": 1.0406845117,
				"y": 3.902680885,
				"z": 2.0554578291,
				"element": "C" 
			},
			{
				"x": 0.3373170591,
				"y": 3.1562603773,
				"z": 1.0807184822,
				"element": "C" 
			},
			{
				"x": -0.9178115904,
				"y": 2.7188415643,
				"z": 1.0590738626,
				"element": "N" 
			},
			{
				"x": -1.0780286214,
				"y": -1.1030020804,
				"z": -2.0222672096,
				"element": "C" 
			},
			{
				"x": -0.1906183738,
				"y": -1.9699077129,
				"z": -2.6482729382,
				"element": "C" 
			},
			{
				"x": 2.0495563577,
				"y": -4.5257955744,
				"z": -1.0198490358,
				"element": "H" 
			},
			{
				"x": 0.3704584476,
				"y": -4.1101692884,
				"z": -0.0562264472,
				"element": "H" 
			},
			{
				"x": -1.144001845,
				"y": -2.5441436162,
				"z": 1.059365732,
				"element": "H" 
			},
			{
				"x": -2.4967145797,
				"y": 1.3854490422,
				"z": -1.5853309762,
				"element": "H" 
			},
			{
				"x": -3.1742315004,
				"y": 1.9814505453,
				"z": -0.0674029564,
				"element": "H" 
			},
			{
				"x": 0.3852731286,
				"y": 1.6729886717,
				"z": -1.8255054,
				"element": "H" 
			},
			{
				"x": 2.7730189451,
				"y": 2.7896653794,
				"z": -1.2480938544,
				"element": "H" 
			},
			{
				"x": 4.0448706028,
				"y": 4.1051462207,
				"z": 0.4565603939,
				"element": "H" 
			},
			{
				"x": 2.9027662036,
				"y": 4.8098251341,
				"z": 2.5774798122,
				"element": "H" 
			},
			{
				"x": 0.5101494734,
				"y": 4.1860328811,
				"z": 2.9570140034,
				"element": "H" 
			},
			{
				"x": -1.513233586,
				"y": -0.289820806,
				"z": -2.5931119225,
				"element": "H" 
			},
			{
				"x": 0.0753770611,
				"y": -1.8364613554,
				"z": -3.691595403,
				"element": "H" 
			}
		],
		 "valence_orbital": [ 
			{
				"type": "occ",
				"energy": -0.27508,
				"method": "rhf"
			},
			{
				"type": "occ",
				"energy": -0.27027,
				"method": "rhf"
			},
			{
				"type": "occ",
				"energy": -0.24868,
				"method": "rhf"
			},
			{
				"type": "occ",
				"energy": -0.22421,
				"method": "rhf"
			},
			{
				"type": "occ",
				"energy": -0.2177,
				"method": "rhf"
			},
			{
				"type": "unocc",
				"energy": -0.05505,
				"method": "rhf"
			},
			{
				"type": "unocc",
				"energy": -0.04139,
				"method": "rhf"
			},
			{
				"type": "unocc",
				"energy": -0.02479,
				"method": "rhf"
			},
			{
				"type": "unocc",
				"energy": -0.00475,
				"method": "rhf"
			},
			{
				"type": "unocc",
				"energy": 0.02133,
				"method": "rhf"
			}
		],
		"cosmo_sigma_profile": { 
			"-0.025": 0.0,
			"-0.024": 0.0,
			"-0.023": 0.0,
			"-0.022": 0.0,
			"-0.021": 0.0,
			"-0.02": 0.0,
			"-0.019": 0.202342544326,
			"-0.018": 0.944725080376,
			"-0.017": 0.972734865088,
			"-0.016": 0.880388220815,
			"-0.015": 1.17720189193,
			"-0.014": 0.777007634402,
			"-0.013": 1.01862015832,
			"-0.012": 1.49991727047,
			"-0.011": 1.14732679734,
			"-0.01": 2.04270956563,
			"-0.009": 7.42040281434,
			"-0.008": 7.64816503078,
			"-0.007": 16.5445742839,
			"-0.006": 19.9014310202,
			"-0.005": 19.0296664729,
			"-0.004": 16.6286838955,
			"-0.003": 15.2632015747,
			"-0.002": 14.6454903736,
			"-0.001": 16.5847505813,
			"0.0": 19.5427094843,
			"0.001": 20.6540294555,
			"0.002": 24.3028374409,
			"0.003": 30.6392161591,
			"0.004": 15.6323209121,
			"0.005": 7.35824667091,
			"0.006": 6.82088603508,
			"0.007": 5.22117885242,
			"0.008": 7.2981765286,
			"0.009": 6.51420673114,
			"0.01": 5.63532671444,
			"0.011": 6.5502318875,
			"0.012": 6.26445361155,
			"0.013": 2.38590267502,
			"0.014": 1.34765593087,
			"0.015": 0.980615103003,
			"0.016": 0.568764099033,
			"0.017": 1.12897870122,
			"0.018": 0.233041404478,
			"0.019": 0.0,
			"0.02": 0.0,
			"0.021": 0.0,
			"0.022": 0.0,
			"0.023": 0.0,
			"0.024": 0.0,
			"0.025": 0.0
		}
	}
}
