{
	 "smiles": "NC(=S)NC1=C(OC(F)(F)F)C=CC=C1", 
	 "Tm": 430.15, 
	 "num_atms": 22, 
	 "gaussian": { 
		 "optdone": 1, 
		 "sigma_profile": "yes", 
		 "theory": "DFT", 
		 "functional": "B3LYP", 
		 "basiset": "6-31G**", 
		 "properties": { 
			 "R2extent": 4000.4688, 
			 "electric_dipole_moment_norm": 5.68283195775, 
			 "electric_quadrupole_moment_norm": 25.9275439249, 
			 "total_energy": -1191.5201436, 
			 "HOMO_LUMO_gap": 0.16702, 
			 "cosmo_polarized_energy": -15.43, 
			 "cosmo_cavitation_energy": 29.7, 
			 "cosmo_dispersion_energy": -20.99, 
			 "cosmo_repulsion_energy": 1.56, 
			 "cosmo_total_nonelectrostatic_energy": 10.27, 
			 "SMD_solvation_energy": 5.64 
		},
		"coords": [
			{
				"x": -2.6343533423,
				"y": 1.3346589862,
				"z": -1.7149587941,
				"element": "N" 
			},
			{
				"x": -3.1127472666,
				"y": 0.2095799959,
				"z": -1.130684278,
				"element": "C" 
			},
			{
				"x": -4.7484788509,
				"y": -0.1711832634,
				"z": -1.0856269384,
				"element": "S" 
			},
			{
				"x": -2.1917689701,
				"y": -0.6647361172,
				"z": -0.5831007641,
				"element": "N" 
			},
			{
				"x": -0.8099354591,
				"y": -0.8131739812,
				"z": -0.8615622874,
				"element": "C" 
			},
			{
				"x": 0.1518273647,
				"y": 0.1719362613,
				"z": -0.59268045,
				"element": "C" 
			},
			{
				"x": -0.2658805526,
				"y": 1.4267368571,
				"z": -0.1120596868,
				"element": "O" 
			},
			{
				"x": -0.1470437667,
				"y": 1.6584283584,
				"z": 1.231344683,
				"element": "C" 
			},
			{
				"x": -0.7176108129,
				"y": 2.8348690223,
				"z": 1.4787351274,
				"element": "F" 
			},
			{
				"x": -0.7442984235,
				"y": 0.7115239791,
				"z": 1.9651212097,
				"element": "F" 
			},
			{
				"x": 1.1422035795,
				"y": 1.7145578736,
				"z": 1.6129437733,
				"element": "F" 
			},
			{
				"x": 1.5046312066,
				"y": -0.0310031304,
				"z": -0.8492826052,
				"element": "C" 
			},
			{
				"x": 1.9362610533,
				"y": -1.2589077973,
				"z": -1.3463000228,
				"element": "C" 
			},
			{
				"x": 1.0031058961,
				"y": -2.2682835069,
				"z": -1.5916520165,
				"element": "C" 
			},
			{
				"x": -0.3511070575,
				"y": -2.0430504891,
				"z": -1.3604293437,
				"element": "C" 
			},
			{
				"x": -3.3452680953,
				"y": 1.9816922278,
				"z": -2.0204438254,
				"element": "H" 
			},
			{
				"x": -1.7551479465,
				"y": 1.7287095421,
				"z": -1.407824334,
				"element": "H" 
			},
			{
				"x": -2.6524702693,
				"y": -1.5119689393,
				"z": -0.2768625148,
				"element": "H" 
			},
			{
				"x": 2.2010509573,
				"y": 0.7728054839,
				"z": -0.6400467908,
				"element": "H" 
			},
			{
				"x": 2.9912722126,
				"y": -1.4237127287,
				"z": -1.5386941025,
				"element": "H" 
			},
			{
				"x": 1.3265670877,
				"y": -3.229033595,
				"z": -1.9796679709,
				"element": "H" 
			},
			{
				"x": -1.0800085443,
				"y": -2.8193450389,
				"z": -1.5741680678,
				"element": "H" 
			}
		],
		 "valence_orbital": [ 
			{
				"type": "occ",
				"energy": -0.30813,
				"method": "rhf"
			},
			{
				"type": "occ",
				"energy": -0.28034,
				"method": "rhf"
			},
			{
				"type": "occ",
				"energy": -0.26194,
				"method": "rhf"
			},
			{
				"type": "occ",
				"energy": -0.21567,
				"method": "rhf"
			},
			{
				"type": "occ",
				"energy": -0.20588,
				"method": "rhf"
			},
			{
				"type": "unocc",
				"energy": -0.03886,
				"method": "rhf"
			},
			{
				"type": "unocc",
				"energy": -0.03289,
				"method": "rhf"
			},
			{
				"type": "unocc",
				"energy": 0.00067,
				"method": "rhf"
			},
			{
				"type": "unocc",
				"energy": 0.06228,
				"method": "rhf"
			},
			{
				"type": "unocc",
				"energy": 0.06824,
				"method": "rhf"
			}
		],
		"cosmo_sigma_profile": { 
			"-0.025": 0.0,
			"-0.024": 0.0,
			"-0.023": 0.0,
			"-0.022": 0.0,
			"-0.021": 0.0,
			"-0.02": 0.0,
			"-0.019": 0.0,
			"-0.018": 0.0,
			"-0.017": 0.0,
			"-0.016": 0.0,
			"-0.015": 0.444606083022,
			"-0.014": 1.91183238099,
			"-0.013": 1.81393872159,
			"-0.012": 2.47868333177,
			"-0.011": 3.11451023653,
			"-0.01": 2.58253834593,
			"-0.009": 3.01867165272,
			"-0.008": 4.65463516342,
			"-0.007": 9.16426672355,
			"-0.006": 10.3139825427,
			"-0.005": 11.9987791105,
			"-0.004": 9.92023018394,
			"-0.003": 10.4921256113,
			"-0.002": 11.898326586,
			"-0.001": 14.8434291844,
			"0.0": 19.2312258643,
			"0.001": 31.4171270792,
			"0.002": 33.8475394192,
			"0.003": 13.7372381176,
			"0.004": 5.82162235128,
			"0.005": 4.36896384191,
			"0.006": 3.72053643175,
			"0.007": 4.233955205,
			"0.008": 3.73282202729,
			"0.009": 3.66659486703,
			"0.01": 6.33615236332,
			"0.011": 7.89788441322,
			"0.012": 4.1158943939,
			"0.013": 0.236190442541,
			"0.014": 0.0,
			"0.015": 0.0,
			"0.016": 0.0,
			"0.017": 0.0,
			"0.018": 0.0,
			"0.019": 0.0,
			"0.02": 0.0,
			"0.021": 0.0,
			"0.022": 0.0,
			"0.023": 0.0,
			"0.024": 0.0,
			"0.025": 0.0
		}
	}
}
