{
	 "smiles": "NNC(=O)C1=CC2=C(C=C1)C(=O)N1CCCC1=N2", 
	 "Tm": 542.15, 
	 "num_atms": 30, 
	 "gaussian": { 
		 "optdone": 1, 
		 "sigma_profile": "yes", 
		 "theory": "DFT", 
		 "functional": "B3LYP", 
		 "basiset": "6-31G**", 
		 "properties": { 
			 "R2extent": 6814.1653, 
			 "electric_dipole_moment_norm": 2.56528677734, 
			 "electric_quadrupole_moment_norm": 41.8349920381, 
			 "total_energy": -833.977776017, 
			 "HOMO_LUMO_gap": 0.17093, 
			 "cosmo_polarized_energy": -22.87, 
			 "cosmo_cavitation_energy": 33.8, 
			 "cosmo_dispersion_energy": -25.22, 
			 "cosmo_repulsion_energy": 1.96, 
			 "cosmo_total_nonelectrostatic_energy": 10.53, 
			 "SMD_solvation_energy": 5.21 
		},
		"coords": [
			{
				"x": -4.0656751641,
				"y": 0.6235782931,
				"z": -4.4844202254,
				"element": "N" 
			},
			{
				"x": -2.9502247907,
				"y": 0.5975048151,
				"z": -5.336941121,
				"element": "N" 
			},
			{
				"x": -1.6473189957,
				"y": 0.5149289465,
				"z": -4.8800860722,
				"element": "C" 
			},
			{
				"x": -0.7407720427,
				"y": 0.8909720018,
				"z": -5.6148462916,
				"element": "O" 
			},
			{
				"x": -1.3654818774,
				"y": -0.0669300389,
				"z": -3.5227601184,
				"element": "C" 
			},
			{
				"x": -0.1876069252,
				"y": 0.3528231304,
				"z": -2.9114751451,
				"element": "C" 
			},
			{
				"x": 0.2049446459,
				"y": -0.1671309154,
				"z": -1.6654661611,
				"element": "C" 
			},
			{
				"x": -0.6097474731,
				"y": -1.1527571076,
				"z": -1.0542267247,
				"element": "C" 
			},
			{
				"x": -1.7833105442,
				"y": -1.5907928123,
				"z": -1.6877781398,
				"element": "C" 
			},
			{
				"x": -2.1657715951,
				"y": -1.0530377607,
				"z": -2.9048077564,
				"element": "C" 
			},
			{
				"x": -0.2196392803,
				"y": -1.7238930065,
				"z": 0.2433997681,
				"element": "C" 
			},
			{
				"x": -0.8240126758,
				"y": -2.5842065666,
				"z": 0.8741748763,
				"element": "O" 
			},
			{
				"x": 0.9663691704,
				"y": -1.167837101,
				"z": 0.7299977541,
				"element": "N" 
			},
			{
				"x": 1.5756097236,
				"y": -1.5674252551,
				"z": 2.0038929551,
				"element": "C" 
			},
			{
				"x": 2.5852163528,
				"y": -0.4318865762,
				"z": 2.2691682072,
				"element": "C" 
			},
			{
				"x": 2.9322475044,
				"y": 0.1052684662,
				"z": 0.8639749969,
				"element": "C" 
			},
			{
				"x": 1.6987695374,
				"y": -0.2121199426,
				"z": 0.0518519028,
				"element": "C" 
			},
			{
				"x": 1.3821827294,
				"y": 0.3021776154,
				"z": -1.0883140549,
				"element": "N" 
			},
			{
				"x": -4.8115577452,
				"y": 0.0663468376,
				"z": -4.8907060203,
				"element": "H" 
			},
			{
				"x": -4.4014008093,
				"y": 1.5766751445,
				"z": -4.3586584881,
				"element": "H" 
			},
			{
				"x": -2.9980052277,
				"y": 1.0741049838,
				"z": -6.2343273261,
				"element": "H" 
			},
			{
				"x": 0.4456840457,
				"y": 1.0842407316,
				"z": -3.399768769,
				"element": "H" 
			},
			{
				"x": -2.3748053483,
				"y": -2.3564796681,
				"z": -1.1967224223,
				"element": "H" 
			},
			{
				"x": -3.0758974465,
				"y": -1.3872263127,
				"z": -3.3838590449,
				"element": "H" 
			},
			{
				"x": 0.8013896971,
				"y": -1.6699598497,
				"z": 2.766357642,
				"element": "H" 
			},
			{
				"x": 2.0615239506,
				"y": -2.5435957779,
				"z": 1.8882302339,
				"element": "H" 
			},
			{
				"x": 3.4593232605,
				"y": -0.7804034196,
				"z": 2.8230735967,
				"element": "H" 
			},
			{
				"x": 2.1061651015,
				"y": 0.354918318,
				"z": 2.8604656322,
				"element": "H" 
			},
			{
				"x": 3.7885967998,
				"y": -0.4263115908,
				"z": 0.4295858442,
				"element": "H" 
			},
			{
				"x": 3.1627054218,
				"y": 1.1719544179,
				"z": 0.8342904718,
				"element": "H" 
			}
		],
		 "valence_orbital": [ 
			{
				"type": "occ",
				"energy": -0.26398,
				"method": "rhf"
			},
			{
				"type": "occ",
				"energy": -0.25909,
				"method": "rhf"
			},
			{
				"type": "occ",
				"energy": -0.25753,
				"method": "rhf"
			},
			{
				"type": "occ",
				"energy": -0.24409,
				"method": "rhf"
			},
			{
				"type": "occ",
				"energy": -0.22196,
				"method": "rhf"
			},
			{
				"type": "unocc",
				"energy": -0.05103,
				"method": "rhf"
			},
			{
				"type": "unocc",
				"energy": -0.02776,
				"method": "rhf"
			},
			{
				"type": "unocc",
				"energy": 0.02615,
				"method": "rhf"
			},
			{
				"type": "unocc",
				"energy": 0.03295,
				"method": "rhf"
			},
			{
				"type": "unocc",
				"energy": 0.06142,
				"method": "rhf"
			}
		],
		"cosmo_sigma_profile": { 
			"-0.025": 0.0,
			"-0.024": 0.0,
			"-0.023": 0.0,
			"-0.022": 0.0,
			"-0.021": 0.0,
			"-0.02": 0.0,
			"-0.019": 0.0,
			"-0.018": 0.0,
			"-0.017": 0.0,
			"-0.016": 0.0,
			"-0.015": 0.0,
			"-0.014": 0.0242568727309,
			"-0.013": 1.49397332413,
			"-0.012": 3.8569104524,
			"-0.011": 5.28926207521,
			"-0.01": 5.11632039622,
			"-0.009": 4.45616076614,
			"-0.008": 3.50143035537,
			"-0.007": 2.69734847524,
			"-0.006": 14.2159929293,
			"-0.005": 24.0465030084,
			"-0.004": 27.1014230502,
			"-0.003": 21.3324376328,
			"-0.002": 17.1613507315,
			"-0.001": 14.7084473996,
			"0.0": 11.8862535135,
			"0.001": 13.0217505389,
			"0.002": 19.0242973518,
			"0.003": 12.85045699,
			"0.004": 8.12165379347,
			"0.005": 6.10632744424,
			"0.006": 5.63093411888,
			"0.007": 6.06980107798,
			"0.008": 3.73396295004,
			"0.009": 4.84188258398,
			"0.01": 5.22525025166,
			"0.011": 4.40620796087,
			"0.012": 6.98178576625,
			"0.013": 11.1175752056,
			"0.014": 3.29833386612,
			"0.015": 0.862671368761,
			"0.016": 0.104119201499,
			"0.017": 0.0,
			"0.018": 0.0,
			"0.019": 0.0,
			"0.02": 0.0,
			"0.021": 0.0,
			"0.022": 0.0,
			"0.023": 0.0,
			"0.024": 0.0,
			"0.025": 0.0
		}
	}
}
