{
	 "smiles": "CN(C1=CC=CC=C1)C1=CC=CC=C1", 
	 "Tm": 265.55, 
	 "num_atms": 27, 
	 "gaussian": { 
		 "optdone": 1, 
		 "sigma_profile": "yes", 
		 "theory": "DFT", 
		 "functional": "B3LYP", 
		 "basiset": "6-31G**", 
		 "properties": { 
			 "R2extent": 3378.5463, 
			 "electric_dipole_moment_norm": 1.21371464109, 
			 "electric_quadrupole_moment_norm": 5.38899716738, 
			 "total_energy": -557.963163249, 
			 "HOMO_LUMO_gap": 0.17858, 
			 "cosmo_polarized_energy": -5.81, 
			 "cosmo_cavitation_energy": 29.67, 
			 "cosmo_dispersion_energy": -21.44, 
			 "cosmo_repulsion_energy": 1.68, 
			 "cosmo_total_nonelectrostatic_energy": 9.9, 
			 "SMD_solvation_energy": 4.85 
		},
		"coords": [
			{
				"x": 0.7188540852,
				"y": 1.3209865151,
				"z": 0.5791483389,
				"element": "C" 
			},
			{
				"x": -0.3341267355,
				"y": 0.4042475888,
				"z": 0.1574276212,
				"element": "N" 
			},
			{
				"x": -0.7746935223,
				"y": -0.5597898472,
				"z": 1.110300994,
				"element": "C" 
			},
			{
				"x": -0.6129421661,
				"y": -1.936887552,
				"z": 0.8893458948,
				"element": "C" 
			},
			{
				"x": -1.0303170235,
				"y": -2.8585213602,
				"z": 1.848597457,
				"element": "C" 
			},
			{
				"x": -1.5959009658,
				"y": -2.425524977,
				"z": 3.0499875613,
				"element": "C" 
			},
			{
				"x": -1.7520974718,
				"y": -1.0570637425,
				"z": 3.2783640417,
				"element": "C" 
			},
			{
				"x": -1.3554927618,
				"y": -0.1312945353,
				"z": 2.3139805871,
				"element": "C" 
			},
			{
				"x": -0.5659407027,
				"y": 0.225704765,
				"z": -1.2166875058,
				"element": "C" 
			},
			{
				"x": -1.7253649332,
				"y": -0.4425604019,
				"z": -1.6666363795,
				"element": "C" 
			},
			{
				"x": -1.9831828819,
				"y": -0.5812307568,
				"z": -3.0254426429,
				"element": "C" 
			},
			{
				"x": -1.1099734365,
				"y": -0.0524114076,
				"z": -3.9814855277,
				"element": "C" 
			},
			{
				"x": 0.0304000667,
				"y": 0.6186298746,
				"z": -3.5460812886,
				"element": "C" 
			},
			{
				"x": 0.3080376013,
				"y": 0.7570233219,
				"z": -2.1846663356,
				"element": "C" 
			},
			{
				"x": 0.6567267708,
				"y": 1.4646086154,
				"z": 1.6577952814,
				"element": "H" 
			},
			{
				"x": 1.7273412099,
				"y": 0.9429485638,
				"z": 0.348108747,
				"element": "H" 
			},
			{
				"x": 0.5962796124,
				"y": 2.2939703003,
				"z": 0.0928118258,
				"element": "H" 
			},
			{
				"x": -0.1611474141,
				"y": -2.2770958347,
				"z": -0.0367548365,
				"element": "H" 
			},
			{
				"x": -0.8975154052,
				"y": -3.9204886258,
				"z": 1.6611630031,
				"element": "H" 
			},
			{
				"x": -1.9136275657,
				"y": -3.1460783435,
				"z": 3.7976128384,
				"element": "H" 
			},
			{
				"x": -2.1999399549,
				"y": -0.7064170888,
				"z": 4.2040242773,
				"element": "H" 
			},
			{
				"x": -1.5057806301,
				"y": 0.9311441894,
				"z": 2.4818953219,
				"element": "H" 
			},
			{
				"x": -2.425682428,
				"y": -0.841414376,
				"z": -0.9413070166,
				"element": "H" 
			},
			{
				"x": -2.8855727428,
				"y": -1.0986187332,
				"z": -3.3402716283,
				"element": "H" 
			},
			{
				"x": -1.319087446,
				"y": -0.1597554783,
				"z": -5.0412574235,
				"element": "H" 
			},
			{
				"x": 0.7248642346,
				"y": 1.0383923862,
				"z": -4.2690548979,
				"element": "H" 
			},
			{
				"x": 1.2122826072,
				"y": 1.2723969402,
				"z": -1.883718308,
				"element": "H" 
			}
		],
		 "valence_orbital": [ 
			{
				"type": "occ",
				"energy": -0.28892,
				"method": "rhf"
			},
			{
				"type": "occ",
				"energy": -0.25217,
				"method": "rhf"
			},
			{
				"type": "occ",
				"energy": -0.24947,
				"method": "rhf"
			},
			{
				"type": "occ",
				"energy": -0.24043,
				"method": "rhf"
			},
			{
				"type": "occ",
				"energy": -0.18523,
				"method": "rhf"
			},
			{
				"type": "unocc",
				"energy": -0.00665,
				"method": "rhf"
			},
			{
				"type": "unocc",
				"energy": -0.00444,
				"method": "rhf"
			},
			{
				"type": "unocc",
				"energy": 0.01203,
				"method": "rhf"
			},
			{
				"type": "unocc",
				"energy": 0.02587,
				"method": "rhf"
			},
			{
				"type": "unocc",
				"energy": 0.09084,
				"method": "rhf"
			}
		],
		"cosmo_sigma_profile": { 
			"-0.025": 0.0,
			"-0.024": 0.0,
			"-0.023": 0.0,
			"-0.022": 0.0,
			"-0.021": 0.0,
			"-0.02": 0.0,
			"-0.019": 0.0,
			"-0.018": 0.0,
			"-0.017": 0.0,
			"-0.016": 0.0,
			"-0.015": 0.0,
			"-0.014": 0.0,
			"-0.013": 0.0,
			"-0.012": 0.0,
			"-0.011": 0.0,
			"-0.01": 0.0,
			"-0.009": 0.0,
			"-0.008": 0.0,
			"-0.007": 0.0,
			"-0.006": 4.37634904231,
			"-0.005": 20.0335313277,
			"-0.004": 26.9717391709,
			"-0.003": 27.441830579,
			"-0.002": 23.6835322338,
			"-0.001": 18.8703061635,
			"0.0": 15.822936124,
			"0.001": 14.154834712,
			"0.002": 14.8537075675,
			"0.003": 15.5536634231,
			"0.004": 15.0321716497,
			"0.005": 16.4906115277,
			"0.006": 15.3222620286,
			"0.007": 7.25656575497,
			"0.008": 0.734938794168,
			"0.009": 0.0,
			"0.01": 0.0,
			"0.011": 0.0,
			"0.012": 0.0,
			"0.013": 0.0,
			"0.014": 0.0,
			"0.015": 0.0,
			"0.016": 0.0,
			"0.017": 0.0,
			"0.018": 0.0,
			"0.019": 0.0,
			"0.02": 0.0,
			"0.021": 0.0,
			"0.022": 0.0,
			"0.023": 0.0,
			"0.024": 0.0,
			"0.025": 0.0
		}
	}
}
