{
	 "smiles": "OC(=O)C1=CC=CC(=C1)C#N", 
	 "Tm": 494.15, 
	 "num_atms": 16, 
	 "gaussian": { 
		 "optdone": 1, 
		 "sigma_profile": "yes", 
		 "theory": "DFT", 
		 "functional": "B3LYP", 
		 "basiset": "6-31G**", 
		 "properties": { 
			 "R2extent": 1899.6916, 
			 "electric_dipole_moment_norm": 6.17285418344, 
			 "electric_quadrupole_moment_norm": 12.1305268913, 
			 "total_energy": -513.051134799, 
			 "HOMO_LUMO_gap": 0.20632, 
			 "cosmo_polarized_energy": -18.94, 
			 "cosmo_cavitation_energy": 22.35, 
			 "cosmo_dispersion_energy": -15.88, 
			 "cosmo_repulsion_energy": 1.27, 
			 "cosmo_total_nonelectrostatic_energy": 7.74, 
			 "SMD_solvation_energy": 6.52 
		},
		"coords": [
			{
				"x": 2.3640450165,
				"y": 0.6121072331,
				"z": 2.1223312501,
				"element": "O" 
			},
			{
				"x": 1.8186258009,
				"y": 0.8160697185,
				"z": 0.8952873362,
				"element": "C" 
			},
			{
				"x": 2.3274376507,
				"y": 1.5922744175,
				"z": 0.1237626414,
				"element": "O" 
			},
			{
				"x": 0.5737995911,
				"y": 0.0385218545,
				"z": 0.5686940775,
				"element": "C" 
			},
			{
				"x": -0.2750042961,
				"y": -0.4978127331,
				"z": 1.5469168141,
				"element": "C" 
			},
			{
				"x": -1.427842276,
				"y": -1.1930028477,
				"z": 1.178363992,
				"element": "C" 
			},
			{
				"x": -1.7423293139,
				"y": -1.3623859068,
				"z": -0.1666385943,
				"element": "C" 
			},
			{
				"x": -0.9018123545,
				"y": -0.8157165888,
				"z": -1.1533885505,
				"element": "C" 
			},
			{
				"x": 0.2483711693,
				"y": -0.1076309822,
				"z": -0.7832314145,
				"element": "C" 
			},
			{
				"x": -1.2284623453,
				"y": -0.9832878382,
				"z": -2.5411059083,
				"element": "C" 
			},
			{
				"x": -1.4994539685,
				"y": -1.1255322795,
				"z": -3.6628516181,
				"element": "N" 
			},
			{
				"x": 1.9596620363,
				"y": -0.1536857534,
				"z": 2.5527723679,
				"element": "H" 
			},
			{
				"x": -0.0681029266,
				"y": -0.346787877,
				"z": 2.6033516821,
				"element": "H" 
			},
			{
				"x": -2.0846150807,
				"y": -1.5972416366,
				"z": 1.941783002,
				"element": "H" 
			},
			{
				"x": -2.6332976108,
				"y": -1.9055204334,
				"z": -0.4628744193,
				"element": "H" 
			},
			{
				"x": 0.8970789076,
				"y": 0.333731653,
				"z": -1.5311726583,
				"element": "H" 
			}
		],
		 "valence_orbital": [ 
			{
				"type": "occ",
				"energy": -0.34328,
				"method": "rhf"
			},
			{
				"type": "occ",
				"energy": -0.33321,
				"method": "rhf"
			},
			{
				"type": "occ",
				"energy": -0.29937,
				"method": "rhf"
			},
			{
				"type": "occ",
				"energy": -0.28734,
				"method": "rhf"
			},
			{
				"type": "occ",
				"energy": -0.28629,
				"method": "rhf"
			},
			{
				"type": "unocc",
				"energy": -0.07997,
				"method": "rhf"
			},
			{
				"type": "unocc",
				"energy": -0.06253,
				"method": "rhf"
			},
			{
				"type": "unocc",
				"energy": 0.01267,
				"method": "rhf"
			},
			{
				"type": "unocc",
				"energy": 0.0244,
				"method": "rhf"
			},
			{
				"type": "unocc",
				"energy": 0.04285,
				"method": "rhf"
			}
		],
		"cosmo_sigma_profile": { 
			"-0.025": 0.0,
			"-0.024": 0.0,
			"-0.023": 0.0,
			"-0.022": 0.0,
			"-0.021": 0.0,
			"-0.02": 0.107910645434,
			"-0.019": 0.68720097814,
			"-0.018": 1.10515320193,
			"-0.017": 1.1705903105,
			"-0.016": 1.07064373673,
			"-0.015": 0.902395820605,
			"-0.014": 0.727012162961,
			"-0.013": 1.24503661129,
			"-0.012": 1.69429406144,
			"-0.011": 1.14669284912,
			"-0.01": 1.21724277755,
			"-0.009": 3.03951817143,
			"-0.008": 8.77028236247,
			"-0.007": 9.58816075727,
			"-0.006": 7.73006033326,
			"-0.005": 8.12777227557,
			"-0.004": 7.77163850015,
			"-0.003": 10.6329128284,
			"-0.002": 11.6257955878,
			"-0.001": 12.4354257536,
			"0.0": 16.3147107257,
			"0.001": 10.2409332787,
			"0.002": 4.16806349091,
			"0.003": 4.79528427601,
			"0.004": 3.26514266082,
			"0.005": 5.79574902797,
			"0.006": 4.42018354133,
			"0.007": 5.09935494763,
			"0.008": 6.09683042677,
			"0.009": 7.74791560722,
			"0.01": 7.80207569951,
			"0.011": 8.22912024829,
			"0.012": 5.17874335592,
			"0.013": 1.27221035353,
			"0.014": 0.0,
			"0.015": 0.0,
			"0.016": 0.0,
			"0.017": 0.0,
			"0.018": 0.0,
			"0.019": 0.0,
			"0.02": 0.0,
			"0.021": 0.0,
			"0.022": 0.0,
			"0.023": 0.0,
			"0.024": 0.0,
			"0.025": 0.0
		}
	}
}
