{
	 "smiles": "CC(C)C1CCC(C)CC1OC(=O)CSC1=C(C=CC=C1)C(O)=O", 
	 "Tm": 411.15, 
	 "num_atms": 50, 
	 "gaussian": { 
		 "optdone": 1, 
		 "sigma_profile": "yes", 
		 "theory": "DFT", 
		 "functional": "B3LYP", 
		 "basiset": "6-31G**", 
		 "properties": { 
			 "R2extent": 8971.0661, 
			 "electric_dipole_moment_norm": 1.74502499982, 
			 "electric_quadrupole_moment_norm": 15.5210506516, 
			 "total_energy": -1438.8132755, 
			 "HOMO_LUMO_gap": 0.1678, 
			 "cosmo_polarized_energy": -15.08, 
			 "cosmo_cavitation_energy": 51.18, 
			 "cosmo_dispersion_energy": -32.06, 
			 "cosmo_repulsion_energy": 2.41, 
			 "cosmo_total_nonelectrostatic_energy": 21.52, 
			 "SMD_solvation_energy": 9.21 
		},
		"coords": [
			{
				"x": -3.132479732,
				"y": -1.7073451156,
				"z": 2.9605502497,
				"element": "C" 
			},
			{
				"x": -2.2644897417,
				"y": -1.3588177863,
				"z": 1.7387218529,
				"element": "C" 
			},
			{
				"x": -1.0659124662,
				"y": -2.3183314615,
				"z": 1.6408800972,
				"element": "C" 
			},
			{
				"x": -1.9110283714,
				"y": 0.1559307438,
				"z": 1.7334486348,
				"element": "C" 
			},
			{
				"x": -1.1123795976,
				"y": 0.6059666628,
				"z": 2.9848290774,
				"element": "C" 
			},
			{
				"x": -0.4235311149,
				"y": 1.9608640732,
				"z": 2.7702223593,
				"element": "C" 
			},
			{
				"x": 0.6638885012,
				"y": 1.8923250612,
				"z": 1.6608175808,
				"element": "C" 
			},
			{
				"x": 2.0685605867,
				"y": 1.6838516289,
				"z": 2.2416955928,
				"element": "C" 
			},
			{
				"x": 0.3302213129,
				"y": 0.7839378062,
				"z": 0.6311197554,
				"element": "C" 
			},
			{
				"x": -1.1807283113,
				"y": 0.6653526258,
				"z": 0.4527346796,
				"element": "C" 
			},
			{
				"x": -1.4306472008,
				"y": -0.1942229777,
				"z": -0.6963619565,
				"element": "O" 
			},
			{
				"x": -2.5082567831,
				"y": 0.0886210238,
				"z": -1.4586747376,
				"element": "C" 
			},
			{
				"x": -3.2953364074,
				"y": 0.9839378056,
				"z": -1.2420330414,
				"element": "O" 
			},
			{
				"x": -2.5936955445,
				"y": -0.8738085243,
				"z": -2.6270516915,
				"element": "C" 
			},
			{
				"x": -1.654536347,
				"y": -0.320313819,
				"z": -4.1123567807,
				"element": "S" 
			},
			{
				"x": 0.0472200137,
				"y": -0.1110426477,
				"z": -3.5778419919,
				"element": "C" 
			},
			{
				"x": 0.8897150117,
				"y": -1.0665947616,
				"z": -2.9590881393,
				"element": "C" 
			},
			{
				"x": 2.209334369,
				"y": -0.7052516136,
				"z": -2.6379289384,
				"element": "C" 
			},
			{
				"x": 2.7256795982,
				"y": 0.5440472554,
				"z": -2.9628036844,
				"element": "C" 
			},
			{
				"x": 1.9061734907,
				"y": 1.4748254361,
				"z": -3.6008856685,
				"element": "C" 
			},
			{
				"x": 0.5804083078,
				"y": 1.1521031534,
				"z": -3.8834823518,
				"element": "C" 
			},
			{
				"x": 0.5457781031,
				"y": -2.4717701371,
				"z": -2.5843319658,
				"element": "C" 
			},
			{
				"x": -0.4858008003,
				"y": -3.014607377,
				"z": -3.271653957,
				"element": "O" 
			},
			{
				"x": 1.164548453,
				"y": -3.1199234069,
				"z": -1.7616356073,
				"element": "O" 
			},
			{
				"x": -2.5658296499,
				"y": -1.6351642495,
				"z": 3.8953668274,
				"element": "H" 
			},
			{
				"x": -3.5064280732,
				"y": -2.7341194375,
				"z": 2.8856660575,
				"element": "H" 
			},
			{
				"x": -3.9990292402,
				"y": -1.0414739966,
				"z": 3.0418799137,
				"element": "H" 
			},
			{
				"x": -2.8863738866,
				"y": -1.5323358364,
				"z": 0.8512838622,
				"element": "H" 
			},
			{
				"x": -1.4177295179,
				"y": -3.356179109,
				"z": 1.6551874941,
				"element": "H" 
			},
			{
				"x": -0.4970735146,
				"y": -2.1785915909,
				"z": 0.7185588634,
				"element": "H" 
			},
			{
				"x": -0.3789212692,
				"y": -2.2057968727,
				"z": 2.4870974334,
				"element": "H" 
			},
			{
				"x": -2.8754941944,
				"y": 0.6801126648,
				"z": 1.7558370353,
				"element": "H" 
			},
			{
				"x": -1.7851698532,
				"y": 0.6601576453,
				"z": 3.8466231715,
				"element": "H" 
			},
			{
				"x": -0.3525998472,
				"y": -0.1434959011,
				"z": 3.2388994102,
				"element": "H" 
			},
			{
				"x": 0.0244917365,
				"y": 2.3102027505,
				"z": 3.7079383745,
				"element": "H" 
			},
			{
				"x": -1.1837036581,
				"y": 2.7059982342,
				"z": 2.5020869444,
				"element": "H" 
			},
			{
				"x": 0.6610368447,
				"y": 2.8537038081,
				"z": 1.1299244943,
				"element": "H" 
			},
			{
				"x": 2.358591962,
				"y": 2.5194572717,
				"z": 2.8878262844,
				"element": "H" 
			},
			{
				"x": 2.8186829954,
				"y": 1.5963453428,
				"z": 1.4476818693,
				"element": "H" 
			},
			{
				"x": 2.1148921748,
				"y": 0.7663785826,
				"z": 2.8408546936,
				"element": "H" 
			},
			{
				"x": 0.7979497214,
				"y": 1.008182076,
				"z": -0.3325395862,
				"element": "H" 
			},
			{
				"x": 0.7417111461,
				"y": -0.1757649827,
				"z": 0.9636335425,
				"element": "H" 
			},
			{
				"x": -1.5882318198,
				"y": 1.6464077341,
				"z": 0.193584891,
				"element": "H" 
			},
			{
				"x": -2.2771352732,
				"y": -1.8764159069,
				"z": -2.3433124183,
				"element": "H" 
			},
			{
				"x": -3.6269258272,
				"y": -0.8932756614,
				"z": -2.9787420254,
				"element": "H" 
			},
			{
				"x": 2.8216491887,
				"y": -1.4455315824,
				"z": -2.1353478174,
				"element": "H" 
			},
			{
				"x": 3.7549194057,
				"y": 0.7876060281,
				"z": -2.7183256343,
				"element": "H" 
			},
			{
				"x": 2.2858897763,
				"y": 2.4590732847,
				"z": -3.8593098799,
				"element": "H" 
			},
			{
				"x": -0.0708518067,
				"y": 1.8913765306,
				"z": -4.3377635898,
				"element": "H" 
			},
			{
				"x": -0.55192285,
				"y": -3.9297904745,
				"z": -2.9491795793,
				"element": "H" 
			}
		],
		 "valence_orbital": [ 
			{
				"type": "occ",
				"energy": -0.2829,
				"method": "rhf"
			},
			{
				"type": "occ",
				"energy": -0.27889,
				"method": "rhf"
			},
			{
				"type": "occ",
				"energy": -0.27147,
				"method": "rhf"
			},
			{
				"type": "occ",
				"energy": -0.2665,
				"method": "rhf"
			},
			{
				"type": "occ",
				"energy": -0.22691,
				"method": "rhf"
			},
			{
				"type": "unocc",
				"energy": -0.05911,
				"method": "rhf"
			},
			{
				"type": "unocc",
				"energy": -0.02482,
				"method": "rhf"
			},
			{
				"type": "unocc",
				"energy": -0.00229,
				"method": "rhf"
			},
			{
				"type": "unocc",
				"energy": 0.0397,
				"method": "rhf"
			},
			{
				"type": "unocc",
				"energy": 0.04673,
				"method": "rhf"
			}
		],
		"cosmo_sigma_profile": { 
			"-0.025": 0.0,
			"-0.024": 0.0,
			"-0.023": 0.0,
			"-0.022": 0.0,
			"-0.021": 0.0,
			"-0.02": 0.0,
			"-0.019": 0.158019457155,
			"-0.018": 0.694078507826,
			"-0.017": 1.09439238329,
			"-0.016": 0.853706601258,
			"-0.015": 0.498200054227,
			"-0.014": 0.605307895997,
			"-0.013": 0.449205690758,
			"-0.012": 1.09213781552,
			"-0.011": 1.07784280487,
			"-0.01": 0.516280419636,
			"-0.009": 0.828513158684,
			"-0.008": 2.96814113561,
			"-0.007": 7.06297235411,
			"-0.006": 12.4170435972,
			"-0.005": 13.6689944762,
			"-0.004": 14.2249525534,
			"-0.003": 23.8532154782,
			"-0.002": 54.4199106896,
			"-0.001": 55.1630645078,
			"0.0": 49.099199275,
			"0.001": 49.7629575578,
			"0.002": 37.6074756801,
			"0.003": 17.2616032464,
			"0.004": 9.7154762325,
			"0.005": 7.16718897832,
			"0.006": 6.20584448556,
			"0.007": 3.9682383502,
			"0.008": 5.17442470057,
			"0.009": 4.82112941126,
			"0.01": 4.8508192328,
			"0.011": 7.34560168468,
			"0.012": 6.32465114833,
			"0.013": 0.599407542201,
			"0.014": 0.0,
			"0.015": 0.0,
			"0.016": 0.0,
			"0.017": 0.0,
			"0.018": 0.0,
			"0.019": 0.0,
			"0.02": 0.0,
			"0.021": 0.0,
			"0.022": 0.0,
			"0.023": 0.0,
			"0.024": 0.0,
			"0.025": 0.0
		}
	}
}
