{
	 "smiles": "NS(=O)(=O)C1=C(C=C(C=C1)[N+]([O-])=O)[N+]([O-])=O", 
	 "Tm": 423.15, 
	 "num_atms": 21, 
	 "gaussian": { 
		 "optdone": 1, 
		 "sigma_profile": "yes", 
		 "theory": "DFT", 
		 "functional": "B3LYP", 
		 "basiset": "6-31G**", 
		 "properties": { 
			 "R2extent": 4284.2668, 
			 "electric_dipole_moment_norm": 3.376444134, 
			 "electric_quadrupole_moment_norm": 17.8296874103, 
			 "total_energy": -1245.14605476, 
			 "HOMO_LUMO_gap": 0.17554, 
			 "cosmo_polarized_energy": -18.89, 
			 "cosmo_cavitation_energy": 28.49, 
			 "cosmo_dispersion_energy": -21.54, 
			 "cosmo_repulsion_energy": 1.61, 
			 "cosmo_total_nonelectrostatic_energy": 8.56, 
			 "SMD_solvation_energy": 8.76 
		},
		"coords": [
			{
				"x": -1.399409715,
				"y": 3.0557844866,
				"z": -0.7871649689,
				"element": "N" 
			},
			{
				"x": -0.7936544593,
				"y": 1.6800759638,
				"z": -1.5184908992,
				"element": "S" 
			},
			{
				"x": -1.8160417891,
				"y": 0.6853810288,
				"z": -1.8307617978,
				"element": "O" 
			},
			{
				"x": 0.1168048972,
				"y": 2.1727136507,
				"z": -2.5543321864,
				"element": "O" 
			},
			{
				"x": 0.2627461176,
				"y": 0.9600043895,
				"z": -0.2171833054,
				"element": "C" 
			},
			{
				"x": -0.1847657059,
				"y": 0.2473695455,
				"z": 0.9079447532,
				"element": "C" 
			},
			{
				"x": 0.7093708241,
				"y": -0.3866902507,
				"z": 1.7632713494,
				"element": "C" 
			},
			{
				"x": 2.0676745431,
				"y": -0.2821243865,
				"z": 1.4921353751,
				"element": "C" 
			},
			{
				"x": 2.5497041848,
				"y": 0.4137105101,
				"z": 0.3899453956,
				"element": "C" 
			},
			{
				"x": 1.6351150997,
				"y": 1.0220135524,
				"z": -0.4682254681,
				"element": "C" 
			},
			{
				"x": 3.0245988963,
				"y": -0.9378976818,
				"z": 2.4076489781,
				"element": "N" 
			},
			{
				"x": 4.2176414196,
				"y": -0.8381191571,
				"z": 2.1350540071,
				"element": "O" 
			},
			{
				"x": 2.559732999,
				"y": -1.533928497,
				"z": 3.3748172132,
				"element": "O" 
			},
			{
				"x": -1.6096111569,
				"y": 0.1491938149,
				"z": 1.2853883579,
				"element": "N" 
			},
			{
				"x": -2.3521759694,
				"y": 1.0728848473,
				"z": 0.9592724025,
				"element": "O" 
			},
			{
				"x": -1.9485807021,
				"y": -0.8310970328,
				"z": 1.9357227868,
				"element": "O" 
			},
			{
				"x": -1.4537973207,
				"y": 3.8015823873,
				"z": -1.4754326184,
				"element": "H" 
			},
			{
				"x": -2.2678068614,
				"y": 2.8755986902,
				"z": -0.2930808556,
				"element": "H" 
			},
			{
				"x": 0.3538497114,
				"y": -0.9432229099,
				"z": 2.6199736844,
				"element": "H" 
			},
			{
				"x": 3.6164654196,
				"y": 0.4643324695,
				"z": 0.2112187557,
				"element": "H" 
			},
			{
				"x": 1.9721395673,
				"y": 1.5455345792,
				"z": -1.3551209593,
				"element": "H" 
			}
		],
		 "valence_orbital": [ 
			{
				"type": "occ",
				"energy": -0.33363,
				"method": "rhf"
			},
			{
				"type": "occ",
				"energy": -0.32061,
				"method": "rhf"
			},
			{
				"type": "occ",
				"energy": -0.31732,
				"method": "rhf"
			},
			{
				"type": "occ",
				"energy": -0.31406,
				"method": "rhf"
			},
			{
				"type": "occ",
				"energy": -0.30638,
				"method": "rhf"
			},
			{
				"type": "unocc",
				"energy": -0.13084,
				"method": "rhf"
			},
			{
				"type": "unocc",
				"energy": -0.11477,
				"method": "rhf"
			},
			{
				"type": "unocc",
				"energy": -0.05492,
				"method": "rhf"
			},
			{
				"type": "unocc",
				"energy": -0.03771,
				"method": "rhf"
			},
			{
				"type": "unocc",
				"energy": 0.01812,
				"method": "rhf"
			}
		],
		"cosmo_sigma_profile": { 
			"-0.025": 0.0,
			"-0.024": 0.0,
			"-0.023": 0.0,
			"-0.022": 0.0,
			"-0.021": 0.0,
			"-0.02": 0.0,
			"-0.019": 0.0,
			"-0.018": 0.0,
			"-0.017": 0.0,
			"-0.016": 0.591458972604,
			"-0.015": 1.76491256973,
			"-0.014": 1.83580880315,
			"-0.013": 2.37489774887,
			"-0.012": 2.42574584027,
			"-0.011": 1.82209266042,
			"-0.01": 3.80237766565,
			"-0.009": 7.24785990657,
			"-0.008": 6.96262028459,
			"-0.007": 8.78102958978,
			"-0.006": 9.93210898989,
			"-0.005": 15.8841834873,
			"-0.004": 17.2348593401,
			"-0.003": 14.878118276,
			"-0.002": 11.4952645646,
			"-0.001": 7.85132791903,
			"0.0": 6.91254264309,
			"0.001": 8.71932001262,
			"0.002": 7.31429076502,
			"0.003": 7.41697792351,
			"0.004": 8.21053872356,
			"0.005": 10.1216772043,
			"0.006": 18.1860343105,
			"0.007": 15.3303029959,
			"0.008": 11.0115092996,
			"0.009": 9.00263209957,
			"0.01": 9.39874285303,
			"0.011": 3.03068592061,
			"0.012": 0.0,
			"0.013": 0.0,
			"0.014": 0.0,
			"0.015": 0.0,
			"0.016": 0.0,
			"0.017": 0.0,
			"0.018": 0.0,
			"0.019": 0.0,
			"0.02": 0.0,
			"0.021": 0.0,
			"0.022": 0.0,
			"0.023": 0.0,
			"0.024": 0.0,
			"0.025": 0.0
		}
	}
}
