{
	 "smiles": "CC(C)C1=CC=C(CCC(N)=O)C=C1", 
	 "Tm": 416.15, 
	 "num_atms": 31, 
	 "gaussian": { 
		 "optdone": 1, 
		 "sigma_profile": "yes", 
		 "theory": "DFT", 
		 "functional": "B3LYP", 
		 "basiset": "6-31G**", 
		 "properties": { 
			 "R2extent": 4552.1924, 
			 "electric_dipole_moment_norm": 3.41813209955, 
			 "electric_quadrupole_moment_norm": 15.9228095888, 
			 "total_energy": -597.538806311, 
			 "HOMO_LUMO_gap": 0.23146, 
			 "cosmo_polarized_energy": -13.33, 
			 "cosmo_cavitation_energy": 33.42, 
			 "cosmo_dispersion_energy": -23.3, 
			 "cosmo_repulsion_energy": 1.9, 
			 "cosmo_total_nonelectrostatic_energy": 12.02, 
			 "SMD_solvation_energy": 6.15 
		},
		"coords": [
			{
				"x": 0.2351690271,
				"y": -3.7099707675,
				"z": 2.1732051776,
				"element": "C" 
			},
			{
				"x": 0.024860038,
				"y": -2.2455735122,
				"z": 2.6025241557,
				"element": "C" 
			},
			{
				"x": -1.4345898851,
				"y": -2.0003009177,
				"z": 3.0302611515,
				"element": "C" 
			},
			{
				"x": 0.4721067256,
				"y": -1.2675478162,
				"z": 1.5239742933,
				"element": "C" 
			},
			{
				"x": -0.1390320294,
				"y": -1.2356237332,
				"z": 0.2613108966,
				"element": "C" 
			},
			{
				"x": 0.2705867086,
				"y": -0.3344864709,
				"z": -0.7199509751,
				"element": "C" 
			},
			{
				"x": 1.3124282938,
				"y": 0.5730040141,
				"z": -0.4748747014,
				"element": "C" 
			},
			{
				"x": 1.7818237052,
				"y": 1.5375961302,
				"z": -1.5448171089,
				"element": "C" 
			},
			{
				"x": 2.846907172,
				"y": 0.9428844839,
				"z": -2.4862481501,
				"element": "C" 
			},
			{
				"x": 2.2574042781,
				"y": -0.0803682597,
				"z": -3.4580297444,
				"element": "C" 
			},
			{
				"x": 3.0950040599,
				"y": -1.1007712643,
				"z": -3.8109856237,
				"element": "N" 
			},
			{
				"x": 1.1341567881,
				"y": 0.0320904294,
				"z": -3.9320012469,
				"element": "O" 
			},
			{
				"x": 1.9229736172,
				"y": 0.5439545537,
				"z": 0.7844703437,
				"element": "C" 
			},
			{
				"x": 1.5104001269,
				"y": -0.3601516111,
				"z": 1.7647585307,
				"element": "C" 
			},
			{
				"x": -0.0385353791,
				"y": -4.3950861093,
				"z": 2.9833285674,
				"element": "H" 
			},
			{
				"x": -0.3818977077,
				"y": -3.9611716681,
				"z": 1.3034807755,
				"element": "H" 
			},
			{
				"x": 1.2796863444,
				"y": -3.8980891906,
				"z": 1.9055181968,
				"element": "H" 
			},
			{
				"x": 0.6591357357,
				"y": -2.0665425861,
				"z": 3.4810639567,
				"element": "H" 
			},
			{
				"x": -1.7185341441,
				"y": -2.6745253183,
				"z": 3.8460066505,
				"element": "H" 
			},
			{
				"x": -1.578979753,
				"y": -0.9707122281,
				"z": 3.3720492264,
				"element": "H" 
			},
			{
				"x": -2.1263761136,
				"y": -2.1749337729,
				"z": 2.1988909819,
				"element": "H" 
			},
			{
				"x": -0.9524141382,
				"y": -1.921660327,
				"z": 0.0379486101,
				"element": "H" 
			},
			{
				"x": -0.2130378766,
				"y": -0.3320735212,
				"z": -1.692379396,
				"element": "H" 
			},
			{
				"x": 2.1995470546,
				"y": 2.4329742431,
				"z": -1.0714731713,
				"element": "H" 
			},
			{
				"x": 0.93701372,
				"y": 1.8559055353,
				"z": -2.1628763832,
				"element": "H" 
			},
			{
				"x": 3.6718416358,
				"y": 0.5077178636,
				"z": -1.9098949794,
				"element": "H" 
			},
			{
				"x": 3.2768532624,
				"y": 1.744870273,
				"z": -3.1012164494,
				"element": "H" 
			},
			{
				"x": 3.9610851904,
				"y": -1.2734094165,
				"z": -3.3275207829,
				"element": "H" 
			},
			{
				"x": 2.7329429166,
				"y": -1.8139965972,
				"z": -4.4262671397,
				"element": "H" 
			},
			{
				"x": 2.727163094,
				"y": 1.2427313458,
				"z": 1.0064469905,
				"element": "H" 
			},
			{
				"x": 1.9999075326,
				"y": -0.3559337841,
				"z": 2.7362973477,
				"element": "H" 
			}
		],
		 "valence_orbital": [ 
			{
				"type": "occ",
				"energy": -0.31222,
				"method": "rhf"
			},
			{
				"type": "occ",
				"energy": -0.26705,
				"method": "rhf"
			},
			{
				"type": "occ",
				"energy": -0.24714,
				"method": "rhf"
			},
			{
				"type": "occ",
				"energy": -0.23951,
				"method": "rhf"
			},
			{
				"type": "occ",
				"energy": -0.22623,
				"method": "rhf"
			},
			{
				"type": "unocc",
				"energy": 0.00523,
				"method": "rhf"
			},
			{
				"type": "unocc",
				"energy": 0.00844,
				"method": "rhf"
			},
			{
				"type": "unocc",
				"energy": 0.0304,
				"method": "rhf"
			},
			{
				"type": "unocc",
				"energy": 0.07466,
				"method": "rhf"
			},
			{
				"type": "unocc",
				"energy": 0.09292,
				"method": "rhf"
			}
		],
		"cosmo_sigma_profile": { 
			"-0.025": 0.0,
			"-0.024": 0.0,
			"-0.023": 0.0,
			"-0.022": 0.0,
			"-0.021": 0.0,
			"-0.02": 0.0,
			"-0.019": 0.0,
			"-0.018": 0.0,
			"-0.017": 0.0,
			"-0.016": 0.0,
			"-0.015": 0.0411104946143,
			"-0.014": 1.32460914227,
			"-0.013": 2.45278245242,
			"-0.012": 2.22009163851,
			"-0.011": 2.44145063496,
			"-0.01": 2.93260363817,
			"-0.009": 2.21690717372,
			"-0.008": 2.44615612482,
			"-0.007": 1.83316424674,
			"-0.006": 2.72215609646,
			"-0.005": 8.1039623016,
			"-0.004": 17.1187313557,
			"-0.003": 26.5132760888,
			"-0.002": 29.6579879871,
			"-0.001": 27.0037690436,
			"0.0": 25.9997815028,
			"0.001": 26.5041922484,
			"0.002": 16.2882470876,
			"0.003": 10.0787939193,
			"0.004": 11.972926653,
			"0.005": 9.70303215676,
			"0.006": 9.04797491174,
			"0.007": 6.68850397875,
			"0.008": 1.60365847271,
			"0.009": 1.9129454223,
			"0.01": 0.822569174637,
			"0.011": 1.18622831697,
			"0.012": 1.68794201334,
			"0.013": 2.61088370161,
			"0.014": 4.27121825678,
			"0.015": 1.53561107831,
			"0.016": 0.00185140358201,
			"0.017": 0.0,
			"0.018": 0.0,
			"0.019": 0.0,
			"0.02": 0.0,
			"0.021": 0.0,
			"0.022": 0.0,
			"0.023": 0.0,
			"0.024": 0.0,
			"0.025": 0.0
		}
	}
}
