{
	 "smiles": "CC1=CC(=CC(CN(CC(O)=O)CC(O)=O)=C1O)C1(OC(=O)C2=CC=CC=C12)C1=CC(C)=C(O)C(CN(CC(O)=O)CC(O)=O)=C1", 
	 "Tm": 454.15, 
	 "num_atms": 78, 
	 "gaussian": { 
		 "optdone": 1, 
		 "sigma_profile": "yes", 
		 "theory": "DFT", 
		 "functional": "B3LYP", 
		 "basiset": "6-31G**", 
		 "properties": { 
			 "R2extent": 26604.3022, 
			 "electric_dipole_moment_norm": 7.84677455455, 
			 "electric_quadrupole_moment_norm": 42.1655844067, 
			 "total_energy": -2250.91917583, 
			 "HOMO_LUMO_gap": 0.16015, 
			 "cosmo_polarized_energy": -56.37, 
			 "cosmo_cavitation_energy": 78.79, 
			 "cosmo_dispersion_energy": -47.68, 
			 "cosmo_repulsion_energy": 3.53, 
			 "cosmo_total_nonelectrostatic_energy": 34.64, 
			 "SMD_solvation_energy": 14.65 
		},
		"coords": [
			{
				"x": -1.5040905792,
				"y": 1.4641565864,
				"z": -5.4033737095,
				"element": "C" 
			},
			{
				"x": -0.6258368615,
				"y": 1.2274881445,
				"z": -4.1965537612,
				"element": "C" 
			},
			{
				"x": -0.8007877323,
				"y": 1.9603134783,
				"z": -3.0209076059,
				"element": "C" 
			},
			{
				"x": -0.0084150008,
				"y": 1.7328533042,
				"z": -1.8923345475,
				"element": "C" 
			},
			{
				"x": 0.9841101566,
				"y": 0.7527718987,
				"z": -1.9653981357,
				"element": "C" 
			},
			{
				"x": 1.1891121154,
				"y": -0.0131804526,
				"z": -3.1155595144,
				"element": "C" 
			},
			{
				"x": 2.2388065311,
				"y": -1.1111271989,
				"z": -3.0938098878,
				"element": "C" 
			},
			{
				"x": 1.7768354116,
				"y": -2.2781186746,
				"z": -2.3216084977,
				"element": "N" 
			},
			{
				"x": 2.8487402736,
				"y": -3.0961239649,
				"z": -1.7816135332,
				"element": "C" 
			},
			{
				"x": 2.4093328224,
				"y": -3.9086025703,
				"z": -0.5714035423,
				"element": "C" 
			},
			{
				"x": 3.4316015587,
				"y": -4.6796492114,
				"z": -0.1371064896,
				"element": "O" 
			},
			{
				"x": 1.3241559632,
				"y": -3.9007099275,
				"z": -0.0315282903,
				"element": "O" 
			},
			{
				"x": 0.7126623981,
				"y": -3.0569903444,
				"z": -2.9770415653,
				"element": "C" 
			},
			{
				"x": 1.2310261271,
				"y": -3.8719147672,
				"z": -4.1713141917,
				"element": "C" 
			},
			{
				"x": 1.2443538141,
				"y": -3.2646146407,
				"z": -5.3783415696,
				"element": "O" 
			},
			{
				"x": 1.688201677,
				"y": -4.987460631,
				"z": -4.0417981048,
				"element": "O" 
			},
			{
				"x": 0.3718546534,
				"y": 0.2396775473,
				"z": -4.2234555552,
				"element": "C" 
			},
			{
				"x": 0.5617869306,
				"y": -0.536612318,
				"z": -5.3541681874,
				"element": "O" 
			},
			{
				"x": -0.19204116,
				"y": 2.5594822541,
				"z": -0.6143792271,
				"element": "C" 
			},
			{
				"x": -1.4749846478,
				"y": 3.2649107106,
				"z": -0.6951711459,
				"element": "O" 
			},
			{
				"x": -1.3190557105,
				"y": 4.6300826468,
				"z": -0.7063003328,
				"element": "C" 
			},
			{
				"x": -2.2529228946,
				"y": 5.3908142035,
				"z": -0.7722887252,
				"element": "O" 
			},
			{
				"x": 0.1304257012,
				"y": 4.9121753667,
				"z": -0.6311451286,
				"element": "C" 
			},
			{
				"x": 0.7843409802,
				"y": 6.1434532599,
				"z": -0.6259995481,
				"element": "C" 
			},
			{
				"x": 2.1762381725,
				"y": 6.1361486286,
				"z": -0.5526005805,
				"element": "C" 
			},
			{
				"x": 2.8769013067,
				"y": 4.9212617149,
				"z": -0.4877744244,
				"element": "C" 
			},
			{
				"x": 2.2084178512,
				"y": 3.6936797843,
				"z": -0.4957542873,
				"element": "C" 
			},
			{
				"x": 0.8172502848,
				"y": 3.705952839,
				"z": -0.569624066,
				"element": "C" 
			},
			{
				"x": -0.2218017422,
				"y": 1.7136236824,
				"z": 0.6640415091,
				"element": "C" 
			},
			{
				"x": 0.0868580073,
				"y": 2.2884102665,
				"z": 1.904866091,
				"element": "C" 
			},
			{
				"x": 0.009091071,
				"y": 1.5625254514,
				"z": 3.0937204645,
				"element": "C" 
			},
			{
				"x": 0.3221691354,
				"y": 2.1997023903,
				"z": 4.4279615177,
				"element": "C" 
			},
			{
				"x": -0.3658167959,
				"y": 0.2093496741,
				"z": 3.0169471756,
				"element": "C" 
			},
			{
				"x": -0.4604676686,
				"y": -0.5626457957,
				"z": 4.1634843704,
				"element": "O" 
			},
			{
				"x": -0.6603390361,
				"y": -0.4038779258,
				"z": 1.7959659389,
				"element": "C" 
			},
			{
				"x": -0.9898395605,
				"y": -1.8783352445,
				"z": 1.6699358836,
				"element": "C" 
			},
			{
				"x": -2.422367035,
				"y": -2.1003231352,
				"z": 1.4181141407,
				"element": "N" 
			},
			{
				"x": -2.6993173923,
				"y": -3.3274217785,
				"z": 0.704742508,
				"element": "C" 
			},
			{
				"x": -2.3368517939,
				"y": -3.2215291937,
				"z": -0.7808892312,
				"element": "C" 
			},
			{
				"x": -2.3985225492,
				"y": -4.3979693937,
				"z": -1.4562682136,
				"element": "O" 
			},
			{
				"x": -2.0414928034,
				"y": -2.2073139884,
				"z": -1.3616451009,
				"element": "O" 
			},
			{
				"x": -3.2918901324,
				"y": -1.854548556,
				"z": 2.5670106508,
				"element": "C" 
			},
			{
				"x": -3.1766431988,
				"y": -2.9328913199,
				"z": 3.6597583887,
				"element": "C" 
			},
			{
				"x": -2.2271432484,
				"y": -2.7506580894,
				"z": 4.6029159927,
				"element": "O" 
			},
			{
				"x": -3.8491376288,
				"y": -3.9398454082,
				"z": 3.6449842028,
				"element": "O" 
			},
			{
				"x": -0.6196819888,
				"y": 0.3761571082,
				"z": 0.6361206241,
				"element": "C" 
			},
			{
				"x": -2.2238042806,
				"y": 2.2611232437,
				"z": -5.206008513,
				"element": "H" 
			},
			{
				"x": -2.0834656519,
				"y": 0.5704881348,
				"z": -5.6729349711,
				"element": "H" 
			},
			{
				"x": -0.9247535979,
				"y": 1.7683381274,
				"z": -6.2863896432,
				"element": "H" 
			},
			{
				"x": -1.5884436851,
				"y": 2.7037567176,
				"z": -2.9792956403,
				"element": "H" 
			},
			{
				"x": 1.5950623862,
				"y": 0.5315173214,
				"z": -1.0957530995,
				"element": "H" 
			},
			{
				"x": 3.125928548,
				"y": -0.7209638193,
				"z": -2.5839731241,
				"element": "H" 
			},
			{
				"x": 2.5557696819,
				"y": -1.3649253426,
				"z": -4.1163791112,
				"element": "H" 
			},
			{
				"x": 3.3001625181,
				"y": -3.8037069252,
				"z": -2.4965156507,
				"element": "H" 
			},
			{
				"x": 3.6604941711,
				"y": -2.4446636788,
				"z": -1.4376386422,
				"element": "H" 
			},
			{
				"x": 3.094455802,
				"y": -5.1786102449,
				"z": 0.6255559289,
				"element": "H" 
			},
			{
				"x": -0.0974088405,
				"y": -2.3772623156,
				"z": -3.2515268204,
				"element": "H" 
			},
			{
				"x": 0.3080452322,
				"y": -3.7645497317,
				"z": -2.2551509409,
				"element": "H" 
			},
			{
				"x": 0.8851418692,
				"y": -2.3580955067,
				"z": -5.3219244193,
				"element": "H" 
			},
			{
				"x": -0.0428065231,
				"y": -0.2494747607,
				"z": -6.0505618063,
				"element": "H" 
			},
			{
				"x": 0.2149008246,
				"y": 7.0661228083,
				"z": -0.6776136585,
				"element": "H" 
			},
			{
				"x": 2.725828673,
				"y": 7.0725028962,
				"z": -0.5463125722,
				"element": "H" 
			},
			{
				"x": 3.9616728948,
				"y": 4.9357445284,
				"z": -0.4317600286,
				"element": "H" 
			},
			{
				"x": 2.7650729438,
				"y": 2.7631561018,
				"z": -0.4485447072,
				"element": "H" 
			},
			{
				"x": 0.3913773673,
				"y": 3.3292387718,
				"z": 1.9579976517,
				"element": "H" 
			},
			{
				"x": -0.5395545244,
				"y": 2.1774948802,
				"z": 5.1089164768,
				"element": "H" 
			},
			{
				"x": 1.1632737309,
				"y": 1.7090421901,
				"z": 4.9380812479,
				"element": "H" 
			},
			{
				"x": 0.5988425406,
				"y": 3.248415363,
				"z": 4.3002627507,
				"element": "H" 
			},
			{
				"x": -0.1789622775,
				"y": -0.0477555855,
				"z": 4.93033543,
				"element": "H" 
			},
			{
				"x": -0.4403866448,
				"y": -2.2698884922,
				"z": 0.81113447,
				"element": "H" 
			},
			{
				"x": -0.6279847367,
				"y": -2.4349616987,
				"z": 2.5471556361,
				"element": "H" 
			},
			{
				"x": -3.7732996015,
				"y": -3.5411866876,
				"z": 0.7651904729,
				"element": "H" 
			},
			{
				"x": -2.1960015802,
				"y": -4.2181675797,
				"z": 1.1276694145,
				"element": "H" 
			},
			{
				"x": -2.5863625553,
				"y": -5.1290759818,
				"z": -0.8486561879,
				"element": "H" 
			},
			{
				"x": -3.0617720148,
				"y": -0.8587114633,
				"z": 2.9605310635,
				"element": "H" 
			},
			{
				"x": -4.3322735326,
				"y": -1.8536705051,
				"z": 2.2310233523,
				"element": "H" 
			},
			{
				"x": -1.7276564759,
				"y": -1.9242865917,
				"z": 4.4549486718,
				"element": "H" 
			},
			{
				"x": -0.8974184431,
				"y": -0.1047105838,
				"z": -0.2950757885,
				"element": "H" 
			}
		],
		 "valence_orbital": [ 
			{
				"type": "occ",
				"energy": -0.25281,
				"method": "rhf"
			},
			{
				"type": "occ",
				"energy": -0.23956,
				"method": "rhf"
			},
			{
				"type": "occ",
				"energy": -0.23474,
				"method": "rhf"
			},
			{
				"type": "occ",
				"energy": -0.2193,
				"method": "rhf"
			},
			{
				"type": "occ",
				"energy": -0.21516,
				"method": "rhf"
			},
			{
				"type": "unocc",
				"energy": -0.05501,
				"method": "rhf"
			},
			{
				"type": "unocc",
				"energy": -0.03258,
				"method": "rhf"
			},
			{
				"type": "unocc",
				"energy": -0.02408,
				"method": "rhf"
			},
			{
				"type": "unocc",
				"energy": -0.01721,
				"method": "rhf"
			},
			{
				"type": "unocc",
				"energy": -0.01108,
				"method": "rhf"
			}
		],
		"cosmo_sigma_profile": { 
			"-0.025": 0.0,
			"-0.024": 0.0,
			"-0.023": 0.0,
			"-0.022": 0.0,
			"-0.021": 0.0,
			"-0.02": 0.055850433425,
			"-0.019": 1.11988696432,
			"-0.018": 1.96637814892,
			"-0.017": 2.87050013445,
			"-0.016": 4.29308932295,
			"-0.015": 4.17190279039,
			"-0.014": 3.72557652006,
			"-0.013": 4.0643758656,
			"-0.012": 4.27726139791,
			"-0.011": 4.12425615225,
			"-0.01": 5.96907067127,
			"-0.009": 7.83955437114,
			"-0.008": 13.5199226585,
			"-0.007": 21.8698476802,
			"-0.006": 34.8211682612,
			"-0.005": 39.8456039181,
			"-0.004": 37.3042675824,
			"-0.003": 37.4192701826,
			"-0.002": 36.4404063581,
			"-0.001": 38.681643129,
			"0.0": 36.1362037765,
			"0.001": 35.5394114152,
			"0.002": 36.6455193382,
			"0.003": 38.6386193086,
			"0.004": 28.6775052024,
			"0.005": 18.4851626278,
			"0.006": 17.9974459953,
			"0.007": 14.8928313734,
			"0.008": 14.6289458246,
			"0.009": 16.4558778874,
			"0.01": 17.0020049883,
			"0.011": 19.3061457596,
			"0.012": 17.6335784536,
			"0.013": 6.91738649266,
			"0.014": 1.11243155863,
			"0.015": 0.0,
			"0.016": 0.0,
			"0.017": 0.0,
			"0.018": 0.0,
			"0.019": 0.0,
			"0.02": 0.0,
			"0.021": 0.0,
			"0.022": 0.0,
			"0.023": 0.0,
			"0.024": 0.0,
			"0.025": 0.0
		}
	}
}
