{
	 "smiles": "NC1=C(NCCCO)C(=O)NC(=O)N1CC1=CC=CC=C1", 
	 "Tm": 429.15, 
	 "num_atms": 39, 
	 "gaussian": { 
		 "optdone": 1, 
		 "sigma_profile": "yes", 
		 "theory": "DFT", 
		 "functional": "B3LYP", 
		 "basiset": "6-31G**", 
		 "properties": { 
			 "R2extent": 5915.4222, 
			 "electric_dipole_moment_norm": 4.77457551831, 
			 "electric_quadrupole_moment_norm": 7.03433995766, 
			 "total_energy": -989.049027633, 
			 "HOMO_LUMO_gap": 0.18588, 
			 "cosmo_polarized_energy": -18.85, 
			 "cosmo_cavitation_energy": 40.0, 
			 "cosmo_dispersion_energy": -27.5, 
			 "cosmo_repulsion_energy": 2.08, 
			 "cosmo_total_nonelectrostatic_energy": 14.58, 
			 "SMD_solvation_energy": 6.63 
		},
		"coords": [
			{
				"x": 0.0270371922,
				"y": -0.9440783407,
				"z": -2.1415912485,
				"element": "N" 
			},
			{
				"x": -0.6499759277,
				"y": -0.450066511,
				"z": -1.0518361206,
				"element": "C" 
			},
			{
				"x": -1.1456873389,
				"y": 0.8353256708,
				"z": -1.043879144,
				"element": "C" 
			},
			{
				"x": -0.8103793641,
				"y": 1.7006107819,
				"z": -2.1313544051,
				"element": "N" 
			},
			{
				"x": -0.0418364742,
				"y": 2.9146468391,
				"z": -1.7704664234,
				"element": "C" 
			},
			{
				"x": 1.4844603606,
				"y": 2.7462329499,
				"z": -1.6967062923,
				"element": "C" 
			},
			{
				"x": 2.0757089849,
				"y": 2.0240428071,
				"z": -0.4823872219,
				"element": "C" 
			},
			{
				"x": 2.1049480306,
				"y": 0.6181233249,
				"z": -0.716411785,
				"element": "O" 
			},
			{
				"x": -1.9941533975,
				"y": 1.2787303279,
				"z": 0.0331497814,
				"element": "C" 
			},
			{
				"x": -2.5404639078,
				"y": 2.3744809965,
				"z": 0.1338803918,
				"element": "O" 
			},
			{
				"x": -2.1610179746,
				"y": 0.317236232,
				"z": 1.0574408707,
				"element": "N" 
			},
			{
				"x": -1.6061860068,
				"y": -0.9376028562,
				"z": 1.1380421864,
				"element": "C" 
			},
			{
				"x": -1.7486005478,
				"y": -1.6699691571,
				"z": 2.1098718075,
				"element": "O" 
			},
			{
				"x": -0.8655983345,
				"y": -1.3192007454,
				"z": 0.010270953,
				"element": "N" 
			},
			{
				"x": -0.3138446857,
				"y": -2.6840043186,
				"z": 0.0000362667,
				"element": "C" 
			},
			{
				"x": 1.1719475846,
				"y": -2.7369171079,
				"z": 0.312539059,
				"element": "C" 
			},
			{
				"x": 2.0614386841,
				"y": -3.3842381027,
				"z": -0.5521473315,
				"element": "C" 
			},
			{
				"x": 3.4288720336,
				"y": -3.4341496906,
				"z": -0.2643154086,
				"element": "C" 
			},
			{
				"x": 3.9204575328,
				"y": -2.8317606224,
				"z": 0.892578659,
				"element": "C" 
			},
			{
				"x": 3.0373731781,
				"y": -2.1898343857,
				"z": 1.7681986597,
				"element": "C" 
			},
			{
				"x": 1.6723234293,
				"y": -2.1457507953,
				"z": 1.4836957149,
				"element": "C" 
			},
			{
				"x": 0.1790561676,
				"y": -0.1687778058,
				"z": -2.7844035109,
				"element": "H" 
			},
			{
				"x": 0.9033627442,
				"y": -1.400297296,
				"z": -1.9121234372,
				"element": "H" 
			},
			{
				"x": -1.6683121224,
				"y": 2.0047979559,
				"z": -2.5845812011,
				"element": "H" 
			},
			{
				"x": -0.4134879722,
				"y": 3.352498185,
				"z": -0.8336990525,
				"element": "H" 
			},
			{
				"x": -0.2479427928,
				"y": 3.646490764,
				"z": -2.5599972657,
				"element": "H" 
			},
			{
				"x": 1.8572415204,
				"y": 2.2573073969,
				"z": -2.6050974287,
				"element": "H" 
			},
			{
				"x": 1.9017672349,
				"y": 3.7619490424,
				"z": -1.6952001284,
				"element": "H" 
			},
			{
				"x": 3.0989174139,
				"y": 2.3954780715,
				"z": -0.3132985128,
				"element": "H" 
			},
			{
				"x": 1.4879557999,
				"y": 2.2669735479,
				"z": 0.4174645362,
				"element": "H" 
			},
			{
				"x": 2.4282721621,
				"y": 0.1776578174,
				"z": 0.0808230092,
				"element": "H" 
			},
			{
				"x": -2.7173693068,
				"y": 0.6008562038,
				"z": 1.854264676,
				"element": "H" 
			},
			{
				"x": -0.5153769343,
				"y": -3.1228698522,
				"z": -0.9802177106,
				"element": "H" 
			},
			{
				"x": -0.8792364979,
				"y": -3.2319263897,
				"z": 0.755710505,
				"element": "H" 
			},
			{
				"x": 1.6831717901,
				"y": -3.8560911381,
				"z": -1.4565126703,
				"element": "H" 
			},
			{
				"x": 4.1060111416,
				"y": -3.9387809234,
				"z": -0.9472658297,
				"element": "H" 
			},
			{
				"x": 4.9824303114,
				"y": -2.8655857135,
				"z": 1.1172023449,
				"element": "H" 
			},
			{
				"x": 3.4122512053,
				"y": -1.736381869,
				"z": 2.6816846385,
				"element": "H" 
			},
			{
				"x": 0.9824650838,
				"y": -1.6725552942,
				"z": 2.1765380689,
				"element": "H" 
			}
		],
		 "valence_orbital": [ 
			{
				"type": "occ",
				"energy": -0.26683,
				"method": "rhf"
			},
			{
				"type": "occ",
				"energy": -0.26026,
				"method": "rhf"
			},
			{
				"type": "occ",
				"energy": -0.25305,
				"method": "rhf"
			},
			{
				"type": "occ",
				"energy": -0.2334,
				"method": "rhf"
			},
			{
				"type": "occ",
				"energy": -0.20882,
				"method": "rhf"
			},
			{
				"type": "unocc",
				"energy": -0.02294,
				"method": "rhf"
			},
			{
				"type": "unocc",
				"energy": -0.01971,
				"method": "rhf"
			},
			{
				"type": "unocc",
				"energy": -0.00702,
				"method": "rhf"
			},
			{
				"type": "unocc",
				"energy": 0.02228,
				"method": "rhf"
			},
			{
				"type": "unocc",
				"energy": 0.06907,
				"method": "rhf"
			}
		],
		"cosmo_sigma_profile": { 
			"-0.025": 0.0,
			"-0.024": 0.0,
			"-0.023": 0.0,
			"-0.022": 0.0,
			"-0.021": 0.0,
			"-0.02": 0.0,
			"-0.019": 0.0,
			"-0.018": 0.0,
			"-0.017": 0.0,
			"-0.016": 0.0307729540757,
			"-0.015": 0.601559548721,
			"-0.014": 1.1742949054,
			"-0.013": 0.733086321202,
			"-0.012": 0.592434936678,
			"-0.011": 0.729980385213,
			"-0.01": 2.06907302702,
			"-0.009": 4.45806672093,
			"-0.008": 4.18861587563,
			"-0.007": 7.91715361522,
			"-0.006": 15.2630816741,
			"-0.005": 15.7818845314,
			"-0.004": 24.1226454547,
			"-0.003": 34.8412714368,
			"-0.002": 34.536958823,
			"-0.001": 27.1537658437,
			"0.0": 24.60418439,
			"0.001": 19.7849864933,
			"0.002": 15.1000605318,
			"0.003": 12.8153852615,
			"0.004": 12.6991200424,
			"0.005": 10.0291530454,
			"0.006": 5.73903386536,
			"0.007": 4.13218342583,
			"0.008": 4.5178828769,
			"0.009": 3.88509366445,
			"0.01": 4.13516182753,
			"0.011": 4.0439204993,
			"0.012": 5.22383216439,
			"0.013": 7.44296414809,
			"0.014": 5.71275867535,
			"0.015": 0.884494737858,
			"0.016": 0.0,
			"0.017": 0.0,
			"0.018": 0.0,
			"0.019": 0.0,
			"0.02": 0.0,
			"0.021": 0.0,
			"0.022": 0.0,
			"0.023": 0.0,
			"0.024": 0.0,
			"0.025": 0.0
		}
	}
}
