{
	 "smiles": "[O-][N+](=O)C1=CC=CC=C1NC(=O)C(C(F)(F)F)C(F)(F)F", 
	 "Tm": 429.15, 
	 "num_atms": 27, 
	 "gaussian": { 
		 "optdone": 1, 
		 "sigma_profile": "yes", 
		 "theory": "DFT", 
		 "functional": "B3LYP", 
		 "basiset": "6-31G**", 
		 "properties": { 
			 "R2extent": 6116.0801, 
			 "electric_dipole_moment_norm": 6.11674826194, 
			 "electric_quadrupole_moment_norm": 11.3722741235, 
			 "total_energy": -1318.80933396, 
			 "HOMO_LUMO_gap": 0.15472, 
			 "cosmo_polarized_energy": -14.5, 
			 "cosmo_cavitation_energy": 34.69, 
			 "cosmo_dispersion_energy": -23.32, 
			 "cosmo_repulsion_energy": 1.67, 
			 "cosmo_total_nonelectrostatic_energy": 13.03, 
			 "SMD_solvation_energy": 10.52 
		},
		"coords": [
			{
				"x": 0.3825523855,
				"y": -3.3792227157,
				"z": -2.3335550798,
				"element": "O" 
			},
			{
				"x": -0.4602142244,
				"y": -2.6792185839,
				"z": -2.9129468453,
				"element": "N" 
			},
			{
				"x": -1.3038043126,
				"y": -3.1283743995,
				"z": -3.6824072045,
				"element": "O" 
			},
			{
				"x": -0.4368254486,
				"y": -1.2302790524,
				"z": -2.6914739412,
				"element": "C" 
			},
			{
				"x": -1.082957647,
				"y": -0.4476435559,
				"z": -3.6522142713,
				"element": "C" 
			},
			{
				"x": -1.0871490974,
				"y": 0.935892055,
				"z": -3.5427219608,
				"element": "C" 
			},
			{
				"x": -0.420307485,
				"y": 1.5350096102,
				"z": -2.4709677113,
				"element": "C" 
			},
			{
				"x": 0.2292705674,
				"y": 0.7612740808,
				"z": -1.5145498296,
				"element": "C" 
			},
			{
				"x": 0.2144641015,
				"y": -0.6445356478,
				"z": -1.5762917912,
				"element": "C" 
			},
			{
				"x": 0.852077565,
				"y": -1.4220343184,
				"z": -0.6049730536,
				"element": "N" 
			},
			{
				"x": 0.9520692221,
				"y": -1.2905165491,
				"z": 0.769329507,
				"element": "C" 
			},
			{
				"x": 1.6587575048,
				"y": -2.0431263657,
				"z": 1.4101577621,
				"element": "O" 
			},
			{
				"x": 0.0741716698,
				"y": -0.2475852184,
				"z": 1.4862173601,
				"element": "C" 
			},
			{
				"x": -0.9143891074,
				"y": -0.9675656339,
				"z": 2.4153020177,
				"element": "C" 
			},
			{
				"x": -1.8106295991,
				"y": -0.0894906546,
				"z": 2.9080631259,
				"element": "F" 
			},
			{
				"x": -0.327929597,
				"y": -1.5812278747,
				"z": 3.4453331003,
				"element": "F" 
			},
			{
				"x": -1.5954873933,
				"y": -1.8900538496,
				"z": 1.7022915377,
				"element": "F" 
			},
			{
				"x": 0.9393776382,
				"y": 0.7765313797,
				"z": 2.2252109461,
				"element": "C" 
			},
			{
				"x": 0.18274314,
				"y": 1.7668055299,
				"z": 2.732663128,
				"element": "F" 
			},
			{
				"x": 1.6549394258,
				"y": 0.2461338395,
				"z": 3.2174804187,
				"element": "F" 
			},
			{
				"x": 1.8080416296,
				"y": 1.3428531267,
				"z": 1.345516437,
				"element": "F" 
			},
			{
				"x": -1.5724110158,
				"y": -0.9542555854,
				"z": -4.4744649217,
				"element": "H" 
			},
			{
				"x": -1.5847482302,
				"y": 1.5392672793,
				"z": -4.2939626331,
				"element": "H" 
			},
			{
				"x": -0.3808977177,
				"y": 2.6168511914,
				"z": -2.3887074607,
				"element": "H" 
			},
			{
				"x": 0.7971199023,
				"y": 1.2427642903,
				"z": -0.7286128644,
				"element": "H" 
			},
			{
				"x": 1.1932680994,
				"y": -2.3203367041,
				"z": -0.938799636,
				"element": "H" 
			},
			{
				"x": -0.545301976,
				"y": 0.3146843261,
				"z": 0.7870838638,
				"element": "H" 
			}
		],
		 "valence_orbital": [ 
			{
				"type": "occ",
				"energy": -0.32717,
				"method": "rhf"
			},
			{
				"type": "occ",
				"energy": -0.31772,
				"method": "rhf"
			},
			{
				"type": "occ",
				"energy": -0.29924,
				"method": "rhf"
			},
			{
				"type": "occ",
				"energy": -0.29042,
				"method": "rhf"
			},
			{
				"type": "occ",
				"energy": -0.26498,
				"method": "rhf"
			},
			{
				"type": "unocc",
				"energy": -0.11026,
				"method": "rhf"
			},
			{
				"type": "unocc",
				"energy": -0.05461,
				"method": "rhf"
			},
			{
				"type": "unocc",
				"energy": -0.02775,
				"method": "rhf"
			},
			{
				"type": "unocc",
				"energy": -0.01031,
				"method": "rhf"
			},
			{
				"type": "unocc",
				"energy": 0.05998,
				"method": "rhf"
			}
		],
		"cosmo_sigma_profile": { 
			"-0.025": 0.0,
			"-0.024": 0.0,
			"-0.023": 0.0,
			"-0.022": 0.0,
			"-0.021": 0.0,
			"-0.02": 0.0,
			"-0.019": 0.0,
			"-0.018": 0.0,
			"-0.017": 0.0,
			"-0.016": 0.0,
			"-0.015": 0.0,
			"-0.014": 0.0,
			"-0.013": 0.0444368347286,
			"-0.012": 0.380190895477,
			"-0.011": 1.75049210037,
			"-0.01": 2.14699430867,
			"-0.009": 2.61506852319,
			"-0.008": 7.43970467513,
			"-0.007": 13.283652106,
			"-0.006": 13.1929368477,
			"-0.005": 11.9267453752,
			"-0.004": 13.9334217215,
			"-0.003": 11.951533537,
			"-0.002": 15.7606675017,
			"-0.001": 19.8741294207,
			"0.0": 22.1525028771,
			"0.001": 39.5397429911,
			"0.002": 49.9109556126,
			"0.003": 7.73625345457,
			"0.004": 4.50880817098,
			"0.005": 6.1551742221,
			"0.006": 5.36199873135,
			"0.007": 8.34422858881,
			"0.008": 6.66374363983,
			"0.009": 6.12541171468,
			"0.01": 3.99877290657,
			"0.011": 4.15851590435,
			"0.012": 0.511572565606,
			"0.013": 0.0,
			"0.014": 0.0,
			"0.015": 0.0,
			"0.016": 0.0,
			"0.017": 0.0,
			"0.018": 0.0,
			"0.019": 0.0,
			"0.02": 0.0,
			"0.021": 0.0,
			"0.022": 0.0,
			"0.023": 0.0,
			"0.024": 0.0,
			"0.025": 0.0
		}
	}
}
