{
	 "smiles": "CN(C)S(=O)(=O)C1=CC=C(C=C1)C(=O)CBr", 
	 "Tm": 364.15, 
	 "num_atms": 28, 
	 "gaussian": { 
		 "optdone": 1, 
		 "sigma_profile": "yes", 
		 "theory": "DFT", 
		 "functional": "B3LYP", 
		 "basiset": "6-31G**", 
		 "properties": { 
			 "R2extent": 8803.8397, 
			 "electric_dipole_moment_norm": 5.53072398697, 
			 "electric_quadrupole_moment_norm": 16.4715392016, 
			 "total_energy": -3638.23210969, 
			 "HOMO_LUMO_gap": 0.168, 
			 "cosmo_polarized_energy": -17.71, 
			 "cosmo_cavitation_energy": 35.19, 
			 "cosmo_dispersion_energy": -25.57, 
			 "cosmo_repulsion_energy": 1.94, 
			 "cosmo_total_nonelectrostatic_energy": 11.56, 
			 "SMD_solvation_energy": 3.99 
		},
		"coords": [
			{
				"x": -2.1394610099,
				"y": -1.8901223564,
				"z": -0.0875922871,
				"element": "C" 
			},
			{
				"x": -0.9687674059,
				"y": -2.3870096312,
				"z": -0.8133362589,
				"element": "N" 
			},
			{
				"x": -0.8598668834,
				"y": -1.9454494139,
				"z": -2.2054558902,
				"element": "C" 
			},
			{
				"x": 0.4698265201,
				"y": -2.5024488461,
				"z": 0.0595546512,
				"element": "S" 
			},
			{
				"x": 0.1190608086,
				"y": -3.0719100163,
				"z": 1.36113465,
				"element": "O" 
			},
			{
				"x": 1.4464027744,
				"y": -3.1267117899,
				"z": -0.8333841521,
				"element": "O" 
			},
			{
				"x": 1.023157055,
				"y": -0.8108782216,
				"z": 0.3520633677,
				"element": "C" 
			},
			{
				"x": 0.607054759,
				"y": -0.1440020417,
				"z": 1.5069436913,
				"element": "C" 
			},
			{
				"x": 0.9995159434,
				"y": 1.1777664839,
				"z": 1.7099072376,
				"element": "C" 
			},
			{
				"x": 1.8016565206,
				"y": 1.8328481372,
				"z": 0.7628680435,
				"element": "C" 
			},
			{
				"x": 2.2207308659,
				"y": 1.140310271,
				"z": -0.3848112641,
				"element": "C" 
			},
			{
				"x": 1.8372851032,
				"y": -0.1795056048,
				"z": -0.5947131762,
				"element": "C" 
			},
			{
				"x": 2.2295035613,
				"y": 3.2614634547,
				"z": 0.9009195044,
				"element": "C" 
			},
			{
				"x": 2.9134465483,
				"y": 3.8029811525,
				"z": 0.0486392964,
				"element": "O" 
			},
			{
				"x": 1.7689867852,
				"y": 4.0843050039,
				"z": 2.0992220779,
				"element": "C" 
			},
			{
				"x": 2.73670466,
				"y": 3.5482644204,
				"z": 3.7396127392,
				"element": "Br" 
			},
			{
				"x": -3.0335921247,
				"y": -2.1991473922,
				"z": -0.6366327059,
				"element": "H" 
			},
			{
				"x": -2.1691097044,
				"y": -2.3418316334,
				"z": 0.9034608648,
				"element": "H" 
			},
			{
				"x": -2.1492443768,
				"y": -0.7930236943,
				"z": 0.0045439772,
				"element": "H" 
			},
			{
				"x": -0.7583263526,
				"y": -0.8532318177,
				"z": -2.2990081299,
				"element": "H" 
			},
			{
				"x": -1.7685007237,
				"y": -2.2548559952,
				"z": -2.729922694,
				"element": "H" 
			},
			{
				"x": -0.0067396581,
				"y": -2.4347338693,
				"z": -2.6743343762,
				"element": "H" 
			},
			{
				"x": 0.0120000554,
				"y": -0.6680589974,
				"z": 2.246347653,
				"element": "H" 
			},
			{
				"x": 0.6996868533,
				"y": 1.6803321361,
				"z": 2.6226408019,
				"element": "H" 
			},
			{
				"x": 2.852470034,
				"y": 1.6591850278,
				"z": -1.0974971302,
				"element": "H" 
			},
			{
				"x": 2.1804171339,
				"y": -0.7301073666,
				"z": -1.4635080798,
				"element": "H" 
			},
			{
				"x": 2.021049126,
				"y": 5.1266942618,
				"z": 1.922226795,
				"element": "H" 
			},
			{
				"x": 0.7079531318,
				"y": 3.968578339,
				"z": 2.3197107936,
				"element": "H" 
			}
		],
		 "valence_orbital": [ 
			{
				"type": "occ",
				"energy": -0.29746,
				"method": "rhf"
			},
			{
				"type": "occ",
				"energy": -0.2873,
				"method": "rhf"
			},
			{
				"type": "occ",
				"energy": -0.28392,
				"method": "rhf"
			},
			{
				"type": "occ",
				"energy": -0.27268,
				"method": "rhf"
			},
			{
				"type": "occ",
				"energy": -0.26275,
				"method": "rhf"
			},
			{
				"type": "unocc",
				"energy": -0.09475,
				"method": "rhf"
			},
			{
				"type": "unocc",
				"energy": -0.03594,
				"method": "rhf"
			},
			{
				"type": "unocc",
				"energy": -0.03312,
				"method": "rhf"
			},
			{
				"type": "unocc",
				"energy": 0.02115,
				"method": "rhf"
			},
			{
				"type": "unocc",
				"energy": 0.05366,
				"method": "rhf"
			}
		],
		"cosmo_sigma_profile": { 
			"-0.025": 0.0,
			"-0.024": 0.0,
			"-0.023": 0.0,
			"-0.022": 0.0,
			"-0.021": 0.0,
			"-0.02": 0.0,
			"-0.019": 0.0,
			"-0.018": 0.0,
			"-0.017": 0.0,
			"-0.016": 0.0,
			"-0.015": 0.0,
			"-0.014": 0.0,
			"-0.013": 0.0,
			"-0.012": 0.0,
			"-0.011": 0.0,
			"-0.01": 2.0169207069,
			"-0.009": 3.99893012925,
			"-0.008": 5.81202566566,
			"-0.007": 11.2103249331,
			"-0.006": 15.4509167488,
			"-0.005": 19.1751282995,
			"-0.004": 24.3519883069,
			"-0.003": 28.1708800079,
			"-0.002": 21.5863770285,
			"-0.001": 15.805593802,
			"0.0": 18.6312348218,
			"0.001": 22.5290987623,
			"0.002": 12.1184760048,
			"0.003": 11.4414140425,
			"0.004": 12.7109932276,
			"0.005": 12.3604368398,
			"0.006": 5.76821300179,
			"0.007": 4.45194634777,
			"0.008": 6.96348853332,
			"0.009": 6.48807467155,
			"0.01": 9.81448873409,
			"0.011": 10.3158248347,
			"0.012": 2.12451399154,
			"0.013": 0.0,
			"0.014": 0.0,
			"0.015": 0.0,
			"0.016": 0.0,
			"0.017": 0.0,
			"0.018": 0.0,
			"0.019": 0.0,
			"0.02": 0.0,
			"0.021": 0.0,
			"0.022": 0.0,
			"0.023": 0.0,
			"0.024": 0.0,
			"0.025": 0.0
		}
	}
}
