{
	 "smiles": "[O-][N+](=O)C1=CN=C(Br)S1", 
	 "Tm": 361.15, 
	 "num_atms": 10, 
	 "gaussian": { 
		 "optdone": 1, 
		 "sigma_profile": "yes", 
		 "theory": "DFT", 
		 "functional": "B3LYP", 
		 "basiset": "6-31G**", 
		 "properties": { 
			 "R2extent": 4383.6094, 
			 "electric_dipole_moment_norm": 2.58876247269, 
			 "electric_quadrupole_moment_norm": 9.66740369024, 
			 "total_energy": -3344.32647728, 
			 "HOMO_LUMO_gap": 0.16567, 
			 "cosmo_polarized_energy": -7.24, 
			 "cosmo_cavitation_energy": 19.98, 
			 "cosmo_dispersion_energy": -15.84, 
			 "cosmo_repulsion_energy": 1.26, 
			 "cosmo_total_nonelectrostatic_energy": 5.39, 
			 "SMD_solvation_energy": 2.96 
		},
		"coords": [
			{
				"x": 3.6672152739,
				"y": -0.6469034299,
				"z": -1.6215982102,
				"element": "O" 
			},
			{
				"x": 3.8208948569,
				"y": 0.5225300409,
				"z": -1.2602365228,
				"element": "N" 
			},
			{
				"x": 4.591884435,
				"y": 1.339953682,
				"z": -1.7609952498,
				"element": "O" 
			},
			{
				"x": 3.024974154,
				"y": 0.967938928,
				"z": -0.1525920556,
				"element": "C" 
			},
			{
				"x": 3.0266203336,
				"y": 2.2134147415,
				"z": 0.4157799729,
				"element": "C" 
			},
			{
				"x": 2.1631310511,
				"y": 2.3661797384,
				"z": 1.4662656061,
				"element": "N" 
			},
			{
				"x": 1.5233868475,
				"y": 1.2553482161,
				"z": 1.6843176814,
				"element": "C" 
			},
			{
				"x": 0.2430911994,
				"y": 1.0573994192,
				"z": 3.0481505204,
				"element": "Br" 
			},
			{
				"x": 1.8987837322,
				"y": -0.094821958,
				"z": 0.6396400742,
				"element": "S" 
			},
			{
				"x": 3.6479181164,
				"y": 3.0364606218,
				"z": 0.0870681834,
				"element": "H" 
			}
		],
		 "valence_orbital": [ 
			{
				"type": "occ",
				"energy": -0.32948,
				"method": "rhf"
			},
			{
				"type": "occ",
				"energy": -0.3238,
				"method": "rhf"
			},
			{
				"type": "occ",
				"energy": -0.31737,
				"method": "rhf"
			},
			{
				"type": "occ",
				"energy": -0.30611,
				"method": "rhf"
			},
			{
				"type": "occ",
				"energy": -0.28226,
				"method": "rhf"
			},
			{
				"type": "unocc",
				"energy": -0.11659,
				"method": "rhf"
			},
			{
				"type": "unocc",
				"energy": -0.0444,
				"method": "rhf"
			},
			{
				"type": "unocc",
				"energy": -0.04372,
				"method": "rhf"
			},
			{
				"type": "unocc",
				"energy": -0.01211,
				"method": "rhf"
			},
			{
				"type": "unocc",
				"energy": 0.02326,
				"method": "rhf"
			}
		],
		"cosmo_sigma_profile": { 
			"-0.025": 0.0,
			"-0.024": 0.0,
			"-0.023": 0.0,
			"-0.022": 0.0,
			"-0.021": 0.0,
			"-0.02": 0.0,
			"-0.019": 0.0,
			"-0.018": 0.0,
			"-0.017": 0.0,
			"-0.016": 0.0,
			"-0.015": 0.0,
			"-0.014": 0.0,
			"-0.013": 0.0,
			"-0.012": 0.0,
			"-0.011": 0.791682286085,
			"-0.01": 1.30405662954,
			"-0.009": 1.61082612205,
			"-0.008": 2.51883507333,
			"-0.007": 4.12081154875,
			"-0.006": 5.87324787679,
			"-0.005": 11.2800749729,
			"-0.004": 15.6013909296,
			"-0.003": 14.6976741992,
			"-0.002": 15.2605268362,
			"-0.001": 13.7862284217,
			"0.0": 11.6575738411,
			"0.001": 12.9808801247,
			"0.002": 10.3502265802,
			"0.003": 5.69385563806,
			"0.004": 4.47018379201,
			"0.005": 4.99977297363,
			"0.006": 7.08973087355,
			"0.007": 11.0637498091,
			"0.008": 5.74705042189,
			"0.009": 3.84947487919,
			"0.01": 1.25685556406,
			"0.011": 0.933104442228,
			"0.012": 0.627093669146,
			"0.013": 0.0310264460542,
			"0.014": 0.0,
			"0.015": 0.0,
			"0.016": 0.0,
			"0.017": 0.0,
			"0.018": 0.0,
			"0.019": 0.0,
			"0.02": 0.0,
			"0.021": 0.0,
			"0.022": 0.0,
			"0.023": 0.0,
			"0.024": 0.0,
			"0.025": 0.0
		}
	}
}
