{
	 "smiles": "COC(=O)C1=C(Cl)N=C(Cl)C=C1", 
	 "Tm": 330.15, 
	 "num_atms": 17, 
	 "gaussian": { 
		 "optdone": 1, 
		 "sigma_profile": "yes", 
		 "theory": "DFT", 
		 "functional": "B3LYP", 
		 "basiset": "6-31G**", 
		 "properties": { 
			 "R2extent": 4266.5147, 
			 "electric_dipole_moment_norm": 4.84579926741, 
			 "electric_quadrupole_moment_norm": 6.32511453809, 
			 "total_energy": -1395.33887621, 
			 "HOMO_LUMO_gap": 0.19531, 
			 "cosmo_polarized_energy": -10.37, 
			 "cosmo_cavitation_energy": 25.83, 
			 "cosmo_dispersion_energy": -19.44, 
			 "cosmo_repulsion_energy": 1.57, 
			 "cosmo_total_nonelectrostatic_energy": 7.96, 
			 "SMD_solvation_energy": 4.22 
		},
		"coords": [
			{
				"x": 2.3143871278,
				"y": 1.1018029565,
				"z": -0.2268527403,
				"element": "C" 
			},
			{
				"x": 1.1398982498,
				"y": 0.3283889815,
				"z": -0.5250966367,
				"element": "O" 
			},
			{
				"x": 0.1889543084,
				"y": 0.3366348575,
				"z": 0.4412870528,
				"element": "C" 
			},
			{
				"x": 0.3061650152,
				"y": 0.9557581085,
				"z": 1.4749031273,
				"element": "O" 
			},
			{
				"x": -0.9754263904,
				"y": -0.5170705895,
				"z": 0.047034409,
				"element": "C" 
			},
			{
				"x": -2.2040591601,
				"y": -0.551890535,
				"z": 0.7403958056,
				"element": "C" 
			},
			{
				"x": -2.5261444804,
				"y": 0.4524632384,
				"z": 2.1295584113,
				"element": "Cl" 
			},
			{
				"x": -3.218840409,
				"y": -1.3315620959,
				"z": 0.387501194,
				"element": "N" 
			},
			{
				"x": -3.0799616067,
				"y": -2.118824797,
				"z": -0.6628060186,
				"element": "C" 
			},
			{
				"x": -4.4496948088,
				"y": -3.1324562034,
				"z": -1.0737311993,
				"element": "Cl" 
			},
			{
				"x": -1.9267926512,
				"y": -2.1839164464,
				"z": -1.4462423856,
				"element": "C" 
			},
			{
				"x": -0.8736390949,
				"y": -1.3632197307,
				"z": -1.0706962453,
				"element": "C" 
			},
			{
				"x": 2.80332867,
				"y": 0.7255672616,
				"z": 0.6750069994,
				"element": "H" 
			},
			{
				"x": 2.0526716866,
				"y": 2.1514892873,
				"z": -0.0743745216,
				"element": "H" 
			},
			{
				"x": 2.9657179133,
				"y": 0.9896913438,
				"z": -1.0932288891,
				"element": "H" 
			},
			{
				"x": -1.8648296004,
				"y": -2.8445707032,
				"z": -2.3017761424,
				"element": "H" 
			},
			{
				"x": 0.0494652306,
				"y": -1.3660849341,
				"z": -1.6369822204,
				"element": "H" 
			}
		],
		 "valence_orbital": [ 
			{
				"type": "occ",
				"energy": -0.31586,
				"method": "rhf"
			},
			{
				"type": "occ",
				"energy": -0.30689,
				"method": "rhf"
			},
			{
				"type": "occ",
				"energy": -0.29884,
				"method": "rhf"
			},
			{
				"type": "occ",
				"energy": -0.28056,
				"method": "rhf"
			},
			{
				"type": "occ",
				"energy": -0.26986,
				"method": "rhf"
			},
			{
				"type": "unocc",
				"energy": -0.07455,
				"method": "rhf"
			},
			{
				"type": "unocc",
				"energy": -0.05162,
				"method": "rhf"
			},
			{
				"type": "unocc",
				"energy": 0.01336,
				"method": "rhf"
			},
			{
				"type": "unocc",
				"energy": 0.02747,
				"method": "rhf"
			},
			{
				"type": "unocc",
				"energy": 0.0405,
				"method": "rhf"
			}
		],
		"cosmo_sigma_profile": { 
			"-0.025": 0.0,
			"-0.024": 0.0,
			"-0.023": 0.0,
			"-0.022": 0.0,
			"-0.021": 0.0,
			"-0.02": 0.0,
			"-0.019": 0.0,
			"-0.018": 0.0,
			"-0.017": 0.0,
			"-0.016": 0.0,
			"-0.015": 0.0,
			"-0.014": 0.0,
			"-0.013": 0.0,
			"-0.012": 0.0,
			"-0.011": 0.0,
			"-0.01": 0.130311555063,
			"-0.009": 2.96582535895,
			"-0.008": 4.17044095539,
			"-0.007": 4.06255318223,
			"-0.006": 9.19608760228,
			"-0.005": 10.2211228375,
			"-0.004": 18.5743492616,
			"-0.003": 23.0857675863,
			"-0.002": 22.0572790057,
			"-0.001": 17.8014655578,
			"0.0": 11.6726387009,
			"0.001": 11.6839288585,
			"0.002": 13.3680814058,
			"0.003": 18.9507975929,
			"0.004": 12.3757273823,
			"0.005": 6.96456601053,
			"0.006": 4.55746701626,
			"0.007": 3.54725043506,
			"0.008": 2.55554727459,
			"0.009": 3.85562630665,
			"0.01": 3.44183197908,
			"0.011": 5.30018472767,
			"0.012": 1.95681074707,
			"0.013": 0.0,
			"0.014": 0.0,
			"0.015": 0.0,
			"0.016": 0.0,
			"0.017": 0.0,
			"0.018": 0.0,
			"0.019": 0.0,
			"0.02": 0.0,
			"0.021": 0.0,
			"0.022": 0.0,
			"0.023": 0.0,
			"0.024": 0.0,
			"0.025": 0.0
		}
	}
}
