{
	 "smiles": "CCCOC(=O)CCC(=O)OCCC", 
	 "Tm": 267.25, 
	 "num_atms": 32, 
	 "gaussian": { 
		 "optdone": 1, 
		 "sigma_profile": "yes", 
		 "theory": "DFT", 
		 "functional": "B3LYP", 
		 "basiset": "6-31G**", 
		 "properties": { 
			 "R2extent": 3635.0529, 
			 "electric_dipole_moment_norm": 0.458425533757, 
			 "electric_quadrupole_moment_norm": 15.0733781469, 
			 "total_energy": -692.851314746, 
			 "HOMO_LUMO_gap": 0.27686, 
			 "cosmo_polarized_energy": -11.41, 
			 "cosmo_cavitation_energy": 35.21, 
			 "cosmo_dispersion_energy": -22.86, 
			 "cosmo_repulsion_energy": 1.87, 
			 "cosmo_total_nonelectrostatic_energy": 14.21, 
			 "SMD_solvation_energy": 7.43 
		},
		"coords": [
			{
				"x": -1.4215760363,
				"y": 1.3166256818,
				"z": 3.140281776,
				"element": "C" 
			},
			{
				"x": -0.7832711136,
				"y": 0.7875593265,
				"z": 1.8513821701,
				"element": "C" 
			},
			{
				"x": -1.8345041887,
				"y": 0.3013943543,
				"z": 0.8594386522,
				"element": "C" 
			},
			{
				"x": -1.2301292457,
				"y": -0.1098145222,
				"z": -0.3900608387,
				"element": "O" 
			},
			{
				"x": -0.8388526745,
				"y": -1.4008918551,
				"z": -0.4872279429,
				"element": "C" 
			},
			{
				"x": -0.9792039066,
				"y": -2.2219211736,
				"z": 0.3939604768,
				"element": "O" 
			},
			{
				"x": -0.2486124135,
				"y": -1.6973473409,
				"z": -1.8550220698,
				"element": "C" 
			},
			{
				"x": 0.571827052,
				"y": -0.5561020304,
				"z": -2.4678451767,
				"element": "C" 
			},
			{
				"x": 1.7802877603,
				"y": -0.1026116615,
				"z": -1.6639588439,
				"element": "C" 
			},
			{
				"x": 2.3487238374,
				"y": 0.9545892962,
				"z": -1.8283910995,
				"element": "O" 
			},
			{
				"x": 2.1664977854,
				"y": -1.0313562314,
				"z": -0.7633913396,
				"element": "O" 
			},
			{
				"x": 3.3310490777,
				"y": -0.7075842762,
				"z": 0.0340218819,
				"element": "C" 
			},
			{
				"x": 3.6204664094,
				"y": -1.8912602798,
				"z": 0.9445265411,
				"element": "C" 
			},
			{
				"x": 2.5146614422,
				"y": -2.1751016404,
				"z": 1.9667671037,
				"element": "C" 
			},
			{
				"x": -0.656548265,
				"y": 1.6624787717,
				"z": 3.8415650931,
				"element": "H" 
			},
			{
				"x": -2.0916041103,
				"y": 2.1602013283,
				"z": 2.9388265058,
				"element": "H" 
			},
			{
				"x": -2.0062380768,
				"y": 0.5391468433,
				"z": 3.6442290653,
				"element": "H" 
			},
			{
				"x": -0.1833987022,
				"y": 1.571968679,
				"z": 1.3748236384,
				"element": "H" 
			},
			{
				"x": -0.1077399212,
				"y": -0.0436679376,
				"z": 2.0801082347,
				"element": "H" 
			},
			{
				"x": -2.4041486771,
				"y": -0.5364754,
				"z": 1.2696151893,
				"element": "H" 
			},
			{
				"x": -2.5198211033,
				"y": 1.107738922,
				"z": 0.5833028653,
				"element": "H" 
			},
			{
				"x": 0.3438004106,
				"y": -2.6073400039,
				"z": -1.7516428242,
				"element": "H" 
			},
			{
				"x": -1.0877443478,
				"y": -1.9279738275,
				"z": -2.523938641,
				"element": "H" 
			},
			{
				"x": 0.9459657145,
				"y": -0.8647390029,
				"z": -3.4519816537,
				"element": "H" 
			},
			{
				"x": -0.0437011384,
				"y": 0.33048414,
				"z": -2.6325779918,
				"element": "H" 
			},
			{
				"x": 4.1664724513,
				"y": -0.4943250133,
				"z": -0.6400576552,
				"element": "H" 
			},
			{
				"x": 3.1222643027,
				"y": 0.2054753667,
				"z": 0.60239749,
				"element": "H" 
			},
			{
				"x": 4.5660055764,
				"y": -1.679922016,
				"z": 1.4603657272,
				"element": "H" 
			},
			{
				"x": 3.79698344,
				"y": -2.7775744817,
				"z": 0.322913523,
				"element": "H" 
			},
			{
				"x": 1.564555975,
				"y": -2.401042211,
				"z": 1.4750245045,
				"element": "H" 
			},
			{
				"x": 2.7789944786,
				"y": -3.0280232391,
				"z": 2.5996461549,
				"element": "H" 
			},
			{
				"x": 2.3583382074,
				"y": -1.3114885653,
				"z": 2.6241994834,
				"element": "H" 
			}
		],
		 "valence_orbital": [ 
			{
				"type": "occ",
				"energy": -0.33291,
				"method": "rhf"
			},
			{
				"type": "occ",
				"energy": -0.29852,
				"method": "rhf"
			},
			{
				"type": "occ",
				"energy": -0.29587,
				"method": "rhf"
			},
			{
				"type": "occ",
				"energy": -0.27,
				"method": "rhf"
			},
			{
				"type": "occ",
				"energy": -0.2669,
				"method": "rhf"
			},
			{
				"type": "unocc",
				"energy": 0.00996,
				"method": "rhf"
			},
			{
				"type": "unocc",
				"energy": 0.01555,
				"method": "rhf"
			},
			{
				"type": "unocc",
				"energy": 0.08035,
				"method": "rhf"
			},
			{
				"type": "unocc",
				"energy": 0.08742,
				"method": "rhf"
			},
			{
				"type": "unocc",
				"energy": 0.10241,
				"method": "rhf"
			}
		],
		"cosmo_sigma_profile": { 
			"-0.025": 0.0,
			"-0.024": 0.0,
			"-0.023": 0.0,
			"-0.022": 0.0,
			"-0.021": 0.0,
			"-0.02": 0.0,
			"-0.019": 0.0,
			"-0.018": 0.0,
			"-0.017": 0.0,
			"-0.016": 0.0,
			"-0.015": 0.0,
			"-0.014": 0.0,
			"-0.013": 0.0,
			"-0.012": 0.0,
			"-0.011": 0.0,
			"-0.01": 0.0,
			"-0.009": 0.0,
			"-0.008": 0.166395702524,
			"-0.007": 4.83485398847,
			"-0.006": 7.24025005729,
			"-0.005": 15.0529420373,
			"-0.004": 24.8570456973,
			"-0.003": 38.1427352624,
			"-0.002": 31.2476249347,
			"-0.001": 33.5633179396,
			"0.0": 28.9170230115,
			"0.001": 21.6353382109,
			"0.002": 12.4045713907,
			"0.003": 8.19182930646,
			"0.004": 7.25150528096,
			"0.005": 7.02659806757,
			"0.006": 5.27753290607,
			"0.007": 2.76743934605,
			"0.008": 2.39468736648,
			"0.009": 3.02490226255,
			"0.01": 3.4003745521,
			"0.011": 5.04154978511,
			"0.012": 8.40066480325,
			"0.013": 3.01256308568,
			"0.014": 0.0671683690767,
			"0.015": 0.0,
			"0.016": 0.0,
			"0.017": 0.0,
			"0.018": 0.0,
			"0.019": 0.0,
			"0.02": 0.0,
			"0.021": 0.0,
			"0.022": 0.0,
			"0.023": 0.0,
			"0.024": 0.0,
			"0.025": 0.0
		}
	}
}
