{
	 "smiles": "CCN1C(=O)C=C(N)N(CC=C)C1=O", 
	 "Tm": 416.15, 
	 "num_atms": 27, 
	 "gaussian": { 
		 "optdone": 1, 
		 "sigma_profile": "yes", 
		 "theory": "DFT", 
		 "functional": "B3LYP", 
		 "basiset": "6-31G**", 
		 "properties": { 
			 "R2extent": 3378.0089, 
			 "electric_dipole_moment_norm": 5.52776279791, 
			 "electric_quadrupole_moment_norm": 12.3228939268, 
			 "total_energy": -665.516727602, 
			 "HOMO_LUMO_gap": 0.20838, 
			 "cosmo_polarized_energy": -17.81, 
			 "cosmo_cavitation_energy": 29.86, 
			 "cosmo_dispersion_energy": -21.2, 
			 "cosmo_repulsion_energy": 1.67, 
			 "cosmo_total_nonelectrostatic_energy": 10.33, 
			 "SMD_solvation_energy": 6.99 
		},
		"coords": [
			{
				"x": 1.851925692,
				"y": -1.2626301073,
				"z": -3.8816618697,
				"element": "C" 
			},
			{
				"x": 1.3630196106,
				"y": -1.6452410002,
				"z": -2.4849882978,
				"element": "C" 
			},
			{
				"x": 0.4653729947,
				"y": -0.6293118403,
				"z": -1.9046542028,
				"element": "N" 
			},
			{
				"x": -0.9342496546,
				"y": -0.7690499557,
				"z": -2.1393893911,
				"element": "C" 
			},
			{
				"x": -1.3523930703,
				"y": -1.7176593296,
				"z": -2.7944587266,
				"element": "O" 
			},
			{
				"x": -1.7496422991,
				"y": 0.2495592578,
				"z": -1.5356434711,
				"element": "C" 
			},
			{
				"x": -1.1984933287,
				"y": 1.2833831,
				"z": -0.8361171012,
				"element": "C" 
			},
			{
				"x": -1.9395293465,
				"y": 2.3204473828,
				"z": -0.3010757704,
				"element": "N" 
			},
			{
				"x": 0.1773395904,
				"y": 1.3765758265,
				"z": -0.6753554684,
				"element": "N" 
			},
			{
				"x": 0.793608544,
				"y": 2.555508952,
				"z": -0.0584032754,
				"element": "C" 
			},
			{
				"x": 0.7122528463,
				"y": 2.6096990601,
				"z": 1.4479416511,
				"element": "C" 
			},
			{
				"x": 0.2622903789,
				"y": 1.6475571377,
				"z": 2.2542187046,
				"element": "C" 
			},
			{
				"x": 1.0552308929,
				"y": 0.4177125833,
				"z": -1.2261892607,
				"element": "C" 
			},
			{
				"x": 2.2682072074,
				"y": 0.5330606827,
				"z": -1.1001087297,
				"element": "O" 
			},
			{
				"x": 2.5066125429,
				"y": -2.0473031464,
				"z": -4.2750303679,
				"element": "H" 
			},
			{
				"x": 2.419461303,
				"y": -0.3284564572,
				"z": -3.85177488,
				"element": "H" 
			},
			{
				"x": 1.0069175462,
				"y": -1.1488039774,
				"z": -4.5662341999,
				"element": "H" 
			},
			{
				"x": 0.7863017624,
				"y": -2.5695268244,
				"z": -2.5215535313,
				"element": "H" 
			},
			{
				"x": 2.2032356002,
				"y": -1.7609516552,
				"z": -1.7993821047,
				"element": "H" 
			},
			{
				"x": -2.8220145439,
				"y": 0.1600624613,
				"z": -1.6468867324,
				"element": "H" 
			},
			{
				"x": -1.6383535012,
				"y": 2.6438744055,
				"z": 0.6113807493,
				"element": "H" 
			},
			{
				"x": -2.9371941909,
				"y": 2.1657684804,
				"z": -0.3471332762,
				"element": "H" 
			},
			{
				"x": 1.8427269084,
				"y": 2.5398717162,
				"z": -0.36388128,
				"element": "H" 
			},
			{
				"x": 0.3324357134,
				"y": 3.4523033771,
				"z": -0.4885714287,
				"element": "H" 
			},
			{
				"x": 1.0832071899,
				"y": 3.5413303091,
				"z": 1.8749928825,
				"element": "H" 
			},
			{
				"x": 0.2607906574,
				"y": 1.7723757393,
				"z": 3.3322223484,
				"element": "H" 
			},
			{
				"x": -0.0964670457,
				"y": 0.6970438219,
				"z": 1.8691370302,
				"element": "H" 
			}
		],
		 "valence_orbital": [ 
			{
				"type": "occ",
				"energy": -0.28813,
				"method": "rhf"
			},
			{
				"type": "occ",
				"energy": -0.27685,
				"method": "rhf"
			},
			{
				"type": "occ",
				"energy": -0.25744,
				"method": "rhf"
			},
			{
				"type": "occ",
				"energy": -0.24423,
				"method": "rhf"
			},
			{
				"type": "occ",
				"energy": -0.22009,
				"method": "rhf"
			},
			{
				"type": "unocc",
				"energy": -0.01171,
				"method": "rhf"
			},
			{
				"type": "unocc",
				"energy": -0.00334,
				"method": "rhf"
			},
			{
				"type": "unocc",
				"energy": 0.02163,
				"method": "rhf"
			},
			{
				"type": "unocc",
				"energy": 0.06788,
				"method": "rhf"
			},
			{
				"type": "unocc",
				"energy": 0.09942,
				"method": "rhf"
			}
		],
		"cosmo_sigma_profile": { 
			"-0.025": 0.0,
			"-0.024": 0.0,
			"-0.023": 0.0,
			"-0.022": 0.0,
			"-0.021": 0.0,
			"-0.02": 0.0,
			"-0.019": 0.0,
			"-0.018": 0.0,
			"-0.017": 0.0,
			"-0.016": 0.0,
			"-0.015": 0.299000368683,
			"-0.014": 1.47839216463,
			"-0.013": 1.28819090917,
			"-0.012": 1.88295615926,
			"-0.011": 2.59764672287,
			"-0.01": 2.0780498669,
			"-0.009": 2.8670336604,
			"-0.008": 1.4512142417,
			"-0.007": 4.35641566228,
			"-0.006": 10.8810468495,
			"-0.005": 13.4683627959,
			"-0.004": 20.278709151,
			"-0.003": 23.1190929635,
			"-0.002": 21.4888116055,
			"-0.001": 22.7273493324,
			"0.0": 17.4308208072,
			"0.001": 15.6385945355,
			"0.002": 9.8332377362,
			"0.003": 9.26139995271,
			"0.004": 8.97934101474,
			"0.005": 6.18123750336,
			"0.006": 4.62978830457,
			"0.007": 3.8441507944,
			"0.008": 3.67042160148,
			"0.009": 2.67884226694,
			"0.01": 4.04065234964,
			"0.011": 3.06841610086,
			"0.012": 4.80268931829,
			"0.013": 5.32208786191,
			"0.014": 4.81618250486,
			"0.015": 1.41414046192,
			"0.016": 0.0867103648471,
			"0.017": 0.0,
			"0.018": 0.0,
			"0.019": 0.0,
			"0.02": 0.0,
			"0.021": 0.0,
			"0.022": 0.0,
			"0.023": 0.0,
			"0.024": 0.0,
			"0.025": 0.0
		}
	}
}
