{
	 "smiles": "CC(=O)NC1=CC=C(C=C1)N=C=S", 
	 "Tm": 473.15, 
	 "num_atms": 21, 
	 "gaussian": { 
		 "optdone": 1, 
		 "sigma_profile": "yes", 
		 "theory": "DFT", 
		 "functional": "B3LYP", 
		 "basiset": "6-31G**", 
		 "properties": { 
			 "R2extent": 5089.0197, 
			 "electric_dipole_moment_norm": 6.29155537685, 
			 "electric_quadrupole_moment_norm": 14.4902862884, 
			 "total_energy": -930.710290985, 
			 "HOMO_LUMO_gap": 0.16947, 
			 "cosmo_polarized_energy": -14.64, 
			 "cosmo_cavitation_energy": 28.95, 
			 "cosmo_dispersion_energy": -21.57, 
			 "cosmo_repulsion_energy": 1.68, 
			 "cosmo_total_nonelectrostatic_energy": 9.06, 
			 "SMD_solvation_energy": 6.35 
		},
		"coords": [
			{
				"x": -4.4374845113,
				"y": 1.690010863,
				"z": 0.0244189461,
				"element": "C" 
			},
			{
				"x": -3.4373451289,
				"y": 0.5455327433,
				"z": -0.0489954784,
				"element": "C" 
			},
			{
				"x": -3.7570800287,
				"y": -0.6142476675,
				"z": 0.1605036834,
				"element": "O" 
			},
			{
				"x": -2.1460274397,
				"y": 0.9480081196,
				"z": -0.3395051107,
				"element": "N" 
			},
			{
				"x": -0.9790565779,
				"y": 0.1681058055,
				"z": -0.4331819334,
				"element": "C" 
			},
			{
				"x": -0.962963152,
				"y": -1.2245217552,
				"z": -0.2439085386,
				"element": "C" 
			},
			{
				"x": 0.2334934841,
				"y": -1.9238373286,
				"z": -0.3546251581,
				"element": "C" 
			},
			{
				"x": 1.4316047994,
				"y": -1.2565681034,
				"z": -0.6544101672,
				"element": "C" 
			},
			{
				"x": 1.4169744486,
				"y": 0.1348561456,
				"z": -0.8439119014,
				"element": "C" 
			},
			{
				"x": 0.2228870999,
				"y": 0.8323250086,
				"z": -0.7334886906,
				"element": "C" 
			},
			{
				"x": 2.6074026243,
				"y": -1.9554641389,
				"z": -0.7624969259,
				"element": "N" 
			},
			{
				"x": 3.6240253616,
				"y": -2.5597447138,
				"z": -0.8559214667,
				"element": "C" 
			},
			{
				"x": 4.9864470837,
				"y": -3.3801308426,
				"z": -0.9845759745,
				"element": "S" 
			},
			{
				"x": -5.427651961,
				"y": 1.2962434893,
				"z": -0.2065137127,
				"element": "H" 
			},
			{
				"x": -4.4604583864,
				"y": 2.09221297,
				"z": 1.0433448879,
				"element": "H" 
			},
			{
				"x": -4.2031798535,
				"y": 2.509402225,
				"z": -0.6621508712,
				"element": "H" 
			},
			{
				"x": -2.0125524486,
				"y": 1.9369303648,
				"z": -0.4950776683,
				"element": "H" 
			},
			{
				"x": -1.884778106,
				"y": -1.7388524482,
				"z": -0.013849669,
				"element": "H" 
			},
			{
				"x": 0.2478737829,
				"y": -2.9987366392,
				"z": -0.209274028,
				"element": "H" 
			},
			{
				"x": 2.3403945244,
				"y": 0.6541392647,
				"z": -1.0759296432,
				"element": "H" 
			},
			{
				"x": 0.2223743851,
				"y": 1.909536638,
				"z": -0.8825505794,
				"element": "H" 
			}
		],
		 "valence_orbital": [ 
			{
				"type": "occ",
				"energy": -0.27304,
				"method": "rhf"
			},
			{
				"type": "occ",
				"energy": -0.2682,
				"method": "rhf"
			},
			{
				"type": "occ",
				"energy": -0.26676,
				"method": "rhf"
			},
			{
				"type": "occ",
				"energy": -0.2477,
				"method": "rhf"
			},
			{
				"type": "occ",
				"energy": -0.21683,
				"method": "rhf"
			},
			{
				"type": "unocc",
				"energy": -0.04736,
				"method": "rhf"
			},
			{
				"type": "unocc",
				"energy": -0.02144,
				"method": "rhf"
			},
			{
				"type": "unocc",
				"energy": 0.00857,
				"method": "rhf"
			},
			{
				"type": "unocc",
				"energy": 0.01024,
				"method": "rhf"
			},
			{
				"type": "unocc",
				"energy": 0.05247,
				"method": "rhf"
			}
		],
		"cosmo_sigma_profile": { 
			"-0.025": 0.0,
			"-0.024": 0.0,
			"-0.023": 0.0,
			"-0.022": 0.0,
			"-0.021": 0.0,
			"-0.02": 0.0,
			"-0.019": 0.0,
			"-0.018": 0.0,
			"-0.017": 0.0,
			"-0.016": 0.409278309995,
			"-0.015": 1.04964778732,
			"-0.014": 1.34430566701,
			"-0.013": 1.82751774188,
			"-0.012": 1.5669276306,
			"-0.011": 1.52998165025,
			"-0.01": 1.49503249737,
			"-0.009": 1.87823401978,
			"-0.008": 3.58210199807,
			"-0.007": 7.48900498463,
			"-0.006": 10.9985406858,
			"-0.005": 13.4586784903,
			"-0.004": 11.2849392873,
			"-0.003": 12.7190951663,
			"-0.002": 15.4835803193,
			"-0.001": 21.7561972146,
			"0.0": 19.5506204921,
			"0.001": 17.6112082491,
			"0.002": 17.6344731546,
			"0.003": 20.8156043765,
			"0.004": 9.7659182828,
			"0.005": 8.4850854,
			"0.006": 13.9553237391,
			"0.007": 7.24117666551,
			"0.008": 1.7135334384,
			"0.009": 1.06796424431,
			"0.01": 1.86063613391,
			"0.011": 1.94578605823,
			"0.012": 2.79422746574,
			"0.013": 2.65502757148,
			"0.014": 1.16763913781,
			"0.015": 0.0255065350116,
			"0.016": 0.0,
			"0.017": 0.0,
			"0.018": 0.0,
			"0.019": 0.0,
			"0.02": 0.0,
			"0.021": 0.0,
			"0.022": 0.0,
			"0.023": 0.0,
			"0.024": 0.0,
			"0.025": 0.0
		}
	}
}
