{
	 "smiles": "CCOC(=O)C1CCN(CC2=CC(N)=CC=C2)CC1", 
	 "Tm": 317.15, 
	 "num_atms": 41, 
	 "gaussian": { 
		 "optdone": 1, 
		 "sigma_profile": "yes", 
		 "theory": "DFT", 
		 "functional": "B3LYP", 
		 "basiset": "6-31G**", 
		 "properties": { 
			 "R2extent": 5901.862, 
			 "electric_dipole_moment_norm": 3.47664628342, 
			 "electric_quadrupole_moment_norm": 12.5470185745, 
			 "total_energy": -844.82218089, 
			 "HOMO_LUMO_gap": 0.20257, 
			 "cosmo_polarized_energy": -14.43, 
			 "cosmo_cavitation_energy": 41.92, 
			 "cosmo_dispersion_energy": -27.72, 
			 "cosmo_repulsion_energy": 2.16, 
			 "cosmo_total_nonelectrostatic_energy": 16.36, 
			 "SMD_solvation_energy": 6.83 
		},
		"coords": [
			{
				"x": 3.4373980801,
				"y": 2.9908148611,
				"z": 0.2634966637,
				"element": "C" 
			},
			{
				"x": 2.9799112524,
				"y": 1.9482029197,
				"z": 1.2661759633,
				"element": "C" 
			},
			{
				"x": 1.5480406232,
				"y": 2.0821613457,
				"z": 1.4089598936,
				"element": "O" 
			},
			{
				"x": 0.9670124108,
				"y": 1.2883570452,
				"z": 2.3373684444,
				"element": "C" 
			},
			{
				"x": 1.5955328243,
				"y": 0.5254147913,
				"z": 3.0415510842,
				"element": "O" 
			},
			{
				"x": -0.5370482593,
				"y": 1.5463522233,
				"z": 2.4345051382,
				"element": "C" 
			},
			{
				"x": -1.1765408236,
				"y": 1.9369557816,
				"z": 1.0908838443,
				"element": "C" 
			},
			{
				"x": -1.0371950431,
				"y": 0.7890722217,
				"z": 0.0661019785,
				"element": "C" 
			},
			{
				"x": -0.8080412025,
				"y": -0.4868353633,
				"z": 0.7485226914,
				"element": "N" 
			},
			{
				"x": -0.7745448748,
				"y": -1.6186231653,
				"z": -0.1703711039,
				"element": "C" 
			},
			{
				"x": 0.4674044295,
				"y": -1.628431162,
				"z": -1.0455480183,
				"element": "C" 
			},
			{
				"x": 0.3582235612,
				"y": -1.7882452906,
				"z": -2.426788216,
				"element": "C" 
			},
			{
				"x": 1.4989557548,
				"y": -1.8479940533,
				"z": -3.2477305745,
				"element": "C" 
			},
			{
				"x": 1.3722782969,
				"y": -2.0671877764,
				"z": -4.6232963276,
				"element": "N" 
			},
			{
				"x": 2.7636625114,
				"y": -1.7379896742,
				"z": -2.6495871504,
				"element": "C" 
			},
			{
				"x": 2.8715163076,
				"y": -1.5748972577,
				"z": -1.2683991638,
				"element": "C" 
			},
			{
				"x": 1.7373602696,
				"y": -1.5176706567,
				"z": -0.4597214202,
				"element": "C" 
			},
			{
				"x": -1.7007883072,
				"y": -0.6474217588,
				"z": 1.8942583512,
				"element": "C" 
			},
			{
				"x": -1.2699936443,
				"y": 0.3221342695,
				"z": 3.0213018997,
				"element": "C" 
			},
			{
				"x": 3.1971875709,
				"y": 4.0003594639,
				"z": 0.6100355097,
				"element": "H" 
			},
			{
				"x": 4.5212051899,
				"y": 2.9235402212,
				"z": 0.1253853364,
				"element": "H" 
			},
			{
				"x": 2.9575639306,
				"y": 2.8352778219,
				"z": -0.7070701958,
				"element": "H" 
			},
			{
				"x": 3.2027402896,
				"y": 0.9324242706,
				"z": 0.9258021187,
				"element": "H" 
			},
			{
				"x": 3.4487357467,
				"y": 2.0822022492,
				"z": 2.245842268,
				"element": "H" 
			},
			{
				"x": -0.6329206577,
				"y": 2.390075074,
				"z": 3.1322875932,
				"element": "H" 
			},
			{
				"x": -0.732094622,
				"y": 2.8519563878,
				"z": 0.6938359807,
				"element": "H" 
			},
			{
				"x": -2.23544314,
				"y": 2.1496148086,
				"z": 1.2788376187,
				"element": "H" 
			},
			{
				"x": -1.944287131,
				"y": 0.7467225344,
				"z": -0.5698574722,
				"element": "H" 
			},
			{
				"x": -0.1869321447,
				"y": 0.9718391875,
				"z": -0.5973306784,
				"element": "H" 
			},
			{
				"x": -1.6768463317,
				"y": -1.6613880888,
				"z": -0.8119177695,
				"element": "H" 
			},
			{
				"x": -0.7819771032,
				"y": -2.5327930641,
				"z": 0.4366386492,
				"element": "H" 
			},
			{
				"x": -0.6276453776,
				"y": -1.8736736239,
				"z": -2.8806137401,
				"element": "H" 
			},
			{
				"x": 2.1525601584,
				"y": -1.7445009992,
				"z": -5.1791836463,
				"element": "H" 
			},
			{
				"x": 0.4882479804,
				"y": -1.7795173424,
				"z": -5.020466865,
				"element": "H" 
			},
			{
				"x": 3.6569224324,
				"y": -1.7861223374,
				"z": -3.2679532063,
				"element": "H" 
			},
			{
				"x": 3.8588563265,
				"y": -1.4961440148,
				"z": -0.8202954139,
				"element": "H" 
			},
			{
				"x": 1.8210515948,
				"y": -1.3825674848,
				"z": 0.6139272678,
				"element": "H" 
			},
			{
				"x": -2.7596376339,
				"y": -0.476930175,
				"z": 1.6158687779,
				"element": "H" 
			},
			{
				"x": -1.6356559373,
				"y": -1.6815077994,
				"z": 2.2461205556,
				"element": "H" 
			},
			{
				"x": -0.5981690212,
				"y": -0.1813806362,
				"z": 3.7201474639,
				"element": "H" 
			},
			{
				"x": -2.151106287,
				"y": 0.6522442461,
				"z": 3.5822758699,
				"element": "H" 
			}
		],
		 "valence_orbital": [ 
			{
				"type": "occ",
				"energy": -0.28797,
				"method": "rhf"
			},
			{
				"type": "occ",
				"energy": -0.25577,
				"method": "rhf"
			},
			{
				"type": "occ",
				"energy": -0.23661,
				"method": "rhf"
			},
			{
				"type": "occ",
				"energy": -0.20764,
				"method": "rhf"
			},
			{
				"type": "occ",
				"energy": -0.19533,
				"method": "rhf"
			},
			{
				"type": "unocc",
				"energy": 0.00724,
				"method": "rhf"
			},
			{
				"type": "unocc",
				"energy": 0.02046,
				"method": "rhf"
			},
			{
				"type": "unocc",
				"energy": 0.02682,
				"method": "rhf"
			},
			{
				"type": "unocc",
				"energy": 0.08231,
				"method": "rhf"
			},
			{
				"type": "unocc",
				"energy": 0.08341,
				"method": "rhf"
			}
		],
		"cosmo_sigma_profile": { 
			"-0.025": 0.0,
			"-0.024": 0.0,
			"-0.023": 0.0,
			"-0.022": 0.0,
			"-0.021": 0.0,
			"-0.02": 0.0,
			"-0.019": 0.0,
			"-0.018": 0.0,
			"-0.017": 0.0,
			"-0.016": 0.0,
			"-0.015": 0.0,
			"-0.014": 0.0,
			"-0.013": 0.0256260480977,
			"-0.012": 1.90503981339,
			"-0.011": 2.81697028092,
			"-0.01": 2.6734002274,
			"-0.009": 2.87580478863,
			"-0.008": 2.92933763631,
			"-0.007": 2.79555962192,
			"-0.006": 4.93092684545,
			"-0.005": 11.6801240773,
			"-0.004": 24.9439770962,
			"-0.003": 33.523978625,
			"-0.002": 43.2913306317,
			"-0.001": 44.2416947285,
			"0.0": 36.6737007101,
			"0.001": 17.3726900184,
			"0.002": 12.2309072074,
			"0.003": 13.8411466347,
			"0.004": 12.2738304206,
			"0.005": 10.9790743598,
			"0.006": 12.5414590795,
			"0.007": 10.0726715181,
			"0.008": 4.43838957612,
			"0.009": 3.40263787199,
			"0.01": 2.64790552674,
			"0.011": 3.05501639994,
			"0.012": 4.49059350308,
			"0.013": 2.6824343834,
			"0.014": 0.889432089218,
			"0.015": 0.341341988145,
			"0.016": 0.0,
			"0.017": 0.0,
			"0.018": 0.0,
			"0.019": 0.0,
			"0.02": 0.0,
			"0.021": 0.0,
			"0.022": 0.0,
			"0.023": 0.0,
			"0.024": 0.0,
			"0.025": 0.0
		}
	}
}
