{
	 "smiles": "FC1=CC(F)=C(NC(=O)OCC(F)(F)F)C=C1", 
	 "Tm": 346.15, 
	 "num_atms": 23, 
	 "gaussian": { 
		 "optdone": 1, 
		 "sigma_profile": "yes", 
		 "theory": "DFT", 
		 "functional": "B3LYP", 
		 "basiset": "6-31G**", 
		 "properties": { 
			 "R2extent": 5113.8113, 
			 "electric_dipole_moment_norm": 1.42547279876, 
			 "electric_quadrupole_moment_norm": 9.62871986974, 
			 "total_energy": -1050.98329482, 
			 "HOMO_LUMO_gap": 0.20668, 
			 "cosmo_polarized_energy": -8.98, 
			 "cosmo_cavitation_energy": 30.94, 
			 "cosmo_dispersion_energy": -21.3, 
			 "cosmo_repulsion_energy": 1.54, 
			 "cosmo_total_nonelectrostatic_energy": 11.18, 
			 "SMD_solvation_energy": 8.53 
		},
		"coords": [
			{
				"x": 2.3533841577,
				"y": -1.4853766564,
				"z": -4.3213511629,
				"element": "F" 
			},
			{
				"x": 2.0945745777,
				"y": -1.174704809,
				"z": -3.0362798802,
				"element": "C" 
			},
			{
				"x": 3.1507182501,
				"y": -1.1337729807,
				"z": -2.1318699197,
				"element": "C" 
			},
			{
				"x": 2.8514428227,
				"y": -0.8182175573,
				"z": -0.8180131141,
				"element": "C" 
			},
			{
				"x": 3.8548942836,
				"y": -0.7579112269,
				"z": 0.0915548278,
				"element": "F" 
			},
			{
				"x": 1.5519206526,
				"y": -0.5396279011,
				"z": -0.3683368942,
				"element": "C" 
			},
			{
				"x": 1.4274020145,
				"y": -0.2037694884,
				"z": 0.9950159167,
				"element": "N" 
			},
			{
				"x": 0.3483840531,
				"y": -0.1570045052,
				"z": 1.835320059,
				"element": "C" 
			},
			{
				"x": 0.4181231638,
				"y": 0.1833806502,
				"z": 2.998373001,
				"element": "O" 
			},
			{
				"x": -0.7982847622,
				"y": -0.5630433727,
				"z": 1.2131594526,
				"element": "O" 
			},
			{
				"x": -2.0070486547,
				"y": -0.3893087285,
				"z": 1.9429398127,
				"element": "C" 
			},
			{
				"x": -2.7969558866,
				"y": 0.7407406478,
				"z": 1.3068861155,
				"element": "C" 
			},
			{
				"x": -3.0428641124,
				"y": 0.495647938,
				"z": 0.0016221549,
				"element": "F" 
			},
			{
				"x": -3.9810230363,
				"y": 0.8787547306,
				"z": 1.9347928179,
				"element": "F" 
			},
			{
				"x": -2.1352998455,
				"y": 1.9091086918,
				"z": 1.3831355471,
				"element": "F" 
			},
			{
				"x": 0.5199295998,
				"y": -0.5742971407,
				"z": -1.3162289091,
				"element": "C" 
			},
			{
				"x": 0.7906360808,
				"y": -0.899279948,
				"z": -2.6465867182,
				"element": "C" 
			},
			{
				"x": 4.1693044307,
				"y": -1.3422908093,
				"z": -2.4349074782,
				"element": "H" 
			},
			{
				"x": 2.2971717593,
				"y": -0.0208314558,
				"z": 1.4760793827,
				"element": "H" 
			},
			{
				"x": -1.7970464293,
				"y": -0.1497653238,
				"z": 2.98653887,
				"element": "H" 
			},
			{
				"x": -2.5851687432,
				"y": -1.3125249055,
				"z": 1.8683426409,
				"element": "H" 
			},
			{
				"x": -0.4929248399,
				"y": -0.34856826,
				"z": -1.0155662628,
				"element": "H" 
			},
			{
				"x": -0.0053695365,
				"y": -0.9312375892,
				"z": -3.3816202593,
				"element": "H" 
			}
		],
		 "valence_orbital": [ 
			{
				"type": "occ",
				"energy": -0.32865,
				"method": "rhf"
			},
			{
				"type": "occ",
				"energy": -0.3167,
				"method": "rhf"
			},
			{
				"type": "occ",
				"energy": -0.30059,
				"method": "rhf"
			},
			{
				"type": "occ",
				"energy": -0.27021,
				"method": "rhf"
			},
			{
				"type": "occ",
				"energy": -0.2315,
				"method": "rhf"
			},
			{
				"type": "unocc",
				"energy": -0.02482,
				"method": "rhf"
			},
			{
				"type": "unocc",
				"energy": -0.01446,
				"method": "rhf"
			},
			{
				"type": "unocc",
				"energy": 0.04424,
				"method": "rhf"
			},
			{
				"type": "unocc",
				"energy": 0.06561,
				"method": "rhf"
			},
			{
				"type": "unocc",
				"energy": 0.07402,
				"method": "rhf"
			}
		],
		"cosmo_sigma_profile": { 
			"-0.025": 0.0,
			"-0.024": 0.0,
			"-0.023": 0.0,
			"-0.022": 0.0,
			"-0.021": 0.0,
			"-0.02": 0.0,
			"-0.019": 0.0,
			"-0.018": 0.0,
			"-0.017": 0.0,
			"-0.016": 0.0,
			"-0.015": 0.0,
			"-0.014": 0.543421509801,
			"-0.013": 0.409773238757,
			"-0.012": 0.520587567921,
			"-0.011": 0.857614936853,
			"-0.01": 2.16690210631,
			"-0.009": 5.65936144707,
			"-0.008": 6.73870273663,
			"-0.007": 7.68465068147,
			"-0.006": 8.55186865001,
			"-0.005": 7.63044363651,
			"-0.004": 8.09368515344,
			"-0.003": 12.6913005989,
			"-0.002": 14.7510954218,
			"-0.001": 17.6558384228,
			"0.0": 26.3102333538,
			"0.001": 27.5108545025,
			"0.002": 39.1089913769,
			"0.003": 30.2128275745,
			"0.004": 14.7973075157,
			"0.005": 3.00852646682,
			"0.006": 1.14232654532,
			"0.007": 1.2112210023,
			"0.008": 1.12269316213,
			"0.009": 1.5055925111,
			"0.01": 1.88058194115,
			"0.011": 3.427016608,
			"0.012": 3.67998911091,
			"0.013": 0.18864916655,
			"0.014": 0.0,
			"0.015": 0.0,
			"0.016": 0.0,
			"0.017": 0.0,
			"0.018": 0.0,
			"0.019": 0.0,
			"0.02": 0.0,
			"0.021": 0.0,
			"0.022": 0.0,
			"0.023": 0.0,
			"0.024": 0.0,
			"0.025": 0.0
		}
	}
}
