{
	 "smiles": "CC(C)(C)C1=CC=C(C=C1)C1=NNN=N1", 
	 "Tm": 467.15, 
	 "num_atms": 29, 
	 "gaussian": { 
		 "optdone": 1, 
		 "sigma_profile": "yes", 
		 "theory": "DFT", 
		 "functional": "B3LYP", 
		 "basiset": "6-31G**", 
		 "properties": { 
			 "R2extent": 4752.855, 
			 "electric_dipole_moment_norm": 2.09436906967, 
			 "electric_quadrupole_moment_norm": 18.4695025832, 
			 "total_energy": -646.58283623, 
			 "HOMO_LUMO_gap": 0.19435, 
			 "cosmo_polarized_energy": -11.99, 
			 "cosmo_cavitation_energy": 31.77, 
			 "cosmo_dispersion_energy": -23.05, 
			 "cosmo_repulsion_energy": 1.78, 
			 "cosmo_total_nonelectrostatic_energy": 10.5, 
			 "SMD_solvation_energy": 3.28 
		},
		"coords": [
			{
				"x": 1.5749822887,
				"y": 0.48334242,
				"z": 2.5873478664,
				"element": "C" 
			},
			{
				"x": 1.2647330153,
				"y": -0.855505583,
				"z": 1.875735105,
				"element": "C" 
			},
			{
				"x": 0.604402354,
				"y": -1.8009470418,
				"z": 2.8971742168,
				"element": "C" 
			},
			{
				"x": 2.5884197521,
				"y": -1.5035722621,
				"z": 1.4034362493,
				"element": "C" 
			},
			{
				"x": 0.3638320759,
				"y": -0.5885667197,
				"z": 0.6569331879,
				"element": "C" 
			},
			{
				"x": -0.9125178525,
				"y": -1.1528142657,
				"z": 0.513624726,
				"element": "C" 
			},
			{
				"x": -1.7053878683,
				"y": -0.8913984284,
				"z": -0.602677053,
				"element": "C" 
			},
			{
				"x": -1.2427919427,
				"y": -0.0496446738,
				"z": -1.6205818368,
				"element": "C" 
			},
			{
				"x": 0.0313365701,
				"y": 0.5234922719,
				"z": -1.4941740881,
				"element": "C" 
			},
			{
				"x": 0.8118967183,
				"y": 0.2546912055,
				"z": -0.375949869,
				"element": "C" 
			},
			{
				"x": -2.0653787617,
				"y": 0.2336280261,
				"z": -2.7990939174,
				"element": "C" 
			},
			{
				"x": -3.2880725893,
				"y": -0.2649564704,
				"z": -3.0067749012,
				"element": "N" 
			},
			{
				"x": -3.5902578166,
				"y": 0.279960885,
				"z": -4.1799782919,
				"element": "N" 
			},
			{
				"x": -2.6481308893,
				"y": 1.0646972567,
				"z": -4.6928803333,
				"element": "N" 
			},
			{
				"x": -1.6709523356,
				"y": 1.0458762055,
				"z": -3.8258475736,
				"element": "N" 
			},
			{
				"x": 0.6553489244,
				"y": 0.9624768116,
				"z": 2.9388935427,
				"element": "H" 
			},
			{
				"x": 2.0863559951,
				"y": 1.188204189,
				"z": 1.9252799216,
				"element": "H" 
			},
			{
				"x": 2.2220705802,
				"y": 0.3116621826,
				"z": 3.4549174203,
				"element": "H" 
			},
			{
				"x": -0.3272483552,
				"y": -1.3854233547,
				"z": 3.295117994,
				"element": "H" 
			},
			{
				"x": 0.3844970435,
				"y": -2.78173409,
				"z": 2.4627812462,
				"element": "H" 
			},
			{
				"x": 1.2814296513,
				"y": -1.9598247778,
				"z": 3.742695128,
				"element": "H" 
			},
			{
				"x": 3.1311106878,
				"y": -0.8601196953,
				"z": 0.7047558265,
				"element": "H" 
			},
			{
				"x": 2.3999437221,
				"y": -2.4579479077,
				"z": 0.9009191296,
				"element": "H" 
			},
			{
				"x": 3.2451676625,
				"y": -1.6940343051,
				"z": 2.259751388,
				"element": "H" 
			},
			{
				"x": -1.3071334194,
				"y": -1.8100603318,
				"z": 1.2796789614,
				"element": "H" 
			},
			{
				"x": -2.6893395356,
				"y": -1.3414333087,
				"z": -0.687871656,
				"element": "H" 
			},
			{
				"x": 0.3987801908,
				"y": 1.1773980626,
				"z": -2.2780281811,
				"element": "H" 
			},
			{
				"x": 1.7933957118,
				"y": 0.7145055609,
				"z": -0.3092301401,
				"element": "H" 
			},
			{
				"x": -4.4690915779,
				"y": 0.1131481384,
				"z": -4.6508540683,
				"element": "H" 
			}
		],
		 "valence_orbital": [ 
			{
				"type": "occ",
				"energy": -0.31551,
				"method": "rhf"
			},
			{
				"type": "occ",
				"energy": -0.3081,
				"method": "rhf"
			},
			{
				"type": "occ",
				"energy": -0.29035,
				"method": "rhf"
			},
			{
				"type": "occ",
				"energy": -0.25166,
				"method": "rhf"
			},
			{
				"type": "occ",
				"energy": -0.23205,
				"method": "rhf"
			},
			{
				"type": "unocc",
				"energy": -0.0377,
				"method": "rhf"
			},
			{
				"type": "unocc",
				"energy": -0.02078,
				"method": "rhf"
			},
			{
				"type": "unocc",
				"energy": -0.00052,
				"method": "rhf"
			},
			{
				"type": "unocc",
				"energy": 0.06549,
				"method": "rhf"
			},
			{
				"type": "unocc",
				"energy": 0.06843,
				"method": "rhf"
			}
		],
		"cosmo_sigma_profile": { 
			"-0.025": 0.0,
			"-0.024": 0.0,
			"-0.023": 0.0,
			"-0.022": 0.0,
			"-0.021": 0.0,
			"-0.02": 0.242113836815,
			"-0.019": 2.08423435121,
			"-0.018": 1.33558593968,
			"-0.017": 1.42634387172,
			"-0.016": 0.613884189204,
			"-0.015": 1.2076587363,
			"-0.014": 1.01775437173,
			"-0.013": 0.282918396823,
			"-0.012": 0.939004402825,
			"-0.011": 0.672799030676,
			"-0.01": 0.883439373027,
			"-0.009": 0.645785263176,
			"-0.008": 0.722338339555,
			"-0.007": 0.640459687428,
			"-0.006": 2.82662734956,
			"-0.005": 8.70958762591,
			"-0.004": 11.1920450993,
			"-0.003": 26.0324808603,
			"-0.002": 27.2542611574,
			"-0.001": 23.4816102978,
			"0.0": 24.8390412524,
			"0.001": 32.9853407628,
			"0.002": 19.2202644938,
			"0.003": 12.5556647255,
			"0.004": 12.0078266733,
			"0.005": 11.5580400462,
			"0.006": 3.74936206873,
			"0.007": 4.4013233361,
			"0.008": 4.06145173851,
			"0.009": 3.63801256448,
			"0.01": 4.48452359399,
			"0.011": 2.81564137345,
			"0.012": 1.62202902127,
			"0.013": 0.926073819416,
			"0.014": 0.0465278195824,
			"0.015": 0.0,
			"0.016": 0.0,
			"0.017": 0.0,
			"0.018": 0.0,
			"0.019": 0.0,
			"0.02": 0.0,
			"0.021": 0.0,
			"0.022": 0.0,
			"0.023": 0.0,
			"0.024": 0.0,
			"0.025": 0.0
		}
	}
}
