{
	 "smiles": "NC1=CC=C(C=C1)C(=O)N1CC(=O)NC2=C1C=CC=C2", 
	 "Tm": 560.15, 
	 "num_atms": 33, 
	 "gaussian": { 
		 "optdone": 1, 
		 "sigma_profile": "yes", 
		 "theory": "DFT", 
		 "functional": "B3LYP", 
		 "basiset": "6-31G**", 
		 "properties": { 
			 "R2extent": 5956.5077, 
			 "electric_dipole_moment_norm": 6.32045696528, 
			 "electric_quadrupole_moment_norm": 30.2761581678, 
			 "total_energy": -894.167478112, 
			 "HOMO_LUMO_gap": 0.17302, 
			 "cosmo_polarized_energy": -21.94, 
			 "cosmo_cavitation_energy": 36.83, 
			 "cosmo_dispersion_energy": -26.15, 
			 "cosmo_repulsion_energy": 2.01, 
			 "cosmo_total_nonelectrostatic_energy": 12.69, 
			 "SMD_solvation_energy": 6.98 
		},
		"coords": [
			{
				"x": 2.9130873859,
				"y": 4.1004779718,
				"z": -0.6209799442,
				"element": "N" 
			},
			{
				"x": 2.5078931633,
				"y": 2.8732077403,
				"z": -0.117703169,
				"element": "C" 
			},
			{
				"x": 1.1877123917,
				"y": 2.6802839967,
				"z": 0.3333791248,
				"element": "C" 
			},
			{
				"x": 0.7659182194,
				"y": 1.4339399367,
				"z": 0.7757594517,
				"element": "C" 
			},
			{
				"x": 1.6452536175,
				"y": 0.3393496027,
				"z": 0.796224506,
				"element": "C" 
			},
			{
				"x": 2.9696280611,
				"y": 0.5428908697,
				"z": 0.3760734198,
				"element": "C" 
			},
			{
				"x": 3.3943887547,
				"y": 1.7789362655,
				"z": -0.0875721797,
				"element": "C" 
			},
			{
				"x": 1.3002880423,
				"y": -0.992906702,
				"z": 1.3683194407,
				"element": "C" 
			},
			{
				"x": 2.1429718896,
				"y": -1.6664896461,
				"z": 1.9540349418,
				"element": "O" 
			},
			{
				"x": -0.0239433538,
				"y": -1.4466922314,
				"z": 1.2968709437,
				"element": "N" 
			},
			{
				"x": -0.4065514897,
				"y": -2.5316985612,
				"z": 2.204231664,
				"element": "C" 
			},
			{
				"x": -1.7764370963,
				"y": -2.2725327586,
				"z": 2.8219100767,
				"element": "C" 
			},
			{
				"x": -2.1055301781,
				"y": -2.6757347899,
				"z": 3.9234374394,
				"element": "O" 
			},
			{
				"x": -2.6335642664,
				"y": -1.566009469,
				"z": 2.0042028346,
				"element": "N" 
			},
			{
				"x": -2.3346745669,
				"y": -1.1982959903,
				"z": 0.6831470371,
				"element": "C" 
			},
			{
				"x": -0.9792145511,
				"y": -1.1306316787,
				"z": 0.2999503076,
				"element": "C" 
			},
			{
				"x": -0.6631920046,
				"y": -0.8181731655,
				"z": -1.0266713018,
				"element": "C" 
			},
			{
				"x": -1.6720491398,
				"y": -0.5086308799,
				"z": -1.9383366149,
				"element": "C" 
			},
			{
				"x": -3.0109931004,
				"y": -0.5429835201,
				"z": -1.5438427102,
				"element": "C" 
			},
			{
				"x": -3.342239496,
				"y": -0.9019019052,
				"z": -0.2384882621,
				"element": "C" 
			},
			{
				"x": 2.3707612981,
				"y": 4.9030713435,
				"z": -0.3356852671,
				"element": "H" 
			},
			{
				"x": 3.907479165,
				"y": 4.2763451453,
				"z": -0.6244755403,
				"element": "H" 
			},
			{
				"x": 0.4952537032,
				"y": 3.518273038,
				"z": 0.3354548737,
				"element": "H" 
			},
			{
				"x": -0.2529759617,
				"y": 1.3181566952,
				"z": 1.1289942893,
				"element": "H" 
			},
			{
				"x": 3.6634032957,
				"y": -0.2895275774,
				"z": 0.4306773738,
				"element": "H" 
			},
			{
				"x": 4.4197523802,
				"y": 1.9112536224,
				"z": -0.4237007382,
				"element": "H" 
			},
			{
				"x": -0.4343334153,
				"y": -3.5001822274,
				"z": 1.6826205381,
				"element": "H" 
			},
			{
				"x": 0.3355325881,
				"y": -2.6044108621,
				"z": 2.9962194217,
				"element": "H" 
			},
			{
				"x": -3.5803742873,
				"y": -1.466632146,
				"z": 2.3475489383,
				"element": "H" 
			},
			{
				"x": 0.3753921734,
				"y": -0.801884736,
				"z": -1.33492055,
				"element": "H" 
			},
			{
				"x": -1.4085770292,
				"y": -0.2550943954,
				"z": -2.9602190478,
				"element": "H" 
			},
			{
				"x": -3.7986379393,
				"y": -0.3081640674,
				"z": -2.2528734188,
				"element": "H" 
			},
			{
				"x": -4.381928253,
				"y": -0.957208918,
				"z": 0.0733121212,
				"element": "H" 
			}
		],
		 "valence_orbital": [ 
			{
				"type": "occ",
				"energy": -0.25633,
				"method": "rhf"
			},
			{
				"type": "occ",
				"energy": -0.25477,
				"method": "rhf"
			},
			{
				"type": "occ",
				"energy": -0.23666,
				"method": "rhf"
			},
			{
				"type": "occ",
				"energy": -0.2172,
				"method": "rhf"
			},
			{
				"type": "occ",
				"energy": -0.20853,
				"method": "rhf"
			},
			{
				"type": "unocc",
				"energy": -0.03551,
				"method": "rhf"
			},
			{
				"type": "unocc",
				"energy": -0.01642,
				"method": "rhf"
			},
			{
				"type": "unocc",
				"energy": -0.00497,
				"method": "rhf"
			},
			{
				"type": "unocc",
				"energy": -0.00176,
				"method": "rhf"
			},
			{
				"type": "unocc",
				"energy": 0.03288,
				"method": "rhf"
			}
		],
		"cosmo_sigma_profile": { 
			"-0.025": 0.0,
			"-0.024": 0.0,
			"-0.023": 0.0,
			"-0.022": 0.0,
			"-0.021": 0.0,
			"-0.02": 0.0,
			"-0.019": 0.0,
			"-0.018": 0.0,
			"-0.017": 0.0,
			"-0.016": 0.062542894276,
			"-0.015": 1.1089061431,
			"-0.014": 1.38879566286,
			"-0.013": 2.61320473663,
			"-0.012": 4.58451445854,
			"-0.011": 3.64376620449,
			"-0.01": 4.72954338593,
			"-0.009": 4.48154767579,
			"-0.008": 5.03273034703,
			"-0.007": 8.12617839354,
			"-0.006": 14.7390142398,
			"-0.005": 19.4260019522,
			"-0.004": 22.3989234963,
			"-0.003": 17.5374288,
			"-0.002": 18.919691652,
			"-0.001": 19.2741306968,
			"0.0": 13.2856908465,
			"0.001": 16.9816556667,
			"0.002": 14.3973939211,
			"0.003": 16.0576418032,
			"0.004": 18.8326815293,
			"0.005": 21.1765506766,
			"0.006": 7.26084758151,
			"0.007": 3.54575806435,
			"0.008": 2.75125423643,
			"0.009": 3.91778924775,
			"0.01": 4.26824112862,
			"0.011": 3.97809371417,
			"0.012": 7.68884246055,
			"0.013": 9.81751249257,
			"0.014": 1.72461514239,
			"0.015": 0.0,
			"0.016": 0.0,
			"0.017": 0.0,
			"0.018": 0.0,
			"0.019": 0.0,
			"0.02": 0.0,
			"0.021": 0.0,
			"0.022": 0.0,
			"0.023": 0.0,
			"0.024": 0.0,
			"0.025": 0.0
		}
	}
}
