{
	 "smiles": "NC1=CC=C(C=C1)S(=O)(=O)NC1=CC2=NN(N=C2C=C1)C1CCCC1", 
	 "Tm": 480.15, 
	 "num_atms": 44, 
	 "gaussian": { 
		 "optdone": 1, 
		 "sigma_profile": "yes", 
		 "theory": "DFT", 
		 "functional": "B3LYP", 
		 "basiset": "6-31G**", 
		 "properties": { 
			 "R2extent": 13908.4164, 
			 "electric_dipole_moment_norm": 6.55540379916, 
			 "electric_quadrupole_moment_norm": 38.5738647339, 
			 "total_energy": -1481.56703381, 
			 "HOMO_LUMO_gap": 0.16676, 
			 "cosmo_polarized_energy": -24.39, 
			 "cosmo_cavitation_energy": 48.46, 
			 "cosmo_dispersion_energy": -34.91, 
			 "cosmo_repulsion_energy": 2.62, 
			 "cosmo_total_nonelectrostatic_energy": 16.16, 
			 "SMD_solvation_energy": 4.36 
		},
		"coords": [
			{
				"x": -6.4570085585,
				"y": 1.4037000049,
				"z": -3.0253241566,
				"element": "N" 
			},
			{
				"x": -5.1786105184,
				"y": 1.8338231621,
				"z": -2.7206586306,
				"element": "C" 
			},
			{
				"x": -4.979068939,
				"y": 3.0213346441,
				"z": -1.9845993826,
				"element": "C" 
			},
			{
				"x": -3.6985560525,
				"y": 3.4804204623,
				"z": -1.7177157287,
				"element": "C" 
			},
			{
				"x": -2.5915291593,
				"y": 2.7572859553,
				"z": -2.176071007,
				"element": "C" 
			},
			{
				"x": -2.7687951733,
				"y": 1.5853894,
				"z": -2.9161719434,
				"element": "C" 
			},
			{
				"x": -4.0523742647,
				"y": 1.1259765434,
				"z": -3.1836726127,
				"element": "C" 
			},
			{
				"x": -0.947850502,
				"y": 3.3599949022,
				"z": -1.8626179351,
				"element": "S" 
			},
			{
				"x": -0.9227897628,
				"y": 4.8141388095,
				"z": -2.0584394961,
				"element": "O" 
			},
			{
				"x": -0.0096187219,
				"y": 2.4734180806,
				"z": -2.5540133448,
				"element": "O" 
			},
			{
				"x": -0.7705142231,
				"y": 3.2191148492,
				"z": -0.1625345209,
				"element": "N" 
			},
			{
				"x": -0.2163445942,
				"y": 2.0733472106,
				"z": 0.4668505549,
				"element": "C" 
			},
			{
				"x": -0.7184933877,
				"y": 0.8086865201,
				"z": 0.2220739186,
				"element": "C" 
			},
			{
				"x": -0.1175692562,
				"y": -0.2637442784,
				"z": 0.9146713413,
				"element": "C" 
			},
			{
				"x": -0.3883066219,
				"y": -1.5900120454,
				"z": 0.8726896542,
				"element": "N" 
			},
			{
				"x": 0.4767307375,
				"y": -2.0960840407,
				"z": 1.7494196373,
				"element": "N" 
			},
			{
				"x": 1.2940583493,
				"y": -1.2528470247,
				"z": 2.3668737841,
				"element": "N" 
			},
			{
				"x": 0.9354845116,
				"y": -0.0539861087,
				"z": 1.850727152,
				"element": "C" 
			},
			{
				"x": 1.4251946753,
				"y": 1.2466773927,
				"z": 2.1024336854,
				"element": "C" 
			},
			{
				"x": 0.8517578221,
				"y": 2.2810920958,
				"z": 1.3998468865,
				"element": "C" 
			},
			{
				"x": 0.5442816135,
				"y": -3.5430238858,
				"z": 1.9891238052,
				"element": "C" 
			},
			{
				"x": 1.9327591464,
				"y": -4.1364570478,
				"z": 1.6103620625,
				"element": "C" 
			},
			{
				"x": 2.6134677086,
				"y": -4.4643051315,
				"z": 2.9499590902,
				"element": "C" 
			},
			{
				"x": 1.4385378301,
				"y": -4.9035455581,
				"z": 3.8382138394,
				"element": "C" 
			},
			{
				"x": 0.3292146654,
				"y": -3.891991955,
				"z": 3.4908819396,
				"element": "C" 
			},
			{
				"x": -6.5639794252,
				"y": 0.4355373324,
				"z": -3.2891227134,
				"element": "H" 
			},
			{
				"x": -7.2080959271,
				"y": 1.752513844,
				"z": -2.4487001935,
				"element": "H" 
			},
			{
				"x": -5.8399139424,
				"y": 3.5830035996,
				"z": -1.6318756888,
				"element": "H" 
			},
			{
				"x": -3.553949367,
				"y": 4.3985446285,
				"z": -1.1584088167,
				"element": "H" 
			},
			{
				"x": -1.8998581397,
				"y": 1.0467769697,
				"z": -3.2780035702,
				"element": "H" 
			},
			{
				"x": -4.1910015496,
				"y": 0.2165772884,
				"z": -3.7620670018,
				"element": "H" 
			},
			{
				"x": -0.3916802918,
				"y": 4.1048910698,
				"z": 0.1586917473,
				"element": "H" 
			},
			{
				"x": -1.5401501718,
				"y": 0.6405307971,
				"z": -0.4627054169,
				"element": "H" 
			},
			{
				"x": 2.228834711,
				"y": 1.4183205885,
				"z": 2.8102611502,
				"element": "H" 
			},
			{
				"x": 1.214695927,
				"y": 3.2950653269,
				"z": 1.5469373074,
				"element": "H" 
			},
			{
				"x": -0.2468134696,
				"y": -3.9431134142,
				"z": 1.3551636747,
				"element": "H" 
			},
			{
				"x": 1.7706974074,
				"y": -5.0566591337,
				"z": 1.0375351548,
				"element": "H" 
			},
			{
				"x": 2.5059920717,
				"y": -3.4530636522,
				"z": 0.979812482,
				"element": "H" 
			},
			{
				"x": 3.3936393122,
				"y": -5.2256072805,
				"z": 2.8533232396,
				"element": "H" 
			},
			{
				"x": 3.0738886144,
				"y": -3.5595508836,
				"z": 3.3622899401,
				"element": "H" 
			},
			{
				"x": 1.1269535909,
				"y": -5.921178931,
				"z": 3.5694536131,
				"element": "H" 
			},
			{
				"x": 1.6780734046,
				"y": -4.9076823535,
				"z": 4.9059001435,
				"element": "H" 
			},
			{
				"x": 0.4612447169,
				"y": -2.9803241759,
				"z": 4.0798810779,
				"element": "H" 
			},
			{
				"x": -0.6796347961,
				"y": -4.2689845769,
				"z": 3.680625278,
				"element": "H" 
			}
		],
		 "valence_orbital": [ 
			{
				"type": "occ",
				"energy": -0.28887,
				"method": "rhf"
			},
			{
				"type": "occ",
				"energy": -0.26712,
				"method": "rhf"
			},
			{
				"type": "occ",
				"energy": -0.2378,
				"method": "rhf"
			},
			{
				"type": "occ",
				"energy": -0.22395,
				"method": "rhf"
			},
			{
				"type": "occ",
				"energy": -0.21162,
				"method": "rhf"
			},
			{
				"type": "unocc",
				"energy": -0.04486,
				"method": "rhf"
			},
			{
				"type": "unocc",
				"energy": -0.02219,
				"method": "rhf"
			},
			{
				"type": "unocc",
				"energy": -0.01576,
				"method": "rhf"
			},
			{
				"type": "unocc",
				"energy": 0.02063,
				"method": "rhf"
			},
			{
				"type": "unocc",
				"energy": 0.03332,
				"method": "rhf"
			}
		],
		"cosmo_sigma_profile": { 
			"-0.025": 0.0,
			"-0.024": 0.0,
			"-0.023": 0.0,
			"-0.022": 0.0,
			"-0.021": 0.0,
			"-0.02": 0.0,
			"-0.019": 0.0,
			"-0.018": 0.0,
			"-0.017": 0.0,
			"-0.016": 0.0,
			"-0.015": 0.743264390174,
			"-0.014": 1.59689128194,
			"-0.013": 4.03712573424,
			"-0.012": 4.58802579306,
			"-0.011": 3.51881486613,
			"-0.01": 4.66977014007,
			"-0.009": 4.08001288135,
			"-0.008": 5.38920270877,
			"-0.007": 10.8367251356,
			"-0.006": 13.7510586017,
			"-0.005": 15.3817427438,
			"-0.004": 23.1043045028,
			"-0.003": 28.0356022709,
			"-0.002": 31.5196685195,
			"-0.001": 34.7218713282,
			"0.0": 31.721284941,
			"0.001": 25.2466639186,
			"0.002": 24.7052714978,
			"0.003": 29.2055540858,
			"0.004": 22.1151243861,
			"0.005": 9.20059896312,
			"0.006": 7.74429860654,
			"0.007": 6.91458375006,
			"0.008": 6.88165630304,
			"0.009": 7.27843131208,
			"0.01": 10.0479548238,
			"0.011": 12.0756825981,
			"0.012": 3.93139969836,
			"0.013": 1.01578720107,
			"0.014": 0.554121202654,
			"0.015": 0.0158816116167,
			"0.016": 0.0,
			"0.017": 0.0,
			"0.018": 0.0,
			"0.019": 0.0,
			"0.02": 0.0,
			"0.021": 0.0,
			"0.022": 0.0,
			"0.023": 0.0,
			"0.024": 0.0,
			"0.025": 0.0
		}
	}
}
