{
	 "smiles": "CN1C=NN=C1SC1=C(C=C(C=O)C=C1)[N+]([O-])=O", 
	 "Tm": 445.15, 
	 "num_atms": 26, 
	 "gaussian": { 
		 "optdone": 1, 
		 "sigma_profile": "yes", 
		 "theory": "DFT", 
		 "functional": "B3LYP", 
		 "basiset": "6-31G**", 
		 "properties": { 
			 "R2extent": 5104.3201, 
			 "electric_dipole_moment_norm": 6.08013580523, 
			 "electric_quadrupole_moment_norm": 26.4887231463, 
			 "total_energy": -1228.59175801, 
			 "HOMO_LUMO_gap": 0.13963, 
			 "cosmo_polarized_energy": -23.49, 
			 "cosmo_cavitation_energy": 33.61, 
			 "cosmo_dispersion_energy": -23.69, 
			 "cosmo_repulsion_energy": 1.75, 
			 "cosmo_total_nonelectrostatic_energy": 11.67, 
			 "SMD_solvation_energy": 7.12 
		},
		"coords": [
			{
				"x": 3.5628174557,
				"y": -0.1382470151,
				"z": -2.0789944311,
				"element": "C" 
			},
			{
				"x": 3.0180460925,
				"y": -0.8301155496,
				"z": -0.918042386,
				"element": "N" 
			},
			{
				"x": 3.6340376806,
				"y": -1.0805667934,
				"z": 0.2747237066,
				"element": "C" 
			},
			{
				"x": 2.819917145,
				"y": -1.6744511079,
				"z": 1.1171108801,
				"element": "N" 
			},
			{
				"x": 1.6193009329,
				"y": -1.8475616469,
				"z": 0.4681573709,
				"element": "N" 
			},
			{
				"x": 1.7520161844,
				"y": -1.3311740819,
				"z": -0.7360122003,
				"element": "C" 
			},
			{
				"x": 0.5186608763,
				"y": -1.3270365319,
				"z": -1.9988664445,
				"element": "S" 
			},
			{
				"x": -0.9158897188,
				"y": -0.6606703363,
				"z": -1.167991812,
				"element": "C" 
			},
			{
				"x": -0.9953392071,
				"y": 0.4703801945,
				"z": -0.3248217849,
				"element": "C" 
			},
			{
				"x": -2.1978000906,
				"y": 0.8563008203,
				"z": 0.2545240443,
				"element": "C" 
			},
			{
				"x": -3.3732177994,
				"y": 0.1558529587,
				"z": -0.0297211884,
				"element": "C" 
			},
			{
				"x": -4.658365129,
				"y": 0.5888154311,
				"z": 0.5721249024,
				"element": "C" 
			},
			{
				"x": -4.7781713631,
				"y": 1.5486097473,
				"z": 1.3063628789,
				"element": "O" 
			},
			{
				"x": -3.3193486574,
				"y": -0.9498774092,
				"z": -0.8845443908,
				"element": "C" 
			},
			{
				"x": -2.1059491545,
				"y": -1.3592134627,
				"z": -1.4265998615,
				"element": "C" 
			},
			{
				"x": 0.1564469715,
				"y": 1.3471565688,
				"z": -0.0355714687,
				"element": "N" 
			},
			{
				"x": 1.0426733601,
				"y": 1.4372319709,
				"z": -0.8855195719,
				"element": "O" 
			},
			{
				"x": 0.1358653993,
				"y": 1.9731010703,
				"z": 1.0184514572,
				"element": "O" 
			},
			{
				"x": 3.7447064029,
				"y": -0.8365614656,
				"z": -2.9006680484,
				"element": "H" 
			},
			{
				"x": 2.8649878505,
				"y": 0.6359900562,
				"z": -2.4000485908,
				"element": "H" 
			},
			{
				"x": 4.5072570601,
				"y": 0.3264581655,
				"z": -1.7926336498,
				"element": "H" 
			},
			{
				"x": 4.6636753547,
				"y": -0.8165392759,
				"z": 0.4712666165,
				"element": "H" 
			},
			{
				"x": -2.2292555504,
				"y": 1.7136657751,
				"z": 0.9162634539,
				"element": "H" 
			},
			{
				"x": -5.5333082141,
				"y": -0.0396937077,
				"z": 0.2971190764,
				"element": "H" 
			},
			{
				"x": -4.2252510893,
				"y": -1.508593138,
				"z": -1.1058608809,
				"element": "H" 
			},
			{
				"x": -2.0595127927,
				"y": -2.2503612367,
				"z": -2.0434076772,
				"element": "H" 
			}
		],
		 "valence_orbital": [ 
			{
				"type": "occ",
				"energy": -0.29313,
				"method": "rhf"
			},
			{
				"type": "occ",
				"energy": -0.28238,
				"method": "rhf"
			},
			{
				"type": "occ",
				"energy": -0.27413,
				"method": "rhf"
			},
			{
				"type": "occ",
				"energy": -0.26128,
				"method": "rhf"
			},
			{
				"type": "occ",
				"energy": -0.2438,
				"method": "rhf"
			},
			{
				"type": "unocc",
				"energy": -0.10417,
				"method": "rhf"
			},
			{
				"type": "unocc",
				"energy": -0.08539,
				"method": "rhf"
			},
			{
				"type": "unocc",
				"energy": -0.02883,
				"method": "rhf"
			},
			{
				"type": "unocc",
				"energy": -0.02206,
				"method": "rhf"
			},
			{
				"type": "unocc",
				"energy": 0.00652,
				"method": "rhf"
			}
		],
		"cosmo_sigma_profile": { 
			"-0.025": 0.0,
			"-0.024": 0.0,
			"-0.023": 0.0,
			"-0.022": 0.0,
			"-0.021": 0.0,
			"-0.02": 0.0,
			"-0.019": 0.0,
			"-0.018": 0.0,
			"-0.017": 0.0,
			"-0.016": 0.0,
			"-0.015": 0.0,
			"-0.014": 0.0,
			"-0.013": 0.0,
			"-0.012": 0.0,
			"-0.011": 2.21858141723,
			"-0.01": 4.0821093207,
			"-0.009": 7.79559471164,
			"-0.008": 12.6330779413,
			"-0.007": 13.9255976568,
			"-0.006": 15.6857422847,
			"-0.005": 16.5202273127,
			"-0.004": 20.2533616096,
			"-0.003": 14.0178850261,
			"-0.002": 22.3793321249,
			"-0.001": 20.7627855227,
			"0.0": 14.4819361266,
			"0.001": 13.262570262,
			"0.002": 10.1685094961,
			"0.003": 9.06656518531,
			"0.004": 7.97789844312,
			"0.005": 7.94082688982,
			"0.006": 10.3328041169,
			"0.007": 9.19011344902,
			"0.008": 7.59921402444,
			"0.009": 6.26049353014,
			"0.01": 6.64498219854,
			"0.011": 5.30344891699,
			"0.012": 3.46646203105,
			"0.013": 4.02476729436,
			"0.014": 2.2654657447,
			"0.015": 2.75011275943,
			"0.016": 1.56414774521,
			"0.017": 0.118534095879,
			"0.018": 0.0,
			"0.019": 0.0,
			"0.02": 0.0,
			"0.021": 0.0,
			"0.022": 0.0,
			"0.023": 0.0,
			"0.024": 0.0,
			"0.025": 0.0
		}
	}
}
