{
	 "smiles": "CC(C)(C)OC(=O)NC1(CC1C1=CC=CC=C1)C(O)=O", 
	 "Tm": 454.15, 
	 "num_atms": 39, 
	 "gaussian": { 
		 "optdone": 1, 
		 "sigma_profile": "yes", 
		 "theory": "DFT", 
		 "functional": "B3LYP", 
		 "basiset": "6-31G**", 
		 "properties": { 
			 "R2extent": 7267.1584, 
			 "electric_dipole_moment_norm": 2.58142534465, 
			 "electric_quadrupole_moment_norm": 17.5949109731, 
			 "total_energy": -938.715142747, 
			 "HOMO_LUMO_gap": 0.225, 
			 "cosmo_polarized_energy": -19.26, 
			 "cosmo_cavitation_energy": 41.66, 
			 "cosmo_dispersion_energy": -27.62, 
			 "cosmo_repulsion_energy": 2.13, 
			 "cosmo_total_nonelectrostatic_energy": 16.16, 
			 "SMD_solvation_energy": 8.87 
		},
		"coords": [
			{
				"x": 0.1663116415,
				"y": 0.6538896216,
				"z": 4.689944526,
				"element": "C" 
			},
			{
				"x": 0.9917325641,
				"y": 1.1538127795,
				"z": 3.5010060023,
				"element": "C" 
			},
			{
				"x": 2.4642613191,
				"y": 0.745206448,
				"z": 3.5977684113,
				"element": "C" 
			},
			{
				"x": 0.8493044698,
				"y": 2.6673020248,
				"z": 3.3308235728,
				"element": "C" 
			},
			{
				"x": 0.4113122507,
				"y": 0.6370420737,
				"z": 2.2416645565,
				"element": "O" 
			},
			{
				"x": 0.3347902389,
				"y": -0.6800749252,
				"z": 2.0002323999,
				"element": "C" 
			},
			{
				"x": 0.7276057597,
				"y": -1.5905304559,
				"z": 2.7056862424,
				"element": "O" 
			},
			{
				"x": -0.3268493413,
				"y": -0.9104215773,
				"z": 0.7946188533,
				"element": "N" 
			},
			{
				"x": -0.5265694999,
				"y": 0.0880474045,
				"z": -0.2302521173,
				"element": "C" 
			},
			{
				"x": 0.6513754063,
				"y": 0.7262194245,
				"z": -0.9262829375,
				"element": "C" 
			},
			{
				"x": -0.115998093,
				"y": -0.3278492855,
				"z": -1.6652361961,
				"element": "C" 
			},
			{
				"x": -0.9422232048,
				"y": -0.1342800387,
				"z": -2.8965423999,
				"element": "C" 
			},
			{
				"x": -1.3919997226,
				"y": -1.2807023844,
				"z": -3.5712337377,
				"element": "C" 
			},
			{
				"x": -2.146693787,
				"y": -1.1795911279,
				"z": -4.7386841692,
				"element": "C" 
			},
			{
				"x": -2.4641951958,
				"y": 0.0774268243,
				"z": -5.2556780305,
				"element": "C" 
			},
			{
				"x": -2.0195433452,
				"y": 1.22410273,
				"z": -4.5959793392,
				"element": "C" 
			},
			{
				"x": -1.2630516167,
				"y": 1.1228794542,
				"z": -3.4282423998,
				"element": "C" 
			},
			{
				"x": -1.7531444105,
				"y": 0.9538561784,
				"z": -0.0399341895,
				"element": "C" 
			},
			{
				"x": -2.6673245828,
				"y": 0.4560624524,
				"z": 0.8158953335,
				"element": "O" 
			},
			{
				"x": -1.9262777871,
				"y": 2.0057651653,
				"z": -0.6112453826,
				"element": "O" 
			},
			{
				"x": -0.8867490977,
				"y": 0.9230669794,
				"z": 4.5616224461,
				"element": "H" 
			},
			{
				"x": 0.5272463847,
				"y": 1.1273159944,
				"z": 5.6084836438,
				"element": "H" 
			},
			{
				"x": 0.2476448364,
				"y": -0.428177137,
				"z": 4.7984314897,
				"element": "H" 
			},
			{
				"x": 2.9173152387,
				"y": 1.2213978667,
				"z": 4.4731073375,
				"element": "H" 
			},
			{
				"x": 3.0115609349,
				"y": 1.0792226981,
				"z": 2.7105723189,
				"element": "H" 
			},
			{
				"x": 2.5671759998,
				"y": -0.3360579101,
				"z": 3.6933706159,
				"element": "H" 
			},
			{
				"x": 1.4038188101,
				"y": 3.0122269589,
				"z": 2.453533467,
				"element": "H" 
			},
			{
				"x": 1.2425067487,
				"y": 3.1800983396,
				"z": 4.2135126701,
				"element": "H" 
			},
			{
				"x": -0.2006946294,
				"y": 2.9453465649,
				"z": 3.2050513583,
				"element": "H" 
			},
			{
				"x": -0.2725630837,
				"y": -1.8806763047,
				"z": 0.5135748785,
				"element": "H" 
			},
			{
				"x": 1.6403929972,
				"y": 0.4732354912,
				"z": -0.5590697714,
				"element": "H" 
			},
			{
				"x": 0.5073672474,
				"y": 1.7637057291,
				"z": -1.2068829538,
				"element": "H" 
			},
			{
				"x": 0.3630142663,
				"y": -1.3062744242,
				"z": -1.6472846289,
				"element": "H" 
			},
			{
				"x": -1.1416460159,
				"y": -2.2638415994,
				"z": -3.1786949373,
				"element": "H" 
			},
			{
				"x": -2.4818512123,
				"y": -2.0806077088,
				"z": -5.2445212861,
				"element": "H" 
			},
			{
				"x": -3.0507068793,
				"y": 0.1624027942,
				"z": -6.1659103697,
				"element": "H" 
			},
			{
				"x": -2.2615044986,
				"y": 2.2067367106,
				"z": -4.990496676,
				"element": "H" 
			},
			{
				"x": -0.9433536259,
				"y": 2.0238893147,
				"z": -2.9199368992,
				"element": "H" 
			},
			{
				"x": -2.3028974847,
				"y": -0.3686731439,
				"z": 1.1836082977,
				"element": "H" 
			}
		],
		 "valence_orbital": [ 
			{
				"type": "occ",
				"energy": -0.29121,
				"method": "rhf"
			},
			{
				"type": "occ",
				"energy": -0.2809,
				"method": "rhf"
			},
			{
				"type": "occ",
				"energy": -0.2595,
				"method": "rhf"
			},
			{
				"type": "occ",
				"energy": -0.24855,
				"method": "rhf"
			},
			{
				"type": "occ",
				"energy": -0.23818,
				"method": "rhf"
			},
			{
				"type": "unocc",
				"energy": -0.01318,
				"method": "rhf"
			},
			{
				"type": "unocc",
				"energy": -0.00024,
				"method": "rhf"
			},
			{
				"type": "unocc",
				"energy": 0.01299,
				"method": "rhf"
			},
			{
				"type": "unocc",
				"energy": 0.0304,
				"method": "rhf"
			},
			{
				"type": "unocc",
				"energy": 0.05925,
				"method": "rhf"
			}
		],
		"cosmo_sigma_profile": { 
			"-0.025": 0.0,
			"-0.024": 0.0,
			"-0.023": 0.0,
			"-0.022": 0.0,
			"-0.021": 0.0,
			"-0.02": 0.0,
			"-0.019": 0.0,
			"-0.018": 0.0,
			"-0.017": 0.0,
			"-0.016": 0.0,
			"-0.015": 0.524590891264,
			"-0.014": 1.48490767165,
			"-0.013": 2.66740861417,
			"-0.012": 1.79939113659,
			"-0.011": 1.92068756352,
			"-0.01": 3.43039996293,
			"-0.009": 3.1916063966,
			"-0.008": 3.56848800848,
			"-0.007": 4.54527642458,
			"-0.006": 11.7544288527,
			"-0.005": 16.9665935219,
			"-0.004": 27.8134041023,
			"-0.003": 31.823896667,
			"-0.002": 26.8175922528,
			"-0.001": 27.8942193296,
			"0.0": 32.9632501864,
			"0.001": 21.8353429399,
			"0.002": 14.8697273209,
			"0.003": 14.5539282692,
			"0.004": 14.0760894158,
			"0.005": 14.2369779599,
			"0.006": 12.31311857,
			"0.007": 3.81096323603,
			"0.008": 5.18247803144,
			"0.009": 4.79152967044,
			"0.01": 6.12890966027,
			"0.011": 5.58102363791,
			"0.012": 6.51087170196,
			"0.013": 4.61964399064,
			"0.014": 0.297173238149,
			"0.015": 0.0,
			"0.016": 0.0,
			"0.017": 0.0,
			"0.018": 0.0,
			"0.019": 0.0,
			"0.02": 0.0,
			"0.021": 0.0,
			"0.022": 0.0,
			"0.023": 0.0,
			"0.024": 0.0,
			"0.025": 0.0
		}
	}
}
