{
	 "smiles": "CC1=C(N)C=CC=C1Cl", 
	 "Tm": 274.65, 
	 "num_atms": 17, 
	 "gaussian": { 
		 "optdone": 1, 
		 "sigma_profile": "yes", 
		 "theory": "DFT", 
		 "functional": "B3LYP", 
		 "basiset": "6-31G**", 
		 "properties": { 
			 "R2extent": 1660.2391, 
			 "electric_dipole_moment_norm": 3.11893239427, 
			 "electric_quadrupole_moment_norm": 7.68788212449, 
			 "total_energy": -786.520538657, 
			 "HOMO_LUMO_gap": 0.20614, 
			 "cosmo_polarized_energy": -8.07, 
			 "cosmo_cavitation_energy": 21.63, 
			 "cosmo_dispersion_energy": -16.49, 
			 "cosmo_repulsion_energy": 1.34, 
			 "cosmo_total_nonelectrostatic_energy": 6.48, 
			 "SMD_solvation_energy": 3.43 
		},
		"coords": [
			{
				"x": -0.2767801949,
				"y": -2.3589430559,
				"z": 1.2955926153,
				"element": "C" 
			},
			{
				"x": -0.361158962,
				"y": -0.9849277066,
				"z": 0.6818462871,
				"element": "C" 
			},
			{
				"x": 0.295181935,
				"y": -0.7396424024,
				"z": -0.5507955126,
				"element": "C" 
			},
			{
				"x": 0.9751160591,
				"y": -1.7813285654,
				"z": -1.1873282954,
				"element": "N" 
			},
			{
				"x": 0.2142823177,
				"y": 0.521472025,
				"z": -1.1601261177,
				"element": "C" 
			},
			{
				"x": -0.5081694377,
				"y": 1.5481202237,
				"z": -0.5617387745,
				"element": "C" 
			},
			{
				"x": -1.153742674,
				"y": 1.342405678,
				"z": 0.655270552,
				"element": "C" 
			},
			{
				"x": -1.06525785,
				"y": 0.0833142207,
				"z": 1.2501931559,
				"element": "C" 
			},
			{
				"x": -1.8985136932,
				"y": -0.1278417203,
				"z": 2.797159768,
				"element": "Cl" 
			},
			{
				"x": -0.5619493053,
				"y": -3.1252770269,
				"z": 0.5651439938,
				"element": "H" 
			},
			{
				"x": 0.7452394882,
				"y": -2.5902088564,
				"z": 1.6288207296,
				"element": "H" 
			},
			{
				"x": -0.928335541,
				"y": -2.454755404,
				"z": 2.163008479,
				"element": "H" 
			},
			{
				"x": 1.3883344472,
				"y": -2.4736905315,
				"z": -0.5787261734,
				"element": "H" 
			},
			{
				"x": 1.618493066,
				"y": -1.4844060307,
				"z": -1.9080359228,
				"element": "H" 
			},
			{
				"x": 0.7208111338,
				"y": 0.6881106381,
				"z": -2.1074348754,
				"element": "H" 
			},
			{
				"x": -0.5637397281,
				"y": 2.5202868568,
				"z": -1.0426316763,
				"element": "H" 
			},
			{
				"x": -1.7146110606,
				"y": 2.1330116578,
				"z": 1.1387817674,
				"element": "H" 
			}
		],
		 "valence_orbital": [ 
			{
				"type": "occ",
				"energy": -0.34353,
				"method": "rhf"
			},
			{
				"type": "occ",
				"energy": -0.30252,
				"method": "rhf"
			},
			{
				"type": "occ",
				"energy": -0.29829,
				"method": "rhf"
			},
			{
				"type": "occ",
				"energy": -0.23658,
				"method": "rhf"
			},
			{
				"type": "occ",
				"energy": -0.20728,
				"method": "rhf"
			},
			{
				"type": "unocc",
				"energy": -0.00114,
				"method": "rhf"
			},
			{
				"type": "unocc",
				"energy": 0.01099,
				"method": "rhf"
			},
			{
				"type": "unocc",
				"energy": 0.03818,
				"method": "rhf"
			},
			{
				"type": "unocc",
				"energy": 0.07425,
				"method": "rhf"
			},
			{
				"type": "unocc",
				"energy": 0.10176,
				"method": "rhf"
			}
		],
		"cosmo_sigma_profile": { 
			"-0.025": 0.0,
			"-0.024": 0.0,
			"-0.023": 0.0,
			"-0.022": 0.0,
			"-0.021": 0.0,
			"-0.02": 0.0,
			"-0.019": 0.0,
			"-0.018": 0.0,
			"-0.017": 0.0,
			"-0.016": 0.0,
			"-0.015": 0.0,
			"-0.014": 0.0,
			"-0.013": 0.316809976214,
			"-0.012": 1.98606018057,
			"-0.011": 2.49767560895,
			"-0.01": 2.9691453181,
			"-0.009": 3.70477110993,
			"-0.008": 2.8002448308,
			"-0.007": 2.97881456626,
			"-0.006": 6.6608334723,
			"-0.005": 7.82588524635,
			"-0.004": 9.70115555658,
			"-0.003": 11.0935029326,
			"-0.002": 9.27347321053,
			"-0.001": 12.235418139,
			"0.0": 13.1541835023,
			"0.001": 11.8829417888,
			"0.002": 12.0060024501,
			"0.003": 15.347870002,
			"0.004": 14.5794710079,
			"0.005": 18.1627998194,
			"0.006": 9.07985365084,
			"0.007": 1.16798842851,
			"0.008": 0.732629827786,
			"0.009": 0.651355342353,
			"0.01": 0.732680276427,
			"0.011": 0.64351153169,
			"0.012": 0.540657367764,
			"0.013": 0.566179621951,
			"0.014": 0.4168542016,
			"0.015": 0.0565191464004,
			"0.016": 0.0,
			"0.017": 0.0,
			"0.018": 0.0,
			"0.019": 0.0,
			"0.02": 0.0,
			"0.021": 0.0,
			"0.022": 0.0,
			"0.023": 0.0,
			"0.024": 0.0,
			"0.025": 0.0
		}
	}
}
