{
	 "smiles": "CC1=C(Cl)C=C(C=C1)N1N=C(C(O)=O)C2=C(C=CC=C2)C1=O", 
	 "Tm": 501.15, 
	 "num_atms": 33, 
	 "gaussian": { 
		 "optdone": 1, 
		 "sigma_profile": "yes", 
		 "theory": "DFT", 
		 "functional": "B3LYP", 
		 "basiset": "6-31G**", 
		 "properties": { 
			 "R2extent": 9388.8954, 
			 "electric_dipole_moment_norm": 1.45136399983, 
			 "electric_quadrupole_moment_norm": 33.9292905708, 
			 "total_energy": -1411.71611509, 
			 "HOMO_LUMO_gap": 0.15295, 
			 "cosmo_polarized_energy": -14.6, 
			 "cosmo_cavitation_energy": 39.59, 
			 "cosmo_dispersion_energy": -28.77, 
			 "cosmo_repulsion_energy": 2.14, 
			 "cosmo_total_nonelectrostatic_energy": 12.96, 
			 "SMD_solvation_energy": 7.69 
		},
		"coords": [
			{
				"x": 1.5292411836,
				"y": 2.8235908941,
				"z": 5.0672294821,
				"element": "C" 
			},
			{
				"x": 1.1430778883,
				"y": 1.8741122195,
				"z": 3.9641507998,
				"element": "C" 
			},
			{
				"x": 1.3733702563,
				"y": 0.4918981506,
				"z": 4.0476198984,
				"element": "C" 
			},
			{
				"x": 2.1504503922,
				"y": -0.173929137,
				"z": 5.4799696726,
				"element": "Cl" 
			},
			{
				"x": 1.0192698539,
				"y": -0.3950732365,
				"z": 3.0346925146,
				"element": "C" 
			},
			{
				"x": 0.4050898154,
				"y": 0.1065859935,
				"z": 1.8851646032,
				"element": "C" 
			},
			{
				"x": 0.1534718069,
				"y": 1.4744271396,
				"z": 1.7641871841,
				"element": "C" 
			},
			{
				"x": 0.5259341717,
				"y": 2.3341627649,
				"z": 2.7933155791,
				"element": "C" 
			},
			{
				"x": 0.0505704966,
				"y": -0.7695421531,
				"z": 0.8001520239,
				"element": "N" 
			},
			{
				"x": 0.3013887685,
				"y": -0.2732304578,
				"z": -0.4269415144,
				"element": "N" 
			},
			{
				"x": -0.0259521228,
				"y": -0.9303840606,
				"z": -1.5050025795,
				"element": "C" 
			},
			{
				"x": 0.3547158952,
				"y": -0.2007920418,
				"z": -2.7758108318,
				"element": "C" 
			},
			{
				"x": 0.9985903445,
				"y": 0.9597790796,
				"z": -2.5760245364,
				"element": "O" 
			},
			{
				"x": 0.1078458855,
				"y": -0.6094912191,
				"z": -3.888981035,
				"element": "O" 
			},
			{
				"x": -0.67915738,
				"y": -2.224266447,
				"z": -1.4709265127,
				"element": "C" 
			},
			{
				"x": -0.9463817315,
				"y": -2.7531169805,
				"z": -0.1864444729,
				"element": "C" 
			},
			{
				"x": -1.577177232,
				"y": -3.9980895867,
				"z": -0.0448850341,
				"element": "C" 
			},
			{
				"x": -1.9387328883,
				"y": -4.7182979625,
				"z": -1.1733603122,
				"element": "C" 
			},
			{
				"x": -1.6735432989,
				"y": -4.2002432856,
				"z": -2.4515630227,
				"element": "C" 
			},
			{
				"x": -1.0519746274,
				"y": -2.9695254966,
				"z": -2.6094355717,
				"element": "C" 
			},
			{
				"x": -0.5824477898,
				"y": -2.0185394195,
				"z": 1.0345447149,
				"element": "C" 
			},
			{
				"x": -0.7933883913,
				"y": -2.416931077,
				"z": 2.1703968677,
				"element": "O" 
			},
			{
				"x": 2.6065572531,
				"y": 2.7899503899,
				"z": 5.2617460866,
				"element": "H" 
			},
			{
				"x": 1.259175519,
				"y": 3.8496712176,
				"z": 4.8064871998,
				"element": "H" 
			},
			{
				"x": 1.030740236,
				"y": 2.564347539,
				"z": 6.0072712519,
				"element": "H" 
			},
			{
				"x": 1.2084717836,
				"y": -1.452694769,
				"z": 3.1474400864,
				"element": "H" 
			},
			{
				"x": -0.3310942611,
				"y": 1.8579471515,
				"z": 0.8738736033,
				"element": "H" 
			},
			{
				"x": 0.3253799515,
				"y": 3.3969842003,
				"z": 2.6931433698,
				"element": "H" 
			},
			{
				"x": 1.0895708161,
				"y": 1.0766738086,
				"z": -1.6100379361,
				"element": "H" 
			},
			{
				"x": -1.7660013529,
				"y": -4.36731056,
				"z": 0.9568956258,
				"element": "H" 
			},
			{
				"x": -2.4260388905,
				"y": -5.6829702433,
				"z": -1.0692578561,
				"element": "H" 
			},
			{
				"x": -1.9583020165,
				"y": -4.7684046947,
				"z": -3.332143212,
				"element": "H" 
			},
			{
				"x": -0.8470203351,
				"y": -2.5638977204,
				"z": -3.5907661363,
				"element": "H" 
			}
		],
		 "valence_orbital": [ 
			{
				"type": "occ",
				"energy": -0.2779,
				"method": "rhf"
			},
			{
				"type": "occ",
				"energy": -0.27561,
				"method": "rhf"
			},
			{
				"type": "occ",
				"energy": -0.27055,
				"method": "rhf"
			},
			{
				"type": "occ",
				"energy": -0.25765,
				"method": "rhf"
			},
			{
				"type": "occ",
				"energy": -0.23994,
				"method": "rhf"
			},
			{
				"type": "unocc",
				"energy": -0.08699,
				"method": "rhf"
			},
			{
				"type": "unocc",
				"energy": -0.06572,
				"method": "rhf"
			},
			{
				"type": "unocc",
				"energy": -0.02366,
				"method": "rhf"
			},
			{
				"type": "unocc",
				"energy": -0.02069,
				"method": "rhf"
			},
			{
				"type": "unocc",
				"energy": -0.01678,
				"method": "rhf"
			}
		],
		"cosmo_sigma_profile": { 
			"-0.025": 0.0,
			"-0.024": 0.0,
			"-0.023": 0.0,
			"-0.022": 0.0,
			"-0.021": 0.0,
			"-0.02": 0.0,
			"-0.019": 0.0,
			"-0.018": 0.0,
			"-0.017": 0.0,
			"-0.016": 0.0,
			"-0.015": 0.0,
			"-0.014": 0.0,
			"-0.013": 0.416209296791,
			"-0.012": 0.644150233509,
			"-0.011": 1.14238887755,
			"-0.01": 0.498459551159,
			"-0.009": 0.646272970256,
			"-0.008": 1.56704682549,
			"-0.007": 11.7439171273,
			"-0.006": 17.8644794766,
			"-0.005": 24.9562324983,
			"-0.004": 23.2009308245,
			"-0.003": 22.3305247699,
			"-0.002": 22.8269444661,
			"-0.001": 25.2380957044,
			"0.0": 28.9741969448,
			"0.001": 27.9397666957,
			"0.002": 32.296102988,
			"0.003": 19.8163033525,
			"0.004": 14.086315088,
			"0.005": 8.03785845944,
			"0.006": 3.37482602886,
			"0.007": 3.80534576526,
			"0.008": 5.77892143619,
			"0.009": 5.32587896864,
			"0.01": 7.50429037872,
			"0.011": 5.5630293871,
			"0.012": 5.15700974365,
			"0.013": 0.369725821294,
			"0.014": 0.0,
			"0.015": 0.0,
			"0.016": 0.0,
			"0.017": 0.0,
			"0.018": 0.0,
			"0.019": 0.0,
			"0.02": 0.0,
			"0.021": 0.0,
			"0.022": 0.0,
			"0.023": 0.0,
			"0.024": 0.0,
			"0.025": 0.0
		}
	}
}
