{
	 "smiles": "OC(=O)C1=CSC(=C1)S(Cl)(=O)=O", 
	 "Tm": 404.15, 
	 "num_atms": 15, 
	 "gaussian": { 
		 "optdone": 1, 
		 "sigma_profile": "yes", 
		 "theory": "DFT", 
		 "functional": "B3LYP", 
		 "basiset": "6-31G**", 
		 "properties": { 
			 "R2extent": 3853.1905, 
			 "electric_dipole_moment_norm": 0.880318141356, 
			 "electric_quadrupole_moment_norm": 24.2787473831, 
			 "total_energy": -1749.71149609, 
			 "HOMO_LUMO_gap": 0.18237, 
			 "cosmo_polarized_energy": -18.35, 
			 "cosmo_cavitation_energy": 25.87, 
			 "cosmo_dispersion_energy": -19.85, 
			 "cosmo_repulsion_energy": 1.5, 
			 "cosmo_total_nonelectrostatic_energy": 7.52, 
			 "SMD_solvation_energy": 4.29 
		},
		"coords": [
			{
				"x": 2.6830336646,
				"y": -4.1767132661,
				"z": -1.268452323,
				"element": "O" 
			},
			{
				"x": 1.3956738345,
				"y": -4.1631435109,
				"z": -0.8457558329,
				"element": "C" 
			},
			{
				"x": 0.7288853956,
				"y": -5.1688669907,
				"z": -0.8772550201,
				"element": "O" 
			},
			{
				"x": 0.8551820142,
				"y": -2.8602556699,
				"z": -0.3497282135,
				"element": "C" 
			},
			{
				"x": -0.3665238721,
				"y": -2.82271257,
				"z": 0.2899991186,
				"element": "C" 
			},
			{
				"x": -0.8156172442,
				"y": -1.2467735888,
				"z": 0.794456949,
				"element": "S" 
			},
			{
				"x": 0.6544037908,
				"y": -0.6022304661,
				"z": 0.1226055658,
				"element": "C" 
			},
			{
				"x": 1.4433134341,
				"y": -1.5650184534,
				"z": -0.4528520979,
				"element": "C" 
			},
			{
				"x": 1.0499066369,
				"y": 1.1123617382,
				"z": 0.1891680584,
				"element": "S" 
			},
			{
				"x": 0.0839301349,
				"y": 1.8588445832,
				"z": -1.5462856327,
				"element": "Cl" 
			},
			{
				"x": 2.4794456513,
				"y": 1.257491093,
				"z": -0.0462451224,
				"element": "O" 
			},
			{
				"x": 0.3620926865,
				"y": 1.7069013173,
				"z": 1.3259731741,
				"element": "O" 
			},
			{
				"x": 3.1281429708,
				"y": -3.3378517329,
				"z": -1.0870826649,
				"element": "H" 
			},
			{
				"x": -1.0015649932,
				"y": -3.6755781014,
				"z": 0.4891839316,
				"element": "H" 
			},
			{
				"x": 2.3840958952,
				"y": -1.3193543815,
				"z": -0.9326298901,
				"element": "H" 
			}
		],
		 "valence_orbital": [ 
			{
				"type": "occ",
				"energy": -0.33992,
				"method": "rhf"
			},
			{
				"type": "occ",
				"energy": -0.32976,
				"method": "rhf"
			},
			{
				"type": "occ",
				"energy": -0.31305,
				"method": "rhf"
			},
			{
				"type": "occ",
				"energy": -0.30045,
				"method": "rhf"
			},
			{
				"type": "occ",
				"energy": -0.29363,
				"method": "rhf"
			},
			{
				"type": "unocc",
				"energy": -0.11126,
				"method": "rhf"
			},
			{
				"type": "unocc",
				"energy": -0.07755,
				"method": "rhf"
			},
			{
				"type": "unocc",
				"energy": -0.04851,
				"method": "rhf"
			},
			{
				"type": "unocc",
				"energy": -0.02452,
				"method": "rhf"
			},
			{
				"type": "unocc",
				"energy": 0.01986,
				"method": "rhf"
			}
		],
		"cosmo_sigma_profile": { 
			"-0.025": 0.0,
			"-0.024": 0.0,
			"-0.023": 0.0,
			"-0.022": 0.0,
			"-0.021": 0.179348332889,
			"-0.02": 1.14010121492,
			"-0.019": 1.20058716465,
			"-0.018": 1.27770589435,
			"-0.017": 0.816899569153,
			"-0.016": 1.27027076171,
			"-0.015": 1.11648086067,
			"-0.014": 0.837547293615,
			"-0.013": 1.27820229391,
			"-0.012": 2.09741510485,
			"-0.011": 3.37531349503,
			"-0.01": 2.39765146271,
			"-0.009": 3.16343125661,
			"-0.008": 3.4151327655,
			"-0.007": 4.34006657121,
			"-0.006": 6.35183832935,
			"-0.005": 5.71358948202,
			"-0.004": 8.16007979145,
			"-0.003": 15.5255264721,
			"-0.002": 22.3288496443,
			"-0.001": 17.9351302274,
			"0.0": 12.7783011662,
			"0.001": 10.3434711952,
			"0.002": 13.429772868,
			"0.003": 15.2861349453,
			"0.004": 5.68071798677,
			"0.005": 5.42451889488,
			"0.006": 5.93390769799,
			"0.007": 10.5769763245,
			"0.008": 11.9230307239,
			"0.009": 5.32029038728,
			"0.01": 4.3951758227,
			"0.011": 5.47449752441,
			"0.012": 2.64185002355,
			"0.013": 0.429182617858,
			"0.014": 0.0,
			"0.015": 0.0,
			"0.016": 0.0,
			"0.017": 0.0,
			"0.018": 0.0,
			"0.019": 0.0,
			"0.02": 0.0,
			"0.021": 0.0,
			"0.022": 0.0,
			"0.023": 0.0,
			"0.024": 0.0,
			"0.025": 0.0
		}
	}
}
