{
	 "smiles": "CC1=C(F)C=CC(=C1)C(=O)C1=CN=CC=C1", 
	 "Tm": 360.15, 
	 "num_atms": 26, 
	 "gaussian": { 
		 "optdone": 1, 
		 "sigma_profile": "yes", 
		 "theory": "DFT", 
		 "functional": "B3LYP", 
		 "basiset": "6-31G**", 
		 "properties": { 
			 "R2extent": 4589.6808, 
			 "electric_dipole_moment_norm": 4.02652809875, 
			 "electric_quadrupole_moment_norm": 11.0726461842, 
			 "total_energy": -731.221212441, 
			 "HOMO_LUMO_gap": 0.176, 
			 "cosmo_polarized_energy": -11.13, 
			 "cosmo_cavitation_energy": 31.15, 
			 "cosmo_dispersion_energy": -22.19, 
			 "cosmo_repulsion_energy": 1.69, 
			 "cosmo_total_nonelectrostatic_energy": 10.66, 
			 "SMD_solvation_energy": 4.85 
		},
		"coords": [
			{
				"x": 0.1296222124,
				"y": 2.5936616502,
				"z": -2.1574711003,
				"element": "C" 
			},
			{
				"x": -0.9128010938,
				"y": 1.9536478425,
				"z": -1.2770746637,
				"element": "C" 
			},
			{
				"x": -2.1998717993,
				"y": 2.4927689958,
				"z": -1.2003770376,
				"element": "C" 
			},
			{
				"x": -2.4765264617,
				"y": 3.58231604,
				"z": -1.9476683202,
				"element": "F" 
			},
			{
				"x": -3.2009685009,
				"y": 1.9682436786,
				"z": -0.3898625157,
				"element": "C" 
			},
			{
				"x": -2.9144867414,
				"y": 0.8498779432,
				"z": 0.3840006432,
				"element": "C" 
			},
			{
				"x": -1.6455800614,
				"y": 0.2521725052,
				"z": 0.3244371619,
				"element": "C" 
			},
			{
				"x": -0.6603070891,
				"y": 0.8187368718,
				"z": -0.5015756303,
				"element": "C" 
			},
			{
				"x": -1.3900159384,
				"y": -0.9223665461,
				"z": 1.2159617315,
				"element": "C" 
			},
			{
				"x": -2.0639770431,
				"y": -1.0893531789,
				"z": 2.2266448818,
				"element": "O" 
			},
			{
				"x": -0.309615375,
				"y": -1.909516312,
				"z": 0.8841704265,
				"element": "C" 
			},
			{
				"x": 0.3262875473,
				"y": -2.5778776675,
				"z": 1.9448568026,
				"element": "C" 
			},
			{
				"x": 1.2678873865,
				"y": -3.509984269,
				"z": 1.7848093109,
				"element": "N" 
			},
			{
				"x": 1.599683308,
				"y": -3.8374556872,
				"z": 0.5275073339,
				"element": "C" 
			},
			{
				"x": 1.019853075,
				"y": -3.2570842997,
				"z": -0.6010290475,
				"element": "C" 
			},
			{
				"x": 0.0512659672,
				"y": -2.2718034143,
				"z": -0.4196678868,
				"element": "C" 
			},
			{
				"x": -0.1900682586,
				"y": 2.6090367089,
				"z": -3.2049318605,
				"element": "H" 
			},
			{
				"x": 1.076812903,
				"y": 2.0524767805,
				"z": -2.0966271959,
				"element": "H" 
			},
			{
				"x": 0.3106262938,
				"y": 3.6338066346,
				"z": -1.8664445493,
				"element": "H" 
			},
			{
				"x": -4.1760133398,
				"y": 2.4431201177,
				"z": -0.3748173697,
				"element": "H" 
			},
			{
				"x": -3.6601418796,
				"y": 0.4220920875,
				"z": 1.0450209015,
				"element": "H" 
			},
			{
				"x": 0.3366563831,
				"y": 0.3900793081,
				"z": -0.5243657925,
				"element": "H" 
			},
			{
				"x": 0.0473212319,
				"y": -2.3276985205,
				"z": 2.9654689523,
				"element": "H" 
			},
			{
				"x": 2.362227681,
				"y": -4.6068216213,
				"z": 0.4191047741,
				"element": "H" 
			},
			{
				"x": 1.3167685652,
				"y": -3.5748543063,
				"z": -1.5954896049,
				"element": "H" 
			},
			{
				"x": -0.4328389724,
				"y": -1.8099213419,
				"z": -1.2742803452,
				"element": "H" 
			}
		],
		 "valence_orbital": [ 
			{
				"type": "occ",
				"energy": -0.27681,
				"method": "rhf"
			},
			{
				"type": "occ",
				"energy": -0.26868,
				"method": "rhf"
			},
			{
				"type": "occ",
				"energy": -0.26654,
				"method": "rhf"
			},
			{
				"type": "occ",
				"energy": -0.25437,
				"method": "rhf"
			},
			{
				"type": "occ",
				"energy": -0.24776,
				"method": "rhf"
			},
			{
				"type": "unocc",
				"energy": -0.07176,
				"method": "rhf"
			},
			{
				"type": "unocc",
				"energy": -0.03504,
				"method": "rhf"
			},
			{
				"type": "unocc",
				"energy": -0.01986,
				"method": "rhf"
			},
			{
				"type": "unocc",
				"energy": -0.01868,
				"method": "rhf"
			},
			{
				"type": "unocc",
				"energy": 0.04508,
				"method": "rhf"
			}
		],
		"cosmo_sigma_profile": { 
			"-0.025": 0.0,
			"-0.024": 0.0,
			"-0.023": 0.0,
			"-0.022": 0.0,
			"-0.021": 0.0,
			"-0.02": 0.0,
			"-0.019": 0.0,
			"-0.018": 0.0,
			"-0.017": 0.0,
			"-0.016": 0.0,
			"-0.015": 0.0,
			"-0.014": 0.0,
			"-0.013": 0.0,
			"-0.012": 0.0,
			"-0.011": 0.0,
			"-0.01": 0.0,
			"-0.009": 0.0,
			"-0.008": 1.84340895175,
			"-0.007": 9.34501067845,
			"-0.006": 13.8360133861,
			"-0.005": 18.4763435427,
			"-0.004": 18.4906407262,
			"-0.003": 18.8701529943,
			"-0.002": 17.5446618822,
			"-0.001": 23.1647812515,
			"0.0": 26.2874831641,
			"0.001": 24.604187791,
			"0.002": 19.8942336122,
			"0.003": 14.4993903317,
			"0.004": 13.4302954793,
			"0.005": 3.02815454577,
			"0.006": 2.94263596708,
			"0.007": 3.93335679143,
			"0.008": 2.78089263982,
			"0.009": 3.03022950133,
			"0.01": 2.08656603349,
			"0.011": 4.40485039484,
			"0.012": 4.35810096033,
			"0.013": 0.996226349997,
			"0.014": 0.867438528445,
			"0.015": 0.97003166723,
			"0.016": 0.601015334352,
			"0.017": 0.0679998425378,
			"0.018": 0.0,
			"0.019": 0.0,
			"0.02": 0.0,
			"0.021": 0.0,
			"0.022": 0.0,
			"0.023": 0.0,
			"0.024": 0.0,
			"0.025": 0.0
		}
	}
}
