{
	 "smiles": "ClCC1=CC(=O)OC2=C1C=CC(Br)=C2", 
	 "Tm": 434.15, 
	 "num_atms": 20, 
	 "gaussian": { 
		 "optdone": 1, 
		 "sigma_profile": "yes", 
		 "theory": "DFT", 
		 "functional": "B3LYP", 
		 "basiset": "6-31G**", 
		 "properties": { 
			 "R2extent": 5287.1354, 
			 "electric_dipole_moment_norm": 3.84600342824, 
			 "electric_quadrupole_moment_norm": 13.0993910068, 
			 "total_energy": -3566.72915726, 
			 "HOMO_LUMO_gap": 0.15896, 
			 "cosmo_polarized_energy": -12.49, 
			 "cosmo_cavitation_energy": 28.87, 
			 "cosmo_dispersion_energy": -21.73, 
			 "cosmo_repulsion_energy": 1.7, 
			 "cosmo_total_nonelectrostatic_energy": 8.84, 
			 "SMD_solvation_energy": 4.54 
		},
		"coords": [
			{
				"x": 1.8288162287,
				"y": -3.9863630241,
				"z": 0.8862539468,
				"element": "Cl" 
			},
			{
				"x": 2.59870209,
				"y": -2.6118303663,
				"z": -0.0348334999,
				"element": "C" 
			},
			{
				"x": 2.1987976945,
				"y": -1.2684036636,
				"z": 0.5064241162,
				"element": "C" 
			},
			{
				"x": 3.1072164934,
				"y": -0.520927664,
				"z": 1.181279561,
				"element": "C" 
			},
			{
				"x": 2.8084426427,
				"y": 0.8068490245,
				"z": 1.7069475644,
				"element": "C" 
			},
			{
				"x": 3.5716877456,
				"y": 1.5164186849,
				"z": 2.3156047614,
				"element": "O" 
			},
			{
				"x": 1.5189476528,
				"y": 1.2793310937,
				"z": 1.4677637154,
				"element": "O" 
			},
			{
				"x": 0.5864298764,
				"y": 0.5505272622,
				"z": 0.7923176667,
				"element": "C" 
			},
			{
				"x": 0.8627937903,
				"y": -0.7373351352,
				"z": 0.2898765881,
				"element": "C" 
			},
			{
				"x": -0.168510538,
				"y": -1.4099700519,
				"z": -0.3937925699,
				"element": "C" 
			},
			{
				"x": -1.4142138419,
				"y": -0.82724232,
				"z": -0.5744011036,
				"element": "C" 
			},
			{
				"x": -1.6467327057,
				"y": 0.4558420729,
				"z": -0.0630536635,
				"element": "C" 
			},
			{
				"x": -3.355480482,
				"y": 1.2596799196,
				"z": -0.3095596336,
				"element": "Br" 
			},
			{
				"x": -0.6613748666,
				"y": 1.1543884824,
				"z": 0.620544443,
				"element": "C" 
			},
			{
				"x": 2.2944637301,
				"y": -2.7378779886,
				"z": -1.0749930561,
				"element": "H" 
			},
			{
				"x": 3.6748717769,
				"y": -2.7581499472,
				"z": 0.0441954832,
				"element": "H" 
			},
			{
				"x": 4.1154728145,
				"y": -0.8723981148,
				"z": 1.3686543925,
				"element": "H" 
			},
			{
				"x": 0.0025194902,
				"y": -2.4112761695,
				"z": -0.7727564503,
				"element": "H" 
			},
			{
				"x": -2.2010418125,
				"y": -1.3552130489,
				"z": -1.0991877704,
				"element": "H" 
			},
			{
				"x": -0.8320077793,
				"y": 2.1461509538,
				"z": 1.0201155086,
				"element": "H" 
			}
		],
		 "valence_orbital": [ 
			{
				"type": "occ",
				"energy": -0.30277,
				"method": "rhf"
			},
			{
				"type": "occ",
				"energy": -0.30226,
				"method": "rhf"
			},
			{
				"type": "occ",
				"energy": -0.28601,
				"method": "rhf"
			},
			{
				"type": "occ",
				"energy": -0.26904,
				"method": "rhf"
			},
			{
				"type": "occ",
				"energy": -0.2481,
				"method": "rhf"
			},
			{
				"type": "unocc",
				"energy": -0.08914,
				"method": "rhf"
			},
			{
				"type": "unocc",
				"energy": -0.03062,
				"method": "rhf"
			},
			{
				"type": "unocc",
				"energy": -0.02759,
				"method": "rhf"
			},
			{
				"type": "unocc",
				"energy": -0.00884,
				"method": "rhf"
			},
			{
				"type": "unocc",
				"energy": 0.01882,
				"method": "rhf"
			}
		],
		"cosmo_sigma_profile": { 
			"-0.025": 0.0,
			"-0.024": 0.0,
			"-0.023": 0.0,
			"-0.022": 0.0,
			"-0.021": 0.0,
			"-0.02": 0.0,
			"-0.019": 0.0,
			"-0.018": 0.0,
			"-0.017": 0.0,
			"-0.016": 0.0,
			"-0.015": 0.0,
			"-0.014": 0.0,
			"-0.013": 0.0,
			"-0.012": 0.0,
			"-0.011": 0.194117474156,
			"-0.01": 2.52748220692,
			"-0.009": 6.64559536484,
			"-0.008": 8.73378947136,
			"-0.007": 10.2351623313,
			"-0.006": 10.0862557532,
			"-0.005": 11.7723360838,
			"-0.004": 11.170073545,
			"-0.003": 11.8212037674,
			"-0.002": 14.4801784443,
			"-0.001": 17.82054592,
			"0.0": 21.8766899825,
			"0.001": 23.2594421011,
			"0.002": 17.6586229452,
			"0.003": 14.9788868556,
			"0.004": 18.6438852576,
			"0.005": 9.8689875398,
			"0.006": 5.72866055871,
			"0.007": 2.26696422639,
			"0.008": 2.17642135373,
			"0.009": 2.7948143017,
			"0.01": 2.91740447338,
			"0.011": 4.94534122219,
			"0.012": 4.80928291292,
			"0.013": 0.709893697886,
			"0.014": 0.0,
			"0.015": 0.0,
			"0.016": 0.0,
			"0.017": 0.0,
			"0.018": 0.0,
			"0.019": 0.0,
			"0.02": 0.0,
			"0.021": 0.0,
			"0.022": 0.0,
			"0.023": 0.0,
			"0.024": 0.0,
			"0.025": 0.0
		}
	}
}
