{
	 "smiles": "O=C1C2=CC=CC3=C2C(=NN3)C2=C1C=CC=C2", 
	 "Tm": 510.15, 
	 "num_atms": 25, 
	 "gaussian": { 
		 "optdone": 1, 
		 "sigma_profile": "yes", 
		 "theory": "DFT", 
		 "functional": "B3LYP", 
		 "basiset": "6-31G**", 
		 "properties": { 
			 "R2extent": 4023.683, 
			 "electric_dipole_moment_norm": 3.74015147421, 
			 "electric_quadrupole_moment_norm": 18.4179800616, 
			 "total_energy": -723.03883325, 
			 "HOMO_LUMO_gap": 0.13699, 
			 "cosmo_polarized_energy": -13.78, 
			 "cosmo_cavitation_energy": 29.15, 
			 "cosmo_dispersion_energy": -22.09, 
			 "cosmo_repulsion_energy": 1.64, 
			 "cosmo_total_nonelectrostatic_energy": 8.7, 
			 "SMD_solvation_energy": 3.74 
		},
		"coords": [
			{
				"x": 2.1505606932,
				"y": -0.1180085744,
				"z": 1.6923598921,
				"element": "O" 
			},
			{
				"x": 1.1285246942,
				"y": -0.4933462526,
				"z": 1.1265181717,
				"element": "C" 
			},
			{
				"x": -0.2125545754,
				"y": -0.3855286984,
				"z": 1.7633636373,
				"element": "C" 
			},
			{
				"x": -0.516378426,
				"y": 0.1250787567,
				"z": 3.0233998197,
				"element": "C" 
			},
			{
				"x": -1.859896632,
				"y": 0.1469003114,
				"z": 3.463388649,
				"element": "C" 
			},
			{
				"x": -2.9288652622,
				"y": -0.3237098509,
				"z": 2.6934956562,
				"element": "C" 
			},
			{
				"x": -2.617450444,
				"y": -0.837411693,
				"z": 1.4241932201,
				"element": "C" 
			},
			{
				"x": -1.2827388187,
				"y": -0.8513889132,
				"z": 1.0048363522,
				"element": "C" 
			},
			{
				"x": -1.2621464247,
				"y": -1.4127436245,
				"z": -0.289345492,
				"element": "C" 
			},
			{
				"x": -2.4922108451,
				"y": -1.7369109541,
				"z": -0.6764417234,
				"element": "N" 
			},
			{
				"x": -3.3064694277,
				"y": -1.3862946637,
				"z": 0.3644038096,
				"element": "N" 
			},
			{
				"x": 0.018570436,
				"y": -1.5478707797,
				"z": -0.9707596241,
				"element": "C" 
			},
			{
				"x": 1.1703456614,
				"y": -1.0938180545,
				"z": -0.2630381065,
				"element": "C" 
			},
			{
				"x": 2.4259696571,
				"y": -1.2021081807,
				"z": -0.8755551929,
				"element": "C" 
			},
			{
				"x": 2.5550135321,
				"y": -1.7419902232,
				"z": -2.1516181766,
				"element": "C" 
			},
			{
				"x": 1.419845109,
				"y": -2.1855822281,
				"z": -2.840140647,
				"element": "C" 
			},
			{
				"x": 0.1606137458,
				"y": -2.0894341026,
				"z": -2.2543793645,
				"element": "C" 
			},
			{
				"x": 0.2776006263,
				"y": 0.5026033707,
				"z": 3.6592735259,
				"element": "H" 
			},
			{
				"x": -2.0752537964,
				"y": 0.5491514183,
				"z": 4.449027979,
				"element": "H" 
			},
			{
				"x": -3.9442799051,
				"y": -0.285757444,
				"z": 3.0752087677,
				"element": "H" 
			},
			{
				"x": -4.2957517696,
				"y": -1.5517806645,
				"z": 0.2717110113,
				"element": "H" 
			},
			{
				"x": 3.289952984,
				"y": -0.851012226,
				"z": -0.3206135074,
				"element": "H" 
			},
			{
				"x": 3.5355098766,
				"y": -1.818785969,
				"z": -2.6121109922,
				"element": "H" 
			},
			{
				"x": 1.5186973801,
				"y": -2.6073462948,
				"z": -3.8363849067,
				"element": "H" 
			},
			{
				"x": -0.725208069,
				"y": -2.4309044651,
				"z": -2.7807927587,
				"element": "H" 
			}
		],
		 "valence_orbital": [ 
			{
				"type": "occ",
				"energy": -0.26105,
				"method": "rhf"
			},
			{
				"type": "occ",
				"energy": -0.25842,
				"method": "rhf"
			},
			{
				"type": "occ",
				"energy": -0.25268,
				"method": "rhf"
			},
			{
				"type": "occ",
				"energy": -0.24797,
				"method": "rhf"
			},
			{
				"type": "occ",
				"energy": -0.2207,
				"method": "rhf"
			},
			{
				"type": "unocc",
				"energy": -0.08371,
				"method": "rhf"
			},
			{
				"type": "unocc",
				"energy": -0.02828,
				"method": "rhf"
			},
			{
				"type": "unocc",
				"energy": -0.01499,
				"method": "rhf"
			},
			{
				"type": "unocc",
				"energy": 0.00753,
				"method": "rhf"
			},
			{
				"type": "unocc",
				"energy": 0.06491,
				"method": "rhf"
			}
		],
		"cosmo_sigma_profile": { 
			"-0.025": 0.0,
			"-0.024": 0.0,
			"-0.023": 0.0,
			"-0.022": 0.0,
			"-0.021": 0.0,
			"-0.02": 0.0,
			"-0.019": 0.0,
			"-0.018": 0.0429773853175,
			"-0.017": 1.33958498493,
			"-0.016": 1.26400804842,
			"-0.015": 1.30532589881,
			"-0.014": 1.27308500846,
			"-0.013": 1.10270237229,
			"-0.012": 0.737253062968,
			"-0.011": 1.29103410783,
			"-0.01": 1.02035048961,
			"-0.009": 1.07369803216,
			"-0.008": 3.17090908504,
			"-0.007": 6.03533978071,
			"-0.006": 12.7524339701,
			"-0.005": 14.7949947158,
			"-0.004": 12.9409830144,
			"-0.003": 10.8064145944,
			"-0.002": 12.3539744655,
			"-0.001": 13.2628317102,
			"0.0": 17.8892821586,
			"0.001": 25.459873652,
			"0.002": 29.3228057581,
			"0.003": 23.5246284122,
			"0.004": 13.3772477202,
			"0.005": 3.31151194359,
			"0.006": 4.53849543864,
			"0.007": 2.39921253616,
			"0.008": 1.79975842231,
			"0.009": 3.61075681355,
			"0.01": 2.57237632689,
			"0.011": 3.74348235144,
			"0.012": 5.5217274177,
			"0.013": 1.80430728065,
			"0.014": 0.451796685975,
			"0.015": 0.0,
			"0.016": 0.0,
			"0.017": 0.0,
			"0.018": 0.0,
			"0.019": 0.0,
			"0.02": 0.0,
			"0.021": 0.0,
			"0.022": 0.0,
			"0.023": 0.0,
			"0.024": 0.0,
			"0.025": 0.0
		}
	}
}
