{
	 "smiles": "OC(=O)C1=CC2=C(C=C1)N=CS2", 
	 "Tm": 521.15, 
	 "num_atms": 17, 
	 "gaussian": { 
		 "optdone": 1, 
		 "sigma_profile": "yes", 
		 "theory": "DFT", 
		 "functional": "B3LYP", 
		 "basiset": "6-31G**", 
		 "properties": { 
			 "R2extent": 3303.5957, 
			 "electric_dipole_moment_norm": 4.55130280359, 
			 "electric_quadrupole_moment_norm": 18.1322771995, 
			 "total_energy": -911.258921776, 
			 "HOMO_LUMO_gap": 0.18773, 
			 "cosmo_polarized_energy": -16.03, 
			 "cosmo_cavitation_energy": 23.66, 
			 "cosmo_dispersion_energy": -18.32, 
			 "cosmo_repulsion_energy": 1.38, 
			 "cosmo_total_nonelectrostatic_energy": 6.72, 
			 "SMD_solvation_energy": 3.4 
		},
		"coords": [
			{
				"x": 2.0388538608,
				"y": 3.8445163239,
				"z": 2.3919291772,
				"element": "O" 
			},
			{
				"x": 1.7699153457,
				"y": 2.5298484933,
				"z": 2.6194201984,
				"element": "C" 
			},
			{
				"x": 2.0304291456,
				"y": 2.0363836393,
				"z": 3.6908464937,
				"element": "O" 
			},
			{
				"x": 1.1524090117,
				"y": 1.7614850886,
				"z": 1.4890235735,
				"element": "C" 
			},
			{
				"x": 1.2872439454,
				"y": 2.1605782703,
				"z": 0.1553508605,
				"element": "C" 
			},
			{
				"x": 0.6971838546,
				"y": 1.3742573056,
				"z": -0.8349347138,
				"element": "C" 
			},
			{
				"x": -0.025292942,
				"y": 0.1988006679,
				"z": -0.5104889238,
				"element": "C" 
			},
			{
				"x": -0.1403916395,
				"y": -0.1954858836,
				"z": 0.8324077969,
				"element": "C" 
			},
			{
				"x": 0.4538520246,
				"y": 0.5785512469,
				"z": 1.8148266048,
				"element": "C" 
			},
			{
				"x": -0.5602002916,
				"y": -0.4854343064,
				"z": -1.5910144372,
				"element": "N" 
			},
			{
				"x": -0.2687613932,
				"y": 0.11643739,
				"z": -2.6960232359,
				"element": "C" 
			},
			{
				"x": 0.6936376174,
				"y": 1.5928859676,
				"z": -2.5728098634,
				"element": "S" 
			},
			{
				"x": 1.6058081139,
				"y": 4.1382041265,
				"z": 1.5786478334,
				"element": "H" 
			},
			{
				"x": 1.8726914748,
				"y": 3.0341699882,
				"z": -0.1168358656,
				"element": "H" 
			},
			{
				"x": -0.6869869357,
				"y": -1.1006337604,
				"z": 1.0741566688,
				"element": "H" 
			},
			{
				"x": 0.3977011332,
				"y": 0.2954279536,
				"z": 2.8598324361,
				"element": "H" 
			},
			{
				"x": -0.5797923257,
				"y": -0.2329925113,
				"z": -3.6744346035,
				"element": "H" 
			}
		],
		 "valence_orbital": [ 
			{
				"type": "occ",
				"energy": -0.32041,
				"method": "rhf"
			},
			{
				"type": "occ",
				"energy": -0.29615,
				"method": "rhf"
			},
			{
				"type": "occ",
				"energy": -0.28068,
				"method": "rhf"
			},
			{
				"type": "occ",
				"energy": -0.26219,
				"method": "rhf"
			},
			{
				"type": "occ",
				"energy": -0.25872,
				"method": "rhf"
			},
			{
				"type": "unocc",
				"energy": -0.07099,
				"method": "rhf"
			},
			{
				"type": "unocc",
				"energy": -0.03056,
				"method": "rhf"
			},
			{
				"type": "unocc",
				"energy": -0.01245,
				"method": "rhf"
			},
			{
				"type": "unocc",
				"energy": -0.00956,
				"method": "rhf"
			},
			{
				"type": "unocc",
				"energy": 0.05181,
				"method": "rhf"
			}
		],
		"cosmo_sigma_profile": { 
			"-0.025": 0.0,
			"-0.024": 0.0,
			"-0.023": 0.0,
			"-0.022": 0.0,
			"-0.021": 0.0,
			"-0.02": 0.0,
			"-0.019": 0.448678973953,
			"-0.018": 0.724912632483,
			"-0.017": 1.18320032936,
			"-0.016": 1.34122347069,
			"-0.015": 0.845096423437,
			"-0.014": 0.632352108529,
			"-0.013": 1.18192388939,
			"-0.012": 1.61147726425,
			"-0.011": 2.76756060526,
			"-0.01": 3.85545623591,
			"-0.009": 4.65165417171,
			"-0.008": 4.39382994936,
			"-0.007": 5.35318153258,
			"-0.006": 6.51469838437,
			"-0.005": 8.46928701069,
			"-0.004": 7.96795047609,
			"-0.003": 7.59522627567,
			"-0.002": 11.9560930035,
			"-0.001": 14.0237754782,
			"0.0": 15.5836225586,
			"0.001": 21.4082738529,
			"0.002": 17.3832074911,
			"0.003": 9.59053652844,
			"0.004": 4.026440282,
			"0.005": 3.23524599796,
			"0.006": 4.12628486186,
			"0.007": 3.3748934579,
			"0.008": 4.48550713274,
			"0.009": 4.41965121824,
			"0.01": 5.9445424235,
			"0.011": 6.00053026511,
			"0.012": 5.2551582949,
			"0.013": 2.36585151625,
			"0.014": 0.813299416875,
			"0.015": 0.0455080141683,
			"0.016": 0.0,
			"0.017": 0.0,
			"0.018": 0.0,
			"0.019": 0.0,
			"0.02": 0.0,
			"0.021": 0.0,
			"0.022": 0.0,
			"0.023": 0.0,
			"0.024": 0.0,
			"0.025": 0.0
		}
	}
}
