{
	 "smiles": "COC(=O)CSC1=NC(Cl)=CN=C1", 
	 "Tm": 306.15, 
	 "num_atms": 20, 
	 "gaussian": { 
		 "optdone": 1, 
		 "sigma_profile": "yes", 
		 "theory": "DFT", 
		 "functional": "B3LYP", 
		 "basiset": "6-31G**", 
		 "properties": { 
			 "R2extent": 4247.3794, 
			 "electric_dipole_moment_norm": 1.6995228448, 
			 "electric_quadrupole_moment_norm": 11.5583508936, 
			 "total_energy": -1389.2808723, 
			 "HOMO_LUMO_gap": 0.1741, 
			 "cosmo_polarized_energy": -11.13, 
			 "cosmo_cavitation_energy": 28.84, 
			 "cosmo_dispersion_energy": -20.55, 
			 "cosmo_repulsion_energy": 1.62, 
			 "cosmo_total_nonelectrostatic_energy": 9.91, 
			 "SMD_solvation_energy": 3.98 
		},
		"coords": [
			{
				"x": 1.7631258981,
				"y": 2.4911680523,
				"z": 1.515365955,
				"element": "C" 
			},
			{
				"x": 0.9007867149,
				"y": 2.0974859138,
				"z": 0.432650561,
				"element": "O" 
			},
			{
				"x": 1.2381054947,
				"y": 2.5872254821,
				"z": -0.7686460705,
				"element": "C" 
			},
			{
				"x": 2.168541835,
				"y": 3.3347575444,
				"z": -0.9698399542,
				"element": "O" 
			},
			{
				"x": 0.3056547917,
				"y": 2.1572120222,
				"z": -1.8963188943,
				"element": "C" 
			},
			{
				"x": -0.8917173854,
				"y": 0.818058513,
				"z": -1.5861668359,
				"element": "S" 
			},
			{
				"x": 0.193473907,
				"y": -0.5767547093,
				"z": -1.4463564073,
				"element": "C" 
			},
			{
				"x": 1.5131269758,
				"y": -0.4023584555,
				"z": -1.5587027348,
				"element": "N" 
			},
			{
				"x": 2.2680647919,
				"y": -1.4843365828,
				"z": -1.4497421152,
				"element": "C" 
			},
			{
				"x": 4.0030593371,
				"y": -1.2741004529,
				"z": -1.593620304,
				"element": "Cl" 
			},
			{
				"x": 1.7455582434,
				"y": -2.7592867759,
				"z": -1.2266667211,
				"element": "C" 
			},
			{
				"x": 0.4229303408,
				"y": -2.930975782,
				"z": -1.1135073947,
				"element": "N" 
			},
			{
				"x": -0.3522812295,
				"y": -1.8559476197,
				"z": -1.2213878755,
				"element": "C" 
			},
			{
				"x": 1.352794952,
				"y": 2.0133560722,
				"z": 2.4043875245,
				"element": "H" 
			},
			{
				"x": 1.7654730683,
				"y": 3.577996287,
				"z": 1.6270810872,
				"element": "H" 
			},
			{
				"x": 2.7845116972,
				"y": 2.1507692206,
				"z": 1.3299775867,
				"element": "H" 
			},
			{
				"x": 0.932666161,
				"y": 1.9040183007,
				"z": -2.7521707287,
				"element": "H" 
			},
			{
				"x": -0.3077534249,
				"y": 3.0201253712,
				"z": -2.1743060797,
				"element": "H" 
			},
			{
				"x": 2.3877003214,
				"y": -3.6297932496,
				"z": -1.1398109968,
				"element": "H" 
			},
			{
				"x": -1.4262224904,
				"y": -1.9992191519,
				"z": -1.1295196014,
				"element": "H" 
			}
		],
		 "valence_orbital": [ 
			{
				"type": "occ",
				"energy": -0.30892,
				"method": "rhf"
			},
			{
				"type": "occ",
				"energy": -0.2977,
				"method": "rhf"
			},
			{
				"type": "occ",
				"energy": -0.2802,
				"method": "rhf"
			},
			{
				"type": "occ",
				"energy": -0.27259,
				"method": "rhf"
			},
			{
				"type": "occ",
				"energy": -0.23907,
				"method": "rhf"
			},
			{
				"type": "unocc",
				"energy": -0.06497,
				"method": "rhf"
			},
			{
				"type": "unocc",
				"energy": -0.04051,
				"method": "rhf"
			},
			{
				"type": "unocc",
				"energy": 0.00179,
				"method": "rhf"
			},
			{
				"type": "unocc",
				"energy": 0.01167,
				"method": "rhf"
			},
			{
				"type": "unocc",
				"energy": 0.02919,
				"method": "rhf"
			}
		],
		"cosmo_sigma_profile": { 
			"-0.025": 0.0,
			"-0.024": 0.0,
			"-0.023": 0.0,
			"-0.022": 0.0,
			"-0.021": 0.0,
			"-0.02": 0.0,
			"-0.019": 0.0,
			"-0.018": 0.0,
			"-0.017": 0.0,
			"-0.016": 0.0,
			"-0.015": 0.0,
			"-0.014": 0.0,
			"-0.013": 0.0,
			"-0.012": 0.0,
			"-0.011": 0.0,
			"-0.01": 1.8618047092,
			"-0.009": 5.24349558101,
			"-0.008": 6.79732293703,
			"-0.007": 7.8911313405,
			"-0.006": 11.796594624,
			"-0.005": 14.340793053,
			"-0.004": 16.4416912986,
			"-0.003": 19.3875632447,
			"-0.002": 19.149568344,
			"-0.001": 16.450954303,
			"0.0": 13.4360459334,
			"0.001": 13.2235879926,
			"0.002": 15.4385983421,
			"0.003": 17.5072402686,
			"0.004": 14.0172783403,
			"0.005": 9.24910801636,
			"0.006": 7.44443494472,
			"0.007": 4.01239142139,
			"0.008": 3.50815714852,
			"0.009": 3.57789010592,
			"0.01": 3.86976814835,
			"0.011": 4.58620411163,
			"0.012": 4.68116745294,
			"0.013": 1.03017182307,
			"0.014": 0.383129938078,
			"0.015": 0.0,
			"0.016": 0.0,
			"0.017": 0.0,
			"0.018": 0.0,
			"0.019": 0.0,
			"0.02": 0.0,
			"0.021": 0.0,
			"0.022": 0.0,
			"0.023": 0.0,
			"0.024": 0.0,
			"0.025": 0.0
		}
	}
}
