{
	 "smiles": "NC1=CC=CC(=C1)C(F)(F)F", 
	 "Tm": 278.9, 
	 "num_atms": 17, 
	 "gaussian": { 
		 "optdone": 1, 
		 "sigma_profile": "yes", 
		 "theory": "DFT", 
		 "functional": "B3LYP", 
		 "basiset": "6-31G**", 
		 "properties": { 
			 "R2extent": 2015.4188, 
			 "electric_dipole_moment_norm": 3.7088386619, 
			 "electric_quadrupole_moment_norm": 7.92692610348, 
			 "total_energy": -624.644592261, 
			 "HOMO_LUMO_gap": 0.19549, 
			 "cosmo_polarized_energy": -8.26, 
			 "cosmo_cavitation_energy": 22.45, 
			 "cosmo_dispersion_energy": -16.22, 
			 "cosmo_repulsion_energy": 1.25, 
			 "cosmo_total_nonelectrostatic_energy": 7.48, 
			 "SMD_solvation_energy": 5.01 
		},
		"coords": [
			{
				"x": 1.7018762046,
				"y": 1.9276317826,
				"z": 0.7917506676,
				"element": "N" 
			},
			{
				"x": 1.2152423169,
				"y": 0.6563570085,
				"z": 0.4969388274,
				"element": "C" 
			},
			{
				"x": 2.0530812398,
				"y": -0.3233677345,
				"z": -0.065820238,
				"element": "C" 
			},
			{
				"x": 1.5463628736,
				"y": -1.5719464267,
				"z": -0.4153188989,
				"element": "C" 
			},
			{
				"x": 0.201335652,
				"y": -1.8819224596,
				"z": -0.2138265787,
				"element": "C" 
			},
			{
				"x": -0.6321494346,
				"y": -0.910272285,
				"z": 0.3461153844,
				"element": "C" 
			},
			{
				"x": -0.1391359437,
				"y": 0.3447513068,
				"z": 0.6995442237,
				"element": "C" 
			},
			{
				"x": -2.0708980814,
				"y": -1.2429067939,
				"z": 0.6359989158,
				"element": "C" 
			},
			{
				"x": -2.8624150934,
				"y": -0.1459661451,
				"z": 0.615350845,
				"element": "F" 
			},
			{
				"x": -2.5762544908,
				"y": -2.1228528376,
				"z": -0.2567961281,
				"element": "F" 
			},
			{
				"x": -2.2165744006,
				"y": -1.803750517,
				"z": 1.8608737448,
				"element": "F" 
			},
			{
				"x": 1.1730745797,
				"y": 2.4507233013,
				"z": 1.4753961995,
				"element": "H" 
			},
			{
				"x": 2.6978957366,
				"y": 1.9883363644,
				"z": 0.9491111419,
				"element": "H" 
			},
			{
				"x": 3.102612341,
				"y": -0.0952231978,
				"z": -0.2343051335,
				"element": "H" 
			},
			{
				"x": 2.2105562085,
				"y": -2.3122789306,
				"z": -0.8515792773,
				"element": "H" 
			},
			{
				"x": -0.1965294923,
				"y": -2.8511167669,
				"z": -0.4905523293,
				"element": "H" 
			},
			{
				"x": -0.8089802158,
				"y": 1.0878043312,
				"z": 1.1208186338,
				"element": "H" 
			}
		],
		 "valence_orbital": [ 
			{
				"type": "occ",
				"energy": -0.36688,
				"method": "rhf"
			},
			{
				"type": "occ",
				"energy": -0.34815,
				"method": "rhf"
			},
			{
				"type": "occ",
				"energy": -0.31928,
				"method": "rhf"
			},
			{
				"type": "occ",
				"energy": -0.26101,
				"method": "rhf"
			},
			{
				"type": "occ",
				"energy": -0.21421,
				"method": "rhf"
			},
			{
				"type": "unocc",
				"energy": -0.01872,
				"method": "rhf"
			},
			{
				"type": "unocc",
				"energy": 0.00413,
				"method": "rhf"
			},
			{
				"type": "unocc",
				"energy": 0.07239,
				"method": "rhf"
			},
			{
				"type": "unocc",
				"energy": 0.10045,
				"method": "rhf"
			},
			{
				"type": "unocc",
				"energy": 0.11726,
				"method": "rhf"
			}
		],
		"cosmo_sigma_profile": { 
			"-0.025": 0.0,
			"-0.024": 0.0,
			"-0.023": 0.0,
			"-0.022": 0.0,
			"-0.021": 0.0,
			"-0.02": 0.0,
			"-0.019": 0.0,
			"-0.018": 0.0,
			"-0.017": 0.0,
			"-0.016": 0.0,
			"-0.015": 0.0,
			"-0.014": 0.0,
			"-0.013": 1.02111879717,
			"-0.012": 3.18000239728,
			"-0.011": 2.85705389162,
			"-0.01": 2.74820073668,
			"-0.009": 3.57224646457,
			"-0.008": 3.52827584183,
			"-0.007": 3.57534907966,
			"-0.006": 6.9808577864,
			"-0.005": 7.20935220597,
			"-0.004": 9.06777377294,
			"-0.003": 7.49084749132,
			"-0.002": 7.58257889927,
			"-0.001": 7.04901154145,
			"0.0": 9.42937049562,
			"0.001": 11.514661686,
			"0.002": 19.4693253496,
			"0.003": 38.0579117737,
			"0.004": 17.0553063341,
			"0.005": 10.5160686084,
			"0.006": 2.18667535734,
			"0.007": 0.648622929889,
			"0.008": 0.432023687861,
			"0.009": 0.783654328743,
			"0.01": 1.10154564282,
			"0.011": 0.429072408978,
			"0.012": 0.769882861172,
			"0.013": 0.439513085471,
			"0.014": 0.466000047022,
			"0.015": 0.0,
			"0.016": 0.0,
			"0.017": 0.0,
			"0.018": 0.0,
			"0.019": 0.0,
			"0.02": 0.0,
			"0.021": 0.0,
			"0.022": 0.0,
			"0.023": 0.0,
			"0.024": 0.0,
			"0.025": 0.0
		}
	}
}
