{
	 "smiles": "BrC1=CC(=CC=C1)S(=O)(=O)N1CCNCC1", 
	 "Tm": 372.15, 
	 "num_atms": 29, 
	 "gaussian": { 
		 "optdone": 1, 
		 "sigma_profile": "yes", 
		 "theory": "DFT", 
		 "functional": "B3LYP", 
		 "basiset": "6-31G**", 
		 "properties": { 
			 "R2extent": 6606.0748, 
			 "electric_dipole_moment_norm": 5.10621743172, 
			 "electric_quadrupole_moment_norm": 13.4839515273, 
			 "total_energy": -3618.34945467, 
			 "HOMO_LUMO_gap": 0.18078, 
			 "cosmo_polarized_energy": -15.83, 
			 "cosmo_cavitation_energy": 34.85, 
			 "cosmo_dispersion_energy": -25.38, 
			 "cosmo_repulsion_energy": 1.95, 
			 "cosmo_total_nonelectrostatic_energy": 11.42, 
			 "SMD_solvation_energy": 0.14 
		},
		"coords": [
			{
				"x": -2.3249380156,
				"y": -0.8887441829,
				"z": -4.1737519133,
				"element": "Br" 
			},
			{
				"x": -1.9311932125,
				"y": -0.9488999969,
				"z": -2.3062909698,
				"element": "C" 
			},
			{
				"x": -1.7639588528,
				"y": 0.2449898269,
				"z": -1.6070460491,
				"element": "C" 
			},
			{
				"x": -1.4756367067,
				"y": 0.1781946552,
				"z": -0.241390578,
				"element": "C" 
			},
			{
				"x": -1.3761966162,
				"y": -1.0465177635,
				"z": 0.4242356101,
				"element": "C" 
			},
			{
				"x": -1.5528140739,
				"y": -2.2255552475,
				"z": -0.2995870651,
				"element": "C" 
			},
			{
				"x": -1.8248815248,
				"y": -2.184928182,
				"z": -1.6686988847,
				"element": "C" 
			},
			{
				"x": -1.1944922617,
				"y": 1.7114649296,
				"z": 0.6694936786,
				"element": "S" 
			},
			{
				"x": -1.892497983,
				"y": 2.7682737755,
				"z": -0.0642876223,
				"element": "O" 
			},
			{
				"x": -1.4588553471,
				"y": 1.4183255921,
				"z": 2.0798322352,
				"element": "O" 
			},
			{
				"x": 0.4349917408,
				"y": 2.0557730756,
				"z": 0.5473432004,
				"element": "N" 
			},
			{
				"x": 1.3991159303,
				"y": 1.3686867546,
				"z": 1.4322200941,
				"element": "C" 
			},
			{
				"x": 2.4414570892,
				"y": 0.6039238224,
				"z": 0.6182433824,
				"element": "C" 
			},
			{
				"x": 3.1986150659,
				"y": 1.5309521316,
				"z": -0.2399199244,
				"element": "N" 
			},
			{
				"x": 2.4552234277,
				"y": 2.7361218077,
				"z": -0.6283510637,
				"element": "C" 
			},
			{
				"x": 0.9429144577,
				"y": 2.5192622547,
				"z": -0.75996026,
				"element": "C" 
			},
			{
				"x": -1.883155933,
				"y": 1.2042671274,
				"z": -2.0952860828,
				"element": "H" 
			},
			{
				"x": -1.1958187303,
				"y": -1.0654306596,
				"z": 1.4929786867,
				"element": "H" 
			},
			{
				"x": -1.4886412229,
				"y": -3.1852664217,
				"z": 0.2040896612,
				"element": "H" 
			},
			{
				"x": -1.9644903887,
				"y": -3.0999764146,
				"z": -2.2327507886,
				"element": "H" 
			},
			{
				"x": 1.8927336966,
				"y": 2.1159340989,
				"z": 2.064904132,
				"element": "H" 
			},
			{
				"x": 0.8552408665,
				"y": 0.7000082961,
				"z": 2.100323469,
				"element": "H" 
			},
			{
				"x": 3.1282863159,
				"y": 0.0949673515,
				"z": 1.3071453797,
				"element": "H" 
			},
			{
				"x": 1.9219661252,
				"y": -0.1805301723,
				"z": 0.0438714626,
				"element": "H" 
			},
			{
				"x": 3.5216648083,
				"y": 1.0418650071,
				"z": -1.067243561,
				"element": "H" 
			},
			{
				"x": 2.628650063,
				"y": 3.5306948758,
				"z": 0.1087432689,
				"element": "H" 
			},
			{
				"x": 2.8496024171,
				"y": 3.1035856348,
				"z": -1.580208714,
				"element": "H" 
			},
			{
				"x": 0.7465565519,
				"y": 1.7790067574,
				"z": -1.5517925442,
				"element": "H" 
			},
			{
				"x": 0.4329523133,
				"y": 3.4475512659,
				"z": -1.0285582399,
				"element": "H" 
			}
		],
		 "valence_orbital": [ 
			{
				"type": "occ",
				"energy": -0.29869,
				"method": "rhf"
			},
			{
				"type": "occ",
				"energy": -0.28575,
				"method": "rhf"
			},
			{
				"type": "occ",
				"energy": -0.26345,
				"method": "rhf"
			},
			{
				"type": "occ",
				"energy": -0.25001,
				"method": "rhf"
			},
			{
				"type": "occ",
				"energy": -0.22909,
				"method": "rhf"
			},
			{
				"type": "unocc",
				"energy": -0.04831,
				"method": "rhf"
			},
			{
				"type": "unocc",
				"energy": -0.03525,
				"method": "rhf"
			},
			{
				"type": "unocc",
				"energy": -0.00867,
				"method": "rhf"
			},
			{
				"type": "unocc",
				"energy": 0.05586,
				"method": "rhf"
			},
			{
				"type": "unocc",
				"energy": 0.06904,
				"method": "rhf"
			}
		],
		"cosmo_sigma_profile": { 
			"-0.025": 0.0,
			"-0.024": 0.0,
			"-0.023": 0.0,
			"-0.022": 0.0,
			"-0.021": 0.0,
			"-0.02": 0.0,
			"-0.019": 0.0,
			"-0.018": 0.0,
			"-0.017": 0.0,
			"-0.016": 0.0,
			"-0.015": 0.0,
			"-0.014": 0.0,
			"-0.013": 0.0,
			"-0.012": 0.0,
			"-0.011": 0.268607547747,
			"-0.01": 1.47865754578,
			"-0.009": 1.41708345504,
			"-0.008": 4.05511475569,
			"-0.007": 8.93671662572,
			"-0.006": 11.8845682975,
			"-0.005": 21.6871423219,
			"-0.004": 30.3412359258,
			"-0.003": 28.0317711611,
			"-0.002": 21.8309180284,
			"-0.001": 17.8657285692,
			"0.0": 17.5581641121,
			"0.001": 23.1923897801,
			"0.002": 17.2307203797,
			"0.003": 11.8515761369,
			"0.004": 16.6736870785,
			"0.005": 5.54802989074,
			"0.006": 4.6868916655,
			"0.007": 4.25075231704,
			"0.008": 4.16003910543,
			"0.009": 3.66606764159,
			"0.01": 7.71438277494,
			"0.011": 8.15871390676,
			"0.012": 3.7904476439,
			"0.013": 0.616915065324,
			"0.014": 0.386665784642,
			"0.015": 0.63059243187,
			"0.016": 0.416679250592,
			"0.017": 0.583286555431,
			"0.018": 0.276867909066,
			"0.019": 0.0,
			"0.02": 0.0,
			"0.021": 0.0,
			"0.022": 0.0,
			"0.023": 0.0,
			"0.024": 0.0,
			"0.025": 0.0
		}
	}
}
