{
	 "smiles": "OC(=O)CCNS(=O)(=O)C1=CC=C(OC(F)(F)F)C=C1", 
	 "Tm": 424.15, 
	 "num_atms": 30, 
	 "gaussian": { 
		 "optdone": 1, 
		 "sigma_profile": "yes", 
		 "theory": "DFT", 
		 "functional": "B3LYP", 
		 "basiset": "6-31G**", 
		 "properties": { 
			 "R2extent": 9872.1036, 
			 "electric_dipole_moment_norm": 1.6882472005, 
			 "electric_quadrupole_moment_norm": 29.7469705775, 
			 "total_energy": -1515.60839291, 
			 "HOMO_LUMO_gap": 0.21575, 
			 "cosmo_polarized_energy": -23.83, 
			 "cosmo_cavitation_energy": 38.38, 
			 "cosmo_dispersion_energy": -27.21, 
			 "cosmo_repulsion_energy": 2.01, 
			 "cosmo_total_nonelectrostatic_energy": 13.19, 
			 "SMD_solvation_energy": 7.93 
		},
		"coords": [
			{
				"x": -0.6225991499,
				"y": 2.957785482,
				"z": -4.2573814642,
				"element": "O" 
			},
			{
				"x": 0.1635595029,
				"y": 2.6409301357,
				"z": -3.1957857358,
				"element": "C" 
			},
			{
				"x": 0.6105900651,
				"y": 3.5114137013,
				"z": -2.4902775996,
				"element": "O" 
			},
			{
				"x": 0.4264529647,
				"y": 1.1560570267,
				"z": -2.9930726706,
				"element": "C" 
			},
			{
				"x": 1.2273451836,
				"y": 0.8965490947,
				"z": -1.7099913436,
				"element": "C" 
			},
			{
				"x": 1.58725518,
				"y": -0.5074249989,
				"z": -1.4801505645,
				"element": "N" 
			},
			{
				"x": 0.4147251063,
				"y": -1.6029693996,
				"z": -0.9624936392,
				"element": "S" 
			},
			{
				"x": -0.9267960777,
				"y": -1.1705541441,
				"z": -1.3818747841,
				"element": "O" 
			},
			{
				"x": 0.9454587187,
				"y": -2.9146661453,
				"z": -1.3444679397,
				"element": "O" 
			},
			{
				"x": 0.478698064,
				"y": -1.4354792389,
				"z": 0.8184298323,
				"element": "C" 
			},
			{
				"x": -0.6014995822,
				"y": -0.8740753063,
				"z": 1.4952983506,
				"element": "C" 
			},
			{
				"x": -0.5704894827,
				"y": -0.7583744057,
				"z": 2.8862650558,
				"element": "C" 
			},
			{
				"x": 0.5540298432,
				"y": -1.2181174563,
				"z": 3.572292619,
				"element": "C" 
			},
			{
				"x": 0.7186362273,
				"y": -1.165876041,
				"z": 4.9507136612,
				"element": "O" 
			},
			{
				"x": -0.2377265353,
				"y": -0.6367808926,
				"z": 5.7613996183,
				"element": "C" 
			},
			{
				"x": -1.4057847824,
				"y": -1.2992721306,
				"z": 5.6736389398,
				"element": "F" 
			},
			{
				"x": 0.2116887896,
				"y": -0.7263808416,
				"z": 7.0091727375,
				"element": "F" 
			},
			{
				"x": -0.485807917,
				"y": 0.6561523569,
				"z": 5.4825441639,
				"element": "F" 
			},
			{
				"x": 1.6363954845,
				"y": -1.7906040315,
				"z": 2.895526371,
				"element": "C" 
			},
			{
				"x": 1.5997166918,
				"y": -1.9022077344,
				"z": 1.5128354564,
				"element": "C" 
			},
			{
				"x": -0.9242235975,
				"y": 2.1541151444,
				"z": -4.704897427,
				"element": "H" 
			},
			{
				"x": 0.9756369362,
				"y": 0.7795873844,
				"z": -3.8680766902,
				"element": "H" 
			},
			{
				"x": -0.5216010471,
				"y": 0.6082601132,
				"z": -2.9546836882,
				"element": "H" 
			},
			{
				"x": 2.1549680595,
				"y": 1.474271553,
				"z": -1.7253993775,
				"element": "H" 
			},
			{
				"x": 0.6656342581,
				"y": 1.2514058563,
				"z": -0.8422996554,
				"element": "H" 
			},
			{
				"x": 2.1299131318,
				"y": -0.9520247183,
				"z": -2.2161720142,
				"element": "H" 
			},
			{
				"x": -1.4673263941,
				"y": -0.5382550602,
				"z": 0.9361170202,
				"element": "H" 
			},
			{
				"x": -1.411435783,
				"y": -0.3222403034,
				"z": 3.4077040328,
				"element": "H" 
			},
			{
				"x": 2.4873227971,
				"y": -2.1416411882,
				"z": 3.4685180679,
				"element": "H" 
			},
			{
				"x": 2.4275633443,
				"y": -2.352083812,
				"z": 0.9761686671,
				"element": "H" 
			}
		],
		 "valence_orbital": [ 
			{
				"type": "occ",
				"energy": -0.31246,
				"method": "rhf"
			},
			{
				"type": "occ",
				"energy": -0.29252,
				"method": "rhf"
			},
			{
				"type": "occ",
				"energy": -0.28724,
				"method": "rhf"
			},
			{
				"type": "occ",
				"energy": -0.27935,
				"method": "rhf"
			},
			{
				"type": "occ",
				"energy": -0.26377,
				"method": "rhf"
			},
			{
				"type": "unocc",
				"energy": -0.04802,
				"method": "rhf"
			},
			{
				"type": "unocc",
				"energy": -0.03665,
				"method": "rhf"
			},
			{
				"type": "unocc",
				"energy": 0.00197,
				"method": "rhf"
			},
			{
				"type": "unocc",
				"energy": 0.04567,
				"method": "rhf"
			},
			{
				"type": "unocc",
				"energy": 0.04942,
				"method": "rhf"
			}
		],
		"cosmo_sigma_profile": { 
			"-0.025": 0.0,
			"-0.024": 0.0,
			"-0.023": 0.0,
			"-0.022": 0.0,
			"-0.021": 0.0,
			"-0.02": 0.00748093771923,
			"-0.019": 0.884491462961,
			"-0.018": 1.22929211442,
			"-0.017": 1.00074451189,
			"-0.016": 1.15611696716,
			"-0.015": 1.27362127243,
			"-0.014": 2.29295686063,
			"-0.013": 1.9169853706,
			"-0.012": 2.91493483534,
			"-0.011": 2.03213369375,
			"-0.01": 2.6716315326,
			"-0.009": 3.65473067501,
			"-0.008": 8.92225348947,
			"-0.007": 13.8961256768,
			"-0.006": 13.7152963049,
			"-0.005": 12.3880900642,
			"-0.004": 12.3248885636,
			"-0.003": 11.7617907393,
			"-0.002": 18.3315677043,
			"-0.001": 20.6693423861,
			"0.0": 27.2239924263,
			"0.001": 39.9760297593,
			"0.002": 28.0932817078,
			"0.003": 7.9188792014,
			"0.004": 6.64350538174,
			"0.005": 5.94438460805,
			"0.006": 6.05651755478,
			"0.007": 5.8324454414,
			"0.008": 6.43356569411,
			"0.009": 6.17381289075,
			"0.01": 12.0940684357,
			"0.011": 13.3698044748,
			"0.012": 6.08304158318,
			"0.013": 1.31518527181,
			"0.014": 0.0135909396094,
			"0.015": 0.0,
			"0.016": 0.0,
			"0.017": 0.0,
			"0.018": 0.0,
			"0.019": 0.0,
			"0.02": 0.0,
			"0.021": 0.0,
			"0.022": 0.0,
			"0.023": 0.0,
			"0.024": 0.0,
			"0.025": 0.0
		}
	}
}
