{
	 "smiles": "CC1=C(C)C(Cl)=NC(=N1)C1=CN=CC=C1", 
	 "Tm": 346.15, 
	 "num_atms": 25, 
	 "gaussian": { 
		 "optdone": 1, 
		 "sigma_profile": "yes", 
		 "theory": "DFT", 
		 "functional": "B3LYP", 
		 "basiset": "6-31G**", 
		 "properties": { 
			 "R2extent": 4315.5897, 
			 "electric_dipole_moment_norm": 4.72342652213, 
			 "electric_quadrupole_moment_norm": 10.0721836356, 
			 "total_energy": -1049.66055581, 
			 "HOMO_LUMO_gap": 0.18224, 
			 "cosmo_polarized_energy": -9.66, 
			 "cosmo_cavitation_energy": 30.92, 
			 "cosmo_dispersion_energy": -22.77, 
			 "cosmo_repulsion_energy": 1.77, 
			 "cosmo_total_nonelectrostatic_energy": 9.92, 
			 "SMD_solvation_energy": 1.66 
		},
		"coords": [
			{
				"x": 0.8947476798,
				"y": -2.9492950529,
				"z": -1.5415606151,
				"element": "C" 
			},
			{
				"x": 0.3635880735,
				"y": -2.0267664674,
				"z": -0.4720038449,
				"element": "C" 
			},
			{
				"x": 0.1411979059,
				"y": -2.4645356534,
				"z": 0.8509254656,
				"element": "C" 
			},
			{
				"x": 0.4052409978,
				"y": -3.8682035767,
				"z": 1.3225697675,
				"element": "C" 
			},
			{
				"x": -0.3538958376,
				"y": -1.4647344789,
				"z": 1.6997036533,
				"element": "C" 
			},
			{
				"x": -0.6830479486,
				"y": -1.8573509565,
				"z": 3.3872051379,
				"element": "Cl" 
			},
			{
				"x": -0.6028218901,
				"y": -0.2230163638,
				"z": 1.3415703236,
				"element": "N" 
			},
			{
				"x": -0.3567323399,
				"y": 0.0912089158,
				"z": 0.0580512337,
				"element": "C" 
			},
			{
				"x": 0.1161183585,
				"y": -0.7667026367,
				"z": -0.8552354212,
				"element": "N" 
			},
			{
				"x": -0.628386238,
				"y": 1.4822659826,
				"z": -0.3709511048,
				"element": "C" 
			},
			{
				"x": -1.1249680475,
				"y": 2.4366682685,
				"z": 0.5328018575,
				"element": "C" 
			},
			{
				"x": -1.3889352984,
				"y": 3.7050458313,
				"z": 0.2048821709,
				"element": "N" 
			},
			{
				"x": -1.1620636888,
				"y": 4.073694637,
				"z": -1.0628342775,
				"element": "C" 
			},
			{
				"x": -0.6704044293,
				"y": 3.2087715875,
				"z": -2.0428932895,
				"element": "C" 
			},
			{
				"x": -0.39887875,
				"y": 1.890892156,
				"z": -1.6914786923,
				"element": "C" 
			},
			{
				"x": 1.878676567,
				"y": -3.3492402429,
				"z": -1.273251282,
				"element": "H" 
			},
			{
				"x": 0.228378206,
				"y": -3.8041267446,
				"z": -1.7005387918,
				"element": "H" 
			},
			{
				"x": 0.983999238,
				"y": -2.3951296975,
				"z": -2.4761580293,
				"element": "H" 
			},
			{
				"x": -0.5085263164,
				"y": -4.3283192795,
				"z": 1.7135648136,
				"element": "H" 
			},
			{
				"x": 0.7867212273,
				"y": -4.4991984479,
				"z": 0.5196620391,
				"element": "H" 
			},
			{
				"x": 1.1350919077,
				"y": -3.8761502351,
				"z": 2.1391557815,
				"element": "H" 
			},
			{
				"x": -1.3120080728,
				"y": 2.1468457812,
				"z": 1.5629674862,
				"element": "H" 
			},
			{
				"x": -1.3843069311,
				"y": 5.1113034602,
				"z": -1.3067476883,
				"element": "H" 
			},
			{
				"x": -0.5060317864,
				"y": 3.5641780445,
				"z": -3.055379117,
				"element": "H" 
			},
			{
				"x": -0.0158525869,
				"y": 1.1741951693,
				"z": -2.4094275767,
				"element": "H" 
			}
		],
		 "valence_orbital": [ 
			{
				"type": "occ",
				"energy": -0.29621,
				"method": "rhf"
			},
			{
				"type": "occ",
				"energy": -0.27711,
				"method": "rhf"
			},
			{
				"type": "occ",
				"energy": -0.26398,
				"method": "rhf"
			},
			{
				"type": "occ",
				"energy": -0.25004,
				"method": "rhf"
			},
			{
				"type": "occ",
				"energy": -0.24503,
				"method": "rhf"
			},
			{
				"type": "unocc",
				"energy": -0.06279,
				"method": "rhf"
			},
			{
				"type": "unocc",
				"energy": -0.04601,
				"method": "rhf"
			},
			{
				"type": "unocc",
				"energy": -0.01666,
				"method": "rhf"
			},
			{
				"type": "unocc",
				"energy": 0.0149,
				"method": "rhf"
			},
			{
				"type": "unocc",
				"energy": 0.02793,
				"method": "rhf"
			}
		],
		"cosmo_sigma_profile": { 
			"-0.025": 0.0,
			"-0.024": 0.0,
			"-0.023": 0.0,
			"-0.022": 0.0,
			"-0.021": 0.0,
			"-0.02": 0.0,
			"-0.019": 0.0,
			"-0.018": 0.0,
			"-0.017": 0.0,
			"-0.016": 0.0,
			"-0.015": 0.0,
			"-0.014": 0.0,
			"-0.013": 0.0,
			"-0.012": 0.0,
			"-0.011": 0.0,
			"-0.01": 0.0,
			"-0.009": 0.0,
			"-0.008": 0.109136514865,
			"-0.007": 3.19679877311,
			"-0.006": 9.75827531465,
			"-0.005": 20.4170551239,
			"-0.004": 17.2540416705,
			"-0.003": 21.1332388893,
			"-0.002": 28.879871215,
			"-0.001": 26.7461269298,
			"0.0": 19.7778150954,
			"0.001": 25.3239221303,
			"0.002": 21.4194319931,
			"0.003": 13.8336404122,
			"0.004": 11.4483157969,
			"0.005": 6.84229121381,
			"0.006": 4.68776871774,
			"0.007": 5.13204237497,
			"0.008": 4.96762529744,
			"0.009": 2.61505550582,
			"0.01": 0.676281174297,
			"0.011": 1.38999511228,
			"0.012": 0.735072406926,
			"0.013": 1.33806559457,
			"0.014": 0.690597777633,
			"0.015": 0.566257475255,
			"0.016": 1.11994615008,
			"0.017": 0.124527654267,
			"0.018": 0.0,
			"0.019": 0.0,
			"0.02": 0.0,
			"0.021": 0.0,
			"0.022": 0.0,
			"0.023": 0.0,
			"0.024": 0.0,
			"0.025": 0.0
		}
	}
}
