{
	 "smiles": "OC(=O)CNC(=O)NC1=CC=C(Br)C=C1", 
	 "Tm": 466.15, 
	 "num_atms": 24, 
	 "gaussian": { 
		 "optdone": 1, 
		 "sigma_profile": "yes", 
		 "theory": "DFT", 
		 "functional": "B3LYP", 
		 "basiset": "6-31G**", 
		 "properties": { 
			 "R2extent": 9162.5605, 
			 "electric_dipole_moment_norm": 4.95431139211, 
			 "electric_quadrupole_moment_norm": 36.9620902162, 
			 "total_energy": -3254.99309103, 
			 "HOMO_LUMO_gap": 0.20467, 
			 "cosmo_polarized_energy": -26.03, 
			 "cosmo_cavitation_energy": 31.8, 
			 "cosmo_dispersion_energy": -23.83, 
			 "cosmo_repulsion_energy": 1.88, 
			 "cosmo_total_nonelectrostatic_energy": 9.85, 
			 "SMD_solvation_energy": 6.32 
		},
		"coords": [
			{
				"x": -0.5944175349,
				"y": -0.9817329786,
				"z": 4.4309593705,
				"element": "O" 
			},
			{
				"x": 0.7523262707,
				"y": -0.966020749,
				"z": 4.4847095523,
				"element": "C" 
			},
			{
				"x": 1.3706430018,
				"y": -1.4053204296,
				"z": 5.4212708973,
				"element": "O" 
			},
			{
				"x": 1.444119674,
				"y": -0.3772035432,
				"z": 3.2506863133,
				"element": "C" 
			},
			{
				"x": 0.558355348,
				"y": 0.4564717472,
				"z": 2.4407294067,
				"element": "N" 
			},
			{
				"x": 0.5381181939,
				"y": 0.2496584329,
				"z": 1.0468826638,
				"element": "C" 
			},
			{
				"x": 1.0390565349,
				"y": -0.7345919988,
				"z": 0.5271285708,
				"element": "O" 
			},
			{
				"x": -0.1367041389,
				"y": 1.246498344,
				"z": 0.3734749591,
				"element": "N" 
			},
			{
				"x": -0.3690327417,
				"y": 1.3541385671,
				"z": -1.0155056629,
				"element": "C" 
			},
			{
				"x": 0.1212669625,
				"y": 0.437490294,
				"z": -1.957316834,
				"element": "C" 
			},
			{
				"x": -0.1495583541,
				"y": 0.6278626391,
				"z": -3.3119408954,
				"element": "C" 
			},
			{
				"x": -0.9035860984,
				"y": 1.7207784493,
				"z": -3.7324390049,
				"element": "C" 
			},
			{
				"x": -1.2672847851,
				"y": 1.9676916547,
				"z": -5.5914487873,
				"element": "Br" 
			},
			{
				"x": -1.3966901786,
				"y": 2.6373595119,
				"z": -2.8060150443,
				"element": "C" 
			},
			{
				"x": -1.1269621179,
				"y": 2.4507698229,
				"z": -1.4537540585,
				"element": "C" 
			},
			{
				"x": -0.8523456428,
				"y": -0.5575141538,
				"z": 3.591918706,
				"element": "H" 
			},
			{
				"x": 1.7752924116,
				"y": -1.2046111171,
				"z": 2.6156975045,
				"element": "H" 
			},
			{
				"x": 2.335343969,
				"y": 0.1602178302,
				"z": 3.5874382154,
				"element": "H" 
			},
			{
				"x": 0.5043433403,
				"y": 1.4229716355,
				"z": 2.7395202576,
				"element": "H" 
			},
			{
				"x": -0.5973933138,
				"y": 1.9491840162,
				"z": 0.9339524937,
				"element": "H" 
			},
			{
				"x": 0.7009919509,
				"y": -0.4125421378,
				"z": -1.6274074254,
				"element": "H" 
			},
			{
				"x": 0.2294543714,
				"y": -0.082058673,
				"z": -4.0383320382,
				"element": "H" 
			},
			{
				"x": -1.9838946596,
				"y": 3.4874810193,
				"z": -3.1334692201,
				"element": "H" 
			},
			{
				"x": -1.5111424631,
				"y": 3.1691218167,
				"z": -0.7328399398,
				"element": "H" 
			}
		],
		 "valence_orbital": [ 
			{
				"type": "occ",
				"energy": -0.29555,
				"method": "rhf"
			},
			{
				"type": "occ",
				"energy": -0.29053,
				"method": "rhf"
			},
			{
				"type": "occ",
				"energy": -0.27368,
				"method": "rhf"
			},
			{
				"type": "occ",
				"energy": -0.26885,
				"method": "rhf"
			},
			{
				"type": "occ",
				"energy": -0.23126,
				"method": "rhf"
			},
			{
				"type": "unocc",
				"energy": -0.02659,
				"method": "rhf"
			},
			{
				"type": "unocc",
				"energy": -0.02397,
				"method": "rhf"
			},
			{
				"type": "unocc",
				"energy": 0.00232,
				"method": "rhf"
			},
			{
				"type": "unocc",
				"energy": 0.00739,
				"method": "rhf"
			},
			{
				"type": "unocc",
				"energy": 0.02512,
				"method": "rhf"
			}
		],
		"cosmo_sigma_profile": { 
			"-0.025": 0.0,
			"-0.024": 0.0,
			"-0.023": 0.0,
			"-0.022": 0.0,
			"-0.021": 0.0,
			"-0.02": 0.0,
			"-0.019": 0.171436672915,
			"-0.018": 1.23269881432,
			"-0.017": 1.48776669993,
			"-0.016": 2.14784495782,
			"-0.015": 2.76907836156,
			"-0.014": 2.39682329783,
			"-0.013": 3.42135855048,
			"-0.012": 3.30539757279,
			"-0.011": 2.90217065606,
			"-0.01": 3.87459687164,
			"-0.009": 3.7894845752,
			"-0.008": 5.72647604906,
			"-0.007": 10.5309374517,
			"-0.006": 10.9610641787,
			"-0.005": 11.2196346935,
			"-0.004": 10.5557315309,
			"-0.003": 11.1911601763,
			"-0.002": 10.9573555792,
			"-0.001": 10.3258945746,
			"0.0": 13.4366745611,
			"0.001": 14.3647907063,
			"0.002": 19.1832787973,
			"0.003": 23.6515252179,
			"0.004": 23.1262483411,
			"0.005": 12.6435373163,
			"0.006": 3.99151203114,
			"0.007": 3.98984668243,
			"0.008": 3.606327661,
			"0.009": 5.11114488501,
			"0.01": 6.69214831433,
			"0.011": 6.85288754589,
			"0.012": 8.83873161183,
			"0.013": 2.90567582868,
			"0.014": 0.090619296275,
			"0.015": 0.0,
			"0.016": 0.0,
			"0.017": 0.0,
			"0.018": 0.0,
			"0.019": 0.0,
			"0.02": 0.0,
			"0.021": 0.0,
			"0.022": 0.0,
			"0.023": 0.0,
			"0.024": 0.0,
			"0.025": 0.0
		}
	}
}
