{
	 "smiles": "CN1CCOC2=CC(Br)=CC=C12", 
	 "Tm": 321.15, 
	 "num_atms": 22, 
	 "gaussian": { 
		 "optdone": 1, 
		 "sigma_profile": "yes", 
		 "theory": "DFT", 
		 "functional": "B3LYP", 
		 "basiset": "6-31G**", 
		 "properties": { 
			 "R2extent": 4282.5249, 
			 "electric_dipole_moment_norm": 4.80192629993, 
			 "electric_quadrupole_moment_norm": 7.73735695894, 
			 "total_energy": -3050.35019589, 
			 "HOMO_LUMO_gap": 0.19144, 
			 "cosmo_polarized_energy": -7.8, 
			 "cosmo_cavitation_energy": 26.6, 
			 "cosmo_dispersion_energy": -20.59, 
			 "cosmo_repulsion_energy": 1.63, 
			 "cosmo_total_nonelectrostatic_energy": 7.64, 
			 "SMD_solvation_energy": 2.49 
		},
		"coords": [
			{
				"x": 2.3573745526,
				"y": -1.0527833785,
				"z": -1.4091081631,
				"element": "C" 
			},
			{
				"x": 1.696496195,
				"y": 0.2343950939,
				"z": -1.5138363299,
				"element": "N" 
			},
			{
				"x": 1.393371801,
				"y": 0.7081731429,
				"z": -2.8557801824,
				"element": "C" 
			},
			{
				"x": 1.0436173921,
				"y": 2.1880877277,
				"z": -2.7819183546,
				"element": "C" 
			},
			{
				"x": -0.0927180584,
				"y": 2.4006121771,
				"z": -1.9474351355,
				"element": "O" 
			},
			{
				"x": -0.0902639027,
				"y": 1.708819088,
				"z": -0.7619537447,
				"element": "C" 
			},
			{
				"x": -1.0034727679,
				"y": 2.1248494819,
				"z": 0.2024786682,
				"element": "C" 
			},
			{
				"x": -1.0791402065,
				"y": 1.4492701122,
				"z": 1.4180083707,
				"element": "C" 
			},
			{
				"x": -2.3411058743,
				"y": 2.0275240706,
				"z": 2.7353500455,
				"element": "Br" 
			},
			{
				"x": -0.2507835711,
				"y": 0.3649842777,
				"z": 1.6811655532,
				"element": "C" 
			},
			{
				"x": 0.6600356556,
				"y": -0.0494926678,
				"z": 0.7076305558,
				"element": "C" 
			},
			{
				"x": 0.7731646006,
				"y": 0.6084629901,
				"z": -0.5275970418,
				"element": "C" 
			},
			{
				"x": 2.9353415487,
				"y": -1.1149448436,
				"z": -0.4819466025,
				"element": "H" 
			},
			{
				"x": 3.0590067903,
				"y": -1.1551294723,
				"z": -2.2406999961,
				"element": "H" 
			},
			{
				"x": 1.659034585,
				"y": -1.9057456858,
				"z": -1.4370419769,
				"element": "H" 
			},
			{
				"x": 2.2772716461,
				"y": 0.5739000559,
				"z": -3.4887361212,
				"element": "H" 
			},
			{
				"x": 0.558369745,
				"y": 0.1561128311,
				"z": -3.3207797556,
				"element": "H" 
			},
			{
				"x": 1.9017827323,
				"y": 2.7535882734,
				"z": -2.3951528463,
				"element": "H" 
			},
			{
				"x": 0.7734067292,
				"y": 2.5802042054,
				"z": -3.7654368741,
				"element": "H" 
			},
			{
				"x": -1.6422691014,
				"y": 2.9712314923,
				"z": -0.0190182298,
				"element": "H" 
			},
			{
				"x": -0.3145989187,
				"y": -0.1614937631,
				"z": 2.6260450634,
				"element": "H" 
			},
			{
				"x": 1.2883784275,
				"y": -0.9059252091,
				"z": 0.9208630974,
				"element": "H" 
			}
		],
		 "valence_orbital": [ 
			{
				"type": "occ",
				"energy": -0.30655,
				"method": "rhf"
			},
			{
				"type": "occ",
				"energy": -0.27526,
				"method": "rhf"
			},
			{
				"type": "occ",
				"energy": -0.26488,
				"method": "rhf"
			},
			{
				"type": "occ",
				"energy": -0.23168,
				"method": "rhf"
			},
			{
				"type": "occ",
				"energy": -0.19026,
				"method": "rhf"
			},
			{
				"type": "unocc",
				"energy": 0.00118,
				"method": "rhf"
			},
			{
				"type": "unocc",
				"energy": 0.01026,
				"method": "rhf"
			},
			{
				"type": "unocc",
				"energy": 0.01847,
				"method": "rhf"
			},
			{
				"type": "unocc",
				"energy": 0.0819,
				"method": "rhf"
			},
			{
				"type": "unocc",
				"energy": 0.09817,
				"method": "rhf"
			}
		],
		"cosmo_sigma_profile": { 
			"-0.025": 0.0,
			"-0.024": 0.0,
			"-0.023": 0.0,
			"-0.022": 0.0,
			"-0.021": 0.0,
			"-0.02": 0.0,
			"-0.019": 0.0,
			"-0.018": 0.0,
			"-0.017": 0.0,
			"-0.016": 0.0,
			"-0.015": 0.0,
			"-0.014": 0.0,
			"-0.013": 0.0,
			"-0.012": 0.0,
			"-0.011": 0.0,
			"-0.01": 0.0,
			"-0.009": 0.0,
			"-0.008": 0.0,
			"-0.007": 2.11574576718,
			"-0.006": 13.4125882837,
			"-0.005": 18.0648178249,
			"-0.004": 19.4649743688,
			"-0.003": 22.011926358,
			"-0.002": 19.3987879506,
			"-0.001": 14.5398156524,
			"0.0": 9.82126497479,
			"0.001": 9.45038277188,
			"0.002": 11.9727112912,
			"0.003": 16.7713740416,
			"0.004": 22.530382854,
			"0.005": 21.7951683269,
			"0.006": 5.65488347801,
			"0.007": 1.70100900254,
			"0.008": 1.77444280089,
			"0.009": 1.83359773291,
			"0.01": 1.54497230379,
			"0.011": 0.437364611061,
			"0.012": 0.0,
			"0.013": 0.0,
			"0.014": 0.0,
			"0.015": 0.0,
			"0.016": 0.0,
			"0.017": 0.0,
			"0.018": 0.0,
			"0.019": 0.0,
			"0.02": 0.0,
			"0.021": 0.0,
			"0.022": 0.0,
			"0.023": 0.0,
			"0.024": 0.0,
			"0.025": 0.0
		}
	}
}
