{
	 "smiles": "CC1=C(C)C(=CC=C1)N1CC(CC1=O)C(O)=O", 
	 "Tm": 485.15, 
	 "num_atms": 32, 
	 "gaussian": { 
		 "optdone": 1, 
		 "sigma_profile": "yes", 
		 "theory": "DFT", 
		 "functional": "B3LYP", 
		 "basiset": "6-31G**", 
		 "properties": { 
			 "R2extent": 5604.0032, 
			 "electric_dipole_moment_norm": 1.79564990742, 
			 "electric_quadrupole_moment_norm": 25.2946989235, 
			 "total_energy": -784.879443187, 
			 "HOMO_LUMO_gap": 0.22364, 
			 "cosmo_polarized_energy": -21.92, 
			 "cosmo_cavitation_energy": 34.71, 
			 "cosmo_dispersion_energy": -24.37, 
			 "cosmo_repulsion_energy": 1.88, 
			 "cosmo_total_nonelectrostatic_energy": 12.22, 
			 "SMD_solvation_energy": 7.47 
		},
		"coords": [
			{
				"x": -1.6072103343,
				"y": 3.1197630023,
				"z": 3.9935482491,
				"element": "C" 
			},
			{
				"x": -1.5642940507,
				"y": 2.8388753647,
				"z": 2.5081147444,
				"element": "C" 
			},
			{
				"x": -1.3040880388,
				"y": 1.5377440183,
				"z": 2.02114665,
				"element": "C" 
			},
			{
				"x": -1.0845526787,
				"y": 0.3845612393,
				"z": 2.9688876848,
				"element": "C" 
			},
			{
				"x": -1.2425768447,
				"y": 1.3472623791,
				"z": 0.6277196236,
				"element": "C" 
			},
			{
				"x": -1.469474514,
				"y": 2.4043681931,
				"z": -0.2608535644,
				"element": "C" 
			},
			{
				"x": -1.7530865231,
				"y": 3.6736186434,
				"z": 0.2280764045,
				"element": "C" 
			},
			{
				"x": -1.7903237563,
				"y": 3.8836287973,
				"z": 1.6059413621,
				"element": "C" 
			},
			{
				"x": -0.9570064001,
				"y": 0.0589754743,
				"z": 0.0738208673,
				"element": "N" 
			},
			{
				"x": -1.9340504861,
				"y": -0.674568329,
				"z": -0.7373625076,
				"element": "C" 
			},
			{
				"x": -1.0926445487,
				"y": -1.7787727505,
				"z": -1.4062880023,
				"element": "C" 
			},
			{
				"x": 0.0965128957,
				"y": -1.9745848675,
				"z": -0.4388146345,
				"element": "C" 
			},
			{
				"x": 0.2202607154,
				"y": -0.62484991,
				"z": 0.2790871602,
				"element": "C" 
			},
			{
				"x": 1.1781331218,
				"y": -0.2452770538,
				"z": 0.928717108,
				"element": "O" 
			},
			{
				"x": -1.8907534396,
				"y": -3.0433864695,
				"z": -1.693399167,
				"element": "C" 
			},
			{
				"x": -1.1866353364,
				"y": -4.0493158087,
				"z": -2.2759320727,
				"element": "O" 
			},
			{
				"x": -3.0601543351,
				"y": -3.1905668794,
				"z": -1.4400470606,
				"element": "O" 
			},
			{
				"x": -2.4256230702,
				"y": 2.5829815168,
				"z": 4.4885504776,
				"element": "H" 
			},
			{
				"x": -0.6796158196,
				"y": 2.8160198963,
				"z": 4.4912026635,
				"element": "H" 
			},
			{
				"x": -1.7531219153,
				"y": 4.1865051757,
				"z": 4.1820047515,
				"element": "H" 
			},
			{
				"x": -1.4342390915,
				"y": -0.5551694342,
				"z": 2.5331664886,
				"element": "H" 
			},
			{
				"x": -1.6124837812,
				"y": 0.5317339316,
				"z": 3.9131860695,
				"element": "H" 
			},
			{
				"x": -0.0179861774,
				"y": 0.2564052889,
				"z": 3.1845073978,
				"element": "H" 
			},
			{
				"x": -1.4023687947,
				"y": 2.2251296947,
				"z": -1.3298636138,
				"element": "H" 
			},
			{
				"x": -1.9271240945,
				"y": 4.497542603,
				"z": -0.4574415147,
				"element": "H" 
			},
			{
				"x": -1.9967560018,
				"y": 4.8782116383,
				"z": 1.9925311544,
				"element": "H" 
			},
			{
				"x": -2.4104077663,
				"y": -0.0170664606,
				"z": -1.4690579944,
				"element": "H" 
			},
			{
				"x": -2.7256771945,
				"y": -1.1123657667,
				"z": -0.1183826886,
				"element": "H" 
			},
			{
				"x": -0.7049958474,
				"y": -1.4041235981,
				"z": -2.3632642659,
				"element": "H" 
			},
			{
				"x": -0.1111280026,
				"y": -2.7440675457,
				"z": 0.3149494293,
				"element": "H" 
			},
			{
				"x": 1.045057953,
				"y": -2.2268030302,
				"z": -0.9188854324,
				"element": "H" 
			},
			{
				"x": -0.2650858423,
				"y": -3.7848089533,
				"z": -2.4094657672,
				"element": "H" 
			}
		],
		 "valence_orbital": [ 
			{
				"type": "occ",
				"energy": -0.28737,
				"method": "rhf"
			},
			{
				"type": "occ",
				"energy": -0.27016,
				"method": "rhf"
			},
			{
				"type": "occ",
				"energy": -0.25189,
				"method": "rhf"
			},
			{
				"type": "occ",
				"energy": -0.23954,
				"method": "rhf"
			},
			{
				"type": "occ",
				"energy": -0.23364,
				"method": "rhf"
			},
			{
				"type": "unocc",
				"energy": -0.01,
				"method": "rhf"
			},
			{
				"type": "unocc",
				"energy": -0.00465,
				"method": "rhf"
			},
			{
				"type": "unocc",
				"energy": -0.00287,
				"method": "rhf"
			},
			{
				"type": "unocc",
				"energy": 0.02136,
				"method": "rhf"
			},
			{
				"type": "unocc",
				"energy": 0.04281,
				"method": "rhf"
			}
		],
		"cosmo_sigma_profile": { 
			"-0.025": 0.0,
			"-0.024": 0.0,
			"-0.023": 0.0,
			"-0.022": 0.0,
			"-0.021": 0.0,
			"-0.02": 0.0,
			"-0.019": 0.294115968886,
			"-0.018": 1.03699967444,
			"-0.017": 1.2522011123,
			"-0.016": 1.29182157403,
			"-0.015": 1.26573904355,
			"-0.014": 1.01555633286,
			"-0.013": 1.02712409364,
			"-0.012": 1.41677533003,
			"-0.011": 1.08343099207,
			"-0.01": 1.3528150714,
			"-0.009": 1.8263343556,
			"-0.008": 5.02094706944,
			"-0.007": 10.7572256545,
			"-0.006": 14.4802395516,
			"-0.005": 16.8542901692,
			"-0.004": 22.7305163204,
			"-0.003": 20.7611821785,
			"-0.002": 21.4574201327,
			"-0.001": 19.6085266817,
			"0.0": 21.0135829954,
			"0.001": 15.3188132845,
			"0.002": 9.59283283691,
			"0.003": 9.75807138337,
			"0.004": 9.45415619728,
			"0.005": 10.6870483563,
			"0.006": 10.0729373128,
			"0.007": 4.09060329191,
			"0.008": 4.80727137217,
			"0.009": 5.36493357216,
			"0.01": 6.28795037901,
			"0.011": 7.77248038895,
			"0.012": 6.10480609089,
			"0.013": 4.90726292913,
			"0.014": 3.3991068084,
			"0.015": 0.478480193,
			"0.016": 0.0,
			"0.017": 0.0,
			"0.018": 0.0,
			"0.019": 0.0,
			"0.02": 0.0,
			"0.021": 0.0,
			"0.022": 0.0,
			"0.023": 0.0,
			"0.024": 0.0,
			"0.025": 0.0
		}
	}
}
