{
	 "smiles": "BrC1=C2OCCOC2=CC(C=O)=C1", 
	 "Tm": 373.15, 
	 "num_atms": 20, 
	 "gaussian": { 
		 "optdone": 1, 
		 "sigma_profile": "yes", 
		 "theory": "DFT", 
		 "functional": "B3LYP", 
		 "basiset": "6-31G**", 
		 "properties": { 
			 "R2extent": 4138.6316, 
			 "electric_dipole_moment_norm": 4.16470269887, 
			 "electric_quadrupole_moment_norm": 16.1374116772, 
			 "total_energy": -3144.22132376, 
			 "HOMO_LUMO_gap": 0.17328, 
			 "cosmo_polarized_energy": -11.46, 
			 "cosmo_cavitation_energy": 26.58, 
			 "cosmo_dispersion_energy": -20.26, 
			 "cosmo_repulsion_energy": 1.6, 
			 "cosmo_total_nonelectrostatic_energy": 7.92, 
			 "SMD_solvation_energy": 4.87 
		},
		"coords": [
			{
				"x": -1.3436584826,
				"y": 2.5541720387,
				"z": -1.9341797927,
				"element": "Br" 
			},
			{
				"x": -1.4786077838,
				"y": 0.8597801614,
				"z": -1.0758073443,
				"element": "C" 
			},
			{
				"x": -0.3150565619,
				"y": 0.2432502433,
				"z": -0.5937728348,
				"element": "C" 
			},
			{
				"x": 0.8823660047,
				"y": 0.8647691618,
				"z": -0.7597848628,
				"element": "O" 
			},
			{
				"x": 2.0271713981,
				"y": 0.0368178134,
				"z": -0.5231868101,
				"element": "C" 
			},
			{
				"x": 1.8185706684,
				"y": -0.7910251571,
				"z": 0.7314917629,
				"element": "C" 
			},
			{
				"x": 0.6804623372,
				"y": -1.6379601533,
				"z": 0.5690945604,
				"element": "O" 
			},
			{
				"x": -0.4239135753,
				"y": -1.0074772443,
				"z": 0.0579595532,
				"element": "C" 
			},
			{
				"x": -1.6586671514,
				"y": -1.6268856785,
				"z": 0.1862838143,
				"element": "C" 
			},
			{
				"x": -2.8078797649,
				"y": -1.0050421047,
				"z": -0.3173710861,
				"element": "C" 
			},
			{
				"x": -4.1259034886,
				"y": -1.6595507878,
				"z": -0.1812979001,
				"element": "C" 
			},
			{
				"x": -4.3093642383,
				"y": -2.7416491358,
				"z": 0.3438221388,
				"element": "O" 
			},
			{
				"x": -2.7174026772,
				"y": 0.2466500677,
				"z": -0.939762134,
				"element": "C" 
			},
			{
				"x": 2.1890576029,
				"y": -0.6188704529,
				"z": -1.3879985315,
				"element": "H" 
			},
			{
				"x": 2.8764847873,
				"y": 0.7160726494,
				"z": -0.4227787118,
				"element": "H" 
			},
			{
				"x": 2.6698833071,
				"y": -1.44919919,
				"z": 0.9197664962,
				"element": "H" 
			},
			{
				"x": 1.6749115054,
				"y": -0.1329130087,
				"z": 1.5989027389,
				"element": "H" 
			},
			{
				"x": -1.7359738988,
				"y": -2.588228956,
				"z": 0.6820969776,
				"element": "H" 
			},
			{
				"x": -4.9744046221,
				"y": -1.0781123745,
				"z": -0.6056718532,
				"element": "H" 
			},
			{
				"x": -3.6067753661,
				"y": 0.7366021078,
				"z": -1.3222061809,
				"element": "H" 
			}
		],
		 "valence_orbital": [ 
			{
				"type": "occ",
				"energy": -0.30328,
				"method": "rhf"
			},
			{
				"type": "occ",
				"energy": -0.29028,
				"method": "rhf"
			},
			{
				"type": "occ",
				"energy": -0.25528,
				"method": "rhf"
			},
			{
				"type": "occ",
				"energy": -0.24338,
				"method": "rhf"
			},
			{
				"type": "occ",
				"energy": -0.23492,
				"method": "rhf"
			},
			{
				"type": "unocc",
				"energy": -0.06164,
				"method": "rhf"
			},
			{
				"type": "unocc",
				"energy": -0.01746,
				"method": "rhf"
			},
			{
				"type": "unocc",
				"energy": 0.00012,
				"method": "rhf"
			},
			{
				"type": "unocc",
				"energy": 0.04041,
				"method": "rhf"
			},
			{
				"type": "unocc",
				"energy": 0.07512,
				"method": "rhf"
			}
		],
		"cosmo_sigma_profile": { 
			"-0.025": 0.0,
			"-0.024": 0.0,
			"-0.023": 0.0,
			"-0.022": 0.0,
			"-0.021": 0.0,
			"-0.02": 0.0,
			"-0.019": 0.0,
			"-0.018": 0.0,
			"-0.017": 0.0,
			"-0.016": 0.0,
			"-0.015": 0.0,
			"-0.014": 0.0,
			"-0.013": 0.0,
			"-0.012": 0.0,
			"-0.011": 0.0,
			"-0.01": 0.0,
			"-0.009": 0.443498427988,
			"-0.008": 6.71014502326,
			"-0.007": 15.6043285977,
			"-0.006": 17.9627027839,
			"-0.005": 13.722941775,
			"-0.004": 12.3817835559,
			"-0.003": 10.6533795936,
			"-0.002": 9.92425256251,
			"-0.001": 10.9309073594,
			"0.0": 16.2726415896,
			"0.001": 19.8137219344,
			"0.002": 18.2627193344,
			"0.003": 11.9753714414,
			"0.004": 13.4345989164,
			"0.005": 7.53821021958,
			"0.006": 4.42639958987,
			"0.007": 4.23515340101,
			"0.008": 5.08202118888,
			"0.009": 5.2717566476,
			"0.01": 3.54852830308,
			"0.011": 3.98997756018,
			"0.012": 3.12780132266,
			"0.013": 0.778710307774,
			"0.014": 0.0,
			"0.015": 0.0,
			"0.016": 0.0,
			"0.017": 0.0,
			"0.018": 0.0,
			"0.019": 0.0,
			"0.02": 0.0,
			"0.021": 0.0,
			"0.022": 0.0,
			"0.023": 0.0,
			"0.024": 0.0,
			"0.025": 0.0
		}
	}
}
