{
	 "smiles": "NC1=C(C=C2OCC(=O)NC2=C1)[N+]([O-])=O", 
	 "Tm": 597.15, 
	 "num_atms": 22, 
	 "gaussian": { 
		 "optdone": 1, 
		 "sigma_profile": "yes", 
		 "theory": "DFT", 
		 "functional": "B3LYP", 
		 "basiset": "6-31G**", 
		 "properties": { 
			 "R2extent": 3998.5906, 
			 "electric_dipole_moment_norm": 4.35714985857, 
			 "electric_quadrupole_moment_norm": 28.0993605662, 
			 "total_energy": -774.130936841, 
			 "HOMO_LUMO_gap": 0.13295, 
			 "cosmo_polarized_energy": -20.48, 
			 "cosmo_cavitation_energy": 26.88, 
			 "cosmo_dispersion_energy": -20.6, 
			 "cosmo_repulsion_energy": 1.59, 
			 "cosmo_total_nonelectrostatic_energy": 7.87, 
			 "SMD_solvation_energy": 7.36 
		},
		"coords": [
			{
				"x": 0.4704335783,
				"y": 1.1983535439,
				"z": -3.8969816009,
				"element": "N" 
			},
			{
				"x": 0.4859976903,
				"y": 0.5915131019,
				"z": -2.6812564561,
				"element": "C" 
			},
			{
				"x": 0.6907731378,
				"y": -0.8062962963,
				"z": -2.4974065039,
				"element": "C" 
			},
			{
				"x": 0.733483587,
				"y": -1.3732417173,
				"z": -1.2094749372,
				"element": "C" 
			},
			{
				"x": 0.5601755386,
				"y": -0.59123876,
				"z": -0.0933101904,
				"element": "C" 
			},
			{
				"x": 0.5129687348,
				"y": -1.1581754526,
				"z": 1.1574182995,
				"element": "O" 
			},
			{
				"x": 0.999823277,
				"y": -0.3266369958,
				"z": 2.2085747055,
				"element": "C" 
			},
			{
				"x": 0.4397875954,
				"y": 1.0921503084,
				"z": 2.1789316734,
				"element": "C" 
			},
			{
				"x": 0.3093820481,
				"y": 1.7783330488,
				"z": 3.1749139482,
				"element": "O" 
			},
			{
				"x": 0.1501501498,
				"y": 1.5529911111,
				"z": 0.9105644825,
				"element": "N" 
			},
			{
				"x": 0.3472196162,
				"y": 0.7999670174,
				"z": -0.2474821261,
				"element": "C" 
			},
			{
				"x": 0.3197573242,
				"y": 1.3688456631,
				"z": -1.5105610756,
				"element": "C" 
			},
			{
				"x": 0.8588105048,
				"y": -1.7093956035,
				"z": -3.6095145554,
				"element": "N" 
			},
			{
				"x": 0.8131395476,
				"y": -1.2532102666,
				"z": -4.7705294037,
				"element": "O" 
			},
			{
				"x": 1.0401672805,
				"y": -2.9059372681,
				"z": -3.3748231233,
				"element": "O" 
			},
			{
				"x": 0.5057559827,
				"y": 0.6061971046,
				"z": -4.7150392739,
				"element": "H" 
			},
			{
				"x": 0.1934209295,
				"y": 2.1630416225,
				"z": -3.9661034848,
				"element": "H" 
			},
			{
				"x": 0.8835173734,
				"y": -2.4401609438,
				"z": -1.1129970372,
				"element": "H" 
			},
			{
				"x": 0.7051726751,
				"y": -0.7929996372,
				"z": 3.1485887537,
				"element": "H" 
			},
			{
				"x": 2.0990127099,
				"y": -0.26223447,
				"z": 2.1775912073,
				"element": "H" 
			},
			{
				"x": -0.1462518809,
				"y": 2.5189834873,
				"z": 0.8463528117,
				"element": "H" 
			},
			{
				"x": 0.1703025999,
				"y": 2.4403514022,
				"z": -1.6123561134,
				"element": "H" 
			}
		],
		 "valence_orbital": [ 
			{
				"type": "occ",
				"energy": -0.29762,
				"method": "rhf"
			},
			{
				"type": "occ",
				"energy": -0.28408,
				"method": "rhf"
			},
			{
				"type": "occ",
				"energy": -0.27582,
				"method": "rhf"
			},
			{
				"type": "occ",
				"energy": -0.25529,
				"method": "rhf"
			},
			{
				"type": "occ",
				"energy": -0.21674,
				"method": "rhf"
			},
			{
				"type": "unocc",
				"energy": -0.08379,
				"method": "rhf"
			},
			{
				"type": "unocc",
				"energy": -0.01893,
				"method": "rhf"
			},
			{
				"type": "unocc",
				"energy": -0.01159,
				"method": "rhf"
			},
			{
				"type": "unocc",
				"energy": 0.0277,
				"method": "rhf"
			},
			{
				"type": "unocc",
				"energy": 0.06182,
				"method": "rhf"
			}
		],
		"cosmo_sigma_profile": { 
			"-0.025": 0.0,
			"-0.024": 0.0,
			"-0.023": 0.0,
			"-0.022": 0.0,
			"-0.021": 0.0,
			"-0.02": 0.0,
			"-0.019": 0.0,
			"-0.018": 0.0,
			"-0.017": 0.180714676482,
			"-0.016": 1.16099829537,
			"-0.015": 1.90281134834,
			"-0.014": 2.90690962824,
			"-0.013": 2.54193817883,
			"-0.012": 2.81589900456,
			"-0.011": 2.2745455774,
			"-0.01": 3.8122550308,
			"-0.009": 5.80607261227,
			"-0.008": 8.7088575857,
			"-0.007": 6.97635852247,
			"-0.006": 7.98127671775,
			"-0.005": 8.26933475979,
			"-0.004": 8.89990632029,
			"-0.003": 10.3940204629,
			"-0.002": 11.3342934524,
			"-0.001": 12.617797822,
			"0.0": 14.6200635834,
			"0.001": 20.2069837589,
			"0.002": 12.7296544659,
			"0.003": 6.75169556608,
			"0.004": 7.60767120517,
			"0.005": 4.96968560096,
			"0.006": 4.64861250136,
			"0.007": 6.95064778799,
			"0.008": 6.97515412759,
			"0.009": 9.4546277922,
			"0.01": 6.09734067821,
			"0.011": 7.61133990886,
			"0.012": 6.22538879952,
			"0.013": 1.50812225932,
			"0.014": 0.0,
			"0.015": 0.0,
			"0.016": 0.0,
			"0.017": 0.0,
			"0.018": 0.0,
			"0.019": 0.0,
			"0.02": 0.0,
			"0.021": 0.0,
			"0.022": 0.0,
			"0.023": 0.0,
			"0.024": 0.0,
			"0.025": 0.0
		}
	}
}
