{
	 "smiles": "NC(=S)C1=CC=NN1", 
	 "Tm": 457.15, 
	 "num_atms": 13, 
	 "gaussian": { 
		 "optdone": 1, 
		 "sigma_profile": "yes", 
		 "theory": "DFT", 
		 "functional": "B3LYP", 
		 "basiset": "6-31G**", 
		 "properties": { 
			 "R2extent": 2813.3001, 
			 "electric_dipole_moment_norm": 4.42704055324, 
			 "electric_quadrupole_moment_norm": 17.537230634, 
			 "total_energy": -717.867880937, 
			 "HOMO_LUMO_gap": 0.15676, 
			 "cosmo_polarized_energy": -16.39, 
			 "cosmo_cavitation_energy": 19.08, 
			 "cosmo_dispersion_energy": -14.93, 
			 "cosmo_repulsion_energy": 1.19, 
			 "cosmo_total_nonelectrostatic_energy": 5.34, 
			 "SMD_solvation_energy": 1.7 
		},
		"coords": [
			{
				"x": 0.4143208723,
				"y": -0.3451489444,
				"z": -2.3633060256,
				"element": "N" 
			},
			{
				"x": 0.1116184453,
				"y": 0.7486316925,
				"z": -1.6353147154,
				"element": "C" 
			},
			{
				"x": 0.3679378826,
				"y": 0.816707312,
				"z": 0.0185681163,
				"element": "S" 
			},
			{
				"x": -0.454787846,
				"y": 1.8714756402,
				"z": -2.3828580648,
				"element": "C" 
			},
			{
				"x": -0.7639764128,
				"y": 2.0730086308,
				"z": -3.7292670597,
				"element": "C" 
			},
			{
				"x": -1.2829846306,
				"y": 3.3780485388,
				"z": -3.7852499401,
				"element": "C" 
			},
			{
				"x": -1.3015618723,
				"y": 3.9556143303,
				"z": -2.5766390958,
				"element": "N" 
			},
			{
				"x": -0.8000538696,
				"y": 3.0301933721,
				"z": -1.756846089,
				"element": "N" 
			},
			{
				"x": 0.8075747488,
				"y": -1.145204315,
				"z": -1.8909044323,
				"element": "H" 
			},
			{
				"x": 0.2617261331,
				"y": -0.3902762646,
				"z": -3.3591301371,
				"element": "H" 
			},
			{
				"x": -0.6364460666,
				"y": 1.3852544768,
				"z": -4.5526158823,
				"element": "H" 
			},
			{
				"x": -1.6434401434,
				"y": 3.9238317778,
				"z": -4.6463789064,
				"element": "H" 
			},
			{
				"x": -0.6952272407,
				"y": 3.1972637528,
				"z": -0.763357768,
				"element": "H" 
			}
		],
		 "valence_orbital": [ 
			{
				"type": "occ",
				"energy": -0.30187,
				"method": "rhf"
			},
			{
				"type": "occ",
				"energy": -0.27512,
				"method": "rhf"
			},
			{
				"type": "occ",
				"energy": -0.26843,
				"method": "rhf"
			},
			{
				"type": "occ",
				"energy": -0.23539,
				"method": "rhf"
			},
			{
				"type": "occ",
				"energy": -0.22566,
				"method": "rhf"
			},
			{
				"type": "unocc",
				"energy": -0.0689,
				"method": "rhf"
			},
			{
				"type": "unocc",
				"energy": 0.03263,
				"method": "rhf"
			},
			{
				"type": "unocc",
				"energy": 0.051,
				"method": "rhf"
			},
			{
				"type": "unocc",
				"energy": 0.07667,
				"method": "rhf"
			},
			{
				"type": "unocc",
				"energy": 0.08276,
				"method": "rhf"
			}
		],
		"cosmo_sigma_profile": { 
			"-0.025": 0.0,
			"-0.024": 0.0,
			"-0.023": 0.0,
			"-0.022": 0.0,
			"-0.021": 0.0,
			"-0.02": 0.0,
			"-0.019": 0.0,
			"-0.018": 0.0,
			"-0.017": 0.129441701966,
			"-0.016": 1.37482284175,
			"-0.015": 2.89317976981,
			"-0.014": 3.3668549642,
			"-0.013": 3.91574772078,
			"-0.012": 2.72098474799,
			"-0.011": 2.31697985949,
			"-0.01": 3.47079698699,
			"-0.009": 2.50790846631,
			"-0.008": 4.52888678521,
			"-0.007": 5.13641613121,
			"-0.006": 4.79638083134,
			"-0.005": 4.68476707252,
			"-0.004": 4.85601702237,
			"-0.003": 5.6407307662,
			"-0.002": 4.37935063886,
			"-0.001": 7.91249293685,
			"0.0": 10.0645873777,
			"0.001": 9.25923953688,
			"0.002": 9.83583154662,
			"0.003": 10.1863899119,
			"0.004": 7.46970378344,
			"0.005": 6.10915471982,
			"0.006": 5.74880755549,
			"0.007": 5.62372085242,
			"0.008": 7.78460183323,
			"0.009": 7.95946530169,
			"0.01": 3.69300059163,
			"0.011": 3.01597741007,
			"0.012": 1.12185488187,
			"0.013": 1.25791059142,
			"0.014": 1.0096078126,
			"0.015": 0.763104387027,
			"0.016": 0.0183751894301,
			"0.017": 0.0,
			"0.018": 0.0,
			"0.019": 0.0,
			"0.02": 0.0,
			"0.021": 0.0,
			"0.022": 0.0,
			"0.023": 0.0,
			"0.024": 0.0,
			"0.025": 0.0
		}
	}
}
