{
	 "smiles": "CCOC1=NC2=C(C=CC=C2)C(=O)N1CC1=CC=CC=C1", 
	 "Tm": 369.65, 
	 "num_atms": 37, 
	 "gaussian": { 
		 "optdone": 1, 
		 "sigma_profile": "yes", 
		 "theory": "DFT", 
		 "functional": "B3LYP", 
		 "basiset": "6-31G**", 
		 "properties": { 
			 "R2extent": 7718.8793, 
			 "electric_dipole_moment_norm": 3.06070012252, 
			 "electric_quadrupole_moment_norm": 10.0813366247, 
			 "total_energy": -917.444580861, 
			 "HOMO_LUMO_gap": 0.18062, 
			 "cosmo_polarized_energy": -10.51, 
			 "cosmo_cavitation_energy": 40.23, 
			 "cosmo_dispersion_energy": -28.21, 
			 "cosmo_repulsion_energy": 2.15, 
			 "cosmo_total_nonelectrostatic_energy": 14.17, 
			 "SMD_solvation_energy": 6.54 
		},
		"coords": [
			{
				"x": -0.1351650202,
				"y": 3.296070297,
				"z": -1.5570926487,
				"element": "C" 
			},
			{
				"x": -0.3091674208,
				"y": 1.7859308735,
				"z": -1.5430297892,
				"element": "C" 
			},
			{
				"x": 0.2086111794,
				"y": 1.2006498044,
				"z": -0.3221573043,
				"element": "O" 
			},
			{
				"x": -0.5983614951,
				"y": 1.1782574846,
				"z": 0.7499888132,
				"element": "C" 
			},
			{
				"x": -1.7964920286,
				"y": 1.6631008004,
				"z": 0.7097816519,
				"element": "N" 
			},
			{
				"x": -2.5535485947,
				"y": 1.5923812756,
				"z": 1.8653269391,
				"element": "C" 
			},
			{
				"x": -2.0514355,
				"y": 1.021159732,
				"z": 3.0554652359,
				"element": "C" 
			},
			{
				"x": -2.8450742444,
				"y": 0.9684553552,
				"z": 4.2136279902,
				"element": "C" 
			},
			{
				"x": -4.1321751347,
				"y": 1.4811463864,
				"z": 4.1945762256,
				"element": "C" 
			},
			{
				"x": -4.6384161588,
				"y": 2.0504319614,
				"z": 3.0111624134,
				"element": "C" 
			},
			{
				"x": -3.8655081951,
				"y": 2.1073691359,
				"z": 1.8618837326,
				"element": "C" 
			},
			{
				"x": -0.6942109703,
				"y": 0.472647533,
				"z": 3.0726183006,
				"element": "C" 
			},
			{
				"x": -0.1628159828,
				"y": -0.0607986923,
				"z": 4.0418330531,
				"element": "O" 
			},
			{
				"x": 0.0031486207,
				"y": 0.5967189583,
				"z": 1.8488175072,
				"element": "N" 
			},
			{
				"x": 1.3862612308,
				"y": 0.0646121341,
				"z": 1.7863263139,
				"element": "C" 
			},
			{
				"x": 1.4700095499,
				"y": -1.3492180026,
				"z": 1.2438684131,
				"element": "C" 
			},
			{
				"x": 1.9481070513,
				"y": -1.5916938485,
				"z": -0.048962372,
				"element": "C" 
			},
			{
				"x": 2.037894711,
				"y": -2.8954825115,
				"z": -0.5405475185,
				"element": "C" 
			},
			{
				"x": 1.6446853365,
				"y": -3.9711797763,
				"z": 0.25661462,
				"element": "C" 
			},
			{
				"x": 1.1660806056,
				"y": -3.7375305952,
				"z": 1.5482906184,
				"element": "C" 
			},
			{
				"x": 1.0816994527,
				"y": -2.4357431614,
				"z": 2.0415764485,
				"element": "C" 
			},
			{
				"x": 0.9130695067,
				"y": 3.5702738015,
				"z": -1.4052301033,
				"element": "H" 
			},
			{
				"x": -0.7426564612,
				"y": 3.759714252,
				"z": -0.776863641,
				"element": "H" 
			},
			{
				"x": -0.4560636085,
				"y": 3.6932286415,
				"z": -2.525957108,
				"element": "H" 
			},
			{
				"x": 0.279934841,
				"y": 1.307078453,
				"z": -2.3288107758,
				"element": "H" 
			},
			{
				"x": -1.3584071904,
				"y": 1.5044248806,
				"z": -1.6494372423,
				"element": "H" 
			},
			{
				"x": -2.4205689053,
				"y": 0.5198076497,
				"z": 5.1056082612,
				"element": "H" 
			},
			{
				"x": -4.7493931458,
				"y": 1.4437578046,
				"z": 5.0868276604,
				"element": "H" 
			},
			{
				"x": -5.648450339,
				"y": 2.4507632754,
				"z": 2.9973715916,
				"element": "H" 
			},
			{
				"x": -4.2437317967,
				"y": 2.5432599634,
				"z": 0.9430230785,
				"element": "H" 
			},
			{
				"x": 1.7465910119,
				"y": 0.0978202901,
				"z": 2.8149306985,
				"element": "H" 
			},
			{
				"x": 1.9757874231,
				"y": 0.747804752,
				"z": 1.175807216,
				"element": "H" 
			},
			{
				"x": 2.2493314369,
				"y": -0.7542785433,
				"z": -0.6719629646,
				"element": "H" 
			},
			{
				"x": 2.4143376427,
				"y": -3.0697748768,
				"z": -1.5447419274,
				"element": "H" 
			},
			{
				"x": 1.7137216791,
				"y": -4.9862385298,
				"z": -0.1243481012,
				"element": "H" 
			},
			{
				"x": 0.8637735219,
				"y": -4.5715985486,
				"z": 2.175416953,
				"element": "H" 
			},
			{
				"x": 0.7158973916,
				"y": -2.2489284091,
				"z": 3.0467977604,
				"element": "H" 
			}
		],
		 "valence_orbital": [ 
			{
				"type": "occ",
				"energy": -0.26444,
				"method": "rhf"
			},
			{
				"type": "occ",
				"energy": -0.25554,
				"method": "rhf"
			},
			{
				"type": "occ",
				"energy": -0.24723,
				"method": "rhf"
			},
			{
				"type": "occ",
				"energy": -0.243,
				"method": "rhf"
			},
			{
				"type": "occ",
				"energy": -0.21906,
				"method": "rhf"
			},
			{
				"type": "unocc",
				"energy": -0.03844,
				"method": "rhf"
			},
			{
				"type": "unocc",
				"energy": -0.01771,
				"method": "rhf"
			},
			{
				"type": "unocc",
				"energy": -0.00372,
				"method": "rhf"
			},
			{
				"type": "unocc",
				"energy": 0.00168,
				"method": "rhf"
			},
			{
				"type": "unocc",
				"energy": 0.03661,
				"method": "rhf"
			}
		],
		"cosmo_sigma_profile": { 
			"-0.025": 0.0,
			"-0.024": 0.0,
			"-0.023": 0.0,
			"-0.022": 0.0,
			"-0.021": 0.0,
			"-0.02": 0.0,
			"-0.019": 0.0,
			"-0.018": 0.0,
			"-0.017": 0.0,
			"-0.016": 0.0,
			"-0.015": 0.0,
			"-0.014": 0.0,
			"-0.013": 0.0,
			"-0.012": 0.0,
			"-0.011": 0.0,
			"-0.01": 0.0,
			"-0.009": 0.0,
			"-0.008": 0.0,
			"-0.007": 0.719594186574,
			"-0.006": 11.7606161941,
			"-0.005": 25.1346086796,
			"-0.004": 33.6205771934,
			"-0.003": 35.1527783152,
			"-0.002": 27.572406145,
			"-0.001": 25.7061350967,
			"0.0": 28.4169662163,
			"0.001": 22.0226112669,
			"0.002": 22.2356372805,
			"0.003": 25.4425111264,
			"0.004": 23.2443445633,
			"0.005": 13.9071040098,
			"0.006": 9.65154504562,
			"0.007": 3.10900797174,
			"0.008": 2.61183646492,
			"0.009": 2.54730626758,
			"0.01": 2.16464729453,
			"0.011": 1.69572466129,
			"0.012": 2.67223471705,
			"0.013": 1.96583607353,
			"0.014": 0.00136331804457,
			"0.015": 0.0,
			"0.016": 0.0,
			"0.017": 0.0,
			"0.018": 0.0,
			"0.019": 0.0,
			"0.02": 0.0,
			"0.021": 0.0,
			"0.022": 0.0,
			"0.023": 0.0,
			"0.024": 0.0,
			"0.025": 0.0
		}
	}
}
