{
	 "smiles": "COC(=O)C1=C(C)NC(=O)N=C1S", 
	 "Tm": 499.15, 
	 "num_atms": 21, 
	 "gaussian": { 
		 "optdone": 1, 
		 "sigma_profile": "yes", 
		 "theory": "DFT", 
		 "functional": "B3LYP", 
		 "basiset": "6-31G**", 
		 "properties": { 
			 "R2extent": 2951.0059, 
			 "electric_dipole_moment_norm": 4.34726513569, 
			 "electric_quadrupole_moment_norm": 17.6138197816, 
			 "total_energy": -1004.9477701, 
			 "HOMO_LUMO_gap": 0.18697, 
			 "cosmo_polarized_energy": -18.63, 
			 "cosmo_cavitation_energy": 27.01, 
			 "cosmo_dispersion_energy": -20.48, 
			 "cosmo_repulsion_energy": 1.57, 
			 "cosmo_total_nonelectrostatic_energy": 8.1, 
			 "SMD_solvation_energy": 5.48 
		},
		"coords": [
			{
				"x": -0.7787359748,
				"y": 0.5728827473,
				"z": 3.4577348251,
				"element": "C" 
			},
			{
				"x": -0.4131966391,
				"y": -0.1036811133,
				"z": 2.2439324355,
				"element": "O" 
			},
			{
				"x": 0.2032759789,
				"y": 0.6481132216,
				"z": 1.3108054633,
				"element": "C" 
			},
			{
				"x": 0.4388955416,
				"y": 1.8328588881,
				"z": 1.4846471644,
				"element": "O" 
			},
			{
				"x": 0.5451817201,
				"y": -0.1191368289,
				"z": 0.0941057349,
				"element": "C" 
			},
			{
				"x": 1.191835854,
				"y": 0.5441526988,
				"z": -0.9494390964,
				"element": "C" 
			},
			{
				"x": 1.5891112533,
				"y": 1.9937390471,
				"z": -0.9723341408,
				"element": "C" 
			},
			{
				"x": 1.5013466926,
				"y": -0.1610103788,
				"z": -2.055631197,
				"element": "N" 
			},
			{
				"x": 1.2267460334,
				"y": -1.5426410673,
				"z": -2.265007769,
				"element": "C" 
			},
			{
				"x": 1.564425467,
				"y": -2.0527725844,
				"z": -3.3164571043,
				"element": "O" 
			},
			{
				"x": 0.5891102323,
				"y": -2.1772344302,
				"z": -1.2270229904,
				"element": "N" 
			},
			{
				"x": 0.2702264205,
				"y": -1.5281032327,
				"z": -0.1334894599,
				"element": "C" 
			},
			{
				"x": -0.551783639,
				"y": -2.5289218193,
				"z": 1.0938593576,
				"element": "S" 
			},
			{
				"x": -1.4676663139,
				"y": 1.3934825115,
				"z": 3.2448514055,
				"element": "H" 
			},
			{
				"x": 0.1085441517,
				"y": 0.9727722974,
				"z": 3.9539337887,
				"element": "H" 
			},
			{
				"x": -1.2591141589,
				"y": -0.1836415854,
				"z": 4.0770035779,
				"element": "H" 
			},
			{
				"x": 0.7163309666,
				"y": 2.6352463165,
				"z": -0.8379949662,
				"element": "H" 
			},
			{
				"x": 2.2583411502,
				"y": 2.2237886354,
				"z": -0.1413814977,
				"element": "H" 
			},
			{
				"x": 2.0812727597,
				"y": 2.2371693197,
				"z": -1.9180978398,
				"element": "H" 
			},
			{
				"x": 1.9707049922,
				"y": 0.2919719118,
				"z": -2.8305731703,
				"element": "H" 
			},
			{
				"x": -0.4867524884,
				"y": -3.6160345548,
				"z": 0.2975554788,
				"element": "H" 
			}
		],
		 "valence_orbital": [ 
			{
				"type": "occ",
				"energy": -0.29731,
				"method": "rhf"
			},
			{
				"type": "occ",
				"energy": -0.27622,
				"method": "rhf"
			},
			{
				"type": "occ",
				"energy": -0.26258,
				"method": "rhf"
			},
			{
				"type": "occ",
				"energy": -0.25696,
				"method": "rhf"
			},
			{
				"type": "occ",
				"energy": -0.24833,
				"method": "rhf"
			},
			{
				"type": "unocc",
				"energy": -0.06136,
				"method": "rhf"
			},
			{
				"type": "unocc",
				"energy": -0.04266,
				"method": "rhf"
			},
			{
				"type": "unocc",
				"energy": 0.02304,
				"method": "rhf"
			},
			{
				"type": "unocc",
				"energy": 0.0463,
				"method": "rhf"
			},
			{
				"type": "unocc",
				"energy": 0.06084,
				"method": "rhf"
			}
		],
		"cosmo_sigma_profile": { 
			"-0.025": 0.0,
			"-0.024": 0.0,
			"-0.023": 0.0,
			"-0.022": 0.0,
			"-0.021": 0.0,
			"-0.02": 0.0,
			"-0.019": 0.0,
			"-0.018": 0.0,
			"-0.017": 0.605658736414,
			"-0.016": 1.39658329631,
			"-0.015": 1.05446141757,
			"-0.014": 1.33969146411,
			"-0.013": 1.33922796742,
			"-0.012": 1.10203355179,
			"-0.011": 1.42248836506,
			"-0.01": 1.6095202889,
			"-0.009": 2.18714360568,
			"-0.008": 3.22879109884,
			"-0.007": 3.58473978888,
			"-0.006": 13.1501343462,
			"-0.005": 17.9771533092,
			"-0.004": 22.1050684021,
			"-0.003": 22.9376642956,
			"-0.002": 18.3171588003,
			"-0.001": 9.72718822325,
			"0.0": 9.47360357821,
			"0.001": 7.12043912074,
			"0.002": 8.83924134318,
			"0.003": 9.13049101338,
			"0.004": 7.45454661881,
			"0.005": 6.5650945184,
			"0.006": 7.74978599506,
			"0.007": 5.37022886752,
			"0.008": 3.68189179491,
			"0.009": 3.5284275506,
			"0.01": 3.4599279388,
			"0.011": 4.51455760203,
			"0.012": 6.79786588837,
			"0.013": 6.34976961182,
			"0.014": 3.42297859339,
			"0.015": 1.06133213716,
			"0.016": 0.0,
			"0.017": 0.0,
			"0.018": 0.0,
			"0.019": 0.0,
			"0.02": 0.0,
			"0.021": 0.0,
			"0.022": 0.0,
			"0.023": 0.0,
			"0.024": 0.0,
			"0.025": 0.0
		}
	}
}
