{
	 "smiles": "CC(C)CCN1C(C)=CC(C=C(C#N)C(O)=O)=C1C", 
	 "Tm": 503.15, 
	 "num_atms": 39, 
	 "gaussian": { 
		 "optdone": 1, 
		 "sigma_profile": "yes", 
		 "theory": "DFT", 
		 "functional": "B3LYP", 
		 "basiset": "6-31G**", 
		 "properties": { 
			 "R2extent": 8009.5947, 
			 "electric_dipole_moment_norm": 10.9920523639, 
			 "electric_quadrupole_moment_norm": 60.3076998862, 
			 "total_energy": -843.596195576, 
			 "HOMO_LUMO_gap": 0.14533, 
			 "cosmo_polarized_energy": -22.69, 
			 "cosmo_cavitation_energy": 41.16, 
			 "cosmo_dispersion_energy": -27.63, 
			 "cosmo_repulsion_energy": 2.14, 
			 "cosmo_total_nonelectrostatic_energy": 15.66, 
			 "SMD_solvation_energy": 9.56 
		},
		"coords": [
			{
				"x": 1.5136713584,
				"y": 0.682147608,
				"z": 1.2555276324,
				"element": "C" 
			},
			{
				"x": 2.0776914686,
				"y": -0.4721657005,
				"z": 2.0992933716,
				"element": "C" 
			},
			{
				"x": 1.5765573964,
				"y": -0.417256137,
				"z": 3.5508053483,
				"element": "C" 
			},
			{
				"x": 1.8913818587,
				"y": -1.8659581714,
				"z": 1.4565348581,
				"element": "C" 
			},
			{
				"x": 0.4684513974,
				"y": -2.4436340662,
				"z": 1.3082173273,
				"element": "C" 
			},
			{
				"x": -0.3801067317,
				"y": -1.8387952777,
				"z": 0.2751697256,
				"element": "N" 
			},
			{
				"x": -1.554371256,
				"y": -1.1125367055,
				"z": 0.5212021634,
				"element": "C" 
			},
			{
				"x": -2.1178083974,
				"y": -0.895205783,
				"z": 1.8895725837,
				"element": "C" 
			},
			{
				"x": -2.0654836578,
				"y": -0.7172085312,
				"z": -0.6827064156,
				"element": "C" 
			},
			{
				"x": -1.2112008556,
				"y": -1.2190558408,
				"z": -1.7228789785,
				"element": "C" 
			},
			{
				"x": -1.2704819538,
				"y": -1.1542747222,
				"z": -3.1512288905,
				"element": "C" 
			},
			{
				"x": -2.0471680364,
				"y": -0.5166252158,
				"z": -4.0928278169,
				"element": "C" 
			},
			{
				"x": -1.7516363187,
				"y": -0.8352730711,
				"z": -5.462397583,
				"element": "C" 
			},
			{
				"x": -1.4662982219,
				"y": -1.1289886974,
				"z": -6.5520009277,
				"element": "N" 
			},
			{
				"x": -3.1423723581,
				"y": 0.468768236,
				"z": -3.9584526011,
				"element": "C" 
			},
			{
				"x": -3.3583984823,
				"y": 0.9221358777,
				"z": -2.6969555,
				"element": "O" 
			},
			{
				"x": -3.796828997,
				"y": 0.8792748164,
				"z": -4.8969249847,
				"element": "O" 
			},
			{
				"x": -0.177397706,
				"y": -1.9317712726,
				"z": -1.075304564,
				"element": "C" 
			},
			{
				"x": 0.967212908,
				"y": -2.6944048519,
				"z": -1.6673181872,
				"element": "C" 
			},
			{
				"x": 0.4221384222,
				"y": 0.657088872,
				"z": 1.1913682759,
				"element": "H" 
			},
			{
				"x": 1.9020486643,
				"y": 0.6535434269,
				"z": 0.2317974183,
				"element": "H" 
			},
			{
				"x": 1.7971291821,
				"y": 1.6465275963,
				"z": 1.6905769254,
				"element": "H" 
			},
			{
				"x": 3.1675153122,
				"y": -0.3307485307,
				"z": 2.1386073868,
				"element": "H" 
			},
			{
				"x": 0.4877548028,
				"y": -0.5187269325,
				"z": 3.6172647796,
				"element": "H" 
			},
			{
				"x": 2.0220692513,
				"y": -1.2128073859,
				"z": 4.1588128091,
				"element": "H" 
			},
			{
				"x": 1.8377962876,
				"y": 0.5400865232,
				"z": 4.0133277372,
				"element": "H" 
			},
			{
				"x": 2.382749243,
				"y": -1.8702324582,
				"z": 0.4780724923,
				"element": "H" 
			},
			{
				"x": 2.440883808,
				"y": -2.593731303,
				"z": 2.0688684181,
				"element": "H" 
			},
			{
				"x": -0.0717653725,
				"y": -2.3675993872,
				"z": 2.2529648322,
				"element": "H" 
			},
			{
				"x": 0.5530168792,
				"y": -3.5144912034,
				"z": 1.0900966269,
				"element": "H" 
			},
			{
				"x": -3.0542037782,
				"y": -0.3402132201,
				"z": 1.7980157303,
				"element": "H" 
			},
			{
				"x": -2.3452506727,
				"y": -1.8364693708,
				"z": 2.4054194846,
				"element": "H" 
			},
			{
				"x": -1.4552471697,
				"y": -0.3133798282,
				"z": 2.5407205222,
				"element": "H" 
			},
			{
				"x": -2.9659751637,
				"y": -0.1463424577,
				"z": -0.8236245889,
				"element": "H" 
			},
			{
				"x": -0.5150309678,
				"y": -1.7788408747,
				"z": -3.6224684753,
				"element": "H" 
			},
			{
				"x": -4.0821938849,
				"y": 1.5642946843,
				"z": -2.7868950381,
				"element": "H" 
			},
			{
				"x": 0.7118940005,
				"y": -3.0669920339,
				"z": -2.6615063082,
				"element": "H" 
			},
			{
				"x": 1.2308032048,
				"y": -3.5641719547,
				"z": -1.0584594718,
				"element": "H" 
			},
			{
				"x": 1.8711545368,
				"y": -2.0823666554,
				"z": -1.7744861181,
				"element": "H" 
			}
		],
		 "valence_orbital": [ 
			{
				"type": "occ",
				"energy": -0.30862,
				"method": "rhf"
			},
			{
				"type": "occ",
				"energy": -0.29495,
				"method": "rhf"
			},
			{
				"type": "occ",
				"energy": -0.27181,
				"method": "rhf"
			},
			{
				"type": "occ",
				"energy": -0.23828,
				"method": "rhf"
			},
			{
				"type": "occ",
				"energy": -0.21236,
				"method": "rhf"
			},
			{
				"type": "unocc",
				"energy": -0.06703,
				"method": "rhf"
			},
			{
				"type": "unocc",
				"energy": 0.01811,
				"method": "rhf"
			},
			{
				"type": "unocc",
				"energy": 0.03673,
				"method": "rhf"
			},
			{
				"type": "unocc",
				"energy": 0.04947,
				"method": "rhf"
			},
			{
				"type": "unocc",
				"energy": 0.05827,
				"method": "rhf"
			}
		],
		"cosmo_sigma_profile": { 
			"-0.025": 0.0,
			"-0.024": 0.0,
			"-0.023": 0.0,
			"-0.022": 0.0,
			"-0.021": 0.0,
			"-0.02": 0.0,
			"-0.019": 0.0,
			"-0.018": 0.665955044818,
			"-0.017": 0.901013536661,
			"-0.016": 1.03383039933,
			"-0.015": 0.766079968632,
			"-0.014": 0.479477839125,
			"-0.013": 0.170252880434,
			"-0.012": 0.66858176262,
			"-0.011": 1.59749705846,
			"-0.01": 0.717308019763,
			"-0.009": 1.57943257756,
			"-0.008": 3.19788513789,
			"-0.007": 5.68370195898,
			"-0.006": 10.2740937797,
			"-0.005": 18.1520168974,
			"-0.004": 22.8970036535,
			"-0.003": 32.4684419052,
			"-0.002": 38.085480809,
			"-0.001": 38.0582678623,
			"0.0": 29.4576547835,
			"0.001": 25.544989268,
			"0.002": 18.5869336218,
			"0.003": 10.438345149,
			"0.004": 6.96164527542,
			"0.005": 7.79529362376,
			"0.006": 5.74879144728,
			"0.007": 5.85887313378,
			"0.008": 5.55984705806,
			"0.009": 5.62382084475,
			"0.01": 6.26754085773,
			"0.011": 6.75090113188,
			"0.012": 8.1781179943,
			"0.013": 3.35143238011,
			"0.014": 1.3586371698,
			"0.015": 0.0148920335869,
			"0.016": 0.0,
			"0.017": 0.0,
			"0.018": 0.0,
			"0.019": 0.0,
			"0.02": 0.0,
			"0.021": 0.0,
			"0.022": 0.0,
			"0.023": 0.0,
			"0.024": 0.0,
			"0.025": 0.0
		}
	}
}
