{
	 "smiles": "CC(C)(C)OC(=O)NC1=C(N)C=C(C=C1)C(F)(F)F", 
	 "Tm": 414.15, 
	 "num_atms": 34, 
	 "gaussian": { 
		 "optdone": 1, 
		 "sigma_profile": "yes", 
		 "theory": "DFT", 
		 "functional": "B3LYP", 
		 "basiset": "6-31G**", 
		 "properties": { 
			 "R2extent": 7354.5118, 
			 "electric_dipole_moment_norm": 3.00887694996, 
			 "electric_quadrupole_moment_norm": 17.7047599538, 
			 "total_energy": -1025.83978986, 
			 "HOMO_LUMO_gap": 0.18847, 
			 "cosmo_polarized_energy": -13.39, 
			 "cosmo_cavitation_energy": 38.47, 
			 "cosmo_dispersion_energy": -25.77, 
			 "cosmo_repulsion_energy": 1.93, 
			 "cosmo_total_nonelectrostatic_energy": 14.63, 
			 "SMD_solvation_energy": 8.57 
		},
		"coords": [
			{
				"x": 0.5308110318,
				"y": -0.9895984928,
				"z": 3.7435061247,
				"element": "C" 
			},
			{
				"x": -0.493422983,
				"y": -1.0837341943,
				"z": 2.6087537789,
				"element": "C" 
			},
			{
				"x": -0.9715346292,
				"y": -2.5194348524,
				"z": 2.372591204,
				"element": "C" 
			},
			{
				"x": -1.6797456012,
				"y": -0.149989947,
				"z": 2.8592086014,
				"element": "C" 
			},
			{
				"x": 0.0836837404,
				"y": -0.5382036259,
				"z": 1.3605150163,
				"element": "O" 
			},
			{
				"x": 1.1450885917,
				"y": -1.1366757081,
				"z": 0.7680349493,
				"element": "C" 
			},
			{
				"x": 1.7904782515,
				"y": -2.0682173904,
				"z": 1.2144009353,
				"element": "O" 
			},
			{
				"x": 1.4540116657,
				"y": -0.5282520649,
				"z": -0.4302526131,
				"element": "N" 
			},
			{
				"x": 0.6635282411,
				"y": 0.3541070276,
				"z": -1.2253820132,
				"element": "C" 
			},
			{
				"x": 0.3560771911,
				"y": 1.668046224,
				"z": -0.7953883192,
				"element": "C" 
			},
			{
				"x": 0.7937057466,
				"y": 2.1476654961,
				"z": 0.4315145187,
				"element": "N" 
			},
			{
				"x": -0.3469159076,
				"y": 2.5025852799,
				"z": -1.6803511727,
				"element": "C" 
			},
			{
				"x": -0.7123541186,
				"y": 2.0675708773,
				"z": -2.9514839139,
				"element": "C" 
			},
			{
				"x": -0.4009115231,
				"y": 0.7740600261,
				"z": -3.3757654846,
				"element": "C" 
			},
			{
				"x": 0.2774860832,
				"y": -0.0685400148,
				"z": -2.5004787722,
				"element": "C" 
			},
			{
				"x": -1.3971450476,
				"y": 3.0195815791,
				"z": -3.8930285067,
				"element": "C" 
			},
			{
				"x": -0.5068828099,
				"y": 3.6939043122,
				"z": -4.6590677322,
				"element": "F" 
			},
			{
				"x": -2.2314374585,
				"y": 2.376928371,
				"z": -4.7407510918,
				"element": "F" 
			},
			{
				"x": -2.1265404399,
				"y": 3.9499405816,
				"z": -3.2348151254,
				"element": "F" 
			},
			{
				"x": 0.0639471016,
				"y": -1.3014794372,
				"z": 4.6833403348,
				"element": "H" 
			},
			{
				"x": 1.3915040403,
				"y": -1.6286337108,
				"z": 3.5465970456,
				"element": "H" 
			},
			{
				"x": 0.8751763357,
				"y": 0.0426708446,
				"z": 3.8662607663,
				"element": "H" 
			},
			{
				"x": -1.5033254938,
				"y": -2.8762833738,
				"z": 3.2602808561,
				"element": "H" 
			},
			{
				"x": -0.1315394773,
				"y": -3.1857126798,
				"z": 2.1753093678,
				"element": "H" 
			},
			{
				"x": -1.6632448308,
				"y": -2.5555480881,
				"z": 1.5252120882,
				"element": "H" 
			},
			{
				"x": -2.2075447517,
				"y": -0.4526439514,
				"z": 3.7681929258,
				"element": "H" 
			},
			{
				"x": -1.342774073,
				"y": 0.8832995018,
				"z": 2.9867344708,
				"element": "H" 
			},
			{
				"x": -2.3820317378,
				"y": -0.1826620957,
				"z": 2.0216577346,
				"element": "H" 
			},
			{
				"x": 2.1922496146,
				"y": -1.0252519896,
				"z": -0.9096309534,
				"element": "H" 
			},
			{
				"x": 0.7905214161,
				"y": 1.4597348687,
				"z": 1.1725738507,
				"element": "H" 
			},
			{
				"x": 0.3632579303,
				"y": 3.0172459668,
				"z": 0.7149293491,
				"element": "H" 
			},
			{
				"x": -0.599615451,
				"y": 3.5104761911,
				"z": -1.3659064253,
				"element": "H" 
			},
			{
				"x": -0.6968420348,
				"y": 0.4296267895,
				"z": -4.359519089,
				"element": "H" 
			},
			{
				"x": 0.5184813873,
				"y": -1.0840823205,
				"z": -2.8023927054,
				"element": "H" 
			}
		],
		 "valence_orbital": [ 
			{
				"type": "occ",
				"energy": -0.3047,
				"method": "rhf"
			},
			{
				"type": "occ",
				"energy": -0.29418,
				"method": "rhf"
			},
			{
				"type": "occ",
				"energy": -0.27774,
				"method": "rhf"
			},
			{
				"type": "occ",
				"energy": -0.24902,
				"method": "rhf"
			},
			{
				"type": "occ",
				"energy": -0.21391,
				"method": "rhf"
			},
			{
				"type": "unocc",
				"energy": -0.02544,
				"method": "rhf"
			},
			{
				"type": "unocc",
				"energy": -0.00109,
				"method": "rhf"
			},
			{
				"type": "unocc",
				"energy": 0.0432,
				"method": "rhf"
			},
			{
				"type": "unocc",
				"energy": 0.06182,
				"method": "rhf"
			},
			{
				"type": "unocc",
				"energy": 0.08162,
				"method": "rhf"
			}
		],
		"cosmo_sigma_profile": { 
			"-0.025": 0.0,
			"-0.024": 0.0,
			"-0.023": 0.0,
			"-0.022": 0.0,
			"-0.021": 0.0,
			"-0.02": 0.0,
			"-0.019": 0.0,
			"-0.018": 0.0,
			"-0.017": 0.0,
			"-0.016": 0.0,
			"-0.015": 0.279151409157,
			"-0.014": 0.905565279684,
			"-0.013": 2.3842303564,
			"-0.012": 2.45355545677,
			"-0.011": 2.19111953745,
			"-0.01": 2.65887248994,
			"-0.009": 2.81020459028,
			"-0.008": 3.80255646202,
			"-0.007": 6.03749315881,
			"-0.006": 7.12372851047,
			"-0.005": 10.5832630398,
			"-0.004": 23.223434752,
			"-0.003": 20.5094730048,
			"-0.002": 21.8264494823,
			"-0.001": 24.1317644701,
			"0.0": 31.2796021075,
			"0.001": 24.6989107657,
			"0.002": 24.5009814111,
			"0.003": 42.4700768401,
			"0.004": 20.4588598355,
			"0.005": 5.59701669921,
			"0.006": 3.36338354479,
			"0.007": 3.70225560361,
			"0.008": 2.01167399201,
			"0.009": 2.16947951143,
			"0.01": 2.18635676772,
			"0.011": 2.67506370441,
			"0.012": 2.92630734695,
			"0.013": 3.82735918715,
			"0.014": 0.796492778771,
			"0.015": 0.0,
			"0.016": 0.0,
			"0.017": 0.0,
			"0.018": 0.0,
			"0.019": 0.0,
			"0.02": 0.0,
			"0.021": 0.0,
			"0.022": 0.0,
			"0.023": 0.0,
			"0.024": 0.0,
			"0.025": 0.0
		}
	}
}
