{
	 "smiles": "ClCC(=O)NC1=C(Cl)C(Cl)=CC=C1", 
	 "Tm": 378.15, 
	 "num_atms": 19, 
	 "gaussian": { 
		 "optdone": 1, 
		 "sigma_profile": "yes", 
		 "theory": "DFT", 
		 "functional": "B3LYP", 
		 "basiset": "6-31G**", 
		 "properties": { 
			 "R2extent": 4133.4575, 
			 "electric_dipole_moment_norm": 3.23140136164, 
			 "electric_quadrupole_moment_norm": 11.9081154496, 
			 "total_energy": -1819.02334837, 
			 "HOMO_LUMO_gap": 0.19965, 
			 "cosmo_polarized_energy": -11.17, 
			 "cosmo_cavitation_energy": 28.57, 
			 "cosmo_dispersion_energy": -21.09, 
			 "cosmo_repulsion_energy": 1.68, 
			 "cosmo_total_nonelectrostatic_energy": 9.15, 
			 "SMD_solvation_energy": 4.82 
		},
		"coords": [
			{
				"x": 3.1173740027,
				"y": 2.0605234692,
				"z": 0.9694413043,
				"element": "Cl" 
			},
			{
				"x": 1.458304002,
				"y": 1.744714027,
				"z": 1.6313076021,
				"element": "C" 
			},
			{
				"x": 0.3802524009,
				"y": 2.1753850729,
				"z": 0.6409511247,
				"element": "C" 
			},
			{
				"x": 0.0234733856,
				"y": 3.3382343683,
				"z": 0.5730216732,
				"element": "O" 
			},
			{
				"x": -0.2302464623,
				"y": 1.2116580728,
				"z": -0.1430518019,
				"element": "N" 
			},
			{
				"x": -0.0240222445,
				"y": -0.1756826846,
				"z": -0.2538729774,
				"element": "C" 
			},
			{
				"x": -1.1440399936,
				"y": -1.0308737519,
				"z": -0.3595557259,
				"element": "C" 
			},
			{
				"x": -2.7494286961,
				"y": -0.3431550264,
				"z": -0.3145726821,
				"element": "Cl" 
			},
			{
				"x": -0.9595502779,
				"y": -2.4118846611,
				"z": -0.5025519776,
				"element": "C" 
			},
			{
				"x": -2.3246349324,
				"y": -3.4914738118,
				"z": -0.6398668477,
				"element": "Cl" 
			},
			{
				"x": 0.3260262499,
				"y": -2.955302972,
				"z": -0.5266133618,
				"element": "C" 
			},
			{
				"x": 1.4275388247,
				"y": -2.1101194538,
				"z": -0.4317213788,
				"element": "C" 
			},
			{
				"x": 1.2603911699,
				"y": -0.7324748607,
				"z": -0.3176001375,
				"element": "C" 
			},
			{
				"x": 1.4127420765,
				"y": 0.6910417595,
				"z": 1.9030059307,
				"element": "H" 
			},
			{
				"x": 1.3528268799,
				"y": 2.3754515721,
				"z": 2.5122448669,
				"element": "H" 
			},
			{
				"x": -1.044138976,
				"y": 1.5870050958,
				"z": -0.6173831669,
				"element": "H" 
			},
			{
				"x": 0.4463939506,
				"y": -4.0271715486,
				"z": -0.6311979073,
				"element": "H" 
			},
			{
				"x": 2.4290747487,
				"y": -2.5258766068,
				"z": -0.4726310267,
				"element": "H" 
			},
			{
				"x": 2.1235638913,
				"y": -0.0776980598,
				"z": -0.3033535103,
				"element": "H" 
			}
		],
		 "valence_orbital": [ 
			{
				"type": "occ",
				"energy": -0.3169,
				"method": "rhf"
			},
			{
				"type": "occ",
				"energy": -0.31088,
				"method": "rhf"
			},
			{
				"type": "occ",
				"energy": -0.27563,
				"method": "rhf"
			},
			{
				"type": "occ",
				"energy": -0.26573,
				"method": "rhf"
			},
			{
				"type": "occ",
				"energy": -0.25075,
				"method": "rhf"
			},
			{
				"type": "unocc",
				"energy": -0.0511,
				"method": "rhf"
			},
			{
				"type": "unocc",
				"energy": -0.03907,
				"method": "rhf"
			},
			{
				"type": "unocc",
				"energy": -0.02167,
				"method": "rhf"
			},
			{
				"type": "unocc",
				"energy": -0.0125,
				"method": "rhf"
			},
			{
				"type": "unocc",
				"energy": 0.04467,
				"method": "rhf"
			}
		],
		"cosmo_sigma_profile": { 
			"-0.025": 0.0,
			"-0.024": 0.0,
			"-0.023": 0.0,
			"-0.022": 0.0,
			"-0.021": 0.0,
			"-0.02": 0.0,
			"-0.019": 0.0,
			"-0.018": 0.0,
			"-0.017": 0.0,
			"-0.016": 0.0,
			"-0.015": 0.0,
			"-0.014": 0.146214379214,
			"-0.013": 0.83629425246,
			"-0.012": 0.980951307771,
			"-0.011": 0.663629602351,
			"-0.01": 0.879033984123,
			"-0.009": 2.64368127649,
			"-0.008": 8.04898099428,
			"-0.007": 10.6897400204,
			"-0.006": 11.4790833521,
			"-0.005": 9.77654517193,
			"-0.004": 9.923010297,
			"-0.003": 11.1760358461,
			"-0.002": 14.4362705424,
			"-0.001": 18.4972013741,
			"0.0": 24.7557416268,
			"0.001": 20.9554329719,
			"0.002": 21.7615909758,
			"0.003": 19.6427910065,
			"0.004": 19.4650150414,
			"0.005": 10.6272436502,
			"0.006": 3.18260662304,
			"0.007": 1.22308554082,
			"0.008": 0.874887378391,
			"0.009": 1.51282056241,
			"0.01": 1.3974322386,
			"0.011": 3.34125290036,
			"0.012": 5.27272033847,
			"0.013": 1.75201169694,
			"0.014": 0.0259933996183,
			"0.015": 0.0,
			"0.016": 0.0,
			"0.017": 0.0,
			"0.018": 0.0,
			"0.019": 0.0,
			"0.02": 0.0,
			"0.021": 0.0,
			"0.022": 0.0,
			"0.023": 0.0,
			"0.024": 0.0,
			"0.025": 0.0
		}
	}
}
