{
	 "smiles": "NCC1=CNN=N1", 
	 "Tm": 485.15, 
	 "num_atms": 13, 
	 "gaussian": { 
		 "optdone": 1, 
		 "sigma_profile": "yes", 
		 "theory": "DFT", 
		 "functional": "B3LYP", 
		 "basiset": "6-31G**", 
		 "properties": { 
			 "R2extent": 1537.6685, 
			 "electric_dipole_moment_norm": 3.50129121611, 
			 "electric_quadrupole_moment_norm": 18.6830313849, 
			 "total_energy": -336.889955027, 
			 "HOMO_LUMO_gap": 0.24156, 
			 "cosmo_polarized_energy": -15.85, 
			 "cosmo_cavitation_energy": 17.01, 
			 "cosmo_dispersion_energy": -13.0, 
			 "cosmo_repulsion_energy": 1.14, 
			 "cosmo_total_nonelectrostatic_energy": 5.15, 
			 "SMD_solvation_energy": 0.98 
		},
		"coords": [
			{
				"x": -1.1408481577,
				"y": -1.7374151712,
				"z": 2.5368091472,
				"element": "N" 
			},
			{
				"x": 0.063268583,
				"y": -1.52165175,
				"z": 1.7244017977,
				"element": "C" 
			},
			{
				"x": 0.5344634969,
				"y": -0.1043363254,
				"z": 1.8585320809,
				"element": "C" 
			},
			{
				"x": -0.1964168222,
				"y": 1.0333952135,
				"z": 2.1282081096,
				"element": "C" 
			},
			{
				"x": 0.7330774843,
				"y": 2.022106148,
				"z": 2.1173297571,
				"element": "N" 
			},
			{
				"x": 1.9689332185,
				"y": 1.5424386157,
				"z": 1.8613530784,
				"element": "N" 
			},
			{
				"x": 1.8458430208,
				"y": 0.2525155034,
				"z": 1.7072037133,
				"element": "N" 
			},
			{
				"x": -0.8923779681,
				"y": -1.722330559,
				"z": 3.523527586,
				"element": "H" 
			},
			{
				"x": -1.5213645765,
				"y": -2.6611451757,
				"z": 2.3487277344,
				"element": "H" 
			},
			{
				"x": 0.9121656473,
				"y": -2.1843913017,
				"z": 1.9563467516,
				"element": "H" 
			},
			{
				"x": -0.2049681869,
				"y": -1.7208913515,
				"z": 0.6784861254,
				"element": "H" 
			},
			{
				"x": -1.2448554618,
				"y": 1.1933308993,
				"z": 2.3187068239,
				"element": "H" 
			},
			{
				"x": 0.6112797222,
				"y": 3.0107752546,
				"z": 2.2814672946,
				"element": "H" 
			}
		],
		 "valence_orbital": [ 
			{
				"type": "occ",
				"energy": -0.32164,
				"method": "rhf"
			},
			{
				"type": "occ",
				"energy": -0.2939,
				"method": "rhf"
			},
			{
				"type": "occ",
				"energy": -0.26189,
				"method": "rhf"
			},
			{
				"type": "occ",
				"energy": -0.2546,
				"method": "rhf"
			},
			{
				"type": "occ",
				"energy": -0.23858,
				"method": "rhf"
			},
			{
				"type": "unocc",
				"energy": 0.00298,
				"method": "rhf"
			},
			{
				"type": "unocc",
				"energy": 0.04851,
				"method": "rhf"
			},
			{
				"type": "unocc",
				"energy": 0.07503,
				"method": "rhf"
			},
			{
				"type": "unocc",
				"energy": 0.08887,
				"method": "rhf"
			},
			{
				"type": "unocc",
				"energy": 0.13596,
				"method": "rhf"
			}
		],
		"cosmo_sigma_profile": { 
			"-0.025": 0.0,
			"-0.024": 0.0,
			"-0.023": 0.0,
			"-0.022": 0.0,
			"-0.021": 0.0,
			"-0.02": 0.0,
			"-0.019": 0.0,
			"-0.018": 0.735903077608,
			"-0.017": 1.87924094493,
			"-0.016": 1.23394765146,
			"-0.015": 1.2961684793,
			"-0.014": 1.11527327548,
			"-0.013": 0.799958346951,
			"-0.012": 1.07338982606,
			"-0.011": 1.16651325318,
			"-0.01": 3.64778682879,
			"-0.009": 5.19811560557,
			"-0.008": 5.16121979268,
			"-0.007": 5.26736907038,
			"-0.006": 4.18383614259,
			"-0.005": 5.71065602781,
			"-0.004": 7.2932342497,
			"-0.003": 8.63590829592,
			"-0.002": 8.33138346861,
			"-0.001": 5.95776329324,
			"0.0": 5.69439457226,
			"0.001": 7.78342921772,
			"0.002": 8.54339371667,
			"0.003": 3.20801168791,
			"0.004": 3.80096811442,
			"0.005": 3.44920196878,
			"0.006": 2.71340588742,
			"0.007": 2.06168708834,
			"0.008": 3.28721411962,
			"0.009": 2.88676292693,
			"0.01": 3.95214111893,
			"0.011": 4.32472872832,
			"0.012": 3.6593970736,
			"0.013": 3.28465341856,
			"0.014": 2.89828988545,
			"0.015": 1.86596517012,
			"0.016": 1.37381383797,
			"0.017": 0.710871690496,
			"0.018": 0.104120974241,
			"0.019": 0.0,
			"0.02": 0.0,
			"0.021": 0.0,
			"0.022": 0.0,
			"0.023": 0.0,
			"0.024": 0.0,
			"0.025": 0.0
		}
	}
}
