{
	 "smiles": "COC1=CC=C(C=C1)S(=O)(=O)NC1=NC=CS1", 
	 "Tm": 446.15, 
	 "num_atms": 27, 
	 "gaussian": { 
		 "optdone": 1, 
		 "sigma_profile": "yes", 
		 "theory": "DFT", 
		 "functional": "B3LYP", 
		 "basiset": "6-31G**", 
		 "properties": { 
			 "R2extent": 6831.5864, 
			 "electric_dipole_moment_norm": 6.03732500533, 
			 "electric_quadrupole_moment_norm": 21.0310927954, 
			 "total_energy": -1518.54250674, 
			 "HOMO_LUMO_gap": 0.18573, 
			 "cosmo_polarized_energy": -16.96, 
			 "cosmo_cavitation_energy": 34.62, 
			 "cosmo_dispersion_energy": -25.65, 
			 "cosmo_repulsion_energy": 1.9, 
			 "cosmo_total_nonelectrostatic_energy": 10.86, 
			 "SMD_solvation_energy": 4.48 
		},
		"coords": [
			{
				"x": -1.9605369496,
				"y": 3.0014450854,
				"z": -1.8874540093,
				"element": "C" 
			},
			{
				"x": -2.0998697868,
				"y": 2.4096772165,
				"z": -0.6011188243,
				"element": "O" 
			},
			{
				"x": -1.3686460921,
				"y": 1.3059551657,
				"z": -0.3088260411,
				"element": "C" 
			},
			{
				"x": -1.5648177611,
				"y": 0.7732181845,
				"z": 0.977709708,
				"element": "C" 
			},
			{
				"x": -0.8681264167,
				"y": -0.3549729329,
				"z": 1.3811285903,
				"element": "C" 
			},
			{
				"x": 0.0359448336,
				"y": -0.9581980345,
				"z": 0.4952973874,
				"element": "C" 
			},
			{
				"x": 0.2314436476,
				"y": -0.4426174918,
				"z": -0.7863494299,
				"element": "C" 
			},
			{
				"x": -0.4703622386,
				"y": 0.6903166127,
				"z": -1.1940702847,
				"element": "C" 
			},
			{
				"x": 0.9642571256,
				"y": -2.3895431952,
				"z": 1.0123265187,
				"element": "S" 
			},
			{
				"x": 1.4194127312,
				"y": -3.1005542669,
				"z": -0.1798213449,
				"element": "O" 
			},
			{
				"x": 0.2374761748,
				"y": -3.036366669,
				"z": 2.1035202102,
				"element": "O" 
			},
			{
				"x": 2.4167704538,
				"y": -1.8184900406,
				"z": 1.7150788153,
				"element": "N" 
			},
			{
				"x": 2.4745927413,
				"y": -1.0708654202,
				"z": 2.8917354793,
				"element": "C" 
			},
			{
				"x": 3.2632949002,
				"y": -0.0392758589,
				"z": 3.0062675539,
				"element": "N" 
			},
			{
				"x": 3.2274335966,
				"y": 0.4500465681,
				"z": 4.2937152285,
				"element": "C" 
			},
			{
				"x": 2.4017735417,
				"y": -0.1989039904,
				"z": 5.1607222799,
				"element": "C" 
			},
			{
				"x": 1.6217442609,
				"y": -1.5345607541,
				"z": 4.3599224439,
				"element": "S" 
			},
			{
				"x": -2.2551821247,
				"y": 2.3066399688,
				"z": -2.6832857004,
				"element": "H" 
			},
			{
				"x": -2.6307559481,
				"y": 3.8615569375,
				"z": -1.8939304079,
				"element": "H" 
			},
			{
				"x": -0.9328492816,
				"y": 3.3415423879,
				"z": -2.0639429754,
				"element": "H" 
			},
			{
				"x": -2.2759146535,
				"y": 1.2604112564,
				"z": 1.6359854693,
				"element": "H" 
			},
			{
				"x": -1.0310856122,
				"y": -0.7832945841,
				"z": 2.3634501862,
				"element": "H" 
			},
			{
				"x": 0.9135533051,
				"y": -0.9380580245,
				"z": -1.4689290768,
				"element": "H" 
			},
			{
				"x": -0.3176661912,
				"y": 1.076828573,
				"z": -2.1941121453,
				"element": "H" 
			},
			{
				"x": 3.0751756258,
				"y": -1.4826677526,
				"z": 1.0168804981,
				"element": "H" 
			},
			{
				"x": 3.8320212895,
				"y": 1.3146669079,
				"z": 4.5410164139,
				"element": "H" 
			},
			{
				"x": 2.1864188286,
				"y": 0.0324641512,
				"z": 6.1939834572,
				"element": "H" 
			}
		],
		 "valence_orbital": [ 
			{
				"type": "occ",
				"energy": -0.28465,
				"method": "rhf"
			},
			{
				"type": "occ",
				"energy": -0.28373,
				"method": "rhf"
			},
			{
				"type": "occ",
				"energy": -0.2773,
				"method": "rhf"
			},
			{
				"type": "occ",
				"energy": -0.24913,
				"method": "rhf"
			},
			{
				"type": "occ",
				"energy": -0.22758,
				"method": "rhf"
			},
			{
				"type": "unocc",
				"energy": -0.04185,
				"method": "rhf"
			},
			{
				"type": "unocc",
				"energy": -0.02752,
				"method": "rhf"
			},
			{
				"type": "unocc",
				"energy": -0.01786,
				"method": "rhf"
			},
			{
				"type": "unocc",
				"energy": 0.02086,
				"method": "rhf"
			},
			{
				"type": "unocc",
				"energy": 0.0464,
				"method": "rhf"
			}
		],
		"cosmo_sigma_profile": { 
			"-0.025": 0.0,
			"-0.024": 0.0,
			"-0.023": 0.0,
			"-0.022": 0.0,
			"-0.021": 0.0,
			"-0.02": 0.0,
			"-0.019": 0.0,
			"-0.018": 0.0,
			"-0.017": 0.0631504807727,
			"-0.016": 0.66933035281,
			"-0.015": 1.15840560823,
			"-0.014": 0.582843189193,
			"-0.013": 0.771500134578,
			"-0.012": 0.914101217234,
			"-0.011": 0.814425149838,
			"-0.01": 1.20149135366,
			"-0.009": 3.02479544148,
			"-0.008": 5.34975832911,
			"-0.007": 13.5431935834,
			"-0.006": 18.7014791577,
			"-0.005": 18.8619987292,
			"-0.004": 17.4337615468,
			"-0.003": 16.7032454135,
			"-0.002": 11.8765685911,
			"-0.001": 15.6887616819,
			"0.0": 16.6867280133,
			"0.001": 24.3762596572,
			"0.002": 29.8079496574,
			"0.003": 20.2460505843,
			"0.004": 10.6828328539,
			"0.005": 6.56300859349,
			"0.006": 7.48005145662,
			"0.007": 5.84209611241,
			"0.008": 6.04155722345,
			"0.009": 7.25693453113,
			"0.01": 9.90972951335,
			"0.011": 4.94616059753,
			"0.012": 0.862999167106,
			"0.013": 0.880651378446,
			"0.014": 0.775153611901,
			"0.015": 0.0523205879276,
			"0.016": 0.0,
			"0.017": 0.0,
			"0.018": 0.0,
			"0.019": 0.0,
			"0.02": 0.0,
			"0.021": 0.0,
			"0.022": 0.0,
			"0.023": 0.0,
			"0.024": 0.0,
			"0.025": 0.0
		}
	}
}
