{
	 "smiles": "O=C(C1CCNCC1)N1CCC2=C1C=CC=C2", 
	 "Tm": 341.15, 
	 "num_atms": 35, 
	 "gaussian": { 
		 "optdone": 1, 
		 "sigma_profile": "yes", 
		 "theory": "DFT", 
		 "functional": "B3LYP", 
		 "basiset": "6-31G**", 
		 "properties": { 
			 "R2extent": 5314.8312, 
			 "electric_dipole_moment_norm": 3.42541406986, 
			 "electric_quadrupole_moment_norm": 6.03460078298, 
			 "total_energy": -729.073634728, 
			 "HOMO_LUMO_gap": 0.19657, 
			 "cosmo_polarized_energy": -12.97, 
			 "cosmo_cavitation_energy": 34.96, 
			 "cosmo_dispersion_energy": -25.9, 
			 "cosmo_repulsion_energy": 1.99, 
			 "cosmo_total_nonelectrostatic_energy": 11.05, 
			 "SMD_solvation_energy": 2.44 
		},
		"coords": [
			{
				"x": -1.3086525442,
				"y": 1.0754687569,
				"z": -1.4872109606,
				"element": "O" 
			},
			{
				"x": -0.5685001934,
				"y": 0.6712064397,
				"z": -0.5930829402,
				"element": "C" 
			},
			{
				"x": -1.100936256,
				"y": 0.4577404117,
				"z": 0.82652858,
				"element": "C" 
			},
			{
				"x": -1.6212242761,
				"y": -1.0047014632,
				"z": 0.963472488,
				"element": "C" 
			},
			{
				"x": -2.6763813664,
				"y": -1.0822083073,
				"z": 2.0763192466,
				"element": "C" 
			},
			{
				"x": -3.8652429246,
				"y": -0.2548459725,
				"z": 1.8143981162,
				"element": "N" 
			},
			{
				"x": -3.6235978453,
				"y": 0.8819169429,
				"z": 0.9057896434,
				"element": "C" 
			},
			{
				"x": -2.2342410131,
				"y": 1.4703392008,
				"z": 1.1524229622,
				"element": "C" 
			},
			{
				"x": 0.7499884488,
				"y": 0.3441177564,
				"z": -0.8296733304,
				"element": "N" 
			},
			{
				"x": 1.7286722461,
				"y": -0.0609245525,
				"z": 0.2088949836,
				"element": "C" 
			},
			{
				"x": 2.9708378265,
				"y": -0.5397102479,
				"z": -0.5782154902,
				"element": "C" 
			},
			{
				"x": 2.7320055159,
				"y": 0.0043989409,
				"z": -1.9672290323,
				"element": "C" 
			},
			{
				"x": 1.4151005434,
				"y": 0.4743287934,
				"z": -2.077179939,
				"element": "C" 
			},
			{
				"x": 0.9289861049,
				"y": 0.9830208669,
				"z": -3.2845444331,
				"element": "C" 
			},
			{
				"x": 1.8033396698,
				"y": 1.0175855912,
				"z": -4.3762610344,
				"element": "C" 
			},
			{
				"x": 3.1186703898,
				"y": 0.5598547181,
				"z": -4.2748455327,
				"element": "C" 
			},
			{
				"x": 3.5874076433,
				"y": 0.0450736625,
				"z": -3.0604585999,
				"element": "C" 
			},
			{
				"x": -0.295607757,
				"y": 0.6033894038,
				"z": 1.5538760267,
				"element": "H" 
			},
			{
				"x": -2.0716608943,
				"y": -1.3232337609,
				"z": 0.0158424661,
				"element": "H" 
			},
			{
				"x": -0.7936013341,
				"y": -1.6938557806,
				"z": 1.1698729331,
				"element": "H" 
			},
			{
				"x": -2.9962321775,
				"y": -2.1189355884,
				"z": 2.2269071909,
				"element": "H" 
			},
			{
				"x": -2.2109274607,
				"y": -0.76704761,
				"z": 3.0227402799,
				"element": "H" 
			},
			{
				"x": -4.6017444683,
				"y": -0.8360369867,
				"z": 1.4283088513,
				"element": "H" 
			},
			{
				"x": -4.3885966711,
				"y": 1.6460709288,
				"z": 1.0915524274,
				"element": "H" 
			},
			{
				"x": -3.6919304425,
				"y": 0.6104599483,
				"z": -0.1587933269,
				"element": "H" 
			},
			{
				"x": -2.1589859576,
				"y": 1.7639261515,
				"z": 2.2058038555,
				"element": "H" 
			},
			{
				"x": -2.1123749604,
				"y": 2.3722601439,
				"z": 0.5480120689,
				"element": "H" 
			},
			{
				"x": 1.9746836922,
				"y": 0.8001560116,
				"z": 0.8423804919,
				"element": "H" 
			},
			{
				"x": 1.317588242,
				"y": -0.8457287157,
				"z": 0.8458674778,
				"element": "H" 
			},
			{
				"x": 3.8979482978,
				"y": -0.1756363153,
				"z": -0.1251536875,
				"element": "H" 
			},
			{
				"x": 3.0285090317,
				"y": -1.6354561274,
				"z": -0.5933810865,
				"element": "H" 
			},
			{
				"x": -0.0893625523,
				"y": 1.3352461138,
				"z": -3.3566347051,
				"element": "H" 
			},
			{
				"x": 1.4440957593,
				"y": 1.4141422791,
				"z": -5.3217274612,
				"element": "H" 
			},
			{
				"x": 3.7777330554,
				"y": 0.6011515014,
				"z": -5.136854738,
				"element": "H" 
			},
			{
				"x": 4.6077346276,
				"y": -0.3194331349,
				"z": -2.9732437913,
				"element": "H" 
			}
		],
		 "valence_orbital": [ 
			{
				"type": "occ",
				"energy": -0.29017,
				"method": "rhf"
			},
			{
				"type": "occ",
				"energy": -0.24618,
				"method": "rhf"
			},
			{
				"type": "occ",
				"energy": -0.24314,
				"method": "rhf"
			},
			{
				"type": "occ",
				"energy": -0.20866,
				"method": "rhf"
			},
			{
				"type": "occ",
				"energy": -0.2045,
				"method": "rhf"
			},
			{
				"type": "unocc",
				"energy": -0.00793,
				"method": "rhf"
			},
			{
				"type": "unocc",
				"energy": 0.00056,
				"method": "rhf"
			},
			{
				"type": "unocc",
				"energy": 0.0442,
				"method": "rhf"
			},
			{
				"type": "unocc",
				"energy": 0.06847,
				"method": "rhf"
			},
			{
				"type": "unocc",
				"energy": 0.08971,
				"method": "rhf"
			}
		],
		"cosmo_sigma_profile": { 
			"-0.025": 0.0,
			"-0.024": 0.0,
			"-0.023": 0.0,
			"-0.022": 0.0,
			"-0.021": 0.0,
			"-0.02": 0.0,
			"-0.019": 0.0,
			"-0.018": 0.0,
			"-0.017": 0.0,
			"-0.016": 0.0,
			"-0.015": 0.0,
			"-0.014": 0.0,
			"-0.013": 0.0,
			"-0.012": 0.0,
			"-0.011": 0.0,
			"-0.01": 0.451277938225,
			"-0.009": 1.35367374652,
			"-0.008": 1.26521351375,
			"-0.007": 1.40144668505,
			"-0.006": 8.24727417109,
			"-0.005": 22.7690633587,
			"-0.004": 26.1359402016,
			"-0.003": 32.5413350494,
			"-0.002": 33.8119187084,
			"-0.001": 30.2982023962,
			"0.0": 21.2029841064,
			"0.001": 13.4822621505,
			"0.002": 11.0640878036,
			"0.003": 12.6015062558,
			"0.004": 10.618921047,
			"0.005": 11.3494107475,
			"0.006": 11.4814622048,
			"0.007": 4.29874269627,
			"0.008": 3.18478660089,
			"0.009": 2.07658937739,
			"0.01": 2.07769438506,
			"0.011": 2.77816970631,
			"0.012": 2.15172098775,
			"0.013": 3.37226907009,
			"0.014": 1.77077996573,
			"0.015": 0.355975442171,
			"0.016": 0.516146250243,
			"0.017": 0.191205146566,
			"0.018": 0.822223186797,
			"0.019": 0.349583893237,
			"0.02": 0.0,
			"0.021": 0.0,
			"0.022": 0.0,
			"0.023": 0.0,
			"0.024": 0.0,
			"0.025": 0.0
		}
	}
}
