{
	 "smiles": "OC(=O)C=CC1=CC=C(Cl)C=C1Cl", 
	 "Tm": 519.15, 
	 "num_atms": 19, 
	 "gaussian": { 
		 "optdone": 1, 
		 "sigma_profile": "yes", 
		 "theory": "DFT", 
		 "functional": "B3LYP", 
		 "basiset": "6-31G**", 
		 "properties": { 
			 "R2extent": 4384.6093, 
			 "electric_dipole_moment_norm": 4.81877135689, 
			 "electric_quadrupole_moment_norm": 23.963464372, 
			 "total_energy": -1417.39701429, 
			 "HOMO_LUMO_gap": 0.16537, 
			 "cosmo_polarized_energy": -16.7, 
			 "cosmo_cavitation_energy": 28.23, 
			 "cosmo_dispersion_energy": -20.73, 
			 "cosmo_repulsion_energy": 1.65, 
			 "cosmo_total_nonelectrostatic_energy": 9.15, 
			 "SMD_solvation_energy": 5.62 
		},
		"coords": [
			{
				"x": -2.3274662497,
				"y": 3.2180903516,
				"z": -3.1346445884,
				"element": "O" 
			},
			{
				"x": -2.4491794731,
				"y": 2.2524129903,
				"z": -2.1818737202,
				"element": "C" 
			},
			{
				"x": -3.5466788986,
				"y": 1.9233087553,
				"z": -1.7947542941,
				"element": "O" 
			},
			{
				"x": -1.1724506496,
				"y": 1.6702810395,
				"z": -1.6863920736,
				"element": "C" 
			},
			{
				"x": -1.2006902005,
				"y": 0.7344159927,
				"z": -0.7208915986,
				"element": "C" 
			},
			{
				"x": -0.0490217539,
				"y": 0.0461343965,
				"z": -0.137932395,
				"element": "C" 
			},
			{
				"x": 1.2037233647,
				"y": 0.0164424708,
				"z": -0.7835499084,
				"element": "C" 
			},
			{
				"x": 2.3047364373,
				"y": -0.6354827547,
				"z": -0.2461418973,
				"element": "C" 
			},
			{
				"x": 2.1671943524,
				"y": -1.292329035,
				"z": 0.978382978,
				"element": "C" 
			},
			{
				"x": 3.5397694398,
				"y": -2.1248865634,
				"z": 1.675243398,
				"element": "Cl" 
			},
			{
				"x": 0.9499619637,
				"y": -1.3026366832,
				"z": 1.6542874917,
				"element": "C" 
			},
			{
				"x": -0.1404314781,
				"y": -0.6404931735,
				"z": 1.0919658802,
				"element": "C" 
			},
			{
				"x": -1.6443325056,
				"y": -0.6746075001,
				"z": 1.994945732,
				"element": "Cl" 
			},
			{
				"x": -1.395931893,
				"y": 3.3819466472,
				"z": -3.3361550981,
				"element": "H" 
			},
			{
				"x": -0.235417205,
				"y": 2.0297044476,
				"z": -2.1073921159,
				"element": "H" 
			},
			{
				"x": -2.1828052812,
				"y": 0.4752678603,
				"z": -0.3350501964,
				"element": "H" 
			},
			{
				"x": 1.3059121353,
				"y": 0.501178324,
				"z": -1.7487835667,
				"element": "H" 
			},
			{
				"x": 3.2542773411,
				"y": -0.6469733558,
				"z": -0.7685030762,
				"element": "H" 
			},
			{
				"x": 0.8479305542,
				"y": -1.81407421,
				"z": 2.6032390491,
				"element": "H" 
			}
		],
		 "valence_orbital": [ 
			{
				"type": "occ",
				"energy": -0.32264,
				"method": "rhf"
			},
			{
				"type": "occ",
				"energy": -0.30638,
				"method": "rhf"
			},
			{
				"type": "occ",
				"energy": -0.27722,
				"method": "rhf"
			},
			{
				"type": "occ",
				"energy": -0.27585,
				"method": "rhf"
			},
			{
				"type": "occ",
				"energy": -0.25124,
				"method": "rhf"
			},
			{
				"type": "unocc",
				"energy": -0.08587,
				"method": "rhf"
			},
			{
				"type": "unocc",
				"energy": -0.03949,
				"method": "rhf"
			},
			{
				"type": "unocc",
				"energy": -0.00481,
				"method": "rhf"
			},
			{
				"type": "unocc",
				"energy": -0.00338,
				"method": "rhf"
			},
			{
				"type": "unocc",
				"energy": 0.03749,
				"method": "rhf"
			}
		],
		"cosmo_sigma_profile": { 
			"-0.025": 0.0,
			"-0.024": 0.0,
			"-0.023": 0.0,
			"-0.022": 0.0,
			"-0.021": 0.0,
			"-0.02": 0.109661808511,
			"-0.019": 1.07239298592,
			"-0.018": 1.00449931983,
			"-0.017": 1.1393316588,
			"-0.016": 1.80137776526,
			"-0.015": 1.22562035014,
			"-0.014": 0.447739818982,
			"-0.013": 0.664845961357,
			"-0.012": 1.01458614941,
			"-0.011": 1.46231425336,
			"-0.01": 2.24810223557,
			"-0.009": 3.77632731719,
			"-0.008": 5.45122323297,
			"-0.007": 7.30656236919,
			"-0.006": 6.8099460878,
			"-0.005": 5.25413645274,
			"-0.004": 6.72693696596,
			"-0.003": 11.2260669529,
			"-0.002": 13.1584183497,
			"-0.001": 19.1063481657,
			"0.0": 29.1142518782,
			"0.001": 31.5278552846,
			"0.002": 17.5821529277,
			"0.003": 16.8881381878,
			"0.004": 14.7382524054,
			"0.005": 3.00471039251,
			"0.006": 2.37358017171,
			"0.007": 2.04221916112,
			"0.008": 2.65657330681,
			"0.009": 2.9823034702,
			"0.01": 4.57327310716,
			"0.011": 5.04352014156,
			"0.012": 5.67920810734,
			"0.013": 2.22837153345,
			"0.014": 0.226354826153,
			"0.015": 0.0,
			"0.016": 0.0,
			"0.017": 0.0,
			"0.018": 0.0,
			"0.019": 0.0,
			"0.02": 0.0,
			"0.021": 0.0,
			"0.022": 0.0,
			"0.023": 0.0,
			"0.024": 0.0,
			"0.025": 0.0
		}
	}
}
