{
	 "smiles": "NNC1=CC=C(C=C1)C(O)=O", 
	 "Tm": 478.15, 
	 "num_atms": 19, 
	 "gaussian": { 
		 "optdone": 1, 
		 "sigma_profile": "yes", 
		 "theory": "DFT", 
		 "functional": "B3LYP", 
		 "basiset": "6-31G**", 
		 "properties": { 
			 "R2extent": 2671.1757, 
			 "electric_dipole_moment_norm": 7.7098179544, 
			 "electric_quadrupole_moment_norm": 22.2260741569, 
			 "total_energy": -531.491275445, 
			 "HOMO_LUMO_gap": 0.18483, 
			 "cosmo_polarized_energy": -20.86, 
			 "cosmo_cavitation_energy": 23.46, 
			 "cosmo_dispersion_energy": -17.66, 
			 "cosmo_repulsion_energy": 1.44, 
			 "cosmo_total_nonelectrostatic_energy": 7.24, 
			 "SMD_solvation_energy": 5.75 
		},
		"coords": [
			{
				"x": 0.2631593628,
				"y": 3.8758732861,
				"z": 0.2076660719,
				"element": "N" 
			},
			{
				"x": -0.1033180665,
				"y": 2.9070070775,
				"z": -0.7412413125,
				"element": "N" 
			},
			{
				"x": -0.6467661311,
				"y": 1.7085829741,
				"z": -0.2935069189,
				"element": "C" 
			},
			{
				"x": -0.5260264964,
				"y": 1.2890081535,
				"z": 1.042818827,
				"element": "C" 
			},
			{
				"x": -1.0379240153,
				"y": 0.0560341375,
				"z": 1.4291745882,
				"element": "C" 
			},
			{
				"x": -1.6818853562,
				"y": -0.791589375,
				"z": 0.5141830512,
				"element": "C" 
			},
			{
				"x": -1.8197782234,
				"y": -0.3511586139,
				"z": -0.8124744188,
				"element": "C" 
			},
			{
				"x": -1.3085162046,
				"y": 0.87096244,
				"z": -1.2150908865,
				"element": "C" 
			},
			{
				"x": -2.2651736151,
				"y": -2.114611189,
				"z": 0.8730846937,
				"element": "C" 
			},
			{
				"x": -1.8455343943,
				"y": -2.6772176315,
				"z": 2.0434827815,
				"element": "O" 
			},
			{
				"x": -3.073681987,
				"y": -2.7009294428,
				"z": 0.1882310562,
				"element": "O" 
			},
			{
				"x": 1.127599242,
				"y": 4.3192412458,
				"z": -0.0857059157,
				"element": "H" 
			},
			{
				"x": -0.4575570122,
				"y": 4.5886615637,
				"z": 0.3132384378,
				"element": "H" 
			},
			{
				"x": -0.4819630167,
				"y": 3.2427452579,
				"z": -1.6205851122,
				"element": "H" 
			},
			{
				"x": -0.0405344726,
				"y": 1.9440060604,
				"z": 1.7551972817,
				"element": "H" 
			},
			{
				"x": -0.9608553196,
				"y": -0.2175672041,
				"z": 2.4796924023,
				"element": "H" 
			},
			{
				"x": -2.339621689,
				"y": -0.993650104,
				"z": -1.5151244355,
				"element": "H" 
			},
			{
				"x": -1.415745757,
				"y": 1.1901499494,
				"z": -2.2493238711,
				"element": "H" 
			},
			{
				"x": -1.0862768477,
				"y": -2.1890485857,
				"z": 2.3896836796,
				"element": "H" 
			}
		],
		 "valence_orbital": [ 
			{
				"type": "occ",
				"energy": -0.29709,
				"method": "rhf"
			},
			{
				"type": "occ",
				"energy": -0.28376,
				"method": "rhf"
			},
			{
				"type": "occ",
				"energy": -0.26052,
				"method": "rhf"
			},
			{
				"type": "occ",
				"energy": -0.25662,
				"method": "rhf"
			},
			{
				"type": "occ",
				"energy": -0.21402,
				"method": "rhf"
			},
			{
				"type": "unocc",
				"energy": -0.02919,
				"method": "rhf"
			},
			{
				"type": "unocc",
				"energy": -0.00884,
				"method": "rhf"
			},
			{
				"type": "unocc",
				"energy": 0.05654,
				"method": "rhf"
			},
			{
				"type": "unocc",
				"energy": 0.06469,
				"method": "rhf"
			},
			{
				"type": "unocc",
				"energy": 0.07252,
				"method": "rhf"
			}
		],
		"cosmo_sigma_profile": { 
			"-0.025": 0.0,
			"-0.024": 0.0,
			"-0.023": 0.0,
			"-0.022": 0.0,
			"-0.021": 0.0,
			"-0.02": 0.0,
			"-0.019": 0.0,
			"-0.018": 0.405150406071,
			"-0.017": 0.749168038094,
			"-0.016": 0.828573387216,
			"-0.015": 1.2793235657,
			"-0.014": 0.876767427632,
			"-0.013": 2.79680722244,
			"-0.012": 3.2492555984,
			"-0.011": 6.74102130272,
			"-0.01": 6.69207161306,
			"-0.009": 6.07472412185,
			"-0.008": 5.91463089267,
			"-0.007": 5.2987263933,
			"-0.006": 5.6647723166,
			"-0.005": 7.15596777948,
			"-0.004": 8.27566365101,
			"-0.003": 7.20358287749,
			"-0.002": 6.79419600536,
			"-0.001": 7.35285963144,
			"0.0": 8.09019120179,
			"0.001": 7.95861036508,
			"0.002": 8.6150715289,
			"0.003": 10.1027901354,
			"0.004": 17.2400605777,
			"0.005": 12.4653294183,
			"0.006": 4.79341422528,
			"0.007": 3.73639027566,
			"0.008": 3.98713784645,
			"0.009": 4.21769071439,
			"0.01": 4.20959785944,
			"0.011": 6.01103783441,
			"0.012": 5.84850163682,
			"0.013": 4.37329711358,
			"0.014": 1.1226325733,
			"0.015": 0.0,
			"0.016": 0.0,
			"0.017": 0.0,
			"0.018": 0.0,
			"0.019": 0.0,
			"0.02": 0.0,
			"0.021": 0.0,
			"0.022": 0.0,
			"0.023": 0.0,
			"0.024": 0.0,
			"0.025": 0.0
		}
	}
}
