{
	 "smiles": "CC(=O)N[Si](C)(C)C", 
	 "Tm": 314.15, 
	 "num_atms": 21, 
	 "gaussian": { 
		 "optdone": 1, 
		 "sigma_profile": "yes", 
		 "theory": "DFT", 
		 "functional": "B3LYP", 
		 "basiset": "6-31G**", 
		 "properties": { 
			 "R2extent": 1517.1256, 
			 "electric_dipole_moment_norm": 3.2323205828, 
			 "electric_quadrupole_moment_norm": 7.17320775874, 
			 "total_energy": -617.930516302, 
			 "HOMO_LUMO_gap": 0.26739, 
			 "cosmo_polarized_energy": -9.9, 
			 "cosmo_cavitation_energy": 25.22, 
			 "cosmo_dispersion_energy": -15.7, 
			 "cosmo_repulsion_energy": 1.45, 
			 "cosmo_total_nonelectrostatic_energy": 10.97, 
			 "SMD_solvation_energy": 7.0 
		},
		"coords": [
			{
				"x": 0.5895526815,
				"y": 2.5260139031,
				"z": -0.4492224336,
				"element": "C" 
			},
			{
				"x": 0.5262849994,
				"y": 1.0151041521,
				"z": -0.632830009,
				"element": "C" 
			},
			{
				"x": 1.3098704771,
				"y": 0.4125647808,
				"z": -1.3589919473,
				"element": "O" 
			},
			{
				"x": -0.4619541007,
				"y": 0.3600976159,
				"z": 0.0647714685,
				"element": "N" 
			},
			{
				"x": -0.7045657091,
				"y": -1.4117013349,
				"z": -0.0109020924,
				"element": "Si" 
			},
			{
				"x": -2.1744517024,
				"y": -1.7124329318,
				"z": 1.1379917486,
				"element": "C" 
			},
			{
				"x": 0.8326251921,
				"y": -2.2951867263,
				"z": 0.6184430579,
				"element": "C" 
			},
			{
				"x": -1.1134447759,
				"y": -1.9265164045,
				"z": -1.773766912,
				"element": "C" 
			},
			{
				"x": 1.401549744,
				"y": 2.9230497797,
				"z": -1.0578246192,
				"element": "H" 
			},
			{
				"x": -0.3528298406,
				"y": 2.9955354209,
				"z": -0.752105436,
				"element": "H" 
			},
			{
				"x": 0.7662062593,
				"y": 2.782885979,
				"z": 0.6010853378,
				"element": "H" 
			},
			{
				"x": -1.063928432,
				"y": 0.9355263545,
				"z": 0.6402538614,
				"element": "H" 
			},
			{
				"x": -2.4216445496,
				"y": -2.7792698118,
				"z": 1.1727135894,
				"element": "H" 
			},
			{
				"x": -1.9606274758,
				"y": -1.3948773027,
				"z": 2.1647640989,
				"element": "H" 
			},
			{
				"x": -3.0715642401,
				"y": -1.1819665855,
				"z": 0.7994162634,
				"element": "H" 
			},
			{
				"x": 0.7191837856,
				"y": -3.3832229087,
				"z": 0.551687229,
				"element": "H" 
			},
			{
				"x": 1.0391083216,
				"y": -2.042620083,
				"z": 1.6639916107,
				"element": "H" 
			},
			{
				"x": 1.6999615173,
				"y": -2.0030476751,
				"z": 0.0201229678,
				"element": "H" 
			},
			{
				"x": -1.239903842,
				"y": -3.0125405712,
				"z": -1.8495588506,
				"element": "H" 
			},
			{
				"x": -0.3044078225,
				"y": -1.6275948519,
				"z": -2.445920596,
				"element": "H" 
			},
			{
				"x": -2.0384204873,
				"y": -1.4556007988,
				"z": -2.1234183374,
				"element": "H" 
			}
		],
		 "valence_orbital": [ 
			{
				"type": "occ",
				"energy": -0.34926,
				"method": "rhf"
			},
			{
				"type": "occ",
				"energy": -0.30285,
				"method": "rhf"
			},
			{
				"type": "occ",
				"energy": -0.29968,
				"method": "rhf"
			},
			{
				"type": "occ",
				"energy": -0.25363,
				"method": "rhf"
			},
			{
				"type": "occ",
				"energy": -0.24363,
				"method": "rhf"
			},
			{
				"type": "unocc",
				"energy": 0.02376,
				"method": "rhf"
			},
			{
				"type": "unocc",
				"energy": 0.06714,
				"method": "rhf"
			},
			{
				"type": "unocc",
				"energy": 0.07945,
				"method": "rhf"
			},
			{
				"type": "unocc",
				"energy": 0.10358,
				"method": "rhf"
			},
			{
				"type": "unocc",
				"energy": 0.11953,
				"method": "rhf"
			}
		],
		"cosmo_sigma_profile": { 
			"-0.025": 0.0,
			"-0.024": 0.0,
			"-0.023": 0.0,
			"-0.022": 0.0,
			"-0.021": 0.0,
			"-0.02": 0.0,
			"-0.019": 0.0,
			"-0.018": 0.0,
			"-0.017": 0.0,
			"-0.016": 0.0,
			"-0.015": 0.0,
			"-0.014": 0.0,
			"-0.013": 0.443684883928,
			"-0.012": 1.09118153406,
			"-0.011": 0.958948087074,
			"-0.01": 1.37779360311,
			"-0.009": 1.16947799294,
			"-0.008": 1.6577377474,
			"-0.007": 1.43714531009,
			"-0.006": 4.81285628339,
			"-0.005": 6.04839327135,
			"-0.004": 13.2484930134,
			"-0.003": 21.1619852416,
			"-0.002": 21.6162844787,
			"-0.001": 24.6759268718,
			"0.0": 19.5863919139,
			"0.001": 23.9472625607,
			"0.002": 13.5382154968,
			"0.003": 8.79514635729,
			"0.004": 4.2735935196,
			"0.005": 3.45169237697,
			"0.006": 2.19653726826,
			"0.007": 1.70338652186,
			"0.008": 2.37421402789,
			"0.009": 1.99903064427,
			"0.01": 1.34604756926,
			"0.011": 1.03674298266,
			"0.012": 1.85871659796,
			"0.013": 2.18400862524,
			"0.014": 3.2219024913,
			"0.015": 1.60895200921,
			"0.016": 0.166367532017,
			"0.017": 0.0,
			"0.018": 0.0,
			"0.019": 0.0,
			"0.02": 0.0,
			"0.021": 0.0,
			"0.022": 0.0,
			"0.023": 0.0,
			"0.024": 0.0,
			"0.025": 0.0
		}
	}
}
