{
	 "smiles": "OC(=O)C1=CC2=C(NC(=O)CCC2)C=C1", 
	 "Tm": 541.15, 
	 "num_atms": 26, 
	 "gaussian": { 
		 "optdone": 1, 
		 "sigma_profile": "yes", 
		 "theory": "DFT", 
		 "functional": "B3LYP", 
		 "basiset": "6-31G**", 
		 "properties": { 
			 "R2extent": 4607.3737, 
			 "electric_dipole_moment_norm": 2.42407051053, 
			 "electric_quadrupole_moment_norm": 29.9902638578, 
			 "total_energy": -706.255291915, 
			 "HOMO_LUMO_gap": 0.18019, 
			 "cosmo_polarized_energy": -21.07, 
			 "cosmo_cavitation_energy": 29.31, 
			 "cosmo_dispersion_energy": -21.88, 
			 "cosmo_repulsion_energy": 1.69, 
			 "cosmo_total_nonelectrostatic_energy": 9.12, 
			 "SMD_solvation_energy": 6.13 
		},
		"coords": [
			{
				"x": -0.6656773336,
				"y": -0.0463574164,
				"z": -4.4869427336,
				"element": "O" 
			},
			{
				"x": 0.1599847971,
				"y": 0.1934638161,
				"z": -3.4306568471,
				"element": "C" 
			},
			{
				"x": 1.3468416457,
				"y": -0.0133869627,
				"z": -3.5385968215,
				"element": "O" 
			},
			{
				"x": -0.4759341156,
				"y": 0.7076787536,
				"z": -2.179923267,
				"element": "C" 
			},
			{
				"x": 0.2602413942,
				"y": 0.6279633559,
				"z": -0.9927811558,
				"element": "C" 
			},
			{
				"x": -0.2204508742,
				"y": 1.0818172207,
				"z": 0.235812282,
				"element": "C" 
			},
			{
				"x": -1.5177015406,
				"y": 1.6432194756,
				"z": 0.2732254733,
				"element": "C" 
			},
			{
				"x": -2.155098256,
				"y": 2.1560448418,
				"z": 1.4146790065,
				"element": "N" 
			},
			{
				"x": -2.0220924398,
				"y": 2.0779589194,
				"z": 2.7989421241,
				"element": "C" 
			},
			{
				"x": -2.88194003,
				"y": 2.6238088644,
				"z": 3.4760622325,
				"element": "O" 
			},
			{
				"x": -0.8501423374,
				"y": 1.384549804,
				"z": 3.4701603152,
				"element": "C" 
			},
			{
				"x": -0.0226834797,
				"y": 0.3671896554,
				"z": 2.6870591218,
				"element": "C" 
			},
			{
				"x": 0.6667337917,
				"y": 0.9694698953,
				"z": 1.4538727139,
				"element": "C" 
			},
			{
				"x": -2.2534002576,
				"y": 1.7504485575,
				"z": -0.9235575706,
				"element": "C" 
			},
			{
				"x": -1.7461778437,
				"y": 1.2957353019,
				"z": -2.1309565217,
				"element": "C" 
			},
			{
				"x": -1.5898233005,
				"y": -0.0017303695,
				"z": -4.2064255828,
				"element": "H" 
			},
			{
				"x": 1.2547056506,
				"y": 0.1962878251,
				"z": -1.0483493094,
				"element": "H" 
			},
			{
				"x": -3.0156146796,
				"y": 2.6543962985,
				"z": 1.2151001074,
				"element": "H" 
			},
			{
				"x": -1.2733487352,
				"y": 0.9345029808,
				"z": 4.3727724621,
				"element": "H" 
			},
			{
				"x": -0.1944292556,
				"y": 2.1922432577,
				"z": 3.8235656691,
				"element": "H" 
			},
			{
				"x": 0.7417195764,
				"y": -0.0257812755,
				"z": 3.3663750075,
				"element": "H" 
			},
			{
				"x": -0.6389936359,
				"y": -0.4894129126,
				"z": 2.3889781837,
				"element": "H" 
			},
			{
				"x": 1.5349986691,
				"y": 0.361805256,
				"z": 1.1824978955,
				"element": "H" 
			},
			{
				"x": 1.0624676383,
				"y": 1.9617159224,
				"z": 1.7174692418,
				"element": "H" 
			},
			{
				"x": -3.2410454723,
				"y": 2.2033443492,
				"z": -0.8949816317,
				"element": "H" 
			},
			{
				"x": -2.342339576,
				"y": 1.4372245853,
				"z": -3.0291003952,
				"element": "H" 
			}
		],
		 "valence_orbital": [ 
			{
				"type": "occ",
				"energy": -0.31064,
				"method": "rhf"
			},
			{
				"type": "occ",
				"energy": -0.27444,
				"method": "rhf"
			},
			{
				"type": "occ",
				"energy": -0.26948,
				"method": "rhf"
			},
			{
				"type": "occ",
				"energy": -0.26581,
				"method": "rhf"
			},
			{
				"type": "occ",
				"energy": -0.23543,
				"method": "rhf"
			},
			{
				"type": "unocc",
				"energy": -0.05524,
				"method": "rhf"
			},
			{
				"type": "unocc",
				"energy": -0.02698,
				"method": "rhf"
			},
			{
				"type": "unocc",
				"energy": 0.00719,
				"method": "rhf"
			},
			{
				"type": "unocc",
				"energy": 0.05118,
				"method": "rhf"
			},
			{
				"type": "unocc",
				"energy": 0.05987,
				"method": "rhf"
			}
		],
		"cosmo_sigma_profile": { 
			"-0.025": 0.0,
			"-0.024": 0.0,
			"-0.023": 0.0,
			"-0.022": 0.0,
			"-0.021": 0.0,
			"-0.02": 0.0,
			"-0.019": 0.252884188958,
			"-0.018": 0.731699943479,
			"-0.017": 0.837457515397,
			"-0.016": 0.891230406153,
			"-0.015": 0.744731662242,
			"-0.014": 1.88465447414,
			"-0.013": 2.53840294693,
			"-0.012": 2.75367499957,
			"-0.011": 2.08926205362,
			"-0.01": 1.9716697796,
			"-0.009": 3.13197471319,
			"-0.008": 2.4775385768,
			"-0.007": 4.8700392439,
			"-0.006": 10.37504829,
			"-0.005": 14.3281441215,
			"-0.004": 20.3450128638,
			"-0.003": 20.2084540422,
			"-0.002": 19.8024946801,
			"-0.001": 16.4458591717,
			"0.0": 13.407289795,
			"0.001": 10.5534332086,
			"0.002": 11.8791762611,
			"0.003": 14.4857030107,
			"0.004": 5.85713672881,
			"0.005": 2.73779922284,
			"0.006": 3.7908694212,
			"0.007": 3.24655917482,
			"0.008": 3.23612467641,
			"0.009": 5.1478508027,
			"0.01": 5.4840967129,
			"0.011": 6.95991526824,
			"0.012": 8.51382272718,
			"0.013": 7.65616239248,
			"0.014": 2.44719088582,
			"0.015": 0.141755065944,
			"0.016": 0.0,
			"0.017": 0.0,
			"0.018": 0.0,
			"0.019": 0.0,
			"0.02": 0.0,
			"0.021": 0.0,
			"0.022": 0.0,
			"0.023": 0.0,
			"0.024": 0.0,
			"0.025": 0.0
		}
	}
}
