{
	 "smiles": "CC1=CC=C(C=C1)C(Cl)=O", 
	 "Tm": 270.65, 
	 "num_atms": 17, 
	 "gaussian": { 
		 "optdone": 1, 
		 "sigma_profile": "yes", 
		 "theory": "DFT", 
		 "functional": "B3LYP", 
		 "basiset": "6-31G**", 
		 "properties": { 
			 "R2extent": 4562.2334, 
			 "electric_dipole_moment_norm": 4.84832110426, 
			 "electric_quadrupole_moment_norm": 18.632136151, 
			 "total_energy": -844.503518229, 
			 "HOMO_LUMO_gap": 0.19376, 
			 "cosmo_polarized_energy": -6.21, 
			 "cosmo_cavitation_energy": 23.08, 
			 "cosmo_dispersion_energy": -17.13, 
			 "cosmo_repulsion_energy": 1.39, 
			 "cosmo_total_nonelectrostatic_energy": 7.34, 
			 "SMD_solvation_energy": 4.67 
		},
		"coords": [
			{
				"x": -1.3806191641,
				"y": 0.2366506155,
				"z": 1.3628349698,
				"element": "C" 
			},
			{
				"x": -0.2667877529,
				"y": 1.0840903862,
				"z": 0.80047227,
				"element": "C" 
			},
			{
				"x": 1.0727459947,
				"y": 0.8163109471,
				"z": 1.1275504371,
				"element": "C" 
			},
			{
				"x": 2.1009988002,
				"y": 1.6078361983,
				"z": 0.6348487923,
				"element": "C" 
			},
			{
				"x": 1.8139444341,
				"y": 2.6974557597,
				"z": -0.2080512923,
				"element": "C" 
			},
			{
				"x": 0.4813633256,
				"y": 2.971776228,
				"z": -0.543592003,
				"element": "C" 
			},
			{
				"x": -0.5403419167,
				"y": 2.170133522,
				"z": -0.0427358839,
				"element": "C" 
			},
			{
				"x": 2.9725578221,
				"y": 3.4819377326,
				"z": -0.68612,
				"element": "C" 
			},
			{
				"x": 2.5598181681,
				"y": 4.8971682137,
				"z": -1.782863057,
				"element": "Cl" 
			},
			{
				"x": 4.1208885314,
				"y": 3.2799874728,
				"z": -0.4265503865,
				"element": "O" 
			},
			{
				"x": -2.2912998614,
				"y": 0.3209656803,
				"z": 0.7638589681,
				"element": "H" 
			},
			{
				"x": -1.0955709351,
				"y": -0.8188633191,
				"z": 1.4081269704,
				"element": "H" 
			},
			{
				"x": -1.6285935371,
				"y": 0.5488037868,
				"z": 2.3849908136,
				"element": "H" 
			},
			{
				"x": 1.3076157214,
				"y": -0.0245005606,
				"z": 1.7748770665,
				"element": "H" 
			},
			{
				"x": 3.1347450567,
				"y": 1.398780495,
				"z": 0.8873357526,
				"element": "H" 
			},
			{
				"x": 0.249333868,
				"y": 3.8055884154,
				"z": -1.1949363981,
				"element": "H" 
			},
			{
				"x": -1.5695985547,
				"y": 2.3902784263,
				"z": -0.3123470197,
				"element": "H" 
			}
		],
		 "valence_orbital": [ 
			{
				"type": "occ",
				"energy": -0.31573,
				"method": "rhf"
			},
			{
				"type": "occ",
				"energy": -0.3152,
				"method": "rhf"
			},
			{
				"type": "occ",
				"energy": -0.28938,
				"method": "rhf"
			},
			{
				"type": "occ",
				"energy": -0.2727,
				"method": "rhf"
			},
			{
				"type": "occ",
				"energy": -0.26699,
				"method": "rhf"
			},
			{
				"type": "unocc",
				"energy": -0.07323,
				"method": "rhf"
			},
			{
				"type": "unocc",
				"energy": -0.02174,
				"method": "rhf"
			},
			{
				"type": "unocc",
				"energy": 0.022,
				"method": "rhf"
			},
			{
				"type": "unocc",
				"energy": 0.02849,
				"method": "rhf"
			},
			{
				"type": "unocc",
				"energy": 0.08879,
				"method": "rhf"
			}
		],
		"cosmo_sigma_profile": { 
			"-0.025": 0.0,
			"-0.024": 0.0,
			"-0.023": 0.0,
			"-0.022": 0.0,
			"-0.021": 0.0,
			"-0.02": 0.0,
			"-0.019": 0.0,
			"-0.018": 0.0,
			"-0.017": 0.0,
			"-0.016": 0.0,
			"-0.015": 0.0,
			"-0.014": 0.0,
			"-0.013": 0.0,
			"-0.012": 0.0,
			"-0.011": 0.0,
			"-0.01": 0.0,
			"-0.009": 0.0,
			"-0.008": 0.0,
			"-0.007": 2.26182073969,
			"-0.006": 8.21296365269,
			"-0.005": 14.4523002501,
			"-0.004": 14.3495507237,
			"-0.003": 13.8751908554,
			"-0.002": 15.6250459249,
			"-0.001": 20.859660221,
			"0.0": 18.3487749966,
			"0.001": 13.1233406214,
			"0.002": 17.067997724,
			"0.003": 17.9541220063,
			"0.004": 8.38224761143,
			"0.005": 7.73732838711,
			"0.006": 3.59893050056,
			"0.007": 2.84990643624,
			"0.008": 3.56396592978,
			"0.009": 3.9389576847,
			"0.01": 0.870313217336,
			"0.011": 0.0,
			"0.012": 0.0,
			"0.013": 0.0,
			"0.014": 0.0,
			"0.015": 0.0,
			"0.016": 0.0,
			"0.017": 0.0,
			"0.018": 0.0,
			"0.019": 0.0,
			"0.02": 0.0,
			"0.021": 0.0,
			"0.022": 0.0,
			"0.023": 0.0,
			"0.024": 0.0,
			"0.025": 0.0
		}
	}
}
