{
	 "smiles": "[O-][N+](=O)C1=C(C=CC=C1)N1CCCC1=O", 
	 "Tm": 351.15, 
	 "num_atms": 25, 
	 "gaussian": { 
		 "optdone": 1, 
		 "sigma_profile": "yes", 
		 "theory": "DFT", 
		 "functional": "B3LYP", 
		 "basiset": "6-31G**", 
		 "properties": { 
			 "R2extent": 3169.9309, 
			 "electric_dipole_moment_norm": 6.41070805762, 
			 "electric_quadrupole_moment_norm": 13.3882031285, 
			 "total_energy": -722.173363964, 
			 "HOMO_LUMO_gap": 0.16334, 
			 "cosmo_polarized_energy": -16.77, 
			 "cosmo_cavitation_energy": 28.72, 
			 "cosmo_dispersion_energy": -20.68, 
			 "cosmo_repulsion_energy": 1.61, 
			 "cosmo_total_nonelectrostatic_energy": 9.65, 
			 "SMD_solvation_energy": 7.45 
		},
		"coords": [
			{
				"x": 2.9774678987,
				"y": -0.0777799277,
				"z": 1.0165180532,
				"element": "O" 
			},
			{
				"x": 2.0086021399,
				"y": 0.220788185,
				"z": 0.3238253112,
				"element": "N" 
			},
			{
				"x": 1.2553158387,
				"y": 1.1684419515,
				"z": 0.5366880732,
				"element": "O" 
			},
			{
				"x": 1.7913616809,
				"y": -0.5627938016,
				"z": -0.9053287008,
				"element": "C" 
			},
			{
				"x": 0.511145852,
				"y": -0.7707593981,
				"z": -1.4578774597,
				"element": "C" 
			},
			{
				"x": 0.4470479938,
				"y": -1.3764240759,
				"z": -2.7224055005,
				"element": "C" 
			},
			{
				"x": 1.5991680845,
				"y": -1.7728063263,
				"z": -3.3967706357,
				"element": "C" 
			},
			{
				"x": 2.8535398474,
				"y": -1.6030189482,
				"z": -2.8089314876,
				"element": "C" 
			},
			{
				"x": 2.9431482514,
				"y": -1.0012342022,
				"z": -1.5579413765,
				"element": "C" 
			},
			{
				"x": -0.6775540816,
				"y": -0.4373359932,
				"z": -0.7871772696,
				"element": "N" 
			},
			{
				"x": -1.8650689616,
				"y": 0.0816660077,
				"z": -1.4745307739,
				"element": "C" 
			},
			{
				"x": -2.7397027196,
				"y": 0.5860362809,
				"z": -0.3105943055,
				"element": "C" 
			},
			{
				"x": -2.3583910635,
				"y": -0.3386340165,
				"z": 0.8535736382,
				"element": "C" 
			},
			{
				"x": -0.9261583394,
				"y": -0.7641626593,
				"z": 0.545635665,
				"element": "C" 
			},
			{
				"x": -0.1410820332,
				"y": -1.3168436802,
				"z": 1.289462141,
				"element": "O" 
			},
			{
				"x": -0.5252401402,
				"y": -1.558726956,
				"z": -3.1670472986,
				"element": "H" 
			},
			{
				"x": 1.5115339018,
				"y": -2.2356882198,
				"z": -4.3750694835,
				"element": "H" 
			},
			{
				"x": 3.7536780387,
				"y": -1.9266300845,
				"z": -3.3208412437,
				"element": "H" 
			},
			{
				"x": 3.8980304123,
				"y": -0.838065186,
				"z": -1.0732405098,
				"element": "H" 
			},
			{
				"x": -2.3776779377,
				"y": -0.7099532058,
				"z": -2.0402744401,
				"element": "H" 
			},
			{
				"x": -1.5834424057,
				"y": 0.8727569528,
				"z": -2.1749435437,
				"element": "H" 
			},
			{
				"x": -3.803254727,
				"y": 0.5637338868,
				"z": -0.5591070116,
				"element": "H" 
			},
			{
				"x": -2.4666003548,
				"y": 1.6182371541,
				"z": -0.0726921198,
				"element": "H" 
			},
			{
				"x": -2.4043495533,
				"y": 0.1280514912,
				"z": 1.8394918387,
				"element": "H" 
			},
			{
				"x": -2.9805176227,
				"y": -1.2417552286,
				"z": 0.8871784399,
				"element": "H" 
			}
		],
		 "valence_orbital": [ 
			{
				"type": "occ",
				"energy": -0.29493,
				"method": "rhf"
			},
			{
				"type": "occ",
				"energy": -0.28715,
				"method": "rhf"
			},
			{
				"type": "occ",
				"energy": -0.26861,
				"method": "rhf"
			},
			{
				"type": "occ",
				"energy": -0.25621,
				"method": "rhf"
			},
			{
				"type": "occ",
				"energy": -0.23863,
				"method": "rhf"
			},
			{
				"type": "unocc",
				"energy": -0.07529,
				"method": "rhf"
			},
			{
				"type": "unocc",
				"energy": -0.02804,
				"method": "rhf"
			},
			{
				"type": "unocc",
				"energy": -0.00469,
				"method": "rhf"
			},
			{
				"type": "unocc",
				"energy": 0.0252,
				"method": "rhf"
			},
			{
				"type": "unocc",
				"energy": 0.07104,
				"method": "rhf"
			}
		],
		"cosmo_sigma_profile": { 
			"-0.025": 0.0,
			"-0.024": 0.0,
			"-0.023": 0.0,
			"-0.022": 0.0,
			"-0.021": 0.0,
			"-0.02": 0.0,
			"-0.019": 0.0,
			"-0.018": 0.0,
			"-0.017": 0.0,
			"-0.016": 0.0,
			"-0.015": 0.0,
			"-0.014": 0.0,
			"-0.013": 0.0,
			"-0.012": 0.0,
			"-0.011": 0.0,
			"-0.01": 0.0,
			"-0.009": 0.0115525813898,
			"-0.008": 2.96150841456,
			"-0.007": 9.33762204337,
			"-0.006": 18.130744309,
			"-0.005": 24.9502644709,
			"-0.004": 24.4579133576,
			"-0.003": 19.0938492884,
			"-0.002": 14.898982873,
			"-0.001": 12.8552119371,
			"0.0": 11.1321391363,
			"0.001": 10.6147730105,
			"0.002": 14.4504552076,
			"0.003": 8.21402811793,
			"0.004": 4.30513780685,
			"0.005": 5.06168625361,
			"0.006": 6.68138807626,
			"0.007": 11.1592277151,
			"0.008": 10.6307441054,
			"0.009": 5.94665434323,
			"0.01": 4.28024163621,
			"0.011": 2.62538761036,
			"0.012": 2.97736332652,
			"0.013": 2.79960480563,
			"0.014": 0.863342827197,
			"0.015": 0.0,
			"0.016": 0.0,
			"0.017": 0.0,
			"0.018": 0.0,
			"0.019": 0.0,
			"0.02": 0.0,
			"0.021": 0.0,
			"0.022": 0.0,
			"0.023": 0.0,
			"0.024": 0.0,
			"0.025": 0.0
		}
	}
}
