{
	 "smiles": "ClC1=CC(Br)=C(Cl)C=C1", 
	 "Tm": 307.65, 
	 "num_atms": 12, 
	 "gaussian": { 
		 "optdone": 1, 
		 "sigma_profile": "yes", 
		 "theory": "DFT", 
		 "functional": "B3LYP", 
		 "basiset": "6-31G**", 
		 "properties": { 
			 "R2extent": 3548.9813, 
			 "electric_dipole_moment_norm": 1.21017963956, 
			 "electric_quadrupole_moment_norm": 5.10846392275, 
			 "total_energy": -3722.22975599, 
			 "HOMO_LUMO_gap": 0.21451, 
			 "cosmo_polarized_energy": -3.92, 
			 "cosmo_cavitation_energy": 22.28, 
			 "cosmo_dispersion_energy": -17.29, 
			 "cosmo_repulsion_energy": 1.41, 
			 "cosmo_total_nonelectrostatic_energy": 6.4, 
			 "SMD_solvation_energy": 2.22 
		},
		"coords": [
			{
				"x": 2.4958482454,
				"y": -1.6240629915,
				"z": -1.3523778673,
				"element": "Cl" 
			},
			{
				"x": 1.38180676,
				"y": -0.5927978066,
				"z": -0.4766729723,
				"element": "C" 
			},
			{
				"x": 1.8358411465,
				"y": 0.1022361337,
				"z": 0.6413818379,
				"element": "C" 
			},
			{
				"x": 0.9538880121,
				"y": 0.9257153146,
				"z": 1.3439888023,
				"element": "C" 
			},
			{
				"x": 1.6149491217,
				"y": 1.8549326032,
				"z": 2.8626787407,
				"element": "Br" 
			},
			{
				"x": -0.376882725,
				"y": 1.0489999076,
				"z": 0.9239512696,
				"element": "C" 
			},
			{
				"x": -1.5184823361,
				"y": 2.0643139915,
				"z": 1.7664296747,
				"element": "Cl" 
			},
			{
				"x": -0.8123714075,
				"y": 0.3429691969,
				"z": -0.2005296699,
				"element": "C" 
			},
			{
				"x": 0.0600098521,
				"y": -0.4800103641,
				"z": -0.9066118623,
				"element": "C" 
			},
			{
				"x": 2.8636404497,
				"y": 0.0090866236,
				"z": 0.9685117564,
				"element": "H" 
			},
			{
				"x": -1.8440590826,
				"y": 0.4444231613,
				"z": -0.5183908238,
				"element": "H" 
			},
			{
				"x": -0.2817880361,
				"y": -1.0259057702,
				"z": -1.778258886,
				"element": "H" 
			}
		],
		 "valence_orbital": [ 
			{
				"type": "occ",
				"energy": -0.3262,
				"method": "rhf"
			},
			{
				"type": "occ",
				"energy": -0.32009,
				"method": "rhf"
			},
			{
				"type": "occ",
				"energy": -0.296,
				"method": "rhf"
			},
			{
				"type": "occ",
				"energy": -0.26963,
				"method": "rhf"
			},
			{
				"type": "occ",
				"energy": -0.2527,
				"method": "rhf"
			},
			{
				"type": "unocc",
				"energy": -0.03819,
				"method": "rhf"
			},
			{
				"type": "unocc",
				"energy": -0.03631,
				"method": "rhf"
			},
			{
				"type": "unocc",
				"energy": -0.02594,
				"method": "rhf"
			},
			{
				"type": "unocc",
				"energy": 0.02628,
				"method": "rhf"
			},
			{
				"type": "unocc",
				"energy": 0.04416,
				"method": "rhf"
			}
		],
		"cosmo_sigma_profile": { 
			"-0.025": 0.0,
			"-0.024": 0.0,
			"-0.023": 0.0,
			"-0.022": 0.0,
			"-0.021": 0.0,
			"-0.02": 0.0,
			"-0.019": 0.0,
			"-0.018": 0.0,
			"-0.017": 0.0,
			"-0.016": 0.0,
			"-0.015": 0.0,
			"-0.014": 0.0,
			"-0.013": 0.0,
			"-0.012": 0.0,
			"-0.011": 0.0,
			"-0.01": 0.0,
			"-0.009": 1.36837977271,
			"-0.008": 5.61694847238,
			"-0.007": 5.33178686819,
			"-0.006": 5.02603903973,
			"-0.005": 6.10962910618,
			"-0.004": 6.6289859995,
			"-0.003": 8.25380024985,
			"-0.002": 10.8699900376,
			"-0.001": 16.3972006142,
			"0.0": 28.4749064076,
			"0.001": 25.4705606216,
			"0.002": 17.9207247782,
			"0.003": 22.8808434555,
			"0.004": 22.9282718293,
			"0.005": 4.10986237666,
			"0.006": 0.107289863766,
			"0.007": 0.0,
			"0.008": 0.0,
			"0.009": 0.0,
			"0.01": 0.0,
			"0.011": 0.0,
			"0.012": 0.0,
			"0.013": 0.0,
			"0.014": 0.0,
			"0.015": 0.0,
			"0.016": 0.0,
			"0.017": 0.0,
			"0.018": 0.0,
			"0.019": 0.0,
			"0.02": 0.0,
			"0.021": 0.0,
			"0.022": 0.0,
			"0.023": 0.0,
			"0.024": 0.0,
			"0.025": 0.0
		}
	}
}
