{
	 "smiles": "CC(=C)CC(C)=O", 
	 "Tm": 200.55, 
	 "num_atms": 17, 
	 "gaussian": { 
		 "optdone": 1, 
		 "sigma_profile": "yes", 
		 "theory": "DFT", 
		 "functional": "B3LYP", 
		 "basiset": "6-31G**", 
		 "properties": { 
			 "R2extent": 1924.4007, 
			 "electric_dipole_moment_norm": 2.54392289781, 
			 "electric_quadrupole_moment_norm": 10.1874337632, 
			 "total_energy": -309.873407576, 
			 "HOMO_LUMO_gap": 0.22074, 
			 "cosmo_polarized_energy": -7.46, 
			 "cosmo_cavitation_energy": 20.34, 
			 "cosmo_dispersion_energy": -14.36, 
			 "cosmo_repulsion_energy": 1.22, 
			 "cosmo_total_nonelectrostatic_energy": 7.21, 
			 "SMD_solvation_energy": 5.1 
		},
		"coords": [
			{
				"x": 0.32981498,
				"y": -0.6184536328,
				"z": 3.6786026394,
				"element": "C" 
			},
			{
				"x": 0.7482969033,
				"y": -0.9824496121,
				"z": 2.2770468069,
				"element": "C" 
			},
			{
				"x": 1.1262536904,
				"y": -2.2185673667,
				"z": 1.9373415101,
				"element": "C" 
			},
			{
				"x": 0.704854487,
				"y": 0.121757742,
				"z": 1.2454323132,
				"element": "C" 
			},
			{
				"x": 1.7268589495,
				"y": 1.2492459694,
				"z": 1.4355057162,
				"element": "C" 
			},
			{
				"x": 1.8425100874,
				"y": 2.2296514477,
				"z": 0.2790799095,
				"element": "C" 
			},
			{
				"x": 2.4072881644,
				"y": 1.3650150724,
				"z": 2.4359029106,
				"element": "O" 
			},
			{
				"x": -0.6879260448,
				"y": -0.2055437088,
				"z": 3.6896702526,
				"element": "H" 
			},
			{
				"x": 0.9958409246,
				"y": 0.1493607179,
				"z": 4.0837469641,
				"element": "H" 
			},
			{
				"x": 0.3509408688,
				"y": -1.4883140903,
				"z": 4.3404189546,
				"element": "H" 
			},
			{
				"x": 1.4239321984,
				"y": -2.4695756921,
				"z": 0.9226324171,
				"element": "H" 
			},
			{
				"x": 1.1558981662,
				"y": -3.0237410342,
				"z": 2.6660072736,
				"element": "H" 
			},
			{
				"x": -0.2856370843,
				"y": 0.6057358387,
				"z": 1.242495016,
				"element": "H" 
			},
			{
				"x": 0.8328676499,
				"y": -0.2835103335,
				"z": 0.2338750559,
				"element": "H" 
			},
			{
				"x": 2.4644936963,
				"y": 3.0755975007,
				"z": 0.5747598716,
				"element": "H" 
			},
			{
				"x": 2.3007050033,
				"y": 1.7311647435,
				"z": -0.5837524598,
				"element": "H" 
			},
			{
				"x": 0.8564073596,
				"y": 2.5823264382,
				"z": -0.0426651516,
				"element": "H" 
			}
		],
		 "valence_orbital": [ 
			{
				"type": "occ",
				"energy": -0.36347,
				"method": "rhf"
			},
			{
				"type": "occ",
				"energy": -0.34577,
				"method": "rhf"
			},
			{
				"type": "occ",
				"energy": -0.3378,
				"method": "rhf"
			},
			{
				"type": "occ",
				"energy": -0.26042,
				"method": "rhf"
			},
			{
				"type": "occ",
				"energy": -0.23451,
				"method": "rhf"
			},
			{
				"type": "unocc",
				"energy": -0.01377,
				"method": "rhf"
			},
			{
				"type": "unocc",
				"energy": 0.02312,
				"method": "rhf"
			},
			{
				"type": "unocc",
				"energy": 0.08551,
				"method": "rhf"
			},
			{
				"type": "unocc",
				"energy": 0.11924,
				"method": "rhf"
			},
			{
				"type": "unocc",
				"energy": 0.13736,
				"method": "rhf"
			}
		],
		"cosmo_sigma_profile": { 
			"-0.025": 0.0,
			"-0.024": 0.0,
			"-0.023": 0.0,
			"-0.022": 0.0,
			"-0.021": 0.0,
			"-0.02": 0.0,
			"-0.019": 0.0,
			"-0.018": 0.0,
			"-0.017": 0.0,
			"-0.016": 0.0,
			"-0.015": 0.0,
			"-0.014": 0.0,
			"-0.013": 0.0,
			"-0.012": 0.0,
			"-0.011": 0.0,
			"-0.01": 0.0,
			"-0.009": 0.0,
			"-0.008": 0.0,
			"-0.007": 1.95588169239,
			"-0.006": 9.8000560677,
			"-0.005": 11.8658582808,
			"-0.004": 16.2242163685,
			"-0.003": 16.5618565197,
			"-0.002": 15.2594521273,
			"-0.001": 17.5653842201,
			"0.0": 14.5839432151,
			"0.001": 11.2990718068,
			"0.002": 6.3926735273,
			"0.003": 4.62673776417,
			"0.004": 5.76634051963,
			"0.005": 4.32440602794,
			"0.006": 4.00734977764,
			"0.007": 3.50483238544,
			"0.008": 3.09160048989,
			"0.009": 2.27160796032,
			"0.01": 2.49520232406,
			"0.011": 3.07982959045,
			"0.012": 3.50285649404,
			"0.013": 1.18781090612,
			"0.014": 0.0798010917951,
			"0.015": 0.0,
			"0.016": 0.0,
			"0.017": 0.0,
			"0.018": 0.0,
			"0.019": 0.0,
			"0.02": 0.0,
			"0.021": 0.0,
			"0.022": 0.0,
			"0.023": 0.0,
			"0.024": 0.0,
			"0.025": 0.0
		}
	}
}
