{
	 "smiles": "FC1=CC=C(C=C1)C1=NNC=C1C=O", 
	 "Tm": 435.15, 
	 "num_atms": 21, 
	 "gaussian": { 
		 "optdone": 1, 
		 "sigma_profile": "yes", 
		 "theory": "DFT", 
		 "functional": "B3LYP", 
		 "basiset": "6-31G**", 
		 "properties": { 
			 "R2extent": 4405.4857, 
			 "electric_dipole_moment_norm": 5.76336687536, 
			 "electric_quadrupole_moment_norm": 13.6929972344, 
			 "total_energy": -669.817226293, 
			 "HOMO_LUMO_gap": 0.17019, 
			 "cosmo_polarized_energy": -14.96, 
			 "cosmo_cavitation_energy": 26.34, 
			 "cosmo_dispersion_energy": -19.49, 
			 "cosmo_repulsion_energy": 1.48, 
			 "cosmo_total_nonelectrostatic_energy": 8.33, 
			 "SMD_solvation_energy": 5.48 
		},
		"coords": [
			{
				"x": 1.8873484107,
				"y": 4.7138334468,
				"z": -2.0506047092,
				"element": "F" 
			},
			{
				"x": 1.3577775406,
				"y": 3.7697005917,
				"z": -1.2448174277,
				"element": "C" 
			},
			{
				"x": 1.9742462141,
				"y": 2.52359817,
				"z": -1.1708444477,
				"element": "C" 
			},
			{
				"x": 1.4253603326,
				"y": 1.554845589,
				"z": -0.3397163043,
				"element": "C" 
			},
			{
				"x": 0.2665832242,
				"y": 1.8174015401,
				"z": 0.4188304793,
				"element": "C" 
			},
			{
				"x": -0.328340496,
				"y": 3.0855288288,
				"z": 0.3193668199,
				"element": "C" 
			},
			{
				"x": 0.216065602,
				"y": 4.0639527549,
				"z": -0.5125203691,
				"element": "C" 
			},
			{
				"x": -0.2712205103,
				"y": 0.7481363684,
				"z": 1.2845544156,
				"element": "C" 
			},
			{
				"x": 0.3695544277,
				"y": -0.4241172493,
				"z": 1.3063152654,
				"element": "N" 
			},
			{
				"x": -0.3212701143,
				"y": -1.2075577507,
				"z": 2.164783794,
				"element": "N" 
			},
			{
				"x": -1.3847606201,
				"y": -0.5926764707,
				"z": 2.7017508071,
				"element": "C" 
			},
			{
				"x": -1.4168853991,
				"y": 0.6956990992,
				"z": 2.1710072982,
				"element": "C" 
			},
			{
				"x": -2.4799556738,
				"y": 1.6104043005,
				"z": 2.5785276169,
				"element": "C" 
			},
			{
				"x": -2.6727221008,
				"y": 2.7629183456,
				"z": 2.2268454793,
				"element": "O" 
			},
			{
				"x": 2.8656155908,
				"y": 2.3296940068,
				"z": -1.7577471796,
				"element": "H" 
			},
			{
				"x": 1.8910567525,
				"y": 0.5788158544,
				"z": -0.2688625021,
				"element": "H" 
			},
			{
				"x": -1.2193763818,
				"y": 3.3061997298,
				"z": 0.8950872217,
				"element": "H" 
			},
			{
				"x": -0.2367163271,
				"y": 5.0461206095,
				"z": -0.5955265746,
				"element": "H" 
			},
			{
				"x": 0.000263707,
				"y": -2.1497568499,
				"z": 2.3272622321,
				"element": "H" 
			},
			{
				"x": -2.0444009445,
				"y": -1.0768803977,
				"z": 3.4079690649,
				"element": "H" 
			},
			{
				"x": -3.1780232344,
				"y": 1.1413394825,
				"z": 3.3075390199,
				"element": "H" 
			}
		],
		 "valence_orbital": [ 
			{
				"type": "occ",
				"energy": -0.29752,
				"method": "rhf"
			},
			{
				"type": "occ",
				"energy": -0.27304,
				"method": "rhf"
			},
			{
				"type": "occ",
				"energy": -0.25702,
				"method": "rhf"
			},
			{
				"type": "occ",
				"energy": -0.25257,
				"method": "rhf"
			},
			{
				"type": "occ",
				"energy": -0.22327,
				"method": "rhf"
			},
			{
				"type": "unocc",
				"energy": -0.05308,
				"method": "rhf"
			},
			{
				"type": "unocc",
				"energy": -0.02375,
				"method": "rhf"
			},
			{
				"type": "unocc",
				"energy": -0.00113,
				"method": "rhf"
			},
			{
				"type": "unocc",
				"energy": 0.03317,
				"method": "rhf"
			},
			{
				"type": "unocc",
				"energy": 0.05941,
				"method": "rhf"
			}
		],
		"cosmo_sigma_profile": { 
			"-0.025": 0.0,
			"-0.024": 0.0,
			"-0.023": 0.0,
			"-0.022": 0.0,
			"-0.021": 0.0,
			"-0.02": 0.0,
			"-0.019": 0.0,
			"-0.018": 0.896513313397,
			"-0.017": 1.78269158508,
			"-0.016": 1.78894274795,
			"-0.015": 1.21058291781,
			"-0.014": 0.910964978648,
			"-0.013": 0.880600846612,
			"-0.012": 1.23743463615,
			"-0.011": 2.72398631507,
			"-0.01": 4.1427386712,
			"-0.009": 2.79868237395,
			"-0.008": 2.6584204186,
			"-0.007": 6.88232206725,
			"-0.006": 8.59940440691,
			"-0.005": 7.45383200948,
			"-0.004": 8.55331475945,
			"-0.003": 8.42121034449,
			"-0.002": 8.66449139805,
			"-0.001": 9.49819443771,
			"0.0": 16.3477685708,
			"0.001": 21.4439035365,
			"0.002": 19.4545515111,
			"0.003": 20.9972859214,
			"0.004": 24.6187719269,
			"0.005": 8.02874179004,
			"0.006": 3.5383878569,
			"0.007": 2.44153212861,
			"0.008": 3.85688955602,
			"0.009": 2.86583150047,
			"0.01": 3.0854735095,
			"0.011": 3.2105657024,
			"0.012": 2.81885181543,
			"0.013": 1.12709426151,
			"0.014": 0.0446526945794,
			"0.015": 0.0,
			"0.016": 0.0,
			"0.017": 0.0,
			"0.018": 0.0,
			"0.019": 0.0,
			"0.02": 0.0,
			"0.021": 0.0,
			"0.022": 0.0,
			"0.023": 0.0,
			"0.024": 0.0,
			"0.025": 0.0
		}
	}
}
