{
	 "smiles": "CNS(=O)(=O)C1CCNCC1", 
	 "Tm": 442.15, 
	 "num_atms": 25, 
	 "gaussian": { 
		 "optdone": 1, 
		 "sigma_profile": "yes", 
		 "theory": "DFT", 
		 "functional": "B3LYP", 
		 "basiset": "6-31G**", 
		 "properties": { 
			 "R2extent": 2103.7098, 
			 "electric_dipole_moment_norm": 4.11546603315, 
			 "electric_quadrupole_moment_norm": 10.7107032967, 
			 "total_energy": -895.146086026, 
			 "HOMO_LUMO_gap": 0.27104, 
			 "cosmo_polarized_energy": -15.8, 
			 "cosmo_cavitation_energy": 26.63, 
			 "cosmo_dispersion_energy": -20.19, 
			 "cosmo_repulsion_energy": 1.57, 
			 "cosmo_total_nonelectrostatic_energy": 8.01, 
			 "SMD_solvation_energy": 0.58 
		},
		"coords": [
			{
				"x": -2.5016941965,
				"y": 0.4095307496,
				"z": 1.5630834365,
				"element": "C" 
			},
			{
				"x": -1.041682712,
				"y": 0.572753704,
				"z": 1.4893085458,
				"element": "N" 
			},
			{
				"x": -0.3438060186,
				"y": 0.7260160648,
				"z": -0.0556250616,
				"element": "S" 
			},
			{
				"x": 0.4458681848,
				"y": 1.9669744547,
				"z": -0.0483265068,
				"element": "O" 
			},
			{
				"x": -1.3990785811,
				"y": 0.5058794416,
				"z": -1.0566354119,
				"element": "O" 
			},
			{
				"x": 0.8502552612,
				"y": -0.6666970356,
				"z": -0.0790017235,
				"element": "C" 
			},
			{
				"x": 0.1695741008,
				"y": -2.0447691039,
				"z": 0.0103279898,
				"element": "C" 
			},
			{
				"x": -0.3915661259,
				"y": -2.5329554252,
				"z": -1.341055778,
				"element": "C" 
			},
			{
				"x": 0.5656783667,
				"y": -2.4541559512,
				"z": -2.4471010633,
				"element": "N" 
			},
			{
				"x": 1.1163368304,
				"y": -1.1038293745,
				"z": -2.5923700689,
				"element": "C" 
			},
			{
				"x": 1.7729987692,
				"y": -0.5574285388,
				"z": -1.3097285291,
				"element": "C" 
			},
			{
				"x": -2.7591796268,
				"y": 0.2188615372,
				"z": 2.6083848209,
				"element": "H" 
			},
			{
				"x": -3.0618247112,
				"y": 1.280825367,
				"z": 1.205567147,
				"element": "H" 
			},
			{
				"x": -2.8000364135,
				"y": -0.45483027,
				"z": 0.9694579863,
				"element": "H" 
			},
			{
				"x": -0.7025612595,
				"y": 1.3573616868,
				"z": 2.040332263,
				"element": "H" 
			},
			{
				"x": 1.4231719298,
				"y": -0.4711899678,
				"z": 0.8336329943,
				"element": "H" 
			},
			{
				"x": 0.9417039276,
				"y": -2.748909794,
				"z": 0.3504196774,
				"element": "H" 
			},
			{
				"x": -0.6043207055,
				"y": -2.0406092376,
				"z": 0.7859723418,
				"element": "H" 
			},
			{
				"x": -1.264791069,
				"y": -1.9319175533,
				"z": -1.6132085137,
				"element": "H" 
			},
			{
				"x": -0.7282010587,
				"y": -3.570847057,
				"z": -1.241788844,
				"element": "H" 
			},
			{
				"x": 1.327429587,
				"y": -3.1106510394,
				"z": -2.2818087748,
				"element": "H" 
			},
			{
				"x": 0.2994903204,
				"y": -0.4417307357,
				"z": -2.900246822,
				"element": "H" 
			},
			{
				"x": 1.8497228903,
				"y": -1.1093426362,
				"z": -3.4059818807,
				"element": "H" 
			},
			{
				"x": 2.668542864,
				"y": -1.1525973397,
				"z": -1.0842468686,
				"element": "H" 
			},
			{
				"x": 2.1047694458,
				"y": 0.4776580542,
				"z": -1.4404613559,
				"element": "H" 
			}
		],
		 "valence_orbital": [ 
			{
				"type": "occ",
				"energy": -0.31226,
				"method": "rhf"
			},
			{
				"type": "occ",
				"energy": -0.29801,
				"method": "rhf"
			},
			{
				"type": "occ",
				"energy": -0.28992,
				"method": "rhf"
			},
			{
				"type": "occ",
				"energy": -0.27041,
				"method": "rhf"
			},
			{
				"type": "occ",
				"energy": -0.21696,
				"method": "rhf"
			},
			{
				"type": "unocc",
				"energy": 0.05408,
				"method": "rhf"
			},
			{
				"type": "unocc",
				"energy": 0.05564,
				"method": "rhf"
			},
			{
				"type": "unocc",
				"energy": 0.07831,
				"method": "rhf"
			},
			{
				"type": "unocc",
				"energy": 0.08724,
				"method": "rhf"
			},
			{
				"type": "unocc",
				"energy": 0.09792,
				"method": "rhf"
			}
		],
		"cosmo_sigma_profile": { 
			"-0.025": 0.0,
			"-0.024": 0.0,
			"-0.023": 0.0,
			"-0.022": 0.0,
			"-0.021": 0.0,
			"-0.02": 0.0,
			"-0.019": 0.0,
			"-0.018": 0.0,
			"-0.017": 0.0,
			"-0.016": 0.0,
			"-0.015": 0.0272001120355,
			"-0.014": 0.897471262803,
			"-0.013": 0.909435390489,
			"-0.012": 0.786488921299,
			"-0.011": 1.11630836473,
			"-0.01": 1.47016430648,
			"-0.009": 2.57119565798,
			"-0.008": 2.93800740059,
			"-0.007": 5.77658226081,
			"-0.006": 8.69141524885,
			"-0.005": 16.608544704,
			"-0.004": 22.3960539006,
			"-0.003": 20.7932512999,
			"-0.002": 22.9895076222,
			"-0.001": 18.3072764035,
			"0.0": 9.92901005788,
			"0.001": 6.90479559708,
			"0.002": 6.72936723014,
			"0.003": 5.59082796764,
			"0.004": 4.1458033964,
			"0.005": 5.4784478809,
			"0.006": 4.6264598541,
			"0.007": 3.12904455036,
			"0.008": 4.02471717185,
			"0.009": 5.08827085427,
			"0.01": 4.60144780656,
			"0.011": 8.64406782085,
			"0.012": 6.41993227101,
			"0.013": 2.06787897832,
			"0.014": 0.683652551144,
			"0.015": 0.33367667851,
			"0.016": 0.431483398264,
			"0.017": 0.522937618995,
			"0.018": 0.70460835652,
			"0.019": 0.183277699927,
			"0.02": 0.0,
			"0.021": 0.0,
			"0.022": 0.0,
			"0.023": 0.0,
			"0.024": 0.0,
			"0.025": 0.0
		}
	}
}
