{
	 "smiles": "O=C1NCCNC2=C1C=CC=C2", 
	 "Tm": 425.15, 
	 "num_atms": 22, 
	 "gaussian": { 
		 "optdone": 1, 
		 "sigma_profile": "yes", 
		 "theory": "DFT", 
		 "functional": "B3LYP", 
		 "basiset": "6-31G**", 
		 "properties": { 
			 "R2extent": 2468.2936, 
			 "electric_dipole_moment_norm": 4.99647320817, 
			 "electric_quadrupole_moment_norm": 16.1849853834, 
			 "total_energy": -533.722013088, 
			 "HOMO_LUMO_gap": 0.17781, 
			 "cosmo_polarized_energy": -15.35, 
			 "cosmo_cavitation_energy": 24.39, 
			 "cosmo_dispersion_energy": -18.81, 
			 "cosmo_repulsion_energy": 1.48, 
			 "cosmo_total_nonelectrostatic_energy": 7.06, 
			 "SMD_solvation_energy": 3.11 
		},
		"coords": [
			{
				"x": 1.280652293,
				"y": -0.1146191549,
				"z": -2.2493343124,
				"element": "O" 
			},
			{
				"x": 0.434384177,
				"y": -0.8431446184,
				"z": -1.7273505245,
				"element": "C" 
			},
			{
				"x": 0.487145701,
				"y": -2.184559463,
				"z": -2.0196504494,
				"element": "N" 
			},
			{
				"x": -0.3912425276,
				"y": -3.2797802736,
				"z": -1.663221301,
				"element": "C" 
			},
			{
				"x": -0.760712925,
				"y": -3.2708186368,
				"z": -0.1826296713,
				"element": "C" 
			},
			{
				"x": -1.7677898772,
				"y": -2.2727024779,
				"z": 0.109801488,
				"element": "N" 
			},
			{
				"x": -1.5788123751,
				"y": -0.9004678196,
				"z": 0.0017664714,
				"element": "C" 
			},
			{
				"x": -0.6109372382,
				"y": -0.2515979784,
				"z": -0.8128492136,
				"element": "C" 
			},
			{
				"x": -0.5828459021,
				"y": 1.160200777,
				"z": -0.8033514937,
				"element": "C" 
			},
			{
				"x": -1.4616877729,
				"y": 1.930224041,
				"z": -0.0611803511,
				"element": "C" 
			},
			{
				"x": -2.4218586995,
				"y": 1.2835712957,
				"z": 0.7249789851,
				"element": "C" 
			},
			{
				"x": -2.4695797175,
				"y": -0.0985455005,
				"z": 0.7547801829,
				"element": "C" 
			},
			{
				"x": 1.2299505975,
				"y": -2.3735711027,
				"z": -2.6785857891,
				"element": "H" 
			},
			{
				"x": -1.3159574193,
				"y": -3.2866205361,
				"z": -2.2573555004,
				"element": "H" 
			},
			{
				"x": 0.1509349586,
				"y": -4.2038716741,
				"z": -1.8876294331,
				"element": "H" 
			},
			{
				"x": 0.158100061,
				"y": -3.1375105472,
				"z": 0.4108843064,
				"element": "H" 
			},
			{
				"x": -1.1904921688,
				"y": -4.2425260494,
				"z": 0.0795383994,
				"element": "H" 
			},
			{
				"x": -2.3923880885,
				"y": -2.5254109931,
				"z": 0.8613796625,
				"element": "H" 
			},
			{
				"x": 0.1763918361,
				"y": 1.6236781438,
				"z": -1.4220077114,
				"element": "H" 
			},
			{
				"x": -1.4049498977,
				"y": 3.013425102,
				"z": -0.0925021155,
				"element": "H" 
			},
			{
				"x": -3.1274611006,
				"y": 1.8561243912,
				"z": 1.3208485072,
				"element": "H" 
			},
			{
				"x": -3.2104439142,
				"y": -0.5981769251,
				"z": 1.3756698637,
				"element": "H" 
			}
		],
		 "valence_orbital": [ 
			{
				"type": "occ",
				"energy": -0.29953,
				"method": "rhf"
			},
			{
				"type": "occ",
				"energy": -0.24705,
				"method": "rhf"
			},
			{
				"type": "occ",
				"energy": -0.24269,
				"method": "rhf"
			},
			{
				"type": "occ",
				"energy": -0.23708,
				"method": "rhf"
			},
			{
				"type": "occ",
				"energy": -0.20224,
				"method": "rhf"
			},
			{
				"type": "unocc",
				"energy": -0.02443,
				"method": "rhf"
			},
			{
				"type": "unocc",
				"energy": 0.01292,
				"method": "rhf"
			},
			{
				"type": "unocc",
				"energy": 0.05926,
				"method": "rhf"
			},
			{
				"type": "unocc",
				"energy": 0.07277,
				"method": "rhf"
			},
			{
				"type": "unocc",
				"energy": 0.09355,
				"method": "rhf"
			}
		],
		"cosmo_sigma_profile": { 
			"-0.025": 0.0,
			"-0.024": 0.0,
			"-0.023": 0.0,
			"-0.022": 0.0,
			"-0.021": 0.0,
			"-0.02": 0.0,
			"-0.019": 0.0,
			"-0.018": 0.0,
			"-0.017": 0.0,
			"-0.016": 0.0,
			"-0.015": 0.0,
			"-0.014": 0.262949694913,
			"-0.013": 2.17407887774,
			"-0.012": 2.22701904338,
			"-0.011": 2.78831877693,
			"-0.01": 2.49943929219,
			"-0.009": 2.01162271791,
			"-0.008": 3.64744817292,
			"-0.007": 4.01640076124,
			"-0.006": 9.53329836689,
			"-0.005": 13.1437887388,
			"-0.004": 15.0735651898,
			"-0.003": 17.8455593231,
			"-0.002": 15.0757367164,
			"-0.001": 10.3151694532,
			"0.0": 8.46896765102,
			"0.001": 9.42622761103,
			"0.002": 9.03000718119,
			"0.003": 10.9360191083,
			"0.004": 11.7680295931,
			"0.005": 12.4938223764,
			"0.006": 9.72115231731,
			"0.007": 3.03384391509,
			"0.008": 1.54883662424,
			"0.009": 1.96683494162,
			"0.01": 0.90227130648,
			"0.011": 1.69036613856,
			"0.012": 1.69998462651,
			"0.013": 2.40393177733,
			"0.014": 4.60498557568,
			"0.015": 2.7951509933,
			"0.016": 0.0267450715266,
			"0.017": 0.0,
			"0.018": 0.0,
			"0.019": 0.0,
			"0.02": 0.0,
			"0.021": 0.0,
			"0.022": 0.0,
			"0.023": 0.0,
			"0.024": 0.0,
			"0.025": 0.0
		}
	}
}
