{
	 "smiles": "CC(C)(C)N(NC(=O)C1=CC=CC=C1)C(=O)C1=C(F)C=CC=C1F", 
	 "Tm": 467.15, 
	 "num_atms": 42, 
	 "gaussian": { 
		 "optdone": 1, 
		 "sigma_profile": "yes", 
		 "theory": "DFT", 
		 "functional": "B3LYP", 
		 "basiset": "6-31G**", 
		 "properties": { 
			 "R2extent": 7462.4159, 
			 "electric_dipole_moment_norm": 5.75277734055, 
			 "electric_quadrupole_moment_norm": 11.540107477, 
			 "total_energy": -1156.38500926, 
			 "HOMO_LUMO_gap": 0.19824, 
			 "cosmo_polarized_energy": -17.82, 
			 "cosmo_cavitation_energy": 45.61, 
			 "cosmo_dispersion_energy": -29.08, 
			 "cosmo_repulsion_energy": 2.18, 
			 "cosmo_total_nonelectrostatic_energy": 18.71, 
			 "SMD_solvation_energy": 9.75 
		},
		"coords": [
			{
				"x": 4.4618058652,
				"y": 1.1534141764,
				"z": 0.3481919262,
				"element": "C" 
			},
			{
				"x": 3.0410328419,
				"y": 1.7059229897,
				"z": 0.5712665635,
				"element": "C" 
			},
			{
				"x": 2.7915861344,
				"y": 1.8497708201,
				"z": 2.0792188129,
				"element": "C" 
			},
			{
				"x": 2.8581654033,
				"y": 3.0761426567,
				"z": -0.1086103241,
				"element": "C" 
			},
			{
				"x": 2.040456028,
				"y": 0.7223447305,
				"z": -0.0012763809,
				"element": "N" 
			},
			{
				"x": 1.0120092208,
				"y": 0.2566358375,
				"z": 0.8023774139,
				"element": "N" 
			},
			{
				"x": -0.2114527573,
				"y": 0.9039447809,
				"z": 0.8406838328,
				"element": "C" 
			},
			{
				"x": -0.4204720411,
				"y": 1.9399402195,
				"z": 0.2270371149,
				"element": "O" 
			},
			{
				"x": -1.2547128263,
				"y": 0.2416702076,
				"z": 1.6918001934,
				"element": "C" 
			},
			{
				"x": -0.9563419611,
				"y": -0.6505237287,
				"z": 2.7324608041,
				"element": "C" 
			},
			{
				"x": -1.9839747884,
				"y": -1.2213506541,
				"z": 3.4837020754,
				"element": "C" 
			},
			{
				"x": -3.3146568029,
				"y": -0.9067021116,
				"z": 3.2021840312,
				"element": "C" 
			},
			{
				"x": -3.6167316711,
				"y": -0.0086206995,
				"z": 2.1748992575,
				"element": "C" 
			},
			{
				"x": -2.5923379982,
				"y": 0.5676293938,
				"z": 1.4281989712,
				"element": "C" 
			},
			{
				"x": 2.0162759913,
				"y": 0.412033143,
				"z": -1.3457327105,
				"element": "C" 
			},
			{
				"x": 2.8231236241,
				"y": 0.8518374603,
				"z": -2.1512395981,
				"element": "O" 
			},
			{
				"x": 0.9494528823,
				"y": -0.5544049596,
				"z": -1.8134525803,
				"element": "C" 
			},
			{
				"x": 0.8511676091,
				"y": -1.8726850902,
				"z": -1.3684495854,
				"element": "C" 
			},
			{
				"x": 1.6576926091,
				"y": -2.2642858174,
				"z": -0.3455465372,
				"element": "F" 
			},
			{
				"x": -0.0305397018,
				"y": -2.8012035296,
				"z": -1.9030282681,
				"element": "C" 
			},
			{
				"x": -0.8659829113,
				"y": -2.3933611491,
				"z": -2.9440826462,
				"element": "C" 
			},
			{
				"x": -0.8126014947,
				"y": -1.0860162654,
				"z": -3.4269085046,
				"element": "C" 
			},
			{
				"x": 0.0952613173,
				"y": -0.196491157,
				"z": -2.8626023166,
				"element": "C" 
			},
			{
				"x": 0.1400071257,
				"y": 1.0583527253,
				"z": -3.3294001016,
				"element": "F" 
			},
			{
				"x": 4.6746645382,
				"y": 1.0324573738,
				"z": -0.7137176796,
				"element": "H" 
			},
			{
				"x": 5.1931977274,
				"y": 1.8482477273,
				"z": 0.7736467449,
				"element": "H" 
			},
			{
				"x": 4.5830386256,
				"y": 0.1855002672,
				"z": 0.8463669773,
				"element": "H" 
			},
			{
				"x": 1.8110768373,
				"y": 2.2809516972,
				"z": 2.2939122823,
				"element": "H" 
			},
			{
				"x": 3.5509328163,
				"y": 2.5247935138,
				"z": 2.4844076597,
				"element": "H" 
			},
			{
				"x": 2.8786928224,
				"y": 0.8939909349,
				"z": 2.6043635501,
				"element": "H" 
			},
			{
				"x": 1.8294228742,
				"y": 3.4224677859,
				"z": 0.0171408403,
				"element": "H" 
			},
			{
				"x": 3.0794095361,
				"y": 3.0150610065,
				"z": -1.1744173337,
				"element": "H" 
			},
			{
				"x": 3.5372679091,
				"y": 3.8040653008,
				"z": 0.348068866,
				"element": "H" 
			},
			{
				"x": 1.09402691,
				"y": -0.7036747698,
				"z": 1.1063702049,
				"element": "H" 
			},
			{
				"x": 0.0746354582,
				"y": -0.8769145918,
				"z": 2.9880424066,
				"element": "H" 
			},
			{
				"x": -1.7444760789,
				"y": -1.9037893745,
				"z": 4.2938053273,
				"element": "H" 
			},
			{
				"x": -4.113398195,
				"y": -1.3532052693,
				"z": 3.7873903621,
				"element": "H" 
			},
			{
				"x": -4.6507449742,
				"y": 0.2441216135,
				"z": 1.9595373651,
				"element": "H" 
			},
			{
				"x": -2.8018052126,
				"y": 1.2769053908,
				"z": 0.6347135798,
				"element": "H" 
			},
			{
				"x": -0.0492821519,
				"y": -3.810622479,
				"z": -1.5087943099,
				"element": "H" 
			},
			{
				"x": -1.565303505,
				"y": -3.0996348286,
				"z": -3.3797237295,
				"element": "H" 
			},
			{
				"x": -1.4552876355,
				"y": -0.7438152779,
				"z": -4.2298045572,
				"element": "H" 
			}
		],
		 "valence_orbital": [ 
			{
				"type": "occ",
				"energy": -0.26704,
				"method": "rhf"
			},
			{
				"type": "occ",
				"energy": -0.26001,
				"method": "rhf"
			},
			{
				"type": "occ",
				"energy": -0.2561,
				"method": "rhf"
			},
			{
				"type": "occ",
				"energy": -0.25229,
				"method": "rhf"
			},
			{
				"type": "occ",
				"energy": -0.24433,
				"method": "rhf"
			},
			{
				"type": "unocc",
				"energy": -0.04609,
				"method": "rhf"
			},
			{
				"type": "unocc",
				"energy": -0.03247,
				"method": "rhf"
			},
			{
				"type": "unocc",
				"energy": -0.0167,
				"method": "rhf"
			},
			{
				"type": "unocc",
				"energy": -0.00806,
				"method": "rhf"
			},
			{
				"type": "unocc",
				"energy": 0.02392,
				"method": "rhf"
			}
		],
		"cosmo_sigma_profile": { 
			"-0.025": 0.0,
			"-0.024": 0.0,
			"-0.023": 0.0,
			"-0.022": 0.0,
			"-0.021": 0.0,
			"-0.02": 0.0,
			"-0.019": 0.0,
			"-0.018": 0.0,
			"-0.017": 0.0,
			"-0.016": 0.0,
			"-0.015": 0.0,
			"-0.014": 0.0,
			"-0.013": 0.316036048722,
			"-0.012": 0.682102741767,
			"-0.011": 0.881505094323,
			"-0.01": 1.40369948703,
			"-0.009": 1.60819659166,
			"-0.008": 5.03201490024,
			"-0.007": 10.4070892555,
			"-0.006": 15.774922893,
			"-0.005": 18.8791094365,
			"-0.004": 25.0815672185,
			"-0.003": 26.4982506648,
			"-0.002": 26.2157392953,
			"-0.001": 31.0716280239,
			"0.0": 42.3366982512,
			"0.001": 38.3615060832,
			"0.002": 25.5531380238,
			"0.003": 27.5354237786,
			"0.004": 24.3478130607,
			"0.005": 8.21265781689,
			"0.006": 4.70455552973,
			"0.007": 5.17468985424,
			"0.008": 3.4411529518,
			"0.009": 3.7373968526,
			"0.01": 3.29598545698,
			"0.011": 3.98427019931,
			"0.012": 5.02113161445,
			"0.013": 3.21653244211,
			"0.014": 0.0570882790738,
			"0.015": 0.0,
			"0.016": 0.0,
			"0.017": 0.0,
			"0.018": 0.0,
			"0.019": 0.0,
			"0.02": 0.0,
			"0.021": 0.0,
			"0.022": 0.0,
			"0.023": 0.0,
			"0.024": 0.0,
			"0.025": 0.0
		}
	}
}
