{
	 "smiles": "CSC1=NSC(S)=N1", 
	 "Tm": 418.15, 
	 "num_atms": 12, 
	 "gaussian": { 
		 "optdone": 1, 
		 "sigma_profile": "yes", 
		 "theory": "DFT", 
		 "functional": "B3LYP", 
		 "basiset": "6-31G**", 
		 "properties": { 
			 "R2extent": 1878.023, 
			 "electric_dipole_moment_norm": 3.22217370264, 
			 "electric_quadrupole_moment_norm": 7.39353656987, 
			 "total_energy": -1420.77221925, 
			 "HOMO_LUMO_gap": 0.17748, 
			 "cosmo_polarized_energy": -8.18, 
			 "cosmo_cavitation_energy": 21.56, 
			 "cosmo_dispersion_energy": -17.64, 
			 "cosmo_repulsion_energy": 1.33, 
			 "cosmo_total_nonelectrostatic_energy": 5.25, 
			 "SMD_solvation_energy": 0.61 
		},
		"coords": [
			{
				"x": 1.1505546879,
				"y": -1.6130470648,
				"z": 2.9089246082,
				"element": "C" 
			},
			{
				"x": 1.9542384504,
				"y": -0.0369835701,
				"z": 2.4517471369,
				"element": "S" 
			},
			{
				"x": 1.0834433773,
				"y": 0.3720087409,
				"z": 0.9657442516,
				"element": "C" 
			},
			{
				"x": 1.4041006878,
				"y": 1.4790743019,
				"z": 0.3350070353,
				"element": "N" 
			},
			{
				"x": 0.4150432489,
				"y": 1.5894389654,
				"z": -1.0210616345,
				"element": "S" 
			},
			{
				"x": -0.3813295724,
				"y": 0.0858119444,
				"z": -0.6205440595,
				"element": "C" 
			},
			{
				"x": -1.6695464806,
				"y": -0.6094216046,
				"z": -1.6004800608,
				"element": "S" 
			},
			{
				"x": 0.0895989833,
				"y": -0.4486465287,
				"z": 0.4761248454,
				"element": "N" 
			},
			{
				"x": 0.0853069681,
				"y": -1.4708013525,
				"z": 3.0916028539,
				"element": "H" 
			},
			{
				"x": 1.6435060214,
				"y": -1.9301712841,
				"z": 3.8305263903,
				"element": "H" 
			},
			{
				"x": 1.2976152943,
				"y": -2.3665182447,
				"z": 2.1349610303,
				"element": "H" 
			},
			{
				"x": -1.8303316665,
				"y": -1.6803443031,
				"z": -0.7986523971,
				"element": "H" 
			}
		],
		 "valence_orbital": [ 
			{
				"type": "occ",
				"energy": -0.32758,
				"method": "rhf"
			},
			{
				"type": "occ",
				"energy": -0.31047,
				"method": "rhf"
			},
			{
				"type": "occ",
				"energy": -0.29405,
				"method": "rhf"
			},
			{
				"type": "occ",
				"energy": -0.26979,
				"method": "rhf"
			},
			{
				"type": "occ",
				"energy": -0.22705,
				"method": "rhf"
			},
			{
				"type": "unocc",
				"energy": -0.04957,
				"method": "rhf"
			},
			{
				"type": "unocc",
				"energy": -0.02605,
				"method": "rhf"
			},
			{
				"type": "unocc",
				"energy": 0.00341,
				"method": "rhf"
			},
			{
				"type": "unocc",
				"energy": 0.02621,
				"method": "rhf"
			},
			{
				"type": "unocc",
				"energy": 0.03186,
				"method": "rhf"
			}
		],
		"cosmo_sigma_profile": { 
			"-0.025": 0.0,
			"-0.024": 0.0,
			"-0.023": 0.0,
			"-0.022": 0.0,
			"-0.021": 0.0,
			"-0.02": 0.0,
			"-0.019": 0.0,
			"-0.018": 0.0,
			"-0.017": 0.0,
			"-0.016": 0.0,
			"-0.015": 0.0,
			"-0.014": 0.0,
			"-0.013": 0.875459198711,
			"-0.012": 1.70289049141,
			"-0.011": 1.24320968819,
			"-0.01": 1.44769439193,
			"-0.009": 1.08660339592,
			"-0.008": 3.10083263878,
			"-0.007": 4.19654938637,
			"-0.006": 7.00749455547,
			"-0.005": 7.58453746327,
			"-0.004": 8.87694847783,
			"-0.003": 13.3371159845,
			"-0.002": 18.1204679897,
			"-0.001": 16.649357781,
			"0.0": 14.3200002377,
			"0.001": 15.9276654662,
			"0.002": 12.830376328,
			"0.003": 10.0668197228,
			"0.004": 11.6106676863,
			"0.005": 9.67411931968,
			"0.006": 6.29927887873,
			"0.007": 4.99619658874,
			"0.008": 3.11213184927,
			"0.009": 1.5107609132,
			"0.01": 1.10193449994,
			"0.011": 1.00561226559,
			"0.012": 1.10148970067,
			"0.013": 0.883860389981,
			"0.014": 0.341242191227,
			"0.015": 0.0,
			"0.016": 0.0,
			"0.017": 0.0,
			"0.018": 0.0,
			"0.019": 0.0,
			"0.02": 0.0,
			"0.021": 0.0,
			"0.022": 0.0,
			"0.023": 0.0,
			"0.024": 0.0,
			"0.025": 0.0
		}
	}
}
