{
	 "smiles": "COC(=O)C1=C(C)NC(C)=C(C1C1=CC=CC=C1)C(=O)OC", 
	 "Tm": 471.15, 
	 "num_atms": 41, 
	 "gaussian": { 
		 "optdone": 1, 
		 "sigma_profile": "yes", 
		 "theory": "DFT", 
		 "functional": "B3LYP", 
		 "basiset": "6-31G**", 
		 "properties": { 
			 "R2extent": 6827.9093, 
			 "electric_dipole_moment_norm": 4.11921578459, 
			 "electric_quadrupole_moment_norm": 10.9276194137, 
			 "total_energy": -1014.92079285, 
			 "HOMO_LUMO_gap": 0.15673, 
			 "cosmo_polarized_energy": -19.11, 
			 "cosmo_cavitation_energy": 43.48, 
			 "cosmo_dispersion_energy": -29.43, 
			 "cosmo_repulsion_energy": 2.3, 
			 "cosmo_total_nonelectrostatic_energy": 16.35, 
			 "SMD_solvation_energy": 10.29 
		},
		"coords": [
			{
				"x": -0.4485819837,
				"y": -3.6671148155,
				"z": 2.5956504055,
				"element": "C" 
			},
			{
				"x": -0.4123460663,
				"y": -2.9411275551,
				"z": 1.3590909767,
				"element": "O" 
			},
			{
				"x": 0.2924600325,
				"y": -1.7753999989,
				"z": 1.4001688853,
				"element": "C" 
			},
			{
				"x": 0.8519079599,
				"y": -1.4065392705,
				"z": 2.4210325565,
				"element": "O" 
			},
			{
				"x": 0.3387941732,
				"y": -1.0363501979,
				"z": 0.1293645677,
				"element": "C" 
			},
			{
				"x": -0.1915820444,
				"y": -1.4727111656,
				"z": -1.0472056662,
				"element": "C" 
			},
			{
				"x": -1.0464057551,
				"y": -2.6931299501,
				"z": -1.28741618,
				"element": "C" 
			},
			{
				"x": 0.0941808337,
				"y": -0.7594410053,
				"z": -2.2036756981,
				"element": "N" 
			},
			{
				"x": 1.1050719142,
				"y": 0.1870103457,
				"z": -2.2999932074,
				"element": "C" 
			},
			{
				"x": 1.4997435041,
				"y": 0.5320616813,
				"z": -3.7123879186,
				"element": "C" 
			},
			{
				"x": 1.6521484076,
				"y": 0.6756582372,
				"z": -1.152834689,
				"element": "C" 
			},
			{
				"x": 1.0566349607,
				"y": 0.314009301,
				"z": 0.2014373061,
				"element": "C" 
			},
			{
				"x": 0.1248745475,
				"y": 1.4056763238,
				"z": 0.7526844908,
				"element": "C" 
			},
			{
				"x": 0.1444278888,
				"y": 1.7154147785,
				"z": 2.1197429945,
				"element": "C" 
			},
			{
				"x": -0.7110690756,
				"y": 2.6844516563,
				"z": 2.6453240973,
				"element": "C" 
			},
			{
				"x": -1.6031387099,
				"y": 3.3622886732,
				"z": 1.8121814129,
				"element": "C" 
			},
			{
				"x": -1.632009317,
				"y": 3.0615926997,
				"z": 0.4494209618,
				"element": "C" 
			},
			{
				"x": -0.7744921024,
				"y": 2.092433563,
				"z": -0.0738422555,
				"element": "C" 
			},
			{
				"x": 2.7938864933,
				"y": 1.6021284902,
				"z": -1.219378362,
				"element": "C" 
			},
			{
				"x": 3.3501022082,
				"y": 2.0040190199,
				"z": -2.2319655281,
				"element": "O" 
			},
			{
				"x": 3.1976682928,
				"y": 1.9843289213,
				"z": 0.0198677298,
				"element": "O" 
			},
			{
				"x": 4.3069667631,
				"y": 2.8895523841,
				"z": 0.0489552869,
				"element": "C" 
			},
			{
				"x": -1.0507351673,
				"y": -4.5546831415,
				"z": 2.3977296882,
				"element": "H" 
			},
			{
				"x": -0.9025938976,
				"y": -3.0647947739,
				"z": 3.3866131468,
				"element": "H" 
			},
			{
				"x": 0.5593160343,
				"y": -3.9507579299,
				"z": 2.9093192818,
				"element": "H" 
			},
			{
				"x": -1.4834961431,
				"y": -2.6621083894,
				"z": -2.2910706377,
				"element": "H" 
			},
			{
				"x": -1.8523967151,
				"y": -2.7614747784,
				"z": -0.5578668269,
				"element": "H" 
			},
			{
				"x": -0.4574747641,
				"y": -3.6106835069,
				"z": -1.1985990691,
				"element": "H" 
			},
			{
				"x": -0.282593868,
				"y": -1.1156047599,
				"z": -3.0684739168,
				"element": "H" 
			},
			{
				"x": 1.6365570418,
				"y": 1.6059936141,
				"z": -3.8322406131,
				"element": "H" 
			},
			{
				"x": 0.7419899764,
				"y": 0.1788390437,
				"z": -4.4207292107,
				"element": "H" 
			},
			{
				"x": 2.457887843,
				"y": 0.0715167807,
				"z": -3.9724107251,
				"element": "H" 
			},
			{
				"x": 1.8688806773,
				"y": 0.2085346563,
				"z": 0.9223103577,
				"element": "H" 
			},
			{
				"x": 0.8265729891,
				"y": 1.1779083093,
				"z": 2.7704019913,
				"element": "H" 
			},
			{
				"x": -0.678080381,
				"y": 2.9122349977,
				"z": 3.707511168,
				"element": "H" 
			},
			{
				"x": -2.2674210503,
				"y": 4.119204647,
				"z": 2.2201139197,
				"element": "H" 
			},
			{
				"x": -2.3199611278,
				"y": 3.5850962429,
				"z": -0.209427392,
				"element": "H" 
			},
			{
				"x": -0.7988226483,
				"y": 1.8770558857,
				"z": -1.1379765827,
				"element": "H" 
			},
			{
				"x": 4.0643840272,
				"y": 3.8165187133,
				"z": -0.4773556041,
				"element": "H" 
			},
			{
				"x": 4.4962987528,
				"y": 3.0883257297,
				"z": 1.1040498425,
				"element": "H" 
			},
			{
				"x": 5.1869454957,
				"y": 2.4421665435,
				"z": -0.4212209851,
				"element": "H" 
			}
		],
		 "valence_orbital": [ 
			{
				"type": "occ",
				"energy": -0.26206,
				"method": "rhf"
			},
			{
				"type": "occ",
				"energy": -0.25357,
				"method": "rhf"
			},
			{
				"type": "occ",
				"energy": -0.2332,
				"method": "rhf"
			},
			{
				"type": "occ",
				"energy": -0.22594,
				"method": "rhf"
			},
			{
				"type": "occ",
				"energy": -0.20302,
				"method": "rhf"
			},
			{
				"type": "unocc",
				"energy": -0.04629,
				"method": "rhf"
			},
			{
				"type": "unocc",
				"energy": 0.00403,
				"method": "rhf"
			},
			{
				"type": "unocc",
				"energy": 0.01461,
				"method": "rhf"
			},
			{
				"type": "unocc",
				"energy": 0.01733,
				"method": "rhf"
			},
			{
				"type": "unocc",
				"energy": 0.05969,
				"method": "rhf"
			}
		],
		"cosmo_sigma_profile": { 
			"-0.025": 0.0,
			"-0.024": 0.0,
			"-0.023": 0.0,
			"-0.022": 0.0,
			"-0.021": 0.0,
			"-0.02": 0.0,
			"-0.019": 0.0,
			"-0.018": 0.0,
			"-0.017": 0.0,
			"-0.016": 0.109766331132,
			"-0.015": 1.13287684133,
			"-0.014": 1.52603882635,
			"-0.013": 1.4162418752,
			"-0.012": 1.13156602524,
			"-0.011": 2.13458702825,
			"-0.01": 1.47323623334,
			"-0.009": 1.18872474232,
			"-0.008": 1.66042809065,
			"-0.007": 2.30811327779,
			"-0.006": 8.02822996293,
			"-0.005": 24.3675506456,
			"-0.004": 30.2122362914,
			"-0.003": 40.7571699316,
			"-0.002": 32.6974668935,
			"-0.001": 30.0222045998,
			"0.0": 24.9704932819,
			"0.001": 22.726192074,
			"0.002": 19.8498071362,
			"0.003": 19.1915226605,
			"0.004": 14.9098416894,
			"0.005": 14.3376371148,
			"0.006": 14.2525333853,
			"0.007": 9.88068571219,
			"0.008": 4.39822443789,
			"0.009": 2.55635860177,
			"0.01": 3.82572963904,
			"0.011": 3.0617401703,
			"0.012": 4.32553771777,
			"0.013": 5.36530719053,
			"0.014": 0.407697941982,
			"0.015": 0.0,
			"0.016": 0.0,
			"0.017": 0.0,
			"0.018": 0.0,
			"0.019": 0.0,
			"0.02": 0.0,
			"0.021": 0.0,
			"0.022": 0.0,
			"0.023": 0.0,
			"0.024": 0.0,
			"0.025": 0.0
		}
	}
}
