{
	 "smiles": "NCC1=CN(N=C1)C1=C(F)C=C(F)C=C1", 
	 "Tm": 323.15, 
	 "num_atms": 24, 
	 "gaussian": { 
		 "optdone": 1, 
		 "sigma_profile": "yes", 
		 "theory": "DFT", 
		 "functional": "B3LYP", 
		 "basiset": "6-31G**", 
		 "properties": { 
			 "R2extent": 4661.1287, 
			 "electric_dipole_moment_norm": 2.02455259749, 
			 "electric_quadrupole_moment_norm": 8.04734110871, 
			 "total_energy": -750.372924833, 
			 "HOMO_LUMO_gap": 0.19679, 
			 "cosmo_polarized_energy": -12.86, 
			 "cosmo_cavitation_energy": 29.94, 
			 "cosmo_dispersion_energy": -21.19, 
			 "cosmo_repulsion_energy": 1.63, 
			 "cosmo_total_nonelectrostatic_energy": 10.39, 
			 "SMD_solvation_energy": 4.36 
		},
		"coords": [
			{
				"x": -4.2404985961,
				"y": -0.6685589676,
				"z": -4.2559150544,
				"element": "N" 
			},
			{
				"x": -2.8436222457,
				"y": -1.0891264589,
				"z": -4.0504800585,
				"element": "C" 
			},
			{
				"x": -2.0627718079,
				"y": -0.3260252881,
				"z": -3.0103188899,
				"element": "C" 
			},
			{
				"x": -1.781295008,
				"y": -0.7011201533,
				"z": -1.711145109,
				"element": "C" 
			},
			{
				"x": -1.1025204196,
				"y": 0.3343492598,
				"z": -1.1260132485,
				"element": "N" 
			},
			{
				"x": -0.9186294606,
				"y": 1.3722741517,
				"z": -1.9845686397,
				"element": "N" 
			},
			{
				"x": -1.4970322724,
				"y": 0.9741014291,
				"z": -3.1115271079,
				"element": "C" 
			},
			{
				"x": -0.568426286,
				"y": 0.373177939,
				"z": 0.184324595,
				"element": "C" 
			},
			{
				"x": -0.7764685486,
				"y": 1.4842216956,
				"z": 1.0139603532,
				"element": "C" 
			},
			{
				"x": -1.502609807,
				"y": 2.5184612149,
				"z": 0.5739980083,
				"element": "F" 
			},
			{
				"x": -0.2620417298,
				"y": 1.5350991079,
				"z": 2.303198824,
				"element": "C" 
			},
			{
				"x": 0.4555233506,
				"y": 0.4387839701,
				"z": 2.768816409,
				"element": "C" 
			},
			{
				"x": 0.9510031278,
				"y": 0.4772194815,
				"z": 4.0192587915,
				"element": "F" 
			},
			{
				"x": 0.674500123,
				"y": -0.688724775,
				"z": 1.9857317726,
				"element": "C" 
			},
			{
				"x": 0.1666366295,
				"y": -0.7049346897,
				"z": 0.6878459609,
				"element": "C" 
			},
			{
				"x": -4.2569959922,
				"y": 0.308098367,
				"z": -4.5433679231,
				"element": "H" 
			},
			{
				"x": -4.728413579,
				"y": -0.6941561075,
				"z": -3.3623891233,
				"element": "H" 
			},
			{
				"x": -2.8512403027,
				"y": -2.1536628301,
				"z": -3.7904636467,
				"element": "H" 
			},
			{
				"x": -2.3353331282,
				"y": -1.0159895502,
				"z": -5.0190001301,
				"element": "H" 
			},
			{
				"x": -2.0227369498,
				"y": -1.597641107,
				"z": -1.1583718034,
				"element": "H" 
			},
			{
				"x": -1.4853993147,
				"y": 1.6308423747,
				"z": -3.9728783051,
				"element": "H" 
			},
			{
				"x": -0.4333306567,
				"y": 2.4026508233,
				"z": 2.9286000385,
				"element": "H" 
			},
			{
				"x": 1.2461335998,
				"y": -1.5195008974,
				"z": 2.382354318,
				"element": "H" 
			},
			{
				"x": 0.3504692746,
				"y": -1.5573389898,
				"z": 0.0425499687,
				"element": "H" 
			}
		],
		 "valence_orbital": [ 
			{
				"type": "occ",
				"energy": -0.28463,
				"method": "rhf"
			},
			{
				"type": "occ",
				"energy": -0.27022,
				"method": "rhf"
			},
			{
				"type": "occ",
				"energy": -0.25532,
				"method": "rhf"
			},
			{
				"type": "occ",
				"energy": -0.24287,
				"method": "rhf"
			},
			{
				"type": "occ",
				"energy": -0.22633,
				"method": "rhf"
			},
			{
				"type": "unocc",
				"energy": -0.02954,
				"method": "rhf"
			},
			{
				"type": "unocc",
				"energy": -0.02007,
				"method": "rhf"
			},
			{
				"type": "unocc",
				"energy": 0.02117,
				"method": "rhf"
			},
			{
				"type": "unocc",
				"energy": 0.05529,
				"method": "rhf"
			},
			{
				"type": "unocc",
				"energy": 0.06933,
				"method": "rhf"
			}
		],
		"cosmo_sigma_profile": { 
			"-0.025": 0.0,
			"-0.024": 0.0,
			"-0.023": 0.0,
			"-0.022": 0.0,
			"-0.021": 0.0,
			"-0.02": 0.0,
			"-0.019": 0.0,
			"-0.018": 0.0,
			"-0.017": 0.0,
			"-0.016": 0.0,
			"-0.015": 0.0,
			"-0.014": 0.0,
			"-0.013": 0.0,
			"-0.012": 0.0,
			"-0.011": 0.0,
			"-0.01": 0.578364603749,
			"-0.009": 4.24843396354,
			"-0.008": 9.33365697823,
			"-0.007": 12.6057319043,
			"-0.006": 13.4847507215,
			"-0.005": 12.2994568188,
			"-0.004": 15.6118320173,
			"-0.003": 12.3399248373,
			"-0.002": 12.5359943884,
			"-0.001": 18.700023982,
			"0.0": 22.7622005381,
			"0.001": 20.3882881421,
			"0.002": 14.4297448817,
			"0.003": 18.5999495347,
			"0.004": 20.055765209,
			"0.005": 5.41666147758,
			"0.006": 3.55286270813,
			"0.007": 2.89730913852,
			"0.008": 2.46133107486,
			"0.009": 2.99935531424,
			"0.01": 2.63361357157,
			"0.011": 1.4852157044,
			"0.012": 2.1291910982,
			"0.013": 2.0555422133,
			"0.014": 1.52602761156,
			"0.015": 0.96272052246,
			"0.016": 0.838051917535,
			"0.017": 0.982270611805,
			"0.018": 0.542890141096,
			"0.019": 0.620562964036,
			"0.02": 0.41303557303,
			"0.021": 0.0,
			"0.022": 0.0,
			"0.023": 0.0,
			"0.024": 0.0,
			"0.025": 0.0
		}
	}
}
