{
	 "smiles": "CC[C@]1(O)CCC2(C)C3CCC4(C)C(O)CCC4C3CC[C@@]2(C)C1", 
	 "Tm": 441.15, 
	 "num_atms": 62, 
	 "gaussian": { 
		 "optdone": 1, 
		 "sigma_profile": "yes", 
		 "theory": "DFT", 
		 "functional": "B3LYP", 
		 "basiset": "6-31G**", 
		 "properties": { 
			 "R2extent": 9510.8893, 
			 "electric_dipole_moment_norm": 1.96149511088, 
			 "electric_quadrupole_moment_norm": 11.9219443477, 
			 "total_energy": -1011.69240686, 
			 "HOMO_LUMO_gap": 0.31298, 
			 "cosmo_polarized_energy": -11.36, 
			 "cosmo_cavitation_energy": 49.85, 
			 "cosmo_dispersion_energy": -34.86, 
			 "cosmo_repulsion_energy": 2.53, 
			 "cosmo_total_nonelectrostatic_energy": 17.52, 
			 "SMD_solvation_energy": 6.86 
		},
		"coords": [
			{
				"x": 3.613356676,
				"y": -0.2795873592,
				"z": 4.8775129733,
				"element": "C" 
			},
			{
				"x": 2.8392652272,
				"y": 0.5624540516,
				"z": 3.8559300209,
				"element": "C" 
			},
			{
				"x": 1.4326821863,
				"y": 0.023299673,
				"z": 3.507315643,
				"element": "C" 
			},
			{
				"x": 0.7199607791,
				"y": -0.2278917985,
				"z": 4.7351253369,
				"element": "O" 
			},
			{
				"x": 1.4498969508,
				"y": -1.3220807746,
				"z": 2.7775486664,
				"element": "C" 
			},
			{
				"x": 1.8851225766,
				"y": -1.1945584913,
				"z": 1.3107046271,
				"element": "C" 
			},
			{
				"x": 1.1801578448,
				"y": -0.1469482219,
				"z": 0.3842276689,
				"element": "C" 
			},
			{
				"x": 2.1852165927,
				"y": 0.0195432396,
				"z": -0.7952727192,
				"element": "C" 
			},
			{
				"x": -0.1236019063,
				"y": -0.7380473242,
				"z": -0.2781809345,
				"element": "C" 
			},
			{
				"x": -1.1495575851,
				"y": -1.4359786211,
				"z": 0.6345249848,
				"element": "C" 
			},
			{
				"x": -2.1514946706,
				"y": -2.2194067242,
				"z": -0.2245037224,
				"element": "C" 
			},
			{
				"x": -2.9491756126,
				"y": -1.3204276298,
				"z": -1.2059018499,
				"element": "C" 
			},
			{
				"x": -4.4248344978,
				"y": -1.2711369879,
				"z": -0.7604479019,
				"element": "C" 
			},
			{
				"x": -2.8480998695,
				"y": -1.7946742013,
				"z": -2.681979196,
				"element": "C" 
			},
			{
				"x": -3.6318831104,
				"y": -2.9335931015,
				"z": -3.0134659371,
				"element": "O" 
			},
			{
				"x": -3.3026795352,
				"y": -0.5908651039,
				"z": -3.5161556573,
				"element": "C" 
			},
			{
				"x": -2.9576394596,
				"y": 0.6585263482,
				"z": -2.6598676151,
				"element": "C" 
			},
			{
				"x": -2.3871003154,
				"y": 0.126953713,
				"z": -1.3066411625,
				"element": "C" 
			},
			{
				"x": -0.8345929721,
				"y": 0.2692657758,
				"z": -1.26223804,
				"element": "C" 
			},
			{
				"x": -0.4979544133,
				"y": 1.7501796222,
				"z": -0.9433675241,
				"element": "C" 
			},
			{
				"x": -0.3314793428,
				"y": 1.9565615471,
				"z": 0.559837358,
				"element": "C" 
			},
			{
				"x": 0.9089618388,
				"y": 1.2232313821,
				"z": 1.1580689607,
				"element": "C" 
			},
			{
				"x": 2.1014322708,
				"y": 2.2034615424,
				"z": 1.0338379281,
				"element": "C" 
			},
			{
				"x": 0.5752321315,
				"y": 0.9887577971,
				"z": 2.663140594,
				"element": "C" 
			},
			{
				"x": 3.8715534466,
				"y": -1.2662333765,
				"z": 4.4796386399,
				"element": "H" 
			},
			{
				"x": 3.023244852,
				"y": -0.4345126409,
				"z": 5.7839051979,
				"element": "H" 
			},
			{
				"x": 4.5496838955,
				"y": 0.2166892221,
				"z": 5.1525807218,
				"element": "H" 
			},
			{
				"x": 3.4376887581,
				"y": 0.6623483123,
				"z": 2.945768985,
				"element": "H" 
			},
			{
				"x": 2.7204444621,
				"y": 1.5841137668,
				"z": 4.246176683,
				"element": "H" 
			},
			{
				"x": 0.644911966,
				"y": 0.6152283709,
				"z": 5.2038132446,
				"element": "H" 
			},
			{
				"x": 2.1139673539,
				"y": -2.0270937472,
				"z": 3.2897726406,
				"element": "H" 
			},
			{
				"x": 0.4424584148,
				"y": -1.7343631795,
				"z": 2.8706348226,
				"element": "H" 
			},
			{
				"x": 2.9576697739,
				"y": -0.9608060246,
				"z": 1.3083424883,
				"element": "H" 
			},
			{
				"x": 1.8100167055,
				"y": -2.1782469149,
				"z": 0.8284833128,
				"element": "H" 
			},
			{
				"x": 1.8243806565,
				"y": 0.6662657153,
				"z": -1.5960717715,
				"element": "H" 
			},
			{
				"x": 3.1483615177,
				"y": 0.4115280392,
				"z": -0.4615704166,
				"element": "H" 
			},
			{
				"x": 2.3780198138,
				"y": -0.9644738981,
				"z": -1.2377190668,
				"element": "H" 
			},
			{
				"x": 0.258548633,
				"y": -1.5562791809,
				"z": -0.9060368667,
				"element": "H" 
			},
			{
				"x": -0.6462564406,
				"y": -2.1412485696,
				"z": 1.2988943758,
				"element": "H" 
			},
			{
				"x": -1.6814813194,
				"y": -0.7245513871,
				"z": 1.2780922477,
				"element": "H" 
			},
			{
				"x": -2.8399322061,
				"y": -2.7726226352,
				"z": 0.4249690256,
				"element": "H" 
			},
			{
				"x": -1.5857033438,
				"y": -2.9814037612,
				"z": -0.7828005909,
				"element": "H" 
			},
			{
				"x": -4.8851726385,
				"y": -2.2591040172,
				"z": -0.8505802674,
				"element": "H" 
			},
			{
				"x": -5.0222702624,
				"y": -0.5761896743,
				"z": -1.3581210661,
				"element": "H" 
			},
			{
				"x": -4.4927961582,
				"y": -0.9526291543,
				"z": 0.2858567857,
				"element": "H" 
			},
			{
				"x": -1.785750533,
				"y": -2.0048836167,
				"z": -2.8932337844,
				"element": "H" 
			},
			{
				"x": -3.2682904705,
				"y": -3.6922255024,
				"z": -2.5380241199,
				"element": "H" 
			},
			{
				"x": -2.8284674608,
				"y": -0.5779812148,
				"z": -4.5015464338,
				"element": "H" 
			},
			{
				"x": -4.3807070622,
				"y": -0.6776628715,
				"z": -3.6842212273,
				"element": "H" 
			},
			{
				"x": -2.2333749303,
				"y": 1.3067156269,
				"z": -3.1628982277,
				"element": "H" 
			},
			{
				"x": -3.8506109115,
				"y": 1.2693197664,
				"z": -2.4958493162,
				"element": "H" 
			},
			{
				"x": -2.7908969548,
				"y": 0.7157110351,
				"z": -0.4734801228,
				"element": "H" 
			},
			{
				"x": -0.4613986508,
				"y": 0.0521654194,
				"z": -2.270567399,
				"element": "H" 
			},
			{
				"x": -1.3014561494,
				"y": 2.394989241,
				"z": -1.3174469574,
				"element": "H" 
			},
			{
				"x": 0.4053321816,
				"y": 2.0786491832,
				"z": -1.4677299234,
				"element": "H" 
			},
			{
				"x": -0.2594937954,
				"y": 3.0258002239,
				"z": 0.7952091304,
				"element": "H" 
			},
			{
				"x": -1.2441496287,
				"y": 1.6054859762,
				"z": 1.0572480561,
				"element": "H" 
			},
			{
				"x": 1.940010551,
				"y": 3.0642995693,
				"z": 1.6921301181,
				"element": "H" 
			},
			{
				"x": 2.1980206455,
				"y": 2.5881401544,
				"z": 0.0142004836,
				"element": "H" 
			},
			{
				"x": 3.0622593789,
				"y": 1.7615297923,
				"z": 1.3047584897,
				"element": "H" 
			},
			{
				"x": -0.4385029609,
				"y": 0.5801280815,
				"z": 2.7359075074,
				"element": "H" 
			},
			{
				"x": 0.5391470873,
				"y": 1.9707655184,
				"z": 3.1591620992,
				"element": "H" 
			}
		],
		 "valence_orbital": [ 
			{
				"type": "occ",
				"energy": -0.28198,
				"method": "rhf"
			},
			{
				"type": "occ",
				"energy": -0.27487,
				"method": "rhf"
			},
			{
				"type": "occ",
				"energy": -0.271,
				"method": "rhf"
			},
			{
				"type": "occ",
				"energy": -0.25475,
				"method": "rhf"
			},
			{
				"type": "occ",
				"energy": -0.25065,
				"method": "rhf"
			},
			{
				"type": "unocc",
				"energy": 0.06233,
				"method": "rhf"
			},
			{
				"type": "unocc",
				"energy": 0.06731,
				"method": "rhf"
			},
			{
				"type": "unocc",
				"energy": 0.07344,
				"method": "rhf"
			},
			{
				"type": "unocc",
				"energy": 0.08013,
				"method": "rhf"
			},
			{
				"type": "unocc",
				"energy": 0.09079,
				"method": "rhf"
			}
		],
		"cosmo_sigma_profile": { 
			"-0.025": 0.0,
			"-0.024": 0.0,
			"-0.023": 0.0,
			"-0.022": 0.0,
			"-0.021": 0.0,
			"-0.02": 0.0,
			"-0.019": 0.0,
			"-0.018": 0.0,
			"-0.017": 0.0,
			"-0.016": 0.0,
			"-0.015": 0.035916495943,
			"-0.014": 1.13967788843,
			"-0.013": 1.99206039285,
			"-0.012": 1.6342794141,
			"-0.011": 1.56197328996,
			"-0.01": 1.98845516699,
			"-0.009": 2.27999452965,
			"-0.008": 1.87801152126,
			"-0.007": 2.51735760085,
			"-0.006": 1.8583966531,
			"-0.005": 2.81684678856,
			"-0.004": 5.49745114049,
			"-0.003": 19.0487573737,
			"-0.002": 60.5699540037,
			"-0.001": 77.6285177726,
			"0.0": 65.4490277235,
			"0.001": 55.5871682974,
			"0.002": 34.2019525225,
			"0.003": 7.43930624025,
			"0.004": 3.23355857211,
			"0.005": 2.99112311676,
			"0.006": 3.18837938219,
			"0.007": 3.15102026478,
			"0.008": 2.0404375795,
			"0.009": 2.83481838032,
			"0.01": 2.65073273896,
			"0.011": 2.65867973817,
			"0.012": 2.31618305699,
			"0.013": 2.37245762191,
			"0.014": 3.66866763339,
			"0.015": 2.1929771043,
			"0.016": 0.0371423097315,
			"0.017": 0.0,
			"0.018": 0.0,
			"0.019": 0.0,
			"0.02": 0.0,
			"0.021": 0.0,
			"0.022": 0.0,
			"0.023": 0.0,
			"0.024": 0.0,
			"0.025": 0.0
		}
	}
}
