{
	 "smiles": "COC1=NC=C(NC(=S)NN)C=C1", 
	 "Tm": 428.15, 
	 "num_atms": 23, 
	 "gaussian": { 
		 "optdone": 1, 
		 "sigma_profile": "yes", 
		 "theory": "DFT", 
		 "functional": "B3LYP", 
		 "basiset": "6-31G**", 
		 "properties": { 
			 "R2extent": 4298.0185, 
			 "electric_dipole_moment_norm": 3.67757310872, 
			 "electric_quadrupole_moment_norm": 39.3276651289, 
			 "total_energy": -965.155019047, 
			 "HOMO_LUMO_gap": 0.1826, 
			 "cosmo_polarized_energy": -23.04, 
			 "cosmo_cavitation_energy": 28.8, 
			 "cosmo_dispersion_energy": -22.12, 
			 "cosmo_repulsion_energy": 1.73, 
			 "cosmo_total_nonelectrostatic_energy": 8.42, 
			 "SMD_solvation_energy": 4.12 
		},
		"coords": [
			{
				"x": 3.6230823159,
				"y": 0.5785342044,
				"z": 1.6865180295,
				"element": "C" 
			},
			{
				"x": 3.0145136514,
				"y": -0.6525230681,
				"z": 1.3298595761,
				"element": "O" 
			},
			{
				"x": 1.7033579623,
				"y": -0.6399878255,
				"z": 0.9727403347,
				"element": "C" 
			},
			{
				"x": 1.2343400124,
				"y": -1.8485608034,
				"z": 0.6578245873,
				"element": "N" 
			},
			{
				"x": -0.0383459834,
				"y": -1.9489310498,
				"z": 0.2938562012,
				"element": "C" 
			},
			{
				"x": -0.9315695832,
				"y": -0.8671222298,
				"z": 0.2161823104,
				"element": "C" 
			},
			{
				"x": -2.2457083653,
				"y": -1.1647103045,
				"z": -0.1895542648,
				"element": "N" 
			},
			{
				"x": -3.3453949034,
				"y": -0.3955094344,
				"z": -0.3715997688,
				"element": "C" 
			},
			{
				"x": -3.5270918777,
				"y": 1.2644516236,
				"z": -0.1644433705,
				"element": "S" 
			},
			{
				"x": -4.442959601,
				"y": -1.1185373982,
				"z": -0.783978561,
				"element": "N" 
			},
			{
				"x": -4.3858670004,
				"y": -2.5026153849,
				"z": -0.982588604,
				"element": "N" 
			},
			{
				"x": -0.4299395347,
				"y": 0.3965705049,
				"z": 0.5484272641,
				"element": "C" 
			},
			{
				"x": 0.9041913261,
				"y": 0.5114393307,
				"z": 0.9314991706,
				"element": "C" 
			},
			{
				"x": 3.1401304707,
				"y": 1.0328590326,
				"z": 2.5613483744,
				"element": "H" 
			},
			{
				"x": 4.65862334,
				"y": 0.3404572191,
				"z": 1.9334739322,
				"element": "H" 
			},
			{
				"x": 3.6073589237,
				"y": 1.2960218982,
				"z": 0.8558843214,
				"element": "H" 
			},
			{
				"x": -0.3865111161,
				"y": -2.9530300093,
				"z": 0.0436280752,
				"element": "H" 
			},
			{
				"x": -2.4302283178,
				"y": -2.1461457639,
				"z": -0.3918359667,
				"element": "H" 
			},
			{
				"x": -5.2899974681,
				"y": -0.5849351665,
				"z": -0.9333082031,
				"element": "H" 
			},
			{
				"x": -4.6021144038,
				"y": -2.7371855719,
				"z": -1.9487467817,
				"element": "H" 
			},
			{
				"x": -5.0360819625,
				"y": -2.9824525394,
				"z": -0.36434658,
				"element": "H" 
			},
			{
				"x": -1.0742200809,
				"y": 1.2644035429,
				"z": 0.5058103909,
				"element": "H" 
			},
			{
				"x": 1.2975321956,
				"y": 1.4867091935,
				"z": 1.1896495324,
				"element": "H" 
			}
		],
		 "valence_orbital": [ 
			{
				"type": "occ",
				"energy": -0.27594,
				"method": "rhf"
			},
			{
				"type": "occ",
				"energy": -0.25975,
				"method": "rhf"
			},
			{
				"type": "occ",
				"energy": -0.22512,
				"method": "rhf"
			},
			{
				"type": "occ",
				"energy": -0.20798,
				"method": "rhf"
			},
			{
				"type": "occ",
				"energy": -0.20381,
				"method": "rhf"
			},
			{
				"type": "unocc",
				"energy": -0.02121,
				"method": "rhf"
			},
			{
				"type": "unocc",
				"energy": -0.01469,
				"method": "rhf"
			},
			{
				"type": "unocc",
				"energy": 0.03768,
				"method": "rhf"
			},
			{
				"type": "unocc",
				"energy": 0.04525,
				"method": "rhf"
			},
			{
				"type": "unocc",
				"energy": 0.08182,
				"method": "rhf"
			}
		],
		"cosmo_sigma_profile": { 
			"-0.025": 0.0,
			"-0.024": 0.0,
			"-0.023": 0.0,
			"-0.022": 0.0,
			"-0.021": 0.0,
			"-0.02": 0.0,
			"-0.019": 0.0,
			"-0.018": 0.0,
			"-0.017": 0.0,
			"-0.016": 0.0,
			"-0.015": 0.15840559641,
			"-0.014": 0.771705793529,
			"-0.013": 3.84197323649,
			"-0.012": 5.65324861511,
			"-0.011": 7.10088820161,
			"-0.01": 4.77913801744,
			"-0.009": 4.10876166808,
			"-0.008": 5.29972138583,
			"-0.007": 5.91355577489,
			"-0.006": 10.9680462566,
			"-0.005": 14.5218959467,
			"-0.004": 13.6125799231,
			"-0.003": 13.6093731481,
			"-0.002": 10.3173939589,
			"-0.001": 8.99005729851,
			"0.0": 8.9215746849,
			"0.001": 19.4682475658,
			"0.002": 15.9265995636,
			"0.003": 12.365237099,
			"0.004": 8.49227896205,
			"0.005": 6.60653868804,
			"0.006": 6.95675734673,
			"0.007": 5.57913389442,
			"0.008": 6.16978434526,
			"0.009": 6.05183910835,
			"0.01": 6.45755543136,
			"0.011": 9.32979459749,
			"0.012": 3.96324581866,
			"0.013": 1.83413432159,
			"0.014": 1.46903937945,
			"0.015": 1.45373020175,
			"0.016": 0.886792100932,
			"0.017": 0.0684529603948,
			"0.018": 0.0,
			"0.019": 0.0,
			"0.02": 0.0,
			"0.021": 0.0,
			"0.022": 0.0,
			"0.023": 0.0,
			"0.024": 0.0,
			"0.025": 0.0
		}
	}
}
