{
	 "smiles": "CC1=NC(N)=CC=C1Br", 
	 "Tm": 355.65, 
	 "num_atms": 16, 
	 "gaussian": { 
		 "optdone": 1, 
		 "sigma_profile": "yes", 
		 "theory": "DFT", 
		 "functional": "B3LYP", 
		 "basiset": "6-31G**", 
		 "properties": { 
			 "R2extent": 2813.8783, 
			 "electric_dipole_moment_norm": 2.73799510956, 
			 "electric_quadrupole_moment_norm": 5.80511338132, 
			 "total_energy": -2913.7783003, 
			 "HOMO_LUMO_gap": 0.1908, 
			 "cosmo_polarized_energy": -8.65, 
			 "cosmo_cavitation_energy": 22.02, 
			 "cosmo_dispersion_energy": -16.91, 
			 "cosmo_repulsion_energy": 1.4, 
			 "cosmo_total_nonelectrostatic_energy": 6.5, 
			 "SMD_solvation_energy": 1.51 
		},
		"coords": [
			{
				"x": -1.5308081963,
				"y": 3.0957187981,
				"z": -1.0864022968,
				"element": "C" 
			},
			{
				"x": -0.8633654778,
				"y": 1.833096188,
				"z": -0.6104543147,
				"element": "C" 
			},
			{
				"x": 0.4731704366,
				"y": 1.7797848855,
				"z": -0.7255140538,
				"element": "N" 
			},
			{
				"x": 1.1370901496,
				"y": 0.6849624519,
				"z": -0.3271856466,
				"element": "C" 
			},
			{
				"x": 2.5030981182,
				"y": 0.6948728716,
				"z": -0.5354542307,
				"element": "N" 
			},
			{
				"x": 0.4855340281,
				"y": -0.433511101,
				"z": 0.2285168874,
				"element": "C" 
			},
			{
				"x": -0.8928780512,
				"y": -0.3835872617,
				"z": 0.3584835204,
				"element": "C" 
			},
			{
				"x": -1.5756898595,
				"y": 0.7567369509,
				"z": -0.0659461887,
				"element": "C" 
			},
			{
				"x": -3.4802373094,
				"y": 0.8223003739,
				"z": 0.1146078282,
				"element": "Br" 
			},
			{
				"x": -2.2532049311,
				"y": 2.8843488991,
				"z": -1.8820775992,
				"element": "H" 
			},
			{
				"x": -2.0862935034,
				"y": 3.5798487973,
				"z": -0.2760258833,
				"element": "H" 
			},
			{
				"x": -0.7708702507,
				"y": 3.7813090692,
				"z": -1.4629001776,
				"element": "H" 
			},
			{
				"x": 2.8849765468,
				"y": 1.6122226053,
				"z": -0.7176892118,
				"element": "H" 
			},
			{
				"x": 3.0677044999,
				"y": 0.1085075907,
				"z": 0.0603808919,
				"element": "H" 
			},
			{
				"x": 1.0446733859,
				"y": -1.3106757684,
				"z": 0.5391703064,
				"element": "H" 
			},
			{
				"x": -1.4395995859,
				"y": -1.2190353503,
				"z": 0.7821901689,
				"element": "H" 
			}
		],
		 "valence_orbital": [ 
			{
				"type": "occ",
				"energy": -0.28837,
				"method": "rhf"
			},
			{
				"type": "occ",
				"energy": -0.28695,
				"method": "rhf"
			},
			{
				"type": "occ",
				"energy": -0.27611,
				"method": "rhf"
			},
			{
				"type": "occ",
				"energy": -0.25754,
				"method": "rhf"
			},
			{
				"type": "occ",
				"energy": -0.21044,
				"method": "rhf"
			},
			{
				"type": "unocc",
				"energy": -0.01964,
				"method": "rhf"
			},
			{
				"type": "unocc",
				"energy": 0.00133,
				"method": "rhf"
			},
			{
				"type": "unocc",
				"energy": 0.01398,
				"method": "rhf"
			},
			{
				"type": "unocc",
				"energy": 0.0845,
				"method": "rhf"
			},
			{
				"type": "unocc",
				"energy": 0.11621,
				"method": "rhf"
			}
		],
		"cosmo_sigma_profile": { 
			"-0.025": 0.0,
			"-0.024": 0.0,
			"-0.023": 0.0,
			"-0.022": 0.0,
			"-0.021": 0.0,
			"-0.02": 0.0,
			"-0.019": 0.0,
			"-0.018": 0.0,
			"-0.017": 0.0,
			"-0.016": 0.0,
			"-0.015": 0.0,
			"-0.014": 0.0779121600459,
			"-0.013": 1.49202995692,
			"-0.012": 2.55963637043,
			"-0.011": 2.4903455409,
			"-0.01": 2.77706508709,
			"-0.009": 2.75714810136,
			"-0.008": 3.03396266311,
			"-0.007": 4.70732053397,
			"-0.006": 5.14078470074,
			"-0.005": 6.25505521306,
			"-0.004": 9.34549733175,
			"-0.003": 9.46344466213,
			"-0.002": 11.0932652666,
			"-0.001": 13.3582934974,
			"0.0": 14.98810567,
			"0.001": 12.9504223091,
			"0.002": 18.125056763,
			"0.003": 17.8651400362,
			"0.004": 13.8109028393,
			"0.005": 9.66804559953,
			"0.006": 3.13992387889,
			"0.007": 2.94415246151,
			"0.008": 2.09101257419,
			"0.009": 1.62825148578,
			"0.01": 1.87588183835,
			"0.011": 1.82201839224,
			"0.012": 1.16018328055,
			"0.013": 1.1390302672,
			"0.014": 0.388152599622,
			"0.015": 0.0,
			"0.016": 0.0,
			"0.017": 0.0,
			"0.018": 0.0,
			"0.019": 0.0,
			"0.02": 0.0,
			"0.021": 0.0,
			"0.022": 0.0,
			"0.023": 0.0,
			"0.024": 0.0,
			"0.025": 0.0
		}
	}
}
