{
	 "smiles": "CCOC(=O)CS(=O)(=O)CC1=CC=CC=C1", 
	 "Tm": 323.15, 
	 "num_atms": 30, 
	 "gaussian": { 
		 "optdone": 1, 
		 "sigma_profile": "yes", 
		 "theory": "DFT", 
		 "functional": "B3LYP", 
		 "basiset": "6-31G**", 
		 "properties": { 
			 "R2extent": 4978.4397, 
			 "electric_dipole_moment_norm": 4.2059078366, 
			 "electric_quadrupole_moment_norm": 17.897565844, 
			 "total_energy": -1126.64739202, 
			 "HOMO_LUMO_gap": 0.22305, 
			 "cosmo_polarized_energy": -15.57, 
			 "cosmo_cavitation_energy": 34.81, 
			 "cosmo_dispersion_energy": -24.81, 
			 "cosmo_repulsion_energy": 1.92, 
			 "cosmo_total_nonelectrostatic_energy": 11.92, 
			 "SMD_solvation_energy": 6.02 
		},
		"coords": [
			{
				"x": 3.8875223723,
				"y": 1.4588240659,
				"z": 0.9557336653,
				"element": "C" 
			},
			{
				"x": 2.8864137517,
				"y": 0.8875026766,
				"z": 1.9471386031,
				"element": "C" 
			},
			{
				"x": 2.1420052695,
				"y": -0.2177534144,
				"z": 1.3651900613,
				"element": "O" 
			},
			{
				"x": 1.0502234605,
				"y": 0.0964801365,
				"z": 0.6587860848,
				"element": "C" 
			},
			{
				"x": 0.6551450506,
				"y": 1.228337609,
				"z": 0.4509434835,
				"element": "O" 
			},
			{
				"x": 0.3497327884,
				"y": -1.1440186102,
				"z": 0.1495991861,
				"element": "C" 
			},
			{
				"x": -1.3029010862,
				"y": -1.3617375414,
				"z": 0.9202029723,
				"element": "S" 
			},
			{
				"x": -1.8180761254,
				"y": -2.6460327271,
				"z": 0.4227364773,
				"element": "O" 
			},
			{
				"x": -1.1658024239,
				"y": -1.1167445701,
				"z": 2.3640919753,
				"element": "O" 
			},
			{
				"x": -2.3195030827,
				"y": 0.0018629954,
				"z": 0.2271401736,
				"element": "C" 
			},
			{
				"x": -2.4752760885,
				"y": -0.0332624734,
				"z": -1.2671638864,
				"element": "C" 
			},
			{
				"x": -1.7190187755,
				"y": 0.8313289102,
				"z": -2.0726628585,
				"element": "C" 
			},
			{
				"x": -1.8634746716,
				"y": 0.8085661553,
				"z": -3.4608411049,
				"element": "C" 
			},
			{
				"x": -2.7598579411,
				"y": -0.079768815,
				"z": -4.0572794233,
				"element": "C" 
			},
			{
				"x": -3.5100111281,
				"y": -0.948854267,
				"z": -3.261144702,
				"element": "C" 
			},
			{
				"x": -3.3688607165,
				"y": -0.9275859523,
				"z": -1.8744310727,
				"element": "C" 
			},
			{
				"x": 3.3737984465,
				"y": 1.9117119455,
				"z": 0.1042101051,
				"element": "H" 
			},
			{
				"x": 4.5641647048,
				"y": 0.6805763936,
				"z": 0.5910871468,
				"element": "H" 
			},
			{
				"x": 4.4875469498,
				"y": 2.233248394,
				"z": 1.4445997704,
				"element": "H" 
			},
			{
				"x": 3.3819215172,
				"y": 0.4445658772,
				"z": 2.8132461691,
				"element": "H" 
			},
			{
				"x": 2.1756351133,
				"y": 1.6461578059,
				"z": 2.2813255576,
				"element": "H" 
			},
			{
				"x": 0.1860784276,
				"y": -1.0769023645,
				"z": -0.9281174393,
				"element": "H" 
			},
			{
				"x": 0.8904089757,
				"y": -2.0584762247,
				"z": 0.3961334751,
				"element": "H" 
			},
			{
				"x": -1.842038646,
				"y": 0.9172197867,
				"z": 0.5798258626,
				"element": "H" 
			},
			{
				"x": -3.267154561,
				"y": -0.1370253301,
				"z": 0.7568702227,
				"element": "H" 
			},
			{
				"x": -1.0173429515,
				"y": 1.5155905886,
				"z": -1.6039059096,
				"element": "H" 
			},
			{
				"x": -1.2780241127,
				"y": 1.4871254445,
				"z": -4.0746230525,
				"element": "H" 
			},
			{
				"x": -2.8747186786,
				"y": -0.095111513,
				"z": -5.1372941707,
				"element": "H" 
			},
			{
				"x": -4.2066481103,
				"y": -1.6438957334,
				"z": -3.7206647567,
				"element": "H" 
			},
			{
				"x": -3.9433877285,
				"y": -1.6116292484,
				"z": -1.2574326153,
				"element": "H" 
			}
		],
		 "valence_orbital": [ 
			{
				"type": "occ",
				"energy": -0.30198,
				"method": "rhf"
			},
			{
				"type": "occ",
				"energy": -0.29471,
				"method": "rhf"
			},
			{
				"type": "occ",
				"energy": -0.28915,
				"method": "rhf"
			},
			{
				"type": "occ",
				"energy": -0.25809,
				"method": "rhf"
			},
			{
				"type": "occ",
				"energy": -0.25088,
				"method": "rhf"
			},
			{
				"type": "unocc",
				"energy": -0.02783,
				"method": "rhf"
			},
			{
				"type": "unocc",
				"energy": -0.01785,
				"method": "rhf"
			},
			{
				"type": "unocc",
				"energy": -0.01001,
				"method": "rhf"
			},
			{
				"type": "unocc",
				"energy": 0.06906,
				"method": "rhf"
			},
			{
				"type": "unocc",
				"energy": 0.07887,
				"method": "rhf"
			}
		],
		"cosmo_sigma_profile": { 
			"-0.025": 0.0,
			"-0.024": 0.0,
			"-0.023": 0.0,
			"-0.022": 0.0,
			"-0.021": 0.0,
			"-0.02": 0.0,
			"-0.019": 0.0,
			"-0.018": 0.0,
			"-0.017": 0.0,
			"-0.016": 0.0,
			"-0.015": 0.0,
			"-0.014": 0.0,
			"-0.013": 0.0,
			"-0.012": 0.0,
			"-0.011": 0.0207070381609,
			"-0.01": 1.57800257211,
			"-0.009": 4.54184283315,
			"-0.008": 5.49837033139,
			"-0.007": 6.01042806506,
			"-0.006": 17.1590779819,
			"-0.005": 23.3654596846,
			"-0.004": 28.6813976497,
			"-0.003": 22.4587076066,
			"-0.002": 20.1688809615,
			"-0.001": 18.6303252917,
			"0.0": 18.4167669473,
			"0.001": 13.6612230957,
			"0.002": 12.3470512246,
			"0.003": 13.6727795946,
			"0.004": 13.1485748125,
			"0.005": 12.3632786619,
			"0.006": 5.91586290866,
			"0.007": 3.72812282508,
			"0.008": 5.56975564997,
			"0.009": 5.41342777887,
			"0.01": 8.0132285788,
			"0.011": 10.8562920917,
			"0.012": 4.68683808039,
			"0.013": 0.0,
			"0.014": 0.0,
			"0.015": 0.0,
			"0.016": 0.0,
			"0.017": 0.0,
			"0.018": 0.0,
			"0.019": 0.0,
			"0.02": 0.0,
			"0.021": 0.0,
			"0.022": 0.0,
			"0.023": 0.0,
			"0.024": 0.0,
			"0.025": 0.0
		}
	}
}
