{
	 "smiles": "ClC1=CC2=C(NN=C2C#N)C=C1", 
	 "Tm": 484.15, 
	 "num_atms": 16, 
	 "gaussian": { 
		 "optdone": 1, 
		 "sigma_profile": "yes", 
		 "theory": "DFT", 
		 "functional": "B3LYP", 
		 "basiset": "6-31G**", 
		 "properties": { 
			 "R2extent": 2575.3517, 
			 "electric_dipole_moment_norm": 6.19506474946, 
			 "electric_quadrupole_moment_norm": 14.0866882616, 
			 "total_energy": -931.672734957, 
			 "HOMO_LUMO_gap": 0.17812, 
			 "cosmo_polarized_energy": -14.62, 
			 "cosmo_cavitation_energy": 24.06, 
			 "cosmo_dispersion_energy": -17.5, 
			 "cosmo_repulsion_energy": 1.39, 
			 "cosmo_total_nonelectrostatic_energy": 7.94, 
			 "SMD_solvation_energy": 4.09 
		},
		"coords": [
			{
				"x": 0.0489122747,
				"y": -3.7403921108,
				"z": -1.4217873021,
				"element": "Cl" 
			},
			{
				"x": 0.00875286,
				"y": -2.3379049387,
				"z": -0.3656483277,
				"element": "C" 
			},
			{
				"x": 0.3239432735,
				"y": -1.0920387734,
				"z": -0.8782724774,
				"element": "C" 
			},
			{
				"x": 0.2759360683,
				"y": -0.004666881,
				"z": 0.0100147576,
				"element": "C" 
			},
			{
				"x": -0.0815601513,
				"y": -0.2003080929,
				"z": 1.363847875,
				"element": "C" 
			},
			{
				"x": -0.0310162776,
				"y": 1.0421988307,
				"z": 1.9429387974,
				"element": "N" 
			},
			{
				"x": 0.3255937575,
				"y": 2.0140890244,
				"z": 1.0849664348,
				"element": "N" 
			},
			{
				"x": 0.5157285827,
				"y": 1.4075404256,
				"z": -0.0856879202,
				"element": "C" 
			},
			{
				"x": 0.9079020895,
				"y": 2.1364979906,
				"z": -1.244956629,
				"element": "C" 
			},
			{
				"x": 1.2275434977,
				"y": 2.6786557341,
				"z": -2.2229179083,
				"element": "N" 
			},
			{
				"x": -0.399373979,
				"y": -1.4686265425,
				"z": 1.873215902,
				"element": "C" 
			},
			{
				"x": -0.34917197,
				"y": -2.5336047957,
				"z": 0.9899760426,
				"element": "C" 
			},
			{
				"x": 0.5956795495,
				"y": -0.962719028,
				"z": -1.919636357,
				"element": "H" 
			},
			{
				"x": -0.2240467545,
				"y": 1.2937525117,
				"z": 2.9003095515,
				"element": "H" 
			},
			{
				"x": -0.6736423877,
				"y": -1.6182098025,
				"z": 2.9123003931,
				"element": "H" 
			},
			{
				"x": -0.5851804334,
				"y": -3.5354635516,
				"z": 1.3301371677,
				"element": "H" 
			}
		],
		 "valence_orbital": [ 
			{
				"type": "occ",
				"energy": -0.33228,
				"method": "rhf"
			},
			{
				"type": "occ",
				"energy": -0.32179,
				"method": "rhf"
			},
			{
				"type": "occ",
				"energy": -0.30902,
				"method": "rhf"
			},
			{
				"type": "occ",
				"energy": -0.26834,
				"method": "rhf"
			},
			{
				"type": "occ",
				"energy": -0.24747,
				"method": "rhf"
			},
			{
				"type": "unocc",
				"energy": -0.06935,
				"method": "rhf"
			},
			{
				"type": "unocc",
				"energy": -0.01865,
				"method": "rhf"
			},
			{
				"type": "unocc",
				"energy": -0.01273,
				"method": "rhf"
			},
			{
				"type": "unocc",
				"energy": 0.01217,
				"method": "rhf"
			},
			{
				"type": "unocc",
				"energy": 0.02465,
				"method": "rhf"
			}
		],
		"cosmo_sigma_profile": { 
			"-0.025": 0.0,
			"-0.024": 0.0,
			"-0.023": 0.0,
			"-0.022": 0.0,
			"-0.021": 0.0,
			"-0.02": 0.0,
			"-0.019": 0.0666392772926,
			"-0.018": 1.47398639308,
			"-0.017": 1.71385104769,
			"-0.016": 1.29457287136,
			"-0.015": 1.68601035499,
			"-0.014": 1.0246927666,
			"-0.013": 0.654745561833,
			"-0.012": 1.07130278467,
			"-0.011": 1.14365137943,
			"-0.01": 1.22651186003,
			"-0.009": 2.36461861372,
			"-0.008": 5.7074344559,
			"-0.007": 5.67524807673,
			"-0.006": 6.56830070348,
			"-0.005": 6.44304728119,
			"-0.004": 6.34471732614,
			"-0.003": 7.8381189665,
			"-0.002": 11.7629664568,
			"-0.001": 18.2887380677,
			"0.0": 16.239219927,
			"0.001": 22.2564110615,
			"0.002": 18.1655479192,
			"0.003": 11.1650979694,
			"0.004": 12.7344998418,
			"0.005": 8.12843654386,
			"0.006": 3.33935069021,
			"0.007": 3.42041616943,
			"0.008": 5.22205876698,
			"0.009": 4.01510376759,
			"0.01": 3.63404042022,
			"0.011": 3.53995675035,
			"0.012": 3.1423376342,
			"0.013": 0.70029293804,
			"0.014": 0.0,
			"0.015": 0.0,
			"0.016": 0.0,
			"0.017": 0.0,
			"0.018": 0.0,
			"0.019": 0.0,
			"0.02": 0.0,
			"0.021": 0.0,
			"0.022": 0.0,
			"0.023": 0.0,
			"0.024": 0.0,
			"0.025": 0.0
		}
	}
}
