{
	 "smiles": "FC1=CC=C(C=C1)C(=O)C(Br)Br", 
	 "Tm": 310.15, 
	 "num_atms": 17, 
	 "gaussian": { 
		 "optdone": 1, 
		 "sigma_profile": "yes", 
		 "theory": "DFT", 
		 "functional": "B3LYP", 
		 "basiset": "6-31G**", 
		 "properties": { 
			 "R2extent": 4703.4017, 
			 "electric_dipole_moment_norm": 2.96196753021, 
			 "electric_quadrupole_moment_norm": 4.51564695919, 
			 "total_energy": -5625.71637908, 
			 "HOMO_LUMO_gap": 0.1826, 
			 "cosmo_polarized_energy": -9.5, 
			 "cosmo_cavitation_energy": 26.81, 
			 "cosmo_dispersion_energy": -20.01, 
			 "cosmo_repulsion_energy": 1.57, 
			 "cosmo_total_nonelectrostatic_energy": 8.37, 
			 "SMD_solvation_energy": 3.32 
		},
		"coords": [
			{
				"x": 2.7319128429,
				"y": -4.3041684682,
				"z": 0.5100410118,
				"element": "F" 
			},
			{
				"x": 1.963752752,
				"y": -3.2131320691,
				"z": 0.3551154281,
				"element": "C" 
			},
			{
				"x": 2.4358241767,
				"y": -1.9881948231,
				"z": 0.8167958581,
				"element": "C" 
			},
			{
				"x": 1.6384939373,
				"y": -0.8593221985,
				"z": 0.6514142481,
				"element": "C" 
			},
			{
				"x": 0.3809173893,
				"y": -0.9550784769,
				"z": 0.0312427667,
				"element": "C" 
			},
			{
				"x": -0.0657935028,
				"y": -2.2119250868,
				"z": -0.4155885099,
				"element": "C" 
			},
			{
				"x": 0.7206096499,
				"y": -3.3457965163,
				"z": -0.2595558607,
				"element": "C" 
			},
			{
				"x": -0.5273401179,
				"y": 0.2060166495,
				"z": -0.2054142329,
				"element": "C" 
			},
			{
				"x": -1.6381970563,
				"y": 0.0682622599,
				"z": -0.6763524367,
				"element": "O" 
			},
			{
				"x": 0.0046629058,
				"y": 1.6128964526,
				"z": 0.145217854,
				"element": "C" 
			},
			{
				"x": -0.8925784404,
				"y": 3.0054373813,
				"z": -0.8649394427,
				"element": "Br" 
			},
			{
				"x": -0.200759414,
				"y": 1.8727096253,
				"z": 2.0958732874,
				"element": "Br" 
			},
			{
				"x": 3.4059344955,
				"y": -1.9346502801,
				"z": 1.2979364807,
				"element": "H" 
			},
			{
				"x": 1.9984995945,
				"y": 0.0874844857,
				"z": 1.0377128837,
				"element": "H" 
			},
			{
				"x": -1.0396019307,
				"y": -2.2725125317,
				"z": -0.8885997627,
				"element": "H" 
			},
			{
				"x": 0.3929482024,
				"y": -4.3212245746,
				"z": -0.6017696174,
				"element": "H" 
			},
			{
				"x": 1.0664145157,
				"y": 1.726398171,
				"z": -0.0507299558,
				"element": "H" 
			}
		],
		 "valence_orbital": [ 
			{
				"type": "occ",
				"energy": -0.2897,
				"method": "rhf"
			},
			{
				"type": "occ",
				"energy": -0.28547,
				"method": "rhf"
			},
			{
				"type": "occ",
				"energy": -0.28155,
				"method": "rhf"
			},
			{
				"type": "occ",
				"energy": -0.27448,
				"method": "rhf"
			},
			{
				"type": "occ",
				"energy": -0.26796,
				"method": "rhf"
			},
			{
				"type": "unocc",
				"energy": -0.08536,
				"method": "rhf"
			},
			{
				"type": "unocc",
				"energy": -0.04173,
				"method": "rhf"
			},
			{
				"type": "unocc",
				"energy": -0.03221,
				"method": "rhf"
			},
			{
				"type": "unocc",
				"energy": -0.00982,
				"method": "rhf"
			},
			{
				"type": "unocc",
				"energy": 0.04491,
				"method": "rhf"
			}
		],
		"cosmo_sigma_profile": { 
			"-0.025": 0.0,
			"-0.024": 0.0,
			"-0.023": 0.0,
			"-0.022": 0.0,
			"-0.021": 0.0,
			"-0.02": 0.0,
			"-0.019": 0.0,
			"-0.018": 0.0,
			"-0.017": 0.0,
			"-0.016": 0.0,
			"-0.015": 0.0,
			"-0.014": 0.0,
			"-0.013": 0.303952279471,
			"-0.012": 1.71692941749,
			"-0.011": 1.9336416602,
			"-0.01": 2.55796293379,
			"-0.009": 2.12213861317,
			"-0.008": 5.22305500302,
			"-0.007": 8.08511079919,
			"-0.006": 8.76846339965,
			"-0.005": 8.32850862337,
			"-0.004": 9.7324272897,
			"-0.003": 9.59046980227,
			"-0.002": 11.1775034026,
			"-0.001": 17.5168111066,
			"0.0": 20.9908763233,
			"0.001": 25.0138112622,
			"0.002": 24.5283676389,
			"0.003": 23.3759552407,
			"0.004": 22.2747646341,
			"0.005": 3.53876176175,
			"0.006": 1.44259111678,
			"0.007": 2.59161727254,
			"0.008": 2.21191339674,
			"0.009": 2.45998156133,
			"0.01": 4.02531554155,
			"0.011": 2.48937418613,
			"0.012": 0.354187886366,
			"0.013": 0.0,
			"0.014": 0.0,
			"0.015": 0.0,
			"0.016": 0.0,
			"0.017": 0.0,
			"0.018": 0.0,
			"0.019": 0.0,
			"0.02": 0.0,
			"0.021": 0.0,
			"0.022": 0.0,
			"0.023": 0.0,
			"0.024": 0.0,
			"0.025": 0.0
		}
	}
}
