{
	 "smiles": "FC(F)(F)C(=O)C1=CNC2=CC=CC=C12", 
	 "Tm": 485.15, 
	 "num_atms": 21, 
	 "gaussian": { 
		 "optdone": 1, 
		 "sigma_profile": "yes", 
		 "theory": "DFT", 
		 "functional": "B3LYP", 
		 "basiset": "6-31G**", 
		 "properties": { 
			 "R2extent": 3107.2911, 
			 "electric_dipole_moment_norm": 5.32583887665, 
			 "electric_quadrupole_moment_norm": 14.0470552366, 
			 "total_energy": -814.177440907, 
			 "HOMO_LUMO_gap": 0.16535, 
			 "cosmo_polarized_energy": -13.07, 
			 "cosmo_cavitation_energy": 26.72, 
			 "cosmo_dispersion_energy": -19.42, 
			 "cosmo_repulsion_energy": 1.44, 
			 "cosmo_total_nonelectrostatic_energy": 8.74, 
			 "SMD_solvation_energy": 6.16 
		},
		"coords": [
			{
				"x": 1.8243596877,
				"y": 2.6285665352,
				"z": 2.5063671348,
				"element": "F" 
			},
			{
				"x": 1.0981198734,
				"y": 1.8555538145,
				"z": 1.6997322939,
				"element": "C" 
			},
			{
				"x": 0.5905128646,
				"y": 2.6320919458,
				"z": 0.7135791608,
				"element": "F" 
			},
			{
				"x": 0.053873663,
				"y": 1.3666169714,
				"z": 2.4094724684,
				"element": "F" 
			},
			{
				"x": 1.9448561475,
				"y": 0.702209032,
				"z": 1.1068286235,
				"element": "C" 
			},
			{
				"x": 3.1208336271,
				"y": 0.6383933998,
				"z": 1.4313652543,
				"element": "O" 
			},
			{
				"x": 1.3039231217,
				"y": -0.2413262861,
				"z": 0.1983459837,
				"element": "C" 
			},
			{
				"x": 2.0543106292,
				"y": -1.2770569949,
				"z": -0.3398238462,
				"element": "C" 
			},
			{
				"x": 1.2782035638,
				"y": -2.0367945895,
				"z": -1.1536541712,
				"element": "N" 
			},
			{
				"x": -0.0149247828,
				"y": -1.5274474254,
				"z": -1.1808085093,
				"element": "C" 
			},
			{
				"x": -1.1294306391,
				"y": -1.9931773183,
				"z": -1.8813079842,
				"element": "C" 
			},
			{
				"x": -2.3166839441,
				"y": -1.2880581059,
				"z": -1.7283541863,
				"element": "C" 
			},
			{
				"x": -2.3773101266,
				"y": -0.1532523308,
				"z": -0.8980325169,
				"element": "C" 
			},
			{
				"x": -1.2632860723,
				"y": 0.3041643743,
				"z": -0.2039336651,
				"element": "C" 
			},
			{
				"x": -0.0442205374,
				"y": -0.3859239422,
				"z": -0.3356518972,
				"element": "C" 
			},
			{
				"x": 3.0990061426,
				"y": -1.4929832625,
				"z": -0.1715422176,
				"element": "H" 
			},
			{
				"x": 1.5923790707,
				"y": -2.8487153965,
				"z": -1.6622358481,
				"element": "H" 
			},
			{
				"x": -1.0692802452,
				"y": -2.8704695238,
				"z": -2.5189701794,
				"element": "H" 
			},
			{
				"x": -3.2072216153,
				"y": -1.616538641,
				"z": -2.2553569293,
				"element": "H" 
			},
			{
				"x": -3.3185494696,
				"y": 0.3786795656,
				"z": -0.7969686439,
				"element": "H" 
			},
			{
				"x": -1.3430709589,
				"y": 1.1794681783,
				"z": 0.4261496756,
				"element": "H" 
			}
		],
		 "valence_orbital": [ 
			{
				"type": "occ",
				"energy": -0.3501,
				"method": "rhf"
			},
			{
				"type": "occ",
				"energy": -0.29178,
				"method": "rhf"
			},
			{
				"type": "occ",
				"energy": -0.2649,
				"method": "rhf"
			},
			{
				"type": "occ",
				"energy": -0.24186,
				"method": "rhf"
			},
			{
				"type": "occ",
				"energy": -0.22581,
				"method": "rhf"
			},
			{
				"type": "unocc",
				"energy": -0.06046,
				"method": "rhf"
			},
			{
				"type": "unocc",
				"energy": -0.01826,
				"method": "rhf"
			},
			{
				"type": "unocc",
				"energy": 0.01187,
				"method": "rhf"
			},
			{
				"type": "unocc",
				"energy": 0.0595,
				"method": "rhf"
			},
			{
				"type": "unocc",
				"energy": 0.07833,
				"method": "rhf"
			}
		],
		"cosmo_sigma_profile": { 
			"-0.025": 0.0,
			"-0.024": 0.0,
			"-0.023": 0.0,
			"-0.022": 0.0,
			"-0.021": 0.0,
			"-0.02": 0.0,
			"-0.019": 0.0,
			"-0.018": 0.0617884992239,
			"-0.017": 1.70047088855,
			"-0.016": 1.62532188992,
			"-0.015": 1.48845818024,
			"-0.014": 1.31868727303,
			"-0.013": 1.03945361702,
			"-0.012": 1.61637450323,
			"-0.011": 1.61467988741,
			"-0.01": 2.51309795834,
			"-0.009": 2.53558192275,
			"-0.008": 2.4762884437,
			"-0.007": 3.77327293349,
			"-0.006": 5.17218097761,
			"-0.005": 8.50020942131,
			"-0.004": 11.9679865355,
			"-0.003": 10.0643687032,
			"-0.002": 10.087474234,
			"-0.001": 11.9645871845,
			"0.0": 15.3860107557,
			"0.001": 21.8732080485,
			"0.002": 38.1244703689,
			"0.003": 18.8168944579,
			"0.004": 11.536179227,
			"0.005": 10.4425226525,
			"0.006": 5.54261782239,
			"0.007": 1.53420475807,
			"0.008": 1.3845772767,
			"0.009": 2.60735007479,
			"0.01": 3.09110744561,
			"0.011": 4.11186876313,
			"0.012": 1.46941003575,
			"0.013": 0.0,
			"0.014": 0.0,
			"0.015": 0.0,
			"0.016": 0.0,
			"0.017": 0.0,
			"0.018": 0.0,
			"0.019": 0.0,
			"0.02": 0.0,
			"0.021": 0.0,
			"0.022": 0.0,
			"0.023": 0.0,
			"0.024": 0.0,
			"0.025": 0.0
		}
	}
}
