{
	 "smiles": "CCOC1=CC=CC2=C1OC(=C2)C(O)=O", 
	 "Tm": 470.65, 
	 "num_atms": 25, 
	 "gaussian": { 
		 "optdone": 1, 
		 "sigma_profile": "yes", 
		 "theory": "DFT", 
		 "functional": "B3LYP", 
		 "basiset": "6-31G**", 
		 "properties": { 
			 "R2extent": 3742.032, 
			 "electric_dipole_moment_norm": 4.23226904036, 
			 "electric_quadrupole_moment_norm": 17.4563520889, 
			 "total_energy": -726.082278422, 
			 "HOMO_LUMO_gap": 0.15975, 
			 "cosmo_polarized_energy": -13.17, 
			 "cosmo_cavitation_energy": 29.84, 
			 "cosmo_dispersion_energy": -21.67, 
			 "cosmo_repulsion_energy": 1.71, 
			 "cosmo_total_nonelectrostatic_energy": 9.88, 
			 "SMD_solvation_energy": 6.92 
		},
		"coords": [
			{
				"x": -3.8135442109,
				"y": -0.8925527816,
				"z": 1.3032304131,
				"element": "C" 
			},
			{
				"x": -2.3375546217,
				"y": -0.6029979665,
				"z": 1.09893348,
				"element": "C" 
			},
			{
				"x": -2.1778792379,
				"y": 0.8218944986,
				"z": 1.152431961,
				"element": "O" 
			},
			{
				"x": -0.9546109197,
				"y": 1.3930647177,
				"z": 1.001316167,
				"element": "C" 
			},
			{
				"x": -0.904643216,
				"y": 2.790452939,
				"z": 1.0703341007,
				"element": "C" 
			},
			{
				"x": 0.2936970085,
				"y": 3.5067483775,
				"z": 0.9309208365,
				"element": "C" 
			},
			{
				"x": 1.5056626707,
				"y": 2.862939262,
				"z": 0.7150571924,
				"element": "C" 
			},
			{
				"x": 1.4889908661,
				"y": 1.4618010679,
				"z": 0.64083894,
				"element": "C" 
			},
			{
				"x": 0.2752674284,
				"y": 0.7527270784,
				"z": 0.782933379,
				"element": "C" 
			},
			{
				"x": 0.5091442864,
				"y": -0.6010966882,
				"z": 0.6739418515,
				"element": "O" 
			},
			{
				"x": 1.8694385321,
				"y": -0.7428390574,
				"z": 0.4634913792,
				"element": "C" 
			},
			{
				"x": 2.499660367,
				"y": 0.4602306614,
				"z": 0.4353433195,
				"element": "C" 
			},
			{
				"x": 2.3968973831,
				"y": -2.1119743926,
				"z": 0.3099538063,
				"element": "C" 
			},
			{
				"x": 1.4758285332,
				"y": -3.102462602,
				"z": 0.3912606396,
				"element": "O" 
			},
			{
				"x": 3.5683327829,
				"y": -2.3426127871,
				"z": 0.1215117235,
				"element": "O" 
			},
			{
				"x": -4.4115914441,
				"y": -0.4186871798,
				"z": 0.5199891636,
				"element": "H" 
			},
			{
				"x": -4.1504671706,
				"y": -0.5137530369,
				"z": 2.2720782638,
				"element": "H" 
			},
			{
				"x": -3.9915097988,
				"y": -1.9718403403,
				"z": 1.2711818867,
				"element": "H" 
			},
			{
				"x": -1.9938305677,
				"y": -0.9788145983,
				"z": 0.1277088348,
				"element": "H" 
			},
			{
				"x": -1.7321466536,
				"y": -1.0739362369,
				"z": 1.8827442823,
				"element": "H" 
			},
			{
				"x": -1.8421746807,
				"y": 3.3099139925,
				"z": 1.2385190792,
				"element": "H" 
			},
			{
				"x": 0.2616557096,
				"y": 4.5900841974,
				"z": 0.9949940067,
				"element": "H" 
			},
			{
				"x": 2.4317935061,
				"y": 3.4169751096,
				"z": 0.6073468638,
				"element": "H" 
			},
			{
				"x": 3.5594337586,
				"y": 0.6037299029,
				"z": 0.2852264691,
				"element": "H" 
			},
			{
				"x": 0.5987496891,
				"y": -2.7170941374,
				"z": 0.5431119608,
				"element": "H" 
			}
		],
		 "valence_orbital": [ 
			{
				"type": "occ",
				"energy": -0.32096,
				"method": "rhf"
			},
			{
				"type": "occ",
				"energy": -0.29194,
				"method": "rhf"
			},
			{
				"type": "occ",
				"energy": -0.28126,
				"method": "rhf"
			},
			{
				"type": "occ",
				"energy": -0.25074,
				"method": "rhf"
			},
			{
				"type": "occ",
				"energy": -0.22163,
				"method": "rhf"
			},
			{
				"type": "unocc",
				"energy": -0.06188,
				"method": "rhf"
			},
			{
				"type": "unocc",
				"energy": 0.00015,
				"method": "rhf"
			},
			{
				"type": "unocc",
				"energy": 0.01616,
				"method": "rhf"
			},
			{
				"type": "unocc",
				"energy": 0.05502,
				"method": "rhf"
			},
			{
				"type": "unocc",
				"energy": 0.08562,
				"method": "rhf"
			}
		],
		"cosmo_sigma_profile": { 
			"-0.025": 0.0,
			"-0.024": 0.0,
			"-0.023": 0.0,
			"-0.022": 0.0,
			"-0.021": 0.0,
			"-0.02": 0.0,
			"-0.019": 0.0,
			"-0.018": 0.0,
			"-0.017": 0.0,
			"-0.016": 0.119442006038,
			"-0.015": 0.417971328187,
			"-0.014": 0.64238522285,
			"-0.013": 0.701281373547,
			"-0.012": 1.15592984343,
			"-0.011": 1.24048027405,
			"-0.01": 0.710759490773,
			"-0.009": 2.40222855672,
			"-0.008": 2.8538000158,
			"-0.007": 3.95196872436,
			"-0.006": 10.5546380822,
			"-0.005": 15.6945071894,
			"-0.004": 22.4567104698,
			"-0.003": 18.9137611232,
			"-0.002": 19.1573749237,
			"-0.001": 20.1371440239,
			"0.0": 21.4417063395,
			"0.001": 15.4902914105,
			"0.002": 13.6844827896,
			"0.003": 13.0691150895,
			"0.004": 11.329706284,
			"0.005": 8.81881238611,
			"0.006": 4.49323305046,
			"0.007": 2.98777495974,
			"0.008": 5.00925754517,
			"0.009": 5.15543286805,
			"0.01": 5.70391267106,
			"0.011": 4.99259509154,
			"0.012": 4.24381296334,
			"0.013": 0.792812286395,
			"0.014": 0.0,
			"0.015": 0.0,
			"0.016": 0.0,
			"0.017": 0.0,
			"0.018": 0.0,
			"0.019": 0.0,
			"0.02": 0.0,
			"0.021": 0.0,
			"0.022": 0.0,
			"0.023": 0.0,
			"0.024": 0.0,
			"0.025": 0.0
		}
	}
}
