{
	 "smiles": "CC(C)(C)C1=NC2=C(O1)C=CC(N)=C2", 
	 "Tm": 385.15, 
	 "num_atms": 28, 
	 "gaussian": { 
		 "optdone": 1, 
		 "sigma_profile": "yes", 
		 "theory": "DFT", 
		 "functional": "B3LYP", 
		 "basiset": "6-31G**", 
		 "properties": { 
			 "R2extent": 3524.0396, 
			 "electric_dipole_moment_norm": 1.60404114972, 
			 "electric_quadrupole_moment_norm": 12.6032443958, 
			 "total_energy": -612.354244801, 
			 "HOMO_LUMO_gap": 0.17997, 
			 "cosmo_polarized_energy": -10.81, 
			 "cosmo_cavitation_energy": 30.71, 
			 "cosmo_dispersion_energy": -22.21, 
			 "cosmo_repulsion_energy": 1.75, 
			 "cosmo_total_nonelectrostatic_energy": 10.25, 
			 "SMD_solvation_energy": 3.84 
		},
		"coords": [
			{
				"x": -0.272922354,
				"y": -2.5005491464,
				"z": -2.0974711315,
				"element": "C" 
			},
			{
				"x": 1.011237088,
				"y": -2.0420519896,
				"z": -1.3863305787,
				"element": "C" 
			},
			{
				"x": 2.0756786759,
				"y": -1.625693282,
				"z": -2.4289114015,
				"element": "C" 
			},
			{
				"x": 1.5690205961,
				"y": -3.1865010353,
				"z": -0.5075097973,
				"element": "C" 
			},
			{
				"x": 0.6963232324,
				"y": -0.8578495524,
				"z": -0.5079420618,
				"element": "C" 
			},
			{
				"x": -0.4423890627,
				"y": -0.2640336449,
				"z": -0.3297985851,
				"element": "N" 
			},
			{
				"x": -0.167958365,
				"y": 0.7647253027,
				"z": 0.5763135247,
				"element": "C" 
			},
			{
				"x": 1.1913425387,
				"y": 0.7199971722,
				"z": 0.9031581897,
				"element": "C" 
			},
			{
				"x": 1.7512585374,
				"y": -0.3268347928,
				"z": 0.2043147296,
				"element": "O" 
			},
			{
				"x": 1.7855470962,
				"y": 1.6073443023,
				"z": 1.7858459822,
				"element": "C" 
			},
			{
				"x": 0.9495191023,
				"y": 2.5724536988,
				"z": 2.3480087066,
				"element": "C" 
			},
			{
				"x": -0.4307505138,
				"y": 2.6455723061,
				"z": 2.0390204073,
				"element": "C" 
			},
			{
				"x": -1.2064892863,
				"y": 3.6763041461,
				"z": 2.5899059226,
				"element": "N" 
			},
			{
				"x": -1.0013624858,
				"y": 1.7298200705,
				"z": 1.1418299609,
				"element": "C" 
			},
			{
				"x": -0.0510111446,
				"y": -3.3605983502,
				"z": -2.7378124829,
				"element": "H" 
			},
			{
				"x": -1.041546057,
				"y": -2.7916241355,
				"z": -1.3768668442,
				"element": "H" 
			},
			{
				"x": -0.6880249126,
				"y": -1.7019401199,
				"z": -2.7176318816,
				"element": "H" 
			},
			{
				"x": 2.3249398773,
				"y": -2.4803041362,
				"z": -3.0666575715,
				"element": "H" 
			},
			{
				"x": 2.9927159409,
				"y": -1.2804232211,
				"z": -1.9436800149,
				"element": "H" 
			},
			{
				"x": 1.7034923718,
				"y": -0.8204154605,
				"z": -3.0702958558,
				"element": "H" 
			},
			{
				"x": 1.8156133641,
				"y": -4.0496873747,
				"z": -1.1346395083,
				"element": "H" 
			},
			{
				"x": 2.4747074425,
				"y": -2.8760489937,
				"z": 0.0206758845,
				"element": "H" 
			},
			{
				"x": 0.8316486681,
				"y": -3.5064189085,
				"z": 0.2357269425,
				"element": "H" 
			},
			{
				"x": 2.8407470733,
				"y": 1.5597071015,
				"z": 2.0314541308,
				"element": "H" 
			},
			{
				"x": 1.3683988756,
				"y": 3.2980159551,
				"z": 3.0402202119,
				"element": "H" 
			},
			{
				"x": -2.1978368455,
				"y": 3.4798046149,
				"z": 2.6239201485,
				"element": "H" 
			},
			{
				"x": -0.8735840448,
				"y": 4.0216844038,
				"z": 3.4800756969,
				"element": "H" 
			},
			{
				"x": -2.0564154086,
				"y": 1.7698450695,
				"z": 0.8889772762,
				"element": "H" 
			}
		],
		 "valence_orbital": [ 
			{
				"type": "occ",
				"energy": -0.31802,
				"method": "rhf"
			},
			{
				"type": "occ",
				"energy": -0.29334,
				"method": "rhf"
			},
			{
				"type": "occ",
				"energy": -0.27657,
				"method": "rhf"
			},
			{
				"type": "occ",
				"energy": -0.22836,
				"method": "rhf"
			},
			{
				"type": "occ",
				"energy": -0.19612,
				"method": "rhf"
			},
			{
				"type": "unocc",
				"energy": -0.01615,
				"method": "rhf"
			},
			{
				"type": "unocc",
				"energy": 0.02733,
				"method": "rhf"
			},
			{
				"type": "unocc",
				"energy": 0.05109,
				"method": "rhf"
			},
			{
				"type": "unocc",
				"energy": 0.08284,
				"method": "rhf"
			},
			{
				"type": "unocc",
				"energy": 0.08851,
				"method": "rhf"
			}
		],
		"cosmo_sigma_profile": { 
			"-0.025": 0.0,
			"-0.024": 0.0,
			"-0.023": 0.0,
			"-0.022": 0.0,
			"-0.021": 0.0,
			"-0.02": 0.0,
			"-0.019": 0.0,
			"-0.018": 0.0,
			"-0.017": 0.0,
			"-0.016": 0.0,
			"-0.015": 0.0,
			"-0.014": 0.0,
			"-0.013": 0.148963512405,
			"-0.012": 2.245370946,
			"-0.011": 2.47486333398,
			"-0.01": 3.02104420111,
			"-0.009": 3.33944618999,
			"-0.008": 3.2185005611,
			"-0.007": 4.36731659146,
			"-0.006": 7.33721562785,
			"-0.005": 6.02226692056,
			"-0.004": 11.8606712851,
			"-0.003": 25.7900918953,
			"-0.002": 21.4466540401,
			"-0.001": 23.7282644907,
			"0.0": 28.0291712113,
			"0.001": 21.319695364,
			"0.002": 13.1226045764,
			"0.003": 10.754970356,
			"0.004": 13.2463878047,
			"0.005": 14.9255405104,
			"0.006": 7.15163192263,
			"0.007": 3.64953422042,
			"0.008": 2.14880346186,
			"0.009": 1.81820159867,
			"0.01": 2.27589976216,
			"0.011": 1.56532386907,
			"0.012": 1.92042244673,
			"0.013": 1.55165941764,
			"0.014": 1.35626817681,
			"0.015": 1.32000820683,
			"0.016": 0.331893130816,
			"0.017": 0.0,
			"0.018": 0.0,
			"0.019": 0.0,
			"0.02": 0.0,
			"0.021": 0.0,
			"0.022": 0.0,
			"0.023": 0.0,
			"0.024": 0.0,
			"0.025": 0.0
		}
	}
}
