{
	 "smiles": "OC(=O)C1=CC2=C(OC1)C=CC(F)=C2", 
	 "Tm": 483.15, 
	 "num_atms": 21, 
	 "gaussian": { 
		 "optdone": 1, 
		 "sigma_profile": "yes", 
		 "theory": "DFT", 
		 "functional": "B3LYP", 
		 "basiset": "6-31G**", 
		 "properties": { 
			 "R2extent": 4362.058, 
			 "electric_dipole_moment_norm": 3.20503493429, 
			 "electric_quadrupole_moment_norm": 22.6507822585, 
			 "total_energy": -710.773381121, 
			 "HOMO_LUMO_gap": 0.14492, 
			 "cosmo_polarized_energy": -15.23, 
			 "cosmo_cavitation_energy": 26.2, 
			 "cosmo_dispersion_energy": -19.43, 
			 "cosmo_repulsion_energy": 1.48, 
			 "cosmo_total_nonelectrostatic_energy": 8.25, 
			 "SMD_solvation_energy": 6.18 
		},
		"coords": [
			{
				"x": -0.8331613283,
				"y": 1.7735697916,
				"z": -5.2938275346,
				"element": "O" 
			},
			{
				"x": -0.8081209656,
				"y": 2.5360203544,
				"z": -4.1684667171,
				"element": "C" 
			},
			{
				"x": -1.1699559624,
				"y": 3.6918908232,
				"z": -4.2058093392,
				"element": "O" 
			},
			{
				"x": -0.3475647904,
				"y": 1.8998271098,
				"z": -2.9090918835,
				"element": "C" 
			},
			{
				"x": -0.3192907506,
				"y": 0.5712260738,
				"z": -2.6766810075,
				"element": "C" 
			},
			{
				"x": 0.1013847951,
				"y": 0.0626104616,
				"z": -1.382266478,
				"element": "C" 
			},
			{
				"x": 0.7130113644,
				"y": 0.9722114927,
				"z": -0.4915184908,
				"element": "C" 
			},
			{
				"x": 0.8916155359,
				"y": 2.2792408829,
				"z": -0.8345641503,
				"element": "O" 
			},
			{
				"x": -0.0538482012,
				"y": 2.8383411236,
				"z": -1.7606794707,
				"element": "C" 
			},
			{
				"x": 1.2206851144,
				"y": 0.5316733096,
				"z": 0.7314476316,
				"element": "C" 
			},
			{
				"x": 1.1021027557,
				"y": -0.8104530715,
				"z": 1.0901746147,
				"element": "C" 
			},
			{
				"x": 0.4795539252,
				"y": -1.6980423223,
				"z": 0.214974134,
				"element": "C" 
			},
			{
				"x": 0.3612209107,
				"y": -2.9951611671,
				"z": 0.5704977806,
				"element": "F" 
			},
			{
				"x": -0.0135217264,
				"y": -1.2866593216,
				"z": -1.0130126626,
				"element": "C" 
			},
			{
				"x": -0.350034546,
				"y": 0.948571381,
				"z": -5.1474591911,
				"element": "H" 
			},
			{
				"x": -0.6121984323,
				"y": -0.1540087627,
				"z": -3.4337280735,
				"element": "H" 
			},
			{
				"x": -0.9842132098,
				"y": 3.0902243247,
				"z": -1.2276080007,
				"element": "H" 
			},
			{
				"x": 0.3863045801,
				"y": 3.7701305312,
				"z": -2.116416668,
				"element": "H" 
			},
			{
				"x": 1.7011231652,
				"y": 1.2478767127,
				"z": 1.388880734,
				"element": "H" 
			},
			{
				"x": 1.4795019238,
				"y": -1.1745189732,
				"z": 2.0394807736,
				"element": "H" 
			},
			{
				"x": -0.4791941575,
				"y": -2.0087707543,
				"z": -1.6761260009,
				"element": "H" 
			}
		],
		 "valence_orbital": [ 
			{
				"type": "occ",
				"energy": -0.32145,
				"method": "rhf"
			},
			{
				"type": "occ",
				"energy": -0.31522,
				"method": "rhf"
			},
			{
				"type": "occ",
				"energy": -0.28195,
				"method": "rhf"
			},
			{
				"type": "occ",
				"energy": -0.26164,
				"method": "rhf"
			},
			{
				"type": "occ",
				"energy": -0.22645,
				"method": "rhf"
			},
			{
				"type": "unocc",
				"energy": -0.08153,
				"method": "rhf"
			},
			{
				"type": "unocc",
				"energy": -0.01332,
				"method": "rhf"
			},
			{
				"type": "unocc",
				"energy": 0.00855,
				"method": "rhf"
			},
			{
				"type": "unocc",
				"energy": 0.05061,
				"method": "rhf"
			},
			{
				"type": "unocc",
				"energy": 0.06338,
				"method": "rhf"
			}
		],
		"cosmo_sigma_profile": { 
			"-0.025": 0.0,
			"-0.024": 0.0,
			"-0.023": 0.0,
			"-0.022": 0.0,
			"-0.021": 0.0,
			"-0.02": 0.0,
			"-0.019": 0.524489546676,
			"-0.018": 0.860645566115,
			"-0.017": 1.32192031481,
			"-0.016": 1.0466855343,
			"-0.015": 0.48480584829,
			"-0.014": 1.29092437991,
			"-0.013": 0.950788912554,
			"-0.012": 1.37251273427,
			"-0.011": 1.35294287563,
			"-0.01": 1.49539604109,
			"-0.009": 2.54561939589,
			"-0.008": 5.29238421538,
			"-0.007": 7.30479795449,
			"-0.006": 10.7599187639,
			"-0.005": 12.2537296816,
			"-0.004": 9.97653796246,
			"-0.003": 11.1928033095,
			"-0.002": 10.6196317078,
			"-0.001": 10.0331460277,
			"0.0": 15.2402387061,
			"0.001": 19.411131667,
			"0.002": 20.080282195,
			"0.003": 12.2009027212,
			"0.004": 13.1490950465,
			"0.005": 6.65376025668,
			"0.006": 3.69165386241,
			"0.007": 3.89527389614,
			"0.008": 4.04558955221,
			"0.009": 3.96492570935,
			"0.01": 6.12466109285,
			"0.011": 5.20637079341,
			"0.012": 4.39800632559,
			"0.013": 1.53498672997,
			"0.014": 0.0666872422258,
			"0.015": 0.0,
			"0.016": 0.0,
			"0.017": 0.0,
			"0.018": 0.0,
			"0.019": 0.0,
			"0.02": 0.0,
			"0.021": 0.0,
			"0.022": 0.0,
			"0.023": 0.0,
			"0.024": 0.0,
			"0.025": 0.0
		}
	}
}
