{
	 "smiles": "O=C(C=CC1=CC=CC=C1)C1=CC=CC=C1", 
	 "Tm": 332.15, 
	 "num_atms": 28, 
	 "gaussian": { 
		 "optdone": 1, 
		 "sigma_profile": "yes", 
		 "theory": "DFT", 
		 "functional": "B3LYP", 
		 "basiset": "6-31G**", 
		 "properties": { 
			 "R2extent": 6082.4112, 
			 "electric_dipole_moment_norm": 3.01978954234, 
			 "electric_quadrupole_moment_norm": 16.7901189207, 
			 "total_energy": -654.043141995, 
			 "HOMO_LUMO_gap": 0.15487, 
			 "cosmo_polarized_energy": -10.68, 
			 "cosmo_cavitation_energy": 32.86, 
			 "cosmo_dispersion_energy": -23.88, 
			 "cosmo_repulsion_energy": 1.82, 
			 "cosmo_total_nonelectrostatic_energy": 10.8, 
			 "SMD_solvation_energy": 6.04 
		},
		"coords": [
			{
				"x": -1.8447098972,
				"y": 2.6662914177,
				"z": 0.5609552071,
				"element": "O" 
			},
			{
				"x": -0.843520042,
				"y": 2.0038743026,
				"z": 0.2923364878,
				"element": "C" 
			},
			{
				"x": -0.9577440406,
				"y": 0.6034659865,
				"z": -0.1860708522,
				"element": "C" 
			},
			{
				"x": -2.1669453124,
				"y": 0.0104371153,
				"z": -0.2514580614,
				"element": "C" 
			},
			{
				"x": -2.4850264237,
				"y": -1.3423306006,
				"z": -0.7054230313,
				"element": "C" 
			},
			{
				"x": -3.8287374598,
				"y": -1.7608784882,
				"z": -0.6796793846,
				"element": "C" 
			},
			{
				"x": -4.1934146356,
				"y": -3.0381947969,
				"z": -1.1003318276,
				"element": "C" 
			},
			{
				"x": -3.218695755,
				"y": -3.9262465504,
				"z": -1.5572882004,
				"element": "C" 
			},
			{
				"x": -1.8780078201,
				"y": -3.5271874885,
				"z": -1.590210967,
				"element": "C" 
			},
			{
				"x": -1.5144798486,
				"y": -2.2523861934,
				"z": -1.1702326197,
				"element": "C" 
			},
			{
				"x": 0.5190132136,
				"y": 2.6217291832,
				"z": 0.4324710867,
				"element": "C" 
			},
			{
				"x": 1.7153959094,
				"y": 1.8890482615,
				"z": 0.3862891533,
				"element": "C" 
			},
			{
				"x": 2.9446823726,
				"y": 2.5307303928,
				"z": 0.5406178523,
				"element": "C" 
			},
			{
				"x": 2.9941524757,
				"y": 3.9117622349,
				"z": 0.7357584351,
				"element": "C" 
			},
			{
				"x": 1.8079691609,
				"y": 4.6505423606,
				"z": 0.7869167082,
				"element": "C" 
			},
			{
				"x": 0.581973818,
				"y": 4.0093378278,
				"z": 0.6421290673,
				"element": "C" 
			},
			{
				"x": -0.0601344433,
				"y": 0.0821844421,
				"z": -0.49884087,
				"element": "H" 
			},
			{
				"x": -3.0106458523,
				"y": 0.6174507802,
				"z": 0.0742885514,
				"element": "H" 
			},
			{
				"x": -4.5884590109,
				"y": -1.0697660875,
				"z": -0.3243024217,
				"element": "H" 
			},
			{
				"x": -5.2363945704,
				"y": -3.339703842,
				"z": -1.071776485,
				"element": "H" 
			},
			{
				"x": -3.4984580214,
				"y": -4.9228150289,
				"z": -1.8862034189,
				"element": "H" 
			},
			{
				"x": -1.1159849488,
				"y": -4.2148585963,
				"z": -1.9455866708,
				"element": "H" 
			},
			{
				"x": -0.4697879097,
				"y": -1.9590426076,
				"z": -1.2030094633,
				"element": "H" 
			},
			{
				"x": 1.6998975639,
				"y": 0.812856607,
				"z": 0.2518681065,
				"element": "H" 
			},
			{
				"x": 3.8630352321,
				"y": 1.9515612004,
				"z": 0.510059598,
				"element": "H" 
			},
			{
				"x": 3.9524216219,
				"y": 4.4105365851,
				"z": 0.8505385363,
				"element": "H" 
			},
			{
				"x": 1.842838153,
				"y": 5.7251637272,
				"z": 0.9415269481,
				"element": "H" 
			},
			{
				"x": -0.3519335293,
				"y": 4.5591378551,
				"z": 0.6874585357,
				"element": "H" 
			}
		],
		 "valence_orbital": [ 
			{
				"type": "occ",
				"energy": -0.26048,
				"method": "rhf"
			},
			{
				"type": "occ",
				"energy": -0.25746,
				"method": "rhf"
			},
			{
				"type": "occ",
				"energy": -0.25383,
				"method": "rhf"
			},
			{
				"type": "occ",
				"energy": -0.24408,
				"method": "rhf"
			},
			{
				"type": "occ",
				"energy": -0.2322,
				"method": "rhf"
			},
			{
				"type": "unocc",
				"energy": -0.07733,
				"method": "rhf"
			},
			{
				"type": "unocc",
				"energy": -0.02407,
				"method": "rhf"
			},
			{
				"type": "unocc",
				"energy": -0.00899,
				"method": "rhf"
			},
			{
				"type": "unocc",
				"energy": -0.0051,
				"method": "rhf"
			},
			{
				"type": "unocc",
				"energy": 0.03334,
				"method": "rhf"
			}
		],
		"cosmo_sigma_profile": { 
			"-0.025": 0.0,
			"-0.024": 0.0,
			"-0.023": 0.0,
			"-0.022": 0.0,
			"-0.021": 0.0,
			"-0.02": 0.0,
			"-0.019": 0.0,
			"-0.018": 0.0,
			"-0.017": 0.0,
			"-0.016": 0.0,
			"-0.015": 0.0,
			"-0.014": 0.0,
			"-0.013": 0.0,
			"-0.012": 0.0,
			"-0.011": 0.0,
			"-0.01": 0.0,
			"-0.009": 1.22982738777,
			"-0.008": 3.1452064902,
			"-0.007": 5.54702552703,
			"-0.006": 18.8751336836,
			"-0.005": 21.69947299,
			"-0.004": 23.2011336562,
			"-0.003": 16.1341871372,
			"-0.002": 16.7816132269,
			"-0.001": 15.9177731222,
			"0.0": 17.584726631,
			"0.001": 18.5382530847,
			"0.002": 23.392002116,
			"0.003": 25.1015693036,
			"0.004": 27.4552408457,
			"0.005": 12.4176037019,
			"0.006": 1.98236440701,
			"0.007": 2.25510949189,
			"0.008": 1.33661200455,
			"0.009": 1.45282995832,
			"0.01": 1.97444901632,
			"0.011": 2.01001415765,
			"0.012": 3.57766781909,
			"0.013": 2.82778733329,
			"0.014": 0.00200370388886,
			"0.015": 0.0,
			"0.016": 0.0,
			"0.017": 0.0,
			"0.018": 0.0,
			"0.019": 0.0,
			"0.02": 0.0,
			"0.021": 0.0,
			"0.022": 0.0,
			"0.023": 0.0,
			"0.024": 0.0,
			"0.025": 0.0
		}
	}
}
