{
	 "smiles": "CNC(C)=O", 
	 "Tm": 300.65, 
	 "num_atms": 12, 
	 "gaussian": { 
		 "optdone": 1, 
		 "sigma_profile": "yes", 
		 "theory": "DFT", 
		 "functional": "B3LYP", 
		 "basiset": "6-31G**", 
		 "properties": { 
			 "R2extent": 873.1857, 
			 "electric_dipole_moment_norm": 3.8743922104, 
			 "electric_quadrupole_moment_norm": 13.8539245891, 
			 "total_energy": -248.526454915, 
			 "HOMO_LUMO_gap": 0.27336, 
			 "cosmo_polarized_energy": -10.72, 
			 "cosmo_cavitation_energy": 15.27, 
			 "cosmo_dispersion_energy": -11.36, 
			 "cosmo_repulsion_energy": 1.02, 
			 "cosmo_total_nonelectrostatic_energy": 4.93, 
			 "SMD_solvation_energy": 3.42 
		},
		"coords": [
			{
				"x": 1.0408045583,
				"y": 0.5336760165,
				"z": 1.5631200132,
				"element": "C" 
			},
			{
				"x": 0.750661706,
				"y": 1.6858612961,
				"z": 0.7290344528,
				"element": "N" 
			},
			{
				"x": -0.4684635762,
				"y": 2.0528885162,
				"z": 0.2152360642,
				"element": "C" 
			},
			{
				"x": -1.6025446973,
				"y": 1.0532611025,
				"z": 0.3849017395,
				"element": "C" 
			},
			{
				"x": -0.615636233,
				"y": 3.1225079945,
				"z": -0.361870953,
				"element": "O" 
			},
			{
				"x": 0.6163098742,
				"y": -0.3789152141,
				"z": 1.1348059639,
				"element": "H" 
			},
			{
				"x": 2.123702955,
				"y": 0.3982507315,
				"z": 1.6137154422,
				"element": "H" 
			},
			{
				"x": 0.6639429517,
				"y": 0.6377228733,
				"z": 2.5905028163,
				"element": "H" 
			},
			{
				"x": 1.4513106791,
				"y": 2.4100376,
				"z": 0.648157028,
				"element": "H" 
			},
			{
				"x": -2.4992732163,
				"y": 1.4840289077,
				"z": -0.0591026536,
				"element": "H" 
			},
			{
				"x": -1.3747594242,
				"y": 0.1048204277,
				"z": -0.1139421951,
				"element": "H" 
			},
			{
				"x": -1.7911555773,
				"y": 0.832959748,
				"z": 1.4412422816,
				"element": "H" 
			}
		],
		 "valence_orbital": [ 
			{
				"type": "occ",
				"energy": -0.39381,
				"method": "rhf"
			},
			{
				"type": "occ",
				"energy": -0.38621,
				"method": "rhf"
			},
			{
				"type": "occ",
				"energy": -0.35412,
				"method": "rhf"
			},
			{
				"type": "occ",
				"energy": -0.24587,
				"method": "rhf"
			},
			{
				"type": "occ",
				"energy": -0.23897,
				"method": "rhf"
			},
			{
				"type": "unocc",
				"energy": 0.03439,
				"method": "rhf"
			},
			{
				"type": "unocc",
				"energy": 0.07838,
				"method": "rhf"
			},
			{
				"type": "unocc",
				"energy": 0.09907,
				"method": "rhf"
			},
			{
				"type": "unocc",
				"energy": 0.12969,
				"method": "rhf"
			},
			{
				"type": "unocc",
				"energy": 0.1454,
				"method": "rhf"
			}
		],
		"cosmo_sigma_profile": { 
			"-0.025": 0.0,
			"-0.024": 0.0,
			"-0.023": 0.0,
			"-0.022": 0.0,
			"-0.021": 0.0,
			"-0.02": 0.0,
			"-0.019": 0.0,
			"-0.018": 0.0,
			"-0.017": 0.0,
			"-0.016": 0.0,
			"-0.015": 0.0,
			"-0.014": 0.00307029493046,
			"-0.013": 0.77473054586,
			"-0.012": 1.17808430157,
			"-0.011": 1.16819740387,
			"-0.01": 1.08538257453,
			"-0.009": 1.09775979975,
			"-0.008": 0.649270700641,
			"-0.007": 1.52555677199,
			"-0.006": 5.94163374251,
			"-0.005": 10.6119339759,
			"-0.004": 14.0841240155,
			"-0.003": 13.2200051454,
			"-0.002": 15.0932653336,
			"-0.001": 11.0751472498,
			"0.0": 6.73051747595,
			"0.001": 3.64342252126,
			"0.002": 2.13604381533,
			"0.003": 2.65393546158,
			"0.004": 2.16706065099,
			"0.005": 2.5110240824,
			"0.006": 1.99124627128,
			"0.007": 1.03306254899,
			"0.008": 1.09431754862,
			"0.009": 1.37855843372,
			"0.01": 0.744341743119,
			"0.011": 1.41742338857,
			"0.012": 2.05508420428,
			"0.013": 2.41638527389,
			"0.014": 5.33647577155,
			"0.015": 3.99695048616,
			"0.016": 0.475775032494,
			"0.017": 0.0,
			"0.018": 0.0,
			"0.019": 0.0,
			"0.02": 0.0,
			"0.021": 0.0,
			"0.022": 0.0,
			"0.023": 0.0,
			"0.024": 0.0,
			"0.025": 0.0
		}
	}
}
