{
	 "smiles": "CC(C)OC1=CC=C(C=C1)C#N", 
	 "Tm": 324.15, 
	 "num_atms": 23, 
	 "gaussian": { 
		 "optdone": 1, 
		 "sigma_profile": "yes", 
		 "theory": "DFT", 
		 "functional": "B3LYP", 
		 "basiset": "6-31G**", 
		 "properties": { 
			 "R2extent": 2916.7205, 
			 "electric_dipole_moment_norm": 6.22593364725, 
			 "electric_quadrupole_moment_norm": 18.6297173519, 
			 "total_energy": -517.658218514, 
			 "HOMO_LUMO_gap": 0.19784, 
			 "cosmo_polarized_energy": -10.27, 
			 "cosmo_cavitation_energy": 27.54, 
			 "cosmo_dispersion_energy": -19.37, 
			 "cosmo_repulsion_energy": 1.56, 
			 "cosmo_total_nonelectrostatic_energy": 9.73, 
			 "SMD_solvation_energy": 6.54 
		},
		"coords": [
			{
				"x": 3.4148416638,
				"y": 0.0373461707,
				"z": -1.954582332,
				"element": "C" 
			},
			{
				"x": 2.4378057615,
				"y": -0.7628985851,
				"z": -1.1016271403,
				"element": "C" 
			},
			{
				"x": 2.3242991319,
				"y": -2.2214949826,
				"z": -1.5433162769,
				"element": "C" 
			},
			{
				"x": 1.1646691041,
				"y": -0.0944498458,
				"z": -1.2421588436,
				"element": "O" 
			},
			{
				"x": 0.1882243079,
				"y": -0.2438676,
				"z": -0.3137733066,
				"element": "C" 
			},
			{
				"x": -1.0096051299,
				"y": 0.4414638708,
				"z": -0.5895109045,
				"element": "C" 
			},
			{
				"x": -2.0746273421,
				"y": 0.3806866159,
				"z": 0.2927111434,
				"element": "C" 
			},
			{
				"x": -1.9720177988,
				"y": -0.3712261237,
				"z": 1.4799025348,
				"element": "C" 
			},
			{
				"x": -0.7779132158,
				"y": -1.0551814903,
				"z": 1.7514825539,
				"element": "C" 
			},
			{
				"x": 0.2952989741,
				"y": -0.9977739676,
				"z": 0.8662043715,
				"element": "C" 
			},
			{
				"x": -3.0705984914,
				"y": -0.4383116559,
				"z": 2.3948113535,
				"element": "C" 
			},
			{
				"x": -3.9643319479,
				"y": -0.4924590268,
				"z": 3.1387179466,
				"element": "N" 
			},
			{
				"x": 3.4636142475,
				"y": 1.0751258529,
				"z": -1.6147131468,
				"element": "H" 
			},
			{
				"x": 3.0992410889,
				"y": 0.0313996767,
				"z": -3.0023606737,
				"element": "H" 
			},
			{
				"x": 4.4166135047,
				"y": -0.3979657765,
				"z": -1.8918433693,
				"element": "H" 
			},
			{
				"x": 2.7517494386,
				"y": -0.7056456365,
				"z": -0.0512753525,
				"element": "H" 
			},
			{
				"x": 3.2893848423,
				"y": -2.7265961013,
				"z": -1.434892888,
				"element": "H" 
			},
			{
				"x": 2.0241140648,
				"y": -2.2722103248,
				"z": -2.5944688411,
				"element": "H" 
			},
			{
				"x": 1.5857706044,
				"y": -2.7682170317,
				"z": -0.9511317894,
				"element": "H" 
			},
			{
				"x": -1.0722929222,
				"y": 1.0180948708,
				"z": -1.506020692,
				"element": "H" 
			},
			{
				"x": -2.9941534015,
				"y": 0.9131766841,
				"z": 0.0736295515,
				"element": "H" 
			},
			{
				"x": -0.6916978465,
				"y": -1.638268744,
				"z": 2.6624824641,
				"element": "H" 
			},
			{
				"x": 1.2007113615,
				"y": -1.5417268493,
				"z": 1.1038336373,
				"element": "H" 
			}
		],
		 "valence_orbital": [ 
			{
				"type": "occ",
				"energy": -0.33529,
				"method": "rhf"
			},
			{
				"type": "occ",
				"energy": -0.3208,
				"method": "rhf"
			},
			{
				"type": "occ",
				"energy": -0.31386,
				"method": "rhf"
			},
			{
				"type": "occ",
				"energy": -0.27298,
				"method": "rhf"
			},
			{
				"type": "occ",
				"energy": -0.23344,
				"method": "rhf"
			},
			{
				"type": "unocc",
				"energy": -0.0356,
				"method": "rhf"
			},
			{
				"type": "unocc",
				"energy": -0.02134,
				"method": "rhf"
			},
			{
				"type": "unocc",
				"energy": 0.04462,
				"method": "rhf"
			},
			{
				"type": "unocc",
				"energy": 0.07366,
				"method": "rhf"
			},
			{
				"type": "unocc",
				"energy": 0.08298,
				"method": "rhf"
			}
		],
		"cosmo_sigma_profile": { 
			"-0.025": 0.0,
			"-0.024": 0.0,
			"-0.023": 0.0,
			"-0.022": 0.0,
			"-0.021": 0.0,
			"-0.02": 0.0,
			"-0.019": 0.0,
			"-0.018": 0.0,
			"-0.017": 0.0,
			"-0.016": 0.0,
			"-0.015": 0.0,
			"-0.014": 0.0,
			"-0.013": 0.0,
			"-0.012": 0.0,
			"-0.011": 0.0,
			"-0.01": 0.0,
			"-0.009": 0.0,
			"-0.008": 3.151003912,
			"-0.007": 8.57422371457,
			"-0.006": 9.48999860674,
			"-0.005": 10.848656429,
			"-0.004": 19.6345289778,
			"-0.003": 20.8921100525,
			"-0.002": 18.7792878821,
			"-0.001": 20.4738566886,
			"0.0": 24.9653249161,
			"0.001": 16.0726808533,
			"0.002": 16.5695412215,
			"0.003": 13.0149621947,
			"0.004": 5.15565843464,
			"0.005": 3.05201801848,
			"0.006": 4.08495257996,
			"0.007": 3.46470730081,
			"0.008": 4.60485612311,
			"0.009": 4.67116398487,
			"0.01": 3.42316736403,
			"0.011": 3.18809653112,
			"0.012": 2.69225212699,
			"0.013": 2.13661136498,
			"0.014": 0.577699261999,
			"0.015": 0.0,
			"0.016": 0.0,
			"0.017": 0.0,
			"0.018": 0.0,
			"0.019": 0.0,
			"0.02": 0.0,
			"0.021": 0.0,
			"0.022": 0.0,
			"0.023": 0.0,
			"0.024": 0.0,
			"0.025": 0.0
		}
	}
}
