{
	 "smiles": "OC(=O)C(N1CCOCC1)C1=C(F)C=CC=C1", 
	 "Tm": 463.15, 
	 "num_atms": 31, 
	 "gaussian": { 
		 "optdone": 1, 
		 "sigma_profile": "yes", 
		 "theory": "DFT", 
		 "functional": "B3LYP", 
		 "basiset": "6-31G**", 
		 "properties": { 
			 "R2extent": 4406.06, 
			 "electric_dipole_moment_norm": 2.45226524055, 
			 "electric_quadrupole_moment_norm": 11.0227805099, 
			 "total_energy": -845.946327632, 
			 "HOMO_LUMO_gap": 0.18434, 
			 "cosmo_polarized_energy": -12.15, 
			 "cosmo_cavitation_energy": 33.13, 
			 "cosmo_dispersion_energy": -23.44, 
			 "cosmo_repulsion_energy": 1.82, 
			 "cosmo_total_nonelectrostatic_energy": 11.51, 
			 "SMD_solvation_energy": 5.05 
		},
		"coords": [
			{
				"x": 2.9587540514,
				"y": 1.408499033,
				"z": -1.9708613756,
				"element": "O" 
			},
			{
				"x": 2.1033033147,
				"y": 1.8236927909,
				"z": -1.0111535736,
				"element": "C" 
			},
			{
				"x": 2.0069443578,
				"y": 2.9875807511,
				"z": -0.6829920161,
				"element": "O" 
			},
			{
				"x": 1.3145643323,
				"y": 0.6557347276,
				"z": -0.4195835474,
				"element": "C" 
			},
			{
				"x": -0.1145947882,
				"y": 0.9701085424,
				"z": -0.4661654662,
				"element": "N" 
			},
			{
				"x": -0.634083007,
				"y": 2.0152110947,
				"z": 0.4387080637,
				"element": "C" 
			},
			{
				"x": -1.7483164495,
				"y": 1.4798969733,
				"z": 1.3368654783,
				"element": "C" 
			},
			{
				"x": -2.8334870436,
				"y": 0.9272321832,
				"z": 0.5971354866,
				"element": "O" 
			},
			{
				"x": -2.4414320199,
				"y": 0.2663351953,
				"z": -0.6057056976,
				"element": "C" 
			},
			{
				"x": -0.9904609295,
				"y": -0.199173923,
				"z": -0.5748494284,
				"element": "C" 
			},
			{
				"x": 1.887116927,
				"y": 0.2516149297,
				"z": 0.9459168331,
				"element": "C" 
			},
			{
				"x": 1.8826102448,
				"y": -1.0951568628,
				"z": 1.3223483135,
				"element": "C" 
			},
			{
				"x": 1.4124085896,
				"y": -2.0158201542,
				"z": 0.442773551,
				"element": "F" 
			},
			{
				"x": 2.3417055772,
				"y": -1.544330258,
				"z": 2.5529251938,
				"element": "C" 
			},
			{
				"x": 2.8363717434,
				"y": -0.6101751068,
				"z": 3.4642188291,
				"element": "C" 
			},
			{
				"x": 2.8690584644,
				"y": 0.7428633186,
				"z": 3.1247949195,
				"element": "C" 
			},
			{
				"x": 2.4034558974,
				"y": 1.1652649765,
				"z": 1.8777197663,
				"element": "C" 
			},
			{
				"x": 3.4259776294,
				"y": 2.2032779314,
				"z": -2.2820418718,
				"element": "H" 
			},
			{
				"x": 1.4603438764,
				"y": -0.1914248725,
				"z": -1.0925727559,
				"element": "H" 
			},
			{
				"x": 0.1649876095,
				"y": 2.4143441493,
				"z": 1.0668732228,
				"element": "H" 
			},
			{
				"x": -1.0161285899,
				"y": 2.8573835688,
				"z": -0.1528972332,
				"element": "H" 
			},
			{
				"x": -2.1653656882,
				"y": 2.2930787843,
				"z": 1.9404438585,
				"element": "H" 
			},
			{
				"x": -1.3369176941,
				"y": 0.729630595,
				"z": 2.0305330149,
				"element": "H" 
			},
			{
				"x": -3.1076902817,
				"y": -0.594074413,
				"z": -0.7351069089,
				"element": "H" 
			},
			{
				"x": -2.5839777431,
				"y": 0.9389800444,
				"z": -1.4654333415,
				"element": "H" 
			},
			{
				"x": -0.7620804917,
				"y": -0.7320794714,
				"z": -1.5065403275,
				"element": "H" 
			},
			{
				"x": -0.8619074001,
				"y": -0.9240528649,
				"z": 0.2459346689,
				"element": "H" 
			},
			{
				"x": 2.3108334852,
				"y": -2.6055767509,
				"z": 2.7749414544,
				"element": "H" 
			},
			{
				"x": 3.1996282014,
				"y": -0.9434770606,
				"z": 4.4315882082,
				"element": "H" 
			},
			{
				"x": 3.262753633,
				"y": 1.47164175,
				"z": 3.8264814183,
				"element": "H" 
			},
			{
				"x": 2.4551241914,
				"y": 2.2153703987,
				"z": 1.6099012627,
				"element": "H" 
			}
		],
		 "valence_orbital": [ 
			{
				"type": "occ",
				"energy": -0.28188,
				"method": "rhf"
			},
			{
				"type": "occ",
				"energy": -0.26312,
				"method": "rhf"
			},
			{
				"type": "occ",
				"energy": -0.25168,
				"method": "rhf"
			},
			{
				"type": "occ",
				"energy": -0.24189,
				"method": "rhf"
			},
			{
				"type": "occ",
				"energy": -0.20823,
				"method": "rhf"
			},
			{
				"type": "unocc",
				"energy": -0.02389,
				"method": "rhf"
			},
			{
				"type": "unocc",
				"energy": -0.01169,
				"method": "rhf"
			},
			{
				"type": "unocc",
				"energy": 0.01176,
				"method": "rhf"
			},
			{
				"type": "unocc",
				"energy": 0.07423,
				"method": "rhf"
			},
			{
				"type": "unocc",
				"energy": 0.08293,
				"method": "rhf"
			}
		],
		"cosmo_sigma_profile": { 
			"-0.025": 0.0,
			"-0.024": 0.0,
			"-0.023": 0.0,
			"-0.022": 0.0,
			"-0.021": 0.0,
			"-0.02": 0.0,
			"-0.019": 0.0661492962493,
			"-0.018": 0.822105149969,
			"-0.017": 1.06027798201,
			"-0.016": 0.875459376838,
			"-0.015": 1.07560369924,
			"-0.014": 0.320149542895,
			"-0.013": 0.445239494402,
			"-0.012": 1.02370456605,
			"-0.011": 1.10854682704,
			"-0.01": 0.474863745262,
			"-0.009": 0.225553806578,
			"-0.008": 0.798364939959,
			"-0.007": 4.01108644442,
			"-0.006": 8.33561026914,
			"-0.005": 15.0023984031,
			"-0.004": 23.0862661752,
			"-0.003": 28.0940158537,
			"-0.002": 27.2635049493,
			"-0.001": 21.3300444042,
			"0.0": 17.7056560626,
			"0.001": 17.6172053185,
			"0.002": 14.5000975885,
			"0.003": 15.9251391824,
			"0.004": 18.9217814857,
			"0.005": 7.77536694259,
			"0.006": 4.34505212019,
			"0.007": 5.82463281978,
			"0.008": 5.18578218294,
			"0.009": 3.50636400907,
			"0.01": 3.7308248255,
			"0.011": 4.70655693283,
			"0.012": 3.22763117578,
			"0.013": 1.78708277712,
			"0.014": 1.08997434203,
			"0.015": 0.0,
			"0.016": 0.0,
			"0.017": 0.0,
			"0.018": 0.0,
			"0.019": 0.0,
			"0.02": 0.0,
			"0.021": 0.0,
			"0.022": 0.0,
			"0.023": 0.0,
			"0.024": 0.0,
			"0.025": 0.0
		}
	}
}
