{
	 "smiles": "CC1=C(OC2=C1C=CC=C2)C(=O)CBr", 
	 "Tm": 384.15, 
	 "num_atms": 23, 
	 "gaussian": { 
		 "optdone": 1, 
		 "sigma_profile": "yes", 
		 "theory": "DFT", 
		 "functional": "B3LYP", 
		 "basiset": "6-31G**", 
		 "properties": { 
			 "R2extent": 8655.3046, 
			 "electric_dipole_moment_norm": 4.75639934825, 
			 "electric_quadrupole_moment_norm": 23.3985357275, 
			 "total_energy": -3146.44280752, 
			 "HOMO_LUMO_gap": 0.16223, 
			 "cosmo_polarized_energy": -10.52, 
			 "cosmo_cavitation_energy": 29.83, 
			 "cosmo_dispersion_energy": -22.17, 
			 "cosmo_repulsion_energy": 1.75, 
			 "cosmo_total_nonelectrostatic_energy": 9.41, 
			 "SMD_solvation_energy": 4.58 
		},
		"coords": [
			{
				"x": 1.1949467294,
				"y": -2.1289493237,
				"z": -3.0281538365,
				"element": "C" 
			},
			{
				"x": 1.0989414044,
				"y": -1.7510111658,
				"z": -1.5830188279,
				"element": "C" 
			},
			{
				"x": 0.6262914349,
				"y": -2.5244490832,
				"z": -0.5501203794,
				"element": "C" 
			},
			{
				"x": 0.6812579287,
				"y": -1.856191269,
				"z": 0.6655592753,
				"element": "O" 
			},
			{
				"x": 1.2023668617,
				"y": -0.6263099178,
				"z": 0.3977821297,
				"element": "C" 
			},
			{
				"x": 1.4816410401,
				"y": -0.500400454,
				"z": -0.9773843112,
				"element": "C" 
			},
			{
				"x": 2.0281270641,
				"y": 0.7047591671,
				"z": -1.453382256,
				"element": "C" 
			},
			{
				"x": 2.2702397011,
				"y": 1.7245329765,
				"z": -0.5420459343,
				"element": "C" 
			},
			{
				"x": 1.9788030191,
				"y": 1.5656056759,
				"z": 0.829273334,
				"element": "C" 
			},
			{
				"x": 1.4375277998,
				"y": 0.3830370076,
				"z": 1.3264530041,
				"element": "C" 
			},
			{
				"x": 0.0989445591,
				"y": -3.8904757045,
				"z": -0.5579070517,
				"element": "C" 
			},
			{
				"x": 0.0260531946,
				"y": -4.5281603597,
				"z": -1.595786317,
				"element": "O" 
			},
			{
				"x": -0.3363607213,
				"y": -4.4252893378,
				"z": 0.8067407711,
				"element": "C" 
			},
			{
				"x": -1.0283465843,
				"y": -6.2469143853,
				"z": 0.7285688917,
				"element": "Br" 
			},
			{
				"x": 0.2121088794,
				"y": -2.389147852,
				"z": -3.4320431303,
				"element": "H" 
			},
			{
				"x": 1.6116875446,
				"y": -1.3098097636,
				"z": -3.6193050943,
				"element": "H" 
			},
			{
				"x": 1.8239669287,
				"y": -3.0140170247,
				"z": -3.1615115049,
				"element": "H" 
			},
			{
				"x": 2.2554219261,
				"y": 0.8354739253,
				"z": -2.5070102138,
				"element": "H" 
			},
			{
				"x": 2.691742337,
				"y": 2.6638091977,
				"z": -0.8865949859,
				"element": "H" 
			},
			{
				"x": 2.1813260262,
				"y": 2.3845181761,
				"z": 1.512802322,
				"element": "H" 
			},
			{
				"x": 1.2089466499,
				"y": 0.2478807932,
				"z": 2.3777999963,
				"element": "H" 
			},
			{
				"x": 0.5056494033,
				"y": -4.4229376694,
				"z": 1.5012506648,
				"element": "H" 
			},
			{
				"x": -1.1198831265,
				"y": -3.7937536089,
				"z": 1.2293334542,
				"element": "H" 
			}
		],
		 "valence_orbital": [ 
			{
				"type": "occ",
				"energy": -0.27183,
				"method": "rhf"
			},
			{
				"type": "occ",
				"energy": -0.27177,
				"method": "rhf"
			},
			{
				"type": "occ",
				"energy": -0.26523,
				"method": "rhf"
			},
			{
				"type": "occ",
				"energy": -0.2535,
				"method": "rhf"
			},
			{
				"type": "occ",
				"energy": -0.23512,
				"method": "rhf"
			},
			{
				"type": "unocc",
				"energy": -0.07289,
				"method": "rhf"
			},
			{
				"type": "unocc",
				"energy": -0.00794,
				"method": "rhf"
			},
			{
				"type": "unocc",
				"energy": 0.0059,
				"method": "rhf"
			},
			{
				"type": "unocc",
				"energy": 0.00677,
				"method": "rhf"
			},
			{
				"type": "unocc",
				"energy": 0.06749,
				"method": "rhf"
			}
		],
		"cosmo_sigma_profile": { 
			"-0.025": 0.0,
			"-0.024": 0.0,
			"-0.023": 0.0,
			"-0.022": 0.0,
			"-0.021": 0.0,
			"-0.02": 0.0,
			"-0.019": 0.0,
			"-0.018": 0.0,
			"-0.017": 0.0,
			"-0.016": 0.0,
			"-0.015": 0.0,
			"-0.014": 0.0,
			"-0.013": 0.0,
			"-0.012": 0.0,
			"-0.011": 0.0,
			"-0.01": 0.0402180827068,
			"-0.009": 3.50080888662,
			"-0.008": 4.3131015623,
			"-0.007": 7.50106183066,
			"-0.006": 13.1525540097,
			"-0.005": 15.5452359828,
			"-0.004": 16.3419714946,
			"-0.003": 17.2661832171,
			"-0.002": 17.0643250301,
			"-0.001": 22.0635861437,
			"0.0": 18.4938821506,
			"0.001": 18.6405201189,
			"0.002": 16.6394058302,
			"0.003": 16.1080559093,
			"0.004": 17.6387062057,
			"0.005": 12.7130668116,
			"0.006": 7.76182448424,
			"0.007": 2.96415604935,
			"0.008": 2.22536702391,
			"0.009": 2.07779302171,
			"0.01": 2.83052265546,
			"0.011": 3.51010739255,
			"0.012": 2.58745963509,
			"0.013": 1.04394311543,
			"0.014": 0.00295097872933,
			"0.015": 0.0,
			"0.016": 0.0,
			"0.017": 0.0,
			"0.018": 0.0,
			"0.019": 0.0,
			"0.02": 0.0,
			"0.021": 0.0,
			"0.022": 0.0,
			"0.023": 0.0,
			"0.024": 0.0,
			"0.025": 0.0
		}
	}
}
