{
	 "smiles": "ClC1=C(Cl)C2=C(C=C1)C(=O)CO2", 
	 "Tm": 415.15, 
	 "num_atms": 16, 
	 "gaussian": { 
		 "optdone": 1, 
		 "sigma_profile": "yes", 
		 "theory": "DFT", 
		 "functional": "B3LYP", 
		 "basiset": "6-31G**", 
		 "properties": { 
			 "R2extent": 3302.3998, 
			 "electric_dipole_moment_norm": 0.261151794939, 
			 "electric_quadrupole_moment_norm": 14.0968022225, 
			 "total_energy": -1378.07589728, 
			 "HOMO_LUMO_gap": 0.17187, 
			 "cosmo_polarized_energy": -8.65, 
			 "cosmo_cavitation_energy": 24.38, 
			 "cosmo_dispersion_energy": -18.53, 
			 "cosmo_repulsion_energy": 1.48, 
			 "cosmo_total_nonelectrostatic_energy": 7.33, 
			 "SMD_solvation_energy": 4.57 
		},
		"coords": [
			{
				"x": 3.4318328645,
				"y": -2.2197431829,
				"z": -1.4090670765,
				"element": "Cl" 
			},
			{
				"x": 2.0732625204,
				"y": -1.321108403,
				"z": -0.7914484076,
				"element": "C" 
			},
			{
				"x": 2.0240947671,
				"y": 0.0721222277,
				"z": -0.9467334175,
				"element": "C" 
			},
			{
				"x": 3.2666815298,
				"y": 0.9889995126,
				"z": -1.7386136461,
				"element": "Cl" 
			},
			{
				"x": 0.9021703973,
				"y": 0.7256042771,
				"z": -0.4250786836,
				"element": "C" 
			},
			{
				"x": -0.1195199682,
				"y": 0.0217554747,
				"z": 0.2195105818,
				"element": "C" 
			},
			{
				"x": -0.056782644,
				"y": -1.3652951159,
				"z": 0.3666570252,
				"element": "C" 
			},
			{
				"x": 1.0468954429,
				"y": -2.0350597952,
				"z": -0.1429782964,
				"element": "C" 
			},
			{
				"x": -1.1246964166,
				"y": 1.0106821897,
				"z": 0.6341549198,
				"element": "C" 
			},
			{
				"x": -2.1757976855,
				"y": 0.8541353207,
				"z": 1.2232298266,
				"element": "O" 
			},
			{
				"x": -0.5539266561,
				"y": 2.3562946199,
				"z": 0.1499861007,
				"element": "C" 
			},
			{
				"x": 0.7066347452,
				"y": 2.0631196418,
				"z": -0.4937967425,
				"element": "O" 
			},
			{
				"x": -0.8577988571,
				"y": -1.8972207346,
				"z": 0.8694259183,
				"element": "H" 
			},
			{
				"x": 1.141468697,
				"y": -3.1107123105,
				"z": -0.0536913133,
				"element": "H" 
			},
			{
				"x": -0.3745766638,
				"y": 3.0411664551,
				"z": 0.9842613272,
				"element": "H" 
			},
			{
				"x": -1.217742073,
				"y": 2.838059823,
				"z": -0.5742181162,
				"element": "H" 
			}
		],
		 "valence_orbital": [ 
			{
				"type": "occ",
				"energy": -0.33091,
				"method": "rhf"
			},
			{
				"type": "occ",
				"energy": -0.32053,
				"method": "rhf"
			},
			{
				"type": "occ",
				"energy": -0.26597,
				"method": "rhf"
			},
			{
				"type": "occ",
				"energy": -0.26578,
				"method": "rhf"
			},
			{
				"type": "occ",
				"energy": -0.25124,
				"method": "rhf"
			},
			{
				"type": "unocc",
				"energy": -0.07937,
				"method": "rhf"
			},
			{
				"type": "unocc",
				"energy": -0.02428,
				"method": "rhf"
			},
			{
				"type": "unocc",
				"energy": -0.00875,
				"method": "rhf"
			},
			{
				"type": "unocc",
				"energy": 0.0182,
				"method": "rhf"
			},
			{
				"type": "unocc",
				"energy": 0.05324,
				"method": "rhf"
			}
		],
		"cosmo_sigma_profile": { 
			"-0.025": 0.0,
			"-0.024": 0.0,
			"-0.023": 0.0,
			"-0.022": 0.0,
			"-0.021": 0.0,
			"-0.02": 0.0,
			"-0.019": 0.0,
			"-0.018": 0.0,
			"-0.017": 0.0,
			"-0.016": 0.0,
			"-0.015": 0.0,
			"-0.014": 0.0,
			"-0.013": 0.0,
			"-0.012": 0.0,
			"-0.011": 0.0,
			"-0.01": 0.15048360263,
			"-0.009": 5.50362703603,
			"-0.008": 9.46941145218,
			"-0.007": 8.82713350153,
			"-0.006": 8.0587784644,
			"-0.005": 6.72790764834,
			"-0.004": 8.00665316032,
			"-0.003": 9.54895588066,
			"-0.002": 13.611796846,
			"-0.001": 22.9813734332,
			"0.0": 18.8221195173,
			"0.001": 17.4231915593,
			"0.002": 13.5691609632,
			"0.003": 18.7104102267,
			"0.004": 12.9689185228,
			"0.005": 4.35034640124,
			"0.006": 2.94385298322,
			"0.007": 2.30120223945,
			"0.008": 3.92112277876,
			"0.009": 2.55935844643,
			"0.01": 3.04417714261,
			"0.011": 4.27952810618,
			"0.012": 3.28445771058,
			"0.013": 0.174976033791,
			"0.014": 0.0,
			"0.015": 0.0,
			"0.016": 0.0,
			"0.017": 0.0,
			"0.018": 0.0,
			"0.019": 0.0,
			"0.02": 0.0,
			"0.021": 0.0,
			"0.022": 0.0,
			"0.023": 0.0,
			"0.024": 0.0,
			"0.025": 0.0
		}
	}
}
