{
	 "smiles": "OC(=O)CCC1=C(OC(F)(F)F)C=CC=C1", 
	 "Tm": 323.15, 
	 "num_atms": 25, 
	 "gaussian": { 
		 "optdone": 1, 
		 "sigma_profile": "yes", 
		 "theory": "DFT", 
		 "functional": "B3LYP", 
		 "basiset": "6-31G**", 
		 "properties": { 
			 "R2extent": 4738.5966, 
			 "electric_dipole_moment_norm": 3.70206022912, 
			 "electric_quadrupole_moment_norm": 24.9051428129, 
			 "total_energy": -911.69336839, 
			 "HOMO_LUMO_gap": 0.23164, 
			 "cosmo_polarized_energy": -16.14, 
			 "cosmo_cavitation_energy": 31.05, 
			 "cosmo_dispersion_energy": -20.99, 
			 "cosmo_repulsion_energy": 1.6, 
			 "cosmo_total_nonelectrostatic_energy": 11.66, 
			 "SMD_solvation_energy": 7.6 
		},
		"coords": [
			{
				"x": -1.133231958,
				"y": -0.8640469627,
				"z": 5.2486602518,
				"element": "O" 
			},
			{
				"x": -1.5034084399,
				"y": 0.1317439734,
				"z": 4.3885348433,
				"element": "C" 
			},
			{
				"x": -2.6683737175,
				"y": 0.3065904393,
				"z": 4.1426338818,
				"element": "O" 
			},
			{
				"x": -0.3607893907,
				"y": 0.9530111374,
				"z": 3.8039982735,
				"element": "C" 
			},
			{
				"x": 0.6788117847,
				"y": 0.1158766052,
				"z": 3.0177392073,
				"element": "C" 
			},
			{
				"x": 0.0992945289,
				"y": -0.5941669274,
				"z": 1.8140400392,
				"element": "C" 
			},
			{
				"x": -0.0501090893,
				"y": 0.0646381698,
				"z": 0.5860674882,
				"element": "C" 
			},
			{
				"x": 0.3394431866,
				"y": 1.4144731527,
				"z": 0.5827653435,
				"element": "O" 
			},
			{
				"x": 0.9115345839,
				"y": 1.9643241646,
				"z": -0.5167166623,
				"element": "C" 
			},
			{
				"x": 1.8894839995,
				"y": 1.1969579083,
				"z": -1.0272505785,
				"element": "F" 
			},
			{
				"x": 0.0214340637,
				"y": 2.1912899885,
				"z": -1.5069012628,
				"element": "F" 
			},
			{
				"x": 1.4282260493,
				"y": 3.138837328,
				"z": -0.1533421805,
				"element": "F" 
			},
			{
				"x": -0.5959343491,
				"y": -0.5618833141,
				"z": -0.5318599836,
				"element": "C" 
			},
			{
				"x": -1.0007005552,
				"y": -1.8932489558,
				"z": -0.4291233443,
				"element": "C" 
			},
			{
				"x": -0.8721383607,
				"y": -2.5760471832,
				"z": 0.7793961382,
				"element": "C" 
			},
			{
				"x": -0.3299305312,
				"y": -1.9246853973,
				"z": 1.8869240062,
				"element": "C" 
			},
			{
				"x": -0.1755893231,
				"y": -0.850022677,
				"z": 5.3854318352,
				"element": "H" 
			},
			{
				"x": 0.1478745859,
				"y": 1.4787563708,
				"z": 4.623635264,
				"element": "H" 
			},
			{
				"x": -0.8068551845,
				"y": 1.7063519311,
				"z": 3.1532206725,
				"element": "H" 
			},
			{
				"x": 1.4783612807,
				"y": 0.7908938084,
				"z": 2.7011255152,
				"element": "H" 
			},
			{
				"x": 1.1449885074,
				"y": -0.6282660323,
				"z": 3.6755649458,
				"element": "H" 
			},
			{
				"x": -0.7127205629,
				"y": -0.0200257335,
				"z": -1.4615310463,
				"element": "H" 
			},
			{
				"x": -1.4246826285,
				"y": -2.3881285752,
				"z": -1.2973472677,
				"element": "H" 
			},
			{
				"x": -1.1948686836,
				"y": -3.6089665184,
				"z": 0.8624450778,
				"element": "H" 
			},
			{
				"x": -0.2382197964,
				"y": -2.4526567003,
				"z": 2.8320895424,
				"element": "H" 
			}
		],
		 "valence_orbital": [ 
			{
				"type": "occ",
				"energy": -0.34535,
				"method": "rhf"
			},
			{
				"type": "occ",
				"energy": -0.31619,
				"method": "rhf"
			},
			{
				"type": "occ",
				"energy": -0.27037,
				"method": "rhf"
			},
			{
				"type": "occ",
				"energy": -0.26326,
				"method": "rhf"
			},
			{
				"type": "occ",
				"energy": -0.25234,
				"method": "rhf"
			},
			{
				"type": "unocc",
				"energy": -0.0207,
				"method": "rhf"
			},
			{
				"type": "unocc",
				"energy": -0.01488,
				"method": "rhf"
			},
			{
				"type": "unocc",
				"energy": 0.0082,
				"method": "rhf"
			},
			{
				"type": "unocc",
				"energy": 0.04086,
				"method": "rhf"
			},
			{
				"type": "unocc",
				"energy": 0.07967,
				"method": "rhf"
			}
		],
		"cosmo_sigma_profile": { 
			"-0.025": 0.0,
			"-0.024": 0.0,
			"-0.023": 0.0,
			"-0.022": 0.0,
			"-0.021": 0.0,
			"-0.02": 0.0,
			"-0.019": 0.254841122084,
			"-0.018": 0.801145270804,
			"-0.017": 1.58997381883,
			"-0.016": 0.903187821172,
			"-0.015": 1.10681693801,
			"-0.014": 0.87362371205,
			"-0.013": 1.32754588139,
			"-0.012": 0.600290675325,
			"-0.011": 1.30558830844,
			"-0.01": 1.76820089909,
			"-0.009": 1.71847158413,
			"-0.008": 2.09507723654,
			"-0.007": 4.99298492704,
			"-0.006": 11.1620656862,
			"-0.005": 14.9472338897,
			"-0.004": 15.71579943,
			"-0.003": 14.2166685204,
			"-0.002": 15.4114196919,
			"-0.001": 15.2120820092,
			"0.0": 16.7941201924,
			"0.001": 24.7441397545,
			"0.002": 38.7864388618,
			"0.003": 16.6133761078,
			"0.004": 11.3257995164,
			"0.005": 5.11075857282,
			"0.006": 1.90099146754,
			"0.007": 2.0546555122,
			"0.008": 2.79817101998,
			"0.009": 2.76852102667,
			"0.01": 4.59750288649,
			"0.011": 6.12221453927,
			"0.012": 5.49206548137,
			"0.013": 2.19483776018,
			"0.014": 0.0391975193046,
			"0.015": 0.0,
			"0.016": 0.0,
			"0.017": 0.0,
			"0.018": 0.0,
			"0.019": 0.0,
			"0.02": 0.0,
			"0.021": 0.0,
			"0.022": 0.0,
			"0.023": 0.0,
			"0.024": 0.0,
			"0.025": 0.0
		}
	}
}
