{
	 "smiles": "OCCOC1=CC=C(Br)C=C1", 
	 "Tm": 327.15, 
	 "num_atms": 20, 
	 "gaussian": { 
		 "optdone": 1, 
		 "sigma_profile": "yes", 
		 "theory": "DFT", 
		 "functional": "B3LYP", 
		 "basiset": "6-31G**", 
		 "properties": { 
			 "R2extent": 4747.5672, 
			 "electric_dipole_moment_norm": 1.6492517182, 
			 "electric_quadrupole_moment_norm": 13.072096338, 
			 "total_energy": -3032.10766575, 
			 "HOMO_LUMO_gap": 0.2068, 
			 "cosmo_polarized_energy": -9.05, 
			 "cosmo_cavitation_energy": 26.26, 
			 "cosmo_dispersion_energy": -19.86, 
			 "cosmo_repulsion_energy": 1.62, 
			 "cosmo_total_nonelectrostatic_energy": 8.02, 
			 "SMD_solvation_energy": 3.55 
		},
		"coords": [
			{
				"x": 2.4051050456,
				"y": -0.0017006165,
				"z": 3.5538060943,
				"element": "O" 
			},
			{
				"x": 1.2419738058,
				"y": 0.7952338884,
				"z": 3.4494961057,
				"element": "C" 
			},
			{
				"x": 0.3889786598,
				"y": 0.3968879755,
				"z": 2.2554377934,
				"element": "C" 
			},
			{
				"x": 1.1956532196,
				"y": 0.6277738913,
				"z": 1.0979713332,
				"element": "O" 
			},
			{
				"x": 0.7072079494,
				"y": 0.2913939412,
				"z": -0.1323488979,
				"element": "C" 
			},
			{
				"x": 1.5688267753,
				"y": 0.5198010282,
				"z": -1.2152725219,
				"element": "C" 
			},
			{
				"x": 1.1669348472,
				"y": 0.2159716033,
				"z": -2.5104089708,
				"element": "C" 
			},
			{
				"x": -0.104244526,
				"y": -0.3200563908,
				"z": -2.728409112,
				"element": "C" 
			},
			{
				"x": -0.6602054124,
				"y": -0.7394582044,
				"z": -4.5094452056,
				"element": "Br" 
			},
			{
				"x": -0.9677669905,
				"y": -0.5501743174,
				"z": -1.6633632161,
				"element": "C" 
			},
			{
				"x": -0.5651268073,
				"y": -0.2446437999,
				"z": -0.3598849096,
				"element": "C" 
			},
			{
				"x": 2.860320484,
				"y": 0.0687633891,
				"z": 2.7032870857,
				"element": "H" 
			},
			{
				"x": 1.4846701998,
				"y": 1.8671115928,
				"z": 3.3743251722,
				"element": "H" 
			},
			{
				"x": 0.665899801,
				"y": 0.6457299558,
				"z": 4.3684889463,
				"element": "H" 
			},
			{
				"x": -0.5307262659,
				"y": 0.9971237683,
				"z": 2.2103351772,
				"element": "H" 
			},
			{
				"x": 0.1208815952,
				"y": -0.6657346465,
				"z": 2.3210963462,
				"element": "H" 
			},
			{
				"x": 2.5511046037,
				"y": 0.9380302353,
				"z": -1.0214420228,
				"element": "H" 
			},
			{
				"x": 1.8349087947,
				"y": 0.3934483399,
				"z": -3.345573798,
				"element": "H" 
			},
			{
				"x": -1.9532035899,
				"y": -0.9659010301,
				"z": -1.840625624,
				"element": "H" 
			},
			{
				"x": -1.2506921891,
				"y": -0.4284006036,
				"z": 0.4584302244,
				"element": "H" 
			}
		],
		 "valence_orbital": [ 
			{
				"type": "occ",
				"energy": -0.2931,
				"method": "rhf"
			},
			{
				"type": "occ",
				"energy": -0.28556,
				"method": "rhf"
			},
			{
				"type": "occ",
				"energy": -0.27492,
				"method": "rhf"
			},
			{
				"type": "occ",
				"energy": -0.2671,
				"method": "rhf"
			},
			{
				"type": "occ",
				"energy": -0.22458,
				"method": "rhf"
			},
			{
				"type": "unocc",
				"energy": -0.01778,
				"method": "rhf"
			},
			{
				"type": "unocc",
				"energy": -0.0039,
				"method": "rhf"
			},
			{
				"type": "unocc",
				"energy": 0.00853,
				"method": "rhf"
			},
			{
				"type": "unocc",
				"energy": 0.08168,
				"method": "rhf"
			},
			{
				"type": "unocc",
				"energy": 0.09476,
				"method": "rhf"
			}
		],
		"cosmo_sigma_profile": { 
			"-0.025": 0.0,
			"-0.024": 0.0,
			"-0.023": 0.0,
			"-0.022": 0.0,
			"-0.021": 0.0,
			"-0.02": 0.0,
			"-0.019": 0.0,
			"-0.018": 0.0,
			"-0.017": 0.0,
			"-0.016": 0.0,
			"-0.015": 0.0,
			"-0.014": 0.10714067383,
			"-0.013": 0.676057535033,
			"-0.012": 0.580986553239,
			"-0.011": 0.591649974075,
			"-0.01": 0.995532078384,
			"-0.009": 0.48419146194,
			"-0.008": 0.455376057478,
			"-0.007": 6.37331437176,
			"-0.006": 14.6856900667,
			"-0.005": 19.9676897122,
			"-0.004": 16.7764083692,
			"-0.003": 13.3669891244,
			"-0.002": 13.386363088,
			"-0.001": 10.040635977,
			"0.0": 11.3431881294,
			"0.001": 13.2602815425,
			"0.002": 16.8067302427,
			"0.003": 22.4285133313,
			"0.004": 22.4999484788,
			"0.005": 11.9435866169,
			"0.006": 1.87359156516,
			"0.007": 1.46594398379,
			"0.008": 2.18276316373,
			"0.009": 1.03634021044,
			"0.01": 1.08121344842,
			"0.011": 1.50375740567,
			"0.012": 1.14845247909,
			"0.013": 2.07517034426,
			"0.014": 2.24697028213,
			"0.015": 0.31422892244,
			"0.016": 0.0,
			"0.017": 0.0,
			"0.018": 0.0,
			"0.019": 0.0,
			"0.02": 0.0,
			"0.021": 0.0,
			"0.022": 0.0,
			"0.023": 0.0,
			"0.024": 0.0,
			"0.025": 0.0
		}
	}
}
