{
	 "smiles": "O=C1NCCN2CCCCC12", 
	 "Tm": 408.15, 
	 "num_atms": 25, 
	 "gaussian": { 
		 "optdone": 1, 
		 "sigma_profile": "yes", 
		 "theory": "DFT", 
		 "functional": "B3LYP", 
		 "basiset": "6-31G**", 
		 "properties": { 
			 "R2extent": 1636.9871, 
			 "electric_dipole_moment_norm": 3.50398265264, 
			 "electric_quadrupole_moment_norm": 10.9811026149, 
			 "total_energy": -498.019427478, 
			 "HOMO_LUMO_gap": 0.23646, 
			 "cosmo_polarized_energy": -11.02, 
			 "cosmo_cavitation_energy": 24.67, 
			 "cosmo_dispersion_energy": -18.96, 
			 "cosmo_repulsion_energy": 1.52, 
			 "cosmo_total_nonelectrostatic_energy": 7.22, 
			 "SMD_solvation_energy": 1.09 
		},
		"coords": [
			{
				"x": 0.5028512431,
				"y": 1.1312003428,
				"z": 2.2775955741,
				"element": "O" 
			},
			{
				"x": 0.0524984959,
				"y": 1.0159590082,
				"z": 1.1426860487,
				"element": "C" 
			},
			{
				"x": -1.1664719791,
				"y": 1.5188432629,
				"z": 0.7984824405,
				"element": "N" 
			},
			{
				"x": -1.7881270783,
				"y": 1.3923093777,
				"z": -0.5111133456,
				"element": "C" 
			},
			{
				"x": -1.2829929833,
				"y": 0.1146873501,
				"z": -1.166758551,
				"element": "C" 
			},
			{
				"x": 0.1689317664,
				"y": 0.167136942,
				"z": -1.2498953023,
				"element": "N" 
			},
			{
				"x": 0.7641086743,
				"y": -0.9033814088,
				"z": -2.0491870569,
				"element": "C" 
			},
			{
				"x": 0.6662532212,
				"y": -2.3069979379,
				"z": -1.3996562201,
				"element": "C" 
			},
			{
				"x": 0.7440242522,
				"y": -2.2042554438,
				"z": 0.1424927198,
				"element": "C" 
			},
			{
				"x": 1.5394796413,
				"y": -0.9659414558,
				"z": 0.5709177509,
				"element": "C" 
			},
			{
				"x": 0.8832828763,
				"y": 0.3403616742,
				"z": 0.0367704916,
				"element": "C" 
			},
			{
				"x": -1.6327959369,
				"y": 2.0289579404,
				"z": 1.5365273252,
				"element": "H" 
			},
			{
				"x": -2.8750785635,
				"y": 1.349177181,
				"z": -0.3836110946,
				"element": "H" 
			},
			{
				"x": -1.5523611013,
				"y": 2.2537624892,
				"z": -1.1510727246,
				"element": "H" 
			},
			{
				"x": -1.6795379671,
				"y": -0.7507391182,
				"z": -0.6033849764,
				"element": "H" 
			},
			{
				"x": -1.6805663332,
				"y": 0.0488273925,
				"z": -2.1862349615,
				"element": "H" 
			},
			{
				"x": 0.296518957,
				"y": -0.8982913191,
				"z": -3.0405243912,
				"element": "H" 
			},
			{
				"x": 1.8183592751,
				"y": -0.6424188637,
				"z": -2.2046269491,
				"element": "H" 
			},
			{
				"x": -0.264882506,
				"y": -2.8038316158,
				"z": -1.6951492745,
				"element": "H" 
			},
			{
				"x": 1.4821908359,
				"y": -2.931305186,
				"z": -1.7842736206,
				"element": "H" 
			},
			{
				"x": 1.1947975444,
				"y": -3.1089971084,
				"z": 0.5640679029,
				"element": "H" 
			},
			{
				"x": -0.2661271699,
				"y": -2.1454383274,
				"z": 0.5663410818,
				"element": "H" 
			},
			{
				"x": 2.5619184467,
				"y": -1.0421469451,
				"z": 0.1815853872,
				"element": "H" 
			},
			{
				"x": 1.6214090062,
				"y": -0.8864864891,
				"z": 1.6574696306,
				"element": "H" 
			},
			{
				"x": 1.6932173826,
				"y": 1.0656082584,
				"z": -0.1371478849,
				"element": "H" 
			}
		],
		 "valence_orbital": [ 
			{
				"type": "occ",
				"energy": -0.31697,
				"method": "rhf"
			},
			{
				"type": "occ",
				"energy": -0.31146,
				"method": "rhf"
			},
			{
				"type": "occ",
				"energy": -0.24633,
				"method": "rhf"
			},
			{
				"type": "occ",
				"energy": -0.24106,
				"method": "rhf"
			},
			{
				"type": "occ",
				"energy": -0.20577,
				"method": "rhf"
			},
			{
				"type": "unocc",
				"energy": 0.03069,
				"method": "rhf"
			},
			{
				"type": "unocc",
				"energy": 0.07134,
				"method": "rhf"
			},
			{
				"type": "unocc",
				"energy": 0.09005,
				"method": "rhf"
			},
			{
				"type": "unocc",
				"energy": 0.10192,
				"method": "rhf"
			},
			{
				"type": "unocc",
				"energy": 0.11629,
				"method": "rhf"
			}
		],
		"cosmo_sigma_profile": { 
			"-0.025": 0.0,
			"-0.024": 0.0,
			"-0.023": 0.0,
			"-0.022": 0.0,
			"-0.021": 0.0,
			"-0.02": 0.0,
			"-0.019": 0.0,
			"-0.018": 0.0,
			"-0.017": 0.0,
			"-0.016": 0.0,
			"-0.015": 0.0,
			"-0.014": 0.243512497983,
			"-0.013": 1.27409689598,
			"-0.012": 1.06621529191,
			"-0.011": 1.48576820529,
			"-0.01": 0.543718366554,
			"-0.009": 1.2599955686,
			"-0.008": 0.908822418468,
			"-0.007": 0.95521783385,
			"-0.006": 2.88004818662,
			"-0.005": 5.24276586819,
			"-0.004": 14.6727259813,
			"-0.003": 27.3791263274,
			"-0.002": 30.127210945,
			"-0.001": 26.2089386781,
			"0.0": 20.3527802181,
			"0.001": 14.8382911658,
			"0.002": 6.56142142437,
			"0.003": 4.1593925584,
			"0.004": 2.90769716289,
			"0.005": 1.76414415906,
			"0.006": 2.02953052784,
			"0.007": 1.98478719276,
			"0.008": 2.07284217194,
			"0.009": 2.51048211083,
			"0.01": 2.25660864871,
			"0.011": 1.03806998604,
			"0.012": 1.86032718654,
			"0.013": 2.80626260757,
			"0.014": 5.27114620958,
			"0.015": 3.6623746761,
			"0.016": 0.145717303271,
			"0.017": 0.0,
			"0.018": 0.0,
			"0.019": 0.0,
			"0.02": 0.0,
			"0.021": 0.0,
			"0.022": 0.0,
			"0.023": 0.0,
			"0.024": 0.0,
			"0.025": 0.0
		}
	}
}
