{
	 "smiles": "CC1=CC=C(O1)C1=NN(C=C1C(O)=O)C1=CC=CC=C1", 
	 "Tm": 435.15, 
	 "num_atms": 32, 
	 "gaussian": { 
		 "optdone": 1, 
		 "sigma_profile": "yes", 
		 "theory": "DFT", 
		 "functional": "B3LYP", 
		 "basiset": "6-31G**", 
		 "properties": { 
			 "R2extent": 7088.0713, 
			 "electric_dipole_moment_norm": 4.67057001339, 
			 "electric_quadrupole_moment_norm": 31.5156000931, 
			 "total_energy": -913.982779592, 
			 "HOMO_LUMO_gap": 0.17372, 
			 "cosmo_polarized_energy": -16.33, 
			 "cosmo_cavitation_energy": 37.49, 
			 "cosmo_dispersion_energy": -27.09, 
			 "cosmo_repulsion_energy": 2.07, 
			 "cosmo_total_nonelectrostatic_energy": 12.46, 
			 "SMD_solvation_energy": 7.38 
		},
		"coords": [
			{
				"x": -1.5521052322,
				"y": 0.9407630349,
				"z": 5.4593736357,
				"element": "C" 
			},
			{
				"x": -0.3744296363,
				"y": 0.5900163496,
				"z": 4.6208521165,
				"element": "C" 
			},
			{
				"x": 0.9431549104,
				"y": 0.3590417069,
				"z": 4.8946076359,
				"element": "C" 
			},
			{
				"x": 1.5767610461,
				"y": 0.0683555497,
				"z": 3.6457085032,
				"element": "C" 
			},
			{
				"x": 0.5982218388,
				"y": 0.1485451232,
				"z": 2.6848175862,
				"element": "C" 
			},
			{
				"x": -0.594609331,
				"y": 0.4659534419,
				"z": 3.2777477921,
				"element": "O" 
			},
			{
				"x": 0.5848879077,
				"y": -0.0830652108,
				"z": 1.2467289939,
				"element": "C" 
			},
			{
				"x": -0.4931491745,
				"y": -0.6189268644,
				"z": 0.6715379764,
				"element": "N" 
			},
			{
				"x": -0.1805568449,
				"y": -0.728647682,
				"z": -0.6462881203,
				"element": "N" 
			},
			{
				"x": 1.0700059208,
				"y": -0.2793980946,
				"z": -0.9129841269,
				"element": "C" 
			},
			{
				"x": 1.6146617921,
				"y": 0.1607554495,
				"z": 0.2800982621,
				"element": "C" 
			},
			{
				"x": 2.9504122756,
				"y": 0.7972568765,
				"z": 0.3375234879,
				"element": "C" 
			},
			{
				"x": 3.2774110555,
				"y": 1.46228988,
				"z": 1.4725968866,
				"element": "O" 
			},
			{
				"x": 3.728072402,
				"y": 0.7565988431,
				"z": -0.5905903414,
				"element": "O" 
			},
			{
				"x": -1.1361362655,
				"y": -1.2569422985,
				"z": -1.5597155848,
				"element": "C" 
			},
			{
				"x": -2.4928099094,
				"y": -1.2269484866,
				"z": -1.2218724656,
				"element": "C" 
			},
			{
				"x": -3.4300502206,
				"y": -1.7338006694,
				"z": -2.1195588657,
				"element": "C" 
			},
			{
				"x": -3.0258429147,
				"y": -2.2614065395,
				"z": -3.3479869703,
				"element": "C" 
			},
			{
				"x": -1.6686075491,
				"y": -2.2910074909,
				"z": -3.6722121411,
				"element": "C" 
			},
			{
				"x": -0.7176102179,
				"y": -1.7984176227,
				"z": -2.779444828,
				"element": "C" 
			},
			{
				"x": -1.2559956684,
				"y": 1.0025362119,
				"z": 6.5087822623,
				"element": "H" 
			},
			{
				"x": -1.9795457809,
				"y": 1.9056597905,
				"z": 5.1638944451,
				"element": "H" 
			},
			{
				"x": -2.3433274401,
				"y": 0.1885032436,
				"z": 5.3665618695,
				"element": "H" 
			},
			{
				"x": 1.4073460458,
				"y": 0.3838586436,
				"z": 5.8699104935,
				"element": "H" 
			},
			{
				"x": 2.6079359014,
				"y": -0.2150356377,
				"z": 3.4891170936,
				"element": "H" 
			},
			{
				"x": 1.4922977429,
				"y": -0.2478579303,
				"z": -1.904413364,
				"element": "H" 
			},
			{
				"x": 2.5347537104,
				"y": 1.4666839051,
				"z": 2.0998799365,
				"element": "H" 
			},
			{
				"x": -2.7887274107,
				"y": -0.812482164,
				"z": -0.2661185342,
				"element": "H" 
			},
			{
				"x": -4.4835075892,
				"y": -1.7098853566,
				"z": -1.8572445194,
				"element": "H" 
			},
			{
				"x": -3.7616438961,
				"y": -2.6514287565,
				"z": -4.0444163218,
				"element": "H" 
			},
			{
				"x": -1.3415886073,
				"y": -2.7109412757,
				"z": -4.6185580592,
				"element": "H" 
			},
			{
				"x": 0.3374211392,
				"y": -1.85652597,
				"z": -3.0245347345,
				"element": "H" 
			}
		],
		 "valence_orbital": [ 
			{
				"type": "occ",
				"energy": -0.27164,
				"method": "rhf"
			},
			{
				"type": "occ",
				"energy": -0.26665,
				"method": "rhf"
			},
			{
				"type": "occ",
				"energy": -0.26275,
				"method": "rhf"
			},
			{
				"type": "occ",
				"energy": -0.25014,
				"method": "rhf"
			},
			{
				"type": "occ",
				"energy": -0.21775,
				"method": "rhf"
			},
			{
				"type": "unocc",
				"energy": -0.04403,
				"method": "rhf"
			},
			{
				"type": "unocc",
				"energy": -0.03466,
				"method": "rhf"
			},
			{
				"type": "unocc",
				"energy": -0.01613,
				"method": "rhf"
			},
			{
				"type": "unocc",
				"energy": 0.01236,
				"method": "rhf"
			},
			{
				"type": "unocc",
				"energy": 0.03172,
				"method": "rhf"
			}
		],
		"cosmo_sigma_profile": { 
			"-0.025": 0.0,
			"-0.024": 0.0,
			"-0.023": 0.0,
			"-0.022": 0.0,
			"-0.021": 0.0,
			"-0.02": 0.0,
			"-0.019": 0.0,
			"-0.018": 0.0,
			"-0.017": 0.0,
			"-0.016": 0.0,
			"-0.015": 0.0,
			"-0.014": 0.0,
			"-0.013": 0.0,
			"-0.012": 0.985358822691,
			"-0.011": 2.12281106963,
			"-0.01": 2.69530951857,
			"-0.009": 3.06505789667,
			"-0.008": 4.97476752402,
			"-0.007": 8.25424866122,
			"-0.006": 17.4825155277,
			"-0.005": 23.1908512439,
			"-0.004": 22.0843469534,
			"-0.003": 20.9728998391,
			"-0.002": 22.182413127,
			"-0.001": 23.7809773435,
			"0.0": 22.0843505136,
			"0.001": 20.6861927642,
			"0.002": 18.926102387,
			"0.003": 20.2585540052,
			"0.004": 19.16545826,
			"0.005": 8.15328914631,
			"0.006": 4.62307588698,
			"0.007": 4.46371567848,
			"0.008": 4.73188823797,
			"0.009": 4.53782230964,
			"0.01": 6.54573999577,
			"0.011": 6.38896884993,
			"0.012": 6.74941407484,
			"0.013": 2.33951257256,
			"0.014": 0.257081461127,
			"0.015": 0.0,
			"0.016": 0.0,
			"0.017": 0.0,
			"0.018": 0.0,
			"0.019": 0.0,
			"0.02": 0.0,
			"0.021": 0.0,
			"0.022": 0.0,
			"0.023": 0.0,
			"0.024": 0.0,
			"0.025": 0.0
		}
	}
}
