{
	 "smiles": "BrC1=CC2=CC=CC=C2N=C1", 
	 "Tm": 286.85, 
	 "num_atms": 17, 
	 "gaussian": { 
		 "optdone": 1, 
		 "sigma_profile": "yes", 
		 "theory": "DFT", 
		 "functional": "B3LYP", 
		 "basiset": "6-31G**", 
		 "properties": { 
			 "R2extent": 3155.7164, 
			 "electric_dipole_moment_norm": 2.31913915926, 
			 "electric_quadrupole_moment_norm": 8.59060405501, 
			 "total_energy": -2972.73373269, 
			 "HOMO_LUMO_gap": 0.17442, 
			 "cosmo_polarized_energy": -6.11, 
			 "cosmo_cavitation_energy": 23.51, 
			 "cosmo_dispersion_energy": -18.14, 
			 "cosmo_repulsion_energy": 1.43, 
			 "cosmo_total_nonelectrostatic_energy": 6.8, 
			 "SMD_solvation_energy": 1.23 
		},
		"coords": [
			{
				"x": 2.4511499117,
				"y": 1.7497215285,
				"z": -1.113264868,
				"element": "Br" 
			},
			{
				"x": 1.180074527,
				"y": 0.4415025664,
				"z": -0.5567761804,
				"element": "C" 
			},
			{
				"x": 1.1563443353,
				"y": -0.8092456785,
				"z": -1.1203665613,
				"element": "C" 
			},
			{
				"x": 0.1865751341,
				"y": -1.73881938,
				"z": -0.6642662694,
				"element": "C" 
			},
			{
				"x": 0.07556857,
				"y": -3.0573356335,
				"z": -1.1795967487,
				"element": "C" 
			},
			{
				"x": -0.888079338,
				"y": -3.9127776098,
				"z": -0.6946945483,
				"element": "C" 
			},
			{
				"x": -1.7798296245,
				"y": -3.4893858576,
				"z": 0.3229410084,
				"element": "C" 
			},
			{
				"x": -1.6959638899,
				"y": -2.216692517,
				"z": 0.8418032226,
				"element": "C" 
			},
			{
				"x": -0.7136082978,
				"y": -1.3107558146,
				"z": 0.3633304406,
				"element": "C" 
			},
			{
				"x": -0.6623738668,
				"y": -0.057182369,
				"z": 0.9031486589,
				"element": "N" 
			},
			{
				"x": 0.247843419,
				"y": 0.7807139114,
				"z": 0.4588549389,
				"element": "C" 
			},
			{
				"x": 1.8598036275,
				"y": -1.0890978879,
				"z": -1.8979385906,
				"element": "H" 
			},
			{
				"x": 0.7611422583,
				"y": -3.3778287591,
				"z": -1.9596479188,
				"element": "H" 
			},
			{
				"x": -0.9690261317,
				"y": -4.9201936693,
				"z": -1.0920626736,
				"element": "H" 
			},
			{
				"x": -2.5333134042,
				"y": -4.1786357141,
				"z": 0.6925104291,
				"element": "H" 
			},
			{
				"x": -2.3658311765,
				"y": -1.8676863794,
				"z": 1.6206973298,
				"element": "H" 
			},
			{
				"x": 0.2751239465,
				"y": 1.7750992637,
				"z": 0.8993283309,
				"element": "H" 
			}
		],
		 "valence_orbital": [ 
			{
				"type": "occ",
				"energy": -0.29757,
				"method": "rhf"
			},
			{
				"type": "occ",
				"energy": -0.29581,
				"method": "rhf"
			},
			{
				"type": "occ",
				"energy": -0.26424,
				"method": "rhf"
			},
			{
				"type": "occ",
				"energy": -0.25333,
				"method": "rhf"
			},
			{
				"type": "occ",
				"energy": -0.23745,
				"method": "rhf"
			},
			{
				"type": "unocc",
				"energy": -0.06303,
				"method": "rhf"
			},
			{
				"type": "unocc",
				"energy": -0.02664,
				"method": "rhf"
			},
			{
				"type": "unocc",
				"energy": 0.00193,
				"method": "rhf"
			},
			{
				"type": "unocc",
				"energy": 0.01069,
				"method": "rhf"
			},
			{
				"type": "unocc",
				"energy": 0.07757,
				"method": "rhf"
			}
		],
		"cosmo_sigma_profile": { 
			"-0.025": 0.0,
			"-0.024": 0.0,
			"-0.023": 0.0,
			"-0.022": 0.0,
			"-0.021": 0.0,
			"-0.02": 0.0,
			"-0.019": 0.0,
			"-0.018": 0.0,
			"-0.017": 0.0,
			"-0.016": 0.0,
			"-0.015": 0.0,
			"-0.014": 0.0,
			"-0.013": 0.0,
			"-0.012": 0.0,
			"-0.011": 0.0,
			"-0.01": 0.0,
			"-0.009": 0.40922297857,
			"-0.008": 3.17179773569,
			"-0.007": 6.60312290269,
			"-0.006": 10.9281201037,
			"-0.005": 11.638980152,
			"-0.004": 13.0988845553,
			"-0.003": 9.73788119765,
			"-0.002": 11.3846657404,
			"-0.001": 12.8974462296,
			"0.0": 19.6757340325,
			"0.001": 21.1836380521,
			"0.002": 19.1267689574,
			"0.003": 19.9438483822,
			"0.004": 19.999824948,
			"0.005": 3.51820225483,
			"0.006": 1.01872799859,
			"0.007": 1.63082192654,
			"0.008": 1.20617324189,
			"0.009": 1.102732091,
			"0.01": 0.870518867254,
			"0.011": 0.777837853063,
			"0.012": 1.01380160482,
			"0.013": 0.504563271324,
			"0.014": 1.02094375135,
			"0.015": 0.609694388526,
			"0.016": 0.0692900780353,
			"0.017": 0.0,
			"0.018": 0.0,
			"0.019": 0.0,
			"0.02": 0.0,
			"0.021": 0.0,
			"0.022": 0.0,
			"0.023": 0.0,
			"0.024": 0.0,
			"0.025": 0.0
		}
	}
}
