{
	 "smiles": "N#CC1=C(N2C=CC=C2)N(N=C1)C1=CC=CC=C1", 
	 "Tm": 355.15, 
	 "num_atms": 28, 
	 "gaussian": { 
		 "optdone": 1, 
		 "sigma_profile": "yes", 
		 "theory": "DFT", 
		 "functional": "B3LYP", 
		 "basiset": "6-31G**", 
		 "properties": { 
			 "R2extent": 4485.9503, 
			 "electric_dipole_moment_norm": 5.15084931346, 
			 "electric_quadrupole_moment_norm": 18.1447070384, 
			 "total_energy": -758.459959343, 
			 "HOMO_LUMO_gap": 0.17817, 
			 "cosmo_polarized_energy": -12.57, 
			 "cosmo_cavitation_energy": 33.85, 
			 "cosmo_dispersion_energy": -22.93, 
			 "cosmo_repulsion_energy": 1.76, 
			 "cosmo_total_nonelectrostatic_energy": 12.68, 
			 "SMD_solvation_energy": 7.3 
		},
		"coords": [
			{
				"x": 1.470514591,
				"y": 2.1622327718,
				"z": -4.1734128909,
				"element": "N" 
			},
			{
				"x": 1.1677296851,
				"y": 1.940064931,
				"z": -3.071492072,
				"element": "C" 
			},
			{
				"x": 0.8205247101,
				"y": 1.6845640179,
				"z": -1.7219901895,
				"element": "C" 
			},
			{
				"x": -0.0137305501,
				"y": 0.6762880561,
				"z": -1.2358018977,
				"element": "C" 
			},
			{
				"x": -0.7097060283,
				"y": -0.3056022748,
				"z": -1.9373276252,
				"element": "N" 
			},
			{
				"x": -2.0755082082,
				"y": -0.5607752144,
				"z": -1.8596911405,
				"element": "C" 
			},
			{
				"x": -2.3629039001,
				"y": -1.5779297429,
				"z": -2.7326522838,
				"element": "C" 
			},
			{
				"x": -1.1432499135,
				"y": -1.9616264662,
				"z": -3.371851372,
				"element": "C" 
			},
			{
				"x": -0.1437438406,
				"y": -1.1660537452,
				"z": -2.874003853,
				"element": "C" 
			},
			{
				"x": -0.0667300174,
				"y": 0.8347075997,
				"z": 0.12132872,
				"element": "N" 
			},
			{
				"x": 0.6668156528,
				"y": 1.9104943639,
				"z": 0.5319790876,
				"element": "N" 
			},
			{
				"x": 1.2061281224,
				"y": 2.4112907295,
				"z": -0.5650904211,
				"element": "C" 
			},
			{
				"x": -0.7269434329,
				"y": 0.0373647146,
				"z": 1.1088881704,
				"element": "C" 
			},
			{
				"x": -0.7362049197,
				"y": -1.3570721444,
				"z": 1.0091417322,
				"element": "C" 
			},
			{
				"x": -1.3713144763,
				"y": -2.1038804394,
				"z": 2.0010173775,
				"element": "C" 
			},
			{
				"x": -1.9766201376,
				"y": -1.4696351359,
				"z": 3.0873791821,
				"element": "C" 
			},
			{
				"x": -1.9464816131,
				"y": -0.0767030227,
				"z": 3.182898165,
				"element": "C" 
			},
			{
				"x": -1.3258006432,
				"y": 0.6837707209,
				"z": 2.1935354108,
				"element": "C" 
			},
			{
				"x": -2.7038880079,
				"y": 0.0140685905,
				"z": -1.1976628577,
				"element": "H" 
			},
			{
				"x": -3.3435132263,
				"y": -1.9987562573,
				"z": -2.9043369982,
				"element": "H" 
			},
			{
				"x": -1.0182296376,
				"y": -2.7338772035,
				"z": -4.1174319584,
				"element": "H" 
			},
			{
				"x": 0.9125079098,
				"y": -1.1190419928,
				"z": -3.0895728169,
				"element": "H" 
			},
			{
				"x": 1.8508686973,
				"y": 3.2775968857,
				"z": -0.5136419608,
				"element": "H" 
			},
			{
				"x": -0.2503048695,
				"y": -1.8512425096,
				"z": 0.1758607935,
				"element": "H" 
			},
			{
				"x": -1.3814057813,
				"y": -3.1868280952,
				"z": 1.9257147531,
				"element": "H" 
			},
			{
				"x": -2.464886031,
				"y": -2.0582010274,
				"z": 3.8580727582,
				"element": "H" 
			},
			{
				"x": -2.4102477068,
				"y": 0.4230274789,
				"z": 4.0278748674,
				"element": "H" 
			},
			{
				"x": -1.2856764272,
				"y": 1.7649544111,
				"z": 2.2542693199,
				"element": "H" 
			}
		],
		 "valence_orbital": [ 
			{
				"type": "occ",
				"energy": -0.28692,
				"method": "rhf"
			},
			{
				"type": "occ",
				"energy": -0.27127,
				"method": "rhf"
			},
			{
				"type": "occ",
				"energy": -0.25073,
				"method": "rhf"
			},
			{
				"type": "occ",
				"energy": -0.24357,
				"method": "rhf"
			},
			{
				"type": "occ",
				"energy": -0.22689,
				"method": "rhf"
			},
			{
				"type": "unocc",
				"energy": -0.04872,
				"method": "rhf"
			},
			{
				"type": "unocc",
				"energy": -0.02145,
				"method": "rhf"
			},
			{
				"type": "unocc",
				"energy": -0.01152,
				"method": "rhf"
			},
			{
				"type": "unocc",
				"energy": 0.00506,
				"method": "rhf"
			},
			{
				"type": "unocc",
				"energy": 0.02111,
				"method": "rhf"
			}
		],
		"cosmo_sigma_profile": { 
			"-0.025": 0.0,
			"-0.024": 0.0,
			"-0.023": 0.0,
			"-0.022": 0.0,
			"-0.021": 0.0,
			"-0.02": 0.0,
			"-0.019": 0.0,
			"-0.018": 0.0,
			"-0.017": 0.0,
			"-0.016": 0.0,
			"-0.015": 0.0,
			"-0.014": 0.0,
			"-0.013": 0.0,
			"-0.012": 0.0,
			"-0.011": 0.0,
			"-0.01": 0.651706796292,
			"-0.009": 2.81773883391,
			"-0.008": 5.66908902758,
			"-0.007": 8.59988964441,
			"-0.006": 19.692415662,
			"-0.005": 21.2436055299,
			"-0.004": 20.2889698964,
			"-0.003": 17.9698339503,
			"-0.002": 21.1136512469,
			"-0.001": 19.3804657074,
			"0.0": 17.3137392761,
			"0.001": 16.6254001053,
			"0.002": 16.2839360716,
			"0.003": 18.548481247,
			"0.004": 19.8256088373,
			"0.005": 11.1629019518,
			"0.006": 9.71553306363,
			"0.007": 6.32258204825,
			"0.008": 3.97948043213,
			"0.009": 4.44846545876,
			"0.01": 3.96451478959,
			"0.011": 3.95228830559,
			"0.012": 3.20497482072,
			"0.013": 1.62615233227,
			"0.014": 0.00356684880214,
			"0.015": 0.0,
			"0.016": 0.0,
			"0.017": 0.0,
			"0.018": 0.0,
			"0.019": 0.0,
			"0.02": 0.0,
			"0.021": 0.0,
			"0.022": 0.0,
			"0.023": 0.0,
			"0.024": 0.0,
			"0.025": 0.0
		}
	}
}
