{
	 "smiles": "OC1=CC=C(C=C1Cl)C1(OS(=O)(=O)C2=CC=CC=C12)C1=CC(Cl)=C(O)C=C1", 
	 "Tm": 534.15, 
	 "num_atms": 39, 
	 "gaussian": { 
		 "optdone": 1, 
		 "sigma_profile": "yes", 
		 "theory": "DFT", 
		 "functional": "B3LYP", 
		 "basiset": "6-31G**", 
		 "properties": { 
			 "R2extent": 11672.8163, 
			 "electric_dipole_moment_norm": 4.21275189989, 
			 "electric_quadrupole_moment_norm": 35.4062296192, 
			 "total_energy": -2425.85964358, 
			 "HOMO_LUMO_gap": 0.18526, 
			 "cosmo_polarized_energy": -24.28, 
			 "cosmo_cavitation_energy": 48.53, 
			 "cosmo_dispersion_energy": -33.24, 
			 "cosmo_repulsion_energy": 2.52, 
			 "cosmo_total_nonelectrostatic_energy": 17.81, 
			 "SMD_solvation_energy": 7.09 
		},
		"coords": [
			{
				"x": -0.3916212584,
				"y": 4.7099366783,
				"z": -3.196811771,
				"element": "O" 
			},
			{
				"x": -0.099255468,
				"y": 3.5685964277,
				"z": -2.5320286188,
				"element": "C" 
			},
			{
				"x": 0.9138699308,
				"y": 2.742168664,
				"z": -3.0367791556,
				"element": "C" 
			},
			{
				"x": 1.253492603,
				"y": 1.560513945,
				"z": -2.3921626362,
				"element": "C" 
			},
			{
				"x": 0.5840426156,
				"y": 1.1583470548,
				"z": -1.225825922,
				"element": "C" 
			},
			{
				"x": -0.4307929809,
				"y": 1.9724464778,
				"z": -0.7167258726,
				"element": "C" 
			},
			{
				"x": -0.7582019294,
				"y": 3.1612398787,
				"z": -1.3637334412,
				"element": "C" 
			},
			{
				"x": -2.0409663632,
				"y": 4.1886533686,
				"z": -0.7224038143,
				"element": "Cl" 
			},
			{
				"x": 1.0171583996,
				"y": -0.1105107851,
				"z": -0.4842949081,
				"element": "C" 
			},
			{
				"x": 1.4246507723,
				"y": -1.0662669436,
				"z": -1.5255584683,
				"element": "O" 
			},
			{
				"x": 2.8247860776,
				"y": -1.8926686672,
				"z": -1.1925721792,
				"element": "S" 
			},
			{
				"x": 3.6637696235,
				"y": -1.8045152213,
				"z": -2.3821194995,
				"element": "O" 
			},
			{
				"x": 2.5112331943,
				"y": -3.1945447173,
				"z": -0.6155795982,
				"element": "O" 
			},
			{
				"x": 3.3192796249,
				"y": -0.7324742733,
				"z": 0.0597444119,
				"element": "C" 
			},
			{
				"x": 4.559882503,
				"y": -0.6721569338,
				"z": 0.6879750013,
				"element": "C" 
			},
			{
				"x": 4.7528845784,
				"y": 0.3320869749,
				"z": 1.6361535937,
				"element": "C" 
			},
			{
				"x": 3.726520105,
				"y": 1.2414868491,
				"z": 1.9218586413,
				"element": "C" 
			},
			{
				"x": 2.4924849053,
				"y": 1.1630643256,
				"z": 1.2729494476,
				"element": "C" 
			},
			{
				"x": 2.2841743116,
				"y": 0.1498637273,
				"z": 0.3352112817,
				"element": "C" 
			},
			{
				"x": -0.1180304795,
				"y": -0.756612357,
				"z": 0.314608305,
				"element": "C" 
			},
			{
				"x": -0.1197731685,
				"y": -0.8451916101,
				"z": 1.7086870889,
				"element": "C" 
			},
			{
				"x": -1.1833600191,
				"y": -1.4433027509,
				"z": 2.3830764586,
				"element": "C" 
			},
			{
				"x": -1.1588046183,
				"y": -1.5326001748,
				"z": 4.1302280865,
				"element": "Cl" 
			},
			{
				"x": -2.2688179792,
				"y": -1.9811453037,
				"z": 1.6783281946,
				"element": "C" 
			},
			{
				"x": -3.2778827391,
				"y": -2.5574408169,
				"z": 2.3770936367,
				"element": "O" 
			},
			{
				"x": -2.2596375524,
				"y": -1.8963877945,
				"z": 0.2789362018,
				"element": "C" 
			},
			{
				"x": -1.204850684,
				"y": -1.2920747917,
				"z": -0.3917641366,
				"element": "C" 
			},
			{
				"x": -1.111104563,
				"y": 5.1682990292,
				"z": -2.7357555916,
				"element": "H" 
			},
			{
				"x": 1.4203092026,
				"y": 3.0521525445,
				"z": -3.9446825581,
				"element": "H" 
			},
			{
				"x": 2.034445536,
				"y": 0.93149788,
				"z": -2.8042548937,
				"element": "H" 
			},
			{
				"x": -0.9786146218,
				"y": 1.6879552304,
				"z": 0.1739317604,
				"element": "H" 
			},
			{
				"x": 5.3486943321,
				"y": -1.3742283713,
				"z": 0.4388687054,
				"element": "H" 
			},
			{
				"x": 5.7073043395,
				"y": 0.4156433154,
				"z": 2.1460787807,
				"element": "H" 
			},
			{
				"x": 3.895249311,
				"y": 2.0271521649,
				"z": 2.6519180738,
				"element": "H" 
			},
			{
				"x": 1.7125752359,
				"y": 1.8880229028,
				"z": 1.4831780575,
				"element": "H" 
			},
			{
				"x": 0.7055844381,
				"y": -0.4611215528,
				"z": 2.2950656136,
				"element": "H" 
			},
			{
				"x": -3.9376452801,
				"y": -2.89947971,
				"z": 1.7596113552,
				"element": "H" 
			},
			{
				"x": -3.0917180413,
				"y": -2.3146312141,
				"z": -0.2831733302,
				"element": "H" 
			},
			{
				"x": -1.2147138941,
				"y": -1.2468734497,
				"z": -1.4752763009,
				"element": "H" 
			}
		],
		 "valence_orbital": [ 
			{
				"type": "occ",
				"energy": -0.27979,
				"method": "rhf"
			},
			{
				"type": "occ",
				"energy": -0.2672,
				"method": "rhf"
			},
			{
				"type": "occ",
				"energy": -0.26278,
				"method": "rhf"
			},
			{
				"type": "occ",
				"energy": -0.23969,
				"method": "rhf"
			},
			{
				"type": "occ",
				"energy": -0.23502,
				"method": "rhf"
			},
			{
				"type": "unocc",
				"energy": -0.04976,
				"method": "rhf"
			},
			{
				"type": "unocc",
				"energy": -0.04305,
				"method": "rhf"
			},
			{
				"type": "unocc",
				"energy": -0.03143,
				"method": "rhf"
			},
			{
				"type": "unocc",
				"energy": -0.02074,
				"method": "rhf"
			},
			{
				"type": "unocc",
				"energy": -0.01609,
				"method": "rhf"
			}
		],
		"cosmo_sigma_profile": { 
			"-0.025": 0.0,
			"-0.024": 0.0,
			"-0.023": 0.0,
			"-0.022": 0.0,
			"-0.021": 0.0,
			"-0.02": 0.0,
			"-0.019": 0.409588990824,
			"-0.018": 1.4609842474,
			"-0.017": 1.18676845664,
			"-0.016": 0.968325150997,
			"-0.015": 1.96324228493,
			"-0.014": 1.32324297247,
			"-0.013": 1.40736758792,
			"-0.012": 2.55180484914,
			"-0.011": 1.83992115929,
			"-0.01": 2.34512674421,
			"-0.009": 3.82832685645,
			"-0.008": 7.46930219843,
			"-0.007": 16.6802179176,
			"-0.006": 20.4173374121,
			"-0.005": 20.6374963558,
			"-0.004": 17.0720948852,
			"-0.003": 18.4267031966,
			"-0.002": 21.8066552043,
			"-0.001": 21.1112438361,
			"0.0": 29.5871546912,
			"0.001": 41.9739354815,
			"0.002": 41.1934126531,
			"0.003": 26.9296664293,
			"0.004": 24.9746929323,
			"0.005": 13.4330073884,
			"0.006": 8.38263551133,
			"0.007": 6.40281463598,
			"0.008": 6.95965042937,
			"0.009": 14.4430340036,
			"0.01": 14.8666967369,
			"0.011": 2.76437276748,
			"0.012": 0.0,
			"0.013": 0.0,
			"0.014": 0.0,
			"0.015": 0.0,
			"0.016": 0.0,
			"0.017": 0.0,
			"0.018": 0.0,
			"0.019": 0.0,
			"0.02": 0.0,
			"0.021": 0.0,
			"0.022": 0.0,
			"0.023": 0.0,
			"0.024": 0.0,
			"0.025": 0.0
		}
	}
}
