{
	 "smiles": "CCC(N1N=NC2=C1C=CC=C2)C(N)=O", 
	 "Tm": 416.15, 
	 "num_atms": 27, 
	 "gaussian": { 
		 "optdone": 1, 
		 "sigma_profile": "yes", 
		 "theory": "DFT", 
		 "functional": "B3LYP", 
		 "basiset": "6-31G**", 
		 "properties": { 
			 "R2extent": 3514.8221, 
			 "electric_dipole_moment_norm": 1.51637773988, 
			 "electric_quadrupole_moment_norm": 16.0496233862, 
			 "total_energy": -682.516692387, 
			 "HOMO_LUMO_gap": 0.19067, 
			 "cosmo_polarized_energy": -16.12, 
			 "cosmo_cavitation_energy": 30.83, 
			 "cosmo_dispersion_energy": -21.34, 
			 "cosmo_repulsion_energy": 1.68, 
			 "cosmo_total_nonelectrostatic_energy": 11.17, 
			 "SMD_solvation_energy": 4.47 
		},
		"coords": [
			{
				"x": 3.2594637746,
				"y": 1.9611910221,
				"z": -0.9367782274,
				"element": "C" 
			},
			{
				"x": 1.9497336126,
				"y": 2.5116723865,
				"z": -1.5058947879,
				"element": "C" 
			},
			{
				"x": 0.8754588717,
				"y": 2.7326998637,
				"z": -0.4343438442,
				"element": "C" 
			},
			{
				"x": 0.4837189661,
				"y": 1.5014716931,
				"z": 0.2486283934,
				"element": "N" 
			},
			{
				"x": 0.725799301,
				"y": 1.3577663204,
				"z": 1.5906672913,
				"element": "N" 
			},
			{
				"x": 0.308708793,
				"y": 0.1989473036,
				"z": 1.9811430847,
				"element": "N" 
			},
			{
				"x": -0.2277597299,
				"y": -0.4606911873,
				"z": 0.8948730041,
				"element": "C" 
			},
			{
				"x": -0.1278914986,
				"y": 0.3756445604,
				"z": -0.2365656741,
				"element": "C" 
			},
			{
				"x": -0.6226753312,
				"y": -0.0053576505,
				"z": -1.4952765156,
				"element": "C" 
			},
			{
				"x": -1.2003221278,
				"y": -1.2640861181,
				"z": -1.5704796731,
				"element": "C" 
			},
			{
				"x": -1.2926735882,
				"y": -2.1197586464,
				"z": -0.4443811016,
				"element": "C" 
			},
			{
				"x": -0.8150911646,
				"y": -1.7333456796,
				"z": 0.7970533295,
				"element": "C" 
			},
			{
				"x": -0.384309519,
				"y": 3.4360518097,
				"z": -1.0004417924,
				"element": "C" 
			},
			{
				"x": -1.3277433279,
				"y": 3.7225616246,
				"z": -0.0608048346,
				"element": "N" 
			},
			{
				"x": -0.4976427555,
				"y": 3.7245197209,
				"z": -2.1818078,
				"element": "O" 
			},
			{
				"x": 3.997979759,
				"y": 1.8325985357,
				"z": -1.7335731233,
				"element": "H" 
			},
			{
				"x": 3.6876662248,
				"y": 2.6392504017,
				"z": -0.1903156092,
				"element": "H" 
			},
			{
				"x": 3.114919846,
				"y": 0.9890538234,
				"z": -0.4556239551,
				"element": "H" 
			},
			{
				"x": 1.558210178,
				"y": 1.8484430281,
				"z": -2.2832565639,
				"element": "H" 
			},
			{
				"x": 2.114787553,
				"y": 3.4758678141,
				"z": -1.9959545355,
				"element": "H" 
			},
			{
				"x": 1.2824812243,
				"y": 3.3607796502,
				"z": 0.3665165511,
				"element": "H" 
			},
			{
				"x": -0.573609804,
				"y": 0.6521312196,
				"z": -2.3561201248,
				"element": "H" 
			},
			{
				"x": -1.5988311586,
				"y": -1.6046177822,
				"z": -2.5215828629,
				"element": "H" 
			},
			{
				"x": -1.7541255507,
				"y": -3.0951850127,
				"z": -0.5635795486,
				"element": "H" 
			},
			{
				"x": -0.8878529931,
				"y": -2.3750114825,
				"z": 1.6686493999,
				"element": "H" 
			},
			{
				"x": -1.2578597946,
				"y": 3.3726344174,
				"z": 0.8826159165,
				"element": "H" 
			},
			{
				"x": -2.2057397604,
				"y": 4.1093683641,
				"z": -0.3727663963,
				"element": "H" 
			}
		],
		 "valence_orbital": [ 
			{
				"type": "occ",
				"energy": -0.28209,
				"method": "rhf"
			},
			{
				"type": "occ",
				"energy": -0.27458,
				"method": "rhf"
			},
			{
				"type": "occ",
				"energy": -0.26551,
				"method": "rhf"
			},
			{
				"type": "occ",
				"energy": -0.25558,
				"method": "rhf"
			},
			{
				"type": "occ",
				"energy": -0.23778,
				"method": "rhf"
			},
			{
				"type": "unocc",
				"energy": -0.04711,
				"method": "rhf"
			},
			{
				"type": "unocc",
				"energy": 0.00291,
				"method": "rhf"
			},
			{
				"type": "unocc",
				"energy": 0.00622,
				"method": "rhf"
			},
			{
				"type": "unocc",
				"energy": 0.03239,
				"method": "rhf"
			},
			{
				"type": "unocc",
				"energy": 0.07417,
				"method": "rhf"
			}
		],
		"cosmo_sigma_profile": { 
			"-0.025": 0.0,
			"-0.024": 0.0,
			"-0.023": 0.0,
			"-0.022": 0.0,
			"-0.021": 0.0,
			"-0.02": 0.0,
			"-0.019": 0.0,
			"-0.018": 0.0,
			"-0.017": 0.0,
			"-0.016": 0.0,
			"-0.015": 0.223924648341,
			"-0.014": 1.5995705878,
			"-0.013": 2.15071573725,
			"-0.012": 2.15388705925,
			"-0.011": 2.14979492672,
			"-0.01": 1.99448378996,
			"-0.009": 3.12527578932,
			"-0.008": 4.63350038141,
			"-0.007": 6.48165148231,
			"-0.006": 12.6310902518,
			"-0.005": 13.1969945185,
			"-0.004": 16.8066640308,
			"-0.003": 18.4005159809,
			"-0.002": 18.7353522804,
			"-0.001": 20.2080352629,
			"0.0": 19.611039125,
			"0.001": 17.9158634993,
			"0.002": 14.310937848,
			"0.003": 13.5989600522,
			"0.004": 12.371357051,
			"0.005": 4.54479484259,
			"0.006": 2.93333609907,
			"0.007": 3.33124635232,
			"0.008": 3.4749492374,
			"0.009": 2.94788313942,
			"0.01": 5.27785499871,
			"0.011": 4.37953913932,
			"0.012": 5.08296047797,
			"0.013": 6.48278030762,
			"0.014": 2.52998325417,
			"0.015": 0.966978746725,
			"0.016": 0.116831932579,
			"0.017": 0.0,
			"0.018": 0.0,
			"0.019": 0.0,
			"0.02": 0.0,
			"0.021": 0.0,
			"0.022": 0.0,
			"0.023": 0.0,
			"0.024": 0.0,
			"0.025": 0.0
		}
	}
}
