{
	 "smiles": "CC1=CC=NC(Cl)=C1[N+]([O-])=O", 
	 "Tm": 326.15, 
	 "num_atms": 16, 
	 "gaussian": { 
		 "optdone": 1, 
		 "sigma_profile": "yes", 
		 "theory": "DFT", 
		 "functional": "B3LYP", 
		 "basiset": "6-31G**", 
		 "properties": { 
			 "R2extent": 3188.5085, 
			 "electric_dipole_moment_norm": 4.76914847011, 
			 "electric_quadrupole_moment_norm": 5.5729469583, 
			 "total_energy": -951.679774845, 
			 "HOMO_LUMO_gap": 0.18923, 
			 "cosmo_polarized_energy": -9.59, 
			 "cosmo_cavitation_energy": 23.23, 
			 "cosmo_dispersion_energy": -16.61, 
			 "cosmo_repulsion_energy": 1.33, 
			 "cosmo_total_nonelectrostatic_energy": 7.96, 
			 "SMD_solvation_energy": 5.07 
		},
		"coords": [
			{
				"x": 0.2895376228,
				"y": -0.7926723535,
				"z": -0.0983940926,
				"element": "C" 
			},
			{
				"x": -0.0479612783,
				"y": 0.0322338962,
				"z": 1.1153053591,
				"element": "C" 
			},
			{
				"x": 0.7427677476,
				"y": 0.0386678391,
				"z": 2.2694228664,
				"element": "C" 
			},
			{
				"x": 0.369518613,
				"y": 0.8265787688,
				"z": 3.3553615625,
				"element": "C" 
			},
			{
				"x": -0.7248220476,
				"y": 1.5979446441,
				"z": 3.3668113088,
				"element": "N" 
			},
			{
				"x": -1.4809676157,
				"y": 1.6024113696,
				"z": 2.2849886286,
				"element": "C" 
			},
			{
				"x": -2.9092733963,
				"y": 2.6125855055,
				"z": 2.3069599939,
				"element": "Cl" 
			},
			{
				"x": -1.1847477986,
				"y": 0.8447324759,
				"z": 1.1501673219,
				"element": "C" 
			},
			{
				"x": -2.0624743343,
				"y": 0.8842799626,
				"z": -0.0346832411,
				"element": "N" 
			},
			{
				"x": -1.7993457701,
				"y": 1.7221293,
				"z": -0.8903760649,
				"element": "O" 
			},
			{
				"x": -2.9648600079,
				"y": 0.0555143631,
				"z": -0.0825706771,
				"element": "O" 
			},
			{
				"x": 0.4209035368,
				"y": -0.1523303842,
				"z": -0.9768564268,
				"element": "H" 
			},
			{
				"x": 1.2085144733,
				"y": -1.359863389,
				"z": 0.0589400341,
				"element": "H" 
			},
			{
				"x": -0.5192387185,
				"y": -1.494931263,
				"z": -0.3257652172,
				"element": "H" 
			},
			{
				"x": 1.6416869275,
				"y": -0.5672387091,
				"z": 2.317217865,
				"element": "H" 
			},
			{
				"x": 0.9720620463,
				"y": 0.8437579738,
				"z": 4.2601707795,
				"element": "H" 
			}
		],
		 "valence_orbital": [ 
			{
				"type": "occ",
				"energy": -0.32732,
				"method": "rhf"
			},
			{
				"type": "occ",
				"energy": -0.32419,
				"method": "rhf"
			},
			{
				"type": "occ",
				"energy": -0.29892,
				"method": "rhf"
			},
			{
				"type": "occ",
				"energy": -0.29247,
				"method": "rhf"
			},
			{
				"type": "occ",
				"energy": -0.27544,
				"method": "rhf"
			},
			{
				"type": "unocc",
				"energy": -0.08621,
				"method": "rhf"
			},
			{
				"type": "unocc",
				"energy": -0.05745,
				"method": "rhf"
			},
			{
				"type": "unocc",
				"energy": -0.04615,
				"method": "rhf"
			},
			{
				"type": "unocc",
				"energy": 0.01685,
				"method": "rhf"
			},
			{
				"type": "unocc",
				"energy": 0.08267,
				"method": "rhf"
			}
		],
		"cosmo_sigma_profile": { 
			"-0.025": 0.0,
			"-0.024": 0.0,
			"-0.023": 0.0,
			"-0.022": 0.0,
			"-0.021": 0.0,
			"-0.02": 0.0,
			"-0.019": 0.0,
			"-0.018": 0.0,
			"-0.017": 0.0,
			"-0.016": 0.0,
			"-0.015": 0.0,
			"-0.014": 0.0,
			"-0.013": 0.0,
			"-0.012": 0.0,
			"-0.011": 0.0,
			"-0.01": 0.0,
			"-0.009": 0.813081135381,
			"-0.008": 6.51607863358,
			"-0.007": 6.52434304379,
			"-0.006": 8.54030247457,
			"-0.005": 10.0933663191,
			"-0.004": 13.6403857837,
			"-0.003": 15.844613323,
			"-0.002": 20.427322482,
			"-0.001": 15.2744866546,
			"0.0": 14.1998167404,
			"0.001": 9.62345613689,
			"0.002": 11.5231711855,
			"0.003": 9.85058383276,
			"0.004": 7.71183117606,
			"0.005": 6.33563053349,
			"0.006": 10.3181164326,
			"0.007": 10.11566755,
			"0.008": 6.11539292455,
			"0.009": 1.59469685239,
			"0.01": 1.1135414411,
			"0.011": 0.794366436836,
			"0.012": 0.964335554225,
			"0.013": 0.589706604194,
			"0.014": 0.169695399278,
			"0.015": 0.0,
			"0.016": 0.0,
			"0.017": 0.0,
			"0.018": 0.0,
			"0.019": 0.0,
			"0.02": 0.0,
			"0.021": 0.0,
			"0.022": 0.0,
			"0.023": 0.0,
			"0.024": 0.0,
			"0.025": 0.0
		}
	}
}
