{
	 "smiles": "ClC1=CC2=C(C=C1)C1(CC2)NC(=O)NC1=O", 
	 "Tm": 526.15, 
	 "num_atms": 25, 
	 "gaussian": { 
		 "optdone": 1, 
		 "sigma_profile": "yes", 
		 "theory": "DFT", 
		 "functional": "B3LYP", 
		 "basiset": "6-31G**", 
		 "properties": { 
			 "R2extent": 4942.4467, 
			 "electric_dipole_moment_norm": 2.04462734257, 
			 "electric_quadrupole_moment_norm": 13.0339387002, 
			 "total_energy": -1144.78682716, 
			 "HOMO_LUMO_gap": 0.21619, 
			 "cosmo_polarized_energy": -17.04, 
			 "cosmo_cavitation_energy": 30.94, 
			 "cosmo_dispersion_energy": -22.32, 
			 "cosmo_repulsion_energy": 1.75, 
			 "cosmo_total_nonelectrostatic_energy": 10.37, 
			 "SMD_solvation_energy": 5.72 
		},
		"coords": [
			{
				"x": -0.4514719446,
				"y": 0.1120072217,
				"z": 4.9726025597,
				"element": "Cl" 
			},
			{
				"x": -0.4533579288,
				"y": 0.3902613655,
				"z": 3.2365233064,
				"element": "C" 
			},
			{
				"x": -1.5606399999,
				"y": -0.0144139877,
				"z": 2.4871423771,
				"element": "C" 
			},
			{
				"x": -1.5381238442,
				"y": 0.2045055378,
				"z": 1.1118015151,
				"element": "C" 
			},
			{
				"x": -0.4314874911,
				"y": 0.8139781825,
				"z": 0.5125219483,
				"element": "C" 
			},
			{
				"x": 0.6654199411,
				"y": 1.2190001391,
				"z": 1.2679180035,
				"element": "C" 
			},
			{
				"x": 0.6567940966,
				"y": 1.001169224,
				"z": 2.6474854156,
				"element": "C" 
			},
			{
				"x": -0.6489463164,
				"y": 0.9513164447,
				"z": -0.9887286361,
				"element": "C" 
			},
			{
				"x": -1.811503028,
				"y": -0.0504674658,
				"z": -1.2532730513,
				"element": "C" 
			},
			{
				"x": -2.5940968731,
				"y": -0.1241685439,
				"z": 0.0785218862,
				"element": "C" 
			},
			{
				"x": 0.5329547503,
				"y": 0.7735161931,
				"z": -1.817239264,
				"element": "N" 
			},
			{
				"x": 0.9136679175,
				"y": 1.9013074976,
				"z": -2.5025373277,
				"element": "C" 
			},
			{
				"x": 1.8863239491,
				"y": 2.0686616201,
				"z": -3.2065638312,
				"element": "O" 
			},
			{
				"x": -0.0860303771,
				"y": 2.8592140267,
				"z": -2.2236621177,
				"element": "N" 
			},
			{
				"x": -1.0648351923,
				"y": 2.3965346486,
				"z": -1.3718269671,
				"element": "C" 
			},
			{
				"x": -2.0595195426,
				"y": 2.9834001322,
				"z": -1.0033463213,
				"element": "O" 
			},
			{
				"x": -2.4048031698,
				"y": -0.491538121,
				"z": 2.9737013366,
				"element": "H" 
			},
			{
				"x": 1.5257504359,
				"y": 1.6880579973,
				"z": 0.7984778006,
				"element": "H" 
			},
			{
				"x": 1.4993423873,
				"y": 1.2970349493,
				"z": 3.2621741471,
				"element": "H" 
			},
			{
				"x": -2.4283956262,
				"y": 0.2447277203,
				"z": -2.1052065535,
				"element": "H" 
			},
			{
				"x": -1.3642593718,
				"y": -1.0239225502,
				"z": -1.4827463256,
				"element": "H" 
			},
			{
				"x": -3.065567873,
				"y": -1.0989569421,
				"z": 0.2385625202,
				"element": "H" 
			},
			{
				"x": -3.3840052496,
				"y": 0.6350097549,
				"z": 0.0976325701,
				"element": "H" 
			},
			{
				"x": 1.1678060264,
				"y": -0.0056497472,
				"z": -1.7335689424,
				"element": "H" 
			},
			{
				"x": -0.0899156758,
				"y": 3.7732147024,
				"z": -2.6535660486,
				"element": "H" 
			}
		],
		 "valence_orbital": [ 
			{
				"type": "occ",
				"energy": -0.29477,
				"method": "rhf"
			},
			{
				"type": "occ",
				"energy": -0.27512,
				"method": "rhf"
			},
			{
				"type": "occ",
				"energy": -0.2705,
				"method": "rhf"
			},
			{
				"type": "occ",
				"energy": -0.26694,
				"method": "rhf"
			},
			{
				"type": "occ",
				"energy": -0.24667,
				"method": "rhf"
			},
			{
				"type": "unocc",
				"energy": -0.03048,
				"method": "rhf"
			},
			{
				"type": "unocc",
				"energy": -0.02569,
				"method": "rhf"
			},
			{
				"type": "unocc",
				"energy": -0.01043,
				"method": "rhf"
			},
			{
				"type": "unocc",
				"energy": 0.02497,
				"method": "rhf"
			},
			{
				"type": "unocc",
				"energy": 0.05973,
				"method": "rhf"
			}
		],
		"cosmo_sigma_profile": { 
			"-0.025": 0.0,
			"-0.024": 0.0,
			"-0.023": 0.0,
			"-0.022": 0.0,
			"-0.021": 0.0,
			"-0.02": 0.0,
			"-0.019": 0.0,
			"-0.018": 0.0,
			"-0.017": 0.418910121145,
			"-0.016": 1.27648949307,
			"-0.015": 2.76133278563,
			"-0.014": 1.80312685059,
			"-0.013": 1.72484773806,
			"-0.012": 1.47788291713,
			"-0.011": 1.94606273228,
			"-0.01": 2.61008051478,
			"-0.009": 1.61486704163,
			"-0.008": 2.10594886034,
			"-0.007": 7.42841085835,
			"-0.006": 11.13739475,
			"-0.005": 16.2018267314,
			"-0.004": 16.8031986126,
			"-0.003": 18.5969165501,
			"-0.002": 19.1193515736,
			"-0.001": 17.5757044076,
			"0.0": 12.4019515142,
			"0.001": 13.3955078566,
			"0.002": 17.3569143947,
			"0.003": 20.3077611674,
			"0.004": 15.3462688715,
			"0.005": 9.6303281875,
			"0.006": 2.73629456905,
			"0.007": 3.7692293363,
			"0.008": 1.46072133984,
			"0.009": 3.17550195053,
			"0.01": 3.60222951505,
			"0.011": 5.74468311233,
			"0.012": 8.9150677953,
			"0.013": 5.72292250901,
			"0.014": 0.516743463326,
			"0.015": 0.0,
			"0.016": 0.0,
			"0.017": 0.0,
			"0.018": 0.0,
			"0.019": 0.0,
			"0.02": 0.0,
			"0.021": 0.0,
			"0.022": 0.0,
			"0.023": 0.0,
			"0.024": 0.0,
			"0.025": 0.0
		}
	}
}
