{
	 "smiles": "CCCC=C1C2CCC(C)(C1=O)C2(C)C", 
	 "Tm": 393.15, 
	 "num_atms": 37, 
	 "gaussian": { 
		 "optdone": 1, 
		 "sigma_profile": "yes", 
		 "theory": "DFT", 
		 "functional": "B3LYP", 
		 "basiset": "6-31G**", 
		 "properties": { 
			 "R2extent": 3838.2238, 
			 "electric_dipole_moment_norm": 3.08047276242, 
			 "electric_quadrupole_moment_norm": 10.1491290764, 
			 "total_energy": -621.976232325, 
			 "HOMO_LUMO_gap": 0.1871, 
			 "cosmo_polarized_energy": -7.37, 
			 "cosmo_cavitation_energy": 36.02, 
			 "cosmo_dispersion_energy": -24.63, 
			 "cosmo_repulsion_energy": 1.94, 
			 "cosmo_total_nonelectrostatic_energy": 13.33, 
			 "SMD_solvation_energy": 6.37 
		},
		"coords": [
			{
				"x": -5.0370679508,
				"y": 1.6711119895,
				"z": -0.1279095779,
				"element": "C" 
			},
			{
				"x": -3.9277241631,
				"y": 0.7694639815,
				"z": 0.4211450435,
				"element": "C" 
			},
			{
				"x": -2.5820589606,
				"y": 1.506747512,
				"z": 0.5791963584,
				"element": "C" 
			},
			{
				"x": -1.5130734208,
				"y": 0.640600208,
				"z": 1.176222315,
				"element": "C" 
			},
			{
				"x": -0.3297066393,
				"y": 0.3192032186,
				"z": 0.6373686464,
				"element": "C" 
			},
			{
				"x": 0.337849583,
				"y": 0.7056152433,
				"z": -0.6685014031,
				"element": "C" 
			},
			{
				"x": 1.4785149386,
				"y": 1.693662159,
				"z": -0.2885879261,
				"element": "C" 
			},
			{
				"x": 2.4982597966,
				"y": 0.7737161948,
				"z": 0.4506419761,
				"element": "C" 
			},
			{
				"x": 1.8666966684,
				"y": -0.6579704993,
				"z": 0.3650552154,
				"element": "C" 
			},
			{
				"x": 2.8186315282,
				"y": -1.8018014301,
				"z": 0.664547834,
				"element": "C" 
			},
			{
				"x": 0.6667889427,
				"y": -0.5696744068,
				"z": 1.323214507,
				"element": "C" 
			},
			{
				"x": 0.5623290741,
				"y": -1.096228704,
				"z": 2.4163720485,
				"element": "O" 
			},
			{
				"x": 1.1263735633,
				"y": -0.6040289301,
				"z": -1.0232668326,
				"element": "C" 
			},
			{
				"x": 0.2097262681,
				"y": -1.813346077,
				"z": -1.279639739,
				"element": "C" 
			},
			{
				"x": 2.060952382,
				"y": -0.4595373106,
				"z": -2.2351723726,
				"element": "C" 
			},
			{
				"x": -4.7733265863,
				"y": 2.0705321042,
				"z": -1.1138643743,
				"element": "H" 
			},
			{
				"x": -5.9787787843,
				"y": 1.1229170851,
				"z": -0.2328185518,
				"element": "H" 
			},
			{
				"x": -5.2200081071,
				"y": 2.5238754529,
				"z": 0.5358119583,
				"element": "H" 
			},
			{
				"x": -3.7861868251,
				"y": -0.093617256,
				"z": -0.2411527853,
				"element": "H" 
			},
			{
				"x": -4.2298340318,
				"y": 0.3611372022,
				"z": 1.394254583,
				"element": "H" 
			},
			{
				"x": -2.7402682004,
				"y": 2.3765839595,
				"z": 1.2351479385,
				"element": "H" 
			},
			{
				"x": -2.2622178468,
				"y": 1.904485812,
				"z": -0.3909667562,
				"element": "H" 
			},
			{
				"x": -1.7249916949,
				"y": 0.2079707509,
				"z": 2.1558872441,
				"element": "H" 
			},
			{
				"x": -0.335293409,
				"y": 1.0711120128,
				"z": -1.4485287372,
				"element": "H" 
			},
			{
				"x": 1.918727252,
				"y": 2.1514029358,
				"z": -1.1793776465,
				"element": "H" 
			},
			{
				"x": 1.1096018777,
				"y": 2.5047944042,
				"z": 0.3445524975,
				"element": "H" 
			},
			{
				"x": 3.4779361342,
				"y": 0.7753340488,
				"z": -0.037388372,
				"element": "H" 
			},
			{
				"x": 2.6622900841,
				"y": 1.0723501059,
				"z": 1.4906069642,
				"element": "H" 
			},
			{
				"x": 2.3265066434,
				"y": -2.7724955031,
				"z": 0.5481692999,
				"element": "H" 
			},
			{
				"x": 3.6930458517,
				"y": -1.7779101134,
				"z": 0.0058089073,
				"element": "H" 
			},
			{
				"x": 3.1663004518,
				"y": -1.7413614306,
				"z": 1.7003426294,
				"element": "H" 
			},
			{
				"x": -0.371774308,
				"y": -1.6617441199,
				"z": -2.19624251,
				"element": "H" 
			},
			{
				"x": 0.8004918981,
				"y": -2.7254875141,
				"z": -1.4154700024,
				"element": "H" 
			},
			{
				"x": -0.4983896423,
				"y": -1.9931553461,
				"z": -0.4664709234,
				"element": "H" 
			},
			{
				"x": 2.785572556,
				"y": 0.3514581491,
				"z": -2.1398870636,
				"element": "H" 
			},
			{
				"x": 2.623499853,
				"y": -1.3854763501,
				"z": -2.39619371,
				"element": "H" 
			},
			{
				"x": 1.4745052236,
				"y": -0.2736395389,
				"z": -3.1425066829,
				"element": "H" 
			}
		],
		 "valence_orbital": [ 
			{
				"type": "occ",
				"energy": -0.32465,
				"method": "rhf"
			},
			{
				"type": "occ",
				"energy": -0.31012,
				"method": "rhf"
			},
			{
				"type": "occ",
				"energy": -0.29451,
				"method": "rhf"
			},
			{
				"type": "occ",
				"energy": -0.24616,
				"method": "rhf"
			},
			{
				"type": "occ",
				"energy": -0.22727,
				"method": "rhf"
			},
			{
				"type": "unocc",
				"energy": -0.04017,
				"method": "rhf"
			},
			{
				"type": "unocc",
				"energy": 0.07225,
				"method": "rhf"
			},
			{
				"type": "unocc",
				"energy": 0.07721,
				"method": "rhf"
			},
			{
				"type": "unocc",
				"energy": 0.09179,
				"method": "rhf"
			},
			{
				"type": "unocc",
				"energy": 0.10683,
				"method": "rhf"
			}
		],
		"cosmo_sigma_profile": { 
			"-0.025": 0.0,
			"-0.024": 0.0,
			"-0.023": 0.0,
			"-0.022": 0.0,
			"-0.021": 0.0,
			"-0.02": 0.0,
			"-0.019": 0.0,
			"-0.018": 0.0,
			"-0.017": 0.0,
			"-0.016": 0.0,
			"-0.015": 0.0,
			"-0.014": 0.0,
			"-0.013": 0.0,
			"-0.012": 0.0,
			"-0.011": 0.0,
			"-0.01": 0.0,
			"-0.009": 0.0,
			"-0.008": 0.0,
			"-0.007": 0.0,
			"-0.006": 0.0,
			"-0.005": 0.484360935633,
			"-0.004": 9.84617748993,
			"-0.003": 35.8452205937,
			"-0.002": 53.8182456525,
			"-0.001": 48.2762811878,
			"0.0": 46.0624449643,
			"0.001": 41.2342799312,
			"0.002": 13.4236746953,
			"0.003": 4.442413067,
			"0.004": 3.25009744986,
			"0.005": 1.43210865892,
			"0.006": 2.172621417,
			"0.007": 1.81769717164,
			"0.008": 1.43789318178,
			"0.009": 1.57803906793,
			"0.01": 2.31305800819,
			"0.011": 2.29990199671,
			"0.012": 4.16212985073,
			"0.013": 3.9051861223,
			"0.014": 0.276918469601,
			"0.015": 0.0,
			"0.016": 0.0,
			"0.017": 0.0,
			"0.018": 0.0,
			"0.019": 0.0,
			"0.02": 0.0,
			"0.021": 0.0,
			"0.022": 0.0,
			"0.023": 0.0,
			"0.024": 0.0,
			"0.025": 0.0
		}
	}
}
