{
	 "smiles": "NNC(=O)C1=C(O)C=C2C=CC=CC2=C1", 
	 "Tm": 480.15, 
	 "num_atms": 25, 
	 "gaussian": { 
		 "optdone": 1, 
		 "sigma_profile": "yes", 
		 "theory": "DFT", 
		 "functional": "B3LYP", 
		 "basiset": "6-31G**", 
		 "properties": { 
			 "R2extent": 3417.3045, 
			 "electric_dipole_moment_norm": 4.44882893467, 
			 "electric_quadrupole_moment_norm": 18.3766398648, 
			 "total_energy": -685.127957805, 
			 "HOMO_LUMO_gap": 0.16701, 
			 "cosmo_polarized_energy": -20.74, 
			 "cosmo_cavitation_energy": 29.27, 
			 "cosmo_dispersion_energy": -21.58, 
			 "cosmo_repulsion_energy": 1.7, 
			 "cosmo_total_nonelectrostatic_energy": 9.4, 
			 "SMD_solvation_energy": 6.38 
		},
		"coords": [
			{
				"x": -0.2863486457,
				"y": 2.6263799854,
				"z": 1.7753263387,
				"element": "N" 
			},
			{
				"x": 0.545038688,
				"y": 2.9799947137,
				"z": 0.7097445022,
				"element": "N" 
			},
			{
				"x": 0.8233433421,
				"y": 2.1396688429,
				"z": -0.337294152,
				"element": "C" 
			},
			{
				"x": 1.3660591817,
				"y": 2.5682644415,
				"z": -1.349607106,
				"element": "O" 
			},
			{
				"x": 0.4279353256,
				"y": 0.6953533449,
				"z": -0.1981747469,
				"element": "C" 
			},
			{
				"x": 0.7925615389,
				"y": -0.1194478707,
				"z": 0.9158465954,
				"element": "C" 
			},
			{
				"x": 1.5299470277,
				"y": 0.4636475284,
				"z": 1.909718026,
				"element": "O" 
			},
			{
				"x": 0.4450678153,
				"y": -1.4533553399,
				"z": 0.9478644098,
				"element": "C" 
			},
			{
				"x": -0.2706915603,
				"y": -2.0535070964,
				"z": -0.1197893728,
				"element": "C" 
			},
			{
				"x": -0.6509629327,
				"y": -3.4224622059,
				"z": -0.1111290348,
				"element": "C" 
			},
			{
				"x": -1.3348464995,
				"y": -3.9695954136,
				"z": -1.1744258669,
				"element": "C" 
			},
			{
				"x": -1.6712317713,
				"y": -3.1776497484,
				"z": -2.2998378872,
				"element": "C" 
			},
			{
				"x": -1.3158719484,
				"y": -1.8477809178,
				"z": -2.3373093711,
				"element": "C" 
			},
			{
				"x": -0.6128820297,
				"y": -1.2524575158,
				"z": -1.2564405061,
				"element": "C" 
			},
			{
				"x": -0.2285846144,
				"y": 0.112313234,
				"z": -1.2610121335,
				"element": "C" 
			},
			{
				"x": 0.2388076817,
				"y": 2.619098827,
				"z": 2.6447522229,
				"element": "H" 
			},
			{
				"x": -1.0651902863,
				"y": 3.2752097797,
				"z": 1.8425490884,
				"element": "H" 
			},
			{
				"x": 0.8635144379,
				"y": 3.9353809233,
				"z": 0.5811947351,
				"element": "H" 
			},
			{
				"x": 1.7676845702,
				"y": -0.2170167115,
				"z": 2.5529111487,
				"element": "H" 
			},
			{
				"x": 0.7319414389,
				"y": -2.0669034167,
				"z": 1.8005884036,
				"element": "H" 
			},
			{
				"x": -0.3930306203,
				"y": -4.0342099653,
				"z": 0.7497198303,
				"element": "H" 
			},
			{
				"x": -1.6193311653,
				"y": -5.0178908028,
				"z": -1.1528963342,
				"element": "H" 
			},
			{
				"x": -2.2089619804,
				"y": -3.6239160531,
				"z": -3.1310636655,
				"element": "H" 
			},
			{
				"x": -1.5686454295,
				"y": -1.2324530907,
				"z": -3.1969993736,
				"element": "H" 
			},
			{
				"x": -0.4577215642,
				"y": 0.7272345278,
				"z": -2.1264357505,
				"element": "H" 
			}
		],
		 "valence_orbital": [ 
			{
				"type": "occ",
				"energy": -0.27591,
				"method": "rhf"
			},
			{
				"type": "occ",
				"energy": -0.25186,
				"method": "rhf"
			},
			{
				"type": "occ",
				"energy": -0.24382,
				"method": "rhf"
			},
			{
				"type": "occ",
				"energy": -0.22459,
				"method": "rhf"
			},
			{
				"type": "occ",
				"energy": -0.20603,
				"method": "rhf"
			},
			{
				"type": "unocc",
				"energy": -0.03902,
				"method": "rhf"
			},
			{
				"type": "unocc",
				"energy": -0.00704,
				"method": "rhf"
			},
			{
				"type": "unocc",
				"energy": 0.0332,
				"method": "rhf"
			},
			{
				"type": "unocc",
				"energy": 0.04693,
				"method": "rhf"
			},
			{
				"type": "unocc",
				"energy": 0.06224,
				"method": "rhf"
			}
		],
		"cosmo_sigma_profile": { 
			"-0.025": 0.0,
			"-0.024": 0.0,
			"-0.023": 0.0,
			"-0.022": 0.0,
			"-0.021": 0.0,
			"-0.02": 0.0,
			"-0.019": 0.0,
			"-0.018": 0.305888356185,
			"-0.017": 1.36808535962,
			"-0.016": 0.935233225341,
			"-0.015": 0.99476633093,
			"-0.014": 1.31311079806,
			"-0.013": 2.43701298904,
			"-0.012": 3.57468122103,
			"-0.011": 4.52864088289,
			"-0.01": 5.67861071818,
			"-0.009": 5.16436488402,
			"-0.008": 4.31586026168,
			"-0.007": 5.46231309851,
			"-0.006": 12.0115645876,
			"-0.005": 13.6397168729,
			"-0.004": 12.4328144121,
			"-0.003": 12.1974567972,
			"-0.002": 9.16875460169,
			"-0.001": 8.99247464058,
			"0.0": 10.809093628,
			"0.001": 10.5013987116,
			"0.002": 13.7914933963,
			"0.003": 18.6296414707,
			"0.004": 22.790048188,
			"0.005": 14.6298183586,
			"0.006": 6.70599322133,
			"0.007": 3.22363867678,
			"0.008": 3.44584438517,
			"0.009": 3.51639107396,
			"0.01": 3.36033799172,
			"0.011": 2.67397419902,
			"0.012": 2.26092218859,
			"0.013": 4.83750778962,
			"0.014": 5.76759485194,
			"0.015": 1.15502891016,
			"0.016": 0.0,
			"0.017": 0.0,
			"0.018": 0.0,
			"0.019": 0.0,
			"0.02": 0.0,
			"0.021": 0.0,
			"0.022": 0.0,
			"0.023": 0.0,
			"0.024": 0.0,
			"0.025": 0.0
		}
	}
}
