{
	 "smiles": "CC(=O)C12CC3CC(CC(C3)C1)C2", 
	 "Tm": 327.15, 
	 "num_atms": 31, 
	 "gaussian": { 
		 "optdone": 1, 
		 "sigma_profile": "yes", 
		 "theory": "DFT", 
		 "functional": "B3LYP", 
		 "basiset": "6-31G**", 
		 "properties": { 
			 "R2extent": 2199.2911, 
			 "electric_dipole_moment_norm": 2.75052302299, 
			 "electric_quadrupole_moment_norm": 8.63470891577, 
			 "total_energy": -543.379700572, 
			 "HOMO_LUMO_gap": 0.22477, 
			 "cosmo_polarized_energy": -6.49, 
			 "cosmo_cavitation_energy": 28.38, 
			 "cosmo_dispersion_energy": -21.26, 
			 "cosmo_repulsion_energy": 1.64, 
			 "cosmo_total_nonelectrostatic_energy": 8.76, 
			 "SMD_solvation_energy": 4.14 
		},
		"coords": [
			{
				"x": 0.2650968042,
				"y": -3.6921478141,
				"z": -0.061932602,
				"element": "C" 
			},
			{
				"x": -0.4707933919,
				"y": -2.5000543754,
				"z": -0.6585341223,
				"element": "C" 
			},
			{
				"x": -1.2986768101,
				"y": -2.6701816607,
				"z": -1.5362485657,
				"element": "O" 
			},
			{
				"x": -0.1565337242,
				"y": -1.0943162013,
				"z": -0.123801946,
				"element": "C" 
			},
			{
				"x": 1.3672080108,
				"y": -0.866049725,
				"z": 0.0651849598,
				"element": "C" 
			},
			{
				"x": 1.628397711,
				"y": 0.5514499278,
				"z": 0.6179075266,
				"element": "C" 
			},
			{
				"x": 0.92911341,
				"y": 0.7032730895,
				"z": 1.9847580669,
				"element": "C" 
			},
			{
				"x": -0.589747088,
				"y": 0.495358426,
				"z": 1.8131225454,
				"element": "C" 
			},
			{
				"x": -1.1446615257,
				"y": 1.546622558,
				"z": 0.8308108431,
				"element": "C" 
			},
			{
				"x": -0.446234432,
				"y": 1.3914120745,
				"z": -0.5357146201,
				"element": "C" 
			},
			{
				"x": 1.0720474481,
				"y": 1.602344511,
				"z": -0.3639807198,
				"element": "C" 
			},
			{
				"x": -0.7110245658,
				"y": -0.0219374313,
				"z": -1.090093201,
				"element": "C" 
			},
			{
				"x": -0.8555067582,
				"y": -0.9203720758,
				"z": 1.2592858479,
				"element": "C" 
			},
			{
				"x": 0.3438370584,
				"y": -3.6335200542,
				"z": 1.0277563613,
				"element": "H" 
			},
			{
				"x": 1.2875444705,
				"y": -3.729284336,
				"z": -0.456229843,
				"element": "H" 
			},
			{
				"x": -0.2526261267,
				"y": -4.6080187567,
				"z": -0.350681912,
				"element": "H" 
			},
			{
				"x": 1.8837411929,
				"y": -0.9946215277,
				"z": -0.895506692,
				"element": "H" 
			},
			{
				"x": 1.7849077063,
				"y": -1.6092941426,
				"z": 0.7551933484,
				"element": "H" 
			},
			{
				"x": 2.709798525,
				"y": 0.6935639462,
				"z": 0.7395073235,
				"element": "H" 
			},
			{
				"x": 1.3328995727,
				"y": -0.026122492,
				"z": 2.6996690077,
				"element": "H" 
			},
			{
				"x": 1.1275606383,
				"y": 1.6995883518,
				"z": 2.4004575453,
				"element": "H" 
			},
			{
				"x": -1.0888754198,
				"y": 0.5961126751,
				"z": 2.7853976821,
				"element": "H" 
			},
			{
				"x": -2.2291870377,
				"y": 1.4210274885,
				"z": 0.7165650808,
				"element": "H" 
			},
			{
				"x": -0.9800275627,
				"y": 2.5563109671,
				"z": 1.2292480375,
				"element": "H" 
			},
			{
				"x": -0.8443058603,
				"y": 2.1341334503,
				"z": -1.2385332341,
				"element": "H" 
			},
			{
				"x": 1.5773514597,
				"y": 1.5165601687,
				"z": -1.3349326115,
				"element": "H" 
			},
			{
				"x": 1.2752875063,
				"y": 2.6131952533,
				"z": 0.0131281739,
				"element": "H" 
			},
			{
				"x": -0.2417326372,
				"y": -0.1404669164,
				"z": -2.0744581887,
				"element": "H" 
			},
			{
				"x": -1.7824660856,
				"y": -0.187441864,
				"z": -1.2399487154,
				"element": "H" 
			},
			{
				"x": -1.9340690469,
				"y": -1.086727909,
				"z": 1.1454157598,
				"element": "H" 
			},
			{
				"x": -0.4873234416,
				"y": -1.6707956057,
				"z": 1.9705888636,
				"element": "H" 
			}
		],
		 "valence_orbital": [ 
			{
				"type": "occ",
				"energy": -0.32225,
				"method": "rhf"
			},
			{
				"type": "occ",
				"energy": -0.29945,
				"method": "rhf"
			},
			{
				"type": "occ",
				"energy": -0.28161,
				"method": "rhf"
			},
			{
				"type": "occ",
				"energy": -0.28086,
				"method": "rhf"
			},
			{
				"type": "occ",
				"energy": -0.23338,
				"method": "rhf"
			},
			{
				"type": "unocc",
				"energy": -0.00861,
				"method": "rhf"
			},
			{
				"type": "unocc",
				"energy": 0.06305,
				"method": "rhf"
			},
			{
				"type": "unocc",
				"energy": 0.10081,
				"method": "rhf"
			},
			{
				"type": "unocc",
				"energy": 0.11941,
				"method": "rhf"
			},
			{
				"type": "unocc",
				"energy": 0.12316,
				"method": "rhf"
			}
		],
		"cosmo_sigma_profile": { 
			"-0.025": 0.0,
			"-0.024": 0.0,
			"-0.023": 0.0,
			"-0.022": 0.0,
			"-0.021": 0.0,
			"-0.02": 0.0,
			"-0.019": 0.0,
			"-0.018": 0.0,
			"-0.017": 0.0,
			"-0.016": 0.0,
			"-0.015": 0.0,
			"-0.014": 0.0,
			"-0.013": 0.0,
			"-0.012": 0.0,
			"-0.011": 0.0,
			"-0.01": 0.0,
			"-0.009": 0.0,
			"-0.008": 0.0,
			"-0.007": 0.0,
			"-0.006": 0.891443832694,
			"-0.005": 6.37305493891,
			"-0.004": 8.94398247701,
			"-0.003": 16.4004777144,
			"-0.002": 41.7749994599,
			"-0.001": 46.7265090647,
			"0.0": 40.9225033428,
			"0.001": 24.1916049291,
			"0.002": 6.76260991974,
			"0.003": 2.23496807502,
			"0.004": 1.44129181499,
			"0.005": 1.48754459823,
			"0.006": 2.39707357531,
			"0.007": 1.44423259628,
			"0.008": 1.33761726672,
			"0.009": 1.81513896414,
			"0.01": 1.8881617541,
			"0.011": 2.46222601137,
			"0.012": 4.28973852831,
			"0.013": 3.12263099907,
			"0.014": 0.564400962188,
			"0.015": 0.0,
			"0.016": 0.0,
			"0.017": 0.0,
			"0.018": 0.0,
			"0.019": 0.0,
			"0.02": 0.0,
			"0.021": 0.0,
			"0.022": 0.0,
			"0.023": 0.0,
			"0.024": 0.0,
			"0.025": 0.0
		}
	}
}
