{
	 "smiles": "COC(=O)C1=CC(=CC=C1)S(N)(=O)=O", 
	 "Tm": 405.15, 
	 "num_atms": 23, 
	 "gaussian": { 
		 "optdone": 1, 
		 "sigma_profile": "yes", 
		 "theory": "DFT", 
		 "functional": "B3LYP", 
		 "basiset": "6-31G**", 
		 "properties": { 
			 "R2extent": 4002.4102, 
			 "electric_dipole_moment_norm": 4.65649879845, 
			 "electric_quadrupole_moment_norm": 21.4496507459, 
			 "total_energy": -1064.04920498, 
			 "HOMO_LUMO_gap": 0.2102, 
			 "cosmo_polarized_energy": -20.91, 
			 "cosmo_cavitation_energy": 29.5, 
			 "cosmo_dispersion_energy": -21.87, 
			 "cosmo_repulsion_energy": 1.69, 
			 "cosmo_total_nonelectrostatic_energy": 9.32, 
			 "SMD_solvation_energy": 6.38 
		},
		"coords": [
			{
				"x": -0.354728598,
				"y": 0.4224437284,
				"z": -3.9162442083,
				"element": "C" 
			},
			{
				"x": -0.4584196838,
				"y": 0.1712921529,
				"z": -2.5045044119,
				"element": "O" 
			},
			{
				"x": -1.3490588642,
				"y": -0.7780771381,
				"z": -2.1507839219,
				"element": "C" 
			},
			{
				"x": -2.0375366591,
				"y": -1.3839480553,
				"z": -2.9477493587,
				"element": "O" 
			},
			{
				"x": -1.3920300698,
				"y": -0.9937754542,
				"z": -0.6731191514,
				"element": "C" 
			},
			{
				"x": -0.5746015479,
				"y": -0.2767195236,
				"z": 0.20833915,
				"element": "C" 
			},
			{
				"x": -0.6683989961,
				"y": -0.5328707199,
				"z": 1.5756848005,
				"element": "C" 
			},
			{
				"x": -1.5419110044,
				"y": -1.5010260241,
				"z": 2.0782866382,
				"element": "C" 
			},
			{
				"x": -2.3511547407,
				"y": -2.2123057356,
				"z": 1.1905825516,
				"element": "C" 
			},
			{
				"x": -2.280707663,
				"y": -1.9575407606,
				"z": -0.1775266458,
				"element": "C" 
			},
			{
				"x": 0.3577131386,
				"y": 0.4092270782,
				"z": 2.719489637,
				"element": "S" 
			},
			{
				"x": -0.5083786176,
				"y": 1.7917423674,
				"z": 3.1211816807,
				"element": "N" 
			},
			{
				"x": 1.5235801281,
				"y": 0.877802112,
				"z": 1.9739161759,
				"element": "O" 
			},
			{
				"x": 0.4542115945,
				"y": -0.3681784791,
				"z": 3.9533026534,
				"element": "O" 
			},
			{
				"x": 0.4007721076,
				"y": 1.2005597625,
				"z": -4.0205137577,
				"element": "H" 
			},
			{
				"x": -0.049645125,
				"y": -0.4840080568,
				"z": -4.4444914033,
				"element": "H" 
			},
			{
				"x": -1.3139737443,
				"y": 0.7591020854,
				"z": -4.3169230108,
				"element": "H" 
			},
			{
				"x": 0.13599006,
				"y": 0.4503363904,
				"z": -0.1660331758,
				"element": "H" 
			},
			{
				"x": -1.5636463156,
				"y": -1.7024100895,
				"z": 3.1441183399,
				"element": "H" 
			},
			{
				"x": -3.0294315055,
				"y": -2.9710991582,
				"z": 1.568108979,
				"element": "H" 
			},
			{
				"x": -2.8986712065,
				"y": -2.500365562,
				"z": -0.884630185,
				"element": "H" 
			},
			{
				"x": -0.6510913596,
				"y": 2.4161604603,
				"z": 2.3339734188,
				"element": "H" 
			},
			{
				"x": -1.3582813276,
				"y": 1.5945586195,
				"z": 3.6395352056,
				"element": "H" 
			}
		],
		 "valence_orbital": [ 
			{
				"type": "occ",
				"energy": -0.30897,
				"method": "rhf"
			},
			{
				"type": "occ",
				"energy": -0.30852,
				"method": "rhf"
			},
			{
				"type": "occ",
				"energy": -0.28687,
				"method": "rhf"
			},
			{
				"type": "occ",
				"energy": -0.28289,
				"method": "rhf"
			},
			{
				"type": "occ",
				"energy": -0.27678,
				"method": "rhf"
			},
			{
				"type": "unocc",
				"energy": -0.06658,
				"method": "rhf"
			},
			{
				"type": "unocc",
				"energy": -0.04433,
				"method": "rhf"
			},
			{
				"type": "unocc",
				"energy": 0.03078,
				"method": "rhf"
			},
			{
				"type": "unocc",
				"energy": 0.04666,
				"method": "rhf"
			},
			{
				"type": "unocc",
				"energy": 0.07311,
				"method": "rhf"
			}
		],
		"cosmo_sigma_profile": { 
			"-0.025": 0.0,
			"-0.024": 0.0,
			"-0.023": 0.0,
			"-0.022": 0.0,
			"-0.021": 0.0,
			"-0.02": 0.0,
			"-0.019": 0.0,
			"-0.018": 0.0,
			"-0.017": 0.0,
			"-0.016": 0.470483355726,
			"-0.015": 2.58105424948,
			"-0.014": 2.81739128423,
			"-0.013": 2.41286286445,
			"-0.012": 3.39893063492,
			"-0.011": 2.55726067752,
			"-0.01": 2.66767967273,
			"-0.009": 1.92130346533,
			"-0.008": 2.9221056894,
			"-0.007": 7.73240648794,
			"-0.006": 14.371920086,
			"-0.005": 14.5797251479,
			"-0.004": 14.9741166277,
			"-0.003": 16.5546030755,
			"-0.002": 13.0143770275,
			"-0.001": 14.5959699349,
			"0.0": 17.0185979777,
			"0.001": 18.9481348535,
			"0.002": 11.0221243429,
			"0.003": 4.90743002825,
			"0.004": 6.61100736539,
			"0.005": 6.70606761807,
			"0.006": 5.08365497218,
			"0.007": 5.00371423816,
			"0.008": 6.04170934622,
			"0.009": 6.18868993152,
			"0.01": 10.1569052059,
			"0.011": 14.3299283234,
			"0.012": 5.71686996612,
			"0.013": 0.17088268553,
			"0.014": 0.0,
			"0.015": 0.0,
			"0.016": 0.0,
			"0.017": 0.0,
			"0.018": 0.0,
			"0.019": 0.0,
			"0.02": 0.0,
			"0.021": 0.0,
			"0.022": 0.0,
			"0.023": 0.0,
			"0.024": 0.0,
			"0.025": 0.0
		}
	}
}
