{
	 "smiles": "CN(C)S(=O)(=O)C1=CC=C(CCl)O1", 
	 "Tm": 328.15, 
	 "num_atms": 23, 
	 "gaussian": { 
		 "optdone": 1, 
		 "sigma_profile": "yes", 
		 "theory": "DFT", 
		 "functional": "B3LYP", 
		 "basiset": "6-31G**", 
		 "properties": { 
			 "R2extent": 3646.1211, 
			 "electric_dipole_moment_norm": 3.88066866532, 
			 "electric_quadrupole_moment_norm": 30.5760894144, 
			 "total_energy": -1411.46929889, 
			 "HOMO_LUMO_gap": 0.19772, 
			 "cosmo_polarized_energy": -15.04, 
			 "cosmo_cavitation_energy": 30.24, 
			 "cosmo_dispersion_energy": -21.46, 
			 "cosmo_repulsion_energy": 1.68, 
			 "cosmo_total_nonelectrostatic_energy": 10.47, 
			 "SMD_solvation_energy": 4.0 
		},
		"coords": [
			{
				"x": 1.7605740421,
				"y": -2.2732694837,
				"z": -1.1124008254,
				"element": "C" 
			},
			{
				"x": 0.5934421754,
				"y": -1.7513951516,
				"z": -1.8296124111,
				"element": "N" 
			},
			{
				"x": -0.706521097,
				"y": -2.0431759986,
				"z": -1.2130039171,
				"element": "C" 
			},
			{
				"x": 0.7719394883,
				"y": -0.2486885432,
				"z": -2.5500050242,
				"element": "S" 
			},
			{
				"x": -0.4679454189,
				"y": 0.0297975963,
				"z": -3.2683164399,
				"element": "O" 
			},
			{
				"x": 2.0824136469,
				"y": -0.2292040434,
				"z": -3.1972313136,
				"element": "O" 
			},
			{
				"x": 0.9136652575,
				"y": 0.9351665314,
				"z": -1.2297301044,
				"element": "C" 
			},
			{
				"x": 1.9745411627,
				"y": 1.6823397414,
				"z": -0.8036997146,
				"element": "C" 
			},
			{
				"x": 1.4890095087,
				"y": 2.4400067373,
				"z": 0.3048122003,
				"element": "C" 
			},
			{
				"x": 0.1749053564,
				"y": 2.096059336,
				"z": 0.4721016049,
				"element": "C" 
			},
			{
				"x": -0.8606999299,
				"y": 2.5088181759,
				"z": 1.4375397106,
				"element": "C" 
			},
			{
				"x": -1.1053148522,
				"y": 1.2804829095,
				"z": 2.7845335541,
				"element": "Cl" 
			},
			{
				"x": -0.1888188238,
				"y": 1.1706991417,
				"z": -0.4665737207,
				"element": "O" 
			},
			{
				"x": 2.6609551137,
				"y": -2.075067049,
				"z": -1.6929041177,
				"element": "H" 
			},
			{
				"x": 1.8661567884,
				"y": -1.840545875,
				"z": -0.1064012373,
				"element": "H" 
			},
			{
				"x": 1.6388889913,
				"y": -3.3556523808,
				"z": -1.0153304694,
				"element": "H" 
			},
			{
				"x": -0.7976753192,
				"y": -1.618976809,
				"z": -0.2033268099,
				"element": "H" 
			},
			{
				"x": -1.5021174401,
				"y": -1.6524807873,
				"z": -1.8460058853,
				"element": "H" 
			},
			{
				"x": -0.8106840996,
				"y": -3.1301248262,
				"z": -1.1497073772,
				"element": "H" 
			},
			{
				"x": 2.960349294,
				"y": 1.6896893602,
				"z": -1.2428233991,
				"element": "H" 
			},
			{
				"x": 2.0418456306,
				"y": 3.149613392,
				"z": 0.9037446086,
				"element": "H" 
			},
			{
				"x": -0.5803862756,
				"y": 3.4411457374,
				"z": 1.9252972142,
				"element": "H" 
			},
			{
				"x": -1.8352231994,
				"y": 2.6148622887,
				"z": 0.9611438743,
				"element": "H" 
			}
		],
		 "valence_orbital": [ 
			{
				"type": "occ",
				"energy": -0.31065,
				"method": "rhf"
			},
			{
				"type": "occ",
				"energy": -0.30825,
				"method": "rhf"
			},
			{
				"type": "occ",
				"energy": -0.30625,
				"method": "rhf"
			},
			{
				"type": "occ",
				"energy": -0.2755,
				"method": "rhf"
			},
			{
				"type": "occ",
				"energy": -0.24985,
				"method": "rhf"
			},
			{
				"type": "unocc",
				"energy": -0.05213,
				"method": "rhf"
			},
			{
				"type": "unocc",
				"energy": 0.00508,
				"method": "rhf"
			},
			{
				"type": "unocc",
				"energy": 0.05291,
				"method": "rhf"
			},
			{
				"type": "unocc",
				"energy": 0.06195,
				"method": "rhf"
			},
			{
				"type": "unocc",
				"energy": 0.0699,
				"method": "rhf"
			}
		],
		"cosmo_sigma_profile": { 
			"-0.025": 0.0,
			"-0.024": 0.0,
			"-0.023": 0.0,
			"-0.022": 0.0,
			"-0.021": 0.0,
			"-0.02": 0.0,
			"-0.019": 0.0,
			"-0.018": 0.0,
			"-0.017": 0.0,
			"-0.016": 0.0,
			"-0.015": 0.0,
			"-0.014": 0.0,
			"-0.013": 0.0,
			"-0.012": 0.0,
			"-0.011": 0.0,
			"-0.01": 0.559026659242,
			"-0.009": 6.55869452769,
			"-0.008": 8.73657559828,
			"-0.007": 7.92029781642,
			"-0.006": 13.3711146483,
			"-0.005": 16.294652975,
			"-0.004": 19.5127585987,
			"-0.003": 19.9057188764,
			"-0.002": 18.9729885223,
			"-0.001": 13.1744468779,
			"0.0": 13.7170881828,
			"0.001": 13.1955542102,
			"0.002": 13.4705954761,
			"0.003": 9.10039656351,
			"0.004": 11.3090693794,
			"0.005": 12.5176093054,
			"0.006": 14.181548785,
			"0.007": 5.2478301115,
			"0.008": 4.10224704662,
			"0.009": 4.99348290834,
			"0.01": 8.55825671845,
			"0.011": 7.02278953,
			"0.012": 0.32748330642,
			"0.013": 0.0,
			"0.014": 0.0,
			"0.015": 0.0,
			"0.016": 0.0,
			"0.017": 0.0,
			"0.018": 0.0,
			"0.019": 0.0,
			"0.02": 0.0,
			"0.021": 0.0,
			"0.022": 0.0,
			"0.023": 0.0,
			"0.024": 0.0,
			"0.025": 0.0
		}
	}
}
