{
	 "smiles": "CC1=CC(=O)C(=NN1C1=CC(=CC=C1)C(F)(F)F)C(O)=O", 
	 "Tm": 290.15, 
	 "num_atms": 30, 
	 "gaussian": { 
		 "optdone": 1, 
		 "sigma_profile": "yes", 
		 "theory": "DFT", 
		 "functional": "B3LYP", 
		 "basiset": "6-31G**", 
		 "properties": { 
			 "R2extent": 7712.8601, 
			 "electric_dipole_moment_norm": 4.59117074938, 
			 "electric_quadrupole_moment_norm": 17.3798839671, 
			 "total_energy": -1135.47875075, 
			 "HOMO_LUMO_gap": 0.17041, 
			 "cosmo_polarized_energy": -22.62, 
			 "cosmo_cavitation_energy": 37.63, 
			 "cosmo_dispersion_energy": -25.59, 
			 "cosmo_repulsion_energy": 1.91, 
			 "cosmo_total_nonelectrostatic_energy": 13.95, 
			 "SMD_solvation_energy": 9.04 
		},
		"coords": [
			{
				"x": 1.8064968772,
				"y": 1.4222976817,
				"z": 0.2959208462,
				"element": "C" 
			},
			{
				"x": 0.3291232427,
				"y": 1.5087083523,
				"z": 0.5735769218,
				"element": "C" 
			},
			{
				"x": -0.2410382307,
				"y": 2.6052523259,
				"z": 1.1484701133,
				"element": "C" 
			},
			{
				"x": -1.6511477119,
				"y": 2.6635267961,
				"z": 1.4911581292,
				"element": "C" 
			},
			{
				"x": -2.1982278659,
				"y": 3.6163568318,
				"z": 2.0427882625,
				"element": "O" 
			},
			{
				"x": -2.3510044258,
				"y": 1.400232051,
				"z": 1.147649807,
				"element": "C" 
			},
			{
				"x": -1.7833114024,
				"y": 0.362109147,
				"z": 0.6054004705,
				"element": "N" 
			},
			{
				"x": -0.475953189,
				"y": 0.4146151705,
				"z": 0.2832241241,
				"element": "N" 
			},
			{
				"x": 0.0056581214,
				"y": -0.7981267319,
				"z": -0.3251416682,
				"element": "C" 
			},
			{
				"x": 0.5819373898,
				"y": -0.7709535955,
				"z": -1.5943371231,
				"element": "C" 
			},
			{
				"x": 1.0322535536,
				"y": -1.962421886,
				"z": -2.1662544891,
				"element": "C" 
			},
			{
				"x": 0.8869061767,
				"y": -3.1740584159,
				"z": -1.4872413277,
				"element": "C" 
			},
			{
				"x": 0.2825774279,
				"y": -3.191602539,
				"z": -0.2299628393,
				"element": "C" 
			},
			{
				"x": -0.158897155,
				"y": -2.0070520697,
				"z": 0.3563823149,
				"element": "C" 
			},
			{
				"x": 1.6128484722,
				"y": -1.9441941029,
				"z": -3.5567993659,
				"element": "C" 
			},
			{
				"x": 2.5385482812,
				"y": -2.9127409466,
				"z": -3.7220388637,
				"element": "F" 
			},
			{
				"x": 0.6612488988,
				"y": -2.1407638867,
				"z": -4.4952000564,
				"element": "F" 
			},
			{
				"x": 2.203883358,
				"y": -0.760464011,
				"z": -3.8347253952,
				"element": "F" 
			},
			{
				"x": -3.8072408183,
				"y": 1.1924075059,
				"z": 1.4760248822,
				"element": "C" 
			},
			{
				"x": -4.5621959949,
				"y": 2.2333320898,
				"z": 1.0834340406,
				"element": "O" 
			},
			{
				"x": -4.2491150926,
				"y": 0.2005714752,
				"z": 2.0109958825,
				"element": "O" 
			},
			{
				"x": 2.2314319477,
				"y": 0.4895899462,
				"z": 0.6784716061,
				"element": "H" 
			},
			{
				"x": 2.0348039731,
				"y": 1.4715430557,
				"z": -0.772642032,
				"element": "H" 
			},
			{
				"x": 2.307823351,
				"y": 2.2586209152,
				"z": 0.7855739145,
				"element": "H" 
			},
			{
				"x": 0.3733629803,
				"y": 3.462557228,
				"z": 1.3994215512,
				"element": "H" 
			},
			{
				"x": 0.6687402304,
				"y": 0.1606307276,
				"z": -2.1404942841,
				"element": "H" 
			},
			{
				"x": 1.2444584621,
				"y": -4.0921351801,
				"z": -1.9401295892,
				"element": "H" 
			},
			{
				"x": 0.1602889378,
				"y": -4.131186626,
				"z": 0.2990095884,
				"element": "H" 
			},
			{
				"x": -0.6382800246,
				"y": -2.0070293128,
				"z": 1.3289809713,
				"element": "H" 
			},
			{
				"x": -5.4728797709,
				"y": 2.0269780042,
				"z": 1.3549836075,
				"element": "H" 
			}
		],
		 "valence_orbital": [ 
			{
				"type": "occ",
				"energy": -0.29274,
				"method": "rhf"
			},
			{
				"type": "occ",
				"energy": -0.29126,
				"method": "rhf"
			},
			{
				"type": "occ",
				"energy": -0.27885,
				"method": "rhf"
			},
			{
				"type": "occ",
				"energy": -0.23872,
				"method": "rhf"
			},
			{
				"type": "occ",
				"energy": -0.23541,
				"method": "rhf"
			},
			{
				"type": "unocc",
				"energy": -0.065,
				"method": "rhf"
			},
			{
				"type": "unocc",
				"energy": -0.05352,
				"method": "rhf"
			},
			{
				"type": "unocc",
				"energy": -0.04588,
				"method": "rhf"
			},
			{
				"type": "unocc",
				"energy": -0.029,
				"method": "rhf"
			},
			{
				"type": "unocc",
				"energy": 0.02385,
				"method": "rhf"
			}
		],
		"cosmo_sigma_profile": { 
			"-0.025": 0.0,
			"-0.024": 0.0,
			"-0.023": 0.0,
			"-0.022": 0.0,
			"-0.021": 0.0,
			"-0.02": 0.0176188711752,
			"-0.019": 0.601574973854,
			"-0.018": 1.07200663192,
			"-0.017": 0.857939334402,
			"-0.016": 0.593572641615,
			"-0.015": 0.8853405832,
			"-0.014": 0.447850826936,
			"-0.013": 0.848748703182,
			"-0.012": 1.01360651329,
			"-0.011": 0.83880583659,
			"-0.01": 1.16305115305,
			"-0.009": 2.77651329227,
			"-0.008": 8.06910605271,
			"-0.007": 14.2187839294,
			"-0.006": 17.0137562205,
			"-0.005": 18.2437625554,
			"-0.004": 16.4360388406,
			"-0.003": 21.3001528873,
			"-0.002": 22.160859084,
			"-0.001": 17.6315427323,
			"0.0": 19.8083090159,
			"0.001": 23.9853272036,
			"0.002": 30.0738059773,
			"0.003": 26.1521713499,
			"0.004": 4.43393125244,
			"0.005": 4.0486052604,
			"0.006": 4.21989891272,
			"0.007": 4.47096487332,
			"0.008": 3.82182089975,
			"0.009": 4.12628127115,
			"0.01": 6.232376925,
			"0.011": 8.11841415835,
			"0.012": 4.84227177101,
			"0.013": 4.77630614589,
			"0.014": 4.7353701503,
			"0.015": 1.96198193618,
			"0.016": 0.0,
			"0.017": 0.0,
			"0.018": 0.0,
			"0.019": 0.0,
			"0.02": 0.0,
			"0.021": 0.0,
			"0.022": 0.0,
			"0.023": 0.0,
			"0.024": 0.0,
			"0.025": 0.0
		}
	}
}
