{
	 "smiles": "COC(=O)C1=CC(Cl)=C(OCCBr)C=C1", 
	 "Tm": 346.15, 
	 "num_atms": 25, 
	 "gaussian": { 
		 "optdone": 1, 
		 "sigma_profile": "yes", 
		 "theory": "DFT", 
		 "functional": "B3LYP", 
		 "basiset": "6-31G**", 
		 "properties": { 
			 "R2extent": 7823.6475, 
			 "electric_dipole_moment_norm": 2.60062007606, 
			 "electric_quadrupole_moment_norm": 23.9583832858, 
			 "total_energy": -3644.35738877, 
			 "HOMO_LUMO_gap": 0.19801, 
			 "cosmo_polarized_energy": -12.66, 
			 "cosmo_cavitation_energy": 34.12, 
			 "cosmo_dispersion_energy": -24.65, 
			 "cosmo_repulsion_energy": 1.96, 
			 "cosmo_total_nonelectrostatic_energy": 11.44, 
			 "SMD_solvation_energy": 6.11 
		},
		"coords": [
			{
				"x": 3.6215111351,
				"y": -2.4121136863,
				"z": 3.7559758227,
				"element": "C" 
			},
			{
				"x": 2.5603009399,
				"y": -1.8109893541,
				"z": 2.9969300739,
				"element": "O" 
			},
			{
				"x": 2.543989517,
				"y": -2.1229904136,
				"z": 1.6821168267,
				"element": "C" 
			},
			{
				"x": 3.3616444656,
				"y": -2.8552970867,
				"z": 1.1598728917,
				"element": "O" 
			},
			{
				"x": 1.4185755683,
				"y": -1.4696694204,
				"z": 0.9553692315,
				"element": "C" 
			},
			{
				"x": 0.5006280037,
				"y": -0.63328139,
				"z": 1.6026918309,
				"element": "C" 
			},
			{
				"x": -0.5331147297,
				"y": -0.0476820343,
				"z": 0.87785812,
				"element": "C" 
			},
			{
				"x": -1.6924990623,
				"y": 0.970321145,
				"z": 1.7061013984,
				"element": "Cl" 
			},
			{
				"x": -0.6666278269,
				"y": -0.2859646681,
				"z": -0.5013817899,
				"element": "C" 
			},
			{
				"x": -1.7019737765,
				"y": 0.2322125839,
				"z": -1.232221841,
				"element": "O" 
			},
			{
				"x": -1.5380012602,
				"y": 1.583321188,
				"z": -1.6761057812,
				"element": "C" 
			},
			{
				"x": -2.6989377937,
				"y": 1.9395007364,
				"z": -2.5763491534,
				"element": "C" 
			},
			{
				"x": -4.4118463889,
				"y": 2.057996495,
				"z": -1.6050495909,
				"element": "Br" 
			},
			{
				"x": 0.2548080002,
				"y": -1.1283175566,
				"z": -1.1342179864,
				"element": "C" 
			},
			{
				"x": 1.2880354736,
				"y": -1.7185853457,
				"z": -0.4166004729,
				"element": "C" 
			},
			{
				"x": 3.5555966401,
				"y": -3.5019926069,
				"z": 3.7115885273,
				"element": "H" 
			},
			{
				"x": 3.4864601232,
				"y": -2.0607505565,
				"z": 4.7786729608,
				"element": "H" 
			},
			{
				"x": 4.5948213523,
				"y": -2.102075992,
				"z": 3.3676992518,
				"element": "H" 
			},
			{
				"x": 0.5887732068,
				"y": -0.4447591487,
				"z": 2.6652082246,
				"element": "H" 
			},
			{
				"x": -0.610131035,
				"y": 1.667665311,
				"z": -2.2635446152,
				"element": "H" 
			},
			{
				"x": -1.4751572545,
				"y": 2.2683196077,
				"z": -0.8236897156,
				"element": "H" 
			},
			{
				"x": -2.5422065863,
				"y": 2.9179069468,
				"z": -3.0299435052,
				"element": "H" 
			},
			{
				"x": -2.8425775142,
				"y": 1.1859391962,
				"z": -3.3499342766,
				"element": "H" 
			},
			{
				"x": 0.1279057098,
				"y": -1.3147863896,
				"z": -2.1957507027,
				"element": "H" 
			},
			{
				"x": 2.0047230927,
				"y": -2.3744275604,
				"z": -0.8980957291,
				"element": "H" 
			}
		],
		 "valence_orbital": [ 
			{
				"type": "occ",
				"energy": -0.28049,
				"method": "rhf"
			},
			{
				"type": "occ",
				"energy": -0.27452,
				"method": "rhf"
			},
			{
				"type": "occ",
				"energy": -0.27292,
				"method": "rhf"
			},
			{
				"type": "occ",
				"energy": -0.26679,
				"method": "rhf"
			},
			{
				"type": "occ",
				"energy": -0.25249,
				"method": "rhf"
			},
			{
				"type": "unocc",
				"energy": -0.05448,
				"method": "rhf"
			},
			{
				"type": "unocc",
				"energy": -0.02423,
				"method": "rhf"
			},
			{
				"type": "unocc",
				"energy": -0.00064,
				"method": "rhf"
			},
			{
				"type": "unocc",
				"energy": 0.0239,
				"method": "rhf"
			},
			{
				"type": "unocc",
				"energy": 0.04719,
				"method": "rhf"
			}
		],
		"cosmo_sigma_profile": { 
			"-0.025": 0.0,
			"-0.024": 0.0,
			"-0.023": 0.0,
			"-0.022": 0.0,
			"-0.021": 0.0,
			"-0.02": 0.0,
			"-0.019": 0.0,
			"-0.018": 0.0,
			"-0.017": 0.0,
			"-0.016": 0.0,
			"-0.015": 0.0,
			"-0.014": 0.0,
			"-0.013": 0.0,
			"-0.012": 0.0,
			"-0.011": 0.0,
			"-0.01": 0.0,
			"-0.009": 0.489346607628,
			"-0.008": 4.63630795219,
			"-0.007": 12.1955736402,
			"-0.006": 18.3830071579,
			"-0.005": 20.8093966149,
			"-0.004": 19.2214067454,
			"-0.003": 20.3910379054,
			"-0.002": 15.7951580286,
			"-0.001": 17.5888245136,
			"0.0": 21.2576600287,
			"0.001": 27.4309030061,
			"0.002": 19.0784019399,
			"0.003": 13.7857453487,
			"0.004": 16.7322615776,
			"0.005": 14.0305502472,
			"0.006": 13.306043284,
			"0.007": 4.69977471245,
			"0.008": 4.48277226644,
			"0.009": 3.49510728024,
			"0.01": 2.7683390276,
			"0.011": 3.65029023841,
			"0.012": 3.23941696316,
			"0.013": 0.0235519645008,
			"0.014": 0.0,
			"0.015": 0.0,
			"0.016": 0.0,
			"0.017": 0.0,
			"0.018": 0.0,
			"0.019": 0.0,
			"0.02": 0.0,
			"0.021": 0.0,
			"0.022": 0.0,
			"0.023": 0.0,
			"0.024": 0.0,
			"0.025": 0.0
		}
	}
}
