{
	 "smiles": "COC(=O)C1=C(NC(=O)CBr)C=CS1", 
	 "Tm": 365.65, 
	 "num_atms": 22, 
	 "gaussian": { 
		 "optdone": 1, 
		 "sigma_profile": "yes", 
		 "theory": "DFT", 
		 "functional": "B3LYP", 
		 "basiset": "6-31G**", 
		 "properties": { 
			 "R2extent": 5330.6233, 
			 "electric_dipole_moment_norm": 2.21778306874, 
			 "electric_quadrupole_moment_norm": 14.9814228426, 
			 "total_energy": -3559.69086122, 
			 "HOMO_LUMO_gap": 0.18284, 
			 "cosmo_polarized_energy": -15.33, 
			 "cosmo_cavitation_energy": 30.85, 
			 "cosmo_dispersion_energy": -22.9, 
			 "cosmo_repulsion_energy": 1.8, 
			 "cosmo_total_nonelectrostatic_energy": 9.75, 
			 "SMD_solvation_energy": 6.16 
		},
		"coords": [
			{
				"x": -3.5696212657,
				"y": 2.7396816696,
				"z": 1.4476080793,
				"element": "C" 
			},
			{
				"x": -2.1421938254,
				"y": 2.8899176851,
				"z": 1.4734818512,
				"element": "O" 
			},
			{
				"x": -1.4423240036,
				"y": 1.8547657961,
				"z": 0.9481062097,
				"element": "C" 
			},
			{
				"x": -1.9632028642,
				"y": 0.8605864073,
				"z": 0.4836432001,
				"element": "O" 
			},
			{
				"x": 0.0030927986,
				"y": 2.1257660029,
				"z": 0.983294595,
				"element": "C" 
			},
			{
				"x": 1.0383802198,
				"y": 1.2644853812,
				"z": 0.6593837476,
				"element": "C" 
			},
			{
				"x": 0.8936728042,
				"y": -0.1013927509,
				"z": 0.3610357159,
				"element": "N" 
			},
			{
				"x": 0.2265622282,
				"y": -1.0008988369,
				"z": 1.1507565458,
				"element": "C" 
			},
			{
				"x": -0.2843974014,
				"y": -0.7490188823,
				"z": 2.2266288305,
				"element": "O" 
			},
			{
				"x": 0.0591547963,
				"y": -2.4134130206,
				"z": 0.5973902346,
				"element": "C" 
			},
			{
				"x": 1.3535672523,
				"y": -2.9920521623,
				"z": -0.7895478196,
				"element": "Br" 
			},
			{
				"x": 2.3131524042,
				"y": 1.9068234818,
				"z": 0.6559840703,
				"element": "C" 
			},
			{
				"x": 2.2325520202,
				"y": 3.2320266544,
				"z": 0.984231555,
				"element": "C" 
			},
			{
				"x": 0.6135360744,
				"y": 3.7248348403,
				"z": 1.3222192266,
				"element": "S" 
			},
			{
				"x": -3.9678249569,
				"y": 3.6443261174,
				"z": 1.9066465426,
				"element": "H" 
			},
			{
				"x": -3.9284738815,
				"y": 2.6404672697,
				"z": 0.4198604661,
				"element": "H" 
			},
			{
				"x": -3.8710306451,
				"y": 1.8555477346,
				"z": 2.0144699093,
				"element": "H" 
			},
			{
				"x": 1.4045477885,
				"y": -0.4736643264,
				"z": -0.4295913782,
				"element": "H" 
			},
			{
				"x": 0.1426081688,
				"y": -3.1224260717,
				"z": 1.4171663071,
				"element": "H" 
			},
			{
				"x": -0.9246793498,
				"y": -2.4925747819,
				"z": 0.1335283165,
				"element": "H" 
			},
			{
				"x": 3.2396439735,
				"y": 1.3876160474,
				"z": 0.439372937,
				"element": "H" 
			},
			{
				"x": 3.0439776649,
				"y": 3.9416957451,
				"z": 1.0705308574,
				"element": "H" 
			}
		],
		 "valence_orbital": [ 
			{
				"type": "occ",
				"energy": -0.2882,
				"method": "rhf"
			},
			{
				"type": "occ",
				"energy": -0.27551,
				"method": "rhf"
			},
			{
				"type": "occ",
				"energy": -0.26198,
				"method": "rhf"
			},
			{
				"type": "occ",
				"energy": -0.25504,
				"method": "rhf"
			},
			{
				"type": "occ",
				"energy": -0.23905,
				"method": "rhf"
			},
			{
				"type": "unocc",
				"energy": -0.05621,
				"method": "rhf"
			},
			{
				"type": "unocc",
				"energy": -0.01833,
				"method": "rhf"
			},
			{
				"type": "unocc",
				"energy": 0.0127,
				"method": "rhf"
			},
			{
				"type": "unocc",
				"energy": 0.02352,
				"method": "rhf"
			},
			{
				"type": "unocc",
				"energy": 0.03462,
				"method": "rhf"
			}
		],
		"cosmo_sigma_profile": { 
			"-0.025": 0.0,
			"-0.024": 0.0,
			"-0.023": 0.0,
			"-0.022": 0.0,
			"-0.021": 0.0,
			"-0.02": 0.0,
			"-0.019": 0.0,
			"-0.018": 0.0,
			"-0.017": 0.0,
			"-0.016": 0.0,
			"-0.015": 0.0,
			"-0.014": 0.0778165918611,
			"-0.013": 0.700332502573,
			"-0.012": 0.962583200687,
			"-0.011": 1.20388348927,
			"-0.01": 2.09265413191,
			"-0.009": 6.36297584882,
			"-0.008": 8.31118957132,
			"-0.007": 9.21510966627,
			"-0.006": 13.4805881062,
			"-0.005": 15.3696536184,
			"-0.004": 17.7745889917,
			"-0.003": 17.0158565894,
			"-0.002": 13.1003494719,
			"-0.001": 14.0065230216,
			"0.0": 13.3099782086,
			"0.001": 19.1361641753,
			"0.002": 21.3659379242,
			"0.003": 20.4308613064,
			"0.004": 11.6981991885,
			"0.005": 11.850004745,
			"0.006": 4.80953203878,
			"0.007": 3.48910862696,
			"0.008": 3.21535601833,
			"0.009": 3.18439967928,
			"0.01": 4.19648380263,
			"0.011": 5.50781480042,
			"0.012": 7.25774307748,
			"0.013": 2.72816079034,
			"0.014": 0.0811374578228,
			"0.015": 0.0,
			"0.016": 0.0,
			"0.017": 0.0,
			"0.018": 0.0,
			"0.019": 0.0,
			"0.02": 0.0,
			"0.021": 0.0,
			"0.022": 0.0,
			"0.023": 0.0,
			"0.024": 0.0,
			"0.025": 0.0
		}
	}
}
