{
	 "smiles": "NC(=O)NCCCCC(O)=O", 
	 "Tm": 452.15, 
	 "num_atms": 23, 
	 "gaussian": { 
		 "optdone": 1, 
		 "sigma_profile": "yes", 
		 "theory": "DFT", 
		 "functional": "B3LYP", 
		 "basiset": "6-31G**", 
		 "properties": { 
			 "R2extent": 3464.2705, 
			 "electric_dipole_moment_norm": 4.62891744904, 
			 "electric_quadrupole_moment_norm": 29.3983460366, 
			 "total_energy": -571.084909416, 
			 "HOMO_LUMO_gap": 0.27013, 
			 "cosmo_polarized_energy": -25.75, 
			 "cosmo_cavitation_energy": 27.23, 
			 "cosmo_dispersion_energy": -19.27, 
			 "cosmo_repulsion_energy": 1.63, 
			 "cosmo_total_nonelectrostatic_energy": 9.59, 
			 "SMD_solvation_energy": 6.06 
		},
		"coords": [
			{
				"x": -0.1498485134,
				"y": 3.7175562272,
				"z": -1.0264788528,
				"element": "N" 
			},
			{
				"x": -0.509693183,
				"y": 2.7528318081,
				"z": -0.0922727716,
				"element": "C" 
			},
			{
				"x": -1.4104980127,
				"y": 2.9208537865,
				"z": 0.7194811366,
				"element": "O" 
			},
			{
				"x": 0.2508535543,
				"y": 1.5977162249,
				"z": -0.148041807,
				"element": "N" 
			},
			{
				"x": 0.1326040136,
				"y": 0.6206180728,
				"z": 0.9382026919,
				"element": "C" 
			},
			{
				"x": -1.0827145279,
				"y": -0.3033201846,
				"z": 0.787072275,
				"element": "C" 
			},
			{
				"x": -1.0485404268,
				"y": -1.166108506,
				"z": -0.4782426968,
				"element": "C" 
			},
			{
				"x": -2.2909489982,
				"y": -2.0692864729,
				"z": -0.6086905273,
				"element": "C" 
			},
			{
				"x": -2.2715159685,
				"y": -2.9400107723,
				"z": -1.8569329178,
				"element": "C" 
			},
			{
				"x": -2.2986901177,
				"y": -2.264574267,
				"z": -3.0429358693,
				"element": "O" 
			},
			{
				"x": -2.2203494601,
				"y": -4.1437653217,
				"z": -1.85474029,
				"element": "O" 
			},
			{
				"x": -0.8346813826,
				"y": 4.4555666653,
				"z": -1.1069662457,
				"element": "H" 
			},
			{
				"x": 0.2352678617,
				"y": 3.4071319334,
				"z": -1.9077294996,
				"element": "H" 
			},
			{
				"x": 1.1601866844,
				"y": 1.6806412285,
				"z": -0.5796345476,
				"element": "H" 
			},
			{
				"x": 0.0642234005,
				"y": 1.1450290319,
				"z": 1.8978546581,
				"element": "H" 
			},
			{
				"x": 1.0547280019,
				"y": 0.0294664265,
				"z": 0.9407265391,
				"element": "H" 
			},
			{
				"x": -1.1299856669,
				"y": -0.9492432207,
				"z": 1.6736393508,
				"element": "H" 
			},
			{
				"x": -1.9854232349,
				"y": 0.3170635231,
				"z": 0.7993984283,
				"element": "H" 
			},
			{
				"x": -0.1492447831,
				"y": -1.7962489715,
				"z": -0.4784141027,
				"element": "H" 
			},
			{
				"x": -0.9600427265,
				"y": -0.5063268765,
				"z": -1.3512159745,
				"element": "H" 
			},
			{
				"x": -2.3657425994,
				"y": -2.7435113196,
				"z": 0.2474167819,
				"element": "H" 
			},
			{
				"x": -3.1978307722,
				"y": -1.4484866987,
				"z": -0.6192693185,
				"element": "H" 
			},
			{
				"x": -2.3572131424,
				"y": -1.3125923167,
				"z": -2.8806264404,
				"element": "H" 
			}
		],
		 "valence_orbital": [ 
			{
				"type": "occ",
				"energy": -0.31083,
				"method": "rhf"
			},
			{
				"type": "occ",
				"energy": -0.2802,
				"method": "rhf"
			},
			{
				"type": "occ",
				"energy": -0.26699,
				"method": "rhf"
			},
			{
				"type": "occ",
				"energy": -0.26141,
				"method": "rhf"
			},
			{
				"type": "occ",
				"energy": -0.25798,
				"method": "rhf"
			},
			{
				"type": "unocc",
				"energy": 0.01215,
				"method": "rhf"
			},
			{
				"type": "unocc",
				"energy": 0.04336,
				"method": "rhf"
			},
			{
				"type": "unocc",
				"energy": 0.04747,
				"method": "rhf"
			},
			{
				"type": "unocc",
				"energy": 0.05618,
				"method": "rhf"
			},
			{
				"type": "unocc",
				"energy": 0.0892,
				"method": "rhf"
			}
		],
		"cosmo_sigma_profile": { 
			"-0.025": 0.0,
			"-0.024": 0.0,
			"-0.023": 0.0,
			"-0.022": 0.0,
			"-0.021": 0.0,
			"-0.02": 0.0,
			"-0.019": 0.0213572535073,
			"-0.018": 0.659817617947,
			"-0.017": 0.807956605474,
			"-0.016": 1.12813689308,
			"-0.015": 1.0374984999,
			"-0.014": 3.09468674151,
			"-0.013": 5.04465310447,
			"-0.012": 4.48594190804,
			"-0.011": 4.38572000616,
			"-0.01": 4.38281853327,
			"-0.009": 4.24981438038,
			"-0.008": 3.80243413576,
			"-0.007": 4.55348021032,
			"-0.006": 6.33133008548,
			"-0.005": 8.72511888785,
			"-0.004": 13.461348319,
			"-0.003": 19.1582134217,
			"-0.002": 19.1246911558,
			"-0.001": 13.7697756825,
			"0.0": 9.87588950306,
			"0.001": 6.72496351744,
			"0.002": 6.55396284797,
			"0.003": 6.62472185744,
			"0.004": 4.9071928333,
			"0.005": 3.98223140222,
			"0.006": 4.79177089899,
			"0.007": 4.96044418938,
			"0.008": 4.75177529505,
			"0.009": 4.53972688078,
			"0.01": 6.02291782612,
			"0.011": 8.13558511276,
			"0.012": 8.1762440983,
			"0.013": 5.14005382629,
			"0.014": 4.67558192411,
			"0.015": 3.44208086535,
			"0.016": 0.208755747246,
			"0.017": 0.0,
			"0.018": 0.0,
			"0.019": 0.0,
			"0.02": 0.0,
			"0.021": 0.0,
			"0.022": 0.0,
			"0.023": 0.0,
			"0.024": 0.0,
			"0.025": 0.0
		}
	}
}
