{
	 "smiles": "NC1=CC=C(C=CC2=NC3=CC=CC=C3N2)C=C1", 
	 "Tm": 498.15, 
	 "num_atms": 31, 
	 "gaussian": { 
		 "optdone": 1, 
		 "sigma_profile": "yes", 
		 "theory": "DFT", 
		 "functional": "B3LYP", 
		 "basiset": "6-31G**", 
		 "properties": { 
			 "R2extent": 6329.6391, 
			 "electric_dipole_moment_norm": 5.89702458109, 
			 "electric_quadrupole_moment_norm": 13.5018480542, 
			 "total_energy": -743.69351525, 
			 "HOMO_LUMO_gap": 0.14631, 
			 "cosmo_polarized_energy": -17.01, 
			 "cosmo_cavitation_energy": 35.18, 
			 "cosmo_dispersion_energy": -25.52, 
			 "cosmo_repulsion_energy": 1.96, 
			 "cosmo_total_nonelectrostatic_energy": 11.62, 
			 "SMD_solvation_energy": 3.44 
		},
		"coords": [
			{
				"x": 3.1957895776,
				"y": -2.2100826628,
				"z": 4.0688977935,
				"element": "N" 
			},
			{
				"x": 2.1318639119,
				"y": -1.980211481,
				"z": 3.2042303485,
				"element": "C" 
			},
			{
				"x": 1.7658095757,
				"y": -2.937004902,
				"z": 2.2388292611,
				"element": "C" 
			},
			{
				"x": 0.666235953,
				"y": -2.7285829899,
				"z": 1.4171612724,
				"element": "C" 
			},
			{
				"x": -0.1081001218,
				"y": -1.5546927472,
				"z": 1.4953913295,
				"element": "C" 
			},
			{
				"x": -1.2822558913,
				"y": -1.3948700457,
				"z": 0.6210882988,
				"element": "C" 
			},
			{
				"x": -1.7516290159,
				"y": -0.3041517181,
				"z": -0.0253285005,
				"element": "C" 
			},
			{
				"x": -1.1852929736,
				"y": 1.023337103,
				"z": -0.1972885482,
				"element": "C" 
			},
			{
				"x": -1.8525312805,
				"y": 2.0025746269,
				"z": -0.7882918271,
				"element": "N" 
			},
			{
				"x": -0.9800449513,
				"y": 3.0712131542,
				"z": -0.8280021895,
				"element": "C" 
			},
			{
				"x": -1.1629958167,
				"y": 4.3644071401,
				"z": -1.3396528928,
				"element": "C" 
			},
			{
				"x": -0.1018674813,
				"y": 5.258914503,
				"z": -1.2549664118,
				"element": "C" 
			},
			{
				"x": 1.1285160456,
				"y": 4.8866954089,
				"z": -0.6738741667,
				"element": "C" 
			},
			{
				"x": 1.3349239266,
				"y": 3.6089741524,
				"z": -0.1589545958,
				"element": "C" 
			},
			{
				"x": 0.2647378957,
				"y": 2.7158739723,
				"z": -0.2462749075,
				"element": "C" 
			},
			{
				"x": 0.1012956932,
				"y": 1.403830602,
				"z": 0.1473805711,
				"element": "N" 
			},
			{
				"x": 0.2492838163,
				"y": -0.6181882595,
				"z": 2.4848842314,
				"element": "C" 
			},
			{
				"x": 1.3460234547,
				"y": -0.818753575,
				"z": 3.3168926462,
				"element": "C" 
			},
			{
				"x": 3.8939156303,
				"y": -2.8661294497,
				"z": 3.7492885241,
				"element": "H" 
			},
			{
				"x": 3.5982710205,
				"y": -1.3931598854,
				"z": 4.505397864,
				"element": "H" 
			},
			{
				"x": 2.3463059587,
				"y": -3.8515857648,
				"z": 2.1453742421,
				"element": "H" 
			},
			{
				"x": 0.4043855639,
				"y": -3.4863821036,
				"z": 0.6830945925,
				"element": "H" 
			},
			{
				"x": -1.8577066819,
				"y": -2.3083115869,
				"z": 0.4734954616,
				"element": "H" 
			},
			{
				"x": -2.6888200501,
				"y": -0.4015536623,
				"z": -0.5653511278,
				"element": "H" 
			},
			{
				"x": -2.1114523005,
				"y": 4.6438340975,
				"z": -1.7869965859,
				"element": "H" 
			},
			{
				"x": -0.2174591336,
				"y": 6.2663595236,
				"z": -1.6438777888,
				"element": "H" 
			},
			{
				"x": 1.9343104739,
				"y": 5.6134796554,
				"z": -0.6270523428,
				"element": "H" 
			},
			{
				"x": 2.2842838449,
				"y": 3.3263298998,
				"z": 0.2863328156,
				"element": "H" 
			},
			{
				"x": 0.7833480587,
				"y": 0.8119835617,
				"z": 0.5967097307,
				"element": "H" 
			},
			{
				"x": -0.3608979863,
				"y": 0.2691708755,
				"z": 2.6234557113,
				"element": "H" 
			},
			{
				"x": 1.5843532836,
				"y": -0.0833174425,
				"z": 4.0815071909,
				"element": "H" 
			}
		],
		 "valence_orbital": [ 
			{
				"type": "occ",
				"energy": -0.26185,
				"method": "rhf"
			},
			{
				"type": "occ",
				"energy": -0.26025,
				"method": "rhf"
			},
			{
				"type": "occ",
				"energy": -0.22331,
				"method": "rhf"
			},
			{
				"type": "occ",
				"energy": -0.2179,
				"method": "rhf"
			},
			{
				"type": "occ",
				"energy": -0.19386,
				"method": "rhf"
			},
			{
				"type": "unocc",
				"energy": -0.04755,
				"method": "rhf"
			},
			{
				"type": "unocc",
				"energy": -0.01207,
				"method": "rhf"
			},
			{
				"type": "unocc",
				"energy": 0.00653,
				"method": "rhf"
			},
			{
				"type": "unocc",
				"energy": 0.02934,
				"method": "rhf"
			},
			{
				"type": "unocc",
				"energy": 0.04087,
				"method": "rhf"
			}
		],
		"cosmo_sigma_profile": { 
			"-0.025": 0.0,
			"-0.024": 0.0,
			"-0.023": 0.0,
			"-0.022": 0.0,
			"-0.021": 0.0,
			"-0.02": 0.0,
			"-0.019": 0.0,
			"-0.018": 0.0,
			"-0.017": 0.0,
			"-0.016": 0.0,
			"-0.015": 0.0,
			"-0.014": 0.0377642830022,
			"-0.013": 1.57777023774,
			"-0.012": 3.58912581144,
			"-0.011": 3.35571840614,
			"-0.01": 4.07237097881,
			"-0.009": 4.65434325904,
			"-0.008": 3.89427723008,
			"-0.007": 5.27515259418,
			"-0.006": 12.9574113747,
			"-0.005": 21.0936862126,
			"-0.004": 21.8044426389,
			"-0.003": 19.9917531696,
			"-0.002": 15.4908273822,
			"-0.001": 15.4150788707,
			"0.0": 12.3261396421,
			"0.001": 15.9278952905,
			"0.002": 19.694530093,
			"0.003": 21.1100151832,
			"0.004": 22.2006604293,
			"0.005": 22.4594261451,
			"0.006": 14.6565487915,
			"0.007": 3.9124119971,
			"0.008": 2.8021103301,
			"0.009": 2.22748827806,
			"0.01": 1.47849904138,
			"0.011": 1.58456032532,
			"0.012": 2.11348313935,
			"0.013": 1.85702683813,
			"0.014": 0.72798051599,
			"0.015": 0.677097030316,
			"0.016": 1.22488732866,
			"0.017": 1.0213775677,
			"0.018": 0.377314203181,
			"0.019": 0.0,
			"0.02": 0.0,
			"0.021": 0.0,
			"0.022": 0.0,
			"0.023": 0.0,
			"0.024": 0.0,
			"0.025": 0.0
		}
	}
}
