{
	 "smiles": "CC(C)OC(=O)COC1=CC(Cl)=C(Cl)C=C1Cl", 
	 "Tm": 318.15, 
	 "num_atms": 28, 
	 "gaussian": { 
		 "optdone": 1, 
		 "sigma_profile": "yes", 
		 "theory": "DFT", 
		 "functional": "B3LYP", 
		 "basiset": "6-31G**", 
		 "properties": { 
			 "R2extent": 10456.3127, 
			 "electric_dipole_moment_norm": 1.68191773283, 
			 "electric_quadrupole_moment_norm": 12.3363407309, 
			 "total_energy": -2032.04375136, 
			 "HOMO_LUMO_gap": 0.21125, 
			 "cosmo_polarized_energy": -10.45, 
			 "cosmo_cavitation_energy": 38.44, 
			 "cosmo_dispersion_energy": -27.02, 
			 "cosmo_repulsion_energy": 2.17, 
			 "cosmo_total_nonelectrostatic_energy": 13.6, 
			 "SMD_solvation_energy": 7.13 
		},
		"coords": [
			{
				"x": -1.1535858558,
				"y": 1.0192412301,
				"z": 3.3915739667,
				"element": "C" 
			},
			{
				"x": -1.2949181989,
				"y": -0.3970795763,
				"z": 2.8456153602,
				"element": "C" 
			},
			{
				"x": -0.7147588262,
				"y": -1.4672228567,
				"z": 3.7581331728,
				"element": "C" 
			},
			{
				"x": -0.5526902373,
				"y": -0.5030835342,
				"z": 1.587850377,
				"element": "O" 
			},
			{
				"x": -1.178308462,
				"y": -0.1041065384,
				"z": 0.4789877793,
				"element": "C" 
			},
			{
				"x": -2.3072737451,
				"y": 0.3367176455,
				"z": 0.4153861817,
				"element": "O" 
			},
			{
				"x": -0.3355546737,
				"y": -0.249429909,
				"z": -0.7797833592,
				"element": "C" 
			},
			{
				"x": 0.9466337943,
				"y": -0.8100179468,
				"z": -0.5001760186,
				"element": "O" 
			},
			{
				"x": 1.7469616234,
				"y": -1.0047905368,
				"z": -1.5926722767,
				"element": "C" 
			},
			{
				"x": 1.8086690389,
				"y": -2.2724769197,
				"z": -2.1728967199,
				"element": "C" 
			},
			{
				"x": 2.6571496596,
				"y": -2.5314631267,
				"z": -3.2491144164,
				"element": "C" 
			},
			{
				"x": 2.6901855774,
				"y": -4.1391491378,
				"z": -3.9237889897,
				"element": "Cl" 
			},
			{
				"x": 3.4594308697,
				"y": -1.5030039745,
				"z": -3.7621453567,
				"element": "C" 
			},
			{
				"x": 4.5386215144,
				"y": -1.7661578297,
				"z": -5.1064073272,
				"element": "Cl" 
			},
			{
				"x": 3.4070767422,
				"y": -0.2321344272,
				"z": -3.1866411294,
				"element": "C" 
			},
			{
				"x": 2.5586709272,
				"y": 0.0164587459,
				"z": -2.1113794191,
				"element": "C" 
			},
			{
				"x": 2.5300207018,
				"y": 1.6092641429,
				"z": -1.3926196327,
				"element": "Cl" 
			},
			{
				"x": -0.0997669349,
				"y": 1.2646678288,
				"z": 3.5569521962,
				"element": "H" 
			},
			{
				"x": -1.5839436819,
				"y": 1.7445583671,
				"z": 2.6971485064,
				"element": "H" 
			},
			{
				"x": -1.682041945,
				"y": 1.1057927974,
				"z": 4.3464347831,
				"element": "H" 
			},
			{
				"x": -2.3450248703,
				"y": -0.603234998,
				"z": 2.6196661264,
				"element": "H" 
			},
			{
				"x": -1.2421028525,
				"y": -1.4652308514,
				"z": 4.7170507945,
				"element": "H" 
			},
			{
				"x": 0.3470861706,
				"y": -1.2819627757,
				"z": 3.9472195715,
				"element": "H" 
			},
			{
				"x": -0.817173081,
				"y": -2.4592774191,
				"z": 3.3099422771,
				"element": "H" 
			},
			{
				"x": -0.2452040737,
				"y": 0.7467944289,
				"z": -1.2294017252,
				"element": "H" 
			},
			{
				"x": -0.8965364643,
				"y": -0.8831521579,
				"z": -1.4792537842,
				"element": "H" 
			},
			{
				"x": 1.1930221891,
				"y": -3.0637331701,
				"z": -1.7612583179,
				"element": "H" 
			},
			{
				"x": 4.0332550936,
				"y": 0.5604124995,
				"z": -3.5777226202,
				"element": "H" 
			}
		],
		 "valence_orbital": [ 
			{
				"type": "occ",
				"energy": -0.30873,
				"method": "rhf"
			},
			{
				"type": "occ",
				"energy": -0.29582,
				"method": "rhf"
			},
			{
				"type": "occ",
				"energy": -0.28095,
				"method": "rhf"
			},
			{
				"type": "occ",
				"energy": -0.27143,
				"method": "rhf"
			},
			{
				"type": "occ",
				"energy": -0.25168,
				"method": "rhf"
			},
			{
				"type": "unocc",
				"energy": -0.04043,
				"method": "rhf"
			},
			{
				"type": "unocc",
				"energy": -0.03484,
				"method": "rhf"
			},
			{
				"type": "unocc",
				"energy": -0.01516,
				"method": "rhf"
			},
			{
				"type": "unocc",
				"energy": 0.00477,
				"method": "rhf"
			},
			{
				"type": "unocc",
				"energy": 0.02437,
				"method": "rhf"
			}
		],
		"cosmo_sigma_profile": { 
			"-0.025": 0.0,
			"-0.024": 0.0,
			"-0.023": 0.0,
			"-0.022": 0.0,
			"-0.021": 0.0,
			"-0.02": 0.0,
			"-0.019": 0.0,
			"-0.018": 0.0,
			"-0.017": 0.0,
			"-0.016": 0.0,
			"-0.015": 0.0,
			"-0.014": 0.0,
			"-0.013": 0.0,
			"-0.012": 0.0,
			"-0.011": 0.0,
			"-0.01": 0.0753418619805,
			"-0.009": 2.25207939524,
			"-0.008": 4.30588053344,
			"-0.007": 8.26420341889,
			"-0.006": 9.4902475065,
			"-0.005": 12.5577964357,
			"-0.004": 22.303506127,
			"-0.003": 26.0050574396,
			"-0.002": 26.0039668617,
			"-0.001": 36.4475266071,
			"0.0": 45.6164209094,
			"0.001": 23.5271625393,
			"0.002": 18.3972147614,
			"0.003": 25.8673274269,
			"0.004": 19.3445412847,
			"0.005": 6.69549059932,
			"0.006": 3.13016191317,
			"0.007": 2.81604011375,
			"0.008": 3.16330497727,
			"0.009": 2.25739668491,
			"0.01": 2.8243253875,
			"0.011": 4.68108527116,
			"0.012": 5.37519701831,
			"0.013": 0.959398396759,
			"0.014": 0.0,
			"0.015": 0.0,
			"0.016": 0.0,
			"0.017": 0.0,
			"0.018": 0.0,
			"0.019": 0.0,
			"0.02": 0.0,
			"0.021": 0.0,
			"0.022": 0.0,
			"0.023": 0.0,
			"0.024": 0.0,
			"0.025": 0.0
		}
	}
}
