{
	 "smiles": "O=CC1=CN(N=C1C1=CC=CC=C1)C1=CC=CC=C1", 
	 "Tm": 419.15, 
	 "num_atms": 31, 
	 "gaussian": { 
		 "optdone": 1, 
		 "sigma_profile": "yes", 
		 "theory": "DFT", 
		 "functional": "B3LYP", 
		 "basiset": "6-31G**", 
		 "properties": { 
			 "R2extent": 6396.2355, 
			 "electric_dipole_moment_norm": 2.95623995136, 
			 "electric_quadrupole_moment_norm": 23.1115461997, 
			 "total_energy": -801.640050954, 
			 "HOMO_LUMO_gap": 0.17397, 
			 "cosmo_polarized_energy": -12.03, 
			 "cosmo_cavitation_energy": 36.16, 
			 "cosmo_dispersion_energy": -25.97, 
			 "cosmo_repulsion_energy": 1.97, 
			 "cosmo_total_nonelectrostatic_energy": 12.15, 
			 "SMD_solvation_energy": 6.53 
		},
		"coords": [
			{
				"x": 0.0918534107,
				"y": 1.4312478125,
				"z": -4.1219976168,
				"element": "O" 
			},
			{
				"x": -0.2093565969,
				"y": 1.6119118676,
				"z": -2.9521614261,
				"element": "C" 
			},
			{
				"x": 0.2079850385,
				"y": 0.7282724978,
				"z": -1.8642414504,
				"element": "C" 
			},
			{
				"x": 0.8722530269,
				"y": -0.4760346365,
				"z": -2.0497912345,
				"element": "C" 
			},
			{
				"x": 0.9976634468,
				"y": -1.0554822395,
				"z": -0.8339840349,
				"element": "N" 
			},
			{
				"x": 0.4617202799,
				"y": -0.2862845603,
				"z": 0.1569937785,
				"element": "N" 
			},
			{
				"x": -0.0199576716,
				"y": 0.7976101584,
				"z": -0.4493646186,
				"element": "C" 
			},
			{
				"x": -0.6857965073,
				"y": 1.8456316099,
				"z": 0.3461089794,
				"element": "C" 
			},
			{
				"x": -1.446363999,
				"y": 1.4883400931,
				"z": 1.4722386913,
				"element": "C" 
			},
			{
				"x": -2.0747543553,
				"y": 2.4657663227,
				"z": 2.240085167,
				"element": "C" 
			},
			{
				"x": -1.9553202477,
				"y": 3.8151980231,
				"z": 1.897586069,
				"element": "C" 
			},
			{
				"x": -1.1934462982,
				"y": 4.1813522633,
				"z": 0.7871171575,
				"element": "C" 
			},
			{
				"x": -0.5593079692,
				"y": 3.205299068,
				"z": 0.0184296205,
				"element": "C" 
			},
			{
				"x": 1.6177014131,
				"y": -2.2950718852,
				"z": -0.5093988027,
				"element": "C" 
			},
			{
				"x": 1.7776196947,
				"y": -3.2799029424,
				"z": -1.4899141304,
				"element": "C" 
			},
			{
				"x": 2.404823969,
				"y": -4.480482258,
				"z": -1.1598688719,
				"element": "C" 
			},
			{
				"x": 2.8568487351,
				"y": -4.7086725115,
				"z": 0.1408621034,
				"element": "C" 
			},
			{
				"x": 2.6774006379,
				"y": -3.7245620911,
				"z": 1.1153989971,
				"element": "C" 
			},
			{
				"x": 2.0624213026,
				"y": -2.5151664688,
				"z": 0.798215744,
				"element": "C" 
			},
			{
				"x": -0.8480683727,
				"y": 2.4682602689,
				"z": -2.6569545647,
				"element": "H" 
			},
			{
				"x": 1.2485441926,
				"y": -0.9172754034,
				"z": -2.9589796444,
				"element": "H" 
			},
			{
				"x": -1.539131224,
				"y": 0.4385776827,
				"z": 1.7297640858,
				"element": "H" 
			},
			{
				"x": -2.6635987582,
				"y": 2.1740570798,
				"z": 3.1050378428,
				"element": "H" 
			},
			{
				"x": -2.4489679739,
				"y": 4.5759744899,
				"z": 2.4952681952,
				"element": "H" 
			},
			{
				"x": -1.0825103155,
				"y": 5.2289960438,
				"z": 0.5229232668,
				"element": "H" 
			},
			{
				"x": 0.062274267,
				"y": 3.5031642202,
				"z": -0.8199597511,
				"element": "H" 
			},
			{
				"x": 1.4000593029,
				"y": -3.1248328375,
				"z": -2.494824275,
				"element": "H" 
			},
			{
				"x": 2.5271742371,
				"y": -5.2432760834,
				"z": -1.9228102131,
				"element": "H" 
			},
			{
				"x": 3.3400112582,
				"y": -5.6473692817,
				"z": 0.3937367998,
				"element": "H" 
			},
			{
				"x": 3.0231904723,
				"y": -3.8940515781,
				"z": 2.1307167153,
				"element": "H" 
			},
			{
				"x": 1.9180356043,
				"y": -1.7402947243,
				"z": 1.5406674213,
				"element": "H" 
			}
		],
		 "valence_orbital": [ 
			{
				"type": "occ",
				"energy": -0.26652,
				"method": "rhf"
			},
			{
				"type": "occ",
				"energy": -0.25743,
				"method": "rhf"
			},
			{
				"type": "occ",
				"energy": -0.25304,
				"method": "rhf"
			},
			{
				"type": "occ",
				"energy": -0.24555,
				"method": "rhf"
			},
			{
				"type": "occ",
				"energy": -0.22799,
				"method": "rhf"
			},
			{
				"type": "unocc",
				"energy": -0.05402,
				"method": "rhf"
			},
			{
				"type": "unocc",
				"energy": -0.03784,
				"method": "rhf"
			},
			{
				"type": "unocc",
				"energy": -0.01635,
				"method": "rhf"
			},
			{
				"type": "unocc",
				"energy": -0.0065,
				"method": "rhf"
			},
			{
				"type": "unocc",
				"energy": 0.00068,
				"method": "rhf"
			}
		],
		"cosmo_sigma_profile": { 
			"-0.025": 0.0,
			"-0.024": 0.0,
			"-0.023": 0.0,
			"-0.022": 0.0,
			"-0.021": 0.0,
			"-0.02": 0.0,
			"-0.019": 0.0,
			"-0.018": 0.0,
			"-0.017": 0.0,
			"-0.016": 0.0,
			"-0.015": 0.0,
			"-0.014": 0.0,
			"-0.013": 0.0,
			"-0.012": 0.0180242526132,
			"-0.011": 1.22200492137,
			"-0.01": 2.01696904154,
			"-0.009": 1.84341886915,
			"-0.008": 2.17903457509,
			"-0.007": 5.9385113363,
			"-0.006": 19.180440786,
			"-0.005": 23.4829983676,
			"-0.004": 24.9950305467,
			"-0.003": 18.7609286487,
			"-0.002": 19.0077129356,
			"-0.001": 18.9953572713,
			"0.0": 21.162645718,
			"0.001": 24.1626376991,
			"0.002": 19.8444485506,
			"0.003": 21.3455961714,
			"0.004": 25.2472706588,
			"0.005": 16.1115959928,
			"0.006": 3.63616348564,
			"0.007": 3.19650792774,
			"0.008": 3.40412691031,
			"0.009": 3.00228836367,
			"0.01": 3.55280570784,
			"0.011": 3.41241933337,
			"0.012": 4.05770387832,
			"0.013": 1.7444741406,
			"0.014": 0.210860198891,
			"0.015": 0.0,
			"0.016": 0.0,
			"0.017": 0.0,
			"0.018": 0.0,
			"0.019": 0.0,
			"0.02": 0.0,
			"0.021": 0.0,
			"0.022": 0.0,
			"0.023": 0.0,
			"0.024": 0.0,
			"0.0": 0.0
		}
	}
}
