{
	 "smiles": "ClCC1=NC(=NO1)C1=CC=CS1", 
	 "Tm": 332.65, 
	 "num_atms": 17, 
	 "gaussian": { 
		 "optdone": 1, 
		 "sigma_profile": "yes", 
		 "theory": "DFT", 
		 "functional": "B3LYP", 
		 "basiset": "6-31G**", 
		 "properties": { 
			 "R2extent": 4754.3263, 
			 "electric_dipole_moment_norm": 2.72318098187, 
			 "electric_quadrupole_moment_norm": 16.953629077, 
			 "total_energy": -1312.8085886, 
			 "HOMO_LUMO_gap": 0.1744, 
			 "cosmo_polarized_energy": -9.66, 
			 "cosmo_cavitation_energy": 26.0, 
			 "cosmo_dispersion_energy": -19.94, 
			 "cosmo_repulsion_energy": 1.55, 
			 "cosmo_total_nonelectrostatic_energy": 7.62, 
			 "SMD_solvation_energy": 2.38 
		},
		"coords": [
			{
				"x": 2.0314394122,
				"y": 3.8449618408,
				"z": -2.39459493,
				"element": "Cl" 
			},
			{
				"x": 0.8323032827,
				"y": 3.7209064438,
				"z": -1.0359481298,
				"element": "C" 
			},
			{
				"x": 1.1957704959,
				"y": 2.6425037551,
				"z": -0.079681723,
				"element": "C" 
			},
			{
				"x": 0.6915029382,
				"y": 1.448604103,
				"z": -0.0005791415,
				"element": "N" 
			},
			{
				"x": 1.4021737202,
				"y": 0.9032050375,
				"z": 1.0548705831,
				"element": "C" 
			},
			{
				"x": 2.2883232753,
				"y": 1.7190423516,
				"z": 1.5899234025,
				"element": "N" 
			},
			{
				"x": 2.1504551206,
				"y": 2.8896137852,
				"z": 0.8311195109,
				"element": "O" 
			},
			{
				"x": 1.1783203845,
				"y": -0.450076,
				"z": 1.5229153106,
				"element": "C" 
			},
			{
				"x": 0.2795665544,
				"y": -1.3557903715,
				"z": 1.0072855873,
				"element": "C" 
			},
			{
				"x": 0.3015956322,
				"y": -2.6034767744,
				"z": 1.6898801388,
				"element": "C" 
			},
			{
				"x": 1.2144632064,
				"y": -2.6277444472,
				"z": 2.7114767103,
				"element": "C" 
			},
			{
				"x": 2.0671628514,
				"y": -1.1288566391,
				"z": 2.8626785696,
				"element": "S" 
			},
			{
				"x": -0.1371305317,
				"y": 3.4976628209,
				"z": -1.4769897825,
				"element": "H" 
			},
			{
				"x": 0.8163600706,
				"y": 4.692166739,
				"z": -0.5418248226,
				"element": "H" 
			},
			{
				"x": -0.3639070458,
				"y": -1.1186313965,
				"z": 0.1689753199,
				"element": "H" 
			},
			{
				"x": -0.3314684889,
				"y": -3.4446289185,
				"z": 1.4330952529,
				"element": "H" 
			},
			{
				"x": 1.438669122,
				"y": -3.4413623297,
				"z": 3.3876981435,
				"element": "H" 
			}
		],
		 "valence_orbital": [ 
			{
				"type": "occ",
				"energy": -0.31563,
				"method": "rhf"
			},
			{
				"type": "occ",
				"energy": -0.30898,
				"method": "rhf"
			},
			{
				"type": "occ",
				"energy": -0.30676,
				"method": "rhf"
			},
			{
				"type": "occ",
				"energy": -0.26346,
				"method": "rhf"
			},
			{
				"type": "occ",
				"energy": -0.23835,
				"method": "rhf"
			},
			{
				"type": "unocc",
				"energy": -0.06395,
				"method": "rhf"
			},
			{
				"type": "unocc",
				"energy": -0.04127,
				"method": "rhf"
			},
			{
				"type": "unocc",
				"energy": 0.02169,
				"method": "rhf"
			},
			{
				"type": "unocc",
				"energy": 0.02828,
				"method": "rhf"
			},
			{
				"type": "unocc",
				"energy": 0.04057,
				"method": "rhf"
			}
		],
		"cosmo_sigma_profile": { 
			"-0.025": 0.0,
			"-0.024": 0.0,
			"-0.023": 0.0,
			"-0.022": 0.0,
			"-0.021": 0.0,
			"-0.02": 0.0,
			"-0.019": 0.0,
			"-0.018": 0.0,
			"-0.017": 0.0,
			"-0.016": 0.0,
			"-0.015": 0.0,
			"-0.014": 0.0,
			"-0.013": 0.0,
			"-0.012": 0.0,
			"-0.011": 0.453108720014,
			"-0.01": 4.47912508073,
			"-0.009": 6.52590342409,
			"-0.008": 6.49699378505,
			"-0.007": 10.0665444639,
			"-0.006": 8.6821955931,
			"-0.005": 8.86467398243,
			"-0.004": 8.74551220435,
			"-0.003": 8.29112675826,
			"-0.002": 10.723123519,
			"-0.001": 12.1602190797,
			"0.0": 14.506546314,
			"0.001": 18.5898235736,
			"0.002": 25.4522504952,
			"0.003": 22.1154849968,
			"0.004": 15.4639786049,
			"0.005": 14.5693522397,
			"0.006": 5.88388566767,
			"0.007": 2.81074619513,
			"0.008": 2.49813912852,
			"0.009": 2.11047944234,
			"0.01": 2.2559182335,
			"0.011": 1.97570817364,
			"0.012": 0.721888857425,
			"0.013": 0.0,
			"0.014": 0.0,
			"0.015": 0.0,
			"0.016": 0.0,
			"0.017": 0.0,
			"0.018": 0.0,
			"0.019": 0.0,
			"0.02": 0.0,
			"0.021": 0.0,
			"0.022": 0.0,
			"0.023": 0.0,
			"0.024": 0.0,
			"0.025": 0.0
		}
	}
}
