{
	 "smiles": "C1CCCNCC1", 
	 "Tm": 236.15, 
	 "num_atms": 20, 
	 "gaussian": { 
		 "optdone": 1, 
		 "sigma_profile": "yes", 
		 "theory": "DFT", 
		 "functional": "B3LYP", 
		 "basiset": "6-31G**", 
		 "properties": { 
			 "R2extent": 919.7234, 
			 "electric_dipole_moment_norm": 1.06054158334, 
			 "electric_quadrupole_moment_norm": 3.37782711073, 
			 "total_energy": -291.222132643, 
			 "HOMO_LUMO_gap": 0.28472, 
			 "cosmo_polarized_energy": -3.49, 
			 "cosmo_cavitation_energy": 19.94, 
			 "cosmo_dispersion_energy": -15.44, 
			 "cosmo_repulsion_energy": 1.3, 
			 "cosmo_total_nonelectrostatic_energy": 5.8, 
			 "SMD_solvation_energy": 0.26 
		},
		"coords": [
			{
				"x": 0.9895707728,
				"y": -1.5342774432,
				"z": -0.6363619158,
				"element": "C" 
			},
			{
				"x": 0.8267734153,
				"y": -1.5860412699,
				"z": 0.8969722898,
				"element": "C" 
			},
			{
				"x": -0.3614953162,
				"y": -0.8037486243,
				"z": 1.5014974099,
				"element": "C" 
			},
			{
				"x": -0.7820059659,
				"y": 0.4954985226,
				"z": 0.7807988058,
				"element": "C" 
			},
			{
				"x": -1.6402139781,
				"y": 0.3330704647,
				"z": -0.3933028767,
				"element": "N" 
			},
			{
				"x": -1.0290813358,
				"y": -0.2425618811,
				"z": -1.5877111022,
				"element": "C" 
			},
			{
				"x": -0.3061811767,
				"y": -1.6012507744,
				"z": -1.4631562559,
				"element": "C" 
			},
			{
				"x": 1.5196764179,
				"y": -0.6136059066,
				"z": -0.9164026099,
				"element": "H" 
			},
			{
				"x": 1.6555882574,
				"y": -2.3549216022,
				"z": -0.9305610608,
				"element": "H" 
			},
			{
				"x": 0.7395443307,
				"y": -2.6334370658,
				"z": 1.2130991914,
				"element": "H" 
			},
			{
				"x": 1.7607884725,
				"y": -1.2217426841,
				"z": 1.3434488515,
				"element": "H" 
			},
			{
				"x": -1.2486051997,
				"y": -1.4510968193,
				"z": 1.5417446978,
				"element": "H" 
			},
			{
				"x": -0.1232962748,
				"y": -0.5705453922,
				"z": 2.5477981069,
				"element": "H" 
			},
			{
				"x": 0.1007568606,
				"y": 1.0755152766,
				"z": 0.4798914125,
				"element": "H" 
			},
			{
				"x": -1.3298427426,
				"y": 1.124023881,
				"z": 1.4945594562,
				"element": "H" 
			},
			{
				"x": -2.4570688784,
				"y": -0.2139061542,
				"z": -0.1312561426,
				"element": "H" 
			},
			{
				"x": -0.3083475847,
				"y": 0.4900986197,
				"z": -1.9799649467,
				"element": "H" 
			},
			{
				"x": -1.8207925852,
				"y": -0.3247846429,
				"z": -2.3426809269,
				"element": "H" 
			},
			{
				"x": -0.9913846402,
				"y": -2.3564087029,
				"z": -1.0521928102,
				"element": "H" 
			},
			{
				"x": -0.0595828487,
				"y": -1.9361778015,
				"z": -2.4800195743,
				"element": "H" 
			}
		],
		 "valence_orbital": [ 
			{
				"type": "occ",
				"energy": -0.33419,
				"method": "rhf"
			},
			{
				"type": "occ",
				"energy": -0.3185,
				"method": "rhf"
			},
			{
				"type": "occ",
				"energy": -0.30644,
				"method": "rhf"
			},
			{
				"type": "occ",
				"energy": -0.30581,
				"method": "rhf"
			},
			{
				"type": "occ",
				"energy": -0.20616,
				"method": "rhf"
			},
			{
				"type": "unocc",
				"energy": 0.07856,
				"method": "rhf"
			},
			{
				"type": "unocc",
				"energy": 0.10283,
				"method": "rhf"
			},
			{
				"type": "unocc",
				"energy": 0.11651,
				"method": "rhf"
			},
			{
				"type": "unocc",
				"energy": 0.13449,
				"method": "rhf"
			},
			{
				"type": "unocc",
				"energy": 0.13686,
				"method": "rhf"
			}
		],
		"cosmo_sigma_profile": { 
			"-0.025": 0.0,
			"-0.024": 0.0,
			"-0.023": 0.0,
			"-0.022": 0.0,
			"-0.021": 0.0,
			"-0.02": 0.0,
			"-0.019": 0.0,
			"-0.018": 0.0,
			"-0.017": 0.0,
			"-0.016": 0.0,
			"-0.015": 0.0,
			"-0.014": 0.0,
			"-0.013": 0.0,
			"-0.012": 0.0,
			"-0.011": 0.0,
			"-0.01": 0.0,
			"-0.009": 0.499978023923,
			"-0.008": 1.60351831897,
			"-0.007": 0.830149372301,
			"-0.006": 1.67547577033,
			"-0.005": 1.75350078655,
			"-0.004": 2.07635481754,
			"-0.003": 5.87678763838,
			"-0.002": 29.0286548853,
			"-0.001": 32.7866733914,
			"0.0": 33.1896204677,
			"0.001": 21.6553254595,
			"0.002": 8.66066711139,
			"0.003": 1.19004580497,
			"0.004": 1.18241989284,
			"0.005": 1.11286918104,
			"0.006": 1.22993116873,
			"0.007": 0.529871330125,
			"0.008": 0.896430892685,
			"0.009": 0.756269801367,
			"0.01": 0.848429728651,
			"0.011": 0.386447225387,
			"0.012": 0.449473609275,
			"0.013": 0.694275113732,
			"0.014": 1.20680092236,
			"0.015": 0.307956207557,
			"0.016": 0.304384408416,
			"0.017": 0.691111262748,
			"0.018": 0.483210826071,
			"0.019": 0.382277502764,
			"0.02": 0.0,
			"0.021": 0.0,
			"0.022": 0.0,
			"0.023": 0.0,
			"0.024": 0.0,
			"0.025": 0.0
		}
	}
}
