{
	 "smiles": "CCCCCCCCCCCCSC1=NC2=C(C=CC=C2)C(=O)N1C1=CC=CC=C1", 
	 "Tm": 336.15, 
	 "num_atms": 64, 
	 "gaussian": { 
		 "optdone": 1, 
		 "sigma_profile": "yes", 
		 "theory": "DFT", 
		 "functional": "B3LYP", 
		 "basiset": "6-31G**", 
		 "properties": { 
			 "R2extent": 24747.6826, 
			 "electric_dipole_moment_norm": 2.74732488978, 
			 "electric_quadrupole_moment_norm": 23.5034508477, 
			 "total_energy": -1594.22800403, 
			 "HOMO_LUMO_gap": 0.17822, 
			 "cosmo_polarized_energy": -12.78, 
			 "cosmo_cavitation_energy": 66.11, 
			 "cosmo_dispersion_energy": -44.1, 
			 "cosmo_repulsion_energy": 3.39, 
			 "cosmo_total_nonelectrostatic_energy": 25.4, 
			 "SMD_solvation_energy": 8.98 
		},
		"coords": [
			{
				"x": 3.1329903613,
				"y": -5.5181228052,
				"z": -5.6319041458,
				"element": "C" 
			},
			{
				"x": 1.7767067406,
				"y": -4.8057947975,
				"z": -5.6406046251,
				"element": "C" 
			},
			{
				"x": 1.6862900013,
				"y": -3.659725043,
				"z": -4.6238759316,
				"element": "C" 
			},
			{
				"x": 0.3245331753,
				"y": -2.952258684,
				"z": -4.6348896324,
				"element": "C" 
			},
			{
				"x": 0.1850146071,
				"y": -1.7404576969,
				"z": -3.6953281894,
				"element": "C" 
			},
			{
				"x": 0.2995858319,
				"y": -2.0615614842,
				"z": -2.1860443738,
				"element": "C" 
			},
			{
				"x": 1.7125018391,
				"y": -1.9488923983,
				"z": -1.5637180868,
				"element": "C" 
			},
			{
				"x": 2.0372396923,
				"y": -0.5885128267,
				"z": -0.9195250904,
				"element": "C" 
			},
			{
				"x": 2.1024118511,
				"y": 0.601658159,
				"z": -1.8913150634,
				"element": "C" 
			},
			{
				"x": 2.5390799702,
				"y": 1.940308065,
				"z": -1.2545987383,
				"element": "C" 
			},
			{
				"x": 1.4088651391,
				"y": 2.8498664242,
				"z": -0.7342268739,
				"element": "C" 
			},
			{
				"x": 0.5999178187,
				"y": 2.2515134086,
				"z": 0.4204640659,
				"element": "C" 
			},
			{
				"x": -0.5843205517,
				"y": 3.5168581107,
				"z": 1.0380612212,
				"element": "S" 
			},
			{
				"x": -1.448678643,
				"y": 2.5552805417,
				"z": 2.263586003,
				"element": "C" 
			},
			{
				"x": -1.1314651013,
				"y": 1.317508046,
				"z": 2.4614508005,
				"element": "N" 
			},
			{
				"x": -1.8285626748,
				"y": 0.6068109248,
				"z": 3.4246259753,
				"element": "C" 
			},
			{
				"x": -2.8635430187,
				"y": 1.1908276368,
				"z": 4.1869879962,
				"element": "C" 
			},
			{
				"x": -3.5481697431,
				"y": 0.4390570911,
				"z": 5.1554375009,
				"element": "C" 
			},
			{
				"x": -3.208690698,
				"y": -0.8881315966,
				"z": 5.36848383,
				"element": "C" 
			},
			{
				"x": -2.1781463186,
				"y": -1.4757589175,
				"z": 4.6119416778,
				"element": "C" 
			},
			{
				"x": -1.4952100952,
				"y": -0.743351713,
				"z": 3.6530769445,
				"element": "C" 
			},
			{
				"x": -3.223157492,
				"y": 2.5934608256,
				"z": 3.9627945452,
				"element": "C" 
			},
			{
				"x": -4.0961662828,
				"y": 3.2072396897,
				"z": 4.5561281891,
				"element": "O" 
			},
			{
				"x": -2.4486818772,
				"y": 3.2335998097,
				"z": 2.9536334151,
				"element": "N" 
			},
			{
				"x": -2.7486285217,
				"y": 4.6204666497,
				"z": 2.678502934,
				"element": "C" 
			},
			{
				"x": -2.092065538,
				"y": 5.62328754,
				"z": 3.3937452717,
				"element": "C" 
			},
			{
				"x": -2.390946412,
				"y": 6.9601856011,
				"z": 3.1330207363,
				"element": "C" 
			},
			{
				"x": -3.344187112,
				"y": 7.2891413929,
				"z": 2.1671083189,
				"element": "C" 
			},
			{
				"x": -4.002563906,
				"y": 6.280177143,
				"z": 1.4611761548,
				"element": "C" 
			},
			{
				"x": -3.7083626032,
				"y": 4.9412932574,
				"z": 1.7171180445,
				"element": "C" 
			},
			{
				"x": 3.9472809754,
				"y": -4.8230636908,
				"z": -5.8671331735,
				"element": "H" 
			},
			{
				"x": 3.3460134981,
				"y": -5.9534508058,
				"z": -4.6487550854,
				"element": "H" 
			},
			{
				"x": 3.1655319262,
				"y": -6.3284606451,
				"z": -6.3676744408,
				"element": "H" 
			},
			{
				"x": 1.5754081693,
				"y": -4.412893702,
				"z": -6.6466482664,
				"element": "H" 
			},
			{
				"x": 0.9795841985,
				"y": -5.5336025672,
				"z": -5.4357411944,
				"element": "H" 
			},
			{
				"x": 2.4804841581,
				"y": -2.9282104651,
				"z": -4.8335065091,
				"element": "H" 
			},
			{
				"x": 1.8950879335,
				"y": -4.0569565704,
				"z": -3.6217115404,
				"element": "H" 
			},
			{
				"x": -0.4589975784,
				"y": -3.6831921913,
				"z": -4.3870994872,
				"element": "H" 
			},
			{
				"x": 0.1112946756,
				"y": -2.6209548914,
				"z": -5.6608787483,
				"element": "H" 
			},
			{
				"x": -0.795735238,
				"y": -1.2870195272,
				"z": -3.8873817068,
				"element": "H" 
			},
			{
				"x": 0.9253645793,
				"y": -0.9803356287,
				"z": -3.974874492,
				"element": "H" 
			},
			{
				"x": -0.3756805686,
				"y": -1.4028169162,
				"z": -1.6240085424,
				"element": "H" 
			},
			{
				"x": -0.0872718719,
				"y": -3.0760995635,
				"z": -2.0228631192,
				"element": "H" 
			},
			{
				"x": 2.474697401,
				"y": -2.1822492205,
				"z": -2.317603838,
				"element": "H" 
			},
			{
				"x": 1.8194920356,
				"y": -2.7139308229,
				"z": -0.7843600654,
				"element": "H" 
			},
			{
				"x": 1.302800621,
				"y": -0.3928824441,
				"z": -0.1277031112,
				"element": "H" 
			},
			{
				"x": 3.0090342165,
				"y": -0.6689280683,
				"z": -0.4126451648,
				"element": "H" 
			},
			{
				"x": 1.134351721,
				"y": 0.7401762932,
				"z": -2.3904382831,
				"element": "H" 
			},
			{
				"x": 2.8140324603,
				"y": 0.345981384,
				"z": -2.6876871332,
				"element": "H" 
			},
			{
				"x": 3.0906321315,
				"y": 2.5224885201,
				"z": -2.0027937075,
				"element": "H" 
			},
			{
				"x": 3.2534521073,
				"y": 1.7451099656,
				"z": -0.4427585884,
				"element": "H" 
			},
			{
				"x": 1.8544231518,
				"y": 3.7987740737,
				"z": -0.4095147187,
				"element": "H" 
			},
			{
				"x": 0.7323610264,
				"y": 3.0938616671,
				"z": -1.56341317,
				"element": "H" 
			},
			{
				"x": 1.2412332909,
				"y": 1.9501506668,
				"z": 1.2521150081,
				"element": "H" 
			},
			{
				"x": 0.0201144625,
				"y": 1.3808036316,
				"z": 0.1139864163,
				"element": "H" 
			},
			{
				"x": -4.3368553396,
				"y": 0.9261037844,
				"z": 5.7192772555,
				"element": "H" 
			},
			{
				"x": -3.7349541991,
				"y": -1.4736290567,
				"z": 6.1160418542,
				"element": "H" 
			},
			{
				"x": -1.913877175,
				"y": -2.5160234485,
				"z": 4.7808742333,
				"element": "H" 
			},
			{
				"x": -0.6981425121,
				"y": -1.1818942748,
				"z": 3.06174681,
				"element": "H" 
			},
			{
				"x": -1.3579394588,
				"y": 5.3512728968,
				"z": 4.1450461754,
				"element": "H" 
			},
			{
				"x": -1.8816194276,
				"y": 7.7431970023,
				"z": 3.6865006056,
				"element": "H" 
			},
			{
				"x": -3.5760712148,
				"y": 8.3310641128,
				"z": 1.9668478782,
				"element": "H" 
			},
			{
				"x": -4.747721237,
				"y": 6.5338579937,
				"z": 0.7133477018,
				"element": "H" 
			},
			{
				"x": -4.2153993578,
				"y": 4.1456801544,
				"z": 1.1810972739,
				"element": "H" 
			}
		],
		 "valence_orbital": [ 
			{
				"type": "occ",
				"energy": -0.25961,
				"method": "rhf"
			},
			{
				"type": "occ",
				"energy": -0.25659,
				"method": "rhf"
			},
			{
				"type": "occ",
				"energy": -0.25344,
				"method": "rhf"
			},
			{
				"type": "occ",
				"energy": -0.25222,
				"method": "rhf"
			},
			{
				"type": "occ",
				"energy": -0.21609,
				"method": "rhf"
			},
			{
				"type": "unocc",
				"energy": -0.03787,
				"method": "rhf"
			},
			{
				"type": "unocc",
				"energy": -0.02821,
				"method": "rhf"
			},
			{
				"type": "unocc",
				"energy": -0.01775,
				"method": "rhf"
			},
			{
				"type": "unocc",
				"energy": -0.00867,
				"method": "rhf"
			},
			{
				"type": "unocc",
				"energy": 0.03277,
				"method": "rhf"
			}
		],
		"cosmo_sigma_profile": { 
			"-0.025": 0.0,
			"-0.024": 0.0,
			"-0.023": 0.0,
			"-0.022": 0.0,
			"-0.021": 0.0,
			"-0.02": 0.0,
			"-0.019": 0.0,
			"-0.018": 0.0,
			"-0.017": 0.0,
			"-0.016": 0.0,
			"-0.015": 0.0,
			"-0.014": 0.0,
			"-0.013": 0.0,
			"-0.012": 0.0,
			"-0.011": 0.0,
			"-0.01": 0.0,
			"-0.009": 0.0,
			"-0.008": 0.0426892877863,
			"-0.007": 6.22864438982,
			"-0.006": 18.7227837566,
			"-0.005": 22.788215961,
			"-0.004": 24.8802552878,
			"-0.003": 29.4601487755,
			"-0.002": 55.6934920289,
			"-0.001": 80.59930469,
			"0.0": 84.1785386882,
			"0.001": 63.8395534604,
			"0.002": 39.8330862728,
			"0.003": 25.6149532979,
			"0.004": 25.0416934741,
			"0.005": 11.8244019464,
			"0.006": 7.16280365968,
			"0.007": 5.31295704799,
			"0.008": 3.31780444642,
			"0.009": 3.11567886823,
			"0.01": 1.65425316581,
			"0.011": 2.60586424169,
			"0.012": 4.24365744764,
			"0.013": 3.30484619879,
			"0.014": 0.0376344854852,
			"0.015": 0.0,
			"0.016": 0.0,
			"0.017": 0.0,
			"0.018": 0.0,
			"0.019": 0.0,
			"0.02": 0.0,
			"0.021": 0.0,
			"0.022": 0.0,
			"0.023": 0.0,
			"0.024": 0.0,
			"0.025": 0.0
		}
	}
}
