{
	 "smiles": "OC(=O)C1=CC(NC(=O)CCN2C=CN=C2)=CC=C1", 
	 "Tm": 490.15, 
	 "num_atms": 32, 
	 "gaussian": { 
		 "optdone": 1, 
		 "sigma_profile": "yes", 
		 "theory": "DFT", 
		 "functional": "B3LYP", 
		 "basiset": "6-31G**", 
		 "properties": { 
			 "R2extent": 6948.6835, 
			 "electric_dipole_moment_norm": 7.09822928976, 
			 "electric_quadrupole_moment_norm": 19.17781046, 
			 "total_energy": -893.168364778, 
			 "HOMO_LUMO_gap": 0.15329, 
			 "cosmo_polarized_energy": -24.84, 
			 "cosmo_cavitation_energy": 37.34, 
			 "cosmo_dispersion_energy": -26.02, 
			 "cosmo_repulsion_energy": 2.01, 
			 "cosmo_total_nonelectrostatic_energy": 13.33, 
			 "SMD_solvation_energy": 6.81 
		},
		"coords": [
			{
				"x": 1.960195726,
				"y": -0.9994123921,
				"z": 5.2916843002,
				"element": "O" 
			},
			{
				"x": 1.7459416332,
				"y": -1.6265910422,
				"z": 4.1098614396,
				"element": "C" 
			},
			{
				"x": 1.6533786423,
				"y": -2.8343484284,
				"z": 4.0225769777,
				"element": "O" 
			},
			{
				"x": 1.6426126946,
				"y": -0.6829332231,
				"z": 2.9615328612,
				"element": "C" 
			},
			{
				"x": 1.3887216214,
				"y": -1.2304899924,
				"z": 1.7009528525,
				"element": "C" 
			},
			{
				"x": 1.2876650225,
				"y": -0.4041719796,
				"z": 0.5769631385,
				"element": "C" 
			},
			{
				"x": 1.0746233446,
				"y": -1.0044925363,
				"z": -0.6864024377,
				"element": "N" 
			},
			{
				"x": 0.2416190503,
				"y": -0.6634323388,
				"z": -1.7323728523,
				"element": "C" 
			},
			{
				"x": 0.2138173884,
				"y": -1.3653507298,
				"z": -2.7356675337,
				"element": "O" 
			},
			{
				"x": -0.6346401655,
				"y": 0.5807486685,
				"z": -1.6048639587,
				"element": "C" 
			},
			{
				"x": -1.8939810933,
				"y": 0.460012145,
				"z": -2.4746234062,
				"element": "C" 
			},
			{
				"x": -2.8782373967,
				"y": -0.4680954401,
				"z": -1.9351913488,
				"element": "N" 
			},
			{
				"x": -3.8593529305,
				"y": -0.1781952476,
				"z": -1.003408669,
				"element": "C" 
			},
			{
				"x": -4.5050093501,
				"y": -1.3657264689,
				"z": -0.7656735811,
				"element": "C" 
			},
			{
				"x": -3.9521706705,
				"y": -2.3788716672,
				"z": -1.5166502293,
				"element": "N" 
			},
			{
				"x": -2.9822696102,
				"y": -1.8093455613,
				"z": -2.2006109673,
				"element": "C" 
			},
			{
				"x": 1.4622084921,
				"y": 0.9799986812,
				"z": 0.729919604,
				"element": "C" 
			},
			{
				"x": 1.6877683285,
				"y": 1.5239933852,
				"z": 1.9947292141,
				"element": "C" 
			},
			{
				"x": 1.7814643027,
				"y": 0.7026568737,
				"z": 3.1161388583,
				"element": "C" 
			},
			{
				"x": 2.010391886,
				"y": -1.7021742853,
				"z": 5.9604362576,
				"element": "H" 
			},
			{
				"x": 1.2645924793,
				"y": -2.3052441823,
				"z": 1.6146520715,
				"element": "H" 
			},
			{
				"x": 1.5023025079,
				"y": -1.911321556,
				"z": -0.8345245618,
				"element": "H" 
			},
			{
				"x": -0.0537132299,
				"y": 1.443722828,
				"z": -1.955451474,
				"element": "H" 
			},
			{
				"x": -0.9023407792,
				"y": 0.7759825593,
				"z": -0.5628957529,
				"element": "H" 
			},
			{
				"x": -1.6080969639,
				"y": 0.1162833126,
				"z": -3.470315632,
				"element": "H" 
			},
			{
				"x": -2.368579556,
				"y": 1.4403372243,
				"z": -2.5725009046,
				"element": "H" 
			},
			{
				"x": -4.0063999868,
				"y": 0.822368797,
				"z": -0.6247342755,
				"element": "H" 
			},
			{
				"x": -5.3409477743,
				"y": -1.5456495384,
				"z": -0.1033622879,
				"element": "H" 
			},
			{
				"x": -2.3088231666,
				"y": -2.2982476245,
				"z": -2.8906491087,
				"element": "H" 
			},
			{
				"x": 1.4458756073,
				"y": 1.6270173663,
				"z": -0.1396242091,
				"element": "H" 
			},
			{
				"x": 1.8144074449,
				"y": 2.5973667819,
				"z": 2.0974914156,
				"element": "H" 
			},
			{
				"x": 1.9694765016,
				"y": 1.1208056113,
				"z": 4.0976841998,
				"element": "H" 
			}
		],
		 "valence_orbital": [ 
			{
				"type": "occ",
				"energy": -0.27291,
				"method": "rhf"
			},
			{
				"type": "occ",
				"energy": -0.25902,
				"method": "rhf"
			},
			{
				"type": "occ",
				"energy": -0.2519,
				"method": "rhf"
			},
			{
				"type": "occ",
				"energy": -0.2466,
				"method": "rhf"
			},
			{
				"type": "occ",
				"energy": -0.21651,
				"method": "rhf"
			},
			{
				"type": "unocc",
				"energy": -0.06322,
				"method": "rhf"
			},
			{
				"type": "unocc",
				"energy": -0.0335,
				"method": "rhf"
			},
			{
				"type": "unocc",
				"energy": 0.00983,
				"method": "rhf"
			},
			{
				"type": "unocc",
				"energy": 0.03406,
				"method": "rhf"
			},
			{
				"type": "unocc",
				"energy": 0.04506,
				"method": "rhf"
			}
		],
		"cosmo_sigma_profile": { 
			"-0.025": 0.0,
			"-0.024": 0.0,
			"-0.023": 0.0,
			"-0.022": 0.0,
			"-0.021": 0.0,
			"-0.02": 0.0,
			"-0.019": 0.133959414645,
			"-0.018": 0.841416496639,
			"-0.017": 0.76220838037,
			"-0.016": 1.32618096148,
			"-0.015": 1.05718431857,
			"-0.014": 1.47309554633,
			"-0.013": 1.37849372039,
			"-0.012": 1.60440503476,
			"-0.011": 2.25435750243,
			"-0.01": 2.45799506515,
			"-0.009": 3.54142104934,
			"-0.008": 7.09615735137,
			"-0.007": 13.6904182843,
			"-0.006": 18.9394138041,
			"-0.005": 20.4905185857,
			"-0.004": 19.8207903195,
			"-0.003": 18.3880818333,
			"-0.002": 16.1923611213,
			"-0.001": 15.8432189287,
			"0.0": 17.027372528,
			"0.001": 20.2266585209,
			"0.002": 21.2870518092,
			"0.003": 17.3768562517,
			"0.004": 9.96252952754,
			"0.005": 9.71760920968,
			"0.006": 8.92072080691,
			"0.007": 6.56446709161,
			"0.008": 5.2368286451,
			"0.009": 4.50192483868,
			"0.01": 4.94161521471,
			"0.011": 6.88795125508,
			"0.012": 7.25237932688,
			"0.013": 4.21921339803,
			"0.014": 1.57779783548,
			"0.015": 1.37090683225,
			"0.016": 1.2059008796,
			"0.017": 0.971547627247,
			"0.018": 1.21068306282,
			"0.019": 0.150818615202,
			"0.02": 0.0,
			"0.021": 0.0,
			"0.022": 0.0,
			"0.023": 0.0,
			"0.024": 0.0,
			"0.025": 0.0
		}
	}
}
