{
	 "smiles": "COC(=O)C1CCN(CC1)C1=NC2=C(S1)C=CC=C2", 
	 "Tm": 365.15, 
	 "num_atms": 35, 
	 "gaussian": { 
		 "optdone": 1, 
		 "sigma_profile": "yes", 
		 "theory": "DFT", 
		 "functional": "B3LYP", 
		 "basiset": "6-31G**", 
		 "properties": { 
			 "R2extent": 9119.1846, 
			 "electric_dipole_moment_norm": 3.92608262903, 
			 "electric_quadrupole_moment_norm": 13.6834515894, 
			 "total_energy": -1201.29272523, 
			 "HOMO_LUMO_gap": 0.19162, 
			 "cosmo_polarized_energy": -13.08, 
			 "cosmo_cavitation_energy": 38.77, 
			 "cosmo_dispersion_energy": -28.79, 
			 "cosmo_repulsion_energy": 2.16, 
			 "cosmo_total_nonelectrostatic_energy": 12.14, 
			 "SMD_solvation_energy": 5.0 
		},
		"coords": [
			{
				"x": -3.5056383753,
				"y": -4.4331148307,
				"z": -0.1922403445,
				"element": "C" 
			},
			{
				"x": -2.4857144604,
				"y": -3.8672043152,
				"z": 0.6496260649,
				"element": "O" 
			},
			{
				"x": -1.3913944977,
				"y": -3.4059609117,
				"z": 0.0052953826,
				"element": "C" 
			},
			{
				"x": -1.2501905322,
				"y": -3.4700837383,
				"z": -1.1980823686,
				"element": "O" 
			},
			{
				"x": -0.4164622066,
				"y": -2.7658921298,
				"z": 0.9849300095,
				"element": "C" 
			},
			{
				"x": -0.8737675052,
				"y": -1.3075913839,
				"z": 1.2951787562,
				"element": "C" 
			},
			{
				"x": -0.2132832768,
				"y": -0.2961691012,
				"z": 0.3584505056,
				"element": "C" 
			},
			{
				"x": 1.2461539486,
				"y": -0.338113393,
				"z": 0.5348882731,
				"element": "N" 
			},
			{
				"x": 1.8669642705,
				"y": -1.6098805439,
				"z": 0.9075183765,
				"element": "C" 
			},
			{
				"x": 1.0172461128,
				"y": -2.78187676,
				"z": 0.4115197693,
				"element": "C" 
			},
			{
				"x": 1.9506797627,
				"y": 0.8218485882,
				"z": 0.4888443871,
				"element": "C" 
			},
			{
				"x": 1.439878623,
				"y": 1.9836608042,
				"z": 0.192820676,
				"element": "N" 
			},
			{
				"x": 2.4041519461,
				"y": 2.9748866848,
				"z": 0.2270730807,
				"element": "C" 
			},
			{
				"x": 3.7152135264,
				"y": 2.5567899248,
				"z": 0.564631884,
				"element": "C" 
			},
			{
				"x": 3.7130594822,
				"y": 0.8191540096,
				"z": 0.8609064061,
				"element": "S" 
			},
			{
				"x": 4.7817049919,
				"y": 3.4505112645,
				"z": 0.6295786917,
				"element": "C" 
			},
			{
				"x": 4.5329335735,
				"y": 4.7961125278,
				"z": 0.3533488593,
				"element": "C" 
			},
			{
				"x": 3.2413619073,
				"y": 5.2278918195,
				"z": 0.0180127627,
				"element": "C" 
			},
			{
				"x": 2.1780927296,
				"y": 4.3311745061,
				"z": -0.0479808566,
				"element": "C" 
			},
			{
				"x": -3.1124115297,
				"y": -5.2858948859,
				"z": -0.7508901065,
				"element": "H" 
			},
			{
				"x": -4.3010206001,
				"y": -4.7502071233,
				"z": 0.4819093688,
				"element": "H" 
			},
			{
				"x": -3.8767151895,
				"y": -3.6890261808,
				"z": -0.90142661,
				"element": "H" 
			},
			{
				"x": -0.4717383587,
				"y": -3.341825579,
				"z": 1.9137838164,
				"element": "H" 
			},
			{
				"x": -1.9627943932,
				"y": -1.2240802158,
				"z": 1.2269778993,
				"element": "H" 
			},
			{
				"x": -0.6054656437,
				"y": -1.0606906208,
				"z": 2.3280340404,
				"element": "H" 
			},
			{
				"x": -0.4778515646,
				"y": -0.5082877184,
				"z": -0.6866104717,
				"element": "H" 
			},
			{
				"x": -0.5417839485,
				"y": 0.7209629279,
				"z": 0.577540327,
				"element": "H" 
			},
			{
				"x": 2.8593720382,
				"y": -1.6691427867,
				"z": 0.4468535498,
				"element": "H" 
			},
			{
				"x": 2.0144320579,
				"y": -1.669766206,
				"z": 1.9978388289,
				"element": "H" 
			},
			{
				"x": 1.5198029898,
				"y": -3.7195614385,
				"z": 0.6689283515,
				"element": "H" 
			},
			{
				"x": 0.955777126,
				"y": -2.7424739778,
				"z": -0.6798535911,
				"element": "H" 
			},
			{
				"x": 5.7807296347,
				"y": 3.1137822629,
				"z": 0.8888579765,
				"element": "H" 
			},
			{
				"x": 5.348675385,
				"y": 5.5112208111,
				"z": 0.3994943654,
				"element": "H" 
			},
			{
				"x": 3.0673816098,
				"y": 6.2788329066,
				"z": -0.1945887603,
				"element": "H" 
			},
			{
				"x": 1.176520366,
				"y": 4.6572148026,
				"z": -0.3090693002,
				"element": "H" 
			}
		],
		 "valence_orbital": [ 
			{
				"type": "occ",
				"energy": -0.27882,
				"method": "rhf"
			},
			{
				"type": "occ",
				"energy": -0.26772,
				"method": "rhf"
			},
			{
				"type": "occ",
				"energy": -0.26316,
				"method": "rhf"
			},
			{
				"type": "occ",
				"energy": -0.22215,
				"method": "rhf"
			},
			{
				"type": "occ",
				"energy": -0.19361,
				"method": "rhf"
			},
			{
				"type": "unocc",
				"energy": -0.00199,
				"method": "rhf"
			},
			{
				"type": "unocc",
				"energy": 0.00048,
				"method": "rhf"
			},
			{
				"type": "unocc",
				"energy": 0.00863,
				"method": "rhf"
			},
			{
				"type": "unocc",
				"energy": 0.0155,
				"method": "rhf"
			},
			{
				"type": "unocc",
				"energy": 0.0568,
				"method": "rhf"
			}
		],
		"cosmo_sigma_profile": { 
			"-0.025": 0.0,
			"-0.024": 0.0,
			"-0.023": 0.0,
			"-0.022": 0.0,
			"-0.021": 0.0,
			"-0.02": 0.0,
			"-0.019": 0.0,
			"-0.018": 0.0,
			"-0.017": 0.0,
			"-0.016": 0.0,
			"-0.015": 0.0,
			"-0.014": 0.0,
			"-0.013": 0.0,
			"-0.012": 0.0,
			"-0.011": 0.0,
			"-0.01": 0.0,
			"-0.009": 0.0,
			"-0.008": 0.0,
			"-0.007": 1.54339985531,
			"-0.006": 10.6304674656,
			"-0.005": 33.6563047344,
			"-0.004": 41.3613468097,
			"-0.003": 37.6597439536,
			"-0.002": 24.1850296291,
			"-0.001": 18.9616980551,
			"0.0": 16.2477071062,
			"0.001": 15.7236385118,
			"0.002": 18.9063351194,
			"0.003": 15.177447664,
			"0.004": 17.8387743571,
			"0.005": 17.5719914726,
			"0.006": 13.7237026879,
			"0.007": 5.08395577571,
			"0.008": 3.08038832736,
			"0.009": 3.64446736957,
			"0.01": 4.04687701748,
			"0.011": 3.48403183802,
			"0.012": 4.98653425215,
			"0.013": 0.952113237235,
			"0.014": 0.356748212817,
			"0.015": 0.0,
			"0.016": 0.0,
			"0.017": 0.0,
			"0.018": 0.0,
			"0.019": 0.0,
			"0.02": 0.0,
			"0.021": 0.0,
			"0.022": 0.0,
			"0.023": 0.0,
			"0.024": 0.0,
			"0.025": 0.0
		}
	}
}
