{
	 "smiles": "COC(=O)C(C)(N)C(C1=CC=CC=C1)C1=CC=CC=C1", 
	 "Tm": 342.15, 
	 "num_atms": 39, 
	 "gaussian": { 
		 "optdone": 1, 
		 "sigma_profile": "yes", 
		 "theory": "DFT", 
		 "functional": "B3LYP", 
		 "basiset": "6-31G**", 
		 "properties": { 
			 "R2extent": 5469.7094, 
			 "electric_dipole_moment_norm": 2.37143236252, 
			 "electric_quadrupole_moment_norm": 7.72426214146, 
			 "total_energy": -864.462700932, 
			 "HOMO_LUMO_gap": 0.21805, 
			 "cosmo_polarized_energy": -11.17, 
			 "cosmo_cavitation_energy": 40.04, 
			 "cosmo_dispersion_energy": -26.98, 
			 "cosmo_repulsion_energy": 2.08, 
			 "cosmo_total_nonelectrostatic_energy": 15.14, 
			 "SMD_solvation_energy": 7.69 
		},
		"coords": [
			{
				"x": 1.3789541549,
				"y": -2.7275909526,
				"z": 3.0958555542,
				"element": "C" 
			},
			{
				"x": 1.0619580438,
				"y": -1.453487033,
				"z": 2.506796466,
				"element": "O" 
			},
			{
				"x": 1.854637054,
				"y": -1.072835955,
				"z": 1.4911715509,
				"element": "C" 
			},
			{
				"x": 2.8189213644,
				"y": -1.715200819,
				"z": 1.1201187049,
				"element": "O" 
			},
			{
				"x": 1.4523194383,
				"y": 0.2735569804,
				"z": 0.8365700898,
				"element": "C" 
			},
			{
				"x": 0.4956822124,
				"y": 1.0792794098,
				"z": 1.7225078708,
				"element": "C" 
			},
			{
				"x": 2.6849597792,
				"y": 1.0542717955,
				"z": 0.6325564598,
				"element": "N" 
			},
			{
				"x": 0.8528589167,
				"y": -0.103628241,
				"z": -0.584217046,
				"element": "C" 
			},
			{
				"x": 0.3473709746,
				"y": 1.0630294506,
				"z": -1.4579175457,
				"element": "C" 
			},
			{
				"x": -0.5854708935,
				"y": 0.8013842871,
				"z": -2.4767829951,
				"element": "C" 
			},
			{
				"x": -1.0239265754,
				"y": 1.8064237198,
				"z": -3.3396076453,
				"element": "C" 
			},
			{
				"x": -0.5419855472,
				"y": 3.1082791479,
				"z": -3.2070084243,
				"element": "C" 
			},
			{
				"x": 0.3962952629,
				"y": 3.3818637199,
				"z": -2.2126333996,
				"element": "C" 
			},
			{
				"x": 0.8438036353,
				"y": 2.3738658707,
				"z": -1.3558834503,
				"element": "C" 
			},
			{
				"x": -0.1697458213,
				"y": -1.23632793,
				"z": -0.4575644415,
				"element": "C" 
			},
			{
				"x": -1.4892957987,
				"y": -1.0070204848,
				"z": -0.0350250801,
				"element": "C" 
			},
			{
				"x": -2.3910335421,
				"y": -2.0612051677,
				"z": 0.1074611616,
				"element": "C" 
			},
			{
				"x": -1.9953430409,
				"y": -3.3705085592,
				"z": -0.1760385173,
				"element": "C" 
			},
			{
				"x": -0.6917929693,
				"y": -3.6132375965,
				"z": -0.6085116487,
				"element": "C" 
			},
			{
				"x": 0.2092477849,
				"y": -2.5545153494,
				"z": -0.7482513579,
				"element": "C" 
			},
			{
				"x": 0.6788920152,
				"y": -2.8514197461,
				"z": 3.921782462,
				"element": "H" 
			},
			{
				"x": 2.4102631301,
				"y": -2.7394372702,
				"z": 3.4558848577,
				"element": "H" 
			},
			{
				"x": 1.2480000754,
				"y": -3.5239634842,
				"z": 2.3594463012,
				"element": "H" 
			},
			{
				"x": 0.9752056286,
				"y": 1.3153762637,
				"z": 2.6785199156,
				"element": "H" 
			},
			{
				"x": 0.2251170155,
				"y": 2.0156578688,
				"z": 1.2321412778,
				"element": "H" 
			},
			{
				"x": -0.4101939287,
				"y": 0.5162195643,
				"z": 1.9447534857,
				"element": "H" 
			},
			{
				"x": 3.0522882622,
				"y": 1.3401440098,
				"z": 1.5384798033,
				"element": "H" 
			},
			{
				"x": 3.3882576889,
				"y": 0.4404517854,
				"z": 0.2241182139,
				"element": "H" 
			},
			{
				"x": 1.7136679816,
				"y": -0.5345330024,
				"z": -1.1140044594,
				"element": "H" 
			},
			{
				"x": -0.9771146055,
				"y": -0.2019040395,
				"z": -2.6027935085,
				"element": "H" 
			},
			{
				"x": -1.7456640712,
				"y": 1.5662021282,
				"z": -4.1157198702,
				"element": "H" 
			},
			{
				"x": -0.8857574584,
				"y": 3.8942076453,
				"z": -3.8737366341,
				"element": "H" 
			},
			{
				"x": 0.7954288185,
				"y": 4.3868532356,
				"z": -2.1026604023,
				"element": "H" 
			},
			{
				"x": 1.6076425187,
				"y": 2.5896588758,
				"z": -0.6197639072,
				"element": "H" 
			},
			{
				"x": -1.8210573378,
				"y": 0.0079867866,
				"z": 0.1590344333,
				"element": "H" 
			},
			{
				"x": -3.4071266692,
				"y": -1.8582308589,
				"z": 0.4343696105,
				"element": "H" 
			},
			{
				"x": -2.6996590388,
				"y": -4.190638809,
				"z": -0.0692821171,
				"element": "H" 
			},
			{
				"x": -0.3737715674,
				"y": -4.6248512949,
				"z": -0.8453454717,
				"element": "H" 
			},
			{
				"x": 1.2246671095,
				"y": -2.7542759521,
				"z": -1.0788202962,
				"element": "H" 
			}
		],
		 "valence_orbital": [ 
			{
				"type": "occ",
				"energy": -0.25033,
				"method": "rhf"
			},
			{
				"type": "occ",
				"energy": -0.24745,
				"method": "rhf"
			},
			{
				"type": "occ",
				"energy": -0.24378,
				"method": "rhf"
			},
			{
				"type": "occ",
				"energy": -0.23592,
				"method": "rhf"
			},
			{
				"type": "occ",
				"energy": -0.2271,
				"method": "rhf"
			},
			{
				"type": "unocc",
				"energy": -0.00905,
				"method": "rhf"
			},
			{
				"type": "unocc",
				"energy": -0.00274,
				"method": "rhf"
			},
			{
				"type": "unocc",
				"energy": 0.00331,
				"method": "rhf"
			},
			{
				"type": "unocc",
				"energy": 0.01252,
				"method": "rhf"
			},
			{
				"type": "unocc",
				"energy": 0.01687,
				"method": "rhf"
			}
		],
		"cosmo_sigma_profile": { 
			"-0.025": 0.0,
			"-0.024": 0.0,
			"-0.023": 0.0,
			"-0.022": 0.0,
			"-0.021": 0.0,
			"-0.02": 0.0,
			"-0.019": 0.0,
			"-0.018": 0.0,
			"-0.017": 0.0,
			"-0.016": 0.0,
			"-0.015": 0.0,
			"-0.014": 0.0,
			"-0.013": 0.0,
			"-0.012": 0.0,
			"-0.011": 0.294062104938,
			"-0.01": 1.77109504343,
			"-0.009": 2.25156591323,
			"-0.008": 2.30027988354,
			"-0.007": 4.32175598224,
			"-0.006": 9.81605992338,
			"-0.005": 24.8429347661,
			"-0.004": 29.4792644865,
			"-0.003": 33.4779665498,
			"-0.002": 23.4972474506,
			"-0.001": 24.2026615851,
			"0.0": 25.9741836008,
			"0.001": 23.3093070512,
			"0.002": 20.1019794784,
			"0.003": 17.5532775636,
			"0.004": 17.0369126837,
			"0.005": 19.6355076323,
			"0.006": 15.7616336922,
			"0.007": 7.21816077134,
			"0.008": 2.34859525443,
			"0.009": 2.17844001955,
			"0.01": 2.70896864606,
			"0.011": 2.43206516059,
			"0.012": 3.43781725923,
			"0.013": 0.29345886168,
			"0.014": 0.0,
			"0.015": 0.0,
			"0.016": 0.0,
			"0.017": 0.0,
			"0.018": 0.0,
			"0.019": 0.0,
			"0.02": 0.0,
			"0.021": 0.0,
			"0.022": 0.0,
			"0.023": 0.0,
			"0.024": 0.0,
			"0.025": 0.0
		}
	}
}
