{
	 "smiles": "OCCCl", 
	 "Tm": 207.95, 
	 "num_atms": 9, 
	 "gaussian": { 
		 "optdone": 1, 
		 "sigma_profile": "yes", 
		 "theory": "DFT", 
		 "functional": "B3LYP", 
		 "basiset": "6-31G**", 
		 "properties": { 
			 "R2extent": 576.3891, 
			 "electric_dipole_moment_norm": 3.0946034334, 
			 "electric_quadrupole_moment_norm": 6.22416212353, 
			 "total_energy": -614.631684191, 
			 "HOMO_LUMO_gap": 0.30523, 
			 "cosmo_polarized_energy": -10.14, 
			 "cosmo_cavitation_energy": 13.93, 
			 "cosmo_dispersion_energy": -10.69, 
			 "cosmo_repulsion_energy": 1.0, 
			 "cosmo_total_nonelectrostatic_energy": 4.24, 
			 "SMD_solvation_energy": 2.34 
		},
		"coords": [
			{
				"x": 1.0722107562,
				"y": 0.2288906152,
				"z": 0.1945501949,
				"element": "O" 
			},
			{
				"x": 0.6411470207,
				"y": -0.8708949286,
				"z": 0.9646284842,
				"element": "C" 
			},
			{
				"x": -0.8607206103,
				"y": -0.9177433031,
				"z": 1.2180926212,
				"element": "C" 
			},
			{
				"x": -1.8243819486,
				"y": -1.0417000764,
				"z": -0.3112553258,
				"element": "Cl" 
			},
			{
				"x": 0.8297070695,
				"y": 1.0421607926,
				"z": 0.6564060767,
				"element": "H" 
			},
			{
				"x": 0.9512677951,
				"y": -1.7660320455,
				"z": 0.4180800195,
				"element": "H" 
			},
			{
				"x": 1.131240454,
				"y": -0.9010207675,
				"z": 1.9543026299,
				"element": "H" 
			},
			{
				"x": -1.2078301182,
				"y": -0.0156029006,
				"z": 1.7293465709,
				"element": "H" 
			},
			{
				"x": -1.1178404184,
				"y": -1.7865573861,
				"z": 1.8282487285,
				"element": "H" 
			}
		],
		 "valence_orbital": [ 
			{
				"type": "occ",
				"energy": -0.39807,
				"method": "rhf"
			},
			{
				"type": "occ",
				"energy": -0.34324,
				"method": "rhf"
			},
			{
				"type": "occ",
				"energy": -0.30086,
				"method": "rhf"
			},
			{
				"type": "occ",
				"energy": -0.29358,
				"method": "rhf"
			},
			{
				"type": "occ",
				"energy": -0.27868,
				"method": "rhf"
			},
			{
				"type": "unocc",
				"energy": 0.02655,
				"method": "rhf"
			},
			{
				"type": "unocc",
				"energy": 0.06418,
				"method": "rhf"
			},
			{
				"type": "unocc",
				"energy": 0.11518,
				"method": "rhf"
			},
			{
				"type": "unocc",
				"energy": 0.12182,
				"method": "rhf"
			},
			{
				"type": "unocc",
				"energy": 0.14605,
				"method": "rhf"
			}
		],
		"cosmo_sigma_profile": { 
			"-0.025": 0.0,
			"-0.024": 0.0,
			"-0.023": 0.0,
			"-0.022": 0.0,
			"-0.021": 0.0,
			"-0.02": 0.0,
			"-0.019": 0.0,
			"-0.018": 0.0,
			"-0.017": 0.0,
			"-0.016": 0.59381803449,
			"-0.015": 1.42733648293,
			"-0.014": 1.14880635083,
			"-0.013": 0.724029210239,
			"-0.012": 1.43077093819,
			"-0.011": 1.58037114924,
			"-0.01": 0.859233094699,
			"-0.009": 1.07821862356,
			"-0.008": 2.1093973177,
			"-0.007": 6.31476240145,
			"-0.006": 7.65851862984,
			"-0.005": 11.1290977797,
			"-0.004": 6.89005301028,
			"-0.003": 5.91589281181,
			"-0.002": 4.13046448923,
			"-0.001": 2.19608373711,
			"0.0": 3.37820128011,
			"0.001": 4.17762618955,
			"0.002": 4.31285375004,
			"0.003": 3.76112227179,
			"0.004": 4.81552071768,
			"0.005": 5.45747085091,
			"0.006": 8.21862887758,
			"0.007": 8.41631162804,
			"0.008": 2.14441733578,
			"0.009": 1.43635829439,
			"0.01": 2.03963839274,
			"0.011": 1.67031829345,
			"0.012": 1.94245044385,
			"0.013": 1.79959797445,
			"0.014": 2.21500811132,
			"0.015": 0.0879907590432,
			"0.016": 0.0,
			"0.017": 0.0,
			"0.018": 0.0,
			"0.019": 0.0,
			"0.02": 0.0,
			"0.021": 0.0,
			"0.022": 0.0,
			"0.023": 0.0,
			"0.024": 0.0,
			"0.025": 0.0
		}
	}
}
