{
	 "smiles": "CC1=NN(C(C)=C1Br)C1=CC=C(C=C1)C(O)=O", 
	 "Tm": 503.15, 
	 "num_atms": 28, 
	 "gaussian": { 
		 "optdone": 1, 
		 "sigma_profile": "yes", 
		 "theory": "DFT", 
		 "functional": "B3LYP", 
		 "basiset": "6-31G**", 
		 "properties": { 
			 "R2extent": 8692.6093, 
			 "electric_dipole_moment_norm": 2.40863006915, 
			 "electric_quadrupole_moment_norm": 13.9508030013, 
			 "total_energy": -3295.27390482, 
			 "HOMO_LUMO_gap": 0.1694, 
			 "cosmo_polarized_energy": -12.38, 
			 "cosmo_cavitation_energy": 34.9, 
			 "cosmo_dispersion_energy": -25.54, 
			 "cosmo_repulsion_energy": 1.98, 
			 "cosmo_total_nonelectrostatic_energy": 11.34, 
			 "SMD_solvation_energy": 5.43 
		},
		"coords": [
			{
				"x": 3.6759386068,
				"y": -3.1152148541,
				"z": 1.1125618187,
				"element": "C" 
			},
			{
				"x": 2.4919378397,
				"y": -2.2307649716,
				"z": 1.3311176181,
				"element": "C" 
			},
			{
				"x": 1.6084822778,
				"y": -2.0034801109,
				"z": 0.36782033,
				"element": "N" 
			},
			{
				"x": 0.663390277,
				"y": -1.1767375377,
				"z": 0.9100237277,
				"element": "N" 
			},
			{
				"x": 0.9441276689,
				"y": -0.8516805606,
				"z": 2.2190216899,
				"element": "C" 
			},
			{
				"x": 0.1664885612,
				"y": 0.0915317555,
				"z": 3.077412821,
				"element": "C" 
			},
			{
				"x": 2.1144079665,
				"y": -1.5292026814,
				"z": 2.5029202452,
				"element": "C" 
			},
			{
				"x": 3.0466973811,
				"y": -1.5029412787,
				"z": 4.1423439013,
				"element": "Br" 
			},
			{
				"x": -0.3948675606,
				"y": -0.7355509179,
				"z": 0.0766598923,
				"element": "C" 
			},
			{
				"x": -1.6828044408,
				"y": -0.5266943165,
				"z": 0.5870189862,
				"element": "C" 
			},
			{
				"x": -2.6998332696,
				"y": -0.089215285,
				"z": -0.2568521557,
				"element": "C" 
			},
			{
				"x": -2.447440832,
				"y": 0.1246470854,
				"z": -1.6175193073,
				"element": "C" 
			},
			{
				"x": -1.1610337297,
				"y": -0.1111391273,
				"z": -2.1246149388,
				"element": "C" 
			},
			{
				"x": -0.1383487158,
				"y": -0.53505253,
				"z": -1.2881904806,
				"element": "C" 
			},
			{
				"x": -3.4982705113,
				"y": 0.5872558221,
				"z": -2.5586274772,
				"element": "C" 
			},
			{
				"x": -4.7007219394,
				"y": 0.7827177006,
				"z": -1.9591717829,
				"element": "O" 
			},
			{
				"x": -3.3311458818,
				"y": 0.7810746692,
				"z": -3.7468314955,
				"element": "O" 
			},
			{
				"x": 3.6720703428,
				"y": -3.4891462264,
				"z": 0.0870123977,
				"element": "H" 
			},
			{
				"x": 4.6109828814,
				"y": -2.5724307819,
				"z": 1.2877654483,
				"element": "H" 
			},
			{
				"x": 3.6637663378,
				"y": -3.9685450805,
				"z": 1.7990747959,
				"element": "H" 
			},
			{
				"x": -0.2147975785,
				"y": 0.9400907107,
				"z": 2.5031595726,
				"element": "H" 
			},
			{
				"x": 0.8207727085,
				"y": 0.4695781899,
				"z": 3.8661703296,
				"element": "H" 
			},
			{
				"x": -0.6856231929,
				"y": -0.3947495302,
				"z": 3.5665515531,
				"element": "H" 
			},
			{
				"x": -1.8996629396,
				"y": -0.7325673361,
				"z": 1.6275861807,
				"element": "H" 
			},
			{
				"x": -3.6972016474,
				"y": 0.0703566403,
				"z": 0.1361866864,
				"element": "H" 
			},
			{
				"x": -0.9813267678,
				"y": 0.0537357345,
				"z": -3.1814447015,
				"element": "H" 
			},
			{
				"x": 0.8586401593,
				"y": -0.7222872607,
				"z": -1.666886918,
				"element": "H" 
			},
			{
				"x": -5.3004240018,
				"y": 1.0776120793,
				"z": -2.6638687373,
				"element": "H" 
			}
		],
		 "valence_orbital": [ 
			{
				"type": "occ",
				"energy": -0.28498,
				"method": "rhf"
			},
			{
				"type": "occ",
				"energy": -0.28007,
				"method": "rhf"
			},
			{
				"type": "occ",
				"energy": -0.27002,
				"method": "rhf"
			},
			{
				"type": "occ",
				"energy": -0.2461,
				"method": "rhf"
			},
			{
				"type": "occ",
				"energy": -0.22864,
				"method": "rhf"
			},
			{
				"type": "unocc",
				"energy": -0.05924,
				"method": "rhf"
			},
			{
				"type": "unocc",
				"energy": -0.01945,
				"method": "rhf"
			},
			{
				"type": "unocc",
				"energy": 0.00604,
				"method": "rhf"
			},
			{
				"type": "unocc",
				"energy": 0.01622,
				"method": "rhf"
			},
			{
				"type": "unocc",
				"energy": 0.05341,
				"method": "rhf"
			}
		],
		"cosmo_sigma_profile": { 
			"-0.025": 0.0,
			"-0.024": 0.0,
			"-0.023": 0.0,
			"-0.022": 0.0,
			"-0.021": 0.0,
			"-0.02": 0.0,
			"-0.019": 0.0,
			"-0.018": 0.80169133739,
			"-0.017": 1.070680521,
			"-0.016": 0.452068902294,
			"-0.015": 1.01073843217,
			"-0.014": 0.83803092652,
			"-0.013": 0.640408150534,
			"-0.012": 0.682028685491,
			"-0.011": 0.92691180338,
			"-0.01": 0.547341211993,
			"-0.009": 0.627401776138,
			"-0.008": 2.50273813725,
			"-0.007": 5.68243342597,
			"-0.006": 9.39517182754,
			"-0.005": 15.5872301641,
			"-0.004": 18.1263553784,
			"-0.003": 20.675680961,
			"-0.002": 25.173513905,
			"-0.001": 25.5813083074,
			"0.0": 26.0974784533,
			"0.001": 23.443602248,
			"0.002": 28.9544788931,
			"0.003": 22.5461282797,
			"0.004": 14.4527658916,
			"0.005": 7.05953125963,
			"0.006": 4.67108013368,
			"0.007": 5.62411262458,
			"0.008": 2.94788494352,
			"0.009": 2.30339211044,
			"0.01": 3.29546286111,
			"0.011": 4.91388610326,
			"0.012": 4.39741118721,
			"0.013": 0.854260557624,
			"0.014": 0.276583065538,
			"0.015": 0.0,
			"0.016": 0.0,
			"0.017": 0.0,
			"0.018": 0.0,
			"0.019": 0.0,
			"0.02": 0.0,
			"0.021": 0.0,
			"0.022": 0.0,
			"0.023": 0.0,
			"0.024": 0.0,
			"0.025": 0.0
		}
	}
}
