{
	 "smiles": "CC1=CC(C)=C(C(C)=C1)C1(C)CC(C1)C(=N/O)C1=CC2=C(O1)C=CC=C2", 
	 "Tm": 463.15, 
	 "num_atms": 51, 
	 "gaussian": { 
		 "optdone": 1, 
		 "sigma_profile": "yes", 
		 "theory": "DFT", 
		 "functional": "B3LYP", 
		 "basiset": "6-31G**", 
		 "properties": { 
			 "R2extent": 12182.862, 
			 "electric_dipole_moment_norm": 0.544433292516, 
			 "electric_quadrupole_moment_norm": 10.640645698, 
			 "total_energy": -1096.63656432, 
			 "HOMO_LUMO_gap": 0.16741, 
			 "cosmo_polarized_energy": -11.16, 
			 "cosmo_cavitation_energy": 50.85, 
			 "cosmo_dispersion_energy": -34.88, 
			 "cosmo_repulsion_energy": 2.63, 
			 "cosmo_total_nonelectrostatic_energy": 18.59, 
			 "SMD_solvation_energy": 8.29 
		},
		"coords": [
			{
				"x": 2.4435870997,
				"y": -2.8455270081,
				"z": 5.7187850143,
				"element": "C" 
			},
			{
				"x": 1.7927259587,
				"y": -2.3999512583,
				"z": 4.430395357,
				"element": "C" 
			},
			{
				"x": 1.704424722,
				"y": -1.0512606853,
				"z": 4.0894148532,
				"element": "C" 
			},
			{
				"x": 1.0886409999,
				"y": -0.6118697931,
				"z": 2.9108851627,
				"element": "C" 
			},
			{
				"x": 1.0134156883,
				"y": 0.891518493,
				"z": 2.7118096953,
				"element": "C" 
			},
			{
				"x": 0.5529785687,
				"y": -1.555749604,
				"z": 1.9978523529,
				"element": "C" 
			},
			{
				"x": 0.575294709,
				"y": -2.9239779586,
				"z": 2.3701263759,
				"element": "C" 
			},
			{
				"x": -0.0778322979,
				"y": -4.0299697591,
				"z": 1.5602987321,
				"element": "C" 
			},
			{
				"x": 1.2017239131,
				"y": -3.3144760451,
				"z": 3.5602880392,
				"element": "C" 
			},
			{
				"x": -0.0987456534,
				"y": -1.1041216487,
				"z": 0.6835574719,
				"element": "C" 
			},
			{
				"x": -1.5991481192,
				"y": -0.8268897145,
				"z": 0.9093882302,
				"element": "C" 
			},
			{
				"x": 0.5811881424,
				"y": 0.0662739593,
				"z": -0.1126405628,
				"element": "C" 
			},
			{
				"x": 0.4460851097,
				"y": -0.7210361955,
				"z": -1.442651975,
				"element": "C" 
			},
			{
				"x": 0.1265048702,
				"y": -1.9905943426,
				"z": -0.5913279533,
				"element": "C" 
			},
			{
				"x": -0.6126435643,
				"y": -0.349095341,
				"z": -2.4578806407,
				"element": "C" 
			},
			{
				"x": -0.917736946,
				"y": -1.1054807301,
				"z": -3.4614888685,
				"element": "N" 
			},
			{
				"x": -0.1843073956,
				"y": -2.3004776213,
				"z": -3.4465937095,
				"element": "O" 
			},
			{
				"x": -1.392247113,
				"y": 0.8936023498,
				"z": -2.4274312351,
				"element": "C" 
			},
			{
				"x": -2.6698455184,
				"y": 1.1606747901,
				"z": -2.8277960296,
				"element": "C" 
			},
			{
				"x": -2.8806049253,
				"y": 2.5679249927,
				"z": -2.6233249871,
				"element": "C" 
			},
			{
				"x": -1.6690962976,
				"y": 3.0546343108,
				"z": -2.0939802475,
				"element": "C" 
			},
			{
				"x": -0.7613082778,
				"y": 2.03745108,
				"z": -1.9735876916,
				"element": "O" 
			},
			{
				"x": -1.4547567674,
				"y": 4.383368862,
				"z": -1.7485161324,
				"element": "C" 
			},
			{
				"x": -2.5226178599,
				"y": 5.2564952575,
				"z": -1.9528811642,
				"element": "C" 
			},
			{
				"x": -3.7479736193,
				"y": 4.8033125203,
				"z": -2.479495158,
				"element": "C" 
			},
			{
				"x": -3.9419990948,
				"y": 3.4675937921,
				"z": -2.8171714248,
				"element": "C" 
			},
			{
				"x": 2.8635525783,
				"y": -3.8520305709,
				"z": 5.6276816394,
				"element": "H" 
			},
			{
				"x": 3.2505862225,
				"y": -2.1679822836,
				"z": 6.0145914243,
				"element": "H" 
			},
			{
				"x": 1.7208881241,
				"y": -2.8689671338,
				"z": 6.5444918611,
				"element": "H" 
			},
			{
				"x": 2.1179337426,
				"y": -0.3062736252,
				"z": 4.7666717595,
				"element": "H" 
			},
			{
				"x": 1.138967556,
				"y": 1.3976511346,
				"z": 3.6730755853,
				"element": "H" 
			},
			{
				"x": 1.7974895773,
				"y": 1.2688719875,
				"z": 2.0464442744,
				"element": "H" 
			},
			{
				"x": 0.0566161078,
				"y": 1.2147025439,
				"z": 2.2958834848,
				"element": "H" 
			},
			{
				"x": -1.0359141375,
				"y": -3.7295014032,
				"z": 1.1306327284,
				"element": "H" 
			},
			{
				"x": 0.5517606423,
				"y": -4.3749614411,
				"z": 0.7329557821,
				"element": "H" 
			},
			{
				"x": -0.2651872141,
				"y": -4.895554808,
				"z": 2.2019484512,
				"element": "H" 
			},
			{
				"x": 1.2148933031,
				"y": -4.3723872461,
				"z": 3.8158921386,
				"element": "H" 
			},
			{
				"x": -2.1150239138,
				"y": -1.7250018857,
				"z": 1.2647357821,
				"element": "H" 
			},
			{
				"x": -1.7456485081,
				"y": -0.0455504853,
				"z": 1.6622804376,
				"element": "H" 
			},
			{
				"x": -2.0921501237,
				"y": -0.4987174072,
				"z": -0.0120699825,
				"element": "H" 
			},
			{
				"x": 0.1090607175,
				"y": 1.04587077,
				"z": -0.0517423492,
				"element": "H" 
			},
			{
				"x": 1.6377497638,
				"y": 0.1729713485,
				"z": 0.1412592725,
				"element": "H" 
			},
			{
				"x": 1.3851909696,
				"y": -0.8203642287,
				"z": -1.9974306797,
				"element": "H" 
			},
			{
				"x": -0.713779713,
				"y": -2.6019938386,
				"z": -0.9240416056,
				"element": "H" 
			},
			{
				"x": 1.0111778856,
				"y": -2.6249008773,
				"z": -0.516097542,
				"element": "H" 
			},
			{
				"x": -0.4916803399,
				"y": -2.7342628655,
				"z": -4.2536520902,
				"element": "H" 
			},
			{
				"x": -3.3641765073,
				"y": 0.4319310888,
				"z": -3.218026077,
				"element": "H" 
			},
			{
				"x": -0.5048820603,
				"y": 4.7158948743,
				"z": -1.3441581999,
				"element": "H" 
			},
			{
				"x": -2.4065488014,
				"y": 6.3061823526,
				"z": -1.7006994202,
				"element": "H" 
			},
			{
				"x": -4.556019739,
				"y": 5.5143515552,
				"z": -2.6238925892,
				"element": "H" 
			},
			{
				"x": -4.8903624643,
				"y": 3.1286497422,
				"z": -3.2231675905,
				"element": "H" 
			}
		],
		 "valence_orbital": [ 
			{
				"type": "occ",
				"energy": -0.26251,
				"method": "rhf"
			},
			{
				"type": "occ",
				"energy": -0.23717,
				"method": "rhf"
			},
			{
				"type": "occ",
				"energy": -0.22472,
				"method": "rhf"
			},
			{
				"type": "occ",
				"energy": -0.21816,
				"method": "rhf"
			},
			{
				"type": "occ",
				"energy": -0.20993,
				"method": "rhf"
			},
			{
				"type": "unocc",
				"energy": -0.04252,
				"method": "rhf"
			},
			{
				"type": "unocc",
				"energy": 0.00714,
				"method": "rhf"
			},
			{
				"type": "unocc",
				"energy": 0.00934,
				"method": "rhf"
			},
			{
				"type": "unocc",
				"energy": 0.0121,
				"method": "rhf"
			},
			{
				"type": "unocc",
				"energy": 0.01838,
				"method": "rhf"
			}
		],
		"cosmo_sigma_profile": { 
			"-0.025": 0.0,
			"-0.024": 0.0,
			"-0.023": 0.0,
			"-0.022": 0.0,
			"-0.021": 0.0,
			"-0.02": 0.0,
			"-0.019": 0.0,
			"-0.018": 0.131587632886,
			"-0.017": 0.964882922448,
			"-0.016": 1.15922813538,
			"-0.015": 0.825067605149,
			"-0.014": 0.682929502173,
			"-0.013": 0.553141431338,
			"-0.012": 0.68544876069,
			"-0.011": 0.906600326854,
			"-0.01": 0.723547877651,
			"-0.009": 0.43585132493,
			"-0.008": 0.831853893831,
			"-0.007": 3.30012425605,
			"-0.006": 8.06905248946,
			"-0.005": 11.369435766,
			"-0.004": 32.9310006508,
			"-0.003": 43.775295647,
			"-0.002": 36.6074461863,
			"-0.001": 40.7466091918,
			"0.0": 48.1735815516,
			"0.001": 41.4399549787,
			"0.002": 26.1653451999,
			"0.003": 23.2837562934,
			"0.004": 22.7451758097,
			"0.005": 20.5726634332,
			"0.006": 12.6808623735,
			"0.007": 10.1592308253,
			"0.008": 5.68458470294,
			"0.009": 2.77247128595,
			"0.01": 1.04242396861,
			"0.011": 0.710041817201,
			"0.012": 0.76127733809,
			"0.013": 0.237827532005,
			"0.014": 0.0,
			"0.015": 0.0,
			"0.016": 0.0,
			"0.017": 0.0,
			"0.018": 0.0,
			"0.019": 0.0,
			"0.02": 0.0,
			"0.021": 0.0,
			"0.022": 0.0,
			"0.023": 0.0,
			"0.024": 0.0,
			"0.025": 0.0
		}
	}
}
