{
	 "smiles": "CC1=CSC(NC(=O)C2CCCNC2)=N1", 
	 "Tm": 438.15, 
	 "num_atms": 30, 
	 "gaussian": { 
		 "optdone": 1, 
		 "sigma_profile": "yes", 
		 "theory": "DFT", 
		 "functional": "B3LYP", 
		 "basiset": "6-31G**", 
		 "properties": { 
			 "R2extent": 4204.7788, 
			 "electric_dipole_moment_norm": 3.40627128691, 
			 "electric_quadrupole_moment_norm": 14.1095598755, 
			 "total_energy": -1027.77018839, 
			 "HOMO_LUMO_gap": 0.17458, 
			 "cosmo_polarized_energy": -11.61, 
			 "cosmo_cavitation_energy": 32.5, 
			 "cosmo_dispersion_energy": -23.78, 
			 "cosmo_repulsion_energy": 1.82, 
			 "cosmo_total_nonelectrostatic_energy": 10.53, 
			 "SMD_solvation_energy": 2.77 
		},
		"coords": [
			{
				"x": 0.1693504085,
				"y": 1.8947329618,
				"z": 2.1163287385,
				"element": "C" 
			},
			{
				"x": 0.1931917748,
				"y": 2.2457627599,
				"z": 0.6587689381,
				"element": "C" 
			},
			{
				"x": 0.5448384402,
				"y": 3.4515097302,
				"z": 0.1325712071,
				"element": "C" 
			},
			{
				"x": 0.4269917404,
				"y": 3.4183729857,
				"z": -1.6072011039,
				"element": "S" 
			},
			{
				"x": -0.1077430478,
				"y": 1.7326857293,
				"z": -1.4828014671,
				"element": "C" 
			},
			{
				"x": -0.4039531843,
				"y": 1.0669037342,
				"z": -2.6565291241,
				"element": "N" 
			},
			{
				"x": -0.8199826051,
				"y": -0.237993001,
				"z": -3.0092525209,
				"element": "C" 
			},
			{
				"x": -1.006734997,
				"y": -0.4235053901,
				"z": -4.2018637876,
				"element": "O" 
			},
			{
				"x": -1.0122232636,
				"y": -1.3381548103,
				"z": -1.9848531893,
				"element": "C" 
			},
			{
				"x": 0.3015858667,
				"y": -1.7851225807,
				"z": -1.3056772984,
				"element": "C" 
			},
			{
				"x": 0.0183342055,
				"y": -2.9784145982,
				"z": -0.3785067246,
				"element": "C" 
			},
			{
				"x": -1.1508963553,
				"y": -2.6655100631,
				"z": 0.6113628985,
				"element": "C" 
			},
			{
				"x": -1.7380065354,
				"y": -1.3329257455,
				"z": 0.4622148632,
				"element": "N" 
			},
			{
				"x": -2.129501566,
				"y": -1.0446991681,
				"z": -0.9093399596,
				"element": "C" 
			},
			{
				"x": -0.1751975015,
				"y": 1.2784394936,
				"z": -0.2664453014,
				"element": "N" 
			},
			{
				"x": -0.8306990969,
				"y": 1.5651519962,
				"z": 2.418624191,
				"element": "H" 
			},
			{
				"x": 0.8628700912,
				"y": 1.0736058925,
				"z": 2.3301446689,
				"element": "H" 
			},
			{
				"x": 0.4522465981,
				"y": 2.7511283131,
				"z": 2.7326907557,
				"element": "H" 
			},
			{
				"x": 0.8591031338,
				"y": 4.3466476724,
				"z": 0.6487961849,
				"element": "H" 
			},
			{
				"x": -0.3295764557,
				"y": 1.620310091,
				"z": -3.5022090941,
				"element": "H" 
			},
			{
				"x": -1.3470356064,
				"y": -2.1717341821,
				"z": -2.6100329402,
				"element": "H" 
			},
			{
				"x": 0.7283783242,
				"y": -0.9565565233,
				"z": -0.7344667615,
				"element": "H" 
			},
			{
				"x": 1.0346267432,
				"y": -2.0667794984,
				"z": -2.0695591457,
				"element": "H" 
			},
			{
				"x": -0.2314687157,
				"y": -3.853736153,
				"z": -0.9912661905,
				"element": "H" 
			},
			{
				"x": 0.9307583942,
				"y": -3.2367314418,
				"z": 0.1706709684,
				"element": "H" 
			},
			{
				"x": -0.8120808327,
				"y": -2.7649588312,
				"z": 1.6477756753,
				"element": "H" 
			},
			{
				"x": -1.9547011596,
				"y": -3.4009203674,
				"z": 0.4780303504,
				"element": "H" 
			},
			{
				"x": -1.0635126934,
				"y": -0.6221005852,
				"z": 0.7339031581,
				"element": "H" 
			},
			{
				"x": -2.445265887,
				"y": 0.0003467509,
				"z": -0.9533306017,
				"element": "H" 
			},
			{
				"x": -3.0073962174,
				"y": -1.6533551717,
				"z": -1.1576473874,
				"element": "H" 
			}
		],
		 "valence_orbital": [ 
			{
				"type": "occ",
				"energy": -0.29268,
				"method": "rhf"
			},
			{
				"type": "occ",
				"energy": -0.28791,
				"method": "rhf"
			},
			{
				"type": "occ",
				"energy": -0.26415,
				"method": "rhf"
			},
			{
				"type": "occ",
				"energy": -0.22528,
				"method": "rhf"
			},
			{
				"type": "occ",
				"energy": -0.20928,
				"method": "rhf"
			},
			{
				"type": "unocc",
				"energy": -0.0347,
				"method": "rhf"
			},
			{
				"type": "unocc",
				"energy": -0.00786,
				"method": "rhf"
			},
			{
				"type": "unocc",
				"energy": 0.01628,
				"method": "rhf"
			},
			{
				"type": "unocc",
				"energy": 0.0532,
				"method": "rhf"
			},
			{
				"type": "unocc",
				"energy": 0.07722,
				"method": "rhf"
			}
		],
		"cosmo_sigma_profile": { 
			"-0.025": 0.0,
			"-0.024": 0.0,
			"-0.023": 0.0,
			"-0.022": 0.0,
			"-0.021": 0.0,
			"-0.02": 0.0,
			"-0.019": 0.0,
			"-0.018": 0.0,
			"-0.017": 0.0,
			"-0.016": 0.127368734991,
			"-0.015": 0.983653393173,
			"-0.014": 1.04870767541,
			"-0.013": 1.07939487524,
			"-0.012": 0.848426803704,
			"-0.011": 0.549540981096,
			"-0.01": 1.36070753567,
			"-0.009": 1.61410371733,
			"-0.008": 2.92279847956,
			"-0.007": 2.92094381884,
			"-0.006": 3.13507863821,
			"-0.005": 6.24810777282,
			"-0.004": 16.0869872319,
			"-0.003": 31.0076158171,
			"-0.002": 34.0222690858,
			"-0.001": 34.2269964761,
			"0.0": 31.5253936268,
			"0.001": 19.9713779663,
			"0.002": 14.3766092924,
			"0.003": 13.8465027885,
			"0.004": 9.62736768479,
			"0.005": 2.70803222318,
			"0.006": 2.10196869302,
			"0.007": 2.29951264647,
			"0.008": 2.13509613935,
			"0.009": 2.32578338065,
			"0.01": 2.67852433131,
			"0.011": 2.49973643398,
			"0.012": 5.38295585206,
			"0.013": 3.95288486252,
			"0.014": 1.21012845208,
			"0.015": 0.681219762178,
			"0.016": 0.367255281022,
			"0.017": 0.67144434138,
			"0.018": 0.532666713732,
			"0.019": 0.258881381266,
			"0.02": 0.0,
			"0.021": 0.0,
			"0.022": 0.0,
			"0.023": 0.0,
			"0.024": 0.0,
			"0.025": 0.0
		}
	}
}
