{
	 "smiles": "CC1=C(Cl)C(O)=C(Cl)C=C1Cl", 
	 "Tm": 319.15, 
	 "num_atms": 16, 
	 "gaussian": { 
		 "optdone": 1, 
		 "sigma_profile": "yes", 
		 "theory": "DFT", 
		 "functional": "B3LYP", 
		 "basiset": "6-31G**", 
		 "properties": { 
			 "R2extent": 2821.2203, 
			 "electric_dipole_moment_norm": 2.00026675471, 
			 "electric_quadrupole_moment_norm": 3.82319649247, 
			 "total_energy": -1725.55875902, 
			 "HOMO_LUMO_gap": 0.20198, 
			 "cosmo_polarized_energy": -5.97, 
			 "cosmo_cavitation_energy": 24.96, 
			 "cosmo_dispersion_energy": -19.16, 
			 "cosmo_repulsion_energy": 1.53, 
			 "cosmo_total_nonelectrostatic_energy": 7.33, 
			 "SMD_solvation_energy": 3.94 
		},
		"coords": [
			{
				"x": -1.3762713576,
				"y": 1.765459501,
				"z": -1.600850506,
				"element": "C" 
			},
			{
				"x": -0.5082087375,
				"y": 0.902533783,
				"z": -0.7231419267,
				"element": "C" 
			},
			{
				"x": -0.4943086,
				"y": -0.4926021274,
				"z": -0.8786286491,
				"element": "C" 
			},
			{
				"x": -1.5062847744,
				"y": -1.2408260767,
				"z": -2.1172712752,
				"element": "Cl" 
			},
			{
				"x": 0.2852446199,
				"y": -1.364355326,
				"z": -0.1021198477,
				"element": "C" 
			},
			{
				"x": 0.2909077649,
				"y": -2.702971164,
				"z": -0.2599780504,
				"element": "O" 
			},
			{
				"x": 1.0975938374,
				"y": -0.7915823668,
				"z": 0.8887683729,
				"element": "C" 
			},
			{
				"x": 2.0885803299,
				"y": -1.8261390343,
				"z": 1.8848834423,
				"element": "Cl" 
			},
			{
				"x": 1.1185208036,
				"y": 0.5832331162,
				"z": 1.0810913453,
				"element": "C" 
			},
			{
				"x": 0.3263085064,
				"y": 1.4097020732,
				"z": 0.2847190744,
				"element": "C" 
			},
			{
				"x": 0.4150642225,
				"y": 3.1405341384,
				"z": 0.5973309069,
				"element": "Cl" 
			},
			{
				"x": -1.1138908841,
				"y": 1.6330430919,
				"z": -2.6555723039,
				"element": "H" 
			},
			{
				"x": -2.4303832183,
				"y": 1.4889467011,
				"z": -1.4951697862,
				"element": "H" 
			},
			{
				"x": -1.2687122879,
				"y": 2.8188650213,
				"z": -1.3480945209,
				"element": "H" 
			},
			{
				"x": -0.3176932004,
				"y": -2.9361525139,
				"z": -0.9782842982,
				"element": "H" 
			},
			{
				"x": 1.7508329756,
				"y": 1.0093111831,
				"z": 1.8498180224,
				"element": "H" 
			}
		],
		 "valence_orbital": [ 
			{
				"type": "occ",
				"energy": -0.32606,
				"method": "rhf"
			},
			{
				"type": "occ",
				"energy": -0.31633,
				"method": "rhf"
			},
			{
				"type": "occ",
				"energy": -0.31142,
				"method": "rhf"
			},
			{
				"type": "occ",
				"energy": -0.25915,
				"method": "rhf"
			},
			{
				"type": "occ",
				"energy": -0.23622,
				"method": "rhf"
			},
			{
				"type": "unocc",
				"energy": -0.03424,
				"method": "rhf"
			},
			{
				"type": "unocc",
				"energy": -0.01841,
				"method": "rhf"
			},
			{
				"type": "unocc",
				"energy": -0.01712,
				"method": "rhf"
			},
			{
				"type": "unocc",
				"energy": 0.0383,
				"method": "rhf"
			},
			{
				"type": "unocc",
				"energy": 0.04608,
				"method": "rhf"
			}
		],
		"cosmo_sigma_profile": { 
			"-0.025": 0.0,
			"-0.024": 0.0,
			"-0.023": 0.0,
			"-0.022": 0.0,
			"-0.021": 0.0,
			"-0.02": 0.0,
			"-0.019": 0.0,
			"-0.018": 0.0,
			"-0.017": 0.0,
			"-0.016": 0.246637158116,
			"-0.015": 0.750396360272,
			"-0.014": 0.764836199299,
			"-0.013": 0.893983822904,
			"-0.012": 0.481414217749,
			"-0.011": 0.783450462827,
			"-0.01": 1.2222903226,
			"-0.009": 1.22293150354,
			"-0.008": 2.26180296678,
			"-0.007": 2.25095378541,
			"-0.006": 3.37813350984,
			"-0.005": 6.05905351884,
			"-0.004": 8.50854591781,
			"-0.003": 12.5970305838,
			"-0.002": 18.4086754193,
			"-0.001": 23.8177245535,
			"0.0": 27.5539994787,
			"0.001": 27.0030973529,
			"0.002": 18.2367568585,
			"0.003": 17.7657712197,
			"0.004": 16.7373510984,
			"0.005": 6.16863066509,
			"0.006": 2.1092316607,
			"0.007": 1.80995392193,
			"0.008": 1.84222655541,
			"0.009": 2.37431253975,
			"0.01": 1.39992508439,
			"0.011": 0.00432147811653,
			"0.012": 0.0,
			"0.013": 0.0,
			"0.014": 0.0,
			"0.015": 0.0,
			"0.016": 0.0,
			"0.017": 0.0,
			"0.018": 0.0,
			"0.019": 0.0,
			"0.02": 0.0,
			"0.021": 0.0,
			"0.022": 0.0,
			"0.023": 0.0,
			"0.024": 0.0,
			"0.025": 0.0
		}
	}
}
