{
	 "smiles": "CC1=C(C=CO1)C1=NN=C(S)N1CC=C", 
	 "Tm": 567.15, 
	 "num_atms": 26, 
	 "gaussian": { 
		 "optdone": 1, 
		 "sigma_profile": "yes", 
		 "theory": "DFT", 
		 "functional": "B3LYP", 
		 "basiset": "6-31G**", 
		 "properties": { 
			 "R2extent": 4798.2667, 
			 "electric_dipole_moment_norm": 4.89425684757, 
			 "electric_quadrupole_moment_norm": 22.0494716329, 
			 "total_energy": -1025.28517172, 
			 "HOMO_LUMO_gap": 0.20465, 
			 "cosmo_polarized_energy": -17.06, 
			 "cosmo_cavitation_energy": 32.0, 
			 "cosmo_dispersion_energy": -22.59, 
			 "cosmo_repulsion_energy": 1.72, 
			 "cosmo_total_nonelectrostatic_energy": 11.14, 
			 "SMD_solvation_energy": 4.43 
		},
		"coords": [
			{
				"x": -0.4245974456,
				"y": -1.3063401897,
				"z": 1.1745316878,
				"element": "C" 
			},
			{
				"x": 0.3758126721,
				"y": -0.4948026816,
				"z": 2.1331377854,
				"element": "C" 
			},
			{
				"x": 1.4449664422,
				"y": 0.3582190021,
				"z": 2.0002243626,
				"element": "C" 
			},
			{
				"x": 1.8165949886,
				"y": 0.7503329289,
				"z": 3.3373767569,
				"element": "C" 
			},
			{
				"x": 0.9467996744,
				"y": 0.1279616032,
				"z": 4.1701734478,
				"element": "C" 
			},
			{
				"x": 0.0623501585,
				"y": -0.6308329461,
				"z": 3.4533628768,
				"element": "O" 
			},
			{
				"x": 2.1460443514,
				"y": 0.7718424087,
				"z": 0.7844565495,
				"element": "C" 
			},
			{
				"x": 3.4449221628,
				"y": 0.6757996849,
				"z": 0.6000752523,
				"element": "N" 
			},
			{
				"x": 3.7436198837,
				"y": 1.2133070825,
				"z": -0.6346446567,
				"element": "N" 
			},
			{
				"x": 2.6128264911,
				"y": 1.6280966135,
				"z": -1.1571152619,
				"element": "C" 
			},
			{
				"x": 2.4432811775,
				"y": 2.4300368374,
				"z": -2.7249308143,
				"element": "S" 
			},
			{
				"x": 1.5552208863,
				"y": 1.3790397296,
				"z": -0.3174493929,
				"element": "N" 
			},
			{
				"x": 0.1783104584,
				"y": 1.8637696281,
				"z": -0.4559528975,
				"element": "C" 
			},
			{
				"x": -0.5706451859,
				"y": 1.2254308442,
				"z": -1.5969577776,
				"element": "C" 
			},
			{
				"x": -1.2279476071,
				"y": 1.9157647417,
				"z": -2.5279889896,
				"element": "C" 
			},
			{
				"x": -1.4375468355,
				"y": -0.909424984,
				"z": 1.0339217209,
				"element": "H" 
			},
			{
				"x": 0.0733288315,
				"y": -1.3361876371,
				"z": 0.2029269631,
				"element": "H" 
			},
			{
				"x": -0.5232230005,
				"y": -2.334265326,
				"z": 1.53755814,
				"element": "H" 
			},
			{
				"x": 2.6316422294,
				"y": 1.4063742578,
				"z": 3.6038540073,
				"element": "H" 
			},
			{
				"x": 0.8190756269,
				"y": 0.1113518471,
				"z": 5.2410831339,
				"element": "H" 
			},
			{
				"x": 3.7719160882,
				"y": 2.6280425336,
				"z": -2.8277841425,
				"element": "H" 
			},
			{
				"x": -0.3118304863,
				"y": 1.6479423003,
				"z": 0.4985468203,
				"element": "H" 
			},
			{
				"x": 0.1985957447,
				"y": 2.9524199214,
				"z": -0.5791245716,
				"element": "H" 
			},
			{
				"x": -0.570208612,
				"y": 0.1373326778,
				"z": -1.6210996195,
				"element": "H" 
			},
			{
				"x": -1.2351974154,
				"y": 3.0030130459,
				"z": -2.5345405085,
				"element": "H" 
			},
			{
				"x": -1.7828112794,
				"y": 1.418976076,
				"z": -3.3175408722,
				"element": "H" 
			}
		],
		 "valence_orbital": [ 
			{
				"type": "occ",
				"energy": -0.28342,
				"method": "rhf"
			},
			{
				"type": "occ",
				"energy": -0.2782,
				"method": "rhf"
			},
			{
				"type": "occ",
				"energy": -0.25053,
				"method": "rhf"
			},
			{
				"type": "occ",
				"energy": -0.2383,
				"method": "rhf"
			},
			{
				"type": "occ",
				"energy": -0.21683,
				"method": "rhf"
			},
			{
				"type": "unocc",
				"energy": -0.01218,
				"method": "rhf"
			},
			{
				"type": "unocc",
				"energy": -0.00652,
				"method": "rhf"
			},
			{
				"type": "unocc",
				"energy": 0.01477,
				"method": "rhf"
			},
			{
				"type": "unocc",
				"energy": 0.01966,
				"method": "rhf"
			},
			{
				"type": "unocc",
				"energy": 0.04082,
				"method": "rhf"
			}
		],
		"cosmo_sigma_profile": { 
			"-0.025": 0.0,
			"-0.024": 0.0,
			"-0.023": 0.0,
			"-0.022": 0.0,
			"-0.021": 0.0,
			"-0.02": 0.0,
			"-0.019": 0.0,
			"-0.018": 0.0,
			"-0.017": 0.0,
			"-0.016": 0.0,
			"-0.015": 0.0,
			"-0.014": 0.0,
			"-0.013": 0.0,
			"-0.012": 0.818768490008,
			"-0.011": 1.528807888,
			"-0.01": 1.45212726584,
			"-0.009": 2.51950218388,
			"-0.008": 3.68440986516,
			"-0.007": 9.47550720598,
			"-0.006": 18.0668132469,
			"-0.005": 20.0407329058,
			"-0.004": 22.6259922327,
			"-0.003": 19.7515126574,
			"-0.002": 20.5762839177,
			"-0.001": 16.6440628979,
			"0.0": 15.725228364,
			"0.001": 12.9905062769,
			"0.002": 16.7571799386,
			"0.003": 14.4056763618,
			"0.004": 13.2705677188,
			"0.005": 10.7296070604,
			"0.006": 8.24521400712,
			"0.007": 4.38318014103,
			"0.008": 2.81091703956,
			"0.009": 2.40282710655,
			"0.01": 2.0729322776,
			"0.011": 2.34068309757,
			"0.012": 3.12525747761,
			"0.013": 3.22068778373,
			"0.014": 2.37156309437,
			"0.015": 3.2489955322,
			"0.016": 2.07440119533,
			"0.017": 0.737099372504,
			"0.018": 0.0,
			"0.019": 0.0,
			"0.02": 0.0,
			"0.021": 0.0,
			"0.022": 0.0,
			"0.023": 0.0,
			"0.024": 0.0,
			"0.025": 0.0
		}
	}
}
