{
	 "smiles": "NS(=O)(=O)C1=C2N=CC=CC2=CC=C1", 
	 "Tm": 457.15, 
	 "num_atms": 22, 
	 "gaussian": { 
		 "optdone": 1, 
		 "sigma_profile": "yes", 
		 "theory": "DFT", 
		 "functional": "B3LYP", 
		 "basiset": "6-31G**", 
		 "properties": { 
			 "R2extent": 3529.6568, 
			 "electric_dipole_moment_norm": 6.04811612405, 
			 "electric_quadrupole_moment_norm": 21.5521453533, 
			 "total_energy": -1005.85298718, 
			 "HOMO_LUMO_gap": 0.17567, 
			 "cosmo_polarized_energy": -18.58, 
			 "cosmo_cavitation_energy": 27.19, 
			 "cosmo_dispersion_energy": -20.85, 
			 "cosmo_repulsion_energy": 1.57, 
			 "cosmo_total_nonelectrostatic_energy": 7.9, 
			 "SMD_solvation_energy": 3.58 
		},
		"coords": [
			{
				"x": 2.4840891218,
				"y": -0.2110947534,
				"z": 2.2534167217,
				"element": "N" 
			},
			{
				"x": 1.648510637,
				"y": 1.2473092386,
				"z": 2.3763804594,
				"element": "S" 
			},
			{
				"x": 2.5012425585,
				"y": 2.4023636061,
				"z": 2.0791580766,
				"element": "O" 
			},
			{
				"x": 0.9234356417,
				"y": 1.190141229,
				"z": 3.6502479974,
				"element": "O" 
			},
			{
				"x": 0.4536585601,
				"y": 1.0811373354,
				"z": 1.0418001644,
				"element": "C" 
			},
			{
				"x": 0.8776858733,
				"y": 0.8410902934,
				"z": -0.2980654432,
				"element": "C" 
			},
			{
				"x": 2.1941989181,
				"y": 0.6003005253,
				"z": -0.5569219671,
				"element": "N" 
			},
			{
				"x": 2.5529515918,
				"y": 0.3906528567,
				"z": -1.8085469501,
				"element": "C" 
			},
			{
				"x": 1.6538145004,
				"y": 0.3924321843,
				"z": -2.9020363426,
				"element": "C" 
			},
			{
				"x": 0.3192506851,
				"y": 0.61175892,
				"z": -2.6558644555,
				"element": "C" 
			},
			{
				"x": -0.1172968933,
				"y": 0.8431996091,
				"z": -1.326668624,
				"element": "C" 
			},
			{
				"x": -1.4782228907,
				"y": 1.068972848,
				"z": -0.9876807882,
				"element": "C" 
			},
			{
				"x": -1.8478048625,
				"y": 1.2809808934,
				"z": 0.3200018829,
				"element": "C" 
			},
			{
				"x": -0.8719754555,
				"y": 1.2896626627,
				"z": 1.3459480197,
				"element": "C" 
			},
			{
				"x": 3.1104905575,
				"y": -0.1623201341,
				"z": 1.4501673093,
				"element": "H" 
			},
			{
				"x": 2.9741097252,
				"y": -0.375159472,
				"z": 3.1303889541,
				"element": "H" 
			},
			{
				"x": 3.6113925636,
				"y": 0.203203868,
				"z": -1.9819773253,
				"element": "H" 
			},
			{
				"x": 2.0238896391,
				"y": 0.2142663815,
				"z": -3.9062120981,
				"element": "H" 
			},
			{
				"x": -0.4091343478,
				"y": 0.6100945184,
				"z": -3.4626016504,
				"element": "H" 
			},
			{
				"x": -2.2219927482,
				"y": 1.0678044658,
				"z": -1.7800745102,
				"element": "H" 
			},
			{
				"x": -2.8894226311,
				"y": 1.4470400607,
				"z": 0.5757955349,
				"element": "H" 
			},
			{
				"x": -1.1534707442,
				"y": 1.4593628633,
				"z": 2.3796450344,
				"element": "H" 
			}
		],
		 "valence_orbital": [ 
			{
				"type": "occ",
				"energy": -0.29587,
				"method": "rhf"
			},
			{
				"type": "occ",
				"energy": -0.27711,
				"method": "rhf"
			},
			{
				"type": "occ",
				"energy": -0.27225,
				"method": "rhf"
			},
			{
				"type": "occ",
				"energy": -0.27074,
				"method": "rhf"
			},
			{
				"type": "occ",
				"energy": -0.25289,
				"method": "rhf"
			},
			{
				"type": "unocc",
				"energy": -0.07722,
				"method": "rhf"
			},
			{
				"type": "unocc",
				"energy": -0.03672,
				"method": "rhf"
			},
			{
				"type": "unocc",
				"energy": -0.00975,
				"method": "rhf"
			},
			{
				"type": "unocc",
				"energy": 0.06527,
				"method": "rhf"
			},
			{
				"type": "unocc",
				"energy": 0.06682,
				"method": "rhf"
			}
		],
		"cosmo_sigma_profile": { 
			"-0.025": 0.0,
			"-0.024": 0.0,
			"-0.023": 0.0,
			"-0.022": 0.0,
			"-0.021": 0.0,
			"-0.02": 0.0,
			"-0.019": 0.0,
			"-0.018": 0.0,
			"-0.017": 0.0,
			"-0.016": 0.0439937057012,
			"-0.015": 0.995121397,
			"-0.014": 1.41509006116,
			"-0.013": 1.49746582002,
			"-0.012": 1.52168323619,
			"-0.011": 2.42846196605,
			"-0.01": 1.68127289452,
			"-0.009": 2.4581965341,
			"-0.008": 7.08612381604,
			"-0.007": 15.7965991328,
			"-0.006": 13.2394988555,
			"-0.005": 11.9644047966,
			"-0.004": 9.76499867756,
			"-0.003": 8.09768980684,
			"-0.002": 10.8607338774,
			"-0.001": 13.0229995889,
			"0.0": 21.6482304477,
			"0.001": 21.7536778613,
			"0.002": 13.5772687659,
			"0.003": 6.75437035821,
			"0.004": 4.38811590914,
			"0.005": 3.38591260081,
			"0.006": 3.89645729549,
			"0.007": 4.13875307129,
			"0.008": 4.19309306718,
			"0.009": 4.69942492636,
			"0.01": 6.83742016034,
			"0.011": 13.2660090401,
			"0.012": 7.88562863492,
			"0.013": 0.220736473921,
			"0.014": 0.0,
			"0.015": 0.0,
			"0.016": 0.0,
			"0.017": 0.0,
			"0.018": 0.0,
			"0.019": 0.0,
			"0.02": 0.0,
			"0.021": 0.0,
			"0.022": 0.0,
			"0.023": 0.0,
			"0.024": 0.0,
			"0.025": 0.0
		}
	}
}
