{
	 "smiles": "OC1=NC2=C(Br)C=C(Br)C=C2C(=C1)C1=CC=CC=C1", 
	 "Tm": 483.15, 
	 "num_atms": 28, 
	 "gaussian": { 
		 "optdone": 1, 
		 "sigma_profile": "yes", 
		 "theory": "DFT", 
		 "functional": "B3LYP", 
		 "basiset": "6-31G**", 
		 "properties": { 
			 "R2extent": 11006.4556, 
			 "electric_dipole_moment_norm": 3.07927669591, 
			 "electric_quadrupole_moment_norm": 9.80601260248, 
			 "total_energy": -5849.82388135, 
			 "HOMO_LUMO_gap": 0.15874, 
			 "cosmo_polarized_energy": -9.68, 
			 "cosmo_cavitation_energy": 37.29, 
			 "cosmo_dispersion_energy": -27.52, 
			 "cosmo_repulsion_energy": 2.13, 
			 "cosmo_total_nonelectrostatic_energy": 11.91, 
			 "SMD_solvation_energy": 3.02 
		},
		"coords": [
			{
				"x": 1.7662814555,
				"y": 1.1698179171,
				"z": 3.5761317532,
				"element": "O" 
			},
			{
				"x": 1.6344075873,
				"y": 1.0001924401,
				"z": 2.244239734,
				"element": "C" 
			},
			{
				"x": 1.433238988,
				"y": 2.0601357288,
				"z": 1.5013412505,
				"element": "N" 
			},
			{
				"x": 1.3126880498,
				"y": 1.8831372796,
				"z": 0.15886672,
				"element": "C" 
			},
			{
				"x": 1.1172830281,
				"y": 3.01537501,
				"z": -0.6835749977,
				"element": "C" 
			},
			{
				"x": 0.9915601265,
				"y": 4.7509236662,
				"z": 0.0865573172,
				"element": "Br" 
			},
			{
				"x": 1.0227492912,
				"y": 2.8933205548,
				"z": -2.0526472951,
				"element": "C" 
			},
			{
				"x": 1.1294079476,
				"y": 1.6166658666,
				"z": -2.6372791006,
				"element": "C" 
			},
			{
				"x": 1.0287927602,
				"y": 1.4755912831,
				"z": -4.539514606,
				"element": "Br" 
			},
			{
				"x": 1.308573487,
				"y": 0.4860117946,
				"z": -1.8741865409,
				"element": "C" 
			},
			{
				"x": 1.3851017996,
				"y": 0.5930341251,
				"z": -0.463453521,
				"element": "C" 
			},
			{
				"x": 1.5701820847,
				"y": -0.5484134228,
				"z": 0.398998218,
				"element": "C" 
			},
			{
				"x": 1.7082770843,
				"y": -0.3285089871,
				"z": 1.7502779269,
				"element": "C" 
			},
			{
				"x": 1.6183535232,
				"y": -1.9425188573,
				"z": -0.120978714,
				"element": "C" 
			},
			{
				"x": 2.7060322957,
				"y": -2.771496083,
				"z": 0.1968254273,
				"element": "C" 
			},
			{
				"x": 2.7464935319,
				"y": -4.0930178502,
				"z": -0.2470862749,
				"element": "C" 
			},
			{
				"x": 1.6968848549,
				"y": -4.6095363533,
				"z": -1.0086592291,
				"element": "C" 
			},
			{
				"x": 0.6060288744,
				"y": -3.7969736237,
				"z": -1.3239006726,
				"element": "C" 
			},
			{
				"x": 0.5665098675,
				"y": -2.473392384,
				"z": -0.8863736972,
				"element": "C" 
			},
			{
				"x": 1.6783911587,
				"y": 2.1240063631,
				"z": 3.7351635922,
				"element": "H" 
			},
			{
				"x": 0.8777132159,
				"y": 3.7684163059,
				"z": -2.6728253234,
				"element": "H" 
			},
			{
				"x": 1.4021928157,
				"y": -0.482007596,
				"z": -2.3480415731,
				"element": "H" 
			},
			{
				"x": 1.8375079053,
				"y": -1.147730296,
				"z": 2.4478135225,
				"element": "H" 
			},
			{
				"x": 3.5279609317,
				"y": -2.3687692893,
				"z": 0.7813884722,
				"element": "H" 
			},
			{
				"x": 3.5998080627,
				"y": -4.7176990224,
				"z": 0.0003638454,
				"element": "H" 
			},
			{
				"x": 1.7277435413,
				"y": -5.6388874715,
				"z": -1.3534691511,
				"element": "H" 
			},
			{
				"x": -0.2193693295,
				"y": -4.194450416,
				"z": -1.9072238537,
				"element": "H" 
			},
			{
				"x": -0.2930949389,
				"y": -1.8526266824,
				"z": -1.1200532292,
				"element": "H" 
			}
		],
		 "valence_orbital": [ 
			{
				"type": "occ",
				"energy": -0.27196,
				"method": "rhf"
			},
			{
				"type": "occ",
				"energy": -0.26517,
				"method": "rhf"
			},
			{
				"type": "occ",
				"energy": -0.25974,
				"method": "rhf"
			},
			{
				"type": "occ",
				"energy": -0.24887,
				"method": "rhf"
			},
			{
				"type": "occ",
				"energy": -0.22604,
				"method": "rhf"
			},
			{
				"type": "unocc",
				"energy": -0.0673,
				"method": "rhf"
			},
			{
				"type": "unocc",
				"energy": -0.0279,
				"method": "rhf"
			},
			{
				"type": "unocc",
				"energy": -0.0231,
				"method": "rhf"
			},
			{
				"type": "unocc",
				"energy": -0.01567,
				"method": "rhf"
			},
			{
				"type": "unocc",
				"energy": -0.00988,
				"method": "rhf"
			}
		],
		"cosmo_sigma_profile": { 
			"-0.025": 0.0,
			"-0.024": 0.0,
			"-0.023": 0.0,
			"-0.022": 0.0,
			"-0.021": 0.0,
			"-0.02": 0.0,
			"-0.019": 0.0,
			"-0.018": 0.150366189337,
			"-0.017": 0.565915948227,
			"-0.016": 0.735013657688,
			"-0.015": 1.45362619281,
			"-0.014": 0.24234549294,
			"-0.013": 0.2804017507,
			"-0.012": 0.865987907344,
			"-0.011": 0.698114365169,
			"-0.01": 0.897340833523,
			"-0.009": 0.514152197062,
			"-0.008": 1.86687931419,
			"-0.007": 3.84248400959,
			"-0.006": 12.7809607107,
			"-0.005": 17.5800212422,
			"-0.004": 22.3661235584,
			"-0.003": 18.5519482629,
			"-0.002": 19.4067422666,
			"-0.001": 23.8310500035,
			"0.0": 33.5716522313,
			"0.001": 36.0783094521,
			"0.002": 24.3553063531,
			"0.003": 23.6546985209,
			"0.004": 29.8900575602,
			"0.005": 15.6536947557,
			"0.006": 3.33271657804,
			"0.007": 3.21094714766,
			"0.008": 2.78953133548,
			"0.009": 3.21823904113,
			"0.01": 2.62414815086,
			"0.011": 1.38167939244,
			"0.012": 0.667596697027,
			"0.013": 0.0188838973149,
			"0.014": 0.0,
			"0.015": 0.0,
			"0.016": 0.0,
			"0.017": 0.0,
			"0.018": 0.0,
			"0.019": 0.0,
			"0.02": 0.0,
			"0.021": 0.0,
			"0.022": 0.0,
			"0.023": 0.0,
			"0.024": 0.0,
			"0.025": 0.0
		}
	}
}
