{
	 "smiles": "COC1=CC=C(C=C1)N1N=C(SC1=N/C(=O)C1=CC=CC=C1)C(=O)C1=CC=CS1", 
	 "Tm": 508.15, 
	 "num_atms": 44, 
	 "gaussian": { 
		 "optdone": 1, 
		 "sigma_profile": "yes", 
		 "theory": "DFT", 
		 "functional": "B3LYP", 
		 "basiset": "6-31G**", 
		 "properties": { 
			 "R2extent": 18265.5083, 
			 "electric_dipole_moment_norm": 7.58426980401, 
			 "electric_quadrupole_moment_norm": 27.2402697276, 
			 "total_energy": -1995.53700969, 
			 "HOMO_LUMO_gap": 0.12852, 
			 "cosmo_polarized_energy": -18.05, 
			 "cosmo_cavitation_energy": 53.5, 
			 "cosmo_dispersion_energy": -38.45, 
			 "cosmo_repulsion_energy": 2.77, 
			 "cosmo_total_nonelectrostatic_energy": 17.83, 
			 "SMD_solvation_energy": 9.8 
		},
		"coords": [
			{
				"x": 4.8931734413,
				"y": 3.7743521951,
				"z": -0.0270493139,
				"element": "C" 
			},
			{
				"x": 4.6009181918,
				"y": 2.7629070322,
				"z": 0.9261575089,
				"element": "O" 
			},
			{
				"x": 3.6321323123,
				"y": 1.8542695121,
				"z": 0.6296060698,
				"element": "C" 
			},
			{
				"x": 3.3860298178,
				"y": 0.8832856958,
				"z": 1.6137019531,
				"element": "C" 
			},
			{
				"x": 2.4217632604,
				"y": -0.0939839256,
				"z": 1.4164735971,
				"element": "C" 
			},
			{
				"x": 1.6801912049,
				"y": -0.1046304724,
				"z": 0.2280933009,
				"element": "C" 
			},
			{
				"x": 1.9177530509,
				"y": 0.8562748977,
				"z": -0.753088113,
				"element": "C" 
			},
			{
				"x": 2.89451014,
				"y": 1.834191465,
				"z": -0.5607368229,
				"element": "C" 
			},
			{
				"x": 0.6947617025,
				"y": -1.1170323943,
				"z": -0.0173851759,
				"element": "N" 
			},
			{
				"x": 0.6341113796,
				"y": -1.6481588218,
				"z": -1.2665844896,
				"element": "N" 
			},
			{
				"x": -0.3328084894,
				"y": -2.506612133,
				"z": -1.3625576545,
				"element": "C" 
			},
			{
				"x": -1.2921835665,
				"y": -2.758620158,
				"z": 0.0970209591,
				"element": "S" 
			},
			{
				"x": -0.2568764994,
				"y": -1.5519181171,
				"z": 0.8912001058,
				"element": "C" 
			},
			{
				"x": -0.3234340916,
				"y": -1.0922782981,
				"z": 2.1012283897,
				"element": "N" 
			},
			{
				"x": -1.3291578006,
				"y": -1.6021110128,
				"z": 2.9136671473,
				"element": "C" 
			},
			{
				"x": -2.1184335025,
				"y": -2.4796190357,
				"z": 2.5459447245,
				"element": "O" 
			},
			{
				"x": -1.3974386236,
				"y": -1.0162097843,
				"z": 4.2826341532,
				"element": "C" 
			},
			{
				"x": -2.35881982,
				"y": -1.5113347455,
				"z": 5.1763481445,
				"element": "C" 
			},
			{
				"x": -2.4534819007,
				"y": -0.9887014957,
				"z": 6.4632575926,
				"element": "C" 
			},
			{
				"x": -1.5905664838,
				"y": 0.0345536238,
				"z": 6.8673949993,
				"element": "C" 
			},
			{
				"x": -0.6333364595,
				"y": 0.5333119248,
				"z": 5.9804253286,
				"element": "C" 
			},
			{
				"x": -0.5344945479,
				"y": 0.0110132698,
				"z": 4.6915969071,
				"element": "C" 
			},
			{
				"x": -0.6863900835,
				"y": -3.2809132165,
				"z": -2.5872076743,
				"element": "C" 
			},
			{
				"x": -1.6761637622,
				"y": -4.0090091305,
				"z": -2.52816445,
				"element": "O" 
			},
			{
				"x": 0.1164269096,
				"y": -3.1762964427,
				"z": -3.8075045395,
				"element": "C" 
			},
			{
				"x": 1.2802663006,
				"y": -2.4889273325,
				"z": -4.0985883235,
				"element": "C" 
			},
			{
				"x": 1.7214308147,
				"y": -2.6923111919,
				"z": -5.4307362967,
				"element": "C" 
			},
			{
				"x": 0.8915966751,
				"y": -3.530801784,
				"z": -6.136070702,
				"element": "C" 
			},
			{
				"x": -0.4378892893,
				"y": -4.0910272116,
				"z": -5.1946460607,
				"element": "S" 
			},
			{
				"x": 4.0195372105,
				"y": 4.4086372955,
				"z": -0.2236138708,
				"element": "H" 
			},
			{
				"x": 5.2484660381,
				"y": 3.3471388725,
				"z": -0.9734323216,
				"element": "H" 
			},
			{
				"x": 5.6857608896,
				"y": 4.3812682158,
				"z": 0.4124917635,
				"element": "H" 
			},
			{
				"x": 3.9725432987,
				"y": 0.9107586147,
				"z": 2.525708409,
				"element": "H" 
			},
			{
				"x": 2.234458782,
				"y": -0.8391211213,
				"z": 2.1784295174,
				"element": "H" 
			},
			{
				"x": 1.3400512978,
				"y": 0.8388788926,
				"z": -1.6703906728,
				"element": "H" 
			},
			{
				"x": 3.0615399107,
				"y": 2.5715841471,
				"z": -1.3362305636,
				"element": "H" 
			},
			{
				"x": -3.017856236,
				"y": -2.3041949556,
				"z": 4.8390271221,
				"element": "H" 
			},
			{
				"x": -3.198320472,
				"y": -1.3761061675,
				"z": 7.1524316858,
				"element": "H" 
			},
			{
				"x": -1.6652845505,
				"y": 0.4428258301,
				"z": 7.8715524695,
				"element": "H" 
			},
			{
				"x": 0.035113627,
				"y": 1.3302227302,
				"z": 6.2937336123,
				"element": "H" 
			},
			{
				"x": 0.2004350407,
				"y": 0.3909916682,
				"z": 3.9911023849,
				"element": "H" 
			},
			{
				"x": 1.7867360001,
				"y": -1.8690860931,
				"z": -3.3714411389,
				"element": "H" 
			},
			{
				"x": 2.6135271414,
				"y": -2.2405076537,
				"z": -5.8486557677,
				"element": "H" 
			},
			{
				"x": 0.9957017412,
				"y": -3.8499531878,
				"z": -7.164643894,
				"element": "H" 
			}
		],
		 "valence_orbital": [ 
			{
				"type": "occ",
				"energy": -0.25221,
				"method": "rhf"
			},
			{
				"type": "occ",
				"energy": -0.24921,
				"method": "rhf"
			},
			{
				"type": "occ",
				"energy": -0.24822,
				"method": "rhf"
			},
			{
				"type": "occ",
				"energy": -0.24522,
				"method": "rhf"
			},
			{
				"type": "occ",
				"energy": -0.22127,
				"method": "rhf"
			},
			{
				"type": "unocc",
				"energy": -0.09275,
				"method": "rhf"
			},
			{
				"type": "unocc",
				"energy": -0.05719,
				"method": "rhf"
			},
			{
				"type": "unocc",
				"energy": -0.02727,
				"method": "rhf"
			},
			{
				"type": "unocc",
				"energy": -0.01856,
				"method": "rhf"
			},
			{
				"type": "unocc",
				"energy": -0.01323,
				"method": "rhf"
			}
		],
		"cosmo_sigma_profile": { 
			"-0.025": 0.0,
			"-0.024": 0.0,
			"-0.023": 0.0,
			"-0.022": 0.0,
			"-0.021": 0.0,
			"-0.02": 0.0,
			"-0.019": 0.0,
			"-0.018": 0.0,
			"-0.017": 0.0,
			"-0.016": 0.0,
			"-0.015": 0.0,
			"-0.014": 0.0,
			"-0.013": 0.0,
			"-0.012": 0.0,
			"-0.011": 0.0,
			"-0.01": 0.759959599868,
			"-0.009": 2.10975376873,
			"-0.008": 2.97029411199,
			"-0.007": 9.64318125619,
			"-0.006": 25.6248086048,
			"-0.005": 33.7286476752,
			"-0.004": 37.2892043356,
			"-0.003": 31.4638702252,
			"-0.002": 26.3572980101,
			"-0.001": 27.3659442395,
			"0.0": 30.3818005536,
			"0.001": 38.2907388795,
			"0.002": 47.4440411735,
			"0.003": 45.3115347566,
			"0.004": 27.4055169671,
			"0.005": 11.0676313774,
			"0.006": 7.47773487446,
			"0.007": 5.92162642237,
			"0.008": 5.76214177615,
			"0.009": 5.40741640163,
			"0.01": 6.35951853872,
			"0.011": 5.22943825476,
			"0.012": 2.13830775008,
			"0.013": 0.268919630961,
			"0.014": 0.0,
			"0.015": 0.0,
			"0.016": 0.0,
			"0.017": 0.0,
			"0.018": 0.0,
			"0.019": 0.0,
			"0.02": 0.0,
			"0.021": 0.0,
			"0.022": 0.0,
			"0.023": 0.0,
			"0.024": 0.0,
			"0.025": 0.0
		}
	}
}
