{
	 "smiles": "CC1=C(CC2=C(O1)C=CC=C2)C(O)=O", 
	 "Tm": 508.15, 
	 "num_atms": 24, 
	 "gaussian": { 
		 "optdone": 1, 
		 "sigma_profile": "yes", 
		 "theory": "DFT", 
		 "functional": "B3LYP", 
		 "basiset": "6-31G**", 
		 "properties": { 
			 "R2extent": 3135.0288, 
			 "electric_dipole_moment_norm": 4.22109187889, 
			 "electric_quadrupole_moment_norm": 19.8529844142, 
			 "total_energy": -650.867028049, 
			 "HOMO_LUMO_gap": 0.18542, 
			 "cosmo_polarized_energy": -13.8, 
			 "cosmo_cavitation_energy": 27.6, 
			 "cosmo_dispersion_energy": -20.55, 
			 "cosmo_repulsion_energy": 1.6, 
			 "cosmo_total_nonelectrostatic_energy": 8.65, 
			 "SMD_solvation_energy": 5.84 
		},
		"coords": [
			{
				"x": -0.8406148126,
				"y": 2.3585547922,
				"z": -2.0395391431,
				"element": "C" 
			},
			{
				"x": -0.7925343996,
				"y": 1.1835819345,
				"z": -1.1029651234,
				"element": "C" 
			},
			{
				"x": -1.7471761632,
				"y": 0.2593056759,
				"z": -0.8495113789,
				"element": "C" 
			},
			{
				"x": -1.456307894,
				"y": -0.9729672723,
				"z": -0.016473423,
				"element": "C" 
			},
			{
				"x": -0.1446646243,
				"y": -0.8589913848,
				"z": 0.7216324384,
				"element": "C" 
			},
			{
				"x": 0.7398811468,
				"y": 0.1782275578,
				"z": 0.4254502435,
				"element": "C" 
			},
			{
				"x": 0.4514511608,
				"y": 1.1362595512,
				"z": -0.5334262314,
				"element": "O" 
			},
			{
				"x": 1.9690225675,
				"y": 0.3127176109,
				"z": 1.0708187813,
				"element": "C" 
			},
			{
				"x": 2.3310317907,
				"y": -0.6162495015,
				"z": 2.0432180712,
				"element": "C" 
			},
			{
				"x": 1.4633717341,
				"y": -1.6637383424,
				"z": 2.3645571899,
				"element": "C" 
			},
			{
				"x": 0.2388269569,
				"y": -1.7757820026,
				"z": 1.7070781654,
				"element": "C" 
			},
			{
				"x": -3.0978740171,
				"y": 0.2532701414,
				"z": -1.4735503477,
				"element": "C" 
			},
			{
				"x": -3.7045432398,
				"y": 1.4530305162,
				"z": -1.7207382371,
				"element": "O" 
			},
			{
				"x": -3.6849428321,
				"y": -0.7724720004,
				"z": -1.7350082213,
				"element": "O" 
			},
			{
				"x": 0.0754285469,
				"y": 2.3601044548,
				"z": -2.6379372432,
				"element": "H" 
			},
			{
				"x": -1.6954552605,
				"y": 2.3223206072,
				"z": -2.7130877167,
				"element": "H" 
			},
			{
				"x": -0.8533566612,
				"y": 3.3036871799,
				"z": -1.4826226935,
				"element": "H" 
			},
			{
				"x": -1.4614756324,
				"y": -1.8531342495,
				"z": -0.6742968107,
				"element": "H" 
			},
			{
				"x": -2.2766607521,
				"y": -1.1440294907,
				"z": 0.6919463549,
				"element": "H" 
			},
			{
				"x": 2.6170612597,
				"y": 1.1399216931,
				"z": 0.8006903292,
				"element": "H" 
			},
			{
				"x": 3.286569381,
				"y": -0.5200989863,
				"z": 2.5497325968,
				"element": "H" 
			},
			{
				"x": 1.7393917925,
				"y": -2.3888572529,
				"z": 3.1238913549,
				"element": "H" 
			},
			{
				"x": -0.4378514316,
				"y": -2.5896268023,
				"z": 1.9558320762,
				"element": "H" 
			},
			{
				"x": -3.2224786162,
				"y": 2.1560655707,
				"z": -1.2645910316,
				"element": "H" 
			}
		],
		 "valence_orbital": [ 
			{
				"type": "occ",
				"energy": -0.31292,
				"method": "rhf"
			},
			{
				"type": "occ",
				"energy": -0.27584,
				"method": "rhf"
			},
			{
				"type": "occ",
				"energy": -0.26554,
				"method": "rhf"
			},
			{
				"type": "occ",
				"energy": -0.25483,
				"method": "rhf"
			},
			{
				"type": "occ",
				"energy": -0.2231,
				"method": "rhf"
			},
			{
				"type": "unocc",
				"energy": -0.03768,
				"method": "rhf"
			},
			{
				"type": "unocc",
				"energy": -0.01331,
				"method": "rhf"
			},
			{
				"type": "unocc",
				"energy": 0.00866,
				"method": "rhf"
			},
			{
				"type": "unocc",
				"energy": 0.06031,
				"method": "rhf"
			},
			{
				"type": "unocc",
				"energy": 0.06977,
				"method": "rhf"
			}
		],
		"cosmo_sigma_profile": { 
			"-0.025": 0.0,
			"-0.024": 0.0,
			"-0.023": 0.0,
			"-0.022": 0.0,
			"-0.021": 0.0,
			"-0.02": 0.0,
			"-0.019": 0.0,
			"-0.018": 0.290678182782,
			"-0.017": 0.798017157603,
			"-0.016": 0.552135375991,
			"-0.015": 1.01875430029,
			"-0.014": 0.558265141834,
			"-0.013": 1.1181200977,
			"-0.012": 0.934939072871,
			"-0.011": 1.08763296634,
			"-0.01": 0.973274914778,
			"-0.009": 0.668973251391,
			"-0.008": 1.19073151424,
			"-0.007": 3.06184227853,
			"-0.006": 11.3948047679,
			"-0.005": 17.4513762836,
			"-0.004": 21.8585717674,
			"-0.003": 18.6450758881,
			"-0.002": 17.8827247809,
			"-0.001": 15.1745684385,
			"0.0": 14.1614067289,
			"0.001": 11.526118395,
			"0.002": 11.7404592032,
			"0.003": 12.3927999486,
			"0.004": 12.2639325437,
			"0.005": 11.8054638943,
			"0.006": 4.6591652566,
			"0.007": 3.51051485628,
			"0.008": 2.42849126073,
			"0.009": 2.91514866931,
			"0.01": 3.85683980638,
			"0.011": 5.16147080478,
			"0.012": 5.67946507243,
			"0.013": 2.74999064257,
			"0.014": 0.419703098408,
			"0.015": 0.0,
			"0.016": 0.0,
			"0.017": 0.0,
			"0.018": 0.0,
			"0.019": 0.0,
			"0.02": 0.0,
			"0.021": 0.0,
			"0.022": 0.0,
			"0.023": 0.0,
			"0.024": 0.0,
			"0.025": 0.0
		}
	}
}
