{
	 "smiles": "CCCCCCCCC#C", 
	 "Tm": 229.15, 
	 "num_atms": 28, 
	 "gaussian": { 
		 "optdone": 1, 
		 "sigma_profile": "yes", 
		 "theory": "DFT", 
		 "functional": "B3LYP", 
		 "basiset": "6-31G**", 
		 "properties": { 
			 "R2extent": 2826.3633, 
			 "electric_dipole_moment_norm": 0.592978549359, 
			 "electric_quadrupole_moment_norm": 5.17677704272, 
			 "total_energy": -391.863595378, 
			 "HOMO_LUMO_gap": 0.31214, 
			 "cosmo_polarized_energy": -3.69, 
			 "cosmo_cavitation_energy": 30.06, 
			 "cosmo_dispersion_energy": -20.25, 
			 "cosmo_repulsion_energy": 1.69, 
			 "cosmo_total_nonelectrostatic_energy": 11.5, 
			 "SMD_solvation_energy": 5.72 
		},
		"coords": [
			{
				"x": -2.139565633,
				"y": 2.6386180262,
				"z": -0.3480236155,
				"element": "C" 
			},
			{
				"x": -2.244169546,
				"y": 1.1174613492,
				"z": -0.1859409697,
				"element": "C" 
			},
			{
				"x": -1.5135876583,
				"y": 0.3109145775,
				"z": -1.2739586062,
				"element": "C" 
			},
			{
				"x": 0.0111647459,
				"y": 0.5162738,
				"z": -1.3492733372,
				"element": "C" 
			},
			{
				"x": 0.8016744733,
				"y": 0.142941607,
				"z": -0.0827817517,
				"element": "C" 
			},
			{
				"x": 0.7156678968,
				"y": -1.3384122746,
				"z": 0.3096083417,
				"element": "C" 
			},
			{
				"x": 1.5910968332,
				"y": -1.6863990767,
				"z": 1.5186745792,
				"element": "C" 
			},
			{
				"x": 1.5112730118,
				"y": -3.1711211524,
				"z": 1.9393128454,
				"element": "C" 
			},
			{
				"x": 0.1810364757,
				"y": -3.584597904,
				"z": 2.39022979,
				"element": "C" 
			},
			{
				"x": -0.9200653276,
				"y": -3.9115833493,
				"z": 2.7653561236,
				"element": "C" 
			},
			{
				"x": -2.5095653586,
				"y": 2.9574020295,
				"z": -1.3297205161,
				"element": "H" 
			},
			{
				"x": -2.7306994093,
				"y": 3.1578907333,
				"z": 0.4136230308,
				"element": "H" 
			},
			{
				"x": -1.106647296,
				"y": 2.9902721326,
				"z": -0.25559868,
				"element": "H" 
			},
			{
				"x": -3.3032754085,
				"y": 0.8297591017,
				"z": -0.1987208328,
				"element": "H" 
			},
			{
				"x": -1.8711222927,
				"y": 0.8296985224,
				"z": 0.8055137165,
				"element": "H" 
			},
			{
				"x": -1.7308572259,
				"y": -0.7546420902,
				"z": -1.1278016677,
				"element": "H" 
			},
			{
				"x": -1.9429022159,
				"y": 0.5711351191,
				"z": -2.2514029309,
				"element": "H" 
			},
			{
				"x": 0.2246817748,
				"y": 1.563246673,
				"z": -1.5991635043,
				"element": "H" 
			},
			{
				"x": 0.3970450391,
				"y": -0.0742449003,
				"z": -2.1916003217,
				"element": "H" 
			},
			{
				"x": 1.8559387746,
				"y": 0.4072511054,
				"z": -0.2441749138,
				"element": "H" 
			},
			{
				"x": 0.4674234252,
				"y": 0.7597876024,
				"z": 0.762480118,
				"element": "H" 
			},
			{
				"x": -0.3216257154,
				"y": -1.6123191904,
				"z": 0.535141092,
				"element": "H" 
			},
			{
				"x": 1.0180451034,
				"y": -1.9590498342,
				"z": -0.5467820452,
				"element": "H" 
			},
			{
				"x": 2.6404288625,
				"y": -1.4541693237,
				"z": 1.2950699708,
				"element": "H" 
			},
			{
				"x": 1.3068746179,
				"y": -1.0603532212,
				"z": 2.3736712972,
				"element": "H" 
			},
			{
				"x": 2.2349998408,
				"y": -3.3607657754,
				"z": 2.7426312637,
				"element": "H" 
			},
			{
				"x": 1.8188743937,
				"y": -3.8052086465,
				"z": 1.0963309924,
				"element": "H" 
			},
			{
				"x": -1.8884421815,
				"y": -4.2057856403,
				"z": 3.0972005318,
				"element": "H" 
			}
		],
		 "valence_orbital": [ 
			{
				"type": "occ",
				"energy": -0.31086,
				"method": "rhf"
			},
			{
				"type": "occ",
				"energy": -0.30585,
				"method": "rhf"
			},
			{
				"type": "occ",
				"energy": -0.30286,
				"method": "rhf"
			},
			{
				"type": "occ",
				"energy": -0.25831,
				"method": "rhf"
			},
			{
				"type": "occ",
				"energy": -0.25716,
				"method": "rhf"
			},
			{
				"type": "unocc",
				"energy": 0.05498,
				"method": "rhf"
			},
			{
				"type": "unocc",
				"energy": 0.06168,
				"method": "rhf"
			},
			{
				"type": "unocc",
				"energy": 0.08111,
				"method": "rhf"
			},
			{
				"type": "unocc",
				"energy": 0.11057,
				"method": "rhf"
			},
			{
				"type": "unocc",
				"energy": 0.11587,
				"method": "rhf"
			}
		],
		"cosmo_sigma_profile": { 
			"-0.025": 0.0,
			"-0.024": 0.0,
			"-0.023": 0.0,
			"-0.022": 0.0,
			"-0.021": 0.0,
			"-0.02": 0.0,
			"-0.019": 0.0,
			"-0.018": 0.0,
			"-0.017": 0.0,
			"-0.016": 0.0,
			"-0.015": 0.0,
			"-0.014": 0.0,
			"-0.013": 0.0,
			"-0.012": 0.0,
			"-0.011": 0.880121164476,
			"-0.01": 1.16581279657,
			"-0.009": 0.772419466694,
			"-0.008": 1.23341028323,
			"-0.007": 1.40706380321,
			"-0.006": 1.04812642066,
			"-0.005": 4.35441537994,
			"-0.004": 5.68568727285,
			"-0.003": 10.9879287544,
			"-0.002": 34.8232863084,
			"-0.001": 42.8841531825,
			"0.0": 42.0607789286,
			"0.001": 37.6515032969,
			"0.002": 17.5176624237,
			"0.003": 4.51917474396,
			"0.004": 4.11746662528,
			"0.005": 5.79497445481,
			"0.006": 5.05003230067,
			"0.007": 6.93719360446,
			"0.008": 4.29521476619,
			"0.009": 0.000609974461331,
			"0.01": 0.0,
			"0.011": 0.0,
			"0.012": 0.0,
			"0.013": 0.0,
			"0.014": 0.0,
			"0.015": 0.0,
			"0.016": 0.0,
			"0.017": 0.0,
			"0.018": 0.0,
			"0.019": 0.0,
			"0.02": 0.0,
			"0.021": 0.0,
			"0.022": 0.0,
			"0.023": 0.0,
			"0.024": 0.0,
			"0.025": 0.0
		}
	}
}
