{
	 "smiles": "NC1=C(Cl)N=NC(Cl)=N1", 
	 "Tm": 472.15, 
	 "num_atms": 11, 
	 "gaussian": { 
		 "optdone": 1, 
		 "sigma_profile": "yes", 
		 "theory": "DFT", 
		 "functional": "B3LYP", 
		 "basiset": "6-31G**", 
		 "properties": { 
			 "R2extent": 1764.2855, 
			 "electric_dipole_moment_norm": 5.45766060231, 
			 "electric_quadrupole_moment_norm": 6.16937861863, 
			 "total_energy": -1254.87609946, 
			 "HOMO_LUMO_gap": 0.18583, 
			 "cosmo_polarized_energy": -14.24, 
			 "cosmo_cavitation_energy": 19.78, 
			 "cosmo_dispersion_energy": -15.53, 
			 "cosmo_repulsion_energy": 1.3, 
			 "cosmo_total_nonelectrostatic_energy": 5.55, 
			 "SMD_solvation_energy": -0.17 
		},
		"coords": [
			{
				"x": -1.5343803261,
				"y": 1.4293656007,
				"z": -1.3633709178,
				"element": "N" 
			},
			{
				"x": -0.6584271496,
				"y": 0.7274379771,
				"z": -0.6224651583,
				"element": "C" 
			},
			{
				"x": 0.188629053,
				"y": 1.3235804929,
				"z": 0.3619308448,
				"element": "C" 
			},
			{
				"x": 0.1081838994,
				"y": 3.0511144406,
				"z": 0.6444074032,
				"element": "Cl" 
			},
			{
				"x": 1.0331195296,
				"y": 0.6274638236,
				"z": 1.0716569694,
				"element": "N" 
			},
			{
				"x": 1.1278217544,
				"y": -0.7031016569,
				"z": 0.8882347812,
				"element": "N" 
			},
			{
				"x": 0.3220293313,
				"y": -1.215354126,
				"z": -0.0361280926,
				"element": "C" 
			},
			{
				"x": 0.4549350529,
				"y": -2.9392728778,
				"z": -0.2623315579,
				"element": "Cl" 
			},
			{
				"x": -0.565092336,
				"y": -0.5919364932,
				"z": -0.8048326323,
				"element": "N" 
			},
			{
				"x": -1.6285550029,
				"y": 2.425374571,
				"z": -1.2522204269,
				"element": "H" 
			},
			{
				"x": -2.096363806,
				"y": 0.9358282479,
				"z": -2.0395812129,
				"element": "H" 
			}
		],
		 "valence_orbital": [ 
			{
				"type": "occ",
				"energy": -0.34255,
				"method": "rhf"
			},
			{
				"type": "occ",
				"energy": -0.3178,
				"method": "rhf"
			},
			{
				"type": "occ",
				"energy": -0.30846,
				"method": "rhf"
			},
			{
				"type": "occ",
				"energy": -0.26698,
				"method": "rhf"
			},
			{
				"type": "occ",
				"energy": -0.26095,
				"method": "rhf"
			},
			{
				"type": "unocc",
				"energy": -0.07512,
				"method": "rhf"
			},
			{
				"type": "unocc",
				"energy": -0.04248,
				"method": "rhf"
			},
			{
				"type": "unocc",
				"energy": 0.00628,
				"method": "rhf"
			},
			{
				"type": "unocc",
				"energy": 0.03103,
				"method": "rhf"
			},
			{
				"type": "unocc",
				"energy": 0.05695,
				"method": "rhf"
			}
		],
		"cosmo_sigma_profile": { 
			"-0.025": 0.0,
			"-0.024": 0.0,
			"-0.023": 0.0,
			"-0.022": 0.0,
			"-0.021": 0.0,
			"-0.02": 0.0,
			"-0.019": 0.0,
			"-0.018": 0.0,
			"-0.017": 0.0223135533209,
			"-0.016": 1.41522104087,
			"-0.015": 2.59572240583,
			"-0.014": 1.67070270158,
			"-0.013": 1.99132255357,
			"-0.012": 2.23287586031,
			"-0.011": 1.73592333014,
			"-0.01": 2.30308858862,
			"-0.009": 1.6570079385,
			"-0.008": 2.74831190171,
			"-0.007": 3.6253433491,
			"-0.006": 5.65375112074,
			"-0.005": 5.71596732181,
			"-0.004": 7.45415212746,
			"-0.003": 9.4268419037,
			"-0.002": 10.5493420707,
			"-0.001": 10.6659148604,
			"0.0": 11.3005793341,
			"0.001": 10.0891983922,
			"0.002": 14.2361270688,
			"0.003": 16.7841817934,
			"0.004": 9.02388170558,
			"0.005": 5.34641393155,
			"0.006": 4.36836592869,
			"0.007": 3.66418032103,
			"0.008": 3.41701634565,
			"0.009": 3.08762135766,
			"0.01": 3.66092617378,
			"0.011": 3.44113205873,
			"0.012": 2.21709026128,
			"0.013": 1.40461837847,
			"0.014": 0.859547852892,
			"0.015": 0.0391694968115,
			"0.016": 0.0,
			"0.017": 0.0,
			"0.018": 0.0,
			"0.019": 0.0,
			"0.02": 0.0,
			"0.021": 0.0,
			"0.022": 0.0,
			"0.023": 0.0,
			"0.024": 0.0,
			"0.025": 0.0
		}
	}
}
