{
	 "smiles": "OC1C2=C(CCC3=C1C=CC=C3)C=CC=C2", 
	 "Tm": 365.15, 
	 "num_atms": 30, 
	 "gaussian": { 
		 "optdone": 1, 
		 "sigma_profile": "yes", 
		 "theory": "DFT", 
		 "functional": "B3LYP", 
		 "basiset": "6-31G**", 
		 "properties": { 
			 "R2extent": 3553.1427, 
			 "electric_dipole_moment_norm": 1.71104533254, 
			 "electric_quadrupole_moment_norm": 4.77752092512, 
			 "total_energy": -655.257777396, 
			 "HOMO_LUMO_gap": 0.22409, 
			 "cosmo_polarized_energy": -9.2, 
			 "cosmo_cavitation_energy": 31.15, 
			 "cosmo_dispersion_energy": -23.15, 
			 "cosmo_repulsion_energy": 1.77, 
			 "cosmo_total_nonelectrostatic_energy": 9.77, 
			 "SMD_solvation_energy": 4.55 
		},
		"coords": [
			{
				"x": -2.3167342095,
				"y": 1.8848399908,
				"z": -0.8892009447,
				"element": "O" 
			},
			{
				"x": -1.2970904956,
				"y": 1.4939385973,
				"z": 0.0237111351,
				"element": "C" 
			},
			{
				"x": -1.5929193044,
				"y": 0.0719934777,
				"z": 0.5091075704,
				"element": "C" 
			},
			{
				"x": -0.7644911771,
				"y": -0.5968359758,
				"z": 1.4354285842,
				"element": "C" 
			},
			{
				"x": 0.5291537728,
				"y": -0.0698072418,
				"z": 2.0594040159,
				"element": "C" 
			},
			{
				"x": 1.0125148796,
				"y": 1.3583908616,
				"z": 1.7413295931,
				"element": "C" 
			},
			{
				"x": 1.2143695766,
				"y": 1.5942835713,
				"z": 0.2638748927,
				"element": "C" 
			},
			{
				"x": 0.0946830871,
				"y": 1.6211385603,
				"z": -0.5873051162,
				"element": "C" 
			},
			{
				"x": 0.2711394358,
				"y": 1.7685065941,
				"z": -1.9649138542,
				"element": "C" 
			},
			{
				"x": 1.5516714454,
				"y": 1.9051217759,
				"z": -2.5053996283,
				"element": "C" 
			},
			{
				"x": 2.6643174791,
				"y": 1.8957872776,
				"z": -1.6653804758,
				"element": "C" 
			},
			{
				"x": 2.4906105108,
				"y": 1.7369638821,
				"z": -0.2887553284,
				"element": "C" 
			},
			{
				"x": -1.1308236977,
				"y": -1.8926836126,
				"z": 1.8339845009,
				"element": "C" 
			},
			{
				"x": -2.2691540687,
				"y": -2.5270955713,
				"z": 1.3470365405,
				"element": "C" 
			},
			{
				"x": -3.0804124671,
				"y": -1.8593992363,
				"z": 0.4310658312,
				"element": "C" 
			},
			{
				"x": -2.7400129731,
				"y": -0.5724696956,
				"z": 0.0230592616,
				"element": "C" 
			},
			{
				"x": -2.145660617,
				"y": 2.8049082801,
				"z": -1.1271046749,
				"element": "H" 
			},
			{
				"x": -1.3432906112,
				"y": 2.1586637731,
				"z": 0.9015105308,
				"element": "H" 
			},
			{
				"x": 0.4365712712,
				"y": -0.1612754869,
				"z": 3.1496954807,
				"element": "H" 
			},
			{
				"x": 1.3337257456,
				"y": -0.7609990004,
				"z": 1.7741432876,
				"element": "H" 
			},
			{
				"x": 1.9577967988,
				"y": 1.5179950789,
				"z": 2.2712937162,
				"element": "H" 
			},
			{
				"x": 0.3062871165,
				"y": 2.0893860584,
				"z": 2.1564121244,
				"element": "H" 
			},
			{
				"x": -0.6016222186,
				"y": 1.7665632797,
				"z": -2.6098470879,
				"element": "H" 
			},
			{
				"x": 1.6768448178,
				"y": 2.0176620699,
				"z": -3.5786738094,
				"element": "H" 
			},
			{
				"x": 3.6633850586,
				"y": 2.0075244711,
				"z": -2.0770313356,
				"element": "H" 
			},
			{
				"x": 3.3575813139,
				"y": 1.722577911,
				"z": 0.3677794687,
				"element": "H" 
			},
			{
				"x": -0.4954405907,
				"y": -2.4129612383,
				"z": 2.5479321854,
				"element": "H" 
			},
			{
				"x": -2.5184040287,
				"y": -3.5304996066,
				"z": 1.6807154793,
				"element": "H" 
			},
			{
				"x": -3.9746146198,
				"y": -2.3335551713,
				"z": 0.0364084159,
				"element": "H" 
			},
			{
				"x": -3.3672812303,
				"y": -0.0432636741,
				"z": -0.6828803594,
				"element": "H" 
			}
		],
		 "valence_orbital": [ 
			{
				"type": "occ",
				"energy": -0.28266,
				"method": "rhf"
			},
			{
				"type": "occ",
				"energy": -0.24446,
				"method": "rhf"
			},
			{
				"type": "occ",
				"energy": -0.2382,
				"method": "rhf"
			},
			{
				"type": "occ",
				"energy": -0.23416,
				"method": "rhf"
			},
			{
				"type": "occ",
				"energy": -0.22697,
				"method": "rhf"
			},
			{
				"type": "unocc",
				"energy": -0.00288,
				"method": "rhf"
			},
			{
				"type": "unocc",
				"energy": -0.00111,
				"method": "rhf"
			},
			{
				"type": "unocc",
				"energy": 0.00808,
				"method": "rhf"
			},
			{
				"type": "unocc",
				"energy": 0.01341,
				"method": "rhf"
			},
			{
				"type": "unocc",
				"energy": 0.0784,
				"method": "rhf"
			}
		],
		"cosmo_sigma_profile": { 
			"-0.025": 0.0,
			"-0.024": 0.0,
			"-0.023": 0.0,
			"-0.022": 0.0,
			"-0.021": 0.0,
			"-0.02": 0.0,
			"-0.019": 0.0,
			"-0.018": 0.0,
			"-0.017": 0.0,
			"-0.016": 0.552395713984,
			"-0.015": 0.890676718923,
			"-0.014": 0.774490987611,
			"-0.013": 0.422154130317,
			"-0.012": 1.49567278466,
			"-0.011": 0.701088935159,
			"-0.01": 0.274212780228,
			"-0.009": 0.880575416162,
			"-0.008": 1.11594114668,
			"-0.007": 1.67040390336,
			"-0.006": 4.69730716068,
			"-0.005": 16.4669553728,
			"-0.004": 23.5584081829,
			"-0.003": 29.2837657228,
			"-0.002": 24.3173922048,
			"-0.001": 19.9380490851,
			"0.0": 13.4505017669,
			"0.001": 13.6182784135,
			"0.002": 12.4283477365,
			"0.003": 13.6847079062,
			"0.004": 17.4447498623,
			"0.005": 17.5614566363,
			"0.006": 18.5116289554,
			"0.007": 6.87356794375,
			"0.008": 1.75636000476,
			"0.009": 1.70083835702,
			"0.01": 1.70659231231,
			"0.011": 0.98881793957,
			"0.012": 0.214859347422,
			"0.013": 0.0,
			"0.014": 0.0,
			"0.015": 0.0,
			"0.016": 0.0,
			"0.017": 0.0,
			"0.018": 0.0,
			"0.019": 0.0,
			"0.02": 0.0,
			"0.021": 0.0,
			"0.022": 0.0,
			"0.023": 0.0,
			"0.024": 0.0,
			"0.025": 0.0
		}
	}
}
