{
	 "smiles": "CCCP(Cl)Cl", 
	 "Tm": 408.65, 
	 "num_atms": 13, 
	 "gaussian": { 
		 "optdone": 1, 
		 "sigma_profile": "yes", 
		 "theory": "DFT", 
		 "functional": "B3LYP", 
		 "basiset": "6-31G**", 
		 "properties": { 
			 "R2extent": 2840.1423, 
			 "electric_dipole_moment_norm": 3.01082774333, 
			 "electric_quadrupole_moment_norm": 7.84422002815, 
			 "total_energy": -1380.32695337, 
			 "HOMO_LUMO_gap": 0.21681, 
			 "cosmo_polarized_energy": -4.65, 
			 "cosmo_cavitation_energy": 20.63, 
			 "cosmo_dispersion_energy": -16.24, 
			 "cosmo_repulsion_energy": 1.55, 
			 "cosmo_total_nonelectrostatic_energy": 5.95, 
			 "SMD_solvation_energy": 2.57 
		},
		"coords": [
			{
				"x": -1.3447912691,
				"y": -2.0241805453,
				"z": -0.2742059109,
				"element": "C" 
			},
			{
				"x": -1.846522134,
				"y": -0.6569317875,
				"z": -0.7512043171,
				"element": "C" 
			},
			{
				"x": -1.5567372885,
				"y": 0.5273508502,
				"z": 0.1928741188,
				"element": "C" 
			},
			{
				"x": -2.6199908057,
				"y": 0.5507468849,
				"z": 1.7285824722,
				"element": "P" 
			},
			{
				"x": -2.13788806,
				"y": 2.4952338533,
				"z": 2.384996727,
				"element": "Cl" 
			},
			{
				"x": -1.4569069433,
				"y": -0.6275295106,
				"z": 3.0330682965,
				"element": "Cl" 
			},
			{
				"x": -0.2716789835,
				"y": -1.9981790668,
				"z": -0.0570484797,
				"element": "H" 
			},
			{
				"x": -1.5125009142,
				"y": -2.7805599614,
				"z": -1.0472462918,
				"element": "H" 
			},
			{
				"x": -1.8542660982,
				"y": -2.3595203711,
				"z": 0.6335049753,
				"element": "H" 
			},
			{
				"x": -1.3741839271,
				"y": -0.4184594026,
				"z": -1.7121304247,
				"element": "H" 
			},
			{
				"x": -2.9243323423,
				"y": -0.7057428313,
				"z": -0.954074341,
				"element": "H" 
			},
			{
				"x": -1.8115717427,
				"y": 1.4668408769,
				"z": -0.3131076816,
				"element": "H" 
			},
			{
				"x": -0.4984294914,
				"y": 0.5825310112,
				"z": 0.4686908569,
				"element": "H" 
			}
		],
		 "valence_orbital": [ 
			{
				"type": "occ",
				"energy": -0.35032,
				"method": "rhf"
			},
			{
				"type": "occ",
				"energy": -0.32722,
				"method": "rhf"
			},
			{
				"type": "occ",
				"energy": -0.32453,
				"method": "rhf"
			},
			{
				"type": "occ",
				"energy": -0.31667,
				"method": "rhf"
			},
			{
				"type": "occ",
				"energy": -0.26716,
				"method": "rhf"
			},
			{
				"type": "unocc",
				"energy": -0.05035,
				"method": "rhf"
			},
			{
				"type": "unocc",
				"energy": -0.04318,
				"method": "rhf"
			},
			{
				"type": "unocc",
				"energy": 0.04647,
				"method": "rhf"
			},
			{
				"type": "unocc",
				"energy": 0.08736,
				"method": "rhf"
			},
			{
				"type": "unocc",
				"energy": 0.12084,
				"method": "rhf"
			}
		],
		"cosmo_sigma_profile": { 
			"-0.025": 0.0,
			"-0.024": 0.0,
			"-0.023": 0.0,
			"-0.022": 0.0,
			"-0.021": 0.0,
			"-0.02": 0.0,
			"-0.019": 0.0,
			"-0.018": 0.0,
			"-0.017": 0.0,
			"-0.016": 0.0,
			"-0.015": 0.0,
			"-0.014": 0.0,
			"-0.013": 0.0,
			"-0.012": 0.0,
			"-0.011": 0.0,
			"-0.01": 0.119446746364,
			"-0.009": 1.02180657771,
			"-0.008": 0.911209876956,
			"-0.007": 2.34368323068,
			"-0.006": 4.44917397052,
			"-0.005": 7.248442786,
			"-0.004": 11.3861234725,
			"-0.003": 17.1465034191,
			"-0.002": 16.375857447,
			"-0.001": 15.7538841444,
			"0.0": 15.3513931418,
			"0.001": 16.402984219,
			"0.002": 11.0385902843,
			"0.003": 12.5543551387,
			"0.004": 18.1253399558,
			"0.005": 16.0941318106,
			"0.006": 1.91290246442,
			"0.007": 0.0,
			"0.008": 0.0,
			"0.009": 0.0,
			"0.01": 0.0,
			"0.011": 0.0,
			"0.012": 0.0,
			"0.013": 0.0,
			"0.014": 0.0,
			"0.015": 0.0,
			"0.016": 0.0,
			"0.017": 0.0,
			"0.018": 0.0,
			"0.019": 0.0,
			"0.02": 0.0,
			"0.021": 0.0,
			"0.022": 0.0,
			"0.023": 0.0,
			"0.024": 0.0,
			"0.025": 0.0
		}
	}
}
