{
	 "smiles": "CC(C(=O)NC1=CC=C(F)C(F)=C1F)(C(F)(F)F)C(F)(F)F", 
	 "Tm": 317.15, 
	 "num_atms": 28, 
	 "gaussian": { 
		 "optdone": 1, 
		 "sigma_profile": "yes", 
		 "theory": "DFT", 
		 "functional": "B3LYP", 
		 "basiset": "6-31G**", 
		 "properties": { 
			 "R2extent": 8955.9942, 
			 "electric_dipole_moment_norm": 1.98115618264, 
			 "electric_quadrupole_moment_norm": 12.6206467548, 
			 "total_energy": -1451.31581286, 
			 "HOMO_LUMO_gap": 0.20235, 
			 "cosmo_polarized_energy": -8.69, 
			 "cosmo_cavitation_energy": 35.92, 
			 "cosmo_dispersion_energy": -24.29, 
			 "cosmo_repulsion_energy": 1.64, 
			 "cosmo_total_nonelectrostatic_energy": 13.27, 
			 "SMD_solvation_energy": 9.97 
		},
		"coords": [
			{
				"x": 0.5814125155,
				"y": -3.1081975123,
				"z": 0.7889477768,
				"element": "C" 
			},
			{
				"x": -0.2448815603,
				"y": -2.332196367,
				"z": 1.8386491323,
				"element": "C" 
			},
			{
				"x": -0.5797685833,
				"y": -0.8885340638,
				"z": 1.3282902751,
				"element": "C" 
			},
			{
				"x": -1.7231269028,
				"y": -0.5512411166,
				"z": 1.0775951614,
				"element": "O" 
			},
			{
				"x": 0.516105601,
				"y": -0.0872623661,
				"z": 1.1409836854,
				"element": "N" 
			},
			{
				"x": 0.5282635863,
				"y": 1.2351635181,
				"z": 0.6579616344,
				"element": "C" 
			},
			{
				"x": -0.5893160725,
				"y": 1.9657740226,
				"z": 0.2314255474,
				"element": "C" 
			},
			{
				"x": -0.4326305742,
				"y": 3.2726442083,
				"z": -0.2348087375,
				"element": "C" 
			},
			{
				"x": 0.8236497846,
				"y": 3.8595370507,
				"z": -0.280884945,
				"element": "C" 
			},
			{
				"x": 0.9872427856,
				"y": 5.1149009906,
				"z": -0.7266323675,
				"element": "F" 
			},
			{
				"x": 1.9478996245,
				"y": 3.1492696842,
				"z": 0.1390589285,
				"element": "C" 
			},
			{
				"x": 3.1656777636,
				"y": 3.7015325302,
				"z": 0.1003421969,
				"element": "F" 
			},
			{
				"x": 1.7865950742,
				"y": 1.8510349203,
				"z": 0.6007436165,
				"element": "C" 
			},
			{
				"x": 2.8722426003,
				"y": 1.1568755942,
				"z": 1.0083291229,
				"element": "F" 
			},
			{
				"x": 0.5368630326,
				"y": -2.2582952073,
				"z": 3.1700167475,
				"element": "C" 
			},
			{
				"x": -0.0684309966,
				"y": -1.4595148663,
				"z": 4.0612801434,
				"element": "F" 
			},
			{
				"x": 0.7140511997,
				"y": -3.4610122183,
				"z": 3.7341945721,
				"element": "F" 
			},
			{
				"x": 1.7867042158,
				"y": -1.7501050713,
				"z": 2.95717739,
				"element": "F" 
			},
			{
				"x": -1.5804416134,
				"y": -3.0914672489,
				"z": 2.0630934244,
				"element": "C" 
			},
			{
				"x": -2.2739875142,
				"y": -3.1846070467,
				"z": 0.917987524,
				"element": "F" 
			},
			{
				"x": -2.3484961244,
				"y": -2.5080942574,
				"z": 2.9923615539,
				"element": "F" 
			},
			{
				"x": -1.3387942489,
				"y": -4.3573802022,
				"z": 2.4734644812,
				"element": "F" 
			},
			{
				"x": 0.7756294357,
				"y": -4.1227875491,
				"z": 1.1419089079,
				"element": "H" 
			},
			{
				"x": 1.5361474171,
				"y": -2.6183560904,
				"z": 0.5963680584,
				"element": "H" 
			},
			{
				"x": 0.0218650935,
				"y": -3.1641975697,
				"z": -0.1461767045,
				"element": "H" 
			},
			{
				"x": 1.4147869809,
				"y": -0.4272547054,
				"z": 1.454760037,
				"element": "H" 
			},
			{
				"x": -1.5653230973,
				"y": 1.5061455808,
				"z": 0.27206557,
				"element": "H" 
			},
			{
				"x": -1.2893394231,
				"y": 3.8483253588,
				"z": -0.5664027329,
				"element": "H" 
			}
		],
		 "valence_orbital": [ 
			{
				"type": "occ",
				"energy": -0.37444,
				"method": "rhf"
			},
			{
				"type": "occ",
				"energy": -0.32593,
				"method": "rhf"
			},
			{
				"type": "occ",
				"energy": -0.28621,
				"method": "rhf"
			},
			{
				"type": "occ",
				"energy": -0.26767,
				"method": "rhf"
			},
			{
				"type": "occ",
				"energy": -0.2425,
				"method": "rhf"
			},
			{
				"type": "unocc",
				"energy": -0.04015,
				"method": "rhf"
			},
			{
				"type": "unocc",
				"energy": -0.02334,
				"method": "rhf"
			},
			{
				"type": "unocc",
				"energy": 0.01536,
				"method": "rhf"
			},
			{
				"type": "unocc",
				"energy": 0.03218,
				"method": "rhf"
			},
			{
				"type": "unocc",
				"energy": 0.07213,
				"method": "rhf"
			}
		],
		"cosmo_sigma_profile": { 
			"-0.025": 0.0,
			"-0.024": 0.0,
			"-0.023": 0.0,
			"-0.022": 0.0,
			"-0.021": 0.0,
			"-0.02": 0.0,
			"-0.019": 0.0,
			"-0.018": 0.0,
			"-0.017": 0.0,
			"-0.016": 0.0,
			"-0.015": 0.0,
			"-0.014": 0.0,
			"-0.013": 0.0876288046648,
			"-0.012": 0.769063752297,
			"-0.011": 0.240473845962,
			"-0.01": 1.17481493676,
			"-0.009": 1.42801400664,
			"-0.008": 3.37716513792,
			"-0.007": 5.72623383742,
			"-0.006": 9.81033586764,
			"-0.005": 10.299196339,
			"-0.004": 13.4064573343,
			"-0.003": 19.3272880468,
			"-0.002": 25.2073670812,
			"-0.001": 22.9020708352,
			"0.0": 25.0694119867,
			"0.001": 40.2152827046,
			"0.002": 53.7645380543,
			"0.003": 33.9307240692,
			"0.004": 7.37866433217,
			"0.005": 2.3193353712,
			"0.006": 2.13032627172,
			"0.007": 1.76324534065,
			"0.008": 2.4234277603,
			"0.009": 2.62587310675,
			"0.01": 2.53296609656,
			"0.011": 1.40524265608,
			"0.012": 0.0,
			"0.013": 0.0,
			"0.014": 0.0,
			"0.015": 0.0,
			"0.016": 0.0,
			"0.017": 0.0,
			"0.018": 0.0,
			"0.019": 0.0,
			"0.02": 0.0,
			"0.021": 0.0,
			"0.022": 0.0,
			"0.023": 0.0,
			"0.024": 0.0,
			"0.025": 0.0
		}
	}
}
