{
	 "smiles": "NC1=CN=C(OC2=CC=CC=C2)C=C1", 
	 "Tm": 344.65, 
	 "num_atms": 24, 
	 "gaussian": { 
		 "optdone": 1, 
		 "sigma_profile": "yes", 
		 "theory": "DFT", 
		 "functional": "B3LYP", 
		 "basiset": "6-31G**", 
		 "properties": { 
			 "R2extent": 3723.4573, 
			 "electric_dipole_moment_norm": 3.07910222468, 
			 "electric_quadrupole_moment_norm": 18.3193326958, 
			 "total_energy": -609.914678582, 
			 "HOMO_LUMO_gap": 0.17598, 
			 "cosmo_polarized_energy": -12.7, 
			 "cosmo_cavitation_energy": 28.6, 
			 "cosmo_dispersion_energy": -21.15, 
			 "cosmo_repulsion_energy": 1.67, 
			 "cosmo_total_nonelectrostatic_energy": 9.12, 
			 "SMD_solvation_energy": 4.3 
		},
		"coords": [
			{
				"x": 4.8548646339,
				"y": 0.5887696321,
				"z": 0.653697836,
				"element": "N" 
			},
			{
				"x": 3.5758496842,
				"y": 0.0363579507,
				"z": 0.7874283924,
				"element": "C" 
			},
			{
				"x": 2.4313034873,
				"y": 0.8415421174,
				"z": 0.8501064223,
				"element": "C" 
			},
			{
				"x": 1.1828431573,
				"y": 0.3633728541,
				"z": 0.9212915701,
				"element": "N" 
			},
			{
				"x": 1.016413887,
				"y": -0.9482001791,
				"z": 0.9266023849,
				"element": "C" 
			},
			{
				"x": -0.2391400523,
				"y": -1.4913162519,
				"z": 1.0473644909,
				"element": "O" 
			},
			{
				"x": -1.3843354132,
				"y": -0.7510316262,
				"z": 0.8000410269,
				"element": "C" 
			},
			{
				"x": -1.5352158627,
				"y": 0.0611070197,
				"z": -0.3267842579,
				"element": "C" 
			},
			{
				"x": -2.7595636837,
				"y": 0.6902399155,
				"z": -0.549948239,
				"element": "C" 
			},
			{
				"x": -3.8274901365,
				"y": 0.5097144677,
				"z": 0.33271169,
				"element": "C" 
			},
			{
				"x": -3.6647058264,
				"y": -0.3102534292,
				"z": 1.4503383074,
				"element": "C" 
			},
			{
				"x": -2.4427532908,
				"y": -0.9400833861,
				"z": 1.6889425007,
				"element": "C" 
			},
			{
				"x": 2.0798415768,
				"y": -1.8597028753,
				"z": 0.8659700924,
				"element": "C" 
			},
			{
				"x": 3.3689686339,
				"y": -1.3554720793,
				"z": 0.7972137631,
				"element": "C" 
			},
			{
				"x": 4.9302386228,
				"y": 1.5470162063,
				"z": 0.9693081303,
				"element": "H" 
			},
			{
				"x": 5.6004523391,
				"y": 0.0218709362,
				"z": 1.0355176642,
				"element": "H" 
			},
			{
				"x": 2.529341142,
				"y": 1.9271246749,
				"z": 0.844321383,
				"element": "H" 
			},
			{
				"x": -0.7065727036,
				"y": 0.202539253,
				"z": -1.0098348903,
				"element": "H" 
			},
			{
				"x": -2.8785000682,
				"y": 1.3239875334,
				"z": -1.4243092576,
				"element": "H" 
			},
			{
				"x": -4.7772748359,
				"y": 1.0030063641,
				"z": 0.1492332653,
				"element": "H" 
			},
			{
				"x": -4.4880106502,
				"y": -0.4603333929,
				"z": 2.1429567873,
				"element": "H" 
			},
			{
				"x": -2.2941345401,
				"y": -1.5817242457,
				"z": 2.5512558528,
				"element": "H" 
			},
			{
				"x": 1.8815455631,
				"y": -2.9254678201,
				"z": 0.8750462809,
				"element": "H" 
			},
			{
				"x": 4.2181343364,
				"y": -2.0321636394,
				"z": 0.7428288039,
				"element": "H" 
			}
		],
		 "valence_orbital": [ 
			{
				"type": "occ",
				"energy": -0.27601,
				"method": "rhf"
			},
			{
				"type": "occ",
				"energy": -0.26361,
				"method": "rhf"
			},
			{
				"type": "occ",
				"energy": -0.24121,
				"method": "rhf"
			},
			{
				"type": "occ",
				"energy": -0.23096,
				"method": "rhf"
			},
			{
				"type": "occ",
				"energy": -0.19707,
				"method": "rhf"
			},
			{
				"type": "unocc",
				"energy": -0.02109,
				"method": "rhf"
			},
			{
				"type": "unocc",
				"energy": 0.00577,
				"method": "rhf"
			},
			{
				"type": "unocc",
				"energy": 0.00815,
				"method": "rhf"
			},
			{
				"type": "unocc",
				"energy": 0.0257,
				"method": "rhf"
			},
			{
				"type": "unocc",
				"energy": 0.07429,
				"method": "rhf"
			}
		],
		"cosmo_sigma_profile": { 
			"-0.025": 0.0,
			"-0.024": 0.0,
			"-0.023": 0.0,
			"-0.022": 0.0,
			"-0.021": 0.0,
			"-0.02": 0.0,
			"-0.019": 0.0,
			"-0.018": 0.0,
			"-0.017": 0.0,
			"-0.016": 0.0,
			"-0.015": 0.0,
			"-0.014": 0.0,
			"-0.013": 0.832013428742,
			"-0.012": 3.13774745104,
			"-0.011": 2.60610756033,
			"-0.01": 3.69580242841,
			"-0.009": 2.96446339732,
			"-0.008": 3.24017038496,
			"-0.007": 6.18725975698,
			"-0.006": 12.1386865829,
			"-0.005": 16.6334288909,
			"-0.004": 15.0115808543,
			"-0.003": 14.5150020587,
			"-0.002": 12.0282722433,
			"-0.001": 10.4418428385,
			"0.0": 11.4793124148,
			"0.001": 13.3249393751,
			"0.002": 17.5332227376,
			"0.003": 22.7021364277,
			"0.004": 17.6396183818,
			"0.005": 14.2577214187,
			"0.006": 9.3135635327,
			"0.007": 3.69222717702,
			"0.008": 3.95537684524,
			"0.009": 2.89745080887,
			"0.01": 1.96477389816,
			"0.011": 1.58443387869,
			"0.012": 1.28437574765,
			"0.013": 1.72266185868,
			"0.014": 1.65021085432,
			"0.015": 0.433223866651,
			"0.016": 0.0,
			"0.017": 0.0,
			"0.018": 0.0,
			"0.019": 0.0,
			"0.02": 0.0,
			"0.021": 0.0,
			"0.022": 0.0,
			"0.023": 0.0,
			"0.024": 0.0,
			"0.025": 0.0
		}
	}
}
