{
	 "smiles": "CC1(C)C2CCC1(C)C(=O)C2=C/C=C1/C2CCC(C)(C1=O)C2(C)C", 
	 "Tm": 557.15, 
	 "num_atms": 54, 
	 "gaussian": { 
		 "optdone": 1, 
		 "sigma_profile": "yes", 
		 "theory": "DFT", 
		 "functional": "B3LYP", 
		 "basiset": "6-31G**", 
		 "properties": { 
			 "R2extent": 11046.8261, 
			 "electric_dipole_moment_norm": 0.0911005488458, 
			 "electric_quadrupole_moment_norm": 22.8947325946, 
			 "total_energy": -1006.86162184, 
			 "HOMO_LUMO_gap": 0.14426, 
			 "cosmo_polarized_energy": -10.28, 
			 "cosmo_cavitation_energy": 50.11, 
			 "cosmo_dispersion_energy": -33.96, 
			 "cosmo_repulsion_energy": 2.55, 
			 "cosmo_total_nonelectrostatic_energy": 18.7, 
			 "SMD_solvation_energy": 8.99 
		},
		"coords": [
			{
				"x": -2.7054583533,
				"y": 1.0098241558,
				"z": -2.4847045016,
				"element": "C" 
			},
			{
				"x": -1.7043143761,
				"y": 0.3338674357,
				"z": -3.4385498429,
				"element": "C" 
			},
			{
				"x": -2.0584857375,
				"y": 0.7634673817,
				"z": -4.8712726992,
				"element": "C" 
			},
			{
				"x": -0.2083293699,
				"y": 0.5897829585,
				"z": -3.0464940259,
				"element": "C" 
			},
			{
				"x": 0.5640121247,
				"y": -0.329493266,
				"z": -4.0378305989,
				"element": "C" 
			},
			{
				"x": -0.3600891038,
				"y": -1.5810926129,
				"z": -4.1339448695,
				"element": "C" 
			},
			{
				"x": -1.5923998889,
				"y": -1.2226038195,
				"z": -3.2346399029,
				"element": "C" 
			},
			{
				"x": -2.8163929684,
				"y": -2.0967132139,
				"z": -3.4412806545,
				"element": "C" 
			},
			{
				"x": -1.016014971,
				"y": -1.2798212917,
				"z": -1.809116877,
				"element": "C" 
			},
			{
				"x": -1.2448248955,
				"y": -2.143553809,
				"z": -0.9766622368,
				"element": "O" 
			},
			{
				"x": -0.1169677712,
				"y": -0.0848092068,
				"z": -1.6933393205,
				"element": "C" 
			},
			{
				"x": 0.6248119681,
				"y": 0.3075807995,
				"z": -0.630864715,
				"element": "C" 
			},
			{
				"x": 0.6817618313,
				"y": -0.3969323276,
				"z": 0.6338948925,
				"element": "C" 
			},
			{
				"x": 1.4094950849,
				"y": 0.005059553,
				"z": 1.7024750052,
				"element": "C" 
			},
			{
				"x": 1.5306258031,
				"y": -0.6904789437,
				"z": 3.0426388419,
				"element": "C" 
			},
			{
				"x": 2.9629068601,
				"y": -1.2999726643,
				"z": 3.0821845127,
				"element": "C" 
			},
			{
				"x": 3.8693719564,
				"y": -0.0361497935,
				"z": 3.1859942674,
				"element": "C" 
			},
			{
				"x": 2.8594705136,
				"y": 1.1601715249,
				"z": 3.2549739281,
				"element": "C" 
			},
			{
				"x": 3.4488961336,
				"y": 2.4739496448,
				"z": 3.7359985154,
				"element": "C" 
			},
			{
				"x": 2.2839332283,
				"y": 1.2170834948,
				"z": 1.8291113967,
				"element": "C" 
			},
			{
				"x": 2.5255959014,
				"y": 2.0720301818,
				"z": 0.9912376694,
				"element": "O" 
			},
			{
				"x": 1.6479504872,
				"y": 0.5212664193,
				"z": 4.0301027829,
				"element": "C" 
			},
			{
				"x": 1.9619259394,
				"y": 0.1195834347,
				"z": 5.4801696391,
				"element": "C" 
			},
			{
				"x": 0.3918677904,
				"y": 1.4105640489,
				"z": 4.050677451,
				"element": "C" 
			},
			{
				"x": -3.732235548,
				"y": 0.7195301625,
				"z": -2.7314871349,
				"element": "H" 
			},
			{
				"x": -2.5324938692,
				"y": 0.7605666509,
				"z": -1.4342665356,
				"element": "H" 
			},
			{
				"x": -2.6421413288,
				"y": 2.099795616,
				"z": -2.5778879896,
				"element": "H" 
			},
			{
				"x": -3.0973156457,
				"y": 0.5038595546,
				"z": -5.1019366416,
				"element": "H" 
			},
			{
				"x": -1.4287058877,
				"y": 0.30769942,
				"z": -5.6377482899,
				"element": "H" 
			},
			{
				"x": -1.9653247317,
				"y": 1.8510205345,
				"z": -4.9708701882,
				"element": "H" 
			},
			{
				"x": 0.1155741562,
				"y": 1.6341850237,
				"z": -3.0519680677,
				"element": "H" 
			},
			{
				"x": 0.6903008755,
				"y": 0.1577838081,
				"z": -5.0090405654,
				"element": "H" 
			},
			{
				"x": 1.5622584744,
				"y": -0.5697277979,
				"z": -3.6630423064,
				"element": "H" 
			},
			{
				"x": 0.1285433574,
				"y": -2.4978008504,
				"z": -3.7895237263,
				"element": "H" 
			},
			{
				"x": -0.6931552445,
				"y": -1.7664968,
				"z": -5.1598443756,
				"element": "H" 
			},
			{
				"x": -2.5918401462,
				"y": -3.132245588,
				"z": -3.1683642117,
				"element": "H" 
			},
			{
				"x": -3.1459095593,
				"y": -2.0796149612,
				"z": -4.4852733316,
				"element": "H" 
			},
			{
				"x": -3.6508779691,
				"y": -1.7726133905,
				"z": -2.8115910787,
				"element": "H" 
			},
			{
				"x": 1.2244336477,
				"y": 1.2113107413,
				"z": -0.7089245661,
				"element": "H" 
			},
			{
				"x": 0.0902981204,
				"y": -1.3063197442,
				"z": 0.7083855148,
				"element": "H" 
			},
			{
				"x": 0.7293390102,
				"y": -1.4039159985,
				"z": 3.2539842513,
				"element": "H" 
			},
			{
				"x": 3.0857751042,
				"y": -1.9600053687,
				"z": 3.9458298721,
				"element": "H" 
			},
			{
				"x": 3.1678432011,
				"y": -1.8940806168,
				"z": 2.1879209416,
				"element": "H" 
			},
			{
				"x": 4.5508991108,
				"y": 0.0690926217,
				"z": 2.3361774499,
				"element": "H" 
			},
			{
				"x": 4.4886681716,
				"y": -0.049202014,
				"z": 4.0882571448,
				"element": "H" 
			},
			{
				"x": 4.2134275511,
				"y": 2.8243143601,
				"z": 3.0360193892,
				"element": "H" 
			},
			{
				"x": 3.9097726123,
				"y": 2.3654218312,
				"z": 4.7232160459,
				"element": "H" 
			},
			{
				"x": 2.6861553164,
				"y": 3.2565640047,
				"z": 3.7963506362,
				"element": "H" 
			},
			{
				"x": 2.0915497974,
				"y": 1.0108601945,
				"z": 6.1035674319,
				"element": "H" 
			},
			{
				"x": 1.1268717789,
				"y": -0.4526095441,
				"z": 5.9004571927,
				"element": "H" 
			},
			{
				"x": 2.8629329741,
				"y": -0.4878672283,
				"z": 5.5853204463,
				"element": "H" 
			},
			{
				"x": -0.4538858572,
				"y": 0.8632838451,
				"z": 4.4818479346,
				"element": "H" 
			},
			{
				"x": 0.0896481341,
				"y": 1.7491325182,
				"z": 3.0559378243,
				"element": "H" 
			},
			{
				"x": 0.5562462068,
				"y": 2.2990689311,
				"z": 4.6695382765,
				"element": "H" 
			}
		],
		 "valence_orbital": [ 
			{
				"type": "occ",
				"energy": -0.29771,
				"method": "rhf"
			},
			{
				"type": "occ",
				"energy": -0.29142,
				"method": "rhf"
			},
			{
				"type": "occ",
				"energy": -0.24056,
				"method": "rhf"
			},
			{
				"type": "occ",
				"energy": -0.22556,
				"method": "rhf"
			},
			{
				"type": "occ",
				"energy": -0.22535,
				"method": "rhf"
			},
			{
				"type": "unocc",
				"energy": -0.08109,
				"method": "rhf"
			},
			{
				"type": "unocc",
				"energy": -0.01516,
				"method": "rhf"
			},
			{
				"type": "unocc",
				"energy": 0.05887,
				"method": "rhf"
			},
			{
				"type": "unocc",
				"energy": 0.07449,
				"method": "rhf"
			},
			{
				"type": "unocc",
				"energy": 0.07457,
				"method": "rhf"
			}
		],
		"cosmo_sigma_profile": { 
			"-0.025": 0.0,
			"-0.024": 0.0,
			"-0.023": 0.0,
			"-0.022": 0.0,
			"-0.021": 0.0,
			"-0.02": 0.0,
			"-0.019": 0.0,
			"-0.018": 0.0,
			"-0.017": 0.0,
			"-0.016": 0.0,
			"-0.015": 0.0,
			"-0.014": 0.0,
			"-0.013": 0.0,
			"-0.012": 0.0,
			"-0.011": 0.0,
			"-0.01": 0.0,
			"-0.009": 0.0,
			"-0.008": 0.0,
			"-0.007": 0.0,
			"-0.006": 0.0,
			"-0.005": 1.04668946725,
			"-0.004": 20.0277245774,
			"-0.003": 56.2763342079,
			"-0.002": 71.1886550658,
			"-0.001": 62.6868092887,
			"0.0": 57.8242709209,
			"0.001": 50.2465653737,
			"0.002": 20.3284956112,
			"0.003": 7.88969887971,
			"0.004": 5.04295288269,
			"0.005": 4.10057232224,
			"0.006": 3.23671984179,
			"0.007": 3.85601184843,
			"0.008": 2.69034716784,
			"0.009": 3.8764856433,
			"0.01": 4.6001507219,
			"0.011": 5.11403256403,
			"0.012": 5.95115476115,
			"0.013": 2.20487517995,
			"0.014": 0.0,
			"0.015": 0.0,
			"0.016": 0.0,
			"0.017": 0.0,
			"0.018": 0.0,
			"0.019": 0.0,
			"0.02": 0.0,
			"0.021": 0.0,
			"0.022": 0.0,
			"0.023": 0.0,
			"0.024": 0.0,
			"0.025": 0.0
		}
	}
}
