{
	 "smiles": "CCCCCCCCCI", 
	 "Tm": 253.15, 
	 "num_atms": 29, 
	 "gaussian": { 
		 "optdone": 1, 
		 "sigma_profile": "no", 
		 "theory": "DFT", 
		 "functional": "B3LYP", 
		 "basiset": "6-31G**", 
		 "properties": { 
			 "R2extent": 3085.4614, 
			 "electric_dipole_moment_norm": 2.34972581592, 
			 "electric_quadrupole_moment_norm": 11.8680425362, 
			 "total_energy": -365.82539538, 
			 "HOMO_LUMO_gap": 0.21414, 
			 "cosmo_polarized_energy": -106658.44, 
			 "cosmo_cavitation_energy": 32.51, 
			 "cosmo_dispersion_energy": -23.99, 
			 "cosmo_repulsion_energy": 1.97, 
			 "cosmo_total_nonelectrostatic_energy": 10.49, 
			 "SMD_solvation_energy": 3.78 
		},
		"coords": [
			{
				"x": -0.3126804461,
				"y": -3.1175337347,
				"z": 3.2369879182,
				"element": "C" 
			},
			{
				"x": 0.5831443784,
				"y": -3.5983068782,
				"z": 2.0888232302,
				"element": "C" 
			},
			{
				"x": 0.3635718791,
				"y": -2.8625809122,
				"z": 0.7560965529,
				"element": "C" 
			},
			{
				"x": 0.772782216,
				"y": -1.381626788,
				"z": 0.7705497793,
				"element": "C" 
			},
			{
				"x": 0.6119599887,
				"y": -0.6773914131,
				"z": -0.5911166354,
				"element": "C" 
			},
			{
				"x": -0.8416174755,
				"y": -0.3988621176,
				"z": -1.0426788238,
				"element": "C" 
			},
			{
				"x": -1.3808698336,
				"y": 1.0038771207,
				"z": -0.7085606089,
				"element": "C" 
			},
			{
				"x": -1.5101308129,
				"y": 1.3172333726,
				"z": 0.7866687997,
				"element": "C" 
			},
			{
				"x": -2.2008737834,
				"y": 2.6364089285,
				"z": 1.1073212129,
				"element": "C" 
			},
			{
				"x": -1.0506165003,
				"y": 4.41309985,
				"z": 0.5133107176,
				"element": "I" 
			},
			{
				"x": -1.3731907018,
				"y": -3.2039583983,
				"z": 2.9719107402,
				"element": "H" 
			},
			{
				"x": -0.1482072053,
				"y": -3.7133313927,
				"z": 4.1408684025,
				"element": "H" 
			},
			{
				"x": -0.1205534651,
				"y": -2.0713798249,
				"z": 3.4966061905,
				"element": "H" 
			},
			{
				"x": 0.4095696845,
				"y": -4.6702299689,
				"z": 1.9294095854,
				"element": "H" 
			},
			{
				"x": 1.6373198386,
				"y": -3.503466176,
				"z": 2.383819899,
				"element": "H" 
			},
			{
				"x": -0.6924280481,
				"y": -2.958611503,
				"z": 0.4673876919,
				"element": "H" 
			},
			{
				"x": 0.9381781176,
				"y": -3.373610395,
				"z": -0.0287392146,
				"element": "H" 
			},
			{
				"x": 0.203319805,
				"y": -0.8451225129,
				"z": 1.5385012809,
				"element": "H" 
			},
			{
				"x": 1.8262437568,
				"y": -1.3168063187,
				"z": 1.0761730976,
				"element": "H" 
			},
			{
				"x": 1.1095130928,
				"y": -1.2962522079,
				"z": -1.3493208819,
				"element": "H" 
			},
			{
				"x": 1.1656860385,
				"y": 0.270875502,
				"z": -0.5758021228,
				"element": "H" 
			},
			{
				"x": -0.9034807602,
				"y": -0.5165992029,
				"z": -2.1311256814,
				"element": "H" 
			},
			{
				"x": -1.5167366766,
				"y": -1.1585939151,
				"z": -0.6264056872,
				"element": "H" 
			},
			{
				"x": -0.7346699559,
				"y": 1.7567703338,
				"z": -1.1769589351,
				"element": "H" 
			},
			{
				"x": -2.3695713797,
				"y": 1.1180653382,
				"z": -1.1746296133,
				"element": "H" 
			},
			{
				"x": -2.1190744645,
				"y": 0.5349759511,
				"z": 1.2671724414,
				"element": "H" 
			},
			{
				"x": -0.5313406539,
				"y": 1.2908640857,
				"z": 1.2765424321,
				"element": "H" 
			},
			{
				"x": -2.3504398942,
				"y": 2.7757730813,
				"z": 2.1769883321,
				"element": "H" 
			},
			{
				"x": -3.153206739,
				"y": 2.7482200962,
				"z": 0.5881999,
				"element": "H" 
			}
		],
		 "valence_orbital": [ 
			{
				"type": "occ",
				"energy": -0.31268,
				"method": "rhf"
			},
			{
				"type": "occ",
				"energy": -0.30912,
				"method": "rhf"
			},
			{
				"type": "occ",
				"energy": -0.30626,
				"method": "rhf"
			},
			{
				"type": "occ",
				"energy": -0.25543,
				"method": "rhf"
			},
			{
				"type": "occ",
				"energy": -0.25339,
				"method": "rhf"
			},
			{
				"type": "unocc",
				"energy": -0.03925,
				"method": "rhf"
			},
			{
				"type": "unocc",
				"energy": 0.04073,
				"method": "rhf"
			},
			{
				"type": "unocc",
				"energy": 0.04199,
				"method": "rhf"
			},
			{
				"type": "unocc",
				"energy": 0.05615,
				"method": "rhf"
			},
			{
				"type": "unocc",
				"energy": 0.0865,
				"method": "rhf"
			}
		],
		"cosmo_sigma_profile": { 
			"0.0": 0.0,
			"0.0": 0.0,
			"0.0": 0.0,
			"0.0": 0.0,
			"0.0": 0.0,
			"0.0": 0.0,
			"0.0": 0.0,
			"0.0": 0.0,
			"0.0": 0.0,
			"0.0": 0.0,
			"0.0": 0.0,
			"0.0": 0.0,
			"0.0": 0.0,
			"0.0": 0.0,
			"0.0": 0.0,
			"0.0": 0.0,
			"0.0": 0.0,
			"0.0": 0.0,
			"0.0": 0.0,
			"0.0": 0.0,
			"0.0": 0.0,
			"0.0": 0.0,
			"0.0": 0.0,
			"0.0": 0.0,
			"0.0": 0.0,
			"0.0": 0.0,
			"0.0": 0.0,
			"0.0": 0.0,
			"0.0": 0.0,
			"0.0": 0.0,
			"0.0": 0.0,
			"0.0": 0.0,
			"0.0": 0.0,
			"0.0": 0.0,
			"0.0": 0.0,
			"0.0": 0.0,
			"0.0": 0.0,
			"0.0": 0.0,
			"0.0": 0.0,
			"0.0": 0.0,
			"0.0": 0.0,
			"0.0": 0.0,
			"0.0": 0.0,
			"0.0": 0.0,
			"0.0": 0.0,
			"0.0": 0.0,
			"0.0": 0.0,
			"0.0": 0.0,
			"0.0": 0.0,
			"0.0": 0.0,
			"0.0": 0.0
		}
	}
}
