{
	 "smiles": "NC1=C(Cl)C=CC(=C1)S(=O)(=O)NC1CC1", 
	 "Tm": 399.15, 
	 "num_atms": 26, 
	 "gaussian": { 
		 "optdone": 1, 
		 "sigma_profile": "yes", 
		 "theory": "DFT", 
		 "functional": "B3LYP", 
		 "basiset": "6-31G**", 
		 "properties": { 
			 "R2extent": 5143.4838, 
			 "electric_dipole_moment_norm": 5.91065582317, 
			 "electric_quadrupole_moment_norm": 24.2637926868, 
			 "total_energy": -1467.81578134, 
			 "HOMO_LUMO_gap": 0.18563, 
			 "cosmo_polarized_energy": -19.58, 
			 "cosmo_cavitation_energy": 32.62, 
			 "cosmo_dispersion_energy": -23.76, 
			 "cosmo_repulsion_energy": 1.83, 
			 "cosmo_total_nonelectrostatic_energy": 10.7, 
			 "SMD_solvation_energy": 3.46 
		},
		"coords": [
			{
				"x": 1.2563374563,
				"y": 1.8147237415,
				"z": 3.4214445317,
				"element": "N" 
			},
			{
				"x": 1.302950952,
				"y": 1.6990524328,
				"z": 2.047863737,
				"element": "C" 
			},
			{
				"x": 2.5011165434,
				"y": 1.4014085348,
				"z": 1.362991368,
				"element": "C" 
			},
			{
				"x": 3.9570993495,
				"y": 1.08200059,
				"z": 2.299711462,
				"element": "Cl" 
			},
			{
				"x": 2.5691249954,
				"y": 1.3620470774,
				"z": -0.0267462655,
				"element": "C" 
			},
			{
				"x": 1.4307287537,
				"y": 1.6038189537,
				"z": -0.7931401116,
				"element": "C" 
			},
			{
				"x": 0.2342929597,
				"y": 1.8781022462,
				"z": -0.127301964,
				"element": "C" 
			},
			{
				"x": 0.1595115761,
				"y": 1.9310948551,
				"z": 1.2610820806,
				"element": "C" 
			},
			{
				"x": -1.2698190093,
				"y": 2.1478781094,
				"z": -1.0793120117,
				"element": "S" 
			},
			{
				"x": -2.2018469645,
				"y": 2.8805544778,
				"z": -0.219670886,
				"element": "O" 
			},
			{
				"x": -0.8615569531,
				"y": 2.6222794978,
				"z": -2.4014179531,
				"element": "O" 
			},
			{
				"x": -1.9998212307,
				"y": 0.6560207108,
				"z": -1.3266967026,
				"element": "N" 
			},
			{
				"x": -1.4035305208,
				"y": -0.3286782277,
				"z": -2.1963796381,
				"element": "C" 
			},
			{
				"x": -0.3510956637,
				"y": -1.3087790667,
				"z": -1.718999312,
				"element": "C" 
			},
			{
				"x": -1.7648187562,
				"y": -1.7716525593,
				"z": -1.9870279736,
				"element": "C" 
			},
			{
				"x": 2.0067178552,
				"y": 1.3884045066,
				"z": 3.9442302694,
				"element": "H" 
			},
			{
				"x": 0.3477150632,
				"y": 1.7502516945,
				"z": 3.8538096907,
				"element": "H" 
			},
			{
				"x": 3.5193410493,
				"y": 1.1455786726,
				"z": -0.5025654965,
				"element": "H" 
			},
			{
				"x": 1.4710000807,
				"y": 1.602461962,
				"z": -1.875221985,
				"element": "H" 
			},
			{
				"x": -0.7801854108,
				"y": 2.1913390969,
				"z": 1.7381439822,
				"element": "H" 
			},
			{
				"x": -2.4770108341,
				"y": 0.3216915409,
				"z": -0.4969453759,
				"element": "H" 
			},
			{
				"x": -1.3316970131,
				"y": 0.0276597663,
				"z": -3.2186294276,
				"element": "H" 
			},
			{
				"x": -0.0317965231,
				"y": -1.2435738855,
				"z": -0.6839038344,
				"element": "H" 
			},
			{
				"x": 0.4321249343,
				"y": -1.5954556018,
				"z": -2.4141418204,
				"element": "H" 
			},
			{
				"x": -2.3847723613,
				"y": -2.0197784079,
				"z": -1.1291419981,
				"element": "H" 
			},
			{
				"x": -1.9698103281,
				"y": -2.3759507182,
				"z": -2.8648343653,
				"element": "H" 
			}
		],
		 "valence_orbital": [ 
			{
				"type": "occ",
				"energy": -0.30103,
				"method": "rhf"
			},
			{
				"type": "occ",
				"energy": -0.29651,
				"method": "rhf"
			},
			{
				"type": "occ",
				"energy": -0.27193,
				"method": "rhf"
			},
			{
				"type": "occ",
				"energy": -0.25173,
				"method": "rhf"
			},
			{
				"type": "occ",
				"energy": -0.22537,
				"method": "rhf"
			},
			{
				"type": "unocc",
				"energy": -0.03974,
				"method": "rhf"
			},
			{
				"type": "unocc",
				"energy": -0.01266,
				"method": "rhf"
			},
			{
				"type": "unocc",
				"energy": 0.01794,
				"method": "rhf"
			},
			{
				"type": "unocc",
				"energy": 0.06409,
				"method": "rhf"
			},
			{
				"type": "unocc",
				"energy": 0.07077,
				"method": "rhf"
			}
		],
		"cosmo_sigma_profile": { 
			"-0.025": 0.0,
			"-0.024": 0.0,
			"-0.023": 0.0,
			"-0.022": 0.0,
			"-0.021": 0.0,
			"-0.02": 0.0,
			"-0.019": 0.0,
			"-0.018": 0.0,
			"-0.017": 0.0,
			"-0.016": 0.0,
			"-0.015": 0.916594981198,
			"-0.014": 1.66625658101,
			"-0.013": 2.96880261159,
			"-0.012": 3.72101682578,
			"-0.011": 3.97341856228,
			"-0.01": 3.88016953799,
			"-0.009": 3.9097032929,
			"-0.008": 4.43121225113,
			"-0.007": 6.33556848399,
			"-0.006": 10.3336130534,
			"-0.005": 15.3853039522,
			"-0.004": 13.7788537774,
			"-0.003": 14.2631073259,
			"-0.002": 14.6177369611,
			"-0.001": 15.7079444578,
			"0.0": 18.8092633969,
			"0.001": 21.9225349739,
			"0.002": 24.1974782645,
			"0.003": 17.3884063918,
			"0.004": 14.7228355412,
			"0.005": 7.03835819329,
			"0.006": 5.29763475607,
			"0.007": 4.56995354071,
			"0.008": 4.7764199522,
			"0.009": 4.90864239055,
			"0.01": 7.5916769018,
			"0.011": 8.85997806008,
			"0.012": 5.15947727022,
			"0.013": 0.00801887701802,
			"0.014": 0.0,
			"0.015": 0.0,
			"0.016": 0.0,
			"0.017": 0.0,
			"0.018": 0.0,
			"0.019": 0.0,
			"0.02": 0.0,
			"0.021": 0.0,
			"0.022": 0.0,
			"0.023": 0.0,
			"0.024": 0.0,
			"0.025": 0.0
		}
	}
}
