{
	 "smiles": "NC1CCN(CC1)C(=O)C1CC1", 
	 "Tm": 327.15, 
	 "num_atms": 28, 
	 "gaussian": { 
		 "optdone": 1, 
		 "sigma_profile": "yes", 
		 "theory": "DFT", 
		 "functional": "B3LYP", 
		 "basiset": "6-31G**", 
		 "properties": { 
			 "R2extent": 3073.4327, 
			 "electric_dipole_moment_norm": 4.09766594051, 
			 "electric_quadrupole_moment_norm": 10.838824422, 
			 "total_energy": -537.309326178, 
			 "HOMO_LUMO_gap": 0.2572, 
			 "cosmo_polarized_energy": -13.95, 
			 "cosmo_cavitation_energy": 28.69, 
			 "cosmo_dispersion_energy": -21.07, 
			 "cosmo_repulsion_energy": 1.69, 
			 "cosmo_total_nonelectrostatic_energy": 9.31, 
			 "SMD_solvation_energy": 2.77 
		},
		"coords": [
			{
				"x": 2.6335198299,
				"y": -0.3260836973,
				"z": -1.139495569,
				"element": "N" 
			},
			{
				"x": 1.9047976262,
				"y": 0.3243683905,
				"z": -0.0458553826,
				"element": "C" 
			},
			{
				"x": 1.0239066841,
				"y": 1.5376355333,
				"z": -0.4515044754,
				"element": "C" 
			},
			{
				"x": -0.399619106,
				"y": 1.1309359429,
				"z": -0.8442379532,
				"element": "C" 
			},
			{
				"x": -1.0672152744,
				"y": 0.4799705809,
				"z": 0.2911856397,
				"element": "N" 
			},
			{
				"x": -0.2104280102,
				"y": -0.1360348007,
				"z": 1.3167582615,
				"element": "C" 
			},
			{
				"x": 1.0375288057,
				"y": -0.737179558,
				"z": 0.6702241976,
				"element": "C" 
			},
			{
				"x": -2.4283047598,
				"y": 0.3746347268,
				"z": 0.441640357,
				"element": "C" 
			},
			{
				"x": -2.9273363533,
				"y": -0.124902881,
				"z": 1.4525449235,
				"element": "O" 
			},
			{
				"x": -3.3076116727,
				"y": 0.8796371121,
				"z": -0.6659289519,
				"element": "C" 
			},
			{
				"x": -4.5804321324,
				"y": 1.6011864784,
				"z": -0.2457805387,
				"element": "C" 
			},
			{
				"x": -4.6674093877,
				"y": 0.2154516473,
				"z": -0.7955603738,
				"element": "C" 
			},
			{
				"x": 3.2405619579,
				"y": 0.3432656843,
				"z": -1.6076989277,
				"element": "H" 
			},
			{
				"x": 1.9798984531,
				"y": -0.6669507845,
				"z": -1.8425648684,
				"element": "H" 
			},
			{
				"x": 2.6655540596,
				"y": 0.692838997,
				"z": 0.653653218,
				"element": "H" 
			},
			{
				"x": 0.9609008671,
				"y": 2.2479019084,
				"z": 0.3819504879,
				"element": "H" 
			},
			{
				"x": 1.4912974249,
				"y": 2.073973827,
				"z": -1.2856318073,
				"element": "H" 
			},
			{
				"x": -0.9593433365,
				"y": 2.0217930298,
				"z": -1.1399374576,
				"element": "H" 
			},
			{
				"x": -0.3688523657,
				"y": 0.4636516905,
				"z": -1.720990263,
				"element": "H" 
			},
			{
				"x": -0.8102895802,
				"y": -0.8954602183,
				"z": 1.819092196,
				"element": "H" 
			},
			{
				"x": 0.0666358442,
				"y": 0.6042066203,
				"z": 2.0817378056,
				"element": "H" 
			},
			{
				"x": 0.7192882554,
				"y": -1.4884623815,
				"z": -0.0643291375,
				"element": "H" 
			},
			{
				"x": 1.631294503,
				"y": -1.2715941408,
				"z": 1.4176864075,
				"element": "H" 
			},
			{
				"x": -2.844510256,
				"y": 1.207157954,
				"z": -1.5887305099,
				"element": "H" 
			},
			{
				"x": -4.9072625843,
				"y": 2.4352143913,
				"z": -0.8592190978,
				"element": "H" 
			},
			{
				"x": -4.7232568252,
				"y": 1.7199169953,
				"z": 0.8230036592,
				"element": "H" 
			},
			{
				"x": -4.8640741806,
				"y": -0.5851515583,
				"z": -0.0911076502,
				"element": "H" 
			},
			{
				"x": -5.054538486,
				"y": 0.0721785107,
				"z": -1.7996041894,
				"element": "H" 
			}
		],
		 "valence_orbital": [ 
			{
				"type": "occ",
				"energy": -0.29911,
				"method": "rhf"
			},
			{
				"type": "occ",
				"energy": -0.28149,
				"method": "rhf"
			},
			{
				"type": "occ",
				"energy": -0.24075,
				"method": "rhf"
			},
			{
				"type": "occ",
				"energy": -0.23764,
				"method": "rhf"
			},
			{
				"type": "occ",
				"energy": -0.22782,
				"method": "rhf"
			},
			{
				"type": "unocc",
				"energy": 0.02938,
				"method": "rhf"
			},
			{
				"type": "unocc",
				"energy": 0.06308,
				"method": "rhf"
			},
			{
				"type": "unocc",
				"energy": 0.09553,
				"method": "rhf"
			},
			{
				"type": "unocc",
				"energy": 0.09782,
				"method": "rhf"
			},
			{
				"type": "unocc",
				"energy": 0.11102,
				"method": "rhf"
			}
		],
		"cosmo_sigma_profile": { 
			"-0.025": 0.0,
			"-0.024": 0.0,
			"-0.023": 0.0,
			"-0.022": 0.0,
			"-0.021": 0.0,
			"-0.02": 0.0,
			"-0.019": 0.0,
			"-0.018": 0.0,
			"-0.017": 0.0,
			"-0.016": 0.0,
			"-0.015": 0.0,
			"-0.014": 0.0,
			"-0.013": 0.0,
			"-0.012": 0.0,
			"-0.011": 0.0,
			"-0.01": 0.145245262019,
			"-0.009": 1.76459714478,
			"-0.008": 3.33368526936,
			"-0.007": 3.82918573795,
			"-0.006": 7.06671133988,
			"-0.005": 12.9078775378,
			"-0.004": 21.9235965182,
			"-0.003": 34.004933122,
			"-0.002": 29.0507819847,
			"-0.001": 19.2296212713,
			"0.0": 17.463983283,
			"0.001": 12.1528583012,
			"0.002": 10.4528908762,
			"0.003": 10.3513257278,
			"0.004": 5.65630738261,
			"0.005": 3.77325777309,
			"0.006": 1.8713966166,
			"0.007": 2.50423000173,
			"0.008": 2.90382585204,
			"0.009": 2.02672358197,
			"0.01": 2.38615420428,
			"0.011": 2.13712332109,
			"0.012": 1.86402349048,
			"0.013": 2.82616183402,
			"0.014": 4.09477746763,
			"0.015": 3.93703929027,
			"0.016": 0.539878673549,
			"0.017": 0.548098293299,
			"0.018": 0.593357686428,
			"0.019": 0.658018396044,
			"0.02": 0.285825464527,
			"0.021": 0.0,
			"0.022": 0.0,
			"0.023": 0.0,
			"0.024": 0.0,
			"0.025": 0.0
		}
	}
}
