{
	 "smiles": "ClCC1=NC(=NO1)C1=CC=CO1", 
	 "Tm": 356.15, 
	 "num_atms": 17, 
	 "gaussian": { 
		 "optdone": 1, 
		 "sigma_profile": "yes", 
		 "theory": "DFT", 
		 "functional": "B3LYP", 
		 "basiset": "6-31G**", 
		 "properties": { 
			 "R2extent": 3458.0716, 
			 "electric_dipole_moment_norm": 2.86171466432, 
			 "electric_quadrupole_moment_norm": 17.3718904999, 
			 "total_energy": -989.828896661, 
			 "HOMO_LUMO_gap": 0.17438, 
			 "cosmo_polarized_energy": -10.59, 
			 "cosmo_cavitation_energy": 24.89, 
			 "cosmo_dispersion_energy": -18.54, 
			 "cosmo_repulsion_energy": 1.49, 
			 "cosmo_total_nonelectrostatic_energy": 7.84, 
			 "SMD_solvation_energy": 3.13 
		},
		"coords": [
			{
				"x": -3.7412411927,
				"y": -2.4515258262,
				"z": -0.3409908522,
				"element": "Cl" 
			},
			{
				"x": -3.0980731808,
				"y": -0.774565983,
				"z": -0.0715797923,
				"element": "C" 
			},
			{
				"x": -1.7129882006,
				"y": -0.626984599,
				"z": -0.5907649259,
				"element": "C" 
			},
			{
				"x": -0.6055588817,
				"y": -0.6469814478,
				"z": 0.0868705066,
				"element": "N" 
			},
			{
				"x": 0.3410482191,
				"y": -0.463056921,
				"z": -0.9051624699,
				"element": "C" 
			},
			{
				"x": -0.1542424062,
				"y": -0.3357978196,
				"z": -2.1205240103,
				"element": "N" 
			},
			{
				"x": -1.5381148601,
				"y": -0.4438193047,
				"z": -1.9083512302,
				"element": "O" 
			},
			{
				"x": 1.7518354945,
				"y": -0.4171970117,
				"z": -0.5959494063,
				"element": "C" 
			},
			{
				"x": 2.4194665671,
				"y": -0.5401791963,
				"z": 0.5937972819,
				"element": "C" 
			},
			{
				"x": 3.8072307546,
				"y": -0.4118996335,
				"z": 0.2845349106,
				"element": "C" 
			},
			{
				"x": 3.8779356372,
				"y": -0.2216791035,
				"z": -1.0649392467,
				"element": "C" 
			},
			{
				"x": 2.6369202395,
				"y": -0.2217836094,
				"z": -1.6174343675,
				"element": "O" 
			},
			{
				"x": -3.1001986271,
				"y": -0.5938576337,
				"z": 1.0015031764,
				"element": "H" 
			},
			{
				"x": -3.7796565952,
				"y": -0.0918451531,
				"z": -0.5786127807,
				"element": "H" 
			},
			{
				"x": 1.9633821242,
				"y": -0.7028913738,
				"z": 1.558726294,
				"element": "H" 
			},
			{
				"x": 4.6386930087,
				"y": -0.4560360939,
				"z": 0.9726004224,
				"element": "H" 
			},
			{
				"x": 4.6961618994,
				"y": -0.0766992898,
				"z": -1.7531235098,
				"element": "H" 
			}
		],
		 "valence_orbital": [ 
			{
				"type": "occ",
				"energy": -0.31518,
				"method": "rhf"
			},
			{
				"type": "occ",
				"energy": -0.30832,
				"method": "rhf"
			},
			{
				"type": "occ",
				"energy": -0.3063,
				"method": "rhf"
			},
			{
				"type": "occ",
				"energy": -0.29259,
				"method": "rhf"
			},
			{
				"type": "occ",
				"energy": -0.23431,
				"method": "rhf"
			},
			{
				"type": "unocc",
				"energy": -0.05993,
				"method": "rhf"
			},
			{
				"type": "unocc",
				"energy": -0.03192,
				"method": "rhf"
			},
			{
				"type": "unocc",
				"energy": 0.03415,
				"method": "rhf"
			},
			{
				"type": "unocc",
				"energy": 0.04328,
				"method": "rhf"
			},
			{
				"type": "unocc",
				"energy": 0.07587,
				"method": "rhf"
			}
		],
		"cosmo_sigma_profile": { 
			"-0.025": 0.0,
			"-0.024": 0.0,
			"-0.023": 0.0,
			"-0.022": 0.0,
			"-0.021": 0.0,
			"-0.02": 0.0,
			"-0.019": 0.0,
			"-0.018": 0.0,
			"-0.017": 0.0,
			"-0.016": 0.0,
			"-0.015": 0.0,
			"-0.014": 0.0,
			"-0.013": 0.0,
			"-0.012": 0.0,
			"-0.011": 0.39929264289,
			"-0.01": 5.2651862418,
			"-0.009": 6.2772782602,
			"-0.008": 8.44163121719,
			"-0.007": 9.52287406948,
			"-0.006": 8.62574515135,
			"-0.005": 7.60414704245,
			"-0.004": 8.86226603022,
			"-0.003": 8.29881863255,
			"-0.002": 10.6793742488,
			"-0.001": 11.7562709112,
			"0.0": 15.3719632629,
			"0.001": 18.0370017333,
			"0.002": 16.5929908209,
			"0.003": 13.5662644317,
			"0.004": 14.8370046546,
			"0.005": 14.9399233239,
			"0.006": 7.12116802093,
			"0.007": 3.84359366365,
			"0.008": 3.64825687653,
			"0.009": 2.76849376388,
			"0.01": 2.80627020585,
			"0.011": 2.0538480358,
			"0.012": 1.99233211069,
			"0.013": 0.228445919254,
			"0.014": 0.0,
			"0.015": 0.0,
			"0.016": 0.0,
			"0.017": 0.0,
			"0.018": 0.0,
			"0.019": 0.0,
			"0.02": 0.0,
			"0.021": 0.0,
			"0.022": 0.0,
			"0.023": 0.0,
			"0.024": 0.0,
			"0.025": 0.0
		}
	}
}
