{
	 "smiles": "CCCCCCC1CCCC1", 
	 "Tm": 200.15, 
	 "num_atms": 33, 
	 "gaussian": { 
		 "optdone": 1, 
		 "sigma_profile": "yes", 
		 "theory": "DFT", 
		 "functional": "B3LYP", 
		 "basiset": "6-31G**", 
		 "properties": { 
			 "R2extent": 3547.0527, 
			 "electric_dipole_moment_norm": 0.0474117074149, 
			 "electric_quadrupole_moment_norm": 0.757085312234, 
			 "total_energy": -432.458111732, 
			 "HOMO_LUMO_gap": 0.37169, 
			 "cosmo_polarized_energy": -0.77, 
			 "cosmo_cavitation_energy": 31.87, 
			 "cosmo_dispersion_energy": -22.99, 
			 "cosmo_repulsion_energy": 1.9, 
			 "cosmo_total_nonelectrostatic_energy": 10.78, 
			 "SMD_solvation_energy": 4.17 
		},
		"coords": [
			{
				"x": 3.3042735612,
				"y": 2.8247460096,
				"z": -1.0851331376,
				"element": "C" 
			},
			{
				"x": 1.9113432718,
				"y": 2.6865554201,
				"z": -1.7114456203,
				"element": "C" 
			},
			{
				"x": 1.3337456089,
				"y": 1.2619470498,
				"z": -1.6733522793,
				"element": "C" 
			},
			{
				"x": 1.0336726031,
				"y": 0.7265400374,
				"z": -0.2658150525,
				"element": "C" 
			},
			{
				"x": 0.3969789532,
				"y": -0.6708997251,
				"z": -0.2826517718,
				"element": "C" 
			},
			{
				"x": 0.1608057461,
				"y": -1.2904785409,
				"z": 1.1059411075,
				"element": "C" 
			},
			{
				"x": -0.8628787799,
				"y": -0.5656313304,
				"z": 2.0045750201,
				"element": "C" 
			},
			{
				"x": -2.3165659693,
				"y": -0.6582607666,
				"z": 1.4875147737,
				"element": "C" 
			},
			{
				"x": -2.8261178254,
				"y": -2.0441470169,
				"z": 1.9544107497,
				"element": "C" 
			},
			{
				"x": -1.9674764726,
				"y": -2.4118887798,
				"z": 3.2010299766,
				"element": "C" 
			},
			{
				"x": -0.982981032,
				"y": -1.2313710317,
				"z": 3.3943332227,
				"element": "C" 
			},
			{
				"x": 4.0226960693,
				"y": 2.1535604029,
				"z": -1.570520543,
				"element": "H" 
			},
			{
				"x": 3.2982067487,
				"y": 2.5850790286,
				"z": -0.016928527,
				"element": "H" 
			},
			{
				"x": 3.6835429846,
				"y": 3.8468147819,
				"z": -1.1889130716,
				"element": "H" 
			},
			{
				"x": 1.2149692666,
				"y": 3.3715033783,
				"z": -1.2080685317,
				"element": "H" 
			},
			{
				"x": 1.9578224959,
				"y": 3.0180463423,
				"z": -2.7567977379,
				"element": "H" 
			},
			{
				"x": 0.4063208528,
				"y": 1.2418660665,
				"z": -2.2621633554,
				"element": "H" 
			},
			{
				"x": 2.0284182932,
				"y": 0.5769379898,
				"z": -2.1810948924,
				"element": "H" 
			},
			{
				"x": 0.371252395,
				"y": 1.4356776462,
				"z": 0.2487835514,
				"element": "H" 
			},
			{
				"x": 1.9580951434,
				"y": 0.6884479768,
				"z": 0.326099774,
				"element": "H" 
			},
			{
				"x": 1.049459607,
				"y": -1.3455084315,
				"z": -0.8539496217,
				"element": "H" 
			},
			{
				"x": -0.5478779967,
				"y": -0.6308374328,
				"z": -0.8416329783,
				"element": "H" 
			},
			{
				"x": -0.1490924885,
				"y": -2.3359269433,
				"z": 0.9743981342,
				"element": "H" 
			},
			{
				"x": 1.1212502827,
				"y": -1.3288436527,
				"z": 1.6393592313,
				"element": "H" 
			},
			{
				"x": -0.5550033514,
				"y": 0.4814797251,
				"z": 2.1108679436,
				"element": "H" 
			},
			{
				"x": -2.405842348,
				"y": -0.5192900089,
				"z": 0.4053188829,
				"element": "H" 
			},
			{
				"x": -2.9116845808,
				"y": 0.1344970939,
				"z": 1.9572299614,
				"element": "H" 
			},
			{
				"x": -3.8968406732,
				"y": -2.0225646579,
				"z": 2.1800551222,
				"element": "H" 
			},
			{
				"x": -2.6920695718,
				"y": -2.7902638667,
				"z": 1.1641088693,
				"element": "H" 
			},
			{
				"x": -1.4226876355,
				"y": -3.3460342136,
				"z": 3.0291633038,
				"element": "H" 
			},
			{
				"x": -2.5814346185,
				"y": -2.5714592894,
				"z": 4.0928625065,
				"element": "H" 
			},
			{
				"x": -0.0151558684,
				"y": -1.5479208244,
				"z": 3.7986795058,
				"element": "H" 
			},
			{
				"x": -1.4045446716,
				"y": -0.5085724367,
				"z": 4.1035354837,
				"element": "H" 
			}
		],
		 "valence_orbital": [ 
			{
				"type": "occ",
				"energy": -0.31552,
				"method": "rhf"
			},
			{
				"type": "occ",
				"energy": -0.30945,
				"method": "rhf"
			},
			{
				"type": "occ",
				"energy": -0.30252,
				"method": "rhf"
			},
			{
				"type": "occ",
				"energy": -0.29562,
				"method": "rhf"
			},
			{
				"type": "occ",
				"energy": -0.29459,
				"method": "rhf"
			},
			{
				"type": "unocc",
				"energy": 0.0771,
				"method": "rhf"
			},
			{
				"type": "unocc",
				"energy": 0.09389,
				"method": "rhf"
			},
			{
				"type": "unocc",
				"energy": 0.0947,
				"method": "rhf"
			},
			{
				"type": "unocc",
				"energy": 0.11536,
				"method": "rhf"
			},
			{
				"type": "unocc",
				"energy": 0.11999,
				"method": "rhf"
			}
		],
		"cosmo_sigma_profile": { 
			"-0.025": 0.0,
			"-0.024": 0.0,
			"-0.023": 0.0,
			"-0.022": 0.0,
			"-0.021": 0.0,
			"-0.02": 0.0,
			"-0.019": 0.0,
			"-0.018": 0.0,
			"-0.017": 0.0,
			"-0.016": 0.0,
			"-0.015": 0.0,
			"-0.014": 0.0,
			"-0.013": 0.0,
			"-0.012": 0.0,
			"-0.011": 0.0,
			"-0.01": 0.0,
			"-0.009": 0.0,
			"-0.008": 0.0,
			"-0.007": 0.0,
			"-0.006": 0.0,
			"-0.005": 0.0,
			"-0.004": 0.0,
			"-0.003": 2.33790219637,
			"-0.002": 31.12532008,
			"-0.001": 57.6633776985,
			"0.0": 61.8632276755,
			"0.001": 56.2574837395,
			"0.002": 32.138231159,
			"0.003": 2.15966641907,
			"0.004": 0.0,
			"0.005": 0.0,
			"0.006": 0.0,
			"0.007": 0.0,
			"0.008": 0.0,
			"0.009": 0.0,
			"0.01": 0.0,
			"0.011": 0.0,
			"0.012": 0.0,
			"0.013": 0.0,
			"0.014": 0.0,
			"0.015": 0.0,
			"0.016": 0.0,
			"0.017": 0.0,
			"0.018": 0.0,
			"0.019": 0.0,
			"0.02": 0.0,
			"0.021": 0.0,
			"0.022": 0.0,
			"0.023": 0.0,
			"0.024": 0.0,
			"0.025": 0.0
		}
	}
}
