{
	 "smiles": "COC1=C(F)C(C)=C(C=C1)S(Cl)(=O)=O", 
	 "Tm": 364.15, 
	 "num_atms": 22, 
	 "gaussian": { 
		 "optdone": 1, 
		 "sigma_profile": "yes", 
		 "theory": "DFT", 
		 "functional": "B3LYP", 
		 "basiset": "6-31G**", 
		 "properties": { 
			 "R2extent": 4654.6874, 
			 "electric_dipole_moment_norm": 6.02921639768, 
			 "electric_quadrupole_moment_norm": 11.7226505279, 
			 "total_energy": -1493.47635322, 
			 "HOMO_LUMO_gap": 0.1667, 
			 "cosmo_polarized_energy": -8.59, 
			 "cosmo_cavitation_energy": 29.09, 
			 "cosmo_dispersion_energy": -21.97, 
			 "cosmo_repulsion_energy": 1.65, 
			 "cosmo_total_nonelectrostatic_energy": 8.77, 
			 "SMD_solvation_energy": 5.03 
		},
		"coords": [
			{
				"x": 3.1024275227,
				"y": 0.3470554157,
				"z": -2.9822495662,
				"element": "C" 
			},
			{
				"x": 1.7272653135,
				"y": 0.4458058738,
				"z": -2.58939051,
				"element": "O" 
			},
			{
				"x": 1.326364004,
				"y": 0.3785983338,
				"z": -1.3031665772,
				"element": "C" 
			},
			{
				"x": 2.1426153225,
				"y": 0.2046899471,
				"z": -0.1695718858,
				"element": "C" 
			},
			{
				"x": 3.4848454366,
				"y": 0.0892915245,
				"z": -0.340958906,
				"element": "F" 
			},
			{
				"x": 1.6502173324,
				"y": 0.1456009755,
				"z": 1.1355533106,
				"element": "C" 
			},
			{
				"x": 2.6158195364,
				"y": -0.0319864761,
				"z": 2.2822581329,
				"element": "C" 
			},
			{
				"x": 0.2530292596,
				"y": 0.2615627959,
				"z": 1.2738930954,
				"element": "C" 
			},
			{
				"x": -0.5935788101,
				"y": 0.4450459687,
				"z": 0.1751092594,
				"element": "C" 
			},
			{
				"x": -0.0571856674,
				"y": 0.4973927971,
				"z": -1.0998350809,
				"element": "C" 
			},
			{
				"x": -0.5426470155,
				"y": 0.1691570402,
				"z": 2.8658768177,
				"element": "S" 
			},
			{
				"x": -0.0816709328,
				"y": 2.0914020426,
				"z": 3.7074619465,
				"element": "Cl" 
			},
			{
				"x": -1.9881487148,
				"y": 0.158978962,
				"z": 2.6770933201,
				"element": "O" 
			},
			{
				"x": 0.1210380053,
				"y": -0.8053636381,
				"z": 3.723910031,
				"element": "O" 
			},
			{
				"x": 3.5311692165,
				"y": -0.617368111,
				"z": -2.6998920099,
				"element": "H" 
			},
			{
				"x": 3.7005122425,
				"y": 1.1540567949,
				"z": -2.5524629179,
				"element": "H" 
			},
			{
				"x": 3.0865487842,
				"y": 0.4390059531,
				"z": -4.068742321,
				"element": "H" 
			},
			{
				"x": 2.4474555054,
				"y": 0.7195229817,
				"z": 3.0578105654,
				"element": "H" 
			},
			{
				"x": 3.6419110316,
				"y": 0.0540508669,
				"z": 1.9281861538,
				"element": "H" 
			},
			{
				"x": 2.4819084671,
				"y": -1.0100333492,
				"z": 2.7512493162,
				"element": "H" 
			},
			{
				"x": -1.6616074165,
				"y": 0.5354714508,
				"z": 0.329919277,
				"element": "H" 
			},
			{
				"x": -0.6875884232,
				"y": 0.62956185,
				"z": -1.9718514511,
				"element": "H" 
			}
		],
		 "valence_orbital": [ 
			{
				"type": "occ",
				"energy": -0.33061,
				"method": "rhf"
			},
			{
				"type": "occ",
				"energy": -0.32404,
				"method": "rhf"
			},
			{
				"type": "occ",
				"energy": -0.30988,
				"method": "rhf"
			},
			{
				"type": "occ",
				"energy": -0.2738,
				"method": "rhf"
			},
			{
				"type": "occ",
				"energy": -0.25326,
				"method": "rhf"
			},
			{
				"type": "unocc",
				"energy": -0.08656,
				"method": "rhf"
			},
			{
				"type": "unocc",
				"energy": -0.04029,
				"method": "rhf"
			},
			{
				"type": "unocc",
				"energy": -0.02658,
				"method": "rhf"
			},
			{
				"type": "unocc",
				"energy": 0.04529,
				"method": "rhf"
			},
			{
				"type": "unocc",
				"energy": 0.06843,
				"method": "rhf"
			}
		],
		"cosmo_sigma_profile": { 
			"-0.025": 0.0,
			"-0.024": 0.0,
			"-0.023": 0.0,
			"-0.022": 0.0,
			"-0.021": 0.0,
			"-0.02": 0.0,
			"-0.019": 0.0,
			"-0.018": 0.0,
			"-0.017": 0.0,
			"-0.016": 0.0,
			"-0.015": 0.0,
			"-0.014": 0.0,
			"-0.013": 0.0,
			"-0.012": 0.0,
			"-0.011": 0.0,
			"-0.01": 0.0,
			"-0.009": 0.147514933978,
			"-0.008": 2.27074512045,
			"-0.007": 4.3018106896,
			"-0.006": 9.28433796393,
			"-0.005": 13.9915815984,
			"-0.004": 18.5730155691,
			"-0.003": 18.2745813132,
			"-0.002": 26.6835434245,
			"-0.001": 25.7126053963,
			"0.0": 20.2773658515,
			"0.001": 16.987853003,
			"0.002": 16.6555074649,
			"0.003": 16.8268138732,
			"0.004": 14.1887167325,
			"0.005": 5.19823577169,
			"0.006": 4.34056589485,
			"0.007": 6.20876321464,
			"0.008": 9.46314729268,
			"0.009": 5.80216491335,
			"0.01": 0.158944999374,
			"0.011": 0.0,
			"0.012": 0.0,
			"0.013": 0.0,
			"0.014": 0.0,
			"0.015": 0.0,
			"0.016": 0.0,
			"0.017": 0.0,
			"0.018": 0.0,
			"0.019": 0.0,
			"0.02": 0.0,
			"0.021": 0.0,
			"0.022": 0.0,
			"0.023": 0.0,
			"0.024": 0.0,
			"0.025": 0.0
		}
	}
}
