{
	 "smiles": "CCCCCCCCSCCO", 
	 "Tm": 273.15, 
	 "num_atms": 34, 
	 "gaussian": { 
		 "optdone": 1, 
		 "sigma_profile": "yes", 
		 "theory": "DFT", 
		 "functional": "B3LYP", 
		 "basiset": "6-31G**", 
		 "properties": { 
			 "R2extent": 7098.2856, 
			 "electric_dipole_moment_norm": 2.33760189083, 
			 "electric_quadrupole_moment_norm": 18.9741709368, 
			 "total_energy": -867.746002552, 
			 "HOMO_LUMO_gap": 0.25918, 
			 "cosmo_polarized_energy": -10.37, 
			 "cosmo_cavitation_energy": 36.29, 
			 "cosmo_dispersion_energy": -25.83, 
			 "cosmo_repulsion_energy": 2.12, 
			 "cosmo_total_nonelectrostatic_energy": 12.58, 
			 "SMD_solvation_energy": 5.05 
		},
		"coords": [
			{
				"x": -2.9108363564,
				"y": 2.3783082011,
				"z": 1.1875416431,
				"element": "C" 
			},
			{
				"x": -1.7748421133,
				"y": 1.4694984667,
				"z": 1.669098335,
				"element": "C" 
			},
			{
				"x": -1.6018768178,
				"y": 0.2167452749,
				"z": 0.7990603827,
				"element": "C" 
			},
			{
				"x": -0.5331805905,
				"y": -0.7718391454,
				"z": 1.2982205697,
				"element": "C" 
			},
			{
				"x": 0.9128306408,
				"y": -0.2451553664,
				"z": 1.330549,
				"element": "C" 
			},
			{
				"x": 1.4889453883,
				"y": 0.1217731187,
				"z": -0.0439442458,
				"element": "C" 
			},
			{
				"x": 2.9553327438,
				"y": 0.5644904408,
				"z": 0.0213174447,
				"element": "C" 
			},
			{
				"x": 3.5667756689,
				"y": 0.9269263082,
				"z": -1.3384221873,
				"element": "C" 
			},
			{
				"x": 3.763172525,
				"y": -0.4604817442,
				"z": -2.532874886,
				"element": "S" 
			},
			{
				"x": 5.260411137,
				"y": -1.2702728762,
				"z": -1.8315713056,
				"element": "C" 
			},
			{
				"x": 5.3614384328,
				"y": -2.7181939378,
				"z": -2.2845903575,
				"element": "C" 
			},
			{
				"x": 5.4932826171,
				"y": -2.7364048021,
				"z": -3.6979841,
				"element": "O" 
			},
			{
				"x": -3.8710225082,
				"y": 1.8496768681,
				"z": 1.1943675619,
				"element": "H" 
			},
			{
				"x": -3.0142712194,
				"y": 3.2639197717,
				"z": 1.8232608484,
				"element": "H" 
			},
			{
				"x": -2.7339219703,
				"y": 2.7241901685,
				"z": 0.1625410379,
				"element": "H" 
			},
			{
				"x": -0.8394583197,
				"y": 2.0432010268,
				"z": 1.6892172072,
				"element": "H" 
			},
			{
				"x": -1.9649567784,
				"y": 1.1637561594,
				"z": 2.7074375646,
				"element": "H" 
			},
			{
				"x": -2.5637378068,
				"y": -0.3120649669,
				"z": 0.7505858136,
				"element": "H" 
			},
			{
				"x": -1.3795297731,
				"y": 0.520835812,
				"z": -0.2326676982,
				"element": "H" 
			},
			{
				"x": -0.8075453385,
				"y": -1.103112013,
				"z": 2.3093085086,
				"element": "H" 
			},
			{
				"x": -0.5642429009,
				"y": -1.6703423616,
				"z": 0.6669718117,
				"element": "H" 
			},
			{
				"x": 0.9797909662,
				"y": 0.623589422,
				"z": 1.9994470366,
				"element": "H" 
			},
			{
				"x": 1.5491615651,
				"y": -1.0177032674,
				"z": 1.7839689853,
				"element": "H" 
			},
			{
				"x": 0.897178251,
				"y": 0.9290076068,
				"z": -0.4966413162,
				"element": "H" 
			},
			{
				"x": 1.4034655034,
				"y": -0.7381834752,
				"z": -0.7201955908,
				"element": "H" 
			},
			{
				"x": 3.5559641049,
				"y": -0.2198992544,
				"z": 0.5017206123,
				"element": "H" 
			},
			{
				"x": 3.04037327,
				"y": 1.4469402172,
				"z": 0.6724259813,
				"element": "H" 
			},
			{
				"x": 2.928405647,
				"y": 1.648940519,
				"z": -1.8591456264,
				"element": "H" 
			},
			{
				"x": 4.5437506993,
				"y": 1.4054936251,
				"z": -1.2116919057,
				"element": "H" 
			},
			{
				"x": 5.2030954055,
				"y": -1.2453246363,
				"z": -0.739012163,
				"element": "H" 
			},
			{
				"x": 6.1530836065,
				"y": -0.7213797733,
				"z": -2.1484709305,
				"element": "H" 
			},
			{
				"x": 4.4669095453,
				"y": -3.2665874068,
				"z": -1.9539218622,
				"element": "H" 
			},
			{
				"x": 6.2378136587,
				"y": -3.1765273696,
				"z": -1.7950977145,
				"element": "H" 
			},
			{
				"x": 5.3582411167,
				"y": -3.6409206104,
				"z": -4.0046084548,
				"element": "H" 
			}
		],
		 "valence_orbital": [ 
			{
				"type": "occ",
				"energy": -0.3081,
				"method": "rhf"
			},
			{
				"type": "occ",
				"energy": -0.3046,
				"method": "rhf"
			},
			{
				"type": "occ",
				"energy": -0.29375,
				"method": "rhf"
			},
			{
				"type": "occ",
				"energy": -0.2674,
				"method": "rhf"
			},
			{
				"type": "occ",
				"energy": -0.2104,
				"method": "rhf"
			},
			{
				"type": "unocc",
				"energy": 0.04878,
				"method": "rhf"
			},
			{
				"type": "unocc",
				"energy": 0.07091,
				"method": "rhf"
			},
			{
				"type": "unocc",
				"energy": 0.07937,
				"method": "rhf"
			},
			{
				"type": "unocc",
				"energy": 0.08923,
				"method": "rhf"
			},
			{
				"type": "unocc",
				"energy": 0.10213,
				"method": "rhf"
			}
		],
		"cosmo_sigma_profile": { 
			"-0.025": 0.0,
			"-0.024": 0.0,
			"-0.023": 0.0,
			"-0.022": 0.0,
			"-0.021": 0.0,
			"-0.02": 0.0,
			"-0.019": 0.0,
			"-0.018": 0.0,
			"-0.017": 0.0,
			"-0.016": 0.71425907077,
			"-0.015": 0.873951785141,
			"-0.014": 1.22200091349,
			"-0.013": 0.924429705939,
			"-0.012": 0.812373775411,
			"-0.011": 1.03928497602,
			"-0.01": 0.608866489621,
			"-0.009": 0.688583654511,
			"-0.008": 0.406409257243,
			"-0.007": 1.55057702407,
			"-0.006": 1.82343229827,
			"-0.005": 6.19037359025,
			"-0.004": 17.3571978968,
			"-0.003": 22.7759525533,
			"-0.002": 37.4636306192,
			"-0.001": 46.3568803916,
			"0.0": 41.9882473263,
			"0.001": 38.0242329597,
			"0.002": 19.1075042128,
			"0.003": 3.5256472869,
			"0.004": 3.32021912045,
			"0.005": 3.5908669546,
			"0.006": 3.12512917342,
			"0.007": 5.20309507993,
			"0.008": 4.90559770192,
			"0.009": 3.58097323878,
			"0.01": 2.78398091567,
			"0.011": 3.50732393064,
			"0.012": 2.94623596735,
			"0.013": 1.99325568598,
			"0.014": 1.82896861032,
			"0.015": 0.269841801715,
			"0.016": 0.0,
			"0.017": 0.0,
			"0.018": 0.0,
			"0.019": 0.0,
			"0.02": 0.0,
			"0.021": 0.0,
			"0.022": 0.0,
			"0.023": 0.0,
			"0.024": 0.0,
			"0.025": 0.0
		}
	}
}
