{
	 "smiles": "O=CC1=CC2=NC=CN=C2S1", 
	 "Tm": 381.15, 
	 "num_atms": 15, 
	 "gaussian": { 
		 "optdone": 1, 
		 "sigma_profile": "yes", 
		 "theory": "DFT", 
		 "functional": "B3LYP", 
		 "basiset": "6-31G**", 
		 "properties": { 
			 "R2extent": 2526.406, 
			 "electric_dipole_moment_norm": 2.57314662039, 
			 "electric_quadrupole_moment_norm": 13.0673448439, 
			 "total_energy": -852.038732117, 
			 "HOMO_LUMO_gap": 0.16129, 
			 "cosmo_polarized_energy": -9.25, 
			 "cosmo_cavitation_energy": 22.08, 
			 "cosmo_dispersion_energy": -16.96, 
			 "cosmo_repulsion_energy": 1.29, 
			 "cosmo_total_nonelectrostatic_energy": 6.41, 
			 "SMD_solvation_energy": 1.32 
		},
		"coords": [
			{
				"x": -0.0881805586,
				"y": -2.0729353174,
				"z": -1.9823673706,
				"element": "O" 
			},
			{
				"x": 0.3891163197,
				"y": -1.6879358165,
				"z": -0.9325330141,
				"element": "C" 
			},
			{
				"x": 0.4872360331,
				"y": -0.2629847503,
				"z": -0.5682860335,
				"element": "C" 
			},
			{
				"x": 0.0703708323,
				"y": 0.7924439595,
				"z": -1.3332038606,
				"element": "C" 
			},
			{
				"x": 0.3068391592,
				"y": 2.0491961233,
				"z": -0.6951485325,
				"element": "C" 
			},
			{
				"x": 0.0132371768,
				"y": 3.2713420694,
				"z": -1.1811582574,
				"element": "N" 
			},
			{
				"x": 0.3345351477,
				"y": 4.2900817082,
				"z": -0.3899071128,
				"element": "C" 
			},
			{
				"x": 0.9409671988,
				"y": 4.1207407995,
				"z": 0.8732191136,
				"element": "C" 
			},
			{
				"x": 1.2399465155,
				"y": 2.9205774688,
				"z": 1.3729825613,
				"element": "N" 
			},
			{
				"x": 0.9184749928,
				"y": 1.9008299535,
				"z": 0.5812546241,
				"element": "C" 
			},
			{
				"x": 1.1947301897,
				"y": 0.2159090038,
				"z": 0.9797724116,
				"element": "S" 
			},
			{
				"x": 0.7819790852,
				"y": -2.4027643124,
				"z": -0.1793659294,
				"element": "H" 
			},
			{
				"x": -0.3848547308,
				"y": 0.6732898915,
				"z": -2.3084499839,
				"element": "H" 
			},
			{
				"x": 0.1100541944,
				"y": 5.2901060277,
				"z": -0.754263171,
				"element": "H" 
			},
			{
				"x": 1.1860484441,
				"y": 4.9847031914,
				"z": 1.4863545553,
				"element": "H" 
			}
		],
		 "valence_orbital": [ 
			{
				"type": "occ",
				"energy": -0.33221,
				"method": "rhf"
			},
			{
				"type": "occ",
				"energy": -0.27376,
				"method": "rhf"
			},
			{
				"type": "occ",
				"energy": -0.27273,
				"method": "rhf"
			},
			{
				"type": "occ",
				"energy": -0.26682,
				"method": "rhf"
			},
			{
				"type": "occ",
				"energy": -0.26153,
				"method": "rhf"
			},
			{
				"type": "unocc",
				"energy": -0.10024,
				"method": "rhf"
			},
			{
				"type": "unocc",
				"energy": -0.05281,
				"method": "rhf"
			},
			{
				"type": "unocc",
				"energy": -0.01908,
				"method": "rhf"
			},
			{
				"type": "unocc",
				"energy": -0.00384,
				"method": "rhf"
			},
			{
				"type": "unocc",
				"energy": 0.0524,
				"method": "rhf"
			}
		],
		"cosmo_sigma_profile": { 
			"-0.025": 0.0,
			"-0.024": 0.0,
			"-0.023": 0.0,
			"-0.022": 0.0,
			"-0.021": 0.0,
			"-0.02": 0.0,
			"-0.019": 0.0,
			"-0.018": 0.0,
			"-0.017": 0.0,
			"-0.016": 0.0,
			"-0.015": 0.0,
			"-0.014": 0.0,
			"-0.013": 0.0,
			"-0.012": 0.0,
			"-0.011": 0.0,
			"-0.01": 0.0149951275369,
			"-0.009": 3.22620192346,
			"-0.008": 10.6942593713,
			"-0.007": 8.05419003649,
			"-0.006": 8.12816031271,
			"-0.005": 6.76508074142,
			"-0.004": 8.30447320071,
			"-0.003": 12.5101483668,
			"-0.002": 16.0394393134,
			"-0.001": 20.4766226875,
			"0.0": 19.5826514295,
			"0.001": 12.2808803461,
			"0.002": 9.75682705269,
			"0.003": 6.52805361329,
			"0.004": 4.9517565474,
			"0.005": 3.62124642114,
			"0.006": 4.1591566769,
			"0.007": 4.03158052735,
			"0.008": 3.01453286094,
			"0.009": 3.88910767081,
			"0.01": 5.79602728342,
			"0.011": 5.08031063318,
			"0.012": 3.27721726253,
			"0.013": 0.751753254496,
			"0.014": 0.658493890246,
			"0.015": 0.0355384587858,
			"0.016": 0.0,
			"0.017": 0.0,
			"0.018": 0.0,
			"0.019": 0.0,
			"0.02": 0.0,
			"0.021": 0.0,
			"0.022": 0.0,
			"0.023": 0.0,
			"0.024": 0.0,
			"0.025": 0.0
		}
	}
}
