{
	 "smiles": "OCC1=C2OCOCC2=CC(F)=C1", 
	 "Tm": 346.75, 
	 "num_atms": 22, 
	 "gaussian": { 
		 "optdone": 1, 
		 "sigma_profile": "yes", 
		 "theory": "DFT", 
		 "functional": "B3LYP", 
		 "basiset": "6-31G**", 
		 "properties": { 
			 "R2extent": 2682.3244, 
			 "electric_dipole_moment_norm": 3.10131563373, 
			 "electric_quadrupole_moment_norm": 7.67487552407, 
			 "total_energy": -673.85654941, 
			 "HOMO_LUMO_gap": 0.20555, 
			 "cosmo_polarized_energy": -10.12, 
			 "cosmo_cavitation_energy": 25.43, 
			 "cosmo_dispersion_energy": -19.16, 
			 "cosmo_repulsion_energy": 1.49, 
			 "cosmo_total_nonelectrostatic_energy": 7.76, 
			 "SMD_solvation_energy": 5.02 
		},
		"coords": [
			{
				"x": -0.0330970251,
				"y": -3.1210732267,
				"z": 2.6205855429,
				"element": "O" 
			},
			{
				"x": 0.7325131989,
				"y": -2.8508008831,
				"z": 1.4571884342,
				"element": "C" 
			},
			{
				"x": 0.1375507059,
				"y": -1.764507221,
				"z": 0.5818374851,
				"element": "C" 
			},
			{
				"x": -0.0796520581,
				"y": -0.48347329,
				"z": 1.1170294744,
				"element": "C" 
			},
			{
				"x": 0.2660805553,
				"y": -0.2886861317,
				"z": 2.4412076018,
				"element": "O" 
			},
			{
				"x": 0.3557358649,
				"y": 1.0877429356,
				"z": 2.8061495492,
				"element": "C" 
			},
			{
				"x": -0.7785417206,
				"y": 1.8041492086,
				"z": 2.4334488162,
				"element": "O" 
			},
			{
				"x": -0.8888866886,
				"y": 1.8919241499,
				"z": 1.012225554,
				"element": "C" 
			},
			{
				"x": -0.6327704619,
				"y": 0.5518648795,
				"z": 0.3574476243,
				"element": "C" 
			},
			{
				"x": -0.950705167,
				"y": 0.3125823303,
				"z": -0.9843837172,
				"element": "C" 
			},
			{
				"x": -0.7236410699,
				"y": -0.9468740783,
				"z": -1.515929009,
				"element": "C" 
			},
			{
				"x": -1.0350439878,
				"y": -1.1791979632,
				"z": -2.809920757,
				"element": "F" 
			},
			{
				"x": -0.1972052772,
				"y": -1.9863626536,
				"z": -0.7530109102,
				"element": "C" 
			},
			{
				"x": -0.0560341497,
				"y": -2.2976500719,
				"z": 3.1284499346,
				"element": "H" 
			},
			{
				"x": 0.7811986259,
				"y": -3.7868161853,
				"z": 0.8933554618,
				"element": "H" 
			},
			{
				"x": 1.7665946275,
				"y": -2.5728219346,
				"z": 1.7192904841,
				"element": "H" 
			},
			{
				"x": 0.4276572096,
				"y": 1.1123926171,
				"z": 3.8936694096,
				"element": "H" 
			},
			{
				"x": 1.2632387482,
				"y": 1.5101078478,
				"z": 2.3432359603,
				"element": "H" 
			},
			{
				"x": -1.9075539648,
				"y": 2.235766491,
				"z": 0.8110952315,
				"element": "H" 
			},
			{
				"x": -0.1948632967,
				"y": 2.6570709349,
				"z": 0.6268239438,
				"element": "H" 
			},
			{
				"x": -1.3840181773,
				"y": 1.0884010665,
				"z": -1.6082178417,
				"element": "H" 
			},
			{
				"x": -0.0517564915,
				"y": -2.9604388219,
				"z": -1.2087782727,
				"element": "H" 
			}
		],
		 "valence_orbital": [ 
			{
				"type": "occ",
				"energy": -0.32214,
				"method": "rhf"
			},
			{
				"type": "occ",
				"energy": -0.29052,
				"method": "rhf"
			},
			{
				"type": "occ",
				"energy": -0.26248,
				"method": "rhf"
			},
			{
				"type": "occ",
				"energy": -0.2579,
				"method": "rhf"
			},
			{
				"type": "occ",
				"energy": -0.22733,
				"method": "rhf"
			},
			{
				"type": "unocc",
				"energy": -0.02178,
				"method": "rhf"
			},
			{
				"type": "unocc",
				"energy": 0.00202,
				"method": "rhf"
			},
			{
				"type": "unocc",
				"energy": 0.08455,
				"method": "rhf"
			},
			{
				"type": "unocc",
				"energy": 0.09092,
				"method": "rhf"
			},
			{
				"type": "unocc",
				"energy": 0.10158,
				"method": "rhf"
			}
		],
		"cosmo_sigma_profile": { 
			"-0.025": 0.0,
			"-0.024": 0.0,
			"-0.023": 0.0,
			"-0.022": 0.0,
			"-0.021": 0.0,
			"-0.02": 0.0,
			"-0.019": 0.0,
			"-0.018": 0.0,
			"-0.017": 0.0,
			"-0.016": 0.0,
			"-0.015": 0.0,
			"-0.014": 0.0,
			"-0.013": 0.0,
			"-0.012": 0.0,
			"-0.011": 0.0228900289163,
			"-0.01": 0.490658781188,
			"-0.009": 0.653157966464,
			"-0.008": 3.45488292459,
			"-0.007": 10.056076203,
			"-0.006": 17.9943753185,
			"-0.005": 17.4360676701,
			"-0.004": 14.0846613922,
			"-0.003": 11.5790833309,
			"-0.002": 12.5842434519,
			"-0.001": 9.55653599425,
			"0.0": 10.2967706106,
			"0.001": 13.7150815955,
			"0.002": 16.0851095747,
			"0.003": 17.3307907393,
			"0.004": 13.8792037308,
			"0.005": 10.0589804024,
			"0.006": 3.2848938928,
			"0.007": 1.99285110264,
			"0.008": 2.12803950975,
			"0.009": 2.29134688017,
			"0.01": 2.82435433371,
			"0.011": 3.26944454318,
			"0.012": 1.82132273841,
			"0.013": 1.70243423399,
			"0.014": 2.57347097507,
			"0.015": 0.601891972983,
			"0.016": 0.0,
			"0.017": 0.0,
			"0.018": 0.0,
			"0.019": 0.0,
			"0.02": 0.0,
			"0.021": 0.0,
			"0.022": 0.0,
			"0.023": 0.0,
			"0.024": 0.0,
			"0.025": 0.0
		}
	}
}
