{
	 "smiles": "OC(=O)C1=CC=C(COC2=C(C=CC=C2)C#N)O1", 
	 "Tm": 419.15, 
	 "num_atms": 27, 
	 "gaussian": { 
		 "optdone": 1, 
		 "sigma_profile": "yes", 
		 "theory": "DFT", 
		 "functional": "B3LYP", 
		 "basiset": "6-31G**", 
		 "properties": { 
			 "R2extent": 5416.0012, 
			 "electric_dipole_moment_norm": 10.0032444622, 
			 "electric_quadrupole_moment_norm": 23.6179620236, 
			 "total_energy": -856.412124038, 
			 "HOMO_LUMO_gap": 0.17406, 
			 "cosmo_polarized_energy": -18.84, 
			 "cosmo_cavitation_energy": 33.12, 
			 "cosmo_dispersion_energy": -23.37, 
			 "cosmo_repulsion_energy": 1.76, 
			 "cosmo_total_nonelectrostatic_energy": 11.51, 
			 "SMD_solvation_energy": 8.41 
		},
		"coords": [
			{
				"x": -0.5369488621,
				"y": 3.1138293338,
				"z": 1.754532387,
				"element": "O" 
			},
			{
				"x": -1.7739726625,
				"y": 2.7063324541,
				"z": 1.429706352,
				"element": "C" 
			},
			{
				"x": -2.7605391247,
				"y": 3.3466988266,
				"z": 1.7253987298,
				"element": "O" 
			},
			{
				"x": -1.8929046287,
				"y": 1.4312871607,
				"z": 0.6897303963,
				"element": "C" 
			},
			{
				"x": -2.9703386239,
				"y": 0.825109507,
				"z": 0.1031232448,
				"element": "C" 
			},
			{
				"x": -2.476015309,
				"y": -0.3681864701,
				"z": -0.5034230257,
				"element": "C" 
			},
			{
				"x": -1.1339718446,
				"y": -0.4129693132,
				"z": -0.2372959838,
				"element": "C" 
			},
			{
				"x": -0.0458764585,
				"y": -1.3675018091,
				"z": -0.5644865344,
				"element": "C" 
			},
			{
				"x": 0.9027645992,
				"y": -0.7204691544,
				"z": -1.4521499804,
				"element": "O" 
			},
			{
				"x": 2.2246733622,
				"y": -1.0295665286,
				"z": -1.2779580041,
				"element": "C" 
			},
			{
				"x": 3.0378367916,
				"y": -0.1830997794,
				"z": -0.4918930674,
				"element": "C" 
			},
			{
				"x": 4.4110065164,
				"y": -0.4528689415,
				"z": -0.3602693641,
				"element": "C" 
			},
			{
				"x": 4.9667994279,
				"y": -1.5571863386,
				"z": -0.9984095449,
				"element": "C" 
			},
			{
				"x": 4.1584805024,
				"y": -2.3942095563,
				"z": -1.7733270326,
				"element": "C" 
			},
			{
				"x": 2.7950337342,
				"y": -2.1332211493,
				"z": -1.9131174009,
				"element": "C" 
			},
			{
				"x": 2.4485779379,
				"y": 0.9420497251,
				"z": 0.1683842037,
				"element": "C" 
			},
			{
				"x": 1.9535082853,
				"y": 1.8380326447,
				"z": 0.7179362986,
				"element": "N" 
			},
			{
				"x": -0.7718905109,
				"y": 0.6755128338,
				"z": 0.4951847691,
				"element": "O" 
			},
			{
				"x": 0.1792252478,
				"y": 2.555413543,
				"z": 1.3889765782,
				"element": "H" 
			},
			{
				"x": -3.9804752364,
				"y": 1.2056306368,
				"z": 0.1053108468,
				"element": "H" 
			},
			{
				"x": -3.0384472371,
				"y": -1.0979452176,
				"z": -1.0685106665,
				"element": "H" 
			},
			{
				"x": -0.4664381942,
				"y": -2.2532690799,
				"z": -1.0534303499,
				"element": "H" 
			},
			{
				"x": 0.4755029467,
				"y": -1.6853771334,
				"z": 0.3463250755,
				"element": "H" 
			},
			{
				"x": 5.0252388806,
				"y": 0.2083129121,
				"z": 0.2417840913,
				"element": "H" 
			},
			{
				"x": 6.0273009021,
				"y": -1.7624369101,
				"z": -0.8964718035,
				"element": "H" 
			},
			{
				"x": 4.5928829863,
				"y": -3.2530820314,
				"z": -2.2760436576,
				"element": "H" 
			},
			{
				"x": 2.1623865724,
				"y": -2.7660201648,
				"z": -2.5269065575,
				"element": "H" 
			}
		],
		 "valence_orbital": [ 
			{
				"type": "occ",
				"energy": -0.29147,
				"method": "rhf"
			},
			{
				"type": "occ",
				"energy": -0.2854,
				"method": "rhf"
			},
			{
				"type": "occ",
				"energy": -0.27459,
				"method": "rhf"
			},
			{
				"type": "occ",
				"energy": -0.26023,
				"method": "rhf"
			},
			{
				"type": "occ",
				"energy": -0.24217,
				"method": "rhf"
			},
			{
				"type": "unocc",
				"energy": -0.06811,
				"method": "rhf"
			},
			{
				"type": "unocc",
				"energy": -0.04329,
				"method": "rhf"
			},
			{
				"type": "unocc",
				"energy": -0.03432,
				"method": "rhf"
			},
			{
				"type": "unocc",
				"energy": 0.01057,
				"method": "rhf"
			},
			{
				"type": "unocc",
				"energy": 0.02624,
				"method": "rhf"
			}
		],
		"cosmo_sigma_profile": { 
			"-0.025": 0.0,
			"-0.024": 0.0,
			"-0.023": 0.0,
			"-0.022": 0.0,
			"-0.021": 0.0,
			"-0.02": 0.0,
			"-0.019": 0.0,
			"-0.018": 0.0,
			"-0.017": 0.0,
			"-0.016": 0.0,
			"-0.015": 0.0,
			"-0.014": 0.0,
			"-0.013": 0.0,
			"-0.012": 0.0,
			"-0.011": 0.0,
			"-0.01": 0.0,
			"-0.009": 0.659539296326,
			"-0.008": 10.2702161777,
			"-0.007": 19.4562965153,
			"-0.006": 19.9542292453,
			"-0.005": 17.8980204217,
			"-0.004": 14.7480876268,
			"-0.003": 14.0105286193,
			"-0.002": 16.9456651692,
			"-0.001": 15.297123703,
			"0.0": 19.0744934832,
			"0.001": 22.4435796065,
			"0.002": 22.8202870662,
			"0.003": 15.3730441444,
			"0.004": 7.8183187749,
			"0.005": 7.19027831406,
			"0.006": 7.03533703847,
			"0.007": 6.78617769684,
			"0.008": 6.3252179189,
			"0.009": 4.63544314723,
			"0.01": 4.75846948435,
			"0.011": 5.42698225255,
			"0.012": 6.04264351228,
			"0.013": 2.54702681836,
			"0.014": 0.31978993105,
			"0.015": 0.0,
			"0.016": 0.0,
			"0.017": 0.0,
			"0.018": 0.0,
			"0.019": 0.0,
			"0.02": 0.0,
			"0.021": 0.0,
			"0.022": 0.0,
			"0.023": 0.0,
			"0.024": 0.0,
			"0.025": 0.0
		}
	}
}
