{
	 "smiles": "O1C(=CN=C1C1=CC=CC=C1)C1=CC=CC=C1", 
	 "Tm": 346.15, 
	 "num_atms": 28, 
	 "gaussian": { 
		 "optdone": 1, 
		 "sigma_profile": "yes", 
		 "theory": "DFT", 
		 "functional": "B3LYP", 
		 "basiset": "6-31G**", 
		 "properties": { 
			 "R2extent": 6039.584, 
			 "electric_dipole_moment_norm": 1.45688400705, 
			 "electric_quadrupole_moment_norm": 14.4535876519, 
			 "total_energy": -708.204240084, 
			 "HOMO_LUMO_gap": 0.15307, 
			 "cosmo_polarized_energy": -8.12, 
			 "cosmo_cavitation_energy": 32.93, 
			 "cosmo_dispersion_energy": -24.15, 
			 "cosmo_repulsion_energy": 1.82, 
			 "cosmo_total_nonelectrostatic_energy": 10.61, 
			 "SMD_solvation_energy": 4.3 
		},
		"coords": [
			{
				"x": -0.8032337006,
				"y": -0.7272621621,
				"z": 0.362049608,
				"element": "O" 
			},
			{
				"x": -1.1609190135,
				"y": -1.1885604636,
				"z": -0.8848072641,
				"element": "C" 
			},
			{
				"x": -2.4339656727,
				"y": -0.7370499796,
				"z": -1.1125400549,
				"element": "C" 
			},
			{
				"x": -2.8758530729,
				"y": -0.0043072537,
				"z": -0.0332244666,
				"element": "N" 
			},
			{
				"x": -1.8822380212,
				"y": -0.0233641808,
				"z": 0.8150424195,
				"element": "C" 
			},
			{
				"x": -1.8094273752,
				"y": 0.5989052548,
				"z": 2.1315165508,
				"element": "C" 
			},
			{
				"x": -2.914994221,
				"y": 1.3257821792,
				"z": 2.6056964204,
				"element": "C" 
			},
			{
				"x": -2.8678153984,
				"y": 1.9281535765,
				"z": 3.8592035651,
				"element": "C" 
			},
			{
				"x": -1.7231219528,
				"y": 1.8148484319,
				"z": 4.6539542377,
				"element": "C" 
			},
			{
				"x": -0.6226452866,
				"y": 1.0932656075,
				"z": 4.1859522469,
				"element": "C" 
			},
			{
				"x": -0.6609705884,
				"y": 0.4868459168,
				"z": 2.9321586845,
				"element": "C" 
			},
			{
				"x": -0.2014723546,
				"y": -1.9860641357,
				"z": -1.6325327253,
				"element": "C" 
			},
			{
				"x": 1.06601342,
				"y": -2.2827839843,
				"z": -1.1007394236,
				"element": "C" 
			},
			{
				"x": 1.9748451861,
				"y": -3.0479783414,
				"z": -1.8284807058,
				"element": "C" 
			},
			{
				"x": 1.6394090661,
				"y": -3.530237561,
				"z": -3.0950004366,
				"element": "C" 
			},
			{
				"x": 0.3816093658,
				"y": -3.2398951368,
				"z": -3.6310042027,
				"element": "C" 
			},
			{
				"x": -0.5311483723,
				"y": -2.4762958942,
				"z": -2.9100227831,
				"element": "C" 
			},
			{
				"x": -3.0568797037,
				"y": -0.8926305006,
				"z": -1.9812550795,
				"element": "H" 
			},
			{
				"x": -3.7962910122,
				"y": 1.4053904544,
				"z": 1.978506604,
				"element": "H" 
			},
			{
				"x": -3.7263927931,
				"y": 2.4881003077,
				"z": 4.2182901541,
				"element": "H" 
			},
			{
				"x": -1.689329691,
				"y": 2.2861109132,
				"z": 5.6318692124,
				"element": "H" 
			},
			{
				"x": 0.2692033664,
				"y": 1.0019556956,
				"z": 4.7991043701,
				"element": "H" 
			},
			{
				"x": 0.1935099017,
				"y": -0.0735563188,
				"z": 2.5685598741,
				"element": "H" 
			},
			{
				"x": 1.3307578213,
				"y": -1.9102489694,
				"z": -0.1173469983,
				"element": "H" 
			},
			{
				"x": 2.9497865764,
				"y": -3.2680782598,
				"z": -1.4030829424,
				"element": "H" 
			},
			{
				"x": 2.3498963147,
				"y": -4.1263777082,
				"z": -3.6597273391,
				"element": "H" 
			},
			{
				"x": 0.110328164,
				"y": -3.6100617921,
				"z": -4.6154415299,
				"element": "H" 
			},
			{
				"x": -1.5049609523,
				"y": -2.2579056954,
				"z": -3.3377979957,
				"element": "H" 
			}
		],
		 "valence_orbital": [ 
			{
				"type": "occ",
				"energy": -0.28593,
				"method": "rhf"
			},
			{
				"type": "occ",
				"energy": -0.261,
				"method": "rhf"
			},
			{
				"type": "occ",
				"energy": -0.25692,
				"method": "rhf"
			},
			{
				"type": "occ",
				"energy": -0.25524,
				"method": "rhf"
			},
			{
				"type": "occ",
				"energy": -0.20525,
				"method": "rhf"
			},
			{
				"type": "unocc",
				"energy": -0.05218,
				"method": "rhf"
			},
			{
				"type": "unocc",
				"energy": -0.01632,
				"method": "rhf"
			},
			{
				"type": "unocc",
				"energy": -0.00545,
				"method": "rhf"
			},
			{
				"type": "unocc",
				"energy": -0.00381,
				"method": "rhf"
			},
			{
				"type": "unocc",
				"energy": 0.05854,
				"method": "rhf"
			}
		],
		"cosmo_sigma_profile": { 
			"-0.025": 0.0,
			"-0.024": 0.0,
			"-0.023": 0.0,
			"-0.022": 0.0,
			"-0.021": 0.0,
			"-0.02": 0.0,
			"-0.019": 0.0,
			"-0.018": 0.0,
			"-0.017": 0.0,
			"-0.016": 0.0,
			"-0.015": 0.0,
			"-0.014": 0.0,
			"-0.013": 0.0,
			"-0.012": 0.0,
			"-0.011": 0.0,
			"-0.01": 0.0,
			"-0.009": 0.473265826717,
			"-0.008": 3.01406556342,
			"-0.007": 3.21834719689,
			"-0.006": 15.7937992875,
			"-0.005": 20.9071362503,
			"-0.004": 22.8915404295,
			"-0.003": 17.2010706598,
			"-0.002": 14.3944854932,
			"-0.001": 18.0436266754,
			"0.0": 20.8388124465,
			"0.001": 26.6013641781,
			"0.002": 25.9895664341,
			"0.003": 23.6695190646,
			"0.004": 23.6439647919,
			"0.005": 17.2359879915,
			"0.006": 2.61138066127,
			"0.007": 1.91576344979,
			"0.008": 0.652614118142,
			"0.009": 1.15472545033,
			"0.01": 1.85280309734,
			"0.011": 0.89861700707,
			"0.012": 0.829140734954,
			"0.013": 1.03578930579,
			"0.014": 0.856193677392,
			"0.015": 0.113649286634,
			"0.016": 0.0,
			"0.017": 0.0,
			"0.018": 0.0,
			"0.019": 0.0,
			"0.02": 0.0,
			"0.021": 0.0,
			"0.022": 0.0,
			"0.023": 0.0,
			"0.024": 0.0,
			"0.025": 0.0
		}
	}
}
