{
	 "smiles": "[O-][N+](=O)C1=CC(=C(Cl)C(=C1)[N+]([O-])=O)[N+]([O-])=O", 
	 "Tm": 356.15, 
	 "num_atms": 18, 
	 "gaussian": { 
		 "optdone": 1, 
		 "sigma_profile": "yes", 
		 "theory": "DFT", 
		 "functional": "B3LYP", 
		 "basiset": "6-31G**", 
		 "properties": { 
			 "R2extent": 3938.0557, 
			 "electric_dipole_moment_norm": 0.142136589237, 
			 "electric_quadrupole_moment_norm": 9.96271359018, 
			 "total_energy": -1305.28802306, 
			 "HOMO_LUMO_gap": 0.17974, 
			 "cosmo_polarized_energy": -14.36, 
			 "cosmo_cavitation_energy": 27.76, 
			 "cosmo_dispersion_energy": -19.96, 
			 "cosmo_repulsion_energy": 1.55, 
			 "cosmo_total_nonelectrostatic_energy": 9.35, 
			 "SMD_solvation_energy": 11.52 
		},
		"coords": [
			{
				"x": 3.2266558907,
				"y": 0.5620621358,
				"z": -2.3415889913,
				"element": "O" 
			},
			{
				"x": 2.812256169,
				"y": -0.2984273521,
				"z": -1.5709855222,
				"element": "N" 
			},
			{
				"x": 3.3438487291,
				"y": -1.3818649423,
				"z": -1.3483555711,
				"element": "O" 
			},
			{
				"x": 1.5614344218,
				"y": -0.0036626741,
				"z": -0.8464875644,
				"element": "C" 
			},
			{
				"x": 1.0619190099,
				"y": -0.9391374097,
				"z": 0.0478624496,
				"element": "C" 
			},
			{
				"x": -0.1338490373,
				"y": -0.663243482,
				"z": 0.6998841634,
				"element": "C" 
			},
			{
				"x": -0.8162044927,
				"y": 0.5566483679,
				"z": 0.5307237601,
				"element": "C" 
			},
			{
				"x": -2.2763107787,
				"y": 0.9010053492,
				"z": 1.3765713482,
				"element": "Cl" 
			},
			{
				"x": -0.2450231973,
				"y": 1.4811378042,
				"z": -0.364488626,
				"element": "C" 
			},
			{
				"x": 0.9149024783,
				"y": 1.2019016646,
				"z": -1.0769954362,
				"element": "C" 
			},
			{
				"x": -0.8362641244,
				"y": 2.8171585825,
				"z": -0.6081495531,
				"element": "N" 
			},
			{
				"x": -0.8317935975,
				"y": 3.2013673409,
				"z": -1.7738690957,
				"element": "O" 
			},
			{
				"x": -1.2407849103,
				"y": 3.4452061208,
				"z": 0.360571218,
				"element": "O" 
			},
			{
				"x": -0.642197724,
				"y": -1.7401093239,
				"z": 1.5807235109,
				"element": "N" 
			},
			{
				"x": -1.8388367856,
				"y": -1.9908593116,
				"z": 1.5398667041,
				"element": "O" 
			},
			{
				"x": 0.2006107699,
				"y": -2.3239031135,
				"z": 2.2555644917,
				"element": "O" 
			},
			{
				"x": 1.5846698038,
				"y": -1.8694189835,
				"z": 0.2290443463,
				"element": "H" 
			},
			{
				"x": 1.3080673753,
				"y": 1.916339227,
				"z": -1.7886916322,
				"element": "H" 
			}
		],
		 "valence_orbital": [ 
			{
				"type": "occ",
				"energy": -0.33768,
				"method": "rhf"
			},
			{
				"type": "occ",
				"energy": -0.32978,
				"method": "rhf"
			},
			{
				"type": "occ",
				"energy": -0.32355,
				"method": "rhf"
			},
			{
				"type": "occ",
				"energy": -0.31765,
				"method": "rhf"
			},
			{
				"type": "occ",
				"energy": -0.31638,
				"method": "rhf"
			},
			{
				"type": "unocc",
				"energy": -0.13664,
				"method": "rhf"
			},
			{
				"type": "unocc",
				"energy": -0.12734,
				"method": "rhf"
			},
			{
				"type": "unocc",
				"energy": -0.10963,
				"method": "rhf"
			},
			{
				"type": "unocc",
				"energy": -0.0608,
				"method": "rhf"
			},
			{
				"type": "unocc",
				"energy": -0.04357,
				"method": "rhf"
			}
		],
		"cosmo_sigma_profile": { 
			"-0.025": 0.0,
			"-0.024": 0.0,
			"-0.023": 0.0,
			"-0.022": 0.0,
			"-0.021": 0.0,
			"-0.02": 0.0,
			"-0.019": 0.0,
			"-0.018": 0.0,
			"-0.017": 0.0,
			"-0.016": 0.0,
			"-0.015": 0.0,
			"-0.014": 0.0,
			"-0.013": 0.0,
			"-0.012": 0.415532256253,
			"-0.011": 2.13136219951,
			"-0.01": 4.90005410785,
			"-0.009": 6.55234254913,
			"-0.008": 8.38756691503,
			"-0.007": 10.8860083018,
			"-0.006": 17.819115926,
			"-0.005": 15.9774599707,
			"-0.004": 10.2399823965,
			"-0.003": 9.147987604,
			"-0.002": 8.78210533977,
			"-0.001": 9.62749554432,
			"0.0": 9.68834155376,
			"0.001": 11.1295759157,
			"0.002": 8.21320034723,
			"0.003": 9.69974520019,
			"0.004": 10.4523894927,
			"0.005": 15.1200693801,
			"0.006": 30.1640335597,
			"0.007": 16.4084786165,
			"0.008": 9.3473591746,
			"0.009": 1.78515914152,
			"0.01": 0.0,
			"0.011": 0.0,
			"0.012": 0.0,
			"0.013": 0.0,
			"0.014": 0.0,
			"0.015": 0.0,
			"0.016": 0.0,
			"0.017": 0.0,
			"0.018": 0.0,
			"0.019": 0.0,
			"0.02": 0.0,
			"0.021": 0.0,
			"0.022": 0.0,
			"0.023": 0.0,
			"0.024": 0.0,
			"0.025": 0.0
		}
	}
}
