{
	 "smiles": "COC1=NC=C(CN2C(N)=NC3=C2C=CC=C3)C=C1", 
	 "Tm": 447.15, 
	 "num_atms": 33, 
	 "gaussian": { 
		 "optdone": 1, 
		 "sigma_profile": "yes", 
		 "theory": "DFT", 
		 "functional": "B3LYP", 
		 "basiset": "6-31G**", 
		 "properties": { 
			 "R2extent": 6076.0305, 
			 "electric_dipole_moment_norm": 4.18918226985, 
			 "electric_quadrupole_moment_norm": 14.8913970493, 
			 "total_energy": -836.16542341, 
			 "HOMO_LUMO_gap": 0.17047, 
			 "cosmo_polarized_energy": -20.29, 
			 "cosmo_cavitation_energy": 37.11, 
			 "cosmo_dispersion_energy": -26.47, 
			 "cosmo_repulsion_energy": 2.04, 
			 "cosmo_total_nonelectrostatic_energy": 12.68, 
			 "SMD_solvation_energy": 3.87 
		},
		"coords": [
			{
				"x": -2.4907868378,
				"y": -3.0579410037,
				"z": 3.2471699845,
				"element": "C" 
			},
			{
				"x": -3.1408569037,
				"y": -2.8789109614,
				"z": 1.9850037789,
				"element": "O" 
			},
			{
				"x": -2.5794315425,
				"y": -2.0031643566,
				"z": 1.1237257809,
				"element": "C" 
			},
			{
				"x": -1.4754587182,
				"y": -1.3527445918,
				"z": 1.4728162043,
				"element": "N" 
			},
			{
				"x": -0.9490098724,
				"y": -0.4904821847,
				"z": 0.5881898015,
				"element": "C" 
			},
			{
				"x": -1.4896588823,
				"y": -0.2405543834,
				"z": -0.6705896867,
				"element": "C" 
			},
			{
				"x": -0.8906865057,
				"y": 0.777472666,
				"z": -1.6260684591,
				"element": "C" 
			},
			{
				"x": 0.5437621694,
				"y": 0.9693100955,
				"z": -1.5031050818,
				"element": "N" 
			},
			{
				"x": 1.5478100307,
				"y": 0.1270242045,
				"z": -1.9557180299,
				"element": "C" 
			},
			{
				"x": 1.2535513595,
				"y": -1.061730386,
				"z": -2.5922231597,
				"element": "N" 
			},
			{
				"x": 2.7609826728,
				"y": 0.5320968731,
				"z": -1.6653287928,
				"element": "N" 
			},
			{
				"x": 2.5763222824,
				"y": 1.7146312524,
				"z": -0.959916743,
				"element": "C" 
			},
			{
				"x": 1.1975942523,
				"y": 2.0153654402,
				"z": -0.8440319547,
				"element": "C" 
			},
			{
				"x": 0.7282350281,
				"y": 3.1498768946,
				"z": -0.187618248,
				"element": "C" 
			},
			{
				"x": 1.6877050384,
				"y": 4.0044365769,
				"z": 0.3623715417,
				"element": "C" 
			},
			{
				"x": 3.0601834988,
				"y": 3.7245141858,
				"z": 0.2542611716,
				"element": "C" 
			},
			{
				"x": 3.5196589769,
				"y": 2.5830155546,
				"z": -0.4033148706,
				"element": "C" 
			},
			{
				"x": -2.655233722,
				"y": -0.9458145137,
				"z": -1.01540737,
				"element": "C" 
			},
			{
				"x": -3.2177714374,
				"y": -1.837880809,
				"z": -0.1200133711,
				"element": "C" 
			},
			{
				"x": -2.4555846125,
				"y": -2.1204908711,
				"z": 3.809516428,
				"element": "H" 
			},
			{
				"x": -3.091743418,
				"y": -3.7971659852,
				"z": 3.778506939,
				"element": "H" 
			},
			{
				"x": -1.4676144122,
				"y": -3.4212532015,
				"z": 3.1158523054,
				"element": "H" 
			},
			{
				"x": -0.0424767629,
				"y": 0.0189125759,
				"z": 0.906955493,
				"element": "H" 
			},
			{
				"x": -1.3523989438,
				"y": 1.760469016,
				"z": -1.47890707,
				"element": "H" 
			},
			{
				"x": -1.1317542598,
				"y": 0.4964025395,
				"z": -2.6598523021,
				"element": "H" 
			},
			{
				"x": 2.0802033434,
				"y": -1.4701272291,
				"z": -3.0081976816,
				"element": "H" 
			},
			{
				"x": 0.4618540383,
				"y": -1.0535437024,
				"z": -3.2211862324,
				"element": "H" 
			},
			{
				"x": -0.3318059081,
				"y": 3.3678919563,
				"z": -0.0937904588,
				"element": "H" 
			},
			{
				"x": 1.3629734362,
				"y": 4.8987861186,
				"z": 0.8856728913,
				"element": "H" 
			},
			{
				"x": 3.7768597142,
				"y": 4.4114206246,
				"z": 0.6950730833,
				"element": "H" 
			},
			{
				"x": 4.5790119628,
				"y": 2.3626845771,
				"z": -0.4874524674,
				"element": "H" 
			},
			{
				"x": -3.1172798136,
				"y": -0.7944686774,
				"z": -1.9888931204,
				"element": "H" 
			},
			{
				"x": -4.1124552513,
				"y": -2.4057382944,
				"z": -0.3480003034,
				"element": "H" 
			}
		],
		 "valence_orbital": [ 
			{
				"type": "occ",
				"energy": -0.26536,
				"method": "rhf"
			},
			{
				"type": "occ",
				"energy": -0.26377,
				"method": "rhf"
			},
			{
				"type": "occ",
				"energy": -0.23252,
				"method": "rhf"
			},
			{
				"type": "occ",
				"energy": -0.21458,
				"method": "rhf"
			},
			{
				"type": "occ",
				"energy": -0.19714,
				"method": "rhf"
			},
			{
				"type": "unocc",
				"energy": -0.02667,
				"method": "rhf"
			},
			{
				"type": "unocc",
				"energy": -0.0044,
				"method": "rhf"
			},
			{
				"type": "unocc",
				"energy": 0.00455,
				"method": "rhf"
			},
			{
				"type": "unocc",
				"energy": 0.03084,
				"method": "rhf"
			},
			{
				"type": "unocc",
				"energy": 0.0552,
				"method": "rhf"
			}
		],
		"cosmo_sigma_profile": { 
			"-0.025": 0.0,
			"-0.024": 0.0,
			"-0.023": 0.0,
			"-0.022": 0.0,
			"-0.021": 0.0,
			"-0.02": 0.0,
			"-0.019": 0.0,
			"-0.018": 0.0,
			"-0.017": 0.0,
			"-0.016": 0.0,
			"-0.015": 0.799505136029,
			"-0.014": 1.91019548155,
			"-0.013": 2.23383680783,
			"-0.012": 2.71968982124,
			"-0.011": 2.63652810201,
			"-0.01": 2.88328280093,
			"-0.009": 2.55944289923,
			"-0.008": 5.67046057663,
			"-0.007": 10.1499555192,
			"-0.006": 12.002021411,
			"-0.005": 20.0233485942,
			"-0.004": 21.6646018765,
			"-0.003": 23.4032754311,
			"-0.002": 21.5180418119,
			"-0.001": 14.5977012616,
			"0.0": 16.6530883298,
			"0.001": 17.3126723577,
			"0.002": 20.4939817401,
			"0.003": 17.8947076809,
			"0.004": 13.7906649409,
			"0.005": 14.3331119208,
			"0.006": 13.9468097117,
			"0.007": 11.4212850493,
			"0.008": 5.20391550611,
			"0.009": 5.08210701636,
			"0.01": 3.78388373671,
			"0.011": 3.15977554277,
			"0.012": 2.12338813679,
			"0.013": 1.36785529988,
			"0.014": 1.2585243651,
			"0.015": 1.09841099872,
			"0.016": 0.822656922882,
			"0.017": 1.19597996161,
			"0.018": 0.428754879928,
			"0.019": 0.0,
			"0.02": 0.0,
			"0.021": 0.0,
			"0.022": 0.0,
			"0.023": 0.0,
			"0.024": 0.0,
			"0.025": 0.0
		}
	}
}
