{
	 "smiles": "CCOC(=O)C1=C(N)C2=CC(C(=O)OCC)=C(N=C2S1)C(F)(F)F", 
	 "Tm": 455.15, 
	 "num_atms": 37, 
	 "gaussian": { 
		 "optdone": 1, 
		 "sigma_profile": "yes", 
		 "theory": "DFT", 
		 "functional": "B3LYP", 
		 "basiset": "6-31G**", 
		 "properties": { 
			 "R2extent": 13344.7169, 
			 "electric_dipole_moment_norm": 2.42093503837, 
			 "electric_quadrupole_moment_norm": 21.9229826125, 
			 "total_energy": -1649.47339125, 
			 "HOMO_LUMO_gap": 0.13863, 
			 "cosmo_polarized_energy": -15.12, 
			 "cosmo_cavitation_energy": 44.98, 
			 "cosmo_dispersion_energy": -31.82, 
			 "cosmo_repulsion_energy": 2.35, 
			 "cosmo_total_nonelectrostatic_energy": 15.5, 
			 "SMD_solvation_energy": 8.65 
		},
		"coords": [
			{
				"x": 6.3349278395,
				"y": 3.533002059,
				"z": -1.0747894007,
				"element": "C" 
			},
			{
				"x": 5.8942239195,
				"y": 2.5001109829,
				"z": -0.0488812229,
				"element": "C" 
			},
			{
				"x": 4.4643801474,
				"y": 2.2769699373,
				"z": -0.1074775002,
				"element": "O" 
			},
			{
				"x": 4.0228526979,
				"y": 1.3703030675,
				"z": -1.0052006713,
				"element": "C" 
			},
			{
				"x": 4.7632326032,
				"y": 0.7326462965,
				"z": -1.7513332339,
				"element": "O" 
			},
			{
				"x": 2.5774407198,
				"y": 1.2346781308,
				"z": -0.9950862585,
				"element": "C" 
			},
			{
				"x": 1.8796943021,
				"y": 0.3780255033,
				"z": -1.8360859628,
				"element": "C" 
			},
			{
				"x": 2.4517953761,
				"y": -0.4969997666,
				"z": -2.710479773,
				"element": "N" 
			},
			{
				"x": 0.4521041993,
				"y": 0.4893113539,
				"z": -1.6286815548,
				"element": "C" 
			},
			{
				"x": -0.6097780212,
				"y": -0.1941481714,
				"z": -2.2192823269,
				"element": "C" 
			},
			{
				"x": -1.9180902101,
				"y": 0.0850518673,
				"z": -1.8219272332,
				"element": "C" 
			},
			{
				"x": -2.9788794181,
				"y": -0.7446592398,
				"z": -2.4818892349,
				"element": "C" 
			},
			{
				"x": -2.8542964044,
				"y": -1.205840007,
				"z": -3.6002637064,
				"element": "O" 
			},
			{
				"x": -4.0292887324,
				"y": -0.9676191857,
				"z": -1.6849920796,
				"element": "O" 
			},
			{
				"x": -5.1396850995,
				"y": -1.6975252711,
				"z": -2.2617037642,
				"element": "C" 
			},
			{
				"x": -6.2514657711,
				"y": -1.7003777221,
				"z": -1.2307131872,
				"element": "C" 
			},
			{
				"x": -2.1163664996,
				"y": 1.1076654283,
				"z": -0.8556760005,
				"element": "C" 
			},
			{
				"x": -1.1153922204,
				"y": 1.7631037674,
				"z": -0.2754229426,
				"element": "N" 
			},
			{
				"x": 0.1249521539,
				"y": 1.4463220737,
				"z": -0.6365357446,
				"element": "C" 
			},
			{
				"x": 1.5367384368,
				"y": 2.1970448786,
				"z": 0.0676669252,
				"element": "S" 
			},
			{
				"x": -3.5002107597,
				"y": 1.6018491289,
				"z": -0.4293924325,
				"element": "C" 
			},
			{
				"x": -4.0802800754,
				"y": 0.7711821552,
				"z": 0.4592228602,
				"element": "F" 
			},
			{
				"x": -4.3248426402,
				"y": 1.7137117247,
				"z": -1.496481277,
				"element": "F" 
			},
			{
				"x": -3.4260276073,
				"y": 2.8111503876,
				"z": 0.141383637,
				"element": "F" 
			},
			{
				"x": 6.1686492688,
				"y": 3.1626470289,
				"z": -2.0893118864,
				"element": "H" 
			},
			{
				"x": 7.4036962434,
				"y": 3.7399900503,
				"z": -0.9557709606,
				"element": "H" 
			},
			{
				"x": 5.7865284201,
				"y": 4.4703897049,
				"z": -0.944362941,
				"element": "H" 
			},
			{
				"x": 6.4044468384,
				"y": 1.5464151155,
				"z": -0.2020331993,
				"element": "H" 
			},
			{
				"x": 6.0698122073,
				"y": 2.8470527652,
				"z": 0.9718649969,
				"element": "H" 
			},
			{
				"x": 3.452137224,
				"y": -0.3847321805,
				"z": -2.8373177837,
				"element": "H" 
			},
			{
				"x": 1.9095439369,
				"y": -0.8186583934,
				"z": -3.4968586439,
				"element": "H" 
			},
			{
				"x": -0.4596565139,
				"y": -0.9544999753,
				"z": -2.9794513872,
				"element": "H" 
			},
			{
				"x": -5.4357650501,
				"y": -1.2023303547,
				"z": -3.1913192358,
				"element": "H" 
			},
			{
				"x": -4.8004099316,
				"y": -2.706760741,
				"z": -2.5152703404,
				"element": "H" 
			},
			{
				"x": -5.9369104401,
				"y": -2.2117360792,
				"z": -0.3167109558,
				"element": "H" 
			},
			{
				"x": -7.1287109398,
				"y": -2.2168996444,
				"z": -1.6320122373,
				"element": "H" 
			},
			{
				"x": -6.5353001994,
				"y": -0.6771366754,
				"z": -0.9710233404,
				"element": "H" 
			}
		],
		 "valence_orbital": [ 
			{
				"type": "occ",
				"energy": -0.29761,
				"method": "rhf"
			},
			{
				"type": "occ",
				"energy": -0.28586,
				"method": "rhf"
			},
			{
				"type": "occ",
				"energy": -0.27837,
				"method": "rhf"
			},
			{
				"type": "occ",
				"energy": -0.26492,
				"method": "rhf"
			},
			{
				"type": "occ",
				"energy": -0.21656,
				"method": "rhf"
			},
			{
				"type": "unocc",
				"energy": -0.07793,
				"method": "rhf"
			},
			{
				"type": "unocc",
				"energy": -0.06185,
				"method": "rhf"
			},
			{
				"type": "unocc",
				"energy": -0.01153,
				"method": "rhf"
			},
			{
				"type": "unocc",
				"energy": 0.01403,
				"method": "rhf"
			},
			{
				"type": "unocc",
				"energy": 0.03382,
				"method": "rhf"
			}
		],
		"cosmo_sigma_profile": { 
			"-0.025": 0.0,
			"-0.024": 0.0,
			"-0.023": 0.0,
			"-0.022": 0.0,
			"-0.021": 0.0,
			"-0.02": 0.0,
			"-0.019": 0.0,
			"-0.018": 0.0,
			"-0.017": 0.0,
			"-0.016": 0.0,
			"-0.015": 0.994871136264,
			"-0.014": 2.19838773151,
			"-0.013": 0.956208332032,
			"-0.012": 2.07938028124,
			"-0.011": 2.10196637944,
			"-0.01": 2.4877947426,
			"-0.009": 1.85558415698,
			"-0.008": 2.50539579916,
			"-0.007": 2.14256462411,
			"-0.006": 6.21943709084,
			"-0.005": 14.5935576114,
			"-0.004": 28.7074921605,
			"-0.003": 32.6455172167,
			"-0.002": 36.3598699739,
			"-0.001": 35.2129766051,
			"0.0": 34.06816165,
			"0.001": 29.4109874216,
			"0.002": 36.4499624947,
			"0.003": 29.6199196667,
			"0.004": 14.2328788022,
			"0.005": 8.93058751913,
			"0.006": 8.94489340264,
			"0.007": 3.74849674251,
			"0.008": 4.66888158431,
			"0.009": 5.34465812907,
			"0.01": 4.6788807333,
			"0.011": 6.64893041263,
			"0.012": 2.91630345255,
			"0.013": 0.0,
			"0.014": 0.0,
			"0.015": 0.0,
			"0.016": 0.0,
			"0.017": 0.0,
			"0.018": 0.0,
			"0.019": 0.0,
			"0.02": 0.0,
			"0.021": 0.0,
			"0.022": 0.0,
			"0.023": 0.0,
			"0.024": 0.0,
			"0.025": 0.0
		}
	}
}
