{
	 "smiles": "SC1=NN=CN1C1=CC=CC=C1", 
	 "Tm": 446.15, 
	 "num_atms": 19, 
	 "gaussian": { 
		 "optdone": 1, 
		 "sigma_profile": "yes", 
		 "theory": "DFT", 
		 "functional": "B3LYP", 
		 "basiset": "6-31G**", 
		 "properties": { 
			 "R2extent": 2533.8737, 
			 "electric_dipole_moment_norm": 5.34645496287, 
			 "electric_quadrupole_moment_norm": 18.0908121042, 
			 "total_energy": -871.47505578, 
			 "HOMO_LUMO_gap": 0.1993, 
			 "cosmo_polarized_energy": -14.55, 
			 "cosmo_cavitation_energy": 25.3, 
			 "cosmo_dispersion_energy": -18.84, 
			 "cosmo_repulsion_energy": 1.45, 
			 "cosmo_total_nonelectrostatic_energy": 7.9, 
			 "SMD_solvation_energy": 2.6 
		},
		"coords": [
			{
				"x": -1.0272219808,
				"y": -2.5606587777,
				"z": -1.7031194931,
				"element": "S" 
			},
			{
				"x": -1.9839939159,
				"y": -1.2174802154,
				"z": -1.0668754517,
				"element": "C" 
			},
			{
				"x": -3.2756479485,
				"y": -1.0520712415,
				"z": -1.2322034778,
				"element": "N" 
			},
			{
				"x": -3.6191374969,
				"y": 0.137256217,
				"z": -0.6117526832,
				"element": "N" 
			},
			{
				"x": -2.528128408,
				"y": 0.6423916986,
				"z": -0.1043318149,
				"element": "C" 
			},
			{
				"x": -1.4406336199,
				"y": -0.1714498925,
				"z": -0.3527977955,
				"element": "N" 
			},
			{
				"x": -0.0853981734,
				"y": 0.0625156241,
				"z": 0.0312304463,
				"element": "C" 
			},
			{
				"x": 0.5216460178,
				"y": 1.2757303368,
				"z": -0.3085521414,
				"element": "C" 
			},
			{
				"x": 1.8363410622,
				"y": 1.5200080411,
				"z": 0.0868607864,
				"element": "C" 
			},
			{
				"x": 2.5472572481,
				"y": 0.5536741649,
				"z": 0.8016073062,
				"element": "C" 
			},
			{
				"x": 1.9364846814,
				"y": -0.6578749812,
				"z": 1.1308311344,
				"element": "C" 
			},
			{
				"x": 0.6154999799,
				"y": -0.9054404906,
				"z": 0.7574744769,
				"element": "C" 
			},
			{
				"x": -2.0921422304,
				"y": -3.0855696852,
				"z": -2.3389012358,
				"element": "H" 
			},
			{
				"x": -2.4483768083,
				"y": 1.5574470671,
				"z": 0.4644047466,
				"element": "H" 
			},
			{
				"x": -0.0307688297,
				"y": 2.0085137806,
				"z": -0.8879950228,
				"element": "H" 
			},
			{
				"x": 2.3079430763,
				"y": 2.4621394705,
				"z": -0.1752908291,
				"element": "H" 
			},
			{
				"x": 3.573358248,
				"y": 0.7442421356,
				"z": 1.1006900167,
				"element": "H" 
			},
			{
				"x": 2.482935745,
				"y": -1.4100707191,
				"z": 1.6913782265,
				"element": "H" 
			},
			{
				"x": 0.1255833531,
				"y": -1.8332025331,
				"z": 1.0336428055,
				"element": "H" 
			}
		],
		 "valence_orbital": [ 
			{
				"type": "occ",
				"energy": -0.30798,
				"method": "rhf"
			},
			{
				"type": "occ",
				"energy": -0.27657,
				"method": "rhf"
			},
			{
				"type": "occ",
				"energy": -0.27012,
				"method": "rhf"
			},
			{
				"type": "occ",
				"energy": -0.25219,
				"method": "rhf"
			},
			{
				"type": "occ",
				"energy": -0.23372,
				"method": "rhf"
			},
			{
				"type": "unocc",
				"energy": -0.03442,
				"method": "rhf"
			},
			{
				"type": "unocc",
				"energy": -0.0299,
				"method": "rhf"
			},
			{
				"type": "unocc",
				"energy": 0.01207,
				"method": "rhf"
			},
			{
				"type": "unocc",
				"energy": 0.02138,
				"method": "rhf"
			},
			{
				"type": "unocc",
				"energy": 0.0401,
				"method": "rhf"
			}
		],
		"cosmo_sigma_profile": { 
			"-0.025": 0.0,
			"-0.024": 0.0,
			"-0.023": 0.0,
			"-0.022": 0.0,
			"-0.021": 0.0,
			"-0.02": 0.0,
			"-0.019": 0.0,
			"-0.018": 0.0,
			"-0.017": 0.0,
			"-0.016": 0.0,
			"-0.015": 0.0,
			"-0.014": 0.0,
			"-0.013": 0.0313377668939,
			"-0.012": 1.31808742885,
			"-0.011": 1.98595777339,
			"-0.01": 3.22319354103,
			"-0.009": 3.12181337639,
			"-0.008": 3.6201218047,
			"-0.007": 9.15509622775,
			"-0.006": 15.9090768744,
			"-0.005": 14.6783029051,
			"-0.004": 12.7774039012,
			"-0.003": 11.3462592803,
			"-0.002": 12.8091803695,
			"-0.001": 12.1264466996,
			"0.0": 12.4532732784,
			"0.001": 14.9366937898,
			"0.002": 16.4297559075,
			"0.003": 14.986661882,
			"0.004": 11.6942206058,
			"0.005": 4.44142981983,
			"0.006": 4.08139560866,
			"0.007": 2.59512296342,
			"0.008": 1.53152152293,
			"0.009": 2.40975734561,
			"0.01": 2.3305589987,
			"0.011": 1.96994200428,
			"0.012": 2.91400545252,
			"0.013": 3.83418237676,
			"0.014": 2.98075252086,
			"0.015": 2.55968312675,
			"0.016": 1.85466562421,
			"0.017": 0.141335169774,
			"0.018": 0.0,
			"0.019": 0.0,
			"0.02": 0.0,
			"0.021": 0.0,
			"0.022": 0.0,
			"0.023": 0.0,
			"0.024": 0.0,
			"0.025": 0.0
		}
	}
}
