{
	 "smiles": "CCN1C(=O)C(C=C2/C(=O)NN=C2C2=C(O)C3=CC=CC=C3N(C)C2=O)=C(O)C2=C1C=CC=C2", 
	 "Tm": 568.15, 
	 "num_atms": 54, 
	 "gaussian": { 
		 "optdone": 1, 
		 "sigma_profile": "yes", 
		 "theory": "DFT", 
		 "functional": "B3LYP", 
		 "basiset": "6-31G**", 
		 "properties": { 
			 "R2extent": 19097.756, 
			 "electric_dipole_moment_norm": 2.23715702623, 
			 "electric_quadrupole_moment_norm": 30.8046592176, 
			 "total_energy": -1559.89499059, 
			 "HOMO_LUMO_gap": 0.11866, 
			 "cosmo_polarized_energy": -22.03, 
			 "cosmo_cavitation_energy": 55.89, 
			 "cosmo_dispersion_energy": -40.18, 
			 "cosmo_repulsion_energy": 2.89, 
			 "cosmo_total_nonelectrostatic_energy": 18.61, 
			 "SMD_solvation_energy": 10.03 
		},
		"coords": [
			{
				"x": -1.6073997323,
				"y": 5.1775805494,
				"z": 1.480701244,
				"element": "C" 
			},
			{
				"x": -0.1468481431,
				"y": 5.1531648419,
				"z": 1.0261671531,
				"element": "C" 
			},
			{
				"x": 0.0419091916,
				"y": 4.4678640117,
				"z": -0.2649869447,
				"element": "N" 
			},
			{
				"x": 0.3246773679,
				"y": 3.0967556803,
				"z": -0.1941114328,
				"element": "C" 
			},
			{
				"x": 0.3734129017,
				"y": 2.546468344,
				"z": 0.9058898043,
				"element": "O" 
			},
			{
				"x": 0.5705002576,
				"y": 2.3631967473,
				"z": -1.4620026526,
				"element": "C" 
			},
			{
				"x": 0.6322845182,
				"y": 0.9559640464,
				"z": -1.2647316073,
				"element": "C" 
			},
			{
				"x": 1.0547927456,
				"y": -0.131182674,
				"z": -2.0128398998,
				"element": "C" 
			},
			{
				"x": 1.9489051423,
				"y": -0.1462312424,
				"z": -3.1643137126,
				"element": "C" 
			},
			{
				"x": 2.3831345804,
				"y": 0.7843028944,
				"z": -3.8952605907,
				"element": "O" 
			},
			{
				"x": 2.3257581203,
				"y": -1.4424663301,
				"z": -3.3009796699,
				"element": "N" 
			},
			{
				"x": 1.7325623999,
				"y": -2.2843651178,
				"z": -2.3896477965,
				"element": "N" 
			},
			{
				"x": 0.9669446401,
				"y": -1.5362793128,
				"z": -1.611258623,
				"element": "C" 
			},
			{
				"x": 0.2714216862,
				"y": -2.1958371705,
				"z": -0.4969548035,
				"element": "C" 
			},
			{
				"x": 0.7573524916,
				"y": -3.3988758882,
				"z": 0.000029377,
				"element": "C" 
			},
			{
				"x": 1.7981001002,
				"y": -4.0469404405,
				"z": -0.5251154279,
				"element": "O" 
			},
			{
				"x": 0.1565306352,
				"y": -4.0202517143,
				"z": 1.1575817004,
				"element": "C" 
			},
			{
				"x": 0.6924867144,
				"y": -5.1945416788,
				"z": 1.7174972287,
				"element": "C" 
			},
			{
				"x": 0.1170168966,
				"y": -5.7727657358,
				"z": 2.8371620593,
				"element": "C" 
			},
			{
				"x": -1.0167996456,
				"y": -5.1785734872,
				"z": 3.4083345181,
				"element": "C" 
			},
			{
				"x": -1.5696173511,
				"y": -4.0246494898,
				"z": 2.8685548388,
				"element": "C" 
			},
			{
				"x": -0.9924301729,
				"y": -3.4239383829,
				"z": 1.7311384041,
				"element": "C" 
			},
			{
				"x": -1.5321977012,
				"y": -2.2819041175,
				"z": 1.1570669111,
				"element": "N" 
			},
			{
				"x": -2.7579077632,
				"y": -1.7021175748,
				"z": 1.7057817673,
				"element": "C" 
			},
			{
				"x": -0.9742902688,
				"y": -1.639904032,
				"z": 0.0319670366,
				"element": "C" 
			},
			{
				"x": -1.5478311031,
				"y": -0.6660199898,
				"z": -0.4609879156,
				"element": "O" 
			},
			{
				"x": 0.5174555807,
				"y": 3.0634755089,
				"z": -2.6893396772,
				"element": "C" 
			},
			{
				"x": 0.7132064493,
				"y": 2.5315932826,
				"z": -3.8606212996,
				"element": "O" 
			},
			{
				"x": 0.1371179764,
				"y": 4.4656436364,
				"z": -2.6908628369,
				"element": "C" 
			},
			{
				"x": -0.1084174835,
				"y": 5.1430299805,
				"z": -1.4700179979,
				"element": "C" 
			},
			{
				"x": -0.4925251432,
				"y": 6.4994538941,
				"z": -1.5202710057,
				"element": "C" 
			},
			{
				"x": -0.6121184669,
				"y": 7.1535841635,
				"z": -2.7389025925,
				"element": "C" 
			},
			{
				"x": -0.3563110852,
				"y": 6.489291371,
				"z": -3.9463104202,
				"element": "C" 
			},
			{
				"x": 0.0141967034,
				"y": 5.1564973817,
				"z": -3.9127591519,
				"element": "C" 
			},
			{
				"x": -2.252909021,
				"y": 5.6850810835,
				"z": 0.7574152107,
				"element": "H" 
			},
			{
				"x": -1.9720281982,
				"y": 4.1558853741,
				"z": 1.6132743765,
				"element": "H" 
			},
			{
				"x": -1.6921370494,
				"y": 5.6990024731,
				"z": 2.4397732101,
				"element": "H" 
			},
			{
				"x": 0.2685584487,
				"y": 6.1600679811,
				"z": 0.9420271705,
				"element": "H" 
			},
			{
				"x": 0.4529564331,
				"y": 4.6014392091,
				"z": 1.7489592795,
				"element": "H" 
			},
			{
				"x": 0.2672980194,
				"y": 0.6994416341,
				"z": -0.2777924205,
				"element": "H" 
			},
			{
				"x": 2.9329928599,
				"y": -1.8106486317,
				"z": -4.0161181117,
				"element": "H" 
			},
			{
				"x": 2.0462034899,
				"y": -3.5808522594,
				"z": -1.3706486215,
				"element": "H" 
			},
			{
				"x": 1.5678849247,
				"y": -5.6300017052,
				"z": 1.2501068999,
				"element": "H" 
			},
			{
				"x": 0.5383086104,
				"y": -6.6762997274,
				"z": 3.2657572633,
				"element": "H" 
			},
			{
				"x": -1.4779846715,
				"y": -5.6227640946,
				"z": 4.2858053248,
				"element": "H" 
			},
			{
				"x": -2.4472728633,
				"y": -3.5907416104,
				"z": 3.3294341987,
				"element": "H" 
			},
			{
				"x": -3.5759474977,
				"y": -2.4285706771,
				"z": 1.674117154,
				"element": "H" 
			},
			{
				"x": -2.6016363183,
				"y": -1.3807749599,
				"z": 2.7403445125,
				"element": "H" 
			},
			{
				"x": -3.0088400697,
				"y": -0.8420154273,
				"z": 1.0900477208,
				"element": "H" 
			},
			{
				"x": 1.4465294796,
				"y": 1.7474528057,
				"z": -3.8761899186,
				"element": "H" 
			},
			{
				"x": -0.7104808913,
				"y": 7.0421629156,
				"z": -0.6103682758,
				"element": "H" 
			},
			{
				"x": -0.9119815263,
				"y": 8.1976849309,
				"z": -2.7467342059,
				"element": "H" 
			},
			{
				"x": -0.4501900397,
				"y": 7.0112801962,
				"z": -4.8928300761,
				"element": "H" 
			},
			{
				"x": 0.2190028412,
				"y": 4.6066485351,
				"z": -4.8234766754,
				"element": "H" 
			}
		],
		 "valence_orbital": [ 
			{
				"type": "occ",
				"energy": -0.25162,
				"method": "rhf"
			},
			{
				"type": "occ",
				"energy": -0.22921,
				"method": "rhf"
			},
			{
				"type": "occ",
				"energy": -0.22454,
				"method": "rhf"
			},
			{
				"type": "occ",
				"energy": -0.21775,
				"method": "rhf"
			},
			{
				"type": "occ",
				"energy": -0.2101,
				"method": "rhf"
			},
			{
				"type": "unocc",
				"energy": -0.09144,
				"method": "rhf"
			},
			{
				"type": "unocc",
				"energy": -0.052,
				"method": "rhf"
			},
			{
				"type": "unocc",
				"energy": -0.0303,
				"method": "rhf"
			},
			{
				"type": "unocc",
				"energy": -0.00822,
				"method": "rhf"
			},
			{
				"type": "unocc",
				"energy": -0.00282,
				"method": "rhf"
			}
		],
		"cosmo_sigma_profile": { 
			"-0.025": 0.0,
			"-0.024": 0.0,
			"-0.023": 0.0,
			"-0.022": 0.0,
			"-0.021": 0.0,
			"-0.02": 0.0,
			"-0.019": 0.0,
			"-0.018": 0.109536479248,
			"-0.017": 1.27236525693,
			"-0.016": 1.48675210521,
			"-0.015": 0.910910508283,
			"-0.014": 0.653295707925,
			"-0.013": 0.918185548253,
			"-0.012": 0.906916322763,
			"-0.011": 1.07976984604,
			"-0.01": 0.543598025619,
			"-0.009": 0.635793370146,
			"-0.008": 2.31988685076,
			"-0.007": 8.58284306186,
			"-0.006": 22.2894360268,
			"-0.005": 24.7371699344,
			"-0.004": 31.3899395758,
			"-0.003": 36.4473516422,
			"-0.002": 40.4417461269,
			"-0.001": 46.586435376,
			"0.0": 46.8839751745,
			"0.001": 33.8205328708,
			"0.002": 31.2895381946,
			"0.003": 28.6995277812,
			"0.004": 24.53633024,
			"0.005": 10.4066331254,
			"0.006": 8.98646824855,
			"0.007": 7.65744853042,
			"0.008": 8.05428947929,
			"0.009": 5.08271717012,
			"0.01": 4.78124501744,
			"0.011": 5.24287948872,
			"0.012": 5.40551712141,
			"0.013": 6.20166953948,
			"0.014": 0.822436286802,
			"0.015": 0.0,
			"0.016": 0.0,
			"0.017": 0.0,
			"0.018": 0.0,
			"0.019": 0.0,
			"0.02": 0.0,
			"0.021": 0.0,
			"0.022": 0.0,
			"0.023": 0.0,
			"0.024": 0.0,
			"0.025": 0.0
		}
	}
}
