{
	 "smiles": "CC(=O)N1C=C(C)C2=C1C=CC=C2", 
	 "Tm": 338.15, 
	 "num_atms": 24, 
	 "gaussian": { 
		 "optdone": 1, 
		 "sigma_profile": "yes", 
		 "theory": "DFT", 
		 "functional": "B3LYP", 
		 "basiset": "6-31G**", 
		 "properties": { 
			 "R2extent": 2441.8048, 
			 "electric_dipole_moment_norm": 2.173794367, 
			 "electric_quadrupole_moment_norm": 13.5419341329, 
			 "total_energy": -555.79678463, 
			 "HOMO_LUMO_gap": 0.18196, 
			 "cosmo_polarized_energy": -8.51, 
			 "cosmo_cavitation_energy": 27.19, 
			 "cosmo_dispersion_energy": -19.94, 
			 "cosmo_repulsion_energy": 1.54, 
			 "cosmo_total_nonelectrostatic_energy": 8.8, 
			 "SMD_solvation_energy": 5.64 
		},
		"coords": [
			{
				"x": 1.6678563068,
				"y": -2.6990870306,
				"z": 0.2038023891,
				"element": "C" 
			},
			{
				"x": 2.1507230741,
				"y": -1.3701002189,
				"z": -0.3314802395,
				"element": "C" 
			},
			{
				"x": 3.2952433322,
				"y": -1.2080784864,
				"z": -0.7169615064,
				"element": "O" 
			},
			{
				"x": 1.2396585135,
				"y": -0.2989703769,
				"z": -0.3786409103,
				"element": "N" 
			},
			{
				"x": 1.651699607,
				"y": 0.9539131364,
				"z": -0.8704126136,
				"element": "C" 
			},
			{
				"x": 0.6307718323,
				"y": 1.847895738,
				"z": -0.8329957617,
				"element": "C" 
			},
			{
				"x": 0.6648793596,
				"y": 3.2806825261,
				"z": -1.2663724965,
				"element": "C" 
			},
			{
				"x": -0.5142009992,
				"y": 1.1457687925,
				"z": -0.2874375597,
				"element": "C" 
			},
			{
				"x": -0.1190015075,
				"y": -0.1901170002,
				"z": -0.0094956371,
				"element": "C" 
			},
			{
				"x": -1.0272086988,
				"y": -1.1068860095,
				"z": 0.5295813594,
				"element": "C" 
			},
			{
				"x": -2.327930107,
				"y": -0.6706775952,
				"z": 0.7847991373,
				"element": "C" 
			},
			{
				"x": -2.7277314467,
				"y": 0.6461936311,
				"z": 0.5137824901,
				"element": "C" 
			},
			{
				"x": -1.8251981714,
				"y": 1.5593821115,
				"z": -0.022519943,
				"element": "C" 
			},
			{
				"x": 1.3250480521,
				"y": -2.6100776479,
				"z": 1.2389883378,
				"element": "H" 
			},
			{
				"x": 2.5079245603,
				"y": -3.391543113,
				"z": 0.160062354,
				"element": "H" 
			},
			{
				"x": 0.8418624779,
				"y": -3.0929201083,
				"z": -0.3959113779,
				"element": "H" 
			},
			{
				"x": 2.6720058617,
				"y": 1.0598366137,
				"z": -1.2030888391,
				"element": "H" 
			},
			{
				"x": 0.4189560133,
				"y": 3.9558311022,
				"z": -0.4377686211,
				"element": "H" 
			},
			{
				"x": -0.0616091293,
				"y": 3.4751703608,
				"z": -2.0646687819,
				"element": "H" 
			},
			{
				"x": 1.6544829189,
				"y": 3.5566672976,
				"z": -1.6402244302,
				"element": "H" 
			},
			{
				"x": -0.7596713424,
				"y": -2.1299821705,
				"z": 0.7528737587,
				"element": "H" 
			},
			{
				"x": -3.042827706,
				"y": -1.3728371774,
				"z": 1.2033568907,
				"element": "H" 
			},
			{
				"x": -3.7481306659,
				"y": 0.9518588954,
				"z": 0.7247693219,
				"element": "H" 
			},
			{
				"x": -2.1298021357,
				"y": 2.5803767299,
				"z": -0.2342373209,
				"element": "H" 
			}
		],
		 "valence_orbital": [ 
			{
				"type": "occ",
				"energy": -0.32786,
				"method": "rhf"
			},
			{
				"type": "occ",
				"energy": -0.27758,
				"method": "rhf"
			},
			{
				"type": "occ",
				"energy": -0.26753,
				"method": "rhf"
			},
			{
				"type": "occ",
				"energy": -0.2319,
				"method": "rhf"
			},
			{
				"type": "occ",
				"energy": -0.21302,
				"method": "rhf"
			},
			{
				"type": "unocc",
				"energy": -0.03106,
				"method": "rhf"
			},
			{
				"type": "unocc",
				"energy": -0.00957,
				"method": "rhf"
			},
			{
				"type": "unocc",
				"energy": 0.03401,
				"method": "rhf"
			},
			{
				"type": "unocc",
				"energy": 0.07339,
				"method": "rhf"
			},
			{
				"type": "unocc",
				"energy": 0.08911,
				"method": "rhf"
			}
		],
		"cosmo_sigma_profile": { 
			"-0.025": 0.0,
			"-0.024": 0.0,
			"-0.023": 0.0,
			"-0.022": 0.0,
			"-0.021": 0.0,
			"-0.02": 0.0,
			"-0.019": 0.0,
			"-0.018": 0.0,
			"-0.017": 0.0,
			"-0.016": 0.0,
			"-0.015": 0.0,
			"-0.014": 0.0,
			"-0.013": 0.0,
			"-0.012": 0.0,
			"-0.011": 0.0,
			"-0.01": 0.0,
			"-0.009": 0.0,
			"-0.008": 0.0286217657648,
			"-0.007": 6.39837263117,
			"-0.006": 11.3592987168,
			"-0.005": 16.2343871041,
			"-0.004": 19.8362382439,
			"-0.003": 22.0478247338,
			"-0.002": 20.8464603634,
			"-0.001": 16.6729013347,
			"0.0": 16.741322578,
			"0.001": 11.2765796126,
			"0.002": 13.1911712926,
			"0.003": 13.5042214944,
			"0.004": 13.9977266099,
			"0.005": 12.0808114141,
			"0.006": 8.03450415981,
			"0.007": 1.25042440407,
			"0.008": 1.01595750691,
			"0.009": 1.80924544388,
			"0.01": 1.80219148246,
			"0.011": 3.12050478429,
			"0.012": 4.04973671,
			"0.013": 1.46300341416,
			"0.014": 0.100531308216,
			"0.015": 0.0,
			"0.016": 0.0,
			"0.017": 0.0,
			"0.018": 0.0,
			"0.019": 0.0,
			"0.02": 0.0,
			"0.021": 0.0,
			"0.022": 0.0,
			"0.023": 0.0,
			"0.024": 0.0,
			"0.025": 0.0
		}
	}
}
