{
	 "smiles": "OC(=O)C1=C(F)C(Cl)=CC(=C1)S(Cl)(=O)=O", 
	 "Tm": 443.15, 
	 "num_atms": 18, 
	 "gaussian": { 
		 "optdone": 1, 
		 "sigma_profile": "yes", 
		 "theory": "DFT", 
		 "functional": "B3LYP", 
		 "basiset": "6-31G**", 
		 "properties": { 
			 "R2extent": 5704.5045, 
			 "electric_dipole_moment_norm": 2.07835468099, 
			 "electric_quadrupole_moment_norm": 19.6782542752, 
			 "total_energy": -1987.7874672, 
			 "HOMO_LUMO_gap": 0.18575, 
			 "cosmo_polarized_energy": -13.52, 
			 "cosmo_cavitation_energy": 29.73, 
			 "cosmo_dispersion_energy": -22.06, 
			 "cosmo_repulsion_energy": 1.69, 
			 "cosmo_total_nonelectrostatic_energy": 9.35, 
			 "SMD_solvation_energy": 5.23 
		},
		"coords": [
			{
				"x": -2.0323703079,
				"y": -1.8384831222,
				"z": 0.066317301,
				"element": "O" 
			},
			{
				"x": -0.9599107793,
				"y": -2.6523338969,
				"z": 0.2133200835,
				"element": "C" 
			},
			{
				"x": -1.0569998614,
				"y": -3.8493781708,
				"z": 0.3582027791,
				"element": "O" 
			},
			{
				"x": 0.3194533574,
				"y": -1.8788228118,
				"z": 0.172482312,
				"element": "C" 
			},
			{
				"x": 1.5567459889,
				"y": -2.5313653131,
				"z": 0.3030910676,
				"element": "C" 
			},
			{
				"x": 1.6160458712,
				"y": -3.8440953513,
				"z": 0.4693017737,
				"element": "F" 
			},
			{
				"x": 2.7641683414,
				"y": -1.8170234078,
				"z": 0.2578262176,
				"element": "C" 
			},
			{
				"x": 4.2665327303,
				"y": -2.6752148053,
				"z": 0.4134172606,
				"element": "Cl" 
			},
			{
				"x": 2.7512442035,
				"y": -0.4381070998,
				"z": 0.084921676,
				"element": "C" 
			},
			{
				"x": 1.5166125013,
				"y": 0.2008769357,
				"z": -0.0395500238,
				"element": "C" 
			},
			{
				"x": 0.3109185892,
				"y": -0.4887513697,
				"z": -0.0014407624,
				"element": "C" 
			},
			{
				"x": 1.4930261104,
				"y": 1.9733151164,
				"z": -0.2807687247,
				"element": "S" 
			},
			{
				"x": 1.4195735533,
				"y": 2.6627539834,
				"z": 1.7294772089,
				"element": "Cl" 
			},
			{
				"x": 0.2270444906,
				"y": 2.3523468571,
				"z": -0.8925407348,
				"element": "O" 
			},
			{
				"x": 2.7824773124,
				"y": 2.3937702396,
				"z": -0.8122902987,
				"element": "O" 
			},
			{
				"x": -2.8152299081,
				"y": -2.4125821717,
				"z": 0.1032402505,
				"element": "H" 
			},
			{
				"x": 3.6779916843,
				"y": 0.1216353265,
				"z": 0.0380660176,
				"element": "H" 
			},
			{
				"x": -0.6299238777,
				"y": 0.0347590618,
				"z": -0.1130734035,
				"element": "H" 
			}
		],
		 "valence_orbital": [ 
			{
				"type": "occ",
				"energy": -0.34281,
				"method": "rhf"
			},
			{
				"type": "occ",
				"energy": -0.32648,
				"method": "rhf"
			},
			{
				"type": "occ",
				"energy": -0.3091,
				"method": "rhf"
			},
			{
				"type": "occ",
				"energy": -0.30385,
				"method": "rhf"
			},
			{
				"type": "occ",
				"energy": -0.29051,
				"method": "rhf"
			},
			{
				"type": "unocc",
				"energy": -0.10476,
				"method": "rhf"
			},
			{
				"type": "unocc",
				"energy": -0.09103,
				"method": "rhf"
			},
			{
				"type": "unocc",
				"energy": -0.06082,
				"method": "rhf"
			},
			{
				"type": "unocc",
				"energy": -0.01013,
				"method": "rhf"
			},
			{
				"type": "unocc",
				"energy": 0.00528,
				"method": "rhf"
			}
		],
		"cosmo_sigma_profile": { 
			"-0.025": 0.0,
			"-0.024": 0.0,
			"-0.023": 0.0,
			"-0.022": 0.0,
			"-0.021": 0.0,
			"-0.02": 0.105571890679,
			"-0.019": 0.596551856886,
			"-0.018": 1.10643445856,
			"-0.017": 1.25673248165,
			"-0.016": 0.312933357075,
			"-0.015": 0.531202049163,
			"-0.014": 0.651893106068,
			"-0.013": 0.86408676689,
			"-0.012": 0.988196402781,
			"-0.011": 1.07280788392,
			"-0.01": 1.6090647314,
			"-0.009": 1.75220366523,
			"-0.008": 3.73003989271,
			"-0.007": 4.54102266784,
			"-0.006": 6.41638494345,
			"-0.005": 15.1426918954,
			"-0.004": 19.5633457544,
			"-0.003": 22.1080866636,
			"-0.002": 16.8977429937,
			"-0.001": 12.0047343023,
			"0.0": 14.4940148521,
			"0.001": 15.7171535937,
			"0.002": 26.5207750041,
			"0.003": 25.7310487968,
			"0.004": 7.62509659181,
			"0.005": 6.10919169314,
			"0.006": 6.44160783791,
			"0.007": 9.79814578076,
			"0.008": 9.74166373319,
			"0.009": 3.64809849566,
			"0.01": 4.25922456584,
			"0.011": 3.63130240772,
			"0.012": 0.042506774502,
			"0.013": 0.0,
			"0.014": 0.0,
			"0.015": 0.0,
			"0.016": 0.0,
			"0.017": 0.0,
			"0.018": 0.0,
			"0.019": 0.0,
			"0.02": 0.0,
			"0.021": 0.0,
			"0.022": 0.0,
			"0.023": 0.0,
			"0.024": 0.0,
			"0.025": 0.0
		}
	}
}
