{
	 "smiles": "ClCC(=O)NC(=O)C1=CC=CC=C1", 
	 "Tm": 431.15, 
	 "num_atms": 21, 
	 "gaussian": { 
		 "optdone": 1, 
		 "sigma_profile": "yes", 
		 "theory": "DFT", 
		 "functional": "B3LYP", 
		 "basiset": "6-31G**", 
		 "properties": { 
			 "R2extent": 3872.5987, 
			 "electric_dipole_moment_norm": 4.31783767411, 
			 "electric_quadrupole_moment_norm": 9.92391901216, 
			 "total_energy": -1013.18977899, 
			 "HOMO_LUMO_gap": 0.1934, 
			 "cosmo_polarized_energy": -16.79, 
			 "cosmo_cavitation_energy": 27.88, 
			 "cosmo_dispersion_energy": -20.25, 
			 "cosmo_repulsion_energy": 1.61, 
			 "cosmo_total_nonelectrostatic_energy": 9.24, 
			 "SMD_solvation_energy": 5.81 
		},
		"coords": [
			{
				"x": -1.6855582162,
				"y": 3.957495018,
				"z": 0.009345651,
				"element": "Cl" 
			},
			{
				"x": -2.2244548386,
				"y": 2.7847840644,
				"z": -1.2702236506,
				"element": "C" 
			},
			{
				"x": -1.5376228956,
				"y": 1.4098079301,
				"z": -1.3033772251,
				"element": "C" 
			},
			{
				"x": -1.8637619377,
				"y": 0.6536772977,
				"z": -2.1914357619,
				"element": "O" 
			},
			{
				"x": -0.6019965826,
				"y": 1.1651813364,
				"z": -0.3151682836,
				"element": "N" 
			},
			{
				"x": 0.08836701,
				"y": -0.0462687218,
				"z": -0.0951710784,
				"element": "C" 
			},
			{
				"x": -0.1729478825,
				"y": -1.0701022703,
				"z": -0.6913144619,
				"element": "O" 
			},
			{
				"x": 1.1550357846,
				"y": 0.027971533,
				"z": 0.9581162171,
				"element": "C" 
			},
			{
				"x": 1.7664246624,
				"y": 1.2226375859,
				"z": 1.3677907786,
				"element": "C" 
			},
			{
				"x": 2.7631377916,
				"y": 1.2021158257,
				"z": 2.3434575274,
				"element": "C" 
			},
			{
				"x": 3.1544250445,
				"y": -0.0080903703,
				"z": 2.9186601313,
				"element": "C" 
			},
			{
				"x": 2.5568970213,
				"y": -1.2025871834,
				"z": 2.5065718822,
				"element": "C" 
			},
			{
				"x": 1.5682762081,
				"y": -1.1857128807,
				"z": 1.5269242551,
				"element": "C" 
			},
			{
				"x": -3.2938559662,
				"y": 2.626088417,
				"z": -1.12800619,
				"element": "H" 
			},
			{
				"x": -2.0635033899,
				"y": 3.2649605652,
				"z": -2.2352244599,
				"element": "H" 
			},
			{
				"x": -0.4543168126,
				"y": 1.9140070115,
				"z": 0.3486477428,
				"element": "H" 
			},
			{
				"x": 1.5023521712,
				"y": 2.1708608794,
				"z": 0.9079894485,
				"element": "H" 
			},
			{
				"x": 3.2378824554,
				"y": 2.1299208683,
				"z": 2.6480549672,
				"element": "H" 
			},
			{
				"x": 3.9279285026,
				"y": -0.0212241121,
				"z": 3.6810114683,
				"element": "H" 
			},
			{
				"x": 2.8643249638,
				"y": -2.145735702,
				"z": 2.9483069455,
				"element": "H" 
			},
			{
				"x": 1.0988669064,
				"y": -2.101087092,
				"z": 1.1830440965,
				"element": "H" 
			}
		],
		 "valence_orbital": [ 
			{
				"type": "occ",
				"energy": -0.29518,
				"method": "rhf"
			},
			{
				"type": "occ",
				"energy": -0.29025,
				"method": "rhf"
			},
			{
				"type": "occ",
				"energy": -0.27102,
				"method": "rhf"
			},
			{
				"type": "occ",
				"energy": -0.26778,
				"method": "rhf"
			},
			{
				"type": "occ",
				"energy": -0.25586,
				"method": "rhf"
			},
			{
				"type": "unocc",
				"energy": -0.06246,
				"method": "rhf"
			},
			{
				"type": "unocc",
				"energy": -0.02079,
				"method": "rhf"
			},
			{
				"type": "unocc",
				"energy": -0.00596,
				"method": "rhf"
			},
			{
				"type": "unocc",
				"energy": 0.00205,
				"method": "rhf"
			},
			{
				"type": "unocc",
				"energy": 0.05944,
				"method": "rhf"
			}
		],
		"cosmo_sigma_profile": { 
			"-0.025": 0.0,
			"-0.024": 0.0,
			"-0.023": 0.0,
			"-0.022": 0.0,
			"-0.021": 0.0,
			"-0.02": 0.0,
			"-0.019": 0.0,
			"-0.018": 0.0,
			"-0.017": 0.0,
			"-0.016": 0.0,
			"-0.015": 0.0,
			"-0.014": 0.0,
			"-0.013": 0.0,
			"-0.012": 0.0,
			"-0.011": 0.883039311652,
			"-0.01": 4.04396363538,
			"-0.009": 6.0119417082,
			"-0.008": 6.54358833187,
			"-0.007": 10.2547268061,
			"-0.006": 15.8114274192,
			"-0.005": 17.3114011483,
			"-0.004": 13.8832259834,
			"-0.003": 13.1184915136,
			"-0.002": 12.854190023,
			"-0.001": 12.3593090582,
			"0.0": 12.5145848885,
			"0.001": 12.1827813405,
			"0.002": 14.2360294466,
			"0.003": 17.5294452609,
			"0.004": 15.2008822961,
			"0.005": 8.95503296469,
			"0.006": 1.96863669554,
			"0.007": 2.41282895795,
			"0.008": 2.57057297097,
			"0.009": 2.73045976613,
			"0.01": 3.91021257919,
			"0.011": 7.72319021229,
			"0.012": 5.39161164876,
			"0.013": 1.66941760833,
			"0.014": 2.01904508009,
			"0.015": 1.04640472873,
			"0.016": 0.8785450481,
			"0.017": 0.00413974180205,
			"0.018": 0.0,
			"0.019": 0.0,
			"0.02": 0.0,
			"0.021": 0.0,
			"0.022": 0.0,
			"0.023": 0.0,
			"0.024": 0.0,
			"0.025": 0.0
		}
	}
}
