{
	 "smiles": "CN1C=CC=C1C=CC(O)=O", 
	 "Tm": 427.15, 
	 "num_atms": 20, 
	 "gaussian": { 
		 "optdone": 1, 
		 "sigma_profile": "yes", 
		 "theory": "DFT", 
		 "functional": "B3LYP", 
		 "basiset": "6-31G**", 
		 "properties": { 
			 "R2extent": 2263.6242, 
			 "electric_dipole_moment_norm": 3.71286723975, 
			 "electric_quadrupole_moment_norm": 10.7182124932, 
			 "total_energy": -515.462605433, 
			 "HOMO_LUMO_gap": 0.14949, 
			 "cosmo_polarized_energy": -12.62, 
			 "cosmo_cavitation_energy": 24.16, 
			 "cosmo_dispersion_energy": -17.84, 
			 "cosmo_repulsion_energy": 1.42, 
			 "cosmo_total_nonelectrostatic_energy": 7.74, 
			 "SMD_solvation_energy": 5.81 
		},
		"coords": [
			{
				"x": -1.2713990426,
				"y": 2.4037898221,
				"z": -0.0358681191,
				"element": "C" 
			},
			{
				"x": 0.0330756273,
				"y": 1.9501531082,
				"z": 0.4160366715,
				"element": "N" 
			},
			{
				"x": 0.994544898,
				"y": 2.7723143821,
				"z": 0.9242926037,
				"element": "C" 
			},
			{
				"x": 2.1083481788,
				"y": 2.0150578016,
				"z": 1.2534051517,
				"element": "C" 
			},
			{
				"x": 1.8138228309,
				"y": 0.6784946101,
				"z": 0.9328436958,
				"element": "C" 
			},
			{
				"x": 0.5149782556,
				"y": 0.6323024895,
				"z": 0.4078499143,
				"element": "C" 
			},
			{
				"x": -0.3190084284,
				"y": -0.4244477298,
				"z": -0.0857643543,
				"element": "C" 
			},
			{
				"x": -0.1551551645,
				"y": -1.7693643876,
				"z": -0.225872632,
				"element": "C" 
			},
			{
				"x": 1.0052288658,
				"y": -2.5910743337,
				"z": 0.1110666675,
				"element": "C" 
			},
			{
				"x": 0.7647943493,
				"y": -3.9023956931,
				"z": -0.1858784006,
				"element": "O" 
			},
			{
				"x": 2.0753667742,
				"y": -2.2483362405,
				"z": 0.5906308059,
				"element": "O" 
			},
			{
				"x": -1.330398179,
				"y": 3.4842673701,
				"z": 0.103348598,
				"element": "H" 
			},
			{
				"x": -1.4239019682,
				"y": 2.1854207738,
				"z": -1.0976435641,
				"element": "H" 
			},
			{
				"x": -2.0774141986,
				"y": 1.9386063308,
				"z": 0.5405885243,
				"element": "H" 
			},
			{
				"x": 0.8162335407,
				"y": 3.8346528196,
				"z": 1.0148571496,
				"element": "H" 
			},
			{
				"x": 3.0269165541,
				"y": 2.3949340586,
				"z": 1.677423593,
				"element": "H" 
			},
			{
				"x": 2.4403750054,
				"y": -0.1901652619,
				"z": 1.050913987,
				"element": "H" 
			},
			{
				"x": -1.2956171827,
				"y": -0.0806350518,
				"z": -0.4225136442,
				"element": "H" 
			},
			{
				"x": -0.9863158732,
				"y": -2.3279502841,
				"z": -0.6425296206,
				"element": "H" 
			},
			{
				"x": 1.5756251569,
				"y": -4.3736245841,
				"z": 0.0654129723,
				"element": "H" 
			}
		],
		 "valence_orbital": [ 
			{
				"type": "occ",
				"energy": -0.30693,
				"method": "rhf"
			},
			{
				"type": "occ",
				"energy": -0.29129,
				"method": "rhf"
			},
			{
				"type": "occ",
				"energy": -0.25873,
				"method": "rhf"
			},
			{
				"type": "occ",
				"energy": -0.24013,
				"method": "rhf"
			},
			{
				"type": "occ",
				"energy": -0.20193,
				"method": "rhf"
			},
			{
				"type": "unocc",
				"energy": -0.05244,
				"method": "rhf"
			},
			{
				"type": "unocc",
				"energy": 0.047,
				"method": "rhf"
			},
			{
				"type": "unocc",
				"energy": 0.0778,
				"method": "rhf"
			},
			{
				"type": "unocc",
				"energy": 0.07837,
				"method": "rhf"
			},
			{
				"type": "unocc",
				"energy": 0.0974,
				"method": "rhf"
			}
		],
		"cosmo_sigma_profile": { 
			"-0.025": 0.0,
			"-0.024": 0.0,
			"-0.023": 0.0,
			"-0.022": 0.0,
			"-0.021": 0.0,
			"-0.02": 0.0,
			"-0.019": 0.0,
			"-0.018": 0.0405602951308,
			"-0.017": 0.713706430691,
			"-0.016": 1.10001922059,
			"-0.015": 0.27524147326,
			"-0.014": 1.03324032344,
			"-0.013": 0.96625676988,
			"-0.012": 0.580229597274,
			"-0.011": 0.403291877672,
			"-0.01": 0.383946389534,
			"-0.009": 1.88014287741,
			"-0.008": 4.28555026325,
			"-0.007": 7.61785892649,
			"-0.006": 14.8183942837,
			"-0.005": 13.1148637405,
			"-0.004": 12.1582484453,
			"-0.003": 13.5647122387,
			"-0.002": 9.57078966195,
			"-0.001": 8.8938295859,
			"0.0": 9.88148446752,
			"0.001": 11.1637747539,
			"0.002": 10.0181009363,
			"0.003": 10.7928709115,
			"0.004": 14.1154830594,
			"0.005": 11.6943781626,
			"0.006": 10.7203670867,
			"0.007": 6.95594978818,
			"0.008": 3.69570603913,
			"0.009": 3.24166234636,
			"0.01": 3.57038194713,
			"0.011": 2.12708197252,
			"0.012": 2.32055962183,
			"0.013": 1.03968600326,
			"0.014": 0.0,
			"0.015": 0.0,
			"0.016": 0.0,
			"0.017": 0.0,
			"0.018": 0.0,
			"0.019": 0.0,
			"0.02": 0.0,
			"0.021": 0.0,
			"0.022": 0.0,
			"0.023": 0.0,
			"0.024": 0.0,
			"0.025": 0.0
		}
	}
}
