{
	 "smiles": "CN(C)CC1=C2CCCCC2=CC=C1O", 
	 "Tm": 351.15, 
	 "num_atms": 34, 
	 "gaussian": { 
		 "optdone": 1, 
		 "sigma_profile": "yes", 
		 "theory": "DFT", 
		 "functional": "B3LYP", 
		 "basiset": "6-31G**", 
		 "properties": { 
			 "R2extent": 5020.0681, 
			 "electric_dipole_moment_norm": 3.16063136731, 
			 "electric_quadrupole_moment_norm": 14.7020791404, 
			 "total_energy": -636.824221659, 
			 "HOMO_LUMO_gap": 0.19936, 
			 "cosmo_polarized_energy": -7.52, 
			 "cosmo_cavitation_energy": 33.32, 
			 "cosmo_dispersion_energy": -24.14, 
			 "cosmo_repulsion_energy": 1.88, 
			 "cosmo_total_nonelectrostatic_energy": 11.06, 
			 "SMD_solvation_energy": 5.3 
		},
		"coords": [
			{
				"x": -0.819690367,
				"y": -4.0843287253,
				"z": -2.6258748581,
				"element": "C" 
			},
			{
				"x": -0.5156313733,
				"y": -3.5856339816,
				"z": -1.2852540138,
				"element": "N" 
			},
			{
				"x": 0.9267674656,
				"y": -3.4010381138,
				"z": -1.1036269075,
				"element": "C" 
			},
			{
				"x": -1.271669398,
				"y": -2.3465954525,
				"z": -0.9874445305,
				"element": "C" 
			},
			{
				"x": -1.2462113199,
				"y": -1.9702735223,
				"z": 0.4860271411,
				"element": "C" 
			},
			{
				"x": -1.1385788551,
				"y": -0.6259454656,
				"z": 0.9137815675,
				"element": "C" 
			},
			{
				"x": -0.9814083367,
				"y": 0.490137542,
				"z": -0.1158661858,
				"element": "C" 
			},
			{
				"x": -1.166635287,
				"y": 1.9053082814,
				"z": 0.4501820131,
				"element": "C" 
			},
			{
				"x": -0.4363161116,
				"y": 2.0632428199,
				"z": 1.7844017522,
				"element": "C" 
			},
			{
				"x": -1.0429789323,
				"y": 1.1005775913,
				"z": 2.8082309977,
				"element": "C" 
			},
			{
				"x": -1.1661857984,
				"y": -0.3225452934,
				"z": 2.2878762226,
				"element": "C" 
			},
			{
				"x": -1.3273393791,
				"y": -1.3665762246,
				"z": 3.2098646412,
				"element": "C" 
			},
			{
				"x": -1.4500061258,
				"y": -2.6859947861,
				"z": 2.8048986788,
				"element": "C" 
			},
			{
				"x": -1.4076730851,
				"y": -2.9974161464,
				"z": 1.4406345552,
				"element": "C" 
			},
			{
				"x": -1.5254085784,
				"y": -4.302216017,
				"z": 1.0834309306,
				"element": "O" 
			},
			{
				"x": -0.5309854973,
				"y": -3.3710198276,
				"z": -3.4179543204,
				"element": "H" 
			},
			{
				"x": -1.8920651041,
				"y": -4.2811404461,
				"z": -2.7146324148,
				"element": "H" 
			},
			{
				"x": -0.2829785393,
				"y": -5.0215863571,
				"z": -2.7990758023,
				"element": "H" 
			},
			{
				"x": 1.3454911469,
				"y": -2.6729518961,
				"z": -1.8203131563,
				"element": "H" 
			},
			{
				"x": 1.127690958,
				"y": -3.0438530594,
				"z": -0.0913795804,
				"element": "H" 
			},
			{
				"x": 1.4392511413,
				"y": -4.3571523199,
				"z": -1.2436785841,
				"element": "H" 
			},
			{
				"x": -2.3097189313,
				"y": -2.5373774811,
				"z": -1.294438196,
				"element": "H" 
			},
			{
				"x": -0.9039634667,
				"y": -1.5236295104,
				"z": -1.6168293468,
				"element": "H" 
			},
			{
				"x": 0.0185880215,
				"y": 0.4174756049,
				"z": -0.5701066483,
				"element": "H" 
			},
			{
				"x": -1.6906309282,
				"y": 0.3472534513,
				"z": -0.9390677103,
				"element": "H" 
			},
			{
				"x": -2.2361879812,
				"y": 2.1023584351,
				"z": 0.6049490413,
				"element": "H" 
			},
			{
				"x": -0.8160825201,
				"y": 2.6395158564,
				"z": -0.2843837546,
				"element": "H" 
			},
			{
				"x": 0.6310933651,
				"y": 1.8414580123,
				"z": 1.6481482539,
				"element": "H" 
			},
			{
				"x": -0.5032622184,
				"y": 3.0951935379,
				"z": 2.1476834026,
				"element": "H" 
			},
			{
				"x": -0.4504388174,
				"y": 1.0985675319,
				"z": 3.7313518858,
				"element": "H" 
			},
			{
				"x": -2.038617736,
				"y": 1.4736697161,
				"z": 3.0933966443,
				"element": "H" 
			},
			{
				"x": -1.348641427,
				"y": -1.1312126465,
				"z": 4.2719963469,
				"element": "H" 
			},
			{
				"x": -1.5665920794,
				"y": -3.495718446,
				"z": 3.5178608934,
				"element": "H" 
			},
			{
				"x": -1.2017839044,
				"y": -4.3663526616,
				"z": 0.1472110416,
				"element": "H" 
			}
		],
		 "valence_orbital": [ 
			{
				"type": "occ",
				"energy": -0.30058,
				"method": "rhf"
			},
			{
				"type": "occ",
				"energy": -0.29414,
				"method": "rhf"
			},
			{
				"type": "occ",
				"energy": -0.23763,
				"method": "rhf"
			},
			{
				"type": "occ",
				"energy": -0.2265,
				"method": "rhf"
			},
			{
				"type": "occ",
				"energy": -0.19367,
				"method": "rhf"
			},
			{
				"type": "unocc",
				"energy": 0.00569,
				"method": "rhf"
			},
			{
				"type": "unocc",
				"energy": 0.02843,
				"method": "rhf"
			},
			{
				"type": "unocc",
				"energy": 0.07214,
				"method": "rhf"
			},
			{
				"type": "unocc",
				"energy": 0.09625,
				"method": "rhf"
			},
			{
				"type": "unocc",
				"energy": 0.12076,
				"method": "rhf"
			}
		],
		"cosmo_sigma_profile": { 
			"-0.025": 0.0,
			"-0.024": 0.0,
			"-0.023": 0.0,
			"-0.022": 0.0,
			"-0.021": 0.0,
			"-0.02": 0.0,
			"-0.019": 0.0,
			"-0.018": 0.0,
			"-0.017": 0.0,
			"-0.016": 0.0,
			"-0.015": 0.0,
			"-0.014": 0.0,
			"-0.013": 0.0,
			"-0.012": 0.0,
			"-0.011": 0.0,
			"-0.01": 0.0,
			"-0.009": 0.0,
			"-0.008": 0.0,
			"-0.007": 0.0,
			"-0.006": 0.0965486542731,
			"-0.005": 7.43141233668,
			"-0.004": 16.0004276685,
			"-0.003": 35.605815206,
			"-0.002": 43.9528781393,
			"-0.001": 45.5588148872,
			"0.0": 35.8904097009,
			"0.001": 19.2384936467,
			"0.002": 8.70613088654,
			"0.003": 6.60104344769,
			"0.004": 5.61696157247,
			"0.005": 8.11361709881,
			"0.006": 7.79868515397,
			"0.007": 7.36870472375,
			"0.008": 2.07402012177,
			"0.009": 1.57047663827,
			"0.01": 1.71541351484,
			"0.011": 1.35534947151,
			"0.012": 1.67164996762,
			"0.013": 2.25123656099,
			"0.014": 0.729288278258,
			"0.015": 0.0,
			"0.016": 0.0,
			"0.017": 0.0,
			"0.018": 0.0,
			"0.019": 0.0,
			"0.02": 0.0,
			"0.021": 0.0,
			"0.022": 0.0,
			"0.023": 0.0,
			"0.024": 0.0,
			"0.025": 0.0
		}
	}
}
