{
	 "smiles": "CC(C)C(O)(C1=CC=C(OC(F)(F)F)C=C1)C1=CN=CN=C1", 
	 "Tm": 368.45, 
	 "num_atms": 37, 
	 "gaussian": { 
		 "optdone": 1, 
		 "sigma_profile": "yes", 
		 "theory": "DFT", 
		 "functional": "B3LYP", 
		 "basiset": "6-31G**", 
		 "properties": { 
			 "R2extent": 9236.6674, 
			 "electric_dipole_moment_norm": 3.5775249461, 
			 "electric_quadrupole_moment_norm": 13.9312501833, 
			 "total_energy": -1140.09210684, 
			 "HOMO_LUMO_gap": 0.20544, 
			 "cosmo_polarized_energy": -13.0, 
			 "cosmo_cavitation_energy": 40.32, 
			 "cosmo_dispersion_energy": -27.85, 
			 "cosmo_repulsion_energy": 2.04, 
			 "cosmo_total_nonelectrostatic_energy": 14.51, 
			 "SMD_solvation_energy": 5.39 
		},
		"coords": [
			{
				"x": 0.9282155972,
				"y": 1.9626247915,
				"z": 0.8889334097,
				"element": "C" 
			},
			{
				"x": 0.1688109469,
				"y": 1.8825219678,
				"z": -0.4488501224,
				"element": "C" 
			},
			{
				"x": 1.1892394088,
				"y": 1.7575203515,
				"z": -1.5921438682,
				"element": "C" 
			},
			{
				"x": -0.9572663409,
				"y": 0.7852175513,
				"z": -0.4300450613,
				"element": "C" 
			},
			{
				"x": -1.8949723775,
				"y": 1.1188432184,
				"z": 0.6064293301,
				"element": "O" 
			},
			{
				"x": -0.3701928357,
				"y": -0.6205664972,
				"z": -0.1929550412,
				"element": "C" 
			},
			{
				"x": 0.326048765,
				"y": -1.306557837,
				"z": -1.2017835655,
				"element": "C" 
			},
			{
				"x": 0.8874912146,
				"y": -2.5581384778,
				"z": -0.9688704135,
				"element": "C" 
			},
			{
				"x": 0.747834693,
				"y": -3.1527030353,
				"z": 0.2841401907,
				"element": "C" 
			},
			{
				"x": 1.3280012419,
				"y": -4.41890784,
				"z": 0.3954615209,
				"element": "O" 
			},
			{
				"x": 1.5990734879,
				"y": -4.956566037,
				"z": 1.6094957162,
				"element": "C" 
			},
			{
				"x": 2.2907985511,
				"y": -6.0758625511,
				"z": 1.4047323242,
				"element": "F" 
			},
			{
				"x": 2.3252748149,
				"y": -4.1333671493,
				"z": 2.3878682734,
				"element": "F" 
			},
			{
				"x": 0.4812337324,
				"y": -5.2729158502,
				"z": 2.2982545371,
				"element": "F" 
			},
			{
				"x": 0.0378932775,
				"y": -2.5144796895,
				"z": 1.2978362075,
				"element": "C" 
			},
			{
				"x": -0.5122629377,
				"y": -1.2555275974,
				"z": 1.0445540748,
				"element": "C" 
			},
			{
				"x": -1.8377491601,
				"y": 0.8010766394,
				"z": -1.6895125764,
				"element": "C" 
			},
			{
				"x": -1.9839328556,
				"y": 1.9009618652,
				"z": -2.5393627831,
				"element": "C" 
			},
			{
				"x": -2.8231496686,
				"y": 1.9153082105,
				"z": -3.5831908034,
				"element": "N" 
			},
			{
				"x": -3.548409672,
				"y": 0.8093267779,
				"z": -3.7657384086,
				"element": "C" 
			},
			{
				"x": -3.5278457256,
				"y": -0.2955456276,
				"z": -3.0132579054,
				"element": "N" 
			},
			{
				"x": -2.6742032306,
				"y": -0.2835352886,
				"z": -1.9847351818,
				"element": "C" 
			},
			{
				"x": 1.6729266415,
				"y": 2.7627482843,
				"z": 0.8397169074,
				"element": "H" 
			},
			{
				"x": 1.4536101737,
				"y": 1.0288438171,
				"z": 1.1105261292,
				"element": "H" 
			},
			{
				"x": 0.28477852,
				"y": 2.2017465846,
				"z": 1.744309668,
				"element": "H" 
			},
			{
				"x": -0.3681095143,
				"y": 2.8316546299,
				"z": -0.5676482787,
				"element": "H" 
			},
			{
				"x": 0.7180624164,
				"y": 1.6438923568,
				"z": -2.5719475631,
				"element": "H" 
			},
			{
				"x": 1.8100617825,
				"y": 2.6585813818,
				"z": -1.6278278038,
				"element": "H" 
			},
			{
				"x": 1.8585187992,
				"y": 0.9063492142,
				"z": -1.4375801525,
				"element": "H" 
			},
			{
				"x": -1.397229075,
				"y": 1.3902598347,
				"z": 1.3887013425,
				"element": "H" 
			},
			{
				"x": 0.4209006987,
				"y": -0.8714389116,
				"z": -2.1906017621,
				"element": "H" 
			},
			{
				"x": 1.4263664374,
				"y": -3.0873123336,
				"z": -1.7473577206,
				"element": "H" 
			},
			{
				"x": -0.1060723339,
				"y": -2.9825741405,
				"z": 2.2627334556,
				"element": "H" 
			},
			{
				"x": -1.0921196803,
				"y": -0.7770719788,
				"z": 1.8251013253,
				"element": "H" 
			},
			{
				"x": -1.4115527353,
				"y": 2.8126576393,
				"z": -2.3897068413,
				"element": "H" 
			},
			{
				"x": -4.2316085051,
				"y": 0.8090756947,
				"z": -4.6130762008,
				"element": "H" 
			},
			{
				"x": -2.6543645525,
				"y": -1.1764399683,
				"z": -1.3644023591,
				"element": "H" 
			}
		],
		 "valence_orbital": [ 
			{
				"type": "occ",
				"energy": -0.2895,
				"method": "rhf"
			},
			{
				"type": "occ",
				"energy": -0.28257,
				"method": "rhf"
			},
			{
				"type": "occ",
				"energy": -0.27022,
				"method": "rhf"
			},
			{
				"type": "occ",
				"energy": -0.25159,
				"method": "rhf"
			},
			{
				"type": "occ",
				"energy": -0.24771,
				"method": "rhf"
			},
			{
				"type": "unocc",
				"energy": -0.04227,
				"method": "rhf"
			},
			{
				"type": "unocc",
				"energy": -0.03247,
				"method": "rhf"
			},
			{
				"type": "unocc",
				"energy": -0.02145,
				"method": "rhf"
			},
			{
				"type": "unocc",
				"energy": -0.01665,
				"method": "rhf"
			},
			{
				"type": "unocc",
				"energy": 0.05476,
				"method": "rhf"
			}
		],
		"cosmo_sigma_profile": { 
			"-0.025": 0.0,
			"-0.024": 0.0,
			"-0.023": 0.0,
			"-0.022": 0.0,
			"-0.021": 0.0,
			"-0.02": 0.0,
			"-0.019": 0.0,
			"-0.018": 0.0,
			"-0.017": 0.0,
			"-0.016": 0.0,
			"-0.015": 0.307220117808,
			"-0.014": 0.620993025157,
			"-0.013": 0.81737232918,
			"-0.012": 1.22937878499,
			"-0.011": 1.33924103679,
			"-0.01": 0.880162697123,
			"-0.009": 0.860290327909,
			"-0.008": 3.38141866935,
			"-0.007": 8.7103985429,
			"-0.006": 12.6917499789,
			"-0.005": 13.7787227146,
			"-0.004": 17.5134623326,
			"-0.003": 23.046469742,
			"-0.002": 27.949480959,
			"-0.001": 31.5587150989,
			"0.0": 37.1813477704,
			"0.001": 35.7350792361,
			"0.002": 43.3900036913,
			"0.003": 17.5872399855,
			"0.004": 6.5823223584,
			"0.005": 4.93560591177,
			"0.006": 5.62220348549,
			"0.007": 3.4837818806,
			"0.008": 2.4902137561,
			"0.009": 3.9873950555,
			"0.01": 2.79605313304,
			"0.011": 3.0985284457,
			"0.012": 2.98588922834,
			"0.013": 2.73844798604,
			"0.014": 1.91722061571,
			"0.015": 1.30045187908,
			"0.016": 0.373659104706,
			"0.017": 0.0,
			"0.018": 0.0,
			"0.019": 0.0,
			"0.02": 0.0,
			"0.021": 0.0,
			"0.022": 0.0,
			"0.023": 0.0,
			"0.024": 0.0,
			"0.025": 0.0
		}
	}
}
