{
	 "smiles": "CC1=CC=C(C)C(=C1)N1CCNCC1", 
	 "Tm": 318.15, 
	 "num_atms": 32, 
	 "gaussian": { 
		 "optdone": 1, 
		 "sigma_profile": "yes", 
		 "theory": "DFT", 
		 "functional": "B3LYP", 
		 "basiset": "6-31G**", 
		 "properties": { 
			 "R2extent": 3871.9601, 
			 "electric_dipole_moment_norm": 1.14282745417, 
			 "electric_quadrupole_moment_norm": 4.89122845919, 
			 "total_energy": -577.613721654, 
			 "HOMO_LUMO_gap": 0.20113, 
			 "cosmo_polarized_energy": -7.16, 
			 "cosmo_cavitation_energy": 32.01, 
			 "cosmo_dispersion_energy": -23.22, 
			 "cosmo_repulsion_energy": 1.83, 
			 "cosmo_total_nonelectrostatic_energy": 10.61, 
			 "SMD_solvation_energy": 2.03 
		},
		"coords": [
			{
				"x": -1.9160143918,
				"y": 0.9089196546,
				"z": 4.4053289999,
				"element": "C" 
			},
			{
				"x": -1.9999790255,
				"y": -0.0539025111,
				"z": 3.2433113527,
				"element": "C" 
			},
			{
				"x": -2.6273232757,
				"y": -1.2970950032,
				"z": 3.3779742429,
				"element": "C" 
			},
			{
				"x": -2.7206041613,
				"y": -2.157763335,
				"z": 2.2864960662,
				"element": "C" 
			},
			{
				"x": -2.2010890538,
				"y": -1.8250090812,
				"z": 1.0302684836,
				"element": "C" 
			},
			{
				"x": -2.3753081053,
				"y": -2.7658844017,
				"z": -0.1360660999,
				"element": "C" 
			},
			{
				"x": -1.5503938634,
				"y": -0.577349356,
				"z": 0.885959465,
				"element": "C" 
			},
			{
				"x": -1.4611385753,
				"y": 0.2789506162,
				"z": 1.9967835605,
				"element": "C" 
			},
			{
				"x": -1.0013755334,
				"y": -0.2219718499,
				"z": -0.3802672371,
				"element": "N" 
			},
			{
				"x": -1.0288381215,
				"y": 1.1923252409,
				"z": -0.7880877655,
				"element": "C" 
			},
			{
				"x": 0.352738088,
				"y": 1.852735096,
				"z": -0.7764561833,
				"element": "C" 
			},
			{
				"x": 1.2345825004,
				"y": 1.1678379329,
				"z": -1.7382932276,
				"element": "N" 
			},
			{
				"x": 0.887814727,
				"y": -0.2458552078,
				"z": -1.9518014722,
				"element": "C" 
			},
			{
				"x": 0.2531274142,
				"y": -0.9148347464,
				"z": -0.7288629734,
				"element": "C" 
			},
			{
				"x": -2.808818633,
				"y": 1.5448504739,
				"z": 4.4617870307,
				"element": "H" 
			},
			{
				"x": -1.0505786243,
				"y": 1.5728309267,
				"z": 4.315867677,
				"element": "H" 
			},
			{
				"x": -1.8369238973,
				"y": 0.3783854425,
				"z": 5.3594405756,
				"element": "H" 
			},
			{
				"x": -3.0512799909,
				"y": -1.5893697321,
				"z": 4.3355029501,
				"element": "H" 
			},
			{
				"x": -3.2288777054,
				"y": -3.1123427154,
				"z": 2.4035830051,
				"element": "H" 
			},
			{
				"x": -1.5153665476,
				"y": -3.4372060533,
				"z": -0.2608752598,
				"element": "H" 
			},
			{
				"x": -2.4855753391,
				"y": -2.2043030966,
				"z": -1.0681652873,
				"element": "H" 
			},
			{
				"x": -3.2570514209,
				"y": -3.3984333355,
				"z": 0.0033336494,
				"element": "H" 
			},
			{
				"x": -0.9457601201,
				"y": 1.2296989749,
				"z": 1.8909865284,
				"element": "H" 
			},
			{
				"x": -1.7174849456,
				"y": 1.7367274503,
				"z": -0.1391535108,
				"element": "H" 
			},
			{
				"x": -1.4359747412,
				"y": 1.2661191698,
				"z": -1.8064199919,
				"element": "H" 
			},
			{
				"x": 0.7493668576,
				"y": 1.8273982215,
				"z": 0.2523358052,
				"element": "H" 
			},
			{
				"x": 0.255847868,
				"y": 2.9108405546,
				"z": -1.055381212,
				"element": "H" 
			},
			{
				"x": 2.1967638409,
				"y": 1.2385420434,
				"z": -1.4252024955,
				"element": "H" 
			},
			{
				"x": 1.7924389742,
				"y": -0.7899911645,
				"z": -2.240572432,
				"element": "H" 
			},
			{
				"x": 0.1912084185,
				"y": -0.3294168359,
				"z": -2.7969072818,
				"element": "H" 
			},
			{
				"x": 0.0519148389,
				"y": -1.9708697739,
				"z": -0.9440036247,
				"element": "H" 
			},
			{
				"x": 0.9697525446,
				"y": -0.8895635985,
				"z": 0.1111566625,
				"element": "H" 
			}
		],
		 "valence_orbital": [ 
			{
				"type": "occ",
				"energy": -0.32654,
				"method": "rhf"
			},
			{
				"type": "occ",
				"energy": -0.24792,
				"method": "rhf"
			},
			{
				"type": "occ",
				"energy": -0.2254,
				"method": "rhf"
			},
			{
				"type": "occ",
				"energy": -0.21331,
				"method": "rhf"
			},
			{
				"type": "occ",
				"energy": -0.19247,
				"method": "rhf"
			},
			{
				"type": "unocc",
				"energy": 0.00866,
				"method": "rhf"
			},
			{
				"type": "unocc",
				"energy": 0.01237,
				"method": "rhf"
			},
			{
				"type": "unocc",
				"energy": 0.07579,
				"method": "rhf"
			},
			{
				"type": "unocc",
				"energy": 0.09924,
				"method": "rhf"
			},
			{
				"type": "unocc",
				"energy": 0.10619,
				"method": "rhf"
			}
		],
		"cosmo_sigma_profile": { 
			"-0.025": 0.0,
			"-0.024": 0.0,
			"-0.023": 0.0,
			"-0.022": 0.0,
			"-0.021": 0.0,
			"-0.02": 0.0,
			"-0.019": 0.0,
			"-0.018": 0.0,
			"-0.017": 0.0,
			"-0.016": 0.0,
			"-0.015": 0.0,
			"-0.014": 0.0,
			"-0.013": 0.0,
			"-0.012": 0.0,
			"-0.011": 0.0,
			"-0.01": 0.739240574906,
			"-0.009": 1.53152458929,
			"-0.008": 1.39588465137,
			"-0.007": 1.20141195079,
			"-0.006": 1.25695930457,
			"-0.005": 6.56160008774,
			"-0.004": 19.6707437408,
			"-0.003": 32.6399512581,
			"-0.002": 38.6400449226,
			"-0.001": 31.853095864,
			"0.0": 29.6476545091,
			"0.001": 20.8403913882,
			"0.002": 11.2741667492,
			"0.003": 8.16620873726,
			"0.004": 9.09827006791,
			"0.005": 9.13473886053,
			"0.006": 8.9262631841,
			"0.007": 7.687232345,
			"0.008": 2.71894403715,
			"0.009": 1.00371189212,
			"0.01": 0.347353572439,
			"0.011": 0.856480791081,
			"0.012": 0.794187479408,
			"0.013": 0.637951266889,
			"0.014": 0.541339861908,
			"0.015": 0.436183714803,
			"0.016": 0.394541675118,
			"0.017": 0.760298896038,
			"0.018": 0.474311956333,
			"0.019": 0.215828269145,
			"0.02": 0.0,
			"0.021": 0.0,
			"0.022": 0.0,
			"0.023": 0.0,
			"0.024": 0.0,
			"0.025": 0.0
		}
	}
}
