{
	 "smiles": "CN(C(=O)C1=CC(N)=C(Cl)C=C1)C1=CC=CC=C1", 
	 "Tm": 394.15, 
	 "num_atms": 31, 
	 "gaussian": { 
		 "optdone": 1, 
		 "sigma_profile": "yes", 
		 "theory": "DFT", 
		 "functional": "B3LYP", 
		 "basiset": "6-31G**", 
		 "properties": { 
			 "R2extent": 5479.0067, 
			 "electric_dipole_moment_norm": 4.85495191531, 
			 "electric_quadrupole_moment_norm": 11.3894536296, 
			 "total_energy": -1186.25829942, 
			 "HOMO_LUMO_gap": 0.17394, 
			 "cosmo_polarized_energy": -14.36, 
			 "cosmo_cavitation_energy": 36.43, 
			 "cosmo_dispersion_energy": -25.24, 
			 "cosmo_repulsion_energy": 1.97, 
			 "cosmo_total_nonelectrostatic_energy": 13.16, 
			 "SMD_solvation_energy": 6.38 
		},
		"coords": [
			{
				"x": 3.1609694132,
				"y": -2.2431455943,
				"z": 1.2026956024,
				"element": "C" 
			},
			{
				"x": 2.0420246965,
				"y": -1.4734895763,
				"z": 0.6413089741,
				"element": "N" 
			},
			{
				"x": 2.3839760548,
				"y": -0.258206064,
				"z": 0.0612885001,
				"element": "C" 
			},
			{
				"x": 3.5432368441,
				"y": 0.1449323169,
				"z": 0.097462683,
				"element": "O" 
			},
			{
				"x": 1.3350470841,
				"y": 0.5284096594,
				"z": -0.6762671553,
				"element": "C" 
			},
			{
				"x": 0.2966815048,
				"y": -0.0693638371,
				"z": -1.3924469238,
				"element": "C" 
			},
			{
				"x": -0.6179051906,
				"y": 0.6929095054,
				"z": -2.1405189975,
				"element": "C" 
			},
			{
				"x": -1.605171063,
				"y": 0.0769077559,
				"z": -2.8949073179,
				"element": "N" 
			},
			{
				"x": -0.4477612678,
				"y": 2.0907923827,
				"z": -2.1296356928,
				"element": "C" 
			},
			{
				"x": -1.5834574689,
				"y": 3.0981099262,
				"z": -3.0271274708,
				"element": "Cl" 
			},
			{
				"x": 0.5926813536,
				"y": 2.6983069008,
				"z": -1.4311858483,
				"element": "C" 
			},
			{
				"x": 1.4941749755,
				"y": 1.9210489459,
				"z": -0.7124485323,
				"element": "C" 
			},
			{
				"x": 0.7324914435,
				"y": -1.791528133,
				"z": 1.1227998364,
				"element": "C" 
			},
			{
				"x": 0.0091142279,
				"y": -0.8816364237,
				"z": 1.9044237257,
				"element": "C" 
			},
			{
				"x": -1.2583608851,
				"y": -1.2189340628,
				"z": 2.3799406371,
				"element": "C" 
			},
			{
				"x": -1.8056756979,
				"y": -2.4730248592,
				"z": 2.1039112234,
				"element": "C" 
			},
			{
				"x": -1.0788193748,
				"y": -3.3893380912,
				"z": 1.3400578817,
				"element": "C" 
			},
			{
				"x": 0.1806973133,
				"y": -3.0505779416,
				"z": 0.8469967914,
				"element": "C" 
			},
			{
				"x": 2.8475741675,
				"y": -3.2784968114,
				"z": 1.3414138509,
				"element": "H" 
			},
			{
				"x": 4.0076718223,
				"y": -2.1967458209,
				"z": 0.5183657981,
				"element": "H" 
			},
			{
				"x": 3.480595289,
				"y": -1.8352277543,
				"z": 2.169381269,
				"element": "H" 
			},
			{
				"x": 0.1856625001,
				"y": -1.1485181592,
				"z": -1.3931362269,
				"element": "H" 
			},
			{
				"x": -1.8849978074,
				"y": -0.8394425603,
				"z": -2.5764964358,
				"element": "H" 
			},
			{
				"x": -2.3825791034,
				"y": 0.6638090454,
				"z": -3.1626730311,
				"element": "H" 
			},
			{
				"x": 0.6889967607,
				"y": 3.7782474271,
				"z": -1.4591937902,
				"element": "H" 
			},
			{
				"x": 2.3271778922,
				"y": 2.3735769498,
				"z": -0.18768371,
				"element": "H" 
			},
			{
				"x": 0.4409096903,
				"y": 0.0873029237,
				"z": 2.1330866673,
				"element": "H" 
			},
			{
				"x": -1.8121146133,
				"y": -0.5025949074,
				"z": 2.9798660819,
				"element": "H" 
			},
			{
				"x": -2.7882967939,
				"y": -2.7362204286,
				"z": 2.4837659026,
				"element": "H" 
			},
			{
				"x": -1.4956800405,
				"y": -4.3679733846,
				"z": 1.1198592359,
				"element": "H" 
			},
			{
				"x": 0.7393362731,
				"y": -3.7546893292,
				"z": 0.2371964717,
				"element": "H" 
			}
		],
		 "valence_orbital": [ 
			{
				"type": "occ",
				"energy": -0.26536,
				"method": "rhf"
			},
			{
				"type": "occ",
				"energy": -0.25491,
				"method": "rhf"
			},
			{
				"type": "occ",
				"energy": -0.24456,
				"method": "rhf"
			},
			{
				"type": "occ",
				"energy": -0.23051,
				"method": "rhf"
			},
			{
				"type": "occ",
				"energy": -0.21067,
				"method": "rhf"
			},
			{
				"type": "unocc",
				"energy": -0.03673,
				"method": "rhf"
			},
			{
				"type": "unocc",
				"energy": -0.01584,
				"method": "rhf"
			},
			{
				"type": "unocc",
				"energy": -0.01429,
				"method": "rhf"
			},
			{
				"type": "unocc",
				"energy": 0.00589,
				"method": "rhf"
			},
			{
				"type": "unocc",
				"energy": 0.0306,
				"method": "rhf"
			}
		],
		"cosmo_sigma_profile": { 
			"-0.025": 0.0,
			"-0.024": 0.0,
			"-0.023": 0.0,
			"-0.022": 0.0,
			"-0.021": 0.0,
			"-0.02": 0.0,
			"-0.019": 0.0,
			"-0.018": 0.0,
			"-0.017": 0.0,
			"-0.016": 0.0,
			"-0.015": 0.0,
			"-0.014": 0.0996592047934,
			"-0.013": 1.24355907319,
			"-0.012": 1.86736527915,
			"-0.011": 2.06690460629,
			"-0.01": 3.02109542359,
			"-0.009": 2.2767660131,
			"-0.008": 2.10560060598,
			"-0.007": 4.48145727559,
			"-0.006": 14.7758701843,
			"-0.005": 19.1714360732,
			"-0.004": 24.5658069633,
			"-0.003": 21.7429584653,
			"-0.002": 24.6729631425,
			"-0.001": 19.0797204727,
			"0.0": 19.3366345468,
			"0.001": 17.6408906866,
			"0.002": 23.0789137763,
			"0.003": 23.5133352136,
			"0.004": 27.0060103855,
			"0.005": 16.3786132843,
			"0.006": 3.07209412485,
			"0.007": 2.27412503065,
			"0.008": 2.28540424165,
			"0.009": 2.60684228111,
			"0.01": 2.07181023367,
			"0.011": 2.44798626361,
			"0.012": 2.38740934007,
			"0.013": 5.2018159618,
			"0.014": 2.16917664515,
			"0.015": 0.0593294365717,
			"0.016": 0.0,
			"0.017": 0.0,
			"0.018": 0.0,
			"0.019": 0.0,
			"0.02": 0.0,
			"0.021": 0.0,
			"0.022": 0.0,
			"0.023": 0.0,
			"0.024": 0.0,
			"0.025": 0.0
		}
	}
}
