{
	 "smiles": "CC(C)N1N=CC2=C1N=C(C=C2C(O)=O)C1=CC=CO1", 
	 "Tm": 549.15, 
	 "num_atms": 33, 
	 "gaussian": { 
		 "optdone": 1, 
		 "sigma_profile": "yes", 
		 "theory": "DFT", 
		 "functional": "B3LYP", 
		 "basiset": "6-31G**", 
		 "properties": { 
			 "R2extent": 6126.8742, 
			 "electric_dipole_moment_norm": 1.56273025823, 
			 "electric_quadrupole_moment_norm": 13.5307993526, 
			 "total_energy": -931.246921071, 
			 "HOMO_LUMO_gap": 0.1351, 
			 "cosmo_polarized_energy": -12.57, 
			 "cosmo_cavitation_energy": 37.82, 
			 "cosmo_dispersion_energy": -26.53, 
			 "cosmo_repulsion_energy": 2.01, 
			 "cosmo_total_nonelectrostatic_energy": 13.3, 
			 "SMD_solvation_energy": 7.11 
		},
		"coords": [
			{
				"x": 2.6700628673,
				"y": 2.6499034318,
				"z": 1.2726853813,
				"element": "C" 
			},
			{
				"x": 3.0943518512,
				"y": 1.2729658638,
				"z": 0.7467009314,
				"element": "C" 
			},
			{
				"x": 3.1134041039,
				"y": 0.1995635825,
				"z": 1.8421647317,
				"element": "C" 
			},
			{
				"x": 2.2509514564,
				"y": 0.8573713998,
				"z": -0.3848540297,
				"element": "N" 
			},
			{
				"x": 2.81114228,
				"y": 0.6736342925,
				"z": -1.6111059875,
				"element": "N" 
			},
			{
				"x": 1.8430205031,
				"y": 0.306190159,
				"z": -2.437013051,
				"element": "C" 
			},
			{
				"x": 0.594633669,
				"y": 0.2375774552,
				"z": -1.7600341447,
				"element": "C" 
			},
			{
				"x": 0.9058637058,
				"y": 0.6056357638,
				"z": -0.4196265633,
				"element": "C" 
			},
			{
				"x": 0.0569470968,
				"y": 0.6906356119,
				"z": 0.6072587158,
				"element": "N" 
			},
			{
				"x": -1.2192941293,
				"y": 0.3925194417,
				"z": 0.3195480663,
				"element": "C" 
			},
			{
				"x": -1.6570709775,
				"y": 0.0119362919,
				"z": -0.976696699,
				"element": "C" 
			},
			{
				"x": -0.7560902876,
				"y": -0.0694425488,
				"z": -2.0286789704,
				"element": "C" 
			},
			{
				"x": -1.2750451398,
				"y": -0.4743790303,
				"z": -3.366433595,
				"element": "C" 
			},
			{
				"x": -0.3062055669,
				"y": -0.5190115297,
				"z": -4.3122293046,
				"element": "O" 
			},
			{
				"x": -2.4339351128,
				"y": -0.740766269,
				"z": -3.6086300873,
				"element": "O" 
			},
			{
				"x": -2.1635952805,
				"y": 0.478063043,
				"z": 1.4246050155,
				"element": "C" 
			},
			{
				"x": -2.0188124955,
				"y": 0.8109491332,
				"z": 2.7469284861,
				"element": "C" 
			},
			{
				"x": -3.315494373,
				"y": 0.712595987,
				"z": 3.3351014842,
				"element": "C" 
			},
			{
				"x": -4.1585108593,
				"y": 0.327689028,
				"z": 2.3338462218,
				"element": "C" 
			},
			{
				"x": -3.4768458248,
				"y": 0.1804392273,
				"z": 1.1666914289,
				"element": "O" 
			},
			{
				"x": 3.3584238213,
				"y": 2.9738375244,
				"z": 2.0596807485,
				"element": "H" 
			},
			{
				"x": 2.6905689392,
				"y": 3.3944697982,
				"z": 0.4715709201,
				"element": "H" 
			},
			{
				"x": 1.6604663221,
				"y": 2.6124979988,
				"z": 1.6895867017,
				"element": "H" 
			},
			{
				"x": 4.0893216634,
				"y": 1.3491624819,
				"z": 0.2999200351,
				"element": "H" 
			},
			{
				"x": 3.4425767811,
				"y": -0.7619512811,
				"z": 1.4375438939,
				"element": "H" 
			},
			{
				"x": 2.1199062126,
				"y": 0.0731554227,
				"z": 2.2797306522,
				"element": "H" 
			},
			{
				"x": 3.8072562675,
				"y": 0.4931546715,
				"z": 2.6362078975,
				"element": "H" 
			},
			{
				"x": 2.0584788831,
				"y": 0.1037880423,
				"z": -3.4750789632,
				"element": "H" 
			},
			{
				"x": -2.7002367469,
				"y": -0.2178344028,
				"z": -1.15228152,
				"element": "H" 
			},
			{
				"x": -0.747520131,
				"y": -0.7901797959,
				"z": -5.1344389656,
				"element": "H" 
			},
			{
				"x": -1.0922498716,
				"y": 1.0895596463,
				"z": 3.2248789277,
				"element": "H" 
			},
			{
				"x": -3.5852296967,
				"y": 0.9023834908,
				"z": 4.3639524252,
				"element": "H" 
			},
			{
				"x": -5.2173399307,
				"y": 0.1253860683,
				"z": 2.2882992164,
				"element": "H" 
			}
		],
		 "valence_orbital": [ 
			{
				"type": "occ",
				"energy": -0.28585,
				"method": "rhf"
			},
			{
				"type": "occ",
				"energy": -0.27443,
				"method": "rhf"
			},
			{
				"type": "occ",
				"energy": -0.27399,
				"method": "rhf"
			},
			{
				"type": "occ",
				"energy": -0.23586,
				"method": "rhf"
			},
			{
				"type": "occ",
				"energy": -0.21381,
				"method": "rhf"
			},
			{
				"type": "unocc",
				"energy": -0.07871,
				"method": "rhf"
			},
			{
				"type": "unocc",
				"energy": -0.02978,
				"method": "rhf"
			},
			{
				"type": "unocc",
				"energy": 0.02901,
				"method": "rhf"
			},
			{
				"type": "unocc",
				"energy": 0.041,
				"method": "rhf"
			},
			{
				"type": "unocc",
				"energy": 0.05174,
				"method": "rhf"
			}
		],
		"cosmo_sigma_profile": { 
			"-0.025": 0.0,
			"-0.024": 0.0,
			"-0.023": 0.0,
			"-0.022": 0.0,
			"-0.021": 0.0,
			"-0.02": 0.0,
			"-0.019": 0.318661987841,
			"-0.018": 1.12630599424,
			"-0.017": 0.525012848787,
			"-0.016": 1.21879063434,
			"-0.015": 0.796147323363,
			"-0.014": 0.559595226802,
			"-0.013": 0.315009077061,
			"-0.012": 0.890170447924,
			"-0.011": 0.991800411047,
			"-0.01": 1.33213197708,
			"-0.009": 2.09944795847,
			"-0.008": 3.15855486599,
			"-0.007": 5.98215698649,
			"-0.006": 5.87334158022,
			"-0.005": 9.57293162473,
			"-0.004": 20.6170830656,
			"-0.003": 21.3349817752,
			"-0.002": 23.2647720276,
			"-0.001": 30.4859940197,
			"0.0": 45.0217869459,
			"0.001": 28.9546027378,
			"0.002": 23.2485300592,
			"0.003": 18.7029644542,
			"0.004": 16.5512643402,
			"0.005": 12.3694683207,
			"0.006": 5.07604713776,
			"0.007": 2.64761994364,
			"0.008": 2.82858363762,
			"0.009": 3.28818953748,
			"0.01": 3.33744833057,
			"0.011": 6.63892345654,
			"0.012": 1.17082588458,
			"0.013": 1.22797011163,
			"0.014": 0.802160428528,
			"0.015": 0.0418929291436,
			"0.016": 0.0,
			"0.017": 0.0,
			"0.018": 0.0,
			"0.019": 0.0,
			"0.02": 0.0,
			"0.021": 0.0,
			"0.022": 0.0,
			"0.023": 0.0,
			"0.024": 0.0,
			"0.025": 0.0
		}
	}
}
