{
	 "smiles": "CC(=O)NC1=CC=C(NN(C(C)=O)C2=CC=C(C=C2)N=NC2=CC=C(NC(C)=O)C=C2)C=C1", 
	 "Tm": 491.15, 
	 "num_atms": 57, 
	 "gaussian": { 
		 "optdone": 1, 
		 "sigma_profile": "yes", 
		 "theory": "DFT", 
		 "functional": "B3LYP", 
		 "basiset": "6-31G**", 
		 "properties": { 
			 "R2extent": 24147.3873, 
			 "electric_dipole_moment_norm": 0.941925251811, 
			 "electric_quadrupole_moment_norm": 64.0462880925, 
			 "total_energy": -1483.15849681, 
			 "HOMO_LUMO_gap": 0.12122, 
			 "cosmo_polarized_energy": -36.44, 
			 "cosmo_cavitation_energy": 62.51, 
			 "cosmo_dispersion_energy": -42.77, 
			 "cosmo_repulsion_energy": 3.23, 
			 "cosmo_total_nonelectrostatic_energy": 22.98, 
			 "SMD_solvation_energy": 10.9 
		},
		"coords": [
			{
				"x": 2.627891566,
				"y": 6.1501958446,
				"z": -6.0468304744,
				"element": "C" 
			},
			{
				"x": 2.2786797211,
				"y": 4.7055301203,
				"z": -5.7135898362,
				"element": "C" 
			},
			{
				"x": 1.8669149362,
				"y": 3.9361414038,
				"z": -6.5717084711,
				"element": "O" 
			},
			{
				"x": 2.4706991722,
				"y": 4.3623079527,
				"z": -4.3949014745,
				"element": "N" 
			},
			{
				"x": 2.2537479474,
				"y": 3.1166407185,
				"z": -3.762337783,
				"element": "C" 
			},
			{
				"x": 1.8128801616,
				"y": 1.9689885319,
				"z": -4.4411753458,
				"element": "C" 
			},
			{
				"x": 1.6280502289,
				"y": 0.7812201542,
				"z": -3.7418851814,
				"element": "C" 
			},
			{
				"x": 1.8721426227,
				"y": 0.6962776105,
				"z": -2.3647989004,
				"element": "C" 
			},
			{
				"x": 1.5770231591,
				"y": -0.5246601577,
				"z": -1.6986570505,
				"element": "N" 
			},
			{
				"x": 2.2076875102,
				"y": -0.7337223748,
				"z": -0.456477962,
				"element": "N" 
			},
			{
				"x": 3.5549035157,
				"y": -1.1153563128,
				"z": -0.4983965471,
				"element": "C" 
			},
			{
				"x": 4.3359307179,
				"y": -1.1405674707,
				"z": 0.8028061058,
				"element": "C" 
			},
			{
				"x": 4.0845815405,
				"y": -1.3593766055,
				"z": -1.5708267982,
				"element": "O" 
			},
			{
				"x": 1.3305035827,
				"y": -0.8328991696,
				"z": 0.663614257,
				"element": "C" 
			},
			{
				"x": 1.4203983344,
				"y": -1.8925993827,
				"z": 1.5757114104,
				"element": "C" 
			},
			{
				"x": 0.5656565618,
				"y": -1.9479064654,
				"z": 2.673883661,
				"element": "C" 
			},
			{
				"x": -0.451238499,
				"y": -0.9988505861,
				"z": 2.8305335725,
				"element": "C" 
			},
			{
				"x": -0.5543089995,
				"y": 0.0540920056,
				"z": 1.9054763961,
				"element": "C" 
			},
			{
				"x": 0.3341970459,
				"y": 0.1400974416,
				"z": 0.8419793738,
				"element": "C" 
			},
			{
				"x": -1.2085602713,
				"y": -1.0490106164,
				"z": 4.0449776487,
				"element": "N" 
			},
			{
				"x": -2.4484933651,
				"y": -0.8900844574,
				"z": 4.1103386037,
				"element": "N" 
			},
			{
				"x": -3.319817834,
				"y": -0.8577608349,
				"z": 2.9776029912,
				"element": "C" 
			},
			{
				"x": -3.24382414,
				"y": -1.7453813216,
				"z": 1.8915986743,
				"element": "C" 
			},
			{
				"x": -4.2282221229,
				"y": -1.7281684906,
				"z": 0.9143978121,
				"element": "C" 
			},
			{
				"x": -5.2977650526,
				"y": -0.8163106926,
				"z": 0.9785119367,
				"element": "C" 
			},
			{
				"x": -6.2389840957,
				"y": -0.8509980918,
				"z": -0.0662153403,
				"element": "N" 
			},
			{
				"x": -7.3651465775,
				"y": -0.0697283641,
				"z": -0.2457403747,
				"element": "C" 
			},
			{
				"x": -8.1322173081,
				"y": -0.3604527041,
				"z": -1.527444135,
				"element": "C" 
			},
			{
				"x": -7.7248671082,
				"y": 0.797748876,
				"z": 0.5353737716,
				"element": "O" 
			},
			{
				"x": -5.3878128531,
				"y": 0.0603374429,
				"z": 2.0734706099,
				"element": "C" 
			},
			{
				"x": -4.4197690217,
				"y": 0.0062562415,
				"z": 3.070256696,
				"element": "C" 
			},
			{
				"x": 2.3129384216,
				"y": 1.8396952822,
				"z": -1.6909440263,
				"element": "C" 
			},
			{
				"x": 2.5001341237,
				"y": 3.0318828891,
				"z": -2.3862811669,
				"element": "C" 
			},
			{
				"x": 3.4292723788,
				"y": 6.1529044237,
				"z": -6.7911050645,
				"element": "H" 
			},
			{
				"x": 2.9425193547,
				"y": 6.7490617788,
				"z": -5.187401539,
				"element": "H" 
			},
			{
				"x": 1.7555887659,
				"y": 6.6212836503,
				"z": -6.5074309372,
				"element": "H" 
			},
			{
				"x": 2.8130235706,
				"y": 5.0924517295,
				"z": -3.7881621849,
				"element": "H" 
			},
			{
				"x": 1.6241813316,
				"y": 2.022461137,
				"z": -5.503838412,
				"element": "H" 
			},
			{
				"x": 1.2847223174,
				"y": -0.0992275885,
				"z": -4.279446533,
				"element": "H" 
			},
			{
				"x": 1.7723696541,
				"y": -1.3213624773,
				"z": -2.3001017309,
				"element": "H" 
			},
			{
				"x": 5.3024894217,
				"y": -0.6750192222,
				"z": 0.5962264246,
				"element": "H" 
			},
			{
				"x": 3.8422923079,
				"y": -0.6234952577,
				"z": 1.6258607177,
				"element": "H" 
			},
			{
				"x": 4.5340282761,
				"y": -2.1743300712,
				"z": 1.1021421174,
				"element": "H" 
			},
			{
				"x": 2.1572853565,
				"y": -2.6748369659,
				"z": 1.4308755194,
				"element": "H" 
			},
			{
				"x": 0.65824626,
				"y": -2.7440210568,
				"z": 3.4059068493,
				"element": "H" 
			},
			{
				"x": -1.3188880764,
				"y": 0.8124113285,
				"z": 2.0332166506,
				"element": "H" 
			},
			{
				"x": 0.2562218709,
				"y": 0.9572427828,
				"z": 0.1336023811,
				"element": "H" 
			},
			{
				"x": -2.4303393177,
				"y": -2.4580465548,
				"z": 1.8219142965,
				"element": "H" 
			},
			{
				"x": -4.1685451062,
				"y": -2.4297017918,
				"z": 0.085151317,
				"element": "H" 
			},
			{
				"x": -6.0509269117,
				"y": -1.5329610399,
				"z": -0.7865385449,
				"element": "H" 
			},
			{
				"x": -7.8229354753,
				"y": -1.2772150262,
				"z": -2.0372001935,
				"element": "H" 
			},
			{
				"x": -8.0035843861,
				"y": 0.4822062658,
				"z": -2.2139469415,
				"element": "H" 
			},
			{
				"x": -9.195327753,
				"y": -0.425815905,
				"z": -1.2861085838,
				"element": "H" 
			},
			{
				"x": -6.2184922976,
				"y": 0.748268605,
				"z": 2.1354474453,
				"element": "H" 
			},
			{
				"x": -4.4985255716,
				"y": 0.649908259,
				"z": 3.9409013911,
				"element": "H" 
			},
			{
				"x": 2.5221494964,
				"y": 1.7991633589,
				"z": -0.6277608604,
				"element": "H" 
			},
			{
				"x": 2.8484409121,
				"y": 3.9090912213,
				"z": -1.8448262374,
				"element": "H" 
			}
		],
		 "valence_orbital": [ 
			{
				"type": "occ",
				"energy": -0.24956,
				"method": "rhf"
			},
			{
				"type": "occ",
				"energy": -0.24672,
				"method": "rhf"
			},
			{
				"type": "occ",
				"energy": -0.23823,
				"method": "rhf"
			},
			{
				"type": "occ",
				"energy": -0.20554,
				"method": "rhf"
			},
			{
				"type": "occ",
				"energy": -0.19856,
				"method": "rhf"
			},
			{
				"type": "unocc",
				"energy": -0.07734,
				"method": "rhf"
			},
			{
				"type": "unocc",
				"energy": -0.02344,
				"method": "rhf"
			},
			{
				"type": "unocc",
				"energy": -0.02134,
				"method": "rhf"
			},
			{
				"type": "unocc",
				"energy": -0.00935,
				"method": "rhf"
			},
			{
				"type": "unocc",
				"energy": -0.00679,
				"method": "rhf"
			}
		],
		"cosmo_sigma_profile": { 
			"-0.025": 0.0,
			"-0.024": 0.0,
			"-0.023": 0.0,
			"-0.022": 0.0,
			"-0.021": 0.0,
			"-0.02": 0.0,
			"-0.019": 0.0,
			"-0.018": 0.0,
			"-0.017": 0.0,
			"-0.016": 0.430365185746,
			"-0.015": 2.20478282416,
			"-0.014": 2.93914561919,
			"-0.013": 2.35983859655,
			"-0.012": 4.21964460992,
			"-0.011": 4.22047712293,
			"-0.01": 4.7763358633,
			"-0.009": 4.83578889033,
			"-0.008": 6.98848918458,
			"-0.007": 13.0544808387,
			"-0.006": 28.8221655181,
			"-0.005": 34.5962334535,
			"-0.004": 39.3492263298,
			"-0.003": 40.4457280142,
			"-0.002": 41.3611859994,
			"-0.001": 31.7302045511,
			"0.0": 22.135991844,
			"0.001": 25.7830455011,
			"0.002": 28.0941619836,
			"0.003": 38.1461714231,
			"0.004": 24.4551285085,
			"0.005": 18.1591334751,
			"0.006": 12.687979526,
			"0.007": 8.10256673518,
			"0.008": 7.22691948875,
			"0.009": 7.0780675409,
			"0.01": 6.69694137601,
			"0.011": 9.18428862126,
			"0.012": 10.3490851102,
			"0.013": 11.5155198292,
			"0.014": 6.07022196749,
			"0.015": 0.752465828209,
			"0.016": 0.0,
			"0.017": 0.0,
			"0.018": 0.0,
			"0.019": 0.0,
			"0.02": 0.0,
			"0.021": 0.0,
			"0.022": 0.0,
			"0.023": 0.0,
			"0.024": 0.0,
			"0.025": 0.0
		}
	}
}
