{
	 "smiles": "NC(C1CCC1)(C(O)=O)C1=CC=CC=C1", 
	 "Tm": 530.15, 
	 "num_atms": 30, 
	 "gaussian": { 
		 "optdone": 1, 
		 "sigma_profile": "yes", 
		 "theory": "DFT", 
		 "functional": "B3LYP", 
		 "basiset": "6-31G**", 
		 "properties": { 
			 "R2extent": 4037.5121, 
			 "electric_dipole_moment_norm": 1.43229045239, 
			 "electric_quadrupole_moment_norm": 6.82800373169, 
			 "total_energy": -671.501506578, 
			 "HOMO_LUMO_gap": 0.22541, 
			 "cosmo_polarized_energy": -10.59, 
			 "cosmo_cavitation_energy": 31.36, 
			 "cosmo_dispersion_energy": -22.33, 
			 "cosmo_repulsion_energy": 1.76, 
			 "cosmo_total_nonelectrostatic_energy": 10.8, 
			 "SMD_solvation_energy": 5.34 
		},
		"coords": [
			{
				"x": 0.9489376619,
				"y": -1.5771368955,
				"z": -0.1715366739,
				"element": "N" 
			},
			{
				"x": 1.3787164831,
				"y": -0.1969465565,
				"z": 0.0930620713,
				"element": "C" 
			},
			{
				"x": 0.2148849695,
				"y": 0.4854727724,
				"z": 0.853997351,
				"element": "C" 
			},
			{
				"x": -0.1176525424,
				"y": 0.0910300448,
				"z": 2.3239979578,
				"element": "C" 
			},
			{
				"x": -0.5849768809,
				"y": 1.5540272602,
				"z": 2.5489519844,
				"element": "C" 
			},
			{
				"x": 0.2344368469,
				"y": 1.97353038,
				"z": 1.2975661187,
				"element": "C" 
			},
			{
				"x": 2.6961116152,
				"y": -0.1521554066,
				"z": 0.8973215638,
				"element": "C" 
			},
			{
				"x": 3.5038984309,
				"y": -1.202780052,
				"z": 0.6050291551,
				"element": "O" 
			},
			{
				"x": 3.0386717343,
				"y": 0.7013844736,
				"z": 1.6900657694,
				"element": "O" 
			},
			{
				"x": 1.6192395927,
				"y": 0.536817848,
				"z": -1.2430332008,
				"element": "C" 
			},
			{
				"x": 1.0000002124,
				"y": 0.0756769185,
				"z": -2.4121906452,
				"element": "C" 
			},
			{
				"x": 1.1660298325,
				"y": 0.7570091571,
				"z": -3.6189826374,
				"element": "C" 
			},
			{
				"x": 1.9523414438,
				"y": 1.9083053051,
				"z": -3.6776286702,
				"element": "C" 
			},
			{
				"x": 2.5698894101,
				"y": 2.3755787911,
				"z": -2.5167160145,
				"element": "C" 
			},
			{
				"x": 2.4046893546,
				"y": 1.6972044031,
				"z": -1.3084193179,
				"element": "C" 
			},
			{
				"x": 1.7218878531,
				"y": -2.1119620052,
				"z": -0.5591878486,
				"element": "H" 
			},
			{
				"x": 0.6955198727,
				"y": -2.0242325468,
				"z": 0.7060913253,
				"element": "H" 
			},
			{
				"x": -0.6667122682,
				"y": 0.3087794403,
				"z": 0.228572953,
				"element": "H" 
			},
			{
				"x": -0.8459728933,
				"y": -0.7102898564,
				"z": 2.4844551192,
				"element": "H" 
			},
			{
				"x": 0.7864644241,
				"y": -0.1237940344,
				"z": 2.9014075004,
				"element": "H" 
			},
			{
				"x": -0.3234038233,
				"y": 2.0227158301,
				"z": 3.5013306515,
				"element": "H" 
			},
			{
				"x": -1.6623185086,
				"y": 1.6630897469,
				"z": 2.3890000356,
				"element": "H" 
			},
			{
				"x": 1.2372536496,
				"y": 2.2980434718,
				"z": 1.5762412001,
				"element": "H" 
			},
			{
				"x": -0.2094854014,
				"y": 2.7017991227,
				"z": 0.6135535297,
				"element": "H" 
			},
			{
				"x": 4.3182365757,
				"y": -1.0611564613,
				"z": 1.1166473708,
				"element": "H" 
			},
			{
				"x": 0.3874529057,
				"y": -0.8172719687,
				"z": -2.3613795279,
				"element": "H" 
			},
			{
				"x": 0.678700025,
				"y": 0.3840207308,
				"z": -4.5157770654,
				"element": "H" 
			},
			{
				"x": 2.08336844,
				"y": 2.4359163235,
				"z": -4.618143971,
				"element": "H" 
			},
			{
				"x": 3.1845423506,
				"y": 3.270926735,
				"z": -2.548079774,
				"element": "H" 
			},
			{
				"x": 2.8926486339,
				"y": 2.0731970284,
				"z": -0.4151163103,
				"element": "H" 
			}
		],
		 "valence_orbital": [ 
			{
				"type": "occ",
				"energy": -0.29809,
				"method": "rhf"
			},
			{
				"type": "occ",
				"energy": -0.28828,
				"method": "rhf"
			},
			{
				"type": "occ",
				"energy": -0.24718,
				"method": "rhf"
			},
			{
				"type": "occ",
				"energy": -0.24535,
				"method": "rhf"
			},
			{
				"type": "occ",
				"energy": -0.23374,
				"method": "rhf"
			},
			{
				"type": "unocc",
				"energy": -0.00833,
				"method": "rhf"
			},
			{
				"type": "unocc",
				"energy": 0.00032,
				"method": "rhf"
			},
			{
				"type": "unocc",
				"energy": 0.01155,
				"method": "rhf"
			},
			{
				"type": "unocc",
				"energy": 0.06814,
				"method": "rhf"
			},
			{
				"type": "unocc",
				"energy": 0.09336,
				"method": "rhf"
			}
		],
		"cosmo_sigma_profile": { 
			"-0.025": 0.0,
			"-0.024": 0.0,
			"-0.023": 0.0,
			"-0.022": 0.0,
			"-0.021": 0.0,
			"-0.02": 0.0,
			"-0.019": 0.0587924613804,
			"-0.018": 0.708518320034,
			"-0.017": 0.821211075804,
			"-0.016": 1.16955893406,
			"-0.015": 0.651238330852,
			"-0.014": 0.554829274589,
			"-0.013": 0.477442957619,
			"-0.012": 0.845085553728,
			"-0.011": 1.15050864614,
			"-0.01": 1.33575603091,
			"-0.009": 1.81217612408,
			"-0.008": 3.45535736821,
			"-0.007": 3.70626164971,
			"-0.006": 5.02845263944,
			"-0.005": 10.088498978,
			"-0.004": 12.448872425,
			"-0.003": 21.5365435493,
			"-0.002": 23.6603351997,
			"-0.001": 24.5149111055,
			"0.0": 23.4437797561,
			"0.001": 22.5536940969,
			"0.002": 20.2358882583,
			"0.003": 14.6943322257,
			"0.004": 11.2362962277,
			"0.005": 11.3153350377,
			"0.006": 11.8682193481,
			"0.007": 3.19655658202,
			"0.008": 2.65286671159,
			"0.009": 1.35040943651,
			"0.01": 2.72458447726,
			"0.011": 3.32613284388,
			"0.012": 2.25618259977,
			"0.013": 0.357947285461,
			"0.014": 0.456278520877,
			"0.015": 0.413766821123,
			"0.016": 0.0,
			"0.017": 0.0,
			"0.018": 0.0,
			"0.019": 0.0,
			"0.02": 0.0,
			"0.021": 0.0,
			"0.022": 0.0,
			"0.023": 0.0,
			"0.024": 0.0,
			"0.025": 0.0
		}
	}
}
