{
	 "smiles": "CCOC(=O)CCCCC(=O)OCC", 
	 "Tm": 254.15, 
	 "num_atms": 32, 
	 "gaussian": { 
		 "optdone": 1, 
		 "sigma_profile": "yes", 
		 "theory": "DFT", 
		 "functional": "B3LYP", 
		 "basiset": "6-31G**", 
		 "properties": { 
			 "R2extent": 3713.6661, 
			 "electric_dipole_moment_norm": 1.07108438977, 
			 "electric_quadrupole_moment_norm": 16.9656811478, 
			 "total_energy": -692.85036669, 
			 "HOMO_LUMO_gap": 0.27348, 
			 "cosmo_polarized_energy": -11.63, 
			 "cosmo_cavitation_energy": 35.64, 
			 "cosmo_dispersion_energy": -23.01, 
			 "cosmo_repulsion_energy": 1.87, 
			 "cosmo_total_nonelectrostatic_energy": 14.51, 
			 "SMD_solvation_energy": 7.74 
		},
		"coords": [
			{
				"x": 0.3320764923,
				"y": 2.8904029667,
				"z": 1.0165247616,
				"element": "C" 
			},
			{
				"x": 1.2295833866,
				"y": 3.3628483729,
				"z": -0.1177226601,
				"element": "C" 
			},
			{
				"x": 1.2119357327,
				"y": 2.4292071765,
				"z": -1.223492755,
				"element": "O" 
			},
			{
				"x": 2.0810768718,
				"y": 1.3928131209,
				"z": -1.1561763787,
				"element": "C" 
			},
			{
				"x": 2.8677870321,
				"y": 1.2283393055,
				"z": -0.2460163418,
				"element": "O" 
			},
			{
				"x": 1.9013042334,
				"y": 0.4578692627,
				"z": -2.334143598,
				"element": "C" 
			},
			{
				"x": 0.7934576794,
				"y": -0.5866529364,
				"z": -2.0702226819,
				"element": "C" 
			},
			{
				"x": 1.143600297,
				"y": -1.5798955977,
				"z": -0.9537790735,
				"element": "C" 
			},
			{
				"x": 0.0142381381,
				"y": -2.5909855925,
				"z": -0.6592170032,
				"element": "C" 
			},
			{
				"x": -1.2211850989,
				"y": -1.915335799,
				"z": -0.0996351628,
				"element": "C" 
			},
			{
				"x": -2.2182658113,
				"y": -1.6345542401,
				"z": -0.7319545205,
				"element": "O" 
			},
			{
				"x": -1.0621810298,
				"y": -1.6187666571,
				"z": 1.2109030875,
				"element": "O" 
			},
			{
				"x": -2.1617175088,
				"y": -0.9214477496,
				"z": 1.8392907484,
				"element": "C" 
			},
			{
				"x": -1.7814586136,
				"y": -0.6799960707,
				"z": 3.2877994231,
				"element": "C" 
			},
			{
				"x": 0.7144269548,
				"y": 1.960205562,
				"z": 1.4447265026,
				"element": "H" 
			},
			{
				"x": 0.3027380087,
				"y": 3.6460172025,
				"z": 1.808701039,
				"element": "H" 
			},
			{
				"x": -0.6895314214,
				"y": 2.7254606779,
				"z": 0.6609494575,
				"element": "H" 
			},
			{
				"x": 0.8709701527,
				"y": 4.3016010587,
				"z": -0.5467538509,
				"element": "H" 
			},
			{
				"x": 2.2604198042,
				"y": 3.4876249243,
				"z": 0.2220762745,
				"element": "H" 
			},
			{
				"x": 1.6442157573,
				"y": 1.0449153108,
				"z": -3.2203716242,
				"element": "H" 
			},
			{
				"x": 2.8591000239,
				"y": -0.0417352519,
				"z": -2.5066799322,
				"element": "H" 
			},
			{
				"x": 0.6125187552,
				"y": -1.1371270796,
				"z": -3.0015459946,
				"element": "H" 
			},
			{
				"x": -0.1423338475,
				"y": -0.0650000108,
				"z": -1.8392576183,
				"element": "H" 
			},
			{
				"x": 1.3960335594,
				"y": -1.04509116,
				"z": -0.0321265827,
				"element": "H" 
			},
			{
				"x": 2.0425574761,
				"y": -2.1406038121,
				"z": -1.2378976044,
				"element": "H" 
			},
			{
				"x": -0.2840099849,
				"y": -3.1107450537,
				"z": -1.5740447003,
				"element": "H" 
			},
			{
				"x": 0.3711532593,
				"y": -3.3305290315,
				"z": 0.064299927,
				"element": "H" 
			},
			{
				"x": -3.0659986765,
				"y": -1.53138965,
				"z": 1.7468469399,
				"element": "H" 
			},
			{
				"x": -2.3425292009,
				"y": 0.0137789055,
				"z": 1.2994803321,
				"element": "H" 
			},
			{
				"x": -1.6015321221,
				"y": -1.6252694196,
				"z": 3.8078472611,
				"element": "H" 
			},
			{
				"x": -2.5911565901,
				"y": -0.1527869962,
				"z": 3.8020223755,
				"element": "H" 
			},
			{
				"x": -0.8750937093,
				"y": -0.0715717385,
				"z": 3.3582699533,
				"element": "H" 
			}
		],
		 "valence_orbital": [ 
			{
				"type": "occ",
				"energy": -0.33186,
				"method": "rhf"
			},
			{
				"type": "occ",
				"energy": -0.29702,
				"method": "rhf"
			},
			{
				"type": "occ",
				"energy": -0.29516,
				"method": "rhf"
			},
			{
				"type": "occ",
				"energy": -0.26585,
				"method": "rhf"
			},
			{
				"type": "occ",
				"energy": -0.2634,
				"method": "rhf"
			},
			{
				"type": "unocc",
				"energy": 0.01008,
				"method": "rhf"
			},
			{
				"type": "unocc",
				"energy": 0.01365,
				"method": "rhf"
			},
			{
				"type": "unocc",
				"energy": 0.07607,
				"method": "rhf"
			},
			{
				"type": "unocc",
				"energy": 0.1022,
				"method": "rhf"
			},
			{
				"type": "unocc",
				"energy": 0.11111,
				"method": "rhf"
			}
		],
		"cosmo_sigma_profile": { 
			"-0.025": 0.0,
			"-0.024": 0.0,
			"-0.023": 0.0,
			"-0.022": 0.0,
			"-0.021": 0.0,
			"-0.02": 0.0,
			"-0.019": 0.0,
			"-0.018": 0.0,
			"-0.017": 0.0,
			"-0.016": 0.0,
			"-0.015": 0.0,
			"-0.014": 0.0,
			"-0.013": 0.0,
			"-0.012": 0.0,
			"-0.011": 0.0,
			"-0.01": 0.0,
			"-0.009": 0.0,
			"-0.008": 0.0,
			"-0.007": 0.0,
			"-0.006": 1.88829894512,
			"-0.005": 14.4456079303,
			"-0.004": 37.002401305,
			"-0.003": 45.8783779662,
			"-0.002": 41.9609675191,
			"-0.001": 30.8729561859,
			"0.0": 25.7202588579,
			"0.001": 11.6419165016,
			"0.002": 8.96051696993,
			"0.003": 6.76773556487,
			"0.004": 6.59794931429,
			"0.005": 6.03182142748,
			"0.006": 5.61480865346,
			"0.007": 4.41707892829,
			"0.008": 4.91743171948,
			"0.009": 4.52824317413,
			"0.01": 3.28931685597,
			"0.011": 4.36147448441,
			"0.012": 8.58974531997,
			"0.013": 3.78588335319,
			"0.014": 0.133222447545,
			"0.015": 0.0,
			"0.016": 0.0,
			"0.017": 0.0,
			"0.018": 0.0,
			"0.019": 0.0,
			"0.02": 0.0,
			"0.021": 0.0,
			"0.022": 0.0,
			"0.023": 0.0,
			"0.024": 0.0,
			"0.025": 0.0
		}
	}
}
