{
	 "smiles": "ClC1=C(Cl)C(=O)C2=C(C=CC=C2)C1=O", 
	 "Tm": 468.15, 
	 "num_atms": 18, 
	 "gaussian": { 
		 "optdone": 1, 
		 "sigma_profile": "yes", 
		 "theory": "DFT", 
		 "functional": "B3LYP", 
		 "basiset": "6-31G**", 
		 "properties": { 
			 "R2extent": 4033.275, 
			 "electric_dipole_moment_norm": 3.60897997224, 
			 "electric_quadrupole_moment_norm": 9.97738039918, 
			 "total_energy": -1454.28751037, 
			 "HOMO_LUMO_gap": 0.14405, 
			 "cosmo_polarized_energy": -9.22, 
			 "cosmo_cavitation_energy": 26.7, 
			 "cosmo_dispersion_energy": -20.05, 
			 "cosmo_repulsion_energy": 1.54, 
			 "cosmo_total_nonelectrostatic_energy": 8.19, 
			 "SMD_solvation_energy": 5.04 
		},
		"coords": [
			{
				"x": 2.2969801157,
				"y": 3.1979456986,
				"z": -0.6972967365,
				"element": "Cl" 
			},
			{
				"x": 1.0254563969,
				"y": 2.0373287476,
				"z": -0.8073020753,
				"element": "C" 
			},
			{
				"x": 0.0299376449,
				"y": 2.1247637592,
				"z": -1.7218543539,
				"element": "C" 
			},
			{
				"x": -0.0709876247,
				"y": 3.4059229427,
				"z": -2.8726420129,
				"element": "Cl" 
			},
			{
				"x": -1.0689070865,
				"y": 1.1011487697,
				"z": -1.7998513224,
				"element": "C" 
			},
			{
				"x": -1.9556570535,
				"y": 1.1992446995,
				"z": -2.6308471136,
				"element": "O" 
			},
			{
				"x": -1.0181014983,
				"y": -0.0204686349,
				"z": -0.823099194,
				"element": "C" 
			},
			{
				"x": 0.0141214135,
				"y": -0.1110978943,
				"z": 0.1252255032,
				"element": "C" 
			},
			{
				"x": 0.0374886114,
				"y": -1.1760218931,
				"z": 1.0317622454,
				"element": "C" 
			},
			{
				"x": -0.9638754332,
				"y": -2.1444605436,
				"z": 0.9913402037,
				"element": "C" 
			},
			{
				"x": -1.991963137,
				"y": -2.0542295225,
				"z": 0.0467798708,
				"element": "C" 
			},
			{
				"x": -2.020425092,
				"y": -0.995402569,
				"z": -0.8589396685,
				"element": "C" 
			},
			{
				"x": 1.0938495723,
				"y": 0.9111860433,
				"z": 0.1868881077,
				"element": "C" 
			},
			{
				"x": 1.9984035454,
				"y": 0.852322029,
				"z": 1.0022561014,
				"element": "O" 
			},
			{
				"x": 0.8452129331,
				"y": -1.2232531699,
				"z": 1.7541405438,
				"element": "H" 
			},
			{
				"x": -0.9447503964,
				"y": -2.9707203382,
				"z": 1.6955399432,
				"element": "H" 
			},
			{
				"x": -2.7705768899,
				"y": -2.8104723242,
				"z": 0.0180634584,
				"element": "H" 
			},
			{
				"x": -2.8064060219,
				"y": -0.9028357998,
				"z": -1.6006635006,
				"element": "H" 
			}
		],
		 "valence_orbital": [ 
			{
				"type": "occ",
				"energy": -0.29246,
				"method": "rhf"
			},
			{
				"type": "occ",
				"energy": -0.29177,
				"method": "rhf"
			},
			{
				"type": "occ",
				"energy": -0.2836,
				"method": "rhf"
			},
			{
				"type": "occ",
				"energy": -0.28248,
				"method": "rhf"
			},
			{
				"type": "occ",
				"energy": -0.2738,
				"method": "rhf"
			},
			{
				"type": "unocc",
				"energy": -0.12975,
				"method": "rhf"
			},
			{
				"type": "unocc",
				"energy": -0.0567,
				"method": "rhf"
			},
			{
				"type": "unocc",
				"energy": -0.03886,
				"method": "rhf"
			},
			{
				"type": "unocc",
				"energy": -0.00633,
				"method": "rhf"
			},
			{
				"type": "unocc",
				"energy": 0.02457,
				"method": "rhf"
			}
		],
		"cosmo_sigma_profile": { 
			"-0.025": 0.0,
			"-0.024": 0.0,
			"-0.023": 0.0,
			"-0.022": 0.0,
			"-0.021": 0.0,
			"-0.02": 0.0,
			"-0.019": 0.0,
			"-0.018": 0.0,
			"-0.017": 0.0,
			"-0.016": 0.0,
			"-0.015": 0.0,
			"-0.014": 0.0,
			"-0.013": 0.0,
			"-0.012": 0.0,
			"-0.011": 0.0,
			"-0.01": 1.8888618232e-05,
			"-0.009": 0.492216706298,
			"-0.008": 3.31914212059,
			"-0.007": 10.9562204731,
			"-0.006": 13.0374762426,
			"-0.005": 12.2261615799,
			"-0.004": 13.8606391295,
			"-0.003": 14.8106246243,
			"-0.002": 15.4966865364,
			"-0.001": 17.9623442169,
			"0.0": 21.0920872458,
			"0.001": 23.6447636309,
			"0.002": 21.9425515653,
			"0.003": 13.3364557621,
			"0.004": 5.68962285377,
			"0.005": 4.83840394959,
			"0.006": 2.41325822243,
			"0.007": 4.78278001048,
			"0.008": 4.91721983027,
			"0.009": 6.13528015933,
			"0.01": 7.67227921195,
			"0.011": 2.34048278586,
			"0.012": 0.00169615209302,
			"0.013": 0.0,
			"0.014": 0.0,
			"0.015": 0.0,
			"0.016": 0.0,
			"0.017": 0.0,
			"0.018": 0.0,
			"0.019": 0.0,
			"0.02": 0.0,
			"0.021": 0.0,
			"0.022": 0.0,
			"0.023": 0.0,
			"0.024": 0.0,
			"0.025": 0.0
		}
	}
}
