{
	 "smiles": "NC1=C(N=C2C=CC=CC2=N1)N1CCCC1", 
	 "Tm": 423.15, 
	 "num_atms": 30, 
	 "gaussian": { 
		 "optdone": 1, 
		 "sigma_profile": "yes", 
		 "theory": "DFT", 
		 "functional": "B3LYP", 
		 "basiset": "6-31G**", 
		 "properties": { 
			 "R2extent": 4424.0648, 
			 "electric_dipole_moment_norm": 2.69782827845, 
			 "electric_quadrupole_moment_norm": 6.8105373114, 
			 "total_energy": -684.738750023, 
			 "HOMO_LUMO_gap": 0.16084, 
			 "cosmo_polarized_energy": -10.57, 
			 "cosmo_cavitation_energy": 31.91, 
			 "cosmo_dispersion_energy": -23.98, 
			 "cosmo_repulsion_energy": 1.87, 
			 "cosmo_total_nonelectrostatic_energy": 9.8, 
			 "SMD_solvation_energy": 1.27 
		},
		"coords": [
			{
				"x": 1.8004347319,
				"y": 0.5105237733,
				"z": -1.1155719111,
				"element": "N" 
			},
			{
				"x": 0.6954956039,
				"y": -0.3139112501,
				"z": -0.9911379071,
				"element": "C" 
			},
			{
				"x": -0.5473271556,
				"y": 0.2328412803,
				"z": -0.4583123042,
				"element": "C" 
			},
			{
				"x": -1.6408822068,
				"y": -0.4885359921,
				"z": -0.4284200608,
				"element": "N" 
			},
			{
				"x": -1.5621113604,
				"y": -1.7951328232,
				"z": -0.8369663894,
				"element": "C" 
			},
			{
				"x": -2.7159314813,
				"y": -2.61133794,
				"z": -0.8047507226,
				"element": "C" 
			},
			{
				"x": -2.6366745075,
				"y": -3.9398404647,
				"z": -1.1755198612,
				"element": "C" 
			},
			{
				"x": -1.4047896605,
				"y": -4.4917029927,
				"z": -1.5943319469,
				"element": "C" 
			},
			{
				"x": -0.2657006688,
				"y": -3.7111082526,
				"z": -1.6424138812,
				"element": "C" 
			},
			{
				"x": -0.3221522618,
				"y": -2.3489165963,
				"z": -1.2674709816,
				"element": "C" 
			},
			{
				"x": 0.7981668807,
				"y": -1.5664819406,
				"z": -1.3621255548,
				"element": "N" 
			},
			{
				"x": -0.5880493932,
				"y": 1.5762123485,
				"z": -0.0677232031,
				"element": "N" 
			},
			{
				"x": -1.913361431,
				"y": 2.1656931863,
				"z": 0.1752661071,
				"element": "C" 
			},
			{
				"x": -1.5925787771,
				"y": 3.5837682703,
				"z": 0.6914076461,
				"element": "C" 
			},
			{
				"x": -0.1296426248,
				"y": 3.5027956736,
				"z": 1.214107637,
				"element": "C" 
			},
			{
				"x": 0.2500527749,
				"y": 2.0214372274,
				"z": 1.0693558405,
				"element": "C" 
			},
			{
				"x": 2.5215032034,
				"y": 0.1079446619,
				"z": -1.7011113991,
				"element": "H" 
			},
			{
				"x": 1.5779230272,
				"y": 1.4744877645,
				"z": -1.3298757235,
				"element": "H" 
			},
			{
				"x": -3.6478113043,
				"y": -2.1639521929,
				"z": -0.4730586293,
				"element": "H" 
			},
			{
				"x": -3.5235268676,
				"y": -4.5661182487,
				"z": -1.14462062,
				"element": "H" 
			},
			{
				"x": -1.3562209098,
				"y": -5.5378357975,
				"z": -1.8829360103,
				"element": "H" 
			},
			{
				"x": 0.6891130198,
				"y": -4.1119340206,
				"z": -1.9680569581,
				"element": "H" 
			},
			{
				"x": -2.4660316476,
				"y": 1.5828117651,
				"z": 0.925943962,
				"element": "H" 
			},
			{
				"x": -2.5044689689,
				"y": 2.1493968177,
				"z": -0.7436161378,
				"element": "H" 
			},
			{
				"x": -2.2957052811,
				"y": 3.8808898378,
				"z": 1.4741729741,
				"element": "H" 
			},
			{
				"x": -1.6736053702,
				"y": 4.3205523417,
				"z": -0.1124908657,
				"element": "H" 
			},
			{
				"x": 0.5304774129,
				"y": 4.1246666805,
				"z": 0.6018761617,
				"element": "H" 
			},
			{
				"x": -0.0291562637,
				"y": 3.8406843057,
				"z": 2.2490235897,
				"element": "H" 
			},
			{
				"x": -0.0212298506,
				"y": 1.4614941122,
				"z": 1.9797053855,
				"element": "H" 
			},
			{
				"x": 1.3098913379,
				"y": 1.849808465,
				"z": 0.8767517644,
				"element": "H" 
			}
		],
		 "valence_orbital": [ 
			{
				"type": "occ",
				"energy": -0.28674,
				"method": "rhf"
			},
			{
				"type": "occ",
				"energy": -0.25941,
				"method": "rhf"
			},
			{
				"type": "occ",
				"energy": -0.2407,
				"method": "rhf"
			},
			{
				"type": "occ",
				"energy": -0.21819,
				"method": "rhf"
			},
			{
				"type": "occ",
				"energy": -0.20375,
				"method": "rhf"
			},
			{
				"type": "unocc",
				"energy": -0.04291,
				"method": "rhf"
			},
			{
				"type": "unocc",
				"energy": 0.00113,
				"method": "rhf"
			},
			{
				"type": "unocc",
				"energy": 0.0272,
				"method": "rhf"
			},
			{
				"type": "unocc",
				"energy": 0.07322,
				"method": "rhf"
			},
			{
				"type": "unocc",
				"energy": 0.08968,
				"method": "rhf"
			}
		],
		"cosmo_sigma_profile": { 
			"-0.025": 0.0,
			"-0.024": 0.0,
			"-0.023": 0.0,
			"-0.022": 0.0,
			"-0.021": 0.0,
			"-0.02": 0.0,
			"-0.019": 0.0,
			"-0.018": 0.0,
			"-0.017": 0.0,
			"-0.016": 0.0,
			"-0.015": 0.0,
			"-0.014": 0.0,
			"-0.013": 0.676517384854,
			"-0.012": 1.92337332618,
			"-0.011": 2.11799118132,
			"-0.01": 2.08048448841,
			"-0.009": 1.54985538467,
			"-0.008": 2.33725668908,
			"-0.007": 2.0001357263,
			"-0.006": 4.75865179684,
			"-0.005": 9.55361234091,
			"-0.004": 14.0032420991,
			"-0.003": 29.7308363059,
			"-0.002": 35.814380991,
			"-0.001": 26.6341329818,
			"0.0": 20.2468738773,
			"0.001": 15.3100852993,
			"0.002": 12.0193402504,
			"0.003": 14.0778206743,
			"0.004": 16.5870645572,
			"0.005": 15.0560684449,
			"0.006": 6.79712980091,
			"0.007": 4.3147682929,
			"0.008": 3.78533460569,
			"0.009": 2.81454576052,
			"0.01": 2.53651173933,
			"0.011": 2.13361940292,
			"0.012": 1.86989237298,
			"0.013": 0.733836158482,
			"0.014": 0.788963202405,
			"0.015": 0.15469297613,
			"0.016": 0.0,
			"0.017": 0.0,
			"0.018": 0.0,
			"0.019": 0.0,
			"0.02": 0.0,
			"0.021": 0.0,
			"0.022": 0.0,
			"0.023": 0.0,
			"0.024": 0.0,
			"0.025": 0.0
		}
	}
}
