{
	 "smiles": "CCOC(=O)C1=NNSC1=N", 
	 "Tm": 400.15, 
	 "num_atms": 18, 
	 "gaussian": { 
		 "optdone": 1, 
		 "sigma_profile": "yes", 
		 "theory": "DFT", 
		 "functional": "B3LYP", 
		 "basiset": "6-31G**", 
		 "properties": { 
			 "R2extent": 2624.4749, 
			 "electric_dipole_moment_norm": 2.69277654104, 
			 "electric_quadrupole_moment_norm": 14.5160447309, 
			 "total_energy": -907.577476272, 
			 "HOMO_LUMO_gap": 0.16196, 
			 "cosmo_polarized_energy": -17.43, 
			 "cosmo_cavitation_energy": 24.8, 
			 "cosmo_dispersion_energy": -18.59, 
			 "cosmo_repulsion_energy": 1.48, 
			 "cosmo_total_nonelectrostatic_energy": 7.69, 
			 "SMD_solvation_energy": 3.69 
		},
		"coords": [
			{
				"x": -0.590132564,
				"y": -2.9813767031,
				"z": -1.1732779764,
				"element": "C" 
			},
			{
				"x": -0.6754507776,
				"y": -1.690558024,
				"z": -1.9736601314,
				"element": "C" 
			},
			{
				"x": 0.2184213617,
				"y": -0.6839514304,
				"z": -1.4394715118,
				"element": "O" 
			},
			{
				"x": -0.2474372833,
				"y": 0.0410261019,
				"z": -0.4119804224,
				"element": "C" 
			},
			{
				"x": -1.3590173713,
				"y": -0.0543947201,
				"z": 0.0641899208,
				"element": "O" 
			},
			{
				"x": 0.7700364033,
				"y": 1.0278083943,
				"z": 0.0722432939,
				"element": "C" 
			},
			{
				"x": 0.3212417094,
				"y": 2.0417699424,
				"z": 0.7550770244,
				"element": "N" 
			},
			{
				"x": 1.2765547869,
				"y": 2.8258857803,
				"z": 1.2386476289,
				"element": "N" 
			},
			{
				"x": 2.8901558879,
				"y": 2.47012887,
				"z": 0.6466979752,
				"element": "S" 
			},
			{
				"x": 2.2349348641,
				"y": 0.9651516463,
				"z": -0.1508402514,
				"element": "C" 
			},
			{
				"x": 2.8849487579,
				"y": 0.0456417141,
				"z": -0.7368122208,
				"element": "N" 
			},
			{
				"x": 0.4415743498,
				"y": -3.3414431253,
				"z": -1.1302872212,
				"element": "H" 
			},
			{
				"x": -1.20752163,
				"y": -3.7521557969,
				"z": -1.6467213525,
				"element": "H" 
			},
			{
				"x": -0.9554592048,
				"y": -2.8277097863,
				"z": -0.1549694914,
				"element": "H" 
			},
			{
				"x": -1.6932326613,
				"y": -1.2930454878,
				"z": -1.9794535298,
				"element": "H" 
			},
			{
				"x": -0.3321823624,
				"y": -1.8320953093,
				"z": -3.0007630864,
				"element": "H" 
			},
			{
				"x": 1.0189043215,
				"y": 3.8006406441,
				"z": 1.3437515998,
				"element": "H" 
			},
			{
				"x": 3.8897614122,
				"y": 0.2166772899,
				"z": -0.7679702475,
				"element": "H" 
			}
		],
		 "valence_orbital": [ 
			{
				"type": "occ",
				"energy": -0.30604,
				"method": "rhf"
			},
			{
				"type": "occ",
				"energy": -0.29487,
				"method": "rhf"
			},
			{
				"type": "occ",
				"energy": -0.27521,
				"method": "rhf"
			},
			{
				"type": "occ",
				"energy": -0.26804,
				"method": "rhf"
			},
			{
				"type": "occ",
				"energy": -0.22973,
				"method": "rhf"
			},
			{
				"type": "unocc",
				"energy": -0.06777,
				"method": "rhf"
			},
			{
				"type": "unocc",
				"energy": -0.04531,
				"method": "rhf"
			},
			{
				"type": "unocc",
				"energy": -0.0026,
				"method": "rhf"
			},
			{
				"type": "unocc",
				"energy": 0.0487,
				"method": "rhf"
			},
			{
				"type": "unocc",
				"energy": 0.08481,
				"method": "rhf"
			}
		],
		"cosmo_sigma_profile": { 
			"-0.025": 0.0,
			"-0.024": 0.0,
			"-0.023": 0.0,
			"-0.022": 0.0,
			"-0.021": 0.0,
			"-0.02": 0.0,
			"-0.019": 0.0474159852055,
			"-0.018": 1.31729364498,
			"-0.017": 1.34975051859,
			"-0.016": 1.4077702286,
			"-0.015": 1.4097461795,
			"-0.014": 1.10527999884,
			"-0.013": 2.44808460488,
			"-0.012": 2.47492304429,
			"-0.011": 2.45161999485,
			"-0.01": 1.62222864683,
			"-0.009": 2.14596159163,
			"-0.008": 1.91878705442,
			"-0.007": 2.77294169863,
			"-0.006": 4.85921849162,
			"-0.005": 8.01195552324,
			"-0.004": 14.7678263787,
			"-0.003": 19.4255013415,
			"-0.002": 17.5314218697,
			"-0.001": 17.4745513908,
			"0.0": 16.2515349608,
			"0.001": 10.9937521324,
			"0.002": 8.72537862444,
			"0.003": 8.43943463565,
			"0.004": 7.46979444344,
			"0.005": 4.64249128669,
			"0.006": 4.95845715108,
			"0.007": 3.19080119664,
			"0.008": 3.40065292607,
			"0.009": 3.68088775591,
			"0.01": 3.83837330317,
			"0.011": 5.80941481382,
			"0.012": 5.79662707498,
			"0.013": 3.37974270687,
			"0.014": 1.6596649851,
			"0.015": 1.24301481923,
			"0.016": 1.35390688274,
			"0.017": 0.316297696037,
			"0.018": 0.0,
			"0.019": 0.0,
			"0.02": 0.0,
			"0.021": 0.0,
			"0.022": 0.0,
			"0.023": 0.0,
			"0.024": 0.0,
			"0.025": 0.0
		}
	}
}
