{
	 "smiles": "ClC1=CC2=C(OC(=N2)C2CCNCC2)C=C1", 
	 "Tm": 360.15, 
	 "num_atms": 29, 
	 "gaussian": { 
		 "optdone": 1, 
		 "sigma_profile": "yes", 
		 "theory": "DFT", 
		 "functional": "B3LYP", 
		 "basiset": "6-31G**", 
		 "properties": { 
			 "R2extent": 5132.9907, 
			 "electric_dipole_moment_norm": 3.12376867421, 
			 "electric_quadrupole_moment_norm": 6.3350074554, 
			 "total_energy": -1110.02821374, 
			 "HOMO_LUMO_gap": 0.1712, 
			 "cosmo_polarized_energy": -8.3, 
			 "cosmo_cavitation_energy": 32.63, 
			 "cosmo_dispersion_energy": -24.41, 
			 "cosmo_repulsion_energy": 1.9, 
			 "cosmo_total_nonelectrostatic_energy": 10.11, 
			 "SMD_solvation_energy": 0.82 
		},
		"coords": [
			{
				"x": 2.6795840147,
				"y": 3.2461622853,
				"z": -2.0744400558,
				"element": "Cl" 
			},
			{
				"x": 1.3440148119,
				"y": 2.3045055412,
				"z": -1.420571893,
				"element": "C" 
			},
			{
				"x": 1.6029084146,
				"y": 1.0298510618,
				"z": -0.9206480814,
				"element": "C" 
			},
			{
				"x": 0.507530204,
				"y": 0.3276774483,
				"z": -0.4136430579,
				"element": "C" 
			},
			{
				"x": -0.7684046452,
				"y": 0.9051222017,
				"z": -0.4224032881,
				"element": "C" 
			},
			{
				"x": -1.6347345898,
				"y": -0.0057443334,
				"z": 0.129091875,
				"element": "O" 
			},
			{
				"x": -0.8399373788,
				"y": -1.0884534403,
				"z": 0.4443309559,
				"element": "C" 
			},
			{
				"x": 0.4159433123,
				"y": -0.946123146,
				"z": 0.1502905571,
				"element": "N" 
			},
			{
				"x": -1.5379588029,
				"y": -2.2376639352,
				"z": 1.107760318,
				"element": "C" 
			},
			{
				"x": -0.81972096,
				"y": -3.5952022954,
				"z": 0.8705435111,
				"element": "C" 
			},
			{
				"x": 0.1268812015,
				"y": -3.9618739026,
				"z": 2.0443452571,
				"element": "C" 
			},
			{
				"x": 0.7123425845,
				"y": -2.7996044408,
				"z": 2.7091645566,
				"element": "N" 
			},
			{
				"x": -0.3143993979,
				"y": -1.9613706839,
				"z": 3.3449621529,
				"element": "C" 
			},
			{
				"x": -1.6917681024,
				"y": -1.9806623376,
				"z": 2.629729979,
				"element": "C" 
			},
			{
				"x": -1.0349922108,
				"y": 2.1710276286,
				"z": -0.9198196088,
				"element": "C" 
			},
			{
				"x": 0.0593748815,
				"y": 2.8752665541,
				"z": -1.4269199566,
				"element": "C" 
			},
			{
				"x": 2.5998016431,
				"y": 0.6062441891,
				"z": -0.9249916152,
				"element": "H" 
			},
			{
				"x": -2.5393744004,
				"y": -2.2691573735,
				"z": 0.6645293029,
				"element": "H" 
			},
			{
				"x": -0.2540897938,
				"y": -3.5453088104,
				"z": -0.0643685428,
				"element": "H" 
			},
			{
				"x": -1.5775291264,
				"y": -4.3775687188,
				"z": 0.7440373111,
				"element": "H" 
			},
			{
				"x": -0.4188859744,
				"y": -4.5405822929,
				"z": 2.8008401458,
				"element": "H" 
			},
			{
				"x": 0.9322862885,
				"y": -4.6102168149,
				"z": 1.6838307296,
				"element": "H" 
			},
			{
				"x": 1.198173991,
				"y": -2.2463101022,
				"z": 2.0070854929,
				"element": "H" 
			},
			{
				"x": 0.0722459649,
				"y": -0.937939374,
				"z": 3.3895654007,
				"element": "H" 
			},
			{
				"x": -0.4553944724,
				"y": -2.2859012582,
				"z": 4.3852572765,
				"element": "H" 
			},
			{
				"x": -2.3160945637,
				"y": -2.7882067018,
				"z": 3.0297211248,
				"element": "H" 
			},
			{
				"x": -2.2357892183,
				"y": -1.0475913417,
				"z": 2.8108321683,
				"element": "H" 
			},
			{
				"x": -2.032326911,
				"y": 2.5957558516,
				"z": -0.9173237615,
				"element": "H" 
			},
			{
				"x": -0.0750867644,
				"y": 3.8718685418,
				"z": -1.8309882543,
				"element": "H" 
			}
		],
		 "valence_orbital": [ 
			{
				"type": "occ",
				"energy": -0.31482,
				"method": "rhf"
			},
			{
				"type": "occ",
				"energy": -0.30177,
				"method": "rhf"
			},
			{
				"type": "occ",
				"energy": -0.25337,
				"method": "rhf"
			},
			{
				"type": "occ",
				"energy": -0.24213,
				"method": "rhf"
			},
			{
				"type": "occ",
				"energy": -0.21001,
				"method": "rhf"
			},
			{
				"type": "unocc",
				"energy": -0.03881,
				"method": "rhf"
			},
			{
				"type": "unocc",
				"energy": -0.00769,
				"method": "rhf"
			},
			{
				"type": "unocc",
				"energy": 0.02466,
				"method": "rhf"
			},
			{
				"type": "unocc",
				"energy": 0.02584,
				"method": "rhf"
			},
			{
				"type": "unocc",
				"energy": 0.07713,
				"method": "rhf"
			}
		],
		"cosmo_sigma_profile": { 
			"-0.025": 0.0,
			"-0.024": 0.0,
			"-0.023": 0.0,
			"-0.022": 0.0,
			"-0.021": 0.0,
			"-0.02": 0.0,
			"-0.019": 0.0,
			"-0.018": 0.0,
			"-0.017": 0.0,
			"-0.016": 0.0,
			"-0.015": 0.0,
			"-0.014": 0.0,
			"-0.013": 0.0,
			"-0.012": 0.0,
			"-0.011": 0.0,
			"-0.01": 0.0,
			"-0.009": 0.143521036287,
			"-0.008": 3.15205391585,
			"-0.007": 5.73313231738,
			"-0.006": 5.64772197077,
			"-0.005": 7.42079957907,
			"-0.004": 16.5311166434,
			"-0.003": 34.8262447027,
			"-0.002": 30.9699810869,
			"-0.001": 28.3659134675,
			"0.0": 24.5364544613,
			"0.001": 20.4987620073,
			"0.002": 23.8035394839,
			"0.003": 18.5904857414,
			"0.004": 12.2849363648,
			"0.005": 10.3437341021,
			"0.006": 4.15635665892,
			"0.007": 2.55837803971,
			"0.008": 2.13383364938,
			"0.009": 0.84809912897,
			"0.01": 0.955785339333,
			"0.011": 1.73770830692,
			"0.012": 0.770199518372,
			"0.013": 0.993686150041,
			"0.014": 0.63747634217,
			"0.015": 0.721025297822,
			"0.016": 0.309858875678,
			"0.017": 0.667967997421,
			"0.018": 0.565630037135,
			"0.019": 0.451305991581,
			"0.02": 0.0,
			"0.021": 0.0,
			"0.022": 0.0,
			"0.023": 0.0,
			"0.024": 0.0,
			"0.025": 0.0
		}
	}
}
