{
	 "smiles": "C[Si](C)(C1=CC=CC=C1)[Si](C)(C)C1=CC=CC=C1", 
	 "Tm": 308.65, 
	 "num_atms": 40, 
	 "gaussian": { 
		 "optdone": 1, 
		 "sigma_profile": "yes", 
		 "theory": "DFT", 
		 "functional": "B3LYP", 
		 "basiset": "6-31G**", 
		 "properties": { 
			 "R2extent": 6023.5951, 
			 "electric_dipole_moment_norm": 0.153320383511, 
			 "electric_quadrupole_moment_norm": 7.40266691943, 
			 "total_energy": -1202.02311284, 
			 "HOMO_LUMO_gap": 0.21108, 
			 "cosmo_polarized_energy": -5.95, 
			 "cosmo_cavitation_energy": 45.75, 
			 "cosmo_dispersion_energy": -25.51, 
			 "cosmo_repulsion_energy": 2.15, 
			 "cosmo_total_nonelectrostatic_energy": 22.39, 
			 "SMD_solvation_energy": 9.39 
		},
		"coords": [
			{
				"x": -0.0214048921,
				"y": -0.673792095,
				"z": 2.977014574,
				"element": "C" 
			},
			{
				"x": 0.9929457553,
				"y": 0.3414402575,
				"z": 1.7306906188,
				"element": "Si" 
			},
			{
				"x": 2.2159173558,
				"y": 1.4360513927,
				"z": 2.6926799208,
				"element": "C" 
			},
			{
				"x": -0.1794835523,
				"y": 1.4507893559,
				"z": 0.7306939651,
				"element": "C" 
			},
			{
				"x": -1.4094418012,
				"y": 0.9602217352,
				"z": 0.2491436077,
				"element": "C" 
			},
			{
				"x": -2.268786903,
				"y": 1.7612189457,
				"z": -0.5045436095,
				"element": "C" 
			},
			{
				"x": -1.91783759,
				"y": 3.0804092351,
				"z": -0.7987337453,
				"element": "C" 
			},
			{
				"x": -0.7043905014,
				"y": 3.5901874217,
				"z": -0.3345607176,
				"element": "C" 
			},
			{
				"x": 0.1506105007,
				"y": 2.7832697283,
				"z": 0.4191955554,
				"element": "C" 
			},
			{
				"x": 2.1697926694,
				"y": -1.1027497136,
				"z": 0.2631773709,
				"element": "Si" 
			},
			{
				"x": 3.0497626917,
				"y": -0.0909209694,
				"z": -1.0840193314,
				"element": "C" 
			},
			{
				"x": 3.4764745961,
				"y": -2.0936432635,
				"z": 1.2274046915,
				"element": "C" 
			},
			{
				"x": 0.9554605832,
				"y": -2.3098683273,
				"z": -0.557583368,
				"element": "C" 
			},
			{
				"x": 0.1361316547,
				"y": -1.9008295906,
				"z": -1.6284462088,
				"element": "C" 
			},
			{
				"x": -0.7735088888,
				"y": -2.7751722742,
				"z": -2.2252557032,
				"element": "C" 
			},
			{
				"x": -0.8886905851,
				"y": -4.0879464627,
				"z": -1.7633236624,
				"element": "C" 
			},
			{
				"x": -0.0893850699,
				"y": -4.5176799133,
				"z": -0.703054628,
				"element": "C" 
			},
			{
				"x": 0.8188105969,
				"y": -3.6376559777,
				"z": -0.110593686,
				"element": "C" 
			},
			{
				"x": -0.5889685356,
				"y": -0.0169041395,
				"z": 3.6454666671,
				"element": "H" 
			},
			{
				"x": 0.6336873635,
				"y": -1.2968437242,
				"z": 3.5961369782,
				"element": "H" 
			},
			{
				"x": -0.7312358514,
				"y": -1.340844745,
				"z": 2.4777273676,
				"element": "H" 
			},
			{
				"x": 1.6858033477,
				"y": 2.1443429397,
				"z": 3.3394129052,
				"element": "H" 
			},
			{
				"x": 2.8700002229,
				"y": 2.0127640648,
				"z": 2.0303728306,
				"element": "H" 
			},
			{
				"x": 2.8590177786,
				"y": 0.8205120174,
				"z": 3.3311522492,
				"element": "H" 
			},
			{
				"x": -1.7042791265,
				"y": -0.06424585,
				"z": 0.4625057497,
				"element": "H" 
			},
			{
				"x": -3.212750877,
				"y": 1.3567197185,
				"z": -0.860272199,
				"element": "H" 
			},
			{
				"x": -2.5858409326,
				"y": 3.7063499544,
				"z": -1.3840916564,
				"element": "H" 
			},
			{
				"x": -0.4243319726,
				"y": 4.6166274793,
				"z": -0.5565810668,
				"element": "H" 
			},
			{
				"x": 1.0874623345,
				"y": 3.2056055565,
				"z": 0.7739632484,
				"element": "H" 
			},
			{
				"x": 3.5729711869,
				"y": -0.7484890146,
				"z": -1.7870801475,
				"element": "H" 
			},
			{
				"x": 2.3475202508,
				"y": 0.523504067,
				"z": -1.6561987455,
				"element": "H" 
			},
			{
				"x": 3.7908253366,
				"y": 0.5843538099,
				"z": -0.6418522633,
				"element": "H" 
			},
			{
				"x": 3.0412118158,
				"y": -2.6654210256,
				"z": 2.0536444597,
				"element": "H" 
			},
			{
				"x": 3.9995609996,
				"y": -2.7985349367,
				"z": 0.5713069791,
				"element": "H" 
			},
			{
				"x": 4.2263572048,
				"y": -1.4200334572,
				"z": 1.65640952,
				"element": "H" 
			},
			{
				"x": 0.2051366214,
				"y": -0.8831379132,
				"z": -2.0046452225,
				"element": "H" 
			},
			{
				"x": -1.3906253505,
				"y": -2.4327994336,
				"z": -3.0518002335,
				"element": "H" 
			},
			{
				"x": -1.5951073296,
				"y": -4.7708336389,
				"z": -2.2273444793,
				"element": "H" 
			},
			{
				"x": -0.1705028048,
				"y": -5.538470965,
				"z": -0.338756814,
				"element": "H" 
			},
			{
				"x": 1.4341116976,
				"y": -3.9982502488,
				"z": 0.7099382292,
				"element": "H" 
			}
		],
		 "valence_orbital": [ 
			{
				"type": "occ",
				"energy": -0.2674,
				"method": "rhf"
			},
			{
				"type": "occ",
				"energy": -0.2463,
				"method": "rhf"
			},
			{
				"type": "occ",
				"energy": -0.24575,
				"method": "rhf"
			},
			{
				"type": "occ",
				"energy": -0.2415,
				"method": "rhf"
			},
			{
				"type": "occ",
				"energy": -0.22249,
				"method": "rhf"
			},
			{
				"type": "unocc",
				"energy": -0.01141,
				"method": "rhf"
			},
			{
				"type": "unocc",
				"energy": -0.00565,
				"method": "rhf"
			},
			{
				"type": "unocc",
				"energy": -0.0002,
				"method": "rhf"
			},
			{
				"type": "unocc",
				"energy": 0.00661,
				"method": "rhf"
			},
			{
				"type": "unocc",
				"energy": 0.05195,
				"method": "rhf"
			}
		],
		"cosmo_sigma_profile": { 
			"-0.025": 0.0,
			"-0.024": 0.0,
			"-0.023": 0.0,
			"-0.022": 0.0,
			"-0.021": 0.0,
			"-0.02": 0.0,
			"-0.019": 0.0,
			"-0.018": 0.0,
			"-0.017": 0.0,
			"-0.016": 0.0,
			"-0.015": 0.0,
			"-0.014": 0.0,
			"-0.013": 0.0,
			"-0.012": 0.0,
			"-0.011": 0.0,
			"-0.01": 0.0,
			"-0.009": 0.0,
			"-0.008": 0.0,
			"-0.007": 0.0,
			"-0.006": 2.48891359449,
			"-0.005": 13.6148822581,
			"-0.004": 28.4955794607,
			"-0.003": 42.8644706798,
			"-0.002": 40.5238279408,
			"-0.001": 40.0450213158,
			"0.0": 34.5764045797,
			"0.001": 39.7522671897,
			"0.002": 32.1735450992,
			"0.003": 23.7212417276,
			"0.004": 15.7433364686,
			"0.005": 14.8893584438,
			"0.006": 15.1295522982,
			"0.007": 6.0528224194,
			"0.008": 0.0,
			"0.009": 0.0,
			"0.01": 0.0,
			"0.011": 0.0,
			"0.012": 0.0,
			"0.013": 0.0,
			"0.014": 0.0,
			"0.015": 0.0,
			"0.016": 0.0,
			"0.017": 0.0,
			"0.018": 0.0,
			"0.019": 0.0,
			"0.02": 0.0,
			"0.021": 0.0,
			"0.022": 0.0,
			"0.023": 0.0,
			"0.024": 0.0,
			"0.025": 0.0
		}
	}
}
