{
	 "smiles": "OC1=NC(=NC(=C1)C(F)(F)F)C1=CN=CC=C1", 
	 "Tm": 551.15, 
	 "num_atms": 23, 
	 "gaussian": { 
		 "optdone": 1, 
		 "sigma_profile": "yes", 
		 "theory": "DFT", 
		 "functional": "B3LYP", 
		 "basiset": "6-31G**", 
		 "properties": { 
			 "R2extent": 5228.141, 
			 "electric_dipole_moment_norm": 4.46781383229, 
			 "electric_quadrupole_moment_norm": 10.110883275, 
			 "total_energy": -923.687769154, 
			 "HOMO_LUMO_gap": 0.18038, 
			 "cosmo_polarized_energy": -11.39, 
			 "cosmo_cavitation_energy": 30.28, 
			 "cosmo_dispersion_energy": -21.69, 
			 "cosmo_repulsion_energy": 1.61, 
			 "cosmo_total_nonelectrostatic_energy": 10.2, 
			 "SMD_solvation_energy": 3.61 
		},
		"coords": [
			{
				"x": 1.4438016104,
				"y": 1.9367585542,
				"z": -1.2502601745,
				"element": "O" 
			},
			{
				"x": 1.1476791675,
				"y": 0.8546184776,
				"z": -0.5157514119,
				"element": "C" 
			},
			{
				"x": 0.1543840877,
				"y": 0.072798884,
				"z": -0.9280908251,
				"element": "N" 
			},
			{
				"x": -0.1301152747,
				"y": -1.0089571123,
				"z": -0.1798846196,
				"element": "C" 
			},
			{
				"x": 0.5135557181,
				"y": -1.3530980384,
				"z": 0.9463275278,
				"element": "N" 
			},
			{
				"x": 1.5045997366,
				"y": -0.5484590979,
				"z": 1.3328760714,
				"element": "C" 
			},
			{
				"x": 1.8879399737,
				"y": 0.5926091499,
				"z": 0.6445334852,
				"element": "C" 
			},
			{
				"x": 2.2477445597,
				"y": -0.9211156098,
				"z": 2.6079342253,
				"element": "C" 
			},
			{
				"x": 2.1541535088,
				"y": 0.0803412573,
				"z": 3.5109902588,
				"element": "F" 
			},
			{
				"x": 1.7800990065,
				"y": -2.0373739789,
				"z": 3.1701305409,
				"element": "F" 
			},
			{
				"x": 3.5623234787,
				"y": -1.0961592681,
				"z": 2.3463710397,
				"element": "F" 
			},
			{
				"x": -1.2344801935,
				"y": -1.8839366426,
				"z": -0.632284741,
				"element": "C" 
			},
			{
				"x": -1.5886477475,
				"y": -3.0312137937,
				"z": 0.0982185084,
				"element": "C" 
			},
			{
				"x": -2.5739679985,
				"y": -3.8615937988,
				"z": -0.2551862193,
				"element": "N" 
			},
			{
				"x": -3.2545830735,
				"y": -3.5714041388,
				"z": -1.3719498038,
				"element": "C" 
			},
			{
				"x": -2.9877495033,
				"y": -2.4588411791,
				"z": -2.173012547,
				"element": "C" 
			},
			{
				"x": -1.9604253783,
				"y": -1.6006963844,
				"z": -1.7968426446,
				"element": "C" 
			},
			{
				"x": 0.8276912846,
				"y": 1.9419705078,
				"z": -2.0010698484,
				"element": "H" 
			},
			{
				"x": 2.6936569741,
				"y": 1.2391475855,
				"z": 0.9665680228,
				"element": "H" 
			},
			{
				"x": -1.0419913544,
				"y": -3.2738328808,
				"z": 1.0048332989,
				"element": "H" 
			},
			{
				"x": -4.0523108667,
				"y": -4.2624263079,
				"z": -1.6391325442,
				"element": "H" 
			},
			{
				"x": -3.5731077862,
				"y": -2.2738832461,
				"z": -3.0681682538,
				"element": "H" 
			},
			{
				"x": -1.71074993,
				"y": -0.7225529388,
				"z": -2.381849346,
				"element": "H" 
			}
		],
		 "valence_orbital": [ 
			{
				"type": "occ",
				"energy": -0.29786,
				"method": "rhf"
			},
			{
				"type": "occ",
				"energy": -0.28696,
				"method": "rhf"
			},
			{
				"type": "occ",
				"energy": -0.28245,
				"method": "rhf"
			},
			{
				"type": "occ",
				"energy": -0.2573,
				"method": "rhf"
			},
			{
				"type": "occ",
				"energy": -0.25609,
				"method": "rhf"
			},
			{
				"type": "unocc",
				"energy": -0.07571,
				"method": "rhf"
			},
			{
				"type": "unocc",
				"energy": -0.05013,
				"method": "rhf"
			},
			{
				"type": "unocc",
				"energy": -0.02527,
				"method": "rhf"
			},
			{
				"type": "unocc",
				"energy": 0.01099,
				"method": "rhf"
			},
			{
				"type": "unocc",
				"energy": 0.06381,
				"method": "rhf"
			}
		],
		"cosmo_sigma_profile": { 
			"-0.025": 0.0,
			"-0.024": 0.0,
			"-0.023": 0.0,
			"-0.022": 0.0,
			"-0.021": 0.0,
			"-0.02": 0.0,
			"-0.019": 0.143764945102,
			"-0.018": 0.986528576521,
			"-0.017": 0.68634259909,
			"-0.016": 0.567894132822,
			"-0.015": 0.905896007119,
			"-0.014": 0.290601703946,
			"-0.013": 0.734163533173,
			"-0.012": 1.07446847279,
			"-0.011": 0.69927772901,
			"-0.01": 1.05543808417,
			"-0.009": 2.0635239167,
			"-0.008": 2.15619023985,
			"-0.007": 7.11457101992,
			"-0.006": 9.17685889791,
			"-0.005": 9.13151665898,
			"-0.004": 10.6157832386,
			"-0.003": 14.8097411168,
			"-0.002": 17.0207137342,
			"-0.001": 19.684942987,
			"0.0": 22.2054335315,
			"0.001": 28.7401480049,
			"0.002": 38.3499227417,
			"0.003": 19.8087238183,
			"0.004": 8.12846156391,
			"0.005": 5.31144715812,
			"0.006": 5.24000616639,
			"0.007": 4.17049385218,
			"0.008": 4.60186875329,
			"0.009": 2.67843923121,
			"0.01": 1.12546981353,
			"0.011": 1.10244876279,
			"0.012": 0.778671331223,
			"0.013": 0.792945168707,
			"0.014": 0.898437329258,
			"0.015": 1.04011794121,
			"0.016": 0.576276029835,
			"0.017": 0.184744054252,
			"0.018": 0.0,
			"0.019": 0.0,
			"0.02": 0.0,
			"0.021": 0.0,
			"0.022": 0.0,
			"0.023": 0.0,
			"0.024": 0.0,
			"0.025": 0.0
		}
	}
}
