{
	 "smiles": "CC1=CC=C(C=CC2=NC3=C(C=C(Br)C=C3)C(=C2)C(O)=O)C=C1", 
	 "Tm": 580.15, 
	 "num_atms": 37, 
	 "gaussian": { 
		 "optdone": 1, 
		 "sigma_profile": "yes", 
		 "theory": "DFT", 
		 "functional": "B3LYP", 
		 "basiset": "6-31G**", 
		 "properties": { 
			 "R2extent": 13882.6176, 
			 "electric_dipole_moment_norm": 4.03263587496, 
			 "electric_quadrupole_moment_norm": 13.1636316106, 
			 "total_energy": -3509.08068358, 
			 "HOMO_LUMO_gap": 0.13159, 
			 "cosmo_polarized_energy": -12.23, 
			 "cosmo_cavitation_energy": 44.22, 
			 "cosmo_dispersion_energy": -31.22, 
			 "cosmo_repulsion_energy": 2.38, 
			 "cosmo_total_nonelectrostatic_energy": 15.38, 
			 "SMD_solvation_energy": 5.7 
		},
		"coords": [
			{
				"x": 5.0184095101,
				"y": 1.7329492532,
				"z": 1.844878507,
				"element": "C" 
			},
			{
				"x": 3.9674792846,
				"y": 1.7976371356,
				"z": 0.7629636188,
				"element": "C" 
			},
			{
				"x": 3.1585204157,
				"y": 0.6892346374,
				"z": 0.473495798,
				"element": "C" 
			},
			{
				"x": 2.1690003426,
				"y": 0.7506547892,
				"z": -0.5033131641,
				"element": "C" 
			},
			{
				"x": 1.9451178144,
				"y": 1.9328867476,
				"z": -1.2324524006,
				"element": "C" 
			},
			{
				"x": 0.947083091,
				"y": 2.033293468,
				"z": -2.311044958,
				"element": "C" 
			},
			{
				"x": -0.277077958,
				"y": 1.478182654,
				"z": -2.4369922999,
				"element": "C" 
			},
			{
				"x": -1.0926734986,
				"y": 0.7113758124,
				"z": -1.4788954513,
				"element": "C" 
			},
			{
				"x": -1.9929412754,
				"y": -0.1014623214,
				"z": -2.0186822061,
				"element": "N" 
			},
			{
				"x": -2.8128556521,
				"y": -0.814919475,
				"z": -1.2025875373,
				"element": "C" 
			},
			{
				"x": -2.7849323312,
				"y": -0.7244099079,
				"z": 0.2297991813,
				"element": "C" 
			},
			{
				"x": -3.6868569145,
				"y": -1.521325553,
				"z": 0.9826471831,
				"element": "C" 
			},
			{
				"x": -4.5638439064,
				"y": -2.3572439109,
				"z": 0.3282686838,
				"element": "C" 
			},
			{
				"x": -5.7734082071,
				"y": -3.4297882928,
				"z": 1.3468257373,
				"element": "Br" 
			},
			{
				"x": -4.6068572858,
				"y": -2.4547383764,
				"z": -1.0805798941,
				"element": "C" 
			},
			{
				"x": -3.7425831193,
				"y": -1.6903686062,
				"z": -1.8264670193,
				"element": "C" 
			},
			{
				"x": -1.8346240983,
				"y": 0.1999665468,
				"z": 0.7850445761,
				"element": "C" 
			},
			{
				"x": -1.0066068197,
				"y": 0.8982119125,
				"z": -0.0686776769,
				"element": "C" 
			},
			{
				"x": -1.7208333837,
				"y": 0.435740677,
				"z": 2.2570787797,
				"element": "C" 
			},
			{
				"x": -0.8259291914,
				"y": 1.4075521766,
				"z": 2.5604610643,
				"element": "O" 
			},
			{
				"x": -2.3334501124,
				"y": -0.1486872127,
				"z": 3.1300875147,
				"element": "O" 
			},
			{
				"x": 2.7794646988,
				"y": 3.0325188046,
				"z": -0.9636897524,
				"element": "C" 
			},
			{
				"x": 3.7618163103,
				"y": 2.9684898558,
				"z": 0.0208701078,
				"element": "C" 
			},
			{
				"x": 5.4471306206,
				"y": 0.729553512,
				"z": 1.9277906857,
				"element": "H" 
			},
			{
				"x": 5.8343167127,
				"y": 2.4363600739,
				"z": 1.6541467772,
				"element": "H" 
			},
			{
				"x": 4.5935343095,
				"y": 1.9854825731,
				"z": 2.8248257583,
				"element": "H" 
			},
			{
				"x": 3.3161811814,
				"y": -0.2417255097,
				"z": 1.0127510576,
				"element": "H" 
			},
			{
				"x": 1.5805177909,
				"y": -0.1336895134,
				"z": -0.7254194064,
				"element": "H" 
			},
			{
				"x": 1.2711813309,
				"y": 2.6426830554,
				"z": -3.1545683833,
				"element": "H" 
			},
			{
				"x": -0.7808153799,
				"y": 1.6029140359,
				"z": -3.3926201973,
				"element": "H" 
			},
			{
				"x": -3.6740848221,
				"y": -1.4635217854,
				"z": 2.0609102937,
				"element": "H" 
			},
			{
				"x": -5.3142465441,
				"y": -3.1254075612,
				"z": -1.5545457248,
				"element": "H" 
			},
			{
				"x": -3.7381625336,
				"y": -1.732146455,
				"z": -2.9103648352,
				"element": "H" 
			},
			{
				"x": -0.2956654895,
				"y": 1.6063997566,
				"z": 0.3327540258,
				"element": "H" 
			},
			{
				"x": -0.8293197665,
				"y": 1.4716890315,
				"z": 3.5295442776,
				"element": "H" 
			},
			{
				"x": 2.6490837817,
				"y": 3.9494705743,
				"z": -1.5330139389,
				"element": "H" 
			},
			{
				"x": 4.3860310944,
				"y": 3.8382873979,
				"z": 0.2105712183,
				"element": "H" 
			}
		],
		 "valence_orbital": [ 
			{
				"type": "occ",
				"energy": -0.26248,
				"method": "rhf"
			},
			{
				"type": "occ",
				"energy": -0.25969,
				"method": "rhf"
			},
			{
				"type": "occ",
				"energy": -0.25419,
				"method": "rhf"
			},
			{
				"type": "occ",
				"energy": -0.24154,
				"method": "rhf"
			},
			{
				"type": "occ",
				"energy": -0.21736,
				"method": "rhf"
			},
			{
				"type": "unocc",
				"energy": -0.08577,
				"method": "rhf"
			},
			{
				"type": "unocc",
				"energy": -0.05333,
				"method": "rhf"
			},
			{
				"type": "unocc",
				"energy": -0.01574,
				"method": "rhf"
			},
			{
				"type": "unocc",
				"energy": -0.00967,
				"method": "rhf"
			},
			{
				"type": "unocc",
				"energy": -0.00617,
				"method": "rhf"
			}
		],
		"cosmo_sigma_profile": { 
			"-0.025": 0.0,
			"-0.024": 0.0,
			"-0.023": 0.0,
			"-0.022": 0.0,
			"-0.021": 0.0,
			"-0.02": 0.0,
			"-0.019": 0.400620621776,
			"-0.018": 0.673211789309,
			"-0.017": 0.868733506899,
			"-0.016": 1.03471894854,
			"-0.015": 0.530941664479,
			"-0.014": 1.06687791768,
			"-0.013": 0.486132695492,
			"-0.012": 0.737576997135,
			"-0.011": 0.676025184533,
			"-0.01": 0.440806496221,
			"-0.009": 0.515919788766,
			"-0.008": 1.36346130914,
			"-0.007": 4.38391635673,
			"-0.006": 9.89268838375,
			"-0.005": 19.1012173769,
			"-0.004": 26.4444749009,
			"-0.003": 27.4353050452,
			"-0.002": 26.4810097527,
			"-0.001": 34.4567227525,
			"0.0": 37.9765447165,
			"0.001": 36.1489848072,
			"0.002": 34.7907381148,
			"0.003": 25.2318052845,
			"0.004": 26.3265471204,
			"0.005": 17.0199002956,
			"0.006": 6.44686160069,
			"0.007": 3.06336886031,
			"0.008": 2.76108666658,
			"0.009": 2.73540708438,
			"0.01": 3.27475222876,
			"0.011": 3.23604234458,
			"0.012": 1.08573609406,
			"0.013": 0.657450581774,
			"0.014": 0.452841587746,
			"0.015": 0.00603915431696,
			"0.016": 0.0,
			"0.017": 0.0,
			"0.018": 0.0,
			"0.019": 0.0,
			"0.02": 0.0,
			"0.021": 0.0,
			"0.022": 0.0,
			"0.023": 0.0,
			"0.024": 0.0,
			"0.025": 0.0
		}
	}
}
