{
	 "smiles": "COC(=O)C1=CC(=CC=C1)C1=NC=NO1", 
	 "Tm": 375.15, 
	 "num_atms": 23, 
	 "gaussian": { 
		 "optdone": 1, 
		 "sigma_profile": "yes", 
		 "theory": "DFT", 
		 "functional": "B3LYP", 
		 "basiset": "6-31G**", 
		 "properties": { 
			 "R2extent": 4154.49, 
			 "electric_dipole_moment_norm": 0.603141053154, 
			 "electric_quadrupole_moment_norm": 15.9712925576, 
			 "total_energy": -721.030246111, 
			 "HOMO_LUMO_gap": 0.18888, 
			 "cosmo_polarized_energy": -10.53, 
			 "cosmo_cavitation_energy": 28.97, 
			 "cosmo_dispersion_energy": -21.23, 
			 "cosmo_repulsion_energy": 1.64, 
			 "cosmo_total_nonelectrostatic_energy": 9.38, 
			 "SMD_solvation_energy": 5.12 
		},
		"coords": [
			{
				"x": 0.7184894401,
				"y": 0.421038949,
				"z": 4.31459776,
				"element": "C" 
			},
			{
				"x": 0.2645754362,
				"y": 0.1761616858,
				"z": 2.9731800364,
				"element": "O" 
			},
			{
				"x": 1.1539321492,
				"y": 0.4685641871,
				"z": 2.0007210359,
				"element": "C" 
			},
			{
				"x": 2.2653184018,
				"y": 0.9086191446,
				"z": 2.2201874451,
				"element": "O" 
			},
			{
				"x": 0.6168331135,
				"y": 0.190195377,
				"z": 0.6354228352,
				"element": "C" 
			},
			{
				"x": -0.6697278996,
				"y": -0.3164143733,
				"z": 0.4301724191,
				"element": "C" 
			},
			{
				"x": -1.1204725255,
				"y": -0.5583767051,
				"z": -0.8741834832,
				"element": "C" 
			},
			{
				"x": -0.2817853306,
				"y": -0.2924253682,
				"z": -1.9691047081,
				"element": "C" 
			},
			{
				"x": 0.9987257239,
				"y": 0.2122219215,
				"z": -1.7571063077,
				"element": "C" 
			},
			{
				"x": 1.4498441648,
				"y": 0.4539505301,
				"z": -0.4603891833,
				"element": "C" 
			},
			{
				"x": -2.4600278477,
				"y": -1.0876063923,
				"z": -1.1205876189,
				"element": "C" 
			},
			{
				"x": -3.0182664665,
				"y": -1.3632510009,
				"z": -2.2723962351,
				"element": "N" 
			},
			{
				"x": -4.2515396122,
				"y": -1.8183818206,
				"z": -1.8878416677,
				"element": "C" 
			},
			{
				"x": -4.4738307336,
				"y": -1.8365421048,
				"z": -0.5987009598,
				"element": "N" 
			},
			{
				"x": -3.2668257756,
				"y": -1.34360439,
				"z": -0.0726686744,
				"element": "O" 
			},
			{
				"x": -0.1104425899,
				"y": 0.1348005275,
				"z": 4.961266828,
				"element": "H" 
			},
			{
				"x": 1.6045633423,
				"y": -0.1792699903,
				"z": 4.5350777499,
				"element": "H" 
			},
			{
				"x": 0.9654672817,
				"y": 1.4769976151,
				"z": 4.4489880746,
				"element": "H" 
			},
			{
				"x": -1.3127234933,
				"y": -0.5199380726,
				"z": 1.2774720849,
				"element": "H" 
			},
			{
				"x": -0.6495859571,
				"y": -0.4866144049,
				"z": -2.9709519487,
				"element": "H" 
			},
			{
				"x": 1.6455598282,
				"y": 0.4172135708,
				"z": -2.6043527886,
				"element": "H" 
			},
			{
				"x": 2.4430677585,
				"y": 0.8466944828,
				"z": -0.2710843797,
				"element": "H" 
			},
			{
				"x": -5.0091484086,
				"y": -2.1471333683,
				"z": -2.586818314,
				"element": "H" 
			}
		],
		 "valence_orbital": [ 
			{
				"type": "occ",
				"energy": -0.30937,
				"method": "rhf"
			},
			{
				"type": "occ",
				"energy": -0.30448,
				"method": "rhf"
			},
			{
				"type": "occ",
				"energy": -0.28304,
				"method": "rhf"
			},
			{
				"type": "occ",
				"energy": -0.27622,
				"method": "rhf"
			},
			{
				"type": "occ",
				"energy": -0.25882,
				"method": "rhf"
			},
			{
				"type": "unocc",
				"energy": -0.06994,
				"method": "rhf"
			},
			{
				"type": "unocc",
				"energy": -0.05325,
				"method": "rhf"
			},
			{
				"type": "unocc",
				"energy": 0.00492,
				"method": "rhf"
			},
			{
				"type": "unocc",
				"energy": 0.02969,
				"method": "rhf"
			},
			{
				"type": "unocc",
				"energy": 0.07596,
				"method": "rhf"
			}
		],
		"cosmo_sigma_profile": { 
			"-0.025": 0.0,
			"-0.024": 0.0,
			"-0.023": 0.0,
			"-0.022": 0.0,
			"-0.021": 0.0,
			"-0.02": 0.0,
			"-0.019": 0.0,
			"-0.018": 0.0,
			"-0.017": 0.0,
			"-0.016": 0.0,
			"-0.015": 0.0,
			"-0.014": 0.0,
			"-0.013": 0.0,
			"-0.012": 0.0,
			"-0.011": 1.20652225363,
			"-0.01": 1.93105103799,
			"-0.009": 1.77579495238,
			"-0.008": 1.82232238957,
			"-0.007": 7.49095234317,
			"-0.006": 11.5175073186,
			"-0.005": 15.1003909875,
			"-0.004": 18.5371705998,
			"-0.003": 21.4488225553,
			"-0.002": 19.9248382694,
			"-0.001": 18.7194968444,
			"0.0": 20.0512523743,
			"0.001": 21.7739375111,
			"0.002": 14.6228437557,
			"0.003": 7.63134881832,
			"0.004": 8.47936692848,
			"0.005": 7.50650451051,
			"0.006": 5.77168606736,
			"0.007": 4.18899771003,
			"0.008": 3.78873889334,
			"0.009": 4.21274402696,
			"0.01": 4.51295347341,
			"0.011": 5.88064021317,
			"0.012": 4.97074025575,
			"0.013": 0.800638750896,
			"0.014": 0.0,
			"0.015": 0.0,
			"0.016": 0.0,
			"0.017": 0.0,
			"0.018": 0.0,
			"0.019": 0.0,
			"0.02": 0.0,
			"0.021": 0.0,
			"0.022": 0.0,
			"0.023": 0.0,
			"0.024": 0.0,
			"0.025": 0.0
		}
	}
}
