{
	 "smiles": "CCC(=N/O)C1CC2(C)CCC1C2(C)C", 
	 "Tm": 365.65, 
	 "num_atms": 38, 
	 "gaussian": { 
		 "optdone": 1, 
		 "sigma_profile": "yes", 
		 "theory": "DFT", 
		 "functional": "B3LYP", 
		 "basiset": "6-31G**", 
		 "properties": { 
			 "R2extent": 3933.7232, 
			 "electric_dipole_moment_norm": 0.393081073063, 
			 "electric_quadrupole_moment_norm": 4.52298523876, 
			 "total_energy": -639.176153577, 
			 "HOMO_LUMO_gap": 0.25216, 
			 "cosmo_polarized_energy": -6.49, 
			 "cosmo_cavitation_energy": 35.13, 
			 "cosmo_dispersion_energy": -24.63, 
			 "cosmo_repulsion_energy": 1.92, 
			 "cosmo_total_nonelectrostatic_energy": 12.42, 
			 "SMD_solvation_energy": 5.8 
		},
		"coords": [
			{
				"x": -3.2472692537,
				"y": -2.1657975006,
				"z": -0.9305566139,
				"element": "C" 
			},
			{
				"x": -1.7644452383,
				"y": -1.859239206,
				"z": -0.6442128068,
				"element": "C" 
			},
			{
				"x": -1.5894257525,
				"y": -0.5800615985,
				"z": 0.1470436242,
				"element": "C" 
			},
			{
				"x": -1.7720267067,
				"y": -0.4937119586,
				"z": 1.4134751169,
				"element": "N" 
			},
			{
				"x": -2.1230285165,
				"y": -1.7433215961,
				"z": 1.9809033268,
				"element": "O" 
			},
			{
				"x": -1.2756979561,
				"y": 0.6925880484,
				"z": -0.6126750232,
				"element": "C" 
			},
			{
				"x": 0.0459002566,
				"y": 0.648916423,
				"z": -1.4626257391,
				"element": "C" 
			},
			{
				"x": 0.7394225504,
				"y": 1.9982741822,
				"z": -1.1358716974,
				"element": "C" 
			},
			{
				"x": 2.1937379349,
				"y": 2.0647207159,
				"z": -1.5869054471,
				"element": "C" 
			},
			{
				"x": -0.1621898103,
				"y": 3.1131282222,
				"z": -1.7418209631,
				"element": "C" 
			},
			{
				"x": -1.4015034553,
				"y": 3.1525465495,
				"z": -0.7929278897,
				"element": "C" 
			},
			{
				"x": -1.1046582594,
				"y": 2.0063736935,
				"z": 0.2038364942,
				"element": "C" 
			},
			{
				"x": 0.4413075381,
				"y": 2.1392452552,
				"z": 0.4029925016,
				"element": "C" 
			},
			{
				"x": 1.0873139016,
				"y": 1.0511414184,
				"z": 1.2801054957,
				"element": "C" 
			},
			{
				"x": 0.8688796567,
				"y": 3.490635932,
				"z": 1.0109029894,
				"element": "C" 
			},
			{
				"x": -3.7187309202,
				"y": -1.3602832071,
				"z": -1.5036815172,
				"element": "H" 
			},
			{
				"x": -3.7970205541,
				"y": -2.2879264598,
				"z": 0.0054214792,
				"element": "H" 
			},
			{
				"x": -3.3433600199,
				"y": -3.0890956539,
				"z": -1.5108294253,
				"element": "H" 
			},
			{
				"x": -1.214238283,
				"y": -1.7791838875,
				"z": -1.5874146888,
				"element": "H" 
			},
			{
				"x": -1.3309474785,
				"y": -2.6876841395,
				"z": -0.0758665332,
				"element": "H" 
			},
			{
				"x": -2.1939729875,
				"y": -1.5190397781,
				"z": 2.9175302424,
				"element": "H" 
			},
			{
				"x": -2.1234493155,
				"y": 0.8159835943,
				"z": -1.3024311537,
				"element": "H" 
			},
			{
				"x": 0.6822909157,
				"y": -0.1950085548,
				"z": -1.1776525281,
				"element": "H" 
			},
			{
				"x": -0.1514083522,
				"y": 0.5497378062,
				"z": -2.5353491091,
				"element": "H" 
			},
			{
				"x": 2.2724218332,
				"y": 1.9576134183,
				"z": -2.6753305532,
				"element": "H" 
			},
			{
				"x": 2.7937704873,
				"y": 1.2669878255,
				"z": -1.135183371,
				"element": "H" 
			},
			{
				"x": 2.65201216,
				"y": 3.0234225367,
				"z": -1.3195767106,
				"element": "H" 
			},
			{
				"x": 0.3620292741,
				"y": 4.0740946098,
				"z": -1.7630032161,
				"element": "H" 
			},
			{
				"x": -0.4316174168,
				"y": 2.8813618243,
				"z": -2.7781635896,
				"element": "H" 
			},
			{
				"x": -1.4863703535,
				"y": 4.1157704892,
				"z": -0.282148927,
				"element": "H" 
			},
			{
				"x": -2.3454397608,
				"y": 2.9947318413,
				"z": -1.3244759347,
				"element": "H" 
			},
			{
				"x": -1.7020120263,
				"y": 2.0314402543,
				"z": 1.1166352173,
				"element": "H" 
			},
			{
				"x": 0.7213402822,
				"y": 1.1303090063,
				"z": 2.3087928039,
				"element": "H" 
			},
			{
				"x": 2.1753136623,
				"y": 1.1835686445,
				"z": 1.3059669579,
				"element": "H" 
			},
			{
				"x": 0.8822301892,
				"y": 0.0331119235,
				"z": 0.9517820496,
				"element": "H" 
			},
			{
				"x": 0.5271189983,
				"y": 4.3621654674,
				"z": 0.4499833591,
				"element": "H" 
			},
			{
				"x": 0.4805735556,
				"y": 3.5834179381,
				"z": 2.0316307775,
				"element": "H" 
			},
			{
				"x": 1.9609492209,
				"y": 3.5519659207,
				"z": 1.0756010024,
				"element": "H" 
			}
		],
		 "valence_orbital": [ 
			{
				"type": "occ",
				"energy": -0.30244,
				"method": "rhf"
			},
			{
				"type": "occ",
				"energy": -0.28769,
				"method": "rhf"
			},
			{
				"type": "occ",
				"energy": -0.27512,
				"method": "rhf"
			},
			{
				"type": "occ",
				"energy": -0.25705,
				"method": "rhf"
			},
			{
				"type": "occ",
				"energy": -0.23667,
				"method": "rhf"
			},
			{
				"type": "unocc",
				"energy": 0.01549,
				"method": "rhf"
			},
			{
				"type": "unocc",
				"energy": 0.07545,
				"method": "rhf"
			},
			{
				"type": "unocc",
				"energy": 0.07919,
				"method": "rhf"
			},
			{
				"type": "unocc",
				"energy": 0.09071,
				"method": "rhf"
			},
			{
				"type": "unocc",
				"energy": 0.10597,
				"method": "rhf"
			}
		],
		"cosmo_sigma_profile": { 
			"-0.025": 0.0,
			"-0.024": 0.0,
			"-0.023": 0.0,
			"-0.022": 0.0,
			"-0.021": 0.0,
			"-0.02": 0.0,
			"-0.019": 0.0,
			"-0.018": 0.0,
			"-0.017": 0.131719000191,
			"-0.016": 1.08676856134,
			"-0.015": 0.788484231153,
			"-0.014": 0.668946141343,
			"-0.013": 0.687940565508,
			"-0.012": 0.88705038993,
			"-0.011": 0.950532850271,
			"-0.01": 0.544750688261,
			"-0.009": 0.334787209112,
			"-0.008": 0.612476633921,
			"-0.007": 0.829939262905,
			"-0.006": 0.375285871108,
			"-0.005": 0.701013539287,
			"-0.004": 2.8478027648,
			"-0.003": 21.635071806,
			"-0.002": 44.8544019954,
			"-0.001": 49.3673709838,
			"0.0": 41.5633892769,
			"0.001": 39.720874072,
			"0.002": 25.9595858931,
			"0.003": 5.75185170005,
			"0.004": 4.43435555094,
			"0.005": 3.32829200395,
			"0.006": 4.71656140608,
			"0.007": 5.44505617579,
			"0.008": 3.93476957534,
			"0.009": 2.94385547725,
			"0.01": 2.88902207778,
			"0.011": 1.08990038258,
			"0.012": 0.383013903199,
			"0.013": 0.0664030546717,
			"0.014": 0.0,
			"0.015": 0.0,
			"0.016": 0.0,
			"0.017": 0.0,
			"0.018": 0.0,
			"0.019": 0.0,
			"0.02": 0.0,
			"0.021": 0.0,
			"0.022": 0.0,
			"0.023": 0.0,
			"0.024": 0.0,
			"0.025": 0.0
		}
	}
}
