{
	 "smiles": "COC(=O)CNC(=O)C1=CC(N)=CC=C1", 
	 "Tm": 377.15, 
	 "num_atms": 27, 
	 "gaussian": { 
		 "optdone": 1, 
		 "sigma_profile": "yes", 
		 "theory": "DFT", 
		 "functional": "B3LYP", 
		 "basiset": "6-31G**", 
		 "properties": { 
			 "R2extent": 4733.2315, 
			 "electric_dipole_moment_norm": 6.94960191738, 
			 "electric_quadrupole_moment_norm": 8.86253140023, 
			 "total_energy": -723.48991198, 
			 "HOMO_LUMO_gap": 0.18061, 
			 "cosmo_polarized_energy": -20.4, 
			 "cosmo_cavitation_energy": 31.92, 
			 "cosmo_dispersion_energy": -22.87, 
			 "cosmo_repulsion_energy": 1.83, 
			 "cosmo_total_nonelectrostatic_energy": 10.87, 
			 "SMD_solvation_energy": 6.83 
		},
		"coords": [
			{
				"x": 0.2767882155,
				"y": 3.2002543908,
				"z": -2.7981945639,
				"element": "C" 
			},
			{
				"x": 0.6628817008,
				"y": 2.0154901403,
				"z": -2.0751742498,
				"element": "O" 
			},
			{
				"x": -0.303985765,
				"y": 1.4526153099,
				"z": -1.3309961036,
				"element": "C" 
			},
			{
				"x": -1.4363067303,
				"y": 1.8743410589,
				"z": -1.2413539957,
				"element": "O" 
			},
			{
				"x": 0.2115378037,
				"y": 0.1943083705,
				"z": -0.6453604057,
				"element": "C" 
			},
			{
				"x": -0.8143382945,
				"y": -0.3475841215,
				"z": 0.2212454422,
				"element": "N" 
			},
			{
				"x": -0.6487849356,
				"y": -0.8162922503,
				"z": 1.5104396619,
				"element": "C" 
			},
			{
				"x": -1.5822764314,
				"y": -0.7957103723,
				"z": 2.3040354415,
				"element": "O" 
			},
			{
				"x": 0.6890762455,
				"y": -1.3817136834,
				"z": 1.8982583439,
				"element": "C" 
			},
			{
				"x": 1.475330903,
				"y": -2.124990959,
				"z": 1.0112546172,
				"element": "C" 
			},
			{
				"x": 2.6910166526,
				"y": -2.6924144857,
				"z": 1.4291075467,
				"element": "C" 
			},
			{
				"x": 3.4334884433,
				"y": -3.4984105755,
				"z": 0.564528247,
				"element": "N" 
			},
			{
				"x": 3.1103241404,
				"y": -2.481806984,
				"z": 2.7538391748,
				"element": "C" 
			},
			{
				"x": 2.3196439762,
				"y": -1.7478110488,
				"z": 3.6361322418,
				"element": "C" 
			},
			{
				"x": 1.1044471204,
				"y": -1.2049632349,
				"z": 3.2246302307,
				"element": "C" 
			},
			{
				"x": -0.0519090324,
				"y": 3.9793665755,
				"z": -2.1066244263,
				"element": "H" 
			},
			{
				"x": 1.1684610577,
				"y": 3.516991752,
				"z": -3.338121032,
				"element": "H" 
			},
			{
				"x": -0.5356356496,
				"y": 2.9760193062,
				"z": -3.4934025337,
				"element": "H" 
			},
			{
				"x": 1.1234884263,
				"y": 0.4403659852,
				"z": -0.0932941993,
				"element": "H" 
			},
			{
				"x": 0.5110214295,
				"y": -0.5019612957,
				"z": -1.4425778002,
				"element": "H" 
			},
			{
				"x": -1.7282476004,
				"y": 0.0734924303,
				"z": 0.0818233093,
				"element": "H" 
			},
			{
				"x": 1.1282866453,
				"y": -2.3068662326,
				"z": -0.002236579,
				"element": "H" 
			},
			{
				"x": 3.2882939445,
				"y": -3.3287602215,
				"z": -0.4208758784,
				"element": "H" 
			},
			{
				"x": 4.4134226429,
				"y": -3.5902117762,
				"z": 0.793229653,
				"element": "H" 
			},
			{
				"x": 4.0511294157,
				"y": -2.910305477,
				"z": 3.0910336099,
				"element": "H" 
			},
			{
				"x": 2.6580087929,
				"y": -1.6040448008,
				"z": 4.6584147212,
				"element": "H" 
			},
			{
				"x": 0.467336883,
				"y": -0.6547978004,
				"z": 3.9073395265,
				"element": "H" 
			}
		],
		 "valence_orbital": [ 
			{
				"type": "occ",
				"energy": -0.29478,
				"method": "rhf"
			},
			{
				"type": "occ",
				"energy": -0.25604,
				"method": "rhf"
			},
			{
				"type": "occ",
				"energy": -0.25295,
				"method": "rhf"
			},
			{
				"type": "occ",
				"energy": -0.23788,
				"method": "rhf"
			},
			{
				"type": "occ",
				"energy": -0.20743,
				"method": "rhf"
			},
			{
				"type": "unocc",
				"energy": -0.02682,
				"method": "rhf"
			},
			{
				"type": "unocc",
				"energy": -0.00361,
				"method": "rhf"
			},
			{
				"type": "unocc",
				"energy": 0.0095,
				"method": "rhf"
			},
			{
				"type": "unocc",
				"energy": 0.05919,
				"method": "rhf"
			},
			{
				"type": "unocc",
				"energy": 0.07497,
				"method": "rhf"
			}
		],
		"cosmo_sigma_profile": { 
			"-0.025": 0.0,
			"-0.024": 0.0,
			"-0.023": 0.0,
			"-0.022": 0.0,
			"-0.021": 0.0,
			"-0.02": 0.0,
			"-0.019": 0.0,
			"-0.018": 0.0,
			"-0.017": 0.0,
			"-0.016": 0.0,
			"-0.015": 0.0,
			"-0.014": 0.0,
			"-0.013": 0.669376316599,
			"-0.012": 2.62607344507,
			"-0.011": 2.67558401919,
			"-0.01": 3.31927205497,
			"-0.009": 4.43233805126,
			"-0.008": 5.7899111282,
			"-0.007": 12.1501153659,
			"-0.006": 16.1751317505,
			"-0.005": 18.1976264097,
			"-0.004": 23.2431308844,
			"-0.003": 18.7962273805,
			"-0.002": 13.2130679793,
			"-0.001": 12.3471858201,
			"0.0": 12.1184272064,
			"0.001": 10.9475747481,
			"0.002": 10.9666355312,
			"0.003": 10.2223436265,
			"0.004": 11.433538125,
			"0.005": 15.7928809299,
			"0.006": 10.0568628355,
			"0.007": 4.69471977246,
			"0.008": 4.51794109938,
			"0.009": 4.17540391689,
			"0.01": 5.31965011295,
			"0.011": 5.0338104147,
			"0.012": 3.51972768793,
			"0.013": 5.33769095803,
			"0.014": 4.60508149433,
			"0.015": 0.442784452083,
			"0.016": 0.0,
			"0.017": 0.0,
			"0.018": 0.0,
			"0.019": 0.0,
			"0.02": 0.0,
			"0.021": 0.0,
			"0.022": 0.0,
			"0.023": 0.0,
			"0.024": 0.0,
			"0.025": 0.0
		}
	}
}
