{
	 "smiles": "NC1=CC=C(C=C1)C1=CN=CN=C1", 
	 "Tm": 482.15, 
	 "num_atms": 22, 
	 "gaussian": { 
		 "optdone": 1, 
		 "sigma_profile": "yes", 
		 "theory": "DFT", 
		 "functional": "B3LYP", 
		 "basiset": "6-31G**", 
		 "properties": { 
			 "R2extent": 3211.6185, 
			 "electric_dipole_moment_norm": 5.08214576336, 
			 "electric_quadrupole_moment_norm": 7.53195918536, 
			 "total_energy": -550.741528947, 
			 "HOMO_LUMO_gap": 0.17083, 
			 "cosmo_polarized_energy": -12.97, 
			 "cosmo_cavitation_energy": 26.38, 
			 "cosmo_dispersion_energy": -19.6, 
			 "cosmo_repulsion_energy": 1.52, 
			 "cosmo_total_nonelectrostatic_energy": 8.3, 
			 "SMD_solvation_energy": 1.48 
		},
		"coords": [
			{
				"x": 1.5593330718,
				"y": -4.2171219887,
				"z": 1.3566698707,
				"element": "N" 
			},
			{
				"x": 1.0330225128,
				"y": -3.0781621397,
				"z": 0.7552409305,
				"element": "C" 
			},
			{
				"x": -0.2655639347,
				"y": -2.6335412466,
				"z": 1.0624394192,
				"element": "C" 
			},
			{
				"x": -0.807331277,
				"y": -1.5281460605,
				"z": 0.4185493168,
				"element": "C" 
			},
			{
				"x": -0.0848989403,
				"y": -0.8177921956,
				"z": -0.5561893525,
				"element": "C" 
			},
			{
				"x": 1.2118734084,
				"y": -1.2697402618,
				"z": -0.8574318973,
				"element": "C" 
			},
			{
				"x": 1.7631111682,
				"y": -2.3735441679,
				"z": -0.2189198499,
				"element": "C" 
			},
			{
				"x": -0.6646968739,
				"y": 0.357493073,
				"z": -1.2351866549,
				"element": "C" 
			},
			{
				"x": -2.0261809632,
				"y": 0.4481715063,
				"z": -1.56768071,
				"element": "C" 
			},
			{
				"x": -2.5656567558,
				"y": 1.5091929879,
				"z": -2.1740959161,
				"element": "N" 
			},
			{
				"x": -1.7242467903,
				"y": 2.5043986649,
				"z": -2.4736580847,
				"element": "C" 
			},
			{
				"x": -0.4113214497,
				"y": 2.5442861783,
				"z": -2.2228703862,
				"element": "N" 
			},
			{
				"x": 0.0991646385,
				"y": 1.4775010711,
				"z": -1.6016978236,
				"element": "C" 
			},
			{
				"x": 1.1509494183,
				"y": -4.4737750575,
				"z": 2.2443630894,
				"element": "H" 
			},
			{
				"x": 2.5673035248,
				"y": -4.2853898317,
				"z": 1.3620327864,
				"element": "H" 
			},
			{
				"x": -0.84685338,
				"y": -3.1580728687,
				"z": 1.8167373109,
				"element": "H" 
			},
			{
				"x": -1.801551093,
				"y": -1.1930115723,
				"z": 0.6999302514,
				"element": "H" 
			},
			{
				"x": 1.792519926,
				"y": -0.7633037313,
				"z": -1.6231525828,
				"element": "H" 
			},
			{
				"x": 2.7632304708,
				"y": -2.7074845095,
				"z": -0.4838368479,
				"element": "H" 
			},
			{
				"x": -2.7011482364,
				"y": -0.3780479891,
				"z": -1.3486157485,
				"element": "H" 
			},
			{
				"x": -2.1518845786,
				"y": 3.3708736393,
				"z": -2.9741462447,
				"element": "H" 
			},
			{
				"x": 1.1622261334,
				"y": 1.5175165003,
				"z": -1.3680808765,
				"element": "H" 
			}
		],
		 "valence_orbital": [ 
			{
				"type": "occ",
				"energy": -0.29412,
				"method": "rhf"
			},
			{
				"type": "occ",
				"energy": -0.27595,
				"method": "rhf"
			},
			{
				"type": "occ",
				"energy": -0.25809,
				"method": "rhf"
			},
			{
				"type": "occ",
				"energy": -0.24431,
				"method": "rhf"
			},
			{
				"type": "occ",
				"energy": -0.20583,
				"method": "rhf"
			},
			{
				"type": "unocc",
				"energy": -0.035,
				"method": "rhf"
			},
			{
				"type": "unocc",
				"energy": -0.03408,
				"method": "rhf"
			},
			{
				"type": "unocc",
				"energy": -0.00851,
				"method": "rhf"
			},
			{
				"type": "unocc",
				"energy": 0.02457,
				"method": "rhf"
			},
			{
				"type": "unocc",
				"energy": 0.07222,
				"method": "rhf"
			}
		],
		"cosmo_sigma_profile": { 
			"-0.025": 0.0,
			"-0.024": 0.0,
			"-0.023": 0.0,
			"-0.022": 0.0,
			"-0.021": 0.0,
			"-0.02": 0.0,
			"-0.019": 0.0,
			"-0.018": 0.0,
			"-0.017": 0.0,
			"-0.016": 0.0,
			"-0.015": 0.0,
			"-0.014": 0.0,
			"-0.013": 0.97579421568,
			"-0.012": 2.86220200854,
			"-0.011": 2.29655767126,
			"-0.01": 3.24493444165,
			"-0.009": 3.57235922612,
			"-0.008": 3.40457523231,
			"-0.007": 9.10582836199,
			"-0.006": 14.0253776785,
			"-0.005": 13.0153670501,
			"-0.004": 12.8955100105,
			"-0.003": 10.4479437498,
			"-0.002": 9.3545603036,
			"-0.001": 15.4806355356,
			"0.0": 17.7043625216,
			"0.001": 13.6688459227,
			"0.002": 10.3714311906,
			"0.003": 11.7916077795,
			"0.004": 10.7581966745,
			"0.005": 12.253876865,
			"0.006": 10.5094012973,
			"0.007": 3.69198819854,
			"0.008": 3.18186654216,
			"0.009": 2.06020483713,
			"0.01": 2.39763982925,
			"0.011": 3.61842880298,
			"0.012": 1.96045170714,
			"0.013": 2.25277535295,
			"0.014": 2.25225013542,
			"0.015": 1.73343178754,
			"0.016": 0.563817576064,
			"0.017": 0.0,
			"0.018": 0.0,
			"0.019": 0.0,
			"0.02": 0.0,
			"0.021": 0.0,
			"0.022": 0.0,
			"0.023": 0.0,
			"0.024": 0.0,
			"0.025": 0.0
		}
	}
}
