{
	 "smiles": "S=C=NC1=CC=C(N=C1)N1CCOCC1", 
	 "Tm": 395.15, 
	 "num_atms": 26, 
	 "gaussian": { 
		 "optdone": 1, 
		 "sigma_profile": "yes", 
		 "theory": "DFT", 
		 "functional": "B3LYP", 
		 "basiset": "6-31G**", 
		 "properties": { 
			 "R2extent": 7091.541, 
			 "electric_dipole_moment_norm": 5.14461027581, 
			 "electric_quadrupole_moment_norm": 35.0595697769, 
			 "total_energy": -1025.33087807, 
			 "HOMO_LUMO_gap": 0.16555, 
			 "cosmo_polarized_energy": -10.92, 
			 "cosmo_cavitation_energy": 31.92, 
			 "cosmo_dispersion_energy": -24.22, 
			 "cosmo_repulsion_energy": 1.87, 
			 "cosmo_total_nonelectrostatic_energy": 9.57, 
			 "SMD_solvation_energy": 4.29 
		},
		"coords": [
			{
				"x": 7.0889475359,
				"y": 0.1725065291,
				"z": -1.0650751121,
				"element": "S" 
			},
			{
				"x": 5.4944667943,
				"y": 0.209078354,
				"z": -1.1454704241,
				"element": "C" 
			},
			{
				"x": 4.3098113424,
				"y": 0.2359367312,
				"z": -1.2068671051,
				"element": "N" 
			},
			{
				"x": 2.9425391881,
				"y": 0.2660903127,
				"z": -1.2702780476,
				"element": "C" 
			},
			{
				"x": 2.2049902981,
				"y": -0.8031870357,
				"z": -1.8101697537,
				"element": "C" 
			},
			{
				"x": 0.8260805671,
				"y": -0.7250120561,
				"z": -1.8548737786,
				"element": "C" 
			},
			{
				"x": 0.1858374237,
				"y": 0.4389471194,
				"z": -1.3527356135,
				"element": "C" 
			},
			{
				"x": 0.8987586935,
				"y": 1.4624824738,
				"z": -0.8375502154,
				"element": "N" 
			},
			{
				"x": 2.2230094331,
				"y": 1.374054672,
				"z": -0.7975304517,
				"element": "C" 
			},
			{
				"x": -1.1802096423,
				"y": 0.5698848958,
				"z": -1.3696178449,
				"element": "N" 
			},
			{
				"x": -1.8501645904,
				"y": 1.7596010646,
				"z": -0.8516778823,
				"element": "C" 
			},
			{
				"x": -3.0197296072,
				"y": 1.3582327383,
				"z": 0.049605003,
				"element": "C" 
			},
			{
				"x": -3.8410363905,
				"y": 0.3231654337,
				"z": -0.5069113827,
				"element": "O" 
			},
			{
				"x": -3.5000757012,
				"y": -0.0400760811,
				"z": -1.8304203169,
				"element": "C" 
			},
			{
				"x": -2.0363484588,
				"y": -0.4729334095,
				"z": -1.930555417,
				"element": "C" 
			},
			{
				"x": 2.7234776026,
				"y": -1.6794296563,
				"z": -2.185682887,
				"element": "H" 
			},
			{
				"x": 0.2553030947,
				"y": -1.5473445148,
				"z": -2.2665522806,
				"element": "H" 
			},
			{
				"x": 2.7603617736,
				"y": 2.2198141315,
				"z": -0.3726797614,
				"element": "H" 
			},
			{
				"x": -1.1225218941,
				"y": 2.3419328919,
				"z": -0.2872822987,
				"element": "H" 
			},
			{
				"x": -2.1993266932,
				"y": 2.3928821731,
				"z": -1.6795007659,
				"element": "H" 
			},
			{
				"x": -3.6410207591,
				"y": 2.2422599901,
				"z": 0.2512664866,
				"element": "H" 
			},
			{
				"x": -2.6382420139,
				"y": 0.9862692188,
				"z": 1.0083231,
				"element": "H" 
			},
			{
				"x": -4.1467824103,
				"y": -0.8799863269,
				"z": -2.0981517192,
				"element": "H" 
			},
			{
				"x": -3.7072562643,
				"y": 0.7742182085,
				"z": -2.5422489419,
				"element": "H" 
			},
			{
				"x": -1.783381911,
				"y": -0.6699726727,
				"z": -2.9837695594,
				"element": "H" 
			},
			{
				"x": -1.9025874107,
				"y": -1.4119151854,
				"z": -1.37489303,
				"element": "H" 
			}
		],
		 "valence_orbital": [ 
			{
				"type": "occ",
				"energy": -0.27574,
				"method": "rhf"
			},
			{
				"type": "occ",
				"energy": -0.26226,
				"method": "rhf"
			},
			{
				"type": "occ",
				"energy": -0.25487,
				"method": "rhf"
			},
			{
				"type": "occ",
				"energy": -0.24377,
				"method": "rhf"
			},
			{
				"type": "occ",
				"energy": -0.20303,
				"method": "rhf"
			},
			{
				"type": "unocc",
				"energy": -0.03748,
				"method": "rhf"
			},
			{
				"type": "unocc",
				"energy": -0.03151,
				"method": "rhf"
			},
			{
				"type": "unocc",
				"energy": 0.00934,
				"method": "rhf"
			},
			{
				"type": "unocc",
				"energy": 0.05152,
				"method": "rhf"
			},
			{
				"type": "unocc",
				"energy": 0.07376,
				"method": "rhf"
			}
		],
		"cosmo_sigma_profile": { 
			"-0.025": 0.0,
			"-0.024": 0.0,
			"-0.023": 0.0,
			"-0.022": 0.0,
			"-0.021": 0.0,
			"-0.02": 0.0,
			"-0.019": 0.0,
			"-0.018": 0.0,
			"-0.017": 0.0,
			"-0.016": 0.0,
			"-0.015": 0.0,
			"-0.014": 0.0,
			"-0.013": 0.0,
			"-0.012": 0.0,
			"-0.011": 0.0,
			"-0.01": 0.0,
			"-0.009": 0.00241920409611,
			"-0.008": 1.93561032893,
			"-0.007": 5.83992436833,
			"-0.006": 11.4486430454,
			"-0.005": 25.2086529626,
			"-0.004": 29.9285170762,
			"-0.003": 18.6050434618,
			"-0.002": 16.1157065246,
			"-0.001": 18.2813648027,
			"0.0": 22.4117953264,
			"0.001": 21.8096232789,
			"0.002": 16.580700378,
			"0.003": 12.345742958,
			"0.004": 9.02240637032,
			"0.005": 9.55727110329,
			"0.006": 13.6660450173,
			"0.007": 12.0233055053,
			"0.008": 3.73739687165,
			"0.009": 1.79126812164,
			"0.01": 1.58732554142,
			"0.011": 2.49494657625,
			"0.012": 1.22597731635,
			"0.013": 1.84435528848,
			"0.014": 0.390302423163,
			"0.015": 0.0,
			"0.016": 0.0,
			"0.017": 0.0,
			"0.018": 0.0,
			"0.019": 0.0,
			"0.02": 0.0,
			"0.021": 0.0,
			"0.022": 0.0,
			"0.023": 0.0,
			"0.024": 0.0,
			"0.025": 0.0
		}
	}
}
