{
	 "smiles": "ClC(=O)C1=CC=C(C=C1)C1=NC=CS1", 
	 "Tm": 395.15, 
	 "num_atms": 20, 
	 "gaussian": { 
		 "optdone": 1, 
		 "sigma_profile": "yes", 
		 "theory": "DFT", 
		 "functional": "B3LYP", 
		 "basiset": "6-31G**", 
		 "properties": { 
			 "R2extent": 5243.8211, 
			 "electric_dipole_moment_norm": 5.1682818915, 
			 "electric_quadrupole_moment_norm": 6.29643059757, 
			 "total_energy": -1373.03846555, 
			 "HOMO_LUMO_gap": 0.14909, 
			 "cosmo_polarized_energy": -8.34, 
			 "cosmo_cavitation_energy": 28.62, 
			 "cosmo_dispersion_energy": -21.9, 
			 "cosmo_repulsion_energy": 1.64, 
			 "cosmo_total_nonelectrostatic_energy": 8.37, 
			 "SMD_solvation_energy": 4.29 
		},
		"coords": [
			{
				"x": 0.6551512276,
				"y": 4.6507154188,
				"z": 2.5673304714,
				"element": "Cl" 
			},
			{
				"x": 0.7549033283,
				"y": 2.8387518223,
				"z": 2.8189545645,
				"element": "C" 
			},
			{
				"x": 1.2023103816,
				"y": 2.4270247241,
				"z": 3.8475740062,
				"element": "O" 
			},
			{
				"x": 0.2577271996,
				"y": 2.0169959856,
				"z": 1.6928208842,
				"element": "C" 
			},
			{
				"x": -0.2613403134,
				"y": 2.5412987568,
				"z": 0.4992205181,
				"element": "C" 
			},
			{
				"x": -0.7046657908,
				"y": 1.6895321321,
				"z": -0.5033281465,
				"element": "C" 
			},
			{
				"x": -0.640809889,
				"y": 0.2934904766,
				"z": -0.3392043385,
				"element": "C" 
			},
			{
				"x": -0.119652108,
				"y": -0.2266521733,
				"z": 0.8591809137,
				"element": "C" 
			},
			{
				"x": 0.3237873034,
				"y": 0.6221256404,
				"z": 1.8620138181,
				"element": "C" 
			},
			{
				"x": -1.120167494,
				"y": -0.5704475396,
				"z": -1.4239736906,
				"element": "C" 
			},
			{
				"x": -1.6113103406,
				"y": -0.1183191,
				"z": -2.5504690387,
				"element": "N" 
			},
			{
				"x": -1.9817389481,
				"y": -1.13694017,
				"z": -3.3851322834,
				"element": "C" 
			},
			{
				"x": -1.7797249698,
				"y": -2.4038272454,
				"z": -2.910292941,
				"element": "C" 
			},
			{
				"x": -1.0875470473,
				"y": -2.3351479414,
				"z": -1.3280697669,
				"element": "S" 
			},
			{
				"x": -0.3160157369,
				"y": 3.6140589724,
				"z": 0.3601977092,
				"element": "H" 
			},
			{
				"x": -1.1070263623,
				"y": 2.0852201108,
				"z": -1.4285026172,
				"element": "H" 
			},
			{
				"x": -0.0596437412,
				"y": -1.3004309448,
				"z": 1.0105709111,
				"element": "H" 
			},
			{
				"x": 0.7260043362,
				"y": 0.2243382983,
				"z": 2.7868908805,
				"element": "H" 
			},
			{
				"x": -2.4049439863,
				"y": -0.9012463338,
				"z": -4.3545287714,
				"element": "H" 
			},
			{
				"x": -1.993997049,
				"y": -3.3482408897,
				"z": -3.389653083,
				"element": "H" 
			}
		],
		 "valence_orbital": [ 
			{
				"type": "occ",
				"energy": -0.29698,
				"method": "rhf"
			},
			{
				"type": "occ",
				"energy": -0.29344,
				"method": "rhf"
			},
			{
				"type": "occ",
				"energy": -0.29088,
				"method": "rhf"
			},
			{
				"type": "occ",
				"energy": -0.27856,
				"method": "rhf"
			},
			{
				"type": "occ",
				"energy": -0.24349,
				"method": "rhf"
			},
			{
				"type": "unocc",
				"energy": -0.0944,
				"method": "rhf"
			},
			{
				"type": "unocc",
				"energy": -0.03532,
				"method": "rhf"
			},
			{
				"type": "unocc",
				"energy": -0.02573,
				"method": "rhf"
			},
			{
				"type": "unocc",
				"energy": 0.00387,
				"method": "rhf"
			},
			{
				"type": "unocc",
				"energy": 0.02072,
				"method": "rhf"
			}
		],
		"cosmo_sigma_profile": { 
			"-0.025": 0.0,
			"-0.024": 0.0,
			"-0.023": 0.0,
			"-0.022": 0.0,
			"-0.021": 0.0,
			"-0.02": 0.0,
			"-0.019": 0.0,
			"-0.018": 0.0,
			"-0.017": 0.0,
			"-0.016": 0.0,
			"-0.015": 0.0,
			"-0.014": 0.0,
			"-0.013": 0.0,
			"-0.012": 0.0,
			"-0.011": 0.0,
			"-0.01": 0.905614781732,
			"-0.009": 2.51002303956,
			"-0.008": 4.40015256405,
			"-0.007": 9.35391465904,
			"-0.006": 11.22233865,
			"-0.005": 10.1736692791,
			"-0.004": 10.8609834098,
			"-0.003": 12.6276317103,
			"-0.002": 16.0568712422,
			"-0.001": 20.591444743,
			"0.0": 24.1727089886,
			"0.001": 32.6257045604,
			"0.002": 26.9655082036,
			"0.003": 13.2447343736,
			"0.004": 10.4193609538,
			"0.005": 8.76373125574,
			"0.006": 4.62797992098,
			"0.007": 4.42831154817,
			"0.008": 5.25982584093,
			"0.009": 3.89396972442,
			"0.01": 1.563712116,
			"0.011": 1.20146508042,
			"0.012": 0.497385967531,
			"0.013": 0.0,
			"0.014": 0.0,
			"0.015": 0.0,
			"0.016": 0.0,
			"0.017": 0.0,
			"0.018": 0.0,
			"0.019": 0.0,
			"0.02": 0.0,
			"0.021": 0.0,
			"0.022": 0.0,
			"0.023": 0.0,
			"0.024": 0.0,
			"0.025": 0.0
		}
	}
}
