{
	 "smiles": "ClCC1=NN=C(O1)C1=CC=CC=C1", 
	 "Tm": 368.15, 
	 "num_atms": 20, 
	 "gaussian": { 
		 "optdone": 1, 
		 "sigma_profile": "yes", 
		 "theory": "DFT", 
		 "functional": "B3LYP", 
		 "basiset": "6-31G**", 
		 "properties": { 
			 "R2extent": 3777.9025, 
			 "electric_dipole_moment_norm": 3.46514439237, 
			 "electric_quadrupole_moment_norm": 10.8506369136, 
			 "total_energy": -992.070889783, 
			 "HOMO_LUMO_gap": 0.18529, 
			 "cosmo_polarized_energy": -11.12, 
			 "cosmo_cavitation_energy": 27.14, 
			 "cosmo_dispersion_energy": -20.11, 
			 "cosmo_repulsion_energy": 1.6, 
			 "cosmo_total_nonelectrostatic_energy": 8.64, 
			 "SMD_solvation_energy": 2.74 
		},
		"coords": [
			{
				"x": -0.8384742458,
				"y": -0.839746723,
				"z": 4.6846878223,
				"element": "Cl" 
			},
			{
				"x": -1.0864347507,
				"y": -1.9888523865,
				"z": 3.2918221887,
				"element": "C" 
			},
			{
				"x": -1.0714031887,
				"y": -1.2984423698,
				"z": 1.9847544864,
				"element": "C" 
			},
			{
				"x": -2.0664028323,
				"y": -1.11719304,
				"z": 1.1733949369,
				"element": "N" 
			},
			{
				"x": -1.5579027517,
				"y": -0.4356271167,
				"z": 0.0752394559,
				"element": "N" 
			},
			{
				"x": -0.2881381207,
				"y": -0.24922596,
				"z": 0.305869764,
				"element": "C" 
			},
			{
				"x": 0.0934226884,
				"y": -0.7795378061,
				"z": 1.5066742686,
				"element": "O" 
			},
			{
				"x": 0.6990158474,
				"y": 0.4204396799,
				"z": -0.5317519744,
				"element": "C" 
			},
			{
				"x": 0.2981382774,
				"y": 0.9415976092,
				"z": -1.7733216222,
				"element": "C" 
			},
			{
				"x": 1.2264921467,
				"y": 1.5847242906,
				"z": -2.5859680847,
				"element": "C" 
			},
			{
				"x": 2.5554721074,
				"y": 1.71384213,
				"z": -2.1711854266,
				"element": "C" 
			},
			{
				"x": 2.9549308227,
				"y": 1.1967546722,
				"z": -0.9369633663,
				"element": "C" 
			},
			{
				"x": 2.0329010374,
				"y": 0.5510711684,
				"z": -0.1157572863,
				"element": "C" 
			},
			{
				"x": -0.2896304233,
				"y": -2.7297602469,
				"z": 3.3645627624,
				"element": "H" 
			},
			{
				"x": -2.0579730346,
				"y": -2.460753943,
				"z": 3.4262568945,
				"element": "H" 
			},
			{
				"x": -0.7363931454,
				"y": 0.8337686339,
				"z": -2.0809737657,
				"element": "H" 
			},
			{
				"x": 0.9140176727,
				"y": 1.9866570526,
				"z": -3.5450056114,
				"element": "H" 
			},
			{
				"x": 3.2769877235,
				"y": 2.2167096876,
				"z": -2.808351406,
				"element": "H" 
			},
			{
				"x": 3.9860867022,
				"y": 1.2969664871,
				"z": -0.6119681748,
				"element": "H" 
			},
			{
				"x": 2.3394874674,
				"y": 0.1507081803,
				"z": 0.8446841388,
				"element": "H" 
			}
		],
		 "valence_orbital": [ 
			{
				"type": "occ",
				"energy": -0.31045,
				"method": "rhf"
			},
			{
				"type": "occ",
				"energy": -0.30796,
				"method": "rhf"
			},
			{
				"type": "occ",
				"energy": -0.28516,
				"method": "rhf"
			},
			{
				"type": "occ",
				"energy": -0.26796,
				"method": "rhf"
			},
			{
				"type": "occ",
				"energy": -0.24772,
				"method": "rhf"
			},
			{
				"type": "unocc",
				"energy": -0.06243,
				"method": "rhf"
			},
			{
				"type": "unocc",
				"energy": -0.02582,
				"method": "rhf"
			},
			{
				"type": "unocc",
				"energy": -0.01591,
				"method": "rhf"
			},
			{
				"type": "unocc",
				"energy": 0.03929,
				"method": "rhf"
			},
			{
				"type": "unocc",
				"energy": 0.05463,
				"method": "rhf"
			}
		],
		"cosmo_sigma_profile": { 
			"-0.025": 0.0,
			"-0.024": 0.0,
			"-0.023": 0.0,
			"-0.022": 0.0,
			"-0.021": 0.0,
			"-0.02": 0.0,
			"-0.019": 0.0,
			"-0.018": 0.0,
			"-0.017": 0.0,
			"-0.016": 0.0,
			"-0.015": 0.0,
			"-0.014": 0.0,
			"-0.013": 0.0,
			"-0.012": 0.0,
			"-0.011": 0.0450620706902,
			"-0.01": 3.41608353541,
			"-0.009": 4.14370618514,
			"-0.008": 3.82569228023,
			"-0.007": 7.66614229557,
			"-0.006": 14.15850021,
			"-0.005": 15.9446300847,
			"-0.004": 13.5438162947,
			"-0.003": 12.2170880494,
			"-0.002": 13.44020926,
			"-0.001": 14.8510745365,
			"0.0": 15.4358081283,
			"0.001": 15.9796950085,
			"0.002": 16.0406634451,
			"0.003": 19.6686373471,
			"0.004": 16.0065329218,
			"0.005": 11.3416627847,
			"0.006": 4.98863945146,
			"0.007": 2.1042637138,
			"0.008": 1.60196110519,
			"0.009": 1.91683701717,
			"0.01": 3.21792894093,
			"0.011": 3.12000491481,
			"0.012": 3.00118347185,
			"0.013": 1.72170604954,
			"0.014": 1.6328732495,
			"0.015": 0.0399046879252,
			"0.016": 0.0,
			"0.017": 0.0,
			"0.018": 0.0,
			"0.019": 0.0,
			"0.02": 0.0,
			"0.021": 0.0,
			"0.022": 0.0,
			"0.023": 0.0,
			"0.024": 0.0,
			"0.025": 0.0
		}
	}
}
