{
	 "smiles": "COC1=CC=C(CC(=O)NO)C=C1", 
	 "Tm": 433.15, 
	 "num_atms": 24, 
	 "gaussian": { 
		 "optdone": 1, 
		 "sigma_profile": "yes", 
		 "theory": "DFT", 
		 "functional": "B3LYP", 
		 "basiset": "6-31G**", 
		 "properties": { 
			 "R2extent": 3521.2789, 
			 "electric_dipole_moment_norm": 4.58358883191, 
			 "electric_quadrupole_moment_norm": 11.0301775793, 
			 "total_energy": -629.952606792, 
			 "HOMO_LUMO_gap": 0.21058, 
			 "cosmo_polarized_energy": -13.13, 
			 "cosmo_cavitation_energy": 28.18, 
			 "cosmo_dispersion_energy": -20.46, 
			 "cosmo_repulsion_energy": 1.64, 
			 "cosmo_total_nonelectrostatic_energy": 9.36, 
			 "SMD_solvation_energy": 7.12 
		},
		"coords": [
			{
				"x": -2.3017964669,
				"y": 3.2722909276,
				"z": 0.2420851716,
				"element": "C" 
			},
			{
				"x": -1.1587060254,
				"y": 2.8014194501,
				"z": 0.9399396493,
				"element": "O" 
			},
			{
				"x": -0.3295499395,
				"y": 1.9254350898,
				"z": 0.3056138971,
				"element": "C" 
			},
			{
				"x": -0.5201273912,
				"y": 1.4446871786,
				"z": -0.9954212344,
				"element": "C" 
			},
			{
				"x": 0.4031926813,
				"y": 0.5484491445,
				"z": -1.5412816455,
				"element": "C" 
			},
			{
				"x": 1.5213005607,
				"y": 0.1143768433,
				"z": -0.8218676607,
				"element": "C" 
			},
			{
				"x": 2.5002071625,
				"y": -0.8720768634,
				"z": -1.420392853,
				"element": "C" 
			},
			{
				"x": 2.2202510013,
				"y": -2.3495330838,
				"z": -1.158521267,
				"element": "C" 
			},
			{
				"x": 2.8045251463,
				"y": -3.2617417512,
				"z": -1.7465612658,
				"element": "O" 
			},
			{
				"x": 1.3366697797,
				"y": -2.6424059522,
				"z": -0.1656405867,
				"element": "N" 
			},
			{
				"x": 0.9787267747,
				"y": -3.9917211483,
				"z": -0.0536091434,
				"element": "O" 
			},
			{
				"x": 1.6931029203,
				"y": 0.6085639073,
				"z": 0.4830790334,
				"element": "C" 
			},
			{
				"x": 0.7864604512,
				"y": 1.4992904372,
				"z": 1.0425424361,
				"element": "C" 
			},
			{
				"x": -2.0235776066,
				"y": 3.8191418877,
				"z": -0.6679213483,
				"element": "H" 
			},
			{
				"x": -2.8133648046,
				"y": 3.9508495609,
				"z": 0.9260589292,
				"element": "H" 
			},
			{
				"x": -2.9794525257,
				"y": 2.4514039835,
				"z": -0.0255108115,
				"element": "H" 
			},
			{
				"x": -1.3696215937,
				"y": 1.7599004032,
				"z": -1.5894405405,
				"element": "H" 
			},
			{
				"x": 0.2459834561,
				"y": 0.1871421366,
				"z": -2.5548681897,
				"element": "H" 
			},
			{
				"x": 3.515903517,
				"y": -0.6824104373,
				"z": -1.0531899599,
				"element": "H" 
			},
			{
				"x": 2.5482800997,
				"y": -0.7692756968,
				"z": -2.5090374784,
				"element": "H" 
			},
			{
				"x": 0.5677708515,
				"y": -2.0261556784,
				"z": 0.0603330056,
				"element": "H" 
			},
			{
				"x": 1.5960788646,
				"y": -4.3895279929,
				"z": -0.7080142383,
				"element": "H" 
			},
			{
				"x": 2.5538773397,
				"y": 0.2913896885,
				"z": 1.0663530594,
				"element": "H" 
			},
			{
				"x": 0.9211657472,
				"y": 1.8848079656,
				"z": 2.0477730413,
				"element": "H" 
			}
		],
		 "valence_orbital": [ 
			{
				"type": "occ",
				"energy": -0.32844,
				"method": "rhf"
			},
			{
				"type": "occ",
				"energy": -0.2714,
				"method": "rhf"
			},
			{
				"type": "occ",
				"energy": -0.26441,
				"method": "rhf"
			},
			{
				"type": "occ",
				"energy": -0.23082,
				"method": "rhf"
			},
			{
				"type": "occ",
				"energy": -0.22687,
				"method": "rhf"
			},
			{
				"type": "unocc",
				"energy": -0.01629,
				"method": "rhf"
			},
			{
				"type": "unocc",
				"energy": -0.00393,
				"method": "rhf"
			},
			{
				"type": "unocc",
				"energy": 0.01797,
				"method": "rhf"
			},
			{
				"type": "unocc",
				"energy": 0.07885,
				"method": "rhf"
			},
			{
				"type": "unocc",
				"energy": 0.0932,
				"method": "rhf"
			}
		],
		"cosmo_sigma_profile": { 
			"-0.025": 0.0,
			"-0.024": 0.0,
			"-0.023": 0.0,
			"-0.022": 0.0,
			"-0.021": 0.0,
			"-0.02": 0.0,
			"-0.019": 0.0,
			"-0.018": 0.0,
			"-0.017": 0.0,
			"-0.016": 0.0,
			"-0.015": 0.178005777005,
			"-0.014": 0.48913850341,
			"-0.013": 0.651833622106,
			"-0.012": 1.29351649528,
			"-0.011": 1.07138665811,
			"-0.01": 1.2179789921,
			"-0.009": 1.17455823852,
			"-0.008": 1.25704326148,
			"-0.007": 4.39088352866,
			"-0.006": 19.4470416362,
			"-0.005": 23.6589441149,
			"-0.004": 20.1455553122,
			"-0.003": 19.4285294974,
			"-0.002": 13.2140201746,
			"-0.001": 11.2062214799,
			"0.0": 10.6661979651,
			"0.001": 10.8039526782,
			"0.002": 11.1200337433,
			"0.003": 12.8867215506,
			"0.004": 12.1783789843,
			"0.005": 10.066401622,
			"0.006": 4.92396172803,
			"0.007": 3.8807372666,
			"0.008": 5.31735304909,
			"0.009": 4.84977039693,
			"0.01": 4.36874118955,
			"0.011": 5.17317599985,
			"0.012": 3.67849310462,
			"0.013": 2.92894777058,
			"0.014": 1.38774702592,
			"0.015": 0.0788676134274,
			"0.016": 0.0,
			"0.017": 0.0,
			"0.018": 0.0,
			"0.019": 0.0,
			"0.02": 0.0,
			"0.021": 0.0,
			"0.022": 0.0,
			"0.023": 0.0,
			"0.024": 0.0,
			"0.025": 0.0
		}
	}
}
