{
	 "smiles": "OCC=CC1=CC=C(C=C1)[N+]([O-])=O", 
	 "Tm": 400.15, 
	 "num_atms": 22, 
	 "gaussian": { 
		 "optdone": 1, 
		 "sigma_profile": "yes", 
		 "theory": "DFT", 
		 "functional": "B3LYP", 
		 "basiset": "6-31G**", 
		 "properties": { 
			 "R2extent": 4828.0008, 
			 "electric_dipole_moment_norm": 5.09173674987, 
			 "electric_quadrupole_moment_norm": 21.8770309853, 
			 "total_energy": -628.679846959, 
			 "HOMO_LUMO_gap": 0.15304, 
			 "cosmo_polarized_energy": -13.6, 
			 "cosmo_cavitation_energy": 27.31, 
			 "cosmo_dispersion_energy": -19.98, 
			 "cosmo_repulsion_energy": 1.58, 
			 "cosmo_total_nonelectrostatic_energy": 8.91, 
			 "SMD_solvation_energy": 7.09 
		},
		"coords": [
			{
				"x": -0.5959498872,
				"y": -4.5706302996,
				"z": -2.0418641588,
				"element": "O" 
			},
			{
				"x": 0.4874863983,
				"y": -3.6671269924,
				"z": -1.9289185271,
				"element": "C" 
			},
			{
				"x": 0.2528718836,
				"y": -2.5205646659,
				"z": -0.9809827783,
				"element": "C" 
			},
			{
				"x": -0.9324052642,
				"y": -2.2528934656,
				"z": -0.4136785691,
				"element": "C" 
			},
			{
				"x": -1.2437274596,
				"y": -1.1639781111,
				"z": 0.5198979098,
				"element": "C" 
			},
			{
				"x": -2.5875375078,
				"y": -0.9509875581,
				"z": 0.8852165731,
				"element": "C" 
			},
			{
				"x": -2.9508081098,
				"y": 0.0669102743,
				"z": 1.7590547041,
				"element": "C" 
			},
			{
				"x": -1.952453018,
				"y": 0.8856980815,
				"z": 2.2823657654,
				"element": "C" 
			},
			{
				"x": -0.6083835188,
				"y": 0.7039738375,
				"z": 1.9512891538,
				"element": "C" 
			},
			{
				"x": -0.2634280902,
				"y": -0.3171737814,
				"z": 1.0775616387,
				"element": "C" 
			},
			{
				"x": -2.3212055488,
				"y": 1.9621825133,
				"z": 3.2079545231,
				"element": "N" 
			},
			{
				"x": -1.4157523562,
				"y": 2.6679767152,
				"z": 3.6545809547,
				"element": "O" 
			},
			{
				"x": -3.5140758352,
				"y": 2.0967328933,
				"z": 3.483537902,
				"element": "O" 
			},
			{
				"x": -0.7095760218,
				"y": -4.9992839917,
				"z": -1.1829211723,
				"element": "H" 
			},
			{
				"x": 0.659513004,
				"y": -3.2760145681,
				"z": -2.9408487493,
				"element": "H" 
			},
			{
				"x": 1.4199991218,
				"y": -4.1843316528,
				"z": -1.6438638471,
				"element": "H" 
			},
			{
				"x": 1.1248728322,
				"y": -1.8975579075,
				"z": -0.7857239536,
				"element": "H" 
			},
			{
				"x": -1.7696025615,
				"y": -2.8941513414,
				"z": -0.6828408836,
				"element": "H" 
			},
			{
				"x": -3.3570294368,
				"y": -1.5947923051,
				"z": 0.4689657437,
				"element": "H" 
			},
			{
				"x": -3.9822015012,
				"y": 0.2375796744,
				"z": 2.0410359773,
				"element": "H" 
			},
			{
				"x": 0.1371890567,
				"y": 1.3585273782,
				"z": 2.3850601398,
				"element": "H" 
			},
			{
				"x": 0.7831038205,
				"y": -0.4636947268,
				"z": 0.8318216538,
				"element": "H" 
			}
		],
		 "valence_orbital": [ 
			{
				"type": "occ",
				"energy": -0.30343,
				"method": "rhf"
			},
			{
				"type": "occ",
				"energy": -0.2926,
				"method": "rhf"
			},
			{
				"type": "occ",
				"energy": -0.28655,
				"method": "rhf"
			},
			{
				"type": "occ",
				"energy": -0.27778,
				"method": "rhf"
			},
			{
				"type": "occ",
				"energy": -0.24443,
				"method": "rhf"
			},
			{
				"type": "unocc",
				"energy": -0.09139,
				"method": "rhf"
			},
			{
				"type": "unocc",
				"energy": -0.03138,
				"method": "rhf"
			},
			{
				"type": "unocc",
				"energy": -0.02272,
				"method": "rhf"
			},
			{
				"type": "unocc",
				"energy": 0.04867,
				"method": "rhf"
			},
			{
				"type": "unocc",
				"energy": 0.06609,
				"method": "rhf"
			}
		],
		"cosmo_sigma_profile": { 
			"-0.025": 0.0,
			"-0.024": 0.0,
			"-0.023": 0.0,
			"-0.022": 0.0,
			"-0.021": 0.0,
			"-0.02": 0.0,
			"-0.019": 0.0,
			"-0.018": 0.0,
			"-0.017": 0.0,
			"-0.016": 0.30546325974,
			"-0.015": 0.760742797594,
			"-0.014": 1.18503287764,
			"-0.013": 0.946074299547,
			"-0.012": 0.696013509597,
			"-0.011": 0.881693511298,
			"-0.01": 0.849362431461,
			"-0.009": 1.23412531679,
			"-0.008": 3.49993774926,
			"-0.007": 9.34926068939,
			"-0.006": 13.2049771586,
			"-0.005": 19.080263091,
			"-0.004": 16.1529505868,
			"-0.003": 12.2687533547,
			"-0.002": 11.4163543902,
			"-0.001": 13.0364465473,
			"0.0": 14.099685918,
			"0.001": 16.2417606703,
			"0.002": 22.0634724054,
			"0.003": 9.96521169986,
			"0.004": 6.72415236698,
			"0.005": 3.98739509574,
			"0.006": 4.29550370717,
			"0.007": 7.38696097133,
			"0.008": 10.6668420654,
			"0.009": 5.56744454363,
			"0.01": 5.13668505946,
			"0.011": 2.07768106465,
			"0.012": 1.24994148775,
			"0.013": 1.93617023948,
			"0.014": 1.53815081296,
			"0.015": 0.0,
			"0.016": 0.0,
			"0.017": 0.0,
			"0.018": 0.0,
			"0.019": 0.0,
			"0.02": 0.0,
			"0.021": 0.0,
			"0.022": 0.0,
			"0.023": 0.0,
			"0.024": 0.0,
			"0.025": 0.0
		}
	}
}
