{
	 "smiles": "ClC1=CC=CC2=C1C=CC=C2", 
	 "Tm": 270.65, 
	 "num_atms": 18, 
	 "gaussian": { 
		 "optdone": 1, 
		 "sigma_profile": "yes", 
		 "theory": "DFT", 
		 "functional": "B3LYP", 
		 "basiset": "6-31G**", 
		 "properties": { 
			 "R2extent": 2216.7743, 
			 "electric_dipole_moment_norm": 1.83194046301, 
			 "electric_quadrupole_moment_norm": 8.0857143327, 
			 "total_energy": -845.486914534, 
			 "HOMO_LUMO_gap": 0.17186, 
			 "cosmo_polarized_energy": -4.47, 
			 "cosmo_cavitation_energy": 23.21, 
			 "cosmo_dispersion_energy": -17.67, 
			 "cosmo_repulsion_energy": 1.38, 
			 "cosmo_total_nonelectrostatic_energy": 6.92, 
			 "SMD_solvation_energy": 3.45 
		},
		"coords": [
			{
				"x": 1.6124200971,
				"y": 0.3672231301,
				"z": 2.9630085289,
				"element": "Cl" 
			},
			{
				"x": 0.1135334542,
				"y": 0.7361351549,
				"z": 2.1114064462,
				"element": "C" 
			},
			{
				"x": -0.9160439145,
				"y": 1.3047321449,
				"z": 2.8252586894,
				"element": "C" 
			},
			{
				"x": -2.1338893977,
				"y": 1.614748572,
				"z": 2.1760445025,
				"element": "C" 
			},
			{
				"x": -2.2950554775,
				"y": 1.3513872,
				"z": 0.8362302606,
				"element": "C" 
			},
			{
				"x": -1.2452559018,
				"y": 0.7649108448,
				"z": 0.0806692962,
				"element": "C" 
			},
			{
				"x": 0.0004202543,
				"y": 0.4420049571,
				"z": 0.7206102039,
				"element": "C" 
			},
			{
				"x": 1.0364134509,
				"y": -0.1439098365,
				"z": -0.0547504517,
				"element": "C" 
			},
			{
				"x": 0.8538075827,
				"y": -0.3992327747,
				"z": -1.3953172513,
				"element": "C" 
			},
			{
				"x": -0.3716514179,
				"y": -0.0825872704,
				"z": -2.0288685438,
				"element": "C" 
			},
			{
				"x": -1.3940052477,
				"y": 0.4856430046,
				"z": -1.304983142,
				"element": "C" 
			},
			{
				"x": -0.7890034475,
				"y": 1.5124112491,
				"z": 3.8818117178,
				"element": "H" 
			},
			{
				"x": -2.9388874963,
				"y": 2.0632101957,
				"z": 2.7502272638,
				"element": "H" 
			},
			{
				"x": -3.2295041807,
				"y": 1.5885198156,
				"z": 0.3351396691,
				"element": "H" 
			},
			{
				"x": 1.9767397643,
				"y": -0.388271309,
				"z": 0.4255691992,
				"element": "H" 
			},
			{
				"x": 1.6569424956,
				"y": -0.847682942,
				"z": -1.9726251147,
				"element": "H" 
			},
			{
				"x": -0.5011873519,
				"y": -0.2897471481,
				"z": -3.0870468214,
				"element": "H" 
			},
			{
				"x": -2.3382932655,
				"y": 0.732005012,
				"z": -1.7834844528,
				"element": "H" 
			}
		],
		 "valence_orbital": [ 
			{
				"type": "occ",
				"energy": -0.32428,
				"method": "rhf"
			},
			{
				"type": "occ",
				"energy": -0.3107,
				"method": "rhf"
			},
			{
				"type": "occ",
				"energy": -0.2774,
				"method": "rhf"
			},
			{
				"type": "occ",
				"energy": -0.25207,
				"method": "rhf"
			},
			{
				"type": "occ",
				"energy": -0.21936,
				"method": "rhf"
			},
			{
				"type": "unocc",
				"energy": -0.0475,
				"method": "rhf"
			},
			{
				"type": "unocc",
				"energy": -0.01752,
				"method": "rhf"
			},
			{
				"type": "unocc",
				"energy": 0.02642,
				"method": "rhf"
			},
			{
				"type": "unocc",
				"energy": 0.0331,
				"method": "rhf"
			},
			{
				"type": "unocc",
				"energy": 0.09002,
				"method": "rhf"
			}
		],
		"cosmo_sigma_profile": { 
			"-0.025": 0.0,
			"-0.024": 0.0,
			"-0.023": 0.0,
			"-0.022": 0.0,
			"-0.021": 0.0,
			"-0.02": 0.0,
			"-0.019": 0.0,
			"-0.018": 0.0,
			"-0.017": 0.0,
			"-0.016": 0.0,
			"-0.015": 0.0,
			"-0.014": 0.0,
			"-0.013": 0.0,
			"-0.012": 0.0,
			"-0.011": 0.0,
			"-0.01": 0.0,
			"-0.009": 0.0,
			"-0.008": 0.120693117887,
			"-0.007": 3.45376368222,
			"-0.006": 13.2238199778,
			"-0.005": 13.8575765346,
			"-0.004": 14.31897343,
			"-0.003": 10.2218128719,
			"-0.002": 11.6632222027,
			"-0.001": 9.23039104292,
			"0.0": 12.1885551866,
			"0.001": 16.077231372,
			"0.002": 21.9453505695,
			"0.003": 28.5032137292,
			"0.004": 23.9561974456,
			"0.005": 10.3139088899,
			"0.006": 0.0793989893165,
			"0.007": 0.0,
			"0.008": 0.0,
			"0.009": 0.0,
			"0.01": 0.0,
			"0.011": 0.0,
			"0.012": 0.0,
			"0.013": 0.0,
			"0.014": 0.0,
			"0.015": 0.0,
			"0.016": 0.0,
			"0.017": 0.0,
			"0.018": 0.0,
			"0.019": 0.0,
			"0.02": 0.0,
			"0.021": 0.0,
			"0.022": 0.0,
			"0.023": 0.0,
			"0.024": 0.0,
			"0.025": 0.0
		}
	}
}
