{
	 "smiles": "CCC(C)(Cl)Cl", 
	 "Tm": 199.15, 
	 "num_atms": 14, 
	 "gaussian": { 
		 "optdone": 1, 
		 "sigma_profile": "yes", 
		 "theory": "DFT", 
		 "functional": "B3LYP", 
		 "basiset": "6-31G**", 
		 "properties": { 
			 "R2extent": 1376.1949, 
			 "electric_dipole_moment_norm": 2.63413087944, 
			 "electric_quadrupole_moment_norm": 5.59724451404, 
			 "total_energy": -1077.64841151, 
			 "HOMO_LUMO_gap": 0.28559, 
			 "cosmo_polarized_energy": -4.33, 
			 "cosmo_cavitation_energy": 19.54, 
			 "cosmo_dispersion_energy": -14.52, 
			 "cosmo_repulsion_energy": 1.23, 
			 "cosmo_total_nonelectrostatic_energy": 6.25, 
			 "SMD_solvation_energy": 2.86 
		},
		"coords": [
			{
				"x": -1.5730321387,
				"y": 0.8521038636,
				"z": -1.7847184929,
				"element": "C" 
			},
			{
				"x": -0.3624561359,
				"y": -0.0539163242,
				"z": -2.0336365846,
				"element": "C" 
			},
			{
				"x": 0.0954965964,
				"y": -0.8801896934,
				"z": -0.8246864344,
				"element": "C" 
			},
			{
				"x": 0.4799601576,
				"y": -0.0681031571,
				"z": 0.4041100214,
				"element": "C" 
			},
			{
				"x": -1.2202803777,
				"y": -2.0607604032,
				"z": -0.3542322657,
				"element": "Cl" 
			},
			{
				"x": 1.5559079167,
				"y": -1.8556198873,
				"z": -1.3442520481,
				"element": "Cl" 
			},
			{
				"x": -1.8340937328,
				"y": 1.3707695469,
				"z": -2.7119693489,
				"element": "H" 
			},
			{
				"x": -2.4448227022,
				"y": 0.2758382233,
				"z": -1.464574944,
				"element": "H" 
			},
			{
				"x": -1.3679099446,
				"y": 1.6157115521,
				"z": -1.0285723227,
				"element": "H" 
			},
			{
				"x": 0.4997168643,
				"y": 0.5500995872,
				"z": -2.3399423186,
				"element": "H" 
			},
			{
				"x": -0.5719206488,
				"y": -0.7455641114,
				"z": -2.8544148757,
				"element": "H" 
			},
			{
				"x": 0.8453400298,
				"y": -0.7205563333,
				"z": 1.1982251725,
				"element": "H" 
			},
			{
				"x": -0.3877457436,
				"y": 0.4829290909,
				"z": 0.7748685909,
				"element": "H" 
			},
			{
				"x": 1.2681398595,
				"y": 0.642858046,
				"z": 0.1388958508,
				"element": "H" 
			}
		],
		 "valence_orbital": [ 
			{
				"type": "occ",
				"energy": -0.35661,
				"method": "rhf"
			},
			{
				"type": "occ",
				"energy": -0.32286,
				"method": "rhf"
			},
			{
				"type": "occ",
				"energy": -0.31048,
				"method": "rhf"
			},
			{
				"type": "occ",
				"energy": -0.30135,
				"method": "rhf"
			},
			{
				"type": "occ",
				"energy": -0.29465,
				"method": "rhf"
			},
			{
				"type": "unocc",
				"energy": -0.00906,
				"method": "rhf"
			},
			{
				"type": "unocc",
				"energy": 0.01869,
				"method": "rhf"
			},
			{
				"type": "unocc",
				"energy": 0.08411,
				"method": "rhf"
			},
			{
				"type": "unocc",
				"energy": 0.12799,
				"method": "rhf"
			},
			{
				"type": "unocc",
				"energy": 0.13364,
				"method": "rhf"
			}
		],
		"cosmo_sigma_profile": { 
			"-0.025": 0.0,
			"-0.024": 0.0,
			"-0.023": 0.0,
			"-0.022": 0.0,
			"-0.021": 0.0,
			"-0.02": 0.0,
			"-0.019": 0.0,
			"-0.018": 0.0,
			"-0.017": 0.0,
			"-0.016": 0.0,
			"-0.015": 0.0,
			"-0.014": 0.0,
			"-0.013": 0.0,
			"-0.012": 0.0,
			"-0.011": 0.0,
			"-0.01": 0.0,
			"-0.009": 0.0,
			"-0.008": 0.0,
			"-0.007": 0.0684890073052,
			"-0.006": 4.37030669127,
			"-0.005": 10.3600652296,
			"-0.004": 13.3024829583,
			"-0.003": 15.335675753,
			"-0.002": 18.1912309525,
			"-0.001": 16.6809108352,
			"0.0": 15.1141420046,
			"0.001": 10.7599620201,
			"0.002": 7.75034932976,
			"0.003": 8.5453279738,
			"0.004": 11.7634737815,
			"0.005": 16.347025177,
			"0.006": 8.25659827877,
			"0.007": 0.014842927236,
			"0.008": 0.0,
			"0.009": 0.0,
			"0.01": 0.0,
			"0.011": 0.0,
			"0.012": 0.0,
			"0.013": 0.0,
			"0.014": 0.0,
			"0.015": 0.0,
			"0.016": 0.0,
			"0.017": 0.0,
			"0.018": 0.0,
			"0.019": 0.0,
			"0.02": 0.0,
			"0.021": 0.0,
			"0.022": 0.0,
			"0.023": 0.0,
			"0.024": 0.0,
			"0.025": 0.0
		}
	}
}
