{
	 "smiles": "CC(C)(C)CC(=O)NCC(O)=O", 
	 "Tm": 380.15, 
	 "num_atms": 27, 
	 "gaussian": { 
		 "optdone": 1, 
		 "sigma_profile": "yes", 
		 "theory": "DFT", 
		 "functional": "B3LYP", 
		 "basiset": "6-31G**", 
		 "properties": { 
			 "R2extent": 4155.3065, 
			 "electric_dipole_moment_norm": 6.25108149843, 
			 "electric_quadrupole_moment_norm": 34.7042061157, 
			 "total_energy": -594.361954017, 
			 "HOMO_LUMO_gap": 0.24232, 
			 "cosmo_polarized_energy": -17.19, 
			 "cosmo_cavitation_energy": 29.08, 
			 "cosmo_dispersion_energy": -20.46, 
			 "cosmo_repulsion_energy": 1.64, 
			 "cosmo_total_nonelectrostatic_energy": 10.26, 
			 "SMD_solvation_energy": 6.21 
		},
		"coords": [
			{
				"x": -0.004764968,
				"y": 2.0049977818,
				"z": -0.2092079216,
				"element": "C" 
			},
			{
				"x": 0.4329294226,
				"y": 0.5728607572,
				"z": -0.5707050212,
				"element": "C" 
			},
			{
				"x": 1.96910307,
				"y": 0.4679805843,
				"z": -0.5282876126,
				"element": "C" 
			},
			{
				"x": -0.0609964054,
				"y": 0.2317654872,
				"z": -1.9901954461,
				"element": "C" 
			},
			{
				"x": -0.2183932767,
				"y": -0.4549267661,
				"z": 0.4067511278,
				"element": "C" 
			},
			{
				"x": 0.0506923065,
				"y": -0.1946451455,
				"z": 1.8767706774,
				"element": "C" 
			},
			{
				"x": 1.1718123669,
				"y": -0.3489858351,
				"z": 2.3863628285,
				"element": "O" 
			},
			{
				"x": -0.9999974088,
				"y": 0.229821409,
				"z": 2.6245065477,
				"element": "N" 
			},
			{
				"x": -0.8549895782,
				"y": 0.6477667251,
				"z": 4.0186399831,
				"element": "C" 
			},
			{
				"x": -0.6549360885,
				"y": -0.5110153484,
				"z": 5.0164295463,
				"element": "C" 
			},
			{
				"x": 0.4163739715,
				"y": -1.2798257713,
				"z": 4.7903247379,
				"element": "O" 
			},
			{
				"x": -1.4021857886,
				"y": -0.6869399943,
				"z": 5.949797179,
				"element": "O" 
			},
			{
				"x": 0.3625284522,
				"y": 2.3035476632,
				"z": 0.7782921992,
				"element": "H" 
			},
			{
				"x": 0.391760077,
				"y": 2.7204591265,
				"z": -0.9371380177,
				"element": "H" 
			},
			{
				"x": -1.0969209599,
				"y": 2.1044262428,
				"z": -0.2104191854,
				"element": "H" 
			},
			{
				"x": 2.3588297325,
				"y": 0.6647870202,
				"z": 0.4725506756,
				"element": "H" 
			},
			{
				"x": 2.4148156612,
				"y": 1.1860981496,
				"z": -1.2254645442,
				"element": "H" 
			},
			{
				"x": 2.3014804474,
				"y": -0.5338686806,
				"z": -0.821869397,
				"element": "H" 
			},
			{
				"x": 0.2097725544,
				"y": -0.7924763854,
				"z": -2.2696137078,
				"element": "H" 
			},
			{
				"x": -1.1499996383,
				"y": 0.3271350075,
				"z": -2.0714530152,
				"element": "H" 
			},
			{
				"x": 0.3889132238,
				"y": 0.9072363482,
				"z": -2.7256175366,
				"element": "H" 
			},
			{
				"x": -1.2997853112,
				"y": -0.4793346137,
				"z": 0.2244410084,
				"element": "H" 
			},
			{
				"x": 0.1727036476,
				"y": -1.4534161478,
				"z": 0.1831815761,
				"element": "H" 
			},
			{
				"x": -1.9148387253,
				"y": 0.2831407052,
				"z": 2.2037557126,
				"element": "H" 
			},
			{
				"x": 0.0055701891,
				"y": 1.3238183357,
				"z": 4.091839069,
				"element": "H" 
			},
			{
				"x": -1.7543030273,
				"y": 1.1850407899,
				"z": 4.3165514146,
				"element": "H" 
			},
			{
				"x": 0.8948260536,
				"y": -0.9629474451,
				"z": 3.983777122,
				"element": "H" 
			}
		],
		 "valence_orbital": [ 
			{
				"type": "occ",
				"energy": -0.336,
				"method": "rhf"
			},
			{
				"type": "occ",
				"energy": -0.30179,
				"method": "rhf"
			},
			{
				"type": "occ",
				"energy": -0.29747,
				"method": "rhf"
			},
			{
				"type": "occ",
				"energy": -0.27854,
				"method": "rhf"
			},
			{
				"type": "occ",
				"energy": -0.25385,
				"method": "rhf"
			},
			{
				"type": "unocc",
				"energy": -0.01153,
				"method": "rhf"
			},
			{
				"type": "unocc",
				"energy": 0.01429,
				"method": "rhf"
			},
			{
				"type": "unocc",
				"energy": 0.04587,
				"method": "rhf"
			},
			{
				"type": "unocc",
				"energy": 0.07731,
				"method": "rhf"
			},
			{
				"type": "unocc",
				"energy": 0.10454,
				"method": "rhf"
			}
		],
		"cosmo_sigma_profile": { 
			"-0.025": 0.0,
			"-0.024": 0.0,
			"-0.023": 0.0,
			"-0.022": 0.0,
			"-0.021": 0.0,
			"-0.02": 0.0,
			"-0.019": 0.0,
			"-0.018": 0.0,
			"-0.017": 0.0,
			"-0.016": 0.539662903225,
			"-0.015": 1.38294127763,
			"-0.014": 1.33580064544,
			"-0.013": 1.72584407065,
			"-0.012": 1.0186551115,
			"-0.011": 1.65879213561,
			"-0.01": 2.32559615199,
			"-0.009": 1.423299438,
			"-0.008": 3.90498756257,
			"-0.007": 5.85652934036,
			"-0.006": 5.25279921022,
			"-0.005": 8.77040097041,
			"-0.004": 11.4950556927,
			"-0.003": 25.5593873518,
			"-0.002": 27.1704321052,
			"-0.001": 20.6966533762,
			"0.0": 20.7681997803,
			"0.001": 23.323729436,
			"0.002": 11.5066521461,
			"0.003": 3.70026312657,
			"0.004": 3.86510349598,
			"0.005": 3.26327660058,
			"0.006": 3.01613370858,
			"0.007": 3.70317468555,
			"0.008": 3.84472417571,
			"0.009": 3.95974067651,
			"0.01": 6.36332537334,
			"0.011": 7.26002978466,
			"0.012": 7.39546097783,
			"0.013": 3.49822092794,
			"0.014": 0.346251520009,
			"0.015": 0.0,
			"0.016": 0.0,
			"0.017": 0.0,
			"0.018": 0.0,
			"0.019": 0.0,
			"0.02": 0.0,
			"0.021": 0.0,
			"0.022": 0.0,
			"0.023": 0.0,
			"0.024": 0.0,
			"0.025": 0.0
		}
	}
}
