{
	 "smiles": "CCC1=CC2=CC3=C(C=CC=C3)C=C2C=C1", 
	 "Tm": 425.15, 
	 "num_atms": 30, 
	 "gaussian": { 
		 "optdone": 1, 
		 "sigma_profile": "yes", 
		 "theory": "DFT", 
		 "functional": "B3LYP", 
		 "basiset": "6-31G**", 
		 "properties": { 
			 "R2extent": 4812.336, 
			 "electric_dipole_moment_norm": 0.495472400846, 
			 "electric_quadrupole_moment_norm": 11.2937721418, 
			 "total_energy": -618.170410533, 
			 "HOMO_LUMO_gap": 0.13186, 
			 "cosmo_polarized_energy": -5.79, 
			 "cosmo_cavitation_energy": 32.79, 
			 "cosmo_dispersion_energy": -24.04, 
			 "cosmo_repulsion_energy": 1.83, 
			 "cosmo_total_nonelectrostatic_energy": 10.58, 
			 "SMD_solvation_energy": 4.85 
		},
		"coords": [
			{
				"x": 0.5758458373,
				"y": 0.0269205795,
				"z": -4.7291339971,
				"element": "C" 
			},
			{
				"x": 1.7373259609,
				"y": 0.0726340893,
				"z": -3.7198350651,
				"element": "C" 
			},
			{
				"x": 1.2730712523,
				"y": 0.214172203,
				"z": -2.2867662508,
				"element": "C" 
			},
			{
				"x": 1.3012173107,
				"y": -0.8419483547,
				"z": -1.4093515296,
				"element": "C" 
			},
			{
				"x": 0.8376223294,
				"y": -0.7207416037,
				"z": -0.0618626737,
				"element": "C" 
			},
			{
				"x": 0.8632924868,
				"y": -1.7936237691,
				"z": 0.8380077811,
				"element": "C" 
			},
			{
				"x": 0.40651279,
				"y": -1.6627262284,
				"z": 2.1563523886,
				"element": "C" 
			},
			{
				"x": -0.1039731505,
				"y": -0.3859268856,
				"z": 2.600828943,
				"element": "C" 
			},
			{
				"x": -0.5668352766,
				"y": -0.264562334,
				"z": 3.9482513211,
				"element": "C" 
			},
			{
				"x": -0.5298642415,
				"y": -1.3329105489,
				"z": 4.8055187348,
				"element": "C" 
			},
			{
				"x": -0.0261310338,
				"y": -2.5929778726,
				"z": 4.3671522194,
				"element": "C" 
			},
			{
				"x": 0.4270244243,
				"y": -2.7511826992,
				"z": 3.0837017327,
				"element": "C" 
			},
			{
				"x": -0.128485845,
				"y": 0.6876171638,
				"z": 1.7004543777,
				"element": "C" 
			},
			{
				"x": 0.327131979,
				"y": 0.5545083919,
				"z": 0.3835953776,
				"element": "C" 
			},
			{
				"x": 0.3124014783,
				"y": 1.6392017194,
				"z": -0.5484672757,
				"element": "C" 
			},
			{
				"x": 0.7657083385,
				"y": 1.4745978414,
				"z": -1.8287370236,
				"element": "C" 
			},
			{
				"x": -0.0778551961,
				"y": -0.8286823365,
				"z": -4.5320745304,
				"element": "H" 
			},
			{
				"x": -0.0374358817,
				"y": 0.9321362536,
				"z": -4.6705753726,
				"element": "H" 
			},
			{
				"x": 0.9516268212,
				"y": -0.0588850572,
				"z": -5.7540835078,
				"element": "H" 
			},
			{
				"x": 2.3980362809,
				"y": 0.9124874414,
				"z": -3.9727102082,
				"element": "H" 
			},
			{
				"x": 2.3401935944,
				"y": -0.8371391833,
				"z": -3.8185941807,
				"element": "H" 
			},
			{
				"x": 1.6865416323,
				"y": -1.8062570892,
				"z": -1.7345253978,
				"element": "H" 
			},
			{
				"x": 1.2477838735,
				"y": -2.7552059787,
				"z": 0.5047438171,
				"element": "H" 
			},
			{
				"x": -0.9503706852,
				"y": 0.6970621266,
				"z": 4.2799355592,
				"element": "H" 
			},
			{
				"x": -0.884885599,
				"y": -1.2260274308,
				"z": 5.8264853543,
				"element": "H" 
			},
			{
				"x": -0.0041909132,
				"y": -3.4290371945,
				"z": 5.0602849756,
				"element": "H" 
			},
			{
				"x": 0.8113690833,
				"y": -3.7110376165,
				"z": 2.747915931,
				"element": "H" 
			},
			{
				"x": -0.5118744655,
				"y": 1.6496245972,
				"z": 2.0338537359,
				"element": "H" 
			},
			{
				"x": -0.0638707042,
				"y": 2.6038897236,
				"z": -0.2171614374,
				"element": "H" 
			},
			{
				"x": 0.7504675193,
				"y": 2.3145200522,
				"z": -2.5193037985,
				"element": "H" 
			}
		],
		 "valence_orbital": [ 
			{
				"type": "occ",
				"energy": -0.29456,
				"method": "rhf"
			},
			{
				"type": "occ",
				"energy": -0.29162,
				"method": "rhf"
			},
			{
				"type": "occ",
				"energy": -0.25132,
				"method": "rhf"
			},
			{
				"type": "occ",
				"energy": -0.23245,
				"method": "rhf"
			},
			{
				"type": "occ",
				"energy": -0.18983,
				"method": "rhf"
			},
			{
				"type": "unocc",
				"energy": -0.05797,
				"method": "rhf"
			},
			{
				"type": "unocc",
				"energy": -0.00963,
				"method": "rhf"
			},
			{
				"type": "unocc",
				"energy": 0.01008,
				"method": "rhf"
			},
			{
				"type": "unocc",
				"energy": 0.04664,
				"method": "rhf"
			},
			{
				"type": "unocc",
				"energy": 0.06529,
				"method": "rhf"
			}
		],
		"cosmo_sigma_profile": { 
			"-0.025": 0.0,
			"-0.024": 0.0,
			"-0.023": 0.0,
			"-0.022": 0.0,
			"-0.021": 0.0,
			"-0.02": 0.0,
			"-0.019": 0.0,
			"-0.018": 0.0,
			"-0.017": 0.0,
			"-0.016": 0.0,
			"-0.015": 0.0,
			"-0.014": 0.0,
			"-0.013": 0.0,
			"-0.012": 0.0,
			"-0.011": 0.0,
			"-0.01": 0.0,
			"-0.009": 0.0,
			"-0.008": 0.0,
			"-0.007": 0.0,
			"-0.006": 9.13146010326,
			"-0.005": 21.229511134,
			"-0.004": 22.1276205908,
			"-0.003": 25.8156442125,
			"-0.002": 21.8121824945,
			"-0.001": 22.0762951867,
			"0.0": 21.1527821723,
			"0.001": 21.1307631188,
			"0.002": 15.5026040294,
			"0.003": 16.421835248,
			"0.004": 38.0823278309,
			"0.005": 22.8665195609,
			"0.006": 3.79231969112,
			"0.007": 0.0,
			"0.008": 0.0,
			"0.009": 0.0,
			"0.01": 0.0,
			"0.011": 0.0,
			"0.012": 0.0,
			"0.013": 0.0,
			"0.014": 0.0,
			"0.015": 0.0,
			"0.016": 0.0,
			"0.017": 0.0,
			"0.018": 0.0,
			"0.019": 0.0,
			"0.02": 0.0,
			"0.021": 0.0,
			"0.022": 0.0,
			"0.023": 0.0,
			"0.024": 0.0,
			"0.025": 0.0
		}
	}
}
