{
	 "smiles": "[O-][N+](=O)C1=CC2=C(C=C1)C(=O)N(C2=O)C1=CC=NC=C1", 
	 "Tm": 533.15, 
	 "num_atms": 27, 
	 "gaussian": { 
		 "optdone": 1, 
		 "sigma_profile": "yes", 
		 "theory": "DFT", 
		 "functional": "B3LYP", 
		 "basiset": "6-31G**", 
		 "properties": { 
			 "R2extent": 7845.9113, 
			 "electric_dipole_moment_norm": 2.39147811196, 
			 "electric_quadrupole_moment_norm": 21.0250699098, 
			 "total_energy": -964.664714349, 
			 "HOMO_LUMO_gap": 0.12976, 
			 "cosmo_polarized_energy": -14.76, 
			 "cosmo_cavitation_energy": 33.52, 
			 "cosmo_dispersion_energy": -24.7, 
			 "cosmo_repulsion_energy": 1.8, 
			 "cosmo_total_nonelectrostatic_energy": 10.62, 
			 "SMD_solvation_energy": 7.71 
		},
		"coords": [
			{
				"x": -1.6526723483,
				"y": 4.8490070818,
				"z": -4.0118390494,
				"element": "O" 
			},
			{
				"x": -2.4845855087,
				"y": 3.9753209917,
				"z": -3.7812945633,
				"element": "N" 
			},
			{
				"x": -3.6034478344,
				"y": 3.9097179782,
				"z": -4.2847728863,
				"element": "O" 
			},
			{
				"x": -2.1061525413,
				"y": 2.9178506429,
				"z": -2.819092289,
				"element": "C" 
			},
			{
				"x": -0.8380730132,
				"y": 2.9747961845,
				"z": -2.235268518,
				"element": "C" 
			},
			{
				"x": -0.542742331,
				"y": 1.95647224,
				"z": -1.342658818,
				"element": "C" 
			},
			{
				"x": -1.4512286781,
				"y": 0.9470030859,
				"z": -1.0504600851,
				"element": "C" 
			},
			{
				"x": -2.7099659907,
				"y": 0.8974606377,
				"z": -1.6351514551,
				"element": "C" 
			},
			{
				"x": -3.0368234714,
				"y": 1.9114939795,
				"z": -2.5401268123,
				"element": "C" 
			},
			{
				"x": -0.8288037504,
				"y": 0.0210092971,
				"z": -0.0641485479,
				"element": "C" 
			},
			{
				"x": -1.3435885324,
				"y": -0.969215505,
				"z": 0.4081141226,
				"element": "O" 
			},
			{
				"x": 0.4761926157,
				"y": 0.5324008341,
				"z": 0.2047309279,
				"element": "N" 
			},
			{
				"x": 0.6991145065,
				"y": 1.7214888019,
				"z": -0.5575380645,
				"element": "C" 
			},
			{
				"x": 1.6961338224,
				"y": 2.4088404543,
				"z": -0.5698011499,
				"element": "O" 
			},
			{
				"x": 1.4216970139,
				"y": -0.0573473444,
				"z": 1.1040495989,
				"element": "C" 
			},
			{
				"x": 1.1164919405,
				"y": -1.2296938151,
				"z": 1.8132364106,
				"element": "C" 
			},
			{
				"x": 2.0798924376,
				"y": -1.7540576925,
				"z": 2.6735084642,
				"element": "C" 
			},
			{
				"x": 3.2894392697,
				"y": -1.222624295,
				"z": 2.8809159601,
				"element": "N" 
			},
			{
				"x": 3.5615955386,
				"y": -0.1063263973,
				"z": 2.1964726814,
				"element": "C" 
			},
			{
				"x": 2.686552125,
				"y": 0.5162714791,
				"z": 1.307764406,
				"element": "C" 
			},
			{
				"x": -0.1428245893,
				"y": 3.7694367375,
				"z": -2.4750839454,
				"element": "H" 
			},
			{
				"x": -3.4084463857,
				"y": 0.1027977552,
				"z": -1.3969236031,
				"element": "H" 
			},
			{
				"x": -3.9986336011,
				"y": 1.941834908,
				"z": -3.0368737934,
				"element": "H" 
			},
			{
				"x": 0.1634511065,
				"y": -1.7222719755,
				"z": 1.7039291411,
				"element": "H" 
			},
			{
				"x": 1.8525716244,
				"y": -2.6628657975,
				"z": 3.2278656977,
				"element": "H" 
			},
			{
				"x": 4.5447262622,
				"y": 0.3309463963,
				"z": 2.3611200582,
				"element": "H" 
			},
			{
				"x": 2.9860303127,
				"y": 1.4165533364,
				"z": 0.7952261117,
				"element": "H" 
			}
		],
		 "valence_orbital": [ 
			{
				"type": "occ",
				"energy": -0.31323,
				"method": "rhf"
			},
			{
				"type": "occ",
				"energy": -0.29703,
				"method": "rhf"
			},
			{
				"type": "occ",
				"energy": -0.26871,
				"method": "rhf"
			},
			{
				"type": "occ",
				"energy": -0.2685,
				"method": "rhf"
			},
			{
				"type": "occ",
				"energy": -0.25891,
				"method": "rhf"
			},
			{
				"type": "unocc",
				"energy": -0.12915,
				"method": "rhf"
			},
			{
				"type": "unocc",
				"energy": -0.09731,
				"method": "rhf"
			},
			{
				"type": "unocc",
				"energy": -0.06717,
				"method": "rhf"
			},
			{
				"type": "unocc",
				"energy": -0.02823,
				"method": "rhf"
			},
			{
				"type": "unocc",
				"energy": -0.01711,
				"method": "rhf"
			}
		],
		"cosmo_sigma_profile": { 
			"-0.025": 0.0,
			"-0.024": 0.0,
			"-0.023": 0.0,
			"-0.022": 0.0,
			"-0.021": 0.0,
			"-0.02": 0.0,
			"-0.019": 0.0,
			"-0.018": 0.0,
			"-0.017": 0.0,
			"-0.016": 0.0,
			"-0.015": 0.0,
			"-0.014": 0.0,
			"-0.013": 0.0,
			"-0.012": 0.0,
			"-0.011": 0.0,
			"-0.01": 0.509803275499,
			"-0.009": 4.82441632292,
			"-0.008": 8.10341541817,
			"-0.007": 10.6335932046,
			"-0.006": 15.4850052974,
			"-0.005": 18.8329165083,
			"-0.004": 18.8003136898,
			"-0.003": 26.6450320022,
			"-0.002": 22.6585621133,
			"-0.001": 16.8995177633,
			"0.0": 15.2686877966,
			"0.001": 18.6212698422,
			"0.002": 17.6747930252,
			"0.003": 8.43436398801,
			"0.004": 8.14272099604,
			"0.005": 8.15420641461,
			"0.006": 10.4121054883,
			"0.007": 12.4943973929,
			"0.008": 11.083516209,
			"0.009": 8.773001277,
			"0.01": 4.22291575074,
			"0.011": 0.98222181761,
			"0.012": 1.04953252347,
			"0.013": 0.996520271759,
			"0.014": 1.01431184,
			"0.015": 0.513450187051,
			"0.016": 1.13741097113,
			"0.017": 0.201805930909,
			"0.018": 0.0,
			"0.019": 0.0,
			"0.02": 0.0,
			"0.021": 0.0,
			"0.022": 0.0,
			"0.023": 0.0,
			"0.024": 0.0,
			"0.025": 0.0
		}
	}
}
