{
	 "smiles": "OC(=O)C1=NNC2=C1CCC2", 
	 "Tm": 561.15, 
	 "num_atms": 19, 
	 "gaussian": { 
		 "optdone": 1, 
		 "sigma_profile": "yes", 
		 "theory": "DFT", 
		 "functional": "B3LYP", 
		 "basiset": "6-31G**", 
		 "properties": { 
			 "R2extent": 2303.358, 
			 "electric_dipole_moment_norm": 7.842040005, 
			 "electric_quadrupole_moment_norm": 28.4034627201, 
			 "total_energy": -531.492981314, 
			 "HOMO_LUMO_gap": 0.22077, 
			 "cosmo_polarized_energy": -21.99, 
			 "cosmo_cavitation_energy": 22.59, 
			 "cosmo_dispersion_energy": -17.28, 
			 "cosmo_repulsion_energy": 1.41, 
			 "cosmo_total_nonelectrostatic_energy": 6.72, 
			 "SMD_solvation_energy": 3.48 
		},
		"coords": [
			{
				"x": 2.6520468799,
				"y": 2.5964628752,
				"z": -0.680823464,
				"element": "O" 
			},
			{
				"x": 3.0516423375,
				"y": 1.2961743759,
				"z": -0.5582197978,
				"element": "C" 
			},
			{
				"x": 4.2016166935,
				"y": 1.0361646018,
				"z": -0.3112306277,
				"element": "O" 
			},
			{
				"x": 1.9696388516,
				"y": 0.2912823517,
				"z": -0.746950109,
				"element": "C" 
			},
			{
				"x": 2.2817387819,
				"y": -1.0149298154,
				"z": -0.7342689449,
				"element": "N" 
			},
			{
				"x": 1.1114657648,
				"y": -1.65510405,
				"z": -0.9216358182,
				"element": "N" 
			},
			{
				"x": 0.0627096253,
				"y": -0.8013870851,
				"z": -1.036484684,
				"element": "C" 
			},
			{
				"x": 0.5711162166,
				"y": 0.4694308827,
				"z": -0.9313358952,
				"element": "C" 
			},
			{
				"x": -0.5232783067,
				"y": 1.4944710867,
				"z": -1.0955936749,
				"element": "C" 
			},
			{
				"x": -1.8159104897,
				"y": 0.6152650183,
				"z": -0.9739268723,
				"element": "C" 
			},
			{
				"x": -1.4126260356,
				"y": -0.8652412865,
				"z": -1.2857750467,
				"element": "C" 
			},
			{
				"x": 1.7161423958,
				"y": 2.6439575662,
				"z": -0.9188608904,
				"element": "H" 
			},
			{
				"x": 1.1154793551,
				"y": -2.6639713774,
				"z": -0.9387550224,
				"element": "H" 
			},
			{
				"x": -0.4727791046,
				"y": 1.9869533486,
				"z": -2.0769134486,
				"element": "H" 
			},
			{
				"x": -0.5177634448,
				"y": 2.2875699999,
				"z": -0.3379707936,
				"element": "H" 
			},
			{
				"x": -2.6196861934,
				"y": 0.9691088737,
				"z": -1.624507063,
				"element": "H" 
			},
			{
				"x": -2.1820326797,
				"y": 0.669474651,
				"z": 0.0555760202,
				"element": "H" 
			},
			{
				"x": -1.6314052918,
				"y": -1.1356376095,
				"z": -2.3273199373,
				"element": "H" 
			},
			{
				"x": -1.9474153559,
				"y": -1.5778444077,
				"z": -0.6489039302,
				"element": "H" 
			}
		],
		 "valence_orbital": [ 
			{
				"type": "occ",
				"energy": -0.3055,
				"method": "rhf"
			},
			{
				"type": "occ",
				"energy": -0.2971,
				"method": "rhf"
			},
			{
				"type": "occ",
				"energy": -0.26944,
				"method": "rhf"
			},
			{
				"type": "occ",
				"energy": -0.26034,
				"method": "rhf"
			},
			{
				"type": "occ",
				"energy": -0.24834,
				"method": "rhf"
			},
			{
				"type": "unocc",
				"energy": -0.02757,
				"method": "rhf"
			},
			{
				"type": "unocc",
				"energy": 0.02243,
				"method": "rhf"
			},
			{
				"type": "unocc",
				"energy": 0.05915,
				"method": "rhf"
			},
			{
				"type": "unocc",
				"energy": 0.06841,
				"method": "rhf"
			},
			{
				"type": "unocc",
				"energy": 0.07879,
				"method": "rhf"
			}
		],
		"cosmo_sigma_profile": { 
			"-0.025": 0.0,
			"-0.024": 0.0,
			"-0.023": 0.0,
			"-0.022": 0.0,
			"-0.021": 0.0,
			"-0.02": 0.0,
			"-0.019": 0.0,
			"-0.018": 0.113743839085,
			"-0.017": 1.63458693425,
			"-0.016": 1.05562597996,
			"-0.015": 1.85981317559,
			"-0.014": 2.12195252719,
			"-0.013": 1.86808517543,
			"-0.012": 2.47874400966,
			"-0.011": 2.27138724657,
			"-0.01": 2.30310298994,
			"-0.009": 2.15099118789,
			"-0.008": 2.72428804169,
			"-0.007": 2.64831592839,
			"-0.006": 3.22680976647,
			"-0.005": 10.1347349127,
			"-0.004": 16.4966104785,
			"-0.003": 20.1344746898,
			"-0.002": 17.0880741213,
			"-0.001": 13.4140648348,
			"0.0": 8.97552492171,
			"0.001": 5.30224487073,
			"0.002": 8.06808927865,
			"0.003": 4.90523819935,
			"0.004": 2.71773208393,
			"0.005": 3.42147416948,
			"0.006": 3.79558408491,
			"0.007": 2.87824853563,
			"0.008": 2.92956164031,
			"0.009": 4.70977048318,
			"0.01": 4.6248039278,
			"0.011": 6.730304761,
			"0.012": 6.50242218387,
			"0.013": 4.51987139367,
			"0.014": 1.97008647472,
			"0.015": 2.1421862044,
			"0.016": 1.03855773313,
			"0.017": 0.0241616613216,
			"0.018": 0.0,
			"0.019": 0.0,
			"0.02": 0.0,
			"0.021": 0.0,
			"0.022": 0.0,
			"0.023": 0.0,
			"0.024": 0.0,
			"0.025": 0.0
		}
	}
}
