{
	 "smiles": "OC(=O)CCCOC1=CC(F)=CC=C1", 
	 "Tm": 325.15, 
	 "num_atms": 25, 
	 "gaussian": { 
		 "optdone": 1, 
		 "sigma_profile": "yes", 
		 "theory": "DFT", 
		 "functional": "B3LYP", 
		 "basiset": "6-31G**", 
		 "properties": { 
			 "R2extent": 4867.4834, 
			 "electric_dipole_moment_norm": 3.88887876515, 
			 "electric_quadrupole_moment_norm": 5.7805640486, 
			 "total_energy": -713.210075692, 
			 "HOMO_LUMO_gap": 0.22192, 
			 "cosmo_polarized_energy": -12.44, 
			 "cosmo_cavitation_energy": 30.27, 
			 "cosmo_dispersion_energy": -21.68, 
			 "cosmo_repulsion_energy": 1.72, 
			 "cosmo_total_nonelectrostatic_energy": 10.3, 
			 "SMD_solvation_energy": 6.94 
		},
		"coords": [
			{
				"x": -4.785608423,
				"y": -1.6466469389,
				"z": -0.3697592778,
				"element": "O" 
			},
			{
				"x": -4.0807022332,
				"y": -0.6672532823,
				"z": -0.9950810818,
				"element": "C" 
			},
			{
				"x": -4.5989279214,
				"y": 0.1096094831,
				"z": -1.7650962191,
				"element": "O" 
			},
			{
				"x": -2.616197548,
				"y": -0.6985570757,
				"z": -0.6169448823,
				"element": "C" 
			},
			{
				"x": -2.3742944901,
				"y": -0.665870204,
				"z": 0.9019663445,
				"element": "C" 
			},
			{
				"x": -0.8961890945,
				"y": -0.71885445,
				"z": 1.2628472304,
				"element": "C" 
			},
			{
				"x": -0.2683761637,
				"y": 0.4380903452,
				"z": 0.7140518778,
				"element": "O" 
			},
			{
				"x": 1.0720509706,
				"y": 0.6117010554,
				"z": 0.8987936688,
				"element": "C" 
			},
			{
				"x": 1.6112095566,
				"y": 1.7701857038,
				"z": 0.3203938625,
				"element": "C" 
			},
			{
				"x": 2.9659852883,
				"y": 2.0173465851,
				"z": 0.4659106195,
				"element": "C" 
			},
			{
				"x": 3.4802496499,
				"y": 3.1332458062,
				"z": -0.0924651752,
				"element": "F" 
			},
			{
				"x": 3.8165525721,
				"y": 1.1622544655,
				"z": 1.1636036109,
				"element": "C" 
			},
			{
				"x": 3.2612763119,
				"y": 0.0180439441,
				"z": 1.7302694551,
				"element": "C" 
			},
			{
				"x": 1.8982561848,
				"y": -0.2705218062,
				"z": 1.6079657561,
				"element": "C" 
			},
			{
				"x": -5.7032685964,
				"y": -1.5520130621,
				"z": -0.6759758545,
				"element": "H" 
			},
			{
				"x": -2.1870381622,
				"y": -1.6198950115,
				"z": -1.0332576875,
				"element": "H" 
			},
			{
				"x": -2.1322250322,
				"y": 0.1475350257,
				"z": -1.1058511887,
				"element": "H" 
			},
			{
				"x": -2.8086336754,
				"y": 0.2455392902,
				"z": 1.3283591093,
				"element": "H" 
			},
			{
				"x": -2.8756294947,
				"y": -1.5155172991,
				"z": 1.3763992708,
				"element": "H" 
			},
			{
				"x": -0.4292365571,
				"y": -1.6281019407,
				"z": 0.856052841,
				"element": "H" 
			},
			{
				"x": -0.7715229307,
				"y": -0.7328852284,
				"z": 2.3544233278,
				"element": "H" 
			},
			{
				"x": 0.9754814639,
				"y": 2.4548366331,
				"z": -0.2282210676,
				"element": "H" 
			},
			{
				"x": 4.8706376956,
				"y": 1.3986676824,
				"z": 1.2503174426,
				"element": "H" 
			},
			{
				"x": 3.89829812,
				"y": -0.6680215822,
				"z": 2.2806108833,
				"element": "H" 
			},
			{
				"x": 1.4988525088,
				"y": -1.1687181387,
				"z": 2.0617871341,
				"element": "H" 
			}
		],
		 "valence_orbital": [ 
			{
				"type": "occ",
				"energy": -0.32125,
				"method": "rhf"
			},
			{
				"type": "occ",
				"energy": -0.31921,
				"method": "rhf"
			},
			{
				"type": "occ",
				"energy": -0.27433,
				"method": "rhf"
			},
			{
				"type": "occ",
				"energy": -0.24806,
				"method": "rhf"
			},
			{
				"type": "occ",
				"energy": -0.22777,
				"method": "rhf"
			},
			{
				"type": "unocc",
				"energy": -0.00585,
				"method": "rhf"
			},
			{
				"type": "unocc",
				"energy": 0.0051,
				"method": "rhf"
			},
			{
				"type": "unocc",
				"energy": 0.01042,
				"method": "rhf"
			},
			{
				"type": "unocc",
				"energy": 0.0714,
				"method": "rhf"
			},
			{
				"type": "unocc",
				"energy": 0.08416,
				"method": "rhf"
			}
		],
		"cosmo_sigma_profile": { 
			"-0.025": 0.0,
			"-0.024": 0.0,
			"-0.023": 0.0,
			"-0.022": 0.0,
			"-0.021": 0.0,
			"-0.02": 0.0,
			"-0.019": 0.0,
			"-0.018": 0.617025291469,
			"-0.017": 0.996102079162,
			"-0.016": 1.05263534043,
			"-0.015": 0.174550631032,
			"-0.014": 0.697578898788,
			"-0.013": 0.757836972426,
			"-0.012": 0.817809887737,
			"-0.011": 1.01905156879,
			"-0.01": 0.504235042529,
			"-0.009": 0.800135045221,
			"-0.008": 0.443024379454,
			"-0.007": 4.51696509924,
			"-0.006": 14.0481662379,
			"-0.005": 22.3117373635,
			"-0.004": 22.2181341148,
			"-0.003": 17.2447706424,
			"-0.002": 14.395042335,
			"-0.001": 12.375789002,
			"0.0": 11.0975550321,
			"0.001": 13.3731746819,
			"0.002": 16.6642770452,
			"0.003": 19.9931920155,
			"0.004": 22.0839265367,
			"0.005": 15.5597231936,
			"0.006": 3.8361722609,
			"0.007": 4.32396761829,
			"0.008": 2.69004344263,
			"0.009": 2.89453433145,
			"0.01": 2.5156904006,
			"0.011": 3.7727017066,
			"0.012": 4.7187933909,
			"0.013": 1.16694317304,
			"0.014": 0.0121465576492,
			"0.015": 0.0,
			"0.016": 0.0,
			"0.017": 0.0,
			"0.018": 0.0,
			"0.019": 0.0,
			"0.02": 0.0,
			"0.021": 0.0,
			"0.022": 0.0,
			"0.023": 0.0,
			"0.024": 0.0,
			"0.025": 0.0
		}
	}
}
