{
	 "smiles": "CCOC1=C(OCC)C=C2C(=S)NCCC2=C1", 
	 "Tm": 424.15, 
	 "num_atms": 34, 
	 "gaussian": { 
		 "optdone": 1, 
		 "sigma_profile": "yes", 
		 "theory": "DFT", 
		 "functional": "B3LYP", 
		 "basiset": "6-31G**", 
		 "properties": { 
			 "R2extent": 6371.7156, 
			 "electric_dipole_moment_norm": 5.1305299697, 
			 "electric_quadrupole_moment_norm": 28.2396431406, 
			 "total_energy": -1109.02102095, 
			 "HOMO_LUMO_gap": 0.14405, 
			 "cosmo_polarized_energy": -16.41, 
			 "cosmo_cavitation_energy": 37.9, 
			 "cosmo_dispersion_energy": -27.18, 
			 "cosmo_repulsion_energy": 2.12, 
			 "cosmo_total_nonelectrostatic_energy": 12.84, 
			 "SMD_solvation_energy": 4.93 
		},
		"coords": [
			{
				"x": 3.5299829628,
				"y": 0.3356684924,
				"z": 1.8845288085,
				"element": "C" 
			},
			{
				"x": 2.6224306253,
				"y": -0.1538493466,
				"z": 0.7715164688,
				"element": "C" 
			},
			{
				"x": 1.2704379882,
				"y": 0.2250209709,
				"z": 1.1137038648,
				"element": "O" 
			},
			{
				"x": 0.2990015411,
				"y": -0.1487055313,
				"z": 0.2225155429,
				"element": "C" 
			},
			{
				"x": -0.0343304745,
				"y": -1.5019458533,
				"z": 0.0010185364,
				"element": "C" 
			},
			{
				"x": 0.6468873285,
				"y": -2.5146467053,
				"z": 0.6382114562,
				"element": "O" 
			},
			{
				"x": 0.2997158166,
				"y": -2.6947895009,
				"z": 2.0258346725,
				"element": "C" 
			},
			{
				"x": 1.1135704492,
				"y": -3.8589426305,
				"z": 2.5600153281,
				"element": "C" 
			},
			{
				"x": -1.0462792755,
				"y": -1.8199759536,
				"z": -0.895556389,
				"element": "C" 
			},
			{
				"x": -1.7598666433,
				"y": -0.8195606679,
				"z": -1.5730434564,
				"element": "C" 
			},
			{
				"x": -2.8307777597,
				"y": -1.1818834607,
				"z": -2.5367999389,
				"element": "C" 
			},
			{
				"x": -3.061928583,
				"y": -2.7231190239,
				"z": -3.1544127459,
				"element": "S" 
			},
			{
				"x": -3.6344720696,
				"y": -0.1629611354,
				"z": -2.9230546719,
				"element": "N" 
			},
			{
				"x": -3.6396734045,
				"y": 1.1644406808,
				"z": -2.3146943335,
				"element": "C" 
			},
			{
				"x": -2.2021793884,
				"y": 1.6139371095,
				"z": -2.0702958331,
				"element": "C" 
			},
			{
				"x": -1.4470660916,
				"y": 0.5355517303,
				"z": -1.3281181749,
				"element": "C" 
			},
			{
				"x": -0.4167489455,
				"y": 0.8489547901,
				"z": -0.4416082346,
				"element": "C" 
			},
			{
				"x": 3.4474779708,
				"y": 1.4197616545,
				"z": 2.0045220822,
				"element": "H" 
			},
			{
				"x": 4.5713120054,
				"y": 0.090133108,
				"z": 1.6535734167,
				"element": "H" 
			},
			{
				"x": 3.2674124575,
				"y": -0.1359560393,
				"z": 2.8360576237,
				"element": "H" 
			},
			{
				"x": 2.6814657964,
				"y": -1.2399320146,
				"z": 0.6514337746,
				"element": "H" 
			},
			{
				"x": 2.8870321005,
				"y": 0.3145577031,
				"z": -0.1863189251,
				"element": "H" 
			},
			{
				"x": 0.5094987667,
				"y": -1.7721239753,
				"z": 2.5804990926,
				"element": "H" 
			},
			{
				"x": -0.7767392413,
				"y": -2.901677073,
				"z": 2.1002459907,
				"element": "H" 
			},
			{
				"x": 0.9055857659,
				"y": -4.7682784482,
				"z": 1.9891718756,
				"element": "H" 
			},
			{
				"x": 0.8631795909,
				"y": -4.0421468109,
				"z": 3.6096939925,
				"element": "H" 
			},
			{
				"x": 2.1851912024,
				"y": -3.6489941149,
				"z": 2.492805036,
				"element": "H" 
			},
			{
				"x": -1.2887264191,
				"y": -2.8613077453,
				"z": -1.0757489097,
				"element": "H" 
			},
			{
				"x": -4.393145872,
				"y": -0.4275396669,
				"z": -3.5373835744,
				"element": "H" 
			},
			{
				"x": -4.1974059948,
				"y": 1.1493476772,
				"z": -1.3660007835,
				"element": "H" 
			},
			{
				"x": -4.1570222275,
				"y": 1.8474229423,
				"z": -2.9940411524,
				"element": "H" 
			},
			{
				"x": -2.1932055961,
				"y": 2.5522033402,
				"z": -1.5066668778,
				"element": "H" 
			},
			{
				"x": -1.7182077765,
				"y": 1.8115762006,
				"z": -3.0369383731,
				"element": "H" 
			},
			{
				"x": -0.1482066052,
				"y": 1.883059298,
				"z": -0.2456651886,
				"element": "H" 
			}
		],
		 "valence_orbital": [ 
			{
				"type": "occ",
				"energy": -0.26544,
				"method": "rhf"
			},
			{
				"type": "occ",
				"energy": -0.2507,
				"method": "rhf"
			},
			{
				"type": "occ",
				"energy": -0.23355,
				"method": "rhf"
			},
			{
				"type": "occ",
				"energy": -0.21321,
				"method": "rhf"
			},
			{
				"type": "occ",
				"energy": -0.19984,
				"method": "rhf"
			},
			{
				"type": "unocc",
				"energy": -0.05579,
				"method": "rhf"
			},
			{
				"type": "unocc",
				"energy": -0.00684,
				"method": "rhf"
			},
			{
				"type": "unocc",
				"energy": 0.03469,
				"method": "rhf"
			},
			{
				"type": "unocc",
				"energy": 0.07088,
				"method": "rhf"
			},
			{
				"type": "unocc",
				"energy": 0.08195,
				"method": "rhf"
			}
		],
		"cosmo_sigma_profile": { 
			"-0.025": 0.0,
			"-0.024": 0.0,
			"-0.023": 0.0,
			"-0.022": 0.0,
			"-0.021": 0.0,
			"-0.02": 0.0,
			"-0.019": 0.0,
			"-0.018": 0.0,
			"-0.017": 0.0,
			"-0.016": 0.0,
			"-0.015": 0.249279136861,
			"-0.014": 1.21625897574,
			"-0.013": 0.941273514947,
			"-0.012": 0.954693873157,
			"-0.011": 1.18069403982,
			"-0.01": 0.911746672872,
			"-0.009": 0.76059511553,
			"-0.008": 1.6139085268,
			"-0.007": 3.04829704182,
			"-0.006": 8.65811843283,
			"-0.005": 16.6133785864,
			"-0.004": 28.3686617395,
			"-0.003": 36.9313660983,
			"-0.002": 33.7046891342,
			"-0.001": 28.6314667244,
			"0.0": 27.0024508637,
			"0.001": 18.3932519954,
			"0.002": 16.5328798548,
			"0.003": 15.3552967941,
			"0.004": 7.96778267702,
			"0.005": 6.53168169068,
			"0.006": 7.05907236931,
			"0.007": 5.06803796607,
			"0.008": 8.00260084182,
			"0.009": 6.9275434667,
			"0.01": 9.69463912204,
			"0.011": 6.21672820051,
			"0.012": 2.3440756476,
			"0.013": 0.128864699057,
			"0.014": 0.0,
			"0.015": 0.0,
			"0.016": 0.0,
			"0.017": 0.0,
			"0.018": 0.0,
			"0.019": 0.0,
			"0.02": 0.0,
			"0.021": 0.0,
			"0.022": 0.0,
			"0.023": 0.0,
			"0.024": 0.0,
			"0.025": 0.0
		}
	}
}
