{
	 "smiles": "IC1=CC=CS1", 
	 "Tm": 233.15, 
	 "num_atms": 9, 
	 "gaussian": { 
		 "optdone": 1, 
		 "sigma_profile": "no", 
		 "theory": "DFT", 
		 "functional": "B3LYP", 
		 "basiset": "6-31G**", 
		 "properties": { 
			 "R2extent": 1508.6321, 
			 "electric_dipole_moment_norm": 1.50558834347, 
			 "electric_quadrupole_moment_norm": 5.7163341881, 
			 "total_energy": -563.782755064, 
			 "HOMO_LUMO_gap": 0.18496, 
			 "cosmo_polarized_energy": -101382.88, 
			 "cosmo_cavitation_energy": 17.71, 
			 "cosmo_dispersion_energy": -15.42, 
			 "cosmo_repulsion_energy": 1.22, 
			 "cosmo_total_nonelectrostatic_energy": 3.51, 
			 "SMD_solvation_energy": 2.27 
		},
		"coords": [
			{
				"x": -2.7524916797,
				"y": -3.2372509615,
				"z": 0.2819081244,
				"element": "I" 
			},
			{
				"x": -1.0101046884,
				"y": -2.1426134107,
				"z": 0.6337606712,
				"element": "C" 
			},
			{
				"x": -0.7712792343,
				"y": -0.8414486422,
				"z": 0.2800397685,
				"element": "C" 
			},
			{
				"x": 0.5306692563,
				"y": -0.4047260144,
				"z": 0.6758915923,
				"element": "C" 
			},
			{
				"x": 1.2500197409,
				"y": -1.3742751786,
				"z": 1.3173995329,
				"element": "C" 
			},
			{
				"x": 0.351305532,
				"y": -2.8531519618,
				"z": 1.4548227649,
				"element": "S" 
			},
			{
				"x": -1.4911904622,
				"y": -0.2213380877,
				"z": -0.2396301475,
				"element": "H" 
			},
			{
				"x": 0.9095488707,
				"y": 0.593276788,
				"z": 0.4870753343,
				"element": "H" 
			},
			{
				"x": 2.2523226647,
				"y": -1.3144725311,
				"z": 1.718732359,
				"element": "H" 
			}
		],
		 "valence_orbital": [ 
			{
				"type": "occ",
				"energy": -0.35539,
				"method": "rhf"
			},
			{
				"type": "occ",
				"energy": -0.29709,
				"method": "rhf"
			},
			{
				"type": "occ",
				"energy": -0.27624,
				"method": "rhf"
			},
			{
				"type": "occ",
				"energy": -0.26188,
				"method": "rhf"
			},
			{
				"type": "occ",
				"energy": -0.23011,
				"method": "rhf"
			},
			{
				"type": "unocc",
				"energy": -0.04515,
				"method": "rhf"
			},
			{
				"type": "unocc",
				"energy": -0.02591,
				"method": "rhf"
			},
			{
				"type": "unocc",
				"energy": 0.01834,
				"method": "rhf"
			},
			{
				"type": "unocc",
				"energy": 0.04729,
				"method": "rhf"
			},
			{
				"type": "unocc",
				"energy": 0.04892,
				"method": "rhf"
			}
		],
		"cosmo_sigma_profile": { 
			"0.0": 0.0,
			"0.0": 0.0,
			"0.0": 0.0,
			"0.0": 0.0,
			"0.0": 0.0,
			"0.0": 0.0,
			"0.0": 0.0,
			"0.0": 0.0,
			"0.0": 0.0,
			"0.0": 0.0,
			"0.0": 0.0,
			"0.0": 0.0,
			"0.0": 0.0,
			"0.0": 0.0,
			"0.0": 0.0,
			"0.0": 0.0,
			"0.0": 0.0,
			"0.0": 0.0,
			"0.0": 0.0,
			"0.0": 0.0,
			"0.0": 0.0,
			"0.0": 0.0,
			"0.0": 0.0,
			"0.0": 0.0,
			"0.0": 0.0,
			"0.0": 0.0,
			"0.0": 0.0,
			"0.0": 0.0,
			"0.0": 0.0,
			"0.0": 0.0,
			"0.0": 0.0,
			"0.0": 0.0,
			"0.0": 0.0,
			"0.0": 0.0,
			"0.0": 0.0,
			"0.0": 0.0,
			"0.0": 0.0,
			"0.0": 0.0,
			"0.0": 0.0,
			"0.0": 0.0,
			"0.0": 0.0,
			"0.0": 0.0,
			"0.0": 0.0,
			"0.0": 0.0,
			"0.0": 0.0,
			"0.0": 0.0,
			"0.0": 0.0,
			"0.0": 0.0,
			"0.0": 0.0,
			"0.0": 0.0,
			"0.0": 0.0
		}
	}
}
