{
	 "smiles": "CC(C)C1=CC=C(C=C1)N=C1NCC(C)S1", 
	 "Tm": 383.15, 
	 "num_atms": 34, 
	 "gaussian": { 
		 "optdone": 1, 
		 "sigma_profile": "yes", 
		 "theory": "DFT", 
		 "functional": "B3LYP", 
		 "basiset": "6-31G**", 
		 "properties": { 
			 "R2extent": 6273.4116, 
			 "electric_dipole_moment_norm": 3.57354615753, 
			 "electric_quadrupole_moment_norm": 22.2125849914, 
			 "total_energy": -1013.94105031, 
			 "HOMO_LUMO_gap": 0.19662, 
			 "cosmo_polarized_energy": -11.28, 
			 "cosmo_cavitation_energy": 37.39, 
			 "cosmo_dispersion_energy": -26.97, 
			 "cosmo_repulsion_energy": 2.1, 
			 "cosmo_total_nonelectrostatic_energy": 12.53, 
			 "SMD_solvation_energy": 3.64 
		},
		"coords": [
			{
				"x": 1.1634568018,
				"y": 1.4491838523,
				"z": 4.3826207307,
				"element": "C" 
			},
			{
				"x": 1.1254118887,
				"y": -0.011600317,
				"z": 3.8947631422,
				"element": "C" 
			},
			{
				"x": 0.3622914093,
				"y": -0.9053631056,
				"z": 4.8908321674,
				"element": "C" 
			},
			{
				"x": 0.5659873819,
				"y": -0.1246712077,
				"z": 2.4830921831,
				"element": "C" 
			},
			{
				"x": -0.7522403214,
				"y": 0.2541004377,
				"z": 2.1806320701,
				"element": "C" 
			},
			{
				"x": -1.2611106468,
				"y": 0.1424868147,
				"z": 0.8912498947,
				"element": "C" 
			},
			{
				"x": -0.4589865415,
				"y": -0.3360739246,
				"z": -0.1593295986,
				"element": "C" 
			},
			{
				"x": 0.8554701887,
				"y": -0.7319049267,
				"z": 0.1362608816,
				"element": "C" 
			},
			{
				"x": 1.3500322581,
				"y": -0.6226664387,
				"z": 1.4365077504,
				"element": "C" 
			},
			{
				"x": -1.0342517739,
				"y": -0.4717868016,
				"z": -1.4324679531,
				"element": "N" 
			},
			{
				"x": -0.5018138983,
				"y": -0.0185583499,
				"z": -2.4959019782,
				"element": "C" 
			},
			{
				"x": -1.0178971393,
				"y": -0.2787972767,
				"z": -3.752091067,
				"element": "N" 
			},
			{
				"x": -0.6655520742,
				"y": 0.6965380289,
				"z": -4.7732497319,
				"element": "C" 
			},
			{
				"x": 0.8140086305,
				"y": 1.037442989,
				"z": -4.5236478252,
				"element": "C" 
			},
			{
				"x": 1.78446603,
				"y": 0.0467759179,
				"z": -5.1684123401,
				"element": "C" 
			},
			{
				"x": 0.9578521675,
				"y": 1.0454917006,
				"z": -2.6732353324,
				"element": "S" 
			},
			{
				"x": 1.7385642338,
				"y": 2.0799340733,
				"z": 3.6976450298,
				"element": "H" 
			},
			{
				"x": 0.1542197938,
				"y": 1.8698418232,
				"z": 4.4538522668,
				"element": "H" 
			},
			{
				"x": 1.6215802452,
				"y": 1.5159907893,
				"z": 5.3759053225,
				"element": "H" 
			},
			{
				"x": 2.1621482594,
				"y": -0.3722963428,
				"z": 3.8581883277,
				"element": "H" 
			},
			{
				"x": -0.6829804601,
				"y": -0.5908337697,
				"z": 4.985961449,
				"element": "H" 
			},
			{
				"x": 0.8161867172,
				"y": -0.8535477261,
				"z": 5.8869494737,
				"element": "H" 
			},
			{
				"x": 0.3662720847,
				"y": -1.9508507244,
				"z": 4.5672187272,
				"element": "H" 
			},
			{
				"x": -1.3974001575,
				"y": 0.638490179,
				"z": 2.9668593808,
				"element": "H" 
			},
			{
				"x": -2.2854778148,
				"y": 0.4278188873,
				"z": 0.6719207182,
				"element": "H" 
			},
			{
				"x": 1.4804958931,
				"y": -1.1425018434,
				"z": -0.6502480043,
				"element": "H" 
			},
			{
				"x": 2.3709158913,
				"y": -0.9384225431,
				"z": 1.6406966931,
				"element": "H" 
			},
			{
				"x": -1.9572198454,
				"y": -0.6560998188,
				"z": -3.73629293,
				"element": "H" 
			},
			{
				"x": -0.8017171144,
				"y": 0.2611664038,
				"z": -5.7688915448,
				"element": "H" 
			},
			{
				"x": -1.2797690725,
				"y": 1.607557693,
				"z": -4.7064385149,
				"element": "H" 
			},
			{
				"x": 1.0244646964,
				"y": 2.0549392072,
				"z": -4.8627133264,
				"element": "H" 
			},
			{
				"x": 1.5531232263,
				"y": -0.9764423814,
				"z": -4.8597276839,
				"element": "H" 
			},
			{
				"x": 1.7121394611,
				"y": 0.1053671034,
				"z": -6.2613033438,
				"element": "H" 
			},
			{
				"x": 2.8170296011,
				"y": 0.2655915978,
				"z": -4.8843050346,
				"element": "H" 
			}
		],
		 "valence_orbital": [ 
			{
				"type": "occ",
				"energy": -0.2782,
				"method": "rhf"
			},
			{
				"type": "occ",
				"energy": -0.24522,
				"method": "rhf"
			},
			{
				"type": "occ",
				"energy": -0.23718,
				"method": "rhf"
			},
			{
				"type": "occ",
				"energy": -0.23319,
				"method": "rhf"
			},
			{
				"type": "occ",
				"energy": -0.19688,
				"method": "rhf"
			},
			{
				"type": "unocc",
				"energy": -0.00026,
				"method": "rhf"
			},
			{
				"type": "unocc",
				"energy": 0.00779,
				"method": "rhf"
			},
			{
				"type": "unocc",
				"energy": 0.02534,
				"method": "rhf"
			},
			{
				"type": "unocc",
				"energy": 0.04913,
				"method": "rhf"
			},
			{
				"type": "unocc",
				"energy": 0.07323,
				"method": "rhf"
			}
		],
		"cosmo_sigma_profile": { 
			"-0.025": 0.0,
			"-0.024": 0.0,
			"-0.023": 0.0,
			"-0.022": 0.0,
			"-0.021": 0.0,
			"-0.02": 0.0,
			"-0.019": 0.0,
			"-0.018": 0.0,
			"-0.017": 0.0,
			"-0.016": 0.0,
			"-0.015": 0.0,
			"-0.014": 0.504150724554,
			"-0.013": 1.16986323599,
			"-0.012": 0.703204421173,
			"-0.011": 1.51552461029,
			"-0.01": 0.868537714809,
			"-0.009": 0.562429741855,
			"-0.008": 1.38615243086,
			"-0.007": 1.60942827168,
			"-0.006": 6.79410635652,
			"-0.005": 16.2126163957,
			"-0.004": 26.2095306137,
			"-0.003": 29.7211797378,
			"-0.002": 28.7149783703,
			"-0.001": 27.1111104686,
			"0.0": 29.8652734263,
			"0.001": 27.6433434229,
			"0.002": 18.5999319339,
			"0.003": 13.2040506277,
			"0.004": 14.9271022153,
			"0.005": 15.9348274581,
			"0.006": 14.8379364664,
			"0.007": 7.6994819463,
			"0.008": 2.73904935765,
			"0.009": 1.57999226042,
			"0.01": 1.03259744369,
			"0.011": 1.08853564325,
			"0.012": 0.74999152307,
			"0.013": 1.22775442536,
			"0.014": 0.636158411659,
			"0.015": 0.212844394039,
			"0.016": 0.0,
			"0.017": 0.0,
			"0.018": 0.0,
			"0.019": 0.0,
			"0.02": 0.0,
			"0.021": 0.0,
			"0.022": 0.0,
			"0.023": 0.0,
			"0.024": 0.0,
			"0.025": 0.0
		}
	}
}
