{
	 "smiles": "ClCC(Br)CBr", 
	 "Tm": 279.15, 
	 "num_atms": 11, 
	 "gaussian": { 
		 "optdone": 1, 
		 "sigma_profile": "yes", 
		 "theory": "DFT", 
		 "functional": "B3LYP", 
		 "basiset": "6-31G**", 
		 "properties": { 
			 "R2extent": 4064.3762, 
			 "electric_dipole_moment_norm": 2.64017486921, 
			 "electric_quadrupole_moment_norm": 9.98806143253, 
			 "total_energy": -5720.33816947, 
			 "HOMO_LUMO_gap": 0.25138, 
			 "cosmo_polarized_energy": -9.32, 
			 "cosmo_cavitation_energy": 20.41, 
			 "cosmo_dispersion_energy": -15.84, 
			 "cosmo_repulsion_energy": 1.36, 
			 "cosmo_total_nonelectrostatic_energy": 5.93, 
			 "SMD_solvation_energy": 0.81 
		},
		"coords": [
			{
				"x": 1.6526690182,
				"y": 0.0197778362,
				"z": -0.1882319536,
				"element": "Cl" 
			},
			{
				"x": 1.1835033311,
				"y": 0.5787863448,
				"z": 1.4666240616,
				"element": "C" 
			},
			{
				"x": 0.1034405697,
				"y": 1.6558430495,
				"z": 1.4800351957,
				"element": "C" 
			},
			{
				"x": 0.82061384,
				"y": 3.3702248414,
				"z": 0.7933659568,
				"element": "Br" 
			},
			{
				"x": -1.1551206318,
				"y": 1.2455528012,
				"z": 0.7313931406,
				"element": "C" 
			},
			{
				"x": -2.6914409331,
				"y": 2.4048200851,
				"z": 1.133991774,
				"element": "Br" 
			},
			{
				"x": 0.8174960323,
				"y": -0.3045645522,
				"z": 1.9972102446,
				"element": "H" 
			},
			{
				"x": 2.0905277562,
				"y": 0.9401600603,
				"z": 1.9496629861,
				"element": "H" 
			},
			{
				"x": -0.1302550089,
				"y": 1.8658485036,
				"z": 2.5261766802,
				"element": "H" 
			},
			{
				"x": -1.4581766485,
				"y": 0.2422432866,
				"z": 1.0378753086,
				"element": "H" 
			},
			{
				"x": -1.0149573252,
				"y": 1.2722077435,
				"z": -0.3467033946,
				"element": "H" 
			}
		],
		 "valence_orbital": [ 
			{
				"type": "occ",
				"energy": -0.31335,
				"method": "rhf"
			},
			{
				"type": "occ",
				"energy": -0.29229,
				"method": "rhf"
			},
			{
				"type": "occ",
				"energy": -0.28759,
				"method": "rhf"
			},
			{
				"type": "occ",
				"energy": -0.28276,
				"method": "rhf"
			},
			{
				"type": "occ",
				"energy": -0.27666,
				"method": "rhf"
			},
			{
				"type": "unocc",
				"energy": -0.02528,
				"method": "rhf"
			},
			{
				"type": "unocc",
				"energy": -0.00821,
				"method": "rhf"
			},
			{
				"type": "unocc",
				"energy": 0.01441,
				"method": "rhf"
			},
			{
				"type": "unocc",
				"energy": 0.07502,
				"method": "rhf"
			},
			{
				"type": "unocc",
				"energy": 0.10894,
				"method": "rhf"
			}
		],
		"cosmo_sigma_profile": { 
			"-0.025": 0.0,
			"-0.024": 0.0,
			"-0.023": 0.0,
			"-0.022": 0.0,
			"-0.021": 0.0,
			"-0.02": 0.0,
			"-0.019": 0.0,
			"-0.018": 0.0,
			"-0.017": 0.0,
			"-0.016": 0.0,
			"-0.015": 0.0,
			"-0.014": 0.0,
			"-0.013": 0.0,
			"-0.012": 0.0,
			"-0.011": 0.764438530132,
			"-0.01": 4.24087941374,
			"-0.009": 8.27391644032,
			"-0.008": 8.23959213547,
			"-0.007": 6.44810118975,
			"-0.006": 6.9205905597,
			"-0.005": 6.36678165977,
			"-0.004": 5.70537297601,
			"-0.003": 6.87780418008,
			"-0.002": 7.68189593001,
			"-0.001": 8.39445303609,
			"0.0": 8.75183138778,
			"0.001": 8.06902745924,
			"0.002": 11.7816353747,
			"0.003": 11.1872697691,
			"0.004": 15.2903622499,
			"0.005": 23.447413698,
			"0.006": 17.1861254107,
			"0.007": 4.11014381025,
			"0.008": 0.00874452221797,
			"0.009": 0.0,
			"0.01": 0.0,
			"0.011": 0.0,
			"0.012": 0.0,
			"0.013": 0.0,
			"0.014": 0.0,
			"0.015": 0.0,
			"0.016": 0.0,
			"0.017": 0.0,
			"0.018": 0.0,
			"0.019": 0.0,
			"0.02": 0.0,
			"0.021": 0.0,
			"0.022": 0.0,
			"0.023": 0.0,
			"0.024": 0.0,
			"0.025": 0.0
		}
	}
}
