{
	 "smiles": "ON=C1/C(=O)N(N=C1C1=CC=C(C=C1)[N+]([O-])=O)C1=CC=CC=C1", 
	 "Tm": 496.15, 
	 "num_atms": 33, 
	 "gaussian": { 
		 "optdone": 1, 
		 "sigma_profile": "yes", 
		 "theory": "DFT", 
		 "functional": "B3LYP", 
		 "basiset": "6-31G**", 
		 "properties": { 
			 "R2extent": 10826.8477, 
			 "electric_dipole_moment_norm": 3.53495572815, 
			 "electric_quadrupole_moment_norm": 39.3490007846, 
			 "total_energy": -1097.33855826, 
			 "HOMO_LUMO_gap": 0.10447, 
			 "cosmo_polarized_energy": -17.02, 
			 "cosmo_cavitation_energy": 39.84, 
			 "cosmo_dispersion_energy": -29.05, 
			 "cosmo_repulsion_energy": 2.16, 
			 "cosmo_total_nonelectrostatic_energy": 12.95, 
			 "SMD_solvation_energy": 9.46 
		},
		"coords": [
			{
				"x": 0.0259158784,
				"y": 1.6085463805,
				"z": -4.6810329263,
				"element": "O" 
			},
			{
				"x": -0.670379337,
				"y": 1.3610995718,
				"z": -3.5333980384,
				"element": "N" 
			},
			{
				"x": 0.0713839236,
				"y": 1.2835146077,
				"z": -2.4820313921,
				"element": "C" 
			},
			{
				"x": 1.5662490156,
				"y": 1.42614837,
				"z": -2.3540342927,
				"element": "C" 
			},
			{
				"x": 2.3949838235,
				"y": 1.6449003404,
				"z": -3.2170876888,
				"element": "O" 
			},
			{
				"x": 1.7780445484,
				"y": 1.2439914838,
				"z": -0.9824114422,
				"element": "N" 
			},
			{
				"x": 0.6049230197,
				"y": 1.0142879102,
				"z": -0.296566458,
				"element": "N" 
			},
			{
				"x": -0.4087402227,
				"y": 1.0275595119,
				"z": -1.1189228979,
				"element": "C" 
			},
			{
				"x": -1.7745018301,
				"y": 0.8060560956,
				"z": -0.6224276636,
				"element": "C" 
			},
			{
				"x": -1.9792605248,
				"y": 0.5860422256,
				"z": 0.7553635895,
				"element": "C" 
			},
			{
				"x": -3.2534633563,
				"y": 0.3732082263,
				"z": 1.2590182085,
				"element": "C" 
			},
			{
				"x": -4.335676985,
				"y": 0.3801499389,
				"z": 0.3772144059,
				"element": "C" 
			},
			{
				"x": -4.1676151838,
				"y": 0.5942910521,
				"z": -0.9877568201,
				"element": "C" 
			},
			{
				"x": -2.8854967244,
				"y": 0.8070730962,
				"z": -1.485143097,
				"element": "C" 
			},
			{
				"x": -5.6890261384,
				"y": 0.1554012151,
				"z": 0.9045853091,
				"element": "N" 
			},
			{
				"x": -5.8052621182,
				"y": -0.0309518943,
				"z": 2.1158128661,
				"element": "O" 
			},
			{
				"x": -6.6235717074,
				"y": 0.167193113,
				"z": 0.1033190353,
				"element": "O" 
			},
			{
				"x": 3.005873391,
				"y": 1.2673109677,
				"z": -0.2614865049,
				"element": "C" 
			},
			{
				"x": 4.2205334929,
				"y": 1.5034193981,
				"z": -0.922419611,
				"element": "C" 
			},
			{
				"x": 5.4044016248,
				"y": 1.5192982724,
				"z": -0.1850491319,
				"element": "C" 
			},
			{
				"x": 5.397052476,
				"y": 1.3049079054,
				"z": 1.1931211268,
				"element": "C" 
			},
			{
				"x": 4.1821776483,
				"y": 1.0710601461,
				"z": 1.8397313572,
				"element": "C" 
			},
			{
				"x": 2.9877999953,
				"y": 1.0505779047,
				"z": 1.1237222394,
				"element": "C" 
			},
			{
				"x": -0.6682877553,
				"y": 1.6352298271,
				"z": -5.3567649161,
				"element": "H" 
			},
			{
				"x": -1.1247602657,
				"y": 0.5851426198,
				"z": 1.4215894542,
				"element": "H" 
			},
			{
				"x": -3.4273146839,
				"y": 0.2029731084,
				"z": 2.3140128199,
				"element": "H" 
			},
			{
				"x": -5.0338393265,
				"y": 0.5917131169,
				"z": -1.6372730906,
				"element": "H" 
			},
			{
				"x": -2.7418648267,
				"y": 0.9749132208,
				"z": -2.5444122961,
				"element": "H" 
			},
			{
				"x": 4.2326046159,
				"y": 1.6699996467,
				"z": -1.9899658773,
				"element": "H" 
			},
			{
				"x": 6.3412988208,
				"y": 1.7026207394,
				"z": -0.7029139721,
				"element": "H" 
			},
			{
				"x": 6.3249559328,
				"y": 1.319619089,
				"z": 1.756547963,
				"element": "H" 
			},
			{
				"x": 4.157994577,
				"y": 0.9020911622,
				"z": 2.9123575922,
				"element": "H" 
			},
			{
				"x": 2.0457682021,
				"y": 0.8693116303,
				"z": 1.62390215,
				"element": "H" 
			}
		],
		 "valence_orbital": [ 
			{
				"type": "occ",
				"energy": -0.2827,
				"method": "rhf"
			},
			{
				"type": "occ",
				"energy": -0.27306,
				"method": "rhf"
			},
			{
				"type": "occ",
				"energy": -0.27059,
				"method": "rhf"
			},
			{
				"type": "occ",
				"energy": -0.25806,
				"method": "rhf"
			},
			{
				"type": "occ",
				"energy": -0.22468,
				"method": "rhf"
			},
			{
				"type": "unocc",
				"energy": -0.12021,
				"method": "rhf"
			},
			{
				"type": "unocc",
				"energy": -0.09141,
				"method": "rhf"
			},
			{
				"type": "unocc",
				"energy": -0.03677,
				"method": "rhf"
			},
			{
				"type": "unocc",
				"energy": -0.02965,
				"method": "rhf"
			},
			{
				"type": "unocc",
				"energy": -0.008,
				"method": "rhf"
			}
		],
		"cosmo_sigma_profile": { 
			"-0.025": 0.0,
			"-0.024": 0.0,
			"-0.023": 0.0,
			"-0.022": 0.0,
			"-0.021": 0.0,
			"-0.02": 0.82619403456,
			"-0.019": 1.24667742563,
			"-0.018": 1.07222847445,
			"-0.017": 1.43587827252,
			"-0.016": 0.291530067836,
			"-0.015": 0.140979998424,
			"-0.014": 0.923087230585,
			"-0.013": 1.17637097217,
			"-0.012": 0.902472862178,
			"-0.011": 0.624494928857,
			"-0.01": 0.474840296286,
			"-0.009": 0.895856486484,
			"-0.008": 1.95262001536,
			"-0.007": 7.34466487665,
			"-0.006": 15.3952446317,
			"-0.005": 18.8998928754,
			"-0.004": 21.9387098914,
			"-0.003": 22.1641097042,
			"-0.002": 22.2661541435,
			"-0.001": 27.2310774318,
			"0.0": 32.0097739572,
			"0.001": 30.6281423136,
			"0.002": 20.8799048622,
			"0.003": 16.2637885585,
			"0.004": 15.6264094509,
			"0.005": 15.2286510577,
			"0.006": 6.27802561937,
			"0.007": 9.68671954799,
			"0.008": 10.3316804699,
			"0.009": 6.85983566063,
			"0.01": 5.36053174014,
			"0.011": 2.84970151271,
			"0.012": 1.88437427362,
			"0.013": 1.16528378163,
			"0.014": 0.0169650098658,
			"0.015": 0.0,
			"0.016": 0.0,
			"0.017": 0.0,
			"0.018": 0.0,
			"0.019": 0.0,
			"0.02": 0.0,
			"0.021": 0.0,
			"0.022": 0.0,
			"0.023": 0.0,
			"0.024": 0.0,
			"0.025": 0.0
		}
	}
}
