{
	 "smiles": "ClC1=CC(=CC=C1)C1=CC=CC(Cl)=C1", 
	 "Tm": 302.15, 
	 "num_atms": 22, 
	 "gaussian": { 
		 "optdone": 1, 
		 "sigma_profile": "yes", 
		 "theory": "DFT", 
		 "functional": "B3LYP", 
		 "basiset": "6-31G**", 
		 "properties": { 
			 "R2extent": 6129.5468, 
			 "electric_dipole_moment_norm": 3.02366438945, 
			 "electric_quadrupole_moment_norm": 8.36283884575, 
			 "total_energy": -1382.49375506, 
			 "HOMO_LUMO_gap": 0.19411, 
			 "cosmo_polarized_energy": -5.99, 
			 "cosmo_cavitation_energy": 30.02, 
			 "cosmo_dispersion_energy": -22.19, 
			 "cosmo_repulsion_energy": 1.74, 
			 "cosmo_total_nonelectrostatic_energy": 9.57, 
			 "SMD_solvation_energy": 4.3 
		},
		"coords": [
			{
				"x": -3.2659615537,
				"y": 3.0428067811,
				"z": -3.2480646971,
				"element": "Cl" 
			},
			{
				"x": -1.9765033852,
				"y": 1.9561142917,
				"z": -2.745915755,
				"element": "C" 
			},
			{
				"x": -2.0979782786,
				"y": 1.2744361177,
				"z": -1.5379783345,
				"element": "C" 
			},
			{
				"x": -1.0752143677,
				"y": 0.4085405278,
				"z": -1.1174802094,
				"element": "C" 
			},
			{
				"x": 0.0556275783,
				"y": 0.2539767156,
				"z": -1.9361788869,
				"element": "C" 
			},
			{
				"x": 0.1607514256,
				"y": 0.9461440283,
				"z": -3.1411204204,
				"element": "C" 
			},
			{
				"x": -0.8551606087,
				"y": 1.8059755637,
				"z": -3.560507052,
				"element": "C" 
			},
			{
				"x": -1.1925231118,
				"y": -0.3265985879,
				"z": 0.1690383569,
				"element": "C" 
			},
			{
				"x": -0.0743074263,
				"y": -0.5116814635,
				"z": 0.9986782441,
				"element": "C" 
			},
			{
				"x": -0.1897981477,
				"y": -1.2019764884,
				"z": 2.2037462221,
				"element": "C" 
			},
			{
				"x": -1.418317905,
				"y": -1.7225717422,
				"z": 2.6123800708,
				"element": "C" 
			},
			{
				"x": -2.5261717212,
				"y": -1.5361381611,
				"z": 1.7869086314,
				"element": "C" 
			},
			{
				"x": -4.083817468,
				"y": -2.1925168818,
				"z": 2.2754302506,
				"element": "Cl" 
			},
			{
				"x": -2.4293805299,
				"y": -0.8510295691,
				"z": 0.5786773891,
				"element": "C" 
			},
			{
				"x": -2.9710422256,
				"y": 1.4364741517,
				"z": -0.9160622245,
				"element": "H" 
			},
			{
				"x": 0.8421638359,
				"y": -0.431914352,
				"z": -1.6383446935,
				"element": "H" 
			},
			{
				"x": 1.037167795,
				"y": 0.8102090027,
				"z": -3.7678153718,
				"element": "H" 
			},
			{
				"x": -0.7829940734,
				"y": 2.3478458548,
				"z": -4.4966635145,
				"element": "H" 
			},
			{
				"x": 0.8825698221,
				"y": -0.0893149603,
				"z": 0.7091975802,
				"element": "H" 
			},
			{
				"x": 0.6816637591,
				"y": -1.3299462583,
				"z": 2.8389671198,
				"element": "H" 
			},
			{
				"x": -1.5183583353,
				"y": -2.2599625261,
				"z": 3.5485546899,
				"element": "H" 
			},
			{
				"x": -3.305415078,
				"y": -0.7489720445,
				"z": -0.0517473953,
				"element": "H" 
			}
		],
		 "valence_orbital": [ 
			{
				"type": "occ",
				"energy": -0.31405,
				"method": "rhf"
			},
			{
				"type": "occ",
				"energy": -0.28676,
				"method": "rhf"
			},
			{
				"type": "occ",
				"energy": -0.25752,
				"method": "rhf"
			},
			{
				"type": "occ",
				"energy": -0.25409,
				"method": "rhf"
			},
			{
				"type": "occ",
				"energy": -0.23969,
				"method": "rhf"
			},
			{
				"type": "unocc",
				"energy": -0.04558,
				"method": "rhf"
			},
			{
				"type": "unocc",
				"energy": -0.02132,
				"method": "rhf"
			},
			{
				"type": "unocc",
				"energy": -0.01786,
				"method": "rhf"
			},
			{
				"type": "unocc",
				"energy": 0.01011,
				"method": "rhf"
			},
			{
				"type": "unocc",
				"energy": 0.02637,
				"method": "rhf"
			}
		],
		"cosmo_sigma_profile": { 
			"-0.025": 0.0,
			"-0.024": 0.0,
			"-0.023": 0.0,
			"-0.022": 0.0,
			"-0.021": 0.0,
			"-0.02": 0.0,
			"-0.019": 0.0,
			"-0.018": 0.0,
			"-0.017": 0.0,
			"-0.016": 0.0,
			"-0.015": 0.0,
			"-0.014": 0.0,
			"-0.013": 0.0,
			"-0.012": 0.0,
			"-0.011": 0.0,
			"-0.01": 0.0,
			"-0.009": 0.0,
			"-0.008": 0.473087360316,
			"-0.007": 9.7524422707,
			"-0.006": 16.2687613264,
			"-0.005": 16.4165291312,
			"-0.004": 13.3046527376,
			"-0.003": 12.0335089946,
			"-0.002": 12.6733462633,
			"-0.001": 15.0298591317,
			"0.0": 16.9080984009,
			"0.001": 24.8817448209,
			"0.002": 30.508517356,
			"0.003": 34.9768103157,
			"0.004": 28.9336766605,
			"0.005": 14.1479304157,
			"0.006": 0.0606901465211,
			"0.007": 0.0,
			"0.008": 0.0,
			"0.009": 0.0,
			"0.01": 0.0,
			"0.011": 0.0,
			"0.012": 0.0,
			"0.013": 0.0,
			"0.014": 0.0,
			"0.015": 0.0,
			"0.016": 0.0,
			"0.017": 0.0,
			"0.018": 0.0,
			"0.019": 0.0,
			"0.02": 0.0,
			"0.021": 0.0,
			"0.022": 0.0,
			"0.023": 0.0,
			"0.024": 0.0,
			"0.025": 0.0
		}
	}
}
