{
	 "smiles": "FC(F)(F)COC(=O)NC1=NN=C(S1)C1CC1", 
	 "Tm": 471.15, 
	 "num_atms": 25, 
	 "gaussian": { 
		 "optdone": 1, 
		 "sigma_profile": "yes", 
		 "theory": "DFT", 
		 "functional": "B3LYP", 
		 "basiset": "6-31G**", 
		 "properties": { 
			 "R2extent": 6454.5143, 
			 "electric_dipole_moment_norm": 3.10936799044, 
			 "electric_quadrupole_moment_norm": 8.47358802574, 
			 "total_energy": -1322.0447456, 
			 "HOMO_LUMO_gap": 0.20149, 
			 "cosmo_polarized_energy": -14.19, 
			 "cosmo_cavitation_energy": 33.58, 
			 "cosmo_dispersion_energy": -23.83, 
			 "cosmo_repulsion_energy": 1.77, 
			 "cosmo_total_nonelectrostatic_energy": 11.52, 
			 "SMD_solvation_energy": 5.79 
		},
		"coords": [
			{
				"x": -0.4656971338,
				"y": -3.7038341684,
				"z": 4.5786532243,
				"element": "F" 
			},
			{
				"x": -0.2928469288,
				"y": -2.6543796655,
				"z": 3.7503694219,
				"element": "C" 
			},
			{
				"x": 0.3925575881,
				"y": -1.7013870689,
				"z": 4.4067349493,
				"element": "F" 
			},
			{
				"x": 0.4599771554,
				"y": -3.0611888993,
				"z": 2.710388777,
				"element": "F" 
			},
			{
				"x": -1.6485728146,
				"y": -2.1445438129,
				"z": 3.2926655711,
				"element": "C" 
			},
			{
				"x": -1.4508157421,
				"y": -1.0519996201,
				"z": 2.3991948677,
				"element": "O" 
			},
			{
				"x": -1.7609440865,
				"y": 0.1870183254,
				"z": 2.875273764,
				"element": "C" 
			},
			{
				"x": -2.3189292171,
				"y": 0.4156744565,
				"z": 3.92537122,
				"element": "O" 
			},
			{
				"x": -1.3755907207,
				"y": 1.1601661537,
				"z": 1.9872091268,
				"element": "N" 
			},
			{
				"x": -0.6831611069,
				"y": 1.0820729091,
				"z": 0.784735791,
				"element": "C" 
			},
			{
				"x": -0.4822209998,
				"y": 2.1701162082,
				"z": 0.0950159443,
				"element": "N" 
			},
			{
				"x": 0.2369340064,
				"y": 1.9441882864,
				"z": -1.0468129179,
				"element": "N" 
			},
			{
				"x": 0.5746287387,
				"y": 0.6990351371,
				"z": -1.2140516685,
				"element": "C" 
			},
			{
				"x": 0.0123190099,
				"y": -0.3637639973,
				"z": 0.0796796206,
				"element": "S" 
			},
			{
				"x": 1.3448138253,
				"y": 0.1883967156,
				"z": -2.3662018008,
				"element": "C" 
			},
			{
				"x": 1.1215636276,
				"y": 0.810289032,
				"z": -3.7365410245,
				"element": "C" 
			},
			{
				"x": 2.3974777707,
				"y": 1.082462783,
				"z": -3.0023456994,
				"element": "C" 
			},
			{
				"x": -2.2334610815,
				"y": -1.8283920873,
				"z": 4.1576460543,
				"element": "H" 
			},
			{
				"x": -2.1632625804,
				"y": -2.9373494757,
				"z": 2.7470441028,
				"element": "H" 
			},
			{
				"x": -1.6246679218,
				"y": 2.10331176,
				"z": 2.2589469062,
				"element": "H" 
			},
			{
				"x": 1.5556497495,
				"y": -0.8759584167,
				"z": -2.3381484892,
				"element": "H" 
			},
			{
				"x": 1.1397632805,
				"y": 0.1437292341,
				"z": -4.5933637748,
				"element": "H" 
			},
			{
				"x": 0.3883656233,
				"y": 1.6085492195,
				"z": -3.7832054358,
				"element": "H" 
			},
			{
				"x": 3.3119269665,
				"y": 0.6068683407,
				"z": -3.3433335375,
				"element": "H" 
			},
			{
				"x": 2.5211929921,
				"y": 2.0634186507,
				"z": -2.5559249929,
				"element": "H" 
			}
		],
		 "valence_orbital": [ 
			{
				"type": "occ",
				"energy": -0.31354,
				"method": "rhf"
			},
			{
				"type": "occ",
				"energy": -0.30307,
				"method": "rhf"
			},
			{
				"type": "occ",
				"energy": -0.29372,
				"method": "rhf"
			},
			{
				"type": "occ",
				"energy": -0.26657,
				"method": "rhf"
			},
			{
				"type": "occ",
				"energy": -0.23846,
				"method": "rhf"
			},
			{
				"type": "unocc",
				"energy": -0.03697,
				"method": "rhf"
			},
			{
				"type": "unocc",
				"energy": -0.00091,
				"method": "rhf"
			},
			{
				"type": "unocc",
				"energy": 0.01173,
				"method": "rhf"
			},
			{
				"type": "unocc",
				"energy": 0.04893,
				"method": "rhf"
			},
			{
				"type": "unocc",
				"energy": 0.05863,
				"method": "rhf"
			}
		],
		"cosmo_sigma_profile": { 
			"-0.025": 0.0,
			"-0.024": 0.0,
			"-0.023": 0.0,
			"-0.022": 0.0,
			"-0.021": 0.0,
			"-0.02": 0.0,
			"-0.019": 0.0,
			"-0.018": 0.0,
			"-0.017": 0.332602995631,
			"-0.016": 0.759631119484,
			"-0.015": 1.01479016889,
			"-0.014": 0.780850572803,
			"-0.013": 0.788891409921,
			"-0.012": 0.609028816089,
			"-0.011": 0.500513821832,
			"-0.01": 2.63564965643,
			"-0.009": 4.90774222999,
			"-0.008": 6.08002797988,
			"-0.007": 7.16451461677,
			"-0.006": 9.14515649551,
			"-0.005": 14.1003336421,
			"-0.004": 16.2602545301,
			"-0.003": 15.8742335976,
			"-0.002": 19.347164233,
			"-0.001": 20.6919619924,
			"0.0": 20.1489188654,
			"0.001": 24.913664821,
			"0.002": 41.6617144372,
			"0.003": 21.7982842213,
			"0.004": 5.38691865055,
			"0.005": 2.70494812961,
			"0.006": 2.83515975629,
			"0.007": 4.35213642432,
			"0.008": 3.03896099849,
			"0.009": 3.15968018341,
			"0.01": 4.54497689492,
			"0.011": 7.8625713553,
			"0.012": 3.38632326883,
			"0.013": 2.27333734991,
			"0.014": 1.35748240907,
			"0.015": 0.0649868259107,
			"0.016": 0.0,
			"0.017": 0.0,
			"0.018": 0.0,
			"0.019": 0.0,
			"0.02": 0.0,
			"0.021": 0.0,
			"0.022": 0.0,
			"0.023": 0.0,
			"0.024": 0.0,
			"0.025": 0.0
		}
	}
}
