{
	 "smiles": "COC1=CC=C(COC(=O)NN)C=C1", 
	 "Tm": 349.15, 
	 "num_atms": 26, 
	 "gaussian": { 
		 "optdone": 1, 
		 "sigma_profile": "yes", 
		 "theory": "DFT", 
		 "functional": "B3LYP", 
		 "basiset": "6-31G**", 
		 "properties": { 
			 "R2extent": 4090.86, 
			 "electric_dipole_moment_norm": 1.65964108771, 
			 "electric_quadrupole_moment_norm": 13.4579882817, 
			 "total_energy": -685.337552885, 
			 "HOMO_LUMO_gap": 0.21641, 
			 "cosmo_polarized_energy": -13.83, 
			 "cosmo_cavitation_energy": 30.44, 
			 "cosmo_dispersion_energy": -22.02, 
			 "cosmo_repulsion_energy": 1.77, 
			 "cosmo_total_nonelectrostatic_energy": 10.2, 
			 "SMD_solvation_energy": 7.62 
		},
		"coords": [
			{
				"x": -4.3913607849,
				"y": 0.5466329178,
				"z": -1.8970521405,
				"element": "C" 
			},
			{
				"x": -3.6083347043,
				"y": -0.6007393367,
				"z": -2.1867829063,
				"element": "O" 
			},
			{
				"x": -2.5307063122,
				"y": -0.8654232687,
				"z": -1.3933451318,
				"element": "C" 
			},
			{
				"x": -1.7976909221,
				"y": -2.0142707022,
				"z": -1.7273192778,
				"element": "C" 
			},
			{
				"x": -0.6839149735,
				"y": -2.3680845359,
				"z": -0.9770963158,
				"element": "C" 
			},
			{
				"x": -0.271891652,
				"y": -1.5966430901,
				"z": 0.1204148729,
				"element": "C" 
			},
			{
				"x": 0.9432284616,
				"y": -1.9822908052,
				"z": 0.921464594,
				"element": "C" 
			},
			{
				"x": 2.1460983631,
				"y": -1.305483489,
				"z": 0.4559605732,
				"element": "O" 
			},
			{
				"x": 2.4300470321,
				"y": -0.1277174202,
				"z": 1.0680697642,
				"element": "C" 
			},
			{
				"x": 1.7899798757,
				"y": 0.3731207242,
				"z": 1.9780944132,
				"element": "O" 
			},
			{
				"x": 3.5588468734,
				"y": 0.4329923471,
				"z": 0.5381576016,
				"element": "N" 
			},
			{
				"x": 4.2790261961,
				"y": -0.0425083883,
				"z": -0.5700013264,
				"element": "N" 
			},
			{
				"x": -1.0120086687,
				"y": -0.4539769679,
				"z": 0.442995049,
				"element": "C" 
			},
			{
				"x": -2.1330902069,
				"y": -0.0824623451,
				"z": -0.3018193384,
				"element": "C" 
			},
			{
				"x": -3.8025407425,
				"y": 1.469668012,
				"z": -1.974630167,
				"element": "H" 
			},
			{
				"x": -5.1866197636,
				"y": 0.5650648569,
				"z": -2.6438659344,
				"element": "H" 
			},
			{
				"x": -4.8381233369,
				"y": 0.4905014367,
				"z": -0.8960743193,
				"element": "H" 
			},
			{
				"x": -2.1240730294,
				"y": -2.6095298434,
				"z": -2.573821078,
				"element": "H" 
			},
			{
				"x": -0.1255309017,
				"y": -3.2622363228,
				"z": -1.2443997651,
				"element": "H" 
			},
			{
				"x": 1.1710185534,
				"y": -3.0437545841,
				"z": 0.800835253,
				"element": "H" 
			},
			{
				"x": 0.8138797494,
				"y": -1.7523813111,
				"z": 1.980431917,
				"element": "H" 
			},
			{
				"x": 3.8064652831,
				"y": 1.3493179044,
				"z": 0.8780843997,
				"element": "H" 
			},
			{
				"x": 4.6743406908,
				"y": -0.9500490282,
				"z": -0.3327567963,
				"element": "H" 
			},
			{
				"x": 3.631270131,
				"y": -0.1989046022,
				"z": -1.3402299081,
				"element": "H" 
			},
			{
				"x": -0.6965184637,
				"y": 0.1585095508,
				"z": 1.2821305119,
				"element": "H" 
			},
			{
				"x": -2.6844967474,
				"y": 0.8077482912,
				"z": -0.0232445447,
				"element": "H" 
			}
		],
		 "valence_orbital": [ 
			{
				"type": "occ",
				"energy": -0.29033,
				"method": "rhf"
			},
			{
				"type": "occ",
				"energy": -0.25829,
				"method": "rhf"
			},
			{
				"type": "occ",
				"energy": -0.25718,
				"method": "rhf"
			},
			{
				"type": "occ",
				"energy": -0.25134,
				"method": "rhf"
			},
			{
				"type": "occ",
				"energy": -0.2193,
				"method": "rhf"
			},
			{
				"type": "unocc",
				"energy": -0.00289,
				"method": "rhf"
			},
			{
				"type": "unocc",
				"energy": 0.00281,
				"method": "rhf"
			},
			{
				"type": "unocc",
				"energy": 0.05451,
				"method": "rhf"
			},
			{
				"type": "unocc",
				"energy": 0.08463,
				"method": "rhf"
			},
			{
				"type": "unocc",
				"energy": 0.09565,
				"method": "rhf"
			}
		],
		"cosmo_sigma_profile": { 
			"-0.025": 0.0,
			"-0.024": 0.0,
			"-0.023": 0.0,
			"-0.022": 0.0,
			"-0.021": 0.0,
			"-0.02": 0.0,
			"-0.019": 0.0,
			"-0.018": 0.0,
			"-0.017": 0.0,
			"-0.016": 0.0,
			"-0.015": 0.0263678094829,
			"-0.014": 0.933793093894,
			"-0.013": 1.05433432366,
			"-0.012": 0.597891461863,
			"-0.011": 3.55055844684,
			"-0.01": 3.22499309157,
			"-0.009": 3.17397275794,
			"-0.008": 3.28119797293,
			"-0.007": 3.63598447832,
			"-0.006": 13.4307065451,
			"-0.005": 19.9767430443,
			"-0.004": 20.8673078646,
			"-0.003": 20.5601714716,
			"-0.002": 14.6757671745,
			"-0.001": 13.3716635888,
			"0.0": 13.5390851655,
			"0.001": 11.5677796787,
			"0.002": 12.0568897065,
			"0.003": 14.9255530611,
			"0.004": 14.9731509577,
			"0.005": 17.3249429907,
			"0.006": 7.55419906311,
			"0.007": 3.84247442119,
			"0.008": 2.69234916058,
			"0.009": 2.62685701974,
			"0.01": 4.13847259157,
			"0.011": 2.45684712208,
			"0.012": 2.87332307304,
			"0.013": 4.31866195773,
			"0.014": 1.74224769717,
			"0.015": 0.922546981114,
			"0.016": 0.516114698933,
			"0.017": 0.121871189953,
			"0.018": 0.0,
			"0.019": 0.0,
			"0.02": 0.0,
			"0.021": 0.0,
			"0.022": 0.0,
			"0.023": 0.0,
			"0.024": 0.0,
			"0.025": 0.0
		}
	}
}
