{
	 "smiles": "OC(=O)C1=CC2=C(C=C1)C(=O)N(CC1=CC=CC=C1)C2=O", 
	 "Tm": 472.15, 
	 "num_atms": 32, 
	 "gaussian": { 
		 "optdone": 1, 
		 "sigma_profile": "no", 
		 "theory": "DFT", 
		 "functional": "B3LYP", 
		 "basiset": "6-31G**", 
		 "properties": { 
			 "R2extent": 7722.3021, 
			 "electric_dipole_moment_norm": 2.87900210663, 
			 "electric_quadrupole_moment_norm": 19.9888908169, 
			 "total_energy": -972.021023101, 
			 "HOMO_LUMO_gap": 0.14965, 
			 "cosmo_polarized_energy": -28.44, 
			 "cosmo_cavitation_energy": 38.44, 
			 "cosmo_dispersion_energy": -26.81, 
			 "cosmo_repulsion_energy": 2.0, 
			 "cosmo_total_nonelectrostatic_energy": 13.64, 
			 "SMD_solvation_energy": 8.38 
		},
		"coords": [
			{
				"x": 5.1791625075,
				"y": 1.1597194562,
				"z": 0.5161661216,
				"element": "O" 
			},
			{
				"x": 4.4413427903,
				"y": 1.7333655567,
				"z": 1.4995718835,
				"element": "C" 
			},
			{
				"x": 4.9719752404,
				"y": 2.4308831055,
				"z": 2.3304586188,
				"element": "O" 
			},
			{
				"x": 2.9632928731,
				"y": 1.4528975246,
				"z": 1.4937761343,
				"element": "C" 
			},
			{
				"x": 2.4042171006,
				"y": 0.342548417,
				"z": 0.8360742217,
				"element": "C" 
			},
			{
				"x": 1.0314598135,
				"y": 0.1740049966,
				"z": 0.9108390045,
				"element": "C" 
			},
			{
				"x": 0.2220803016,
				"y": 1.0668383771,
				"z": 1.6135181566,
				"element": "C" 
			},
			{
				"x": 0.7585676063,
				"y": 2.1595937049,
				"z": 2.2808231258,
				"element": "C" 
			},
			{
				"x": 2.1435015203,
				"y": 2.3369347313,
				"z": 2.2177315772,
				"element": "C" 
			},
			{
				"x": -1.1951020288,
				"y": 0.5991448617,
				"z": 1.4980589624,
				"element": "C" 
			},
			{
				"x": -2.2017784694,
				"y": 1.094700975,
				"z": 1.9633143862,
				"element": "O" 
			},
			{
				"x": -1.1431139513,
				"y": -0.5729262761,
				"z": 0.7285948034,
				"element": "N" 
			},
			{
				"x": -2.3267033443,
				"y": -1.3468839537,
				"z": 0.343108601,
				"element": "C" 
			},
			{
				"x": -2.9408351142,
				"y": -0.8874179162,
				"z": -0.9653471895,
				"element": "C" 
			},
			{
				"x": -3.9192504719,
				"y": 0.1148268353,
				"z": -0.9743503554,
				"element": "C" 
			},
			{
				"x": -4.4752063395,
				"y": 0.5460966902,
				"z": -2.1794532079,
				"element": "C" 
			},
			{
				"x": -4.0576304387,
				"y": -0.0200950557,
				"z": -3.3857808737,
				"element": "C" 
			},
			{
				"x": -3.0798410221,
				"y": -1.0170599125,
				"z": -3.3834837725,
				"element": "C" 
			},
			{
				"x": -2.5232880365,
				"y": -1.4486791762,
				"z": -2.1787095526,
				"element": "C" 
			},
			{
				"x": 0.1615756343,
				"y": -0.8937815186,
				"z": 0.3299401773,
				"element": "C" 
			},
			{
				"x": 0.4819134857,
				"y": -1.8530044509,
				"z": -0.344217099,
				"element": "O" 
			},
			{
				"x": 4.6085214238,
				"y": 0.766453139,
				"z": -0.1584271602,
				"element": "H" 
			},
			{
				"x": 3.0066969455,
				"y": -0.3937928373,
				"z": 0.3108762688,
				"element": "H" 
			},
			{
				"x": 0.123381081,
				"y": 2.8446537566,
				"z": 2.8325435821,
				"element": "H" 
			},
			{
				"x": 2.6237969648,
				"y": 3.1637200331,
				"z": 2.7296553734,
				"element": "H" 
			},
			{
				"x": -3.0425382792,
				"y": -1.2476212967,
				"z": 1.1623412024,
				"element": "H" 
			},
			{
				"x": -2.0080465023,
				"y": -2.3896261945,
				"z": 0.2756507129,
				"element": "H" 
			},
			{
				"x": -4.2358272135,
				"y": 0.5595273408,
				"z": -0.0348769163,
				"element": "H" 
			},
			{
				"x": -5.2357773014,
				"y": 1.3216880003,
				"z": -2.1760022192,
				"element": "H" 
			},
			{
				"x": -4.4933024066,
				"y": 0.3132167413,
				"z": -4.3234013203,
				"element": "H" 
			},
			{
				"x": -2.7520634969,
				"y": -1.4609348546,
				"z": -4.3192186681,
				"element": "H" 
			},
			{
				"x": -1.7558808719,
				"y": -2.2178908002,
				"z": -2.1743745794,
				"element": "H" 
			}
		],
		 "valence_orbital": [ 
			{
				"type": "occ",
				"energy": -0.28916,
				"method": "rhf"
			},
			{
				"type": "occ",
				"energy": -0.28191,
				"method": "rhf"
			},
			{
				"type": "occ",
				"energy": -0.27931,
				"method": "rhf"
			},
			{
				"type": "occ",
				"energy": -0.25524,
				"method": "rhf"
			},
			{
				"type": "occ",
				"energy": -0.25263,
				"method": "rhf"
			},
			{
				"type": "unocc",
				"energy": -0.10298,
				"method": "rhf"
			},
			{
				"type": "unocc",
				"energy": -0.06797,
				"method": "rhf"
			},
			{
				"type": "unocc",
				"energy": -0.01962,
				"method": "rhf"
			},
			{
				"type": "unocc",
				"energy": -0.0117,
				"method": "rhf"
			},
			{
				"type": "unocc",
				"energy": -0.00707,
				"method": "rhf"
			}
		],
		"cosmo_sigma_profile": { 
			"0.0": 0.0,
			"0.0": 0.0,
			"0.0": 0.0,
			"0.0": 0.0,
			"0.0": 0.0,
			"0.0": 0.0,
			"0.0": 0.0,
			"0.0": 0.0,
			"0.0": 0.0,
			"0.0": 0.0,
			"0.0": 0.0,
			"0.0": 0.0,
			"0.0": 0.0,
			"0.0": 0.0,
			"0.0": 0.0,
			"0.0": 0.0,
			"0.0": 0.0,
			"0.0": 0.0,
			"0.0": 0.0,
			"0.0": 0.0,
			"0.0": 0.0,
			"0.0": 0.0,
			"0.0": 0.0,
			"0.0": 0.0,
			"0.0": 0.0,
			"0.0": 0.0,
			"0.0": 0.0,
			"0.0": 0.0,
			"0.0": 0.0,
			"0.0": 0.0,
			"0.0": 0.0,
			"0.0": 0.0,
			"0.0": 0.0,
			"0.0": 0.0,
			"0.0": 0.0,
			"0.0": 0.0,
			"0.0": 0.0,
			"0.0": 0.0,
			"0.0": 0.0,
			"0.0": 0.0,
			"0.0": 0.0,
			"0.0": 0.0,
			"0.0": 0.0,
			"0.0": 0.0,
			"0.0": 0.0,
			"0.0": 0.0,
			"0.0": 0.0,
			"0.0": 0.0,
			"0.0": 0.0,
			"0.0": 0.0,
			"0.0": 0.0
		}
	}
}
