{
	 "smiles": "OC(=O)C1=CNC=NC1=O", 
	 "Tm": 595.15, 
	 "num_atms": 14, 
	 "gaussian": { 
		 "optdone": 1, 
		 "sigma_profile": "yes", 
		 "theory": "DFT", 
		 "functional": "B3LYP", 
		 "basiset": "6-31G**", 
		 "properties": { 
			 "R2extent": 1381.3127, 
			 "electric_dipole_moment_norm": 8.12037825412, 
			 "electric_quadrupole_moment_norm": 16.9973367173, 
			 "total_energy": -528.129031151, 
			 "HOMO_LUMO_gap": 0.19146, 
			 "cosmo_polarized_energy": -27.61, 
			 "cosmo_cavitation_energy": 19.0, 
			 "cosmo_dispersion_energy": -14.71, 
			 "cosmo_repulsion_energy": 1.18, 
			 "cosmo_total_nonelectrostatic_energy": 5.47, 
			 "SMD_solvation_energy": 4.25 
		},
		"coords": [
			{
				"x": -2.1066841133,
				"y": 0.4851985026,
				"z": 1.3227927491,
				"element": "O" 
			},
			{
				"x": -1.5276751037,
				"y": -0.5120080451,
				"z": 0.6591403574,
				"element": "C" 
			},
			{
				"x": -1.8046907302,
				"y": -1.6823308991,
				"z": 0.8324860858,
				"element": "O" 
			},
			{
				"x": -0.4824062475,
				"y": -0.0950151411,
				"z": -0.342255522,
				"element": "C" 
			},
			{
				"x": 0.145239014,
				"y": -1.0682864522,
				"z": -1.0512633662,
				"element": "C" 
			},
			{
				"x": 1.0998241405,
				"y": -0.7285117605,
				"z": -1.9693504672,
				"element": "N" 
			},
			{
				"x": 1.4125593333,
				"y": 0.5943082294,
				"z": -2.1632608906,
				"element": "C" 
			},
			{
				"x": 0.8669294775,
				"y": 1.5782441504,
				"z": -1.5346912147,
				"element": "N" 
			},
			{
				"x": -0.1230612894,
				"y": 1.3085012484,
				"z": -0.5756414514,
				"element": "C" 
			},
			{
				"x": -0.6604012728,
				"y": 2.236896567,
				"z": 0.0405300858,
				"element": "O" 
			},
			{
				"x": -1.7109618033,
				"y": 1.3442799714,
				"z": 1.0049008303,
				"element": "H" 
			},
			{
				"x": -0.0904725566,
				"y": -2.1171534055,
				"z": -0.9095447605,
				"element": "H" 
			},
			{
				"x": 1.5748923914,
				"y": -1.4426793357,
				"z": -2.5040286538,
				"element": "H" 
			},
			{
				"x": 2.18180876,
				"y": 0.7846563701,
				"z": -2.9103137819,
				"element": "H" 
			}
		],
		 "valence_orbital": [ 
			{
				"type": "occ",
				"energy": -0.31617,
				"method": "rhf"
			},
			{
				"type": "occ",
				"energy": -0.30385,
				"method": "rhf"
			},
			{
				"type": "occ",
				"energy": -0.28068,
				"method": "rhf"
			},
			{
				"type": "occ",
				"energy": -0.27189,
				"method": "rhf"
			},
			{
				"type": "occ",
				"energy": -0.26636,
				"method": "rhf"
			},
			{
				"type": "unocc",
				"energy": -0.0749,
				"method": "rhf"
			},
			{
				"type": "unocc",
				"energy": -0.05762,
				"method": "rhf"
			},
			{
				"type": "unocc",
				"energy": 0.02137,
				"method": "rhf"
			},
			{
				"type": "unocc",
				"energy": 0.0316,
				"method": "rhf"
			},
			{
				"type": "unocc",
				"energy": 0.10338,
				"method": "rhf"
			}
		],
		"cosmo_sigma_profile": { 
			"-0.025": 0.0,
			"-0.024": 0.0,
			"-0.023": 0.0,
			"-0.022": 0.0,
			"-0.021": 0.0,
			"-0.02": 0.0638929214,
			"-0.019": 2.44923490865,
			"-0.018": 2.82813020159,
			"-0.017": 1.50104058675,
			"-0.016": 1.28912656496,
			"-0.015": 1.58189944943,
			"-0.014": 1.2879154011,
			"-0.013": 2.392449138,
			"-0.012": 3.247380035,
			"-0.011": 3.48196221813,
			"-0.01": 2.91405562222,
			"-0.009": 2.89957812066,
			"-0.008": 3.29871695949,
			"-0.007": 3.23862211454,
			"-0.006": 4.92065123615,
			"-0.005": 8.82733536347,
			"-0.004": 13.070161076,
			"-0.003": 9.11445134774,
			"-0.002": 7.92968238,
			"-0.001": 4.72077363511,
			"0.0": 3.57107273202,
			"0.001": 3.67296635895,
			"0.002": 4.16111902744,
			"0.003": 3.83324187965,
			"0.004": 3.88421021296,
			"0.005": 3.74098554831,
			"0.006": 3.87541852248,
			"0.007": 3.288397962,
			"0.008": 5.068623382,
			"0.009": 5.10646509993,
			"0.01": 5.88089378579,
			"0.011": 8.24220473999,
			"0.012": 8.12307636573,
			"0.013": 5.52810732838,
			"0.014": 3.61891685197,
			"0.015": 0.717946900973,
			"0.016": 0.0,
			"0.017": 0.0,
			"0.018": 0.0,
			"0.019": 0.0,
			"0.02": 0.0,
			"0.021": 0.0,
			"0.022": 0.0,
			"0.023": 0.0,
			"0.024": 0.0,
			"0.025": 0.0
		}
	}
}
