{
	 "smiles": "CN1C=NC(=C1S(Cl)(=O)=O)[N+]([O-])=O", 
	 "Tm": 374.15, 
	 "num_atms": 17, 
	 "gaussian": { 
		 "optdone": 1, 
		 "sigma_profile": "yes", 
		 "theory": "DFT", 
		 "functional": "B3LYP", 
		 "basiset": "6-31G**", 
		 "properties": { 
			 "R2extent": 3116.407, 
			 "electric_dipole_moment_norm": 7.31642068979, 
			 "electric_quadrupole_moment_norm": 16.8016441047, 
			 "total_energy": -1478.15850346, 
			 "HOMO_LUMO_gap": 0.18162, 
			 "cosmo_polarized_energy": -19.06, 
			 "cosmo_cavitation_energy": 25.67, 
			 "cosmo_dispersion_energy": -19.2, 
			 "cosmo_repulsion_energy": 1.46, 
			 "cosmo_total_nonelectrostatic_energy": 7.94, 
			 "SMD_solvation_energy": 4.35 
		},
		"coords": [
			{
				"x": 1.8439199368,
				"y": 1.8118073326,
				"z": 0.4457267543,
				"element": "C" 
			},
			{
				"x": 0.4754828163,
				"y": 1.5589658103,
				"z": -0.0217214875,
				"element": "N" 
			},
			{
				"x": -0.611464507,
				"y": 2.2725752135,
				"z": 0.3850154251,
				"element": "C" 
			},
			{
				"x": -1.7364912255,
				"y": 1.8766655223,
				"z": -0.1776312836,
				"element": "N" 
			},
			{
				"x": -1.3720805073,
				"y": 0.8606602788,
				"z": -0.9818807775,
				"element": "C" 
			},
			{
				"x": -0.0026822602,
				"y": 0.624724484,
				"z": -0.9272575011,
				"element": "C" 
			},
			{
				"x": 1.0552491524,
				"y": -0.4922332734,
				"z": -1.8169815499,
				"element": "S" 
			},
			{
				"x": 0.6680671071,
				"y": -2.3281624355,
				"z": -0.8723189409,
				"element": "Cl" 
			},
			{
				"x": 2.4285817697,
				"y": -0.1458883711,
				"z": -1.4639511452,
				"element": "O" 
			},
			{
				"x": 0.6252162292,
				"y": -0.5879908912,
				"z": -3.1983934321,
				"element": "O" 
			},
			{
				"x": -2.3701492189,
				"y": 0.1271589434,
				"z": -1.7457808341,
				"element": "N" 
			},
			{
				"x": -2.0275064274,
				"y": -0.9807354316,
				"z": -2.1590417064,
				"element": "O" 
			},
			{
				"x": -3.4598191188,
				"y": 0.6586743213,
				"z": -1.9047565571,
				"element": "O" 
			},
			{
				"x": 2.2654009903,
				"y": 0.9124215512,
				"z": 0.8935338523,
				"element": "H" 
			},
			{
				"x": 1.7858303084,
				"y": 2.6047964375,
				"z": 1.1920724102,
				"element": "H" 
			},
			{
				"x": 2.4792520803,
				"y": 2.1238732432,
				"z": -0.3823458141,
				"element": "H" 
			},
			{
				"x": -0.5213071254,
				"y": 3.0778872645,
				"z": 1.1012125875,
				"element": "H" 
			}
		],
		 "valence_orbital": [ 
			{
				"type": "occ",
				"energy": -0.33073,
				"method": "rhf"
			},
			{
				"type": "occ",
				"energy": -0.31886,
				"method": "rhf"
			},
			{
				"type": "occ",
				"energy": -0.31682,
				"method": "rhf"
			},
			{
				"type": "occ",
				"energy": -0.30634,
				"method": "rhf"
			},
			{
				"type": "occ",
				"energy": -0.29416,
				"method": "rhf"
			},
			{
				"type": "unocc",
				"energy": -0.11254,
				"method": "rhf"
			},
			{
				"type": "unocc",
				"energy": -0.08768,
				"method": "rhf"
			},
			{
				"type": "unocc",
				"energy": -0.03906,
				"method": "rhf"
			},
			{
				"type": "unocc",
				"energy": 0.01449,
				"method": "rhf"
			},
			{
				"type": "unocc",
				"energy": 0.03213,
				"method": "rhf"
			}
		],
		"cosmo_sigma_profile": { 
			"-0.025": 0.0,
			"-0.024": 0.0,
			"-0.023": 0.0,
			"-0.022": 0.0,
			"-0.021": 0.0,
			"-0.02": 0.0,
			"-0.019": 0.0,
			"-0.018": 0.0,
			"-0.017": 0.0,
			"-0.016": 0.0,
			"-0.015": 0.0,
			"-0.014": 0.00282408657077,
			"-0.013": 1.02909256526,
			"-0.012": 3.2928266828,
			"-0.011": 2.62027790042,
			"-0.01": 3.84896276321,
			"-0.009": 4.62482164764,
			"-0.008": 7.44415128422,
			"-0.007": 10.6487498868,
			"-0.006": 13.5880532776,
			"-0.005": 15.8444970959,
			"-0.004": 10.9228607888,
			"-0.003": 7.35160543019,
			"-0.002": 8.65362947996,
			"-0.001": 8.43955350833,
			"0.0": 9.13020157833,
			"0.001": 10.2256861692,
			"0.002": 13.2165085653,
			"0.003": 9.2865643082,
			"0.004": 7.21033769205,
			"0.005": 7.87221447687,
			"0.006": 11.5517392417,
			"0.007": 17.7715491956,
			"0.008": 13.5802112692,
			"0.009": 4.95346078021,
			"0.01": 1.47037861266,
			"0.011": 1.73062103534,
			"0.012": 1.42473848233,
			"0.013": 1.17241356447,
			"0.014": 0.237510150796,
			"0.015": 0.0,
			"0.016": 0.0,
			"0.017": 0.0,
			"0.018": 0.0,
			"0.019": 0.0,
			"0.02": 0.0,
			"0.021": 0.0,
			"0.022": 0.0,
			"0.023": 0.0,
			"0.024": 0.0,
			"0.025": 0.0
		}
	}
}
