{
	 "smiles": "NC1=C(C=C(Br)C=N1)S(N)(=O)=O", 
	 "Tm": 473.15, 
	 "num_atms": 18, 
	 "gaussian": { 
		 "optdone": 1, 
		 "sigma_profile": "yes", 
		 "theory": "DFT", 
		 "functional": "B3LYP", 
		 "basiset": "6-31G**", 
		 "properties": { 
			 "R2extent": 4409.3636, 
			 "electric_dipole_moment_norm": 3.94399146551, 
			 "electric_quadrupole_moment_norm": 14.405055926, 
			 "total_energy": -3478.378232, 
			 "HOMO_LUMO_gap": 0.17979, 
			 "cosmo_polarized_energy": -17.31, 
			 "cosmo_cavitation_energy": 25.88, 
			 "cosmo_dispersion_energy": -20.4, 
			 "cosmo_repulsion_energy": 1.58, 
			 "cosmo_total_nonelectrostatic_energy": 7.06, 
			 "SMD_solvation_energy": 1.57 
		},
		"coords": [
			{
				"x": 1.0154073483,
				"y": -2.3359139933,
				"z": 0.2621305285,
				"element": "N" 
			},
			{
				"x": 1.210015239,
				"y": -1.0405018789,
				"z": 0.6869333622,
				"element": "C" 
			},
			{
				"x": 0.8281253034,
				"y": 0.0710587989,
				"z": -0.1069354018,
				"element": "C" 
			},
			{
				"x": 1.0317383035,
				"y": 1.3604891476,
				"z": 0.3708057686,
				"element": "C" 
			},
			{
				"x": 1.5827929144,
				"y": 1.5122344803,
				"z": 1.6405140568,
				"element": "C" 
			},
			{
				"x": 1.8954711876,
				"y": 3.2415676316,
				"z": 2.3716370734,
				"element": "Br" 
			},
			{
				"x": 1.8957923073,
				"y": 0.369830738,
				"z": 2.3785081379,
				"element": "C" 
			},
			{
				"x": 1.7223055736,
				"y": -0.868966168,
				"z": 1.9155700296,
				"element": "N" 
			},
			{
				"x": 0.0410740322,
				"y": -0.1609802545,
				"z": -1.6992252963,
				"element": "S" 
			},
			{
				"x": -1.4735202115,
				"y": -0.80603509,
				"z": -1.3791399647,
				"element": "N" 
			},
			{
				"x": -0.1815955084,
				"y": 1.1561869514,
				"z": -2.2872560449,
				"element": "O" 
			},
			{
				"x": 0.781059406,
				"y": -1.2200696259,
				"z": -2.3955851048,
				"element": "O" 
			},
			{
				"x": 1.4514558394,
				"y": -3.0186825609,
				"z": 0.8682272322,
				"element": "H" 
			},
			{
				"x": 1.1358259786,
				"y": -2.493876119,
				"z": -0.7334740003,
				"element": "H" 
			},
			{
				"x": 0.757484979,
				"y": 2.2115305201,
				"z": -0.2422394959,
				"element": "H" 
			},
			{
				"x": 2.3109188876,
				"y": 0.4612343518,
				"z": 3.378998401,
				"element": "H" 
			},
			{
				"x": -1.4131411484,
				"y": -1.6885382893,
				"z": -0.8762575862,
				"element": "H" 
			},
			{
				"x": -2.0867104317,
				"y": -0.1349686401,
				"z": -0.9258116954,
				"element": "H" 
			}
		],
		 "valence_orbital": [ 
			{
				"type": "occ",
				"energy": -0.31118,
				"method": "rhf"
			},
			{
				"type": "occ",
				"energy": -0.30635,
				"method": "rhf"
			},
			{
				"type": "occ",
				"energy": -0.29965,
				"method": "rhf"
			},
			{
				"type": "occ",
				"energy": -0.28376,
				"method": "rhf"
			},
			{
				"type": "occ",
				"energy": -0.24054,
				"method": "rhf"
			},
			{
				"type": "unocc",
				"energy": -0.06075,
				"method": "rhf"
			},
			{
				"type": "unocc",
				"energy": -0.03241,
				"method": "rhf"
			},
			{
				"type": "unocc",
				"energy": -0.00798,
				"method": "rhf"
			},
			{
				"type": "unocc",
				"energy": 0.04772,
				"method": "rhf"
			},
			{
				"type": "unocc",
				"energy": 0.06668,
				"method": "rhf"
			}
		],
		"cosmo_sigma_profile": { 
			"-0.025": 0.0,
			"-0.024": 0.0,
			"-0.023": 0.0,
			"-0.022": 0.0,
			"-0.021": 0.0,
			"-0.02": 0.0,
			"-0.019": 0.0,
			"-0.018": 0.0,
			"-0.017": 0.0,
			"-0.016": 0.450407666407,
			"-0.015": 1.49462619559,
			"-0.014": 2.77416371211,
			"-0.013": 3.58145941884,
			"-0.012": 3.6931531293,
			"-0.011": 3.98540201978,
			"-0.01": 3.63575369294,
			"-0.009": 3.46357475362,
			"-0.008": 5.75930233111,
			"-0.007": 6.6847910716,
			"-0.006": 6.96019766665,
			"-0.005": 6.49739463391,
			"-0.004": 8.22022416112,
			"-0.003": 10.1528091726,
			"-0.002": 14.6231910091,
			"-0.001": 15.0733956637,
			"0.0": 15.4712429834,
			"0.001": 10.9344031822,
			"0.002": 11.6093804513,
			"0.003": 12.7162895473,
			"0.004": 13.5167186964,
			"0.005": 6.19318540418,
			"0.006": 6.2369532106,
			"0.007": 5.56671010601,
			"0.008": 5.19774607023,
			"0.009": 6.48695856251,
			"0.01": 8.69509014143,
			"0.011": 8.34174067477,
			"0.012": 1.57069672379,
			"0.013": 0.767386737902,
			"0.014": 0.086718996634,
			"0.015": 0.0,
			"0.016": 0.0,
			"0.017": 0.0,
			"0.018": 0.0,
			"0.019": 0.0,
			"0.02": 0.0,
			"0.021": 0.0,
			"0.022": 0.0,
			"0.023": 0.0,
			"0.024": 0.0,
			"0.025": 0.0
		}
	}
}
