{
	 "smiles": "OC1=C(Cl)C=C(Cl)C(Cl)=C1[N+]([O-])=O", 
	 "Tm": 365.65, 
	 "num_atms": 15, 
	 "gaussian": { 
		 "optdone": 1, 
		 "sigma_profile": "yes", 
		 "theory": "DFT", 
		 "functional": "B3LYP", 
		 "basiset": "6-31G**", 
		 "properties": { 
			 "R2extent": 3668.4142, 
			 "electric_dipole_moment_norm": 1.91806583047, 
			 "electric_quadrupole_moment_norm": 5.05645316106, 
			 "total_energy": -1890.71858038, 
			 "HOMO_LUMO_gap": 0.13583, 
			 "cosmo_polarized_energy": -7.77, 
			 "cosmo_cavitation_energy": 25.48, 
			 "cosmo_dispersion_energy": -19.68, 
			 "cosmo_repulsion_energy": 1.55, 
			 "cosmo_total_nonelectrostatic_energy": 7.34, 
			 "SMD_solvation_energy": 6.01 
		},
		"coords": [
			{
				"x": -1.4099928441,
				"y": 1.2793116577,
				"z": 1.0285675352,
				"element": "O" 
			},
			{
				"x": -0.4650395296,
				"y": 0.6669466834,
				"z": 0.3254499047,
				"element": "C" 
			},
			{
				"x": -0.8247907619,
				"y": 0.0993584228,
				"z": -0.9163031162,
				"element": "C" 
			},
			{
				"x": -2.4682940224,
				"y": 0.2466013427,
				"z": -1.4641452423,
				"element": "Cl" 
			},
			{
				"x": 0.1029425747,
				"y": -0.5780479735,
				"z": -1.6825601629,
				"element": "C" 
			},
			{
				"x": 1.4244650818,
				"y": -0.726794895,
				"z": -1.2440670432,
				"element": "C" 
			},
			{
				"x": 2.5071776003,
				"y": -1.6533409619,
				"z": -2.2474731509,
				"element": "Cl" 
			},
			{
				"x": 1.8437510889,
				"y": -0.1588290358,
				"z": -0.039433343,
				"element": "C" 
			},
			{
				"x": 3.4655802797,
				"y": -0.4427422181,
				"z": 0.4978326061,
				"element": "Cl" 
			},
			{
				"x": 0.8953063718,
				"y": 0.5671671871,
				"z": 0.7303381,
				"element": "C" 
			},
			{
				"x": 1.2856292036,
				"y": 1.2886167687,
				"z": 1.9371159188,
				"element": "N" 
			},
			{
				"x": 2.4430092518,
				"y": 1.6337522294,
				"z": 2.094442967,
				"element": "O" 
			},
			{
				"x": 0.3841079245,
				"y": 1.5533932288,
				"z": 2.7679685825,
				"element": "O" 
			},
			{
				"x": -1.0068533434,
				"y": 1.5072333652,
				"z": 1.903671286,
				"element": "H" 
			},
			{
				"x": -0.1969988756,
				"y": -1.0186258015,
				"z": -2.6256048418,
				"element": "H" 
			}
		],
		 "valence_orbital": [ 
			{
				"type": "occ",
				"energy": -0.33479,
				"method": "rhf"
			},
			{
				"type": "occ",
				"energy": -0.32922,
				"method": "rhf"
			},
			{
				"type": "occ",
				"energy": -0.31052,
				"method": "rhf"
			},
			{
				"type": "occ",
				"energy": -0.29184,
				"method": "rhf"
			},
			{
				"type": "occ",
				"energy": -0.25641,
				"method": "rhf"
			},
			{
				"type": "unocc",
				"energy": -0.12058,
				"method": "rhf"
			},
			{
				"type": "unocc",
				"energy": -0.04852,
				"method": "rhf"
			},
			{
				"type": "unocc",
				"energy": -0.03878,
				"method": "rhf"
			},
			{
				"type": "unocc",
				"energy": -0.02943,
				"method": "rhf"
			},
			{
				"type": "unocc",
				"energy": 0.01417,
				"method": "rhf"
			}
		],
		"cosmo_sigma_profile": { 
			"-0.025": 0.0,
			"-0.024": 0.0,
			"-0.023": 0.0,
			"-0.022": 0.0,
			"-0.021": 0.0,
			"-0.02": 0.0,
			"-0.019": 0.0,
			"-0.018": 0.0,
			"-0.017": 0.0,
			"-0.016": 0.0,
			"-0.015": 0.0,
			"-0.014": 0.0,
			"-0.013": 0.0,
			"-0.012": 0.231506625773,
			"-0.011": 1.24606609826,
			"-0.01": 2.76257811806,
			"-0.009": 3.33754659277,
			"-0.008": 4.39110465741,
			"-0.007": 4.84677743976,
			"-0.006": 6.47092117932,
			"-0.005": 7.3838534385,
			"-0.004": 12.9178306318,
			"-0.003": 16.9386932761,
			"-0.002": 21.4867657394,
			"-0.001": 15.4340425329,
			"0.0": 13.1753278956,
			"0.001": 15.665263619,
			"0.002": 19.5083284649,
			"0.003": 24.1198206786,
			"0.004": 11.9979160619,
			"0.005": 6.38915441715,
			"0.006": 9.06017597196,
			"0.007": 7.76681638281,
			"0.008": 5.08398232729,
			"0.009": 2.4495954547,
			"0.01": 0.0,
			"0.011": 0.0,
			"0.012": 0.0,
			"0.013": 0.0,
			"0.014": 0.0,
			"0.015": 0.0,
			"0.016": 0.0,
			"0.017": 0.0,
			"0.018": 0.0,
			"0.019": 0.0,
			"0.02": 0.0,
			"0.021": 0.0,
			"0.022": 0.0,
			"0.023": 0.0,
			"0.024": 0.0,
			"0.025": 0.0
		}
	}
}
