{
	 "smiles": "C[C@@H]1[C@@H](C[C@@H]2[C@H](C1=O)C2(C)C)C#N", 
	 "Tm": 327.65, 
	 "num_atms": 28, 
	 "gaussian": { 
		 "optdone": 1, 
		 "sigma_profile": "yes", 
		 "theory": "DFT", 
		 "functional": "B3LYP", 
		 "basiset": "6-31G**", 
		 "properties": { 
			 "R2extent": 3373.5997, 
			 "electric_dipole_moment_norm": 5.3277783672, 
			 "electric_quadrupole_moment_norm": 20.2503558216, 
			 "total_energy": -558.152076346, 
			 "HOMO_LUMO_gap": 0.21601, 
			 "cosmo_polarized_energy": -14.5, 
			 "cosmo_cavitation_energy": 29.28, 
			 "cosmo_dispersion_energy": -20.26, 
			 "cosmo_repulsion_energy": 1.61, 
			 "cosmo_total_nonelectrostatic_energy": 10.63, 
			 "SMD_solvation_energy": 6.4 
		},
		"coords": [
			{
				"x": -1.745929244,
				"y": -3.9619766705,
				"z": 0.4701607331,
				"element": "C" 
			},
			{
				"x": -0.7132985251,
				"y": -2.8497696499,
				"z": 0.6685038611,
				"element": "C" 
			},
			{
				"x": -0.1860363919,
				"y": -2.7428867798,
				"z": 2.1287695017,
				"element": "C" 
			},
			{
				"x": 0.9276386023,
				"y": -1.6740006778,
				"z": 2.244419094,
				"element": "C" 
			},
			{
				"x": 0.4738819752,
				"y": -0.2994280291,
				"z": 1.7564583835,
				"element": "C" 
			},
			{
				"x": -0.6284299663,
				"y": -0.2374579227,
				"z": 0.7042768259,
				"element": "C" 
			},
			{
				"x": -1.2435856882,
				"y": -1.4916244004,
				"z": 0.1680827065,
				"element": "C" 
			},
			{
				"x": -2.1778860656,
				"y": -1.4394852515,
				"z": -0.6128838931,
				"element": "O" 
			},
			{
				"x": 0.8000866698,
				"y": 0.2256514679,
				"z": 0.3790620481,
				"element": "C" 
			},
			{
				"x": 0.9664442483,
				"y": 1.732962225,
				"z": 0.2474004624,
				"element": "C" 
			},
			{
				"x": 1.6809411335,
				"y": -0.54253517,
				"z": -0.5911483236,
				"element": "C" 
			},
			{
				"x": -1.2784539202,
				"y": -2.4592357898,
				"z": 3.074491275,
				"element": "C" 
			},
			{
				"x": -2.1327666955,
				"y": -2.2277289334,
				"z": 3.8260060734,
				"element": "N" 
			},
			{
				"x": -2.0788551484,
				"y": -3.9839860486,
				"z": -0.5685247732,
				"element": "H" 
			},
			{
				"x": -1.3183546195,
				"y": -4.9361862246,
				"z": 0.7275716855,
				"element": "H" 
			},
			{
				"x": -2.6268809372,
				"y": -3.7940265028,
				"z": 1.0964201847,
				"element": "H" 
			},
			{
				"x": 0.1708083243,
				"y": -3.0864561862,
				"z": 0.0581924083,
				"element": "H" 
			},
			{
				"x": 0.2262873517,
				"y": -3.7195525884,
				"z": 2.4136496153,
				"element": "H" 
			},
			{
				"x": 1.251434262,
				"y": -1.6001797411,
				"z": 3.2864081347,
				"element": "H" 
			},
			{
				"x": 1.791777407,
				"y": -2.0360152407,
				"z": 1.6768161243,
				"element": "H" 
			},
			{
				"x": 0.4026050167,
				"y": 0.4526808038,
				"z": 2.5381364583,
				"element": "H" 
			},
			{
				"x": -1.3609093574,
				"y": 0.562336446,
				"z": 0.7670129425,
				"element": "H" 
			},
			{
				"x": 2.0073316505,
				"y": 2.0228777477,
				"z": 0.4343927686,
				"element": "H" 
			},
			{
				"x": 0.7009016186,
				"y": 2.0700572239,
				"z": -0.7608626778,
				"element": "H" 
			},
			{
				"x": 0.3345262878,
				"y": 2.27277438,
				"z": 0.9589959445,
				"element": "H" 
			},
			{
				"x": 2.7354345997,
				"y": -0.2938627926,
				"z": -0.4219223022,
				"element": "H" 
			},
			{
				"x": 1.4377683549,
				"y": -0.2662479021,
				"z": -1.6227669938,
				"element": "H" 
			},
			{
				"x": 1.5842190571,
				"y": -1.6268977924,
				"z": -0.5138182674,
				"element": "H" 
			}
		],
		 "valence_orbital": [ 
			{
				"type": "occ",
				"energy": -0.32492,
				"method": "rhf"
			},
			{
				"type": "occ",
				"energy": -0.32294,
				"method": "rhf"
			},
			{
				"type": "occ",
				"energy": -0.29817,
				"method": "rhf"
			},
			{
				"type": "occ",
				"energy": -0.28335,
				"method": "rhf"
			},
			{
				"type": "occ",
				"energy": -0.24445,
				"method": "rhf"
			},
			{
				"type": "unocc",
				"energy": -0.02844,
				"method": "rhf"
			},
			{
				"type": "unocc",
				"energy": 0.03081,
				"method": "rhf"
			},
			{
				"type": "unocc",
				"energy": 0.03503,
				"method": "rhf"
			},
			{
				"type": "unocc",
				"energy": 0.06162,
				"method": "rhf"
			},
			{
				"type": "unocc",
				"energy": 0.08263,
				"method": "rhf"
			}
		],
		"cosmo_sigma_profile": { 
			"-0.025": 0.0,
			"-0.024": 0.0,
			"-0.023": 0.0,
			"-0.022": 0.0,
			"-0.021": 0.0,
			"-0.02": 0.0,
			"-0.019": 0.0,
			"-0.018": 0.0,
			"-0.017": 0.0,
			"-0.016": 0.0,
			"-0.015": 0.0,
			"-0.014": 0.0,
			"-0.013": 0.0,
			"-0.012": 0.0,
			"-0.011": 0.0,
			"-0.01": 0.023659756092,
			"-0.009": 0.823394973605,
			"-0.008": 4.58403941815,
			"-0.007": 7.27371180963,
			"-0.006": 8.40670714154,
			"-0.005": 17.5172736407,
			"-0.004": 18.4279961399,
			"-0.003": 26.3143651257,
			"-0.002": 25.993006321,
			"-0.001": 25.1103000093,
			"0.0": 24.6834915555,
			"0.001": 13.7513234497,
			"0.002": 4.53967471781,
			"0.003": 3.78741245976,
			"0.004": 4.07228860226,
			"0.005": 3.85623978329,
			"0.006": 3.42305145728,
			"0.007": 4.34259421128,
			"0.008": 4.62193912776,
			"0.009": 4.73699099502,
			"0.01": 5.5627203656,
			"0.011": 5.87904745608,
			"0.012": 6.91449765819,
			"0.013": 3.85227913305,
			"0.014": 0.54933014387,
			"0.015": 0.0,
			"0.016": 0.0,
			"0.017": 0.0,
			"0.018": 0.0,
			"0.019": 0.0,
			"0.02": 0.0,
			"0.021": 0.0,
			"0.022": 0.0,
			"0.023": 0.0,
			"0.024": 0.0,
			"0.025": 0.0
		}
	}
}
