{
	 "smiles": "CCCCOCCOCCOCCCC", 
	 "Tm": 213.15, 
	 "num_atms": 41, 
	 "gaussian": { 
		 "optdone": 1, 
		 "sigma_profile": "yes", 
		 "theory": "DFT", 
		 "functional": "B3LYP", 
		 "basiset": "6-31G**", 
		 "properties": { 
			 "R2extent": 5321.5117, 
			 "electric_dipole_moment_norm": 3.04340395938, 
			 "electric_quadrupole_moment_norm": 5.02274825469, 
			 "total_energy": -698.595052597, 
			 "HOMO_LUMO_gap": 0.28995, 
			 "cosmo_polarized_energy": -10.05, 
			 "cosmo_cavitation_energy": 42.54, 
			 "cosmo_dispersion_energy": -27.35, 
			 "cosmo_repulsion_energy": 2.27, 
			 "cosmo_total_nonelectrostatic_energy": 17.46, 
			 "SMD_solvation_energy": 6.62 
		},
		"coords": [
			{
				"x": -2.7693113738,
				"y": 1.8808730415,
				"z": -3.4858077383,
				"element": "C" 
			},
			{
				"x": -1.7955477883,
				"y": 1.7594522046,
				"z": -2.3099947134,
				"element": "C" 
			},
			{
				"x": -1.4251307941,
				"y": 3.1160083609,
				"z": -1.6976084639,
				"element": "C" 
			},
			{
				"x": -0.4470519316,
				"y": 3.0159295973,
				"z": -0.533307231,
				"element": "C" 
			},
			{
				"x": 0.7730263954,
				"y": 2.4650789889,
				"z": -1.0035244677,
				"element": "O" 
			},
			{
				"x": 1.7510165617,
				"y": 2.327802366,
				"z": 0.0034860354,
				"element": "C" 
			},
			{
				"x": 3.0416440059,
				"y": 1.7925760728,
				"z": -0.6074912408,
				"element": "C" 
			},
			{
				"x": 2.9422922081,
				"y": 0.5258905741,
				"z": -1.2283631564,
				"element": "O" 
			},
			{
				"x": 2.6764350659,
				"y": -0.5780987262,
				"z": -0.3733084866,
				"element": "C" 
			},
			{
				"x": 1.2579645535,
				"y": -1.1066864817,
				"z": -0.6151251881,
				"element": "C" 
			},
			{
				"x": 1.0184574466,
				"y": -2.2822620276,
				"z": 0.1464997373,
				"element": "O" 
			},
			{
				"x": 0.417314342,
				"y": -2.0655211636,
				"z": 1.4173601136,
				"element": "C" 
			},
			{
				"x": -1.1104966088,
				"y": -2.015107415,
				"z": 1.3436457944,
				"element": "C" 
			},
			{
				"x": -1.7677015518,
				"y": -1.8382746592,
				"z": 2.7183728076,
				"element": "C" 
			},
			{
				"x": -3.2979738027,
				"y": -1.8015427595,
				"z": 2.652977673,
				"element": "C" 
			},
			{
				"x": -2.3405696095,
				"y": 2.4852117259,
				"z": -4.2933904437,
				"element": "H" 
			},
			{
				"x": -3.7079716054,
				"y": 2.3578730193,
				"z": -3.1799954869,
				"element": "H" 
			},
			{
				"x": -3.0161790993,
				"y": 0.8989655669,
				"z": -3.9024255636,
				"element": "H" 
			},
			{
				"x": -2.2382428833,
				"y": 1.1223835125,
				"z": -1.5310187911,
				"element": "H" 
			},
			{
				"x": -0.8775834207,
				"y": 1.2576005386,
				"z": -2.6339863669,
				"element": "H" 
			},
			{
				"x": -0.983574087,
				"y": 3.7617338215,
				"z": -2.4675788345,
				"element": "H" 
			},
			{
				"x": -2.3298498664,
				"y": 3.6262114265,
				"z": -1.339810296,
				"element": "H" 
			},
			{
				"x": -0.2683832364,
				"y": 4.0126835145,
				"z": -0.0948806928,
				"element": "H" 
			},
			{
				"x": -0.8667900654,
				"y": 2.3809494466,
				"z": 0.2674890467,
				"element": "H" 
			},
			{
				"x": 1.3910508738,
				"y": 1.6616225069,
				"z": 0.8067960939,
				"element": "H" 
			},
			{
				"x": 1.9734691964,
				"y": 3.3020231317,
				"z": 0.4749207121,
				"element": "H" 
			},
			{
				"x": 3.3680884539,
				"y": 2.4779933861,
				"z": -1.395902346,
				"element": "H" 
			},
			{
				"x": 3.8140372278,
				"y": 1.787027088,
				"z": 0.1803993026,
				"element": "H" 
			},
			{
				"x": 3.3948504341,
				"y": -1.3737916395,
				"z": -0.6052646713,
				"element": "H" 
			},
			{
				"x": 2.8144484631,
				"y": -0.312307946,
				"z": 0.6850088825,
				"element": "H" 
			},
			{
				"x": 0.5188218399,
				"y": -0.3215017893,
				"z": -0.408454481,
				"element": "H" 
			},
			{
				"x": 1.157484505,
				"y": -1.3730323236,
				"z": -1.6724689434,
				"element": "H" 
			},
			{
				"x": 0.7320228203,
				"y": -2.9038005122,
				"z": 2.0506376268,
				"element": "H" 
			},
			{
				"x": 0.8056076015,
				"y": -1.1462418396,
				"z": 1.8854054793,
				"element": "H" 
			},
			{
				"x": -1.4167607102,
				"y": -1.1940461564,
				"z": 0.6812322634,
				"element": "H" 
			},
			{
				"x": -1.4628281757,
				"y": -2.9414077512,
				"z": 0.8726987322,
				"element": "H" 
			},
			{
				"x": -1.4001667489,
				"y": -0.9127492327,
				"z": 3.1830327901,
				"element": "H" 
			},
			{
				"x": -1.450638669,
				"y": -2.6553968968,
				"z": 3.3808193936,
				"element": "H" 
			},
			{
				"x": -3.6478242547,
				"y": -0.973494943,
				"z": 2.0260550254,
				"element": "H" 
			},
			{
				"x": -3.7379825977,
				"y": -1.6750450844,
				"z": 3.6475490771,
				"element": "H" 
			},
			{
				"x": -3.697673114,
				"y": -2.7285805436,
				"z": 2.2270210163,
				"element": "H" 
			}
		],
		 "valence_orbital": [ 
			{
				"type": "occ",
				"energy": -0.30216,
				"method": "rhf"
			},
			{
				"type": "occ",
				"energy": -0.2984,
				"method": "rhf"
			},
			{
				"type": "occ",
				"energy": -0.26389,
				"method": "rhf"
			},
			{
				"type": "occ",
				"energy": -0.25723,
				"method": "rhf"
			},
			{
				"type": "occ",
				"energy": -0.23403,
				"method": "rhf"
			},
			{
				"type": "unocc",
				"energy": 0.05592,
				"method": "rhf"
			},
			{
				"type": "unocc",
				"energy": 0.08636,
				"method": "rhf"
			},
			{
				"type": "unocc",
				"energy": 0.09227,
				"method": "rhf"
			},
			{
				"type": "unocc",
				"energy": 0.09841,
				"method": "rhf"
			},
			{
				"type": "unocc",
				"energy": 0.11109,
				"method": "rhf"
			}
		],
		"cosmo_sigma_profile": { 
			"-0.025": 0.0,
			"-0.024": 0.0,
			"-0.023": 0.0,
			"-0.022": 0.0,
			"-0.021": 0.0,
			"-0.02": 0.0,
			"-0.019": 0.0,
			"-0.018": 0.0,
			"-0.017": 0.0,
			"-0.016": 0.0,
			"-0.015": 0.0,
			"-0.014": 0.0,
			"-0.013": 0.0,
			"-0.012": 0.0,
			"-0.011": 0.0,
			"-0.01": 0.0,
			"-0.009": 0.0,
			"-0.008": 0.0,
			"-0.007": 0.0,
			"-0.006": 0.341704665426,
			"-0.005": 8.29377894244,
			"-0.004": 23.197650499,
			"-0.003": 39.8511846701,
			"-0.002": 58.7461522758,
			"-0.001": 52.269133979,
			"0.0": 42.7573846166,
			"0.001": 38.9405501184,
			"0.002": 18.2746184088,
			"0.003": 5.46392400307,
			"0.004": 4.28943336939,
			"0.005": 4.16937893902,
			"0.006": 3.5550423574,
			"0.007": 4.22640069486,
			"0.008": 3.65944180855,
			"0.009": 3.60934811875,
			"0.01": 2.76447860928,
			"0.011": 2.95730839739,
			"0.012": 4.42452630906,
			"0.013": 3.98187960107,
			"0.014": 1.3042196685,
			"0.015": 0.0,
			"0.016": 0.0,
			"0.017": 0.0,
			"0.018": 0.0,
			"0.019": 0.0,
			"0.02": 0.0,
			"0.021": 0.0,
			"0.022": 0.0,
			"0.023": 0.0,
			"0.024": 0.0,
			"0.025": 0.0
		}
	}
}
