{
	 "smiles": "CC1=CC(OCC(O)=O)=C(Cl)C=C1", 
	 "Tm": 408.15, 
	 "num_atms": 22, 
	 "gaussian": { 
		 "optdone": 1, 
		 "sigma_profile": "yes", 
		 "theory": "DFT", 
		 "functional": "B3LYP", 
		 "basiset": "6-31G**", 
		 "properties": { 
			 "R2extent": 3577.1982, 
			 "electric_dipole_moment_norm": 1.92731200899, 
			 "electric_quadrupole_moment_norm": 10.7785158853, 
			 "total_energy": -1034.24721024, 
			 "HOMO_LUMO_gap": 0.20786, 
			 "cosmo_polarized_energy": -12.94, 
			 "cosmo_cavitation_energy": 28.36, 
			 "cosmo_dispersion_energy": -20.29, 
			 "cosmo_repulsion_energy": 1.65, 
			 "cosmo_total_nonelectrostatic_energy": 9.73, 
			 "SMD_solvation_energy": 6.19 
		},
		"coords": [
			{
				"x": 1.6497069018,
				"y": 1.7143452967,
				"z": -0.0418303836,
				"element": "C" 
			},
			{
				"x": 0.8514138402,
				"y": 0.612965549,
				"z": 0.6153411166,
				"element": "C" 
			},
			{
				"x": -0.1156384899,
				"y": -0.0874509788,
				"z": -0.1217513722,
				"element": "C" 
			},
			{
				"x": -0.8554017239,
				"y": -1.1255776149,
				"z": 0.451710852,
				"element": "C" 
			},
			{
				"x": -1.8058693005,
				"y": -1.8551669447,
				"z": -0.2028623071,
				"element": "O" 
			},
			{
				"x": -2.0368654393,
				"y": -1.5968398022,
				"z": -1.5701651722,
				"element": "C" 
			},
			{
				"x": -2.7840667566,
				"y": -0.3010942129,
				"z": -1.8769209078,
				"element": "C" 
			},
			{
				"x": -3.5512154716,
				"y": 0.11417732,
				"z": -0.8542318506,
				"element": "O" 
			},
			{
				"x": -2.719300866,
				"y": 0.2581733329,
				"z": -2.9488855404,
				"element": "O" 
			},
			{
				"x": -0.6200075096,
				"y": -1.4646642893,
				"z": 1.7970983244,
				"element": "C" 
			},
			{
				"x": -1.5333037232,
				"y": -2.7608608769,
				"z": 2.5407569531,
				"element": "Cl" 
			},
			{
				"x": 0.3326187829,
				"y": -0.7748102484,
				"z": 2.5360945219,
				"element": "C" 
			},
			{
				"x": 1.0651815762,
				"y": 0.259032416,
				"z": 1.948954823,
				"element": "C" 
			},
			{
				"x": 2.1719544317,
				"y": 2.3236097422,
				"z": 0.7006290236,
				"element": "H" 
			},
			{
				"x": 1.0087659742,
				"y": 2.3768595163,
				"z": -0.6328456057,
				"element": "H" 
			},
			{
				"x": 2.4051733316,
				"y": 1.3042731158,
				"z": -0.7231877809,
				"element": "H" 
			},
			{
				"x": -0.2869011557,
				"y": 0.1962946037,
				"z": -1.1548228481,
				"element": "H" 
			},
			{
				"x": -1.1147173007,
				"y": -1.598844009,
				"z": -2.161183492,
				"element": "H" 
			},
			{
				"x": -2.6634380131,
				"y": -2.4234111374,
				"z": -1.9207364994,
				"element": "H" 
			},
			{
				"x": -3.9940509746,
				"y": 0.9259522684,
				"z": -1.1552224885,
				"element": "H" 
			},
			{
				"x": 0.4963823416,
				"y": -1.0502992688,
				"z": 3.5723098988,
				"element": "H" 
			},
			{
				"x": 1.8053795445,
				"y": 0.7908362223,
				"z": 2.5394507353,
				"element": "H" 
			}
		],
		 "valence_orbital": [ 
			{
				"type": "occ",
				"energy": -0.31989,
				"method": "rhf"
			},
			{
				"type": "occ",
				"energy": -0.30413,
				"method": "rhf"
			},
			{
				"type": "occ",
				"energy": -0.28763,
				"method": "rhf"
			},
			{
				"type": "occ",
				"energy": -0.24827,
				"method": "rhf"
			},
			{
				"type": "occ",
				"energy": -0.22535,
				"method": "rhf"
			},
			{
				"type": "unocc",
				"energy": -0.01749,
				"method": "rhf"
			},
			{
				"type": "unocc",
				"energy": -0.00387,
				"method": "rhf"
			},
			{
				"type": "unocc",
				"energy": 0.00199,
				"method": "rhf"
			},
			{
				"type": "unocc",
				"energy": 0.03386,
				"method": "rhf"
			},
			{
				"type": "unocc",
				"energy": 0.06428,
				"method": "rhf"
			}
		],
		"cosmo_sigma_profile": { 
			"-0.025": 0.0,
			"-0.024": 0.0,
			"-0.023": 0.0,
			"-0.022": 0.0,
			"-0.021": 0.0,
			"-0.02": 0.0,
			"-0.019": 0.572027413515,
			"-0.018": 0.78638935437,
			"-0.017": 1.12931890826,
			"-0.016": 0.874643094775,
			"-0.015": 1.09000176989,
			"-0.014": 0.491394225813,
			"-0.013": 0.307125114526,
			"-0.012": 0.684107076377,
			"-0.011": 0.857334447182,
			"-0.01": 1.48089712639,
			"-0.009": 3.44947096056,
			"-0.008": 4.97471495118,
			"-0.007": 6.89300482897,
			"-0.006": 9.46862360263,
			"-0.005": 13.3346104027,
			"-0.004": 15.6813025498,
			"-0.003": 13.815980396,
			"-0.002": 14.6472778331,
			"-0.001": 13.7427752302,
			"0.0": 15.260127298,
			"0.001": 12.5791585933,
			"0.002": 15.6610163319,
			"0.003": 16.3767859602,
			"0.004": 20.2053111639,
			"0.005": 13.0819421265,
			"0.006": 4.96346334862,
			"0.007": 3.65449944907,
			"0.008": 4.63817202747,
			"0.009": 5.72800677539,
			"0.01": 3.8937791479,
			"0.011": 4.97821076697,
			"0.012": 2.35659072159,
			"0.013": 0.0375918529346,
			"0.014": 0.0,
			"0.015": 0.0,
			"0.016": 0.0,
			"0.017": 0.0,
			"0.018": 0.0,
			"0.019": 0.0,
			"0.02": 0.0,
			"0.021": 0.0,
			"0.022": 0.0,
			"0.023": 0.0,
			"0.024": 0.0,
			"0.025": 0.0
		}
	}
}
