{
	 "smiles": "CCOC(=O)C1=C(N)N(N=C1SC)C(=O)C1=CC=C(C=C1)[N+]([O-])=O", 
	 "Tm": 431.15, 
	 "num_atms": 38, 
	 "gaussian": { 
		 "optdone": 1, 
		 "sigma_profile": "yes", 
		 "theory": "DFT", 
		 "functional": "B3LYP", 
		 "basiset": "6-31G**", 
		 "properties": { 
			 "R2extent": 12500.7654, 
			 "electric_dipole_moment_norm": 3.88409818233, 
			 "electric_quadrupole_moment_norm": 26.1077630078, 
			 "total_energy": -1535.16243526, 
			 "HOMO_LUMO_gap": 0.11995, 
			 "cosmo_polarized_energy": -15.13, 
			 "cosmo_cavitation_energy": 45.43, 
			 "cosmo_dispersion_energy": -32.4, 
			 "cosmo_repulsion_energy": 2.41, 
			 "cosmo_total_nonelectrostatic_energy": 15.44, 
			 "SMD_solvation_energy": 11.13 
		},
		"coords": [
			{
				"x": -6.0677415995,
				"y": 2.1560241547,
				"z": -0.4891651099,
				"element": "C" 
			},
			{
				"x": -5.4053005648,
				"y": 1.0078468587,
				"z": -1.2257856342,
				"element": "C" 
			},
			{
				"x": -4.0273194939,
				"y": 0.9496235314,
				"z": -0.788888073,
				"element": "O" 
			},
			{
				"x": -3.2691128147,
				"y": -0.0211093755,
				"z": -1.3362438775,
				"element": "C" 
			},
			{
				"x": -3.6997426355,
				"y": -0.8256224023,
				"z": -2.1605954082,
				"element": "O" 
			},
			{
				"x": -1.9016667366,
				"y": -0.0204787155,
				"z": -0.8574591514,
				"element": "C" 
			},
			{
				"x": -0.9576920417,
				"y": -0.9447382721,
				"z": -1.3148295978,
				"element": "C" 
			},
			{
				"x": -1.1224032124,
				"y": -1.9425260233,
				"z": -2.18870847,
				"element": "N" 
			},
			{
				"x": 0.2344329345,
				"y": -0.6470187433,
				"z": -0.6611381228,
				"element": "N" 
			},
			{
				"x": 0.0823961394,
				"y": 0.4572040949,
				"z": 0.1917174264,
				"element": "N" 
			},
			{
				"x": -1.1806976579,
				"y": 0.8107934847,
				"z": 0.0649705055,
				"element": "C" 
			},
			{
				"x": -1.8508159489,
				"y": 2.1777622097,
				"z": 0.9443302204,
				"element": "S" 
			},
			{
				"x": -0.3716465245,
				"y": 2.7261015093,
				"z": 1.8637514145,
				"element": "C" 
			},
			{
				"x": 1.4513900336,
				"y": -1.2935788472,
				"z": -0.878096019,
				"element": "C" 
			},
			{
				"x": 1.5272078042,
				"y": -2.1601697978,
				"z": -1.7465644551,
				"element": "O" 
			},
			{
				"x": 2.6560574154,
				"y": -0.9294850364,
				"z": -0.0638610163,
				"element": "C" 
			},
			{
				"x": 3.8951626087,
				"y": -1.196910608,
				"z": -0.6710710963,
				"element": "C" 
			},
			{
				"x": 5.0837919935,
				"y": -0.9590953414,
				"z": 0.0078779559,
				"element": "C" 
			},
			{
				"x": 5.0164636208,
				"y": -0.4754573396,
				"z": 1.3129856895,
				"element": "C" 
			},
			{
				"x": 3.8040712928,
				"y": -0.224842909,
				"z": 1.949732149,
				"element": "C" 
			},
			{
				"x": 2.6186068202,
				"y": -0.4470494117,
				"z": 1.2540296742,
				"element": "C" 
			},
			{
				"x": 6.2718861099,
				"y": -0.2257227055,
				"z": 2.0462291303,
				"element": "N" 
			},
			{
				"x": 7.3277980108,
				"y": -0.4584119679,
				"z": 1.4604341027,
				"element": "O" 
			},
			{
				"x": 6.1837112379,
				"y": 0.1995670457,
				"z": 3.1968250903,
				"element": "O" 
			},
			{
				"x": -5.5710156124,
				"y": 3.1036865147,
				"z": -0.7152407624,
				"element": "H" 
			},
			{
				"x": -7.1161781883,
				"y": 2.2340146847,
				"z": -0.7934949502,
				"element": "H" 
			},
			{
				"x": -6.032905559,
				"y": 1.9982700837,
				"z": 0.592421517,
				"element": "H" 
			},
			{
				"x": -5.4243791694,
				"y": 1.1483446284,
				"z": -2.3110289853,
				"element": "H" 
			},
			{
				"x": -5.8836821069,
				"y": 0.047674033,
				"z": -1.0089882807,
				"element": "H" 
			},
			{
				"x": -0.3144000516,
				"y": -2.4655686348,
				"z": -2.492666995,
				"element": "H" 
			},
			{
				"x": -2.046758454,
				"y": -2.0099545937,
				"z": -2.6001194579,
				"element": "H" 
			},
			{
				"x": 0.4477712341,
				"y": 2.947730954,
				"z": 1.1792164167,
				"element": "H" 
			},
			{
				"x": -0.6729026498,
				"y": 3.6327495442,
				"z": 2.3921080197,
				"element": "H" 
			},
			{
				"x": -0.0565424074,
				"y": 1.9687404209,
				"z": 2.5829996292,
				"element": "H" 
			},
			{
				"x": 3.9075573833,
				"y": -1.5972059522,
				"z": -1.678089248,
				"element": "H" 
			},
			{
				"x": 6.0489808921,
				"y": -1.1445155021,
				"z": -0.4458617978,
				"element": "H" 
			},
			{
				"x": 3.8031701632,
				"y": 0.1387054475,
				"z": 2.9694485981,
				"element": "H" 
			},
			{
				"x": 1.6677477348,
				"y": -0.2403770207,
				"z": 1.7240189692,
				"element": "H" 
			}
		],
		 "valence_orbital": [ 
			{
				"type": "occ",
				"energy": -0.28713,
				"method": "rhf"
			},
			{
				"type": "occ",
				"energy": -0.28525,
				"method": "rhf"
			},
			{
				"type": "occ",
				"energy": -0.27932,
				"method": "rhf"
			},
			{
				"type": "occ",
				"energy": -0.2369,
				"method": "rhf"
			},
			{
				"type": "occ",
				"energy": -0.22609,
				"method": "rhf"
			},
			{
				"type": "unocc",
				"energy": -0.10614,
				"method": "rhf"
			},
			{
				"type": "unocc",
				"energy": -0.05647,
				"method": "rhf"
			},
			{
				"type": "unocc",
				"energy": -0.0335,
				"method": "rhf"
			},
			{
				"type": "unocc",
				"energy": -0.01587,
				"method": "rhf"
			},
			{
				"type": "unocc",
				"energy": -0.00163,
				"method": "rhf"
			}
		],
		"cosmo_sigma_profile": { 
			"-0.025": 0.0,
			"-0.024": 0.0,
			"-0.023": 0.0,
			"-0.022": 0.0,
			"-0.021": 0.0,
			"-0.02": 0.0,
			"-0.019": 0.0,
			"-0.018": 0.0,
			"-0.017": 0.0,
			"-0.016": 0.0,
			"-0.015": 0.0,
			"-0.014": 0.0,
			"-0.013": 0.0,
			"-0.012": 0.891585068756,
			"-0.011": 1.3960079609,
			"-0.01": 1.31334327941,
			"-0.009": 1.56182382005,
			"-0.008": 4.44926996654,
			"-0.007": 9.37649800134,
			"-0.006": 14.6952012802,
			"-0.005": 21.6799823031,
			"-0.004": 30.0376639558,
			"-0.003": 30.7800007095,
			"-0.002": 35.5550139125,
			"-0.001": 34.4743352948,
			"0.0": 37.8365104468,
			"0.001": 26.9256670321,
			"0.002": 16.7252975363,
			"0.003": 15.3131021925,
			"0.004": 11.68098262,
			"0.005": 12.4194006231,
			"0.006": 12.5961754592,
			"0.007": 18.2563925777,
			"0.008": 10.5161638976,
			"0.009": 7.85230416711,
			"0.01": 4.08267297875,
			"0.011": 2.32620899392,
			"0.012": 2.0667572275,
			"0.013": 0.487930899619,
			"0.014": 0.0,
			"0.015": 0.0,
			"0.016": 0.0,
			"0.017": 0.0,
			"0.018": 0.0,
			"0.019": 0.0,
			"0.02": 0.0,
			"0.021": 0.0,
			"0.022": 0.0,
			"0.023": 0.0,
			"0.024": 0.0,
			"0.025": 0.0
		}
	}
}
