{
	 "smiles": "OC(=O)C1=CC(CNC2=C(C=CC=N2)C#N)=CC=C1", 
	 "Tm": 471.15, 
	 "num_atms": 30, 
	 "gaussian": { 
		 "optdone": 1, 
		 "sigma_profile": "yes", 
		 "theory": "DFT", 
		 "functional": "B3LYP", 
		 "basiset": "6-31G**", 
		 "properties": { 
			 "R2extent": 5652.4141, 
			 "electric_dipole_moment_norm": 8.13171975046, 
			 "electric_quadrupole_moment_norm": 28.1172775935, 
			 "total_energy": -854.818459369, 
			 "HOMO_LUMO_gap": 0.16917, 
			 "cosmo_polarized_energy": -18.76, 
			 "cosmo_cavitation_energy": 34.81, 
			 "cosmo_dispersion_energy": -24.58, 
			 "cosmo_repulsion_energy": 1.85, 
			 "cosmo_total_nonelectrostatic_energy": 12.08, 
			 "SMD_solvation_energy": 6.06 
		},
		"coords": [
			{
				"x": -1.0706965853,
				"y": 1.9216000086,
				"z": 3.7730974659,
				"element": "O" 
			},
			{
				"x": -0.2943285415,
				"y": 2.7995226455,
				"z": 3.0928940428,
				"element": "C" 
			},
			{
				"x": -0.227003734,
				"y": 3.9585548105,
				"z": 3.4345370418,
				"element": "O" 
			},
			{
				"x": 0.4436656046,
				"y": 2.2477602636,
				"z": 1.9088157833,
				"element": "C" 
			},
			{
				"x": 0.7967116902,
				"y": 0.8976540412,
				"z": 1.8444933122,
				"element": "C" 
			},
			{
				"x": 1.3557251771,
				"y": 0.349235283,
				"z": 0.6916629856,
				"element": "C" 
			},
			{
				"x": 1.6292984174,
				"y": -1.148127824,
				"z": 0.6432656761,
				"element": "C" 
			},
			{
				"x": 1.122689002,
				"y": -1.8321222078,
				"z": -0.5388195352,
				"element": "N" 
			},
			{
				"x": -0.1336436073,
				"y": -2.2617966416,
				"z": -0.8528401039,
				"element": "C" 
			},
			{
				"x": -1.3170682229,
				"y": -2.1206977515,
				"z": -0.061762648,
				"element": "C" 
			},
			{
				"x": -2.5148982325,
				"y": -2.6682668883,
				"z": -0.563795162,
				"element": "C" 
			},
			{
				"x": -2.5375591134,
				"y": -3.3137983821,
				"z": -1.7877718815,
				"element": "C" 
			},
			{
				"x": -1.3297118809,
				"y": -3.3867153815,
				"z": -2.4906346996,
				"element": "C" 
			},
			{
				"x": -0.1811393321,
				"y": -2.8888263905,
				"z": -2.0512638001,
				"element": "N" 
			},
			{
				"x": -1.4051455028,
				"y": -1.446991643,
				"z": 1.1928158989,
				"element": "C" 
			},
			{
				"x": -1.5692682766,
				"y": -0.8995118344,
				"z": 2.2083776657,
				"element": "N" 
			},
			{
				"x": 1.6235903994,
				"y": 1.1923951498,
				"z": -0.3929782664,
				"element": "C" 
			},
			{
				"x": 1.3371696302,
				"y": 2.5577557875,
				"z": -0.3135326931,
				"element": "C" 
			},
			{
				"x": 0.7449244463,
				"y": 3.0890161798,
				"z": 0.8319588736,
				"element": "C" 
			},
			{
				"x": -1.2000238326,
				"y": 1.0878993102,
				"z": 3.2853298065,
				"element": "H" 
			},
			{
				"x": 0.605044266,
				"y": 0.2517347893,
				"z": 2.6935577244,
				"element": "H" 
			},
			{
				"x": 2.7089405379,
				"y": -1.3345251566,
				"z": 0.6548880529,
				"element": "H" 
			},
			{
				"x": 1.2293904886,
				"y": -1.6194969183,
				"z": 1.5462555855,
				"element": "H" 
			},
			{
				"x": 1.7772771088,
				"y": -2.0544197377,
				"z": -1.2754879654,
				"element": "H" 
			},
			{
				"x": -3.4168214987,
				"y": -2.566337254,
				"z": 0.031219333,
				"element": "H" 
			},
			{
				"x": -3.4487333074,
				"y": -3.7398535195,
				"z": -2.1903258139,
				"element": "H" 
			},
			{
				"x": -1.2882648174,
				"y": -3.8751681772,
				"z": -3.4630455749,
				"element": "H" 
			},
			{
				"x": 2.0462183813,
				"y": 0.7823979584,
				"z": -1.3067469588,
				"element": "H" 
			},
			{
				"x": 1.5591222505,
				"y": 3.2045436473,
				"z": -1.1572237614,
				"element": "H" 
			},
			{
				"x": 0.4892390854,
				"y": 4.1410858333,
				"z": 0.9014596158,
				"element": "H" 
			}
		],
		 "valence_orbital": [ 
			{
				"type": "occ",
				"energy": -0.28744,
				"method": "rhf"
			},
			{
				"type": "occ",
				"energy": -0.26889,
				"method": "rhf"
			},
			{
				"type": "occ",
				"energy": -0.26321,
				"method": "rhf"
			},
			{
				"type": "occ",
				"energy": -0.25241,
				"method": "rhf"
			},
			{
				"type": "occ",
				"energy": -0.23604,
				"method": "rhf"
			},
			{
				"type": "unocc",
				"energy": -0.06687,
				"method": "rhf"
			},
			{
				"type": "unocc",
				"energy": -0.04268,
				"method": "rhf"
			},
			{
				"type": "unocc",
				"energy": -0.02899,
				"method": "rhf"
			},
			{
				"type": "unocc",
				"energy": -0.0194,
				"method": "rhf"
			},
			{
				"type": "unocc",
				"energy": 0.01076,
				"method": "rhf"
			}
		],
		"cosmo_sigma_profile": { 
			"-0.025": 0.0,
			"-0.024": 0.0,
			"-0.023": 0.0,
			"-0.022": 0.0,
			"-0.021": 0.0,
			"-0.02": 0.0,
			"-0.019": 0.0,
			"-0.018": 0.0,
			"-0.017": 0.0,
			"-0.016": 0.0,
			"-0.015": 0.0,
			"-0.014": 0.536138401749,
			"-0.013": 1.21784734032,
			"-0.012": 0.980147529463,
			"-0.011": 1.42314364023,
			"-0.01": 0.985516744848,
			"-0.009": 1.93583604481,
			"-0.008": 5.0560335197,
			"-0.007": 15.0068295197,
			"-0.006": 19.9908680018,
			"-0.005": 19.6780490664,
			"-0.004": 17.43347871,
			"-0.003": 17.8495697717,
			"-0.002": 15.9687763676,
			"-0.001": 19.6837631994,
			"0.0": 20.5346614668,
			"0.001": 20.7039463137,
			"0.002": 21.1540930763,
			"0.003": 18.6286658397,
			"0.004": 10.7192752443,
			"0.005": 4.98166876384,
			"0.006": 6.1442709999,
			"0.007": 5.40707187098,
			"0.008": 6.1179233667,
			"0.009": 6.27534908205,
			"0.01": 5.41900813593,
			"0.011": 6.53284287145,
			"0.012": 6.41435690507,
			"0.013": 3.06887177793,
			"0.014": 0.32572116156,
			"0.015": 0.0,
			"0.016": 0.0,
			"0.017": 0.0,
			"0.018": 0.0,
			"0.019": 0.0,
			"0.02": 0.0,
			"0.021": 0.0,
			"0.022": 0.0,
			"0.023": 0.0,
			"0.024": 0.0,
			"0.025": 0.0
		}
	}
}
