{
	 "smiles": "COC(=O)C1=C(Br)C=C(F)C(=C1)S(N)(=O)=O", 
	 "Tm": 438.15, 
	 "num_atms": 23, 
	 "gaussian": { 
		 "optdone": 1, 
		 "sigma_profile": "yes", 
		 "theory": "DFT", 
		 "functional": "B3LYP", 
		 "basiset": "6-31G**", 
		 "properties": { 
			 "R2extent": 6642.8934, 
			 "electric_dipole_moment_norm": 4.11069531466, 
			 "electric_quadrupole_moment_norm": 16.5613372673, 
			 "total_energy": -3734.06526304, 
			 "HOMO_LUMO_gap": 0.19771, 
			 "cosmo_polarized_energy": -17.97, 
			 "cosmo_cavitation_energy": 32.42, 
			 "cosmo_dispersion_energy": -24.1, 
			 "cosmo_repulsion_energy": 1.82, 
			 "cosmo_total_nonelectrostatic_energy": 10.15, 
			 "SMD_solvation_energy": 6.27 
		},
		"coords": [
			{
				"x": 2.0362890246,
				"y": 1.5910417287,
				"z": 3.3735819359,
				"element": "C" 
			},
			{
				"x": 0.8951014831,
				"y": 0.8659429912,
				"z": 2.8809938043,
				"element": "O" 
			},
			{
				"x": 0.8569514526,
				"y": 0.6884160799,
				"z": 1.5540171248,
				"element": "C" 
			},
			{
				"x": 1.7258438296,
				"y": 1.0880647863,
				"z": 0.8021344233,
				"element": "O" 
			},
			{
				"x": -0.3402879792,
				"y": -0.0767241889,
				"z": 1.0666197086,
				"element": "C" 
			},
			{
				"x": -1.5074018957,
				"y": -0.4269103058,
				"z": 1.773751076,
				"element": "C" 
			},
			{
				"x": -1.8688259182,
				"y": 0.0459249396,
				"z": 3.5831574069,
				"element": "Br" 
			},
			{
				"x": -2.523816535,
				"y": -1.1536217316,
				"z": 1.1478248607,
				"element": "C" 
			},
			{
				"x": -2.384731009,
				"y": -1.5337156369,
				"z": -0.1768483579,
				"element": "C" 
			},
			{
				"x": -3.3675325096,
				"y": -2.2320633331,
				"z": -0.7525024436,
				"element": "F" 
			},
			{
				"x": -1.2446068051,
				"y": -1.1962284407,
				"z": -0.9122316412,
				"element": "C" 
			},
			{
				"x": -0.245168274,
				"y": -0.4722162111,
				"z": -0.2801038973,
				"element": "C" 
			},
			{
				"x": -1.1456022316,
				"y": -1.7220137637,
				"z": -2.6280730245,
				"element": "S" 
			},
			{
				"x": 0.344484282,
				"y": -1.0951924208,
				"z": -3.1047500401,
				"element": "N" 
			},
			{
				"x": -2.1882446679,
				"y": -1.0141571662,
				"z": -3.3704077184,
				"element": "O" 
			},
			{
				"x": -1.0375865572,
				"y": -3.1806720928,
				"z": -2.6427597674,
				"element": "O" 
			},
			{
				"x": 2.0762352578,
				"y": 2.5883872165,
				"z": 2.929825607,
				"element": "H" 
			},
			{
				"x": 2.9591926483,
				"y": 1.0582012548,
				"z": 3.1331543112,
				"element": "H" 
			},
			{
				"x": 1.8955281781,
				"y": 1.6528612564,
				"z": 4.4520407947,
				"element": "H" 
			},
			{
				"x": -3.4259466415,
				"y": -1.4237538973,
				"z": 1.681797339,
				"element": "H" 
			},
			{
				"x": 0.6455055921,
				"y": -0.1911257847,
				"z": -0.8279185831,
				"element": "H" 
			},
			{
				"x": 0.9608062992,
				"y": -1.8516419546,
				"z": -3.3878272294,
				"element": "H" 
			},
			{
				"x": 0.2116129768,
				"y": -0.4086033253,
				"z": -3.8417756896,
				"element": "H" 
			}
		],
		 "valence_orbital": [ 
			{
				"type": "occ",
				"energy": -0.30393,
				"method": "rhf"
			},
			{
				"type": "occ",
				"energy": -0.29801,
				"method": "rhf"
			},
			{
				"type": "occ",
				"energy": -0.2897,
				"method": "rhf"
			},
			{
				"type": "occ",
				"energy": -0.28152,
				"method": "rhf"
			},
			{
				"type": "occ",
				"energy": -0.26745,
				"method": "rhf"
			},
			{
				"type": "unocc",
				"energy": -0.06974,
				"method": "rhf"
			},
			{
				"type": "unocc",
				"energy": -0.05004,
				"method": "rhf"
			},
			{
				"type": "unocc",
				"energy": -0.01456,
				"method": "rhf"
			},
			{
				"type": "unocc",
				"energy": 0.02641,
				"method": "rhf"
			},
			{
				"type": "unocc",
				"energy": 0.03886,
				"method": "rhf"
			}
		],
		"cosmo_sigma_profile": { 
			"-0.025": 0.0,
			"-0.024": 0.0,
			"-0.023": 0.0,
			"-0.022": 0.0,
			"-0.021": 0.0,
			"-0.02": 0.0,
			"-0.019": 0.0,
			"-0.018": 0.0,
			"-0.017": 0.0,
			"-0.016": 0.381410036561,
			"-0.015": 2.41498671057,
			"-0.014": 2.87203980898,
			"-0.013": 2.28963079843,
			"-0.012": 2.37303872065,
			"-0.011": 2.04756397828,
			"-0.01": 2.66955513138,
			"-0.009": 3.25491559423,
			"-0.008": 2.96236324025,
			"-0.007": 4.96848299216,
			"-0.006": 9.77823079556,
			"-0.005": 13.462447386,
			"-0.004": 18.4847598396,
			"-0.003": 21.9422150536,
			"-0.002": 23.9698272293,
			"-0.001": 23.3418641454,
			"0.0": 12.9643120174,
			"0.001": 12.139196463,
			"0.002": 17.3321933674,
			"0.003": 16.8554675819,
			"0.004": 10.7332152893,
			"0.005": 8.21075976649,
			"0.006": 5.50741641282,
			"0.007": 5.25908453069,
			"0.008": 4.46982974857,
			"0.009": 6.88341700761,
			"0.01": 13.9488999721,
			"0.011": 10.2190956537,
			"0.012": 1.23646843011,
			"0.013": 0.0,
			"0.014": 0.0,
			"0.015": 0.0,
			"0.016": 0.0,
			"0.017": 0.0,
			"0.018": 0.0,
			"0.019": 0.0,
			"0.02": 0.0,
			"0.021": 0.0,
			"0.022": 0.0,
			"0.023": 0.0,
			"0.024": 0.0,
			"0.025": 0.0
		}
	}
}
