{
	 "smiles": "O=C1NC(=O)C(N1)(C1=CC=CC=C1)C1=CC=CC=C1", 
	 "Tm": 568.15, 
	 "num_atms": 31, 
	 "gaussian": { 
		 "optdone": 1, 
		 "sigma_profile": "yes", 
		 "theory": "DFT", 
		 "functional": "B3LYP", 
		 "basiset": "6-31G**", 
		 "properties": { 
			 "R2extent": 4718.1355, 
			 "electric_dipole_moment_norm": 2.66791959399, 
			 "electric_quadrupole_moment_norm": 12.7389655561, 
			 "total_energy": -838.815710659, 
			 "HOMO_LUMO_gap": 0.21888, 
			 "cosmo_polarized_energy": -16.79, 
			 "cosmo_cavitation_energy": 35.1, 
			 "cosmo_dispersion_energy": -24.42, 
			 "cosmo_repulsion_energy": 1.9, 
			 "cosmo_total_nonelectrostatic_energy": 12.57, 
			 "SMD_solvation_energy": 7.44 
		},
		"coords": [
			{
				"x": 2.6307246091,
				"y": -2.2064698357,
				"z": 0.4012459195,
				"element": "O" 
			},
			{
				"x": 1.7429651198,
				"y": -1.3839456534,
				"z": 0.4711201996,
				"element": "C" 
			},
			{
				"x": 0.7519234143,
				"y": -1.3155573386,
				"z": 1.4708210983,
				"element": "N" 
			},
			{
				"x": -0.211382366,
				"y": -0.3637992516,
				"z": 1.2287886924,
				"element": "C" 
			},
			{
				"x": -1.1945129591,
				"y": -0.1356327136,
				"z": 1.900072548,
				"element": "O" 
			},
			{
				"x": 0.2192783819,
				"y": 0.3629501858,
				"z": -0.0813441563,
				"element": "C" 
			},
			{
				"x": 1.4815532908,
				"y": -0.3312049369,
				"z": -0.3743478827,
				"element": "N" 
			},
			{
				"x": -0.7820817543,
				"y": 0.1497375006,
				"z": -1.227942311,
				"element": "C" 
			},
			{
				"x": -1.8632792535,
				"y": -0.7340478882,
				"z": -1.138530014,
				"element": "C" 
			},
			{
				"x": -2.6949780483,
				"y": -0.9457692758,
				"z": -2.2412859457,
				"element": "C" 
			},
			{
				"x": -2.4550264206,
				"y": -0.2836740658,
				"z": -3.4443901125,
				"element": "C" 
			},
			{
				"x": -1.3809666975,
				"y": 0.6044149263,
				"z": -3.5396468776,
				"element": "C" 
			},
			{
				"x": -0.5558776752,
				"y": 0.8232336245,
				"z": -2.4382766562,
				"element": "C" 
			},
			{
				"x": 0.4225950697,
				"y": 1.8524879897,
				"z": 0.2347666729,
				"element": "C" 
			},
			{
				"x": 1.6982962996,
				"y": 2.42020091,
				"z": 0.3013834058,
				"element": "C" 
			},
			{
				"x": 1.8523530781,
				"y": 3.7753735188,
				"z": 0.6061574117,
				"element": "C" 
			},
			{
				"x": 0.7350252968,
				"y": 4.5699661084,
				"z": 0.8583701306,
				"element": "C" 
			},
			{
				"x": -0.5412634117,
				"y": 4.003108455,
				"z": 0.8049423994,
				"element": "C" 
			},
			{
				"x": -0.6986970615,
				"y": 2.6545428473,
				"z": 0.4928124793,
				"element": "C" 
			},
			{
				"x": 0.7350535138,
				"y": -1.9480230566,
				"z": 2.2581685052,
				"element": "H" 
			},
			{
				"x": 1.8638272165,
				"y": -0.3626924743,
				"z": -1.308153898,
				"element": "H" 
			},
			{
				"x": -2.0781418532,
				"y": -1.2438951231,
				"z": -0.206124865,
				"element": "H" 
			},
			{
				"x": -3.5336800701,
				"y": -1.6302736442,
				"z": -2.1535211232,
				"element": "H" 
			},
			{
				"x": -3.1029137667,
				"y": -0.4512595359,
				"z": -4.2997324692,
				"element": "H" 
			},
			{
				"x": -1.1901687279,
				"y": 1.1336497941,
				"z": -4.4687901329,
				"element": "H" 
			},
			{
				"x": 0.262843908,
				"y": 1.5341825505,
				"z": -2.5122758246,
				"element": "H" 
			},
			{
				"x": 2.5700703032,
				"y": 1.8011435419,
				"z": 0.119210438,
				"element": "H" 
			},
			{
				"x": 2.8491678884,
				"y": 4.205040068,
				"z": 0.6487153059,
				"element": "H" 
			},
			{
				"x": 0.855281933,
				"y": 5.6228039576,
				"z": 1.0968721396,
				"element": "H" 
			},
			{
				"x": -1.4173242146,
				"y": 4.6129342179,
				"z": 1.0059661619,
				"element": "H" 
			},
			{
				"x": -1.6901650426,
				"y": 2.2161745974,
				"z": 0.458548761,
				"element": "H" 
			}
		],
		 "valence_orbital": [ 
			{
				"type": "occ",
				"energy": -0.26584,
				"method": "rhf"
			},
			{
				"type": "occ",
				"energy": -0.26283,
				"method": "rhf"
			},
			{
				"type": "occ",
				"energy": -0.25843,
				"method": "rhf"
			},
			{
				"type": "occ",
				"energy": -0.25253,
				"method": "rhf"
			},
			{
				"type": "occ",
				"energy": -0.2451,
				"method": "rhf"
			},
			{
				"type": "unocc",
				"energy": -0.02622,
				"method": "rhf"
			},
			{
				"type": "unocc",
				"energy": -0.01876,
				"method": "rhf"
			},
			{
				"type": "unocc",
				"energy": -0.01498,
				"method": "rhf"
			},
			{
				"type": "unocc",
				"energy": -0.00184,
				"method": "rhf"
			},
			{
				"type": "unocc",
				"energy": 0.00367,
				"method": "rhf"
			}
		],
		"cosmo_sigma_profile": { 
			"-0.025": 0.0,
			"-0.024": 0.0,
			"-0.023": 0.0,
			"-0.022": 0.0,
			"-0.021": 0.0,
			"-0.02": 0.0,
			"-0.019": 0.0,
			"-0.018": 0.0,
			"-0.017": 0.827045538827,
			"-0.016": 1.24470007602,
			"-0.015": 1.74260677087,
			"-0.014": 1.9793126401,
			"-0.013": 1.72712475586,
			"-0.012": 1.03247670231,
			"-0.011": 2.01887891102,
			"-0.01": 2.50005340886,
			"-0.009": 1.97188362216,
			"-0.008": 2.15076458567,
			"-0.007": 2.69891746965,
			"-0.006": 13.8091882604,
			"-0.005": 21.9285405153,
			"-0.004": 26.1822268814,
			"-0.003": 22.7676193287,
			"-0.002": 18.8942169445,
			"-0.001": 17.875145206,
			"0.0": 15.2649482846,
			"0.001": 13.4720587271,
			"0.002": 15.8759889567,
			"0.003": 18.6961770126,
			"0.004": 19.2695596208,
			"0.005": 19.2641699255,
			"0.006": 6.28270266268,
			"0.007": 3.81480595995,
			"0.008": 2.43481930689,
			"0.009": 2.55027409647,
			"0.01": 3.59665193684,
			"0.011": 6.00720542625,
			"0.012": 8.53869328504,
			"0.013": 4.40416393176,
			"0.014": 0.111176878167,
			"0.015": 0.0,
			"0.016": 0.0,
			"0.017": 0.0,
			"0.018": 0.0,
			"0.019": 0.0,
			"0.02": 0.0,
			"0.021": 0.0,
			"0.022": 0.0,
			"0.023": 0.0,
			"0.024": 0.0,
			"0.025": 0.0
		}
	}
}
