{
	 "smiles": "CN(C)C1=CC=C(C=C1)N=NC1=CC(C)=CC=C1", 
	 "Tm": 411.15, 
	 "num_atms": 35, 
	 "gaussian": { 
		 "optdone": 1, 
		 "sigma_profile": "yes", 
		 "theory": "DFT", 
		 "functional": "B3LYP", 
		 "basiset": "6-31G**", 
		 "properties": { 
			 "R2extent": 5823.5526, 
			 "electric_dipole_moment_norm": 5.99086587815, 
			 "electric_quadrupole_moment_norm": 15.8112916753, 
			 "total_energy": -746.033981548, 
			 "HOMO_LUMO_gap": 0.12844, 
			 "cosmo_polarized_energy": -12.99, 
			 "cosmo_cavitation_energy": 37.96, 
			 "cosmo_dispersion_energy": -26.55, 
			 "cosmo_repulsion_energy": 2.07, 
			 "cosmo_total_nonelectrostatic_energy": 13.47, 
			 "SMD_solvation_energy": 4.24 
		},
		"coords": [
			{
				"x": -0.8425678923,
				"y": 2.5508421561,
				"z": 3.9568378283,
				"element": "C" 
			},
			{
				"x": -1.2422131404,
				"y": 1.17116269,
				"z": 3.733621037,
				"element": "N" 
			},
			{
				"x": -2.1186808129,
				"y": 0.5317255409,
				"z": 4.7010660145,
				"element": "C" 
			},
			{
				"x": -0.5703978376,
				"y": 0.401364924,
				"z": 2.8020457415,
				"element": "C" 
			},
			{
				"x": 0.4137619455,
				"y": 0.9661671824,
				"z": 1.9514647646,
				"element": "C" 
			},
			{
				"x": 1.0531797117,
				"y": 0.2085628359,
				"z": 0.9820591973,
				"element": "C" 
			},
			{
				"x": 0.7685488707,
				"y": -1.1611456651,
				"z": 0.8331663577,
				"element": "C" 
			},
			{
				"x": -0.1496268635,
				"y": -1.7411530389,
				"z": 1.7231020406,
				"element": "C" 
			},
			{
				"x": -0.8269334765,
				"y": -0.9851585887,
				"z": 2.666881019,
				"element": "C" 
			},
			{
				"x": 1.4418216366,
				"y": -2.0840527372,
				"z": -0.0171815472,
				"element": "N" 
			},
			{
				"x": 1.9295333748,
				"y": -1.8085737798,
				"z": -1.1393485649,
				"element": "N" 
			},
			{
				"x": 1.705467526,
				"y": -0.5791116572,
				"z": -1.840032999,
				"element": "C" 
			},
			{
				"x": 0.4128511777,
				"y": -0.1532139947,
				"z": -2.1798211857,
				"element": "C" 
			},
			{
				"x": 0.218641523,
				"y": 0.9538641712,
				"z": -3.0111295952,
				"element": "C" 
			},
			{
				"x": -1.1758858448,
				"y": 1.3803199784,
				"z": -3.4087361947,
				"element": "C" 
			},
			{
				"x": 1.3431304319,
				"y": 1.6455433445,
				"z": -3.4853342282,
				"element": "C" 
			},
			{
				"x": 2.631040139,
				"y": 1.2160476738,
				"z": -3.1608232685,
				"element": "C" 
			},
			{
				"x": 2.8200460854,
				"y": 0.0905565436,
				"z": -2.3609955643,
				"element": "C" 
			},
			{
				"x": -0.9204316648,
				"y": 3.1391953723,
				"z": 3.0352392268,
				"element": "H" 
			},
			{
				"x": -1.509784702,
				"y": 3.0017569293,
				"z": 4.6925711266,
				"element": "H" 
			},
			{
				"x": 0.1888310592,
				"y": 2.6395538214,
				"z": 4.3301326162,
				"element": "H" 
			},
			{
				"x": -1.5840446597,
				"y": -0.1683854037,
				"z": 5.3604593389,
				"element": "H" 
			},
			{
				"x": -2.58356929,
				"y": 1.2972891885,
				"z": 5.3235960572,
				"element": "H" 
			},
			{
				"x": -2.9225251478,
				"y": -0.0215340304,
				"z": 4.2014684982,
				"element": "H" 
			},
			{
				"x": 0.6857989098,
				"y": 2.0096859988,
				"z": 2.0501152324,
				"element": "H" 
			},
			{
				"x": 1.8015269717,
				"y": 0.6818565813,
				"z": 0.358239105,
				"element": "H" 
			},
			{
				"x": -0.3241053011,
				"y": -2.8103544133,
				"z": 1.6500919878,
				"element": "H" 
			},
			{
				"x": -1.5381817588,
				"y": -1.4784044555,
				"z": 3.3173815499,
				"element": "H" 
			},
			{
				"x": -0.4432957598,
				"y": -0.6987023192,
				"z": -1.7937180627,
				"element": "H" 
			},
			{
				"x": -1.9127464312,
				"y": 1.1001102716,
				"z": -2.6502265259,
				"element": "H" 
			},
			{
				"x": -1.480460576,
				"y": 0.9065787792,
				"z": -4.350423027,
				"element": "H" 
			},
			{
				"x": -1.2354968267,
				"y": 2.4630765015,
				"z": -3.5566458269,
				"element": "H" 
			},
			{
				"x": 1.2073266663,
				"y": 2.5155838595,
				"z": -4.1226712729,
				"element": "H" 
			},
			{
				"x": 3.4932837368,
				"y": 1.7541253409,
				"z": -3.5450375941,
				"element": "H" 
			},
			{
				"x": 3.8147582198,
				"y": -0.2744796016,
				"z": -2.1250132821,
				"element": "H" 
			}
		],
		 "valence_orbital": [ 
			{
				"type": "occ",
				"energy": -0.25475,
				"method": "rhf"
			},
			{
				"type": "occ",
				"energy": -0.24142,
				"method": "rhf"
			},
			{
				"type": "occ",
				"energy": -0.23854,
				"method": "rhf"
			},
			{
				"type": "occ",
				"energy": -0.21056,
				"method": "rhf"
			},
			{
				"type": "occ",
				"energy": -0.18389,
				"method": "rhf"
			},
			{
				"type": "unocc",
				"energy": -0.05545,
				"method": "rhf"
			},
			{
				"type": "unocc",
				"energy": -0.00439,
				"method": "rhf"
			},
			{
				"type": "unocc",
				"energy": 0.0069,
				"method": "rhf"
			},
			{
				"type": "unocc",
				"energy": 0.01401,
				"method": "rhf"
			},
			{
				"type": "unocc",
				"energy": 0.043,
				"method": "rhf"
			}
		],
		"cosmo_sigma_profile": { 
			"-0.025": 0.0,
			"-0.024": 0.0,
			"-0.023": 0.0,
			"-0.022": 0.0,
			"-0.021": 0.0,
			"-0.02": 0.0,
			"-0.019": 0.0,
			"-0.018": 0.0,
			"-0.017": 0.0,
			"-0.016": 0.0,
			"-0.015": 0.0,
			"-0.014": 0.0,
			"-0.013": 0.0,
			"-0.012": 0.0,
			"-0.011": 0.0,
			"-0.01": 0.0,
			"-0.009": 0.0,
			"-0.008": 0.0345192210175,
			"-0.007": 1.87148167453,
			"-0.006": 10.283217593,
			"-0.005": 22.6112189333,
			"-0.004": 36.5883688465,
			"-0.003": 33.5470440959,
			"-0.002": 33.4577800065,
			"-0.001": 26.9158712214,
			"0.0": 21.7464865278,
			"0.001": 17.1297642394,
			"0.002": 15.0647795803,
			"0.003": 14.7003025813,
			"0.004": 21.4562361709,
			"0.005": 21.2158723861,
			"0.006": 6.67980058137,
			"0.007": 1.66064080218,
			"0.008": 2.75340095756,
			"0.009": 1.20502438809,
			"0.01": 1.83739560985,
			"0.011": 1.72076952253,
			"0.012": 2.33716548746,
			"0.013": 2.30433262847,
			"0.014": 2.69048466181,
			"0.015": 1.35757793031,
			"0.016": 0.239982946391,
			"0.017": 0.0,
			"0.018": 0.0,
			"0.019": 0.0,
			"0.02": 0.0,
			"0.021": 0.0,
			"0.022": 0.0,
			"0.023": 0.0,
			"0.024": 0.0,
			"0.025": 0.0
		}
	}
}
