{
	 "smiles": "CNS(=O)(=O)C1=C(OC)C=CC(=C1)C(O)=O", 
	 "Tm": 495.15, 
	 "num_atms": 27, 
	 "gaussian": { 
		 "optdone": 1, 
		 "sigma_profile": "yes", 
		 "theory": "DFT", 
		 "functional": "B3LYP", 
		 "basiset": "6-31G**", 
		 "properties": { 
			 "R2extent": 4820.7772, 
			 "electric_dipole_moment_norm": 6.8400677292, 
			 "electric_quadrupole_moment_norm": 31.634669597, 
			 "total_energy": -1178.56078795, 
			 "HOMO_LUMO_gap": 0.19935, 
			 "cosmo_polarized_energy": -24.31, 
			 "cosmo_cavitation_energy": 32.29, 
			 "cosmo_dispersion_energy": -23.64, 
			 "cosmo_repulsion_energy": 1.79, 
			 "cosmo_total_nonelectrostatic_energy": 10.45, 
			 "SMD_solvation_energy": 6.56 
		},
		"coords": [
			{
				"x": 2.547757106,
				"y": 0.9897091101,
				"z": -0.8630144357,
				"element": "C" 
			},
			{
				"x": 1.9604067091,
				"y": 0.3158263363,
				"z": 0.3038314379,
				"element": "N" 
			},
			{
				"x": 0.7204108246,
				"y": 1.0736033671,
				"z": 1.1533178699,
				"element": "S" 
			},
			{
				"x": 0.9714317838,
				"y": 0.7764241836,
				"z": 2.5672069939,
				"element": "O" 
			},
			{
				"x": 0.5531107959,
				"y": 2.4525094785,
				"z": 0.6822417117,
				"element": "O" 
			},
			{
				"x": -0.7633126767,
				"y": 0.1554494295,
				"z": 0.6948959647,
				"element": "C" 
			},
			{
				"x": -1.31570036,
				"y": 0.255404049,
				"z": -0.593885146,
				"element": "C" 
			},
			{
				"x": -0.663080277,
				"y": 0.9515471337,
				"z": -1.5715108181,
				"element": "O" 
			},
			{
				"x": -1.2589569599,
				"y": 2.2038484824,
				"z": -1.9537811771,
				"element": "C" 
			},
			{
				"x": -2.5014185896,
				"y": -0.4280608723,
				"z": -0.880397737,
				"element": "C" 
			},
			{
				"x": -3.1278990095,
				"y": -1.1886811674,
				"z": 0.1029443265,
				"element": "C" 
			},
			{
				"x": -2.579505831,
				"y": -1.2851781633,
				"z": 1.3895354521,
				"element": "C" 
			},
			{
				"x": -1.3804294866,
				"y": -0.618793547,
				"z": 1.6717157626,
				"element": "C" 
			},
			{
				"x": -3.1881296691,
				"y": -2.1126895781,
				"z": 2.4821254538,
				"element": "C" 
			},
			{
				"x": -4.5144128941,
				"y": -2.3950571607,
				"z": 2.3670586416,
				"element": "O" 
			},
			{
				"x": -2.5599388945,
				"y": -2.526887345,
				"z": 3.4261279502,
				"element": "O" 
			},
			{
				"x": 2.9883947841,
				"y": 1.9641579414,
				"z": -0.6263182674,
				"element": "H" 
			},
			{
				"x": 1.7771489476,
				"y": 1.1179859635,
				"z": -1.6220858707,
				"element": "H" 
			},
			{
				"x": 3.3208337825,
				"y": 0.327972564,
				"z": -1.2614355797,
				"element": "H" 
			},
			{
				"x": 2.6357151896,
				"y": 0.0022293929,
				"z": 0.9957022531,
				"element": "H" 
			},
			{
				"x": -2.3075551248,
				"y": 2.0693032344,
				"z": -2.2423376086,
				"element": "H" 
			},
			{
				"x": -0.6894312885,
				"y": 2.5582874084,
				"z": -2.813769855,
				"element": "H" 
			},
			{
				"x": -1.1775277717,
				"y": 2.9214199332,
				"z": -1.1328294633,
				"element": "H" 
			},
			{
				"x": -2.9041450252,
				"y": -0.3793822542,
				"z": -1.8868599552,
				"element": "H" 
			},
			{
				"x": -4.0241729301,
				"y": -1.7443285587,
				"z": -0.1614787706,
				"element": "H" 
			},
			{
				"x": -0.9409498877,
				"y": -0.6983741458,
				"z": 2.6594338796,
				"element": "H" 
			},
			{
				"x": -4.9164432472,
				"y": -1.8508452154,
				"z": 1.6762669868,
				"element": "H" 
			}
		],
		 "valence_orbital": [ 
			{
				"type": "occ",
				"energy": -0.30319,
				"method": "rhf"
			},
			{
				"type": "occ",
				"energy": -0.29412,
				"method": "rhf"
			},
			{
				"type": "occ",
				"energy": -0.28276,
				"method": "rhf"
			},
			{
				"type": "occ",
				"energy": -0.27171,
				"method": "rhf"
			},
			{
				"type": "occ",
				"energy": -0.26334,
				"method": "rhf"
			},
			{
				"type": "unocc",
				"energy": -0.06399,
				"method": "rhf"
			},
			{
				"type": "unocc",
				"energy": -0.04594,
				"method": "rhf"
			},
			{
				"type": "unocc",
				"energy": 0.02624,
				"method": "rhf"
			},
			{
				"type": "unocc",
				"energy": 0.04782,
				"method": "rhf"
			},
			{
				"type": "unocc",
				"energy": 0.0601,
				"method": "rhf"
			}
		],
		"cosmo_sigma_profile": { 
			"-0.025": 0.0,
			"-0.024": 0.0,
			"-0.023": 0.0,
			"-0.022": 0.0,
			"-0.021": 0.0,
			"-0.02": 0.0433041813896,
			"-0.019": 0.730519680447,
			"-0.018": 0.859746615975,
			"-0.017": 1.29381767194,
			"-0.016": 0.944896126821,
			"-0.015": 1.12581781481,
			"-0.014": 2.23084992808,
			"-0.013": 1.81606896911,
			"-0.012": 1.85976391214,
			"-0.011": 2.57518363299,
			"-0.01": 3.02049800537,
			"-0.009": 2.52413868194,
			"-0.008": 5.77665875163,
			"-0.007": 8.0584869122,
			"-0.006": 11.8657528828,
			"-0.005": 12.4909488552,
			"-0.004": 18.3254588815,
			"-0.003": 23.3957040247,
			"-0.002": 19.4275079351,
			"-0.001": 15.757035026,
			"0.0": 18.7082972347,
			"0.001": 14.5107113699,
			"0.002": 7.22324223565,
			"0.003": 8.10885642888,
			"0.004": 7.50113210906,
			"0.005": 7.75915267059,
			"0.006": 6.22890422808,
			"0.007": 6.92904868784,
			"0.008": 7.68756323731,
			"0.009": 8.34561640444,
			"0.01": 11.0671236259,
			"0.011": 12.9398824242,
			"0.012": 5.2982615146,
			"0.013": 0.787285239763,
			"0.014": 0.0,
			"0.015": 0.0,
			"0.016": 0.0,
			"0.017": 0.0,
			"0.018": 0.0,
			"0.019": 0.0,
			"0.02": 0.0,
			"0.021": 0.0,
			"0.022": 0.0,
			"0.023": 0.0,
			"0.024": 0.0,
			"0.025": 0.0
		}
	}
}
