{
	 "smiles": "OC(=O)C1=CNC(=C1)C(=O)N1CCCC1", 
	 "Tm": 538.15, 
	 "num_atms": 27, 
	 "gaussian": { 
		 "optdone": 1, 
		 "sigma_profile": "yes", 
		 "theory": "DFT", 
		 "functional": "B3LYP", 
		 "basiset": "6-31G**", 
		 "properties": { 
			 "R2extent": 4629.5316, 
			 "electric_dipole_moment_norm": 1.48976601518, 
			 "electric_quadrupole_moment_norm": 18.7018098156, 
			 "total_energy": -723.506638531, 
			 "HOMO_LUMO_gap": 0.21077, 
			 "cosmo_polarized_energy": -16.35, 
			 "cosmo_cavitation_energy": 30.59, 
			 "cosmo_dispersion_energy": -22.67, 
			 "cosmo_repulsion_energy": 1.78, 
			 "cosmo_total_nonelectrostatic_energy": 9.71, 
			 "SMD_solvation_energy": 5.88 
		},
		"coords": [
			{
				"x": -3.3646075536,
				"y": -4.2873557693,
				"z": 1.0766535721,
				"element": "O" 
			},
			{
				"x": -2.7890197775,
				"y": -3.207590055,
				"z": 1.6758957597,
				"element": "C" 
			},
			{
				"x": -2.9100417609,
				"y": -2.9896358263,
				"z": 2.8670849701,
				"element": "O" 
			},
			{
				"x": -2.0362831123,
				"y": -2.3775473348,
				"z": 0.7367667174,
				"element": "C" 
			},
			{
				"x": -1.86782521,
				"y": -2.5801716626,
				"z": -0.6312492905,
				"element": "C" 
			},
			{
				"x": -1.1019095354,
				"y": -1.5704730551,
				"z": -1.0989912197,
				"element": "N" 
			},
			{
				"x": -0.7552557109,
				"y": -0.701180142,
				"z": -0.0796587382,
				"element": "C" 
			},
			{
				"x": -1.3335640552,
				"y": -1.1893529507,
				"z": 1.0812667093,
				"element": "C" 
			},
			{
				"x": 0.0638292675,
				"y": 0.452810169,
				"z": -0.5175112785,
				"element": "C" 
			},
			{
				"x": 0.3015351631,
				"y": 0.5823632801,
				"z": -1.7286541561,
				"element": "O" 
			},
			{
				"x": 0.5336127034,
				"y": 1.3457586211,
				"z": 0.3931510414,
				"element": "N" 
			},
			{
				"x": 1.3025129722,
				"y": 2.5104630667,
				"z": -0.074056984,
				"element": "C" 
			},
			{
				"x": 1.4167896963,
				"y": 3.3853692107,
				"z": 1.1804686006,
				"element": "C" 
			},
			{
				"x": 1.4333673919,
				"y": 2.3587940624,
				"z": 2.3250998593,
				"element": "C" 
			},
			{
				"x": 0.4344352501,
				"y": 1.2872714438,
				"z": 1.8574847723,
				"element": "C" 
			},
			{
				"x": -3.8316434034,
				"y": -4.7586715762,
				"z": 1.7856621713,
				"element": "H" 
			},
			{
				"x": -2.2429110521,
				"y": -3.3664193936,
				"z": -1.2682324068,
				"element": "H" 
			},
			{
				"x": -0.797019548,
				"y": -1.3838601292,
				"z": -2.046126464,
				"element": "H" 
			},
			{
				"x": -1.2962026902,
				"y": -0.7720083743,
				"z": 2.0738161303,
				"element": "H" 
			},
			{
				"x": 0.7856750181,
				"y": 2.9916859136,
				"z": -0.907841702,
				"element": "H" 
			},
			{
				"x": 2.2859711756,
				"y": 2.1907854915,
				"z": -0.4430211768,
				"element": "H" 
			},
			{
				"x": 0.5377239749,
				"y": 4.0340525025,
				"z": 1.2682054729,
				"element": "H" 
			},
			{
				"x": 2.3034063267,
				"y": 4.0243756273,
				"z": 1.1634495247,
				"element": "H" 
			},
			{
				"x": 1.1604414861,
				"y": 2.7819654886,
				"z": 3.2953013306,
				"element": "H" 
			},
			{
				"x": 2.4320233992,
				"y": 1.9180257158,
				"z": 2.4206497252,
				"element": "H" 
			},
			{
				"x": 0.6877814966,
				"y": 0.2902672008,
				"z": 2.2292169138,
				"element": "H" 
			},
			{
				"x": -0.5857219121,
				"y": 1.5241784751,
				"z": 2.1899701457,
				"element": "H" 
			}
		],
		 "valence_orbital": [ 
			{
				"type": "occ",
				"energy": -0.26848,
				"method": "rhf"
			},
			{
				"type": "occ",
				"energy": -0.2601,
				"method": "rhf"
			},
			{
				"type": "occ",
				"energy": -0.25459,
				"method": "rhf"
			},
			{
				"type": "occ",
				"energy": -0.23995,
				"method": "rhf"
			},
			{
				"type": "occ",
				"energy": -0.22967,
				"method": "rhf"
			},
			{
				"type": "unocc",
				"energy": -0.0189,
				"method": "rhf"
			},
			{
				"type": "unocc",
				"energy": -0.01589,
				"method": "rhf"
			},
			{
				"type": "unocc",
				"energy": 0.07523,
				"method": "rhf"
			},
			{
				"type": "unocc",
				"energy": 0.0867,
				"method": "rhf"
			},
			{
				"type": "unocc",
				"energy": 0.08799,
				"method": "rhf"
			}
		],
		"cosmo_sigma_profile": { 
			"-0.025": 0.0,
			"-0.024": 0.0,
			"-0.023": 0.0,
			"-0.022": 0.0,
			"-0.021": 0.0,
			"-0.02": 0.0,
			"-0.019": 0.0,
			"-0.018": 0.381634650147,
			"-0.017": 0.813306641844,
			"-0.016": 1.01895672522,
			"-0.015": 1.41162710682,
			"-0.014": 1.37524436362,
			"-0.013": 1.7004333028,
			"-0.012": 1.00819533912,
			"-0.011": 1.62419632398,
			"-0.01": 2.36126907823,
			"-0.009": 3.17184533071,
			"-0.008": 2.83147212754,
			"-0.007": 4.16741025561,
			"-0.006": 5.27559213862,
			"-0.005": 8.98101655824,
			"-0.004": 21.931855089,
			"-0.003": 27.8568549861,
			"-0.002": 22.4524336159,
			"-0.001": 21.3757989149,
			"0.0": 18.2676903586,
			"0.001": 13.5485610988,
			"0.002": 13.9270016444,
			"0.003": 12.166732671,
			"0.004": 9.07514839577,
			"0.005": 4.4130638613,
			"0.006": 5.34637841601,
			"0.007": 3.78338176995,
			"0.008": 4.61775210801,
			"0.009": 3.12838064459,
			"0.01": 3.40813492198,
			"0.011": 4.09558033035,
			"0.012": 6.44046543335,
			"0.013": 4.872581193,
			"0.014": 3.79046486861,
			"0.015": 0.973169746869,
			"0.016": 0.0,
			"0.017": 0.0,
			"0.018": 0.0,
			"0.019": 0.0,
			"0.02": 0.0,
			"0.021": 0.0,
			"0.022": 0.0,
			"0.023": 0.0,
			"0.024": 0.0,
			"0.025": 0.0
		}
	}
}
