{
	 "smiles": "CCSCC1=CC=CC=C1OC(=O)NC", 
	 "Tm": 306.55, 
	 "num_atms": 30, 
	 "gaussian": { 
		 "optdone": 1, 
		 "sigma_profile": "yes", 
		 "theory": "DFT", 
		 "functional": "B3LYP", 
		 "basiset": "6-31G**", 
		 "properties": { 
			 "R2extent": 3707.0048, 
			 "electric_dipole_moment_norm": 1.41556381347, 
			 "electric_quadrupole_moment_norm": 12.365809766, 
			 "total_energy": -1031.62187475, 
			 "HOMO_LUMO_gap": 0.20186, 
			 "cosmo_polarized_energy": -13.08, 
			 "cosmo_cavitation_energy": 34.78, 
			 "cosmo_dispersion_energy": -23.64, 
			 "cosmo_repulsion_energy": 1.85, 
			 "cosmo_total_nonelectrostatic_energy": 12.99, 
			 "SMD_solvation_energy": 5.82 
		},
		"coords": [
			{
				"x": 0.1031602891,
				"y": 0.3008707847,
				"z": -4.3214222026,
				"element": "C" 
			},
			{
				"x": 0.8425858604,
				"y": 0.2324174693,
				"z": -2.9858337018,
				"element": "C" 
			},
			{
				"x": 0.5931062098,
				"y": 1.8069662409,
				"z": -2.0695446598,
				"element": "S" 
			},
			{
				"x": 1.6196830173,
				"y": 1.5389646378,
				"z": -0.5518005875,
				"element": "C" 
			},
			{
				"x": 1.4832229225,
				"y": 0.1997084167,
				"z": 0.1272557524,
				"element": "C" 
			},
			{
				"x": 2.5760248168,
				"y": -0.6769296147,
				"z": 0.1866455094,
				"element": "C" 
			},
			{
				"x": 2.4844881794,
				"y": -1.9152433733,
				"z": 0.8218784786,
				"element": "C" 
			},
			{
				"x": 1.2827674859,
				"y": -2.3033250867,
				"z": 1.4151914118,
				"element": "C" 
			},
			{
				"x": 0.1808940511,
				"y": -1.4499669478,
				"z": 1.3707235156,
				"element": "C" 
			},
			{
				"x": 0.2902460368,
				"y": -0.2172763061,
				"z": 0.7338677389,
				"element": "C" 
			},
			{
				"x": -0.7881876494,
				"y": 0.664049202,
				"z": 0.7456104209,
				"element": "O" 
			},
			{
				"x": -1.8513642499,
				"y": 0.3602613592,
				"z": -0.0816213273,
				"element": "C" 
			},
			{
				"x": -1.9223326121,
				"y": -0.6389188403,
				"z": -0.7676253639,
				"element": "O" 
			},
			{
				"x": -2.8182193905,
				"y": 1.3129780361,
				"z": 0.0249985372,
				"element": "N" 
			},
			{
				"x": -2.6413881363,
				"y": 2.6218754705,
				"z": 0.6369618744,
				"element": "C" 
			},
			{
				"x": -0.9709170712,
				"y": 0.4403596685,
				"z": -4.1667381579,
				"element": "H" 
			},
			{
				"x": 0.4713462624,
				"y": 1.1208598102,
				"z": -4.945820886,
				"element": "H" 
			},
			{
				"x": 0.2433919641,
				"y": -0.6351450413,
				"z": -4.8719227194,
				"element": "H" 
			},
			{
				"x": 1.9149010006,
				"y": 0.0760763276,
				"z": -3.1426751589,
				"element": "H" 
			},
			{
				"x": 0.4506047611,
				"y": -0.5846689883,
				"z": -2.3755128893,
				"element": "H" 
			},
			{
				"x": 2.6695996388,
				"y": 1.7112385984,
				"z": -0.8040286336,
				"element": "H" 
			},
			{
				"x": 1.2991693723,
				"y": 2.3464552179,
				"z": 0.1132567471,
				"element": "H" 
			},
			{
				"x": 3.5135831962,
				"y": -0.3743362202,
				"z": -0.2728174615,
				"element": "H" 
			},
			{
				"x": 3.3482360448,
				"y": -2.57255574,
				"z": 0.8532617374,
				"element": "H" 
			},
			{
				"x": 1.1994802285,
				"y": -3.2660842289,
				"z": 1.9102797694,
				"element": "H" 
			},
			{
				"x": -0.765326588,
				"y": -1.7281995556,
				"z": 1.8215751824,
				"element": "H" 
			},
			{
				"x": -3.5464328091,
				"y": 1.2009015743,
				"z": -0.6641638351,
				"element": "H" 
			},
			{
				"x": -3.62189986,
				"y": 3.0932662697,
				"z": 0.7367117138,
				"element": "H" 
			},
			{
				"x": -1.9917206999,
				"y": 3.2775768222,
				"z": 0.0440521784,
				"element": "H" 
			},
			{
				"x": -2.2095022716,
				"y": 2.5116240373,
				"z": 1.6327570168,
				"element": "H" 
			}
		],
		 "valence_orbital": [ 
			{
				"type": "occ",
				"energy": -0.27073,
				"method": "rhf"
			},
			{
				"type": "occ",
				"energy": -0.25389,
				"method": "rhf"
			},
			{
				"type": "occ",
				"energy": -0.24892,
				"method": "rhf"
			},
			{
				"type": "occ",
				"energy": -0.24053,
				"method": "rhf"
			},
			{
				"type": "occ",
				"energy": -0.21266,
				"method": "rhf"
			},
			{
				"type": "unocc",
				"energy": -0.0108,
				"method": "rhf"
			},
			{
				"type": "unocc",
				"energy": -0.00266,
				"method": "rhf"
			},
			{
				"type": "unocc",
				"energy": 0.04402,
				"method": "rhf"
			},
			{
				"type": "unocc",
				"energy": 0.05655,
				"method": "rhf"
			},
			{
				"type": "unocc",
				"energy": 0.08205,
				"method": "rhf"
			}
		],
		"cosmo_sigma_profile": { 
			"-0.025": 0.0,
			"-0.024": 0.0,
			"-0.023": 0.0,
			"-0.022": 0.0,
			"-0.021": 0.0,
			"-0.02": 0.0,
			"-0.019": 0.0,
			"-0.018": 0.0,
			"-0.017": 0.0,
			"-0.016": 0.0,
			"-0.015": 0.0352008421867,
			"-0.014": 1.06092124086,
			"-0.013": 1.36838345913,
			"-0.012": 0.760068873076,
			"-0.011": 1.41830203431,
			"-0.01": 0.688343250834,
			"-0.009": 0.962353903264,
			"-0.008": 1.01834113616,
			"-0.007": 3.30640642745,
			"-0.006": 13.8623713198,
			"-0.005": 16.9311332683,
			"-0.004": 23.6121771433,
			"-0.003": 24.4080236711,
			"-0.002": 29.680294705,
			"-0.001": 23.6171914478,
			"0.0": 20.312201222,
			"0.001": 19.9652988629,
			"0.002": 13.8057058513,
			"0.003": 16.3113903391,
			"0.004": 15.0943560948,
			"0.005": 13.2567153095,
			"0.006": 9.29886314183,
			"0.007": 6.59052920741,
			"0.008": 3.32184487859,
			"0.009": 1.85809055985,
			"0.01": 2.69893871755,
			"0.011": 3.32274439184,
			"0.012": 2.42395513674,
			"0.013": 4.12086995717,
			"0.014": 0.715806168786,
			"0.015": 0.0,
			"0.016": 0.0,
			"0.017": 0.0,
			"0.018": 0.0,
			"0.019": 0.0,
			"0.02": 0.0,
			"0.021": 0.0,
			"0.022": 0.0,
			"0.023": 0.0,
			"0.024": 0.0,
			"0.025": 0.0
		}
	}
}
