{
	 "smiles": "CC1=CC(=CC=C1O)C(C)(C)C", 
	 "Tm": 300.65, 
	 "num_atms": 28, 
	 "gaussian": { 
		 "optdone": 1, 
		 "sigma_profile": "yes", 
		 "theory": "DFT", 
		 "functional": "B3LYP", 
		 "basiset": "6-31G**", 
		 "properties": { 
			 "R2extent": 2575.9017, 
			 "electric_dipole_moment_norm": 1.60130341285, 
			 "electric_quadrupole_moment_norm": 7.69278702032, 
			 "total_energy": -504.054699825, 
			 "HOMO_LUMO_gap": 0.21345, 
			 "cosmo_polarized_energy": -7.45, 
			 "cosmo_cavitation_energy": 29.02, 
			 "cosmo_dispersion_energy": -20.8, 
			 "cosmo_repulsion_energy": 1.65, 
			 "cosmo_total_nonelectrostatic_energy": 9.86, 
			 "SMD_solvation_energy": 5.31 
		},
		"coords": [
			{
				"x": 1.8472152109,
				"y": -2.2491289239,
				"z": 0.7676352184,
				"element": "C" 
			},
			{
				"x": 0.7531127648,
				"y": -1.2871886874,
				"z": 0.3662204525,
				"element": "C" 
			},
			{
				"x": 0.7509198392,
				"y": 0.0407611921,
				"z": 0.8141901152,
				"element": "C" 
			},
			{
				"x": -0.2438649245,
				"y": 0.9614409132,
				"z": 0.4645378368,
				"element": "C" 
			},
			{
				"x": -1.2706242568,
				"y": 0.4967647882,
				"z": -0.3752674148,
				"element": "C" 
			},
			{
				"x": -1.2995798465,
				"y": -0.8137061925,
				"z": -0.8378838257,
				"element": "C" 
			},
			{
				"x": -0.2914381631,
				"y": -1.708158762,
				"z": -0.4704501889,
				"element": "C" 
			},
			{
				"x": -0.3778328178,
				"y": -2.9850033334,
				"z": -0.9599360644,
				"element": "O" 
			},
			{
				"x": -0.2478954048,
				"y": 2.4210119416,
				"z": 0.9551710607,
				"element": "C" 
			},
			{
				"x": -1.541393934,
				"y": 2.6928929762,
				"z": 1.759658536,
				"element": "C" 
			},
			{
				"x": 0.955261227,
				"y": 2.7370029447,
				"z": 1.8639016309,
				"element": "C" 
			},
			{
				"x": -0.1942063918,
				"y": 3.3755977355,
				"z": -0.2615199781,
				"element": "C" 
			},
			{
				"x": 1.4558864616,
				"y": -3.1153786262,
				"z": 1.3193647949,
				"element": "H" 
			},
			{
				"x": 2.3993240293,
				"y": -2.6348810861,
				"z": -0.1008729493,
				"element": "H" 
			},
			{
				"x": 2.5768990059,
				"y": -1.7604307979,
				"z": 1.4176779586,
				"element": "H" 
			},
			{
				"x": 1.567247211,
				"y": 0.3464777375,
				"z": 1.4602065947,
				"element": "H" 
			},
			{
				"x": -2.0690240784,
				"y": 1.1676104885,
				"z": -0.6791120812,
				"element": "H" 
			},
			{
				"x": -2.0961702014,
				"y": -1.164744342,
				"z": -1.486127896,
				"element": "H" 
			},
			{
				"x": 0.3704986714,
				"y": -3.502142504,
				"z": -0.6375836344,
				"element": "H" 
			},
			{
				"x": -1.5649274132,
				"y": 3.7314033045,
				"z": 2.1098449419,
				"element": "H" 
			},
			{
				"x": -2.4382020152,
				"y": 2.5255354448,
				"z": 1.1556886691,
				"element": "H" 
			},
			{
				"x": -1.6023763006,
				"y": 2.0373080977,
				"z": 2.6346164204,
				"element": "H" 
			},
			{
				"x": 1.9079791932,
				"y": 2.5943330219,
				"z": 1.3430770917,
				"element": "H" 
			},
			{
				"x": 0.96062242,
				"y": 2.1138685031,
				"z": 2.7644383398,
				"element": "H" 
			},
			{
				"x": 0.9099033198,
				"y": 3.7822718781,
				"z": 2.1869208642,
				"element": "H" 
			},
			{
				"x": -1.0477419138,
				"y": 3.229472793,
				"z": -0.930234684,
				"element": "H" 
			},
			{
				"x": -0.2054001023,
				"y": 4.4207134055,
				"z": 0.0691277151,
				"element": "H" 
			},
			{
				"x": 0.71770841,
				"y": 3.2132960895,
				"z": -0.8455895242,
				"element": "H" 
			}
		],
		 "valence_orbital": [ 
			{
				"type": "occ",
				"energy": -0.31588,
				"method": "rhf"
			},
			{
				"type": "occ",
				"energy": -0.31044,
				"method": "rhf"
			},
			{
				"type": "occ",
				"energy": -0.30986,
				"method": "rhf"
			},
			{
				"type": "occ",
				"energy": -0.23824,
				"method": "rhf"
			},
			{
				"type": "occ",
				"energy": -0.20711,
				"method": "rhf"
			},
			{
				"type": "unocc",
				"energy": 0.00634,
				"method": "rhf"
			},
			{
				"type": "unocc",
				"energy": 0.0199,
				"method": "rhf"
			},
			{
				"type": "unocc",
				"energy": 0.06769,
				"method": "rhf"
			},
			{
				"type": "unocc",
				"energy": 0.08528,
				"method": "rhf"
			},
			{
				"type": "unocc",
				"energy": 0.11975,
				"method": "rhf"
			}
		],
		"cosmo_sigma_profile": { 
			"-0.025": 0.0,
			"-0.024": 0.0,
			"-0.023": 0.0,
			"-0.022": 0.0,
			"-0.021": 0.0,
			"-0.02": 0.0,
			"-0.019": 0.0,
			"-0.018": 0.0,
			"-0.017": 0.0,
			"-0.016": 0.30026144459,
			"-0.015": 0.605187392625,
			"-0.014": 0.637335841292,
			"-0.013": 1.26538895603,
			"-0.012": 0.972010400939,
			"-0.011": 1.16744120165,
			"-0.01": 1.11022521172,
			"-0.009": 1.35367017564,
			"-0.008": 1.20477791619,
			"-0.007": 1.00796384832,
			"-0.006": 2.62894820546,
			"-0.005": 7.43712123984,
			"-0.004": 11.8962197922,
			"-0.003": 19.7309055105,
			"-0.002": 30.5207612269,
			"-0.001": 25.3067108203,
			"0.0": 24.7791145864,
			"0.001": 27.6712651699,
			"0.002": 17.2783768076,
			"0.003": 7.39189998246,
			"0.004": 9.39510797587,
			"0.005": 9.15643782645,
			"0.006": 9.33584574287,
			"0.007": 5.89822132416,
			"0.008": 1.39550849817,
			"0.009": 1.8397810807,
			"0.01": 1.53127324123,
			"0.011": 1.82406052003,
			"0.012": 1.49612484537,
			"0.013": 0.0149721454805,
			"0.014": 0.0,
			"0.015": 0.0,
			"0.016": 0.0,
			"0.017": 0.0,
			"0.018": 0.0,
			"0.019": 0.0,
			"0.02": 0.0,
			"0.021": 0.0,
			"0.022": 0.0,
			"0.023": 0.0,
			"0.024": 0.0,
			"0.025": 0.0
		}
	}
}
