{
	 "smiles": "ClC1=NC2=CC=CC=C2C=C1", 
	 "Tm": 310.15, 
	 "num_atms": 17, 
	 "gaussian": { 
		 "optdone": 1, 
		 "sigma_profile": "yes", 
		 "theory": "DFT", 
		 "functional": "B3LYP", 
		 "basiset": "6-31G**", 
		 "properties": { 
			 "R2extent": 2574.0545, 
			 "electric_dipole_moment_norm": 3.62829284513, 
			 "electric_quadrupole_moment_norm": 7.97344085072, 
			 "total_energy": -861.527204635, 
			 "HOMO_LUMO_gap": 0.17953, 
			 "cosmo_polarized_energy": -7.27, 
			 "cosmo_cavitation_energy": 22.98, 
			 "cosmo_dispersion_energy": -17.52, 
			 "cosmo_repulsion_energy": 1.39, 
			 "cosmo_total_nonelectrostatic_energy": 6.84, 
			 "SMD_solvation_energy": 2.02 
		},
		"coords": [
			{
				"x": -3.4431939749,
				"y": 1.5670266302,
				"z": 0.2731609725,
				"element": "Cl" 
			},
			{
				"x": -2.1490896307,
				"y": 0.4868923315,
				"z": -0.2577349468,
				"element": "C" 
			},
			{
				"x": -1.2281861857,
				"y": 0.9930886479,
				"z": -1.021064156,
				"element": "N" 
			},
			{
				"x": -0.2211816948,
				"y": 0.1661731889,
				"z": -1.4382263767,
				"element": "C" 
			},
			{
				"x": 0.7941260546,
				"y": 0.6995667253,
				"z": -2.2723129803,
				"element": "C" 
			},
			{
				"x": 1.8231712611,
				"y": -0.1049149617,
				"z": -2.7107849907,
				"element": "C" 
			},
			{
				"x": 1.8826398484,
				"y": -1.4702901905,
				"z": -2.337159946,
				"element": "C" 
			},
			{
				"x": 0.9092070135,
				"y": -2.0136640491,
				"z": -1.5278268572,
				"element": "C" 
			},
			{
				"x": -0.1631669769,
				"y": -1.2119842815,
				"z": -1.0597962589,
				"element": "C" 
			},
			{
				"x": -1.201420635,
				"y": -1.7019803607,
				"z": -0.2236562359,
				"element": "C" 
			},
			{
				"x": -2.20539695,
				"y": -0.8608794949,
				"z": 0.1871887074,
				"element": "C" 
			},
			{
				"x": 0.726504435,
				"y": 1.74755726,
				"z": -2.5444882275,
				"element": "H" 
			},
			{
				"x": 2.5988558645,
				"y": 0.3073302088,
				"z": -3.3494274913,
				"element": "H" 
			},
			{
				"x": 2.701754516,
				"y": -2.0879337115,
				"z": -2.6930406153,
				"element": "H" 
			},
			{
				"x": 0.9497877753,
				"y": -3.0605304331,
				"z": -1.2380559735,
				"element": "H" 
			},
			{
				"x": -1.1936783169,
				"y": -2.7438143108,
				"z": 0.0863002148,
				"element": "H" 
			},
			{
				"x": -3.0155324033,
				"y": -1.1933431991,
				"z": 0.8245251613,
				"element": "H" 
			}
		],
		 "valence_orbital": [ 
			{
				"type": "occ",
				"energy": -0.31457,
				"method": "rhf"
			},
			{
				"type": "occ",
				"energy": -0.31201,
				"method": "rhf"
			},
			{
				"type": "occ",
				"energy": -0.27389,
				"method": "rhf"
			},
			{
				"type": "occ",
				"energy": -0.25431,
				"method": "rhf"
			},
			{
				"type": "occ",
				"energy": -0.24171,
				"method": "rhf"
			},
			{
				"type": "unocc",
				"energy": -0.06218,
				"method": "rhf"
			},
			{
				"type": "unocc",
				"energy": -0.0268,
				"method": "rhf"
			},
			{
				"type": "unocc",
				"energy": 0.0104,
				"method": "rhf"
			},
			{
				"type": "unocc",
				"energy": 0.03401,
				"method": "rhf"
			},
			{
				"type": "unocc",
				"energy": 0.07859,
				"method": "rhf"
			}
		],
		"cosmo_sigma_profile": { 
			"-0.025": 0.0,
			"-0.024": 0.0,
			"-0.023": 0.0,
			"-0.022": 0.0,
			"-0.021": 0.0,
			"-0.02": 0.0,
			"-0.019": 0.0,
			"-0.018": 0.0,
			"-0.017": 0.0,
			"-0.016": 0.0,
			"-0.015": 0.0,
			"-0.014": 0.0,
			"-0.013": 0.0,
			"-0.012": 0.0,
			"-0.011": 0.0,
			"-0.01": 0.0,
			"-0.009": 0.0421188811543,
			"-0.008": 4.16715890335,
			"-0.007": 8.0734361181,
			"-0.006": 11.6040412191,
			"-0.005": 11.1182426796,
			"-0.004": 12.3145799033,
			"-0.003": 7.1872512909,
			"-0.002": 9.73214504262,
			"-0.001": 14.1150752832,
			"0.0": 16.8099605397,
			"0.001": 20.6278433993,
			"0.002": 17.944331322,
			"0.003": 18.3970510199,
			"0.004": 16.8758888795,
			"0.005": 7.04670922941,
			"0.006": 3.05600563559,
			"0.007": 1.68157358831,
			"0.008": 1.26592293312,
			"0.009": 1.3967323139,
			"0.01": 1.38674883923,
			"0.011": 0.811806489011,
			"0.012": 0.909474358688,
			"0.013": 0.667953002165,
			"0.014": 0.641580661863,
			"0.015": 0.0,
			"0.016": 0.0,
			"0.017": 0.0,
			"0.018": 0.0,
			"0.019": 0.0,
			"0.02": 0.0,
			"0.021": 0.0,
			"0.022": 0.0,
			"0.023": 0.0,
			"0.024": 0.0,
			"0.025": 0.0
		}
	}
}
