{
	 "smiles": "OC(=O)C1CCS(=O)(=O)C1", 
	 "Tm": 409.15, 
	 "num_atms": 18, 
	 "gaussian": { 
		 "optdone": 1, 
		 "sigma_profile": "yes", 
		 "theory": "DFT", 
		 "functional": "B3LYP", 
		 "basiset": "6-31G**", 
		 "properties": { 
			 "R2extent": 2448.0818, 
			 "electric_dipole_moment_norm": 5.79571746982, 
			 "electric_quadrupole_moment_norm": 12.5951801238, 
			 "total_energy": -894.387805654, 
			 "HOMO_LUMO_gap": 0.26582, 
			 "cosmo_polarized_energy": -20.45, 
			 "cosmo_cavitation_energy": 22.76, 
			 "cosmo_dispersion_energy": -17.43, 
			 "cosmo_repulsion_energy": 1.37, 
			 "cosmo_total_nonelectrostatic_energy": 6.71, 
			 "SMD_solvation_energy": 4.08 
		},
		"coords": [
			{
				"x": -2.4045180609,
				"y": -1.7116332869,
				"z": 0.4290427323,
				"element": "O" 
			},
			{
				"x": -1.0739292453,
				"y": -1.4691920128,
				"z": 0.4311168655,
				"element": "C" 
			},
			{
				"x": -0.2937495311,
				"y": -2.0523244314,
				"z": -0.2866693337,
				"element": "O" 
			},
			{
				"x": -0.72628502,
				"y": -0.3629406714,
				"z": 1.4116856865,
				"element": "C" 
			},
			{
				"x": -1.1669179456,
				"y": 1.0280828878,
				"z": 0.8657026183,
				"element": "C" 
			},
			{
				"x": -0.56319128,
				"y": 2.0720462169,
				"z": 1.8038071069,
				"element": "C" 
			},
			{
				"x": 1.1257292704,
				"y": 1.4495311351,
				"z": 2.1720900703,
				"element": "S" 
			},
			{
				"x": 2.0708250891,
				"y": 2.0334370349,
				"z": 1.207751105,
				"element": "O" 
			},
			{
				"x": 1.3794347704,
				"y": 1.5279569941,
				"z": 3.6186940739,
				"element": "O" 
			},
			{
				"x": 0.7784961657,
				"y": -0.2918857704,
				"z": 1.6877166858,
				"element": "C" 
			},
			{
				"x": -2.5598473517,
				"y": -2.4014012681,
				"z": -0.2386047177,
				"element": "H" 
			},
			{
				"x": -1.2776575408,
				"y": -0.5518173831,
				"z": 2.3395614197,
				"element": "H" 
			},
			{
				"x": -0.7739394482,
				"y": 1.1631954343,
				"z": -0.1480121788,
				"element": "H" 
			},
			{
				"x": -2.2557401208,
				"y": 1.1031302505,
				"z": 0.8199262596,
				"element": "H" 
			},
			{
				"x": -1.0930120638,
				"y": 2.1326009698,
				"z": 2.7577248723,
				"element": "H" 
			},
			{
				"x": -0.4575258401,
				"y": 3.0666132722,
				"z": 1.3679814131,
				"element": "H" 
			},
			{
				"x": 1.1129222204,
				"y": -0.9338684638,
				"z": 2.5033510014,
				"element": "H" 
			},
			{
				"x": 1.3558059321,
				"y": -0.5008309076,
				"z": 0.7853343197,
				"element": "H" 
			}
		],
		 "valence_orbital": [ 
			{
				"type": "occ",
				"energy": -0.32122,
				"method": "rhf"
			},
			{
				"type": "occ",
				"energy": -0.30912,
				"method": "rhf"
			},
			{
				"type": "occ",
				"energy": -0.30044,
				"method": "rhf"
			},
			{
				"type": "occ",
				"energy": -0.29529,
				"method": "rhf"
			},
			{
				"type": "occ",
				"energy": -0.28415,
				"method": "rhf"
			},
			{
				"type": "unocc",
				"energy": -0.01833,
				"method": "rhf"
			},
			{
				"type": "unocc",
				"energy": 0.04499,
				"method": "rhf"
			},
			{
				"type": "unocc",
				"energy": 0.05347,
				"method": "rhf"
			},
			{
				"type": "unocc",
				"energy": 0.06632,
				"method": "rhf"
			},
			{
				"type": "unocc",
				"energy": 0.07103,
				"method": "rhf"
			}
		],
		"cosmo_sigma_profile": { 
			"-0.025": 0.0,
			"-0.024": 0.0,
			"-0.023": 0.0,
			"-0.022": 0.0,
			"-0.021": 0.0,
			"-0.02": 0.0,
			"-0.019": 0.347472525975,
			"-0.018": 1.0463950224,
			"-0.017": 0.8035044373,
			"-0.016": 1.17955231485,
			"-0.015": 0.59859157915,
			"-0.014": 0.333613590624,
			"-0.013": 0.399055907596,
			"-0.012": 1.32261193356,
			"-0.011": 0.517938862444,
			"-0.01": 0.954104744872,
			"-0.009": 2.93190300007,
			"-0.008": 11.4999955493,
			"-0.007": 14.6105370988,
			"-0.006": 15.3116836978,
			"-0.005": 14.809340055,
			"-0.004": 13.2533195301,
			"-0.003": 9.73158919618,
			"-0.002": 5.70443697327,
			"-0.001": 5.04655078161,
			"0.0": 4.52307097295,
			"0.001": 4.92398505762,
			"0.002": 3.64022820672,
			"0.003": 3.75423715199,
			"0.004": 4.28567848693,
			"0.005": 4.02005037705,
			"0.006": 4.43832776785,
			"0.007": 4.43604172105,
			"0.008": 4.19033925634,
			"0.009": 5.76222792965,
			"0.01": 6.97239268583,
			"0.011": 14.7800907448,
			"0.012": 11.3971631408,
			"0.013": 1.45867691465,
			"0.014": 0.0,
			"0.015": 0.0,
			"0.016": 0.0,
			"0.017": 0.0,
			"0.018": 0.0,
			"0.019": 0.0,
			"0.02": 0.0,
			"0.021": 0.0,
			"0.022": 0.0,
			"0.023": 0.0,
			"0.024": 0.0,
			"0.025": 0.0
		}
	}
}
