{
	 "smiles": "CCC1=CC=C(O1)C(=O)C1=CC=C(C=C1)[N+]([O-])=O", 
	 "Tm": 350.15, 
	 "num_atms": 29, 
	 "gaussian": { 
		 "optdone": 1, 
		 "sigma_profile": "yes", 
		 "theory": "DFT", 
		 "functional": "B3LYP", 
		 "basiset": "6-31G**", 
		 "properties": { 
			 "R2extent": 6574.4611, 
			 "electric_dipole_moment_norm": 6.25518232268, 
			 "electric_quadrupole_moment_norm": 16.8908590152, 
			 "total_energy": -857.548234562, 
			 "HOMO_LUMO_gap": 0.13989, 
			 "cosmo_polarized_energy": -11.97, 
			 "cosmo_cavitation_energy": 35.04, 
			 "cosmo_dispersion_energy": -24.69, 
			 "cosmo_repulsion_energy": 1.91, 
			 "cosmo_total_nonelectrostatic_energy": 12.26, 
			 "SMD_solvation_energy": 9.13 
		},
		"coords": [
			{
				"x": 0.0814985858,
				"y": -2.9393548026,
				"z": -2.9038151531,
				"element": "C" 
			},
			{
				"x": 1.5909556717,
				"y": -2.9555909354,
				"z": -2.5995778673,
				"element": "C" 
			},
			{
				"x": 1.9102209399,
				"y": -2.7203345204,
				"z": -1.1613475403,
				"element": "C" 
			},
			{
				"x": 2.4960199232,
				"y": -3.4897098217,
				"z": -0.1876061247,
				"element": "C" 
			},
			{
				"x": 2.501049318,
				"y": -2.7124036787,
				"z": 1.0008192599,
				"element": "C" 
			},
			{
				"x": 1.9214098288,
				"y": -1.506979112,
				"z": 0.6881816799,
				"element": "C" 
			},
			{
				"x": 1.5563753048,
				"y": -1.5124322226,
				"z": -0.6406823659,
				"element": "O" 
			},
			{
				"x": 1.6577757032,
				"y": -0.3653225463,
				"z": 1.5681302967,
				"element": "C" 
			},
			{
				"x": 1.9012104667,
				"y": -0.4872956759,
				"z": 2.7677545634,
				"element": "O" 
			},
			{
				"x": 1.0857859328,
				"y": 0.9309602405,
				"z": 1.0551181136,
				"element": "C" 
			},
			{
				"x": 0.5020839019,
				"y": 1.7746760565,
				"z": 2.0157021181,
				"element": "C" 
			},
			{
				"x": -0.0288122648,
				"y": 3.0064061166,
				"z": 1.6547977907,
				"element": "C" 
			},
			{
				"x": 0.0455732378,
				"y": 3.3955432142,
				"z": 0.3177748183,
				"element": "C" 
			},
			{
				"x": 0.6327682828,
				"y": 2.592002271,
				"z": -0.655775419,
				"element": "C" 
			},
			{
				"x": 1.1505641093,
				"y": 1.3541134144,
				"z": -0.2824081946,
				"element": "C" 
			},
			{
				"x": -0.5112598346,
				"y": 4.7014824805,
				"z": -0.0779968233,
				"element": "N" 
			},
			{
				"x": -1.0241414056,
				"y": 5.3918605155,
				"z": 0.8013904762,
				"element": "O" 
			},
			{
				"x": -0.4295445045,
				"y": 5.0206584777,
				"z": -1.2635377623,
				"element": "O" 
			},
			{
				"x": -0.0942778334,
				"y": -3.1016716884,
				"z": -3.9712260082,
				"element": "H" 
			},
			{
				"x": -0.4388369324,
				"y": -3.7247635775,
				"z": -2.347650577,
				"element": "H" 
			},
			{
				"x": -0.361936164,
				"y": -1.9788364882,
				"z": -2.6273924073,
				"element": "H" 
			},
			{
				"x": 2.0245563688,
				"y": -3.9197099337,
				"z": -2.8836761036,
				"element": "H" 
			},
			{
				"x": 2.0937471561,
				"y": -2.1931843294,
				"z": -3.209210312,
				"element": "H" 
			},
			{
				"x": 2.8724662923,
				"y": -4.4943312282,
				"z": -0.3166571336,
				"element": "H" 
			},
			{
				"x": 2.8760526954,
				"y": -2.9821510016,
				"z": 1.9767010186,
				"element": "H" 
			},
			{
				"x": 0.4818927559,
				"y": 1.4411358696,
				"z": 3.046992445,
				"element": "H" 
			},
			{
				"x": -0.4908583232,
				"y": 3.6658923721,
				"z": 2.3785469253,
				"element": "H" 
			},
			{
				"x": 0.6774000013,
				"y": 2.9423998118,
				"z": -1.6791790484,
				"element": "H" 
			},
			{
				"x": 1.608460786,
				"y": 0.7245407222,
				"z": -1.0332706648,
				"element": "H" 
			}
		],
		 "valence_orbital": [ 
			{
				"type": "occ",
				"energy": -0.29283,
				"method": "rhf"
			},
			{
				"type": "occ",
				"energy": -0.28327,
				"method": "rhf"
			},
			{
				"type": "occ",
				"energy": -0.28009,
				"method": "rhf"
			},
			{
				"type": "occ",
				"energy": -0.26558,
				"method": "rhf"
			},
			{
				"type": "occ",
				"energy": -0.24234,
				"method": "rhf"
			},
			{
				"type": "unocc",
				"energy": -0.10245,
				"method": "rhf"
			},
			{
				"type": "unocc",
				"energy": -0.06227,
				"method": "rhf"
			},
			{
				"type": "unocc",
				"energy": -0.02802,
				"method": "rhf"
			},
			{
				"type": "unocc",
				"energy": -0.0048,
				"method": "rhf"
			},
			{
				"type": "unocc",
				"energy": 0.03533,
				"method": "rhf"
			}
		],
		"cosmo_sigma_profile": { 
			"-0.025": 0.0,
			"-0.024": 0.0,
			"-0.023": 0.0,
			"-0.022": 0.0,
			"-0.021": 0.0,
			"-0.02": 0.0,
			"-0.019": 0.0,
			"-0.018": 0.0,
			"-0.017": 0.0,
			"-0.016": 0.0,
			"-0.015": 0.0,
			"-0.014": 0.0,
			"-0.013": 0.0,
			"-0.012": 0.0,
			"-0.011": 0.0,
			"-0.01": 0.0,
			"-0.009": 0.018168780999,
			"-0.008": 3.49435956494,
			"-0.007": 8.5149343163,
			"-0.006": 13.5061816561,
			"-0.005": 14.7360615587,
			"-0.004": 19.1764963102,
			"-0.003": 25.1503088396,
			"-0.002": 29.9798683854,
			"-0.001": 27.9959553548,
			"0.0": 32.2640265095,
			"0.001": 27.4225214944,
			"0.002": 15.1126515396,
			"0.003": 11.5782428403,
			"0.004": 5.82501399067,
			"0.005": 5.12873536752,
			"0.006": 5.86349777047,
			"0.007": 10.6035352948,
			"0.008": 7.88635093489,
			"0.009": 5.86890968653,
			"0.01": 3.94034305895,
			"0.011": 3.00193234798,
			"0.012": 3.7078153959,
			"0.013": 0.14146789545,
			"0.014": 0.0,
			"0.015": 0.0,
			"0.016": 0.0,
			"0.017": 0.0,
			"0.018": 0.0,
			"0.019": 0.0,
			"0.02": 0.0,
			"0.021": 0.0,
			"0.022": 0.0,
			"0.023": 0.0,
			"0.024": 0.0,
			"0.025": 0.0
		}
	}
}
