{
	 "smiles": "CC(C)(C)OC(=O)N1CCC(O)CC1", 
	 "Tm": 336.15, 
	 "num_atms": 33, 
	 "gaussian": { 
		 "optdone": 1, 
		 "sigma_profile": "yes", 
		 "theory": "DFT", 
		 "functional": "B3LYP", 
		 "basiset": "6-31G**", 
		 "properties": { 
			 "R2extent": 3901.9715, 
			 "electric_dipole_moment_norm": 3.22939251873, 
			 "electric_quadrupole_moment_norm": 12.1153285638, 
			 "total_energy": -672.969260449, 
			 "HOMO_LUMO_gap": 0.28896, 
			 "cosmo_polarized_energy": -12.23, 
			 "cosmo_cavitation_energy": 33.18, 
			 "cosmo_dispersion_energy": -23.62, 
			 "cosmo_repulsion_energy": 1.89, 
			 "cosmo_total_nonelectrostatic_energy": 11.45, 
			 "SMD_solvation_energy": 5.62 
		},
		"coords": [
			{
				"x": 3.7526409202,
				"y": 0.6708742522,
				"z": 0.3886006375,
				"element": "C" 
			},
			{
				"x": 2.6297502392,
				"y": -0.1398012142,
				"z": 1.0454316094,
				"element": "C" 
			},
			{
				"x": 3.0335074581,
				"y": -1.6106443369,
				"z": 1.1832110541,
				"element": "C" 
			},
			{
				"x": 2.2159896525,
				"y": 0.4371726359,
				"z": 2.4039009812,
				"element": "C" 
			},
			{
				"x": 1.4658831323,
				"y": -0.2112306941,
				"z": 0.1520403628,
				"element": "O" 
			},
			{
				"x": 0.8131783883,
				"y": 0.9172250282,
				"z": -0.2319034202,
				"element": "C" 
			},
			{
				"x": 1.0910287365,
				"y": 2.0551670488,
				"z": 0.1263263776,
				"element": "O" 
			},
			{
				"x": -0.2113539274,
				"y": 0.6131142617,
				"z": -1.0856018426,
				"element": "N" 
			},
			{
				"x": -0.5418376001,
				"y": -0.7633231822,
				"z": -1.482133,
				"element": "C" 
			},
			{
				"x": -1.4013237522,
				"y": -0.7319836186,
				"z": -2.746162174,
				"element": "C" 
			},
			{
				"x": -2.7369867641,
				"y": 0.0040883993,
				"z": -2.5189251077,
				"element": "C" 
			},
			{
				"x": -3.7050520754,
				"y": -0.8355591389,
				"z": -1.8879283257,
				"element": "O" 
			},
			{
				"x": -2.5447282672,
				"y": 1.2114183485,
				"z": -1.5778449385,
				"element": "C" 
			},
			{
				"x": -1.0947947725,
				"y": 1.6971842161,
				"z": -1.5288232138,
				"element": "C" 
			},
			{
				"x": 4.6533285718,
				"y": 0.6223624615,
				"z": 1.0094608331,
				"element": "H" 
			},
			{
				"x": 3.9956975845,
				"y": 0.2546212937,
				"z": -0.5944605324,
				"element": "H" 
			},
			{
				"x": 3.4603954819,
				"y": 1.7141476451,
				"z": 0.2689480135,
				"element": "H" 
			},
			{
				"x": 2.2138150938,
				"y": -2.1975822394,
				"z": 1.6078696233,
				"element": "H" 
			},
			{
				"x": 3.9028985199,
				"y": -1.702448112,
				"z": 1.841118632,
				"element": "H" 
			},
			{
				"x": 3.2914620667,
				"y": -2.0339024045,
				"z": 0.2078138544,
				"element": "H" 
			},
			{
				"x": 3.0592545578,
				"y": 0.3812489869,
				"z": 3.1002539267,
				"element": "H" 
			},
			{
				"x": 1.905219644,
				"y": 1.4772352184,
				"z": 2.3053810815,
				"element": "H" 
			},
			{
				"x": 1.3885597794,
				"y": -0.1426810801,
				"z": 2.8253755298,
				"element": "H" 
			},
			{
				"x": -1.0869976972,
				"y": -1.2805143672,
				"z": -0.6804394672,
				"element": "H" 
			},
			{
				"x": 0.3838317119,
				"y": -1.3153370601,
				"z": -1.6541410829,
				"element": "H" 
			},
			{
				"x": -1.5988604379,
				"y": -1.756769049,
				"z": -3.082938681,
				"element": "H" 
			},
			{
				"x": -0.84265367,
				"y": -0.2388295302,
				"z": -3.5512259441,
				"element": "H" 
			},
			{
				"x": -3.1175740801,
				"y": 0.3453700107,
				"z": -3.494477019,
				"element": "H" 
			},
			{
				"x": -3.9258605467,
				"y": -1.5496324893,
				"z": -2.5001982422,
				"element": "H" 
			},
			{
				"x": -3.2057676941,
				"y": 2.0356102555,
				"z": -1.8629843547,
				"element": "H" 
			},
			{
				"x": -2.8471187597,
				"y": 0.8876758311,
				"z": -0.5760093925,
				"element": "H" 
			},
			{
				"x": -0.9780460493,
				"y": 2.5223780466,
				"z": -0.8255599197,
				"element": "H" 
			},
			{
				"x": -0.7796854449,
				"y": 2.0717445766,
				"z": -2.5143758586,
				"element": "H" 
			}
		],
		 "valence_orbital": [ 
			{
				"type": "occ",
				"energy": -0.31589,
				"method": "rhf"
			},
			{
				"type": "occ",
				"energy": -0.27907,
				"method": "rhf"
			},
			{
				"type": "occ",
				"energy": -0.26939,
				"method": "rhf"
			},
			{
				"type": "occ",
				"energy": -0.2516,
				"method": "rhf"
			},
			{
				"type": "occ",
				"energy": -0.22711,
				"method": "rhf"
			},
			{
				"type": "unocc",
				"energy": 0.06185,
				"method": "rhf"
			},
			{
				"type": "unocc",
				"energy": 0.06738,
				"method": "rhf"
			},
			{
				"type": "unocc",
				"energy": 0.08839,
				"method": "rhf"
			},
			{
				"type": "unocc",
				"energy": 0.09905,
				"method": "rhf"
			},
			{
				"type": "unocc",
				"energy": 0.10759,
				"method": "rhf"
			}
		],
		"cosmo_sigma_profile": { 
			"-0.025": 0.0,
			"-0.024": 0.0,
			"-0.023": 0.0,
			"-0.022": 0.0,
			"-0.021": 0.0,
			"-0.02": 0.0,
			"-0.019": 0.0,
			"-0.018": 0.0,
			"-0.017": 0.0,
			"-0.016": 0.0692425597791,
			"-0.015": 0.844907342788,
			"-0.014": 1.18004243178,
			"-0.013": 0.850155252894,
			"-0.012": 0.717793173547,
			"-0.011": 0.883057342203,
			"-0.01": 1.2023775925,
			"-0.009": 0.921714862686,
			"-0.008": 1.20627157832,
			"-0.007": 1.02878440927,
			"-0.006": 1.75299823695,
			"-0.005": 2.89162583142,
			"-0.004": 23.7237335089,
			"-0.003": 39.2228221038,
			"-0.002": 32.8222244111,
			"-0.001": 28.6497782298,
			"0.0": 31.0527852726,
			"0.001": 26.853483004,
			"0.002": 10.4333393058,
			"0.003": 7.3130566918,
			"0.004": 5.30375995868,
			"0.005": 5.6354297534,
			"0.006": 5.04318621379,
			"0.007": 3.90226883859,
			"0.008": 3.2246506922,
			"0.009": 2.8523319196,
			"0.01": 2.74666602199,
			"0.011": 3.10677609714,
			"0.012": 1.65960915122,
			"0.013": 4.4845588388,
			"0.014": 4.28835414187,
			"0.015": 0.258863659797,
			"0.016": 0.0,
			"0.017": 0.0,
			"0.018": 0.0,
			"0.019": 0.0,
			"0.02": 0.0,
			"0.021": 0.0,
			"0.022": 0.0,
			"0.023": 0.0,
			"0.024": 0.0,
			"0.025": 0.0
		}
	}
}
