{
	 "smiles": "OC(C(O)=O)C1=CC(F)=C(F)C=C1", 
	 "Tm": 367.15, 
	 "num_atms": 19, 
	 "gaussian": { 
		 "optdone": 1, 
		 "sigma_profile": "yes", 
		 "theory": "DFT", 
		 "functional": "B3LYP", 
		 "basiset": "6-31G**", 
		 "properties": { 
			 "R2extent": 3431.8633, 
			 "electric_dipole_moment_norm": 2.24146055285, 
			 "electric_quadrupole_moment_norm": 14.3300188552, 
			 "total_energy": -733.799041681, 
			 "HOMO_LUMO_gap": 0.22193, 
			 "cosmo_polarized_energy": -13.9, 
			 "cosmo_cavitation_energy": 24.58, 
			 "cosmo_dispersion_energy": -18.02, 
			 "cosmo_repulsion_energy": 1.38, 
			 "cosmo_total_nonelectrostatic_energy": 7.93, 
			 "SMD_solvation_energy": 6.48 
		},
		"coords": [
			{
				"x": 1.6262051816,
				"y": -1.4119382728,
				"z": -1.0345176355,
				"element": "O" 
			},
			{
				"x": 0.8845666684,
				"y": -0.4695206598,
				"z": -0.2406380526,
				"element": "C" 
			},
			{
				"x": 0.9539040505,
				"y": 0.92926017,
				"z": -0.9018469008,
				"element": "C" 
			},
			{
				"x": 1.786797792,
				"y": 0.9826950921,
				"z": -1.9501981482,
				"element": "O" 
			},
			{
				"x": 0.3684713434,
				"y": 1.9004780066,
				"z": -0.4841457763,
				"element": "O" 
			},
			{
				"x": -0.5131959496,
				"y": -0.9844027872,
				"z": 0.0863334382,
				"element": "C" 
			},
			{
				"x": -0.6664489268,
				"y": -2.3694695577,
				"z": 0.268905203,
				"element": "C" 
			},
			{
				"x": -1.9104471756,
				"y": -2.8953479618,
				"z": 0.5817353829,
				"element": "C" 
			},
			{
				"x": -2.0625689894,
				"y": -4.2190989589,
				"z": 0.7523791222,
				"element": "F" 
			},
			{
				"x": -3.0165375416,
				"y": -2.0592760611,
				"z": 0.7268837398,
				"element": "C" 
			},
			{
				"x": -4.208527271,
				"y": -2.5973715489,
				"z": 1.0277153771,
				"element": "F" 
			},
			{
				"x": -2.8743718824,
				"y": -0.6891525793,
				"z": 0.5635223165,
				"element": "C" 
			},
			{
				"x": -1.6259102803,
				"y": -0.1490712949,
				"z": 0.247194692,
				"element": "C" 
			},
			{
				"x": 0.9968794117,
				"y": -1.8476102438,
				"z": -1.6289685253,
				"element": "H" 
			},
			{
				"x": 1.457920151,
				"y": -0.3724173035,
				"z": 0.6910930139,
				"element": "H" 
			},
			{
				"x": 2.16198961,
				"y": 0.0840917375,
				"z": -2.0468245809,
				"element": "H" 
			},
			{
				"x": 0.1744962437,
				"y": -3.0490981274,
				"z": 0.1836806232,
				"element": "H" 
			},
			{
				"x": -3.7458514026,
				"y": -0.0547467078,
				"z": 0.6847757796,
				"element": "H" 
			},
			{
				"x": -1.5131710331,
				"y": 0.9206970587,
				"z": 0.1300209313,
				"element": "H" 
			}
		],
		 "valence_orbital": [ 
			{
				"type": "occ",
				"energy": -0.35237,
				"method": "rhf"
			},
			{
				"type": "occ",
				"energy": -0.32248,
				"method": "rhf"
			},
			{
				"type": "occ",
				"energy": -0.28099,
				"method": "rhf"
			},
			{
				"type": "occ",
				"energy": -0.27147,
				"method": "rhf"
			},
			{
				"type": "occ",
				"energy": -0.25399,
				"method": "rhf"
			},
			{
				"type": "unocc",
				"energy": -0.03206,
				"method": "rhf"
			},
			{
				"type": "unocc",
				"energy": -0.02156,
				"method": "rhf"
			},
			{
				"type": "unocc",
				"energy": -0.00059,
				"method": "rhf"
			},
			{
				"type": "unocc",
				"energy": 0.05436,
				"method": "rhf"
			},
			{
				"type": "unocc",
				"energy": 0.06639,
				"method": "rhf"
			}
		],
		"cosmo_sigma_profile": { 
			"-0.025": 0.0,
			"-0.024": 0.0,
			"-0.023": 0.0,
			"-0.022": 0.0,
			"-0.021": 0.0,
			"-0.02": 0.0,
			"-0.019": 0.0,
			"-0.018": 0.022366582238,
			"-0.017": 0.808920982248,
			"-0.016": 1.02511234505,
			"-0.015": 1.31789698148,
			"-0.014": 1.80383112406,
			"-0.013": 1.61789714085,
			"-0.012": 2.55594382084,
			"-0.011": 1.50321560973,
			"-0.01": 2.0777770445,
			"-0.009": 4.6227617121,
			"-0.008": 6.82081100374,
			"-0.007": 6.74087114831,
			"-0.006": 6.67051894141,
			"-0.005": 6.79070808651,
			"-0.004": 6.68181896956,
			"-0.003": 7.89057976795,
			"-0.002": 8.53775770562,
			"-0.001": 13.2591226282,
			"0.0": 17.1328228312,
			"0.001": 14.1374225928,
			"0.002": 14.6623900754,
			"0.003": 20.7052133216,
			"0.004": 17.8743623597,
			"0.005": 3.44785666503,
			"0.006": 2.19914046596,
			"0.007": 3.41318176553,
			"0.008": 3.40924668159,
			"0.009": 5.27332581741,
			"0.01": 5.92291998849,
			"0.011": 4.68955905187,
			"0.012": 2.78095427932,
			"0.013": 0.648468290654,
			"0.014": 0.0,
			"0.015": 0.0,
			"0.016": 0.0,
			"0.017": 0.0,
			"0.018": 0.0,
			"0.019": 0.0,
			"0.02": 0.0,
			"0.021": 0.0,
			"0.022": 0.0,
			"0.023": 0.0,
			"0.024": 0.0,
			"0.025": 0.0
		}
	}
}
