{
	 "smiles": "CC1=CC=C(C=C1)C(=O)CBr", 
	 "Tm": 324.65, 
	 "num_atms": 20, 
	 "gaussian": { 
		 "optdone": 1, 
		 "sigma_profile": "yes", 
		 "theory": "DFT", 
		 "functional": "B3LYP", 
		 "basiset": "6-31G**", 
		 "properties": { 
			 "R2extent": 3388.8346, 
			 "electric_dipole_moment_norm": 3.53350793547, 
			 "electric_quadrupole_moment_norm": 9.12535814859, 
			 "total_energy": -2995.01659646, 
			 "HOMO_LUMO_gap": 0.18198, 
			 "cosmo_polarized_energy": -8.59, 
			 "cosmo_cavitation_energy": 26.17, 
			 "cosmo_dispersion_energy": -19.35, 
			 "cosmo_repulsion_energy": 1.56, 
			 "cosmo_total_nonelectrostatic_energy": 8.38, 
			 "SMD_solvation_energy": 3.99 
		},
		"coords": [
			{
				"x": 0.9501170125,
				"y": 1.6583292963,
				"z": -3.712217216,
				"element": "C" 
			},
			{
				"x": 0.4514576511,
				"y": 1.1611206294,
				"z": -2.3777342664,
				"element": "C" 
			},
			{
				"x": 1.1226866881,
				"y": 0.1427383123,
				"z": -1.688251761,
				"element": "C" 
			},
			{
				"x": 0.6493011605,
				"y": -0.3342098434,
				"z": -0.4679064928,
				"element": "C" 
			},
			{
				"x": -0.5157517423,
				"y": 0.2032026017,
				"z": 0.0994011242,
				"element": "C" 
			},
			{
				"x": -1.1925584689,
				"y": 1.2250065185,
				"z": -0.5883851109,
				"element": "C" 
			},
			{
				"x": -0.7148611776,
				"y": 1.6947048108,
				"z": -1.8041960598,
				"element": "C" 
			},
			{
				"x": -1.0645365044,
				"y": -0.2328125299,
				"z": 1.4135324557,
				"element": "C" 
			},
			{
				"x": -2.0766835131,
				"y": 0.2614331351,
				"z": 1.8865639873,
				"element": "O" 
			},
			{
				"x": -0.3290561325,
				"y": -1.2909066009,
				"z": 2.2335987548,
				"element": "C" 
			},
			{
				"x": -0.5773248149,
				"y": -3.0989869999,
				"z": 1.4629068644,
				"element": "Br" 
			},
			{
				"x": 0.3656600926,
				"y": 1.2257628021,
				"z": -4.5337802973,
				"element": "H" 
			},
			{
				"x": 1.9970300487,
				"y": 1.3890074493,
				"z": -3.8762288484,
				"element": "H" 
			},
			{
				"x": 0.8600650515,
				"y": 2.7463452656,
				"z": -3.7917799537,
				"element": "H" 
			},
			{
				"x": 2.0266807925,
				"y": -0.2842961142,
				"z": -2.1143260331,
				"element": "H" 
			},
			{
				"x": 1.1838251821,
				"y": -1.1383352311,
				"z": 0.0262716388,
				"element": "H" 
			},
			{
				"x": -2.0905288061,
				"y": 1.6377008796,
				"z": -0.1409673733,
				"element": "H" 
			},
			{
				"x": -1.2484202028,
				"y": 2.4886834763,
				"z": -2.3207916088,
				"element": "H" 
			},
			{
				"x": 0.7474918699,
				"y": -1.1294790814,
				"z": 2.2818422894,
				"element": "H" 
			},
			{
				"x": -0.766394187,
				"y": -1.3249087762,
				"z": 3.2280479069,
				"element": "H" 
			}
		],
		 "valence_orbital": [ 
			{
				"type": "occ",
				"energy": -0.2918,
				"method": "rhf"
			},
			{
				"type": "occ",
				"energy": -0.28271,
				"method": "rhf"
			},
			{
				"type": "occ",
				"energy": -0.26223,
				"method": "rhf"
			},
			{
				"type": "occ",
				"energy": -0.25664,
				"method": "rhf"
			},
			{
				"type": "occ",
				"energy": -0.25323,
				"method": "rhf"
			},
			{
				"type": "unocc",
				"energy": -0.07125,
				"method": "rhf"
			},
			{
				"type": "unocc",
				"energy": -0.01373,
				"method": "rhf"
			},
			{
				"type": "unocc",
				"energy": -0.00947,
				"method": "rhf"
			},
			{
				"type": "unocc",
				"energy": 0.04806,
				"method": "rhf"
			},
			{
				"type": "unocc",
				"energy": 0.08892,
				"method": "rhf"
			}
		],
		"cosmo_sigma_profile": { 
			"-0.025": 0.0,
			"-0.024": 0.0,
			"-0.023": 0.0,
			"-0.022": 0.0,
			"-0.021": 0.0,
			"-0.02": 0.0,
			"-0.019": 0.0,
			"-0.018": 0.0,
			"-0.017": 0.0,
			"-0.016": 0.0,
			"-0.015": 0.0,
			"-0.014": 0.0,
			"-0.013": 0.0,
			"-0.012": 0.0,
			"-0.011": 0.0,
			"-0.01": 0.182224335934,
			"-0.009": 2.45401009781,
			"-0.008": 4.47444015416,
			"-0.007": 4.53881465631,
			"-0.006": 8.99277352787,
			"-0.005": 16.8846477919,
			"-0.004": 16.7362419294,
			"-0.003": 14.4517920458,
			"-0.002": 15.1869102239,
			"-0.001": 17.0876763274,
			"0.0": 15.8706412753,
			"0.001": 14.319319554,
			"0.002": 14.8539988426,
			"0.003": 17.0832564998,
			"0.004": 21.1967890053,
			"0.005": 10.8016851938,
			"0.006": 3.00123214898,
			"0.007": 1.28965540765,
			"0.008": 2.09772146107,
			"0.009": 1.55319323611,
			"0.01": 2.38164386885,
			"0.011": 4.25116065208,
			"0.012": 1.88916171113,
			"0.013": 0.0690796968908,
			"0.014": 0.0,
			"0.015": 0.0,
			"0.016": 0.0,
			"0.017": 0.0,
			"0.018": 0.0,
			"0.019": 0.0,
			"0.02": 0.0,
			"0.021": 0.0,
			"0.022": 0.0,
			"0.023": 0.0,
			"0.024": 0.0,
			"0.025": 0.0
		}
	}
}
