{
	 "smiles": "COC1=CC(OC)=CC(Cl)=C1", 
	 "Tm": 307.65, 
	 "num_atms": 20, 
	 "gaussian": { 
		 "optdone": 1, 
		 "sigma_profile": "yes", 
		 "theory": "DFT", 
		 "functional": "B3LYP", 
		 "basiset": "6-31G**", 
		 "properties": { 
			 "R2extent": 2761.3275, 
			 "electric_dipole_moment_norm": 2.85255835523, 
			 "electric_quadrupole_moment_norm": 11.748876019, 
			 "total_energy": -920.891716336, 
			 "HOMO_LUMO_gap": 0.2175, 
			 "cosmo_polarized_energy": -7.1, 
			 "cosmo_cavitation_energy": 25.58, 
			 "cosmo_dispersion_energy": -19.13, 
			 "cosmo_repulsion_energy": 1.54, 
			 "cosmo_total_nonelectrostatic_energy": 7.99, 
			 "SMD_solvation_energy": 5.73 
		},
		"coords": [
			{
				"x": -0.351697538,
				"y": -0.3504275008,
				"z": 3.4476867474,
				"element": "C" 
			},
			{
				"x": 0.3391805163,
				"y": 0.152682717,
				"z": 2.3137233977,
				"element": "O" 
			},
			{
				"x": 0.1423877989,
				"y": -0.4597651825,
				"z": 1.1120898483,
				"element": "C" 
			},
			{
				"x": 0.860336048,
				"y": 0.0960290944,
				"z": 0.0400945414,
				"element": "C" 
			},
			{
				"x": 0.7293452142,
				"y": -0.4569105915,
				"z": -1.2321934336,
				"element": "C" 
			},
			{
				"x": 1.3772558941,
				"y": 0.0020831488,
				"z": -2.3385733637,
				"element": "O" 
			},
			{
				"x": 2.244873848,
				"y": 1.1168512237,
				"z": -2.1961725054,
				"element": "C" 
			},
			{
				"x": -0.1127232982,
				"y": -1.5628671323,
				"z": -1.4509098039,
				"element": "C" 
			},
			{
				"x": -0.8036693923,
				"y": -2.0827893554,
				"z": -0.3705757818,
				"element": "C" 
			},
			{
				"x": -1.8625076795,
				"y": -3.4669025645,
				"z": -0.6246382877,
				"element": "Cl" 
			},
			{
				"x": -0.7004472199,
				"y": -1.5577454443,
				"z": 0.9223840328,
				"element": "C" 
			},
			{
				"x": -1.4395994632,
				"y": -0.2858706081,
				"z": 3.3194423551,
				"element": "H" 
			},
			{
				"x": -0.0504335183,
				"y": 0.2793342485,
				"z": 4.285914576,
				"element": "H" 
			},
			{
				"x": -0.0760621082,
				"y": -1.391183674,
				"z": 3.6598216472,
				"element": "H" 
			},
			{
				"x": 1.4984149829,
				"y": 0.9456943533,
				"z": 0.2434843977,
				"element": "H" 
			},
			{
				"x": 1.7058446916,
				"y": 2.0057715463,
				"z": -1.8447678647,
				"element": "H" 
			},
			{
				"x": 3.0695849631,
				"y": 0.9010609794,
				"z": -1.5051518094,
				"element": "H" 
			},
			{
				"x": 2.6495419256,
				"y": 1.3107088415,
				"z": -3.1904544394,
				"element": "H" 
			},
			{
				"x": -0.2031942522,
				"y": -1.9803398358,
				"z": -2.4454586414,
				"element": "H" 
			},
			{
				"x": -1.2626314128,
				"y": -2.0024142637,
				"z": 1.7312543873,
				"element": "H" 
			}
		],
		 "valence_orbital": [ 
			{
				"type": "occ",
				"energy": -0.33859,
				"method": "rhf"
			},
			{
				"type": "occ",
				"energy": -0.30686,
				"method": "rhf"
			},
			{
				"type": "occ",
				"energy": -0.28522,
				"method": "rhf"
			},
			{
				"type": "occ",
				"energy": -0.23103,
				"method": "rhf"
			},
			{
				"type": "occ",
				"energy": -0.22003,
				"method": "rhf"
			},
			{
				"type": "unocc",
				"energy": -0.00253,
				"method": "rhf"
			},
			{
				"type": "unocc",
				"energy": 0.01158,
				"method": "rhf"
			},
			{
				"type": "unocc",
				"energy": 0.03251,
				"method": "rhf"
			},
			{
				"type": "unocc",
				"energy": 0.09826,
				"method": "rhf"
			},
			{
				"type": "unocc",
				"energy": 0.10107,
				"method": "rhf"
			}
		],
		"cosmo_sigma_profile": { 
			"-0.025": 0.0,
			"-0.024": 0.0,
			"-0.023": 0.0,
			"-0.022": 0.0,
			"-0.021": 0.0,
			"-0.02": 0.0,
			"-0.019": 0.0,
			"-0.018": 0.0,
			"-0.017": 0.0,
			"-0.016": 0.0,
			"-0.015": 0.0,
			"-0.014": 0.0,
			"-0.013": 0.0,
			"-0.012": 0.0,
			"-0.011": 0.0,
			"-0.01": 0.0,
			"-0.009": 0.0,
			"-0.008": 0.0263863793274,
			"-0.007": 3.92434053855,
			"-0.006": 13.8156503053,
			"-0.005": 20.4099036008,
			"-0.004": 19.1713761187,
			"-0.003": 18.8998488698,
			"-0.002": 11.3346059803,
			"-0.001": 9.7994579077,
			"0.0": 9.78864669599,
			"0.001": 9.81393769629,
			"0.002": 15.3687363373,
			"0.003": 24.458657261,
			"0.004": 22.7186475152,
			"0.005": 12.6857936634,
			"0.006": 3.69103798767,
			"0.007": 1.51894125989,
			"0.008": 2.91650736304,
			"0.009": 3.23986263811,
			"0.01": 2.14700947841,
			"0.011": 0.0153095762203,
			"0.012": 0.0,
			"0.013": 0.0,
			"0.014": 0.0,
			"0.015": 0.0,
			"0.016": 0.0,
			"0.017": 0.0,
			"0.018": 0.0,
			"0.019": 0.0,
			"0.02": 0.0,
			"0.021": 0.0,
			"0.022": 0.0,
			"0.023": 0.0,
			"0.024": 0.0,
			"0.025": 0.0
		}
	}
}
