{
	 "smiles": "CC(=O)C(C#N)C1=CC=C(Cl)C=C1", 
	 "Tm": 403.15, 
	 "num_atms": 21, 
	 "gaussian": { 
		 "optdone": 1, 
		 "sigma_profile": "yes", 
		 "theory": "DFT", 
		 "functional": "B3LYP", 
		 "basiset": "6-31G**", 
		 "properties": { 
			 "R2extent": 3437.8861, 
			 "electric_dipole_moment_norm": 3.59906918661, 
			 "electric_quadrupole_moment_norm": 18.4785279738, 
			 "total_energy": -976.02815237, 
			 "HOMO_LUMO_gap": 0.20622, 
			 "cosmo_polarized_energy": -14.47, 
			 "cosmo_cavitation_energy": 28.6, 
			 "cosmo_dispersion_energy": -19.7, 
			 "cosmo_repulsion_energy": 1.59, 
			 "cosmo_total_nonelectrostatic_energy": 10.49, 
			 "SMD_solvation_energy": 6.65 
		},
		"coords": [
			{
				"x": 3.1916360014,
				"y": -1.90533335,
				"z": -1.4510055713,
				"element": "C" 
			},
			{
				"x": 1.9648573902,
				"y": -1.4242174161,
				"z": -0.7088681225,
				"element": "C" 
			},
			{
				"x": 1.6650721244,
				"y": -1.7963208047,
				"z": 0.3996943858,
				"element": "O" 
			},
			{
				"x": 1.0764723744,
				"y": -0.3734678233,
				"z": -1.4758949882,
				"element": "C" 
			},
			{
				"x": 0.4319635175,
				"y": -1.0630267177,
				"z": -2.6024383454,
				"element": "C" 
			},
			{
				"x": -0.0650560064,
				"y": -1.6383237825,
				"z": -3.480465179,
				"element": "N" 
			},
			{
				"x": 0.0795909985,
				"y": 0.342064196,
				"z": -0.5814272801,
				"element": "C" 
			},
			{
				"x": 0.2520647506,
				"y": 1.6988688746,
				"z": -0.2943411751,
				"element": "C" 
			},
			{
				"x": -0.636666107,
				"y": 2.3725550108,
				"z": 0.5437703661,
				"element": "C" 
			},
			{
				"x": -1.7074043914,
				"y": 1.6718544133,
				"z": 1.0950282238,
				"element": "C" 
			},
			{
				"x": -2.836157063,
				"y": 2.5085964281,
				"z": 2.1481703482,
				"element": "Cl" 
			},
			{
				"x": -1.8994308141,
				"y": 0.3170264647,
				"z": 0.8215956405,
				"element": "C" 
			},
			{
				"x": -1.0026083865,
				"y": -0.3421000225,
				"z": -0.0155680494,
				"element": "C" 
			},
			{
				"x": 3.6671087576,
				"y": -2.7094652158,
				"z": -0.8887089527,
				"element": "H" 
			},
			{
				"x": 3.9008097161,
				"y": -1.0771236462,
				"z": -1.5697665133,
				"element": "H" 
			},
			{
				"x": 2.9277170649,
				"y": -2.2526936611,
				"z": -2.4551499049,
				"element": "H" 
			},
			{
				"x": 1.7648623765,
				"y": 0.3623360125,
				"z": -1.9125130585,
				"element": "H" 
			},
			{
				"x": 1.0864509714,
				"y": 2.2444946048,
				"z": -0.7274784467,
				"element": "H" 
			},
			{
				"x": -0.5023625931,
				"y": 3.425772324,
				"z": 0.7628570577,
				"element": "H" 
			},
			{
				"x": -2.7382651363,
				"y": -0.2124024753,
				"z": 1.2590170727,
				"element": "H" 
			},
			{
				"x": -1.1499555457,
				"y": -1.3955934137,
				"z": -0.2291075077,
				"element": "H" 
			}
		],
		 "valence_orbital": [ 
			{
				"type": "occ",
				"energy": -0.33484,
				"method": "rhf"
			},
			{
				"type": "occ",
				"energy": -0.31844,
				"method": "rhf"
			},
			{
				"type": "occ",
				"energy": -0.2805,
				"method": "rhf"
			},
			{
				"type": "occ",
				"energy": -0.2702,
				"method": "rhf"
			},
			{
				"type": "occ",
				"energy": -0.25401,
				"method": "rhf"
			},
			{
				"type": "unocc",
				"energy": -0.04779,
				"method": "rhf"
			},
			{
				"type": "unocc",
				"energy": -0.0299,
				"method": "rhf"
			},
			{
				"type": "unocc",
				"energy": -0.02408,
				"method": "rhf"
			},
			{
				"type": "unocc",
				"energy": 0.01265,
				"method": "rhf"
			},
			{
				"type": "unocc",
				"energy": 0.03031,
				"method": "rhf"
			}
		],
		"cosmo_sigma_profile": { 
			"-0.025": 0.0,
			"-0.024": 0.0,
			"-0.023": 0.0,
			"-0.022": 0.0,
			"-0.021": 0.0,
			"-0.02": 0.0,
			"-0.019": 0.0,
			"-0.018": 0.0,
			"-0.017": 0.0,
			"-0.016": 0.0,
			"-0.015": 0.0,
			"-0.014": 0.0,
			"-0.013": 0.0,
			"-0.012": 0.151233141367,
			"-0.011": 3.0240648398,
			"-0.01": 4.59549893307,
			"-0.009": 3.18568402542,
			"-0.008": 5.06001952579,
			"-0.007": 12.1121952764,
			"-0.006": 14.1846545022,
			"-0.005": 15.0051494429,
			"-0.004": 13.2026714469,
			"-0.003": 14.1747804321,
			"-0.002": 13.8446465997,
			"-0.001": 11.5446249118,
			"0.0": 11.8249518522,
			"0.001": 15.025700053,
			"0.002": 18.0861976866,
			"0.003": 18.6552341514,
			"0.004": 13.8357724326,
			"0.005": 8.73424465723,
			"0.006": 4.13900807076,
			"0.007": 5.16846551557,
			"0.008": 4.69900522132,
			"0.009": 6.56932148689,
			"0.01": 7.06278823715,
			"0.011": 4.7774034682,
			"0.012": 2.38153102654,
			"0.013": 0.816189317234,
			"0.014": 0.0,
			"0.015": 0.0,
			"0.016": 0.0,
			"0.017": 0.0,
			"0.018": 0.0,
			"0.019": 0.0,
			"0.02": 0.0,
			"0.021": 0.0,
			"0.022": 0.0,
			"0.023": 0.0,
			"0.024": 0.0,
			"0.025": 0.0
		}
	}
}
