{
	 "smiles": "CC1=NN2C(=C1)N=NC(C(O)=O)=C2C", 
	 "Tm": 440.15, 
	 "num_atms": 22, 
	 "gaussian": { 
		 "optdone": 1, 
		 "sigma_profile": "yes", 
		 "theory": "DFT", 
		 "functional": "B3LYP", 
		 "basiset": "6-31G**", 
		 "properties": { 
			 "R2extent": 3602.9801, 
			 "electric_dipole_moment_norm": 5.34402956298, 
			 "electric_quadrupole_moment_norm": 14.2145913272, 
			 "total_energy": -679.088502761, 
			 "HOMO_LUMO_gap": 0.16218, 
			 "cosmo_polarized_energy": -12.65, 
			 "cosmo_cavitation_energy": 26.61, 
			 "cosmo_dispersion_energy": -20.08, 
			 "cosmo_repulsion_energy": 1.57, 
			 "cosmo_total_nonelectrostatic_energy": 8.1, 
			 "SMD_solvation_energy": 3.74 
		},
		"coords": [
			{
				"x": -2.6776867954,
				"y": 1.0085500021,
				"z": -1.8591028884,
				"element": "C" 
			},
			{
				"x": -1.5251434034,
				"y": 0.6373203141,
				"z": -0.9792744871,
				"element": "C" 
			},
			{
				"x": -1.3136673863,
				"y": 1.3256583046,
				"z": 0.1671341452,
				"element": "N" 
			},
			{
				"x": -0.2275693075,
				"y": 0.75429535,
				"z": 0.7078154474,
				"element": "N" 
			},
			{
				"x": 0.2708980341,
				"y": -0.3024336535,
				"z": -0.0785152845,
				"element": "C" 
			},
			{
				"x": -0.576948195,
				"y": -0.3774871881,
				"z": -1.1791573311,
				"element": "C" 
			},
			{
				"x": 1.360869091,
				"y": -1.0061699461,
				"z": 0.2944555623,
				"element": "N" 
			},
			{
				"x": 1.9381819481,
				"y": -0.6745864336,
				"z": 1.4090537568,
				"element": "N" 
			},
			{
				"x": 1.4812766218,
				"y": 0.3473354563,
				"z": 2.1991564266,
				"element": "C" 
			},
			{
				"x": 2.3158867209,
				"y": 0.5429712394,
				"z": 3.4410204835,
				"element": "C" 
			},
			{
				"x": 3.3377224169,
				"y": -0.3174184303,
				"z": 3.529807808,
				"element": "O" 
			},
			{
				"x": 2.1027938903,
				"y": 1.3859024843,
				"z": 4.2861349045,
				"element": "O" 
			},
			{
				"x": 0.3664851938,
				"y": 1.1147063023,
				"z": 1.879742963,
				"element": "C" 
			},
			{
				"x": -0.2387096515,
				"y": 2.2470966647,
				"z": 2.6385678422,
				"element": "C" 
			},
			{
				"x": -3.624251214,
				"y": 0.9138658866,
				"z": -1.3176555916,
				"element": "H" 
			},
			{
				"x": -2.7162784695,
				"y": 0.366290657,
				"z": -2.7412234854,
				"element": "H" 
			},
			{
				"x": -2.5934554538,
				"y": 2.048806956,
				"z": -2.1890743478,
				"element": "H" 
			},
			{
				"x": -0.5035016523,
				"y": -1.0740719632,
				"z": -1.9993510639,
				"element": "H" 
			},
			{
				"x": 3.2941618827,
				"y": -0.8903395341,
				"z": 2.7325059639,
				"element": "H" 
			},
			{
				"x": -0.2585678984,
				"y": 3.1396977567,
				"z": 2.0038716731,
				"element": "H" 
			},
			{
				"x": -1.2832677215,
				"y": 2.0117282169,
				"z": 2.8698206092,
				"element": "H" 
			},
			{
				"x": 0.3241713491,
				"y": 2.434281558,
				"z": 3.5484668944,
				"element": "H" 
			}
		],
		 "valence_orbital": [ 
			{
				"type": "occ",
				"energy": -0.31422,
				"method": "rhf"
			},
			{
				"type": "occ",
				"energy": -0.28731,
				"method": "rhf"
			},
			{
				"type": "occ",
				"energy": -0.27698,
				"method": "rhf"
			},
			{
				"type": "occ",
				"energy": -0.26844,
				"method": "rhf"
			},
			{
				"type": "occ",
				"energy": -0.25343,
				"method": "rhf"
			},
			{
				"type": "unocc",
				"energy": -0.09125,
				"method": "rhf"
			},
			{
				"type": "unocc",
				"energy": -0.06631,
				"method": "rhf"
			},
			{
				"type": "unocc",
				"energy": 0.0186,
				"method": "rhf"
			},
			{
				"type": "unocc",
				"energy": 0.05354,
				"method": "rhf"
			},
			{
				"type": "unocc",
				"energy": 0.09606,
				"method": "rhf"
			}
		],
		"cosmo_sigma_profile": { 
			"-0.025": 0.0,
			"-0.024": 0.0,
			"-0.023": 0.0,
			"-0.022": 0.0,
			"-0.021": 0.0,
			"-0.02": 0.0,
			"-0.019": 0.0,
			"-0.018": 0.0,
			"-0.017": 0.0,
			"-0.016": 0.0,
			"-0.015": 0.0,
			"-0.014": 0.0,
			"-0.013": 0.284180699847,
			"-0.012": 0.242698320153,
			"-0.011": 0.627664996248,
			"-0.01": 0.917766793492,
			"-0.009": 1.02953265746,
			"-0.008": 2.91201292402,
			"-0.007": 7.09124086131,
			"-0.006": 14.7235345365,
			"-0.005": 20.967932834,
			"-0.004": 18.9455383497,
			"-0.003": 16.74969664,
			"-0.002": 20.0909534676,
			"-0.001": 18.005571847,
			"0.0": 11.6005288342,
			"0.001": 12.0193252717,
			"0.002": 8.4262683325,
			"0.003": 6.17334424161,
			"0.004": 6.00050998365,
			"0.005": 5.28946078987,
			"0.006": 4.52728851781,
			"0.007": 5.43652449636,
			"0.008": 6.18534218211,
			"0.009": 6.05871751095,
			"0.01": 7.61443410418,
			"0.011": 5.68948263762,
			"0.012": 4.0844155996,
			"0.013": 1.84063798795,
			"0.014": 0.105786414676,
			"0.015": 0.0,
			"0.016": 0.0,
			"0.017": 0.0,
			"0.018": 0.0,
			"0.019": 0.0,
			"0.02": 0.0,
			"0.021": 0.0,
			"0.022": 0.0,
			"0.023": 0.0,
			"0.024": 0.0,
			"0.025": 0.0
		}
	}
}
