{
	 "smiles": "CCOC(=O)C(=CNC1=CC=C(OCC)C=C1)C#N", 
	 "Tm": 389.15, 
	 "num_atms": 35, 
	 "gaussian": { 
		 "optdone": 1, 
		 "sigma_profile": "yes", 
		 "theory": "DFT", 
		 "functional": "B3LYP", 
		 "basiset": "6-31G**", 
		 "properties": { 
			 "R2extent": 7450.0022, 
			 "electric_dipole_moment_norm": 8.63619163521, 
			 "electric_quadrupole_moment_norm": 56.8897796268, 
			 "total_energy": -878.278598762, 
			 "HOMO_LUMO_gap": 0.1601, 
			 "cosmo_polarized_energy": -24.16, 
			 "cosmo_cavitation_energy": 40.04, 
			 "cosmo_dispersion_energy": -26.46, 
			 "cosmo_repulsion_energy": 2.09, 
			 "cosmo_total_nonelectrostatic_energy": 15.67, 
			 "SMD_solvation_energy": 9.66 
		},
		"coords": [
			{
				"x": 0.5102706984,
				"y": 1.3297577614,
				"z": -3.0770955626,
				"element": "C" 
			},
			{
				"x": 1.7323680079,
				"y": 2.1842678353,
				"z": -2.7773268867,
				"element": "C" 
			},
			{
				"x": 1.7696385186,
				"y": 2.6357190356,
				"z": -1.4005512398,
				"element": "O" 
			},
			{
				"x": 1.0243426472,
				"y": 3.7269727215,
				"z": -1.1128414451,
				"element": "C" 
			},
			{
				"x": 0.3143705026,
				"y": 4.2955281568,
				"z": -1.9200696924,
				"element": "O" 
			},
			{
				"x": 1.2450815326,
				"y": 4.2163150936,
				"z": 0.2691911981,
				"element": "C" 
			},
			{
				"x": 1.9030509582,
				"y": 3.6168493527,
				"z": 1.3202390029,
				"element": "C" 
			},
			{
				"x": 2.3171864477,
				"y": 2.3434719658,
				"z": 1.5372576895,
				"element": "N" 
			},
			{
				"x": 1.8195334963,
				"y": 1.1061931192,
				"z": 1.0351451019,
				"element": "C" 
			},
			{
				"x": 0.457611228,
				"y": 0.9007178437,
				"z": 0.8136702063,
				"element": "C" 
			},
			{
				"x": -0.0160549179,
				"y": -0.3519215364,
				"z": 0.4211526046,
				"element": "C" 
			},
			{
				"x": 0.8766441865,
				"y": -1.4211348714,
				"z": 0.2605864838,
				"element": "C" 
			},
			{
				"x": 0.5214189065,
				"y": -2.6827875571,
				"z": -0.1075438667,
				"element": "O" 
			},
			{
				"x": -0.8568438229,
				"y": -2.9664545226,
				"z": -0.3567038262,
				"element": "C" 
			},
			{
				"x": -0.9593553351,
				"y": -4.4299537322,
				"z": -0.7478729346,
				"element": "C" 
			},
			{
				"x": 2.2454290903,
				"y": -1.2137205513,
				"z": 0.4924256381,
				"element": "C" 
			},
			{
				"x": 2.710604191,
				"y": 0.0379391433,
				"z": 0.8717985441,
				"element": "C" 
			},
			{
				"x": 0.8135063981,
				"y": 5.5605702731,
				"z": 0.5047895131,
				"element": "C" 
			},
			{
				"x": 0.4771908517,
				"y": 6.6499066148,
				"z": 0.7419502341,
				"element": "N" 
			},
			{
				"x": -0.4031182461,
				"y": 1.9200926372,
				"z": -2.9768097983,
				"element": "H" 
			},
			{
				"x": 0.4594595061,
				"y": 0.4717486831,
				"z": -2.4016942054,
				"element": "H" 
			},
			{
				"x": 0.568632125,
				"y": 0.9581628651,
				"z": -4.1059818507,
				"element": "H" 
			},
			{
				"x": 1.7653800083,
				"y": 3.0606567131,
				"z": -3.4293200277,
				"element": "H" 
			},
			{
				"x": 2.656146903,
				"y": 1.6120775642,
				"z": -2.8906930381,
				"element": "H" 
			},
			{
				"x": 2.1428711012,
				"y": 4.2743442286,
				"z": 2.153581836,
				"element": "H" 
			},
			{
				"x": 2.9183672,
				"y": 2.2418267609,
				"z": 2.3429148526,
				"element": "H" 
			},
			{
				"x": -0.2424346013,
				"y": 1.717972148,
				"z": 0.9527597297,
				"element": "H" 
			},
			{
				"x": -1.0787742026,
				"y": -0.4826633178,
				"z": 0.2579241768,
				"element": "H" 
			},
			{
				"x": -1.4490126007,
				"y": -2.7591662343,
				"z": 0.5457093191,
				"element": "H" 
			},
			{
				"x": -1.2310840949,
				"y": -2.3180011242,
				"z": -1.1614349307,
				"element": "H" 
			},
			{
				"x": -2.0024799105,
				"y": -4.6921423108,
				"z": -0.9487169314,
				"element": "H" 
			},
			{
				"x": -0.5887884404,
				"y": -5.0710930063,
				"z": 0.0566842574,
				"element": "H" 
			},
			{
				"x": -0.371408857,
				"y": -4.6307280696,
				"z": -1.6476942757,
				"element": "H" 
			},
			{
				"x": 2.9254374775,
				"y": -2.0492360129,
				"z": 0.3648902675,
				"element": "H" 
			},
			{
				"x": 3.7729130469,
				"y": 0.1934123299,
				"z": 1.0385798569,
				"element": "H" 
			}
		],
		 "valence_orbital": [ 
			{
				"type": "occ",
				"energy": -0.29345,
				"method": "rhf"
			},
			{
				"type": "occ",
				"energy": -0.26973,
				"method": "rhf"
			},
			{
				"type": "occ",
				"energy": -0.26947,
				"method": "rhf"
			},
			{
				"type": "occ",
				"energy": -0.2503,
				"method": "rhf"
			},
			{
				"type": "occ",
				"energy": -0.21274,
				"method": "rhf"
			},
			{
				"type": "unocc",
				"energy": -0.05264,
				"method": "rhf"
			},
			{
				"type": "unocc",
				"energy": -0.02164,
				"method": "rhf"
			},
			{
				"type": "unocc",
				"energy": 0.00383,
				"method": "rhf"
			},
			{
				"type": "unocc",
				"energy": 0.03484,
				"method": "rhf"
			},
			{
				"type": "unocc",
				"energy": 0.04694,
				"method": "rhf"
			}
		],
		"cosmo_sigma_profile": { 
			"-0.025": 0.0,
			"-0.024": 0.0,
			"-0.023": 0.0,
			"-0.022": 0.0,
			"-0.021": 0.0,
			"-0.02": 0.0,
			"-0.019": 0.0,
			"-0.018": 0.0,
			"-0.017": 0.716366450617,
			"-0.016": 1.89863003785,
			"-0.015": 1.70559656386,
			"-0.014": 1.58850307285,
			"-0.013": 0.639884618133,
			"-0.012": 1.82087625149,
			"-0.011": 2.29565978482,
			"-0.01": 2.72922021666,
			"-0.009": 2.30424038182,
			"-0.008": 2.7673214868,
			"-0.007": 5.48740002449,
			"-0.006": 10.7509145966,
			"-0.005": 19.9436581471,
			"-0.004": 29.3361115534,
			"-0.003": 28.6685850744,
			"-0.002": 26.2577392659,
			"-0.001": 26.0605321778,
			"0.0": 27.6919550246,
			"0.001": 19.9333631717,
			"0.002": 14.2728418137,
			"0.003": 14.0905405682,
			"0.004": 15.694145993,
			"0.005": 8.53255694273,
			"0.006": 6.25315040708,
			"0.007": 6.94643088996,
			"0.008": 6.22890596437,
			"0.009": 7.91150585292,
			"0.01": 6.55356448113,
			"0.011": 5.92788197439,
			"0.012": 7.54242983107,
			"0.013": 3.79933673843,
			"0.014": 1.64288081774,
			"0.015": 0.053526164401,
			"0.016": 0.0,
			"0.017": 0.0,
			"0.018": 0.0,
			"0.019": 0.0,
			"0.02": 0.0,
			"0.021": 0.0,
			"0.022": 0.0,
			"0.023": 0.0,
			"0.024": 0.0,
			"0.025": 0.0
		}
	}
}
