{
	 "smiles": "FC1=CC2=C(NN=C2)C=C1", 
	 "Tm": 396.15, 
	 "num_atms": 15, 
	 "gaussian": { 
		 "optdone": 1, 
		 "sigma_profile": "yes", 
		 "theory": "DFT", 
		 "functional": "B3LYP", 
		 "basiset": "6-31G**", 
		 "properties": { 
			 "R2extent": 2581.656, 
			 "electric_dipole_moment_norm": 1.89381769186, 
			 "electric_quadrupole_moment_norm": 17.2785763647, 
			 "total_energy": -479.076007882, 
			 "HOMO_LUMO_gap": 0.18659, 
			 "cosmo_polarized_energy": -9.01, 
			 "cosmo_cavitation_energy": 19.76, 
			 "cosmo_dispersion_energy": -14.96, 
			 "cosmo_repulsion_energy": 1.18, 
			 "cosmo_total_nonelectrostatic_energy": 5.98, 
			 "SMD_solvation_energy": 3.0 
		},
		"coords": [
			{
				"x": -0.4193841233,
				"y": 1.2182506119,
				"z": -0.8510555992,
				"element": "F" 
			},
			{
				"x": -0.8927594788,
				"y": -0.0422854996,
				"z": -0.71877029,
				"element": "C" 
			},
			{
				"x": -0.0023828622,
				"y": -1.0798526192,
				"z": -0.539760398,
				"element": "C" 
			},
			{
				"x": -0.5452072742,
				"y": -2.3725049154,
				"z": -0.4072398226,
				"element": "C" 
			},
			{
				"x": -1.9511097338,
				"y": -2.5574300435,
				"z": -0.4610445815,
				"element": "C" 
			},
			{
				"x": -2.1507961132,
				"y": -3.9031335294,
				"z": -0.303141995,
				"element": "N" 
			},
			{
				"x": -0.9903730302,
				"y": -4.5901934131,
				"z": -0.1534244364,
				"element": "N" 
			},
			{
				"x": -0.0248857676,
				"y": -3.6889679785,
				"z": -0.2134996122,
				"element": "C" 
			},
			{
				"x": -2.840075101,
				"y": -1.4858802785,
				"z": -0.6442113898,
				"element": "C" 
			},
			{
				"x": -2.2900892271,
				"y": -0.2207663699,
				"z": -0.772877691,
				"element": "C" 
			},
			{
				"x": 1.0642399419,
				"y": -0.887360431,
				"z": -0.5054696891,
				"element": "H" 
			},
			{
				"x": -3.0213545756,
				"y": -4.4091178397,
				"z": -0.287301727,
				"element": "H" 
			},
			{
				"x": 1.0069753954,
				"y": -3.9990289359,
				"z": -0.1180379198,
				"element": "H" 
			},
			{
				"x": -3.9146558126,
				"y": -1.6333399101,
				"z": -0.6845661842,
				"element": "H" 
			},
			{
				"x": -2.9167422377,
				"y": 0.652611152,
				"z": -0.9167986642,
				"element": "H" 
			}
		],
		 "valence_orbital": [ 
			{
				"type": "occ",
				"energy": -0.34375,
				"method": "rhf"
			},
			{
				"type": "occ",
				"energy": -0.29737,
				"method": "rhf"
			},
			{
				"type": "occ",
				"energy": -0.29562,
				"method": "rhf"
			},
			{
				"type": "occ",
				"energy": -0.24392,
				"method": "rhf"
			},
			{
				"type": "occ",
				"energy": -0.22306,
				"method": "rhf"
			},
			{
				"type": "unocc",
				"energy": -0.03647,
				"method": "rhf"
			},
			{
				"type": "unocc",
				"energy": 0.0197,
				"method": "rhf"
			},
			{
				"type": "unocc",
				"energy": 0.05319,
				"method": "rhf"
			},
			{
				"type": "unocc",
				"energy": 0.07993,
				"method": "rhf"
			},
			{
				"type": "unocc",
				"energy": 0.09296,
				"method": "rhf"
			}
		],
		"cosmo_sigma_profile": { 
			"-0.025": 0.0,
			"-0.024": 0.0,
			"-0.023": 0.0,
			"-0.022": 0.0,
			"-0.021": 0.0,
			"-0.02": 0.0,
			"-0.019": 0.0,
			"-0.018": 0.0,
			"-0.017": 0.217209445905,
			"-0.016": 1.44244359966,
			"-0.015": 1.76205904532,
			"-0.014": 0.846599601359,
			"-0.013": 1.17690269552,
			"-0.012": 1.10691591041,
			"-0.011": 1.04300154085,
			"-0.01": 1.14471050226,
			"-0.009": 1.11046898949,
			"-0.008": 2.86623452182,
			"-0.007": 7.95205654182,
			"-0.006": 7.690328684,
			"-0.005": 9.18202674636,
			"-0.004": 6.18145736295,
			"-0.003": 5.36474605038,
			"-0.002": 6.68890268888,
			"-0.001": 6.1945015445,
			"0.0": 8.20315093448,
			"0.001": 10.9938735135,
			"0.002": 17.3260495369,
			"0.003": 22.0518578822,
			"0.004": 16.4406368756,
			"0.005": 9.28135958647,
			"0.006": 1.95956684616,
			"0.007": 1.34125610483,
			"0.008": 2.06654572863,
			"0.009": 0.989323190984,
			"0.01": 1.08728362087,
			"0.011": 1.64903174118,
			"0.012": 0.643408518043,
			"0.013": 1.44751060911,
			"0.014": 0.956811101181,
			"0.015": 1.00777998122,
			"0.016": 0.0607320441775,
			"0.017": 0.0,
			"0.018": 0.0,
			"0.019": 0.0,
			"0.02": 0.0,
			"0.021": 0.0,
			"0.022": 0.0,
			"0.023": 0.0,
			"0.024": 0.0,
			"0.025": 0.0
		}
	}
}
