{
	 "smiles": "CC(=O)NC1=CC(=CC=C1)C(C)=O", 
	 "Tm": 400.15, 
	 "num_atms": 24, 
	 "gaussian": { 
		 "optdone": 1, 
		 "sigma_profile": "yes", 
		 "theory": "DFT", 
		 "functional": "B3LYP", 
		 "basiset": "6-31G**", 
		 "properties": { 
			 "R2extent": 3833.1518, 
			 "electric_dipole_moment_norm": 1.11681917068, 
			 "electric_quadrupole_moment_norm": 24.8387955962, 
			 "total_energy": -592.911534541, 
			 "HOMO_LUMO_gap": 0.16725, 
			 "cosmo_polarized_energy": -15.81, 
			 "cosmo_cavitation_energy": 28.18, 
			 "cosmo_dispersion_energy": -20.44, 
			 "cosmo_repulsion_energy": 1.61, 
			 "cosmo_total_nonelectrostatic_energy": 9.35, 
			 "SMD_solvation_energy": 6.4 
		},
		"coords": [
			{
				"x": 1.0676133937,
				"y": 3.1713801559,
				"z": 1.8400474938,
				"element": "C" 
			},
			{
				"x": 1.8481134774,
				"y": 2.0539041586,
				"z": 1.1820184498,
				"element": "C" 
			},
			{
				"x": 2.9954868196,
				"y": 1.7909347432,
				"z": 1.5125221672,
				"element": "O" 
			},
			{
				"x": 1.2660480258,
				"y": 1.2941765876,
				"z": 0.1744874838,
				"element": "N" 
			},
			{
				"x": 0.023468819,
				"y": 1.2589621458,
				"z": -0.4842185228,
				"element": "C" 
			},
			{
				"x": -0.1231580835,
				"y": 0.2765059212,
				"z": -1.481313556,
				"element": "C" 
			},
			{
				"x": -1.3099285524,
				"y": 0.1417614826,
				"z": -2.2054744184,
				"element": "C" 
			},
			{
				"x": -2.3848651516,
				"y": 1.0025478734,
				"z": -1.9377095975,
				"element": "C" 
			},
			{
				"x": -2.2478672743,
				"y": 1.9744366884,
				"z": -0.9553901822,
				"element": "C" 
			},
			{
				"x": -1.0620710178,
				"y": 2.1123502548,
				"z": -0.2288061405,
				"element": "C" 
			},
			{
				"x": -1.4852112746,
				"y": -0.9010088245,
				"z": -3.2738346986,
				"element": "C" 
			},
			{
				"x": -0.3348919577,
				"y": -1.8446458674,
				"z": -3.5816250973,
				"element": "C" 
			},
			{
				"x": -2.5387711882,
				"y": -0.9863669107,
				"z": -3.8848101364,
				"element": "O" 
			},
			{
				"x": 0.1624918636,
				"y": 2.7955813426,
				"z": 2.3272390228,
				"element": "H" 
			},
			{
				"x": 1.7183699832,
				"y": 3.6198434264,
				"z": 2.5899719704,
				"element": "H" 
			},
			{
				"x": 0.7736060224,
				"y": 3.9364425076,
				"z": 1.1147373605,
				"element": "H" 
			},
			{
				"x": 1.9318880077,
				"y": 0.5996189598,
				"z": -0.1433022437,
				"element": "H" 
			},
			{
				"x": 0.7136679522,
				"y": -0.3860354435,
				"z": -1.6825769686,
				"element": "H" 
			},
			{
				"x": -3.2992415775,
				"y": 0.8858638779,
				"z": -2.5077281158,
				"element": "H" 
			},
			{
				"x": -3.0729469198,
				"y": 2.6468695461,
				"z": -0.7388788812,
				"element": "H" 
			},
			{
				"x": -1.002832285,
				"y": 2.8828344816,
				"z": 0.5250543711,
				"element": "H" 
			},
			{
				"x": 0.5536759662,
				"y": -1.2907337021,
				"z": -3.9044313405,
				"element": "H" 
			},
			{
				"x": -0.6455418459,
				"y": -2.5235218376,
				"z": -4.3759830855,
				"element": "H" 
			},
			{
				"x": -0.0544032022,
				"y": -2.4261015675,
				"z": -2.6962953346,
				"element": "H" 
			}
		],
		 "valence_orbital": [ 
			{
				"type": "occ",
				"energy": -0.31426,
				"method": "rhf"
			},
			{
				"type": "occ",
				"energy": -0.27089,
				"method": "rhf"
			},
			{
				"type": "occ",
				"energy": -0.26427,
				"method": "rhf"
			},
			{
				"type": "occ",
				"energy": -0.25383,
				"method": "rhf"
			},
			{
				"type": "occ",
				"energy": -0.22971,
				"method": "rhf"
			},
			{
				"type": "unocc",
				"energy": -0.06246,
				"method": "rhf"
			},
			{
				"type": "unocc",
				"energy": -0.02299,
				"method": "rhf"
			},
			{
				"type": "unocc",
				"energy": 0.01681,
				"method": "rhf"
			},
			{
				"type": "unocc",
				"energy": 0.04461,
				"method": "rhf"
			},
			{
				"type": "unocc",
				"energy": 0.07019,
				"method": "rhf"
			}
		],
		"cosmo_sigma_profile": { 
			"-0.025": 0.0,
			"-0.024": 0.0,
			"-0.023": 0.0,
			"-0.022": 0.0,
			"-0.021": 0.0,
			"-0.02": 0.0,
			"-0.019": 0.0,
			"-0.018": 0.0,
			"-0.017": 0.0,
			"-0.016": 0.0,
			"-0.015": 0.113539112698,
			"-0.014": 1.34116316361,
			"-0.013": 1.14400207118,
			"-0.012": 0.943966001702,
			"-0.011": 0.712336448884,
			"-0.01": 1.5568430206,
			"-0.009": 1.48425938808,
			"-0.008": 1.69447374556,
			"-0.007": 9.32424016354,
			"-0.006": 18.3196388567,
			"-0.005": 17.0763721817,
			"-0.004": 15.6450942277,
			"-0.003": 17.3421947182,
			"-0.002": 17.729810822,
			"-0.001": 17.4606615925,
			"0.0": 11.7999303735,
			"0.001": 12.7833192008,
			"0.002": 13.457765404,
			"0.003": 14.3422962643,
			"0.004": 10.395891368,
			"0.005": 3.3929817793,
			"0.006": 2.47993169076,
			"0.007": 4.09060065386,
			"0.008": 2.18897011142,
			"0.009": 2.69714831971,
			"0.01": 3.65417612593,
			"0.011": 5.03134161087,
			"0.012": 6.53673204388,
			"0.013": 6.93029040568,
			"0.014": 2.39420207106,
			"0.015": 0.143151024244,
			"0.016": 0.0,
			"0.017": 0.0,
			"0.018": 0.0,
			"0.019": 0.0,
			"0.02": 0.0,
			"0.021": 0.0,
			"0.022": 0.0,
			"0.023": 0.0,
			"0.024": 0.0,
			"0.025": 0.0
		}
	}
}
