{
	 "smiles": "CC(=O)C(=N/NC1=C(Cl)C=CC(Cl)=C1)C(=O)C(F)(F)F", 
	 "Tm": 357.15, 
	 "num_atms": 27, 
	 "gaussian": { 
		 "optdone": 1, 
		 "sigma_profile": "yes", 
		 "theory": "DFT", 
		 "functional": "B3LYP", 
		 "basiset": "6-31G**", 
		 "properties": { 
			 "R2extent": 7337.5615, 
			 "electric_dipole_moment_norm": 5.77126798893, 
			 "electric_quadrupole_moment_norm": 6.37789141253, 
			 "total_energy": -1903.16608787, 
			 "HOMO_LUMO_gap": 0.14611, 
			 "cosmo_polarized_energy": -15.67, 
			 "cosmo_cavitation_energy": 37.47, 
			 "cosmo_dispersion_energy": -25.18, 
			 "cosmo_repulsion_energy": 1.89, 
			 "cosmo_total_nonelectrostatic_energy": 14.18, 
			 "SMD_solvation_energy": 7.63 
		},
		"coords": [
			{
				"x": 1.39437117,
				"y": -0.6416175016,
				"z": -1.5353650712,
				"element": "C" 
			},
			{
				"x": 0.8694567608,
				"y": -1.328589593,
				"z": -0.2935133614,
				"element": "C" 
			},
			{
				"x": 0.0938435541,
				"y": -2.2643094501,
				"z": -0.3338766016,
				"element": "O" 
			},
			{
				"x": 1.437963938,
				"y": -0.8692955712,
				"z": 1.0424488528,
				"element": "C" 
			},
			{
				"x": 1.388164157,
				"y": 0.3206108567,
				"z": 1.5641833404,
				"element": "N" 
			},
			{
				"x": 0.7227777457,
				"y": 1.3478514072,
				"z": 1.0312673728,
				"element": "N" 
			},
			{
				"x": -0.4756950617,
				"y": 1.3749207314,
				"z": 0.273218774,
				"element": "C" 
			},
			{
				"x": -0.7231939798,
				"y": 2.472023131,
				"z": -0.570462573,
				"element": "C" 
			},
			{
				"x": 0.4871814495,
				"y": 3.7293578784,
				"z": -0.7452054352,
				"element": "Cl" 
			},
			{
				"x": -1.9261941712,
				"y": 2.5818647103,
				"z": -1.2637144668,
				"element": "C" 
			},
			{
				"x": -2.9008166826,
				"y": 1.5952848294,
				"z": -1.1354380211,
				"element": "C" 
			},
			{
				"x": -2.660343731,
				"y": 0.5124743098,
				"z": -0.2883326174,
				"element": "C" 
			},
			{
				"x": -3.8899104639,
				"y": -0.7163628179,
				"z": -0.0928906712,
				"element": "Cl" 
			},
			{
				"x": -1.4708288582,
				"y": 0.3987458781,
				"z": 0.425307057,
				"element": "C" 
			},
			{
				"x": 2.2165330223,
				"y": -1.8340722094,
				"z": 1.888965106,
				"element": "C" 
			},
			{
				"x": 2.5045768938,
				"y": -1.6355957906,
				"z": 3.0475540628,
				"element": "O" 
			},
			{
				"x": 2.7053019552,
				"y": -3.1533811809,
				"z": 1.2298551598,
				"element": "C" 
			},
			{
				"x": 1.7309383158,
				"y": -4.0750169722,
				"z": 1.2108726857,
				"element": "F" 
			},
			{
				"x": 3.1024297588,
				"y": -2.9333015988,
				"z": -0.0501394279,
				"element": "F" 
			},
			{
				"x": 3.7465142437,
				"y": -3.6478040548,
				"z": 1.9021674031,
				"element": "F" 
			},
			{
				"x": 0.6929342145,
				"y": -0.7829016129,
				"z": -2.3596016108,
				"element": "H" 
			},
			{
				"x": 1.5989047559,
				"y": 0.4199476859,
				"z": -1.3784646237,
				"element": "H" 
			},
			{
				"x": 2.3433078968,
				"y": -1.125700045,
				"z": -1.7953988612,
				"element": "H" 
			},
			{
				"x": 0.9328358983,
				"y": 2.2074614054,
				"z": 1.5231555906,
				"element": "H" 
			},
			{
				"x": -2.0917303297,
				"y": 3.4361993567,
				"z": -1.9103715946,
				"element": "H" 
			},
			{
				"x": -3.8338240025,
				"y": 1.6670283009,
				"z": -1.6818014455,
				"element": "H" 
			},
			{
				"x": -1.3199984494,
				"y": -0.4378220827,
				"z": 1.0951809776,
				"element": "H" 
			}
		],
		 "valence_orbital": [ 
			{
				"type": "occ",
				"energy": -0.31188,
				"method": "rhf"
			},
			{
				"type": "occ",
				"energy": -0.28601,
				"method": "rhf"
			},
			{
				"type": "occ",
				"energy": -0.27108,
				"method": "rhf"
			},
			{
				"type": "occ",
				"energy": -0.26277,
				"method": "rhf"
			},
			{
				"type": "occ",
				"energy": -0.24434,
				"method": "rhf"
			},
			{
				"type": "unocc",
				"energy": -0.09823,
				"method": "rhf"
			},
			{
				"type": "unocc",
				"energy": -0.05784,
				"method": "rhf"
			},
			{
				"type": "unocc",
				"energy": -0.04202,
				"method": "rhf"
			},
			{
				"type": "unocc",
				"energy": -0.03533,
				"method": "rhf"
			},
			{
				"type": "unocc",
				"energy": -0.00372,
				"method": "rhf"
			}
		],
		"cosmo_sigma_profile": { 
			"-0.025": 0.0,
			"-0.024": 0.0,
			"-0.023": 0.0,
			"-0.022": 0.0,
			"-0.021": 0.0,
			"-0.02": 0.0,
			"-0.019": 0.0,
			"-0.018": 0.0,
			"-0.017": 0.0581061563869,
			"-0.016": 0.885536819184,
			"-0.015": 1.13548119071,
			"-0.014": 0.818042474083,
			"-0.013": 1.00138219603,
			"-0.012": 1.21646859378,
			"-0.011": 0.964492654321,
			"-0.01": 1.17805969247,
			"-0.009": 2.28797544062,
			"-0.008": 7.43857693804,
			"-0.007": 7.42491221902,
			"-0.006": 10.7372540126,
			"-0.005": 14.1029704131,
			"-0.004": 16.9876441199,
			"-0.003": 20.2680052058,
			"-0.002": 22.5950261612,
			"-0.001": 23.7882816765,
			"0.0": 28.5820334876,
			"0.001": 31.4951630214,
			"0.002": 36.9115810693,
			"0.003": 21.7586512395,
			"0.004": 15.1483076865,
			"0.005": 5.35013527065,
			"0.006": 4.67555489795,
			"0.007": 3.60399552095,
			"0.008": 4.63663281154,
			"0.009": 6.33772413189,
			"0.01": 7.14270171149,
			"0.011": 3.34907231163,
			"0.012": 2.03683755021,
			"0.013": 1.11936729707,
			"0.014": 0.254092008767,
			"0.015": 0.0,
			"0.016": 0.0,
			"0.017": 0.0,
			"0.018": 0.0,
			"0.019": 0.0,
			"0.02": 0.0,
			"0.021": 0.0,
			"0.022": 0.0,
			"0.023": 0.0,
			"0.024": 0.0,
			"0.025": 0.0
		}
	}
}
