{
	 "smiles": "ON=CC=CC1=CC=CC=C1", 
	 "Tm": 393.15, 
	 "num_atms": 20, 
	 "gaussian": { 
		 "optdone": 1, 
		 "sigma_profile": "yes", 
		 "theory": "DFT", 
		 "functional": "B3LYP", 
		 "basiset": "6-31G**", 
		 "properties": { 
			 "R2extent": 2630.7978, 
			 "electric_dipole_moment_norm": 0.77522416758, 
			 "electric_quadrupole_moment_norm": 7.04687454976, 
			 "total_energy": -478.273814976, 
			 "HOMO_LUMO_gap": 0.19222, 
			 "cosmo_polarized_energy": -8.28, 
			 "cosmo_cavitation_energy": 25.0, 
			 "cosmo_dispersion_energy": -17.84, 
			 "cosmo_repulsion_energy": 1.47, 
			 "cosmo_total_nonelectrostatic_energy": 8.63, 
			 "SMD_solvation_energy": 4.59 
		},
		"coords": [
			{
				"x": 0.8129104372,
				"y": -2.0347406787,
				"z": -2.8854415105,
				"element": "O" 
			},
			{
				"x": 0.4097949987,
				"y": -0.6964062156,
				"z": -3.0178635845,
				"element": "N" 
			},
			{
				"x": 0.1925352614,
				"y": -0.1378656697,
				"z": -1.8783755856,
				"element": "C" 
			},
			{
				"x": 0.3212945655,
				"y": -0.7372182797,
				"z": -0.5572649566,
				"element": "C" 
			},
			{
				"x": 0.0737532084,
				"y": -0.0815475824,
				"z": 0.5917956193,
				"element": "C" 
			},
			{
				"x": -0.3649545177,
				"y": 1.3382898302,
				"z": 0.7111764573,
				"element": "C" 
			},
			{
				"x": -1.7294000085,
				"y": 1.6655932021,
				"z": 0.7374996635,
				"element": "C" 
			},
			{
				"x": -2.1401175641,
				"y": 2.9918356189,
				"z": 0.8796616408,
				"element": "C" 
			},
			{
				"x": -1.1935718139,
				"y": 4.0107893602,
				"z": 1.0004135936,
				"element": "C" 
			},
			{
				"x": 0.1663638629,
				"y": 3.6964477573,
				"z": 0.9768064125,
				"element": "C" 
			},
			{
				"x": 0.5778826928,
				"y": 2.3704466748,
				"z": 0.8346753985,
				"element": "C" 
			},
			{
				"x": 0.9318285241,
				"y": -2.3006990185,
				"z": -3.8063009925,
				"element": "H" 
			},
			{
				"x": -0.1212752205,
				"y": 0.9005867008,
				"z": -1.9564850597,
				"element": "H" 
			},
			{
				"x": 0.6367750654,
				"y": -1.7744941059,
				"z": -0.524163689,
				"element": "H" 
			},
			{
				"x": 0.201624119,
				"y": -0.626204469,
				"z": 1.5276484663,
				"element": "H" 
			},
			{
				"x": -2.4678708016,
				"y": 0.8745669125,
				"z": 0.6424835227,
				"element": "H" 
			},
			{
				"x": -3.2003755797,
				"y": 3.2282598535,
				"z": 0.8937551385,
				"element": "H" 
			},
			{
				"x": -1.5135190323,
				"y": 5.0428613345,
				"z": 1.1111270014,
				"element": "H" 
			},
			{
				"x": 0.9094813651,
				"y": 4.4837950663,
				"z": 1.0668336141,
				"element": "H" 
			},
			{
				"x": 1.6367404379,
				"y": 2.1285037085,
				"z": 0.8153188498,
				"element": "H" 
			}
		],
		 "valence_orbital": [ 
			{
				"type": "occ",
				"energy": -0.30336,
				"method": "rhf"
			},
			{
				"type": "occ",
				"energy": -0.27048,
				"method": "rhf"
			},
			{
				"type": "occ",
				"energy": -0.25331,
				"method": "rhf"
			},
			{
				"type": "occ",
				"energy": -0.24819,
				"method": "rhf"
			},
			{
				"type": "occ",
				"energy": -0.23253,
				"method": "rhf"
			},
			{
				"type": "unocc",
				"energy": -0.04031,
				"method": "rhf"
			},
			{
				"type": "unocc",
				"energy": -0.00646,
				"method": "rhf"
			},
			{
				"type": "unocc",
				"energy": -0.00279,
				"method": "rhf"
			},
			{
				"type": "unocc",
				"energy": 0.08028,
				"method": "rhf"
			},
			{
				"type": "unocc",
				"energy": 0.08307,
				"method": "rhf"
			}
		],
		"cosmo_sigma_profile": { 
			"-0.025": 0.0,
			"-0.024": 0.0,
			"-0.023": 0.0,
			"-0.022": 0.0,
			"-0.021": 0.0,
			"-0.02": 0.0,
			"-0.019": 0.0,
			"-0.018": 0.128497071213,
			"-0.017": 0.79789500573,
			"-0.016": 1.00119783591,
			"-0.015": 0.855517032521,
			"-0.014": 0.690006332069,
			"-0.013": 0.894108843098,
			"-0.012": 0.791498130713,
			"-0.011": 0.56692031228,
			"-0.01": 0.310820936891,
			"-0.009": 0.520222682976,
			"-0.008": 0.739065878221,
			"-0.007": 1.56559622068,
			"-0.006": 9.81189769292,
			"-0.005": 14.8275984523,
			"-0.004": 17.0143915409,
			"-0.003": 14.9019212673,
			"-0.002": 13.7517003788,
			"-0.001": 15.2143914469,
			"0.0": 13.4143346551,
			"0.001": 12.9574322538,
			"0.002": 15.7944885193,
			"0.003": 14.2665832148,
			"0.004": 12.3197534953,
			"0.005": 12.8189165405,
			"0.006": 7.90784811383,
			"0.007": 3.60936015489,
			"0.008": 3.71448436393,
			"0.009": 2.9654507896,
			"0.01": 2.24205313636,
			"0.011": 0.803230888468,
			"0.012": 1.10048079556,
			"0.013": 0.963630476273,
			"0.014": 0.419609830792,
			"0.015": 0.0,
			"0.016": 0.0,
			"0.017": 0.0,
			"0.018": 0.0,
			"0.019": 0.0,
			"0.02": 0.0,
			"0.021": 0.0,
			"0.022": 0.0,
			"0.023": 0.0,
			"0.024": 0.0,
			"0.025": 0.0
		}
	}
}
