{
	 "smiles": "ClC1=CC=CC(Cl)=C1C(=O)C1=CC=CC=C1", 
	 "Tm": 356.15, 
	 "num_atms": 24, 
	 "gaussian": { 
		 "optdone": 1, 
		 "sigma_profile": "yes", 
		 "theory": "DFT", 
		 "functional": "B3LYP", 
		 "basiset": "6-31G**", 
		 "properties": { 
			 "R2extent": 4614.5959, 
			 "electric_dipole_moment_norm": 3.53032672001, 
			 "electric_quadrupole_moment_norm": 18.4632829351, 
			 "total_energy": -1495.8061809, 
			 "HOMO_LUMO_gap": 0.19064, 
			 "cosmo_polarized_energy": -9.88, 
			 "cosmo_cavitation_energy": 32.55, 
			 "cosmo_dispersion_energy": -22.63, 
			 "cosmo_repulsion_energy": 1.77, 
			 "cosmo_total_nonelectrostatic_energy": 11.69, 
			 "SMD_solvation_energy": 5.44 
		},
		"coords": [
			{
				"x": 2.0914562727,
				"y": -1.0729143539,
				"z": -2.693776407,
				"element": "Cl" 
			},
			{
				"x": 0.8282249313,
				"y": -1.9794273507,
				"z": -1.8750039871,
				"element": "C" 
			},
			{
				"x": 0.0629745333,
				"y": -2.874404869,
				"z": -2.6212266793,
				"element": "C" 
			},
			{
				"x": -0.9449488533,
				"y": -3.5982617124,
				"z": -1.9867758056,
				"element": "C" 
			},
			{
				"x": -1.1883556063,
				"y": -3.4281750222,
				"z": -0.6250747539,
				"element": "C" 
			},
			{
				"x": -0.4075644414,
				"y": -2.5263305216,
				"z": 0.0963712329,
				"element": "C" 
			},
			{
				"x": -0.7326680009,
				"y": -2.3226706475,
				"z": 1.8112222472,
				"element": "Cl" 
			},
			{
				"x": 0.6155485908,
				"y": -1.7816356064,
				"z": -0.5045660752,
				"element": "C" 
			},
			{
				"x": 1.5227103306,
				"y": -0.8715511388,
				"z": 0.3165797039,
				"element": "C" 
			},
			{
				"x": 2.5280591298,
				"y": -1.3465962645,
				"z": 0.8149998381,
				"element": "O" 
			},
			{
				"x": 1.1466263535,
				"y": 0.5600498207,
				"z": 0.4770855371,
				"element": "C" 
			},
			{
				"x": -0.0124913638,
				"y": 1.0985431541,
				"z": -0.1000860906,
				"element": "C" 
			},
			{
				"x": -0.3220790833,
				"y": 2.4461880188,
				"z": 0.0788033797,
				"element": "C" 
			},
			{
				"x": 0.5231197157,
				"y": 3.2616514925,
				"z": 0.8338997281,
				"element": "C" 
			},
			{
				"x": 1.6811110335,
				"y": 2.7301208968,
				"z": 1.4123086218,
				"element": "C" 
			},
			{
				"x": 1.9921665325,
				"y": 1.3864898024,
				"z": 1.2354413262,
				"element": "C" 
			},
			{
				"x": 0.2607553355,
				"y": -2.9982598842,
				"z": -3.6797250013,
				"element": "H" 
			},
			{
				"x": -1.5452626359,
				"y": -4.2996683821,
				"z": -2.5576762444,
				"element": "H" 
			},
			{
				"x": -1.9698583637,
				"y": -3.9853896672,
				"z": -0.1214468889,
				"element": "H" 
			},
			{
				"x": -0.6696049692,
				"y": 0.4647085046,
				"z": -0.6869681657,
				"element": "H" 
			},
			{
				"x": -1.2204821426,
				"y": 2.859532169,
				"z": -0.3696524586,
				"element": "H" 
			},
			{
				"x": 0.2808742823,
				"y": 4.3115417387,
				"z": 0.9725829446,
				"element": "H" 
			},
			{
				"x": 2.3367581888,
				"y": 3.3666581255,
				"z": 1.9991353452,
				"element": "H" 
			},
			{
				"x": 2.8834302301,
				"y": 0.9491016974,
				"z": 1.6727486528,
				"element": "H" 
			}
		],
		 "valence_orbital": [ 
			{
				"type": "occ",
				"energy": -0.27397,
				"method": "rhf"
			},
			{
				"type": "occ",
				"energy": -0.26414,
				"method": "rhf"
			},
			{
				"type": "occ",
				"energy": -0.26146,
				"method": "rhf"
			},
			{
				"type": "occ",
				"energy": -0.25621,
				"method": "rhf"
			},
			{
				"type": "occ",
				"energy": -0.25578,
				"method": "rhf"
			},
			{
				"type": "unocc",
				"energy": -0.06514,
				"method": "rhf"
			},
			{
				"type": "unocc",
				"energy": -0.03118,
				"method": "rhf"
			},
			{
				"type": "unocc",
				"energy": -0.02986,
				"method": "rhf"
			},
			{
				"type": "unocc",
				"energy": -0.01156,
				"method": "rhf"
			},
			{
				"type": "unocc",
				"energy": 0.00293,
				"method": "rhf"
			}
		],
		"cosmo_sigma_profile": { 
			"-0.025": 0.0,
			"-0.024": 0.0,
			"-0.023": 0.0,
			"-0.022": 0.0,
			"-0.021": 0.0,
			"-0.02": 0.0,
			"-0.019": 0.0,
			"-0.018": 0.0,
			"-0.017": 0.0,
			"-0.016": 0.0,
			"-0.015": 0.0,
			"-0.014": 0.0,
			"-0.013": 0.0,
			"-0.012": 0.0,
			"-0.011": 0.0,
			"-0.01": 0.0,
			"-0.009": 0.115247414777,
			"-0.008": 4.03435481246,
			"-0.007": 10.4460482566,
			"-0.006": 16.0820318331,
			"-0.005": 17.1248382682,
			"-0.004": 14.3579912437,
			"-0.003": 15.3966285909,
			"-0.002": 13.6539652217,
			"-0.001": 17.245063501,
			"0.0": 22.0050395911,
			"0.001": 29.9656384498,
			"0.002": 34.3627945346,
			"0.003": 31.3190534473,
			"0.004": 22.7341195397,
			"0.005": 2.39061739636,
			"0.006": 1.66045139179,
			"0.007": 1.76074429629,
			"0.008": 2.36344115669,
			"0.009": 1.73666607101,
			"0.01": 3.47137905348,
			"0.011": 3.49058288873,
			"0.012": 0.950838109737,
			"0.013": 0.0147078660396,
			"0.014": 0.0,
			"0.015": 0.0,
			"0.016": 0.0,
			"0.017": 0.0,
			"0.018": 0.0,
			"0.019": 0.0,
			"0.02": 0.0,
			"0.021": 0.0,
			"0.022": 0.0,
			"0.023": 0.0,
			"0.024": 0.0,
			"0.025": 0.0
		}
	}
}
