{
	 "smiles": "OCCCCCCO", 
	 "Tm": 316.65, 
	 "num_atms": 22, 
	 "gaussian": { 
		 "optdone": 1, 
		 "sigma_profile": "yes", 
		 "theory": "DFT", 
		 "functional": "B3LYP", 
		 "basiset": "6-31G**", 
		 "properties": { 
			 "R2extent": 1850.8453, 
			 "electric_dipole_moment_norm": 2.99080609535, 
			 "electric_quadrupole_moment_norm": 4.49582703293, 
			 "total_energy": -387.51070121, 
			 "HOMO_LUMO_gap": 0.33058, 
			 "cosmo_polarized_energy": -10.99, 
			 "cosmo_cavitation_energy": 23.85, 
			 "cosmo_dispersion_energy": -17.43, 
			 "cosmo_repulsion_energy": 1.51, 
			 "cosmo_total_nonelectrostatic_energy": 7.93, 
			 "SMD_solvation_energy": 3.77 
		},
		"coords": [
			{
				"x": 0.8576457734,
				"y": -1.7177708457,
				"z": 2.8991005173,
				"element": "O" 
			},
			{
				"x": 1.5185946303,
				"y": -0.4941089659,
				"z": 2.5952764812,
				"element": "C" 
			},
			{
				"x": 2.049953798,
				"y": -0.4377860161,
				"z": 1.1589510875,
				"element": "C" 
			},
			{
				"x": 0.981775391,
				"y": -0.6572625966,
				"z": 0.0750398548,
				"element": "C" 
			},
			{
				"x": -0.0254604122,
				"y": 0.4959778767,
				"z": -0.0566606366,
				"element": "C" 
			},
			{
				"x": -1.1264915868,
				"y": 0.2663529106,
				"z": -1.1039200606,
				"element": "C" 
			},
			{
				"x": -0.6280917836,
				"y": 0.2240236529,
				"z": -2.5446149284,
				"element": "C" 
			},
			{
				"x": -1.7666176782,
				"y": 0.1075742165,
				"z": -3.3913786489,
				"element": "O" 
			},
			{
				"x": 1.5012407541,
				"y": -2.4311037824,
				"z": 2.7957924758,
				"element": "H" 
			},
			{
				"x": 0.7709249014,
				"y": 0.2876205186,
				"z": 2.7634827835,
				"element": "H" 
			},
			{
				"x": 2.3441337833,
				"y": -0.30240293,
				"z": 3.2995420283,
				"element": "H" 
			},
			{
				"x": 2.5497163367,
				"y": 0.529771709,
				"z": 1.0091741436,
				"element": "H" 
			},
			{
				"x": 2.834857627,
				"y": -1.2011588579,
				"z": 1.0514016278,
				"element": "H" 
			},
			{
				"x": 0.4412562068,
				"y": -1.5846790676,
				"z": 0.3013783847,
				"element": "H" 
			},
			{
				"x": 1.4895072136,
				"y": -0.8165262541,
				"z": -0.8840533099,
				"element": "H" 
			},
			{
				"x": 0.5144138353,
				"y": 1.4254088431,
				"z": -0.291132095,
				"element": "H" 
			},
			{
				"x": -0.5109434191,
				"y": 0.6645869992,
				"z": 0.9118170917,
				"element": "H" 
			},
			{
				"x": -1.6598387373,
				"y": -0.668585372,
				"z": -0.8909275806,
				"element": "H" 
			},
			{
				"x": -1.869783544,
				"y": 1.0698076597,
				"z": -1.037462453,
				"element": "H" 
			},
			{
				"x": 0.0586339782,
				"y": -0.6245347572,
				"z": -2.6908729812,
				"element": "H" 
			},
			{
				"x": -0.0593272824,
				"y": 1.1441518482,
				"z": -2.764291304,
				"element": "H" 
			},
			{
				"x": -1.4572997855,
				"y": 0.0474432112,
				"z": -4.3034424782,
				"element": "H" 
			}
		],
		 "valence_orbital": [ 
			{
				"type": "occ",
				"energy": -0.31791,
				"method": "rhf"
			},
			{
				"type": "occ",
				"energy": -0.31468,
				"method": "rhf"
			},
			{
				"type": "occ",
				"energy": -0.30311,
				"method": "rhf"
			},
			{
				"type": "occ",
				"energy": -0.26435,
				"method": "rhf"
			},
			{
				"type": "occ",
				"energy": -0.25973,
				"method": "rhf"
			},
			{
				"type": "unocc",
				"energy": 0.07085,
				"method": "rhf"
			},
			{
				"type": "unocc",
				"energy": 0.08196,
				"method": "rhf"
			},
			{
				"type": "unocc",
				"energy": 0.1008,
				"method": "rhf"
			},
			{
				"type": "unocc",
				"energy": 0.11505,
				"method": "rhf"
			},
			{
				"type": "unocc",
				"energy": 0.12185,
				"method": "rhf"
			}
		],
		"cosmo_sigma_profile": { 
			"-0.025": 0.0,
			"-0.024": 0.0,
			"-0.023": 0.0,
			"-0.022": 0.0,
			"-0.021": 0.0,
			"-0.02": 0.0,
			"-0.019": 0.0,
			"-0.018": 0.0,
			"-0.017": 0.0,
			"-0.016": 0.278152163547,
			"-0.015": 1.50637363077,
			"-0.014": 1.75398129701,
			"-0.013": 2.11917187095,
			"-0.012": 1.6667902396,
			"-0.011": 1.62449529925,
			"-0.01": 1.56224765742,
			"-0.009": 1.22390549693,
			"-0.008": 1.71969275297,
			"-0.007": 2.16506680759,
			"-0.006": 2.50148973994,
			"-0.005": 2.30848343938,
			"-0.004": 4.35588366593,
			"-0.003": 17.7400483508,
			"-0.002": 29.6274335149,
			"-0.001": 30.1494783661,
			"0.0": 24.4063280618,
			"0.001": 14.754894785,
			"0.002": 4.63783697642,
			"0.003": 2.7655695375,
			"0.004": 3.31720794761,
			"0.005": 2.64987322987,
			"0.006": 2.48650356098,
			"0.007": 2.80302471059,
			"0.008": 2.69463675591,
			"0.009": 2.07038369972,
			"0.01": 2.61162198507,
			"0.011": 2.77167816257,
			"0.012": 2.98771230965,
			"0.013": 2.33516589315,
			"0.014": 4.0117735373,
			"0.015": 3.05536637866,
			"0.016": 0.00154276014111,
			"0.017": 0.0,
			"0.018": 0.0,
			"0.019": 0.0,
			"0.02": 0.0,
			"0.021": 0.0,
			"0.022": 0.0,
			"0.023": 0.0,
			"0.024": 0.0,
			"0.025": 0.0
		}
	}
}
