{
	 "smiles": "CN(CC1=CC=CC=C1)C(=O)C1=C(C=CC=C1)C(O)=O", 
	 "Tm": 427.15, 
	 "num_atms": 35, 
	 "gaussian": { 
		 "optdone": 1, 
		 "sigma_profile": "yes", 
		 "theory": "DFT", 
		 "functional": "B3LYP", 
		 "basiset": "6-31G**", 
		 "properties": { 
			 "R2extent": 6696.6636, 
			 "electric_dipole_moment_norm": 7.48828352094, 
			 "electric_quadrupole_moment_norm": 21.4290595396, 
			 "total_energy": -899.194476017, 
			 "HOMO_LUMO_gap": 0.19916, 
			 "cosmo_polarized_energy": -17.4, 
			 "cosmo_cavitation_energy": 38.74, 
			 "cosmo_dispersion_energy": -26.75, 
			 "cosmo_repulsion_energy": 2.04, 
			 "cosmo_total_nonelectrostatic_energy": 14.02, 
			 "SMD_solvation_energy": 7.74 
		},
		"coords": [
			{
				"x": -1.2868640263,
				"y": 1.5793588769,
				"z": 0.4617046795,
				"element": "C" 
			},
			{
				"x": -0.8434031322,
				"y": 0.2189381507,
				"z": 0.1737286385,
				"element": "N" 
			},
			{
				"x": -1.8293298087,
				"y": -0.8473613825,
				"z": 0.4325383146,
				"element": "C" 
			},
			{
				"x": -1.9453959055,
				"y": -1.1872154899,
				"z": 1.9062317606,
				"element": "C" 
			},
			{
				"x": -0.9089326011,
				"y": -1.8820871085,
				"z": 2.5480651564,
				"element": "C" 
			},
			{
				"x": -0.9992512369,
				"y": -2.1891660523,
				"z": 3.9047597799,
				"element": "C" 
			},
			{
				"x": -2.1271682766,
				"y": -1.8090929788,
				"z": 4.6381322669,
				"element": "C" 
			},
			{
				"x": -3.1640283162,
				"y": -1.1219518695,
				"z": 4.0071809956,
				"element": "C" 
			},
			{
				"x": -3.0709361067,
				"y": -0.8121441292,
				"z": 2.6478501479,
				"element": "C" 
			},
			{
				"x": 0.3682685595,
				"y": -0.1263009756,
				"z": -0.3324123965,
				"element": "C" 
			},
			{
				"x": 0.6279977191,
				"y": -1.3026628933,
				"z": -0.6522594242,
				"element": "O" 
			},
			{
				"x": 1.4431592681,
				"y": 0.9239676084,
				"z": -0.4519540075,
				"element": "C" 
			},
			{
				"x": 2.1222846599,
				"y": 1.1994901424,
				"z": -1.6604385318,
				"element": "C" 
			},
			{
				"x": 3.1479112264,
				"y": 2.1560489799,
				"z": -1.6504866606,
				"element": "C" 
			},
			{
				"x": 3.5467144987,
				"y": 2.7844737732,
				"z": -0.4746381984,
				"element": "C" 
			},
			{
				"x": 2.9005825705,
				"y": 2.4821526175,
				"z": 0.7243330971,
				"element": "C" 
			},
			{
				"x": 1.8487553618,
				"y": 1.5693010499,
				"z": 0.7270061641,
				"element": "C" 
			},
			{
				"x": 1.8318354773,
				"y": 0.5992795796,
				"z": -3.0262782184,
				"element": "C" 
			},
			{
				"x": 1.3530176324,
				"y": -0.6453995853,
				"z": -3.0894125307,
				"element": "O" 
			},
			{
				"x": 2.0674360797,
				"y": 1.2328029178,
				"z": -4.0346792154,
				"element": "O" 
			},
			{
				"x": -0.5614778779,
				"y": 2.3052841079,
				"z": 0.1023760981,
				"element": "H" 
			},
			{
				"x": -2.241312228,
				"y": 1.7597232907,
				"z": -0.0455406683,
				"element": "H" 
			},
			{
				"x": -1.437325509,
				"y": 1.7235012459,
				"z": 1.5374400458,
				"element": "H" 
			},
			{
				"x": -2.7954754928,
				"y": -0.5093902943,
				"z": 0.0428183378,
				"element": "H" 
			},
			{
				"x": -1.5084509316,
				"y": -1.7166690058,
				"z": -0.1422046114,
				"element": "H" 
			},
			{
				"x": -0.0381120473,
				"y": -2.1870953037,
				"z": 1.9739507018,
				"element": "H" 
			},
			{
				"x": -0.1930626477,
				"y": -2.7321968004,
				"z": 4.389786999,
				"element": "H" 
			},
			{
				"x": -2.197816255,
				"y": -2.0525399992,
				"z": 5.6943103157,
				"element": "H" 
			},
			{
				"x": -4.0454228885,
				"y": -0.8273030965,
				"z": 4.5695995315,
				"element": "H" 
			},
			{
				"x": -3.8843523443,
				"y": -0.2815581615,
				"z": 2.1581084604,
				"element": "H" 
			},
			{
				"x": 3.6230432142,
				"y": 2.3884568117,
				"z": -2.5968637829,
				"element": "H" 
			},
			{
				"x": 4.358049297,
				"y": 3.5058369266,
				"z": -0.4940959977,
				"element": "H" 
			},
			{
				"x": 3.2070700347,
				"y": 2.9564548909,
				"z": 1.6518541691,
				"element": "H" 
			},
			{
				"x": 1.3379652906,
				"y": 1.3387875498,
				"z": 1.6574456283,
				"element": "H" 
			},
			{
				"x": 1.2464267424,
				"y": -1.0506233936,
				"z": -2.1933570448,
				"element": "H" 
			}
		],
		 "valence_orbital": [ 
			{
				"type": "occ",
				"energy": -0.26969,
				"method": "rhf"
			},
			{
				"type": "occ",
				"energy": -0.26424,
				"method": "rhf"
			},
			{
				"type": "occ",
				"energy": -0.26113,
				"method": "rhf"
			},
			{
				"type": "occ",
				"energy": -0.25534,
				"method": "rhf"
			},
			{
				"type": "occ",
				"energy": -0.2515,
				"method": "rhf"
			},
			{
				"type": "unocc",
				"energy": -0.05234,
				"method": "rhf"
			},
			{
				"type": "unocc",
				"energy": -0.03145,
				"method": "rhf"
			},
			{
				"type": "unocc",
				"energy": -0.01687,
				"method": "rhf"
			},
			{
				"type": "unocc",
				"energy": -0.01247,
				"method": "rhf"
			},
			{
				"type": "unocc",
				"energy": 0.01041,
				"method": "rhf"
			}
		],
		"cosmo_sigma_profile": { 
			"-0.025": 0.0,
			"-0.024": 0.0,
			"-0.023": 0.0,
			"-0.022": 0.0,
			"-0.021": 0.0,
			"-0.02": 0.0,
			"-0.019": 0.0,
			"-0.018": 0.0,
			"-0.017": 0.0,
			"-0.016": 0.0,
			"-0.015": 0.0,
			"-0.014": 0.0,
			"-0.013": 0.0,
			"-0.012": 0.0,
			"-0.011": 0.0,
			"-0.01": 0.0,
			"-0.009": 0.0,
			"-0.008": 0.173680048218,
			"-0.007": 7.91801564391,
			"-0.006": 20.9885355729,
			"-0.005": 29.9946404213,
			"-0.004": 31.7574551464,
			"-0.003": 31.0076418722,
			"-0.002": 23.7311239453,
			"-0.001": 22.6726840667,
			"0.0": 17.6540569802,
			"0.001": 18.0064598571,
			"0.002": 20.1237132817,
			"0.003": 19.2271735796,
			"0.004": 11.8144586352,
			"0.005": 12.2104962455,
			"0.006": 8.81041741335,
			"0.007": 3.9582616743,
			"0.008": 3.66581855977,
			"0.009": 3.4400027165,
			"0.01": 5.33040595865,
			"0.011": 6.38329936184,
			"0.012": 6.74075249516,
			"0.013": 3.1422954085,
			"0.014": 0.777205560723,
			"0.015": 0.0,
			"0.016": 0.0,
			"0.017": 0.0,
			"0.018": 0.0,
			"0.019": 0.0,
			"0.02": 0.0,
			"0.021": 0.0,
			"0.022": 0.0,
			"0.023": 0.0,
			"0.024": 0.0,
			"0.025": 0.0
		}
	}
}
