{
	 "smiles": "CC1=C(F)C=C(Cl)C(=C1)C(O)=O", 
	 "Tm": 423.15, 
	 "num_atms": 18, 
	 "gaussian": { 
		 "optdone": 1, 
		 "sigma_profile": "yes", 
		 "theory": "DFT", 
		 "functional": "B3LYP", 
		 "basiset": "6-31G**", 
		 "properties": { 
			 "R2extent": 2737.3471, 
			 "electric_dipole_moment_norm": 3.80336950217, 
			 "electric_quadrupole_moment_norm": 17.4029764943, 
			 "total_energy": -1018.95540837, 
			 "HOMO_LUMO_gap": 0.20637, 
			 "cosmo_polarized_energy": -9.92, 
			 "cosmo_cavitation_energy": 24.53, 
			 "cosmo_dispersion_energy": -18.27, 
			 "cosmo_repulsion_energy": 1.42, 
			 "cosmo_total_nonelectrostatic_energy": 7.67, 
			 "SMD_solvation_energy": 5.66 
		},
		"coords": [
			{
				"x": 0.0937583379,
				"y": -1.9304193047,
				"z": -1.845990881,
				"element": "C" 
			},
			{
				"x": -0.0313400532,
				"y": -0.853828237,
				"z": -0.8003937368,
				"element": "C" 
			},
			{
				"x": -1.28428043,
				"y": -0.3484337112,
				"z": -0.4439790782,
				"element": "C" 
			},
			{
				"x": -2.3776103497,
				"y": -0.8427710126,
				"z": -1.0535565264,
				"element": "F" 
			},
			{
				"x": -1.4553920689,
				"y": 0.6415446982,
				"z": 0.5111723779,
				"element": "C" 
			},
			{
				"x": -0.3280176836,
				"y": 1.1585953577,
				"z": 1.1468737515,
				"element": "C" 
			},
			{
				"x": -0.6578337155,
				"y": 2.4182347009,
				"z": 2.349752956,
				"element": "Cl" 
			},
			{
				"x": 0.9650361562,
				"y": 0.7008426293,
				"z": 0.8418363483,
				"element": "C" 
			},
			{
				"x": 1.0628436235,
				"y": -0.3062403408,
				"z": -0.1382968871,
				"element": "C" 
			},
			{
				"x": 2.3000530282,
				"y": 1.1335532652,
				"z": 1.4179067567,
				"element": "C" 
			},
			{
				"x": 2.3397399686,
				"y": 2.089694025,
				"z": 2.3614586412,
				"element": "O" 
			},
			{
				"x": 3.3311691692,
				"y": 0.6259231487,
				"z": 1.0358477896,
				"element": "O" 
			},
			{
				"x": -0.4592304263,
				"y": -2.8298370193,
				"z": -1.5552451114,
				"element": "H" 
			},
			{
				"x": -0.318047012,
				"y": -1.5994395486,
				"z": -2.8052379973,
				"element": "H" 
			},
			{
				"x": 1.1399974976,
				"y": -2.2038407723,
				"z": -1.9969630815,
				"element": "H" 
			},
			{
				"x": -2.4501127826,
				"y": 0.9972594396,
				"z": 0.7494251288,
				"element": "H" 
			},
			{
				"x": 2.0645992922,
				"y": -0.6533073873,
				"z": -0.367104177,
				"element": "H" 
			},
			{
				"x": 1.4529674483,
				"y": 2.4175700691,
				"z": 2.5832937266,
				"element": "H" 
			}
		],
		 "valence_orbital": [ 
			{
				"type": "occ",
				"energy": -0.34469,
				"method": "rhf"
			},
			{
				"type": "occ",
				"energy": -0.31503,
				"method": "rhf"
			},
			{
				"type": "occ",
				"energy": -0.279,
				"method": "rhf"
			},
			{
				"type": "occ",
				"energy": -0.27765,
				"method": "rhf"
			},
			{
				"type": "occ",
				"energy": -0.26639,
				"method": "rhf"
			},
			{
				"type": "unocc",
				"energy": -0.06002,
				"method": "rhf"
			},
			{
				"type": "unocc",
				"energy": -0.03586,
				"method": "rhf"
			},
			{
				"type": "unocc",
				"energy": -0.00769,
				"method": "rhf"
			},
			{
				"type": "unocc",
				"energy": 0.04467,
				"method": "rhf"
			},
			{
				"type": "unocc",
				"energy": 0.09492,
				"method": "rhf"
			}
		],
		"cosmo_sigma_profile": { 
			"-0.025": 0.0,
			"-0.024": 0.0,
			"-0.023": 0.0,
			"-0.022": 0.0,
			"-0.021": 0.0,
			"-0.02": 0.0,
			"-0.019": 0.0,
			"-0.018": 0.0,
			"-0.017": 0.0,
			"-0.016": 0.0,
			"-0.015": 0.0,
			"-0.014": 0.0,
			"-0.013": 0.0,
			"-0.012": 0.236313150128,
			"-0.011": 0.630743018114,
			"-0.01": 1.12139644981,
			"-0.009": 3.07473442257,
			"-0.008": 3.46425901834,
			"-0.007": 4.77187189958,
			"-0.006": 6.95792734328,
			"-0.005": 10.3998036764,
			"-0.004": 12.6392484728,
			"-0.003": 15.8543292054,
			"-0.002": 16.6744895785,
			"-0.001": 25.6762210345,
			"0.0": 25.2682966912,
			"0.001": 15.718784879,
			"0.002": 10.3847976571,
			"0.003": 12.7073224298,
			"0.004": 5.94686523653,
			"0.005": 1.69673919555,
			"0.006": 2.50647484881,
			"0.007": 2.443817472,
			"0.008": 2.95139702265,
			"0.009": 2.63233167814,
			"0.01": 4.76050651631,
			"0.011": 5.30406649391,
			"0.012": 3.72654123667,
			"0.013": 1.51123484253,
			"0.014": 0.0420018914408,
			"0.015": 0.0,
			"0.016": 0.0,
			"0.017": 0.0,
			"0.018": 0.0,
			"0.019": 0.0,
			"0.02": 0.0,
			"0.021": 0.0,
			"0.022": 0.0,
			"0.023": 0.0,
			"0.024": 0.0,
			"0.025": 0.0
		}
	}
}
