{
	 "smiles": "[H]C([H])([H])C([H])([H])[H]", 
	 "Tm": 90.15, 
	 "num_atms": 8, 
	 "gaussian": { 
		 "optdone": 1, 
		 "sigma_profile": "yes", 
		 "theory": "DFT", 
		 "functional": "B3LYP", 
		 "basiset": "6-31G**", 
		 "properties": { 
			 "R2extent": 434.5017, 
			 "electric_dipole_moment_norm": 0.0, 
			 "electric_quadrupole_moment_norm": 0.303543604775, 
			 "total_energy": -79.8372112867, 
			 "HOMO_LUMO_gap": 0.44442, 
			 "cosmo_polarized_energy": -0.31, 
			 "cosmo_cavitation_energy": 10.13, 
			 "cosmo_dispersion_energy": -7.76, 
			 "cosmo_repulsion_energy": 0.79, 
			 "cosmo_total_nonelectrostatic_energy": 3.16, 
			 "SMD_solvation_energy": 2.41 
		},
		"coords": [
			{
				"x": 0.2470049987,
				"y": 1.4780512672,
				"z": -1.0570041228,
				"element": "C" 
			},
			{
				"x": 1.4589721793,
				"y": 1.3597489542,
				"z": -1.9848957884,
				"element": "C" 
			},
			{
				"x": -0.1497956678,
				"y": 2.498752382,
				"z": -1.047256903,
				"element": "H" 
			},
			{
				"x": -0.5633753855,
				"y": 0.8123529741,
				"z": -1.3724434814,
				"element": "H" 
			},
			{
				"x": 0.5068214951,
				"y": 1.2155319664,
				"z": -0.026009317,
				"element": "H" 
			},
			{
				"x": 1.199157035,
				"y": 1.6222775031,
				"z": -3.0158888257,
				"element": "H" 
			},
			{
				"x": 1.8557604472,
				"y": 0.3390437923,
				"z": -1.9946497658,
				"element": "H" 
			},
			{
				"x": 2.2693548981,
				"y": 2.0254411606,
				"z": -1.6694517959,
				"element": "H" 
			}
		],
		 "valence_orbital": [ 
			{
				"type": "occ",
				"energy": -0.42938,
				"method": "rhf"
			},
			{
				"type": "occ",
				"energy": -0.42938,
				"method": "rhf"
			},
			{
				"type": "occ",
				"energy": -0.3629,
				"method": "rhf"
			},
			{
				"type": "occ",
				"energy": -0.33926,
				"method": "rhf"
			},
			{
				"type": "occ",
				"energy": -0.33926,
				"method": "rhf"
			},
			{
				"type": "unocc",
				"energy": 0.10516,
				"method": "rhf"
			},
			{
				"type": "unocc",
				"energy": 0.15651,
				"method": "rhf"
			},
			{
				"type": "unocc",
				"energy": 0.16397,
				"method": "rhf"
			},
			{
				"type": "unocc",
				"energy": 0.16397,
				"method": "rhf"
			},
			{
				"type": "unocc",
				"energy": 0.19001,
				"method": "rhf"
			}
		],
		"cosmo_sigma_profile": { 
			"-0.025": 0.0,
			"-0.024": 0.0,
			"-0.023": 0.0,
			"-0.022": 0.0,
			"-0.021": 0.0,
			"-0.02": 0.0,
			"-0.019": 0.0,
			"-0.018": 0.0,
			"-0.017": 0.0,
			"-0.016": 0.0,
			"-0.015": 0.0,
			"-0.014": 0.0,
			"-0.013": 0.0,
			"-0.012": 0.0,
			"-0.011": 0.0,
			"-0.01": 0.0,
			"-0.009": 0.0,
			"-0.008": 0.0,
			"-0.007": 0.0,
			"-0.006": 0.0,
			"-0.005": 0.0,
			"-0.004": 0.0,
			"-0.003": 4.16044529725,
			"-0.002": 11.9222971531,
			"-0.001": 11.3036215245,
			"0.0": 15.9287910997,
			"0.001": 22.4367817297,
			"0.002": 12.3933302869,
			"0.003": 0.22670073487,
			"0.004": 0.0,
			"0.005": 0.0,
			"0.006": 0.0,
			"0.007": 0.0,
			"0.008": 0.0,
			"0.009": 0.0,
			"0.01": 0.0,
			"0.011": 0.0,
			"0.012": 0.0,
			"0.013": 0.0,
			"0.014": 0.0,
			"0.015": 0.0,
			"0.016": 0.0,
			"0.017": 0.0,
			"0.018": 0.0,
			"0.019": 0.0,
			"0.02": 0.0,
			"0.021": 0.0,
			"0.022": 0.0,
			"0.023": 0.0,
			"0.024": 0.0,
			"0.025": 0.0
		}
	}
}
