{
	 "smiles": "CCCOC1=C(OC)C=C(C=CC(O)=O)C=C1", 
	 "Tm": 461.15, 
	 "num_atms": 33, 
	 "gaussian": { 
		 "optdone": 1, 
		 "sigma_profile": "yes", 
		 "theory": "DFT", 
		 "functional": "B3LYP", 
		 "basiset": "6-31G**", 
		 "properties": { 
			 "R2extent": 5894.0387, 
			 "electric_dipole_moment_norm": 4.53064521012, 
			 "electric_quadrupole_moment_norm": 17.4559784404, 
			 "total_energy": -805.895051633, 
			 "HOMO_LUMO_gap": 0.15344, 
			 "cosmo_polarized_energy": -14.0, 
			 "cosmo_cavitation_energy": 36.84, 
			 "cosmo_dispersion_energy": -25.81, 
			 "cosmo_repulsion_energy": 2.05, 
			 "cosmo_total_nonelectrostatic_energy": 13.08, 
			 "SMD_solvation_energy": 8.65 
		},
		"coords": [
			{
				"x": -2.6198256196,
				"y": -3.4993503926,
				"z": -2.2552811796,
				"element": "C" 
			},
			{
				"x": -1.391428889,
				"y": -2.7117383123,
				"z": -2.7210605202,
				"element": "C" 
			},
			{
				"x": -1.6694612272,
				"y": -1.2181984802,
				"z": -2.8944439242,
				"element": "C" 
			},
			{
				"x": -2.1197382236,
				"y": -0.5939127461,
				"z": -1.6840438536,
				"element": "O" 
			},
			{
				"x": -1.2277582595,
				"y": -0.2662369327,
				"z": -0.709630067,
				"element": "C" 
			},
			{
				"x": -1.7837987829,
				"y": 0.2129706553,
				"z": 0.5001094221,
				"element": "C" 
			},
			{
				"x": -3.1429611959,
				"y": 0.2709704655,
				"z": 0.6910238866,
				"element": "O" 
			},
			{
				"x": -3.8363358488,
				"y": 1.2658855737,
				"z": -0.0665385948,
				"element": "C" 
			},
			{
				"x": -0.944565155,
				"y": 0.5798457491,
				"z": 1.5410303785,
				"element": "C" 
			},
			{
				"x": 0.4604728721,
				"y": 0.4654212945,
				"z": 1.454942053,
				"element": "C" 
			},
			{
				"x": 1.2281333762,
				"y": 0.9040687232,
				"z": 2.6226033829,
				"element": "C" 
			},
			{
				"x": 2.485532634,
				"y": 0.7107356116,
				"z": 3.0883408129,
				"element": "C" 
			},
			{
				"x": 3.6150534043,
				"y": -0.1267170881,
				"z": 2.6531569323,
				"element": "C" 
			},
			{
				"x": 3.366928783,
				"y": -1.0050227986,
				"z": 1.6441818562,
				"element": "O" 
			},
			{
				"x": 4.7102749214,
				"y": -0.0780045557,
				"z": 3.1846813952,
				"element": "O" 
			},
			{
				"x": 0.9950837344,
				"y": 0.0092865658,
				"z": 0.2389703803,
				"element": "C" 
			},
			{
				"x": 0.1663087116,
				"y": -0.3479635448,
				"z": -0.8220704969,
				"element": "C" 
			},
			{
				"x": -2.3802599855,
				"y": -4.5591002973,
				"z": -2.1264729584,
				"element": "H" 
			},
			{
				"x": -2.989866914,
				"y": -3.1157045341,
				"z": -1.3005219297,
				"element": "H" 
			},
			{
				"x": -3.4357324298,
				"y": -3.4263381641,
				"z": -2.9834953391,
				"element": "H" 
			},
			{
				"x": -1.0379982576,
				"y": -3.0936903041,
				"z": -3.6879774782,
				"element": "H" 
			},
			{
				"x": -0.5670817275,
				"y": -2.8507970727,
				"z": -2.0123515265,
				"element": "H" 
			},
			{
				"x": -2.4975855349,
				"y": -1.067199203,
				"z": -3.5937461871,
				"element": "H" 
			},
			{
				"x": -0.7974669935,
				"y": -0.6873273552,
				"z": -3.2952616874,
				"element": "H" 
			},
			{
				"x": -3.7550911958,
				"y": 1.0820301808,
				"z": -1.1418559824,
				"element": "H" 
			},
			{
				"x": -4.8836411074,
				"y": 1.2023797951,
				"z": 0.2359971251,
				"element": "H" 
			},
			{
				"x": -3.4550210647,
				"y": 2.269456459,
				"z": 0.1634905415,
				"element": "H" 
			},
			{
				"x": -1.4119764203,
				"y": 0.9438009255,
				"z": 2.4514930844,
				"element": "H" 
			},
			{
				"x": 0.6335964497,
				"y": 1.5469453117,
				"z": 3.272773756,
				"element": "H" 
			},
			{
				"x": 2.7535567733,
				"y": 1.245361068,
				"z": 3.9942477628,
				"element": "H" 
			},
			{
				"x": 4.2017804202,
				"y": -1.4878370776,
				"z": 1.5238455598,
				"element": "H" 
			},
			{
				"x": 2.0655207439,
				"y": -0.0700401209,
				"z": 0.1168472226,
				"element": "H" 
			},
			{
				"x": 0.6203520084,
				"y": -0.6990793989,
				"z": -1.7409838275,
				"element": "H" 
			}
		],
		 "valence_orbital": [ 
			{
				"type": "occ",
				"energy": -0.28134,
				"method": "rhf"
			},
			{
				"type": "occ",
				"energy": -0.27548,
				"method": "rhf"
			},
			{
				"type": "occ",
				"energy": -0.26729,
				"method": "rhf"
			},
			{
				"type": "occ",
				"energy": -0.24428,
				"method": "rhf"
			},
			{
				"type": "occ",
				"energy": -0.21234,
				"method": "rhf"
			},
			{
				"type": "unocc",
				"energy": -0.0589,
				"method": "rhf"
			},
			{
				"type": "unocc",
				"energy": -0.00282,
				"method": "rhf"
			},
			{
				"type": "unocc",
				"energy": 0.02465,
				"method": "rhf"
			},
			{
				"type": "unocc",
				"energy": 0.0766,
				"method": "rhf"
			},
			{
				"type": "unocc",
				"energy": 0.08388,
				"method": "rhf"
			}
		],
		"cosmo_sigma_profile": { 
			"-0.025": 0.0,
			"-0.024": 0.0,
			"-0.023": 0.0,
			"-0.022": 0.0,
			"-0.021": 0.0,
			"-0.02": 0.0,
			"-0.019": 0.0,
			"-0.018": 0.299148805334,
			"-0.017": 0.968176363268,
			"-0.016": 0.832014769712,
			"-0.015": 0.736281136798,
			"-0.014": 0.923940339732,
			"-0.013": 0.31727358908,
			"-0.012": 0.578419361224,
			"-0.011": 0.844962412481,
			"-0.01": 0.595036290448,
			"-0.009": 0.478239141448,
			"-0.008": 1.17156851864,
			"-0.007": 6.75435882093,
			"-0.006": 11.4066581932,
			"-0.005": 14.8711200212,
			"-0.004": 21.3190171909,
			"-0.003": 30.4775545454,
			"-0.002": 26.7200822625,
			"-0.001": 27.3080021453,
			"0.0": 25.6006767954,
			"0.001": 23.8503355005,
			"0.002": 19.1573708723,
			"0.003": 18.5348115359,
			"0.004": 14.9434176928,
			"0.005": 7.125126887,
			"0.006": 5.1349747241,
			"0.007": 3.83432944058,
			"0.008": 4.80192490689,
			"0.009": 4.80214815348,
			"0.01": 3.15003667941,
			"0.011": 4.28037206882,
			"0.012": 6.23445269519,
			"0.013": 2.88740823144,
			"0.014": 0.218399854476,
			"0.015": 0.0,
			"0.016": 0.0,
			"0.017": 0.0,
			"0.018": 0.0,
			"0.019": 0.0,
			"0.02": 0.0,
			"0.021": 0.0,
			"0.022": 0.0,
			"0.023": 0.0,
			"0.024": 0.0,
			"0.025": 0.0
		}
	}
}
