{
	 "smiles": "CN1C2=C(N(CC(O)=O)C=N2)C(=O)N(C)C1=O", 
	 "Tm": 544.15, 
	 "num_atms": 27, 
	 "gaussian": { 
		 "optdone": 1, 
		 "sigma_profile": "yes", 
		 "theory": "DFT", 
		 "functional": "B3LYP", 
		 "basiset": "6-31G**", 
		 "properties": { 
			 "R2extent": 4193.2825, 
			 "electric_dipole_moment_norm": 2.54050730761, 
			 "electric_quadrupole_moment_norm": 12.5349392535, 
			 "total_energy": -868.939051735, 
			 "HOMO_LUMO_gap": 0.18487, 
			 "cosmo_polarized_energy": -19.91, 
			 "cosmo_cavitation_energy": 31.75, 
			 "cosmo_dispersion_energy": -22.76, 
			 "cosmo_repulsion_energy": 1.75, 
			 "cosmo_total_nonelectrostatic_energy": 10.73, 
			 "SMD_solvation_energy": 7.0 
		},
		"coords": [
			{
				"x": 0.52702077,
				"y": 2.8395661585,
				"z": -2.0803740331,
				"element": "C" 
			},
			{
				"x": 0.0283756548,
				"y": 1.5388454407,
				"z": -1.6356371349,
				"element": "N" 
			},
			{
				"x": -0.483390944,
				"y": 1.3814448962,
				"z": -0.3701137903,
				"element": "C" 
			},
			{
				"x": -0.9580950493,
				"y": 0.1655519572,
				"z": 0.0747842608,
				"element": "C" 
			},
			{
				"x": -1.3981562602,
				"y": 0.4013352948,
				"z": 1.3695209357,
				"element": "N" 
			},
			{
				"x": -1.9155963444,
				"y": -0.5926718963,
				"z": 2.2939780697,
				"element": "C" 
			},
			{
				"x": -0.9000602163,
				"y": -1.170914277,
				"z": 3.2744557047,
				"element": "C" 
			},
			{
				"x": 0.37571072,
				"y": -0.9198320669,
				"z": 2.9267058265,
				"element": "O" 
			},
			{
				"x": -1.2274611697,
				"y": -1.8086984543,
				"z": 4.2471911321,
				"element": "O" 
			},
			{
				"x": -1.1491645942,
				"y": 1.7172516049,
				"z": 1.6095184569,
				"element": "C" 
			},
			{
				"x": -0.6012485159,
				"y": 2.3506561488,
				"z": 0.5792867441,
				"element": "N" 
			},
			{
				"x": -0.9805728071,
				"y": -1.0195759753,
				"z": -0.7289090362,
				"element": "C" 
			},
			{
				"x": -1.4179732655,
				"y": -2.1194695572,
				"z": -0.3919201939,
				"element": "O" 
			},
			{
				"x": -0.4277428598,
				"y": -0.7778555306,
				"z": -2.0086896165,
				"element": "N" 
			},
			{
				"x": -0.368813389,
				"y": -1.8979176863,
				"z": -2.9546368001,
				"element": "C" 
			},
			{
				"x": 0.0756688823,
				"y": 0.4440487083,
				"z": -2.5003809845,
				"element": "C" 
			},
			{
				"x": 0.5253687757,
				"y": 0.5238636334,
				"z": -3.634364728,
				"element": "O" 
			},
			{
				"x": 0.8621869712,
				"y": 2.7252435601,
				"z": -3.1088884294,
				"element": "H" 
			},
			{
				"x": 1.3565434352,
				"y": 3.1610651945,
				"z": -1.4451877398,
				"element": "H" 
			},
			{
				"x": -0.2695059755,
				"y": 3.585415566,
				"z": -2.0200281593,
				"element": "H" 
			},
			{
				"x": -2.7383336741,
				"y": -0.1739672545,
				"z": 2.8778304759,
				"element": "H" 
			},
			{
				"x": -2.2989138578,
				"y": -1.4280026167,
				"z": 1.7008545147,
				"element": "H" 
			},
			{
				"x": 0.9338748292,
				"y": -1.359123098,
				"z": 3.5908240063,
				"element": "H" 
			},
			{
				"x": -1.388751193,
				"y": 2.1780171293,
				"z": 2.5585986778,
				"element": "H" 
			},
			{
				"x": -0.7811103234,
				"y": -2.7693367437,
				"z": -2.4509024424,
				"element": "H" 
			},
			{
				"x": -0.9482072331,
				"y": -1.6621470335,
				"z": -3.8497049261,
				"element": "H" 
			},
			{
				"x": 0.665647634,
				"y": -2.0786931023,
				"z": -3.2534107907,
				"element": "H" 
			}
		],
		 "valence_orbital": [ 
			{
				"type": "occ",
				"energy": -0.29042,
				"method": "rhf"
			},
			{
				"type": "occ",
				"energy": -0.28303,
				"method": "rhf"
			},
			{
				"type": "occ",
				"energy": -0.27071,
				"method": "rhf"
			},
			{
				"type": "occ",
				"energy": -0.26465,
				"method": "rhf"
			},
			{
				"type": "occ",
				"energy": -0.22432,
				"method": "rhf"
			},
			{
				"type": "unocc",
				"energy": -0.03945,
				"method": "rhf"
			},
			{
				"type": "unocc",
				"energy": -0.01117,
				"method": "rhf"
			},
			{
				"type": "unocc",
				"energy": 0.01983,
				"method": "rhf"
			},
			{
				"type": "unocc",
				"energy": 0.02778,
				"method": "rhf"
			},
			{
				"type": "unocc",
				"energy": 0.05879,
				"method": "rhf"
			}
		],
		"cosmo_sigma_profile": { 
			"-0.025": 0.0,
			"-0.024": 0.0,
			"-0.023": 0.0,
			"-0.022": 0.0,
			"-0.021": 0.0,
			"-0.02": 0.0,
			"-0.019": 0.65052934772,
			"-0.018": 1.21234032425,
			"-0.017": 0.791184660544,
			"-0.016": 0.875212926525,
			"-0.015": 0.597107343798,
			"-0.014": 0.383168302469,
			"-0.013": 0.685373890114,
			"-0.012": 2.08011884019,
			"-0.011": 4.03279957712,
			"-0.01": 4.07032498662,
			"-0.009": 4.72821555463,
			"-0.008": 4.00312210691,
			"-0.007": 4.6624557656,
			"-0.006": 10.1943405408,
			"-0.005": 16.2327739114,
			"-0.004": 19.2595011793,
			"-0.003": 26.3607052043,
			"-0.002": 25.2636432167,
			"-0.001": 16.8994519157,
			"0.0": 10.8744454433,
			"0.001": 9.313782756,
			"0.002": 10.0047951516,
			"0.003": 8.73166205649,
			"0.004": 9.47129858989,
			"0.005": 5.14874972034,
			"0.006": 7.90237480593,
			"0.007": 5.95665494767,
			"0.008": 5.08177987281,
			"0.009": 5.01383752562,
			"0.01": 7.47032732514,
			"0.011": 10.3154831423,
			"0.012": 9.3489050108,
			"0.013": 4.35173403083,
			"0.014": 0.91659512752,
			"0.015": 0.417213481036,
			"0.016": 0.0,
			"0.017": 0.0,
			"0.018": 0.0,
			"0.019": 0.0,
			"0.02": 0.0,
			"0.021": 0.0,
			"0.022": 0.0,
			"0.023": 0.0,
			"0.024": 0.0,
			"0.025": 0.0
		}
	}
}
