{
	 "smiles": "COC(=O)C(C)(C)C(CC(O)=O)C1=CC=CC=C1", 
	 "Tm": 384.15, 
	 "num_atms": 36, 
	 "gaussian": { 
		 "optdone": 1, 
		 "sigma_profile": "yes", 
		 "theory": "DFT", 
		 "functional": "B3LYP", 
		 "basiset": "6-31G**", 
		 "properties": { 
			 "R2extent": 5022.8012, 
			 "electric_dipole_moment_norm": 1.26482298366, 
			 "electric_quadrupole_moment_norm": 13.1743862753, 
			 "total_energy": -845.264496133, 
			 "HOMO_LUMO_gap": 0.23692, 
			 "cosmo_polarized_energy": -15.33, 
			 "cosmo_cavitation_energy": 37.7, 
			 "cosmo_dispersion_energy": -25.12, 
			 "cosmo_repulsion_energy": 1.95, 
			 "cosmo_total_nonelectrostatic_energy": 14.54, 
			 "SMD_solvation_energy": 8.65 
		},
		"coords": [
			{
				"x": -1.7722040373,
				"y": 3.5191492381,
				"z": 1.4821287348,
				"element": "C" 
			},
			{
				"x": -0.8363731926,
				"y": 2.9046159558,
				"z": 0.5815662899,
				"element": "O" 
			},
			{
				"x": 0.3430968713,
				"y": 2.5341020762,
				"z": 1.1373573868,
				"element": "C" 
			},
			{
				"x": 0.5973555464,
				"y": 2.7112906865,
				"z": 2.3087423362,
				"element": "O" 
			},
			{
				"x": 1.3009116767,
				"y": 1.9293170204,
				"z": 0.0979483815,
				"element": "C" 
			},
			{
				"x": 2.5927233531,
				"y": 1.5283885401,
				"z": 0.8283338512,
				"element": "C" 
			},
			{
				"x": 1.6176255471,
				"y": 3.0466157828,
				"z": -0.9275568707,
				"element": "C" 
			},
			{
				"x": 0.579840655,
				"y": 0.7147955879,
				"z": -0.6123199517,
				"element": "C" 
			},
			{
				"x": 1.3909493406,
				"y": 0.1448965986,
				"z": -1.7992205526,
				"element": "C" 
			},
			{
				"x": 1.1316089509,
				"y": 0.8581470652,
				"z": -3.1109238844,
				"element": "C" 
			},
			{
				"x": 2.1917591529,
				"y": 0.7576545942,
				"z": -3.9499445392,
				"element": "O" 
			},
			{
				"x": 0.1058316361,
				"y": 1.4201812317,
				"z": -3.4278835738,
				"element": "O" 
			},
			{
				"x": 0.1613016392,
				"y": -0.3803034257,
				"z": 0.3647887016,
				"element": "C" 
			},
			{
				"x": -1.1484131634,
				"y": -0.398293779,
				"z": 0.8669153003,
				"element": "C" 
			},
			{
				"x": -1.5668401693,
				"y": -1.3867183226,
				"z": 1.7590218702,
				"element": "C" 
			},
			{
				"x": -0.6810977047,
				"y": -2.3851792977,
				"z": 2.1652688546,
				"element": "C" 
			},
			{
				"x": 0.6230822695,
				"y": -2.3875141693,
				"z": 1.6682685773,
				"element": "C" 
			},
			{
				"x": 1.0376745935,
				"y": -1.396667452,
				"z": 0.7771352746,
				"element": "C" 
			},
			{
				"x": -2.6434068277,
				"y": 3.7686915705,
				"z": 0.8763122825,
				"element": "H" 
			},
			{
				"x": -2.0449891018,
				"y": 2.8273839771,
				"z": 2.2830897513,
				"element": "H" 
			},
			{
				"x": -1.3427190617,
				"y": 4.419809156,
				"z": 1.9275670148,
				"element": "H" 
			},
			{
				"x": 2.4021345185,
				"y": 0.8001647406,
				"z": 1.617883177,
				"element": "H" 
			},
			{
				"x": 3.0442884237,
				"y": 2.4060657085,
				"z": 1.2970928895,
				"element": "H" 
			},
			{
				"x": 3.3228075292,
				"y": 1.1095440479,
				"z": 0.128843316,
				"element": "H" 
			},
			{
				"x": 2.3947335127,
				"y": 2.7193089086,
				"z": -1.6256949806,
				"element": "H" 
			},
			{
				"x": 0.7328159823,
				"y": 3.3330049436,
				"z": -1.4986545238,
				"element": "H" 
			},
			{
				"x": 2.002707058,
				"y": 3.9329800444,
				"z": -0.4124704723,
				"element": "H" 
			},
			{
				"x": -0.3359798836,
				"y": 1.1241892804,
				"z": -1.0468893775,
				"element": "H" 
			},
			{
				"x": 2.4680262205,
				"y": 0.1134390485,
				"z": -1.6184678962,
				"element": "H" 
			},
			{
				"x": 1.0848114002,
				"y": -0.8946284207,
				"z": -1.9716600661,
				"element": "H" 
			},
			{
				"x": 1.9226935566,
				"y": 1.1924049891,
				"z": -4.7771239694,
				"element": "H" 
			},
			{
				"x": -1.8468493521,
				"y": 0.3692803108,
				"z": 0.5463361621,
				"element": "H" 
			},
			{
				"x": -2.5881559789,
				"y": -1.3801257658,
				"z": 2.129657962,
				"element": "H" 
			},
			{
				"x": -1.0046778787,
				"y": -3.1571733618,
				"z": 2.8574183891,
				"element": "H" 
			},
			{
				"x": 1.3205938773,
				"y": -3.1631571174,
				"z": 1.9720620315,
				"element": "H" 
			},
			{
				"x": 2.0552330406,
				"y": -1.4215599917,
				"z": 0.3978721236,
				"element": "H" 
			}
		],
		 "valence_orbital": [ 
			{
				"type": "occ",
				"energy": -0.29812,
				"method": "rhf"
			},
			{
				"type": "occ",
				"energy": -0.27938,
				"method": "rhf"
			},
			{
				"type": "occ",
				"energy": -0.26398,
				"method": "rhf"
			},
			{
				"type": "occ",
				"energy": -0.24879,
				"method": "rhf"
			},
			{
				"type": "occ",
				"energy": -0.24262,
				"method": "rhf"
			},
			{
				"type": "unocc",
				"energy": -0.0057,
				"method": "rhf"
			},
			{
				"type": "unocc",
				"energy": -0.00177,
				"method": "rhf"
			},
			{
				"type": "unocc",
				"energy": 0.00837,
				"method": "rhf"
			},
			{
				"type": "unocc",
				"energy": 0.016,
				"method": "rhf"
			},
			{
				"type": "unocc",
				"energy": 0.07271,
				"method": "rhf"
			}
		],
		"cosmo_sigma_profile": { 
			"-0.025": 0.0,
			"-0.024": 0.0,
			"-0.023": 0.0,
			"-0.022": 0.0,
			"-0.021": 0.0,
			"-0.02": 0.0,
			"-0.019": 0.0443205768464,
			"-0.018": 0.578364194724,
			"-0.017": 0.999824691793,
			"-0.016": 0.912420169113,
			"-0.015": 0.672965953044,
			"-0.014": 0.873264268601,
			"-0.013": 0.735373186273,
			"-0.012": 0.425251963355,
			"-0.011": 0.761839611793,
			"-0.01": 0.787944803571,
			"-0.009": 0.476993747145,
			"-0.008": 0.770155128193,
			"-0.007": 3.92368807627,
			"-0.006": 13.1609419355,
			"-0.005": 20.9480915176,
			"-0.004": 27.5448773179,
			"-0.003": 33.4555292521,
			"-0.002": 26.3394466436,
			"-0.001": 22.9209257796,
			"0.0": 22.6646158988,
			"0.001": 17.441373056,
			"0.002": 13.9428440621,
			"0.003": 13.6797215757,
			"0.004": 14.3347347577,
			"0.005": 13.1217898241,
			"0.006": 11.2746580071,
			"0.007": 5.15273042702,
			"0.008": 4.34632385693,
			"0.009": 4.30991163145,
			"0.01": 4.1153388409,
			"0.011": 6.11139847599,
			"0.012": 8.08376466636,
			"0.013": 0.887170863805,
			"0.014": 0.0,
			"0.015": 0.0,
			"0.016": 0.0,
			"0.017": 0.0,
			"0.018": 0.0,
			"0.019": 0.0,
			"0.02": 0.0,
			"0.021": 0.0,
			"0.022": 0.0,
			"0.023": 0.0,
			"0.024": 0.0,
			"0.025": 0.0
		}
	}
}
