{
	 "smiles": "CCCCCS", 
	 "Tm": 197.35, 
	 "num_atms": 18, 
	 "gaussian": { 
		 "optdone": 1, 
		 "sigma_profile": "yes", 
		 "theory": "DFT", 
		 "functional": "B3LYP", 
		 "basiset": "6-31G**", 
		 "properties": { 
			 "R2extent": 1395.5604, 
			 "electric_dipole_moment_norm": 1.9859317234, 
			 "electric_quadrupole_moment_norm": 6.77024380876, 
			 "total_energy": -595.964380673, 
			 "HOMO_LUMO_gap": 0.26082, 
			 "cosmo_polarized_energy": -4.18, 
			 "cosmo_cavitation_energy": 21.35, 
			 "cosmo_dispersion_energy": -16.02, 
			 "cosmo_repulsion_energy": 1.35, 
			 "cosmo_total_nonelectrostatic_energy": 6.67, 
			 "SMD_solvation_energy": 2.85 
		},
		"coords": [
			{
				"x": 2.2268095118,
				"y": 1.9363544999,
				"z": 1.1121094235,
				"element": "C" 
			},
			{
				"x": 2.0762860985,
				"y": 0.7430504829,
				"z": 0.1612230175,
				"element": "C" 
			},
			{
				"x": 0.944505604,
				"y": -0.2302668388,
				"z": 0.5375737987,
				"element": "C" 
			},
			{
				"x": -0.4830647318,
				"y": 0.3490954055,
				"z": 0.5228953349,
				"element": "C" 
			},
			{
				"x": -0.9495766478,
				"y": 0.7957545429,
				"z": -0.8649848184,
				"element": "C" 
			},
			{
				"x": -2.7116201858,
				"y": 1.3363339716,
				"z": -0.9348709162,
				"element": "S" 
			},
			{
				"x": 2.3795654201,
				"y": 1.6014318601,
				"z": 2.1447360705,
				"element": "H" 
			},
			{
				"x": 3.0859533537,
				"y": 2.5551135262,
				"z": 0.833451382,
				"element": "H" 
			},
			{
				"x": 1.3432022634,
				"y": 2.5833474058,
				"z": 1.103312383,
				"element": "H" 
			},
			{
				"x": 3.0180054121,
				"y": 0.1799691107,
				"z": 0.1451327758,
				"element": "H" 
			},
			{
				"x": 1.9330537143,
				"y": 1.1078888784,
				"z": -0.864095218,
				"element": "H" 
			},
			{
				"x": 0.9804332903,
				"y": -1.095187436,
				"z": -0.1388035791,
				"element": "H" 
			},
			{
				"x": 1.141591613,
				"y": -0.625269737,
				"z": 1.5433598324,
				"element": "H" 
			},
			{
				"x": -0.5532082942,
				"y": 1.195393121,
				"z": 1.2178689693,
				"element": "H" 
			},
			{
				"x": -1.1798146969,
				"y": -0.4089813918,
				"z": 0.8977847616,
				"element": "H" 
			},
			{
				"x": -0.8994267883,
				"y": -0.0378962381,
				"z": -1.5734878418,
				"element": "H" 
			},
			{
				"x": -0.3247186408,
				"y": 1.5969087384,
				"z": -1.2677463397,
				"element": "H" 
			},
			{
				"x": -2.5954762955,
				"y": 2.3712600982,
				"z": -0.0774590359,
				"element": "H" 
			}
		],
		 "valence_orbital": [ 
			{
				"type": "occ",
				"energy": -0.33662,
				"method": "rhf"
			},
			{
				"type": "occ",
				"energy": -0.32746,
				"method": "rhf"
			},
			{
				"type": "occ",
				"energy": -0.32281,
				"method": "rhf"
			},
			{
				"type": "occ",
				"energy": -0.31169,
				"method": "rhf"
			},
			{
				"type": "occ",
				"energy": -0.23302,
				"method": "rhf"
			},
			{
				"type": "unocc",
				"energy": 0.0278,
				"method": "rhf"
			},
			{
				"type": "unocc",
				"energy": 0.06976,
				"method": "rhf"
			},
			{
				"type": "unocc",
				"energy": 0.08948,
				"method": "rhf"
			},
			{
				"type": "unocc",
				"energy": 0.11501,
				"method": "rhf"
			},
			{
				"type": "unocc",
				"energy": 0.11928,
				"method": "rhf"
			}
		],
		"cosmo_sigma_profile": { 
			"-0.025": 0.0,
			"-0.024": 0.0,
			"-0.023": 0.0,
			"-0.022": 0.0,
			"-0.021": 0.0,
			"-0.02": 0.0,
			"-0.019": 0.0,
			"-0.018": 0.0,
			"-0.017": 0.0,
			"-0.016": 0.0,
			"-0.015": 0.0,
			"-0.014": 0.0,
			"-0.013": 0.0,
			"-0.012": 0.0,
			"-0.011": 0.0,
			"-0.01": 0.0,
			"-0.009": 0.307757646082,
			"-0.008": 2.23257674537,
			"-0.007": 2.06312969571,
			"-0.006": 2.07584149725,
			"-0.005": 4.52999505445,
			"-0.004": 7.77436299224,
			"-0.003": 14.7346735748,
			"-0.002": 24.4331345399,
			"-0.001": 24.7546946038,
			"0.0": 26.1976148982,
			"0.001": 21.8051330983,
			"0.002": 9.92490257999,
			"0.003": 3.08978705451,
			"0.004": 3.04255586552,
			"0.005": 3.2938994472,
			"0.006": 4.02633060505,
			"0.007": 3.63868391246,
			"0.008": 2.28694808056,
			"0.009": 2.61183363209,
			"0.01": 2.26541368931,
			"0.011": 1.90203487543,
			"0.012": 0.326132379816,
			"0.013": 0.0,
			"0.014": 0.0,
			"0.015": 0.0,
			"0.016": 0.0,
			"0.017": 0.0,
			"0.018": 0.0,
			"0.019": 0.0,
			"0.02": 0.0,
			"0.021": 0.0,
			"0.022": 0.0,
			"0.023": 0.0,
			"0.024": 0.0,
			"0.025": 0.0
		}
	}
}
