{
	 "smiles": "OCC1(CC(O)=O)CC1", 
	 "Tm": 342.15, 
	 "num_atms": 19, 
	 "gaussian": { 
		 "optdone": 1, 
		 "sigma_profile": "yes", 
		 "theory": "DFT", 
		 "functional": "B3LYP", 
		 "basiset": "6-31G**", 
		 "properties": { 
			 "R2extent": 1493.3316, 
			 "electric_dipole_moment_norm": 1.74773571801, 
			 "electric_quadrupole_moment_norm": 10.1853611144, 
			 "total_energy": -460.312458014, 
			 "HOMO_LUMO_gap": 0.2721, 
			 "cosmo_polarized_energy": -12.24, 
			 "cosmo_cavitation_energy": 22.08, 
			 "cosmo_dispersion_energy": -15.8, 
			 "cosmo_repulsion_energy": 1.31, 
			 "cosmo_total_nonelectrostatic_energy": 7.59, 
			 "SMD_solvation_energy": 4.75 
		},
		"coords": [
			{
				"x": 1.3411099436,
				"y": -1.6212961408,
				"z": 0.3595982154,
				"element": "O" 
			},
			{
				"x": 0.8736579336,
				"y": -0.6507018532,
				"z": 1.2876781943,
				"element": "C" 
			},
			{
				"x": 0.0658947031,
				"y": 0.457161956,
				"z": 0.6329341854,
				"element": "C" 
			},
			{
				"x": 0.8760572375,
				"y": 1.223000293,
				"z": -0.421164554,
				"element": "C" 
			},
			{
				"x": 0.0781076375,
				"y": 2.2528938773,
				"z": -1.1855823936,
				"element": "C" 
			},
			{
				"x": -0.3571180723,
				"y": 1.7828934433,
				"z": -2.3820870667,
				"element": "O" 
			},
			{
				"x": -0.1841009769,
				"y": 3.3727094854,
				"z": -0.7999999902,
				"element": "O" 
			},
			{
				"x": -1.4137836519,
				"y": 0.2003175856,
				"z": 0.4277480548,
				"element": "C" 
			},
			{
				"x": -0.9482143506,
				"y": 1.1779402676,
				"z": 1.4833142216,
				"element": "C" 
			},
			{
				"x": 0.5655727503,
				"y": -1.982108027,
				"z": -0.091334162,
				"element": "H" 
			},
			{
				"x": 1.7741449863,
				"y": -0.2384878738,
				"z": 1.7575021858,
				"element": "H" 
			},
			{
				"x": 0.270944552,
				"y": -1.1143507804,
				"z": 2.0850542189,
				"element": "H" 
			},
			{
				"x": 1.6893724138,
				"y": 1.7579438386,
				"z": 0.0811096375,
				"element": "H" 
			},
			{
				"x": 1.3122392594,
				"y": 0.500726941,
				"z": -1.1155885266,
				"element": "H" 
			},
			{
				"x": -0.8658455276,
				"y": 2.5077082257,
				"z": -2.7846166549,
				"element": "H" 
			},
			{
				"x": -1.8904681244,
				"y": 0.5911167429,
				"z": -0.4657552795,
				"element": "H" 
			},
			{
				"x": -1.8181902148,
				"y": -0.7529917795,
				"z": 0.7598624359,
				"element": "H" 
			},
			{
				"x": -1.0964244937,
				"y": 2.2367826271,
				"z": 1.2980463102,
				"element": "H" 
			},
			{
				"x": -1.039356005,
				"y": 0.8850411712,
				"z": 2.5258809677,
				"element": "H" 
			}
		],
		 "valence_orbital": [ 
			{
				"type": "occ",
				"energy": -0.32034,
				"method": "rhf"
			},
			{
				"type": "occ",
				"energy": -0.29703,
				"method": "rhf"
			},
			{
				"type": "occ",
				"energy": -0.28768,
				"method": "rhf"
			},
			{
				"type": "occ",
				"energy": -0.27744,
				"method": "rhf"
			},
			{
				"type": "occ",
				"energy": -0.26973,
				"method": "rhf"
			},
			{
				"type": "unocc",
				"energy": 0.00237,
				"method": "rhf"
			},
			{
				"type": "unocc",
				"energy": 0.06884,
				"method": "rhf"
			},
			{
				"type": "unocc",
				"energy": 0.07861,
				"method": "rhf"
			},
			{
				"type": "unocc",
				"energy": 0.10053,
				"method": "rhf"
			},
			{
				"type": "unocc",
				"energy": 0.11538,
				"method": "rhf"
			}
		],
		"cosmo_sigma_profile": { 
			"-0.025": 0.0,
			"-0.024": 0.0,
			"-0.023": 0.0,
			"-0.022": 0.0,
			"-0.021": 0.0,
			"-0.02": 0.0,
			"-0.019": 0.0,
			"-0.018": 0.617549569679,
			"-0.017": 0.794884072926,
			"-0.016": 1.16371703515,
			"-0.015": 0.980782224455,
			"-0.014": 1.49064132313,
			"-0.013": 1.56373132601,
			"-0.012": 0.910430808405,
			"-0.011": 1.6532217774,
			"-0.01": 2.15055493075,
			"-0.009": 1.37982914993,
			"-0.008": 1.81268774634,
			"-0.007": 2.17662283618,
			"-0.006": 3.35540961857,
			"-0.005": 11.9781170706,
			"-0.004": 16.8490896113,
			"-0.003": 14.4619762237,
			"-0.002": 14.1172667543,
			"-0.001": 12.1887467247,
			"0.0": 12.8221290254,
			"0.001": 9.50222086397,
			"0.002": 8.56168950973,
			"0.003": 7.57066131943,
			"0.004": 5.5048534448,
			"0.005": 5.30105357331,
			"0.006": 3.81259060209,
			"0.007": 3.51058539305,
			"0.008": 3.74402445569,
			"0.009": 4.21787687206,
			"0.01": 3.91159049288,
			"0.011": 4.36011941153,
			"0.012": 4.85874765302,
			"0.013": 2.35308444493,
			"0.014": 1.86577663294,
			"0.015": 0.490380708659,
			"0.016": 0.0,
			"0.017": 0.0,
			"0.018": 0.0,
			"0.019": 0.0,
			"0.02": 0.0,
			"0.021": 0.0,
			"0.022": 0.0,
			"0.023": 0.0,
			"0.024": 0.0,
			"0.025": 0.0
		}
	}
}
