{
	 "smiles": "O=C(N(CC1=CC=CC=C1C1=CC=CC=C1)C(=O)C1=CC=CC=C1)C1=CC=CC=C1", 
	 "Tm": 421.5, 
	 "num_atms": 51, 
	 "gaussian": { 
		 "optdone": 1, 
		 "sigma_profile": "yes", 
		 "theory": "DFT", 
		 "functional": "B3LYP", 
		 "basiset": "6-31G**", 
		 "properties": { 
			 "R2extent": 11296.5199, 
			 "electric_dipole_moment_norm": 3.67715305909, 
			 "electric_quadrupole_moment_norm": 7.52354935851, 
			 "total_energy": -1246.74335595, 
			 "HOMO_LUMO_gap": 0.16802, 
			 "cosmo_polarized_energy": -15.15, 
			 "cosmo_cavitation_energy": 54.76, 
			 "cosmo_dispersion_energy": -34.59, 
			 "cosmo_repulsion_energy": 2.62, 
			 "cosmo_total_nonelectrostatic_energy": 22.79, 
			 "SMD_solvation_energy": 9.46 
		},
		"coords": [
			{
				"x": 0.8116334003,
				"y": -1.3316548264,
				"z": -1.1511337006,
				"element": "O" 
			},
			{
				"x": 0.0002216471,
				"y": -0.5209488089,
				"z": -0.7499945209,
				"element": "C" 
			},
			{
				"x": -0.8159213101,
				"y": -0.7679117242,
				"z": 0.4107677837,
				"element": "N" 
			},
			{
				"x": -0.6321437005,
				"y": 0.146549405,
				"z": 1.570857484,
				"element": "C" 
			},
			{
				"x": 0.3265381001,
				"y": -0.4175651876,
				"z": 2.6083389431,
				"element": "C" 
			},
			{
				"x": -0.1681901473,
				"y": -1.3417186724,
				"z": 3.5414227948,
				"element": "C" 
			},
			{
				"x": 0.6692761523,
				"y": -1.9427157599,
				"z": 4.4786990706,
				"element": "C" 
			},
			{
				"x": 2.0283283212,
				"y": -1.6288281625,
				"z": 4.4932423388,
				"element": "C" 
			},
			{
				"x": 2.5311969854,
				"y": -0.706205582,
				"z": 3.5788621842,
				"element": "C" 
			},
			{
				"x": 1.6985058845,
				"y": -0.0813052491,
				"z": 2.6355184581,
				"element": "C" 
			},
			{
				"x": 2.3180196219,
				"y": 0.9209283234,
				"z": 1.7153883002,
				"element": "C" 
			},
			{
				"x": 1.9774073952,
				"y": 2.2819314879,
				"z": 1.7851892784,
				"element": "C" 
			},
			{
				"x": 2.6023561452,
				"y": 3.2186597886,
				"z": 0.9614270461,
				"element": "C" 
			},
			{
				"x": 3.5841802199,
				"y": 2.8121674424,
				"z": 0.0558167623,
				"element": "C" 
			},
			{
				"x": 3.9357000848,
				"y": 1.4631969798,
				"z": -0.0204243864,
				"element": "C" 
			},
			{
				"x": 3.3082918479,
				"y": 0.5260446146,
				"z": 0.8020218395,
				"element": "C" 
			},
			{
				"x": -1.8188908679,
				"y": -1.730585729,
				"z": 0.5071343809,
				"element": "C" 
			},
			{
				"x": -2.5612736914,
				"y": -1.7435565016,
				"z": 1.4859320438,
				"element": "O" 
			},
			{
				"x": -2.0684963047,
				"y": -2.691660266,
				"z": -0.6223272666,
				"element": "C" 
			},
			{
				"x": -3.4065997272,
				"y": -2.8395421735,
				"z": -1.0223287031,
				"element": "C" 
			},
			{
				"x": -3.7517135037,
				"y": -3.7619774829,
				"z": -2.0060764836,
				"element": "C" 
			},
			{
				"x": -2.7686199248,
				"y": -4.5764161814,
				"z": -2.5746484003,
				"element": "C" 
			},
			{
				"x": -1.443714133,
				"y": -4.460189102,
				"z": -2.1542083022,
				"element": "C" 
			},
			{
				"x": -1.0879872077,
				"y": -3.5197943049,
				"z": -1.1853835646,
				"element": "C" 
			},
			{
				"x": -0.2079023905,
				"y": 0.790110392,
				"z": -1.4343938546,
				"element": "C" 
			},
			{
				"x": -1.393171323,
				"y": 1.527386717,
				"z": -1.2907282709,
				"element": "C" 
			},
			{
				"x": -1.5740561329,
				"y": 2.7085793083,
				"z": -2.0085532993,
				"element": "C" 
			},
			{
				"x": -0.5717682452,
				"y": 3.1641141306,
				"z": -2.8678330253,
				"element": "C" 
			},
			{
				"x": 0.6104868005,
				"y": 2.432627116,
				"z": -3.0162903559,
				"element": "C" 
			},
			{
				"x": 0.7898254583,
				"y": 1.2477192481,
				"z": -2.3091145619,
				"element": "C" 
			},
			{
				"x": -0.2694562027,
				"y": 1.0953645588,
				"z": 1.1795543505,
				"element": "H" 
			},
			{
				"x": -1.6174959144,
				"y": 0.3000504316,
				"z": 2.0140836136,
				"element": "H" 
			},
			{
				"x": -1.2214176409,
				"y": -1.5992763637,
				"z": 3.5043894582,
				"element": "H" 
			},
			{
				"x": 0.2616871229,
				"y": -2.6542709194,
				"z": 5.1910568597,
				"element": "H" 
			},
			{
				"x": 2.6930533924,
				"y": -2.0914864087,
				"z": 5.2173389115,
				"element": "H" 
			},
			{
				"x": 3.5848213477,
				"y": -0.4424809832,
				"z": 3.5985928375,
				"element": "H" 
			},
			{
				"x": 1.2325083625,
				"y": 2.6073501638,
				"z": 2.506511611,
				"element": "H" 
			},
			{
				"x": 2.3285824478,
				"y": 4.26746671,
				"z": 1.034204018,
				"element": "H" 
			},
			{
				"x": 4.0735995937,
				"y": 3.5418595392,
				"z": -0.5829006082,
				"element": "H" 
			},
			{
				"x": 4.6994574379,
				"y": 1.1375480929,
				"z": -0.7212880417,
				"element": "H" 
			},
			{
				"x": 3.5751873746,
				"y": -0.5242609182,
				"z": 0.7327006486,
				"element": "H" 
			},
			{
				"x": -4.1669835556,
				"y": -2.2291847763,
				"z": -0.5461592816,
				"element": "H" 
			},
			{
				"x": -4.7873180436,
				"y": -3.854970097,
				"z": -2.3202215242,
				"element": "H" 
			},
			{
				"x": -3.0371839045,
				"y": -5.304027795,
				"z": -3.3354149591,
				"element": "H" 
			},
			{
				"x": -0.6789452877,
				"y": -5.1036743896,
				"z": -2.5793578763,
				"element": "H" 
			},
			{
				"x": -0.057804536,
				"y": -3.4283905208,
				"z": -0.8678683373,
				"element": "H" 
			},
			{
				"x": -2.1765914352,
				"y": 1.1657954738,
				"z": -0.6326269277,
				"element": "H" 
			},
			{
				"x": -2.4971322588,
				"y": 3.2702922204,
				"z": -1.9010314615,
				"element": "H" 
			},
			{
				"x": -0.7127015342,
				"y": 4.0865769861,
				"z": -3.424000001,
				"element": "H" 
			},
			{
				"x": 1.388869852,
				"y": 2.7869394722,
				"z": -3.6854825453,
				"element": "H" 
			},
			{
				"x": 1.6957439276,
				"y": 0.6616402835,
				"z": -2.4146607572,
				"element": "H" 
			}
		],
		 "valence_orbital": [ 
			{
				"type": "occ",
				"energy": -0.25238,
				"method": "rhf"
			},
			{
				"type": "occ",
				"energy": -0.24782,
				"method": "rhf"
			},
			{
				"type": "occ",
				"energy": -0.24227,
				"method": "rhf"
			},
			{
				"type": "occ",
				"energy": -0.2398,
				"method": "rhf"
			},
			{
				"type": "occ",
				"energy": -0.23225,
				"method": "rhf"
			},
			{
				"type": "unocc",
				"energy": -0.06423,
				"method": "rhf"
			},
			{
				"type": "unocc",
				"energy": -0.02512,
				"method": "rhf"
			},
			{
				"type": "unocc",
				"energy": -0.01656,
				"method": "rhf"
			},
			{
				"type": "unocc",
				"energy": -0.01426,
				"method": "rhf"
			},
			{
				"type": "unocc",
				"energy": -0.0083,
				"method": "rhf"
			}
		],
		"cosmo_sigma_profile": { 
			"-0.025": 0.0,
			"-0.024": 0.0,
			"-0.023": 0.0,
			"-0.022": 0.0,
			"-0.021": 0.0,
			"-0.02": 0.0,
			"-0.019": 0.0,
			"-0.018": 0.0,
			"-0.017": 0.0,
			"-0.016": 0.0,
			"-0.015": 0.0,
			"-0.014": 0.0,
			"-0.013": 0.0,
			"-0.012": 0.0,
			"-0.011": 0.0,
			"-0.01": 0.0,
			"-0.009": 0.0,
			"-0.008": 0.0,
			"-0.007": 3.40123380892,
			"-0.006": 25.3477608863,
			"-0.005": 41.0540691932,
			"-0.004": 43.4555872533,
			"-0.003": 38.1991497781,
			"-0.002": 29.88727305,
			"-0.001": 29.0721200234,
			"0.0": 28.0198626204,
			"0.001": 30.0068426255,
			"0.002": 36.3262464082,
			"0.003": 39.296133817,
			"0.004": 39.919308356,
			"0.005": 25.3932196452,
			"0.006": 8.46029760488,
			"0.007": 4.29517792131,
			"0.008": 3.21259418549,
			"0.009": 2.87860196256,
			"0.01": 3.79215256461,
			"0.011": 3.00125921519,
			"0.012": 2.27917739932,
			"0.013": 1.79485055844,
			"0.014": 0.381580627802,
			"0.015": 0.0,
			"0.016": 0.0,
			"0.017": 0.0,
			"0.018": 0.0,
			"0.019": 0.0,
			"0.02": 0.0,
			"0.021": 0.0,
			"0.022": 0.0,
			"0.023": 0.0,
			"0.024": 0.0,
			"0.025": 0.0
		}
	}
}
