{
	 "smiles": "NC1=NC(=O)C2=C(N1)N=NN2", 
	 "Tm": 573.15, 
	 "num_atms": 15, 
	 "gaussian": { 
		 "optdone": 1, 
		 "sigma_profile": "yes", 
		 "theory": "DFT", 
		 "functional": "B3LYP", 
		 "basiset": "6-31G**", 
		 "properties": { 
			 "R2extent": 1991.9727, 
			 "electric_dipole_moment_norm": 4.69048798847, 
			 "electric_quadrupole_moment_norm": 24.2896808843, 
			 "total_energy": -558.539571843, 
			 "HOMO_LUMO_gap": 0.19626, 
			 "cosmo_polarized_energy": -28.65, 
			 "cosmo_cavitation_energy": 20.45, 
			 "cosmo_dispersion_energy": -15.83, 
			 "cosmo_repulsion_energy": 1.28, 
			 "cosmo_total_nonelectrostatic_energy": 5.89, 
			 "SMD_solvation_energy": 1.2 
		},
		"coords": [
			{
				"x": -3.9144212009,
				"y": -0.8523874079,
				"z": 0.6944150479,
				"element": "N" 
			},
			{
				"x": -2.7725567796,
				"y": -0.4373232677,
				"z": 0.0521853202,
				"element": "C" 
			},
			{
				"x": -2.8754145518,
				"y": 0.1926865872,
				"z": -1.0866981496,
				"element": "N" 
			},
			{
				"x": -1.7577160298,
				"y": 0.5727146826,
				"z": -1.8372100044,
				"element": "C" 
			},
			{
				"x": -1.8275603824,
				"y": 1.1376506781,
				"z": -2.9191283782,
				"element": "O" 
			},
			{
				"x": -0.4915979565,
				"y": 0.2326611633,
				"z": -1.1819058118,
				"element": "C" 
			},
			{
				"x": -0.4256137131,
				"y": -0.4250551013,
				"z": 0.025236275,
				"element": "C" 
			},
			{
				"x": -1.5868723485,
				"y": -0.7708336154,
				"z": 0.6821357353,
				"element": "N" 
			},
			{
				"x": 0.8596249936,
				"y": -0.6367695161,
				"z": 0.3928045467,
				"element": "N" 
			},
			{
				"x": 1.6212370181,
				"y": -0.1283577411,
				"z": -0.5544467789,
				"element": "N" 
			},
			{
				"x": 0.8193215279,
				"y": 0.393869309,
				"z": -1.4979955621,
				"element": "N" 
			},
			{
				"x": -3.9125792636,
				"y": -0.8780592556,
				"z": 1.7043995763,
				"element": "H" 
			},
			{
				"x": -4.7536778204,
				"y": -0.4715558678,
				"z": 0.279866438,
				"element": "H" 
			},
			{
				"x": -1.5578988981,
				"y": -1.3893715103,
				"z": 1.4802251547,
				"element": "H" 
			},
			{
				"x": 1.2147254051,
				"y": 0.836030863,
				"z": -2.3163834092,
				"element": "H" 
			}
		],
		 "valence_orbital": [ 
			{
				"type": "occ",
				"energy": -0.29908,
				"method": "rhf"
			},
			{
				"type": "occ",
				"energy": -0.28368,
				"method": "rhf"
			},
			{
				"type": "occ",
				"energy": -0.26821,
				"method": "rhf"
			},
			{
				"type": "occ",
				"energy": -0.24985,
				"method": "rhf"
			},
			{
				"type": "occ",
				"energy": -0.2454,
				"method": "rhf"
			},
			{
				"type": "unocc",
				"energy": -0.04914,
				"method": "rhf"
			},
			{
				"type": "unocc",
				"energy": -0.00257,
				"method": "rhf"
			},
			{
				"type": "unocc",
				"energy": 0.0239,
				"method": "rhf"
			},
			{
				"type": "unocc",
				"energy": 0.04131,
				"method": "rhf"
			},
			{
				"type": "unocc",
				"energy": 0.07563,
				"method": "rhf"
			}
		],
		"cosmo_sigma_profile": { 
			"-0.025": 0.0,
			"-0.024": 0.0,
			"-0.023": 0.0,
			"-0.022": 0.0,
			"-0.021": 0.0,
			"-0.02": 0.0,
			"-0.019": 0.723504541576,
			"-0.018": 3.77906970745,
			"-0.017": 3.15283357387,
			"-0.016": 2.85372031587,
			"-0.015": 3.29152116769,
			"-0.014": 3.85915030293,
			"-0.013": 4.37747495055,
			"-0.012": 3.24856210156,
			"-0.011": 4.16653917593,
			"-0.01": 2.6219900495,
			"-0.009": 3.27793930441,
			"-0.008": 3.22464759976,
			"-0.007": 2.41538731498,
			"-0.006": 2.16937426607,
			"-0.005": 4.25055684143,
			"-0.004": 6.9153752595,
			"-0.003": 8.59586398534,
			"-0.002": 12.6311822782,
			"-0.001": 7.46115274371,
			"0.0": 6.07082199685,
			"0.001": 4.16497762952,
			"0.002": 3.86678326612,
			"0.003": 4.74872793447,
			"0.004": 5.00604759735,
			"0.005": 3.35416760825,
			"0.006": 4.18721558352,
			"0.007": 5.68412788352,
			"0.008": 4.84455722354,
			"0.009": 5.16602503322,
			"0.01": 5.09772843883,
			"0.011": 5.31472391791,
			"0.012": 5.75045201136,
			"0.013": 7.68603658027,
			"0.014": 5.21754892369,
			"0.015": 3.1148400409,
			"0.016": 1.7440298883,
			"0.017": 0.0,
			"0.018": 0.0,
			"0.019": 0.0,
			"0.02": 0.0,
			"0.021": 0.0,
			"0.022": 0.0,
			"0.023": 0.0,
			"0.024": 0.0,
			"0.025": 0.0
		}
	}
}
