{
	 "smiles": "OC(=O)C1=C(Cl)C=NC=N1", 
	 "Tm": 427.15, 
	 "num_atms": 13, 
	 "gaussian": { 
		 "optdone": 1, 
		 "sigma_profile": "yes", 
		 "theory": "DFT", 
		 "functional": "B3LYP", 
		 "basiset": "6-31G**", 
		 "properties": { 
			 "R2extent": 2320.9078, 
			 "electric_dipole_moment_norm": 1.87123878754, 
			 "electric_quadrupole_moment_norm": 10.2139175442, 
			 "total_energy": -912.469099915, 
			 "HOMO_LUMO_gap": 0.19538, 
			 "cosmo_polarized_energy": -11.83, 
			 "cosmo_cavitation_energy": 20.55, 
			 "cosmo_dispersion_energy": -15.28, 
			 "cosmo_repulsion_energy": 1.25, 
			 "cosmo_total_nonelectrostatic_energy": 6.52, 
			 "SMD_solvation_energy": 2.05 
		},
		"coords": [
			{
				"x": -1.3661461974,
				"y": 3.1076420767,
				"z": 2.099898151,
				"element": "O" 
			},
			{
				"x": -0.4301316335,
				"y": 3.2062533626,
				"z": 1.1371855344,
				"element": "C" 
			},
			{
				"x": 0.007829793,
				"y": 4.2476537857,
				"z": 0.713954575,
				"element": "O" 
			},
			{
				"x": 0.0395378597,
				"y": 1.8495318433,
				"z": 0.6616468214,
				"element": "C" 
			},
			{
				"x": -0.804388221,
				"y": 0.85884329,
				"z": 0.146859941,
				"element": "C" 
			},
			{
				"x": -2.5293802361,
				"y": 1.0539019257,
				"z": -0.0082684063,
				"element": "Cl" 
			},
			{
				"x": -0.2046354675,
				"y": -0.3251794395,
				"z": -0.2922730857,
				"element": "C" 
			},
			{
				"x": 1.1118943724,
				"y": -0.5209091826,
				"z": -0.2200025033,
				"element": "N" 
			},
			{
				"x": 1.8301751124,
				"y": 0.4888683089,
				"z": 0.2856074469,
				"element": "C" 
			},
			{
				"x": 1.3639094908,
				"y": 1.660116443,
				"z": 0.7183015537,
				"element": "N" 
			},
			{
				"x": -1.6123063331,
				"y": 4.0169830788,
				"z": 2.3434901748,
				"element": "H" 
			},
			{
				"x": -0.812667965,
				"y": -1.124550493,
				"z": -0.7097126036,
				"element": "H" 
			},
			{
				"x": 2.9056094253,
				"y": 0.3416450005,
				"z": 0.3471124008,
				"element": "H" 
			}
		],
		 "valence_orbital": [ 
			{
				"type": "occ",
				"energy": -0.33344,
				"method": "rhf"
			},
			{
				"type": "occ",
				"energy": -0.32864,
				"method": "rhf"
			},
			{
				"type": "occ",
				"energy": -0.30127,
				"method": "rhf"
			},
			{
				"type": "occ",
				"energy": -0.28659,
				"method": "rhf"
			},
			{
				"type": "occ",
				"energy": -0.27268,
				"method": "rhf"
			},
			{
				"type": "unocc",
				"energy": -0.0773,
				"method": "rhf"
			},
			{
				"type": "unocc",
				"energy": -0.05484,
				"method": "rhf"
			},
			{
				"type": "unocc",
				"energy": 0.00182,
				"method": "rhf"
			},
			{
				"type": "unocc",
				"energy": 0.00952,
				"method": "rhf"
			},
			{
				"type": "unocc",
				"energy": 0.06642,
				"method": "rhf"
			}
		],
		"cosmo_sigma_profile": { 
			"-0.025": 0.0,
			"-0.024": 0.0,
			"-0.023": 0.0,
			"-0.022": 0.0,
			"-0.021": 0.0,
			"-0.02": 0.0804928553859,
			"-0.019": 1.02691433413,
			"-0.018": 0.927008052638,
			"-0.017": 1.20330369321,
			"-0.016": 0.630293032825,
			"-0.015": 0.785993318157,
			"-0.014": 0.0313546526541,
			"-0.013": 0.970420753521,
			"-0.012": 1.85108156866,
			"-0.011": 0.166293896396,
			"-0.01": 1.02186957857,
			"-0.009": 4.36517199581,
			"-0.008": 4.37504945432,
			"-0.007": 3.95052345227,
			"-0.006": 5.24108344353,
			"-0.005": 8.13711017438,
			"-0.004": 10.832204385,
			"-0.003": 14.6385031309,
			"-0.002": 12.4795288917,
			"-0.001": 9.35552972329,
			"0.0": 10.1569909594,
			"0.001": 10.6166621104,
			"0.002": 10.1267761094,
			"0.003": 9.80350950462,
			"0.004": 6.03061027316,
			"0.005": 5.17475449579,
			"0.006": 3.8736822889,
			"0.007": 5.07419548008,
			"0.008": 5.04874093435,
			"0.009": 4.2463823473,
			"0.01": 6.96510864427,
			"0.011": 5.14139231207,
			"0.012": 2.28734252476,
			"0.013": 1.17147133804,
			"0.014": 0.373643719238,
			"0.015": 0.0,
			"0.016": 0.0,
			"0.017": 0.0,
			"0.018": 0.0,
			"0.019": 0.0,
			"0.02": 0.0,
			"0.021": 0.0,
			"0.022": 0.0,
			"0.023": 0.0,
			"0.024": 0.0,
			"0.025": 0.0
		}
	}
}
