{
	 "smiles": "CC1=CC(C(O)=O)=C(SC2CCCC2)C=C1", 
	 "Tm": 404.15, 
	 "num_atms": 32, 
	 "gaussian": { 
		 "optdone": 1, 
		 "sigma_profile": "yes", 
		 "theory": "DFT", 
		 "functional": "B3LYP", 
		 "basiset": "6-31G**", 
		 "properties": { 
			 "R2extent": 4748.671, 
			 "electric_dipole_moment_norm": 2.53559822922, 
			 "electric_quadrupole_moment_norm": 13.8651523836, 
			 "total_energy": -1053.68540887, 
			 "HOMO_LUMO_gap": 0.16945, 
			 "cosmo_polarized_energy": -10.5, 
			 "cosmo_cavitation_energy": 35.15, 
			 "cosmo_dispersion_energy": -25.4, 
			 "cosmo_repulsion_energy": 1.96, 
			 "cosmo_total_nonelectrostatic_energy": 11.72, 
			 "SMD_solvation_energy": 6.18 
		},
		"coords": [
			{
				"x": 2.0667966567,
				"y": -2.2822551149,
				"z": -3.4400242417,
				"element": "C" 
			},
			{
				"x": 1.7332351786,
				"y": -1.5953843199,
				"z": -2.1376981491,
				"element": "C" 
			},
			{
				"x": 0.8889685931,
				"y": -2.1949356732,
				"z": -1.2017375382,
				"element": "C" 
			},
			{
				"x": 0.5290706619,
				"y": -1.5668061831,
				"z": 0.0008021596,
				"element": "C" 
			},
			{
				"x": -0.3792889427,
				"y": -2.3847527484,
				"z": 0.8647958033,
				"element": "C" 
			},
			{
				"x": -1.2179917613,
				"y": -1.6712825444,
				"z": 1.6484660638,
				"element": "O" 
			},
			{
				"x": -0.4153020752,
				"y": -3.5997981869,
				"z": 0.8396479206,
				"element": "O" 
			},
			{
				"x": 1.0567500038,
				"y": -0.2890681,
				"z": 0.3046244814,
				"element": "C" 
			},
			{
				"x": 0.8493337268,
				"y": 0.5730004498,
				"z": 1.8684901196,
				"element": "S" 
			},
			{
				"x": -0.7755257809,
				"y": 1.4607507285,
				"z": 1.6563439684,
				"element": "C" 
			},
			{
				"x": -1.01392342,
				"y": 2.3078887018,
				"z": 2.9224534832,
				"element": "C" 
			},
			{
				"x": -0.2936891363,
				"y": 3.6596880205,
				"z": 2.6716098012,
				"element": "C" 
			},
			{
				"x": -0.0329013227,
				"y": 3.7307047948,
				"z": 1.1386616083,
				"element": "C" 
			},
			{
				"x": -0.7623778879,
				"y": 2.5113028928,
				"z": 0.5367923038,
				"element": "C" 
			},
			{
				"x": 1.9250865545,
				"y": 0.2978714839,
				"z": -0.6292655978,
				"element": "C" 
			},
			{
				"x": 2.2499082992,
				"y": -0.3319417759,
				"z": -1.8283529909,
				"element": "C" 
			},
			{
				"x": 3.0981098088,
				"y": -2.0802193439,
				"z": -3.7452600642,
				"element": "H" 
			},
			{
				"x": 1.4141046078,
				"y": -1.9313724593,
				"z": -4.2490943306,
				"element": "H" 
			},
			{
				"x": 1.939706895,
				"y": -3.3655769775,
				"z": -3.3637885899,
				"element": "H" 
			},
			{
				"x": 0.4898984182,
				"y": -3.1872035555,
				"z": -1.3865932304,
				"element": "H" 
			},
			{
				"x": -1.7314096521,
				"y": -2.3304923068,
				"z": 2.1456424097,
				"element": "H" 
			},
			{
				"x": -1.5323721033,
				"y": 0.6881872382,
				"z": 1.5177276623,
				"element": "H" 
			},
			{
				"x": -0.6869267513,
				"y": 1.8085593036,
				"z": 3.839724173,
				"element": "H" 
			},
			{
				"x": -2.0950654019,
				"y": 2.4656293063,
				"z": 3.0166386135,
				"element": "H" 
			},
			{
				"x": 0.6485637374,
				"y": 3.7083526667,
				"z": 3.2248464635,
				"element": "H" 
			},
			{
				"x": -0.9065029709,
				"y": 4.4968474141,
				"z": 3.0199822392,
				"element": "H" 
			},
			{
				"x": 1.0401163873,
				"y": 3.6602320112,
				"z": 0.9376809251,
				"element": "H" 
			},
			{
				"x": -0.3802313647,
				"y": 4.669902244,
				"z": 0.6974731336,
				"element": "H" 
			},
			{
				"x": -0.313000583,
				"y": 2.1494197328,
				"z": -0.3922476494,
				"element": "H" 
			},
			{
				"x": -1.8066374731,
				"y": 2.767349211,
				"z": 0.3095394292,
				"element": "H" 
			},
			{
				"x": 2.3608190422,
				"y": 1.262403367,
				"z": -0.3911514528,
				"element": "H" 
			},
			{
				"x": 2.923878056,
				"y": 0.161399723,
				"z": -2.5246289272,
				"element": "H" 
			}
		],
		 "valence_orbital": [ 
			{
				"type": "occ",
				"energy": -0.30157,
				"method": "rhf"
			},
			{
				"type": "occ",
				"energy": -0.28028,
				"method": "rhf"
			},
			{
				"type": "occ",
				"energy": -0.25888,
				"method": "rhf"
			},
			{
				"type": "occ",
				"energy": -0.24738,
				"method": "rhf"
			},
			{
				"type": "occ",
				"energy": -0.2182,
				"method": "rhf"
			},
			{
				"type": "unocc",
				"energy": -0.04875,
				"method": "rhf"
			},
			{
				"type": "unocc",
				"energy": -0.01675,
				"method": "rhf"
			},
			{
				"type": "unocc",
				"energy": 0.04022,
				"method": "rhf"
			},
			{
				"type": "unocc",
				"energy": 0.05347,
				"method": "rhf"
			},
			{
				"type": "unocc",
				"energy": 0.07099,
				"method": "rhf"
			}
		],
		"cosmo_sigma_profile": { 
			"-0.025": 0.0,
			"-0.024": 0.0,
			"-0.023": 0.0,
			"-0.022": 0.0,
			"-0.021": 0.0,
			"-0.02": 0.0,
			"-0.019": 0.00840993203965,
			"-0.018": 0.620246895916,
			"-0.017": 1.43158696427,
			"-0.016": 0.576855869122,
			"-0.015": 0.730758809594,
			"-0.014": 0.154145420397,
			"-0.013": 0.927375559774,
			"-0.012": 0.597816879404,
			"-0.011": 1.22931108834,
			"-0.01": 1.04477673473,
			"-0.009": 0.276098555251,
			"-0.008": 0.406513009044,
			"-0.007": 1.25864808807,
			"-0.006": 4.86812804328,
			"-0.005": 10.023380912,
			"-0.004": 13.777771172,
			"-0.003": 22.8233602033,
			"-0.002": 33.9337178729,
			"-0.001": 40.5066905953,
			"0.0": 35.4674108782,
			"0.001": 30.8063270612,
			"0.002": 17.7052630942,
			"0.003": 16.7224758348,
			"0.004": 8.31632908629,
			"0.005": 5.91608257222,
			"0.006": 4.74853113554,
			"0.007": 3.99298263672,
			"0.008": 3.5302387302,
			"0.009": 3.62214789565,
			"0.01": 3.26476354465,
			"0.011": 4.25255339005,
			"0.012": 4.16933164918,
			"0.013": 0.172727085465,
			"0.014": 0.0,
			"0.015": 0.0,
			"0.016": 0.0,
			"0.017": 0.0,
			"0.018": 0.0,
			"0.019": 0.0,
			"0.02": 0.0,
			"0.021": 0.0,
			"0.022": 0.0,
			"0.023": 0.0,
			"0.024": 0.0,
			"0.025": 0.0
		}
	}
}
