{
	 "smiles": "CC12CCC3C(CC[C@H]4CC(=O)CCC34C)[C@]1(O)CCC2=O", 
	 "Tm": 499.15, 
	 "num_atms": 50, 
	 "gaussian": { 
		 "optdone": 1, 
		 "sigma_profile": "yes", 
		 "theory": "DFT", 
		 "functional": "B3LYP", 
		 "basiset": "6-31G**", 
		 "properties": { 
			 "R2extent": 7296.4057, 
			 "electric_dipole_moment_norm": 3.05270016051, 
			 "electric_quadrupole_moment_norm": 29.9901713335, 
			 "total_energy": -966.585082273, 
			 "HOMO_LUMO_gap": 0.20957, 
			 "cosmo_polarized_energy": -17.51, 
			 "cosmo_cavitation_energy": 43.28, 
			 "cosmo_dispersion_energy": -30.44, 
			 "cosmo_repulsion_energy": 2.23, 
			 "cosmo_total_nonelectrostatic_energy": 15.07, 
			 "SMD_solvation_energy": 7.06 
		},
		"coords": [
			{
				"x": -2.8919536372,
				"y": 2.8092803688,
				"z": 1.6638898801,
				"element": "C" 
			},
			{
				"x": -2.1297979523,
				"y": 1.4776741978,
				"z": 1.8319741663,
				"element": "C" 
			},
			{
				"x": -2.6499437716,
				"y": 0.4304832541,
				"z": 0.8165758592,
				"element": "C" 
			},
			{
				"x": -1.8848959926,
				"y": 0.4962473953,
				"z": -0.5097669668,
				"element": "C" 
			},
			{
				"x": -0.3514414943,
				"y": 0.2687996749,
				"z": -0.3495611232,
				"element": "C" 
			},
			{
				"x": 0.0894263905,
				"y": 0.4171351028,
				"z": 1.1380941575,
				"element": "C" 
			},
			{
				"x": 1.6234060597,
				"y": 0.3887786118,
				"z": 1.2446925364,
				"element": "C" 
			},
			{
				"x": 2.2111283342,
				"y": -0.871362005,
				"z": 0.5960257398,
				"element": "C" 
			},
			{
				"x": 1.7497270779,
				"y": -1.0267645199,
				"z": -0.8576528465,
				"element": "C" 
			},
			{
				"x": 2.4336191351,
				"y": -2.2198531092,
				"z": -1.5578165047,
				"element": "C" 
			},
			{
				"x": 2.0491522395,
				"y": -2.3158393686,
				"z": -3.0264952435,
				"element": "C" 
			},
			{
				"x": 2.8711874948,
				"y": -2.4974066959,
				"z": -3.9052374797,
				"element": "O" 
			},
			{
				"x": 0.5625405912,
				"y": -2.1721814741,
				"z": -3.318878856,
				"element": "C" 
			},
			{
				"x": -0.104543896,
				"y": -1.0257261851,
				"z": -2.5294269142,
				"element": "C" 
			},
			{
				"x": 0.194619865,
				"y": -1.0454354444,
				"z": -1.0057108282,
				"element": "C" 
			},
			{
				"x": -0.447659921,
				"y": -2.2959792411,
				"z": -0.3661040091,
				"element": "C" 
			},
			{
				"x": -0.566022323,
				"y": 1.6822568051,
				"z": 1.7521826631,
				"element": "C" 
			},
			{
				"x": -0.164341881,
				"y": 2.7589272883,
				"z": 0.9050819457,
				"element": "O" 
			},
			{
				"x": -0.1635250904,
				"y": 1.9542325849,
				"z": 3.2282920375,
				"element": "C" 
			},
			{
				"x": -1.0801682983,
				"y": 1.073926508,
				"z": 4.0821804485,
				"element": "C" 
			},
			{
				"x": -2.3718514994,
				"y": 0.9818482002,
				"z": 3.2701488819,
				"element": "C" 
			},
			{
				"x": -3.4375258535,
				"y": 0.5805984318,
				"z": 3.6876115296,
				"element": "O" 
			},
			{
				"x": -2.7958677489,
				"y": 3.183229639,
				"z": 0.6404626902,
				"element": "H" 
			},
			{
				"x": -3.950972897,
				"y": 2.6497538659,
				"z": 1.8831298988,
				"element": "H" 
			},
			{
				"x": -2.5337773413,
				"y": 3.5896905092,
				"z": 2.3466678789,
				"element": "H" 
			},
			{
				"x": -2.5646576006,
				"y": -0.5755164925,
				"z": 1.2427964465,
				"element": "H" 
			},
			{
				"x": -3.7204768354,
				"y": 0.5886757136,
				"z": 0.6504169399,
				"element": "H" 
			},
			{
				"x": -2.3224444565,
				"y": -0.2306360174,
				"z": -1.2007507689,
				"element": "H" 
			},
			{
				"x": -2.0497367328,
				"y": 1.4780700316,
				"z": -0.9665429668,
				"element": "H" 
			},
			{
				"x": 0.1474200123,
				"y": 1.0873957574,
				"z": -0.8808018806,
				"element": "H" 
			},
			{
				"x": -0.2954514806,
				"y": -0.4391248488,
				"z": 1.7088285666,
				"element": "H" 
			},
			{
				"x": 2.0288650429,
				"y": 1.2836900763,
				"z": 0.7571605059,
				"element": "H" 
			},
			{
				"x": 1.9419020143,
				"y": 0.4292912987,
				"z": 2.2921092545,
				"element": "H" 
			},
			{
				"x": 1.9273262657,
				"y": -1.7594346116,
				"z": 1.1775835503,
				"element": "H" 
			},
			{
				"x": 3.3069530839,
				"y": -0.8271457751,
				"z": 0.6266754449,
				"element": "H" 
			},
			{
				"x": 2.0843626453,
				"y": -0.1206555427,
				"z": -1.3875101662,
				"element": "H" 
			},
			{
				"x": 3.523332146,
				"y": -2.1434288166,
				"z": -1.4955550443,
				"element": "H" 
			},
			{
				"x": 2.1470201074,
				"y": -3.1598201463,
				"z": -1.0644761059,
				"element": "H" 
			},
			{
				"x": 0.4362911091,
				"y": -2.0406621508,
				"z": -4.3970656523,
				"element": "H" 
			},
			{
				"x": 0.0880599655,
				"y": -3.1285958891,
				"z": -3.0570904983,
				"element": "H" 
			},
			{
				"x": 0.2458835223,
				"y": -0.0682528701,
				"z": -2.9373647128,
				"element": "H" 
			},
			{
				"x": -1.1831625627,
				"y": -1.0613642294,
				"z": -2.7141696808,
				"element": "H" 
			},
			{
				"x": -0.235328873,
				"y": -2.3756793726,
				"z": 0.7031858929,
				"element": "H" 
			},
			{
				"x": -0.100726783,
				"y": -3.2247241,
				"z": -0.8272368924,
				"element": "H" 
			},
			{
				"x": -1.5359858227,
				"y": -2.2720105571,
				"z": -0.4831422039,
				"element": "H" 
			},
			{
				"x": -0.4719208584,
				"y": 3.5861901168,
				"z": 1.2958911379,
				"element": "H" 
			},
			{
				"x": 0.9007461458,
				"y": 1.8029501996,
				"z": 3.4141625901,
				"element": "H" 
			},
			{
				"x": -0.3709239028,
				"y": 3.0107960717,
				"z": 3.4460839002,
				"element": "H" 
			},
			{
				"x": -0.6802146203,
				"y": 0.0569725928,
				"z": 4.1927796923,
				"element": "H" 
			},
			{
				"x": -1.277449122,
				"y": 1.4471051668,
				"z": 5.0907731097,
				"element": "H" 
			}
		],
		 "valence_orbital": [ 
			{
				"type": "occ",
				"energy": -0.28989,
				"method": "rhf"
			},
			{
				"type": "occ",
				"energy": -0.28455,
				"method": "rhf"
			},
			{
				"type": "occ",
				"energy": -0.26964,
				"method": "rhf"
			},
			{
				"type": "occ",
				"energy": -0.23814,
				"method": "rhf"
			},
			{
				"type": "occ",
				"energy": -0.23217,
				"method": "rhf"
			},
			{
				"type": "unocc",
				"energy": -0.0226,
				"method": "rhf"
			},
			{
				"type": "unocc",
				"energy": -0.00958,
				"method": "rhf"
			},
			{
				"type": "unocc",
				"energy": 0.05133,
				"method": "rhf"
			},
			{
				"type": "unocc",
				"energy": 0.07241,
				"method": "rhf"
			},
			{
				"type": "unocc",
				"energy": 0.07774,
				"method": "rhf"
			}
		],
		"cosmo_sigma_profile": { 
			"-0.025": 0.0,
			"-0.024": 0.0,
			"-0.023": 0.0,
			"-0.022": 0.0,
			"-0.021": 0.0,
			"-0.02": 0.0,
			"-0.019": 0.0,
			"-0.018": 0.0,
			"-0.017": 0.0,
			"-0.016": 0.0,
			"-0.015": 0.00445600238149,
			"-0.014": 0.742292369332,
			"-0.013": 0.639447268511,
			"-0.012": 1.244829106,
			"-0.011": 1.60882421243,
			"-0.01": 0.997706051191,
			"-0.009": 1.32528255624,
			"-0.008": 0.680839554797,
			"-0.007": 2.83095034929,
			"-0.006": 9.4950786861,
			"-0.005": 14.0340990935,
			"-0.004": 25.4689413999,
			"-0.003": 41.1148523264,
			"-0.002": 51.3548372437,
			"-0.001": 45.4083590254,
			"0.0": 39.1585856099,
			"0.001": 22.0192911881,
			"0.002": 9.23939758612,
			"0.003": 4.90025142439,
			"0.004": 5.4093041221,
			"0.005": 4.81021640144,
			"0.006": 5.31249794406,
			"0.007": 5.53155951872,
			"0.008": 3.7781990866,
			"0.009": 4.34707371478,
			"0.01": 5.43720774737,
			"0.011": 7.27703304331,
			"0.012": 10.0447136827,
			"0.013": 6.47921257306,
			"0.014": 1.48894728216,
			"0.015": 0.0,
			"0.016": 0.0,
			"0.017": 0.0,
			"0.018": 0.0,
			"0.019": 0.0,
			"0.02": 0.0,
			"0.021": 0.0,
			"0.022": 0.0,
			"0.023": 0.0,
			"0.024": 0.0,
			"0.025": 0.0
		}
	}
}
