{
	 "smiles": "CC1=NC2=CC=CC=C2N1CCCC(O)=O", 
	 "Tm": 509.15, 
	 "num_atms": 30, 
	 "gaussian": { 
		 "optdone": 1, 
		 "sigma_profile": "yes", 
		 "theory": "DFT", 
		 "functional": "B3LYP", 
		 "basiset": "6-31G**", 
		 "properties": { 
			 "R2extent": 3311.2803, 
			 "electric_dipole_moment_norm": 4.0906045629, 
			 "electric_quadrupole_moment_norm": 7.63298397417, 
			 "total_energy": -725.705722093, 
			 "HOMO_LUMO_gap": 0.20505, 
			 "cosmo_polarized_energy": -17.45, 
			 "cosmo_cavitation_energy": 32.41, 
			 "cosmo_dispersion_energy": -22.52, 
			 "cosmo_repulsion_energy": 1.75, 
			 "cosmo_total_nonelectrostatic_energy": 11.63, 
			 "SMD_solvation_energy": 4.18 
		},
		"coords": [
			{
				"x": -2.2605015874,
				"y": -1.2883168958,
				"z": -0.315961595,
				"element": "C" 
			},
			{
				"x": -1.364589548,
				"y": -0.0942856898,
				"z": -0.3026411727,
				"element": "C" 
			},
			{
				"x": -1.2380924875,
				"y": 0.7464633141,
				"z": -1.3023285624,
				"element": "N" 
			},
			{
				"x": -0.298846268,
				"y": 1.6762169857,
				"z": -0.8846704538,
				"element": "C" 
			},
			{
				"x": 0.2100392195,
				"y": 2.7976680194,
				"z": -1.5505325044,
				"element": "C" 
			},
			{
				"x": 1.1490195608,
				"y": 3.5851084701,
				"z": -0.8900586253,
				"element": "C" 
			},
			{
				"x": 1.5789955209,
				"y": 3.2700787426,
				"z": 0.413358901,
				"element": "C" 
			},
			{
				"x": 1.0860990506,
				"y": 2.1572066397,
				"z": 1.093437639,
				"element": "C" 
			},
			{
				"x": 0.1469097652,
				"y": 1.3697000791,
				"z": 0.4229721703,
				"element": "C" 
			},
			{
				"x": -0.549607666,
				"y": 0.2190198402,
				"z": 0.7803599567,
				"element": "N" 
			},
			{
				"x": -0.484658105,
				"y": -0.4507285625,
				"z": 2.0740813407,
				"element": "C" 
			},
			{
				"x": 0.3369138659,
				"y": -1.7524915252,
				"z": 2.108741786,
				"element": "C" 
			},
			{
				"x": 1.7444364658,
				"y": -1.6343496323,
				"z": 1.5116275416,
				"element": "C" 
			},
			{
				"x": 1.7630416321,
				"y": -1.8287908783,
				"z": 0.0070091579,
				"element": "C" 
			},
			{
				"x": 2.8539847579,
				"y": -1.2689794184,
				"z": -0.5560347056,
				"element": "O" 
			},
			{
				"x": 0.9392499101,
				"y": -2.4486007733,
				"z": -0.6327891615,
				"element": "O" 
			},
			{
				"x": -1.6719892719,
				"y": -2.2087495941,
				"z": -0.392761365,
				"element": "H" 
			},
			{
				"x": -2.8822748202,
				"y": -1.3504259793,
				"z": 0.5845160635,
				"element": "H" 
			},
			{
				"x": -2.9123665078,
				"y": -1.2168843084,
				"z": -1.1872258587,
				"element": "H" 
			},
			{
				"x": -0.1303445102,
				"y": 3.0355695664,
				"z": -2.5533611463,
				"element": "H" 
			},
			{
				"x": 1.5591591011,
				"y": 4.460537318,
				"z": -1.3850563114,
				"element": "H" 
			},
			{
				"x": 2.3118483645,
				"y": 3.9064128754,
				"z": 0.9008145894,
				"element": "H" 
			},
			{
				"x": 1.4256961873,
				"y": 1.9260398997,
				"z": 2.0989663997,
				"element": "H" 
			},
			{
				"x": -0.0618374867,
				"y": 0.2707173674,
				"z": 2.7796929409,
				"element": "H" 
			},
			{
				"x": -1.5042994265,
				"y": -0.6589949233,
				"z": 2.4162627317,
				"element": "H" 
			},
			{
				"x": -0.1942205986,
				"y": -2.5493374398,
				"z": 1.580478361,
				"element": "H" 
			},
			{
				"x": 0.4067037493,
				"y": -2.0575105215,
				"z": 3.1591471574,
				"element": "H" 
			},
			{
				"x": 2.3905964126,
				"y": -2.4204791399,
				"z": 1.9236246052,
				"element": "H" 
			},
			{
				"x": 2.2276215156,
				"y": -0.6835543766,
				"z": 1.7551703037,
				"element": "H" 
			},
			{
				"x": 2.7955132048,
				"y": -1.4512594592,
				"z": -1.5094401837,
				"element": "H" 
			}
		],
		 "valence_orbital": [ 
			{
				"type": "occ",
				"energy": -0.28798,
				"method": "rhf"
			},
			{
				"type": "occ",
				"energy": -0.28103,
				"method": "rhf"
			},
			{
				"type": "occ",
				"energy": -0.25767,
				"method": "rhf"
			},
			{
				"type": "occ",
				"energy": -0.21616,
				"method": "rhf"
			},
			{
				"type": "occ",
				"energy": -0.21234,
				"method": "rhf"
			},
			{
				"type": "unocc",
				"energy": -0.00729,
				"method": "rhf"
			},
			{
				"type": "unocc",
				"energy": 0.00636,
				"method": "rhf"
			},
			{
				"type": "unocc",
				"energy": 0.02817,
				"method": "rhf"
			},
			{
				"type": "unocc",
				"energy": 0.05735,
				"method": "rhf"
			},
			{
				"type": "unocc",
				"energy": 0.07384,
				"method": "rhf"
			}
		],
		"cosmo_sigma_profile": { 
			"-0.025": 0.0,
			"-0.024": 0.0,
			"-0.023": 0.0,
			"-0.022": 0.0,
			"-0.021": 0.0,
			"-0.02": 0.0,
			"-0.019": 0.0470413943745,
			"-0.018": 0.639005964711,
			"-0.017": 0.829234078699,
			"-0.016": 1.10674743052,
			"-0.015": 0.619908070558,
			"-0.014": 0.603393157719,
			"-0.013": 0.655183929768,
			"-0.012": 0.840927957944,
			"-0.011": 0.666449924291,
			"-0.01": 0.805121294407,
			"-0.009": 0.493130288863,
			"-0.008": 1.65220641732,
			"-0.007": 8.30774230753,
			"-0.006": 13.3060173082,
			"-0.005": 21.5741649634,
			"-0.004": 24.992457843,
			"-0.003": 24.5260122372,
			"-0.002": 21.0368230379,
			"-0.001": 17.4104586526,
			"0.0": 12.8856268666,
			"0.001": 9.5539609581,
			"0.002": 10.7286887391,
			"0.003": 10.9741760108,
			"0.004": 11.3932389784,
			"0.005": 14.7059459504,
			"0.006": 13.3107094271,
			"0.007": 7.20705685511,
			"0.008": 4.98539594103,
			"0.009": 4.64306066931,
			"0.01": 3.06326811447,
			"0.011": 3.82356566113,
			"0.012": 3.09103883627,
			"0.013": 1.0195451999,
			"0.014": 1.04903770305,
			"0.015": 1.06013155202,
			"0.016": 0.97969801349,
			"0.017": 0.792224553833,
			"0.018": 0.723791495836,
			"0.019": 0.0216993330162,
			"0.02": 0.0,
			"0.021": 0.0,
			"0.022": 0.0,
			"0.023": 0.0,
			"0.024": 0.0,
			"0.025": 0.0
		}
	}
}
