{
	 "smiles": "CC(C)CC(C)C", 
	 "Tm": 152.15, 
	 "num_atms": 23, 
	 "gaussian": { 
		 "optdone": 1, 
		 "sigma_profile": "yes", 
		 "theory": "DFT", 
		 "functional": "B3LYP", 
		 "basiset": "6-31G**", 
		 "properties": { 
			 "R2extent": 1318.3999, 
			 "electric_dipole_moment_norm": 0.133526364438, 
			 "electric_quadrupole_moment_norm": 0.509798342485, 
			 "total_energy": -276.41037118, 
			 "HOMO_LUMO_gap": 0.3738, 
			 "cosmo_polarized_energy": -0.65, 
			 "cosmo_cavitation_energy": 23.11, 
			 "cosmo_dispersion_energy": -16.48, 
			 "cosmo_repulsion_energy": 1.38, 
			 "cosmo_total_nonelectrostatic_energy": 8.01, 
			 "SMD_solvation_energy": 4.08 
		},
		"coords": [
			{
				"x": 0.0247933257,
				"y": -0.0143446783,
				"z": 1.5596239034,
				"element": "C" 
			},
			{
				"x": 0.114707368,
				"y": 0.3833308586,
				"z": 0.0771502024,
				"element": "C" 
			},
			{
				"x": -1.1000249478,
				"y": 1.2288124975,
				"z": -0.3349530849,
				"element": "C" 
			},
			{
				"x": 0.3744477912,
				"y": -0.8374634376,
				"z": -0.8391269108,
				"element": "C" 
			},
			{
				"x": -0.7515153261,
				"y": -1.8978595815,
				"z": -0.9651352878,
				"element": "C" 
			},
			{
				"x": -1.6880436479,
				"y": -1.6224136449,
				"z": -2.153970434,
				"element": "C" 
			},
			{
				"x": -0.1556641073,
				"y": -3.3100283336,
				"z": -1.0880346422,
				"element": "C" 
			},
			{
				"x": 0.9138529633,
				"y": -0.5700483913,
				"z": 1.8779691561,
				"element": "H" 
			},
			{
				"x": -0.0613901403,
				"y": 0.8721554677,
				"z": 2.1976415792,
				"element": "H" 
			},
			{
				"x": -0.8500089849,
				"y": -0.6437916655,
				"z": 1.7590111996,
				"element": "H" 
			},
			{
				"x": 1.0021038834,
				"y": 1.0249205837,
				"z": -0.0273356898,
				"element": "H" 
			},
			{
				"x": -2.0390688481,
				"y": 0.6819560555,
				"z": -0.1947662553,
				"element": "H" 
			},
			{
				"x": -1.1611758327,
				"y": 2.1385308248,
				"z": 0.2728452695,
				"element": "H" 
			},
			{
				"x": -1.0420771625,
				"y": 1.533851222,
				"z": -1.3855592949,
				"element": "H" 
			},
			{
				"x": 1.2809327443,
				"y": -1.3297610789,
				"z": -0.462080712,
				"element": "H" 
			},
			{
				"x": 0.6309646038,
				"y": -0.4769341725,
				"z": -1.8453454838,
				"element": "H" 
			},
			{
				"x": -1.3567187167,
				"y": -1.877777657,
				"z": -0.0480585748,
				"element": "H" 
			},
			{
				"x": -2.4962501598,
				"y": -2.3612840613,
				"z": -2.1977154718,
				"element": "H" 
			},
			{
				"x": -2.145802584,
				"y": -0.6312329678,
				"z": -2.1017324967,
				"element": "H" 
			},
			{
				"x": -1.1351008587,
				"y": -1.6817794063,
				"z": -3.0997892815,
				"element": "H" 
			},
			{
				"x": 0.4914115383,
				"y": -3.3848897001,
				"z": -1.9709582355,
				"element": "H" 
			},
			{
				"x": 0.4492547758,
				"y": -3.5663581703,
				"z": -0.2114565017,
				"element": "H" 
			},
			{
				"x": -0.9405276769,
				"y": -4.068090563,
				"z": -1.1887229526,
				"element": "H" 
			}
		],
		 "valence_orbital": [ 
			{
				"type": "occ",
				"energy": -0.335,
				"method": "rhf"
			},
			{
				"type": "occ",
				"energy": -0.32733,
				"method": "rhf"
			},
			{
				"type": "occ",
				"energy": -0.31086,
				"method": "rhf"
			},
			{
				"type": "occ",
				"energy": -0.30388,
				"method": "rhf"
			},
			{
				"type": "occ",
				"energy": -0.29543,
				"method": "rhf"
			},
			{
				"type": "unocc",
				"energy": 0.07837,
				"method": "rhf"
			},
			{
				"type": "unocc",
				"energy": 0.11206,
				"method": "rhf"
			},
			{
				"type": "unocc",
				"energy": 0.11743,
				"method": "rhf"
			},
			{
				"type": "unocc",
				"energy": 0.13266,
				"method": "rhf"
			},
			{
				"type": "unocc",
				"energy": 0.14387,
				"method": "rhf"
			}
		],
		"cosmo_sigma_profile": { 
			"-0.025": 0.0,
			"-0.024": 0.0,
			"-0.023": 0.0,
			"-0.022": 0.0,
			"-0.021": 0.0,
			"-0.02": 0.0,
			"-0.019": 0.0,
			"-0.018": 0.0,
			"-0.017": 0.0,
			"-0.016": 0.0,
			"-0.015": 0.0,
			"-0.014": 0.0,
			"-0.013": 0.0,
			"-0.012": 0.0,
			"-0.011": 0.0,
			"-0.01": 0.0,
			"-0.009": 0.0,
			"-0.008": 0.0,
			"-0.007": 0.0,
			"-0.006": 0.0,
			"-0.005": 0.0,
			"-0.004": 0.0,
			"-0.003": 2.85311960885,
			"-0.002": 24.6583801768,
			"-0.001": 42.1955770904,
			"0.0": 39.7218890083,
			"0.001": 36.4093675578,
			"0.002": 28.5230620946,
			"0.003": 2.36672437228,
			"0.004": 0.0,
			"0.005": 0.0,
			"0.006": 0.0,
			"0.007": 0.0,
			"0.008": 0.0,
			"0.009": 0.0,
			"0.01": 0.0,
			"0.011": 0.0,
			"0.012": 0.0,
			"0.013": 0.0,
			"0.014": 0.0,
			"0.015": 0.0,
			"0.016": 0.0,
			"0.017": 0.0,
			"0.018": 0.0,
			"0.019": 0.0,
			"0.02": 0.0,
			"0.021": 0.0,
			"0.022": 0.0,
			"0.023": 0.0,
			"0.024": 0.0,
			"0.025": 0.0
		}
	}
}
