{
	 "smiles": "CC(=O)N=C1C=CC(=O)C=C1", 
	 "Tm": 347.65, 
	 "num_atms": 18, 
	 "gaussian": { 
		 "optdone": 1, 
		 "sigma_profile": "yes", 
		 "theory": "DFT", 
		 "functional": "B3LYP", 
		 "basiset": "6-31G**", 
		 "properties": { 
			 "R2extent": 2261.1806, 
			 "electric_dipole_moment_norm": 2.75111801274, 
			 "electric_quadrupole_moment_norm": 12.2601489481, 
			 "total_energy": -514.228139978, 
			 "HOMO_LUMO_gap": 0.13229, 
			 "cosmo_polarized_energy": -11.59, 
			 "cosmo_cavitation_energy": 23.53, 
			 "cosmo_dispersion_energy": -16.9, 
			 "cosmo_repulsion_energy": 1.38, 
			 "cosmo_total_nonelectrostatic_energy": 8.01, 
			 "SMD_solvation_energy": 4.42 
		},
		"coords": [
			{
				"x": 2.9483978903,
				"y": -1.2080826377,
				"z": 1.3276396893,
				"element": "C" 
			},
			{
				"x": 1.8751243658,
				"y": -0.1746832211,
				"z": 1.060678674,
				"element": "C" 
			},
			{
				"x": 1.2568850783,
				"y": 0.403726022,
				"z": 1.9369505578,
				"element": "O" 
			},
			{
				"x": 1.7440427496,
				"y": 0.1515240234,
				"z": -0.3010302811,
				"element": "N" 
			},
			{
				"x": 0.6256792533,
				"y": 0.0941277772,
				"z": -0.9446348281,
				"element": "C" 
			},
			{
				"x": -0.6382190723,
				"y": -0.4294699821,
				"z": -0.3956008277,
				"element": "C" 
			},
			{
				"x": -1.7463896777,
				"y": -0.4896255393,
				"z": -1.155781266,
				"element": "C" 
			},
			{
				"x": -1.754964897,
				"y": -0.0355398837,
				"z": -2.5683905361,
				"element": "C" 
			},
			{
				"x": -2.7681528168,
				"y": -0.1017937964,
				"z": -3.2568298881,
				"element": "O" 
			},
			{
				"x": -0.4810286756,
				"y": 0.4996111368,
				"z": -3.1025284648,
				"element": "C" 
			},
			{
				"x": 0.6256149966,
				"y": 0.5574293392,
				"z": -2.3405025166,
				"element": "C" 
			},
			{
				"x": 2.945578056,
				"y": -1.4683134529,
				"z": 2.3866208207,
				"element": "H" 
			},
			{
				"x": 3.9258134834,
				"y": -0.8001299646,
				"z": 1.0501892447,
				"element": "H" 
			},
			{
				"x": 2.7886207911,
				"y": -2.1028338182,
				"z": 0.7170367677,
				"element": "H" 
			},
			{
				"x": -0.6462341715,
				"y": -0.7429814611,
				"z": 0.6424445241,
				"element": "H" 
			},
			{
				"x": -2.6886902515,
				"y": -0.8703276704,
				"z": -0.7734290137,
				"element": "H" 
			},
			{
				"x": -0.495856123,
				"y": 0.8368914072,
				"z": -4.1342301415,
				"element": "H" 
			},
			{
				"x": 1.5697790211,
				"y": 0.9429717217,
				"z": -2.7127025146,
				"element": "H" 
			}
		],
		 "valence_orbital": [ 
			{
				"type": "occ",
				"energy": -0.30787,
				"method": "rhf"
			},
			{
				"type": "occ",
				"energy": -0.30011,
				"method": "rhf"
			},
			{
				"type": "occ",
				"energy": -0.28431,
				"method": "rhf"
			},
			{
				"type": "occ",
				"energy": -0.2673,
				"method": "rhf"
			},
			{
				"type": "occ",
				"energy": -0.25834,
				"method": "rhf"
			},
			{
				"type": "unocc",
				"energy": -0.12605,
				"method": "rhf"
			},
			{
				"type": "unocc",
				"energy": -0.02667,
				"method": "rhf"
			},
			{
				"type": "unocc",
				"energy": -0.01518,
				"method": "rhf"
			},
			{
				"type": "unocc",
				"energy": 0.02218,
				"method": "rhf"
			},
			{
				"type": "unocc",
				"energy": 0.09265,
				"method": "rhf"
			}
		],
		"cosmo_sigma_profile": { 
			"-0.025": 0.0,
			"-0.024": 0.0,
			"-0.023": 0.0,
			"-0.022": 0.0,
			"-0.021": 0.0,
			"-0.02": 0.0,
			"-0.019": 0.0,
			"-0.018": 0.0,
			"-0.017": 0.0,
			"-0.016": 0.0,
			"-0.015": 0.0,
			"-0.014": 0.0,
			"-0.013": 0.0,
			"-0.012": 0.0,
			"-0.011": 0.0,
			"-0.01": 0.0,
			"-0.009": 0.131416416044,
			"-0.008": 6.34948515094,
			"-0.007": 10.3571597451,
			"-0.006": 13.396444118,
			"-0.005": 11.557888339,
			"-0.004": 15.3660554306,
			"-0.003": 16.3278535866,
			"-0.002": 20.7552836366,
			"-0.001": 17.7052810238,
			"0.0": 11.5206519388,
			"0.001": 9.78356468311,
			"0.002": 5.36072583064,
			"0.003": 4.01211341087,
			"0.004": 4.81315206493,
			"0.005": 4.73641281992,
			"0.006": 3.66911771745,
			"0.007": 3.31384213096,
			"0.008": 3.30932283695,
			"0.009": 4.94290558674,
			"0.01": 5.31721173569,
			"0.011": 8.42751219797,
			"0.012": 6.70788466147,
			"0.013": 1.05268335986,
			"0.014": 0.0,
			"0.015": 0.0,
			"0.016": 0.0,
			"0.017": 0.0,
			"0.018": 0.0,
			"0.019": 0.0,
			"0.02": 0.0,
			"0.021": 0.0,
			"0.022": 0.0,
			"0.023": 0.0,
			"0.024": 0.0,
			"0.025": 0.0
		}
	}
}
