{
	 "smiles": "COC1CC2C3(C)CCCC2(COC3)C2C(CC3C(OC(C)=O)C12C(=O)C3=C)OC(C)=O", 
	 "Tm": 433.15, 
	 "num_atms": 66, 
	 "gaussian": { 
		 "optdone": 1, 
		 "sigma_profile": "yes", 
		 "theory": "DFT", 
		 "functional": "B3LYP", 
		 "basiset": "6-31G**", 
		 "properties": { 
			 "R2extent": 11723.2244, 
			 "electric_dipole_moment_norm": 2.89723251742, 
			 "electric_quadrupole_moment_norm": 6.7868241623, 
			 "total_energy": -1499.69101127, 
			 "HOMO_LUMO_gap": 0.17246, 
			 "cosmo_polarized_energy": -20.28, 
			 "cosmo_cavitation_energy": 58.95, 
			 "cosmo_dispersion_energy": -37.42, 
			 "cosmo_repulsion_energy": 2.78, 
			 "cosmo_total_nonelectrostatic_energy": 24.31, 
			 "SMD_solvation_energy": 12.52 
		},
		"coords": [
			{
				"x": -2.949348265,
				"y": -3.1176669696,
				"z": -0.7539650754,
				"element": "C" 
			},
			{
				"x": -2.4216714419,
				"y": -1.8416451359,
				"z": -0.4581272412,
				"element": "O" 
			},
			{
				"x": -1.0007859969,
				"y": -1.80176866,
				"z": -0.3429470897,
				"element": "C" 
			},
			{
				"x": -0.2662823769,
				"y": -1.7948413271,
				"z": -1.6929839621,
				"element": "C" 
			},
			{
				"x": -0.0422888883,
				"y": -0.3697282121,
				"z": -2.2099865221,
				"element": "C" 
			},
			{
				"x": 0.5116677044,
				"y": -0.2686013168,
				"z": -3.6614948059,
				"element": "C" 
			},
			{
				"x": -0.4611136011,
				"y": -0.8669058659,
				"z": -4.6925039763,
				"element": "C" 
			},
			{
				"x": 0.7468308357,
				"y": 1.2471627041,
				"z": -4.0188610258,
				"element": "C" 
			},
			{
				"x": 0.1536077588,
				"y": 2.2185244824,
				"z": -2.9903566814,
				"element": "C" 
			},
			{
				"x": 0.6265843418,
				"y": 1.9512433025,
				"z": -1.5414296605,
				"element": "C" 
			},
			{
				"x": 0.9189510932,
				"y": 0.442657996,
				"z": -1.279904508,
				"element": "C" 
			},
			{
				"x": 2.3991732643,
				"y": 0.1359277273,
				"z": -1.7200808314,
				"element": "C" 
			},
			{
				"x": 2.5292127668,
				"y": -1.0728172604,
				"z": -2.4521950129,
				"element": "O" 
			},
			{
				"x": 1.8454132173,
				"y": -1.0570036838,
				"z": -3.7042668853,
				"element": "C" 
			},
			{
				"x": 0.7527500524,
				"y": 0.0091067145,
				"z": 0.2336235663,
				"element": "C" 
			},
			{
				"x": 1.1223293295,
				"y": 1.1321133542,
				"z": 1.2365762028,
				"element": "C" 
			},
			{
				"x": 0.7378543249,
				"y": 0.8696787442,
				"z": 2.701607235,
				"element": "C" 
			},
			{
				"x": -0.6881445263,
				"y": 0.2905004029,
				"z": 2.8194295142,
				"element": "C" 
			},
			{
				"x": -0.7252492209,
				"y": -1.035691858,
				"z": 2.046932661,
				"element": "C" 
			},
			{
				"x": 0.3605641568,
				"y": -1.9307817797,
				"z": 2.3487322902,
				"element": "O" 
			},
			{
				"x": 0.2138407649,
				"y": -2.7214514162,
				"z": 3.4468518388,
				"element": "C" 
			},
			{
				"x": 1.403304989,
				"y": -3.6370745242,
				"z": 3.6051109586,
				"element": "C" 
			},
			{
				"x": -0.7487184252,
				"y": -2.6787018964,
				"z": 4.1788440975,
				"element": "O" 
			},
			{
				"x": -0.6612928664,
				"y": -0.5963689554,
				"z": 0.566487852,
				"element": "C" 
			},
			{
				"x": -1.6823435149,
				"y": 0.5697479766,
				"z": 0.6015942885,
				"element": "C" 
			},
			{
				"x": -2.3051671982,
				"y": 1.0446393403,
				"z": -0.3273743812,
				"element": "O" 
			},
			{
				"x": -1.703555368,
				"y": 1.0839166003,
				"z": 2.0183720004,
				"element": "C" 
			},
			{
				"x": -2.5270509947,
				"y": 2.0565413228,
				"z": 2.4165363023,
				"element": "C" 
			},
			{
				"x": 2.5636142357,
				"y": 1.315520606,
				"z": 1.1517176193,
				"element": "O" 
			},
			{
				"x": 3.0499481958,
				"y": 2.548235089,
				"z": 1.4436319775,
				"element": "C" 
			},
			{
				"x": 4.5530630902,
				"y": 2.5763715592,
				"z": 1.2958482117,
				"element": "C" 
			},
			{
				"x": 2.3598244225,
				"y": 3.4885591957,
				"z": 1.7715376086,
				"element": "O" 
			},
			{
				"x": -4.0376231166,
				"y": -3.0203905767,
				"z": -0.7473675464,
				"element": "H" 
			},
			{
				"x": -2.6403370033,
				"y": -3.4868995993,
				"z": -1.7428477346,
				"element": "H" 
			},
			{
				"x": -2.652708534,
				"y": -3.865265697,
				"z": -0.0008721245,
				"element": "H" 
			},
			{
				"x": -0.676263856,
				"y": -2.7024583155,
				"z": 0.2038046268,
				"element": "H" 
			},
			{
				"x": -0.8588324081,
				"y": -2.3799426803,
				"z": -2.4028761492,
				"element": "H" 
			},
			{
				"x": 0.6912339553,
				"y": -2.310610643,
				"z": -1.5797570389,
				"element": "H" 
			},
			{
				"x": -1.0217649371,
				"y": 0.118362733,
				"z": -2.1825149437,
				"element": "H" 
			},
			{
				"x": -0.033670021,
				"y": -0.8110404852,
				"z": -5.7008022751,
				"element": "H" 
			},
			{
				"x": -1.4052004854,
				"y": -0.3109893587,
				"z": -4.7028830174,
				"element": "H" 
			},
			{
				"x": -0.6916550591,
				"y": -1.9176098642,
				"z": -4.4920380015,
				"element": "H" 
			},
			{
				"x": 0.3098336795,
				"y": 1.4587169066,
				"z": -5.001804863,
				"element": "H" 
			},
			{
				"x": 1.8190476138,
				"y": 1.4441236307,
				"z": -4.1299705038,
				"element": "H" 
			},
			{
				"x": -0.9393172982,
				"y": 2.1470454724,
				"z": -3.0223421355,
				"element": "H" 
			},
			{
				"x": 0.3931211916,
				"y": 3.2500119387,
				"z": -3.2727176989,
				"element": "H" 
			},
			{
				"x": -0.1567492641,
				"y": 2.3186739651,
				"z": -0.8757143355,
				"element": "H" 
			},
			{
				"x": 1.5237958219,
				"y": 2.5426481667,
				"z": -1.320470488,
				"element": "H" 
			},
			{
				"x": 3.0397353836,
				"y": 0.0187672907,
				"z": -0.8449157028,
				"element": "H" 
			},
			{
				"x": 2.8041538806,
				"y": 0.9769173261,
				"z": -2.3019913581,
				"element": "H" 
			},
			{
				"x": 1.6630482394,
				"y": -2.1100787815,
				"z": -3.9456430412,
				"element": "H" 
			},
			{
				"x": 2.5032121873,
				"y": -0.6481452258,
				"z": -4.4893555688,
				"element": "H" 
			},
			{
				"x": 1.4543357743,
				"y": -0.8136127328,
				"z": 0.4149527146,
				"element": "H" 
			},
			{
				"x": 0.6646928609,
				"y": 2.0753279879,
				"z": 0.9386500879,
				"element": "H" 
			},
			{
				"x": 0.8184411567,
				"y": 1.8104238723,
				"z": 3.2529471554,
				"element": "H" 
			},
			{
				"x": 1.448361479,
				"y": 0.1609418431,
				"z": 3.1384382524,
				"element": "H" 
			},
			{
				"x": -0.9710391605,
				"y": 0.1710506743,
				"z": 3.8679755409,
				"element": "H" 
			},
			{
				"x": -1.6666197261,
				"y": -1.5607253498,
				"z": 2.2323279641,
				"element": "H" 
			},
			{
				"x": 1.5073224361,
				"y": -4.2730725142,
				"z": 2.7210547364,
				"element": "H" 
			},
			{
				"x": 2.3218885584,
				"y": -3.0492841792,
				"z": 3.6916971733,
				"element": "H" 
			},
			{
				"x": 1.2702527301,
				"y": -4.2531775204,
				"z": 4.4936298438,
				"element": "H" 
			},
			{
				"x": -3.204825762,
				"y": 2.5123362817,
				"z": 1.7002730333,
				"element": "H" 
			},
			{
				"x": -2.5511137063,
				"y": 2.4160351946,
				"z": 3.4410574651,
				"element": "H" 
			},
			{
				"x": 4.8307414169,
				"y": 2.363151626,
				"z": 0.2590798877,
				"element": "H" 
			},
			{
				"x": 4.9268145007,
				"y": 3.558423799,
				"z": 1.583680179,
				"element": "H" 
			},
			{
				"x": 5.0085656128,
				"y": 1.8025465587,
				"z": 1.9202593006,
				"element": "H" 
			}
		],
		 "valence_orbital": [ 
			{
				"type": "occ",
				"energy": -0.27038,
				"method": "rhf"
			},
			{
				"type": "occ",
				"energy": -0.26836,
				"method": "rhf"
			},
			{
				"type": "occ",
				"energy": -0.25474,
				"method": "rhf"
			},
			{
				"type": "occ",
				"energy": -0.24097,
				"method": "rhf"
			},
			{
				"type": "occ",
				"energy": -0.23429,
				"method": "rhf"
			},
			{
				"type": "unocc",
				"energy": -0.06183,
				"method": "rhf"
			},
			{
				"type": "unocc",
				"energy": 0.00155,
				"method": "rhf"
			},
			{
				"type": "unocc",
				"energy": 0.00808,
				"method": "rhf"
			},
			{
				"type": "unocc",
				"energy": 0.06094,
				"method": "rhf"
			},
			{
				"type": "unocc",
				"energy": 0.07309,
				"method": "rhf"
			}
		],
		"cosmo_sigma_profile": { 
			"-0.025": 0.0,
			"-0.024": 0.0,
			"-0.023": 0.0,
			"-0.022": 0.0,
			"-0.021": 0.0,
			"-0.02": 0.0,
			"-0.019": 0.0,
			"-0.018": 0.0,
			"-0.017": 0.0,
			"-0.016": 0.0,
			"-0.015": 0.0,
			"-0.014": 0.0,
			"-0.013": 0.0,
			"-0.012": 0.0,
			"-0.011": 0.0,
			"-0.01": 0.0,
			"-0.009": 0.0,
			"-0.008": 0.141272199063,
			"-0.007": 3.19646737,
			"-0.006": 14.5285038637,
			"-0.005": 24.3755658047,
			"-0.004": 41.9507695743,
			"-0.003": 61.0211257497,
			"-0.002": 74.1548490305,
			"-0.001": 56.9975640733,
			"0.0": 39.5213020617,
			"0.001": 32.1537765734,
			"0.002": 18.1798150701,
			"0.003": 12.6536475097,
			"0.004": 9.11418395473,
			"0.005": 8.77230794068,
			"0.006": 6.49157628617,
			"0.007": 6.80191939578,
			"0.008": 6.09593673414,
			"0.009": 6.55293197421,
			"0.01": 6.38438359622,
			"0.011": 11.7882168431,
			"0.012": 10.373814049,
			"0.013": 4.1704280886,
			"0.014": 1.91486028808,
			"0.015": 0.61889139334,
			"0.016": 0.0626196288075,
			"0.017": 0.0,
			"0.018": 0.0,
			"0.019": 0.0,
			"0.02": 0.0,
			"0.021": 0.0,
			"0.022": 0.0,
			"0.023": 0.0,
			"0.024": 0.0,
			"0.025": 0.0
		}
	}
}
