{
	 "smiles": "OC(C(O)=O)C1=CC=C(F)C=C1", 
	 "Tm": 408.65, 
	 "num_atms": 19, 
	 "gaussian": { 
		 "optdone": 1, 
		 "sigma_profile": "yes", 
		 "theory": "DFT", 
		 "functional": "B3LYP", 
		 "basiset": "6-31G**", 
		 "properties": { 
			 "R2extent": 2745.6474, 
			 "electric_dipole_moment_norm": 4.16282372435, 
			 "electric_quadrupole_moment_norm": 10.9062354532, 
			 "total_energy": -634.575225997, 
			 "HOMO_LUMO_gap": 0.22712, 
			 "cosmo_polarized_energy": -15.26, 
			 "cosmo_cavitation_energy": 23.93, 
			 "cosmo_dispersion_energy": -17.56, 
			 "cosmo_repulsion_energy": 1.38, 
			 "cosmo_total_nonelectrostatic_energy": 7.75, 
			 "SMD_solvation_energy": 6.0 
		},
		"coords": [
			{
				"x": 1.0676177268,
				"y": 0.8410506227,
				"z": 1.9413240615,
				"element": "O" 
			},
			{
				"x": 0.6056414459,
				"y": 0.7468800356,
				"z": 0.5867879157,
				"element": "C" 
			},
			{
				"x": 1.2265396682,
				"y": -0.49998358,
				"z": -0.0850376539,
				"element": "C" 
			},
			{
				"x": 1.7748508718,
				"y": -1.3675409161,
				"z": 0.778928651,
				"element": "O" 
			},
			{
				"x": 1.2112254129,
				"y": -0.6761485692,
				"z": -1.2796267564,
				"element": "O" 
			},
			{
				"x": -0.9177390352,
				"y": 0.6844328409,
				"z": 0.5635864733,
				"element": "C" 
			},
			{
				"x": -1.6569875928,
				"y": 0.8565190968,
				"z": 1.7381837509,
				"element": "C" 
			},
			{
				"x": -3.0521234033,
				"y": 0.8206737421,
				"z": 1.7100860133,
				"element": "C" 
			},
			{
				"x": -3.6927200031,
				"y": 0.6147987845,
				"z": 0.4952661958,
				"element": "C" 
			},
			{
				"x": -5.0409707083,
				"y": 0.582056918,
				"z": 0.4614206321,
				"element": "F" 
			},
			{
				"x": -2.9831097094,
				"y": 0.4421213194,
				"z": -0.6886420482,
				"element": "C" 
			},
			{
				"x": -1.5911066618,
				"y": 0.4770611018,
				"z": -0.6490072022,
				"element": "C" 
			},
			{
				"x": 1.8478449689,
				"y": 1.409088229,
				"z": 1.9600395856,
				"element": "H" 
			},
			{
				"x": 0.9441143536,
				"y": 1.6124436313,
				"z": 0.0039918219,
				"element": "H" 
			},
			{
				"x": 1.6760901726,
				"y": -0.9686868466,
				"z": 1.6660670317,
				"element": "H" 
			},
			{
				"x": -1.1393639558,
				"y": 1.0204799368,
				"z": 2.6755873596,
				"element": "H" 
			},
			{
				"x": -3.6405634787,
				"y": 0.9502162003,
				"z": 2.6119710999,
				"element": "H" 
			},
			{
				"x": -3.5192434192,
				"y": 0.2815697147,
				"z": -1.6176127495,
				"element": "H" 
			},
			{
				"x": -1.0204966533,
				"y": 0.3284677378,
				"z": -1.5595141823,
				"element": "H" 
			}
		],
		 "valence_orbital": [ 
			{
				"type": "occ",
				"energy": -0.3465,
				"method": "rhf"
			},
			{
				"type": "occ",
				"energy": -0.31784,
				"method": "rhf"
			},
			{
				"type": "occ",
				"energy": -0.27312,
				"method": "rhf"
			},
			{
				"type": "occ",
				"energy": -0.26377,
				"method": "rhf"
			},
			{
				"type": "occ",
				"energy": -0.24272,
				"method": "rhf"
			},
			{
				"type": "unocc",
				"energy": -0.0156,
				"method": "rhf"
			},
			{
				"type": "unocc",
				"energy": -0.01315,
				"method": "rhf"
			},
			{
				"type": "unocc",
				"energy": 0.01176,
				"method": "rhf"
			},
			{
				"type": "unocc",
				"energy": 0.03469,
				"method": "rhf"
			},
			{
				"type": "unocc",
				"energy": 0.09329,
				"method": "rhf"
			}
		],
		"cosmo_sigma_profile": { 
			"-0.025": 0.0,
			"-0.024": 0.0,
			"-0.023": 0.0,
			"-0.022": 0.0,
			"-0.021": 0.0,
			"-0.02": 0.0,
			"-0.019": 0.0446912683742,
			"-0.018": 1.20013470265,
			"-0.017": 1.67681077631,
			"-0.016": 1.29949763794,
			"-0.015": 1.03624326848,
			"-0.014": 2.05484946546,
			"-0.013": 1.10812453841,
			"-0.012": 1.49409515269,
			"-0.011": 2.61975792984,
			"-0.01": 3.00915219169,
			"-0.009": 3.04487535973,
			"-0.008": 3.65510299015,
			"-0.007": 5.84159120774,
			"-0.006": 7.12451366863,
			"-0.005": 8.64951628029,
			"-0.004": 8.90213206553,
			"-0.003": 8.14429160038,
			"-0.002": 8.4692544238,
			"-0.001": 7.8167865093,
			"0.0": 9.90775830647,
			"0.001": 16.3506990801,
			"0.002": 15.3286053592,
			"0.003": 16.5335452091,
			"0.004": 20.4120493397,
			"0.005": 7.70797070012,
			"0.006": 2.99161804402,
			"0.007": 3.7091251595,
			"0.008": 2.95722067158,
			"0.009": 4.11666532126,
			"0.01": 4.85456888708,
			"0.011": 4.35777307282,
			"0.012": 3.63715834284,
			"0.013": 0.999236863769,
			"0.014": 0.0,
			"0.015": 0.0,
			"0.016": 0.0,
			"0.017": 0.0,
			"0.018": 0.0,
			"0.019": 0.0,
			"0.02": 0.0,
			"0.021": 0.0,
			"0.022": 0.0,
			"0.023": 0.0,
			"0.024": 0.0,
			"0.025": 0.0
		}
	}
}
