{
	 "smiles": "CCOP(OCC)OCC", 
	 "Tm": 161.15, 
	 "num_atms": 25, 
	 "gaussian": { 
		 "optdone": 1, 
		 "sigma_profile": "yes", 
		 "theory": "DFT", 
		 "functional": "B3LYP", 
		 "basiset": "6-31G**", 
		 "properties": { 
			 "R2extent": 2563.5309, 
			 "electric_dipole_moment_norm": 1.31524524709, 
			 "electric_quadrupole_moment_norm": 6.59828303728, 
			 "total_energy": -804.743740541, 
			 "HOMO_LUMO_gap": 0.27176, 
			 "cosmo_polarized_energy": -8.36, 
			 "cosmo_cavitation_energy": 29.73, 
			 "cosmo_dispersion_energy": -21.61, 
			 "cosmo_repulsion_energy": 1.96, 
			 "cosmo_total_nonelectrostatic_energy": 10.08, 
			 "SMD_solvation_energy": 6.64 
		},
		"coords": [
			{
				"x": -0.0019943242,
				"y": -0.5928651299,
				"z": 3.4155036641,
				"element": "C" 
			},
			{
				"x": 0.6715182723,
				"y": -0.1075709858,
				"z": 2.1431869729,
				"element": "C" 
			},
			{
				"x": -0.2627232491,
				"y": -0.22701732,
				"z": 1.0590018461,
				"element": "O" 
			},
			{
				"x": -0.0013530181,
				"y": 0.6880439273,
				"z": -0.2923641266,
				"element": "P" 
			},
			{
				"x": 1.0772487071,
				"y": -0.3161652773,
				"z": -1.040574204,
				"element": "O" 
			},
			{
				"x": 1.6547236926,
				"y": 0.1205826341,
				"z": -2.2808583219,
				"element": "C" 
			},
			{
				"x": 2.9424528025,
				"y": -0.6517251278,
				"z": -2.511539699,
				"element": "C" 
			},
			{
				"x": -1.3508684636,
				"y": 0.2392457641,
				"z": -1.1344492249,
				"element": "O" 
			},
			{
				"x": -2.5792173899,
				"y": 0.9284487987,
				"z": -0.8539538556,
				"element": "C" 
			},
			{
				"x": -3.5127670917,
				"y": 0.7516502972,
				"z": -2.0393463544,
				"element": "C" 
			},
			{
				"x": 0.6958122967,
				"y": -0.5433851971,
				"z": 4.2579658611,
				"element": "H" 
			},
			{
				"x": -0.875012332,
				"y": 0.0231668608,
				"z": 3.6501702254,
				"element": "H" 
			},
			{
				"x": -0.3337881368,
				"y": -1.6287322371,
				"z": 3.3006538548,
				"element": "H" 
			},
			{
				"x": 0.9984830064,
				"y": 0.9372864652,
				"z": 2.2518326882,
				"element": "H" 
			},
			{
				"x": 1.559128461,
				"y": -0.7115607673,
				"z": 1.9174464785,
				"element": "H" 
			},
			{
				"x": 0.9392544674,
				"y": -0.0636870928,
				"z": -3.0918949654,
				"element": "H" 
			},
			{
				"x": 1.8518343372,
				"y": 1.2025436046,
				"z": -2.2500786798,
				"element": "H" 
			},
			{
				"x": 3.3929995339,
				"y": -0.3633017671,
				"z": -3.4670229167,
				"element": "H" 
			},
			{
				"x": 2.7442307829,
				"y": -1.7271612844,
				"z": -2.53241938,
				"element": "H" 
			},
			{
				"x": 3.6623453183,
				"y": -0.4508313247,
				"z": -1.7127086577,
				"element": "H" 
			},
			{
				"x": -2.3846052995,
				"y": 1.9954631843,
				"z": -0.6694617789,
				"element": "H" 
			},
			{
				"x": -3.0232540304,
				"y": 0.5093946799,
				"z": 0.0575615701,
				"element": "H" 
			},
			{
				"x": -3.6965352718,
				"y": -0.3103506795,
				"z": -2.2255693884,
				"element": "H" 
			},
			{
				"x": -4.4727466917,
				"y": 1.240849581,
				"z": -1.8437753168,
				"element": "H" 
			},
			{
				"x": -3.0774663794,
				"y": 1.1882783938,
				"z": -2.9430062911,
				"element": "H" 
			}
		],
		 "valence_orbital": [ 
			{
				"type": "occ",
				"energy": -0.32284,
				"method": "rhf"
			},
			{
				"type": "occ",
				"energy": -0.29416,
				"method": "rhf"
			},
			{
				"type": "occ",
				"energy": -0.28394,
				"method": "rhf"
			},
			{
				"type": "occ",
				"energy": -0.28386,
				"method": "rhf"
			},
			{
				"type": "occ",
				"energy": -0.22884,
				"method": "rhf"
			},
			{
				"type": "unocc",
				"energy": 0.04292,
				"method": "rhf"
			},
			{
				"type": "unocc",
				"energy": 0.04294,
				"method": "rhf"
			},
			{
				"type": "unocc",
				"energy": 0.10619,
				"method": "rhf"
			},
			{
				"type": "unocc",
				"energy": 0.11467,
				"method": "rhf"
			},
			{
				"type": "unocc",
				"energy": 0.11583,
				"method": "rhf"
			}
		],
		"cosmo_sigma_profile": { 
			"-0.025": 0.0,
			"-0.024": 0.0,
			"-0.023": 0.0,
			"-0.022": 0.0,
			"-0.021": 0.0,
			"-0.02": 0.0,
			"-0.019": 0.0,
			"-0.018": 0.0,
			"-0.017": 0.0,
			"-0.016": 0.0,
			"-0.015": 0.0,
			"-0.014": 0.0,
			"-0.013": 0.0,
			"-0.012": 0.0,
			"-0.011": 0.0,
			"-0.01": 0.0,
			"-0.009": 0.0,
			"-0.008": 0.0,
			"-0.007": 0.0,
			"-0.006": 0.0,
			"-0.005": 3.14654370053,
			"-0.004": 26.5870208737,
			"-0.003": 43.1523165924,
			"-0.002": 35.0740233916,
			"-0.001": 28.0886906801,
			"0.0": 28.4656611361,
			"0.001": 17.4474813534,
			"0.002": 5.96480833672,
			"0.003": 4.79242220608,
			"0.004": 5.60467865044,
			"0.005": 3.99094570814,
			"0.006": 4.77452357928,
			"0.007": 3.95239987798,
			"0.008": 3.69156861545,
			"0.009": 3.06612660662,
			"0.01": 4.32021163928,
			"0.011": 5.02573866668,
			"0.012": 3.50520550378,
			"0.013": 0.874937771685,
			"0.014": 0.0,
			"0.015": 0.0,
			"0.016": 0.0,
			"0.017": 0.0,
			"0.018": 0.0,
			"0.019": 0.0,
			"0.02": 0.0,
			"0.021": 0.0,
			"0.022": 0.0,
			"0.023": 0.0,
			"0.024": 0.0,
			"0.025": 0.0
		}
	}
}
