{
	 "smiles": "OC(=O)C1=C(N(N=C1C(F)(F)F)C1=CC=CC=C1)C(F)(F)F", 
	 "Tm": 430.15, 
	 "num_atms": 28, 
	 "gaussian": { 
		 "optdone": 1, 
		 "sigma_profile": "yes", 
		 "theory": "DFT", 
		 "functional": "B3LYP", 
		 "basiset": "6-31G**", 
		 "properties": { 
			 "R2extent": 6449.1717, 
			 "electric_dipole_moment_norm": 5.67753010208, 
			 "electric_quadrupole_moment_norm": 13.753907467, 
			 "total_energy": -1319.86942456, 
			 "HOMO_LUMO_gap": 0.20095, 
			 "cosmo_polarized_energy": -12.73, 
			 "cosmo_cavitation_energy": 35.77, 
			 "cosmo_dispersion_energy": -24.63, 
			 "cosmo_repulsion_energy": 1.76, 
			 "cosmo_total_nonelectrostatic_energy": 12.9, 
			 "SMD_solvation_energy": 8.34 
		},
		"coords": [
			{
				"x": -1.4557428798,
				"y": 3.4928499388,
				"z": -0.743509374,
				"element": "O" 
			},
			{
				"x": -0.3597151082,
				"y": 2.9455852283,
				"z": -0.1783619718,
				"element": "C" 
			},
			{
				"x": 0.5826863756,
				"y": 3.6285061198,
				"z": 0.1392123391,
				"element": "O" 
			},
			{
				"x": -0.3900418901,
				"y": 1.4666763257,
				"z": 0.0531286063,
				"element": "C" 
			},
			{
				"x": 0.7045620395,
				"y": 0.6079766198,
				"z": 0.0401863105,
				"element": "C" 
			},
			{
				"x": 0.2564757997,
				"y": -0.6222485224,
				"z": 0.4414765289,
				"element": "N" 
			},
			{
				"x": -1.0659884802,
				"y": -0.612780028,
				"z": 0.6975959535,
				"element": "N" 
			},
			{
				"x": -1.4612615634,
				"y": 0.6305187354,
				"z": 0.4602781139,
				"element": "C" 
			},
			{
				"x": -2.8994333934,
				"y": 0.9990656471,
				"z": 0.6651232473,
				"element": "C" 
			},
			{
				"x": -3.6424863661,
				"y": -0.0370108854,
				"z": 1.0511249777,
				"element": "F" 
			},
			{
				"x": -3.4347586624,
				"y": 1.4681412319,
				"z": -0.5118602198,
				"element": "F" 
			},
			{
				"x": -3.0356087586,
				"y": 1.990758342,
				"z": 1.5622008337,
				"element": "F" 
			},
			{
				"x": 0.9692479272,
				"y": -1.8517202956,
				"z": 0.6549376694,
				"element": "C" 
			},
			{
				"x": 2.1585041487,
				"y": -1.8585315104,
				"z": 1.3855022264,
				"element": "C" 
			},
			{
				"x": 2.8083152712,
				"y": -3.0722131191,
				"z": 1.6061068774,
				"element": "C" 
			},
			{
				"x": 2.2658192105,
				"y": -4.2624453234,
				"z": 1.1183357482,
				"element": "C" 
			},
			{
				"x": 1.0661421099,
				"y": -4.2411112411,
				"z": 0.4036001105,
				"element": "C" 
			},
			{
				"x": 0.4110989055,
				"y": -3.0341439402,
				"z": 0.1664372764,
				"element": "C" 
			},
			{
				"x": 2.1178570921,
				"y": 0.8781497883,
				"z": -0.411522756,
				"element": "C" 
			},
			{
				"x": 2.6448858364,
				"y": -0.2094247361,
				"z": -1.0154516861,
				"element": "F" 
			},
			{
				"x": 2.1567456447,
				"y": 1.8821711044,
				"z": -1.2928211947,
				"element": "F" 
			},
			{
				"x": 2.9216103311,
				"y": 1.1932204177,
				"z": 0.6257434087,
				"element": "F" 
			},
			{
				"x": -2.1185350365,
				"y": 2.82506811,
				"z": -0.9785289319,
				"element": "H" 
			},
			{
				"x": 2.5674961328,
				"y": -0.9336967914,
				"z": 1.7748983278,
				"element": "H" 
			},
			{
				"x": 3.7349037674,
				"y": -3.0849525588,
				"z": 2.1712691434,
				"element": "H" 
			},
			{
				"x": 2.7742375517,
				"y": -5.2046332456,
				"z": 1.2983731199,
				"element": "H" 
			},
			{
				"x": 0.6387583434,
				"y": -5.1645397367,
				"z": 0.0255427589,
				"element": "H" 
			},
			{
				"x": -0.5230743486,
				"y": -2.9981356752,
				"z": -0.3819174436,
				"element": "H" 
			}
		],
		 "valence_orbital": [ 
			{
				"type": "occ",
				"energy": -0.3181,
				"method": "rhf"
			},
			{
				"type": "occ",
				"energy": -0.30255,
				"method": "rhf"
			},
			{
				"type": "occ",
				"energy": -0.28242,
				"method": "rhf"
			},
			{
				"type": "occ",
				"energy": -0.27831,
				"method": "rhf"
			},
			{
				"type": "occ",
				"energy": -0.26675,
				"method": "rhf"
			},
			{
				"type": "unocc",
				"energy": -0.0658,
				"method": "rhf"
			},
			{
				"type": "unocc",
				"energy": -0.03785,
				"method": "rhf"
			},
			{
				"type": "unocc",
				"energy": -0.02861,
				"method": "rhf"
			},
			{
				"type": "unocc",
				"energy": -0.01537,
				"method": "rhf"
			},
			{
				"type": "unocc",
				"energy": 0.04707,
				"method": "rhf"
			}
		],
		"cosmo_sigma_profile": { 
			"-0.025": 0.0,
			"-0.024": 0.0,
			"-0.023": 0.0,
			"-0.022": 0.0,
			"-0.021": 0.0,
			"-0.02": 0.0,
			"-0.019": 0.0,
			"-0.018": 0.0,
			"-0.017": 0.0,
			"-0.016": 0.0,
			"-0.015": 0.227289996627,
			"-0.014": 0.901286014951,
			"-0.013": 0.866394301442,
			"-0.012": 1.06925424224,
			"-0.011": 0.999134082818,
			"-0.01": 0.894740813749,
			"-0.009": 0.721069711902,
			"-0.008": 1.99792307419,
			"-0.007": 9.02405973287,
			"-0.006": 14.9618898178,
			"-0.005": 19.4642577907,
			"-0.004": 18.4964283837,
			"-0.003": 17.6639785134,
			"-0.002": 13.9404002389,
			"-0.001": 19.443077378,
			"0.0": 22.0390051914,
			"0.001": 41.1103692105,
			"0.002": 40.6849788307,
			"0.003": 20.6855219092,
			"0.004": 9.23563728064,
			"0.005": 4.56710383153,
			"0.006": 4.42064699621,
			"0.007": 4.72398633077,
			"0.008": 4.22454285631,
			"0.009": 5.60981655241,
			"0.01": 6.06679207503,
			"0.011": 3.48834480652,
			"0.012": 1.55209362897,
			"0.013": 0.0350564204908,
			"0.014": 0.0,
			"0.015": 0.0,
			"0.016": 0.0,
			"0.017": 0.0,
			"0.018": 0.0,
			"0.019": 0.0,
			"0.02": 0.0,
			"0.021": 0.0,
			"0.022": 0.0,
			"0.023": 0.0,
			"0.024": 0.0,
			"0.025": 0.0
		}
	}
}
