{
	 "smiles": "OCC1(CN2C(=O)C3=C(C=CC=C3)C2=O)CCCC1", 
	 "Tm": 357.15, 
	 "num_atms": 36, 
	 "gaussian": { 
		 "optdone": 1, 
		 "sigma_profile": "yes", 
		 "theory": "DFT", 
		 "functional": "B3LYP", 
		 "basiset": "6-31G**", 
		 "properties": { 
			 "R2extent": 5503.1137, 
			 "electric_dipole_moment_norm": 3.18902530093, 
			 "electric_quadrupole_moment_norm": 24.5211205089, 
			 "total_energy": -862.300843044, 
			 "HOMO_LUMO_gap": 0.15629, 
			 "cosmo_polarized_energy": -12.03, 
			 "cosmo_cavitation_energy": 36.8, 
			 "cosmo_dispersion_energy": -26.25, 
			 "cosmo_repulsion_energy": 1.98, 
			 "cosmo_total_nonelectrostatic_energy": 12.52, 
			 "SMD_solvation_energy": 6.26 
		},
		"coords": [
			{
				"x": -1.8827645231,
				"y": -0.2236075961,
				"z": -2.1764223067,
				"element": "O" 
			},
			{
				"x": -1.9185566746,
				"y": -1.5509721234,
				"z": -1.696437792,
				"element": "C" 
			},
			{
				"x": -0.8629318236,
				"y": -1.8990619269,
				"z": -0.6182254082,
				"element": "C" 
			},
			{
				"x": -1.1111126489,
				"y": -1.1602018604,
				"z": 0.7233055189,
				"element": "C" 
			},
			{
				"x": -0.6952550646,
				"y": 0.2434426813,
				"z": 0.816080657,
				"element": "N" 
			},
			{
				"x": 0.5086373444,
				"y": 0.6421009801,
				"z": 1.4410018598,
				"element": "C" 
			},
			{
				"x": 1.3635152682,
				"y": -0.1122104873,
				"z": 1.858981603,
				"element": "O" 
			},
			{
				"x": 0.4719946046,
				"y": 2.1321525484,
				"z": 1.4889068485,
				"element": "C" 
			},
			{
				"x": -0.74621247,
				"y": 2.5515840762,
				"z": 0.9527921304,
				"element": "C" 
			},
			{
				"x": -1.0805777846,
				"y": 3.8952020356,
				"z": 0.8701068911,
				"element": "C" 
			},
			{
				"x": -0.1426641286,
				"y": 4.8207246613,
				"z": 1.3478876237,
				"element": "C" 
			},
			{
				"x": 1.0802079493,
				"y": 4.3998381204,
				"z": 1.8862736621,
				"element": "C" 
			},
			{
				"x": 1.406775761,
				"y": 3.0389550231,
				"z": 1.9656458999,
				"element": "C" 
			},
			{
				"x": -1.5101518739,
				"y": 1.3413988484,
				"z": 0.5387813572,
				"element": "C" 
			},
			{
				"x": -2.6337976806,
				"y": 1.2885405601,
				"z": 0.058418301,
				"element": "O" 
			},
			{
				"x": 0.5738827752,
				"y": -1.6720664036,
				"z": -1.1712848158,
				"element": "C" 
			},
			{
				"x": 1.0206153934,
				"y": -3.0431201238,
				"z": -1.7046138592,
				"element": "C" 
			},
			{
				"x": 0.4522865309,
				"y": -4.0155856831,
				"z": -0.6601879132,
				"element": "C" 
			},
			{
				"x": -0.9482818636,
				"y": -3.4447699273,
				"z": -0.3502448367,
				"element": "C" 
			},
			{
				"x": -2.3640056287,
				"y": 0.3330809772,
				"z": -1.5435700549,
				"element": "H" 
			},
			{
				"x": -2.9185423757,
				"y": -1.81456802,
				"z": -1.3129485959,
				"element": "H" 
			},
			{
				"x": -1.7340690191,
				"y": -2.1962896701,
				"z": -2.564088836,
				"element": "H" 
			},
			{
				"x": -2.1751612158,
				"y": -1.1972091897,
				"z": 0.9812430876,
				"element": "H" 
			},
			{
				"x": -0.5486499027,
				"y": -1.669849506,
				"z": 1.5100071455,
				"element": "H" 
			},
			{
				"x": -2.0310940058,
				"y": 4.209607053,
				"z": 0.4517143274,
				"element": "H" 
			},
			{
				"x": -0.365768027,
				"y": 5.8823560482,
				"z": 1.3010672481,
				"element": "H" 
			},
			{
				"x": 1.7853615831,
				"y": 5.1420604829,
				"z": 2.248119463,
				"element": "H" 
			},
			{
				"x": 2.3502680911,
				"y": 2.7014743774,
				"z": 2.3820719186,
				"element": "H" 
			},
			{
				"x": 1.2462691229,
				"y": -1.3702416803,
				"z": -0.3614104263,
				"element": "H" 
			},
			{
				"x": 0.5819093212,
				"y": -0.878152326,
				"z": -1.9234253306,
				"element": "H" 
			},
			{
				"x": 0.5730246109,
				"y": -3.2405831032,
				"z": -2.6872378235,
				"element": "H" 
			},
			{
				"x": 2.1062932481,
				"y": -3.120458271,
				"z": -1.8226237798,
				"element": "H" 
			},
			{
				"x": 1.0778140182,
				"y": -3.9883944038,
				"z": 0.2407532808,
				"element": "H" 
			},
			{
				"x": 0.4179843316,
				"y": -5.0560504431,
				"z": -0.9995237464,
				"element": "H" 
			},
			{
				"x": -1.6941818869,
				"y": -3.8955992069,
				"z": -1.0164241135,
				"element": "H" 
			},
			{
				"x": -1.273761356,
				"y": -3.6739265218,
				"z": 0.6706108148,
				"element": "H" 
			}
		],
		 "valence_orbital": [ 
			{
				"type": "occ",
				"energy": -0.29017,
				"method": "rhf"
			},
			{
				"type": "occ",
				"energy": -0.28259,
				"method": "rhf"
			},
			{
				"type": "occ",
				"energy": -0.2764,
				"method": "rhf"
			},
			{
				"type": "occ",
				"energy": -0.26956,
				"method": "rhf"
			},
			{
				"type": "occ",
				"energy": -0.24596,
				"method": "rhf"
			},
			{
				"type": "unocc",
				"energy": -0.08967,
				"method": "rhf"
			},
			{
				"type": "unocc",
				"energy": -0.04631,
				"method": "rhf"
			},
			{
				"type": "unocc",
				"energy": 0.02181,
				"method": "rhf"
			},
			{
				"type": "unocc",
				"energy": 0.06149,
				"method": "rhf"
			},
			{
				"type": "unocc",
				"energy": 0.0822,
				"method": "rhf"
			}
		],
		"cosmo_sigma_profile": { 
			"-0.025": 0.0,
			"-0.024": 0.0,
			"-0.023": 0.0,
			"-0.022": 0.0,
			"-0.021": 0.0,
			"-0.02": 0.0,
			"-0.019": 0.0,
			"-0.018": 0.0,
			"-0.017": 0.0,
			"-0.016": 0.0,
			"-0.015": 0.0,
			"-0.014": 0.0,
			"-0.013": 0.0,
			"-0.012": 0.0,
			"-0.011": 0.0,
			"-0.01": 0.0,
			"-0.009": 0.0,
			"-0.008": 2.26314494875,
			"-0.007": 8.5692748297,
			"-0.006": 10.6270987567,
			"-0.005": 15.1386406155,
			"-0.004": 19.0702840509,
			"-0.003": 31.0318145136,
			"-0.002": 31.4571540906,
			"-0.001": 33.6656558518,
			"0.0": 32.5843379793,
			"0.001": 32.9109146384,
			"0.002": 20.5595634638,
			"0.003": 6.84889472878,
			"0.004": 4.92431451916,
			"0.005": 3.86081872298,
			"0.006": 4.68029747831,
			"0.007": 3.73260493119,
			"0.008": 4.78204186739,
			"0.009": 3.96418215693,
			"0.01": 6.44570861917,
			"0.011": 6.86064515956,
			"0.012": 1.82790441913,
			"0.013": 1.51453075373,
			"0.014": 1.1512655779,
			"0.015": 1.53057707325,
			"0.016": 0.102455753379,
			"0.017": 0.0,
			"0.018": 0.0,
			"0.019": 0.0,
			"0.02": 0.0,
			"0.021": 0.0,
			"0.022": 0.0,
			"0.023": 0.0,
			"0.024": 0.0,
			"0.025": 0.0
		}
	}
}
