{
	 "smiles": "OCC1=CC(Br)=CC(Br)=C1", 
	 "Tm": 380.65, 
	 "num_atms": 16, 
	 "gaussian": { 
		 "optdone": 1, 
		 "sigma_profile": "yes", 
		 "theory": "DFT", 
		 "functional": "B3LYP", 
		 "basiset": "6-31G**", 
		 "properties": { 
			 "R2extent": 5246.5491, 
			 "electric_dipole_moment_norm": 1.65730788027, 
			 "electric_quadrupole_moment_norm": 5.70101854935, 
			 "total_energy": -5488.38253605, 
			 "HOMO_LUMO_gap": 0.21966, 
			 "cosmo_polarized_energy": -7.96, 
			 "cosmo_cavitation_energy": 24.95, 
			 "cosmo_dispersion_energy": -19.17, 
			 "cosmo_repulsion_energy": 1.58, 
			 "cosmo_total_nonelectrostatic_energy": 7.36, 
			 "SMD_solvation_energy": 2.0 
		},
		"coords": [
			{
				"x": -2.658763999,
				"y": -0.4190758062,
				"z": -0.4601253599,
				"element": "O" 
			},
			{
				"x": -1.6790958398,
				"y": -0.9359296504,
				"z": 0.4228718597,
				"element": "C" 
			},
			{
				"x": -0.256951906,
				"y": -0.8137178367,
				"z": -0.0999722196,
				"element": "C" 
			},
			{
				"x": 0.7366184278,
				"y": -1.6914088049,
				"z": 0.3473381839,
				"element": "C" 
			},
			{
				"x": 2.0419013161,
				"y": -1.5419622672,
				"z": -0.1144421134,
				"element": "C" 
			},
			{
				"x": 3.39560816,
				"y": -2.7433352563,
				"z": 0.4977579949,
				"element": "Br" 
			},
			{
				"x": 2.3882934923,
				"y": -0.5435390834,
				"z": -1.0235623473,
				"element": "C" 
			},
			{
				"x": 1.3806980348,
				"y": 0.3148290143,
				"z": -1.4605600147,
				"element": "C" 
			},
			{
				"x": 1.8222472013,
				"y": 1.6911034049,
				"z": -2.710384939,
				"element": "Br" 
			},
			{
				"x": 0.0678187915,
				"y": 0.1958102285,
				"z": -1.012012101,
				"element": "C" 
			},
			{
				"x": -2.6317054428,
				"y": -0.9427249024,
				"z": -1.2723037807,
				"element": "H" 
			},
			{
				"x": -1.7813216795,
				"y": -0.3494839107,
				"z": 1.3436516567,
				"element": "H" 
			},
			{
				"x": -1.8809999876,
				"y": -1.9845738977,
				"z": 0.6907202526,
				"element": "H" 
			},
			{
				"x": 0.4968328693,
				"y": -2.4861387491,
				"z": 1.0460132134,
				"element": "H" 
			},
			{
				"x": 3.4045104145,
				"y": -0.4414517537,
				"z": -1.3810802951,
				"element": "H" 
			},
			{
				"x": -0.7043898528,
				"y": 0.870599271,
				"z": -1.3609099905,
				"element": "H" 
			}
		],
		 "valence_orbital": [ 
			{
				"type": "occ",
				"energy": -0.29847,
				"method": "rhf"
			},
			{
				"type": "occ",
				"energy": -0.29213,
				"method": "rhf"
			},
			{
				"type": "occ",
				"energy": -0.28813,
				"method": "rhf"
			},
			{
				"type": "occ",
				"energy": -0.25781,
				"method": "rhf"
			},
			{
				"type": "occ",
				"energy": -0.24953,
				"method": "rhf"
			},
			{
				"type": "unocc",
				"energy": -0.02987,
				"method": "rhf"
			},
			{
				"type": "unocc",
				"energy": -0.02813,
				"method": "rhf"
			},
			{
				"type": "unocc",
				"energy": -0.01764,
				"method": "rhf"
			},
			{
				"type": "unocc",
				"energy": 0.02192,
				"method": "rhf"
			},
			{
				"type": "unocc",
				"energy": 0.07119,
				"method": "rhf"
			}
		],
		"cosmo_sigma_profile": { 
			"-0.025": 0.0,
			"-0.024": 0.0,
			"-0.023": 0.0,
			"-0.022": 0.0,
			"-0.021": 0.0,
			"-0.02": 0.0,
			"-0.019": 0.0,
			"-0.018": 0.0,
			"-0.017": 0.0,
			"-0.016": 0.88314391795,
			"-0.015": 0.798320165216,
			"-0.014": 0.824166050472,
			"-0.013": 1.21457483199,
			"-0.012": 0.670443505083,
			"-0.011": 0.626642244868,
			"-0.01": 0.73746081745,
			"-0.009": 1.06091075296,
			"-0.008": 2.48242282254,
			"-0.007": 5.43296071124,
			"-0.006": 7.61731138482,
			"-0.005": 12.4261915509,
			"-0.004": 11.7526716467,
			"-0.003": 12.6266906182,
			"-0.002": 10.8677520344,
			"-0.001": 13.1478105913,
			"0.0": 14.4333442916,
			"0.001": 21.0784648805,
			"0.002": 30.1278762498,
			"0.003": 16.1187521909,
			"0.004": 22.9884883912,
			"0.005": 7.19954797219,
			"0.006": 0.844984510359,
			"0.007": 1.45843016819,
			"0.008": 1.02912718086,
			"0.009": 0.796081488432,
			"0.01": 1.02429517265,
			"0.011": 1.2723466015,
			"0.012": 1.35164414055,
			"0.013": 1.85276426205,
			"0.014": 1.00318920828,
			"0.015": 0.0,
			"0.016": 0.0,
			"0.017": 0.0,
			"0.018": 0.0,
			"0.019": 0.0,
			"0.02": 0.0,
			"0.021": 0.0,
			"0.022": 0.0,
			"0.023": 0.0,
			"0.024": 0.0,
			"0.025": 0.0
		}
	}
}
