{
	 "smiles": "ClC1=C(Cl)C=C(C=C1)C(=O)COC1=CC2=C(CCC2)C=C1", 
	 "Tm": 363.15, 
	 "num_atms": 35, 
	 "gaussian": { 
		 "optdone": 1, 
		 "sigma_profile": "yes", 
		 "theory": "DFT", 
		 "functional": "B3LYP", 
		 "basiset": "6-31G**", 
		 "properties": { 
			 "R2extent": 12378.3795, 
			 "electric_dipole_moment_norm": 2.53728986519, 
			 "electric_quadrupole_moment_norm": 15.5118579471, 
			 "total_energy": -1727.07275172, 
			 "HOMO_LUMO_gap": 0.13544, 
			 "cosmo_polarized_energy": -8.92, 
			 "cosmo_cavitation_energy": 42.15, 
			 "cosmo_dispersion_energy": -30.1, 
			 "cosmo_repulsion_energy": 2.34, 
			 "cosmo_total_nonelectrostatic_energy": 14.39, 
			 "SMD_solvation_energy": 6.43 
		},
		"coords": [
			{
				"x": -1.4881191906,
				"y": 5.6615570977,
				"z": -3.2877154712,
				"element": "Cl" 
			},
			{
				"x": -1.7421894685,
				"y": 3.9797864596,
				"z": -2.9112397977,
				"element": "C" 
			},
			{
				"x": -1.9964598923,
				"y": 3.033875484,
				"z": -3.919058462,
				"element": "C" 
			},
			{
				"x": -2.0721159717,
				"y": 3.4958517372,
				"z": -5.6011432593,
				"element": "Cl" 
			},
			{
				"x": -2.1957458991,
				"y": 1.7018138106,
				"z": -3.5760700613,
				"element": "C" 
			},
			{
				"x": -2.1420070386,
				"y": 1.2897357629,
				"z": -2.2369286807,
				"element": "C" 
			},
			{
				"x": -1.8842085098,
				"y": 2.2387009051,
				"z": -1.2360031431,
				"element": "C" 
			},
			{
				"x": -1.6883940313,
				"y": 3.5735295273,
				"z": -1.5756261531,
				"element": "C" 
			},
			{
				"x": -2.4021112102,
				"y": -0.1566228188,
				"z": -1.9602640521,
				"element": "C" 
			},
			{
				"x": -2.702480944,
				"y": -0.9287114725,
				"z": -2.8584078282,
				"element": "O" 
			},
			{
				"x": -2.3757275463,
				"y": -0.6906259759,
				"z": -0.516653641,
				"element": "C" 
			},
			{
				"x": -1.2811883588,
				"y": -0.2712879442,
				"z": 0.280751599,
				"element": "O" 
			},
			{
				"x": -0.0407527299,
				"y": -0.8312792026,
				"z": 0.0487091214,
				"element": "C" 
			},
			{
				"x": 0.236481776,
				"y": -1.7363770344,
				"z": -0.9828649255,
				"element": "C" 
			},
			{
				"x": 1.535969915,
				"y": -2.2369742621,
				"z": -1.0908760558,
				"element": "C" 
			},
			{
				"x": 2.5438608346,
				"y": -1.8472859266,
				"z": -0.2030006779,
				"element": "C" 
			},
			{
				"x": 3.856559371,
				"y": -2.5136762012,
				"z": -0.5592056568,
				"element": "C" 
			},
			{
				"x": 3.4165767808,
				"y": -3.6726884389,
				"z": -1.4904189143,
				"element": "C" 
			},
			{
				"x": 2.0837033114,
				"y": -3.1993012316,
				"z": -2.1245426148,
				"element": "C" 
			},
			{
				"x": 2.254876905,
				"y": -0.9389744854,
				"z": 0.8168578717,
				"element": "C" 
			},
			{
				"x": 0.9624802676,
				"y": -0.4350607126,
				"z": 0.9446333481,
				"element": "C" 
			},
			{
				"x": -2.4008496371,
				"y": 0.9630065172,
				"z": -4.3422035325,
				"element": "H" 
			},
			{
				"x": -1.8165169374,
				"y": 1.9365614699,
				"z": -0.1983335427,
				"element": "H" 
			},
			{
				"x": -1.4878877603,
				"y": 4.3142975731,
				"z": -0.8097756504,
				"element": "H" 
			},
			{
				"x": -3.2680017627,
				"y": -0.3174334751,
				"z": -0.0002173927,
				"element": "H" 
			},
			{
				"x": -2.4456896653,
				"y": -1.7818363237,
				"z": -0.5765124253,
				"element": "H" 
			},
			{
				"x": -0.5260865124,
				"y": -2.0464835184,
				"z": -1.6884526267,
				"element": "H" 
			},
			{
				"x": 4.4166576537,
				"y": -2.8638594981,
				"z": 0.3147205233,
				"element": "H" 
			},
			{
				"x": 4.5122625623,
				"y": -1.8101542621,
				"z": -1.0924190213,
				"element": "H" 
			},
			{
				"x": 4.1738284529,
				"y": -3.9325306342,
				"z": -2.2354586774,
				"element": "H" 
			},
			{
				"x": 3.2293497859,
				"y": -4.5678605002,
				"z": -0.8868176282,
				"element": "H" 
			},
			{
				"x": 2.264149619,
				"y": -2.6722232722,
				"z": -3.072368265,
				"element": "H" 
			},
			{
				"x": 1.4019664556,
				"y": -4.0262762399,
				"z": -2.35015045,
				"element": "H" 
			},
			{
				"x": 3.024299886,
				"y": -0.6264253203,
				"z": 1.5182919967,
				"element": "H" 
			},
			{
				"x": 0.7037094893,
				"y": 0.2599324062,
				"z": 1.7368641465,
				"element": "H" 
			}
		],
		 "valence_orbital": [ 
			{
				"type": "occ",
				"energy": -0.27178,
				"method": "rhf"
			},
			{
				"type": "occ",
				"energy": -0.26711,
				"method": "rhf"
			},
			{
				"type": "occ",
				"energy": -0.26079,
				"method": "rhf"
			},
			{
				"type": "occ",
				"energy": -0.24652,
				"method": "rhf"
			},
			{
				"type": "occ",
				"energy": -0.21506,
				"method": "rhf"
			},
			{
				"type": "unocc",
				"energy": -0.07962,
				"method": "rhf"
			},
			{
				"type": "unocc",
				"energy": -0.03152,
				"method": "rhf"
			},
			{
				"type": "unocc",
				"energy": -0.00529,
				"method": "rhf"
			},
			{
				"type": "unocc",
				"energy": -0.00287,
				"method": "rhf"
			},
			{
				"type": "unocc",
				"energy": 0.01132,
				"method": "rhf"
			}
		],
		"cosmo_sigma_profile": { 
			"-0.025": 0.0,
			"-0.024": 0.0,
			"-0.023": 0.0,
			"-0.022": 0.0,
			"-0.021": 0.0,
			"-0.02": 0.0,
			"-0.019": 0.0,
			"-0.018": 0.0,
			"-0.017": 0.0,
			"-0.016": 0.0,
			"-0.015": 0.0,
			"-0.014": 0.0,
			"-0.013": 0.0,
			"-0.012": 0.0,
			"-0.011": 0.0,
			"-0.01": 0.0,
			"-0.009": 1.76618226807,
			"-0.008": 5.57100050646,
			"-0.007": 6.15028282321,
			"-0.006": 9.48310126832,
			"-0.005": 13.3948199212,
			"-0.004": 15.7583457507,
			"-0.003": 27.6588789102,
			"-0.002": 32.6690064089,
			"-0.001": 44.6628993278,
			"0.0": 45.1468033059,
			"0.001": 33.9540140776,
			"0.002": 23.6403516555,
			"0.003": 24.4774121654,
			"0.004": 22.1095197695,
			"0.005": 11.7271642639,
			"0.006": 9.08599098001,
			"0.007": 2.33489850009,
			"0.008": 2.23329202714,
			"0.009": 2.59656319931,
			"0.01": 2.47588976427,
			"0.011": 3.17003063522,
			"0.012": 0.741020840337,
			"0.013": 0.0,
			"0.014": 0.0,
			"0.015": 0.0,
			"0.016": 0.0,
			"0.017": 0.0,
			"0.018": 0.0,
			"0.019": 0.0,
			"0.02": 0.0,
			"0.021": 0.0,
			"0.022": 0.0,
			"0.023": 0.0,
			"0.024": 0.0,
			"0.025": 0.0
		}
	}
}
