{
	 "smiles": "COC1=C(C=CC(O)=O)C=C(C)C=C1", 
	 "Tm": 415.15, 
	 "num_atms": 26, 
	 "gaussian": { 
		 "optdone": 1, 
		 "sigma_profile": "yes", 
		 "theory": "DFT", 
		 "functional": "B3LYP", 
		 "basiset": "6-31G**", 
		 "properties": { 
			 "R2extent": 3245.855, 
			 "electric_dipole_moment_norm": 2.9334075305, 
			 "electric_quadrupole_moment_norm": 14.1970320102, 
			 "total_energy": -652.058507628, 
			 "HOMO_LUMO_gap": 0.16816, 
			 "cosmo_polarized_energy": -11.36, 
			 "cosmo_cavitation_energy": 30.33, 
			 "cosmo_dispersion_energy": -21.21, 
			 "cosmo_repulsion_energy": 1.71, 
			 "cosmo_total_nonelectrostatic_energy": 10.83, 
			 "SMD_solvation_energy": 7.3 
		},
		"coords": [
			{
				"x": -0.7711404599,
				"y": -0.7612275309,
				"z": -3.448705676,
				"element": "C" 
			},
			{
				"x": 0.0909772616,
				"y": -1.6223094062,
				"z": -2.7023527981,
				"element": "O" 
			},
			{
				"x": -0.0440542867,
				"y": -1.5316539719,
				"z": -1.3317517066,
				"element": "C" 
			},
			{
				"x": 0.6585343361,
				"y": -0.5416394788,
				"z": -0.6119128385,
				"element": "C" 
			},
			{
				"x": 1.5715306892,
				"y": 0.334936671,
				"z": -1.3574560372,
				"element": "C" 
			},
			{
				"x": 1.9699580691,
				"y": 1.6128041017,
				"z": -1.1778349053,
				"element": "C" 
			},
			{
				"x": 1.5275774022,
				"y": 2.6588302865,
				"z": -0.234995909,
				"element": "C" 
			},
			{
				"x": 0.4101218301,
				"y": 2.3747332504,
				"z": 0.4822520548,
				"element": "O" 
			},
			{
				"x": 2.0935537839,
				"y": 3.7317587741,
				"z": -0.130809721,
				"element": "O" 
			},
			{
				"x": 0.541596367,
				"y": -0.5411248503,
				"z": 0.7896753437,
				"element": "C" 
			},
			{
				"x": -0.255899074,
				"y": -1.462927147,
				"z": 1.4694203893,
				"element": "C" 
			},
			{
				"x": -0.3710528299,
				"y": -1.4303371398,
				"z": 2.9760541296,
				"element": "C" 
			},
			{
				"x": -0.9512457174,
				"y": -2.4235641759,
				"z": 0.7189642054,
				"element": "C" 
			},
			{
				"x": -0.8479921223,
				"y": -2.4583720192,
				"z": -0.6689572788,
				"element": "C" 
			},
			{
				"x": -1.8259765078,
				"y": -0.98513601,
				"z": -3.2442570187,
				"element": "H" 
			},
			{
				"x": -0.5799725748,
				"y": 0.2947286723,
				"z": -3.2205734133,
				"element": "H" 
			},
			{
				"x": -0.5592299205,
				"y": -0.9478971156,
				"z": -4.5035039301,
				"element": "H" 
			},
			{
				"x": 2.0108926286,
				"y": -0.1629790538,
				"z": -2.220941374,
				"element": "H" 
			},
			{
				"x": 2.732733779,
				"y": 1.999171984,
				"z": -1.8468241545,
				"element": "H" 
			},
			{
				"x": 0.2424524555,
				"y": 3.1699410332,
				"z": 1.0152300514,
				"element": "H" 
			},
			{
				"x": 1.104525706,
				"y": 0.1899477798,
				"z": 1.3574001115,
				"element": "H" 
			},
			{
				"x": 0.3968220217,
				"y": -0.791741577,
				"z": 3.4211554373,
				"element": "H" 
			},
			{
				"x": -1.3468403254,
				"y": -1.0412831139,
				"z": 3.2919661097,
				"element": "H" 
			},
			{
				"x": -0.2685281286,
				"y": -2.4314907069,
				"z": 3.4080331967,
				"element": "H" 
			},
			{
				"x": -1.5712498585,
				"y": -3.1574504019,
				"z": 1.2282140952,
				"element": "H" 
			},
			{
				"x": -1.3692945241,
				"y": -3.2089188537,
				"z": -1.2547883636,
				"element": "H" 
			}
		],
		 "valence_orbital": [ 
			{
				"type": "occ",
				"energy": -0.29565,
				"method": "rhf"
			},
			{
				"type": "occ",
				"energy": -0.27565,
				"method": "rhf"
			},
			{
				"type": "occ",
				"energy": -0.2707,
				"method": "rhf"
			},
			{
				"type": "occ",
				"energy": -0.24461,
				"method": "rhf"
			},
			{
				"type": "occ",
				"energy": -0.23037,
				"method": "rhf"
			},
			{
				"type": "unocc",
				"energy": -0.06221,
				"method": "rhf"
			},
			{
				"type": "unocc",
				"energy": 0.00081,
				"method": "rhf"
			},
			{
				"type": "unocc",
				"energy": 0.01084,
				"method": "rhf"
			},
			{
				"type": "unocc",
				"energy": 0.07755,
				"method": "rhf"
			},
			{
				"type": "unocc",
				"energy": 0.09262,
				"method": "rhf"
			}
		],
		"cosmo_sigma_profile": { 
			"-0.025": 0.0,
			"-0.024": 0.0,
			"-0.023": 0.0,
			"-0.022": 0.0,
			"-0.021": 0.0,
			"-0.02": 0.0,
			"-0.019": 0.0,
			"-0.018": 0.241703845183,
			"-0.017": 1.0934746496,
			"-0.016": 0.692592513087,
			"-0.015": 0.931167823543,
			"-0.014": 0.716724201085,
			"-0.013": 0.771404275535,
			"-0.012": 0.285606951586,
			"-0.011": 0.584378336969,
			"-0.01": 1.21495824692,
			"-0.009": 0.600150004154,
			"-0.008": 0.441872961496,
			"-0.007": 1.19505488411,
			"-0.006": 8.53451585237,
			"-0.005": 14.3236525294,
			"-0.004": 22.6187773744,
			"-0.003": 25.523320808,
			"-0.002": 23.9557764687,
			"-0.001": 21.6074753389,
			"0.0": 21.1824121583,
			"0.001": 15.4598093319,
			"0.002": 14.2867097689,
			"0.003": 12.0369791639,
			"0.004": 12.5512431464,
			"0.005": 9.11319815907,
			"0.006": 3.92170146018,
			"0.007": 3.40898132243,
			"0.008": 3.85931164735,
			"0.009": 3.52958375303,
			"0.01": 3.79056642062,
			"0.011": 3.78044140287,
			"0.012": 6.03882469126,
			"0.013": 2.12145473139,
			"0.014": 0.0426712472699,
			"0.015": 0.0,
			"0.016": 0.0,
			"0.017": 0.0,
			"0.018": 0.0,
			"0.019": 0.0,
			"0.02": 0.0,
			"0.021": 0.0,
			"0.022": 0.0,
			"0.023": 0.0,
			"0.024": 0.0,
			"0.025": 0.0
		}
	}
}
