{
	 "smiles": "COC1=CC=C(F)C(F)=C1CBr", 
	 "Tm": 320.15, 
	 "num_atms": 19, 
	 "gaussian": { 
		 "optdone": 1, 
		 "sigma_profile": "yes", 
		 "theory": "DFT", 
		 "functional": "B3LYP", 
		 "basiset": "6-31G**", 
		 "properties": { 
			 "R2extent": 3960.0968, 
			 "electric_dipole_moment_norm": 4.40208253103, 
			 "electric_quadrupole_moment_norm": 6.63361071514, 
			 "total_energy": -3155.35101795, 
			 "HOMO_LUMO_gap": 0.18682, 
			 "cosmo_polarized_energy": -7.87, 
			 "cosmo_cavitation_energy": 26.34, 
			 "cosmo_dispersion_energy": -19.0, 
			 "cosmo_repulsion_energy": 1.49, 
			 "cosmo_total_nonelectrostatic_energy": 8.83, 
			 "SMD_solvation_energy": 5.06 
		},
		"coords": [
			{
				"x": -0.5841579391,
				"y": -2.0083219589,
				"z": 0.1809256281,
				"element": "C" 
			},
			{
				"x": -0.251754493,
				"y": -0.6744266783,
				"z": 0.5394472588,
				"element": "O" 
			},
			{
				"x": 0.8994720252,
				"y": -0.1371997931,
				"z": 0.0526705484,
				"element": "C" 
			},
			{
				"x": 1.8092629527,
				"y": -0.8188350551,
				"z": -0.7605269938,
				"element": "C" 
			},
			{
				"x": 2.9677134832,
				"y": -0.1740488623,
				"z": -1.2068940746,
				"element": "C" 
			},
			{
				"x": 3.2158015554,
				"y": 1.1371231973,
				"z": -0.840228947,
				"element": "C" 
			},
			{
				"x": 4.3257876115,
				"y": 1.7758694083,
				"z": -1.2531983211,
				"element": "F" 
			},
			{
				"x": 2.3048512115,
				"y": 1.8134048479,
				"z": -0.0299408396,
				"element": "C" 
			},
			{
				"x": 2.5695745085,
				"y": 3.0852974131,
				"z": 0.3147928759,
				"element": "F" 
			},
			{
				"x": 1.1428078299,
				"y": 1.2030450064,
				"z": 0.4355776725,
				"element": "C" 
			},
			{
				"x": 0.1935450987,
				"y": 1.9489127844,
				"z": 1.3033351118,
				"element": "C" 
			},
			{
				"x": -1.2872068954,
				"y": 2.8019908615,
				"z": 0.2472060607,
				"element": "Br" 
			},
			{
				"x": 0.1683114335,
				"y": -2.7214988967,
				"z": 0.5403872588,
				"element": "H" 
			},
			{
				"x": -0.6956898996,
				"y": -2.114759414,
				"z": -0.9049683118,
				"element": "H" 
			},
			{
				"x": -1.5394540565,
				"y": -2.2179017596,
				"z": 0.6632882998,
				"element": "H" 
			},
			{
				"x": 1.6306230325,
				"y": -1.8445367772,
				"z": -1.0561938569,
				"element": "H" 
			},
			{
				"x": 3.6840854623,
				"y": -0.6869889344,
				"z": -1.8392783123,
				"element": "H" 
			},
			{
				"x": 0.6716894485,
				"y": 2.7793723059,
				"z": 1.8146699919,
				"element": "H" 
			},
			{
				"x": -0.3221623697,
				"y": 1.2959023049,
				"z": 2.0012289503,
				"element": "H" 
			}
		],
		 "valence_orbital": [ 
			{
				"type": "occ",
				"energy": -0.32537,
				"method": "rhf"
			},
			{
				"type": "occ",
				"energy": -0.27183,
				"method": "rhf"
			},
			{
				"type": "occ",
				"energy": -0.26481,
				"method": "rhf"
			},
			{
				"type": "occ",
				"energy": -0.25598,
				"method": "rhf"
			},
			{
				"type": "occ",
				"energy": -0.2299,
				"method": "rhf"
			},
			{
				"type": "unocc",
				"energy": -0.04308,
				"method": "rhf"
			},
			{
				"type": "unocc",
				"energy": 0.00164,
				"method": "rhf"
			},
			{
				"type": "unocc",
				"energy": 0.02536,
				"method": "rhf"
			},
			{
				"type": "unocc",
				"energy": 0.06412,
				"method": "rhf"
			},
			{
				"type": "unocc",
				"energy": 0.09144,
				"method": "rhf"
			}
		],
		"cosmo_sigma_profile": { 
			"-0.025": 0.0,
			"-0.024": 0.0,
			"-0.023": 0.0,
			"-0.022": 0.0,
			"-0.021": 0.0,
			"-0.02": 0.0,
			"-0.019": 0.0,
			"-0.018": 0.0,
			"-0.017": 0.0,
			"-0.016": 0.0,
			"-0.015": 0.0,
			"-0.014": 0.0,
			"-0.013": 0.0,
			"-0.012": 0.0,
			"-0.011": 0.0,
			"-0.01": 0.0,
			"-0.009": 0.0734200933677,
			"-0.008": 2.58934958431,
			"-0.007": 8.59427675874,
			"-0.006": 13.8303301245,
			"-0.005": 15.0376116012,
			"-0.004": 14.8359544127,
			"-0.003": 12.6877602314,
			"-0.002": 10.1119266055,
			"-0.001": 13.1312504282,
			"0.0": 16.871790523,
			"0.001": 18.144671138,
			"0.002": 16.4873208244,
			"0.003": 22.0565959364,
			"0.004": 21.1856010317,
			"0.005": 9.78498245997,
			"0.006": 12.1501422196,
			"0.007": 5.51686060015,
			"0.008": 0.943589916026,
			"0.009": 0.0,
			"0.01": 0.0,
			"0.011": 0.0,
			"0.012": 0.0,
			"0.013": 0.0,
			"0.014": 0.0,
			"0.015": 0.0,
			"0.016": 0.0,
			"0.017": 0.0,
			"0.018": 0.0,
			"0.019": 0.0,
			"0.02": 0.0,
			"0.021": 0.0,
			"0.022": 0.0,
			"0.023": 0.0,
			"0.024": 0.0,
			"0.025": 0.0
		}
	}
}
