{
	 "smiles": "CC1=CC(=O)NC=C1Br", 
	 "Tm": 471.15, 
	 "num_atms": 15, 
	 "gaussian": { 
		 "optdone": 1, 
		 "sigma_profile": "yes", 
		 "theory": "DFT", 
		 "functional": "B3LYP", 
		 "basiset": "6-31G**", 
		 "properties": { 
			 "R2extent": 3725.4144, 
			 "electric_dipole_moment_norm": 2.73201835279, 
			 "electric_quadrupole_moment_norm": 13.5333926962, 
			 "total_energy": -2933.64053335, 
			 "HOMO_LUMO_gap": 0.17193, 
			 "cosmo_polarized_energy": -12.8, 
			 "cosmo_cavitation_energy": 21.31, 
			 "cosmo_dispersion_energy": -16.31, 
			 "cosmo_repulsion_energy": 1.33, 
			 "cosmo_total_nonelectrostatic_energy": 6.33, 
			 "SMD_solvation_energy": 3.71 
		},
		"coords": [
			{
				"x": -0.9499027945,
				"y": 1.4941272787,
				"z": -1.3841089986,
				"element": "C" 
			},
			{
				"x": 0.3456310876,
				"y": 0.7321991722,
				"z": -1.3223695107,
				"element": "C" 
			},
			{
				"x": 1.0555306333,
				"y": 0.6351520767,
				"z": -0.153941864,
				"element": "C" 
			},
			{
				"x": 2.31009409,
				"y": -0.0837934724,
				"z": -0.0270353509,
				"element": "C" 
			},
			{
				"x": 2.9912810559,
				"y": -0.2073266317,
				"z": 0.985175978,
				"element": "O" 
			},
			{
				"x": 2.7275935493,
				"y": -0.6768510541,
				"z": -1.2387204476,
				"element": "N" 
			},
			{
				"x": 2.0510898471,
				"y": -0.6033166011,
				"z": -2.419249914,
				"element": "C" 
			},
			{
				"x": 0.8764629482,
				"y": 0.0828846754,
				"z": -2.4909324435,
				"element": "C" 
			},
			{
				"x": -0.0336078643,
				"y": 0.1568478392,
				"z": -4.1668731054,
				"element": "Br" 
			},
			{
				"x": -0.8904661633,
				"y": 2.3063954935,
				"z": -2.1164139645,
				"element": "H" 
			},
			{
				"x": -1.7708221247,
				"y": 0.8430435953,
				"z": -1.703113761,
				"element": "H" 
			},
			{
				"x": -1.1973553226,
				"y": 1.9183628117,
				"z": -0.4091508255,
				"element": "H" 
			},
			{
				"x": 0.6946948783,
				"y": 1.1082546921,
				"z": 0.7525658987,
				"element": "H" 
			},
			{
				"x": 3.6009256113,
				"y": -1.186113637,
				"z": -1.1823947384,
				"element": "H" 
			},
			{
				"x": 2.4896505684,
				"y": -1.1076662386,
				"z": -3.2713369527,
				"element": "H" 
			}
		],
		 "valence_orbital": [ 
			{
				"type": "occ",
				"energy": -0.31959,
				"method": "rhf"
			},
			{
				"type": "occ",
				"energy": -0.30007,
				"method": "rhf"
			},
			{
				"type": "occ",
				"energy": -0.28729,
				"method": "rhf"
			},
			{
				"type": "occ",
				"energy": -0.25279,
				"method": "rhf"
			},
			{
				"type": "occ",
				"energy": -0.21847,
				"method": "rhf"
			},
			{
				"type": "unocc",
				"energy": -0.04654,
				"method": "rhf"
			},
			{
				"type": "unocc",
				"energy": -0.00601,
				"method": "rhf"
			},
			{
				"type": "unocc",
				"energy": 0.00303,
				"method": "rhf"
			},
			{
				"type": "unocc",
				"energy": 0.07874,
				"method": "rhf"
			},
			{
				"type": "unocc",
				"energy": 0.10866,
				"method": "rhf"
			}
		],
		"cosmo_sigma_profile": { 
			"-0.025": 0.0,
			"-0.024": 0.0,
			"-0.023": 0.0,
			"-0.022": 0.0,
			"-0.021": 0.0,
			"-0.02": 0.0,
			"-0.019": 0.0,
			"-0.018": 0.0,
			"-0.017": 0.152930655744,
			"-0.016": 1.62230587139,
			"-0.015": 1.34567106631,
			"-0.014": 1.20557203674,
			"-0.013": 1.20956932452,
			"-0.012": 1.40988428647,
			"-0.011": 1.60640961665,
			"-0.01": 2.99750710161,
			"-0.009": 1.979158152,
			"-0.008": 1.66589288155,
			"-0.007": 2.11213675262,
			"-0.006": 4.89793628295,
			"-0.005": 9.17599245584,
			"-0.004": 9.30188153271,
			"-0.003": 11.3894393379,
			"-0.002": 12.7799535749,
			"-0.001": 18.8513632593,
			"0.0": 16.9237819192,
			"0.001": 14.7195863915,
			"0.002": 12.7951800035,
			"0.003": 10.9548428374,
			"0.004": 8.92879454346,
			"0.005": 4.12228759368,
			"0.006": 1.64364817384,
			"0.007": 0.390877673384,
			"0.008": 1.61884585975,
			"0.009": 1.29206827653,
			"0.01": 0.48874501157,
			"0.011": 2.08103744725,
			"0.012": 1.22689996754,
			"0.013": 2.26879719894,
			"0.014": 6.51163938011,
			"0.015": 3.07290707297,
			"0.016": 0.304939040162,
			"0.017": 0.0,
			"0.018": 0.0,
			"0.019": 0.0,
			"0.02": 0.0,
			"0.021": 0.0,
			"0.022": 0.0,
			"0.023": 0.0,
			"0.024": 0.0,
			"0.025": 0.0
		}
	}
}
