{
	 "smiles": "COC1=C(OC)C=C(C=O)C(C)=C1", 
	 "Tm": 344.15, 
	 "num_atms": 25, 
	 "gaussian": { 
		 "optdone": 1, 
		 "sigma_profile": "yes", 
		 "theory": "DFT", 
		 "functional": "B3LYP", 
		 "basiset": "6-31G**", 
		 "properties": { 
			 "R2extent": 2903.273, 
			 "electric_dipole_moment_norm": 3.65411376533, 
			 "electric_quadrupole_moment_norm": 6.86215862539, 
			 "total_energy": -613.932422315, 
			 "HOMO_LUMO_gap": 0.17936, 
			 "cosmo_polarized_energy": -8.75, 
			 "cosmo_cavitation_energy": 28.47, 
			 "cosmo_dispersion_energy": -20.34, 
			 "cosmo_repulsion_energy": 1.61, 
			 "cosmo_total_nonelectrostatic_energy": 9.74, 
			 "SMD_solvation_energy": 7.38 
		},
		"coords": [
			{
				"x": 1.6891702423,
				"y": 3.5319971419,
				"z": -1.1343560493,
				"element": "C" 
			},
			{
				"x": 2.0341249657,
				"y": 2.1546766474,
				"z": -0.9217020143,
				"element": "O" 
			},
			{
				"x": 1.0108302999,
				"y": 1.3414393172,
				"z": -0.5092270326,
				"element": "C" 
			},
			{
				"x": -0.1107354841,
				"y": 1.0787318499,
				"z": -1.3200165511,
				"element": "C" 
			},
			{
				"x": -0.2660306875,
				"y": 1.6599689378,
				"z": -2.5593921935,
				"element": "O" 
			},
			{
				"x": 0.6312444599,
				"y": 1.1684522742,
				"z": -3.5636367453,
				"element": "C" 
			},
			{
				"x": -1.0988065824,
				"y": 0.2331673742,
				"z": -0.8323803278,
				"element": "C" 
			},
			{
				"x": -0.9967743165,
				"y": -0.3757431053,
				"z": 0.4287564101,
				"element": "C" 
			},
			{
				"x": -2.1151159985,
				"y": -1.2507972783,
				"z": 0.8304843903,
				"element": "C" 
			},
			{
				"x": -2.2093206205,
				"y": -1.872917156,
				"z": 1.8743987028,
				"element": "O" 
			},
			{
				"x": 0.1458144284,
				"y": -0.1444241522,
				"z": 1.236019653,
				"element": "C" 
			},
			{
				"x": 0.3281373796,
				"y": -0.7763230313,
				"z": 2.5933638844,
				"element": "C" 
			},
			{
				"x": 1.1233206398,
				"y": 0.7199224557,
				"z": 0.7383659217,
				"element": "C" 
			},
			{
				"x": 1.3558575489,
				"y": 3.9914317277,
				"z": -0.1959866125,
				"element": "H" 
			},
			{
				"x": 2.60401501,
				"y": 4.0226269627,
				"z": -1.4711496165,
				"element": "H" 
			},
			{
				"x": 0.9071217901,
				"y": 3.6375572635,
				"z": -1.890927596,
				"element": "H" 
			},
			{
				"x": 1.6757947451,
				"y": 1.3442526748,
				"z": -3.2868646516,
				"element": "H" 
			},
			{
				"x": 0.4752144847,
				"y": 0.0955981205,
				"z": -3.731211797,
				"element": "H" 
			},
			{
				"x": 0.395137011,
				"y": 1.7150407915,
				"z": -4.478724211,
				"element": "H" 
			},
			{
				"x": -1.9668961645,
				"y": 0.0453064234,
				"z": -1.4591357716,
				"element": "H" 
			},
			{
				"x": -2.9251911653,
				"y": -1.3122097339,
				"z": 0.0679667098,
				"element": "H" 
			},
			{
				"x": 0.3173464972,
				"y": -1.8681633746,
				"z": 2.5296566271,
				"element": "H" 
			},
			{
				"x": -0.4889580944,
				"y": -0.5122995606,
				"z": 3.2706942255,
				"element": "H" 
			},
			{
				"x": 1.2748339033,
				"y": -0.4569038594,
				"z": 3.0376127481,
				"element": "H" 
			},
			{
				"x": 2.0102657079,
				"y": 0.9394112891,
				"z": 1.325391897,
				"element": "H" 
			}
		],
		 "valence_orbital": [ 
			{
				"type": "occ",
				"energy": -0.30604,
				"method": "rhf"
			},
			{
				"type": "occ",
				"energy": -0.27544,
				"method": "rhf"
			},
			{
				"type": "occ",
				"energy": -0.25291,
				"method": "rhf"
			},
			{
				"type": "occ",
				"energy": -0.24671,
				"method": "rhf"
			},
			{
				"type": "occ",
				"energy": -0.23568,
				"method": "rhf"
			},
			{
				"type": "unocc",
				"energy": -0.05632,
				"method": "rhf"
			},
			{
				"type": "unocc",
				"energy": -0.00716,
				"method": "rhf"
			},
			{
				"type": "unocc",
				"energy": 0.04237,
				"method": "rhf"
			},
			{
				"type": "unocc",
				"energy": 0.07891,
				"method": "rhf"
			},
			{
				"type": "unocc",
				"energy": 0.1105,
				"method": "rhf"
			}
		],
		"cosmo_sigma_profile": { 
			"-0.025": 0.0,
			"-0.024": 0.0,
			"-0.023": 0.0,
			"-0.022": 0.0,
			"-0.021": 0.0,
			"-0.02": 0.0,
			"-0.019": 0.0,
			"-0.018": 0.0,
			"-0.017": 0.0,
			"-0.016": 0.0,
			"-0.015": 0.0,
			"-0.014": 0.0,
			"-0.013": 0.0,
			"-0.012": 0.0,
			"-0.011": 0.0,
			"-0.01": 0.0,
			"-0.009": 0.0,
			"-0.008": 0.63011977311,
			"-0.007": 3.53670793168,
			"-0.006": 8.82993791872,
			"-0.005": 14.7451902169,
			"-0.004": 20.5731765951,
			"-0.003": 26.8951779716,
			"-0.002": 24.8704350011,
			"-0.001": 22.3473863086,
			"0.0": 20.3308519475,
			"0.001": 16.7444509005,
			"0.002": 16.0042206618,
			"0.003": 12.119402997,
			"0.004": 4.88696721163,
			"0.005": 4.56391167612,
			"0.006": 3.40588751273,
			"0.007": 4.03417288901,
			"0.008": 3.274321797,
			"0.009": 4.29343502377,
			"0.01": 3.76126768982,
			"0.011": 4.81631908281,
			"0.012": 3.31723839543,
			"0.013": 1.47394755914,
			"0.014": 0.109427557978,
			"0.015": 0.0,
			"0.016": 0.0,
			"0.017": 0.0,
			"0.018": 0.0,
			"0.019": 0.0,
			"0.02": 0.0,
			"0.021": 0.0,
			"0.022": 0.0,
			"0.023": 0.0,
			"0.024": 0.0,
			"0.025": 0.0
		}
	}
}
