{
	 "smiles": "CC(=O)NC1=CC=C(OC2=NC3=C(O2)C=CC=C3)C=C1", 
	 "Tm": 438.15, 
	 "num_atms": 32, 
	 "gaussian": { 
		 "optdone": 1, 
		 "sigma_profile": "yes", 
		 "theory": "DFT", 
		 "functional": "B3LYP", 
		 "basiset": "6-31G**", 
		 "properties": { 
			 "R2extent": 8580.4259, 
			 "electric_dipole_moment_norm": 2.07263627779, 
			 "electric_quadrupole_moment_norm": 27.522652146, 
			 "total_energy": -914.002534442, 
			 "HOMO_LUMO_gap": 0.19383, 
			 "cosmo_polarized_energy": -17.02, 
			 "cosmo_cavitation_energy": 37.68, 
			 "cosmo_dispersion_energy": -27.28, 
			 "cosmo_repulsion_energy": 2.09, 
			 "cosmo_total_nonelectrostatic_energy": 12.48, 
			 "SMD_solvation_energy": 5.77 
		},
		"coords": [
			{
				"x": -0.1281596286,
				"y": -1.8979534923,
				"z": -4.464860158,
				"element": "C" 
			},
			{
				"x": -1.3012211275,
				"y": -1.1532673893,
				"z": -5.0734056345,
				"element": "C" 
			},
			{
				"x": -1.5386558838,
				"y": -1.1862633524,
				"z": -6.2714623445,
				"element": "O" 
			},
			{
				"x": -2.118159332,
				"y": -0.40081984,
				"z": -4.2415447375,
				"element": "N" 
			},
			{
				"x": -2.0724144142,
				"y": -0.1551491314,
				"z": -2.8518556112,
				"element": "C" 
			},
			{
				"x": -2.3353343789,
				"y": 1.1433324727,
				"z": -2.3879196994,
				"element": "C" 
			},
			{
				"x": -2.3373022269,
				"y": 1.4264532022,
				"z": -1.0255396933,
				"element": "C" 
			},
			{
				"x": -2.0612279608,
				"y": 0.4094166613,
				"z": -0.1161744122,
				"element": "C" 
			},
			{
				"x": -2.1470716857,
				"y": 0.7423677143,
				"z": 1.2377643444,
				"element": "O" 
			},
			{
				"x": -1.2433520936,
				"y": 0.3000131226,
				"z": 2.1135065662,
				"element": "C" 
			},
			{
				"x": -1.4450422674,
				"y": 0.1751506181,
				"z": 3.3812177626,
				"element": "N" 
			},
			{
				"x": -0.1947367621,
				"y": -0.2266561151,
				"z": 3.8659069012,
				"element": "C" 
			},
			{
				"x": 0.703995582,
				"y": -0.329024374,
				"z": 2.7946088777,
				"element": "C" 
			},
			{
				"x": 0.0147667496,
				"y": 0.0221933935,
				"z": 1.6461592022,
				"element": "O" 
			},
			{
				"x": 2.0259688824,
				"y": -0.7176343197,
				"z": 2.919122711,
				"element": "C" 
			},
			{
				"x": 2.4472259678,
				"y": -1.011729035,
				"z": 4.221146298,
				"element": "C" 
			},
			{
				"x": 1.570527191,
				"y": -0.9164536803,
				"z": 5.3148923652,
				"element": "C" 
			},
			{
				"x": 0.238912652,
				"y": -0.5243920067,
				"z": 5.1584814371,
				"element": "C" 
			},
			{
				"x": -1.8153140528,
				"y": -0.8910199903,
				"z": -0.5501745529,
				"element": "C" 
			},
			{
				"x": -1.832955257,
				"y": -1.1715066326,
				"z": -1.9148871728,
				"element": "C" 
			},
			{
				"x": -0.4409060074,
				"y": -2.8958326662,
				"z": -4.1392415831,
				"element": "H" 
			},
			{
				"x": 0.6166988244,
				"y": -2.0232681156,
				"z": -5.251437294,
				"element": "H" 
			},
			{
				"x": 0.3114050519,
				"y": -1.3818159157,
				"z": -3.6086320198,
				"element": "H" 
			},
			{
				"x": -2.7875620823,
				"y": 0.1389555447,
				"z": -4.7770079147,
				"element": "H" 
			},
			{
				"x": -2.5270463968,
				"y": 1.9377081556,
				"z": -3.103393403,
				"element": "H" 
			},
			{
				"x": -2.5397423106,
				"y": 2.4271354573,
				"z": -0.6597138824,
				"element": "H" 
			},
			{
				"x": 2.691028118,
				"y": -0.785065958,
				"z": 2.0654889129,
				"element": "H" 
			},
			{
				"x": 3.4750440701,
				"y": -1.3189741951,
				"z": 4.3871822156,
				"element": "H" 
			},
			{
				"x": 1.9402529538,
				"y": -1.1544339759,
				"z": 6.3077116785,
				"element": "H" 
			},
			{
				"x": -0.4389848474,
				"y": -0.4515019031,
				"z": 6.0019922844,
				"element": "H" 
			},
			{
				"x": -1.6360361363,
				"y": -1.6848953802,
				"z": 0.1664226202,
				"element": "H" 
			},
			{
				"x": -1.6890011909,
				"y": -2.1925688736,
				"z": -2.2468540639,
				"element": "H" 
			}
		],
		 "valence_orbital": [ 
			{
				"type": "occ",
				"energy": -0.27671,
				"method": "rhf"
			},
			{
				"type": "occ",
				"energy": -0.2578,
				"method": "rhf"
			},
			{
				"type": "occ",
				"energy": -0.25088,
				"method": "rhf"
			},
			{
				"type": "occ",
				"energy": -0.23987,
				"method": "rhf"
			},
			{
				"type": "occ",
				"energy": -0.22412,
				"method": "rhf"
			},
			{
				"type": "unocc",
				"energy": -0.03029,
				"method": "rhf"
			},
			{
				"type": "unocc",
				"energy": -0.02743,
				"method": "rhf"
			},
			{
				"type": "unocc",
				"energy": -0.01549,
				"method": "rhf"
			},
			{
				"type": "unocc",
				"energy": 0.00293,
				"method": "rhf"
			},
			{
				"type": "unocc",
				"energy": 0.0265,
				"method": "rhf"
			}
		],
		"cosmo_sigma_profile": { 
			"-0.025": 0.0,
			"-0.024": 0.0,
			"-0.023": 0.0,
			"-0.022": 0.0,
			"-0.021": 0.0,
			"-0.02": 0.0,
			"-0.019": 0.0,
			"-0.018": 0.0,
			"-0.017": 0.0,
			"-0.016": 0.0,
			"-0.015": 0.00253375047273,
			"-0.014": 0.698728424432,
			"-0.013": 1.38891505423,
			"-0.012": 1.12787642216,
			"-0.011": 0.915494504154,
			"-0.01": 1.05924518313,
			"-0.009": 1.79840576236,
			"-0.008": 7.64262569982,
			"-0.007": 12.738592888,
			"-0.006": 17.8560365754,
			"-0.005": 20.9967108545,
			"-0.004": 20.008953481,
			"-0.003": 22.6752335921,
			"-0.002": 20.458576002,
			"-0.001": 20.7372284713,
			"0.0": 18.3312093659,
			"0.001": 21.3349646548,
			"0.002": 23.3595825556,
			"0.003": 24.1499412142,
			"0.004": 17.4845922036,
			"0.005": 11.537160892,
			"0.006": 4.48131141498,
			"0.007": 4.44575960958,
			"0.008": 2.41937830901,
			"0.009": 3.60930128435,
			"0.01": 3.00665259706,
			"0.011": 2.26206364445,
			"0.012": 3.27469254009,
			"0.013": 6.71418839132,
			"0.014": 4.76002537577,
			"0.015": 1.26574727872,
			"0.016": 0.131048435492,
			"0.017": 0.0,
			"0.018": 0.0,
			"0.019": 0.0,
			"0.02": 0.0,
			"0.021": 0.0,
			"0.022": 0.0,
			"0.023": 0.0,
			"0.024": 0.0,
			"0.025": 0.0
		}
	}
}
