{
	 "smiles": "OCC1=CC(Cl)=NC(Cl)=C1", 
	 "Tm": 402.15, 
	 "num_atms": 15, 
	 "gaussian": { 
		 "optdone": 1, 
		 "sigma_profile": "yes", 
		 "theory": "DFT", 
		 "functional": "B3LYP", 
		 "basiset": "6-31G**", 
		 "properties": { 
			 "R2extent": 2727.0682, 
			 "electric_dipole_moment_norm": 5.74745531344, 
			 "electric_quadrupole_moment_norm": 8.84417784534, 
			 "total_energy": -1281.99762382, 
			 "HOMO_LUMO_gap": 0.21472, 
			 "cosmo_polarized_energy": -11.49, 
			 "cosmo_cavitation_energy": 23.21, 
			 "cosmo_dispersion_energy": -17.7, 
			 "cosmo_repulsion_energy": 1.47, 
			 "cosmo_total_nonelectrostatic_energy": 6.98, 
			 "SMD_solvation_energy": 2.18 
		},
		"coords": [
			{
				"x": 1.922603211,
				"y": 1.8442102779,
				"z": 0.8699749969,
				"element": "O" 
			},
			{
				"x": 0.6077194167,
				"y": 1.9248126444,
				"z": 1.3825579083,
				"element": "C" 
			},
			{
				"x": -0.3092829747,
				"y": 1.0455956022,
				"z": 0.5631745239,
				"element": "C" 
			},
			{
				"x": -1.6689161338,
				"y": 0.9631960452,
				"z": 0.8849022306,
				"element": "C" 
			},
			{
				"x": -2.4690521618,
				"y": 0.1396392246,
				"z": 0.0988419136,
				"element": "C" 
			},
			{
				"x": -4.182434743,
				"y": 0.0122610926,
				"z": 0.4747282127,
				"element": "Cl" 
			},
			{
				"x": -2.0362168506,
				"y": -0.5715946532,
				"z": -0.9316776789,
				"element": "N" 
			},
			{
				"x": -0.7476243218,
				"y": -0.4777790095,
				"z": -1.2168512711,
				"element": "C" 
			},
			{
				"x": -0.1798404905,
				"y": -1.4239344445,
				"z": -2.5853069042,
				"element": "Cl" 
			},
			{
				"x": 0.1710268666,
				"y": 0.3060229546,
				"z": -0.5178658604,
				"element": "C" 
			},
			{
				"x": 2.493435713,
				"y": 2.4099708344,
				"z": 1.4027958404,
				"element": "H" 
			},
			{
				"x": 0.2211581473,
				"y": 2.9567940795,
				"z": 1.3523880367,
				"element": "H" 
			},
			{
				"x": 0.5592855861,
				"y": 1.5963272574,
				"z": 2.4337802208,
				"element": "H" 
			},
			{
				"x": -2.0948147691,
				"y": 1.5164423941,
				"z": 1.714390913,
				"element": "H" 
			},
			{
				"x": 1.2146535046,
				"y": 0.3438357003,
				"z": -0.7968330822,
				"element": "H" 
			}
		],
		 "valence_orbital": [ 
			{
				"type": "occ",
				"energy": -0.3152,
				"method": "rhf"
			},
			{
				"type": "occ",
				"energy": -0.30524,
				"method": "rhf"
			},
			{
				"type": "occ",
				"energy": -0.29137,
				"method": "rhf"
			},
			{
				"type": "occ",
				"energy": -0.28694,
				"method": "rhf"
			},
			{
				"type": "occ",
				"energy": -0.25785,
				"method": "rhf"
			},
			{
				"type": "unocc",
				"energy": -0.04313,
				"method": "rhf"
			},
			{
				"type": "unocc",
				"energy": -0.03191,
				"method": "rhf"
			},
			{
				"type": "unocc",
				"energy": 0.01871,
				"method": "rhf"
			},
			{
				"type": "unocc",
				"energy": 0.04215,
				"method": "rhf"
			},
			{
				"type": "unocc",
				"energy": 0.05682,
				"method": "rhf"
			}
		],
		"cosmo_sigma_profile": { 
			"-0.025": 0.0,
			"-0.024": 0.0,
			"-0.023": 0.0,
			"-0.022": 0.0,
			"-0.021": 0.0,
			"-0.02": 0.0,
			"-0.019": 0.0,
			"-0.018": 0.0,
			"-0.017": 0.542919489779,
			"-0.016": 1.0517177005,
			"-0.015": 1.43805944009,
			"-0.014": 0.891033924641,
			"-0.013": 0.924445110842,
			"-0.012": 0.539704154562,
			"-0.011": 0.611920959599,
			"-0.01": 1.03500113422,
			"-0.009": 2.19995133565,
			"-0.008": 4.2583595359,
			"-0.007": 5.12234381807,
			"-0.006": 11.2507962521,
			"-0.005": 8.54448479213,
			"-0.004": 5.88351379721,
			"-0.003": 5.85416151382,
			"-0.002": 11.1950090717,
			"-0.001": 20.469091855,
			"0.0": 18.9579102947,
			"0.001": 13.1685219564,
			"0.002": 12.4070007496,
			"0.003": 14.9116112646,
			"0.004": 20.8412458721,
			"0.005": 8.10261493878,
			"0.006": 4.38690209829,
			"0.007": 3.41209067056,
			"0.008": 3.09258430384,
			"0.009": 3.06945352508,
			"0.01": 2.32725300893,
			"0.011": 2.28859433915,
			"0.012": 1.11316605155,
			"0.013": 0.433878521661,
			"0.014": 0.0,
			"0.015": 0.0,
			"0.016": 0.0,
			"0.017": 0.0,
			"0.018": 0.0,
			"0.019": 0.0,
			"0.02": 0.0,
			"0.021": 0.0,
			"0.022": 0.0,
			"0.023": 0.0,
			"0.024": 0.0,
			"0.025": 0.0
		}
	}
}
