{
	 "smiles": "COC1=CC(Br)=CC(OC)=C1OC", 
	 "Tm": 351.65, 
	 "num_atms": 24, 
	 "gaussian": { 
		 "optdone": 1, 
		 "sigma_profile": "yes", 
		 "theory": "DFT", 
		 "functional": "B3LYP", 
		 "basiset": "6-31G**", 
		 "properties": { 
			 "R2extent": 5137.6002, 
			 "electric_dipole_moment_norm": 2.99077451674, 
			 "electric_quadrupole_moment_norm": 6.21537252383, 
			 "total_energy": -3146.60917779, 
			 "HOMO_LUMO_gap": 0.21957, 
			 "cosmo_polarized_energy": -6.52, 
			 "cosmo_cavitation_energy": 30.06, 
			 "cosmo_dispersion_energy": -21.51, 
			 "cosmo_repulsion_energy": 1.74, 
			 "cosmo_total_nonelectrostatic_energy": 10.3, 
			 "SMD_solvation_energy": 6.41 
		},
		"coords": [
			{
				"x": 1.4467420531,
				"y": 1.6889662701,
				"z": -1.8582266833,
				"element": "C" 
			},
			{
				"x": 0.0814846049,
				"y": 1.923201946,
				"z": -1.4900522854,
				"element": "O" 
			},
			{
				"x": -0.6412258396,
				"y": 0.810098499,
				"z": -1.142471618,
				"element": "C" 
			},
			{
				"x": -1.7246219547,
				"y": 0.4451296199,
				"z": -1.9468518293,
				"element": "C" 
			},
			{
				"x": -2.5179932159,
				"y": -0.6325005805,
				"z": -1.5640017111,
				"element": "C" 
			},
			{
				"x": -4.0086003133,
				"y": -1.1261974253,
				"z": -2.6559755912,
				"element": "Br" 
			},
			{
				"x": -2.2469192253,
				"y": -1.3683957637,
				"z": -0.414103472,
				"element": "C" 
			},
			{
				"x": -1.1626372943,
				"y": -1.0002403145,
				"z": 0.3876024084,
				"element": "C" 
			},
			{
				"x": -0.9574727488,
				"y": -1.6843427964,
				"z": 1.5589486912,
				"element": "O" 
			},
			{
				"x": 0.2574298278,
				"y": -2.4412167339,
				"z": 1.632995012,
				"element": "C" 
			},
			{
				"x": -0.3545512823,
				"y": 0.0936414975,
				"z": 0.0323938693,
				"element": "C" 
			},
			{
				"x": 0.7072143437,
				"y": 0.4616330284,
				"z": 0.8295156911,
				"element": "O" 
			},
			{
				"x": 0.3594588461,
				"y": 1.4160419657,
				"z": 1.8432603859,
				"element": "C" 
			},
			{
				"x": 2.0114293078,
				"y": 1.2472392793,
				"z": -1.0327880104,
				"element": "H" 
			},
			{
				"x": 1.8626373924,
				"y": 2.6663980126,
				"z": -2.1102709427,
				"element": "H" 
			},
			{
				"x": 1.5037184408,
				"y": 1.0350223558,
				"z": -2.7374796392,
				"element": "H" 
			},
			{
				"x": -1.9331577326,
				"y": 1.0178417509,
				"z": -2.8419216043,
				"element": "H" 
			},
			{
				"x": -2.8621627427,
				"y": -2.208014366,
				"z": -0.1155453864,
				"element": "H" 
			},
			{
				"x": 1.1348673275,
				"y": -1.7955659393,
				"z": 1.5403106656,
				"element": "H" 
			},
			{
				"x": 0.2533347567,
				"y": -2.922200506,
				"z": 2.6130472127,
				"element": "H" 
			},
			{
				"x": 0.2811711333,
				"y": -3.2123059821,
				"z": 0.8527232873,
				"element": "H" 
			},
			{
				"x": -0.0118383998,
				"y": 2.342728525,
				"z": 1.392092847,
				"element": "H" 
			},
			{
				"x": 1.2762744273,
				"y": 1.6219609401,
				"z": 2.3994422474,
				"element": "H" 
			},
			{
				"x": -0.3959817123,
				"y": 1.0036767174,
				"z": 2.5210564554,
				"element": "H" 
			}
		],
		 "valence_orbital": [ 
			{
				"type": "occ",
				"energy": -0.28533,
				"method": "rhf"
			},
			{
				"type": "occ",
				"energy": -0.27926,
				"method": "rhf"
			},
			{
				"type": "occ",
				"energy": -0.26647,
				"method": "rhf"
			},
			{
				"type": "occ",
				"energy": -0.23905,
				"method": "rhf"
			},
			{
				"type": "occ",
				"energy": -0.23016,
				"method": "rhf"
			},
			{
				"type": "unocc",
				"energy": -0.01059,
				"method": "rhf"
			},
			{
				"type": "unocc",
				"energy": -0.00523,
				"method": "rhf"
			},
			{
				"type": "unocc",
				"energy": 0.00731,
				"method": "rhf"
			},
			{
				"type": "unocc",
				"energy": 0.07572,
				"method": "rhf"
			},
			{
				"type": "unocc",
				"energy": 0.11861,
				"method": "rhf"
			}
		],
		"cosmo_sigma_profile": { 
			"-0.025": 0.0,
			"-0.024": 0.0,
			"-0.023": 0.0,
			"-0.022": 0.0,
			"-0.021": 0.0,
			"-0.02": 0.0,
			"-0.019": 0.0,
			"-0.018": 0.0,
			"-0.017": 0.0,
			"-0.016": 0.0,
			"-0.015": 0.0,
			"-0.014": 0.0,
			"-0.013": 0.0,
			"-0.012": 0.0,
			"-0.011": 0.0,
			"-0.01": 0.0,
			"-0.009": 0.0,
			"-0.008": 0.230210977526,
			"-0.007": 1.93838264434,
			"-0.006": 6.48539691586,
			"-0.005": 14.4848462536,
			"-0.004": 21.5717072487,
			"-0.003": 31.0492718652,
			"-0.002": 26.3895865125,
			"-0.001": 18.1081764375,
			"0.0": 16.0053377053,
			"0.001": 18.4690565759,
			"0.002": 24.6992478072,
			"0.003": 20.740850481,
			"0.004": 16.0548360897,
			"0.005": 9.71675950935,
			"0.006": 3.30814858421,
			"0.007": 3.00578781122,
			"0.008": 2.19323281119,
			"0.009": 2.45615062574,
			"0.01": 2.35576284096,
			"0.011": 2.22894776932,
			"0.012": 0.467340379763,
			"0.013": 0.0,
			"0.014": 0.0,
			"0.015": 0.0,
			"0.016": 0.0,
			"0.017": 0.0,
			"0.018": 0.0,
			"0.019": 0.0,
			"0.02": 0.0,
			"0.021": 0.0,
			"0.022": 0.0,
			"0.023": 0.0,
			"0.024": 0.0,
			"0.025": 0.0
		}
	}
}
