{
	 "smiles": "CCN1CCN(CC1)S(=O)(=O)C1=CC=C(CCC(O)=O)C=C1", 
	 "Tm": 513.15, 
	 "num_atms": 44, 
	 "gaussian": { 
		 "optdone": 1, 
		 "sigma_profile": "yes", 
		 "theory": "DFT", 
		 "functional": "B3LYP", 
		 "basiset": "6-31G**", 
		 "properties": { 
			 "R2extent": 12011.4186, 
			 "electric_dipole_moment_norm": 6.03566837641, 
			 "electric_quadrupole_moment_norm": 31.7281626644, 
			 "total_energy": -1393.36637574, 
			 "HOMO_LUMO_gap": 0.16206, 
			 "cosmo_polarized_energy": -24.35, 
			 "cosmo_cavitation_energy": 46.65, 
			 "cosmo_dispersion_energy": -32.47, 
			 "cosmo_repulsion_energy": 2.45, 
			 "cosmo_total_nonelectrostatic_energy": 16.63, 
			 "SMD_solvation_energy": 4.48 
		},
		"coords": [
			{
				"x": 0.7380727401,
				"y": -4.2939858678,
				"z": -5.7101392559,
				"element": "C" 
			},
			{
				"x": -0.017968068,
				"y": -4.4873287759,
				"z": -4.394472091,
				"element": "C" 
			},
			{
				"x": -0.2679096827,
				"y": -3.2253013393,
				"z": -3.6946236265,
				"element": "N" 
			},
			{
				"x": -1.2646983545,
				"y": -3.3276156832,
				"z": -2.6151449501,
				"element": "C" 
			},
			{
				"x": -0.6531259233,
				"y": -3.4356680681,
				"z": -1.2154189962,
				"element": "C" 
			},
			{
				"x": 0.0889797808,
				"y": -2.1755613267,
				"z": -0.9574591017,
				"element": "N" 
			},
			{
				"x": 0.6952693348,
				"y": -1.5484671068,
				"z": -2.1571945558,
				"element": "C" 
			},
			{
				"x": 0.9742194305,
				"y": -2.5811769936,
				"z": -3.2467963383,
				"element": "C" 
			},
			{
				"x": 1.0103506553,
				"y": -2.1541201966,
				"z": 0.4533223009,
				"element": "S" 
			},
			{
				"x": 2.4424252446,
				"y": -2.3415229443,
				"z": 0.172101555,
				"element": "O" 
			},
			{
				"x": 0.3175628466,
				"y": -3.0401176042,
				"z": 1.3935628515,
				"element": "O" 
			},
			{
				"x": 0.8132768763,
				"y": -0.4514324489,
				"z": 0.9978391111,
				"element": "C" 
			},
			{
				"x": 1.9493925705,
				"y": 0.3291948148,
				"z": 1.2138859082,
				"element": "C" 
			},
			{
				"x": 1.7992112068,
				"y": 1.6318643648,
				"z": 1.6879708607,
				"element": "C" 
			},
			{
				"x": 0.5283110016,
				"y": 2.1657833839,
				"z": 1.9523978538,
				"element": "C" 
			},
			{
				"x": 0.3873276091,
				"y": 3.5842801749,
				"z": 2.469008043,
				"element": "C" 
			},
			{
				"x": 0.7405732826,
				"y": 3.7752298416,
				"z": 3.9687627349,
				"element": "C" 
			},
			{
				"x": -0.3037617372,
				"y": 3.2370107299,
				"z": 4.9428335428,
				"element": "C" 
			},
			{
				"x": -0.5344245936,
				"y": 1.8988483166,
				"z": 4.906003154,
				"element": "O" 
			},
			{
				"x": -0.9113380535,
				"y": 3.933496213,
				"z": 5.7171937312,
				"element": "O" 
			},
			{
				"x": -0.598238796,
				"y": 1.3546013582,
				"z": 1.7320571107,
				"element": "C" 
			},
			{
				"x": -0.4629225041,
				"y": 0.0501271386,
				"z": 1.2599790385,
				"element": "C" 
			},
			{
				"x": 0.213982004,
				"y": -3.5764589337,
				"z": -6.349021787,
				"element": "H" 
			},
			{
				"x": 0.8117694627,
				"y": -5.2467426828,
				"z": -6.2439775405,
				"element": "H" 
			},
			{
				"x": 1.7576311938,
				"y": -3.9298299961,
				"z": -5.5512238784,
				"element": "H" 
			},
			{
				"x": -0.9911572944,
				"y": -4.9399402928,
				"z": -4.614630959,
				"element": "H" 
			},
			{
				"x": 0.5351785242,
				"y": -5.2102256159,
				"z": -3.7609666667,
				"element": "H" 
			},
			{
				"x": -1.928815976,
				"y": -2.4526720279,
				"z": -2.6381893048,
				"element": "H" 
			},
			{
				"x": -1.8947807181,
				"y": -4.2040106062,
				"z": -2.7920640471,
				"element": "H" 
			},
			{
				"x": -1.4291980921,
				"y": -3.5494401641,
				"z": -0.4558157756,
				"element": "H" 
			},
			{
				"x": 0.0003544052,
				"y": -4.3161779531,
				"z": -1.1576812454,
				"element": "H" 
			},
			{
				"x": 0.0143709826,
				"y": -0.7767718291,
				"z": -2.5346485275,
				"element": "H" 
			},
			{
				"x": 1.6313976437,
				"y": -1.0619707492,
				"z": -1.8761803762,
				"element": "H" 
			},
			{
				"x": 1.7012317819,
				"y": -3.3144025401,
				"z": -2.8503984764,
				"element": "H" 
			},
			{
				"x": 1.457913271,
				"y": -2.0783153361,
				"z": -4.0923026677,
				"element": "H" 
			},
			{
				"x": 2.9290421203,
				"y": -0.0868405549,
				"z": 1.0062540565,
				"element": "H" 
			},
			{
				"x": 2.6824081176,
				"y": 2.2460923643,
				"z": 1.8452731087,
				"element": "H" 
			},
			{
				"x": 1.0543078153,
				"y": 4.2355700445,
				"z": 1.8933591367,
				"element": "H" 
			},
			{
				"x": -0.6307590794,
				"y": 3.9468912518,
				"z": 2.292057254,
				"element": "H" 
			},
			{
				"x": 1.7082615796,
				"y": 3.3021534562,
				"z": 4.1802532504,
				"element": "H" 
			},
			{
				"x": 0.8367251901,
				"y": 4.8402187605,
				"z": 4.187380996,
				"element": "H" 
			},
			{
				"x": -0.0004712136,
				"y": 1.4726486666,
				"z": 4.2184949772,
				"element": "H" 
			},
			{
				"x": -1.5899849498,
				"y": 1.7503771363,
				"z": 1.9321562284,
				"element": "H" 
			},
			{
				"x": -1.3372916351,
				"y": -0.5688903788,
				"z": 1.0909033635,
				"element": "H" 
			}
		],
		 "valence_orbital": [ 
			{
				"type": "occ",
				"energy": -0.28441,
				"method": "rhf"
			},
			{
				"type": "occ",
				"energy": -0.28213,
				"method": "rhf"
			},
			{
				"type": "occ",
				"energy": -0.26719,
				"method": "rhf"
			},
			{
				"type": "occ",
				"energy": -0.25004,
				"method": "rhf"
			},
			{
				"type": "occ",
				"energy": -0.21535,
				"method": "rhf"
			},
			{
				"type": "unocc",
				"energy": -0.05329,
				"method": "rhf"
			},
			{
				"type": "unocc",
				"energy": -0.03514,
				"method": "rhf"
			},
			{
				"type": "unocc",
				"energy": 0.00702,
				"method": "rhf"
			},
			{
				"type": "unocc",
				"energy": 0.0494,
				"method": "rhf"
			},
			{
				"type": "unocc",
				"energy": 0.0669,
				"method": "rhf"
			}
		],
		"cosmo_sigma_profile": { 
			"-0.025": 0.0,
			"-0.024": 0.0,
			"-0.023": 0.0,
			"-0.022": 0.0,
			"-0.021": 0.0,
			"-0.02": 0.0,
			"-0.019": 0.0,
			"-0.018": 0.0,
			"-0.017": 0.0,
			"-0.016": 0.0,
			"-0.015": 0.0,
			"-0.014": 0.24523735921,
			"-0.013": 1.34143308907,
			"-0.012": 1.02927260504,
			"-0.011": 0.913112169643,
			"-0.01": 1.31076033758,
			"-0.009": 1.11431993902,
			"-0.008": 2.18695032036,
			"-0.007": 12.0004110753,
			"-0.006": 18.1158737052,
			"-0.005": 28.9139373254,
			"-0.004": 36.2430341455,
			"-0.003": 39.9442080485,
			"-0.002": 38.2874461092,
			"-0.001": 32.2193278345,
			"0.0": 23.6544326042,
			"0.001": 22.0282334974,
			"0.002": 17.8127806017,
			"0.003": 9.8849326096,
			"0.004": 6.45140023266,
			"0.005": 6.46995114987,
			"0.006": 5.53052422728,
			"0.007": 5.09265346307,
			"0.008": 5.97515197698,
			"0.009": 8.03927583218,
			"0.01": 10.4454193645,
			"0.011": 14.9635903242,
			"0.012": 10.7600098954,
			"0.013": 3.07271130241,
			"0.014": 0.845167368368,
			"0.015": 0.540704407082,
			"0.016": 0.0610539044723,
			"0.017": 0.0,
			"0.018": 0.0,
			"0.019": 0.0,
			"0.02": 0.0,
			"0.021": 0.0,
			"0.022": 0.0,
			"0.023": 0.0,
			"0.024": 0.0,
			"0.025": 0.0
		}
	}
}
