{
	 "smiles": "CCCCC(C)(O)CC", 
	 "Tm": 190.15, 
	 "num_atms": 27, 
	 "gaussian": { 
		 "optdone": 1, 
		 "sigma_profile": "yes", 
		 "theory": "DFT", 
		 "functional": "B3LYP", 
		 "basiset": "6-31G**", 
		 "properties": { 
			 "R2extent": 1907.0858, 
			 "electric_dipole_moment_norm": 1.47856877757, 
			 "electric_quadrupole_moment_norm": 5.34561925225, 
			 "total_energy": -390.943031201, 
			 "HOMO_LUMO_gap": 0.32758, 
			 "cosmo_polarized_energy": -5.57, 
			 "cosmo_cavitation_energy": 27.11, 
			 "cosmo_dispersion_energy": -19.05, 
			 "cosmo_repulsion_energy": 1.58, 
			 "cosmo_total_nonelectrostatic_energy": 9.64, 
			 "SMD_solvation_energy": 4.52 
		},
		"coords": [
			{
				"x": -0.2949628478,
				"y": 2.8321652443,
				"z": -1.2217139491,
				"element": "C" 
			},
			{
				"x": -0.4327600651,
				"y": 1.4607771895,
				"z": -1.893790913,
				"element": "C" 
			},
			{
				"x": -0.4249338346,
				"y": 0.2666898733,
				"z": -0.9223507007,
				"element": "C" 
			},
			{
				"x": 0.9149928067,
				"y": 0.0598623662,
				"z": -0.2004117198,
				"element": "C" 
			},
			{
				"x": 1.011933068,
				"y": -1.1504332173,
				"z": 0.7579535815,
				"element": "C" 
			},
			{
				"x": 0.0543413357,
				"y": -1.0024573739,
				"z": 1.9512633397,
				"element": "C" 
			},
			{
				"x": 2.361595531,
				"y": -1.2245642759,
				"z": 1.2529791072,
				"element": "O" 
			},
			{
				"x": 0.7749924316,
				"y": -2.5058134561,
				"z": 0.0623072296,
				"element": "C" 
			},
			{
				"x": 1.7002554954,
				"y": -2.8013650483,
				"z": -1.1224289301,
				"element": "C" 
			},
			{
				"x": -0.3648089645,
				"y": 3.639279946,
				"z": -1.9583524605,
				"element": "H" 
			},
			{
				"x": -1.0879536296,
				"y": 2.9898362181,
				"z": -0.4810982237,
				"element": "H" 
			},
			{
				"x": 0.6651437291,
				"y": 2.9428632337,
				"z": -0.7072825867,
				"element": "H" 
			},
			{
				"x": 0.3722467831,
				"y": 1.331702576,
				"z": -2.6301679777,
				"element": "H" 
			},
			{
				"x": -1.3703502752,
				"y": 1.4384591096,
				"z": -2.4637224674,
				"element": "H" 
			},
			{
				"x": -0.6742549534,
				"y": -0.6399480743,
				"z": -1.4874889982,
				"element": "H" 
			},
			{
				"x": -1.2311283423,
				"y": 0.4015686873,
				"z": -0.1889370906,
				"element": "H" 
			},
			{
				"x": 1.1524575831,
				"y": 0.9577457742,
				"z": 0.3885597063,
				"element": "H" 
			},
			{
				"x": 1.7167069995,
				"y": -0.0352832655,
				"z": -0.9424873877,
				"element": "H" 
			},
			{
				"x": 0.2200402806,
				"y": -1.8167134484,
				"z": 2.6627455486,
				"element": "H" 
			},
			{
				"x": -0.9957770978,
				"y": -1.023125223,
				"z": 1.6431356615,
				"element": "H" 
			},
			{
				"x": 0.2290321306,
				"y": -0.0538983444,
				"z": 2.4741914158,
				"element": "H" 
			},
			{
				"x": 2.5679931001,
				"y": -0.3749807825,
				"z": 1.6652072972,
				"element": "H" 
			},
			{
				"x": -0.2737309862,
				"y": -2.5643331028,
				"z": -0.2521859181,
				"element": "H" 
			},
			{
				"x": 0.9126468956,
				"y": -3.2806174959,
				"z": 0.8260777524,
				"element": "H" 
			},
			{
				"x": 1.5144922295,
				"y": -2.1308270508,
				"z": -1.9681747599,
				"element": "H" 
			},
			{
				"x": 2.7466366901,
				"y": -2.6912824534,
				"z": -0.8265255437,
				"element": "H" 
			},
			{
				"x": 1.5510539069,
				"y": -3.8255076059,
				"z": -1.4797010128,
				"element": "H" 
			}
		],
		 "valence_orbital": [ 
			{
				"type": "occ",
				"energy": -0.3302,
				"method": "rhf"
			},
			{
				"type": "occ",
				"energy": -0.31859,
				"method": "rhf"
			},
			{
				"type": "occ",
				"energy": -0.3146,
				"method": "rhf"
			},
			{
				"type": "occ",
				"energy": -0.29928,
				"method": "rhf"
			},
			{
				"type": "occ",
				"energy": -0.25627,
				"method": "rhf"
			},
			{
				"type": "unocc",
				"energy": 0.07131,
				"method": "rhf"
			},
			{
				"type": "unocc",
				"energy": 0.0895,
				"method": "rhf"
			},
			{
				"type": "unocc",
				"energy": 0.10975,
				"method": "rhf"
			},
			{
				"type": "unocc",
				"energy": 0.11703,
				"method": "rhf"
			},
			{
				"type": "unocc",
				"energy": 0.12351,
				"method": "rhf"
			}
		],
		"cosmo_sigma_profile": { 
			"-0.025": 0.0,
			"-0.024": 0.0,
			"-0.023": 0.0,
			"-0.022": 0.0,
			"-0.021": 0.0,
			"-0.02": 0.0,
			"-0.019": 0.0,
			"-0.018": 0.0,
			"-0.017": 0.0,
			"-0.016": 0.0,
			"-0.015": 0.0,
			"-0.014": 0.830573628747,
			"-0.013": 0.876747179659,
			"-0.012": 0.55448141226,
			"-0.011": 0.750066083714,
			"-0.01": 1.08358504591,
			"-0.009": 1.26860401421,
			"-0.008": 1.14357684717,
			"-0.007": 1.22953164428,
			"-0.006": 0.683820869083,
			"-0.005": 1.22838129873,
			"-0.004": 2.31270646185,
			"-0.003": 10.5653049041,
			"-0.002": 33.8640907866,
			"-0.001": 36.5588917372,
			"0.0": 37.5044602854,
			"0.001": 39.2309331885,
			"0.002": 18.44649423,
			"0.003": 2.67105845942,
			"0.004": 1.13113748179,
			"0.005": 1.63428351125,
			"0.006": 1.60719943176,
			"0.007": 1.36637648631,
			"0.008": 1.82161366436,
			"0.009": 1.6978687666,
			"0.01": 1.11082009861,
			"0.011": 1.31480819529,
			"0.012": 1.81301723364,
			"0.013": 1.19242799645,
			"0.014": 1.05261684694,
			"0.015": 0.712567042297,
			"0.016": 0.00320203575388,
			"0.017": 0.0,
			"0.018": 0.0,
			"0.019": 0.0,
			"0.02": 0.0,
			"0.021": 0.0,
			"0.022": 0.0,
			"0.023": 0.0,
			"0.024": 0.0,
			"0.025": 0.0
		}
	}
}
