{
	 "smiles": "CC(=O)NC1=CC=CC=C1Cl", 
	 "Tm": 361.15, 
	 "num_atms": 19, 
	 "gaussian": { 
		 "optdone": 1, 
		 "sigma_profile": "yes", 
		 "theory": "DFT", 
		 "functional": "B3LYP", 
		 "basiset": "6-31G**", 
		 "properties": { 
			 "R2extent": 2490.3066, 
			 "electric_dipole_moment_norm": 4.1255731723, 
			 "electric_quadrupole_moment_norm": 7.16081988113, 
			 "total_energy": -899.856396936, 
			 "HOMO_LUMO_gap": 0.2069, 
			 "cosmo_polarized_energy": -10.26, 
			 "cosmo_cavitation_energy": 24.65, 
			 "cosmo_dispersion_energy": -18.17, 
			 "cosmo_repulsion_energy": 1.46, 
			 "cosmo_total_nonelectrostatic_energy": 7.94, 
			 "SMD_solvation_energy": 4.86 
		},
		"coords": [
			{
				"x": -1.7056264142,
				"y": 1.1041577934,
				"z": -2.3845401452,
				"element": "C" 
			},
			{
				"x": -1.6598278676,
				"y": -0.2031508384,
				"z": -1.6173266309,
				"element": "C" 
			},
			{
				"x": -2.2024100955,
				"y": -1.2147997112,
				"z": -2.0326995979,
				"element": "O" 
			},
			{
				"x": -0.9988777199,
				"y": -0.2483317502,
				"z": -0.3945291036,
				"element": "N" 
			},
			{
				"x": -0.3119388262,
				"y": 0.7346621375,
				"z": 0.3332448895,
				"element": "C" 
			},
			{
				"x": 0.5420420947,
				"y": 1.6698313308,
				"z": -0.2749849132,
				"element": "C" 
			},
			{
				"x": 1.2165761399,
				"y": 2.6270162973,
				"z": 0.479121163,
				"element": "C" 
			},
			{
				"x": 1.0865659202,
				"y": 2.6530518188,
				"z": 1.8675924029,
				"element": "C" 
			},
			{
				"x": 0.2748806026,
				"y": 1.711340646,
				"z": 2.4988528927,
				"element": "C" 
			},
			{
				"x": -0.4162435483,
				"y": 0.7716434121,
				"z": 1.7388326784,
				"element": "C" 
			},
			{
				"x": -1.4358327092,
				"y": -0.3996763064,
				"z": 2.5670946721,
				"element": "Cl" 
			},
			{
				"x": -1.7350850792,
				"y": 1.9825649404,
				"z": -1.7363456034,
				"element": "H" 
			},
			{
				"x": -2.5942660432,
				"y": 1.0731276788,
				"z": -3.0158684286,
				"element": "H" 
			},
			{
				"x": -0.833123548,
				"y": 1.1909593568,
				"z": -3.0408898139,
				"element": "H" 
			},
			{
				"x": -1.1836180646,
				"y": -1.1193614245,
				"z": 0.0898038775,
				"element": "H" 
			},
			{
				"x": 0.6930371474,
				"y": 1.6251333898,
				"z": -1.3464930289,
				"element": "H" 
			},
			{
				"x": 1.8638464924,
				"y": 3.3394041018,
				"z": -0.0230153146,
				"element": "H" 
			},
			{
				"x": 1.6180757846,
				"y": 3.3907508722,
				"z": 2.4599291732,
				"element": "H" 
			},
			{
				"x": 0.1648257341,
				"y": 1.7029762551,
				"z": 3.5776208308,
				"element": "H" 
			}
		],
		 "valence_orbital": [ 
			{
				"type": "occ",
				"energy": -0.32649,
				"method": "rhf"
			},
			{
				"type": "occ",
				"energy": -0.30824,
				"method": "rhf"
			},
			{
				"type": "occ",
				"energy": -0.26198,
				"method": "rhf"
			},
			{
				"type": "occ",
				"energy": -0.2574,
				"method": "rhf"
			},
			{
				"type": "occ",
				"energy": -0.23323,
				"method": "rhf"
			},
			{
				"type": "unocc",
				"energy": -0.02633,
				"method": "rhf"
			},
			{
				"type": "unocc",
				"energy": -0.02356,
				"method": "rhf"
			},
			{
				"type": "unocc",
				"energy": 0.0186,
				"method": "rhf"
			},
			{
				"type": "unocc",
				"energy": 0.02772,
				"method": "rhf"
			},
			{
				"type": "unocc",
				"energy": 0.08962,
				"method": "rhf"
			}
		],
		"cosmo_sigma_profile": { 
			"-0.025": 0.0,
			"-0.024": 0.0,
			"-0.023": 0.0,
			"-0.022": 0.0,
			"-0.021": 0.0,
			"-0.02": 0.0,
			"-0.019": 0.0,
			"-0.018": 0.0,
			"-0.017": 0.0,
			"-0.016": 0.0,
			"-0.015": 0.0,
			"-0.014": 0.0,
			"-0.013": 0.0,
			"-0.012": 0.195568157107,
			"-0.011": 0.831110854885,
			"-0.01": 0.738891608792,
			"-0.009": 1.23403162669,
			"-0.008": 3.72629750802,
			"-0.007": 6.81794494106,
			"-0.006": 11.5425384,
			"-0.005": 15.1583147634,
			"-0.004": 13.3653711145,
			"-0.003": 14.4511320969,
			"-0.002": 16.2129056879,
			"-0.001": 14.5966263896,
			"0.0": 12.9034430006,
			"0.001": 16.0628943148,
			"0.002": 16.5707574263,
			"0.003": 15.3841110711,
			"0.004": 16.3968316421,
			"0.005": 3.77652528824,
			"0.006": 1.22199764941,
			"0.007": 1.61619367804,
			"0.008": 0.789498265123,
			"0.009": 1.08334503684,
			"0.01": 1.66531590708,
			"0.011": 1.68965520841,
			"0.012": 2.60658457036,
			"0.013": 5.68839929899,
			"0.014": 2.59341984278,
			"0.015": 0.127028209105,
			"0.016": 0.0,
			"0.017": 0.0,
			"0.018": 0.0,
			"0.019": 0.0,
			"0.02": 0.0,
			"0.021": 0.0,
			"0.022": 0.0,
			"0.023": 0.0,
			"0.024": 0.0,
			"0.025": 0.0
		}
	}
}
