{
	 "smiles": "OCCN1CCN(CC1)C1=NC=C(Cl)C=C1C(F)(F)F", 
	 "Tm": 331.65, 
	 "num_atms": 35, 
	 "gaussian": { 
		 "optdone": 1, 
		 "sigma_profile": "yes", 
		 "theory": "DFT", 
		 "functional": "B3LYP", 
		 "basiset": "6-31G**", 
		 "properties": { 
			 "R2extent": 8432.9478, 
			 "electric_dipole_moment_norm": 1.57765956404, 
			 "electric_quadrupole_moment_norm": 14.2997495824, 
			 "total_energy": -1465.48306681, 
			 "HOMO_LUMO_gap": 0.1623, 
			 "cosmo_polarized_energy": -11.22, 
			 "cosmo_cavitation_energy": 39.38, 
			 "cosmo_dispersion_energy": -28.01, 
			 "cosmo_repulsion_energy": 2.11, 
			 "cosmo_total_nonelectrostatic_energy": 13.48, 
			 "SMD_solvation_energy": 3.4 
		},
		"coords": [
			{
				"x": -1.8892882907,
				"y": -5.8059532772,
				"z": -1.1799533316,
				"element": "O" 
			},
			{
				"x": -1.3046955494,
				"y": -4.5682051922,
				"z": -0.7934854779,
				"element": "C" 
			},
			{
				"x": -1.6981511979,
				"y": -3.4404992279,
				"z": -1.7678755818,
				"element": "C" 
			},
			{
				"x": -1.1177055409,
				"y": -2.1207816348,
				"z": -1.5483499114,
				"element": "N" 
			},
			{
				"x": -1.525776317,
				"y": -1.4575848751,
				"z": -0.313439779,
				"element": "C" 
			},
			{
				"x": -1.0812124961,
				"y": 0.003478736,
				"z": -0.3464032246,
				"element": "C" 
			},
			{
				"x": 0.3760461707,
				"y": 0.0810063639,
				"z": -0.5312904064,
				"element": "N" 
			},
			{
				"x": 0.7865432214,
				"y": -0.581983549,
				"z": -1.7746333951,
				"element": "C" 
			},
			{
				"x": 0.3274438047,
				"y": -2.0416593279,
				"z": -1.7417995391,
				"element": "C" 
			},
			{
				"x": 1.0981919873,
				"y": 1.1866067266,
				"z": -0.1097308021,
				"element": "C" 
			},
			{
				"x": 1.9482472043,
				"y": 1.7165680499,
				"z": -1.0102053438,
				"element": "N" 
			},
			{
				"x": 2.6830490276,
				"y": 2.7823191033,
				"z": -0.7070695575,
				"element": "C" 
			},
			{
				"x": 2.6011781184,
				"y": 3.4212301489,
				"z": 0.5268915676,
				"element": "C" 
			},
			{
				"x": 3.5463260446,
				"y": 4.8575644064,
				"z": 0.8561734534,
				"element": "Cl" 
			},
			{
				"x": 1.7842533915,
				"y": 2.8624894583,
				"z": 1.5033140851,
				"element": "C" 
			},
			{
				"x": 1.0381008687,
				"y": 1.7209053488,
				"z": 1.214896776,
				"element": "C" 
			},
			{
				"x": 0.2927962355,
				"y": 1.0980919879,
				"z": 2.3701510997,
				"element": "C" 
			},
			{
				"x": 0.2746517492,
				"y": -0.248570211,
				"z": 2.316076297,
				"element": "F" 
			},
			{
				"x": -1.0042351262,
				"y": 1.5091999729,
				"z": 2.4422690765,
				"element": "F" 
			},
			{
				"x": 0.8532006144,
				"y": 1.4389506211,
				"z": 3.551775146,
				"element": "F" 
			},
			{
				"x": -2.8484985478,
				"y": -5.7137987093,
				"z": -1.1103543905,
				"element": "H" 
			},
			{
				"x": -0.2230686388,
				"y": -4.7331213331,
				"z": -0.8141479607,
				"element": "H" 
			},
			{
				"x": -1.5729675905,
				"y": -4.3028086943,
				"z": 0.2408297104,
				"element": "H" 
			},
			{
				"x": -2.7929062423,
				"y": -3.3310708222,
				"z": -1.7472772706,
				"element": "H" 
			},
			{
				"x": -1.4361577839,
				"y": -3.7696406263,
				"z": -2.7809028389,
				"element": "H" 
			},
			{
				"x": -2.6189590403,
				"y": -1.4965626764,
				"z": -0.2372312328,
				"element": "H" 
			},
			{
				"x": -1.1063438476,
				"y": -1.9261593399,
				"z": 0.5946816121,
				"element": "H" 
			},
			{
				"x": -1.5769026575,
				"y": 0.505142251,
				"z": -1.1931535907,
				"element": "H" 
			},
			{
				"x": -1.3842092515,
				"y": 0.5094522006,
				"z": 0.565184855,
				"element": "H" 
			},
			{
				"x": 1.8713787392,
				"y": -0.528949223,
				"z": -1.8637723419,
				"element": "H" 
			},
			{
				"x": 0.3534878098,
				"y": -0.074602141,
				"z": -2.6496029964,
				"element": "H" 
			},
			{
				"x": 0.8961812311,
				"y": -2.5661813306,
				"z": -0.9513830405,
				"element": "H" 
			},
			{
				"x": 0.5795995704,
				"y": -2.5132413028,
				"z": -2.6986915492,
				"element": "H" 
			},
			{
				"x": 3.3567907707,
				"y": 3.1523560833,
				"z": -1.4769912952,
				"element": "H" 
			},
			{
				"x": 1.758711559,
				"y": 3.2862120352,
				"z": 2.4998011789,
				"element": "H" 
			}
		],
		 "valence_orbital": [ 
			{
				"type": "occ",
				"energy": -0.2891,
				"method": "rhf"
			},
			{
				"type": "occ",
				"energy": -0.28022,
				"method": "rhf"
			},
			{
				"type": "occ",
				"energy": -0.27531,
				"method": "rhf"
			},
			{
				"type": "occ",
				"energy": -0.22213,
				"method": "rhf"
			},
			{
				"type": "occ",
				"energy": -0.21115,
				"method": "rhf"
			},
			{
				"type": "unocc",
				"energy": -0.04885,
				"method": "rhf"
			},
			{
				"type": "unocc",
				"energy": -0.02693,
				"method": "rhf"
			},
			{
				"type": "unocc",
				"energy": 0.02284,
				"method": "rhf"
			},
			{
				"type": "unocc",
				"energy": 0.07145,
				"method": "rhf"
			},
			{
				"type": "unocc",
				"energy": 0.08108,
				"method": "rhf"
			}
		],
		"cosmo_sigma_profile": { 
			"-0.025": 0.0,
			"-0.024": 0.0,
			"-0.023": 0.0,
			"-0.022": 0.0,
			"-0.021": 0.0,
			"-0.02": 0.0,
			"-0.019": 0.0,
			"-0.018": 0.0,
			"-0.017": 0.0,
			"-0.016": 0.0352610061189,
			"-0.015": 0.859091603535,
			"-0.014": 1.14124764378,
			"-0.013": 0.774843272545,
			"-0.012": 0.732079397628,
			"-0.011": 1.302172405,
			"-0.01": 1.54266847964,
			"-0.009": 0.826926478062,
			"-0.008": 3.32458736959,
			"-0.007": 4.81222691627,
			"-0.006": 4.52865767709,
			"-0.005": 7.45170526508,
			"-0.004": 21.8682509117,
			"-0.003": 38.2359973545,
			"-0.002": 36.6461147042,
			"-0.001": 32.5768610668,
			"0.0": 29.2205866564,
			"0.001": 22.4405393851,
			"0.002": 30.4179124574,
			"0.003": 25.2562007087,
			"0.004": 14.5089424261,
			"0.005": 6.52658528741,
			"0.006": 5.31507009943,
			"0.007": 3.53267561425,
			"0.008": 2.1651014863,
			"0.009": 2.64642060121,
			"0.01": 3.22548291701,
			"0.011": 2.26152992997,
			"0.012": 2.41742304717,
			"0.013": 2.03075217029,
			"0.014": 2.81262558031,
			"0.015": 1.13545003052,
			"0.016": 0.0,
			"0.017": 0.0,
			"0.018": 0.0,
			"0.019": 0.0,
			"0.02": 0.0,
			"0.021": 0.0,
			"0.022": 0.0,
			"0.023": 0.0,
			"0.024": 0.0,
			"0.025": 0.0
		}
	}
}
