{
	 "smiles": "ClC1=CC=C2SC=C(C#N)C2=C1", 
	 "Tm": 395.15, 
	 "num_atms": 16, 
	 "gaussian": { 
		 "optdone": 1, 
		 "sigma_profile": "yes", 
		 "theory": "DFT", 
		 "functional": "B3LYP", 
		 "basiset": "6-31G**", 
		 "properties": { 
			 "R2extent": 4467.4656, 
			 "electric_dipole_moment_norm": 4.54233517918, 
			 "electric_quadrupole_moment_norm": 18.9405647569, 
			 "total_energy": -1258.48213847, 
			 "HOMO_LUMO_gap": 0.17868, 
			 "cosmo_polarized_energy": -9.56, 
			 "cosmo_cavitation_energy": 25.22, 
			 "cosmo_dispersion_energy": -18.75, 
			 "cosmo_repulsion_energy": 1.43, 
			 "cosmo_total_nonelectrostatic_energy": 7.89, 
			 "SMD_solvation_energy": 5.05 
		},
		"coords": [
			{
				"x": -0.0235108214,
				"y": 2.1896326102,
				"z": -3.9116659159,
				"element": "Cl" 
			},
			{
				"x": 0.4485802197,
				"y": 1.2232579506,
				"z": -2.524423345,
				"element": "C" 
			},
			{
				"x": -0.5581569252,
				"y": 0.6157652005,
				"z": -1.7522241804,
				"element": "C" 
			},
			{
				"x": -0.2167423372,
				"y": -0.1550204552,
				"z": -0.648558152,
				"element": "C" 
			},
			{
				"x": 1.1365221572,
				"y": -0.3084391201,
				"z": -0.3305099878,
				"element": "C" 
			},
			{
				"x": 1.8226367284,
				"y": -1.2250679483,
				"z": 1.0032704437,
				"element": "S" 
			},
			{
				"x": 3.4320115183,
				"y": -0.7928976917,
				"z": 0.5224728173,
				"element": "C" 
			},
			{
				"x": 3.4677617052,
				"y": 0.0048550024,
				"z": -0.5900596337,
				"element": "C" 
			},
			{
				"x": 4.6716133203,
				"y": 0.4908541168,
				"z": -1.1772933095,
				"element": "C" 
			},
			{
				"x": 5.6394961633,
				"y": 0.9011802399,
				"z": -1.6766783863,
				"element": "N" 
			},
			{
				"x": 2.1456693984,
				"y": 0.302875212,
				"z": -1.1078361652,
				"element": "C" 
			},
			{
				"x": 1.7941359572,
				"y": 1.0812144029,
				"z": -2.2228227785,
				"element": "C" 
			},
			{
				"x": -1.5979361796,
				"y": 0.7541608455,
				"z": -2.0252940555,
				"element": "H" 
			},
			{
				"x": -0.9904681124,
				"y": -0.6253230618,
				"z": -0.05035021,
				"element": "H" 
			},
			{
				"x": 4.2809138593,
				"y": -1.1512094596,
				"z": 1.0883691525,
				"element": "H" 
			},
			{
				"x": 2.5570733484,
				"y": 1.5567621561,
				"z": -2.8291962935,
				"element": "H" 
			}
		],
		 "valence_orbital": [ 
			{
				"type": "occ",
				"energy": -0.32846,
				"method": "rhf"
			},
			{
				"type": "occ",
				"energy": -0.32292,
				"method": "rhf"
			},
			{
				"type": "occ",
				"energy": -0.30338,
				"method": "rhf"
			},
			{
				"type": "occ",
				"energy": -0.25857,
				"method": "rhf"
			},
			{
				"type": "occ",
				"energy": -0.2458,
				"method": "rhf"
			},
			{
				"type": "unocc",
				"energy": -0.06712,
				"method": "rhf"
			},
			{
				"type": "unocc",
				"energy": -0.03142,
				"method": "rhf"
			},
			{
				"type": "unocc",
				"energy": -0.0177,
				"method": "rhf"
			},
			{
				"type": "unocc",
				"energy": -0.01509,
				"method": "rhf"
			},
			{
				"type": "unocc",
				"energy": 0.02313,
				"method": "rhf"
			}
		],
		"cosmo_sigma_profile": { 
			"-0.025": 0.0,
			"-0.024": 0.0,
			"-0.023": 0.0,
			"-0.022": 0.0,
			"-0.021": 0.0,
			"-0.02": 0.0,
			"-0.019": 0.0,
			"-0.018": 0.0,
			"-0.017": 0.0,
			"-0.016": 0.0,
			"-0.015": 0.0,
			"-0.014": 0.0,
			"-0.013": 0.0,
			"-0.012": 0.0269257139235,
			"-0.011": 2.21087598361,
			"-0.01": 2.24750302959,
			"-0.009": 3.03400955878,
			"-0.008": 6.77288754573,
			"-0.007": 7.54937184242,
			"-0.006": 7.73090549999,
			"-0.005": 8.0486207093,
			"-0.004": 8.02211277137,
			"-0.003": 10.1631334662,
			"-0.002": 13.6319858264,
			"-0.001": 19.3772891319,
			"0.0": 24.3283480532,
			"0.001": 23.1664088659,
			"0.002": 23.745817682,
			"0.003": 11.4157407458,
			"0.004": 11.525943734,
			"0.005": 6.59624492553,
			"0.006": 1.78464286482,
			"0.007": 2.58967110424,
			"0.008": 3.65429603044,
			"0.009": 3.05762057579,
			"0.01": 3.21161937116,
			"0.011": 2.62618302155,
			"0.012": 2.37716571575,
			"0.013": 1.02544877462,
			"0.014": 0.0,
			"0.015": 0.0,
			"0.016": 0.0,
			"0.017": 0.0,
			"0.018": 0.0,
			"0.019": 0.0,
			"0.02": 0.0,
			"0.021": 0.0,
			"0.022": 0.0,
			"0.023": 0.0,
			"0.024": 0.0,
			"0.025": 0.0
		}
	}
}
