{
	 "smiles": "CCOC(=O)C(Br)=NNC1=CC=C(C=C1)[N+]([O-])=O", 
	 "Tm": 473.15, 
	 "num_atms": 28, 
	 "gaussian": { 
		 "optdone": 1, 
		 "sigma_profile": "yes", 
		 "theory": "DFT", 
		 "functional": "B3LYP", 
		 "basiset": "6-31G**", 
		 "properties": { 
			 "R2extent": 9834.3829, 
			 "electric_dipole_moment_norm": 6.02661481348, 
			 "electric_quadrupole_moment_norm": 33.5959730384, 
			 "total_energy": -3423.51750385, 
			 "HOMO_LUMO_gap": 0.13881, 
			 "cosmo_polarized_energy": -17.6, 
			 "cosmo_cavitation_energy": 37.01, 
			 "cosmo_dispersion_energy": -26.42, 
			 "cosmo_repulsion_energy": 2.06, 
			 "cosmo_total_nonelectrostatic_energy": 12.66, 
			 "SMD_solvation_energy": 8.24 
		},
		"coords": [
			{
				"x": -3.0047157047,
				"y": -3.3727569661,
				"z": 2.4773417134,
				"element": "C" 
			},
			{
				"x": -3.716366645,
				"y": -3.3566281429,
				"z": 1.1393087469,
				"element": "C" 
			},
			{
				"x": -2.9891597262,
				"y": -2.4501772504,
				"z": 0.2619417362,
				"element": "O" 
			},
			{
				"x": -3.5012454964,
				"y": -2.3173460825,
				"z": -0.9941644827,
				"element": "C" 
			},
			{
				"x": -4.4876079464,
				"y": -2.9009192725,
				"z": -1.3741184324,
				"element": "O" 
			},
			{
				"x": -2.6877229091,
				"y": -1.3681084232,
				"z": -1.8170132922,
				"element": "C" 
			},
			{
				"x": -3.3499769586,
				"y": -1.1336339029,
				"z": -3.5946036549,
				"element": "Br" 
			},
			{
				"x": -1.6332005192,
				"y": -0.7004017568,
				"z": -1.5162410532,
				"element": "N" 
			},
			{
				"x": -1.0360383371,
				"y": -0.7405945291,
				"z": -0.3308677145,
				"element": "N" 
			},
			{
				"x": 0.1066782047,
				"y": 0.0177195474,
				"z": -0.0895107389,
				"element": "C" 
			},
			{
				"x": 0.6976503911,
				"y": -0.0639234998,
				"z": 1.1844629793,
				"element": "C" 
			},
			{
				"x": 1.8369250508,
				"y": 0.6724844378,
				"z": 1.4725048261,
				"element": "C" 
			},
			{
				"x": 2.3836412379,
				"y": 1.4907181558,
				"z": 0.4833013648,
				"element": "C" 
			},
			{
				"x": 1.8080896944,
				"y": 1.5820345368,
				"z": -0.7859334993,
				"element": "C" 
			},
			{
				"x": 0.668636599,
				"y": 0.8465298616,
				"z": -1.0764815071,
				"element": "C" 
			},
			{
				"x": 3.5846331621,
				"y": 2.2680975557,
				"z": 0.784324703,
				"element": "N" 
			},
			{
				"x": 4.0448657302,
				"y": 2.9815667776,
				"z": -0.1087151604,
				"element": "O" 
			},
			{
				"x": 4.0663141629,
				"y": 2.1639571747,
				"z": 1.9144539152,
				"element": "O" 
			},
			{
				"x": -3.5289910718,
				"y": -4.0471943651,
				"z": 3.1609183865,
				"element": "H" 
			},
			{
				"x": -2.9902199644,
				"y": -2.3767912645,
				"z": 2.9301197883,
				"element": "H" 
			},
			{
				"x": -1.9754302959,
				"y": -3.7292520813,
				"z": 2.3740964856,
				"element": "H" 
			},
			{
				"x": -4.7467689787,
				"y": -3.0002078019,
				"z": 1.2201723688,
				"element": "H" 
			},
			{
				"x": -3.7391622937,
				"y": -4.3429138273,
				"z": 0.6681040413,
				"element": "H" 
			},
			{
				"x": -1.4215929123,
				"y": -1.3317507141,
				"z": 0.4010442347,
				"element": "H" 
			},
			{
				"x": 0.2607630227,
				"y": -0.7053434957,
				"z": 1.944767355,
				"element": "H" 
			},
			{
				"x": 2.3100208209,
				"y": 0.6265392305,
				"z": 2.4452134039,
				"element": "H" 
			},
			{
				"x": 2.2624572175,
				"y": 2.2284033583,
				"z": -1.5264240314,
				"element": "H" 
			},
			{
				"x": 0.2032244653,
				"y": 0.8996927397,
				"z": -2.0525024821,
				"element": "H" 
			}
		],
		 "valence_orbital": [ 
			{
				"type": "occ",
				"energy": -0.29153,
				"method": "rhf"
			},
			{
				"type": "occ",
				"energy": -0.28603,
				"method": "rhf"
			},
			{
				"type": "occ",
				"energy": -0.28451,
				"method": "rhf"
			},
			{
				"type": "occ",
				"energy": -0.28382,
				"method": "rhf"
			},
			{
				"type": "occ",
				"energy": -0.23382,
				"method": "rhf"
			},
			{
				"type": "unocc",
				"energy": -0.09501,
				"method": "rhf"
			},
			{
				"type": "unocc",
				"energy": -0.06831,
				"method": "rhf"
			},
			{
				"type": "unocc",
				"energy": -0.03151,
				"method": "rhf"
			},
			{
				"type": "unocc",
				"energy": -0.00694,
				"method": "rhf"
			},
			{
				"type": "unocc",
				"energy": 0.01133,
				"method": "rhf"
			}
		],
		"cosmo_sigma_profile": { 
			"-0.025": 0.0,
			"-0.024": 0.0,
			"-0.023": 0.0,
			"-0.022": 0.0,
			"-0.021": 0.0,
			"-0.02": 0.0,
			"-0.019": 0.0,
			"-0.018": 0.0,
			"-0.017": 0.0,
			"-0.016": 0.0,
			"-0.015": 0.0,
			"-0.014": 0.0,
			"-0.013": 0.339172337228,
			"-0.012": 1.15006607789,
			"-0.011": 1.04898643863,
			"-0.01": 1.21559396358,
			"-0.009": 1.37075915964,
			"-0.008": 4.25892984264,
			"-0.007": 7.11326064505,
			"-0.006": 14.5485417493,
			"-0.005": 23.8128311024,
			"-0.004": 27.5739001743,
			"-0.003": 22.247030791,
			"-0.002": 20.9224029866,
			"-0.001": 27.7211216332,
			"0.0": 25.0954683937,
			"0.001": 23.7244188714,
			"0.002": 14.9859111414,
			"0.003": 11.2166704015,
			"0.004": 14.5619270581,
			"0.005": 9.43019741851,
			"0.006": 7.70387454471,
			"0.007": 6.69379664061,
			"0.008": 11.8115067334,
			"0.009": 7.86130013928,
			"0.01": 7.37494840335,
			"0.011": 5.35118262975,
			"0.012": 0.58340566504,
			"0.013": 0.0,
			"0.014": 0.0,
			"0.015": 0.0,
			"0.016": 0.0,
			"0.017": 0.0,
			"0.018": 0.0,
			"0.019": 0.0,
			"0.02": 0.0,
			"0.021": 0.0,
			"0.022": 0.0,
			"0.023": 0.0,
			"0.024": 0.0,
			"0.025": 0.0
		}
	}
}
