{
	 "smiles": "CC1=CC2=C(S1)N=CNC2=O", 
	 "Tm": 532.15, 
	 "num_atms": 17, 
	 "gaussian": { 
		 "optdone": 1, 
		 "sigma_profile": "yes", 
		 "theory": "DFT", 
		 "functional": "B3LYP", 
		 "basiset": "6-31G**", 
		 "properties": { 
			 "R2extent": 2213.8943, 
			 "electric_dipole_moment_norm": 0.966014337368, 
			 "electric_quadrupole_moment_norm": 17.5629232789, 
			 "total_energy": -853.292151118, 
			 "HOMO_LUMO_gap": 0.17332, 
			 "cosmo_polarized_energy": -13.54, 
			 "cosmo_cavitation_energy": 23.05, 
			 "cosmo_dispersion_energy": -17.88, 
			 "cosmo_repulsion_energy": 1.38, 
			 "cosmo_total_nonelectrostatic_energy": 6.55, 
			 "SMD_solvation_energy": 3.05 
		},
		"coords": [
			{
				"x": 1.9951400913,
				"y": -0.8589476052,
				"z": -3.07750237,
				"element": "C" 
			},
			{
				"x": 1.0397377649,
				"y": -0.1988474103,
				"z": -2.1303827853,
				"element": "C" 
			},
			{
				"x": 0.4638271253,
				"y": -0.724874728,
				"z": -1.0092602879,
				"element": "C" 
			},
			{
				"x": -0.402600821,
				"y": 0.1924555446,
				"z": -0.3406660882,
				"element": "C" 
			},
			{
				"x": -0.4800493342,
				"y": 1.4321809622,
				"z": -0.9704107967,
				"element": "C" 
			},
			{
				"x": 0.5249641858,
				"y": 1.4662452895,
				"z": -2.4001464591,
				"element": "S" 
			},
			{
				"x": -1.2210766977,
				"y": 2.5065422728,
				"z": -0.5710095294,
				"element": "N" 
			},
			{
				"x": -1.9084925461,
				"y": 2.304716206,
				"z": 0.5134516261,
				"element": "C" 
			},
			{
				"x": -1.9118639365,
				"y": 1.1325531545,
				"z": 1.2163287778,
				"element": "N" 
			},
			{
				"x": -1.1721811914,
				"y": -0.0274687117,
				"z": 0.8694521106,
				"element": "C" 
			},
			{
				"x": -1.2338867904,
				"y": -1.0362116328,
				"z": 1.5572975945,
				"element": "O" 
			},
			{
				"x": 2.1933967875,
				"y": -1.8818491193,
				"z": -2.7465382565,
				"element": "H" 
			},
			{
				"x": 2.9527542349,
				"y": -0.3282277979,
				"z": -3.1267031683,
				"element": "H" 
			},
			{
				"x": 1.5930608729,
				"y": -0.905395854,
				"z": -4.0959754339,
				"element": "H" 
			},
			{
				"x": 0.6422412907,
				"y": -1.7343845956,
				"z": -0.6581783076,
				"element": "H" 
			},
			{
				"x": -2.5310726304,
				"y": 3.1019155488,
				"z": 0.911991666,
				"element": "H" 
			},
			{
				"x": -2.4730984057,
				"y": 1.0457984764,
				"z": 2.0553517081,
				"element": "H" 
			}
		],
		 "valence_orbital": [ 
			{
				"type": "occ",
				"energy": -0.2925,
				"method": "rhf"
			},
			{
				"type": "occ",
				"energy": -0.29054,
				"method": "rhf"
			},
			{
				"type": "occ",
				"energy": -0.26352,
				"method": "rhf"
			},
			{
				"type": "occ",
				"energy": -0.26063,
				"method": "rhf"
			},
			{
				"type": "occ",
				"energy": -0.22026,
				"method": "rhf"
			},
			{
				"type": "unocc",
				"energy": -0.04694,
				"method": "rhf"
			},
			{
				"type": "unocc",
				"energy": -0.00804,
				"method": "rhf"
			},
			{
				"type": "unocc",
				"energy": 0.01736,
				"method": "rhf"
			},
			{
				"type": "unocc",
				"energy": 0.02555,
				"method": "rhf"
			},
			{
				"type": "unocc",
				"energy": 0.072,
				"method": "rhf"
			}
		],
		"cosmo_sigma_profile": { 
			"-0.025": 0.0,
			"-0.024": 0.0,
			"-0.023": 0.0,
			"-0.022": 0.0,
			"-0.021": 0.0,
			"-0.02": 0.0,
			"-0.019": 0.0,
			"-0.018": 0.0,
			"-0.017": 0.77201397793,
			"-0.016": 1.87893115902,
			"-0.015": 1.04625253042,
			"-0.014": 1.34200059141,
			"-0.013": 1.22620677362,
			"-0.012": 1.29912190068,
			"-0.011": 1.91261923247,
			"-0.01": 2.681295816,
			"-0.009": 2.66270656246,
			"-0.008": 1.59896021978,
			"-0.007": 3.28285928113,
			"-0.006": 4.833572485,
			"-0.005": 10.4281913268,
			"-0.004": 12.1622820874,
			"-0.003": 13.6225589805,
			"-0.002": 16.127552049,
			"-0.001": 13.3699610501,
			"0.0": 11.6112247811,
			"0.001": 16.2751913009,
			"0.002": 17.3535922106,
			"0.003": 12.5814610638,
			"0.004": 8.27956553302,
			"0.005": 3.33130354745,
			"0.006": 3.15088981911,
			"0.007": 1.80790809738,
			"0.008": 1.50581646839,
			"0.009": 3.05008000624,
			"0.01": 2.16814894499,
			"0.011": 2.46831152555,
			"0.012": 4.08526467757,
			"0.013": 6.8229136156,
			"0.014": 2.30062043975,
			"0.015": 0.108045913955,
			"0.016": 0.0,
			"0.017": 0.0,
			"0.018": 0.0,
			"0.019": 0.0,
			"0.02": 0.0,
			"0.021": 0.0,
			"0.022": 0.0,
			"0.023": 0.0,
			"0.024": 0.0,
			"0.025": 0.0
		}
	}
}
