{
	 "smiles": "CN1CCC(C(O)=O)C2=C1C=CC=C2", 
	 "Tm": 373.15, 
	 "num_atms": 27, 
	 "gaussian": { 
		 "optdone": 1, 
		 "sigma_profile": "yes", 
		 "theory": "DFT", 
		 "functional": "B3LYP", 
		 "basiset": "6-31G**", 
		 "properties": { 
			 "R2extent": 2731.7184, 
			 "electric_dipole_moment_norm": 4.75557088687, 
			 "electric_quadrupole_moment_norm": 12.7291599955, 
			 "total_energy": -632.211451715, 
			 "HOMO_LUMO_gap": 0.18717, 
			 "cosmo_polarized_energy": -16.18, 
			 "cosmo_cavitation_energy": 28.66, 
			 "cosmo_dispersion_energy": -21.17, 
			 "cosmo_repulsion_energy": 1.64, 
			 "cosmo_total_nonelectrostatic_energy": 9.14, 
			 "SMD_solvation_energy": 4.8 
		},
		"coords": [
			{
				"x": 0.823626572,
				"y": -2.9671053535,
				"z": 1.8448124535,
				"element": "C" 
			},
			{
				"x": 0.7532413568,
				"y": -1.85913195,
				"z": 0.9101598573,
				"element": "N" 
			},
			{
				"x": 1.1663023688,
				"y": -2.1351624703,
				"z": -0.4592855307,
				"element": "C" 
			},
			{
				"x": 1.4829930471,
				"y": -0.8380031329,
				"z": -1.1918118343,
				"element": "C" 
			},
			{
				"x": 0.2469705011,
				"y": 0.0672267634,
				"z": -1.2328556738,
				"element": "C" 
			},
			{
				"x": 0.6401643217,
				"y": 1.4482383682,
				"z": -1.7745083616,
				"element": "C" 
			},
			{
				"x": -0.3122716562,
				"y": 2.0908029411,
				"z": -2.5093854898,
				"element": "O" 
			},
			{
				"x": 1.7075602215,
				"y": 1.9740622882,
				"z": -1.5883782386,
				"element": "O" 
			},
			{
				"x": -0.4115387186,
				"y": 0.1658491353,
				"z": 0.1485357134,
				"element": "C" 
			},
			{
				"x": -0.1528390676,
				"y": -0.8227258626,
				"z": 1.138439236,
				"element": "C" 
			},
			{
				"x": -0.8262363298,
				"y": -0.715978791,
				"z": 2.3747042342,
				"element": "C" 
			},
			{
				"x": -1.7006198038,
				"y": 0.3345153138,
				"z": 2.6366699305,
				"element": "C" 
			},
			{
				"x": -1.9432389809,
				"y": 1.3098794455,
				"z": 1.6728802912,
				"element": "C" 
			},
			{
				"x": -1.2953670865,
				"y": 1.2075368718,
				"z": 0.4425899674,
				"element": "C" 
			},
			{
				"x": 1.097352116,
				"y": -2.619880757,
				"z": 2.846535324,
				"element": "H" 
			},
			{
				"x": -0.1209134844,
				"y": -3.5297459176,
				"z": 1.9244878199,
				"element": "H" 
			},
			{
				"x": 1.6032397395,
				"y": -3.6563417522,
				"z": 1.5132425733,
				"element": "H" 
			},
			{
				"x": 0.3961573956,
				"y": -2.7060269354,
				"z": -1.0105127769,
				"element": "H" 
			},
			{
				"x": 2.0617688603,
				"y": -2.7638354559,
				"z": -0.4230110326,
				"element": "H" 
			},
			{
				"x": 1.8249563485,
				"y": -1.0562889588,
				"z": -2.208736844,
				"element": "H" 
			},
			{
				"x": 2.2898732484,
				"y": -0.3064277837,
				"z": -0.6801059127,
				"element": "H" 
			},
			{
				"x": -0.4800044556,
				"y": -0.3778559708,
				"z": -1.9318490499,
				"element": "H" 
			},
			{
				"x": -1.0973102911,
				"y": 1.5316399917,
				"z": -2.5934541954,
				"element": "H" 
			},
			{
				"x": -0.6650572359,
				"y": -1.4619544,
				"z": 3.1425325487,
				"element": "H" 
			},
			{
				"x": -2.1958216418,
				"y": 0.3812980118,
				"z": 3.6026470485,
				"element": "H" 
			},
			{
				"x": -2.6204082981,
				"y": 2.1347960368,
				"z": 1.8688429891,
				"element": "H" 
			},
			{
				"x": -1.4759790472,
				"y": 1.9723203241,
				"z": -0.3074850468,
				"element": "H" 
			}
		],
		 "valence_orbital": [ 
			{
				"type": "occ",
				"energy": -0.31305,
				"method": "rhf"
			},
			{
				"type": "occ",
				"energy": -0.28666,
				"method": "rhf"
			},
			{
				"type": "occ",
				"energy": -0.27281,
				"method": "rhf"
			},
			{
				"type": "occ",
				"energy": -0.24263,
				"method": "rhf"
			},
			{
				"type": "occ",
				"energy": -0.19232,
				"method": "rhf"
			},
			{
				"type": "unocc",
				"energy": -0.00515,
				"method": "rhf"
			},
			{
				"type": "unocc",
				"energy": 0.00545,
				"method": "rhf"
			},
			{
				"type": "unocc",
				"energy": 0.01773,
				"method": "rhf"
			},
			{
				"type": "unocc",
				"energy": 0.05717,
				"method": "rhf"
			},
			{
				"type": "unocc",
				"energy": 0.08478,
				"method": "rhf"
			}
		],
		"cosmo_sigma_profile": { 
			"-0.025": 0.0,
			"-0.024": 0.0,
			"-0.023": 0.0,
			"-0.022": 0.0,
			"-0.021": 0.0,
			"-0.02": 0.00123998263186,
			"-0.019": 0.50818895767,
			"-0.018": 0.856214105846,
			"-0.017": 1.55457557437,
			"-0.016": 0.468037594984,
			"-0.015": 0.730286984945,
			"-0.014": 1.44749723864,
			"-0.013": 1.29784216805,
			"-0.012": 0.820444847269,
			"-0.011": 1.4432144009,
			"-0.01": 1.06275706254,
			"-0.009": 1.25230362756,
			"-0.008": 1.01981129419,
			"-0.007": 2.64726741642,
			"-0.006": 6.05262646369,
			"-0.005": 16.9517783367,
			"-0.004": 18.6762185501,
			"-0.003": 25.9049751191,
			"-0.002": 23.4071662274,
			"-0.001": 19.7733989108,
			"0.0": 9.29218264748,
			"0.001": 9.56877905422,
			"0.002": 7.95669134433,
			"0.003": 9.27751633307,
			"0.004": 9.64861664668,
			"0.005": 10.221199309,
			"0.006": 10.5009715952,
			"0.007": 9.85985043862,
			"0.008": 4.01069374267,
			"0.009": 3.4925448962,
			"0.01": 4.8505867676,
			"0.011": 5.34998450331,
			"0.012": 4.73397112723,
			"0.013": 1.18594043556,
			"0.014": 0.00440556203471,
			"0.015": 0.0,
			"0.016": 0.0,
			"0.017": 0.0,
			"0.018": 0.0,
			"0.019": 0.0,
			"0.02": 0.0,
			"0.021": 0.0,
			"0.022": 0.0,
			"0.023": 0.0,
			"0.024": 0.0,
			"0.025": 0.0
		}
	}
}
