{
	 "smiles": "CC1=CC(O)=CC(Br)=C1", 
	 "Tm": 329.65, 
	 "num_atms": 16, 
	 "gaussian": { 
		 "optdone": 1, 
		 "sigma_profile": "yes", 
		 "theory": "DFT", 
		 "functional": "B3LYP", 
		 "basiset": "6-31G**", 
		 "properties": { 
			 "R2extent": 3187.4747, 
			 "electric_dipole_moment_norm": 3.38810687553, 
			 "electric_quadrupole_moment_norm": 6.30776273095, 
			 "total_energy": -2917.59449668, 
			 "HOMO_LUMO_gap": 0.21538, 
			 "cosmo_polarized_energy": -8.51, 
			 "cosmo_cavitation_energy": 22.22, 
			 "cosmo_dispersion_energy": -16.94, 
			 "cosmo_repulsion_energy": 1.39, 
			 "cosmo_total_nonelectrostatic_energy": 6.68, 
			 "SMD_solvation_energy": 3.12 
		},
		"coords": [
			{
				"x": 3.6972904442,
				"y": 0.0005936188,
				"z": 0.4581342977,
				"element": "C" 
			},
			{
				"x": 2.2222512673,
				"y": -0.2521925541,
				"z": 0.6668048336,
				"element": "C" 
			},
			{
				"x": 1.3022207344,
				"y": 0.7972105851,
				"z": 0.5480491348,
				"element": "C" 
			},
			{
				"x": -0.0605621889,
				"y": 0.5771641662,
				"z": 0.7638194452,
				"element": "C" 
			},
			{
				"x": -0.99262194,
				"y": 1.5681647828,
				"z": 0.6586989788,
				"element": "O" 
			},
			{
				"x": -0.5296074034,
				"y": -0.6986143353,
				"z": 1.1006020262,
				"element": "C" 
			},
			{
				"x": 0.395376635,
				"y": -1.7279277847,
				"z": 1.211854555,
				"element": "C" 
			},
			{
				"x": -0.2258111223,
				"y": -3.4802121737,
				"z": 1.6665851899,
				"element": "Br" 
			},
			{
				"x": 1.7599203176,
				"y": -1.5298101966,
				"z": 1.0004170521,
				"element": "C" 
			},
			{
				"x": 4.2438454283,
				"y": -0.9333366506,
				"z": 0.3037209046,
				"element": "H" 
			},
			{
				"x": 4.1379632702,
				"y": 0.5015556692,
				"z": 1.328653849,
				"element": "H" 
			},
			{
				"x": 3.8732609642,
				"y": 0.6442025933,
				"z": -0.4098626112,
				"element": "H" 
			},
			{
				"x": 1.6516568423,
				"y": 1.7940085843,
				"z": 0.2842196491,
				"element": "H" 
			},
			{
				"x": -0.5517129671,
				"y": 2.3948268329,
				"z": 0.4233313896,
				"element": "H" 
			},
			{
				"x": -1.5881091015,
				"y": -0.8583666447,
				"z": 1.2625882919,
				"element": "H" 
			},
			{
				"x": 2.4517388198,
				"y": -2.3588664927,
				"z": 1.0939830135,
				"element": "H" 
			}
		],
		 "valence_orbital": [ 
			{
				"type": "occ",
				"energy": -0.34571,
				"method": "rhf"
			},
			{
				"type": "occ",
				"energy": -0.29478,
				"method": "rhf"
			},
			{
				"type": "occ",
				"energy": -0.28215,
				"method": "rhf"
			},
			{
				"type": "occ",
				"energy": -0.24084,
				"method": "rhf"
			},
			{
				"type": "occ",
				"energy": -0.22791,
				"method": "rhf"
			},
			{
				"type": "unocc",
				"energy": -0.01253,
				"method": "rhf"
			},
			{
				"type": "unocc",
				"energy": 0.00462,
				"method": "rhf"
			},
			{
				"type": "unocc",
				"energy": 0.01099,
				"method": "rhf"
			},
			{
				"type": "unocc",
				"energy": 0.06506,
				"method": "rhf"
			},
			{
				"type": "unocc",
				"energy": 0.10229,
				"method": "rhf"
			}
		],
		"cosmo_sigma_profile": { 
			"-0.025": 0.0,
			"-0.024": 0.0,
			"-0.023": 0.0,
			"-0.022": 0.0,
			"-0.021": 0.0,
			"-0.02": 0.0,
			"-0.019": 0.0,
			"-0.018": 0.556596128741,
			"-0.017": 1.41558132448,
			"-0.016": 0.49290709566,
			"-0.015": 1.35774681679,
			"-0.014": 1.44774009778,
			"-0.013": 0.556588266152,
			"-0.012": 0.464913938639,
			"-0.011": 1.21524953651,
			"-0.01": 1.12868382223,
			"-0.009": 1.35289895768,
			"-0.008": 1.15479708963,
			"-0.007": 1.97633572959,
			"-0.006": 4.20633394213,
			"-0.005": 8.23688522808,
			"-0.004": 12.6764239683,
			"-0.003": 11.0567408303,
			"-0.002": 13.3407848188,
			"-0.001": 12.719096306,
			"0.0": 14.4115122715,
			"0.001": 11.0392125455,
			"0.002": 11.9187228074,
			"0.003": 21.2479785514,
			"0.004": 22.8468020622,
			"0.005": 13.9044358105,
			"0.006": 2.16538655351,
			"0.007": 0.614450722011,
			"0.008": 0.920621586653,
			"0.009": 1.93937890234,
			"0.01": 1.68186189464,
			"0.011": 1.7773889553,
			"0.012": 0.199174230521,
			"0.013": 0.0,
			"0.014": 0.0,
			"0.015": 0.0,
			"0.016": 0.0,
			"0.017": 0.0,
			"0.018": 0.0,
			"0.019": 0.0,
			"0.02": 0.0,
			"0.021": 0.0,
			"0.022": 0.0,
			"0.023": 0.0,
			"0.024": 0.0,
			"0.025": 0.0
		}
	}
}
