{
	 "smiles": "OC(=O)C1=C2C=CC=CC2=NC(=C1)C1=CC=C(Cl)C=C1", 
	 "Tm": 518.15, 
	 "num_atms": 30, 
	 "gaussian": { 
		 "optdone": 1, 
		 "sigma_profile": "yes", 
		 "theory": "DFT", 
		 "functional": "B3LYP", 
		 "basiset": "6-31G**", 
		 "properties": { 
			 "R2extent": 9261.7099, 
			 "electric_dipole_moment_norm": 2.15499886311, 
			 "electric_quadrupole_moment_norm": 20.9948546713, 
			 "total_energy": -1281.14347046, 
			 "HOMO_LUMO_gap": 0.14794, 
			 "cosmo_polarized_energy": -16.3, 
			 "cosmo_cavitation_energy": 36.79, 
			 "cosmo_dispersion_energy": -27.06, 
			 "cosmo_repulsion_energy": 2.03, 
			 "cosmo_total_nonelectrostatic_energy": 11.76, 
			 "SMD_solvation_energy": 5.61 
		},
		"coords": [
			{
				"x": 1.9538430469,
				"y": 2.9642911486,
				"z": -1.5648808811,
				"element": "O" 
			},
			{
				"x": 0.645240453,
				"y": 2.600783743,
				"z": -1.6221709627,
				"element": "C" 
			},
			{
				"x": -0.1173242505,
				"y": 3.1984422718,
				"z": -2.3425057997,
				"element": "O" 
			},
			{
				"x": 0.2516852465,
				"y": 1.4561468376,
				"z": -0.7254944662,
				"element": "C" 
			},
			{
				"x": -0.738625041,
				"y": 0.5041895329,
				"z": -1.1218744402,
				"element": "C" 
			},
			{
				"x": -1.4027413467,
				"y": 0.4996910466,
				"z": -2.3771438236,
				"element": "C" 
			},
			{
				"x": -2.3288851453,
				"y": -0.4783777411,
				"z": -2.667732276,
				"element": "C" 
			},
			{
				"x": -2.6354254823,
				"y": -1.4913651039,
				"z": -1.7268369553,
				"element": "C" 
			},
			{
				"x": -2.0103992848,
				"y": -1.5124761517,
				"z": -0.501843303,
				"element": "C" 
			},
			{
				"x": -1.050131993,
				"y": -0.5202337903,
				"z": -0.1666184823,
				"element": "C" 
			},
			{
				"x": -0.4684271817,
				"y": -0.5957609306,
				"z": 1.0602714927,
				"element": "N" 
			},
			{
				"x": 0.4365568042,
				"y": 0.3038396346,
				"z": 1.4129712546,
				"element": "C" 
			},
			{
				"x": 0.8217825244,
				"y": 1.3518315598,
				"z": 0.5273220468,
				"element": "C" 
			},
			{
				"x": 1.0218074684,
				"y": 0.178237886,
				"z": 2.7747464204,
				"element": "C" 
			},
			{
				"x": 0.40702549,
				"y": -0.6681912368,
				"z": 3.7134521841,
				"element": "C" 
			},
			{
				"x": 0.9187861996,
				"y": -0.8127529173,
				"z": 4.9982815492,
				"element": "C" 
			},
			{
				"x": 2.0677247464,
				"y": -0.1067726798,
				"z": 5.3588889007,
				"element": "C" 
			},
			{
				"x": 2.7209046097,
				"y": -0.2822073301,
				"z": 6.9785172724,
				"element": "Cl" 
			},
			{
				"x": 2.7055130367,
				"y": 0.7339099481,
				"z": 4.4483548457,
				"element": "C" 
			},
			{
				"x": 2.1792043729,
				"y": 0.8705120636,
				"z": 3.1654004692,
				"element": "C" 
			},
			{
				"x": 2.4551947188,
				"y": 2.3075529751,
				"z": -1.0606920039,
				"element": "H" 
			},
			{
				"x": -1.1857831758,
				"y": 1.2838176499,
				"z": -3.0911217572,
				"element": "H" 
			},
			{
				"x": -2.8327059861,
				"y": -0.4708729179,
				"z": -3.6296166698,
				"element": "H" 
			},
			{
				"x": -3.3684883812,
				"y": -2.2525846736,
				"z": -1.9772043398,
				"element": "H" 
			},
			{
				"x": -2.2223742547,
				"y": -2.2745703737,
				"z": 0.2405194129,
				"element": "H" 
			},
			{
				"x": 1.5225679405,
				"y": 2.1083264464,
				"z": 0.8632442119,
				"element": "H" 
			},
			{
				"x": -0.4817071983,
				"y": -1.2112107559,
				"z": 3.4139079769,
				"element": "H" 
			},
			{
				"x": 0.4334537225,
				"y": -1.4635474279,
				"z": 5.7172171362,
				"element": "H" 
			},
			{
				"x": 3.6028973112,
				"y": 1.2692479785,
				"z": 4.7375564333,
				"element": "H" 
			},
			{
				"x": 2.7024310297,
				"y": 1.5147033082,
				"z": 2.4665845538,
				"element": "H" 
			}
		],
		 "valence_orbital": [ 
			{
				"type": "occ",
				"energy": -0.2794,
				"method": "rhf"
			},
			{
				"type": "occ",
				"energy": -0.27283,
				"method": "rhf"
			},
			{
				"type": "occ",
				"energy": -0.26826,
				"method": "rhf"
			},
			{
				"type": "occ",
				"energy": -0.25287,
				"method": "rhf"
			},
			{
				"type": "occ",
				"energy": -0.23466,
				"method": "rhf"
			},
			{
				"type": "unocc",
				"energy": -0.08672,
				"method": "rhf"
			},
			{
				"type": "unocc",
				"energy": -0.0542,
				"method": "rhf"
			},
			{
				"type": "unocc",
				"energy": -0.02096,
				"method": "rhf"
			},
			{
				"type": "unocc",
				"energy": -0.01597,
				"method": "rhf"
			},
			{
				"type": "unocc",
				"energy": -0.00213,
				"method": "rhf"
			}
		],
		"cosmo_sigma_profile": { 
			"-0.025": 0.0,
			"-0.024": 0.0,
			"-0.023": 0.0,
			"-0.022": 0.0,
			"-0.021": 0.0,
			"-0.02": 0.0,
			"-0.019": 0.242969280761,
			"-0.018": 1.00645725847,
			"-0.017": 1.14599452317,
			"-0.016": 1.01958077607,
			"-0.015": 0.954731752849,
			"-0.014": 0.612113530895,
			"-0.013": 1.61271482038,
			"-0.012": 1.60626424297,
			"-0.011": 1.77956525644,
			"-0.01": 1.86066591219,
			"-0.009": 2.35968496169,
			"-0.008": 3.75896753546,
			"-0.007": 8.18967133133,
			"-0.006": 14.8198024392,
			"-0.005": 16.2337908858,
			"-0.004": 15.5737793791,
			"-0.003": 15.6804480033,
			"-0.002": 14.1954692748,
			"-0.001": 20.9076587103,
			"0.0": 22.1013582231,
			"0.001": 27.5993519337,
			"0.002": 30.6999628096,
			"0.003": 34.3917126613,
			"0.004": 20.7916994195,
			"0.005": 9.28503013998,
			"0.006": 5.10777630444,
			"0.007": 3.63052315543,
			"0.008": 4.9309470023,
			"0.009": 4.7373972018,
			"0.01": 5.87396103991,
			"0.011": 4.73750009131,
			"0.012": 1.91078767254,
			"0.013": 0.145924246977,
			"0.014": 0.0,
			"0.015": 0.0,
			"0.016": 0.0,
			"0.017": 0.0,
			"0.018": 0.0,
			"0.019": 0.0,
			"0.02": 0.0,
			"0.021": 0.0,
			"0.022": 0.0,
			"0.023": 0.0,
			"0.024": 0.0,
			"0.0": 0.0
		}
	}
}
