{
	 "smiles": "NNC(=O)C1=NOC(=C1)C1=CC=CC=C1", 
	 "Tm": 399.15, 
	 "num_atms": 24, 
	 "gaussian": { 
		 "optdone": 1, 
		 "sigma_profile": "yes", 
		 "theory": "DFT", 
		 "functional": "B3LYP", 
		 "basiset": "6-31G**", 
		 "properties": { 
			 "R2extent": 4672.1368, 
			 "electric_dipole_moment_norm": 3.10584956815, 
			 "electric_quadrupole_moment_norm": 8.95896281329, 
			 "total_energy": -701.119986925, 
			 "HOMO_LUMO_gap": 0.17932, 
			 "cosmo_polarized_energy": -13.05, 
			 "cosmo_cavitation_energy": 29.41, 
			 "cosmo_dispersion_energy": -21.78, 
			 "cosmo_repulsion_energy": 1.69, 
			 "cosmo_total_nonelectrostatic_energy": 9.32, 
			 "SMD_solvation_energy": 6.26 
		},
		"coords": [
			{
				"x": -1.0772867288,
				"y": -4.992105904,
				"z": -1.2617157065,
				"element": "N" 
			},
			{
				"x": -1.8372467367,
				"y": -4.7732264101,
				"z": -0.0987758924,
				"element": "N" 
			},
			{
				"x": -1.9398517356,
				"y": -3.6493095301,
				"z": 0.6696868944,
				"element": "C" 
			},
			{
				"x": -2.6536738909,
				"y": -3.6141824779,
				"z": 1.6672918924,
				"element": "O" 
			},
			{
				"x": -1.1598257871,
				"y": -2.4256499132,
				"z": 0.2846750529,
				"element": "C" 
			},
			{
				"x": -0.3560108176,
				"y": -2.3257181122,
				"z": -0.7598008995,
				"element": "N" 
			},
			{
				"x": 0.1407611911,
				"y": -1.0283342488,
				"z": -0.7157023903,
				"element": "O" 
			},
			{
				"x": -0.3756026537,
				"y": -0.3720441316,
				"z": 0.3575210647,
				"element": "C" 
			},
			{
				"x": -1.2126072922,
				"y": -1.2193686104,
				"z": 1.0302038132,
				"element": "C" 
			},
			{
				"x": 0.0403241955,
				"y": 1.0136526452,
				"z": 0.5616766483,
				"element": "C" 
			},
			{
				"x": 0.9402736767,
				"y": 1.6318964706,
				"z": -0.3228587954,
				"element": "C" 
			},
			{
				"x": 1.3284838008,
				"y": 2.9536489877,
				"z": -0.1165654327,
				"element": "C" 
			},
			{
				"x": 0.8273221357,
				"y": 3.6744293837,
				"z": 0.9694520137,
				"element": "C" 
			},
			{
				"x": -0.0679152238,
				"y": 3.0653305926,
				"z": 1.8526677775,
				"element": "C" 
			},
			{
				"x": -0.4601045638,
				"y": 1.7448845297,
				"z": 1.6525346258,
				"element": "C" 
			},
			{
				"x": -1.3423938721,
				"y": -4.3058084676,
				"z": -1.9649848408,
				"element": "H" 
			},
			{
				"x": -0.0970883345,
				"y": -4.8110360939,
				"z": -1.0561096087,
				"element": "H" 
			},
			{
				"x": -2.3893927224,
				"y": -5.558650424,
				"z": 0.219730094,
				"element": "H" 
			},
			{
				"x": -1.7951269088,
				"y": -1.0523742169,
				"z": 1.9208166701,
				"element": "H" 
			},
			{
				"x": 1.3294783878,
				"y": 1.0722321169,
				"z": -1.1662187554,
				"element": "H" 
			},
			{
				"x": 2.0244836977,
				"y": 3.4217870151,
				"z": -0.8062465836,
				"element": "H" 
			},
			{
				"x": 1.1319664943,
				"y": 4.7047191291,
				"z": 1.1274491919,
				"element": "H" 
			},
			{
				"x": -0.4613882488,
				"y": 3.6201071145,
				"z": 2.6991303633,
				"element": "H" 
			},
			{
				"x": -1.1559780628,
				"y": 1.2785205556,
				"z": 2.3429428029,
				"element": "H" 
			}
		],
		 "valence_orbital": [ 
			{
				"type": "occ",
				"energy": -0.2844,
				"method": "rhf"
			},
			{
				"type": "occ",
				"energy": -0.26679,
				"method": "rhf"
			},
			{
				"type": "occ",
				"energy": -0.26136,
				"method": "rhf"
			},
			{
				"type": "occ",
				"energy": -0.25541,
				"method": "rhf"
			},
			{
				"type": "occ",
				"energy": -0.24086,
				"method": "rhf"
			},
			{
				"type": "unocc",
				"energy": -0.06154,
				"method": "rhf"
			},
			{
				"type": "unocc",
				"energy": -0.02961,
				"method": "rhf"
			},
			{
				"type": "unocc",
				"energy": -0.01503,
				"method": "rhf"
			},
			{
				"type": "unocc",
				"energy": 0.04687,
				"method": "rhf"
			},
			{
				"type": "unocc",
				"energy": 0.07592,
				"method": "rhf"
			}
		],
		"cosmo_sigma_profile": { 
			"-0.025": 0.0,
			"-0.024": 0.0,
			"-0.023": 0.0,
			"-0.022": 0.0,
			"-0.021": 0.0,
			"-0.02": 0.0,
			"-0.019": 0.0,
			"-0.018": 0.0,
			"-0.017": 0.0,
			"-0.016": 0.0,
			"-0.015": 0.0647543611417,
			"-0.014": 0.766880337619,
			"-0.013": 1.3373532773,
			"-0.012": 0.500621967852,
			"-0.011": 1.90248589798,
			"-0.01": 3.10264216281,
			"-0.009": 4.47804122363,
			"-0.008": 6.08926878751,
			"-0.007": 6.58146551649,
			"-0.006": 12.8894294319,
			"-0.005": 15.2631040318,
			"-0.004": 15.0721125609,
			"-0.003": 12.4599233669,
			"-0.002": 11.0970113711,
			"-0.001": 17.4403551993,
			"0.0": 22.8620874485,
			"0.001": 18.6438948539,
			"0.002": 14.6071438065,
			"0.003": 14.6731021547,
			"0.004": 15.8185229798,
			"0.005": 6.5184030702,
			"0.006": 5.83201413059,
			"0.007": 4.54291095625,
			"0.008": 3.27623568345,
			"0.009": 3.04475818212,
			"0.01": 2.4942163339,
			"0.011": 2.82866102812,
			"0.012": 3.81888761789,
			"0.013": 5.17186042061,
			"0.014": 1.61656138634,
			"0.015": 0.590073175352,
			"0.016": 0.192575236668,
			"0.017": 0.0,
			"0.018": 0.0,
			"0.019": 0.0,
			"0.02": 0.0,
			"0.021": 0.0,
			"0.022": 0.0,
			"0.023": 0.0,
			"0.024": 0.0,
			"0.025": 0.0
		}
	}
}
