{
	 "smiles": "CC(CCl)(CCl)C(O)=O", 
	 "Tm": 338.15, 
	 "num_atms": 17, 
	 "gaussian": { 
		 "optdone": 1, 
		 "sigma_profile": "yes", 
		 "theory": "DFT", 
		 "functional": "B3LYP", 
		 "basiset": "6-31G**", 
		 "properties": { 
			 "R2extent": 1890.284, 
			 "electric_dipole_moment_norm": 2.17429522145, 
			 "electric_quadrupole_moment_norm": 16.3518055395, 
			 "total_energy": -1266.20189109, 
			 "HOMO_LUMO_gap": 0.25802, 
			 "cosmo_polarized_energy": -11.95, 
			 "cosmo_cavitation_energy": 22.8, 
			 "cosmo_dispersion_energy": -16.81, 
			 "cosmo_repulsion_energy": 1.36, 
			 "cosmo_total_nonelectrostatic_energy": 7.36, 
			 "SMD_solvation_energy": 4.43 
		},
		"coords": [
			{
				"x": 1.2464685411,
				"y": 1.5023372161,
				"z": -1.0166139856,
				"element": "C" 
			},
			{
				"x": 0.1120076956,
				"y": 1.1220579796,
				"z": -0.0439144275,
				"element": "C" 
			},
			{
				"x": 0.7615445297,
				"y": 0.2648051518,
				"z": 1.0590354008,
				"element": "C" 
			},
			{
				"x": -0.394003269,
				"y": -0.4946650885,
				"z": 2.2623805205,
				"element": "Cl" 
			},
			{
				"x": -1.0288110958,
				"y": 0.3852399214,
				"z": -0.779533884,
				"element": "C" 
			},
			{
				"x": -0.5117089899,
				"y": -1.1831732452,
				"z": -1.5331722998,
				"element": "Cl" 
			},
			{
				"x": -0.5294152488,
				"y": 2.4460020999,
				"z": 0.4805533814,
				"element": "C" 
			},
			{
				"x": -1.2734451549,
				"y": 2.3822827559,
				"z": 1.6012930746,
				"element": "O" 
			},
			{
				"x": -0.4146583673,
				"y": 3.4886388828,
				"z": -0.1153763304,
				"element": "O" 
			},
			{
				"x": 0.8631010959,
				"y": 2.1768396727,
				"z": -1.7830435519,
				"element": "H" 
			},
			{
				"x": 1.6598783034,
				"y": 0.610740103,
				"z": -1.4922520238,
				"element": "H" 
			},
			{
				"x": 2.0476855847,
				"y": 2.0282216995,
				"z": -0.4900425885,
				"element": "H" 
			},
			{
				"x": 1.2817035217,
				"y": -0.579623164,
				"z": 0.6099140357,
				"element": "H" 
			},
			{
				"x": 1.461256782,
				"y": 0.853500681,
				"z": 1.6530550742,
				"element": "H" 
			},
			{
				"x": -1.4059436884,
				"y": 1.0095479815,
				"z": -1.5901244476,
				"element": "H" 
			},
			{
				"x": -1.8471646877,
				"y": 0.1364899035,
				"z": -0.1041956123,
				"element": "H" 
			},
			{
				"x": -1.2591955525,
				"y": 1.4929574491,
				"z": 1.9992376644,
				"element": "H" 
			}
		],
		 "valence_orbital": [ 
			{
				"type": "occ",
				"energy": -0.33149,
				"method": "rhf"
			},
			{
				"type": "occ",
				"energy": -0.32657,
				"method": "rhf"
			},
			{
				"type": "occ",
				"energy": -0.31595,
				"method": "rhf"
			},
			{
				"type": "occ",
				"energy": -0.31088,
				"method": "rhf"
			},
			{
				"type": "occ",
				"energy": -0.28228,
				"method": "rhf"
			},
			{
				"type": "unocc",
				"energy": -0.02426,
				"method": "rhf"
			},
			{
				"type": "unocc",
				"energy": -0.01054,
				"method": "rhf"
			},
			{
				"type": "unocc",
				"energy": 0.03204,
				"method": "rhf"
			},
			{
				"type": "unocc",
				"energy": 0.07252,
				"method": "rhf"
			},
			{
				"type": "unocc",
				"energy": 0.09599,
				"method": "rhf"
			}
		],
		"cosmo_sigma_profile": { 
			"-0.025": 0.0,
			"-0.024": 0.0,
			"-0.023": 0.0,
			"-0.022": 0.0,
			"-0.021": 0.0,
			"-0.02": 0.0,
			"-0.019": 0.0,
			"-0.018": 0.0,
			"-0.017": 0.0,
			"-0.016": 0.0,
			"-0.015": 0.0,
			"-0.014": 0.00690425157298,
			"-0.013": 0.0958662923775,
			"-0.012": 0.330735749843,
			"-0.011": 0.561875795323,
			"-0.01": 2.92880782162,
			"-0.009": 5.26170229595,
			"-0.008": 8.12867390423,
			"-0.007": 10.683297452,
			"-0.006": 9.65185876391,
			"-0.005": 10.2943170284,
			"-0.004": 9.2941903549,
			"-0.003": 9.73067586101,
			"-0.002": 9.4588375198,
			"-0.001": 12.0526527744,
			"0.0": 11.8996018367,
			"0.001": 9.294668477,
			"0.002": 9.08627530899,
			"0.003": 11.5051558853,
			"0.004": 12.291472591,
			"0.005": 11.1647622141,
			"0.006": 7.02953726593,
			"0.007": 2.60339602641,
			"0.008": 2.578782941,
			"0.009": 3.6951686254,
			"0.01": 5.01246805154,
			"0.011": 5.47308811012,
			"0.012": 3.00370739757,
			"0.013": 0.438531194677,
			"0.014": 0.0,
			"0.015": 0.0,
			"0.016": 0.0,
			"0.017": 0.0,
			"0.018": 0.0,
			"0.019": 0.0,
			"0.02": 0.0,
			"0.021": 0.0,
			"0.022": 0.0,
			"0.023": 0.0,
			"0.024": 0.0,
			"0.025": 0.0
		}
	}
}
