{
	 "smiles": "ClCCOCOCCCl", 
	 "Tm": 241.15, 
	 "num_atms": 19, 
	 "gaussian": { 
		 "optdone": 1, 
		 "sigma_profile": "yes", 
		 "theory": "DFT", 
		 "functional": "B3LYP", 
		 "basiset": "6-31G**", 
		 "properties": { 
			 "R2extent": 2972.2079, 
			 "electric_dipole_moment_norm": 4.14529018888, 
			 "electric_quadrupole_moment_norm": 8.26875234966, 
			 "total_energy": -1267.37552187, 
			 "HOMO_LUMO_gap": 0.29716, 
			 "cosmo_polarized_energy": -9.43, 
			 "cosmo_cavitation_energy": 25.02, 
			 "cosmo_dispersion_energy": -18.33, 
			 "cosmo_repulsion_energy": 1.53, 
			 "cosmo_total_nonelectrostatic_energy": 8.23, 
			 "SMD_solvation_energy": 3.86 
		},
		"coords": [
			{
				"x": 2.3787046815,
				"y": 1.4739118062,
				"z": -1.2043290939,
				"element": "Cl" 
			},
			{
				"x": 0.7061754902,
				"y": 0.8482043567,
				"z": -1.5316778155,
				"element": "C" 
			},
			{
				"x": 0.6581914731,
				"y": -0.6730521493,
				"z": -1.6073688737,
				"element": "C" 
			},
			{
				"x": 0.8910994942,
				"y": -1.3478497033,
				"z": -0.380469354,
				"element": "O" 
			},
			{
				"x": -0.201543795,
				"y": -1.3909005164,
				"z": 0.5057109077,
				"element": "C" 
			},
			{
				"x": -0.3714741634,
				"y": -0.2304125438,
				"z": 1.2836023617,
				"element": "O" 
			},
			{
				"x": 0.3899256751,
				"y": -0.1798569063,
				"z": 2.4890287306,
				"element": "C" 
			},
			{
				"x": 1.8524246124,
				"y": 0.1830396967,
				"z": 2.239848787,
				"element": "C" 
			},
			{
				"x": 2.7160096955,
				"y": 0.3058187368,
				"z": 3.8330284059,
				"element": "Cl" 
			},
			{
				"x": 0.0674675641,
				"y": 1.2243178301,
				"z": -0.7332365691,
				"element": "H" 
			},
			{
				"x": 0.3997971675,
				"y": 1.2771979983,
				"z": -2.4880719533,
				"element": "H" 
			},
			{
				"x": -0.3333195614,
				"y": -0.9481348976,
				"z": -2.0049420768,
				"element": "H" 
			},
			{
				"x": 1.416032979,
				"y": -1.0376819169,
				"z": -2.3061019987,
				"element": "H" 
			},
			{
				"x": -0.0274453,
				"y": -2.2618105877,
				"z": 1.1506198612,
				"element": "H" 
			},
			{
				"x": -1.1390016672,
				"y": -1.5153090611,
				"z": -0.0535078839,
				"element": "H" 
			},
			{
				"x": 0.327926402,
				"y": -1.1408075036,
				"z": 3.0190028408,
				"element": "H" 
			},
			{
				"x": -0.0811350879,
				"y": 0.5829642488,
				"z": 3.1141938264,
				"element": "H" 
			},
			{
				"x": 2.3676047991,
				"y": -0.5716989079,
				"z": 1.6474313392,
				"element": "H" 
			},
			{
				"x": 1.9463595411,
				"y": 1.1480600203,
				"z": 1.7430385586,
				"element": "H" 
			}
		],
		 "valence_orbital": [ 
			{
				"type": "occ",
				"energy": -0.30777,
				"method": "rhf"
			},
			{
				"type": "occ",
				"energy": -0.29959,
				"method": "rhf"
			},
			{
				"type": "occ",
				"energy": -0.29422,
				"method": "rhf"
			},
			{
				"type": "occ",
				"energy": -0.28984,
				"method": "rhf"
			},
			{
				"type": "occ",
				"energy": -0.27693,
				"method": "rhf"
			},
			{
				"type": "unocc",
				"energy": 0.02023,
				"method": "rhf"
			},
			{
				"type": "unocc",
				"energy": 0.02639,
				"method": "rhf"
			},
			{
				"type": "unocc",
				"energy": 0.07933,
				"method": "rhf"
			},
			{
				"type": "unocc",
				"energy": 0.09464,
				"method": "rhf"
			},
			{
				"type": "unocc",
				"energy": 0.11006,
				"method": "rhf"
			}
		],
		"cosmo_sigma_profile": { 
			"-0.025": 0.0,
			"-0.024": 0.0,
			"-0.023": 0.0,
			"-0.022": 0.0,
			"-0.021": 0.0,
			"-0.02": 0.0,
			"-0.019": 0.0,
			"-0.018": 0.0,
			"-0.017": 0.0,
			"-0.016": 0.0,
			"-0.015": 0.0,
			"-0.014": 0.0,
			"-0.013": 0.0,
			"-0.012": 0.0,
			"-0.011": 0.0,
			"-0.01": 0.0,
			"-0.009": 0.0,
			"-0.008": 1.3106284638,
			"-0.007": 10.199320521,
			"-0.006": 18.1235979387,
			"-0.005": 20.1872520457,
			"-0.004": 16.2732254688,
			"-0.003": 12.1039252345,
			"-0.002": 10.616806401,
			"-0.001": 9.27503463352,
			"0.0": 11.1189032855,
			"0.001": 10.1461487941,
			"0.002": 11.6273049133,
			"0.003": 10.8984161377,
			"0.004": 9.69068742092,
			"0.005": 13.6037241288,
			"0.006": 18.7462428272,
			"0.007": 9.25127961685,
			"0.008": 1.38820958943,
			"0.009": 2.06108972271,
			"0.01": 1.79100654067,
			"0.011": 1.39553537382,
			"0.012": 0.697643990721,
			"0.013": 0.0,
			"0.014": 0.0,
			"0.015": 0.0,
			"0.016": 0.0,
			"0.017": 0.0,
			"0.018": 0.0,
			"0.019": 0.0,
			"0.02": 0.0,
			"0.021": 0.0,
			"0.022": 0.0,
			"0.023": 0.0,
			"0.024": 0.0,
			"0.025": 0.0
		}
	}
}
