{
	 "smiles": "OC(=O)C=CC(O)=O", 
	 "Tm": 571.15, 
	 "num_atms": 12, 
	 "gaussian": { 
		 "optdone": 1, 
		 "sigma_profile": "yes", 
		 "theory": "DFT", 
		 "functional": "B3LYP", 
		 "basiset": "6-31G**", 
		 "properties": { 
			 "R2extent": 1174.1885, 
			 "electric_dipole_moment_norm": 2.20767313251, 
			 "electric_quadrupole_moment_norm": 10.7942981902, 
			 "total_energy": -455.726148405, 
			 "HOMO_LUMO_gap": 0.21009, 
			 "cosmo_polarized_energy": -14.95, 
			 "cosmo_cavitation_energy": 17.89, 
			 "cosmo_dispersion_energy": -12.9, 
			 "cosmo_repulsion_energy": 1.12, 
			 "cosmo_total_nonelectrostatic_energy": 6.11, 
			 "SMD_solvation_energy": 5.91 
		},
		"coords": [
			{
				"x": 0.6601055533,
				"y": 2.7275270961,
				"z": -1.0346816388,
				"element": "O" 
			},
			{
				"x": -0.2206001982,
				"y": 1.8981534242,
				"z": -1.6229811953,
				"element": "C" 
			},
			{
				"x": -0.277003583,
				"y": 1.6995110173,
				"z": -2.8150228307,
				"element": "O" 
			},
			{
				"x": -1.2108937261,
				"y": 1.3212558194,
				"z": -0.6551965526,
				"element": "C" 
			},
			{
				"x": -0.9744439464,
				"y": 0.342096203,
				"z": 0.2243704646,
				"element": "C" 
			},
			{
				"x": 0.3557203203,
				"y": -0.2957458558,
				"z": 0.3743070484,
				"element": "C" 
			},
			{
				"x": 0.3672579467,
				"y": -1.1616378875,
				"z": 1.4157476748,
				"element": "O" 
			},
			{
				"x": 1.3231910667,
				"y": -0.1001932576,
				"z": -0.3325149767,
				"element": "O" 
			},
			{
				"x": 1.2583545296,
				"y": 3.0352991403,
				"z": -1.7374907012,
				"element": "H" 
			},
			{
				"x": -2.2180337101,
				"y": 1.7182920176,
				"z": -0.7565066466,
				"element": "H" 
			},
			{
				"x": -1.7717648711,
				"y": -0.0376256324,
				"z": 0.8549166845,
				"element": "H" 
			},
			{
				"x": 1.2614106183,
				"y": -1.5413320845,
				"z": 1.4432526696,
				"element": "H" 
			}
		],
		 "valence_orbital": [ 
			{
				"type": "occ",
				"energy": -0.33337,
				"method": "rhf"
			},
			{
				"type": "occ",
				"energy": -0.32022,
				"method": "rhf"
			},
			{
				"type": "occ",
				"energy": -0.30799,
				"method": "rhf"
			},
			{
				"type": "occ",
				"energy": -0.28637,
				"method": "rhf"
			},
			{
				"type": "occ",
				"energy": -0.27674,
				"method": "rhf"
			},
			{
				"type": "unocc",
				"energy": -0.06665,
				"method": "rhf"
			},
			{
				"type": "unocc",
				"energy": 0.00648,
				"method": "rhf"
			},
			{
				"type": "unocc",
				"energy": 0.06877,
				"method": "rhf"
			},
			{
				"type": "unocc",
				"energy": 0.07493,
				"method": "rhf"
			},
			{
				"type": "unocc",
				"energy": 0.08549,
				"method": "rhf"
			}
		],
		"cosmo_sigma_profile": { 
			"-0.025": 0.0,
			"-0.024": 0.0,
			"-0.023": 0.0,
			"-0.022": 0.0,
			"-0.021": 0.0,
			"-0.02": 0.0,
			"-0.019": 0.393182253489,
			"-0.018": 2.1171912745,
			"-0.017": 2.00679542858,
			"-0.016": 1.31704861164,
			"-0.015": 1.79769629637,
			"-0.014": 1.38951969648,
			"-0.013": 1.61812340788,
			"-0.012": 1.36102456319,
			"-0.011": 1.33563961584,
			"-0.01": 2.98194383069,
			"-0.009": 4.15991120585,
			"-0.008": 5.90272729691,
			"-0.007": 4.9375247246,
			"-0.006": 4.18820481992,
			"-0.005": 4.53552874876,
			"-0.004": 5.15765487265,
			"-0.003": 6.92993527128,
			"-0.002": 7.71806205388,
			"-0.001": 6.63072083936,
			"0.0": 6.89866310809,
			"0.001": 6.46482049168,
			"0.002": 5.60108332217,
			"0.003": 4.85388006731,
			"0.004": 4.69718242922,
			"0.005": 4.32068966582,
			"0.006": 5.48204669521,
			"0.007": 5.45779994498,
			"0.008": 7.79748386658,
			"0.009": 5.96793234931,
			"0.01": 6.50448709006,
			"0.011": 9.21608541629,
			"0.012": 2.64360613409,
			"0.013": 0.00695984330978,
			"0.014": 0.0,
			"0.015": 0.0,
			"0.016": 0.0,
			"0.017": 0.0,
			"0.018": 0.0,
			"0.019": 0.0,
			"0.02": 0.0,
			"0.021": 0.0,
			"0.022": 0.0,
			"0.023": 0.0,
			"0.024": 0.0,
			"0.025": 0.0
		}
	}
}
