{
	 "smiles": "CC1OC2=C(NC1=O)C=C(N)C=C2", 
	 "Tm": 472.15, 
	 "num_atms": 23, 
	 "gaussian": { 
		 "optdone": 1, 
		 "sigma_profile": "yes", 
		 "theory": "DFT", 
		 "functional": "B3LYP", 
		 "basiset": "6-31G**", 
		 "properties": { 
			 "R2extent": 2563.0576, 
			 "electric_dipole_moment_norm": 4.1908405565, 
			 "electric_quadrupole_moment_norm": 10.2367279938, 
			 "total_energy": -608.949574976, 
			 "HOMO_LUMO_gap": 0.17866, 
			 "cosmo_polarized_energy": -15.79, 
			 "cosmo_cavitation_energy": 26.56, 
			 "cosmo_dispersion_energy": -19.69, 
			 "cosmo_repulsion_energy": 1.56, 
			 "cosmo_total_nonelectrostatic_energy": 8.43, 
			 "SMD_solvation_energy": 5.11 
		},
		"coords": [
			{
				"x": -2.4524770197,
				"y": -0.5488357664,
				"z": -0.1270843594,
				"element": "C" 
			},
			{
				"x": -1.1851757145,
				"y": -1.390635591,
				"z": -0.3068943218,
				"element": "C" 
			},
			{
				"x": -0.3348535408,
				"y": -0.8589195535,
				"z": -1.3353751077,
				"element": "O" 
			},
			{
				"x": 0.4422345948,
				"y": 0.2171214739,
				"z": -0.9713152688,
				"element": "C" 
			},
			{
				"x": 0.9259295896,
				"y": 0.3301959194,
				"z": 0.3396848384,
				"element": "C" 
			},
			{
				"x": 0.5469992318,
				"y": -0.6622456083,
				"z": 1.2588037169,
				"element": "N" 
			},
			{
				"x": -0.4584048871,
				"y": -1.5675621211,
				"z": 1.0308125559,
				"element": "C" 
			},
			{
				"x": -0.7868448749,
				"y": -2.4164617274,
				"z": 1.8445413695,
				"element": "O" 
			},
			{
				"x": 1.7619152798,
				"y": 1.3880447918,
				"z": 0.6966860698,
				"element": "C" 
			},
			{
				"x": 2.1467286021,
				"y": 2.3424788168,
				"z": -0.2584861902,
				"element": "C" 
			},
			{
				"x": 3.0432251445,
				"y": 3.3639844571,
				"z": 0.0816977678,
				"element": "N" 
			},
			{
				"x": 1.662903883,
				"y": 2.2166637161,
				"z": -1.5711106301,
				"element": "C" 
			},
			{
				"x": 0.8129355391,
				"y": 1.1667000691,
				"z": -1.9170738603,
				"element": "C" 
			},
			{
				"x": -2.9883735563,
				"y": -0.4828852335,
				"z": -1.0777309228,
				"element": "H" 
			},
			{
				"x": -2.2069794652,
				"y": 0.4649513768,
				"z": 0.20393389,
				"element": "H" 
			},
			{
				"x": -3.104461541,
				"y": -1.0121450671,
				"z": 0.6183981526,
				"element": "H" 
			},
			{
				"x": -1.4497367592,
				"y": -2.3939596365,
				"z": -0.6477638678,
				"element": "H" 
			},
			{
				"x": 1.0034541846,
				"y": -0.7213747963,
				"z": 2.1600330728,
				"element": "H" 
			},
			{
				"x": 2.1257600019,
				"y": 1.461751305,
				"z": 1.7189560341,
				"element": "H" 
			},
			{
				"x": 2.9922241753,
				"y": 4.1792443377,
				"z": -0.514316346,
				"element": "H" 
			},
			{
				"x": 3.0353601607,
				"y": 3.6259956534,
				"z": 1.0583153218,
				"element": "H" 
			},
			{
				"x": 1.9522394812,
				"y": 2.9455840714,
				"z": -2.3229628323,
				"element": "H" 
			},
			{
				"x": 0.43619749,
				"y": 1.0655091124,
				"z": -2.9296490824,
				"element": "H" 
			}
		],
		 "valence_orbital": [ 
			{
				"type": "occ",
				"energy": -0.31058,
				"method": "rhf"
			},
			{
				"type": "occ",
				"energy": -0.27783,
				"method": "rhf"
			},
			{
				"type": "occ",
				"energy": -0.25173,
				"method": "rhf"
			},
			{
				"type": "occ",
				"energy": -0.23022,
				"method": "rhf"
			},
			{
				"type": "occ",
				"energy": -0.1905,
				"method": "rhf"
			},
			{
				"type": "unocc",
				"energy": -0.01184,
				"method": "rhf"
			},
			{
				"type": "unocc",
				"energy": 0.01027,
				"method": "rhf"
			},
			{
				"type": "unocc",
				"energy": 0.04101,
				"method": "rhf"
			},
			{
				"type": "unocc",
				"energy": 0.07579,
				"method": "rhf"
			},
			{
				"type": "unocc",
				"energy": 0.0828,
				"method": "rhf"
			}
		],
		"cosmo_sigma_profile": { 
			"-0.025": 0.0,
			"-0.024": 0.0,
			"-0.023": 0.0,
			"-0.022": 0.0,
			"-0.021": 0.0,
			"-0.02": 0.0,
			"-0.019": 0.0,
			"-0.018": 0.0,
			"-0.017": 0.0,
			"-0.016": 0.100659187531,
			"-0.015": 0.896063557992,
			"-0.014": 1.33755144332,
			"-0.013": 1.28561164314,
			"-0.012": 3.2155538573,
			"-0.011": 4.51969787427,
			"-0.01": 3.82313567018,
			"-0.009": 3.80655229621,
			"-0.008": 4.65962141756,
			"-0.007": 6.38384989972,
			"-0.006": 8.1052315762,
			"-0.005": 10.4572189651,
			"-0.004": 15.5675335466,
			"-0.003": 14.6558274377,
			"-0.002": 12.7824701036,
			"-0.001": 14.7032914319,
			"0.0": 13.5029607749,
			"0.001": 10.4268397239,
			"0.002": 8.74353762238,
			"0.003": 9.63721653324,
			"0.004": 9.28015054779,
			"0.005": 11.9665421655,
			"0.006": 9.92818701077,
			"0.007": 4.34802120216,
			"0.008": 2.61824663692,
			"0.009": 3.135706798,
			"0.01": 3.71618000082,
			"0.011": 3.15745363899,
			"0.012": 3.92782457029,
			"0.013": 6.56798865552,
			"0.014": 2.15708215376,
			"0.015": 0.482289564307,
			"0.016": 0.0346318094453,
			"0.017": 0.0,
			"0.018": 0.0,
			"0.019": 0.0,
			"0.02": 0.0,
			"0.021": 0.0,
			"0.022": 0.0,
			"0.023": 0.0,
			"0.024": 0.0,
			"0.025": 0.0
		}
	}
}
