{
	 "smiles": "[O-][N+](=O)C1=CC(=C(C=C1C(=O)CCl)C(=O)CCl)[N+]([O-])=O", 
	 "Tm": 421.15, 
	 "num_atms": 26, 
	 "gaussian": { 
		 "optdone": 1, 
		 "sigma_profile": "yes", 
		 "theory": "DFT", 
		 "functional": "B3LYP", 
		 "basiset": "6-31G**", 
		 "properties": { 
			 "R2extent": 7252.1162, 
			 "electric_dipole_moment_norm": 2.91065416874, 
			 "electric_quadrupole_moment_norm": 17.138043821, 
			 "total_energy": -1865.66943454, 
			 "HOMO_LUMO_gap": 0.15114, 
			 "cosmo_polarized_energy": -21.5, 
			 "cosmo_cavitation_energy": 36.9, 
			 "cosmo_dispersion_energy": -25.3, 
			 "cosmo_repulsion_energy": 1.98, 
			 "cosmo_total_nonelectrostatic_energy": 13.58, 
			 "SMD_solvation_energy": 10.82 
		},
		"coords": [
			{
				"x": 0.9476464825,
				"y": 3.8655060578,
				"z": 0.2508192306,
				"element": "O" 
			},
			{
				"x": 0.7155269585,
				"y": 3.0763987066,
				"z": 1.1687205187,
				"element": "N" 
			},
			{
				"x": 0.7670592866,
				"y": 3.3448896856,
				"z": 2.3616455179,
				"element": "O" 
			},
			{
				"x": 0.3771432471,
				"y": 1.6959329829,
				"z": 0.7845685477,
				"element": "C" 
			},
			{
				"x": 0.3601408951,
				"y": 0.7364547744,
				"z": 1.786013952,
				"element": "C" 
			},
			{
				"x": 0.1154452274,
				"y": -0.5852307378,
				"z": 1.4329790514,
				"element": "C" 
			},
			{
				"x": -0.1031285967,
				"y": -0.9707979739,
				"z": 0.105151674,
				"element": "C" 
			},
			{
				"x": -0.0952739988,
				"y": 0.0326084972,
				"z": -0.8701870302,
				"element": "C" 
			},
			{
				"x": 0.1300369013,
				"y": 1.3763681116,
				"z": -0.5565872768,
				"element": "C" 
			},
			{
				"x": 0.1338701605,
				"y": 2.3472336289,
				"z": -1.7263184176,
				"element": "C" 
			},
			{
				"x": 0.9245670241,
				"y": 2.1770354482,
				"z": -2.6281430845,
				"element": "O" 
			},
			{
				"x": -0.9314120356,
				"y": 3.4337311114,
				"z": -1.8726239471,
				"element": "C" 
			},
			{
				"x": -2.3146502296,
				"y": 3.3021668274,
				"z": -0.7252458582,
				"element": "Cl" 
			},
			{
				"x": -0.4190050047,
				"y": -2.3876805388,
				"z": -0.3728656371,
				"element": "C" 
			},
			{
				"x": -1.5539091884,
				"y": -2.6736334998,
				"z": -0.663110345,
				"element": "O" 
			},
			{
				"x": 0.8004764169,
				"y": -3.2696168934,
				"z": -0.6106888462,
				"element": "C" 
			},
			{
				"x": 0.3812985626,
				"y": -4.8887477365,
				"z": -1.235535889,
				"element": "Cl" 
			},
			{
				"x": 0.088038497,
				"y": -1.5850310593,
				"z": 2.5172390475,
				"element": "N" 
			},
			{
				"x": 0.2653880159,
				"y": -1.1901743079,
				"z": 3.6629588364,
				"element": "O" 
			},
			{
				"x": -0.113183677,
				"y": -2.7561275722,
				"z": 2.1924450225,
				"element": "O" 
			},
			{
				"x": 0.5399472953,
				"y": 1.0095489241,
				"z": 2.8173833422,
				"element": "H" 
			},
			{
				"x": -0.2783584043,
				"y": -0.2360716739,
				"z": -1.9054804645,
				"element": "H" 
			},
			{
				"x": -0.4672489326,
				"y": 4.4089840861,
				"z": -1.726926627,
				"element": "H" 
			},
			{
				"x": -1.3282103693,
				"y": 3.369656305,
				"z": -2.8867533434,
				"element": "H" 
			},
			{
				"x": 1.354004839,
				"y": -3.3872063446,
				"z": 0.3221297986,
				"element": "H" 
			},
			{
				"x": 1.4517906271,
				"y": -2.7777968091,
				"z": -1.340887773,
				"element": "H" 
			}
		],
		 "valence_orbital": [ 
			{
				"type": "occ",
				"energy": -0.32529,
				"method": "rhf"
			},
			{
				"type": "occ",
				"energy": -0.31525,
				"method": "rhf"
			},
			{
				"type": "occ",
				"energy": -0.3121,
				"method": "rhf"
			},
			{
				"type": "occ",
				"energy": -0.29836,
				"method": "rhf"
			},
			{
				"type": "occ",
				"energy": -0.29192,
				"method": "rhf"
			},
			{
				"type": "unocc",
				"energy": -0.14078,
				"method": "rhf"
			},
			{
				"type": "unocc",
				"energy": -0.12589,
				"method": "rhf"
			},
			{
				"type": "unocc",
				"energy": -0.07205,
				"method": "rhf"
			},
			{
				"type": "unocc",
				"energy": -0.06276,
				"method": "rhf"
			},
			{
				"type": "unocc",
				"energy": -0.05081,
				"method": "rhf"
			}
		],
		"cosmo_sigma_profile": { 
			"-0.025": 0.0,
			"-0.024": 0.0,
			"-0.023": 0.0,
			"-0.022": 0.0,
			"-0.021": 0.0,
			"-0.02": 0.0,
			"-0.019": 0.0,
			"-0.018": 0.0,
			"-0.017": 0.0,
			"-0.016": 0.0,
			"-0.015": 0.0,
			"-0.014": 0.00320729869664,
			"-0.013": 0.474186921649,
			"-0.012": 1.8031761014,
			"-0.011": 3.97753328252,
			"-0.01": 9.82807141391,
			"-0.009": 12.374568312,
			"-0.008": 12.0191668724,
			"-0.007": 12.7175227415,
			"-0.006": 14.568322061,
			"-0.005": 16.9718512048,
			"-0.004": 14.1724774995,
			"-0.003": 10.535852435,
			"-0.002": 12.9061743521,
			"-0.001": 12.8410345809,
			"0.0": 13.3689997473,
			"0.001": 14.9200357859,
			"0.002": 15.5527740838,
			"0.003": 15.9076879993,
			"0.004": 19.492070024,
			"0.005": 24.8879884903,
			"0.006": 19.6915651899,
			"0.007": 13.0478416751,
			"0.008": 11.373910759,
			"0.009": 9.27369066474,
			"0.01": 6.65721874915,
			"0.011": 1.34013461429,
			"0.012": 0.049975357763,
			"0.013": 0.0,
			"0.014": 0.0,
			"0.015": 0.0,
			"0.016": 0.0,
			"0.017": 0.0,
			"0.018": 0.0,
			"0.019": 0.0,
			"0.02": 0.0,
			"0.021": 0.0,
			"0.022": 0.0,
			"0.023": 0.0,
			"0.024": 0.0,
			"0.025": 0.0
		}
	}
}
