{
	 "smiles": "SC1=NN=NN1C1=CC(Cl)=CC=C1", 
	 "Tm": 422.15, 
	 "num_atms": 18, 
	 "gaussian": { 
		 "optdone": 1, 
		 "sigma_profile": "yes", 
		 "theory": "DFT", 
		 "functional": "B3LYP", 
		 "basiset": "6-31G**", 
		 "properties": { 
			 "R2extent": 4432.2709, 
			 "electric_dipole_moment_norm": 3.88444151584, 
			 "electric_quadrupole_moment_norm": 14.1272664886, 
			 "total_energy": -1347.07565213, 
			 "HOMO_LUMO_gap": 0.20637, 
			 "cosmo_polarized_energy": -12.39, 
			 "cosmo_cavitation_energy": 26.82, 
			 "cosmo_dispersion_energy": -20.17, 
			 "cosmo_repulsion_energy": 1.55, 
			 "cosmo_total_nonelectrostatic_energy": 8.2, 
			 "SMD_solvation_energy": 2.21 
		},
		"coords": [
			{
				"x": -0.5783121859,
				"y": -2.765591807,
				"z": -1.7692596347,
				"element": "S" 
			},
			{
				"x": 0.2634363832,
				"y": -1.8624884377,
				"z": -0.517575655,
				"element": "C" 
			},
			{
				"x": 1.4538877155,
				"y": -2.1562078693,
				"z": -0.0247620772,
				"element": "N" 
			},
			{
				"x": 1.7344719752,
				"y": -1.1741569156,
				"z": 0.8736991682,
				"element": "N" 
			},
			{
				"x": 0.7836456626,
				"y": -0.3129253677,
				"z": 0.9503045687,
				"element": "N" 
			},
			{
				"x": -0.1861747783,
				"y": -0.7230166313,
				"z": 0.0702474145,
				"element": "N" 
			},
			{
				"x": -1.3726288414,
				"y": 0.0425548476,
				"z": -0.1146818979,
				"element": "C" 
			},
			{
				"x": -2.6052960869,
				"y": -0.6032526205,
				"z": -0.2379025389,
				"element": "C" 
			},
			{
				"x": -3.7459000505,
				"y": 0.1763976839,
				"z": -0.4262303296,
				"element": "C" 
			},
			{
				"x": -5.2989336707,
				"y": -0.6194017792,
				"z": -0.5919680564,
				"element": "Cl" 
			},
			{
				"x": -3.6775188915,
				"y": 1.5683190094,
				"z": -0.4673999082,
				"element": "C" 
			},
			{
				"x": -2.435397659,
				"y": 2.1883210607,
				"z": -0.3192413203,
				"element": "C" 
			},
			{
				"x": -1.2755465559,
				"y": 1.4363683107,
				"z": -0.1488106332,
				"element": "C" 
			},
			{
				"x": 0.4511470838,
				"y": -3.620098218,
				"z": -1.9268938607,
				"element": "H" 
			},
			{
				"x": -2.6852007385,
				"y": -1.6814002338,
				"z": -0.1678685879,
				"element": "H" 
			},
			{
				"x": -4.5798020713,
				"y": 2.1519577051,
				"z": -0.6093461373,
				"element": "H" 
			},
			{
				"x": -2.3724102207,
				"y": 3.2714547677,
				"z": -0.3460913683,
				"element": "H" 
			},
			{
				"x": -0.3064670699,
				"y": 1.907366495,
				"z": -0.0375191457,
				"element": "H" 
			}
		],
		 "valence_orbital": [ 
			{
				"type": "occ",
				"energy": -0.30494,
				"method": "rhf"
			},
			{
				"type": "occ",
				"energy": -0.29787,
				"method": "rhf"
			},
			{
				"type": "occ",
				"energy": -0.28153,
				"method": "rhf"
			},
			{
				"type": "occ",
				"energy": -0.27038,
				"method": "rhf"
			},
			{
				"type": "occ",
				"energy": -0.26318,
				"method": "rhf"
			},
			{
				"type": "unocc",
				"energy": -0.05681,
				"method": "rhf"
			},
			{
				"type": "unocc",
				"energy": -0.04251,
				"method": "rhf"
			},
			{
				"type": "unocc",
				"energy": -0.00951,
				"method": "rhf"
			},
			{
				"type": "unocc",
				"energy": -0.00615,
				"method": "rhf"
			},
			{
				"type": "unocc",
				"energy": 0.00957,
				"method": "rhf"
			}
		],
		"cosmo_sigma_profile": { 
			"-0.025": 0.0,
			"-0.024": 0.0,
			"-0.023": 0.0,
			"-0.022": 0.0,
			"-0.021": 0.0,
			"-0.02": 0.0,
			"-0.019": 0.0,
			"-0.018": 0.0,
			"-0.017": 0.0,
			"-0.016": 0.0,
			"-0.015": 0.0,
			"-0.014": 0.211752782481,
			"-0.013": 1.74236437291,
			"-0.012": 1.14396078467,
			"-0.011": 1.44426746204,
			"-0.01": 1.81944107196,
			"-0.009": 1.48966567888,
			"-0.008": 6.92770251174,
			"-0.007": 9.8485686404,
			"-0.006": 10.0202014447,
			"-0.005": 11.8314162959,
			"-0.004": 10.9059757535,
			"-0.003": 12.5248932779,
			"-0.002": 13.2638231688,
			"-0.001": 17.0342809836,
			"0.0": 20.7187737762,
			"0.001": 22.2062472583,
			"0.002": 17.2097508576,
			"0.003": 11.8022883346,
			"0.004": 14.2137688244,
			"0.005": 5.07369528511,
			"0.006": 3.92183497953,
			"0.007": 4.14722308274,
			"0.008": 5.77128606584,
			"0.009": 3.88004437348,
			"0.01": 4.79053306101,
			"0.011": 2.90532485688,
			"0.012": 2.12729617333,
			"0.013": 2.14806921073,
			"0.014": 0.546181844732,
			"0.015": 0.0592678988861,
			"0.016": 0.0,
			"0.017": 0.0,
			"0.018": 0.0,
			"0.019": 0.0,
			"0.02": 0.0,
			"0.021": 0.0,
			"0.022": 0.0,
			"0.023": 0.0,
			"0.024": 0.0,
			"0.025": 0.0
		}
	}
}
