{
	 "smiles": "CN1CCN(CC1)C(=O)C1CCN(CC1)C(=O)OC(C)(C)C", 
	 "Tm": 369.15, 
	 "num_atms": 51, 
	 "gaussian": { 
		 "optdone": 1, 
		 "sigma_profile": "yes", 
		 "theory": "DFT", 
		 "functional": "B3LYP", 
		 "basiset": "6-31G**", 
		 "properties": { 
			 "R2extent": 11465.137, 
			 "electric_dipole_moment_norm": 5.71242808707, 
			 "electric_quadrupole_moment_norm": 16.188454551, 
			 "total_energy": -1017.14229695, 
			 "HOMO_LUMO_gap": 0.24339, 
			 "cosmo_polarized_energy": -17.27, 
			 "cosmo_cavitation_energy": 48.76, 
			 "cosmo_dispersion_energy": -33.9, 
			 "cosmo_repulsion_energy": 2.61, 
			 "cosmo_total_nonelectrostatic_energy": 17.47, 
			 "SMD_solvation_energy": 5.53 
		},
		"coords": [
			{
				"x": -4.2845661407,
				"y": -2.2696567764,
				"z": -3.4306329936,
				"element": "C" 
			},
			{
				"x": -3.8274091032,
				"y": -1.4614284991,
				"z": -2.3149473395,
				"element": "N" 
			},
			{
				"x": -4.802115477,
				"y": -0.4920917807,
				"z": -1.8325828183,
				"element": "C" 
			},
			{
				"x": -4.0829824979,
				"y": 0.558986157,
				"z": -0.9786573143,
				"element": "C" 
			},
			{
				"x": -3.1243895446,
				"y": -0.0874632085,
				"z": -0.0678099113,
				"element": "N" 
			},
			{
				"x": -3.3119921536,
				"y": -1.5204206836,
				"z": 0.1146997853,
				"element": "C" 
			},
			{
				"x": -3.2762233554,
				"y": -2.2761345162,
				"z": -1.2298107363,
				"element": "C" 
			},
			{
				"x": -2.1639864388,
				"y": 0.7144766631,
				"z": 0.4955780336,
				"element": "C" 
			},
			{
				"x": -2.1419436724,
				"y": 1.9192439975,
				"z": 0.242438147,
				"element": "O" 
			},
			{
				"x": -1.0891186509,
				"y": 0.0748463952,
				"z": 1.3908674424,
				"element": "C" 
			},
			{
				"x": -0.5614206358,
				"y": 1.1082000922,
				"z": 2.4154824594,
				"element": "C" 
			},
			{
				"x": 0.912176401,
				"y": 0.8864173175,
				"z": 2.7592449919,
				"element": "C" 
			},
			{
				"x": 1.7368023997,
				"y": 1.0087427144,
				"z": 1.5518844857,
				"element": "N" 
			},
			{
				"x": 1.1455543912,
				"y": 0.6140984791,
				"z": 0.2669289714,
				"element": "C" 
			},
			{
				"x": 0.0777272633,
				"y": -0.456300821,
				"z": 0.5042748598,
				"element": "C" 
			},
			{
				"x": 2.9661827548,
				"y": 1.5959453823,
				"z": 1.6633444786,
				"element": "C" 
			},
			{
				"x": 3.4601174595,
				"y": 1.9492599547,
				"z": 2.7273441606,
				"element": "O" 
			},
			{
				"x": 3.5504032111,
				"y": 1.725491577,
				"z": 0.4425746154,
				"element": "O" 
			},
			{
				"x": 4.8911543339,
				"y": 2.3091765806,
				"z": 0.3095404831,
				"element": "C" 
			},
			{
				"x": 5.9182216294,
				"y": 1.4556128567,
				"z": 1.0621893263,
				"element": "C" 
			},
			{
				"x": 4.8820987717,
				"y": 3.7643840727,
				"z": 0.791231885,
				"element": "C" 
			},
			{
				"x": 5.1346022978,
				"y": 2.241753433,
				"z": -1.201032991,
				"element": "C" 
			},
			{
				"x": -3.4634847099,
				"y": -2.9016535499,
				"z": -3.7864091372,
				"element": "H" 
			},
			{
				"x": -4.592883321,
				"y": -1.6229737875,
				"z": -4.2582550444,
				"element": "H" 
			},
			{
				"x": -5.133382596,
				"y": -2.9344180313,
				"z": -3.1767488907,
				"element": "H" 
			},
			{
				"x": -5.6377319097,
				"y": -0.9603286024,
				"z": -1.2751695527,
				"element": "H" 
			},
			{
				"x": -5.2528037335,
				"y": 0.0135086574,
				"z": -2.6925632421,
				"element": "H" 
			},
			{
				"x": -4.8064015977,
				"y": 1.1594073163,
				"z": -0.4107121788,
				"element": "H" 
			},
			{
				"x": -3.5227784845,
				"y": 1.2451845572,
				"z": -1.6169923089,
				"element": "H" 
			},
			{
				"x": -2.5485688859,
				"y": -1.9251799074,
				"z": 0.7761887455,
				"element": "H" 
			},
			{
				"x": -4.2787326513,
				"y": -1.6947076839,
				"z": 0.6067248656,
				"element": "H" 
			},
			{
				"x": -3.8391982261,
				"y": -3.2196489817,
				"z": -1.0928034242,
				"element": "H" 
			},
			{
				"x": -2.2456869098,
				"y": -2.5540226327,
				"z": -1.4885670546,
				"element": "H" 
			},
			{
				"x": -1.5133308812,
				"y": -0.7718894972,
				"z": 1.9377201536,
				"element": "H" 
			},
			{
				"x": -1.1578760216,
				"y": 1.0675082502,
				"z": 3.3332789178,
				"element": "H" 
			},
			{
				"x": -0.6882743173,
				"y": 2.1077315188,
				"z": 1.9913466219,
				"element": "H" 
			},
			{
				"x": 1.2643308865,
				"y": 1.6300546238,
				"z": 3.4755595564,
				"element": "H" 
			},
			{
				"x": 1.0598594304,
				"y": -0.0995406637,
				"z": 3.2261182154,
				"element": "H" 
			},
			{
				"x": 0.6971304502,
				"y": 1.4788140563,
				"z": -0.2410112253,
				"element": "H" 
			},
			{
				"x": 1.9350244523,
				"y": 0.2268395029,
				"z": -0.3790438764,
				"element": "H" 
			},
			{
				"x": 0.5448410497,
				"y": -1.3182962608,
				"z": 0.9945844526,
				"element": "H" 
			},
			{
				"x": -0.2980716149,
				"y": -0.8065064522,
				"z": -0.4629827026,
				"element": "H" 
			},
			{
				"x": 6.9270223673,
				"y": 1.8321591967,
				"z": 0.8629248866,
				"element": "H" 
			},
			{
				"x": 5.7346572187,
				"y": 1.4840258109,
				"z": 2.1362554569,
				"element": "H" 
			},
			{
				"x": 5.8705937667,
				"y": 0.4164134988,
				"z": 0.7206617271,
				"element": "H" 
			},
			{
				"x": 4.685219806,
				"y": 3.8171683103,
				"z": 1.8619501912,
				"element": "H" 
			},
			{
				"x": 5.8524397253,
				"y": 4.2275020999,
				"z": 0.5834342848,
				"element": "H" 
			},
			{
				"x": 4.1128332429,
				"y": 4.3340340598,
				"z": 0.2600785053,
				"element": "H" 
			},
			{
				"x": 4.3724123189,
				"y": 2.8118732251,
				"z": -1.7401695255,
				"element": "H" 
			},
			{
				"x": 5.1028530455,
				"y": 1.2059036663,
				"z": -1.5520126668,
				"element": "H" 
			},
			{
				"x": 6.1164948571,
				"y": 2.6592983127,
				"z": -1.4434357715,
				"element": "H" 
			}
		],
		 "valence_orbital": [ 
			{
				"type": "occ",
				"energy": -0.24808,
				"method": "rhf"
			},
			{
				"type": "occ",
				"energy": -0.2441,
				"method": "rhf"
			},
			{
				"type": "occ",
				"energy": -0.23772,
				"method": "rhf"
			},
			{
				"type": "occ",
				"energy": -0.22266,
				"method": "rhf"
			},
			{
				"type": "occ",
				"energy": -0.21768,
				"method": "rhf"
			},
			{
				"type": "unocc",
				"energy": 0.02571,
				"method": "rhf"
			},
			{
				"type": "unocc",
				"energy": 0.06077,
				"method": "rhf"
			},
			{
				"type": "unocc",
				"energy": 0.06575,
				"method": "rhf"
			},
			{
				"type": "unocc",
				"energy": 0.0856,
				"method": "rhf"
			},
			{
				"type": "unocc",
				"energy": 0.09381,
				"method": "rhf"
			}
		],
		"cosmo_sigma_profile": { 
			"-0.025": 0.0,
			"-0.024": 0.0,
			"-0.023": 0.0,
			"-0.022": 0.0,
			"-0.021": 0.0,
			"-0.02": 0.0,
			"-0.019": 0.0,
			"-0.018": 0.0,
			"-0.017": 0.0,
			"-0.016": 0.0,
			"-0.015": 0.0,
			"-0.014": 0.0,
			"-0.013": 0.0,
			"-0.012": 0.0,
			"-0.011": 0.0,
			"-0.01": 0.0,
			"-0.009": 0.0,
			"-0.008": 0.46205245226,
			"-0.007": 2.05804963736,
			"-0.006": 2.70749332279,
			"-0.005": 8.30026619704,
			"-0.004": 42.9759098739,
			"-0.003": 62.6338721874,
			"-0.002": 57.0043282504,
			"-0.001": 45.7578146698,
			"0.0": 42.0008288364,
			"0.001": 31.5339062535,
			"0.002": 14.0673255177,
			"0.003": 8.7574086335,
			"0.004": 7.58983079898,
			"0.005": 7.33494347885,
			"0.006": 6.21664000253,
			"0.007": 5.22545843913,
			"0.008": 4.01402370416,
			"0.009": 4.24563193867,
			"0.01": 3.41086704269,
			"0.011": 2.89711250873,
			"0.012": 4.27872451921,
			"0.013": 4.5344502257,
			"0.014": 6.99931814589,
			"0.015": 1.79244849358,
			"0.016": 0.123302322717,
			"0.017": 0.0,
			"0.018": 0.0,
			"0.019": 0.0,
			"0.02": 0.0,
			"0.021": 0.0,
			"0.022": 0.0,
			"0.023": 0.0,
			"0.024": 0.0,
			"0.025": 0.0
		}
	}
}
