{
	 "smiles": "ClC1=CC=C(NC2=NCCN2)C=C1", 
	 "Tm": 421.15, 
	 "num_atms": 23, 
	 "gaussian": { 
		 "optdone": 1, 
		 "sigma_profile": "yes", 
		 "theory": "DFT", 
		 "functional": "B3LYP", 
		 "basiset": "6-31G**", 
		 "properties": { 
			 "R2extent": 5076.6293, 
			 "electric_dipole_moment_norm": 2.10633570686, 
			 "electric_quadrupole_moment_norm": 13.8997225717, 
			 "total_energy": -973.426598314, 
			 "HOMO_LUMO_gap": 0.18508, 
			 "cosmo_polarized_energy": -12.02, 
			 "cosmo_cavitation_energy": 28.22, 
			 "cosmo_dispersion_energy": -21.47, 
			 "cosmo_repulsion_energy": 1.71, 
			 "cosmo_total_nonelectrostatic_energy": 8.47, 
			 "SMD_solvation_energy": 0.09 
		},
		"coords": [
			{
				"x": -3.6492956687,
				"y": 2.6140879325,
				"z": -4.3220438699,
				"element": "Cl" 
			},
			{
				"x": -2.6555161424,
				"y": 1.7056550144,
				"z": -3.1899178695,
				"element": "C" 
			},
			{
				"x": -3.1717126013,
				"y": 0.563310459,
				"z": -2.5780132526,
				"element": "C" 
			},
			{
				"x": -2.3865791027,
				"y": -0.1434048816,
				"z": -1.6735886109,
				"element": "C" 
			},
			{
				"x": -1.0741630743,
				"y": 0.2667774293,
				"z": -1.3772235887,
				"element": "C" 
			},
			{
				"x": -0.3337936848,
				"y": -0.5062012251,
				"z": -0.4736685134,
				"element": "N" 
			},
			{
				"x": 0.8195055578,
				"y": -0.2088161329,
				"z": 0.2253504826,
				"element": "C" 
			},
			{
				"x": 1.5254928487,
				"y": -1.1270973686,
				"z": 0.7832163559,
				"element": "N" 
			},
			{
				"x": 2.6352931903,
				"y": -0.4361096083,
				"z": 1.4494202607,
				"element": "C" 
			},
			{
				"x": 2.2669595852,
				"y": 1.0740201254,
				"z": 1.4343613433,
				"element": "C" 
			},
			{
				"x": 1.257399351,
				"y": 1.1162850022,
				"z": 0.3585222262,
				"element": "N" 
			},
			{
				"x": -0.5635088715,
				"y": 1.4070703146,
				"z": -2.0213795197,
				"element": "C" 
			},
			{
				"x": -1.3571307146,
				"y": 2.1271557304,
				"z": -2.9135989778,
				"element": "C" 
			},
			{
				"x": -4.1816428049,
				"y": 0.2357446133,
				"z": -2.7986995593,
				"element": "H" 
			},
			{
				"x": -2.7953547652,
				"y": -1.0226374285,
				"z": -1.182835014,
				"element": "H" 
			},
			{
				"x": -0.5865627638,
				"y": -1.4803765305,
				"z": -0.3866175285,
				"element": "H" 
			},
			{
				"x": 3.5679786771,
				"y": -0.6187784816,
				"z": 0.8974129978,
				"element": "H" 
			},
			{
				"x": 2.7843890692,
				"y": -0.8150288952,
				"z": 2.4661301233,
				"element": "H" 
			},
			{
				"x": 1.8348709346,
				"y": 1.3913855095,
				"z": 2.3933542551,
				"element": "H" 
			},
			{
				"x": 3.1151196965,
				"y": 1.7255641449,
				"z": 1.2063266791,
				"element": "H" 
			},
			{
				"x": 0.5251431211,
				"y": 1.8103394497,
				"z": 0.4573460524,
				"element": "H" 
			},
			{
				"x": 0.4586493668,
				"y": 1.7174328207,
				"z": -1.8418096178,
				"element": "H" 
			},
			{
				"x": -0.9556412041,
				"y": 3.0056220065,
				"z": -3.4070448543,
				"element": "H" 
			}
		],
		 "valence_orbital": [ 
			{
				"type": "occ",
				"energy": -0.28758,
				"method": "rhf"
			},
			{
				"type": "occ",
				"energy": -0.26694,
				"method": "rhf"
			},
			{
				"type": "occ",
				"energy": -0.26228,
				"method": "rhf"
			},
			{
				"type": "occ",
				"energy": -0.23323,
				"method": "rhf"
			},
			{
				"type": "occ",
				"energy": -0.20342,
				"method": "rhf"
			},
			{
				"type": "unocc",
				"energy": -0.01834,
				"method": "rhf"
			},
			{
				"type": "unocc",
				"energy": -0.01223,
				"method": "rhf"
			},
			{
				"type": "unocc",
				"energy": 0.03072,
				"method": "rhf"
			},
			{
				"type": "unocc",
				"energy": 0.05816,
				"method": "rhf"
			},
			{
				"type": "unocc",
				"energy": 0.08227,
				"method": "rhf"
			}
		],
		"cosmo_sigma_profile": { 
			"-0.025": 0.0,
			"-0.024": 0.0,
			"-0.023": 0.0,
			"-0.022": 0.0,
			"-0.021": 0.0,
			"-0.02": 0.0,
			"-0.019": 0.0,
			"-0.018": 0.0,
			"-0.017": 0.0,
			"-0.016": 0.0,
			"-0.015": 0.197078890381,
			"-0.014": 0.715050348489,
			"-0.013": 1.28975049143,
			"-0.012": 2.6887609548,
			"-0.011": 1.87727131739,
			"-0.01": 1.96327056688,
			"-0.009": 2.84287239224,
			"-0.008": 2.78201054007,
			"-0.007": 6.77687219612,
			"-0.006": 7.66537917996,
			"-0.005": 10.0359170494,
			"-0.004": 15.3306776522,
			"-0.003": 19.8226578463,
			"-0.002": 18.7763093843,
			"-0.001": 14.7625062402,
			"0.0": 14.7403483624,
			"0.001": 12.4549282117,
			"0.002": 18.3095333578,
			"0.003": 21.2406011251,
			"0.004": 21.3775769008,
			"0.005": 12.8101172661,
			"0.006": 2.75362929011,
			"0.007": 1.98730260599,
			"0.008": 2.05868834728,
			"0.009": 1.62144293538,
			"0.01": 1.56441506296,
			"0.011": 0.843451905412,
			"0.012": 1.05238842152,
			"0.013": 0.838044493713,
			"0.014": 1.10618034741,
			"0.015": 0.984052107835,
			"0.016": 1.39909512081,
			"0.017": 0.829944185467,
			"0.018": 1.01294015766,
			"0.019": 0.318512757346,
			"0.02": 0.0,
			"0.021": 0.0,
			"0.022": 0.0,
			"0.023": 0.0,
			"0.024": 0.0,
			"0.025": 0.0
		}
	}
}
