{
	 "smiles": "CC(=O)NC1=CC(=C(C=C1)C#N)C(F)(F)F", 
	 "Tm": 445.15, 
	 "num_atms": 23, 
	 "gaussian": { 
		 "optdone": 1, 
		 "sigma_profile": "yes", 
		 "theory": "DFT", 
		 "functional": "B3LYP", 
		 "basiset": "6-31G**", 
		 "properties": { 
			 "R2extent": 4590.1874, 
			 "electric_dipole_moment_norm": 4.32169341, 
			 "electric_quadrupole_moment_norm": 32.2553223727, 
			 "total_energy": -869.531729593, 
			 "HOMO_LUMO_gap": 0.17839, 
			 "cosmo_polarized_energy": -17.98, 
			 "cosmo_cavitation_energy": 30.19, 
			 "cosmo_dispersion_energy": -20.86, 
			 "cosmo_repulsion_energy": 1.55, 
			 "cosmo_total_nonelectrostatic_energy": 10.88, 
			 "SMD_solvation_energy": 8.3 
		},
		"coords": [
			{
				"x": 3.2482572328,
				"y": 0.3826365103,
				"z": -3.4846800223,
				"element": "C" 
			},
			{
				"x": 3.1558443994,
				"y": -0.688675638,
				"z": -2.4218859699,
				"element": "C" 
			},
			{
				"x": 4.0161801512,
				"y": -1.5418289475,
				"z": -2.2845894456,
				"element": "O" 
			},
			{
				"x": 2.0605413577,
				"y": -0.7276199708,
				"z": -1.55402977,
				"element": "N" 
			},
			{
				"x": 0.8988324226,
				"y": 0.023166355,
				"z": -1.3676384311,
				"element": "C" 
			},
			{
				"x": 0.0452631467,
				"y": -0.4003460272,
				"z": -0.3265676343,
				"element": "C" 
			},
			{
				"x": -1.1374344648,
				"y": 0.2601408315,
				"z": -0.0408653994,
				"element": "C" 
			},
			{
				"x": -1.518579272,
				"y": 1.3889909165,
				"z": -0.7982294135,
				"element": "C" 
			},
			{
				"x": -0.6709868532,
				"y": 1.8098757129,
				"z": -1.832090692,
				"element": "C" 
			},
			{
				"x": 0.5169032272,
				"y": 1.1470075381,
				"z": -2.1195622675,
				"element": "C" 
			},
			{
				"x": -2.7284393934,
				"y": 2.1126765919,
				"z": -0.550527254,
				"element": "C" 
			},
			{
				"x": -3.6986131275,
				"y": 2.7334085923,
				"z": -0.3888715322,
				"element": "N" 
			},
			{
				"x": -2.0164454672,
				"y": -0.2355641353,
				"z": 1.0865218896,
				"element": "C" 
			},
			{
				"x": -2.1820362542,
				"y": 0.7133230559,
				"z": 2.0282571431,
				"element": "F" 
			},
			{
				"x": -3.2391496084,
				"y": -0.5777310298,
				"z": 0.6364329819,
				"element": "F" 
			},
			{
				"x": -1.4874922886,
				"y": -1.3209074084,
				"z": 1.6915266728,
				"element": "F" 
			},
			{
				"x": 4.1750744496,
				"y": 0.2140079658,
				"z": -4.0319524035,
				"element": "H" 
			},
			{
				"x": 2.4059047741,
				"y": 0.3294155644,
				"z": -4.1813847661,
				"element": "H" 
			},
			{
				"x": 3.2697489144,
				"y": 1.383905584,
				"z": -3.0433325273,
				"element": "H" 
			},
			{
				"x": 2.172002864,
				"y": -1.5075875715,
				"z": -0.9159207403,
				"element": "H" 
			},
			{
				"x": 0.317164775,
				"y": -1.2649752119,
				"z": 0.2688746862,
				"element": "H" 
			},
			{
				"x": -0.9526863002,
				"y": 2.6759943396,
				"z": -2.4212418656,
				"element": "H" 
			},
			{
				"x": 1.1278453147,
				"y": 1.5182863822,
				"z": -2.927743239,
				"element": "H" 
			}
		],
		 "valence_orbital": [ 
			{
				"type": "occ",
				"energy": -0.33741,
				"method": "rhf"
			},
			{
				"type": "occ",
				"energy": -0.32489,
				"method": "rhf"
			},
			{
				"type": "occ",
				"energy": -0.30129,
				"method": "rhf"
			},
			{
				"type": "occ",
				"energy": -0.28286,
				"method": "rhf"
			},
			{
				"type": "occ",
				"energy": -0.25117,
				"method": "rhf"
			},
			{
				"type": "unocc",
				"energy": -0.07278,
				"method": "rhf"
			},
			{
				"type": "unocc",
				"energy": -0.05171,
				"method": "rhf"
			},
			{
				"type": "unocc",
				"energy": -0.00125,
				"method": "rhf"
			},
			{
				"type": "unocc",
				"energy": 0.02615,
				"method": "rhf"
			},
			{
				"type": "unocc",
				"energy": 0.05933,
				"method": "rhf"
			}
		],
		"cosmo_sigma_profile": { 
			"-0.025": 0.0,
			"-0.024": 0.0,
			"-0.023": 0.0,
			"-0.022": 0.0,
			"-0.021": 0.0,
			"-0.02": 0.0,
			"-0.019": 0.0,
			"-0.018": 0.0,
			"-0.017": 0.0,
			"-0.016": 0.440645260696,
			"-0.015": 1.41154564474,
			"-0.014": 1.43018179329,
			"-0.013": 0.795748797848,
			"-0.012": 1.14149693464,
			"-0.011": 1.10007478878,
			"-0.01": 1.23683583486,
			"-0.009": 3.44281473664,
			"-0.008": 8.67272731621,
			"-0.007": 12.5491286172,
			"-0.006": 8.63806671608,
			"-0.005": 8.98843475746,
			"-0.004": 12.6596733707,
			"-0.003": 13.7932720142,
			"-0.002": 17.4891582014,
			"-0.001": 23.4110039928,
			"0.0": 20.7295008612,
			"0.001": 16.086920715,
			"0.002": 28.519668993,
			"0.003": 13.9915709626,
			"0.004": 4.22918126321,
			"0.005": 4.30221186215,
			"0.006": 4.43060166865,
			"0.007": 3.74413230603,
			"0.008": 4.48132320178,
			"0.009": 4.22150582396,
			"0.01": 4.59788309925,
			"0.011": 5.08870561407,
			"0.012": 7.44065861383,
			"0.013": 3.90846248812,
			"0.014": 0.362271709761,
			"0.015": 0.0,
			"0.016": 0.0,
			"0.017": 0.0,
			"0.018": 0.0,
			"0.019": 0.0,
			"0.02": 0.0,
			"0.021": 0.0,
			"0.022": 0.0,
			"0.023": 0.0,
			"0.024": 0.0,
			"0.025": 0.0
		}
	}
}
