{
	 "smiles": "COC(=O)C(=O)CC(=O)C1=CC=CC=C1", 
	 "Tm": 332.15, 
	 "num_atms": 25, 
	 "gaussian": { 
		 "optdone": 1, 
		 "sigma_profile": "yes", 
		 "theory": "DFT", 
		 "functional": "B3LYP", 
		 "basiset": "6-31G**", 
		 "properties": { 
			 "R2extent": 5151.2914, 
			 "electric_dipole_moment_norm": 1.65954254842, 
			 "electric_quadrupole_moment_norm": 17.6681573349, 
			 "total_energy": -726.0792191, 
			 "HOMO_LUMO_gap": 0.17096, 
			 "cosmo_polarized_energy": -13.21, 
			 "cosmo_cavitation_energy": 30.78, 
			 "cosmo_dispersion_energy": -21.65, 
			 "cosmo_repulsion_energy": 1.71, 
			 "cosmo_total_nonelectrostatic_energy": 10.83, 
			 "SMD_solvation_energy": 8.13 
		},
		"coords": [
			{
				"x": -0.3346586306,
				"y": -3.8670861654,
				"z": 0.1263660496,
				"element": "C" 
			},
			{
				"x": -1.111661959,
				"y": -2.6622791644,
				"z": 0.2676035233,
				"element": "O" 
			},
			{
				"x": -0.5855442225,
				"y": -1.5768408032,
				"z": -0.3033558524,
				"element": "C" 
			},
			{
				"x": 0.4609551159,
				"y": -1.5374486421,
				"z": -0.9137687645,
				"element": "O" 
			},
			{
				"x": -1.5000135222,
				"y": -0.3437206897,
				"z": -0.123698451,
				"element": "C" 
			},
			{
				"x": -2.6753462832,
				"y": -0.4747659883,
				"z": 0.1410053853,
				"element": "O" 
			},
			{
				"x": -0.8125450109,
				"y": 0.9957351597,
				"z": -0.3240135568,
				"element": "C" 
			},
			{
				"x": -0.2658155182,
				"y": 1.5497075229,
				"z": 1.0130548259,
				"element": "C" 
			},
			{
				"x": 0.9001202653,
				"y": 1.348177771,
				"z": 1.3057770727,
				"element": "O" 
			},
			{
				"x": -1.1761268511,
				"y": 2.3274881338,
				"z": 1.9057248407,
				"element": "C" 
			},
			{
				"x": -0.5992567521,
				"y": 2.9848800538,
				"z": 3.0064285753,
				"element": "C" 
			},
			{
				"x": -1.3900343382,
				"y": 3.7296251413,
				"z": 3.8742719787,
				"element": "C" 
			},
			{
				"x": -2.7698366084,
				"y": 3.8166400637,
				"z": 3.6605941777,
				"element": "C" 
			},
			{
				"x": -3.3531534238,
				"y": 3.1550431032,
				"z": 2.5787812575,
				"element": "C" 
			},
			{
				"x": -2.5619948585,
				"y": 2.4165543599,
				"z": 1.6984826625,
				"element": "C" 
			},
			{
				"x": 0.6615850495,
				"y": -3.7292590874,
				"z": 0.5533165533,
				"element": "H" 
			},
			{
				"x": -0.23617076,
				"y": -4.1333049575,
				"z": -0.9288018538,
				"element": "H" 
			},
			{
				"x": -0.8857525157,
				"y": -4.6345294088,
				"z": 0.6679908745,
				"element": "H" 
			},
			{
				"x": -1.5335261876,
				"y": 1.6874608606,
				"z": -0.7637967823,
				"element": "H" 
			},
			{
				"x": 0.0498522433,
				"y": 0.8644074784,
				"z": -0.9775093589,
				"element": "H" 
			},
			{
				"x": 0.4717338716,
				"y": 2.8964553707,
				"z": 3.1544666346,
				"element": "H" 
			},
			{
				"x": -0.9363803167,
				"y": 4.2418209615,
				"z": 4.7176964579,
				"element": "H" 
			},
			{
				"x": -3.3886317647,
				"y": 4.3970888434,
				"z": 4.339115305,
				"element": "H" 
			},
			{
				"x": -4.4257929446,
				"y": 3.2117774974,
				"z": 2.4195865053,
				"element": "H" 
			},
			{
				"x": -3.0310040777,
				"y": 1.8822725855,
				"z": 0.8797819398,
				"element": "H" 
			}
		],
		 "valence_orbital": [ 
			{
				"type": "occ",
				"energy": -0.31794,
				"method": "rhf"
			},
			{
				"type": "occ",
				"energy": -0.26526,
				"method": "rhf"
			},
			{
				"type": "occ",
				"energy": -0.26434,
				"method": "rhf"
			},
			{
				"type": "occ",
				"energy": -0.26125,
				"method": "rhf"
			},
			{
				"type": "occ",
				"energy": -0.25557,
				"method": "rhf"
			},
			{
				"type": "unocc",
				"energy": -0.08461,
				"method": "rhf"
			},
			{
				"type": "unocc",
				"energy": -0.05969,
				"method": "rhf"
			},
			{
				"type": "unocc",
				"energy": -0.01194,
				"method": "rhf"
			},
			{
				"type": "unocc",
				"energy": 0.02855,
				"method": "rhf"
			},
			{
				"type": "unocc",
				"energy": 0.05335,
				"method": "rhf"
			}
		],
		"cosmo_sigma_profile": { 
			"-0.025": 0.0,
			"-0.024": 0.0,
			"-0.023": 0.0,
			"-0.022": 0.0,
			"-0.021": 0.0,
			"-0.02": 0.0,
			"-0.019": 0.0,
			"-0.018": 0.0,
			"-0.017": 0.0,
			"-0.016": 0.0,
			"-0.015": 0.0,
			"-0.014": 0.0,
			"-0.013": 0.0,
			"-0.012": 0.0,
			"-0.011": 0.0,
			"-0.01": 0.0373344402094,
			"-0.009": 0.756036214504,
			"-0.008": 3.25220505136,
			"-0.007": 11.0462282858,
			"-0.006": 22.4849747767,
			"-0.005": 25.7116189245,
			"-0.004": 23.4480293886,
			"-0.003": 16.8007012319,
			"-0.002": 12.0363372379,
			"-0.001": 11.7270794649,
			"0.0": 11.3179692284,
			"0.001": 13.8562694064,
			"0.002": 13.9941309432,
			"0.003": 17.2376506036,
			"0.004": 14.0797874063,
			"0.005": 5.91052987514,
			"0.006": 5.18616004076,
			"0.007": 5.87532765326,
			"0.008": 6.43793983131,
			"0.009": 7.78611422045,
			"0.01": 9.56890571715,
			"0.011": 6.42983919375,
			"0.012": 1.34527193457,
			"0.013": 0.0173745432242,
			"0.014": 0.0,
			"0.015": 0.0,
			"0.016": 0.0,
			"0.017": 0.0,
			"0.018": 0.0,
			"0.019": 0.0,
			"0.02": 0.0,
			"0.021": 0.0,
			"0.022": 0.0,
			"0.023": 0.0,
			"0.024": 0.0,
			"0.025": 0.0
		}
	}
}
