{
	 "smiles": "BrC1=CC=C(OC2=CC=C(Br)C=C2)C=C1", 
	 "Tm": 332.35, 
	 "num_atms": 23, 
	 "gaussian": { 
		 "optdone": 1, 
		 "sigma_profile": "yes", 
		 "theory": "DFT", 
		 "functional": "B3LYP", 
		 "basiset": "6-31G**", 
		 "properties": { 
			 "R2extent": 11012.7191, 
			 "electric_dipole_moment_norm": 0.539029915682, 
			 "electric_quadrupole_moment_norm": 9.83461524769, 
			 "total_energy": -5680.12013142, 
			 "HOMO_LUMO_gap": 0.19574, 
			 "cosmo_polarized_energy": -6.39, 
			 "cosmo_cavitation_energy": 32.67, 
			 "cosmo_dispersion_energy": -24.56, 
			 "cosmo_repulsion_energy": 1.93, 
			 "cosmo_total_nonelectrostatic_energy": 10.05, 
			 "SMD_solvation_energy": 3.43 
		},
		"coords": [
			{
				"x": 2.7448602623,
				"y": -3.4986589221,
				"z": 4.7604933597,
				"element": "Br" 
			},
			{
				"x": 2.3366391717,
				"y": -2.6243609324,
				"z": 3.1108253795,
				"element": "C" 
			},
			{
				"x": 2.6521426112,
				"y": -3.2481234458,
				"z": 1.9044066572,
				"element": "C" 
			},
			{
				"x": 2.3453450784,
				"y": -2.6114018282,
				"z": 0.7031699569,
				"element": "C" 
			},
			{
				"x": 1.7337670502,
				"y": -1.3560789061,
				"z": 0.7158777769,
				"element": "C" 
			},
			{
				"x": 1.5330250073,
				"y": -0.7529877038,
				"z": -0.5091770476,
				"element": "O" 
			},
			{
				"x": 0.4079525586,
				"y": 0.0100658922,
				"z": -0.7473597021,
				"element": "C" 
			},
			{
				"x": 0.5725423688,
				"y": 1.1300224025,
				"z": -1.5650705897,
				"element": "C" 
			},
			{
				"x": -0.5320911408,
				"y": 1.9046203119,
				"z": -1.914746275,
				"element": "C" 
			},
			{
				"x": -1.7938843473,
				"y": 1.5547186951,
				"z": -1.4356547619,
				"element": "C" 
			},
			{
				"x": -3.3098517539,
				"y": 2.6202692881,
				"z": -1.9033934313,
				"element": "Br" 
			},
			{
				"x": -1.9646365368,
				"y": 0.4365952825,
				"z": -0.6205123274,
				"element": "C" 
			},
			{
				"x": -0.8606419199,
				"y": -0.3435275632,
				"z": -0.2777457283,
				"element": "C" 
			},
			{
				"x": 1.4288189905,
				"y": -0.7292242484,
				"z": 1.9278853336,
				"element": "C" 
			},
			{
				"x": 1.7278569736,
				"y": -1.3702293489,
				"z": 3.1297783903,
				"element": "C" 
			},
			{
				"x": 3.1269872199,
				"y": -4.2225076322,
				"z": 1.9010983986,
				"element": "H" 
			},
			{
				"x": 2.5785187203,
				"y": -3.0743636095,
				"z": -0.2497261772,
				"element": "H" 
			},
			{
				"x": 1.5656791611,
				"y": 1.3800462878,
				"z": -1.9226746186,
				"element": "H" 
			},
			{
				"x": -0.4108329534,
				"y": 2.774978218,
				"z": -2.5493215232,
				"element": "H" 
			},
			{
				"x": -2.9520825466,
				"y": 0.1695094228,
				"z": -0.2616786984,
				"element": "H" 
			},
			{
				"x": -0.9872767371,
				"y": -1.2215461028,
				"z": 0.345993989,
				"element": "H" 
			},
			{
				"x": 0.9662471125,
				"y": 0.2515939624,
				"z": 1.9346048326,
				"element": "H" 
			},
			{
				"x": 1.4957156496,
				"y": -0.8914095202,
				"z": 4.0742268063,
				"element": "H" 
			}
		],
		 "valence_orbital": [ 
			{
				"type": "occ",
				"energy": -0.29017,
				"method": "rhf"
			},
			{
				"type": "occ",
				"energy": -0.2751,
				"method": "rhf"
			},
			{
				"type": "occ",
				"energy": -0.27067,
				"method": "rhf"
			},
			{
				"type": "occ",
				"energy": -0.248,
				"method": "rhf"
			},
			{
				"type": "occ",
				"energy": -0.22484,
				"method": "rhf"
			},
			{
				"type": "unocc",
				"energy": -0.0291,
				"method": "rhf"
			},
			{
				"type": "unocc",
				"energy": -0.02325,
				"method": "rhf"
			},
			{
				"type": "unocc",
				"energy": -0.01701,
				"method": "rhf"
			},
			{
				"type": "unocc",
				"energy": -0.00645,
				"method": "rhf"
			},
			{
				"type": "unocc",
				"energy": 0.00416,
				"method": "rhf"
			}
		],
		"cosmo_sigma_profile": { 
			"-0.025": 0.0,
			"-0.024": 0.0,
			"-0.023": 0.0,
			"-0.022": 0.0,
			"-0.021": 0.0,
			"-0.02": 0.0,
			"-0.019": 0.0,
			"-0.018": 0.0,
			"-0.017": 0.0,
			"-0.016": 0.0,
			"-0.015": 0.0,
			"-0.014": 0.0,
			"-0.013": 0.0,
			"-0.012": 0.0,
			"-0.011": 0.0,
			"-0.01": 0.0,
			"-0.009": 0.0,
			"-0.008": 1.56464087996,
			"-0.007": 14.0879904462,
			"-0.006": 13.3951829095,
			"-0.005": 15.0282156649,
			"-0.004": 15.2048178783,
			"-0.003": 14.5104501436,
			"-0.002": 16.3636854138,
			"-0.001": 15.4152156079,
			"0.0": 20.7916460252,
			"0.001": 23.4307718014,
			"0.002": 38.0603464857,
			"0.003": 38.2513143679,
			"0.004": 24.7435677487,
			"0.005": 15.4061152307,
			"0.006": 1.05244470443,
			"0.007": 1.28537753558,
			"0.008": 1.07680396459,
			"0.009": 0.190465943547,
			"0.01": 0.0,
			"0.011": 0.0,
			"0.012": 0.0,
			"0.013": 0.0,
			"0.014": 0.0,
			"0.015": 0.0,
			"0.016": 0.0,
			"0.017": 0.0,
			"0.018": 0.0,
			"0.019": 0.0,
			"0.02": 0.0,
			"0.021": 0.0,
			"0.022": 0.0,
			"0.023": 0.0,
			"0.024": 0.0,
			"0.025": 0.0
		}
	}
}
