{
	 "smiles": "COC(=O)C1=C(C)NC(=S)NC1C1=CC=C(C=C1)[N+]([O-])=O", 
	 "Tm": 448.15, 
	 "num_atms": 34, 
	 "gaussian": { 
		 "optdone": 1, 
		 "sigma_profile": "yes", 
		 "theory": "DFT", 
		 "functional": "B3LYP", 
		 "basiset": "6-31G**", 
		 "properties": { 
			 "R2extent": 8123.6637, 
			 "electric_dipole_moment_norm": 6.94832898617, 
			 "electric_quadrupole_moment_norm": 23.9778919593, 
			 "total_energy": -1366.48013779, 
			 "HOMO_LUMO_gap": 0.13667, 
			 "cosmo_polarized_energy": -22.0, 
			 "cosmo_cavitation_energy": 40.23, 
			 "cosmo_dispersion_energy": -28.62, 
			 "cosmo_repulsion_energy": 2.15, 
			 "cosmo_total_nonelectrostatic_energy": 13.77, 
			 "SMD_solvation_energy": 8.76 
		},
		"coords": [
			{
				"x": 0.0464617785,
				"y": -2.5836787894,
				"z": 3.2264790549,
				"element": "C" 
			},
			{
				"x": 0.7078164428,
				"y": -1.8798628791,
				"z": 2.1607916208,
				"element": "O" 
			},
			{
				"x": -0.0390920011,
				"y": -1.690673302,
				"z": 1.046769943,
				"element": "C" 
			},
			{
				"x": -1.187979112,
				"y": -2.101036205,
				"z": 0.9585817616,
				"element": "O" 
			},
			{
				"x": 0.6490975215,
				"y": -0.9846618294,
				"z": -0.0410189925,
				"element": "C" 
			},
			{
				"x": 1.9441759524,
				"y": -0.5609052073,
				"z": -0.0348536754,
				"element": "C" 
			},
			{
				"x": 2.9170044616,
				"y": -0.5845465376,
				"z": 1.1153688884,
				"element": "C" 
			},
			{
				"x": 2.4818507729,
				"y": -0.0685483758,
				"z": -1.2157070712,
				"element": "N" 
			},
			{
				"x": 1.9400878389,
				"y": -0.2626621683,
				"z": -2.473311803,
				"element": "C" 
			},
			{
				"x": 2.8152425979,
				"y": 0.0818487803,
				"z": -3.8563951701,
				"element": "S" 
			},
			{
				"x": 0.6868964881,
				"y": -0.7643114927,
				"z": -2.463156729,
				"element": "N" 
			},
			{
				"x": -0.1947398867,
				"y": -0.7600227159,
				"z": -1.293141554,
				"element": "C" 
			},
			{
				"x": -1.0499341813,
				"y": 0.5134051307,
				"z": -1.2055971625,
				"element": "C" 
			},
			{
				"x": -2.2720698441,
				"y": 0.4700287682,
				"z": -0.514205678,
				"element": "C" 
			},
			{
				"x": -3.0633268489,
				"y": 1.6080089471,
				"z": -0.3965155302,
				"element": "C" 
			},
			{
				"x": -2.624105956,
				"y": 2.7942536879,
				"z": -0.981868456,
				"element": "C" 
			},
			{
				"x": -1.4229162115,
				"y": 2.8664829657,
				"z": -1.6819331608,
				"element": "C" 
			},
			{
				"x": -0.640006326,
				"y": 1.7193934601,
				"z": -1.7921958481,
				"element": "C" 
			},
			{
				"x": -3.4555105079,
				"y": 4.0018894424,
				"z": -0.8626443207,
				"element": "N" 
			},
			{
				"x": -3.0417406831,
				"y": 5.0347604926,
				"z": -1.3888054462,
				"element": "O" 
			},
			{
				"x": -4.5142117842,
				"y": 3.9071164514,
				"z": -0.2420299632,
				"element": "O" 
			},
			{
				"x": -0.2477414884,
				"y": -3.5844686416,
				"z": 2.9019450501,
				"element": "H" 
			},
			{
				"x": -0.8449537755,
				"y": -2.0420406572,
				"z": 3.551323088,
				"element": "H" 
			},
			{
				"x": 0.7761607143,
				"y": -2.6413204955,
				"z": 4.0340352347,
				"element": "H" 
			},
			{
				"x": 3.2737946237,
				"y": -1.6027615104,
				"z": 1.2980036293,
				"element": "H" 
			},
			{
				"x": 3.7824348059,
				"y": 0.0470430962,
				"z": 0.8946008114,
				"element": "H" 
			},
			{
				"x": 2.4492056442,
				"y": -0.2377789051,
				"z": 2.035348571,
				"element": "H" 
			},
			{
				"x": 3.4371543862,
				"y": 0.2600174544,
				"z": -1.2257746425,
				"element": "H" 
			},
			{
				"x": 0.273968819,
				"y": -0.8900419227,
				"z": -3.3772167119,
				"element": "H" 
			},
			{
				"x": -0.8744066215,
				"y": -1.6107797791,
				"z": -1.3887021958,
				"element": "H" 
			},
			{
				"x": -2.5901251484,
				"y": -0.4614116955,
				"z": -0.0588948935,
				"element": "H" 
			},
			{
				"x": -4.008800275,
				"y": 1.5919651689,
				"z": 0.1310699897,
				"element": "H" 
			},
			{
				"x": -1.1217233119,
				"y": 3.8051867996,
				"z": -2.1297891126,
				"element": "H" 
			},
			{
				"x": 0.2856311154,
				"y": 1.7721124641,
				"z": -2.3549595258,
				"element": "H" 
			}
		],
		 "valence_orbital": [ 
			{
				"type": "occ",
				"energy": -0.27804,
				"method": "rhf"
			},
			{
				"type": "occ",
				"energy": -0.27606,
				"method": "rhf"
			},
			{
				"type": "occ",
				"energy": -0.25695,
				"method": "rhf"
			},
			{
				"type": "occ",
				"energy": -0.23263,
				"method": "rhf"
			},
			{
				"type": "occ",
				"energy": -0.22617,
				"method": "rhf"
			},
			{
				"type": "unocc",
				"energy": -0.0895,
				"method": "rhf"
			},
			{
				"type": "unocc",
				"energy": -0.06761,
				"method": "rhf"
			},
			{
				"type": "unocc",
				"energy": -0.02817,
				"method": "rhf"
			},
			{
				"type": "unocc",
				"energy": -0.00579,
				"method": "rhf"
			},
			{
				"type": "unocc",
				"energy": 0.00122,
				"method": "rhf"
			}
		],
		"cosmo_sigma_profile": { 
			"-0.025": 0.0,
			"-0.024": 0.0,
			"-0.023": 0.0,
			"-0.022": 0.0,
			"-0.021": 0.0,
			"-0.02": 0.0,
			"-0.019": 0.0,
			"-0.018": 0.0,
			"-0.017": 0.0,
			"-0.016": 0.753264615364,
			"-0.015": 2.21960060797,
			"-0.014": 2.38743588627,
			"-0.013": 1.53285850897,
			"-0.012": 2.67944255845,
			"-0.011": 1.56295566351,
			"-0.01": 3.05915188966,
			"-0.009": 2.01858024062,
			"-0.008": 3.42700268705,
			"-0.007": 6.60754188376,
			"-0.006": 15.9547347925,
			"-0.005": 20.9171031039,
			"-0.004": 22.7392410086,
			"-0.003": 28.064619898,
			"-0.002": 27.7285140383,
			"-0.001": 27.2363943436,
			"0.0": 22.0107214518,
			"0.001": 21.4707097581,
			"0.002": 20.2056017399,
			"0.003": 9.79969607656,
			"0.004": 7.52035083784,
			"0.005": 6.74321226498,
			"0.006": 8.39911373046,
			"0.007": 12.1862227453,
			"0.008": 14.4846462758,
			"0.009": 12.3147461193,
			"0.01": 10.6759671307,
			"0.011": 6.06313260616,
			"0.012": 2.67290854569,
			"0.013": 0.399908865025,
			"0.014": 0.0,
			"0.015": 0.0,
			"0.016": 0.0,
			"0.017": 0.0,
			"0.018": 0.0,
			"0.019": 0.0,
			"0.02": 0.0,
			"0.021": 0.0,
			"0.022": 0.0,
			"0.023": 0.0,
			"0.024": 0.0,
			"0.025": 0.0
		}
	}
}
