{
	 "smiles": "CN1C(=O)COC2=CC=CC=C12", 
	 "Tm": 332.15, 
	 "num_atms": 21, 
	 "gaussian": { 
		 "optdone": 1, 
		 "sigma_profile": "yes", 
		 "theory": "DFT", 
		 "functional": "B3LYP", 
		 "basiset": "6-31G**", 
		 "properties": { 
			 "R2extent": 2161.9305, 
			 "electric_dipole_moment_norm": 2.52363786031, 
			 "electric_quadrupole_moment_norm": 10.3976943689, 
			 "total_energy": -553.584163981, 
			 "HOMO_LUMO_gap": 0.19779, 
			 "cosmo_polarized_energy": -9.18, 
			 "cosmo_cavitation_energy": 24.06, 
			 "cosmo_dispersion_energy": -18.28, 
			 "cosmo_repulsion_energy": 1.43, 
			 "cosmo_total_nonelectrostatic_energy": 7.21, 
			 "SMD_solvation_energy": 4.97 
		},
		"coords": [
			{
				"x": -1.5629109161,
				"y": -1.1682688518,
				"z": -1.8830581507,
				"element": "C" 
			},
			{
				"x": -1.5202345361,
				"y": -0.2649782933,
				"z": -0.7377177866,
				"element": "N" 
			},
			{
				"x": -2.6775342027,
				"y": -0.0598138982,
				"z": -0.0170709794,
				"element": "C" 
			},
			{
				"x": -3.7492847563,
				"y": -0.5824428945,
				"z": -0.2865723588,
				"element": "O" 
			},
			{
				"x": -2.5228346278,
				"y": 0.837991764,
				"z": 1.2042777537,
				"element": "C" 
			},
			{
				"x": -1.5455330644,
				"y": 1.8627988091,
				"z": 1.0497460669,
				"element": "O" 
			},
			{
				"x": -0.3454154657,
				"y": 1.4214476405,
				"z": 0.556568725,
				"element": "C" 
			},
			{
				"x": 0.8190630252,
				"y": 2.0875956806,
				"z": 0.9240252307,
				"element": "C" 
			},
			{
				"x": 2.0479231953,
				"y": 1.6868703487,
				"z": 0.3962534004,
				"element": "C" 
			},
			{
				"x": 2.1039763719,
				"y": 0.6104741615,
				"z": -0.4879184851,
				"element": "C" 
			},
			{
				"x": 0.9357425855,
				"y": -0.0598475273,
				"z": -0.8580060804,
				"element": "C" 
			},
			{
				"x": -0.3033122609,
				"y": 0.3420099214,
				"z": -0.3466095567,
				"element": "C" 
			},
			{
				"x": -1.1197812673,
				"y": -0.6866145626,
				"z": -2.7594718281,
				"element": "H" 
			},
			{
				"x": -1.0224185265,
				"y": -2.098457235,
				"z": -1.6748253152,
				"element": "H" 
			},
			{
				"x": -2.6090369902,
				"y": -1.4017748978,
				"z": -2.0734100273,
				"element": "H" 
			},
			{
				"x": -3.4788031202,
				"y": 1.3290606431,
				"z": 1.3847195425,
				"element": "H" 
			},
			{
				"x": -2.2824042301,
				"y": 0.206195895,
				"z": 2.0742283429,
				"element": "H" 
			},
			{
				"x": 0.7383962934,
				"y": 2.9188821628,
				"z": 1.6166329133,
				"element": "H" 
			},
			{
				"x": 2.9543731577,
				"y": 2.2101460862,
				"z": 0.6837673047,
				"element": "H" 
			},
			{
				"x": 3.0553917346,
				"y": 0.2865214058,
				"z": -0.8978453527,
				"element": "H" 
			},
			{
				"x": 0.9909376009,
				"y": -0.8910963582,
				"z": -1.551213359,
				"element": "H" 
			}
		],
		 "valence_orbital": [ 
			{
				"type": "occ",
				"energy": -0.32613,
				"method": "rhf"
			},
			{
				"type": "occ",
				"energy": -0.30331,
				"method": "rhf"
			},
			{
				"type": "occ",
				"energy": -0.26204,
				"method": "rhf"
			},
			{
				"type": "occ",
				"energy": -0.2419,
				"method": "rhf"
			},
			{
				"type": "occ",
				"energy": -0.21446,
				"method": "rhf"
			},
			{
				"type": "unocc",
				"energy": -0.01667,
				"method": "rhf"
			},
			{
				"type": "unocc",
				"energy": -0.00295,
				"method": "rhf"
			},
			{
				"type": "unocc",
				"energy": 0.02766,
				"method": "rhf"
			},
			{
				"type": "unocc",
				"energy": 0.08252,
				"method": "rhf"
			},
			{
				"type": "unocc",
				"energy": 0.10853,
				"method": "rhf"
			}
		],
		"cosmo_sigma_profile": { 
			"-0.025": 0.0,
			"-0.024": 0.0,
			"-0.023": 0.0,
			"-0.022": 0.0,
			"-0.021": 0.0,
			"-0.02": 0.0,
			"-0.019": 0.0,
			"-0.018": 0.0,
			"-0.017": 0.0,
			"-0.016": 0.0,
			"-0.015": 0.0,
			"-0.014": 0.0,
			"-0.013": 0.0,
			"-0.012": 0.0,
			"-0.011": 0.0,
			"-0.01": 0.0,
			"-0.009": 0.0,
			"-0.008": 1.87006725625,
			"-0.007": 6.70399612918,
			"-0.006": 14.8033344826,
			"-0.005": 17.4117831203,
			"-0.004": 18.5161287685,
			"-0.003": 17.124761176,
			"-0.002": 16.0887003523,
			"-0.001": 11.2491371461,
			"0.0": 9.85912678912,
			"0.001": 9.3387274017,
			"0.002": 10.0812543878,
			"0.003": 10.989026659,
			"0.004": 12.1341271959,
			"0.005": 10.2569591509,
			"0.006": 4.90280053227,
			"0.007": 2.42723769057,
			"0.008": 2.57770518693,
			"0.009": 2.59521018574,
			"0.01": 2.89673944432,
			"0.011": 2.0243351281,
			"0.012": 3.7567428965,
			"0.013": 3.73772311552,
			"0.014": 0.544741000569,
			"0.015": 0.0,
			"0.016": 0.0,
			"0.017": 0.0,
			"0.018": 0.0,
			"0.019": 0.0,
			"0.02": 0.0,
			"0.021": 0.0,
			"0.022": 0.0,
			"0.023": 0.0,
			"0.024": 0.0,
			"0.025": 0.0
		}
	}
}
