{
	 "smiles": "CC(=O)C1=C(C)C(=C(C(=C1C)N(=O)=O)C(C)(C)C)N(=O)=O", 
	 "Tm": 409.15, 
	 "num_atms": 39, 
	 "gaussian": { 
		 "optdone": 1, 
		 "sigma_profile": "yes", 
		 "theory": "DFT", 
		 "functional": "B3LYP", 
		 "basiset": "6-31G**", 
		 "properties": { 
			 "R2extent": 6187.4721, 
			 "electric_dipole_moment_norm": 3.044373934, 
			 "electric_quadrupole_moment_norm": 15.6926161538, 
			 "total_energy": -1029.74282219, 
			 "HOMO_LUMO_gap": 0.17319, 
			 "cosmo_polarized_energy": -13.03, 
			 "cosmo_cavitation_energy": 40.33, 
			 "cosmo_dispersion_energy": -26.9, 
			 "cosmo_repulsion_energy": 1.99, 
			 "cosmo_total_nonelectrostatic_energy": 15.42, 
			 "SMD_solvation_energy": 11.83 
		},
		"coords": [
			{
				"x": -3.1466933998,
				"y": -2.5940552846,
				"z": -3.0543621853,
				"element": "C" 
			},
			{
				"x": -1.6486833914,
				"y": -2.3943388237,
				"z": -3.1471894077,
				"element": "C" 
			},
			{
				"x": -0.9887827768,
				"y": -2.7964238296,
				"z": -4.0849223705,
				"element": "O" 
			},
			{
				"x": -0.9966208553,
				"y": -1.6497881033,
				"z": -1.9901737734,
				"element": "C" 
			},
			{
				"x": -0.5267804494,
				"y": -2.3655911594,
				"z": -0.8825335438,
				"element": "C" 
			},
			{
				"x": -0.6226269666,
				"y": -3.875793074,
				"z": -0.8235143551,
				"element": "C" 
			},
			{
				"x": 0.0479410617,
				"y": -1.6371102363,
				"z": 0.1691652535,
				"element": "C" 
			},
			{
				"x": 0.1923258737,
				"y": -0.235829582,
				"z": 0.2227370038,
				"element": "C" 
			},
			{
				"x": -0.2633705627,
				"y": 0.3869664599,
				"z": -0.9569939405,
				"element": "C" 
			},
			{
				"x": -0.8499770561,
				"y": -0.258965264,
				"z": -2.0551530773,
				"element": "C" 
			},
			{
				"x": -1.2987357903,
				"y": 0.5240845319,
				"z": -3.2711756236,
				"element": "C" 
			},
			{
				"x": -0.1048940254,
				"y": 1.8455650689,
				"z": -1.166934491,
				"element": "N" 
			},
			{
				"x": 1.0192199748,
				"y": 2.2520154396,
				"z": -1.4520259085,
				"element": "O" 
			},
			{
				"x": -1.1150718019,
				"y": 2.538070047,
				"z": -1.10449262,
				"element": "O" 
			},
			{
				"x": 0.8228873787,
				"y": 0.533359233,
				"z": 1.431015649,
				"element": "C" 
			},
			{
				"x": 2.3498372096,
				"y": 0.6367814527,
				"z": 1.1915463047,
				"element": "C" 
			},
			{
				"x": 0.5661635271,
				"y": -0.1710321559,
				"z": 2.7918600227,
				"element": "C" 
			},
			{
				"x": 0.235832727,
				"y": 1.9611822473,
				"z": 1.6066395094,
				"element": "C" 
			},
			{
				"x": 0.5652297858,
				"y": -2.5057103922,
				"z": 1.2529004225,
				"element": "N" 
			},
			{
				"x": -0.2566736199,
				"y": -3.0336029874,
				"z": 1.9943538816,
				"element": "O" 
			},
			{
				"x": 1.7798578601,
				"y": -2.6876784566,
				"z": 1.2938340033,
				"element": "O" 
			},
			{
				"x": -3.652100963,
				"y": -1.6235928483,
				"z": -2.9869034407,
				"element": "H" 
			},
			{
				"x": -3.5051311313,
				"y": -3.1408034222,
				"z": -3.9281468623,
				"element": "H" 
			},
			{
				"x": -3.3998581475,
				"y": -3.1417550575,
				"z": -2.1392911322,
				"element": "H" 
			},
			{
				"x": 0.3191592451,
				"y": -4.3169305185,
				"z": -0.4846311302,
				"element": "H" 
			},
			{
				"x": -0.8369842859,
				"y": -4.2945360172,
				"z": -1.806903114,
				"element": "H" 
			},
			{
				"x": -1.4006205602,
				"y": -4.195698921,
				"z": -0.1235099638,
				"element": "H" 
			},
			{
				"x": -1.4787231906,
				"y": -0.1365149663,
				"z": -4.1192788358,
				"element": "H" 
			},
			{
				"x": -2.2110442038,
				"y": 1.0909454689,
				"z": -3.0615757418,
				"element": "H" 
			},
			{
				"x": -0.5344769825,
				"y": 1.2431296997,
				"z": -3.5799727504,
				"element": "H" 
			},
			{
				"x": 2.8146117742,
				"y": 1.1732968628,
				"z": 2.0259502915,
				"element": "H" 
			},
			{
				"x": 2.8029547552,
				"y": -0.3553340852,
				"z": 1.1252305604,
				"element": "H" 
			},
			{
				"x": 2.5645065655,
				"y": 1.1822035967,
				"z": 0.2693677353,
				"element": "H" 
			},
			{
				"x": -0.4886027681,
				"y": -0.423811141,
				"z": 2.9320171526,
				"element": "H" 
			},
			{
				"x": 0.8477887511,
				"y": 0.5222807153,
				"z": 3.588302608,
				"element": "H" 
			},
			{
				"x": 1.1693597901,
				"y": -1.0640637228,
				"z": 2.9433679273,
				"element": "H" 
			},
			{
				"x": -0.8578146924,
				"y": 1.9594275025,
				"z": 1.6067233306,
				"element": "H" 
			},
			{
				"x": 0.5651172988,
				"y": 2.3437709392,
				"z": 2.5759290059,
				"element": "H" 
			},
			{
				"x": 0.5905740427,
				"y": 2.6747807834,
				"z": 0.8655436058,
				"element": "H" 
			}
		],
		 "valence_orbital": [ 
			{
				"type": "occ",
				"energy": -0.31527,
				"method": "rhf"
			},
			{
				"type": "occ",
				"energy": -0.31283,
				"method": "rhf"
			},
			{
				"type": "occ",
				"energy": -0.27865,
				"method": "rhf"
			},
			{
				"type": "occ",
				"energy": -0.26965,
				"method": "rhf"
			},
			{
				"type": "occ",
				"energy": -0.26679,
				"method": "rhf"
			},
			{
				"type": "unocc",
				"energy": -0.0936,
				"method": "rhf"
			},
			{
				"type": "unocc",
				"energy": -0.08937,
				"method": "rhf"
			},
			{
				"type": "unocc",
				"energy": -0.04437,
				"method": "rhf"
			},
			{
				"type": "unocc",
				"energy": -0.04329,
				"method": "rhf"
			},
			{
				"type": "unocc",
				"energy": -0.04049,
				"method": "rhf"
			}
		],
		"cosmo_sigma_profile": { 
			"-0.025": 0.0,
			"-0.024": 0.0,
			"-0.023": 0.0,
			"-0.022": 0.0,
			"-0.021": 0.0,
			"-0.02": 0.0,
			"-0.019": 0.0,
			"-0.018": 0.0,
			"-0.017": 0.0,
			"-0.016": 0.0,
			"-0.015": 0.0,
			"-0.014": 0.0,
			"-0.013": 0.0,
			"-0.012": 0.0,
			"-0.011": 0.0,
			"-0.01": 0.0,
			"-0.009": 0.0,
			"-0.008": 0.0,
			"-0.007": 2.02721591102,
			"-0.006": 16.6690760473,
			"-0.005": 24.3379595707,
			"-0.004": 29.1053549234,
			"-0.003": 30.3189266875,
			"-0.002": 36.0176241497,
			"-0.001": 38.8056057478,
			"0.0": 34.7274586451,
			"0.001": 17.1393752508,
			"0.002": 9.79609161477,
			"0.003": 7.72268208081,
			"0.004": 7.8795300653,
			"0.005": 8.3423958115,
			"0.006": 14.9349170833,
			"0.007": 15.9300931369,
			"0.008": 9.53140432085,
			"0.009": 5.17535773369,
			"0.01": 3.59025905426,
			"0.011": 3.91952917695,
			"0.012": 1.29925299737,
			"0.013": 0.0,
			"0.014": 0.0,
			"0.015": 0.0,
			"0.016": 0.0,
			"0.017": 0.0,
			"0.018": 0.0,
			"0.019": 0.0,
			"0.02": 0.0,
			"0.021": 0.0,
			"0.022": 0.0,
			"0.023": 0.0,
			"0.024": 0.0,
			"0.025": 0.0
		}
	}
}
