{
	 "smiles": "CC(C)(C)OC(=O)NCC(C)(C)N", 
	 "Tm": 342.15, 
	 "num_atms": 33, 
	 "gaussian": { 
		 "optdone": 1, 
		 "sigma_profile": "yes", 
		 "theory": "DFT", 
		 "functional": "B3LYP", 
		 "basiset": "6-31G**", 
		 "properties": { 
			 "R2extent": 4239.007, 
			 "electric_dipole_moment_norm": 2.89940788093, 
			 "electric_quadrupole_moment_norm": 8.10923041725, 
			 "total_energy": -615.014544494, 
			 "HOMO_LUMO_gap": 0.29763, 
			 "cosmo_polarized_energy": -10.73, 
			 "cosmo_cavitation_energy": 33.91, 
			 "cosmo_dispersion_energy": -23.32, 
			 "cosmo_repulsion_energy": 1.88, 
			 "cosmo_total_nonelectrostatic_energy": 12.48, 
			 "SMD_solvation_energy": 6.05 
		},
		"coords": [
			{
				"x": 1.1913375266,
				"y": 0.6671526087,
				"z": -4.7361047137,
				"element": "C" 
			},
			{
				"x": 1.2611541204,
				"y": 1.3499901243,
				"z": -3.3670418822,
				"element": "C" 
			},
			{
				"x": 0.3823244053,
				"y": 2.6059747282,
				"z": -3.3428967299,
				"element": "C" 
			},
			{
				"x": 2.7150262548,
				"y": 1.6546450999,
				"z": -2.9874064471,
				"element": "C" 
			},
			{
				"x": 0.7081311673,
				"y": 0.327903334,
				"z": -2.4717861218,
				"element": "O" 
			},
			{
				"x": 0.5889382886,
				"y": 0.5612302346,
				"z": -1.1371771696,
				"element": "C" 
			},
			{
				"x": 0.925199595,
				"y": 1.5810023697,
				"z": -0.5516476849,
				"element": "O" 
			},
			{
				"x": 0.0179888562,
				"y": -0.5241762244,
				"z": -0.5426285481,
				"element": "N" 
			},
			{
				"x": -0.1137562662,
				"y": -0.6491914019,
				"z": 0.8926944564,
				"element": "C" 
			},
			{
				"x": 0.4960174541,
				"y": -1.9710726046,
				"z": 1.4169843537,
				"element": "C" 
			},
			{
				"x": 0.2227999028,
				"y": -2.0802733472,
				"z": 2.9286349323,
				"element": "C" 
			},
			{
				"x": 2.0060517603,
				"y": -2.0198105398,
				"z": 1.1459269596,
				"element": "C" 
			},
			{
				"x": -0.1384987318,
				"y": -3.0610760847,
				"z": 0.641863296,
				"element": "N" 
			},
			{
				"x": 0.1576745472,
				"y": 0.4118990443,
				"z": -4.9873788233,
				"element": "H" 
			},
			{
				"x": 1.5825670064,
				"y": 1.3337047451,
				"z": -5.5106443697,
				"element": "H" 
			},
			{
				"x": 1.7831320956,
				"y": -0.2529843428,
				"z": -4.7388237571,
				"element": "H" 
			},
			{
				"x": -0.6543962629,
				"y": 2.3473214686,
				"z": -3.581269398,
				"element": "H" 
			},
			{
				"x": 0.7362529136,
				"y": 3.3190560381,
				"z": -4.0948521438,
				"element": "H" 
			},
			{
				"x": 0.4115087741,
				"y": 3.0816585697,
				"z": -2.3624063488,
				"element": "H" 
			},
			{
				"x": 3.1560417427,
				"y": 2.3318434183,
				"z": -3.7264072135,
				"element": "H" 
			},
			{
				"x": 2.7695994712,
				"y": 2.1201361002,
				"z": -2.0031559364,
				"element": "H" 
			},
			{
				"x": 3.3050588955,
				"y": 0.7324271806,
				"z": -2.9775387055,
				"element": "H" 
			},
			{
				"x": -0.1231421221,
				"y": -1.365151247,
				"z": -1.0859988996,
				"element": "H" 
			},
			{
				"x": -1.1759993024,
				"y": -0.6160286237,
				"z": 1.1814410921,
				"element": "H" 
			},
			{
				"x": 0.3739669524,
				"y": 0.2153427984,
				"z": 1.3487095421,
				"element": "H" 
			},
			{
				"x": 0.6203521117,
				"y": -3.0210524569,
				"z": 3.3251539852,
				"element": "H" 
			},
			{
				"x": 0.6884066197,
				"y": -1.2585593663,
				"z": 3.4846278751,
				"element": "H" 
			},
			{
				"x": -0.8537276037,
				"y": -2.0555773854,
				"z": 3.1358935658,
				"element": "H" 
			},
			{
				"x": 2.2116797562,
				"y": -1.9405880197,
				"z": 0.0756948601,
				"element": "H" 
			},
			{
				"x": 2.4328579373,
				"y": -2.9627263545,
				"z": 1.5078532984,
				"element": "H" 
			},
			{
				"x": 2.5198148972,
				"y": -1.2012980218,
				"z": 1.6587570074,
				"element": "H" 
			},
			{
				"x": -1.1059954082,
				"y": -3.1763841233,
				"z": 0.940880494,
				"element": "H" 
			},
			{
				"x": 0.3268326452,
				"y": -3.9441377185,
				"z": 0.8413491747,
				"element": "H" 
			}
		],
		 "valence_orbital": [ 
			{
				"type": "occ",
				"energy": -0.32203,
				"method": "rhf"
			},
			{
				"type": "occ",
				"energy": -0.27578,
				"method": "rhf"
			},
			{
				"type": "occ",
				"energy": -0.25491,
				"method": "rhf"
			},
			{
				"type": "occ",
				"energy": -0.2466,
				"method": "rhf"
			},
			{
				"type": "occ",
				"energy": -0.23646,
				"method": "rhf"
			},
			{
				"type": "unocc",
				"energy": 0.06117,
				"method": "rhf"
			},
			{
				"type": "unocc",
				"energy": 0.07056,
				"method": "rhf"
			},
			{
				"type": "unocc",
				"energy": 0.09427,
				"method": "rhf"
			},
			{
				"type": "unocc",
				"energy": 0.11094,
				"method": "rhf"
			},
			{
				"type": "unocc",
				"energy": 0.1211,
				"method": "rhf"
			}
		],
		"cosmo_sigma_profile": { 
			"-0.025": 0.0,
			"-0.024": 0.0,
			"-0.023": 0.0,
			"-0.022": 0.0,
			"-0.021": 0.0,
			"-0.02": 0.0,
			"-0.019": 0.0,
			"-0.018": 0.0,
			"-0.017": 0.0,
			"-0.016": 0.0,
			"-0.015": 0.0,
			"-0.014": 0.0,
			"-0.013": 0.0,
			"-0.012": 0.0,
			"-0.011": 0.0,
			"-0.01": 0.516669288621,
			"-0.009": 3.0469989476,
			"-0.008": 3.74799320967,
			"-0.007": 4.13289561096,
			"-0.006": 4.47251210739,
			"-0.005": 3.3616887255,
			"-0.004": 16.0372811068,
			"-0.003": 34.8103516485,
			"-0.002": 28.2998359732,
			"-0.001": 32.2737281682,
			"0.0": 34.2375375943,
			"0.001": 37.7817923627,
			"0.002": 12.3604484172,
			"0.003": 6.85393871955,
			"0.004": 7.11153521822,
			"0.005": 4.9346048167,
			"0.006": 4.66289694574,
			"0.007": 4.35804913094,
			"0.008": 4.66085455961,
			"0.009": 1.40527489069,
			"0.01": 1.65227154698,
			"0.011": 2.32535652741,
			"0.012": 2.05126619871,
			"0.013": 3.0047918287,
			"0.014": 3.04710551724,
			"0.015": 0.0414873768371,
			"0.016": 0.0,
			"0.017": 0.0,
			"0.018": 0.0,
			"0.019": 0.0,
			"0.02": 0.0,
			"0.021": 0.0,
			"0.022": 0.0,
			"0.023": 0.0,
			"0.024": 0.0,
			"0.025": 0.0
		}
	}
}
