{
	 "smiles": "CCCC1=NN=NN1", 
	 "Tm": 337.15, 
	 "num_atms": 16, 
	 "gaussian": { 
		 "optdone": 1, 
		 "sigma_profile": "yes", 
		 "theory": "DFT", 
		 "functional": "B3LYP", 
		 "basiset": "6-31G**", 
		 "properties": { 
			 "R2extent": 2018.2962, 
			 "electric_dipole_moment_norm": 5.73065092812, 
			 "electric_quadrupole_moment_norm": 19.5047012028, 
			 "total_energy": -376.207427385, 
			 "HOMO_LUMO_gap": 0.26645, 
			 "cosmo_polarized_energy": -17.26, 
			 "cosmo_cavitation_energy": 19.84, 
			 "cosmo_dispersion_energy": -14.43, 
			 "cosmo_repulsion_energy": 1.22, 
			 "cosmo_total_nonelectrostatic_energy": 6.63, 
			 "SMD_solvation_energy": 1.51 
		},
		"coords": [
			{
				"x": 0.5303740753,
				"y": -0.4867530836,
				"z": 1.4519265243,
				"element": "C" 
			},
			{
				"x": 0.5717053749,
				"y": 0.2911638063,
				"z": 0.1339010698,
				"element": "C" 
			},
			{
				"x": 0.4109700518,
				"y": 1.8185421272,
				"z": 0.3114269246,
				"element": "C" 
			},
			{
				"x": -0.9197464817,
				"y": 2.224557052,
				"z": 0.8583814743,
				"element": "C" 
			},
			{
				"x": -1.1900987302,
				"y": 2.6059667166,
				"z": 2.0943797112,
				"element": "N" 
			},
			{
				"x": -2.5301672957,
				"y": 2.852632872,
				"z": 2.138706194,
				"element": "N" 
			},
			{
				"x": -3.0847770622,
				"y": 2.6392752587,
				"z": 0.9926074156,
				"element": "N" 
			},
			{
				"x": -2.0849623371,
				"y": 2.2396611799,
				"z": 0.170100913,
				"element": "N" 
			},
			{
				"x": 0.6454656107,
				"y": -1.5602207231,
				"z": 1.2733942072,
				"element": "H" 
			},
			{
				"x": 1.3374802159,
				"y": -0.1685509529,
				"z": 2.1203886738,
				"element": "H" 
			},
			{
				"x": -0.4137116544,
				"y": -0.3317446376,
				"z": 1.9829229389,
				"element": "H" 
			},
			{
				"x": -0.2076866754,
				"y": -0.0801355186,
				"z": -0.5446834635,
				"element": "H" 
			},
			{
				"x": 1.5271548215,
				"y": 0.1130248348,
				"z": -0.3733109677,
				"element": "H" 
			},
			{
				"x": 0.5756863439,
				"y": 2.3207630011,
				"z": -0.6496808834,
				"element": "H" 
			},
			{
				"x": 1.1682022806,
				"y": 2.1941476562,
				"z": 1.0057580354,
				"element": "H" 
			},
			{
				"x": -2.2805885382,
				"y": 2.0205704111,
				"z": -0.7959187674,
				"element": "H" 
			}
		],
		 "valence_orbital": [ 
			{
				"type": "occ",
				"energy": -0.35106,
				"method": "rhf"
			},
			{
				"type": "occ",
				"energy": -0.32231,
				"method": "rhf"
			},
			{
				"type": "occ",
				"energy": -0.29311,
				"method": "rhf"
			},
			{
				"type": "occ",
				"energy": -0.29083,
				"method": "rhf"
			},
			{
				"type": "occ",
				"energy": -0.28121,
				"method": "rhf"
			},
			{
				"type": "unocc",
				"energy": -0.01476,
				"method": "rhf"
			},
			{
				"type": "unocc",
				"energy": 0.02336,
				"method": "rhf"
			},
			{
				"type": "unocc",
				"energy": 0.05314,
				"method": "rhf"
			},
			{
				"type": "unocc",
				"energy": 0.09502,
				"method": "rhf"
			},
			{
				"type": "unocc",
				"energy": 0.11992,
				"method": "rhf"
			}
		],
		"cosmo_sigma_profile": { 
			"-0.025": 0.0,
			"-0.024": 0.0,
			"-0.023": 0.0,
			"-0.022": 0.0,
			"-0.021": 0.0,
			"-0.02": 0.0,
			"-0.019": 0.583715620817,
			"-0.018": 1.78790244258,
			"-0.017": 1.06707920465,
			"-0.016": 1.59321215859,
			"-0.015": 1.51431391607,
			"-0.014": 0.763297489116,
			"-0.013": 0.982496761725,
			"-0.012": 0.969037405897,
			"-0.011": 1.33872270201,
			"-0.01": 1.11326090668,
			"-0.009": 1.28495469425,
			"-0.008": 1.52978028644,
			"-0.007": 2.31798198701,
			"-0.006": 4.25195559876,
			"-0.005": 5.14337061369,
			"-0.004": 10.2492273068,
			"-0.003": 20.2961164323,
			"-0.002": 16.3763258363,
			"-0.001": 14.5840170697,
			"0.0": 10.9450784101,
			"0.001": 9.61224163413,
			"0.002": 4.28644669543,
			"0.003": 2.18574092532,
			"0.004": 3.5204090797,
			"0.005": 2.82599689731,
			"0.006": 2.47933345233,
			"0.007": 3.320914194,
			"0.008": 4.09868413486,
			"0.009": 5.57758857232,
			"0.01": 4.24234392154,
			"0.011": 5.10995158099,
			"0.012": 3.86452651647,
			"0.013": 2.65767726394,
			"0.014": 2.26933301656,
			"0.015": 1.18242227997,
			"0.016": 0.375119528732,
			"0.017": 0.0,
			"0.018": 0.0,
			"0.019": 0.0,
			"0.02": 0.0,
			"0.021": 0.0,
			"0.022": 0.0,
			"0.023": 0.0,
			"0.024": 0.0,
			"0.025": 0.0
		}
	}
}
