{
	 "smiles": "[O-][N+](=O)C1=CC2=C(C=C1[N+]([O-])=O)N=CC=N2", 
	 "Tm": 463.15, 
	 "num_atms": 20, 
	 "gaussian": { 
		 "optdone": 1, 
		 "sigma_profile": "yes", 
		 "theory": "DFT", 
		 "functional": "B3LYP", 
		 "basiset": "6-31G**", 
		 "properties": { 
			 "R2extent": 3664.9282, 
			 "electric_dipole_moment_norm": 7.05077836412, 
			 "electric_quadrupole_moment_norm": 10.0668424995, 
			 "total_energy": -826.930047899, 
			 "HOMO_LUMO_gap": 0.16628, 
			 "cosmo_polarized_energy": -14.63, 
			 "cosmo_cavitation_energy": 27.11, 
			 "cosmo_dispersion_energy": -19.67, 
			 "cosmo_repulsion_energy": 1.49, 
			 "cosmo_total_nonelectrostatic_energy": 8.93, 
			 "SMD_solvation_energy": 6.3 
		},
		"coords": [
			{
				"x": 0.9171172851,
				"y": -2.5318463555,
				"z": 0.5034092251,
				"element": "O" 
			},
			{
				"x": -0.0120585547,
				"y": -2.1610810464,
				"z": -0.2053919888,
				"element": "N" 
			},
			{
				"x": -0.800776658,
				"y": -2.8815761223,
				"z": -0.8065944887,
				"element": "O" 
			},
			{
				"x": -0.2548912534,
				"y": -0.7077991907,
				"z": -0.2869910968,
				"element": "C" 
			},
			{
				"x": -0.1271253576,
				"y": 0.018049905,
				"z": 0.8697705135,
				"element": "C" 
			},
			{
				"x": -0.4975958361,
				"y": 1.3872932959,
				"z": 0.886048057,
				"element": "C" 
			},
			{
				"x": -1.0087740486,
				"y": 1.9907710663,
				"z": -0.3011891527,
				"element": "C" 
			},
			{
				"x": -1.1164156204,
				"y": 1.2188479789,
				"z": -1.4864722174,
				"element": "C" 
			},
			{
				"x": -0.737692825,
				"y": -0.0993759924,
				"z": -1.4768073218,
				"element": "C" 
			},
			{
				"x": -0.7151610461,
				"y": -0.8074133479,
				"z": -2.7713485358,
				"element": "N" 
			},
			{
				"x": -1.6284074718,
				"y": -0.567744467,
				"z": -3.5535068477,
				"element": "O" 
			},
			{
				"x": 0.2513064707,
				"y": -1.5315989991,
				"z": -2.981408054,
				"element": "O" 
			},
			{
				"x": -1.38261358,
				"y": 3.3015874382,
				"z": -0.3257974961,
				"element": "N" 
			},
			{
				"x": -1.2481816915,
				"y": 3.961335948,
				"z": 0.8045482157,
				"element": "C" 
			},
			{
				"x": -0.741841316,
				"y": 3.3573743153,
				"z": 1.9915977451,
				"element": "C" 
			},
			{
				"x": -0.3716221609,
				"y": 2.0959388093,
				"z": 2.043880251,
				"element": "N" 
			},
			{
				"x": 0.2330748121,
				"y": -0.449635118,
				"z": 1.7781755902,
				"element": "H" 
			},
			{
				"x": -1.4762241842,
				"y": 1.6833386897,
				"z": -2.3966703982,
				"element": "H" 
			},
			{
				"x": -1.54151703,
				"y": 5.0094469515,
				"z": 0.810602705,
				"element": "H" 
			},
			{
				"x": -0.6491999337,
				"y": 3.9446862413,
				"z": 2.9032452955,
				"element": "H" 
			}
		],
		 "valence_orbital": [ 
			{
				"type": "occ",
				"energy": -0.32123,
				"method": "rhf"
			},
			{
				"type": "occ",
				"energy": -0.31825,
				"method": "rhf"
			},
			{
				"type": "occ",
				"energy": -0.29576,
				"method": "rhf"
			},
			{
				"type": "occ",
				"energy": -0.29299,
				"method": "rhf"
			},
			{
				"type": "occ",
				"energy": -0.28662,
				"method": "rhf"
			},
			{
				"type": "unocc",
				"energy": -0.12034,
				"method": "rhf"
			},
			{
				"type": "unocc",
				"energy": -0.11354,
				"method": "rhf"
			},
			{
				"type": "unocc",
				"energy": -0.07719,
				"method": "rhf"
			},
			{
				"type": "unocc",
				"energy": -0.04822,
				"method": "rhf"
			},
			{
				"type": "unocc",
				"energy": -0.0355,
				"method": "rhf"
			}
		],
		"cosmo_sigma_profile": { 
			"-0.025": 0.0,
			"-0.024": 0.0,
			"-0.023": 0.0,
			"-0.022": 0.0,
			"-0.021": 0.0,
			"-0.02": 0.0,
			"-0.019": 0.0,
			"-0.018": 0.0,
			"-0.017": 0.0,
			"-0.016": 0.0,
			"-0.015": 0.0,
			"-0.014": 0.0,
			"-0.013": 0.0,
			"-0.012": 0.0,
			"-0.011": 0.0,
			"-0.01": 1.74800450953,
			"-0.009": 10.0253272555,
			"-0.008": 10.1471007022,
			"-0.007": 7.43859469123,
			"-0.006": 10.0491021513,
			"-0.005": 12.1070927365,
			"-0.004": 19.4374337007,
			"-0.003": 19.5531315071,
			"-0.002": 13.8784365387,
			"-0.001": 10.9937478361,
			"0.0": 7.50687431735,
			"0.001": 7.64591740018,
			"0.002": 8.74046784239,
			"0.003": 7.25082727732,
			"0.004": 8.26361643952,
			"0.005": 11.2521863295,
			"0.006": 20.3792052935,
			"0.007": 15.2420861648,
			"0.008": 9.15277351503,
			"0.009": 4.11049487202,
			"0.01": 1.58579269412,
			"0.011": 1.3180722766,
			"0.012": 1.45043312434,
			"0.013": 0.745152838563,
			"0.014": 0.0,
			"0.015": 0.0,
			"0.016": 0.0,
			"0.017": 0.0,
			"0.018": 0.0,
			"0.019": 0.0,
			"0.02": 0.0,
			"0.021": 0.0,
			"0.022": 0.0,
			"0.023": 0.0,
			"0.024": 0.0,
			"0.025": 0.0
		}
	}
}
