{
	 "smiles": "OC1=CC(=CC=C1)C(=O)C1=CC=CC=C1", 
	 "Tm": 391.15, 
	 "num_atms": 25, 
	 "gaussian": { 
		 "optdone": 1, 
		 "sigma_profile": "yes", 
		 "theory": "DFT", 
		 "functional": "B3LYP", 
		 "basiset": "6-31G**", 
		 "properties": { 
			 "R2extent": 3983.4799, 
			 "electric_dipole_moment_norm": 3.30238020373, 
			 "electric_quadrupole_moment_norm": 14.7394074535, 
			 "total_energy": -651.854809847, 
			 "HOMO_LUMO_gap": 0.16674, 
			 "cosmo_polarized_energy": -13.42, 
			 "cosmo_cavitation_energy": 29.56, 
			 "cosmo_dispersion_energy": -21.53, 
			 "cosmo_repulsion_energy": 1.67, 
			 "cosmo_total_nonelectrostatic_energy": 9.71, 
			 "SMD_solvation_energy": 5.77 
		},
		"coords": [
			{
				"x": 0.2105400341,
				"y": -3.3622920165,
				"z": -2.2648070564,
				"element": "O" 
			},
			{
				"x": -0.4231976869,
				"y": -2.3106442769,
				"z": -1.6653497431,
				"element": "C" 
			},
			{
				"x": 0.3836136485,
				"y": -1.290341268,
				"z": -1.1498052689,
				"element": "C" 
			},
			{
				"x": -0.202555677,
				"y": -0.1780799801,
				"z": -0.5346404778,
				"element": "C" 
			},
			{
				"x": -1.6017350975,
				"y": -0.0846182024,
				"z": -0.447156493,
				"element": "C" 
			},
			{
				"x": -2.3952809374,
				"y": -1.1119270227,
				"z": -0.9450838228,
				"element": "C" 
			},
			{
				"x": -1.8143206183,
				"y": -2.2272292728,
				"z": -1.5547142757,
				"element": "C" 
			},
			{
				"x": 0.6063753119,
				"y": 0.9833750638,
				"z": -0.0290974971,
				"element": "C" 
			},
			{
				"x": 0.1138956631,
				"y": 2.1063375713,
				"z": -0.026257085,
				"element": "O" 
			},
			{
				"x": 2.0067608579,
				"y": 0.7839160019,
				"z": 0.4719262142,
				"element": "C" 
			},
			{
				"x": 2.4486284576,
				"y": -0.4109505555,
				"z": 1.0611816495,
				"element": "C" 
			},
			{
				"x": 3.7444602296,
				"y": -0.5073776688,
				"z": 1.5703664556,
				"element": "C" 
			},
			{
				"x": 4.6131095689,
				"y": 0.5816413374,
				"z": 1.4856355744,
				"element": "C" 
			},
			{
				"x": 4.1782005945,
				"y": 1.7782543908,
				"z": 0.9068652686,
				"element": "C" 
			},
			{
				"x": 2.8805175648,
				"y": 1.8822501254,
				"z": 0.4158758606,
				"element": "C" 
			},
			{
				"x": -0.4494433211,
				"y": -3.9859103319,
				"z": -2.5942389739,
				"element": "H" 
			},
			{
				"x": 1.4581187659,
				"y": -1.3735038784,
				"z": -1.2642003647,
				"element": "H" 
			},
			{
				"x": -2.037986456,
				"y": 0.7971585303,
				"z": 0.0078055944,
				"element": "H" 
			},
			{
				"x": -3.4768746696,
				"y": -1.0507123097,
				"z": -0.8676477278,
				"element": "H" 
			},
			{
				"x": -2.4401856839,
				"y": -3.0255699189,
				"z": -1.9485531783,
				"element": "H" 
			},
			{
				"x": 1.7741059566,
				"y": -1.2563354898,
				"z": 1.1436211669,
				"element": "H" 
			},
			{
				"x": 4.0736090328,
				"y": -1.4322925539,
				"z": 2.0349387298,
				"element": "H" 
			},
			{
				"x": 5.6243164311,
				"y": 0.5016861457,
				"z": 1.8745984036,
				"element": "H" 
			},
			{
				"x": 4.8508192742,
				"y": 2.6289276092,
				"z": 0.8457943467,
				"element": "H" 
			},
			{
				"x": 2.5163087561,
				"y": 2.8083379703,
				"z": -0.0162572997,
				"element": "H" 
			}
		],
		 "valence_orbital": [ 
			{
				"type": "occ",
				"energy": -0.26185,
				"method": "rhf"
			},
			{
				"type": "occ",
				"energy": -0.25883,
				"method": "rhf"
			},
			{
				"type": "occ",
				"energy": -0.25668,
				"method": "rhf"
			},
			{
				"type": "occ",
				"energy": -0.24436,
				"method": "rhf"
			},
			{
				"type": "occ",
				"energy": -0.22824,
				"method": "rhf"
			},
			{
				"type": "unocc",
				"energy": -0.0615,
				"method": "rhf"
			},
			{
				"type": "unocc",
				"energy": -0.01493,
				"method": "rhf"
			},
			{
				"type": "unocc",
				"energy": -0.00557,
				"method": "rhf"
			},
			{
				"type": "unocc",
				"energy": 0.00497,
				"method": "rhf"
			},
			{
				"type": "unocc",
				"energy": 0.0596,
				"method": "rhf"
			}
		],
		"cosmo_sigma_profile": { 
			"-0.025": 0.0,
			"-0.024": 0.0,
			"-0.023": 0.0,
			"-0.022": 0.0,
			"-0.021": 0.0,
			"-0.02": 0.0,
			"-0.019": 0.0,
			"-0.018": 0.41238372465,
			"-0.017": 1.5372312442,
			"-0.016": 0.878929417966,
			"-0.015": 1.08429015956,
			"-0.014": 1.13060555905,
			"-0.013": 1.30329280223,
			"-0.012": 0.803665284554,
			"-0.011": 0.967844211328,
			"-0.01": 1.25735868683,
			"-0.009": 0.914514248522,
			"-0.008": 1.16378578061,
			"-0.007": 3.07369644631,
			"-0.006": 12.9366952086,
			"-0.005": 17.6437594005,
			"-0.004": 18.3126531188,
			"-0.003": 17.5392250907,
			"-0.002": 14.7770919525,
			"-0.001": 14.1301801854,
			"0.0": 14.7091874483,
			"0.001": 14.2217826562,
			"0.002": 18.5841299904,
			"0.003": 21.1509902302,
			"0.004": 23.4827188448,
			"0.005": 8.17471283198,
			"0.006": 3.96277804647,
			"0.007": 3.19794196112,
			"0.008": 2.91090331402,
			"0.009": 3.15141942756,
			"0.01": 3.83010762701,
			"0.011": 4.6449578362,
			"0.012": 4.33352352571,
			"0.013": 1.00937282853,
			"0.014": 0.0,
			"0.015": 0.0,
			"0.016": 0.0,
			"0.017": 0.0,
			"0.018": 0.0,
			"0.019": 0.0,
			"0.02": 0.0,
			"0.021": 0.0,
			"0.022": 0.0,
			"0.023": 0.0,
			"0.024": 0.0,
			"0.025": 0.0
		}
	}
}
