{
	 "smiles": "FC1=CC(C(=O)C2=CC=NC=C2)=C(F)C=C1", 
	 "Tm": 327.15, 
	 "num_atms": 23, 
	 "gaussian": { 
		 "optdone": 1, 
		 "sigma_profile": "yes", 
		 "theory": "DFT", 
		 "functional": "B3LYP", 
		 "basiset": "6-31G**", 
		 "properties": { 
			 "R2extent": 5394.2095, 
			 "electric_dipole_moment_norm": 2.84593104801, 
			 "electric_quadrupole_moment_norm": 12.2004524564, 
			 "total_energy": -791.124470262, 
			 "HOMO_LUMO_gap": 0.17067, 
			 "cosmo_polarized_energy": -9.8, 
			 "cosmo_cavitation_energy": 29.17, 
			 "cosmo_dispersion_energy": -20.78, 
			 "cosmo_repulsion_energy": 1.55, 
			 "cosmo_total_nonelectrostatic_energy": 9.94, 
			 "SMD_solvation_energy": 5.02 
		},
		"coords": [
			{
				"x": 3.5712160335,
				"y": -2.1172175318,
				"z": -4.3713945463,
				"element": "F" 
			},
			{
				"x": 2.874811892,
				"y": -1.2970713923,
				"z": -3.5604475073,
				"element": "C" 
			},
			{
				"x": 1.4980273675,
				"y": -1.4296390381,
				"z": -3.4850719294,
				"element": "C" 
			},
			{
				"x": 0.7612995114,
				"y": -0.5977574649,
				"z": -2.6263301325,
				"element": "C" 
			},
			{
				"x": -0.7341316429,
				"y": -0.7620667415,
				"z": -2.6218565703,
				"element": "C" 
			},
			{
				"x": -1.2990516648,
				"y": -1.0883953836,
				"z": -3.6562518795,
				"element": "O" 
			},
			{
				"x": -1.5292565419,
				"y": -0.5917598869,
				"z": -1.3602025262,
				"element": "C" 
			},
			{
				"x": -2.8994126686,
				"y": -0.3244817586,
				"z": -1.4669446223,
				"element": "C" 
			},
			{
				"x": -3.656246682,
				"y": -0.2283010386,
				"z": -0.3016879629,
				"element": "C" 
			},
			{
				"x": -3.1523668575,
				"y": -0.4016629473,
				"z": 0.9285033486,
				"element": "N" 
			},
			{
				"x": -1.846412,
				"y": -0.6784686506,
				"z": 1.0199887227,
				"element": "C" 
			},
			{
				"x": -0.9944550087,
				"y": -0.7763310208,
				"z": -0.0808480108,
				"element": "C" 
			},
			{
				"x": 1.4594590902,
				"y": 0.3781646079,
				"z": -1.9054265768,
				"element": "C" 
			},
			{
				"x": 0.7867231781,
				"y": 1.2435411677,
				"z": -1.1180346573,
				"element": "F" 
			},
			{
				"x": 2.8407348359,
				"y": 0.5192649611,
				"z": -1.9947776768,
				"element": "C" 
			},
			{
				"x": 3.5629869545,
				"y": -0.3340367566,
				"z": -2.8254065167,
				"element": "C" 
			},
			{
				"x": 0.9809170052,
				"y": -2.1693056895,
				"z": -4.0851540782,
				"element": "H" 
			},
			{
				"x": -3.3488751673,
				"y": -0.1990522443,
				"z": -2.4457022636,
				"element": "H" 
			},
			{
				"x": -4.7202455608,
				"y": -0.0063061572,
				"z": -0.356220263,
				"element": "H" 
			},
			{
				"x": -1.4569531767,
				"y": -0.8288105863,
				"z": 2.0251485063,
				"element": "H" 
			},
			{
				"x": 0.0546919992,
				"y": -1.0087656836,
				"z": 0.0642326563,
				"element": "H" 
			},
			{
				"x": 3.3292294865,
				"y": 1.2992531252,
				"z": -1.4215022295,
				"element": "H" 
			},
			{
				"x": 4.6408096171,
				"y": -0.2568938895,
				"z": -2.9156132843,
				"element": "H" 
			}
		],
		 "valence_orbital": [ 
			{
				"type": "occ",
				"energy": -0.28928,
				"method": "rhf"
			},
			{
				"type": "occ",
				"energy": -0.27484,
				"method": "rhf"
			},
			{
				"type": "occ",
				"energy": -0.26868,
				"method": "rhf"
			},
			{
				"type": "occ",
				"energy": -0.26136,
				"method": "rhf"
			},
			{
				"type": "occ",
				"energy": -0.25807,
				"method": "rhf"
			},
			{
				"type": "unocc",
				"energy": -0.0874,
				"method": "rhf"
			},
			{
				"type": "unocc",
				"energy": -0.03856,
				"method": "rhf"
			},
			{
				"type": "unocc",
				"energy": -0.02011,
				"method": "rhf"
			},
			{
				"type": "unocc",
				"energy": -0.01548,
				"method": "rhf"
			},
			{
				"type": "unocc",
				"energy": 0.03415,
				"method": "rhf"
			}
		],
		"cosmo_sigma_profile": { 
			"-0.025": 0.0,
			"-0.024": 0.0,
			"-0.023": 0.0,
			"-0.022": 0.0,
			"-0.021": 0.0,
			"-0.02": 0.0,
			"-0.019": 0.0,
			"-0.018": 0.0,
			"-0.017": 0.0,
			"-0.016": 0.0,
			"-0.015": 0.0,
			"-0.014": 0.0,
			"-0.013": 0.0,
			"-0.012": 0.0,
			"-0.011": 0.0,
			"-0.01": 0.0,
			"-0.009": 1.19197180746,
			"-0.008": 5.54041755108,
			"-0.007": 11.8902957441,
			"-0.006": 13.6620196774,
			"-0.005": 13.5530422918,
			"-0.004": 13.5824631191,
			"-0.003": 13.0190883079,
			"-0.002": 13.4633368014,
			"-0.001": 19.7513082268,
			"0.0": 26.2624716037,
			"0.001": 27.0331840489,
			"0.002": 15.9314281297,
			"0.003": 16.1596687862,
			"0.004": 17.0716867279,
			"0.005": 3.36685570207,
			"0.006": 2.91200834413,
			"0.007": 3.19850415678,
			"0.008": 3.4859045043,
			"0.009": 2.51294967809,
			"0.01": 3.71015593851,
			"0.011": 4.26025988161,
			"0.012": 1.39413511873,
			"0.013": 1.01273244601,
			"0.014": 0.650089850266,
			"0.015": 0.785581966671,
			"0.016": 0.644758635209,
			"0.017": 0.0,
			"0.018": 0.0,
			"0.019": 0.0,
			"0.02": 0.0,
			"0.021": 0.0,
			"0.022": 0.0,
			"0.023": 0.0,
			"0.024": 0.0,
			"0.025": 0.0
		}
	}
}
