{
	 "smiles": "CC1=CC=CC(C)=C1N1N=NN=C1S", 
	 "Tm": 420.15, 
	 "num_atms": 24, 
	 "gaussian": { 
		 "optdone": 1, 
		 "sigma_profile": "yes", 
		 "theory": "DFT", 
		 "functional": "B3LYP", 
		 "basiset": "6-31G**", 
		 "properties": { 
			 "R2extent": 3377.4492, 
			 "electric_dipole_moment_norm": 4.93170828111, 
			 "electric_quadrupole_moment_norm": 12.0937321721, 
			 "total_energy": -966.126746715, 
			 "HOMO_LUMO_gap": 0.22461, 
			 "cosmo_polarized_energy": -12.5, 
			 "cosmo_cavitation_energy": 29.93, 
			 "cosmo_dispersion_energy": -20.89, 
			 "cosmo_repulsion_energy": 1.58, 
			 "cosmo_total_nonelectrostatic_energy": 10.63, 
			 "SMD_solvation_energy": 3.18 
		},
		"coords": [
			{
				"x": 2.1401893096,
				"y": -1.1311007958,
				"z": -1.8710638498,
				"element": "C" 
			},
			{
				"x": 1.7980742361,
				"y": -0.5715796791,
				"z": -0.5119690859,
				"element": "C" 
			},
			{
				"x": 2.5684093206,
				"y": -0.8748585085,
				"z": 0.6157146599,
				"element": "C" 
			},
			{
				"x": 2.2346619664,
				"y": -0.3622069091,
				"z": 1.8682843996,
				"element": "C" 
			},
			{
				"x": 1.1193110941,
				"y": 0.4599847393,
				"z": 2.020361743,
				"element": "C" 
			},
			{
				"x": 0.3178916208,
				"y": 0.791971531,
				"z": 0.9228267519,
				"element": "C" 
			},
			{
				"x": -0.9001441462,
				"y": 1.6695578763,
				"z": 1.0759445263,
				"element": "C" 
			},
			{
				"x": 0.6875766134,
				"y": 0.2693498916,
				"z": -0.3279575886,
				"element": "C" 
			},
			{
				"x": -0.1200916924,
				"y": 0.5943336073,
				"z": -1.4699966247,
				"element": "N" 
			},
			{
				"x": -1.1938221463,
				"y": -0.1657248897,
				"z": -1.8531568938,
				"element": "N" 
			},
			{
				"x": -1.6856877903,
				"y": 0.4015937952,
				"z": -2.9000200665,
				"element": "N" 
			},
			{
				"x": -0.9881290375,
				"y": 1.5187500518,
				"z": -3.2443504792,
				"element": "N" 
			},
			{
				"x": -0.0234046532,
				"y": 1.620590481,
				"z": -2.3469758097,
				"element": "C" 
			},
			{
				"x": 1.2143802003,
				"y": 2.8654213509,
				"z": -2.2560487191,
				"element": "S" 
			},
			{
				"x": 2.4366733181,
				"y": -0.3393953765,
				"z": -2.5686487672,
				"element": "H" 
			},
			{
				"x": 2.9685973401,
				"y": -1.8394513136,
				"z": -1.7981912944,
				"element": "H" 
			},
			{
				"x": 1.2835845338,
				"y": -1.6484714683,
				"z": -2.3142120608,
				"element": "H" 
			},
			{
				"x": 3.4329970049,
				"y": -1.5230293554,
				"z": 0.5058729807,
				"element": "H" 
			},
			{
				"x": 2.84372707,
				"y": -0.6105672264,
				"z": 2.7326194479,
				"element": "H" 
			},
			{
				"x": 0.858993482,
				"y": 0.8479550049,
				"z": 3.0008790253,
				"element": "H" 
			},
			{
				"x": -0.7788506047,
				"y": 2.621397205,
				"z": 0.5462264279,
				"element": "H" 
			},
			{
				"x": -1.7925424128,
				"y": 1.1842432334,
				"z": 0.6685925548,
				"element": "H" 
			},
			{
				"x": -1.0825203002,
				"y": 1.8943861574,
				"z": 2.1292776967,
				"element": "H" 
			},
			{
				"x": 0.7481256734,
				"y": 3.5057505972,
				"z": -3.3455089743,
				"element": "H" 
			}
		],
		 "valence_orbital": [ 
			{
				"type": "occ",
				"energy": -0.2968,
				"method": "rhf"
			},
			{
				"type": "occ",
				"energy": -0.29589,
				"method": "rhf"
			},
			{
				"type": "occ",
				"energy": -0.26117,
				"method": "rhf"
			},
			{
				"type": "occ",
				"energy": -0.25966,
				"method": "rhf"
			},
			{
				"type": "occ",
				"energy": -0.25743,
				"method": "rhf"
			},
			{
				"type": "unocc",
				"energy": -0.03282,
				"method": "rhf"
			},
			{
				"type": "unocc",
				"energy": -0.01688,
				"method": "rhf"
			},
			{
				"type": "unocc",
				"energy": -0.01412,
				"method": "rhf"
			},
			{
				"type": "unocc",
				"energy": -0.00189,
				"method": "rhf"
			},
			{
				"type": "unocc",
				"energy": 0.02222,
				"method": "rhf"
			}
		],
		"cosmo_sigma_profile": { 
			"-0.025": 0.0,
			"-0.024": 0.0,
			"-0.023": 0.0,
			"-0.022": 0.0,
			"-0.021": 0.0,
			"-0.02": 0.0,
			"-0.019": 0.0,
			"-0.018": 0.0,
			"-0.017": 0.0,
			"-0.016": 0.0,
			"-0.015": 0.0,
			"-0.014": 0.0912350873964,
			"-0.013": 1.4603209776,
			"-0.012": 1.63446593694,
			"-0.011": 1.19005020746,
			"-0.01": 1.23043409774,
			"-0.009": 1.1295523236,
			"-0.008": 1.16050447724,
			"-0.007": 2.07468651024,
			"-0.006": 10.3969365074,
			"-0.005": 12.7952581489,
			"-0.004": 22.5162216763,
			"-0.003": 23.1162678003,
			"-0.002": 23.8434849077,
			"-0.001": 26.5489441022,
			"0.0": 22.623836861,
			"0.001": 13.7705089715,
			"0.002": 13.1280509312,
			"0.003": 14.274600359,
			"0.004": 12.1997880823,
			"0.005": 4.13788583698,
			"0.006": 3.00894392767,
			"0.007": 4.39774354211,
			"0.008": 4.99751781419,
			"0.009": 4.65872013202,
			"0.01": 4.36362025483,
			"0.011": 4.2023369662,
			"0.012": 3.14183007084,
			"0.013": 2.11792457685,
			"0.014": 1.03729240744,
			"0.015": 0.176653493895,
			"0.016": 0.0,
			"0.017": 0.0,
			"0.018": 0.0,
			"0.019": 0.0,
			"0.02": 0.0,
			"0.021": 0.0,
			"0.022": 0.0,
			"0.023": 0.0,
			"0.024": 0.0,
			"0.025": 0.0
		}
	}
}
