{
	 "smiles": "CC(C)=CC1C(C(=O)OC(C#N)C2=CC=CC(OC3=CC=CC=C3)=C2)C1(C)C", 
	 "Tm": 298.15, 
	 "num_atms": 53, 
	 "gaussian": { 
		 "optdone": 1, 
		 "sigma_profile": "yes", 
		 "theory": "DFT", 
		 "functional": "B3LYP", 
		 "basiset": "6-31G**", 
		 "properties": { 
			 "R2extent": 15733.9419, 
			 "electric_dipole_moment_norm": 3.28844630943, 
			 "electric_quadrupole_moment_norm": 12.0329895068, 
			 "total_energy": -1209.99716738, 
			 "HOMO_LUMO_gap": 0.19314, 
			 "cosmo_polarized_energy": -13.45, 
			 "cosmo_cavitation_energy": 57.63, 
			 "cosmo_dispersion_energy": -37.32, 
			 "cosmo_repulsion_energy": 2.94, 
			 "cosmo_total_nonelectrostatic_energy": 23.25, 
			 "SMD_solvation_energy": 11.98 
		},
		"coords": [
			{
				"x": 3.9490640346,
				"y": -3.6379867227,
				"z": 0.4695668803,
				"element": "C" 
			},
			{
				"x": 3.6950507928,
				"y": -2.4097888322,
				"z": 1.3084410655,
				"element": "C" 
			},
			{
				"x": 4.9359859669,
				"y": -1.6153857425,
				"z": 1.6386598261,
				"element": "C" 
			},
			{
				"x": 2.4929300017,
				"y": -2.006579312,
				"z": 1.7569955092,
				"element": "C" 
			},
			{
				"x": 1.1946919145,
				"y": -2.6783574211,
				"z": 1.5172513817,
				"element": "C" 
			},
			{
				"x": -0.1366480178,
				"y": -1.8900405028,
				"z": 1.4175929426,
				"element": "C" 
			},
			{
				"x": -0.1836613654,
				"y": -0.4229657812,
				"z": 1.58963476,
				"element": "C" 
			},
			{
				"x": 0.4859118931,
				"y": 0.266145306,
				"z": 2.3372222681,
				"element": "O" 
			},
			{
				"x": -1.1321893092,
				"y": 0.1047678153,
				"z": 0.7539992341,
				"element": "O" 
			},
			{
				"x": -1.2886350095,
				"y": 1.546469509,
				"z": 0.8032810638,
				"element": "C" 
			},
			{
				"x": -2.7366548647,
				"y": 1.8071862006,
				"z": 0.8023402558,
				"element": "C" 
			},
			{
				"x": -3.8740360342,
				"y": 2.0355340769,
				"z": 0.8090798812,
				"element": "N" 
			},
			{
				"x": -0.5583324088,
				"y": 2.2100051521,
				"z": -0.3507505365,
				"element": "C" 
			},
			{
				"x": 0.7366923854,
				"y": 2.6933547506,
				"z": -0.1384783832,
				"element": "C" 
			},
			{
				"x": 1.4397421005,
				"y": 3.2622618068,
				"z": -1.2021560206,
				"element": "C" 
			},
			{
				"x": 0.8594446256,
				"y": 3.3576412308,
				"z": -2.4637963071,
				"element": "C" 
			},
			{
				"x": -0.4364696728,
				"y": 2.8704776177,
				"z": -2.6690079019,
				"element": "C" 
			},
			{
				"x": -0.911040657,
				"y": 2.9500066822,
				"z": -3.9571520493,
				"element": "O" 
			},
			{
				"x": -2.2721913751,
				"y": 2.9451433249,
				"z": -4.2227032602,
				"element": "C" 
			},
			{
				"x": -2.7189866688,
				"y": 2.0861764977,
				"z": -5.2269403448,
				"element": "C" 
			},
			{
				"x": -4.064792123,
				"y": 2.1050068257,
				"z": -5.595217292,
				"element": "C" 
			},
			{
				"x": -4.9583789679,
				"y": 2.9688935341,
				"z": -4.9591450945,
				"element": "C" 
			},
			{
				"x": -4.4976199563,
				"y": 3.8242598981,
				"z": -3.9555399715,
				"element": "C" 
			},
			{
				"x": -3.1524908747,
				"y": 3.823577975,
				"z": -3.5854373867,
				"element": "C" 
			},
			{
				"x": -1.1488226667,
				"y": 2.2901699242,
				"z": -1.6169357211,
				"element": "C" 
			},
			{
				"x": 0.1335307166,
				"y": -2.8543264863,
				"z": 2.5789573211,
				"element": "C" 
			},
			{
				"x": 0.3548799213,
				"y": -2.3305063739,
				"z": 3.9878757637,
				"element": "C" 
			},
			{
				"x": -0.6704962348,
				"y": -4.1453952495,
				"z": 2.5377074473,
				"element": "C" 
			},
			{
				"x": 3.0457364298,
				"y": -4.202465577,
				"z": 0.2314999868,
				"element": "H" 
			},
			{
				"x": 4.6393805416,
				"y": -4.3189927545,
				"z": 0.9846993473,
				"element": "H" 
			},
			{
				"x": 4.4341519951,
				"y": -3.3652456216,
				"z": -0.4768596953,
				"element": "H" 
			},
			{
				"x": 5.441950153,
				"y": -1.2762630923,
				"z": 0.7245760967,
				"element": "H" 
			},
			{
				"x": 4.7079868222,
				"y": -0.7359307994,
				"z": 2.2467168385,
				"element": "H" 
			},
			{
				"x": 5.6648019206,
				"y": -2.2288350854,
				"z": 2.1854711268,
				"element": "H" 
			},
			{
				"x": 2.4530571045,
				"y": -1.0964085803,
				"z": 2.3473146643,
				"element": "H" 
			},
			{
				"x": 1.2267038588,
				"y": -3.4845923371,
				"z": 0.7897239952,
				"element": "H" 
			},
			{
				"x": -0.8313904498,
				"y": -2.2411626448,
				"z": 0.6620593102,
				"element": "H" 
			},
			{
				"x": -0.8701832216,
				"y": 1.8966085421,
				"z": 1.7516019546,
				"element": "H" 
			},
			{
				"x": 1.1894260352,
				"y": 2.6110518961,
				"z": 0.8442038825,
				"element": "H" 
			},
			{
				"x": 2.4449950174,
				"y": 3.6414535629,
				"z": -1.0448996925,
				"element": "H" 
			},
			{
				"x": 1.3874170503,
				"y": 3.802466285,
				"z": -3.3006536479,
				"element": "H" 
			},
			{
				"x": -2.0071071417,
				"y": 1.4225724509,
				"z": -5.7065520324,
				"element": "H" 
			},
			{
				"x": -4.4142158408,
				"y": 1.4379000506,
				"z": -6.3778472497,
				"element": "H" 
			},
			{
				"x": -6.0061480177,
				"y": 2.9768851055,
				"z": -5.2431777365,
				"element": "H" 
			},
			{
				"x": -5.1855562012,
				"y": 4.501839227,
				"z": -3.4586325334,
				"element": "H" 
			},
			{
				"x": -2.7875969529,
				"y": 4.4931337102,
				"z": -2.813794942,
				"element": "H" 
			},
			{
				"x": -2.1527322911,
				"y": 1.9139212388,
				"z": -1.7790176621,
				"element": "H" 
			},
			{
				"x": -0.6048658015,
				"y": -2.2307958567,
				"z": 4.5075798455,
				"element": "H" 
			},
			{
				"x": 0.9667503141,
				"y": -3.0427161679,
				"z": 4.5529088503,
				"element": "H" 
			},
			{
				"x": 0.846313231,
				"y": -1.3588718164,
				"z": 4.0056366902,
				"element": "H" 
			},
			{
				"x": -1.6632122039,
				"y": -4.0024460097,
				"z": 2.9797148975,
				"element": "H" 
			},
			{
				"x": -0.8068148858,
				"y": -4.5089057505,
				"z": 1.5141307074,
				"element": "H" 
			},
			{
				"x": -0.1603256119,
				"y": -4.9305456788,
				"z": 3.1077516666,
				"element": "H" 
			}
		],
		 "valence_orbital": [ 
			{
				"type": "occ",
				"energy": -0.2636,
				"method": "rhf"
			},
			{
				"type": "occ",
				"energy": -0.25626,
				"method": "rhf"
			},
			{
				"type": "occ",
				"energy": -0.25314,
				"method": "rhf"
			},
			{
				"type": "occ",
				"energy": -0.2246,
				"method": "rhf"
			},
			{
				"type": "occ",
				"energy": -0.22328,
				"method": "rhf"
			},
			{
				"type": "unocc",
				"energy": -0.03014,
				"method": "rhf"
			},
			{
				"type": "unocc",
				"energy": -0.01274,
				"method": "rhf"
			},
			{
				"type": "unocc",
				"energy": -0.0114,
				"method": "rhf"
			},
			{
				"type": "unocc",
				"energy": -0.00466,
				"method": "rhf"
			},
			{
				"type": "unocc",
				"energy": 0.0051,
				"method": "rhf"
			}
		],
		"cosmo_sigma_profile": { 
			"-0.025": 0.0,
			"-0.024": 0.0,
			"-0.023": 0.0,
			"-0.022": 0.0,
			"-0.021": 0.0,
			"-0.02": 0.0,
			"-0.019": 0.0,
			"-0.018": 0.0,
			"-0.017": 0.0,
			"-0.016": 0.0,
			"-0.015": 0.0,
			"-0.014": 0.0,
			"-0.013": 0.0,
			"-0.012": 0.0,
			"-0.011": 0.0116398928966,
			"-0.01": 0.895991978823,
			"-0.009": 1.56800108986,
			"-0.008": 1.72362532834,
			"-0.007": 5.41517236877,
			"-0.006": 21.3182180292,
			"-0.005": 25.5634778437,
			"-0.004": 29.2648444637,
			"-0.003": 43.6305406788,
			"-0.002": 40.5316158431,
			"-0.001": 46.9111158358,
			"0.0": 51.520154757,
			"0.001": 43.4335115724,
			"0.002": 31.5453493413,
			"0.003": 31.4010905799,
			"0.004": 28.6814727097,
			"0.005": 18.5371349135,
			"0.006": 9.2287341591,
			"0.007": 6.47640478305,
			"0.008": 6.39310431088,
			"0.009": 4.39425100551,
			"0.01": 4.17074680663,
			"0.011": 3.4758668973,
			"0.012": 1.79834624988,
			"0.013": 0.143080013857,
			"0.014": 0.0,
			"0.015": 0.0,
			"0.016": 0.0,
			"0.017": 0.0,
			"0.018": 0.0,
			"0.019": 0.0,
			"0.02": 0.0,
			"0.021": 0.0,
			"0.022": 0.0,
			"0.023": 0.0,
			"0.024": 0.0,
			"0.025": 0.0
		}
	}
}
