{
	 "smiles": "CC1=C(C=C(N1CCCN1CCOCC1)C1=CC=CC=C1)C(O)=O", 
	 "Tm": 447.15, 
	 "num_atms": 48, 
	 "gaussian": { 
		 "optdone": 1, 
		 "sigma_profile": "yes", 
		 "theory": "DFT", 
		 "functional": "B3LYP", 
		 "basiset": "6-31G**", 
		 "properties": { 
			 "R2extent": 9981.1926, 
			 "electric_dipole_moment_norm": 2.52445005694, 
			 "electric_quadrupole_moment_norm": 22.4066340939, 
			 "total_energy": -1073.67258201, 
			 "HOMO_LUMO_gap": 0.18406, 
			 "cosmo_polarized_energy": -16.1, 
			 "cosmo_cavitation_energy": 49.23, 
			 "cosmo_dispersion_energy": -32.25, 
			 "cosmo_repulsion_energy": 2.45, 
			 "cosmo_total_nonelectrostatic_energy": 19.43, 
			 "SMD_solvation_energy": 7.03 
		},
		"coords": [
			{
				"x": 2.6605987874,
				"y": -1.2103876034,
				"z": -2.7744018757,
				"element": "C" 
			},
			{
				"x": 1.1808004777,
				"y": -1.3728115655,
				"z": -2.6317648053,
				"element": "C" 
			},
			{
				"x": 0.2901132876,
				"y": -2.1301527465,
				"z": -3.3945891872,
				"element": "C" 
			},
			{
				"x": -1.009938654,
				"y": -1.9585666669,
				"z": -2.8327621459,
				"element": "C" 
			},
			{
				"x": -0.8970776469,
				"y": -1.10223985,
				"z": -1.7624334635,
				"element": "C" 
			},
			{
				"x": 0.4534576512,
				"y": -0.7434852474,
				"z": -1.6511160179,
				"element": "N" 
			},
			{
				"x": 1.0474352411,
				"y": -0.0453742595,
				"z": -0.5098094403,
				"element": "C" 
			},
			{
				"x": 1.3529381278,
				"y": -0.9853592715,
				"z": 0.6657586824,
				"element": "C" 
			},
			{
				"x": 1.9326303467,
				"y": -0.2392176982,
				"z": 1.8742921954,
				"element": "C" 
			},
			{
				"x": 1.0613618996,
				"y": 0.8244835336,
				"z": 2.376520079,
				"element": "N" 
			},
			{
				"x": 1.7783189681,
				"y": 1.7437768735,
				"z": 3.2640160557,
				"element": "C" 
			},
			{
				"x": 0.8504738599,
				"y": 2.8732131575,
				"z": 3.7056994477,
				"element": "C" 
			},
			{
				"x": -0.3015987268,
				"y": 2.3663440356,
				"z": 4.3627389785,
				"element": "O" 
			},
			{
				"x": -1.0124189776,
				"y": 1.4776561026,
				"z": 3.5115114267,
				"element": "C" 
			},
			{
				"x": -0.1348965462,
				"y": 0.3140461537,
				"z": 3.0552099163,
				"element": "C" 
			},
			{
				"x": -1.9661350198,
				"y": -0.5897744668,
				"z": -0.8857601437,
				"element": "C" 
			},
			{
				"x": -2.8558958011,
				"y": -1.4920872395,
				"z": -0.2761793591,
				"element": "C" 
			},
			{
				"x": -3.9097610051,
				"y": -1.0345098307,
				"z": 0.5151264498,
				"element": "C" 
			},
			{
				"x": -4.090890592,
				"y": 0.3343974635,
				"z": 0.7219780139,
				"element": "C" 
			},
			{
				"x": -3.2178463399,
				"y": 1.2432923021,
				"z": 0.1188311268,
				"element": "C" 
			},
			{
				"x": -2.1708072863,
				"y": 0.7874704435,
				"z": -0.68195834,
				"element": "C" 
			},
			{
				"x": 0.6353036932,
				"y": -2.9333947618,
				"z": -4.5636150594,
				"element": "C" 
			},
			{
				"x": -0.4505534489,
				"y": -3.5641712776,
				"z": -5.0932048751,
				"element": "O" 
			},
			{
				"x": 1.7434874373,
				"y": -3.0717874265,
				"z": -5.0602414226,
				"element": "O" 
			},
			{
				"x": 3.2038114541,
				"y": -1.5728132803,
				"z": -1.892893525,
				"element": "H" 
			},
			{
				"x": 2.9404831492,
				"y": -0.1600520212,
				"z": -2.9228704343,
				"element": "H" 
			},
			{
				"x": 2.9898852283,
				"y": -1.7822956072,
				"z": -3.6414502332,
				"element": "H" 
			},
			{
				"x": -1.928926889,
				"y": -2.3797384943,
				"z": -3.211867581,
				"element": "H" 
			},
			{
				"x": 1.9621634808,
				"y": 0.4464038022,
				"z": -0.8523032325,
				"element": "H" 
			},
			{
				"x": 0.3707604428,
				"y": 0.7392331936,
				"z": -0.1748113915,
				"element": "H" 
			},
			{
				"x": 2.071211997,
				"y": -1.7527183271,
				"z": 0.3541193813,
				"element": "H" 
			},
			{
				"x": 0.4366707726,
				"y": -1.5195242374,
				"z": 0.9393529641,
				"element": "H" 
			},
			{
				"x": 2.18284275,
				"y": -0.971577059,
				"z": 2.6664859438,
				"element": "H" 
			},
			{
				"x": 2.8796760888,
				"y": 0.229612955,
				"z": 1.57726217,
				"element": "H" 
			},
			{
				"x": 2.1666036462,
				"y": 1.2265246321,
				"z": 4.1631095311,
				"element": "H" 
			},
			{
				"x": 2.6364469016,
				"y": 2.1637505265,
				"z": 2.7254457815,
				"element": "H" 
			},
			{
				"x": 0.5567909121,
				"y": 3.4682126429,
				"z": 2.8250538957,
				"element": "H" 
			},
			{
				"x": 1.3563983792,
				"y": 3.5301802244,
				"z": 4.4194113401,
				"element": "H" 
			},
			{
				"x": -1.3903045998,
				"y": 2.0147742919,
				"z": 2.6269806133,
				"element": "H" 
			},
			{
				"x": -1.8668237366,
				"y": 1.1089985667,
				"z": 4.0862881311,
				"element": "H" 
			},
			{
				"x": 0.1357051543,
				"y": -0.3046863889,
				"z": 3.9333603579,
				"element": "H" 
			},
			{
				"x": -0.7121693154,
				"y": -0.3125134359,
				"z": 2.3683680017,
				"element": "H" 
			},
			{
				"x": -2.7075236939,
				"y": -2.5572274057,
				"z": -0.4265975844,
				"element": "H" 
			},
			{
				"x": -4.5861176013,
				"y": -1.7491839434,
				"z": 0.9756149675,
				"element": "H" 
			},
			{
				"x": -4.9092039397,
				"y": 0.6911045966,
				"z": 1.3406293668,
				"element": "H" 
			},
			{
				"x": -3.363562026,
				"y": 2.3111130462,
				"z": 0.2560807124,
				"element": "H" 
			},
			{
				"x": -1.5253753933,
				"y": 1.5040665369,
				"z": -1.1813017075,
				"element": "H" 
			},
			{
				"x": -0.1080428949,
				"y": -4.0619049683,
				"z": -5.8533137054,
				"element": "H" 
			}
		],
		 "valence_orbital": [ 
			{
				"type": "occ",
				"energy": -0.25699,
				"method": "rhf"
			},
			{
				"type": "occ",
				"energy": -0.25407,
				"method": "rhf"
			},
			{
				"type": "occ",
				"energy": -0.24291,
				"method": "rhf"
			},
			{
				"type": "occ",
				"energy": -0.22293,
				"method": "rhf"
			},
			{
				"type": "occ",
				"energy": -0.20308,
				"method": "rhf"
			},
			{
				"type": "unocc",
				"energy": -0.01902,
				"method": "rhf"
			},
			{
				"type": "unocc",
				"energy": -0.00942,
				"method": "rhf"
			},
			{
				"type": "unocc",
				"energy": -0.00818,
				"method": "rhf"
			},
			{
				"type": "unocc",
				"energy": 0.0498,
				"method": "rhf"
			},
			{
				"type": "unocc",
				"energy": 0.07088,
				"method": "rhf"
			}
		],
		"cosmo_sigma_profile": { 
			"-0.025": 0.0,
			"-0.024": 0.0,
			"-0.023": 0.0,
			"-0.022": 0.0,
			"-0.021": 0.0,
			"-0.02": 0.0,
			"-0.019": 0.0,
			"-0.018": 0.0566170100931,
			"-0.017": 0.758281189792,
			"-0.016": 0.64030859201,
			"-0.015": 0.898958847024,
			"-0.014": 0.755217427938,
			"-0.013": 0.687600694992,
			"-0.012": 1.28052125116,
			"-0.011": 0.43645774306,
			"-0.01": 0.273939821237,
			"-0.009": 0.666297209474,
			"-0.008": 0.375506856377,
			"-0.007": 0.565955230252,
			"-0.006": 9.39915596717,
			"-0.005": 26.6925136274,
			"-0.004": 36.7443311578,
			"-0.003": 35.7576778649,
			"-0.002": 46.5770345974,
			"-0.001": 44.6575514314,
			"0.0": 33.438426058,
			"0.001": 25.1172681822,
			"0.002": 24.3100342636,
			"0.003": 19.1918197717,
			"0.004": 18.4362248535,
			"0.005": 15.9551776979,
			"0.006": 9.41014771301,
			"0.007": 5.96975803211,
			"0.008": 5.62368152244,
			"0.009": 4.53718876396,
			"0.01": 3.64965290958,
			"0.011": 3.26155903698,
			"0.012": 5.39100051803,
			"0.013": 4.33934674945,
			"0.014": 0.910375434019,
			"0.015": 0.0,
			"0.016": 0.0,
			"0.017": 0.0,
			"0.018": 0.0,
			"0.019": 0.0,
			"0.02": 0.0,
			"0.021": 0.0,
			"0.022": 0.0,
			"0.023": 0.0,
			"0.024": 0.0,
			"0.025": 0.0
		}
	}
}
