{
	 "smiles": "NC1=CN=C(CCC(O)=O)C=C1", 
	 "Tm": 387.15, 
	 "num_atms": 22, 
	 "gaussian": { 
		 "optdone": 1, 
		 "sigma_profile": "yes", 
		 "theory": "DFT", 
		 "functional": "B3LYP", 
		 "basiset": "6-31G**", 
		 "properties": { 
			 "R2extent": 2926.4807, 
			 "electric_dipole_moment_norm": 2.92984455219, 
			 "electric_quadrupole_moment_norm": 18.1994009151, 
			 "total_energy": -570.848155221, 
			 "HOMO_LUMO_gap": 0.19205, 
			 "cosmo_polarized_energy": -16.8, 
			 "cosmo_cavitation_energy": 26.51, 
			 "cosmo_dispersion_energy": -18.9, 
			 "cosmo_repulsion_energy": 1.55, 
			 "cosmo_total_nonelectrostatic_energy": 9.15, 
			 "SMD_solvation_energy": 4.26 
		},
		"coords": [
			{
				"x": -0.1641453003,
				"y": -4.2512662628,
				"z": 0.3960456162,
				"element": "N" 
			},
			{
				"x": -0.4251386045,
				"y": -2.9485179284,
				"z": -0.0250295325,
				"element": "C" 
			},
			{
				"x": 0.5582847499,
				"y": -1.9446956539,
				"z": 0.0646171683,
				"element": "C" 
			},
			{
				"x": 0.3940119026,
				"y": -0.6978792358,
				"z": -0.3699216923,
				"element": "N" 
			},
			{
				"x": -0.777083759,
				"y": -0.3540753214,
				"z": -0.932940737,
				"element": "C" 
			},
			{
				"x": -0.9117724745,
				"y": 1.0837695097,
				"z": -1.3849217177,
				"element": "C" 
			},
			{
				"x": -1.061873428,
				"y": 2.0670269089,
				"z": -0.2057834703,
				"element": "C" 
			},
			{
				"x": -2.3320268279,
				"y": 1.9017070148,
				"z": 0.6010459851,
				"element": "C" 
			},
			{
				"x": -3.4268641622,
				"y": 1.7280151436,
				"z": -0.1883456249,
				"element": "O" 
			},
			{
				"x": -2.4147873493,
				"y": 1.9445678219,
				"z": 1.8081125412,
				"element": "O" 
			},
			{
				"x": -1.8189179394,
				"y": -1.2793324445,
				"z": -1.0629328852,
				"element": "C" 
			},
			{
				"x": -1.6453731995,
				"y": -2.5834827091,
				"z": -0.6095893434,
				"element": "C" 
			},
			{
				"x": -0.9777793669,
				"y": -4.7945336793,
				"z": 0.6502478802,
				"element": "H" 
			},
			{
				"x": 0.5754303658,
				"y": -4.3401923095,
				"z": 1.0796972313,
				"element": "H" 
			},
			{
				"x": 1.525336814,
				"y": -2.1803327411,
				"z": 0.5113694394,
				"element": "H" 
			},
			{
				"x": -1.7637482866,
				"y": 1.1903320277,
				"z": -2.0619395538,
				"element": "H" 
			},
			{
				"x": -0.0086287216,
				"y": 1.361604137,
				"z": -1.9382704167,
				"element": "H" 
			},
			{
				"x": -0.2241228076,
				"y": 1.9631837117,
				"z": 0.4865079676,
				"element": "H" 
			},
			{
				"x": -1.0566843564,
				"y": 3.0969882638,
				"z": -0.5867628854,
				"element": "H" 
			},
			{
				"x": -4.1796463307,
				"y": 1.6552892989,
				"z": 0.4221428329,
				"element": "H" 
			},
			{
				"x": -2.7606568269,
				"y": -0.9758547564,
				"z": -1.5098423036,
				"element": "H" 
			},
			{
				"x": -2.4440140909,
				"y": -3.314820796,
				"z": -0.7095064994,
				"element": "H" 
			}
		],
		 "valence_orbital": [ 
			{
				"type": "occ",
				"energy": -0.31245,
				"method": "rhf"
			},
			{
				"type": "occ",
				"energy": -0.27211,
				"method": "rhf"
			},
			{
				"type": "occ",
				"energy": -0.26627,
				"method": "rhf"
			},
			{
				"type": "occ",
				"energy": -0.24711,
				"method": "rhf"
			},
			{
				"type": "occ",
				"energy": -0.20919,
				"method": "rhf"
			},
			{
				"type": "unocc",
				"energy": -0.01714,
				"method": "rhf"
			},
			{
				"type": "unocc",
				"energy": 0.008,
				"method": "rhf"
			},
			{
				"type": "unocc",
				"energy": 0.01478,
				"method": "rhf"
			},
			{
				"type": "unocc",
				"energy": 0.07479,
				"method": "rhf"
			},
			{
				"type": "unocc",
				"energy": 0.07825,
				"method": "rhf"
			}
		],
		"cosmo_sigma_profile": { 
			"-0.025": 0.0,
			"-0.024": 0.0,
			"-0.023": 0.0,
			"-0.022": 0.0,
			"-0.021": 0.0,
			"-0.02": 0.0,
			"-0.019": 0.036893638994,
			"-0.018": 0.484108332735,
			"-0.017": 0.908191471817,
			"-0.016": 1.00155848968,
			"-0.015": 0.773178037563,
			"-0.014": 0.0658028644577,
			"-0.013": 1.64622592971,
			"-0.012": 3.54464059306,
			"-0.011": 3.73797992945,
			"-0.01": 4.57984957831,
			"-0.009": 3.9918979114,
			"-0.008": 3.25088050848,
			"-0.007": 5.27644429101,
			"-0.006": 10.1208970135,
			"-0.005": 9.72410803653,
			"-0.004": 14.0570348572,
			"-0.003": 13.8020509107,
			"-0.002": 13.7995118229,
			"-0.001": 11.2131839759,
			"0.0": 10.8071527883,
			"0.001": 11.2080160447,
			"0.002": 11.9494614304,
			"0.003": 14.038481207,
			"0.004": 12.4958657991,
			"0.005": 7.5299336993,
			"0.006": 5.52568866144,
			"0.007": 4.15794292336,
			"0.008": 3.75882143528,
			"0.009": 5.37731740121,
			"0.01": 3.72679745305,
			"0.011": 4.67220925574,
			"0.012": 6.42180859597,
			"0.013": 2.87979425893,
			"0.014": 1.05076280772,
			"0.015": 0.359337904893,
			"0.016": 0.861965224595,
			"0.017": 0.217722913452,
			"0.018": 0.0,
			"0.019": 0.0,
			"0.02": 0.0,
			"0.021": 0.0,
			"0.022": 0.0,
			"0.023": 0.0,
			"0.024": 0.0,
			"0.025": 0.0
		}
	}
}
