{
	 "smiles": "CC(C)NC(=O)NC1=C(N)C=CC=C1", 
	 "Tm": 591.15, 
	 "num_atms": 29, 
	 "gaussian": { 
		 "optdone": 1, 
		 "sigma_profile": "yes", 
		 "theory": "DFT", 
		 "functional": "B3LYP", 
		 "basiset": "6-31G**", 
		 "properties": { 
			 "R2extent": 3686.4648, 
			 "electric_dipole_moment_norm": 3.56453652247, 
			 "electric_quadrupole_moment_norm": 12.7890576631, 
			 "total_energy": -629.623627208, 
			 "HOMO_LUMO_gap": 0.19286, 
			 "cosmo_polarized_energy": -16.13, 
			 "cosmo_cavitation_energy": 31.56, 
			 "cosmo_dispersion_energy": -22.75, 
			 "cosmo_repulsion_energy": 1.8, 
			 "cosmo_total_nonelectrostatic_energy": 10.61, 
			 "SMD_solvation_energy": 5.29 
		},
		"coords": [
			{
				"x": 2.2716260881,
				"y": 2.5480557311,
				"z": 1.2933318542,
				"element": "C" 
			},
			{
				"x": 2.871457318,
				"y": 1.6441921539,
				"z": 0.2027424039,
				"element": "C" 
			},
			{
				"x": 4.2746088633,
				"y": 2.1042905406,
				"z": -0.2059904425,
				"element": "C" 
			},
			{
				"x": 2.0363467247,
				"y": 1.5752511508,
				"z": -0.9968105463,
				"element": "N" 
			},
			{
				"x": 0.8213468894,
				"y": 0.9419600237,
				"z": -1.163461982,
				"element": "C" 
			},
			{
				"x": 0.1189152416,
				"y": 1.1864636868,
				"z": -2.1497381282,
				"element": "O" 
			},
			{
				"x": 0.4898917735,
				"y": 0.0067008002,
				"z": -0.2093087742,
				"element": "N" 
			},
			{
				"x": -0.7399586739,
				"y": -0.7100834418,
				"z": -0.1016369802,
				"element": "C" 
			},
			{
				"x": -1.2983303391,
				"y": -1.4395614007,
				"z": -1.1807782441,
				"element": "C" 
			},
			{
				"x": -0.6883771682,
				"y": -1.4690524077,
				"z": -2.4292891369,
				"element": "N" 
			},
			{
				"x": -2.4584911015,
				"y": -2.1952832793,
				"z": -0.9225287075,
				"element": "C" 
			},
			{
				"x": -3.0325117009,
				"y": -2.2567220634,
				"z": 0.3425460881,
				"element": "C" 
			},
			{
				"x": -2.4737116583,
				"y": -1.537679135,
				"z": 1.4005012129,
				"element": "C" 
			},
			{
				"x": -1.339389252,
				"y": -0.7657100072,
				"z": 1.1610729001,
				"element": "C" 
			},
			{
				"x": 2.8906473475,
				"y": 2.5345959915,
				"z": 2.1967944385,
				"element": "H" 
			},
			{
				"x": 2.2077946845,
				"y": 3.5821836852,
				"z": 0.9381275885,
				"element": "H" 
			},
			{
				"x": 1.2618079452,
				"y": 2.2264530523,
				"z": 1.5655191626,
				"element": "H" 
			},
			{
				"x": 2.9690322431,
				"y": 0.6227711466,
				"z": 0.5967339855,
				"element": "H" 
			},
			{
				"x": 4.7028262739,
				"y": 1.4331390763,
				"z": -0.9553461443,
				"element": "H" 
			},
			{
				"x": 4.2412821279,
				"y": 3.1161757499,
				"z": -0.6276980501,
				"element": "H" 
			},
			{
				"x": 4.9396116376,
				"y": 2.1294747876,
				"z": 0.6618430436,
				"element": "H" 
			},
			{
				"x": 2.1598230617,
				"y": 2.3055807668,
				"z": -1.6850963649,
				"element": "H" 
			},
			{
				"x": 1.0865604102,
				"y": -0.0625965302,
				"z": 0.6006245611,
				"element": "H" 
			},
			{
				"x": -1.2690871341,
				"y": -1.8887124508,
				"z": -3.1438622593,
				"element": "H" 
			},
			{
				"x": -0.3330299642,
				"y": -0.5552890429,
				"z": -2.7114291485,
				"element": "H" 
			},
			{
				"x": -2.8985338921,
				"y": -2.7559047963,
				"z": -1.7442429899,
				"element": "H" 
			},
			{
				"x": -3.9215061864,
				"y": -2.8612929894,
				"z": 0.4984194912,
				"element": "H" 
			},
			{
				"x": -2.9154857452,
				"y": -1.5674313015,
				"z": 2.3912712967,
				"element": "H" 
			},
			{
				"x": -0.8957658143,
				"y": -0.1876694973,
				"z": 1.968889872,
				"element": "H" 
			}
		],
		 "valence_orbital": [ 
			{
				"type": "occ",
				"energy": -0.28356,
				"method": "rhf"
			},
			{
				"type": "occ",
				"energy": -0.26076,
				"method": "rhf"
			},
			{
				"type": "occ",
				"energy": -0.25048,
				"method": "rhf"
			},
			{
				"type": "occ",
				"energy": -0.22412,
				"method": "rhf"
			},
			{
				"type": "occ",
				"energy": -0.18744,
				"method": "rhf"
			},
			{
				"type": "unocc",
				"energy": 0.00542,
				"method": "rhf"
			},
			{
				"type": "unocc",
				"energy": 0.02599,
				"method": "rhf"
			},
			{
				"type": "unocc",
				"energy": 0.05945,
				"method": "rhf"
			},
			{
				"type": "unocc",
				"energy": 0.0645,
				"method": "rhf"
			},
			{
				"type": "unocc",
				"energy": 0.08496,
				"method": "rhf"
			}
		],
		"cosmo_sigma_profile": { 
			"-0.025": 0.0,
			"-0.024": 0.0,
			"-0.023": 0.0,
			"-0.022": 0.0,
			"-0.021": 0.0,
			"-0.02": 0.0,
			"-0.019": 0.0,
			"-0.018": 0.0,
			"-0.017": 0.0,
			"-0.016": 0.0,
			"-0.015": 0.0,
			"-0.014": 0.397438400155,
			"-0.013": 1.16035158474,
			"-0.012": 2.43614924911,
			"-0.011": 3.36024795619,
			"-0.01": 4.11028697505,
			"-0.009": 3.66055324111,
			"-0.008": 4.25738397672,
			"-0.007": 4.78003298542,
			"-0.006": 8.01195326582,
			"-0.005": 11.7101193192,
			"-0.004": 18.5279479581,
			"-0.003": 25.3863226575,
			"-0.002": 21.4465428396,
			"-0.001": 18.6424044681,
			"0.0": 21.7429200284,
			"0.001": 15.6181555225,
			"0.002": 9.15362412197,
			"0.003": 9.89118284675,
			"0.004": 9.97693235903,
			"0.005": 10.7995568527,
			"0.006": 12.2661702922,
			"0.007": 9.26129622345,
			"0.008": 3.26452222073,
			"0.009": 2.81365016052,
			"0.01": 2.35331188649,
			"0.011": 2.26286884983,
			"0.012": 2.35147722811,
			"0.013": 2.89303807039,
			"0.014": 3.89167950235,
			"0.015": 1.64814610942,
			"0.016": 0.106832709316,
			"0.017": 0.0,
			"0.018": 0.0,
			"0.019": 0.0,
			"0.02": 0.0,
			"0.021": 0.0,
			"0.022": 0.0,
			"0.023": 0.0,
			"0.024": 0.0,
			"0.025": 0.0
		}
	}
}
