{
	 "smiles": "CC1=C(C)C=C(OC2=NC=CC(=C2)C#N)C=C1", 
	 "Tm": 337.15, 
	 "num_atms": 29, 
	 "gaussian": { 
		 "optdone": 1, 
		 "sigma_profile": "yes", 
		 "theory": "DFT", 
		 "functional": "B3LYP", 
		 "basiset": "6-31G**", 
		 "properties": { 
			 "R2extent": 6076.7302, 
			 "electric_dipole_moment_norm": 4.34581769291, 
			 "electric_quadrupole_moment_norm": 24.3519257723, 
			 "total_energy": -725.434640942, 
			 "HOMO_LUMO_gap": 0.16446, 
			 "cosmo_polarized_energy": -11.16, 
			 "cosmo_cavitation_energy": 34.89, 
			 "cosmo_dispersion_energy": -24.27, 
			 "cosmo_repulsion_energy": 1.89, 
			 "cosmo_total_nonelectrostatic_energy": 12.51, 
			 "SMD_solvation_energy": 6.73 
		},
		"coords": [
			{
				"x": 1.9255310905,
				"y": 2.8906818033,
				"z": -2.6489975246,
				"element": "C" 
			},
			{
				"x": 1.277147477,
				"y": 1.6409622236,
				"z": -2.1028436247,
				"element": "C" 
			},
			{
				"x": 2.0105136653,
				"y": 0.7347799375,
				"z": -1.3035661397,
				"element": "C" 
			},
			{
				"x": 3.4621067278,
				"y": 0.9921474873,
				"z": -0.9759381297,
				"element": "C" 
			},
			{
				"x": 1.3799647601,
				"y": -0.4132441547,
				"z": -0.8168979579,
				"element": "C" 
			},
			{
				"x": 0.0413180339,
				"y": -0.6601429001,
				"z": -1.1095208773,
				"element": "C" 
			},
			{
				"x": -0.56128195,
				"y": -1.8569339075,
				"z": -0.7023808617,
				"element": "O" 
			},
			{
				"x": -0.9124675151,
				"y": -2.0340292385,
				"z": 0.5968001911,
				"element": "C" 
			},
			{
				"x": -0.7559933085,
				"y": -1.0485820083,
				"z": 1.4705994439,
				"element": "N" 
			},
			{
				"x": -1.1313471505,
				"y": -1.2760727555,
				"z": 2.7387153759,
				"element": "C" 
			},
			{
				"x": -1.6709557832,
				"y": -2.4747109263,
				"z": 3.1853579807,
				"element": "C" 
			},
			{
				"x": -1.8283320222,
				"y": -3.5079099717,
				"z": 2.2411267463,
				"element": "C" 
			},
			{
				"x": -1.4440057637,
				"y": -3.2944380172,
				"z": 0.9186996704,
				"element": "C" 
			},
			{
				"x": -2.3792137156,
				"y": -4.7738797414,
				"z": 2.6370660718,
				"element": "C" 
			},
			{
				"x": -2.8254520616,
				"y": -5.7961574034,
				"z": 2.964505562,
				"element": "N" 
			},
			{
				"x": -0.6938336786,
				"y": 0.2161583859,
				"z": -1.8947490576,
				"element": "C" 
			},
			{
				"x": -0.0635098109,
				"y": 1.360960391,
				"z": -2.3850797394,
				"element": "C" 
			},
			{
				"x": 2.3006591876,
				"y": 3.5373248596,
				"z": -1.8463616705,
				"element": "H" 
			},
			{
				"x": 1.2169019949,
				"y": 3.4745940296,
				"z": -3.2420504455,
				"element": "H" 
			},
			{
				"x": 2.7836537415,
				"y": 2.6564501768,
				"z": -3.2908160075,
				"element": "H" 
			},
			{
				"x": 3.5913428502,
				"y": 1.937042411,
				"z": -0.4344242134,
				"element": "H" 
			},
			{
				"x": 4.0748365753,
				"y": 1.0627889526,
				"z": -1.8827781394,
				"element": "H" 
			},
			{
				"x": 3.8753785519,
				"y": 0.193311795,
				"z": -0.3550570395,
				"element": "H" 
			},
			{
				"x": 1.9304060285,
				"y": -1.1222151426,
				"z": -0.2063327132,
				"element": "H" 
			},
			{
				"x": -0.9905773522,
				"y": -0.4477336274,
				"z": 3.429576659,
				"element": "H" 
			},
			{
				"x": -1.9608827294,
				"y": -2.6137210003,
				"z": 4.2197196749,
				"element": "H" 
			},
			{
				"x": -1.5453445753,
				"y": -4.0588673522,
				"z": 0.1583959374,
				"element": "H" 
			},
			{
				"x": -1.7329471379,
				"y": 0.000298156,
				"z": -2.1191286653,
				"element": "H" 
			},
			{
				"x": -0.6298161296,
				"y": 2.0532375381,
				"z": -3.0026405067,
				"element": "H" 
			}
		],
		 "valence_orbital": [ 
			{
				"type": "occ",
				"energy": -0.29548,
				"method": "rhf"
			},
			{
				"type": "occ",
				"energy": -0.28587,
				"method": "rhf"
			},
			{
				"type": "occ",
				"energy": -0.25863,
				"method": "rhf"
			},
			{
				"type": "occ",
				"energy": -0.24721,
				"method": "rhf"
			},
			{
				"type": "occ",
				"energy": -0.23372,
				"method": "rhf"
			},
			{
				"type": "unocc",
				"energy": -0.06926,
				"method": "rhf"
			},
			{
				"type": "unocc",
				"energy": -0.02397,
				"method": "rhf"
			},
			{
				"type": "unocc",
				"energy": -0.0018,
				"method": "rhf"
			},
			{
				"type": "unocc",
				"energy": -3e-05,
				"method": "rhf"
			},
			{
				"type": "unocc",
				"energy": 0.02741,
				"method": "rhf"
			}
		],
		"cosmo_sigma_profile": { 
			"-0.025": 0.0,
			"-0.024": 0.0,
			"-0.023": 0.0,
			"-0.022": 0.0,
			"-0.021": 0.0,
			"-0.02": 0.0,
			"-0.019": 0.0,
			"-0.018": 0.0,
			"-0.017": 0.0,
			"-0.016": 0.0,
			"-0.015": 0.0,
			"-0.014": 0.0,
			"-0.013": 0.0,
			"-0.012": 0.0,
			"-0.011": 0.0,
			"-0.01": 0.107645068156,
			"-0.009": 2.78996655839,
			"-0.008": 5.05129136512,
			"-0.007": 7.42166178428,
			"-0.006": 9.56459793695,
			"-0.005": 14.270238882,
			"-0.004": 24.461736435,
			"-0.003": 24.6057706509,
			"-0.002": 26.6881644401,
			"-0.001": 30.3793794559,
			"0.0": 30.6206756817,
			"0.001": 20.1041695021,
			"0.002": 10.417340974,
			"0.003": 13.0031584732,
			"0.004": 12.041027143,
			"0.005": 12.0550904192,
			"0.006": 7.58824665875,
			"0.007": 6.62387743737,
			"0.008": 5.39797867586,
			"0.009": 5.13135620957,
			"0.01": 3.6372111878,
			"0.011": 3.86671305087,
			"0.012": 3.00415398368,
			"0.013": 0.935756148071,
			"0.014": 0.210895410955,
			"0.015": 0.0,
			"0.016": 0.0,
			"0.017": 0.0,
			"0.018": 0.0,
			"0.019": 0.0,
			"0.02": 0.0,
			"0.021": 0.0,
			"0.022": 0.0,
			"0.023": 0.0,
			"0.024": 0.0,
			"0.025": 0.0
		}
	}
}
