{
	 "smiles": "CC(C)=C1OC(=O)C1(C)C", 
	 "Tm": 255.15, 
	 "num_atms": 22, 
	 "gaussian": { 
		 "optdone": 1, 
		 "sigma_profile": "yes", 
		 "theory": "DFT", 
		 "functional": "B3LYP", 
		 "basiset": "6-31G**", 
		 "properties": { 
			 "R2extent": 1669.492, 
			 "electric_dipole_moment_norm": 3.97488941985, 
			 "electric_quadrupole_moment_norm": 9.28247261079, 
			 "total_energy": -462.516141993, 
			 "HOMO_LUMO_gap": 0.23597, 
			 "cosmo_polarized_energy": -7.6, 
			 "cosmo_cavitation_energy": 25.17, 
			 "cosmo_dispersion_energy": -17.4, 
			 "cosmo_repulsion_energy": 1.44, 
			 "cosmo_total_nonelectrostatic_energy": 9.21, 
			 "SMD_solvation_energy": 5.82 
		},
		"coords": [
			{
				"x": 1.7687536478,
				"y": 1.8122867803,
				"z": 0.4746651969,
				"element": "C" 
			},
			{
				"x": 0.4533241907,
				"y": 1.0854223954,
				"z": 0.3595412412,
				"element": "C" 
			},
			{
				"x": -0.7043968858,
				"y": 1.6192555529,
				"z": 1.1645898074,
				"element": "C" 
			},
			{
				"x": 0.3140695609,
				"y": 0.0165391085,
				"z": -0.4188450362,
				"element": "C" 
			},
			{
				"x": 1.33777624,
				"y": -0.5687938365,
				"z": -1.2183018239,
				"element": "O" 
			},
			{
				"x": 0.4625893317,
				"y": -1.5451583878,
				"z": -1.6757828469,
				"element": "C" 
			},
			{
				"x": 0.6936377337,
				"y": -2.4331195514,
				"z": -2.4402716058,
				"element": "O" 
			},
			{
				"x": -0.7251035829,
				"y": -1.0064466389,
				"z": -0.8567816905,
				"element": "C" 
			},
			{
				"x": -1.873048431,
				"y": -0.483235656,
				"z": -1.7302812718,
				"element": "C" 
			},
			{
				"x": -1.2126638242,
				"y": -1.9880618719,
				"z": 0.2171280808,
				"element": "C" 
			},
			{
				"x": 1.6611052209,
				"y": 2.8607611184,
				"z": 0.1682912385,
				"element": "H" 
			},
			{
				"x": 2.1176577204,
				"y": 1.8211797683,
				"z": 1.5153016718,
				"element": "H" 
			},
			{
				"x": 2.5421048773,
				"y": 1.3517619163,
				"z": -0.1428759162,
				"element": "H" 
			},
			{
				"x": -0.4662596571,
				"y": 1.6199916492,
				"z": 2.2360836216,
				"element": "H" 
			},
			{
				"x": -0.9229879629,
				"y": 2.6592940221,
				"z": 0.8900931689,
				"element": "H" 
			},
			{
				"x": -1.6184489244,
				"y": 1.0367270109,
				"z": 1.02495831,
				"element": "H" 
			},
			{
				"x": -2.3638589605,
				"y": -1.317533823,
				"z": -2.2410965529,
				"element": "H" 
			},
			{
				"x": -1.514243194,
				"y": 0.2202129333,
				"z": -2.4867415846,
				"element": "H" 
			},
			{
				"x": -2.6203516347,
				"y": 0.0278115585,
				"z": -1.115248671,
				"element": "H" 
			},
			{
				"x": -1.6904506419,
				"y": -2.8518165873,
				"z": -0.2556706399,
				"element": "H" 
			},
			{
				"x": -0.3871107208,
				"y": -2.3482164136,
				"z": 0.837265276,
				"element": "H" 
			},
			{
				"x": -1.9468941033,
				"y": -1.5071610478,
				"z": 0.8709800267,
				"element": "H" 
			}
		],
		 "valence_orbital": [ 
			{
				"type": "occ",
				"energy": -0.36282,
				"method": "rhf"
			},
			{
				"type": "occ",
				"energy": -0.34676,
				"method": "rhf"
			},
			{
				"type": "occ",
				"energy": -0.3299,
				"method": "rhf"
			},
			{
				"type": "occ",
				"energy": -0.27329,
				"method": "rhf"
			},
			{
				"type": "occ",
				"energy": -0.23113,
				"method": "rhf"
			},
			{
				"type": "unocc",
				"energy": 0.00484,
				"method": "rhf"
			},
			{
				"type": "unocc",
				"energy": 0.02541,
				"method": "rhf"
			},
			{
				"type": "unocc",
				"energy": 0.06565,
				"method": "rhf"
			},
			{
				"type": "unocc",
				"energy": 0.10719,
				"method": "rhf"
			},
			{
				"type": "unocc",
				"energy": 0.11363,
				"method": "rhf"
			}
		],
		"cosmo_sigma_profile": { 
			"-0.025": 0.0,
			"-0.024": 0.0,
			"-0.023": 0.0,
			"-0.022": 0.0,
			"-0.021": 0.0,
			"-0.02": 0.0,
			"-0.019": 0.0,
			"-0.018": 0.0,
			"-0.017": 0.0,
			"-0.016": 0.0,
			"-0.015": 0.0,
			"-0.014": 0.0,
			"-0.013": 0.0,
			"-0.012": 0.0,
			"-0.011": 0.0,
			"-0.01": 0.0,
			"-0.009": 0.0,
			"-0.008": 0.0,
			"-0.007": 0.0358228363068,
			"-0.006": 2.57100730734,
			"-0.005": 10.3452197905,
			"-0.004": 21.9953487372,
			"-0.003": 24.7695347529,
			"-0.002": 23.1384769318,
			"-0.001": 28.5979019291,
			"0.0": 27.6426624319,
			"0.001": 11.4639787679,
			"0.002": 6.93370997259,
			"0.003": 6.38764258919,
			"0.004": 4.41325977834,
			"0.005": 3.40282610923,
			"0.006": 3.79725046669,
			"0.007": 3.64913172619,
			"0.008": 3.85764428393,
			"0.009": 3.70119488164,
			"0.01": 4.8433838181,
			"0.011": 4.95562431648,
			"0.012": 0.606596194666,
			"0.013": 0.0,
			"0.014": 0.0,
			"0.015": 0.0,
			"0.016": 0.0,
			"0.017": 0.0,
			"0.018": 0.0,
			"0.019": 0.0,
			"0.02": 0.0,
			"0.021": 0.0,
			"0.022": 0.0,
			"0.023": 0.0,
			"0.024": 0.0,
			"0.025": 0.0
		}
	}
}
