{
	 "smiles": "COC(=O)C1=C(NC(=O)CBr)C=CC=C1", 
	 "Tm": 352.15, 
	 "num_atms": 25, 
	 "gaussian": { 
		 "optdone": 1, 
		 "sigma_profile": "yes", 
		 "theory": "DFT", 
		 "functional": "B3LYP", 
		 "basiset": "6-31G**", 
		 "properties": { 
			 "R2extent": 5948.1874, 
			 "electric_dipole_moment_norm": 1.28174953091, 
			 "electric_quadrupole_moment_norm": 12.8873630821, 
			 "total_energy": -3238.94856567, 
			 "HOMO_LUMO_gap": 0.17965, 
			 "cosmo_polarized_energy": -10.92, 
			 "cosmo_cavitation_energy": 31.26, 
			 "cosmo_dispersion_energy": -22.9, 
			 "cosmo_repulsion_energy": 1.76, 
			 "cosmo_total_nonelectrostatic_energy": 10.12, 
			 "SMD_solvation_energy": 6.25 
		},
		"coords": [
			{
				"x": 2.0428209137,
				"y": -1.3069106672,
				"z": 2.2485606914,
				"element": "C" 
			},
			{
				"x": 0.9131786781,
				"y": -0.7449109865,
				"z": 1.5552386985,
				"element": "O" 
			},
			{
				"x": 1.137158669,
				"y": 0.4367733883,
				"z": 0.918341959,
				"element": "C" 
			},
			{
				"x": 2.2286389459,
				"y": 0.9690840637,
				"z": 0.9364375665,
				"element": "O" 
			},
			{
				"x": -0.0565509457,
				"y": 0.9900262967,
				"z": 0.2129843714,
				"element": "C" 
			},
			{
				"x": -1.3668615531,
				"y": 0.4337835438,
				"z": 0.171733888,
				"element": "C" 
			},
			{
				"x": -1.6576681662,
				"y": -0.7636642369,
				"z": 0.8557030363,
				"element": "N" 
			},
			{
				"x": -2.8391185105,
				"y": -1.4442630966,
				"z": 0.8987049307,
				"element": "C" 
			},
			{
				"x": -3.8840929566,
				"y": -1.1414042392,
				"z": 0.336716607,
				"element": "O" 
			},
			{
				"x": -2.8629266694,
				"y": -2.7664839752,
				"z": 1.6713945225,
				"element": "C" 
			},
			{
				"x": -1.4691530947,
				"y": -3.075976542,
				"z": 3.0411670874,
				"element": "Br" 
			},
			{
				"x": -2.3632474904,
				"y": 1.106052574,
				"z": -0.5597335315,
				"element": "C" 
			},
			{
				"x": -2.0768604304,
				"y": 2.2915952375,
				"z": -1.2279807949,
				"element": "C" 
			},
			{
				"x": -0.7961733643,
				"y": 2.8456424155,
				"z": -1.1905103567,
				"element": "C" 
			},
			{
				"x": 0.1940702178,
				"y": 2.1909569207,
				"z": -0.4734877013,
				"element": "C" 
			},
			{
				"x": 2.8578102302,
				"y": -1.5015891491,
				"z": 1.548365813,
				"element": "H" 
			},
			{
				"x": 1.6768096494,
				"y": -2.2337058048,
				"z": 2.6880769442,
				"element": "H" 
			},
			{
				"x": 2.3931811762,
				"y": -0.6200669457,
				"z": 3.0218757056,
				"element": "H" 
			},
			{
				"x": -0.882493001,
				"y": -1.1554912479,
				"z": 1.3821357311,
				"element": "H" 
			},
			{
				"x": -3.8177936575,
				"y": -2.8323724275,
				"z": 2.1873385076,
				"element": "H" 
			},
			{
				"x": -2.7747459907,
				"y": -3.594798267,
				"z": 0.9672889527,
				"element": "H" 
			},
			{
				"x": -3.3553815993,
				"y": 0.6811712322,
				"z": -0.5922177916,
				"element": "H" 
			},
			{
				"x": -2.8699733994,
				"y": 2.7844983805,
				"z": -1.7831004654,
				"element": "H" 
			},
			{
				"x": -0.5745574174,
				"y": 3.7711943585,
				"z": -1.7119623825,
				"element": "H" 
			},
			{
				"x": 1.2014297665,
				"y": 2.5877591742,
				"z": -0.4203719892,
				"element": "H" 
			}
		],
		 "valence_orbital": [ 
			{
				"type": "occ",
				"energy": -0.29285,
				"method": "rhf"
			},
			{
				"type": "occ",
				"energy": -0.28507,
				"method": "rhf"
			},
			{
				"type": "occ",
				"energy": -0.26618,
				"method": "rhf"
			},
			{
				"type": "occ",
				"energy": -0.26249,
				"method": "rhf"
			},
			{
				"type": "occ",
				"energy": -0.23451,
				"method": "rhf"
			},
			{
				"type": "unocc",
				"energy": -0.05486,
				"method": "rhf"
			},
			{
				"type": "unocc",
				"energy": -0.02715,
				"method": "rhf"
			},
			{
				"type": "unocc",
				"energy": -0.01298,
				"method": "rhf"
			},
			{
				"type": "unocc",
				"energy": 0.03359,
				"method": "rhf"
			},
			{
				"type": "unocc",
				"energy": 0.05126,
				"method": "rhf"
			}
		],
		"cosmo_sigma_profile": { 
			"-0.025": 0.0,
			"-0.024": 0.0,
			"-0.023": 0.0,
			"-0.022": 0.0,
			"-0.021": 0.0,
			"-0.02": 0.0,
			"-0.019": 0.0,
			"-0.018": 0.0,
			"-0.017": 0.0,
			"-0.016": 0.0,
			"-0.015": 0.0,
			"-0.014": 0.0,
			"-0.013": 0.0,
			"-0.012": 0.0,
			"-0.011": 0.0,
			"-0.01": 0.750875432316,
			"-0.009": 3.5244994824,
			"-0.008": 3.9453755276,
			"-0.007": 5.1562589027,
			"-0.006": 15.0221167097,
			"-0.005": 16.9794532867,
			"-0.004": 21.6741649101,
			"-0.003": 22.9221399844,
			"-0.002": 18.7996658505,
			"-0.001": 17.2594078979,
			"0.0": 16.8763102977,
			"0.001": 19.7729272691,
			"0.002": 19.0751976919,
			"0.003": 18.3606265492,
			"0.004": 16.0494098251,
			"0.005": 9.39872647393,
			"0.006": 3.11718543743,
			"0.007": 2.60736726497,
			"0.008": 3.59648368282,
			"0.009": 3.27624937296,
			"0.01": 3.43106521887,
			"0.011": 6.80950229796,
			"0.012": 4.71875937802,
			"0.013": 0.635694020741,
			"0.014": 0.0,
			"0.015": 0.0,
			"0.016": 0.0,
			"0.017": 0.0,
			"0.018": 0.0,
			"0.019": 0.0,
			"0.02": 0.0,
			"0.021": 0.0,
			"0.022": 0.0,
			"0.023": 0.0,
			"0.024": 0.0,
			"0.025": 0.0
		}
	}
}
